1000 SPC/Fw water molecules t= 144.00000 step= 144000
 3000
    1SOL     OW    1   2.256   2.476   0.868  0.1334  0.3846  0.1144
    1SOL    HW1    2   2.225   2.532   0.789 -0.1797 -1.1002  1.9498
    1SOL    HW2    3   2.187   2.407   0.887  2.0297  5.2733  0.6395
    2SOL     OW    4   1.621   1.679   2.255  0.7565 -0.2289  0.1006
    2SOL    HW1    5   1.718   1.712   2.267  1.8766  1.0713 -0.2255
    2SOL    HW2    6   1.564   1.726   2.320  0.5112 -1.5036  0.8804
    3SOL     OW    7   1.720   2.449   2.220  0.0906  0.3608 -0.1426
    3SOL    HW1    8   1.704   2.525   2.285  0.2071  0.0263  0.9614
    3SOL    HW2    9   1.816   2.421   2.232 -2.2018  2.4278  0.4765
    4SOL     OW   10   1.525   2.425   2.012  0.8690 -0.4687  0.3509
    4SOL    HW1   11   1.575   2.449   2.096 -0.1647 -0.5762 -1.5357
    4SOL    HW2   12   1.585   2.438   1.930 -1.1573  3.3457  1.0264
    5SOL     OW   13   0.560   0.602   1.342  0.3502 -0.1176  0.0831
    5SOL    HW1   14   0.625   0.552   1.278  0.9299 -1.2320 -1.1275
    5SOL    HW2   15   0.497   0.541   1.387  0.3009 -1.8145  4.5345
    6SOL     OW   16   2.599   0.942   2.817 -0.0242  0.0495 -0.1959
    6SOL    HW1   17   2.606   0.874   2.895 -1.9728  2.5397 -2.8863
    6SOL    HW2   18   2.517   0.914   2.762 -1.7586 -0.7546 -1.9899
    7SOL     OW   19   0.762   0.468   1.235 -1.3738  0.3809  0.0653
    7SOL    HW1   20   0.758   0.405   1.313  2.7499  0.8992  0.4913
    7SOL    HW2   21   0.851   0.450   1.180  1.3079  0.3890 -2.7330
    8SOL     OW   22   1.062   2.452   1.462  0.3694 -0.1788  0.3481
    8SOL    HW1   23   0.957   2.430   1.467 -2.6562 -0.1501 -1.0932
    8SOL    HW2   24   1.103   2.387   1.524 -2.0184  0.6268 -2.5995
    9SOL     OW   25   0.731   1.005   0.344  0.0426 -0.3760  0.2335
    9SOL    HW1   26   0.677   0.945   0.279 -3.3000 -2.6456 -1.4876
    9SOL    HW2   27   0.685   1.094   0.368 -0.1341  0.9230  0.5653
   10SOL     OW   28   0.713   2.368   2.632  0.2215  0.1946 -0.2346
   10SOL    HW1   29   0.623   2.391   2.598 -1.9261 -1.2020 -0.1918
   10SOL    HW2   30   0.735   2.434   2.703  0.5984  0.2040  0.7996
   11SOL     OW   31   0.182   1.661   0.054 -0.1701  0.3290 -0.1663
   11SOL    HW1   32   0.169   1.763   0.067  2.3223 -0.8978 -2.6733
   11SOL    HW2   33   0.195   1.650   3.034  0.9714  0.6655  1.0527
   12SOL     OW   34   0.458   3.020   1.330 -0.1974  0.5646 -0.5888
   12SOL    HW1   35   0.360   3.036   1.346  0.5106  2.2026 -0.7294
   12SOL    HW2   36   0.500   0.030   1.309  0.2789 -2.3503 -0.6386
   13SOL     OW   37   0.835   2.546   0.363 -0.3598 -0.3013 -0.3374
   13SOL    HW1   38   0.851   2.443   0.363 -1.0689  1.9588 -0.4299
   13SOL    HW2   39   0.734   2.574   0.370 -2.8533  0.9587  2.5424
   14SOL     OW   40   1.351   1.859   0.909 -0.0770  0.0840 -0.0841
   14SOL    HW1   41   1.437   1.908   0.886  0.6909  1.2756  2.0328
   14SOL    HW2   42   1.340   1.859   1.013  1.4925  1.1560 -0.2307
   15SOL     OW   43   2.643   0.843   2.356  0.7372  0.4207  0.2204
   15SOL    HW1   44   2.663   0.760   2.418  0.7753  0.4805  2.6637
   15SOL    HW2   45   2.559   0.881   2.396  2.2034 -3.0004  1.4845
   16SOL     OW   46   1.537   2.803   2.982 -0.1224  0.0208  0.3079
   16SOL    HW1   47   1.608   2.751   2.931 -0.6775 -0.6190 -2.7383
   16SOL    HW2   48   1.551   2.803   0.004  0.0678 -0.3108  0.1961
   17SOL     OW   49   0.580   2.511   1.949  0.4032  0.1916  0.4604
   17SOL    HW1   50   0.675   2.522   1.965 -2.8834  0.1022 -1.2740
   17SOL    HW2   51   0.536   2.597   1.910 -1.9698  4.0074 -1.0546
   18SOL     OW   52   1.658   0.955   0.238 -0.3873 -0.4747 -0.6092
   18SOL    HW1   53   1.559   0.959   0.241  0.3729 -0.3092  2.2295
   18SOL    HW2   54   1.700   0.941   0.146  0.9438 -2.8952  1.7980
   19SOL     OW   55   2.424   2.289   2.690 -0.0945 -0.1811 -0.0842
   19SOL    HW1   56   2.367   2.248   2.764  1.6374  0.3861 -1.8437
   19SOL    HW2   57   2.464   2.211   2.638 -1.3514  1.0072  4.8285
   20SOL     OW   58   1.880   1.716   2.306 -0.1945  0.0842  0.4961
   20SOL    HW1   59   1.941   1.653   2.256 -0.8264  1.1125 -0.0085
   20SOL    HW2   60   1.870   1.696   2.406 -0.8625  0.3612  0.4456
   21SOL     OW   61   0.450   2.069   2.963  0.1240 -0.2961  0.1572
   21SOL    HW1   62   0.459   2.029   3.054 -0.2409 -0.4086 -1.4204
   21SOL    HW2   63   0.392   2.011   2.911 -0.0075  0.4697  2.9163
   22SOL     OW   64   2.129   2.951   1.478 -0.0396 -0.4450 -0.3817
   22SOL    HW1   65   2.182   2.898   1.545  0.6882  1.4127 -0.6986
   22SOL    HW2   66   2.144   3.048   1.501 -1.4324 -0.0380 -0.5289
   23SOL     OW   67   0.114   1.257   1.486  0.0767 -0.4851 -0.0418
   23SOL    HW1   68   0.149   1.265   1.582  2.2332 -0.5170  0.0646
   23SOL    HW2   69   0.163   1.186   1.432  0.0700  1.2004 -0.2667
   24SOL     OW   70   2.350   2.001   1.703  0.5371  0.3455 -0.1919
   24SOL    HW1   71   2.377   2.028   1.608 -0.5781  0.5762 -1.2861
   24SOL    HW2   72   2.276   2.060   1.742 -0.2062 -1.7743 -2.2717
   25SOL     OW   73   1.971   2.875   2.788  0.1304  0.2651  0.0253
   25SOL    HW1   74   2.065   2.905   2.763  2.1647 -0.9651 -2.5269
   25SOL    HW2   75   1.951   2.794   2.734 -2.2587  0.5975 -1.2330
   26SOL     OW   76   1.000   2.872   0.740  0.5191  0.1652 -0.4532
   26SOL    HW1   77   1.084   2.824   0.771  1.2547  2.7678 -0.1970
   26SOL    HW2   78   1.020   2.966   0.714 -0.8257 -1.8274  2.2815
   27SOL     OW   79   1.101   2.007   2.780 -0.4789 -0.4444 -0.0996
   27SOL    HW1   80   1.092   1.982   2.879  1.6404  1.0353  0.5324
   27SOL    HW2   81   1.010   2.002   2.730  1.6187  0.2456 -0.7380
   28SOL     OW   82   3.055   1.826   1.257  0.1056  0.0843 -0.2512
   28SOL    HW1   83   0.062   1.857   1.215  0.9929  0.5935  1.4621
   28SOL    HW2   84   2.991   1.900   1.286 -1.5173 -2.6399 -0.9624
   29SOL     OW   85   2.296   2.151   2.108  0.2308 -0.3034 -0.3639
   29SOL    HW1   86   2.323   2.243   2.135 -0.2203 -0.7873 -1.9012
   29SOL    HW2   87   2.281   2.095   2.195  0.0190 -0.9384  2.4377
   30SOL     OW   88   0.923   2.752   1.182 -0.5715 -0.1837  0.1434
   30SOL    HW1   89   0.924   2.828   1.246 -2.5905 -0.3226  1.7078
   30SOL    HW2   90   0.883   2.777   1.093  1.5594  0.2726  1.5703
   31SOL     OW   91   2.968   1.997   2.102  0.3563  0.2768 -0.1784
   31SOL    HW1   92   2.918   1.913   2.079  0.7002 -0.6607  0.0024
   31SOL    HW2   93   3.068   1.995   2.078  2.2419 -2.0423  1.1368
   32SOL     OW   94   1.272   1.013   2.113 -0.4087 -0.2466 -0.3612
   32SOL    HW1   95   1.249   1.100   2.066  3.4779  1.9229  0.4779
   32SOL    HW2   96   1.271   1.036   2.211 -0.5738  0.5670 -0.0334
   33SOL     OW   97   0.483   2.978   2.575  0.2314  0.2399  0.4708
   33SOL    HW1   98   0.383   2.990   2.565 -0.1872  3.2903 -1.3188
   33SOL    HW2   99   0.513   2.886   2.604  0.5848  1.8012  0.1810
   34SOL     OW  100   1.389   3.078   1.450 -0.1807 -0.3450  0.2584
   34SOL    HW1  101   1.318   3.020   1.406  0.5697 -1.3275  2.9211
   34SOL    HW2  102   1.485   3.043   1.424  0.0371  0.5918 -0.7766
   35SOL     OW  103   1.966   0.479   0.954 -0.1506 -0.2414 -0.1456
   35SOL    HW1  104   1.971   0.397   0.894  1.0163 -3.9424  0.0239
   35SOL    HW2  105   1.869   0.505   0.974 -1.2157 -0.5869 -2.2061
   36SOL     OW  106   1.994   2.740   2.336  0.7476  0.6011  0.2786
   36SOL    HW1  107   2.084   2.788   2.353  1.2711  0.8183 -1.1881
   36SOL    HW2  108   1.964   2.782   2.243  0.9789  1.0867 -2.8671
   37SOL     OW  109   1.311   2.483   2.520 -0.2927  0.2516  0.7176
   37SOL    HW1  110   1.216   2.517   2.550 -1.3545 -2.2844  0.5023
   37SOL    HW2  111   1.316   2.453   2.423 -0.1722  0.3431  2.3890
   38SOL     OW  112   2.477   0.625   2.806 -0.0922 -0.2169 -0.1208
   38SOL    HW1  113   2.392   0.636   2.865 -0.7729  0.8999 -1.0966
   38SOL    HW2  114   2.553   0.582   2.853 -2.2320  1.7662  0.9860
   39SOL     OW  115   1.745   2.042   2.422 -0.5199  1.0879  0.8439
   39SOL    HW1  116   1.780   2.058   2.516 -3.3961 -1.6435 -5.7020
   39SOL    HW2  117   1.824   2.030   2.356 -0.8686 -0.5154  0.4441
   40SOL     OW  118   0.347   0.209   2.827 -0.3747 -0.2067  0.1230
   40SOL    HW1  119   0.449   0.189   2.809  1.7456 -2.3908 -0.5445
   40SOL    HW2  120   0.307   0.118   2.846  0.7859 -1.0583 -0.1054
   41SOL     OW  121   1.459   0.838   1.599 -0.5533  0.6617  0.6034
   41SOL    HW1  122   1.468   0.895   1.515  0.0249 -0.6095  3.6869
   41SOL    HW2  123   1.363   0.826   1.629  2.4339 -1.2072 -1.3078
   42SOL     OW  124   0.378   0.297   1.670  0.7290 -0.1702  0.1230
   42SOL    HW1  125   0.326   0.222   1.625 -1.5522 -1.1801  0.1850
   42SOL    HW2  126   0.461   0.258   1.710  1.5508  0.3373 -1.5252
   43SOL     OW  127   1.661   0.989   1.906  0.0777  0.0468  0.4893
   43SOL    HW1  128   1.635   1.080   1.933  1.0340  1.0148  1.0463
   43SOL    HW2  129   1.699   0.986   1.816 -3.1489 -1.2773  4.0776
   44SOL     OW  130   0.086   2.807   2.505  0.1069 -0.3810  0.5384
   44SOL    HW1  131   0.149   2.873   2.545 -1.0395  1.6904 -1.2763
   44SOL    HW2  132   0.045   2.850   2.424 -1.8904 -0.3330  0.0284
   45SOL     OW  133   0.217   2.524   0.967  0.1231 -0.1745 -0.0978
   45SOL    HW1  134   0.176   2.601   1.015  1.9319 -1.5074 -2.8676
   45SOL    HW2  135   0.320   2.536   0.973  1.3529  1.1757  0.3433
   46SOL     OW  136   2.264   2.241   1.833 -0.1418 -0.8758  0.5413
   46SOL    HW1  137   2.211   2.278   1.912  0.3350  1.7429 -1.3571
   46SOL    HW2  138   2.359   2.271   1.844 -2.6212 -0.7323  0.3591
   47SOL     OW  139   1.817   1.928   1.609 -0.5301  0.3404  0.0269
   47SOL    HW1  140   1.763   1.916   1.693  0.5983  1.3203  1.3966
   47SOL    HW2  141   1.882   1.848   1.598  0.0500  1.7956  1.1937
   48SOL     OW  142   0.426   1.932   0.450 -0.3942  0.5100  0.2085
   48SOL    HW1  143   0.404   1.847   0.502 -1.1810 -3.6161  0.2788
   48SOL    HW2  144   0.438   2.015   0.507 -1.6074 -0.7941  3.1449
   49SOL     OW  145   2.928   0.622   2.179  0.5956  0.1504  0.4573
   49SOL    HW1  146   2.899   0.577   2.265  1.0173  0.3602 -2.3425
   49SOL    HW2  147   2.936   0.723   2.196 -0.4174  1.3630  0.6661
   50SOL     OW  148   2.269   0.624   0.879  0.3276 -0.2077 -0.4359
   50SOL    HW1  149   2.208   0.563   0.930  0.6940  0.7844  0.8241
   50SOL    HW2  150   2.324   0.687   0.934  0.0588  0.4485 -1.7705
   51SOL     OW  151   1.193   0.430   0.923 -0.1362  0.6767  0.3075
   51SOL    HW1  152   1.115   0.461   0.984  1.4248  2.1619 -0.2185
   51SOL    HW2  153   1.281   0.463   0.962 -2.0487 -2.4082 -1.6896
   52SOL     OW  154   1.363   1.158   0.325 -0.0462 -0.0210 -0.3631
   52SOL    HW1  155   1.390   1.118   0.235  1.0173  0.1576  0.1221
   52SOL    HW2  156   1.305   1.092   0.380  1.2361  0.6746 -1.2496
   53SOL     OW  157   1.060   2.185   2.489  0.1662  0.0856 -0.3979
   53SOL    HW1  158   0.982   2.125   2.484 -3.3246 -0.2928  1.9879
   53SOL    HW2  159   1.062   2.240   2.576  0.5427 -2.0505  1.7623
   54SOL     OW  160   1.752   0.916   1.656 -0.1617  0.0496  0.1560
   54SOL    HW1  161   1.814   0.846   1.616 -0.2142  0.1177 -1.0347
   54SOL    HW2  162   1.655   0.890   1.650  1.2533 -0.3022  1.0696
   55SOL     OW  163   1.872   2.896   0.833  0.0593 -0.3871 -0.3410
   55SOL    HW1  164   1.781   2.857   0.831  0.3453 -1.7919  1.6722
   55SOL    HW2  165   1.937   2.844   0.891  1.1855 -0.9770 -1.2308
   56SOL     OW  166   0.734   2.583   1.300  0.1301  0.1029  0.2925
   56SOL    HW1  167   0.816   2.621   1.252 -1.5335 -0.9938 -0.0717
   56SOL    HW2  168   0.666   2.657   1.312 -0.6916 -2.6740  0.7617
   57SOL     OW  169   1.954   0.918   0.188  0.0688  0.5771  0.3634
   57SOL    HW1  170   2.052   0.918   0.166  0.8722  2.5279 -0.1990
   57SOL    HW2  171   1.920   1.013   0.168  1.7351  3.4078  3.4032
   58SOL     OW  172   2.975   1.137   2.146  0.1258 -0.4754  0.2943
   58SOL    HW1  173   3.027   1.175   2.227  2.6127  1.4538  1.7291
   58SOL    HW2  174   2.981   1.208   2.070 -0.8970  1.0086 -2.1226
   59SOL     OW  175   0.788   2.418   2.169 -0.2342  0.1714  0.2539
   59SOL    HW1  176   0.694   2.377   2.175 -3.0265 -0.8612 -1.0364
   59SOL    HW2  177   0.793   2.518   2.170 -0.1623  0.4512  0.7511
   60SOL     OW  178   2.504   2.537   1.002  0.0984  0.0637  0.5145
   60SOL    HW1  179   2.415   2.520   0.949 -2.0955 -0.6531  0.4901
   60SOL    HW2  180   2.572   2.589   0.949 -2.1436 -0.1364  0.1147
   61SOL     OW  181   1.430   1.761   0.355  0.5295  0.2444 -0.0689
   61SOL    HW1  182   1.392   1.710   0.430 -0.5912  0.6061 -1.6805
   61SOL    HW2  183   1.452   1.857   0.378  0.7309 -1.9988 -1.5763
   62SOL     OW  184   2.142   2.752   3.013 -0.6193 -0.3446 -0.1656
   62SOL    HW1  185   2.244   2.762   3.017  1.7027 -1.6889 -0.5940
   62SOL    HW2  186   2.101   2.757   0.024  0.0708  0.9220 -1.4002
   63SOL     OW  187   1.906   0.162   0.328 -0.0497 -0.6504  0.1379
   63SOL    HW1  188   1.990   0.212   0.334 -1.4848 -0.7762 -0.2429
   63SOL    HW2  189   1.846   0.216   0.264 -0.1484  0.6833 -1.6457
   64SOL     OW  190   0.971   1.137   2.514  0.1142 -0.0278 -0.8389
   64SOL    HW1  191   1.017   1.204   2.451  1.6227 -1.2287  0.0324
   64SOL    HW2  192   0.965   1.041   2.471 -2.1281 -0.9472  0.1644
   65SOL     OW  193   1.380   2.297   0.508  0.2969  0.3675  0.4841
   65SOL    HW1  194   1.442   2.322   0.589 -0.4987  0.8205  0.9703
   65SOL    HW2  195   1.322   2.215   0.527 -1.2037 -0.9817  3.1084
   66SOL     OW  196   0.729   1.441   1.676  0.3611  0.0285  0.2033
   66SOL    HW1  197   0.801   1.480   1.737  1.2324 -0.1731 -0.9690
   66SOL    HW2  198   0.633   1.453   1.709 -1.0267  1.4112 -1.7947
   67SOL     OW  199   2.521   2.963   2.087 -0.1917 -0.3335 -0.3501
   67SOL    HW1  200   2.534   3.055   2.042  0.4446  3.5984 -0.7145
   67SOL    HW2  201   2.583   2.956   2.168 -1.9559  1.8425  0.4590
   68SOL     OW  202   0.903   0.875   1.330  0.0778 -0.6400  0.6361
   68SOL    HW1  203   0.910   0.773   1.337 -1.3144 -4.4832 -2.1988
   68SOL    HW2  204   0.843   0.924   1.401  0.5293 -1.9877  2.0521
   69SOL     OW  205   1.858   2.772   0.531 -0.0783 -0.4798 -0.0665
   69SOL    HW1  206   1.829   2.844   0.464 -0.8478  0.9234 -0.5080
   69SOL    HW2  207   1.912   2.808   0.612  2.7706 -1.3583  2.0091
   70SOL     OW  208   2.891   1.050   2.463 -0.0370  0.0643  0.4396
   70SOL    HW1  209   2.892   0.986   2.387  1.0997 -1.4803  1.7332
   70SOL    HW2  210   2.961   1.121   2.448 -2.9050 -0.9950  2.0474
   71SOL     OW  211   2.915   1.543   2.960  0.0394  0.1247 -0.2453
   71SOL    HW1  212   2.819   1.515   2.982  1.9543 -1.7041  1.4007
   71SOL    HW2  213   2.924   1.637   2.931 -2.0473 -1.9186  2.5821
   72SOL     OW  214   0.027   1.706   0.382 -0.6761 -0.3130  0.0275
   72SOL    HW1  215   0.094   1.637   0.404 -0.8870  1.0685 -2.8591
   72SOL    HW2  216   0.048   1.784   0.441  0.6064 -0.4419  1.0259
   73SOL     OW  217   1.037   1.243   0.554 -0.0445  0.8045  0.0776
   73SOL    HW1  218   1.061   1.178   0.633  2.6939 -1.3005  1.1956
   73SOL    HW2  219   1.123   1.294   0.528  0.6342  1.3880  1.5900
   74SOL     OW  220   0.317   1.774   2.062 -0.0330  0.2061 -0.0216
   74SOL    HW1  221   0.220   1.736   2.070  1.3469  0.6370  1.0077
   74SOL    HW2  222   0.374   1.724   1.990  2.3411  1.0248 -0.9842
   75SOL     OW  223   1.760   1.541   1.606  0.7809  0.5785  0.0873
   75SOL    HW1  224   1.672   1.541   1.551 -5.1438  1.7462 -1.3823
   75SOL    HW2  225   1.762   1.466   1.676 -2.4178  0.1307 -1.3725
   76SOL     OW  226   2.233   2.507   1.216  0.2783 -0.0980  0.1943
   76SOL    HW1  227   2.295   2.547   1.284  1.1040  0.6549 -1.5647
   76SOL    HW2  228   2.211   2.566   1.139  0.2246 -0.5438 -3.8767
   77SOL     OW  229   2.721   1.352   1.290 -0.0501 -0.3917  0.3271
   77SOL    HW1  230   2.813   1.367   1.338  0.5040  1.9215  0.2943
   77SOL    HW2  231   2.676   1.263   1.311 -1.2063 -0.6730  0.3704
   78SOL     OW  232   1.431   0.783   0.472  0.2664  0.4035 -0.0606
   78SOL    HW1  233   1.358   0.859   0.453 -2.7658  1.3765  0.0940
   78SOL    HW2  234   1.446   0.768   0.574  0.7644  1.8140  2.1785
   79SOL     OW  235   2.500   1.529   1.326  0.2896  0.0784  0.6241
   79SOL    HW1  236   2.418   1.510   1.267 -0.8682 -2.2793 -0.5681
   79SOL    HW2  237   2.579   1.462   1.310  3.2949  1.3995  0.0484
   80SOL     OW  238   0.854   0.637   1.489  0.0357 -0.2223 -0.3779
   80SOL    HW1  239   0.805   0.611   1.401  0.5307  1.1076 -1.0263
   80SOL    HW2  240   0.937   0.577   1.501  1.6471  1.2037  0.4712
   81SOL     OW  241   0.755   0.094   0.829 -0.2558 -0.2818 -0.3425
   81SOL    HW1  242   0.792   0.038   0.751 -1.3038 -2.0655 -0.3674
   81SOL    HW2  243   0.819   0.164   0.865  0.4692 -1.3664  1.3706
   82SOL     OW  244   1.395   3.076   1.778  0.0459  0.0696 -0.2449
   82SOL    HW1  245   1.458   0.009   1.699 -2.5138  0.5506 -0.8468
   82SOL    HW2  246   1.341   2.991   1.765  2.6530  1.8239 -0.8416
   83SOL     OW  247   1.255   2.055   0.530 -0.4753 -0.6253 -0.1468
   83SOL    HW1  248   1.219   2.055   0.625  0.3455 -0.6027  1.3990
   83SOL    HW2  249   1.208   1.988   0.470  0.1050  0.4933 -1.2143
   84SOL     OW  250   0.180   1.654   2.854 -0.2783  0.1177  0.2212
   84SOL    HW1  251   0.090   1.612   2.834 -0.9203  0.9633 -1.7807
   84SOL    HW2  252   0.252   1.592   2.831 -1.6271  0.5863  0.1111
   85SOL     OW  253   0.203   2.251   1.038  0.2766 -0.2790 -0.2647
   85SOL    HW1  254   0.123   2.220   1.092  2.2056 -1.0031 -0.1172
   85SOL    HW2  255   0.185   2.333   0.984 -3.5318 -3.5146  1.7302
   86SOL     OW  256   2.416   2.493   1.480 -0.1559 -0.2695  0.2058
   86SOL    HW1  257   2.448   2.527   1.575  0.7552 -0.4704  2.8024
   86SOL    HW2  258   2.340   2.429   1.495 -0.3127  4.1419  1.2310
   87SOL     OW  259   0.081   1.822   0.887 -0.2026 -0.0010 -0.9140
   87SOL    HW1  260   0.032   1.742   0.932 -0.1655 -0.5063  1.8805
   87SOL    HW2  261   0.182   1.816   0.889 -1.0045 -0.8749 -1.7113
   88SOL     OW  262   1.006   1.227   1.265 -0.6122 -0.0633  0.5883
   88SOL    HW1  263   1.008   1.319   1.218 -2.5709  0.6926 -0.7977
   88SOL    HW2  264   0.969   1.162   1.194 -1.8994  0.2829  0.2915
   89SOL     OW  265   0.902   2.867   2.013  0.1128 -0.2493 -0.6070
   89SOL    HW1  266   0.833   2.904   1.947 -1.8598 -0.2755 -2.5792
   89SOL    HW2  267   0.997   2.868   1.978  0.4281 -0.8804 -2.0223
   90SOL     OW  268   0.062   2.040   1.534  0.2639  0.4056  0.0594
   90SOL    HW1  269   0.061   2.021   1.633  0.0803  1.1217  1.1893
   90SOL    HW2  270   0.132   1.978   1.490  3.0661  1.9323 -3.4891
   91SOL     OW  271   1.408   1.896   1.663  0.3801 -0.1451  0.4554
   91SOL    HW1  272   1.430   1.823   1.731  1.0424 -0.1917 -0.3020
   91SOL    HW2  273   1.424   1.865   1.568  1.5399 -3.0166 -0.5620
   92SOL     OW  274   2.290   2.844   1.683 -0.0679  0.5771  0.1802
   92SOL    HW1  275   2.336   2.753   1.707  0.7485 -5.0836  1.7429
   92SOL    HW2  276   2.360   2.920   1.686  0.9203  4.1313 -1.7121
   93SOL     OW  277   2.728   1.402   2.730  0.0198  0.0305 -0.1702
   93SOL    HW1  278   2.701   1.313   2.689  2.1978 -1.3969  0.9675
   93SOL    HW2  279   2.684   1.415   2.824  0.3877 -3.3610 -0.4410
   94SOL     OW  280   2.736   2.637   1.984  0.0241  0.2816 -0.0859
   94SOL    HW1  281   2.826   2.664   2.021 -0.5005  1.2210 -1.3156
   94SOL    HW2  282   2.715   2.693   1.899 -0.4816  1.9908 -0.6302
   95SOL     OW  283   1.250   0.583   1.908 -0.1173 -0.4635 -0.3945
   95SOL    HW1  284   1.264   0.538   1.999 -0.9166 -0.7903 -3.4728
   95SOL    HW2  285   1.308   0.665   1.900 -2.8250 -1.8841  1.6789
   96SOL     OW  286   2.615   0.692   1.614  0.0311 -0.1867 -0.2064
   96SOL    HW1  287   2.677   0.624   1.575 -0.7359  0.5033 -1.6477
   96SOL    HW2  288   2.518   0.690   1.585 -0.3586  1.4340  0.8248
   97SOL     OW  289   1.974   0.430   1.589 -0.2319 -0.4174 -0.1387
   97SOL    HW1  290   1.944   0.377   1.668 -2.1623 -0.0107 -1.0372
   97SOL    HW2  291   1.929   0.389   1.504 -1.2374 -2.0531 -0.6217
   98SOL     OW  292   1.635   2.976   1.370  0.0608 -0.2008 -0.3094
   98SOL    HW1  293   1.706   3.009   1.309 -0.5376 -1.9979  1.5101
   98SOL    HW2  294   1.666   2.884   1.415  2.4924 -1.2136  1.3031
   99SOL     OW  295   2.622   0.137   2.019  0.1239  0.2256  0.5890
   99SOL    HW1  296   2.715   0.156   2.058  0.4200 -0.9928 -0.2029
   99SOL    HW2  297   2.554   0.211   2.046 -1.1643  1.3474 -1.3964
  100SOL     OW  298   2.639   1.610   1.805  0.1184 -0.5395  0.0661
  100SOL    HW1  299   2.630   1.594   1.905 -0.3774 -1.7091  0.2192
  100SOL    HW2  300   2.637   1.519   1.761  2.1650  0.4100 -1.0442
  101SOL     OW  301   1.344   0.316   0.699  0.0294  0.4683  0.1409
  101SOL    HW1  302   1.435   0.307   0.742 -1.6453  1.7292 -1.4936
  101SOL    HW2  303   1.271   0.328   0.770 -0.1367  1.4641  5.3957
  102SOL     OW  304   0.501   1.166   1.231 -0.1695 -0.4149  0.2309
  102SOL    HW1  305   0.440   1.241   1.193  0.0643 -3.3465  0.8224
  102SOL    HW2  306   0.537   1.184   1.324 -1.0103 -0.5845 -1.8969
  103SOL     OW  307   2.803   0.528   0.126 -0.4206  0.1976 -0.6763
  103SOL    HW1  308   2.877   0.460   0.151 -0.2370 -2.9104  1.1791
  103SOL    HW2  309   2.823   0.620   0.164 -0.4966 -0.2219 -2.7626
  104SOL     OW  310   2.669   0.099   1.755  0.3882 -0.4321  0.2370
  104SOL    HW1  311   2.762   0.087   1.719  0.0095  0.6242 -1.9228
  104SOL    HW2  312   2.660   0.110   1.855 -0.4172 -0.7642 -2.2358
  105SOL     OW  313   1.888   0.762   2.170 -0.0866 -0.0769 -0.1784
  105SOL    HW1  314   1.908   0.726   2.264 -1.3362 -0.3672  1.7803
  105SOL    HW2  315   1.811   0.826   2.172  0.3992 -1.7058  1.8950
  106SOL     OW  316   1.550   0.215   0.886  0.4973  0.1440 -0.5600
  106SOL    HW1  317   1.617   0.148   0.844  2.9168  1.7355  1.5963
  106SOL    HW2  318   1.469   0.168   0.931  0.4775  2.6724  0.6567
  107SOL     OW  319   0.653   1.146   0.813 -0.0588 -0.4361  0.3827
  107SOL    HW1  320   0.670   1.088   0.896  0.1608 -0.6136  1.3983
  107SOL    HW2  321   0.556   1.172   0.796 -0.7601  0.6377 -0.7059
  108SOL     OW  322   2.863   0.240   2.137 -0.0120  0.6104 -0.3083
  108SOL    HW1  323   2.895   0.335   2.126 -0.5040 -1.7089 -1.6051
  108SOL    HW2  324   2.919   0.175   2.085 -0.7035  0.3329  1.8992
  109SOL     OW  325   2.268   0.714   0.166  0.5594  0.2468  0.0154
  109SOL    HW1  326   2.256   0.810   0.128  0.7818  1.1539  1.7499
  109SOL    HW2  327   2.330   0.721   0.244  1.7578  0.6097 -1.4894
  110SOL     OW  328   0.207   2.196   2.619 -0.1822  0.5514  0.8996
  110SOL    HW1  329   0.129   2.260   2.633  0.4069  0.0302  0.8170
  110SOL    HW2  330   0.219   2.171   2.519 -0.4801  1.4499  1.8798
  111SOL     OW  331   2.016   0.036   2.131  0.1619 -0.1874 -0.0517
  111SOL    HW1  332   2.107   0.086   2.114  2.2587  0.2893 -0.0822
  111SOL    HW2  333   1.932   0.099   2.110 -2.7504  3.3157  0.5479
  112SOL     OW  334   2.219   2.848   0.537 -0.4736  0.0209  0.1868
  112SOL    HW1  335   2.179   2.923   0.480  0.3797  1.0118 -3.3433
  112SOL    HW2  336   2.293   2.805   0.483 -0.3772  1.7273  1.5432
  113SOL     OW  337   2.419   2.110   1.475  0.1566 -0.0535  0.4760
  113SOL    HW1  338   2.433   2.062   1.383  1.3327  1.6763  0.0892
  113SOL    HW2  339   2.338   2.173   1.474  0.5486  1.5756  0.2676
  114SOL     OW  340   2.709   0.990   0.958 -0.2511 -0.5939  0.4740
  114SOL    HW1  341   2.608   1.004   0.931 -1.7461  1.6050 -0.1946
  114SOL    HW2  342   2.741   0.898   0.928 -1.9440 -0.1806  0.4592
  115SOL     OW  343   2.926   1.794   0.184 -0.1980  0.5048  0.0189
  115SOL    HW1  344   2.990   1.752   0.255 -0.6773 -2.1175 -0.9466
  115SOL    HW2  345   2.893   1.730   0.118  0.9384  4.8131  2.8186
  116SOL     OW  346   0.077   1.458   1.929 -0.0721 -0.3152 -0.3695
  116SOL    HW1  347   3.067   1.410   1.934  1.8444  0.8117 -1.0835
  116SOL    HW2  348   0.142   1.423   2.004  0.0480  0.9715  0.0590
  117SOL     OW  349   2.528   0.067   0.570 -0.0432  0.1562 -0.1522
  117SOL    HW1  350   2.457   0.083   0.638 -1.6366 -0.0142 -0.4363
  117SOL    HW2  351   2.489   0.034   0.482 -0.3932 -0.6927 -0.0327
  118SOL     OW  352   0.422   2.087   1.448  0.1069  0.0788  0.1002
  118SOL    HW1  353   0.437   2.128   1.541  1.6567  0.9610 -0.1620
  118SOL    HW2  354   0.380   2.153   1.385 -1.2366 -1.4957 -0.5268
  119SOL     OW  355   1.567   2.031   1.014  0.1742  0.4105 -0.2955
  119SOL    HW1  356   1.628   1.945   1.025 -0.3556  0.0384  1.2858
  119SOL    HW2  357   1.549   2.070   1.110 -0.7387  2.9819  0.5459
  120SOL     OW  358   0.236   1.590   2.373 -0.5071  0.0866 -0.4200
  120SOL    HW1  359   0.310   1.555   2.433 -0.5745 -0.1392  0.5683
  120SOL    HW2  360   0.252   1.687   2.357  1.1615 -0.9273 -2.1808
  121SOL     OW  361   2.887   2.017   1.326  0.8301 -0.1026  0.1480
  121SOL    HW1  362   2.829   2.094   1.298 -0.5494 -0.7720 -0.4118
  121SOL    HW2  363   2.843   1.978   1.405  0.2844 -0.0586 -0.9689
  122SOL     OW  364   2.240   1.318   2.348 -0.0764  0.1082 -0.0864
  122SOL    HW1  365   2.224   1.250   2.276 -0.6169  2.5148  0.7364
  122SOL    HW2  366   2.324   1.307   2.399 -1.7269  2.1298 -0.5049
  123SOL     OW  367   3.023   0.075   0.729  0.5875 -0.1670  0.3768
  123SOL    HW1  368   2.926   0.043   0.720 -3.4508  1.7411 -2.1911
  123SOL    HW2  369   3.073   0.005   0.775  0.0237  0.4467 -0.8915
  124SOL     OW  370   1.575   0.942   2.830  0.4912 -0.5461 -0.1538
  124SOL    HW1  371   1.654   0.973   2.772 -0.0506  2.9951  2.8804
  124SOL    HW2  372   1.522   0.873   2.779 -0.7092  2.6788  1.8434
  125SOL     OW  373   0.395   1.508   2.789  0.1817  0.6088  0.2146
  125SOL    HW1  374   0.478   1.553   2.825  0.0136  2.7298  0.8215
  125SOL    HW2  375   0.396   1.405   2.806  0.4181  0.2571 -0.7303
  126SOL     OW  376   2.777   2.030   0.174  0.2928  0.1145  0.5472
  126SOL    HW1  377   2.826   2.084   0.245 -0.4706  0.4842  0.4739
  126SOL    HW2  378   2.827   1.940   0.159 -0.9359  1.0372  3.0490
  127SOL     OW  379   0.707   1.534   0.991 -0.4460  0.4141  0.6994
  127SOL    HW1  380   0.795   1.565   0.948 -0.2470 -0.1811  0.8997
  127SOL    HW2  381   0.639   1.512   0.925  2.2292  2.0181  3.8009
  128SOL     OW  382   1.258   0.585   0.560 -0.8436 -0.2447  0.4039
  128SOL    HW1  383   1.306   0.664   0.510  0.8672  2.3223 -0.7629
  128SOL    HW2  384   1.322   0.510   0.581 -0.5693 -1.1541 -1.7780
  129SOL     OW  385   2.263   1.750   1.068  0.0964  0.2346  0.0749
  129SOL    HW1  386   2.207   1.786   0.990  0.0781 -0.3768 -0.3642
  129SOL    HW2  387   2.350   1.714   1.031 -0.1535  1.4930 -0.2915
  130SOL     OW  388   2.009   1.568   0.830  0.2946 -0.0852 -0.3689
  130SOL    HW1  389   1.953   1.566   0.746  1.9752  2.0391  1.6654
  130SOL    HW2  390   1.966   1.511   0.904  2.7998 -0.5146  0.8915
  131SOL     OW  391   3.062   0.941   2.836 -0.5449 -0.2562  0.5248
  131SOL    HW1  392   3.052   1.039   2.858 -0.1720  0.5406  0.9580
  131SOL    HW2  393   0.085   0.920   2.829  2.1860 -0.0359 -1.6882
  132SOL     OW  394   2.485   1.825   1.879 -0.1782  0.6630 -0.5212
  132SOL    HW1  395   2.445   1.886   1.806  0.2554  0.2873 -1.7653
  132SOL    HW2  396   2.535   1.750   1.835  0.5970  3.1131  0.2743
  133SOL     OW  397   2.993   1.163   3.023  0.2105 -0.0233  0.1884
  133SOL    HW1  398   2.995   1.254   3.067 -1.5842 -0.3459 -0.7898
  133SOL    HW2  399   2.964   1.172   2.923  1.5462 -0.7121  0.3467
  134SOL     OW  400   0.206   1.248   2.983  0.1603  0.1875  0.2494
  134SOL    HW1  401   0.244   1.209   3.067 -2.2107 -0.6152  0.1215
  134SOL    HW2  402   0.121   1.300   3.009 -1.8990 -1.5469 -0.0147
  135SOL     OW  403   2.226   1.414   0.602 -0.1702  0.5483  0.4497
  135SOL    HW1  404   2.239   1.462   0.511  0.8732  2.9383 -1.8533
  135SOL    HW2  405   2.254   1.483   0.677  1.5191  3.3420  1.5684
  136SOL     OW  406   2.077   1.513   1.395  0.3213 -0.2336 -0.2337
  136SOL    HW1  407   2.175   1.539   1.387  0.1741 -1.1179 -1.3907
  136SOL    HW2  408   2.047   1.495   1.301  2.2919 -2.0219 -1.3125
  137SOL     OW  409   2.578   2.117   0.760  0.3991  0.2317  0.0187
  137SOL    HW1  410   2.487   2.087   0.792  0.3305 -0.7420  0.4521
  137SOL    HW2  411   2.592   2.082   0.666 -0.0192 -1.7710  2.3062
  138SOL     OW  412   1.247   0.231   1.452 -0.8652  0.2103 -0.0899
  138SOL    HW1  413   1.274   0.128   1.458  2.7524 -1.7190  0.9106
  138SOL    HW2  414   1.181   0.255   1.520 -0.1805 -1.1408 -0.9382
  139SOL     OW  415   2.544   0.132   0.049  0.0699 -0.1705  0.5002
  139SOL    HW1  416   2.548   0.163   3.028 -0.5141  0.7750 -2.3910
  139SOL    HW2  417   2.638   0.146   0.092  1.3406  2.0867  0.2463
  140SOL     OW  418   1.485   2.085   2.699 -0.5341  0.1782  0.0568
  140SOL    HW1  419   1.430   2.002   2.700  1.1253  3.5785  0.2344
  140SOL    HW2  420   1.569   2.070   2.754  1.0514 -1.6224  0.4045
  141SOL     OW  421   0.774   0.987   1.557  0.0280 -0.2261  0.3417
  141SOL    HW1  422   0.710   1.048   1.611 -2.4488 -2.4009 -0.8490
  141SOL    HW2  423   0.830   0.928   1.623 -0.0734  1.8618  0.2849
  142SOL     OW  424   2.699   2.840   0.127 -0.5258 -0.1398 -0.0026
  142SOL    HW1  425   2.612   2.892   0.115 -1.7805 -0.8302 -4.6255
  142SOL    HW2  426   2.742   2.836   0.036 -0.6897  0.0892 -1.4833
  143SOL     OW  427   0.696   2.165   2.859  0.2441  0.3121 -0.9242
  143SOL    HW1  428   0.693   2.249   2.797  0.2594  4.6285  0.4950
  143SOL    HW2  429   0.599   2.151   2.897 -0.3230  1.1901  0.8306
  144SOL     OW  430   1.025   2.618   3.023 -0.2933  0.1346  0.7657
  144SOL    HW1  431   1.130   2.645   3.023  0.7070  2.4662 -2.5666
  144SOL    HW2  432   1.001   2.545   0.012 -0.6525 -0.9200 -1.6548
  145SOL     OW  433   2.432   1.835   0.060  0.0762  0.1906  0.8357
  145SOL    HW1  434   2.464   1.912   0.001 -1.6961  1.2688 -1.2477
  145SOL    HW2  435   2.333   1.816   0.050 -1.2499  0.4277  1.4480
  146SOL     OW  436   2.678   2.811   2.890  0.5063  0.1765 -0.3687
  146SOL    HW1  437   2.757   2.859   2.930 -0.9021 -2.1382 -0.0507
  146SOL    HW2  438   2.716   2.721   2.862  2.0497  0.9839  1.0152
  147SOL     OW  439   2.701   2.241   1.262  0.1912  0.1591  0.1441
  147SOL    HW1  440   2.681   2.315   1.325  0.6612 -0.0071 -1.7000
  147SOL    HW2  441   2.674   2.268   1.165  1.7649  0.0509 -4.3443
  148SOL     OW  442   1.699   0.265   0.171 -0.0482  0.4222 -0.3937
  148SOL    HW1  443   1.701   0.334   0.093 -0.6202  2.2751  0.2256
  148SOL    HW2  444   1.660   0.180   0.132 -1.0178 -0.1744 -0.7133
  149SOL     OW  445   1.118   1.463   2.691  0.1267 -1.1312  0.7209
  149SOL    HW1  446   1.142   1.370   2.681  0.0653  4.9917  1.2606
  149SOL    HW2  447   1.048   1.491   2.621 -0.7347  0.4396  1.1107
  150SOL     OW  448   0.900   2.264   0.367  0.8219 -0.2305 -0.3554
  150SOL    HW1  449   0.878   2.248   0.467  0.3742 -2.1501  2.3016
  150SOL    HW2  450   0.845   2.202   0.300  0.5829 -0.0882 -1.3910
  151SOL     OW  451   0.657   1.597   2.948 -0.2637  0.2677  0.1092
  151SOL    HW1  452   0.676   1.501   2.951  1.6658  2.5021 -1.4117
  151SOL    HW2  453   0.733   1.657   2.918 -2.4651  1.3064  2.4734
  152SOL     OW  454   2.885   1.390   0.561 -0.2049  0.0202 -0.7015
  152SOL    HW1  455   2.915   1.429   0.656  2.6248 -0.6708  4.0075
  152SOL    HW2  456   2.898   1.291   0.549  0.7372  1.2529 -1.0313
  153SOL     OW  457   2.372   2.457   0.448 -0.0699  0.0615  0.1226
  153SOL    HW1  458   2.446   2.433   0.513 -0.3537  1.5373  0.8300
  153SOL    HW2  459   2.329   2.544   0.486  1.3719 -0.7042  0.4815
  154SOL     OW  460   0.509   0.085   0.933 -0.2808 -0.3695  0.1624
  154SOL    HW1  461   0.446   0.148   0.884 -0.8433 -0.3807 -0.1039
  154SOL    HW2  462   0.601   0.096   0.880  2.0641  0.7544 -0.5258
  155SOL     OW  463   0.290   2.065   0.824 -0.0771  0.2620  0.4017
  155SOL    HW1  464   0.338   2.105   0.745  0.4794 -0.9270 -1.4827
  155SOL    HW2  465   0.254   2.131   0.890 -3.0697 -1.4815 -1.6490
  156SOL     OW  466   2.642   2.424   0.067 -0.0185  0.1182  0.0943
  156SOL    HW1  467   2.649   2.392   3.054 -2.4647  0.7806  0.8228
  156SOL    HW2  468   2.735   2.398   0.109  1.6141 -2.8323 -0.7215
  157SOL     OW  469   0.991   2.005   1.318  0.0919 -0.1921  0.2369
  157SOL    HW1  470   0.905   2.062   1.330  0.9285  0.2402  0.0130
  157SOL    HW2  471   0.995   1.926   1.387  0.2304 -2.2585  1.5049
  158SOL     OW  472   1.755   0.493   0.002 -0.4285  0.9060  0.2132
  158SOL    HW1  473   1.776   0.454   2.990 -1.5793 -1.4131  1.1939
  158SOL    HW2  474   1.826   0.559   0.026 -2.5400  0.6964  0.1526
  159SOL     OW  475   1.020   0.269   0.018 -0.3010  0.1198 -0.5718
  159SOL    HW1  476   0.939   0.329   0.044 -0.9438 -0.5301  1.6423
  159SOL    HW2  477   1.065   0.227   0.102 -0.1180 -1.2657 -2.4413
  160SOL     OW  478   1.355   1.362   0.130 -0.2453 -0.0284  0.2887
  160SOL    HW1  479   1.304   1.452   0.121 -0.5882  1.6809 -0.3097
  160SOL    HW2  480   1.316   1.305   0.201 -0.9070  1.7208 -2.9231
  161SOL     OW  481   2.989   2.200   2.886  0.4173 -0.1026  0.4070
  161SOL    HW1  482   2.949   2.180   2.795  1.3115 -0.5276  2.0935
  161SOL    HW2  483   3.070   2.140   2.894 -0.7262  1.0500 -1.7600
  162SOL     OW  484   0.532   2.792   0.900  0.0498  0.2456  0.5712
  162SOL    HW1  485   0.623   2.824   0.928 -0.4698  1.9530  1.6897
  162SOL    HW2  486   0.461   2.843   0.953  0.4806 -2.1055 -0.3162
  163SOL     OW  487   2.672   1.170   3.004 -0.0225  0.3373 -0.7377
  163SOL    HW1  488   2.625   1.111   2.935 -1.8378 -1.2296  0.9146
  163SOL    HW2  489   2.719   1.111   3.072 -0.8395 -1.6786  1.9638
  164SOL     OW  490   0.190   2.744   2.769 -0.3682 -0.1137 -0.0706
  164SOL    HW1  491   0.182   2.681   2.854 -0.8510  0.4343  0.1044
  164SOL    HW2  492   0.200   2.693   2.682 -2.4300  1.7239 -2.2614
  165SOL     OW  493   2.121   0.256   1.223 -0.0615  0.5055  0.5289
  165SOL    HW1  494   2.145   0.349   1.193 -0.8220 -2.4329  1.8431
  165SOL    HW2  495   2.121   0.192   1.145 -0.1190 -1.1518  0.7585
  166SOL     OW  496   1.864   0.331   1.321 -0.0922 -0.1163 -0.1407
  166SOL    HW1  497   1.802   0.255   1.280 -0.8816 -0.1664  0.1553
  166SOL    HW2  498   1.961   0.306   1.290  0.5788  1.3591  1.3107
  167SOL     OW  499   0.939   0.327   1.911  0.0314  0.4959 -0.1408
  167SOL    HW1  500   0.844   0.291   1.941 -2.9325 -2.7111  1.3322
  167SOL    HW2  501   1.007   0.310   1.987  0.3883  1.1883  0.5785
  168SOL     OW  502   2.453   0.356   2.008  0.3497  0.9298 -0.3030
  168SOL    HW1  503   2.517   0.424   1.970 -0.4010 -2.0355 -0.7279
  168SOL    HW2  504   2.360   0.397   2.016 -2.4592  0.9375 -2.6862
  169SOL     OW  505   0.526   1.349   0.098 -0.3269 -0.0238 -0.0747
  169SOL    HW1  506   0.473   1.434   0.117  2.5781  2.8073  1.0256
  169SOL    HW2  507   0.463   1.270   0.101 -1.7450  1.0421 -1.4850
  170SOL     OW  508   0.222   1.290   1.738  0.1523 -0.2993  0.5211
  170SOL    HW1  509   0.229   1.194   1.772  1.2445  2.0899 -1.4533
  170SOL    HW2  510   0.168   1.352   1.798 -2.0142 -0.6053 -2.0755
  171SOL     OW  511   1.395   2.176   2.038 -0.3410  0.3512  0.3891
  171SOL    HW1  512   1.405   2.273   2.047 -0.3200  0.4404 -3.2725
  171SOL    HW2  513   1.316   2.157   1.976 -0.9084 -0.4303 -0.2515
  172SOL     OW  514   0.299   2.316   1.300  0.0857  0.3363 -0.5004
  172SOL    HW1  515   0.342   2.403   1.336 -0.4384 -2.4361  0.5662
  172SOL    HW2  516   0.289   2.317   1.202  0.4429  0.5741  2.1864
  173SOL     OW  517   1.197   2.725   0.814  0.0444  0.2566 -0.4933
  173SOL    HW1  518   1.240   2.683   0.730  0.1792 -3.3399 -0.5791
  173SOL    HW2  519   1.144   2.648   0.858 -3.6109 -2.0628  1.7493
  174SOL     OW  520   1.153   2.947   0.023  0.2923  0.0339  0.3029
  174SOL    HW1  521   1.184   2.972   0.119  0.8768 -1.4086  3.0688
  174SOL    HW2  522   1.187   2.852   0.005  1.4981  3.0776  0.7315
  175SOL     OW  523   0.997   0.952   2.758  0.1223  0.0267  0.0780
  175SOL    HW1  524   0.979   1.011   2.845 -0.4261 -1.5257 -1.5180
  175SOL    HW2  525   0.996   1.010   2.673  0.0440 -1.4891 -1.1980
  176SOL     OW  526   1.633   0.658   0.351  0.2307  0.5170 -0.1824
  176SOL    HW1  527   1.706   0.730   0.379  1.0928  3.1939 -1.0399
  176SOL    HW2  528   1.544   0.692   0.389 -0.8731 -1.4605  0.8802
  177SOL     OW  529   1.326   0.797   0.951 -0.1962 -0.1143 -0.4076
  177SOL    HW1  530   1.236   0.765   0.927  1.1364  2.4059 -0.8904
  177SOL    HW2  531   1.352   0.768   1.045 -0.4391  0.9484  0.6947
  178SOL     OW  532   2.621   1.630   2.654  0.5042  0.2328 -0.2925
  178SOL    HW1  533   2.696   1.559   2.664 -1.4991  0.7676 -2.5871
  178SOL    HW2  534   2.537   1.582   2.621 -0.6106  1.3355  0.1273
  179SOL     OW  535   0.661   2.570   3.038  0.2078  0.0436  0.0739
  179SOL    HW1  536   0.723   2.594   2.965 -1.3519 -1.8255  3.8360
  179SOL    HW2  537   0.699   2.491   0.015 -2.3372 -2.9359 -0.8343
  180SOL     OW  538   1.973   1.701   1.560  0.1207  0.3120  0.5716
  180SOL    HW1  539   2.015   1.637   1.490 -0.8963 -2.0151 -2.7252
  180SOL    HW2  540   1.887   1.658   1.590  0.0579 -0.6324  1.2049
  181SOL     OW  541   1.105   1.307   2.343  0.0855  0.1225 -0.5579
  181SOL    HW1  542   1.087   1.256   2.253  0.8360 -2.4681 -1.2815
  181SOL    HW2  543   1.182   1.371   2.328 -0.4789  3.1915  1.6754
  182SOL     OW  544   3.076   0.855   2.540  0.0491 -0.1788  0.0656
  182SOL    HW1  545   0.010   0.847   2.641 -0.5742 -2.0416  1.0397
  182SOL    HW2  546   3.019   0.932   2.506 -0.5376  0.7740 -0.3195
  183SOL     OW  547   1.265   0.270   2.533 -0.3398 -0.5697  0.0684
  183SOL    HW1  548   1.337   0.270   2.604  0.3641  0.0971  0.1294
  183SOL    HW2  549   1.296   0.220   2.451 -0.3479  1.6668  0.2779
  184SOL     OW  550   0.081   0.438   1.384 -0.0816  0.3585 -0.3713
  184SOL    HW1  551   0.044   0.478   1.295 -0.5911  1.0089 -2.5847
  184SOL    HW2  552   0.021   0.364   1.414 -0.1997  0.4426  1.3126
  185SOL     OW  553   2.514   1.629   1.018 -0.8226  0.2301  0.3228
  185SOL    HW1  554   2.539   1.695   0.942  2.0405 -0.7006 -1.7659
  185SOL    HW2  555   2.591   1.562   1.037 -1.3787 -3.3579  0.3881
  186SOL     OW  556   0.340   1.876   2.531  0.2176  0.7525 -0.4620
  186SOL    HW1  557   0.408   1.818   2.490 -1.9258 -0.2022  1.7879
  186SOL    HW2  558   0.255   1.883   2.479  0.1234 -0.7054 -0.9476
  187SOL     OW  559   2.514   2.030   2.966 -0.1735 -0.1628 -0.1784
  187SOL    HW1  560   2.608   2.075   2.976  0.3698  2.5040 -0.3253
  187SOL    HW2  561   2.437   2.097   2.966  0.6826 -0.4556  0.3315
  188SOL     OW  562   0.760   2.087   0.108 -0.4080  0.8293  0.3681
  188SOL    HW1  563   0.836   2.032   0.148 -0.3864 -2.8865 -0.8366
  188SOL    HW2  564   0.680   2.029   0.108  1.8076  1.0789  0.9819
  189SOL     OW  565   2.228   0.995   0.137  0.3046  0.3337 -0.0318
  189SOL    HW1  566   2.226   1.021   0.232 -1.0334  1.2696 -2.9485
  189SOL    HW2  567   2.311   1.026   0.090  0.9107  0.5898 -0.5889
  190SOL     OW  568   0.945   1.883   2.095  0.2701  0.5878  0.0230
  190SOL    HW1  569   0.945   1.985   2.080 -0.9442  1.8570  1.7774
  190SOL    HW2  570   0.969   1.830   2.006  3.3683  1.6820  0.0888
  191SOL     OW  571   2.208   0.573   1.764 -0.1308  0.0175 -0.1630
  191SOL    HW1  572   2.214   0.557   1.863 -0.5579  0.1753 -0.3067
  191SOL    HW2  573   2.129   0.518   1.728 -2.3024 -0.5102  1.2431
  192SOL     OW  574   1.969   0.073   1.694  0.5965 -0.3210 -0.2502
  192SOL    HW1  575   1.934   0.164   1.722  0.8172  0.2438  0.6888
  192SOL    HW2  576   1.898   0.020   1.646  1.0250  1.4531 -0.7797
  193SOL     OW  577   0.035   0.817   0.745 -0.0955 -0.0879 -0.2988
  193SOL    HW1  578   0.060   0.805   0.842  3.0808  0.8811 -0.4659
  193SOL    HW2  579   3.025   0.765   0.726 -2.6331 -1.5450 -2.1601
  194SOL     OW  580   1.489   2.520   1.514 -0.7732 -0.1609 -0.5376
  194SOL    HW1  581   1.464   2.462   1.438 -0.4367  0.4417  2.8648
  194SOL    HW2  582   1.540   2.464   1.583  2.3082 -0.1148 -0.9824
  195SOL     OW  583   2.572   0.563   1.034 -0.3622  0.3215 -0.3076
  195SOL    HW1  584   2.616   0.520   0.954 -1.7386 -0.2518 -0.7183
  195SOL    HW2  585   2.526   0.651   1.010  1.8976 -1.5147 -2.7029
  196SOL     OW  586   1.669   2.089   2.036  0.2126  0.1345  0.1296
  196SOL    HW1  587   1.676   2.092   2.132 -0.5202  0.9470 -2.9308
  196SOL    HW2  588   1.580   2.134   2.001 -0.6779 -1.3275 -0.2775
  197SOL     OW  589   0.256   2.961   2.887  0.5161 -0.5444  0.6713
  197SOL    HW1  590   0.213   2.874   2.855  1.7916 -0.3522 -1.9763
  197SOL    HW2  591   0.252   2.963   2.989 -0.7091  2.9241  1.0696
  198SOL     OW  592   1.090   1.107   0.780 -0.5008 -0.1838 -0.2215
  198SOL    HW1  593   1.166   1.089   0.842  0.6666 -0.8346  1.3604
  198SOL    HW2  594   1.028   1.026   0.769 -0.1718  0.9468  0.3316
  199SOL     OW  595   2.396   0.955   1.709 -0.0301  0.3706 -0.0184
  199SOL    HW1  596   2.491   0.976   1.684  2.6389  0.2500 -0.8771
  199SOL    HW2  597   2.361   1.024   1.770  3.6904  0.7053 -0.9318
  200SOL     OW  598   2.312   2.561   2.366 -0.2970 -0.2294  0.0337
  200SOL    HW1  599   2.309   2.645   2.311  1.7606 -0.0546 -1.0578
  200SOL    HW2  600   2.331   2.579   2.465 -1.7164 -1.0667  1.6183
  201SOL     OW  601   2.591   0.282   1.553  0.6415 -0.1257  0.2855
  201SOL    HW1  602   2.606   0.232   1.642 -0.7289 -0.6053 -0.6248
  201SOL    HW2  603   2.572   0.222   1.470 -2.9133  0.4559 -0.3798
  202SOL     OW  604   2.147   3.054   0.356 -0.1582 -0.1188 -0.0651
  202SOL    HW1  605   2.236   0.023   0.345 -3.7297 -1.1431  1.5406
  202SOL    HW2  606   2.067   0.036   0.341  0.2304 -4.0530 -1.5900
  203SOL     OW  607   1.364   1.913   2.129 -0.3421  0.0300 -0.4013
  203SOL    HW1  608   1.396   2.007   2.090  0.2656  2.3251 -0.6414
  203SOL    HW2  609   1.398   1.904   2.224 -2.3218 -0.9317  1.1639
  204SOL     OW  610   0.760   1.496   2.663  0.8571 -0.4979  0.2316
  204SOL    HW1  611   0.754   1.396   2.685  0.7304 -0.8950 -0.0250
  204SOL    HW2  612   0.830   1.510   2.589  3.2764 -2.4793 -1.3271
  205SOL     OW  613   1.082   1.773   1.463 -0.0473 -0.5245  0.3504
  205SOL    HW1  614   1.141   1.723   1.398  0.7901  0.7411  0.7494
  205SOL    HW2  615   0.990   1.730   1.471  0.8345 -0.2471  0.4500
  206SOL     OW  616   0.161   0.448   2.943 -0.1730  0.2790 -0.0227
  206SOL    HW1  617   0.090   0.379   2.963  0.0165  0.3938  2.3360
  206SOL    HW2  618   0.246   0.401   2.964 -3.0929  0.9835 -0.4772
  207SOL     OW  619   1.718   2.723   2.372 -0.2272 -0.1226 -0.0151
  207SOL    HW1  620   1.819   2.711   2.371 -1.6288 -1.0388 -0.6684
  207SOL    HW2  621   1.687   2.780   2.293  0.4817 -1.5920 -0.9347
  208SOL     OW  622   0.599   2.370   1.194 -0.1262  0.4030 -0.3622
  208SOL    HW1  623   0.666   2.404   1.263  0.2998 -0.2640  0.7214
  208SOL    HW2  624   0.540   2.449   1.168  0.9345  0.2208 -0.0519
  209SOL     OW  625   1.576   1.175   2.290  0.3710 -0.0091 -0.2491
  209SOL    HW1  626   1.481   1.147   2.307  0.6766 -1.3083 -0.5079
  209SOL    HW2  627   1.597   1.274   2.318  0.0696  0.0652  0.6903
  210SOL     OW  628   1.973   0.783   1.244  0.2206 -0.3667  0.1447
  210SOL    HW1  629   2.040   0.773   1.165  3.6249 -3.1795  0.3941
  210SOL    HW2  630   1.913   0.702   1.258  0.8291  2.4672 -0.6559
  211SOL     OW  631   0.833   2.761   0.583  0.3269 -0.3660 -0.4705
  211SOL    HW1  632   0.872   2.707   0.507 -1.4078 -0.1104  0.7948
  211SOL    HW2  633   0.904   2.795   0.651 -1.0240  0.5498 -2.5371
  212SOL     OW  634   1.944   1.641   0.364 -0.1267 -0.2985  0.6186
  212SOL    HW1  635   1.855   1.593   0.379  0.4549  1.2852  0.0979
  212SOL    HW2  636   1.953   1.703   0.439 -1.7087 -3.1199 -1.7068
  213SOL     OW  637   1.644   0.134   2.867  0.3473  0.1712 -0.6443
  213SOL    HW1  638   1.555   0.168   2.903  1.6423 -0.7554 -2.5982
  213SOL    HW2  639   1.719   0.203   2.874 -0.3260 -0.6860  2.4668
  214SOL     OW  640   1.283   1.516   2.229  0.6057 -0.1691  0.0937
  214SOL    HW1  641   1.282   1.568   2.144  0.6647  0.5446  0.2636
  214SOL    HW2  642   1.267   1.579   2.307 -0.4886 -3.1722  3.1496
  215SOL     OW  643   0.777   1.685   0.147  0.0467 -0.5477  0.0976
  215SOL    HW1  644   0.676   1.701   0.155 -2.0859  1.9246  1.3889
  215SOL    HW2  645   0.818   1.627   0.222  1.5013  0.3678  0.3185
  216SOL     OW  646   0.152   3.001   1.990 -0.0382  0.2019 -0.1805
  216SOL    HW1  647   0.064   3.054   1.985 -0.8575 -1.8626 -0.9690
  216SOL    HW2  648   0.128   2.902   1.977 -2.3171 -0.2250  0.8285
  217SOL     OW  649   2.437   1.048   0.883  0.4824  0.8207  0.1810
  217SOL    HW1  650   2.455   1.147   0.869  1.7836  3.0419  0.3582
  217SOL    HW2  651   2.378   1.006   0.809 -2.9028  0.4613 -1.2118
  218SOL     OW  652   1.755   1.401   1.878  0.3374  0.3214  0.0891
  218SOL    HW1  653   1.678   1.340   1.906 -3.0339  1.2072  0.1947
  218SOL    HW2  654   1.841   1.350   1.870 -1.3953  1.3220  1.3233
  219SOL     OW  655   1.966   1.667   0.075 -0.2517 -1.0265  0.3955
  219SOL    HW1  656   1.880   1.631   0.042  1.6922  3.2045  0.0128
  219SOL    HW2  657   1.958   1.697   0.172 -1.1631  0.7228 -1.3902
  220SOL     OW  658   1.471   1.352   0.909  0.2173  0.7788 -0.2615
  220SOL    HW1  659   1.512   1.339   0.814  0.4236 -0.8051 -1.8785
  220SOL    HW2  660   1.494   1.444   0.947  2.4517 -0.4186  0.5890
  221SOL     OW  661   0.726   0.538   2.949  0.1623  0.0386 -0.1693
  221SOL    HW1  662   0.760   0.635   2.953  0.3320 -0.1241 -0.1163
  221SOL    HW2  663   0.786   0.480   3.009  0.7481 -2.9572 -0.5274
  222SOL     OW  664   1.240   1.388   0.442 -0.4988  0.5164  0.3082
  222SOL    HW1  665   1.285   1.456   0.504  0.9710 -1.8390  0.6407
  222SOL    HW2  666   1.297   1.308   0.425  0.7004  0.6502  0.8766
  223SOL     OW  667   1.028   2.919   2.854  0.5594 -0.8676  0.7154
  223SOL    HW1  668   1.077   2.931   2.941  0.5319 -2.5336  2.8977
  223SOL    HW2  669   0.925   2.920   2.875 -1.1019  0.7075 -0.5259
  224SOL     OW  670   2.227   0.145   1.459 -0.3206  0.5560 -0.0237
  224SOL    HW1  671   2.171   0.181   1.381  2.3230  2.4196  0.0426
  224SOL    HW2  672   2.262   0.220   1.517  0.0409  1.6783  1.0121
  225SOL     OW  673   0.516   0.221   1.301 -0.0833 -0.2499 -0.2789
  225SOL    HW1  674   0.448   0.296   1.304 -0.9684  1.6864  0.8007
  225SOL    HW2  675   0.568   0.226   1.213 -1.9815  0.8476  1.9157
  226SOL     OW  676   1.423   1.412   2.928 -0.3270  0.0528 -0.1552
  226SOL    HW1  677   1.457   1.331   2.877  1.3585  0.8435 -1.5313
  226SOL    HW2  678   1.395   1.394   3.021 -1.9376 -1.4735  0.3044
  227SOL     OW  679   1.188   1.610   1.265 -0.0000 -0.3420  0.0921
  227SOL    HW1  680   1.236   1.525   1.233  0.2890  1.7916  1.5313
  227SOL    HW2  681   1.205   1.689   1.201 -1.0166 -1.4527  1.9814
  228SOL     OW  682   0.499   1.678   0.666  0.2946 -0.6110  0.1055
  228SOL    HW1  683   0.535   1.586   0.691  2.9258 -2.2863  0.2779
  228SOL    HW2  684   0.467   1.736   0.748 -2.1851  2.6117  0.2150
  229SOL     OW  685   1.268   0.481   0.098  0.4976  0.1175 -0.8249
  229SOL    HW1  686   1.219   0.527   0.020  2.5144  1.0526  2.9240
  229SOL    HW2  687   1.351   0.539   0.113  1.1815  2.3353  2.6733
  230SOL     OW  688   1.276   0.410   2.239  0.0254 -0.0223 -0.0747
  230SOL    HW1  689   1.336   0.484   2.204  4.5195  1.3639 -0.3633
  230SOL    HW2  690   1.328   0.345   2.298  1.1998 -0.7898  1.7587
  231SOL     OW  691   1.189   1.722   2.406 -0.2616  0.1629  0.0241
  231SOL    HW1  692   1.095   1.732   2.364 -0.7625 -1.5364 -0.6657
  231SOL    HW2  693   1.253   1.795   2.375 -1.4715  1.1819  2.4218
  232SOL     OW  694   2.362   1.970   0.813 -0.8300  0.4785  0.2134
  232SOL    HW1  695   2.390   2.002   0.903  2.4583  2.7428 -1.5445
  232SOL    HW2  696   2.285   1.904   0.820 -1.8643 -0.0344 -1.6125
  233SOL     OW  697   2.628   2.622   0.266  0.2580  0.0485 -0.4346
  233SOL    HW1  698   2.613   2.559   0.188 -1.3305 -0.5569  1.3094
  233SOL    HW2  699   2.661   2.709   0.225 -2.2816 -0.8458 -4.2270
  234SOL     OW  700   0.990   0.125   2.866 -0.4918 -0.0355 -0.1148
  234SOL    HW1  701   0.999   0.189   2.950 -1.5223  2.0246  0.1946
  234SOL    HW2  702   1.041   0.037   2.876 -1.6108 -1.8125 -0.7391
  235SOL     OW  703   2.545   0.275   2.892  0.2097 -0.3936 -0.2222
  235SOL    HW1  704   2.460   0.267   2.831 -1.0891 -0.8320 -1.6084
  235SOL    HW2  705   2.580   0.371   2.910  3.6352  1.5562 -0.9348
  236SOL     OW  706   2.077   2.406   1.999 -0.3021  0.0813  0.0146
  236SOL    HW1  707   2.054   2.434   2.097 -0.5272 -2.7488  0.4327
  236SOL    HW2  708   1.990   2.375   1.956 -2.1608  0.5904 -0.2191
  237SOL     OW  709   0.696   1.480   2.039 -0.4761 -0.4887  0.2727
  237SOL    HW1  710   0.679   1.567   2.090  2.2463 -3.4905  0.6297
  237SOL    HW2  711   0.772   1.487   1.968  0.4917  1.3635 -1.8451
  238SOL     OW  712   1.791   3.056   2.706 -0.3530  0.2944 -0.2531
  238SOL    HW1  713   1.728   0.016   2.775  0.9188  1.0778  1.6555
  238SOL    HW2  714   1.846   2.986   2.747 -1.6638  1.9559 -0.3118
  239SOL     OW  715   0.033   1.910   1.778 -0.4551  0.1917  0.1502
  239SOL    HW1  716   0.072   1.937   1.871 -0.3161  0.3464  3.2407
  239SOL    HW2  717   0.060   1.815   1.752 -0.2433 -0.0667 -1.0984
  240SOL     OW  718   2.959   2.563   0.674 -0.0765  0.0401  0.2276
  240SOL    HW1  719   2.944   2.546   0.773  1.0367 -0.0466 -1.3959
  240SOL    HW2  720   3.010   2.486   0.628  2.4788  1.9876 -1.5471
  241SOL     OW  721   2.229   1.229   1.022 -0.0242 -0.0225  0.2587
  241SOL    HW1  722   2.303   1.235   0.950  1.5485 -0.5417 -0.7615
  241SOL    HW2  723   2.158   1.168   0.984  1.5443 -0.5065 -1.1779
  242SOL     OW  724   1.915   2.080   2.666 -0.1251 -0.2122 -0.2351
  242SOL    HW1  725   2.010   2.057   2.687 -0.9368 -2.5508  1.1565
  242SOL    HW2  726   1.852   2.065   2.746 -1.5066 -1.0003  2.2694
  243SOL     OW  727   0.554   2.477   1.607 -0.4107  0.2619 -0.2328
  243SOL    HW1  728   0.483   2.498   1.538 -0.7025 -1.6150 -0.6819
  243SOL    HW2  729   0.587   2.561   1.657  2.9015  2.1470 -0.7009
  244SOL     OW  730   2.200   3.009   2.970 -0.3264 -0.2755  0.5352
  244SOL    HW1  731   2.158   2.937   3.021  0.0583  3.5692 -1.9785
  244SOL    HW2  732   2.225   2.969   2.877  0.2047 -0.8304  0.2094
  245SOL     OW  733   1.390   2.905   0.894  0.0942 -0.0664 -0.0947
  245SOL    HW1  734   1.435   2.882   0.983  0.7616 -0.1509 -2.1929
  245SOL    HW2  735   1.321   2.832   0.881 -1.4577  0.9085 -0.7943
  246SOL     OW  736   1.590   2.495   0.299 -0.4333  0.1296  0.3854
  246SOL    HW1  737   1.683   2.538   0.278  2.0586 -1.1203 -0.1288
  246SOL    HW2  738   1.582   2.403   0.255  1.2687 -2.0372 -1.6580
  247SOL     OW  739   0.992   0.379   2.363 -0.1267  0.2888  1.0239
  247SOL    HW1  740   0.925   0.432   2.304  0.5416 -0.0384  0.2540
  247SOL    HW2  741   1.092   0.397   2.339  1.2841  1.5396  2.1991
  248SOL     OW  742   0.467   1.682   1.867 -0.0562 -0.7051  0.1917
  248SOL    HW1  743   0.543   1.717   1.808 -1.5595 -0.4707  1.0467
  248SOL    HW2  744   0.460   1.585   1.857 -1.6982  3.1500 -0.8006
  249SOL     OW  745   2.145   0.305   0.297  0.8828 -0.4898  0.4077
  249SOL    HW1  746   2.231   0.320   0.248 -0.4983  1.1522  0.0198
  249SOL    HW2  747   2.080   0.372   0.267 -1.4331  0.9822  0.1228
  250SOL     OW  748   0.030   0.443   0.581  0.2741  0.0199  0.2415
  250SOL    HW1  749   0.072   0.369   0.640 -2.4200 -1.3531 -1.0865
  250SOL    HW2  750   0.103   0.506   0.548 -0.2303 -1.2761  2.6698
  251SOL     OW  751   1.841   0.327   2.867 -0.1538  0.6369  0.4356
  251SOL    HW1  752   1.878   0.405   2.810 -3.2339  1.5127 -0.9139
  251SOL    HW2  753   1.920   0.261   2.884 -1.7826  2.2821 -0.0242
  252SOL     OW  754   1.722   1.643   1.985 -0.0483 -0.2982  0.0317
  252SOL    HW1  755   1.687   1.640   2.081  0.7052 -0.6935  1.7832
  252SOL    HW2  756   1.725   1.552   1.944 -0.6948  1.2600  1.2064
  253SOL     OW  757   2.525   2.345   1.835 -0.0679 -0.1767  0.0481
  253SOL    HW1  758   2.571   2.377   1.917  0.7266 -2.0123  0.6950
  253SOL    HW2  759   2.589   2.299   1.771 -0.9064  0.1847 -1.6335
  254SOL     OW  760   2.980   1.649   1.052  0.4257  0.3417  0.1890
  254SOL    HW1  761   2.881   1.655   1.032  0.5050  0.9436  1.2960
  254SOL    HW2  762   3.001   1.682   1.147  1.0254 -0.2164  1.7079
  255SOL     OW  763   1.082   0.546   1.336  0.2390  0.1164  0.1750
  255SOL    HW1  764   1.047   0.473   1.397  1.6309 -0.6334 -0.2655
  255SOL    HW2  765   1.184   0.547   1.338  0.9618 -0.5367  1.3718
  256SOL     OW  766   1.973   2.438   1.504  0.8404 -0.7886  0.1683
  256SOL    HW1  767   1.966   2.495   1.420 -2.5071  1.5259 -2.5172
  256SOL    HW2  768   1.909   2.358   1.496  1.1733 -0.2252 -0.8521
  257SOL     OW  769   0.520   2.692   2.599 -0.4549  1.0203 -0.3121
  257SOL    HW1  770   0.551   2.718   2.692 -0.3525  1.2691  1.1751
  257SOL    HW2  771   0.508   2.594   2.588  1.8186 -0.2740 -0.9333
  258SOL     OW  772   0.938   2.223   2.939  0.9271  0.2382  0.1528
  258SOL    HW1  773   0.987   2.144   2.979  1.2570  1.7220 -1.0913
  258SOL    HW2  774   0.840   2.202   2.935  0.2305  0.2287 -1.4213
  259SOL     OW  775   0.860   0.128   2.433  0.2431 -0.3184  0.2345
  259SOL    HW1  776   0.922   0.051   2.410  1.8167  0.9640 -1.8272
  259SOL    HW2  777   0.909   0.214   2.432 -1.9346 -0.9666 -1.1937
  260SOL     OW  778   1.712   0.588   1.049  0.0176 -0.0415 -0.3219
  260SOL    HW1  779   1.759   0.674   1.023  2.5639 -2.0164  0.3474
  260SOL    HW2  780   1.725   0.569   1.150  0.0170 -1.4258  2.9791
  261SOL     OW  781   0.599   0.398   2.563  0.5856 -0.4299  0.4803
  261SOL    HW1  782   0.553   0.489   2.561  1.9997  1.8253 -0.9838
  261SOL    HW2  783   0.694   0.409   2.598  0.2653 -3.2711 -1.3366
  262SOL     OW  784   0.158   1.995   2.001  0.2073 -0.0354  0.2051
  262SOL    HW1  785   0.193   2.068   1.940 -0.4963  2.1246 -0.8559
  262SOL    HW2  786   0.235   1.932   2.027  1.6235 -2.1226  0.9916
  263SOL     OW  787   2.777   1.516   2.336  0.0282  0.1395  0.2106
  263SOL    HW1  788   2.757   1.608   2.376  1.1821  1.8303  2.5407
  263SOL    HW2  789   2.878   1.502   2.333 -0.3770 -0.7251  0.6135
  264SOL     OW  790   0.732   1.267   1.073 -0.2980 -0.0616 -0.1097
  264SOL    HW1  791   0.669   1.250   1.146  1.3452  0.8715 -0.6854
  264SOL    HW2  792   0.737   1.367   1.057 -0.1390  0.3093  0.9154
  265SOL     OW  793   1.083   2.513   0.927 -0.6790  0.0110  0.4819
  265SOL    HW1  794   1.046   2.428   0.889 -0.0835 -0.6347 -0.2254
  265SOL    HW2  795   1.108   2.519   1.024 -0.0598  1.4628  0.3968
  266SOL     OW  796   1.666   0.970   1.072 -0.0051 -0.2623 -0.2196
  266SOL    HW1  797   1.691   1.018   1.157  0.3271 -2.7987 -0.2479
  266SOL    HW2  798   1.632   1.031   1.001  0.6340  0.1925  0.7055
  267SOL     OW  799   2.444   1.151   0.080 -0.0736 -0.3584 -0.2992
  267SOL    HW1  800   2.496   1.170   0.167 -0.2236 -0.9660 -2.4613
  267SOL    HW2  801   2.508   1.158   0.000  1.0659 -2.1938 -2.4999
  268SOL     OW  802   1.214   0.268   0.244 -0.2114  0.0840  0.4731
  268SOL    HW1  803   1.290   0.273   0.310  1.2385  0.9935  1.6893
  268SOL    HW2  804   1.220   0.356   0.190 -0.4038  0.9063 -0.4921
  269SOL     OW  805   2.432   0.449   2.606 -0.5672  0.1032  0.2904
  269SOL    HW1  806   2.442   0.510   2.682  2.4105 -0.4455 -3.1384
  269SOL    HW2  807   2.392   0.361   2.637 -0.4916  0.5260  1.9667
  270SOL     OW  808   0.101   0.968   0.078 -0.5319 -0.3526  0.6943
  270SOL    HW1  809   0.112   0.874   0.040  1.6756  1.6614 -0.3224
  270SOL    HW2  810   0.039   1.023   0.012  0.2526  0.6753 -2.4712
  271SOL     OW  811   2.604   1.227   0.286 -0.2407  0.1673  0.7086
  271SOL    HW1  812   2.581   1.139   0.337  1.1581 -2.7562 -0.2335
  271SOL    HW2  813   2.704   1.232   0.264  0.8275  0.2157  3.5646
  272SOL     OW  814   2.911   2.734   2.633 -0.0078  0.4209 -0.0824
  272SOL    HW1  815   3.003   2.716   2.593 -4.7656  1.1147 -0.3855
  272SOL    HW2  816   2.885   2.662   2.703 -2.4403  1.7419  0.0567
  273SOL     OW  817   2.856   2.981   2.984  0.0356 -0.5735  0.7125
  273SOL    HW1  818   2.948   3.027   3.001  1.1656 -1.0377 -0.7902
  273SOL    HW2  819   2.794   3.049   2.936 -0.7679  0.1766 -0.8901
  274SOL     OW  820   0.506   2.549   0.991  0.0479 -0.6388  0.4654
  274SOL    HW1  821   0.521   2.646   0.966 -0.2001 -1.7792  2.6206
  274SOL    HW2  822   0.600   2.509   0.982  1.8058  1.4737  0.4515
  275SOL     OW  823   2.572   1.485   0.330  0.2679 -1.1037  0.2768
  275SOL    HW1  824   2.668   1.521   0.321 -1.1414  0.3211  1.8304
  275SOL    HW2  825   2.578   1.383   0.307  0.3510 -1.0991  0.0934
  276SOL     OW  826   2.889   1.241   1.705  1.0551 -0.1517 -0.5783
  276SOL    HW1  827   2.911   1.143   1.690  2.4913  1.2819  1.3026
  276SOL    HW2  828   2.930   1.306   1.644 -1.8453 -1.8436  0.0876
  277SOL     OW  829   2.018   0.078   0.994 -0.2802 -0.0660 -0.8075
  277SOL    HW1  830   2.085   0.008   0.976  0.3179  1.2501  0.2261
  277SOL    HW2  831   1.989   0.122   0.912 -0.1217 -0.0997  0.6291
  278SOL     OW  832   1.319   2.380   2.274 -0.1617 -0.5179  0.1603
  278SOL    HW1  833   1.396   2.318   2.271 -0.2835 -0.0810 -1.0313
  278SOL    HW2  834   1.231   2.338   2.244  0.5314  0.7833  1.3591
  279SOL     OW  835   1.785   1.774   0.739  0.1445 -0.2162  0.5011
  279SOL    HW1  836   1.869   1.786   0.679  0.2912 -2.5642 -0.6126
  279SOL    HW2  837   1.728   1.858   0.725  0.4685 -1.3934 -0.1912
  280SOL     OW  838   0.350   1.350   1.021  0.2187  0.3196  0.4512
  280SOL    HW1  839   0.277   1.407   0.981 -0.4440 -0.2751  0.7431
  280SOL    HW2  840   0.419   1.404   1.073  0.1554 -0.2602 -1.5480
  281SOL     OW  841   3.070   1.243   2.380 -0.0140  0.1328 -0.2213
  281SOL    HW1  842   0.089   1.218   2.390 -1.5472  0.2693 -1.0410
  281SOL    HW2  843   3.056   1.343   2.403  1.5770  2.3182  0.2542
  282SOL     OW  844   0.739   1.321   2.981 -0.1131 -0.3100  0.1481
  282SOL    HW1  845   0.657   1.291   3.034 -1.4059  1.3273  0.2085
  282SOL    HW2  846   0.814   1.365   3.035  0.0443  2.2878  1.4940
  283SOL     OW  847   2.392   2.476   3.044 -0.0303 -0.3090 -0.2299
  283SOL    HW1  848   2.302   2.468   0.010  1.8629  1.2297  1.1226
  283SOL    HW2  849   2.466   2.447   0.033 -2.5449 -1.6484  0.1493
  284SOL     OW  850   0.811   3.056   0.586 -0.2602  0.1775  0.1564
  284SOL    HW1  851   0.787   2.959   0.592  0.9582  3.6481  2.4150
  284SOL    HW2  852   0.828   0.013   0.493 -2.6300  0.4395 -1.1308
  285SOL     OW  853   2.353   1.163   2.881  0.1327  0.0175 -0.0833
  285SOL    HW1  854   2.346   1.071   2.840  1.2924  0.9354  0.7429
  285SOL    HW2  855   2.360   1.167   2.982 -0.0876  2.1569 -1.5900
  286SOL     OW  856   1.829   2.605   1.304  0.2029 -0.1724  0.5439
  286SOL    HW1  857   1.882   2.684   1.271  0.6692  1.6775 -1.0529
  286SOL    HW2  858   1.774   2.641   1.383 -2.9595  0.2897  2.1171
  287SOL     OW  859   1.013   0.224   0.654  0.0108 -0.4842  0.2469
  287SOL    HW1  860   1.023   0.323   0.669 -1.7065 -0.8946  0.3522
  287SOL    HW2  861   0.969   0.211   0.562  1.1343 -0.1364  0.6683
  288SOL     OW  862   1.073   2.591   2.582  0.2602 -0.0844  0.0219
  288SOL    HW1  863   1.070   2.521   2.662  2.5318 -0.4263 -0.0131
  288SOL    HW2  864   1.091   2.687   2.606 -0.1256 -1.5732 -1.4146
  289SOL     OW  865   0.256   1.661   1.145 -0.0614  0.2088  0.0476
  289SOL    HW1  866   0.244   1.588   1.213 -0.7036  4.0342 -1.3408
  289SOL    HW2  867   0.240   1.629   1.051  3.4942 -0.4263  1.3706
  290SOL     OW  868   1.457   2.129   0.785  0.2891 -0.2346  0.8172
  290SOL    HW1  869   1.471   2.114   0.884 -0.4075  1.2105 -0.3324
  290SOL    HW2  870   1.462   2.230   0.762 -2.8461  3.9947  1.6290
  291SOL     OW  871   1.567   2.777   0.177  0.4960  0.1367 -0.7470
  291SOL    HW1  872   1.492   2.715   0.212 -1.8850  1.5792  0.5648
  291SOL    HW2  873   1.579   2.856   0.243  1.8191  1.2508  0.3058
  292SOL     OW  874   0.664   0.271   1.750 -0.5773  0.1814 -0.4642
  292SOL    HW1  875   0.685   0.363   1.722 -0.7698 -2.3090  0.2881
  292SOL    HW2  876   0.695   0.256   1.845 -0.9390 -0.4132 -2.0496
  293SOL     OW  877   2.413   2.119   1.054 -0.0991  0.1797  0.4894
  293SOL    HW1  878   2.481   2.190   1.039 -0.4918  0.5857  1.9258
  293SOL    HW2  879   2.325   2.160   1.070  2.4858  1.4967 -1.4008
  294SOL     OW  880   0.783   0.516   2.257  0.3339 -0.2441  0.6122
  294SOL    HW1  881   0.686   0.501   2.236  1.3517  1.7229  0.6088
  294SOL    HW2  882   0.787   0.582   2.334 -0.1236  0.3233 -1.8002
  295SOL     OW  883   1.432   1.763   1.390  0.0495 -0.7189 -0.6082
  295SOL    HW1  884   1.345   1.798   1.358  2.3175 -1.1310 -0.2634
  295SOL    HW2  885   1.516   1.816   1.358  0.9459  0.8615  1.0598
  296SOL     OW  886   2.562   1.879   0.291  0.3937 -0.1528 -0.4339
  296SOL    HW1  887   2.634   1.930   0.244  0.2877 -2.6362  1.9858
  296SOL    HW2  888   2.494   1.848   0.223  2.1878 -2.0331  0.3937
  297SOL     OW  889   2.409   0.035   0.319  0.2914 -0.5178  0.0211
  297SOL    HW1  890   2.432   0.122   0.274 -0.8367 -1.3304  1.7335
  297SOL    HW2  891   2.405   3.036   0.253  0.2900  0.5843  1.0853
  298SOL     OW  892   0.787   2.814   2.649  0.2779  0.2297  0.1353
  298SOL    HW1  893   0.842   2.780   2.568  0.5057  0.7645  0.1895
  298SOL    HW2  894   0.801   2.914   2.668  1.4034 -1.0882  3.7097
  299SOL     OW  895   0.951   2.147   2.008 -0.6118 -0.6773 -0.3796
  299SOL    HW1  896   0.871   2.186   1.955  2.0775  0.7013 -1.0000
  299SOL    HW2  897   0.996   2.201   2.082 -2.4245 -0.8643  1.3801
  300SOL     OW  898   0.033   0.158   2.299  0.1239  0.1274 -0.4158
  300SOL    HW1  899   0.066   0.219   2.371  0.0263 -3.0251 -0.2732
  300SOL    HW2  900   3.012   0.167   2.287 -0.9386  0.1093  1.7623
  301SOL     OW  901   1.066   0.890   1.962 -0.9023 -0.0780 -0.1337
  301SOL    HW1  902   1.031   0.810   2.012  1.2453 -0.0686 -1.3519
  301SOL    HW2  903   1.121   0.946   2.031 -0.0903  2.7820  1.6773
  302SOL     OW  904   0.048   2.383   0.549 -0.2055  0.4731  0.5697
  302SOL    HW1  905   0.126   2.353   0.497  1.7419  0.4088 -0.1554
  302SOL    HW2  906   3.075   2.304   0.585 -2.5068  0.2718  2.2712
  303SOL     OW  907   2.417   2.591   1.744  0.6852  0.4079 -0.1652
  303SOL    HW1  908   2.483   2.515   1.771  1.9248 -0.8390  2.5063
  303SOL    HW2  909   2.344   2.602   1.814  0.0664 -1.1161  1.2916
  304SOL     OW  910   2.948   0.981   1.642 -0.1104 -0.4570 -0.1447
  304SOL    HW1  911   2.968   0.930   1.725  0.8513 -0.4609 -3.2441
  304SOL    HW2  912   2.985   0.932   1.561  1.4292 -0.2815  0.9879
  305SOL     OW  913   0.924   1.527   1.250  0.1451 -0.1040 -0.0586
  305SOL    HW1  914   1.016   1.556   1.283  1.2264  2.7085 -0.0750
  305SOL    HW2  915   0.921   1.544   1.151  1.7249 -1.7085 -0.4763
  306SOL     OW  916   0.527   1.305   2.139  0.1526 -0.2952  0.5788
  306SOL    HW1  917   0.498   1.223   2.082  0.1628 -0.9868  0.0655
  306SOL    HW2  918   0.598   1.357   2.085  0.6369 -3.0622  0.4074
  307SOL     OW  919   0.729   0.537   1.700 -0.3006 -0.1297  0.6456
  307SOL    HW1  920   0.811   0.560   1.758 -1.0231  1.5392 -0.7201
  307SOL    HW2  921   0.756   0.565   1.603  1.3212 -0.9716 -3.4665
  308SOL     OW  922   3.034   1.242   1.262 -0.6797  0.9056 -0.1586
  308SOL    HW1  923   3.071   1.228   1.354 -1.6237  1.8830 -3.8384
  308SOL    HW2  924   2.963   1.174   1.246  0.8117  0.3330 -2.5041
  309SOL     OW  925   2.756   1.453   1.024 -0.5888 -0.1765 -0.2438
  309SOL    HW1  926   2.745   1.434   1.126  1.3754 -0.5605 -1.6197
  309SOL    HW2  927   2.747   1.370   0.968  1.2907 -0.4199 -1.7943
  310SOL     OW  928   2.886   2.172   2.636  0.3401  0.5474 -0.3762
  310SOL    HW1  929   2.790   2.201   2.597 -3.2575  2.5280  0.5150
  310SOL    HW2  930   2.924   2.083   2.604 -1.2940 -2.4717  0.5174
  311SOL     OW  931   2.913   2.586   2.352  0.1951  0.1230 -0.7213
  311SOL    HW1  932   2.928   2.653   2.272 -1.5514  5.1052 -0.3228
  311SOL    HW2  933   2.859   2.633   2.427 -0.8965  0.7246  0.8577
  312SOL     OW  934   2.153   2.073   0.050  0.1768 -0.4072  0.1753
  312SOL    HW1  935   2.056   2.100   0.060 -1.8110  2.5951  1.6612
  312SOL    HW2  936   2.174   1.979   0.023  1.5633 -0.5598  0.9971
  313SOL     OW  937   2.597   2.870   0.636 -0.1448 -0.2383 -0.6133
  313SOL    HW1  938   2.600   2.970   0.606  1.9851  0.4071  0.4147
  313SOL    HW2  939   2.666   2.814   0.579  1.3212  1.2712  0.2038
  314SOL     OW  940   1.915   1.178   0.150  0.0439  0.3941  0.2805
  314SOL    HW1  941   1.881   1.221   0.238 -0.4912 -1.6016 -0.6484
  314SOL    HW2  942   1.950   1.248   0.079  3.3197  1.2202 -2.5691
  315SOL     OW  943   1.408   2.884   2.269  0.8790 -0.5276 -0.2517
  315SOL    HW1  944   1.414   2.939   2.180  0.7224  2.7943  1.3487
  315SOL    HW2  945   1.443   2.940   2.347 -1.6550  2.4349 -1.8003
  316SOL     OW  946   2.800   0.988   0.073  0.3244  0.1661  0.2834
  316SOL    HW1  947   2.839   1.081   0.103  2.5216  3.0983 -0.7953
  316SOL    HW2  948   2.866   0.932   0.023 -0.6123  1.9784  1.6396
  317SOL     OW  949   0.516   2.804   3.077 -0.1546  0.2339  0.1247
  317SOL    HW1  950   0.483   2.843   2.986  0.0752  0.1825 -2.7122
  317SOL    HW2  951   0.588   2.730   3.062  1.2128 -3.0474  0.9286
  318SOL     OW  952   2.599   2.380   0.612 -0.4509  0.3274 -0.2235
  318SOL    HW1  953   2.603   2.288   0.657  1.4521 -2.1263 -0.8354
  318SOL    HW2  954   2.633   2.454   0.677  3.9181  0.7408 -0.1690
  319SOL     OW  955   1.335   1.868   2.732 -0.1594 -0.2548  0.1297
  319SOL    HW1  956   1.346   1.773   2.701  0.7951  1.3213  1.3112
  319SOL    HW2  957   1.235   1.882   2.755 -1.9531 -0.0174 -0.9109
  320SOL     OW  958   0.667   1.886   1.461 -0.1860 -0.3850 -0.0125
  320SOL    HW1  959   0.727   1.941   1.517 -2.4564 -2.9914 -4.4258
  320SOL    HW2  960   0.575   1.921   1.467  1.6305 -0.0397 -2.3108
  321SOL     OW  961   1.487   2.672   2.584  0.3627 -0.8236 -0.2246
  321SOL    HW1  962   1.420   2.606   2.544  4.6228  0.7212  2.0548
  321SOL    HW2  963   1.569   2.659   2.528  1.9929  1.1958 -0.2431
  322SOL     OW  964   2.687   1.557   2.070  0.2020  0.0725 -0.0307
  322SOL    HW1  965   2.721   1.558   2.166  1.6646  2.0372  1.5886
  322SOL    HW2  966   2.603   1.504   2.069  1.1362 -0.4878  0.6420
  323SOL     OW  967   2.394   0.807   1.034 -0.4149  0.7206 -0.2672
  323SOL    HW1  968   2.409   0.909   1.009 -1.7896  2.6068  1.8314
  323SOL    HW2  969   2.354   0.798   1.129 -0.1557 -2.4376  2.3163
  324SOL     OW  970   2.652   2.909   2.367  0.0465  0.4611  0.3746
  324SOL    HW1  971   2.636   2.820   2.412  0.9086  0.9533  1.1352
  324SOL    HW2  972   2.713   2.960   2.423  0.9788 -0.9243 -0.6216
  325SOL     OW  973   1.166   0.586   2.529 -0.6096 -0.1541 -0.1520
  325SOL    HW1  974   1.110   0.503   2.536  0.8602 -0.1554 -0.8057
  325SOL    HW2  975   1.150   0.640   2.441 -0.8019  0.2672 -2.5029
  326SOL     OW  976   1.691   2.933   2.161  0.1939  0.1740 -0.3426
  326SOL    HW1  977   1.703   3.034   2.153 -0.2800 -0.3431 -1.4276
  326SOL    HW2  978   1.782   2.891   2.130  3.3399  0.7666  0.9276
  327SOL     OW  979   2.212   0.373   2.992 -0.0295 -0.1488  0.1223
  327SOL    HW1  980   2.148   0.296   2.984 -1.1351  0.9219  0.9949
  327SOL    HW2  981   2.266   0.362   0.000 -1.2275  1.3376  3.2597
  328SOL     OW  982   3.038   1.500   2.437 -0.1388  0.1594 -0.1604
  328SOL    HW1  983   3.012   1.535   2.530 -1.1790 -0.1640 -0.9281
  328SOL    HW2  984   0.043   1.542   2.399  1.9657  1.8765  1.1315
  329SOL     OW  985   1.695   0.010   1.637  0.2289 -0.2981  0.5517
  329SOL    HW1  986   1.722   3.025   1.709 -1.2955  2.1244 -0.9793
  329SOL    HW2  987   1.649   3.037   1.565 -2.3300 -1.2217 -0.0453
  330SOL     OW  988   0.395   1.240   0.792  0.1798 -0.7652  0.5227
  330SOL    HW1  989   0.311   1.194   0.764  0.6407 -1.9033  0.3972
  330SOL    HW2  990   0.384   1.267   0.889 -0.9801  0.9284  2.9084
  331SOL     OW  991   0.263   1.419   2.128 -0.4156 -0.1357  0.2655
  331SOL    HW1  992   0.360   1.393   2.106  1.7791 -1.6529 -2.0616
  331SOL    HW2  993   0.261   1.489   2.199  1.7616 -4.6666  0.7572
  332SOL     OW  994   3.000   2.700   1.474  0.9870 -0.2539 -0.2476
  332SOL    HW1  995   3.010   2.795   1.514 -1.9300  2.0628 -1.1017
  332SOL    HW2  996   2.901   2.687   1.449  0.0123 -2.9244 -0.0744
  333SOL     OW  997   2.288   0.149   0.721 -0.5198 -0.3880  0.2198
  333SOL    HW1  998   2.239   0.067   0.756  1.4779 -0.4731  0.9828
  333SOL    HW2  999   2.223   0.222   0.688  0.6594 -0.4101  1.2818
  334SOL     OW 1000   0.711   1.970   0.489  0.6198  0.3368  0.0523
  334SOL    HW1 1001   0.726   1.868   0.505  2.0544  0.4730 -0.9437
  334SOL    HW2 1002   0.623   1.982   0.437 -2.1342  1.3498 -1.1684
  335SOL     OW 1003   0.141   2.609   2.981  0.1867  0.2786 -0.1128
  335SOL    HW1 1004   0.050   2.558   2.991 -0.8963 -2.2048  1.9695
  335SOL    HW2 1005   0.221   2.550   2.966  0.3584  0.8497 -0.4978
  336SOL     OW 1006   0.117   2.713   1.991 -0.0705 -0.4643 -0.0047
  336SOL    HW1 1007   0.093   2.620   1.964  0.7872  2.3564 -2.4719
  336SOL    HW2 1008   0.201   2.709   2.054 -0.9466  1.0090  0.8799
  337SOL     OW 1009   2.186   2.331   2.409 -0.1398 -0.8524  0.2124
  337SOL    HW1 1010   2.261   2.405   2.412 -0.9719 -1.3317  2.5224
  337SOL    HW2 1011   2.231   2.239   2.408 -0.4813  1.0214 -0.9492
  338SOL     OW 1012   0.580   0.231   0.434  0.4945 -0.1125  0.0091
  338SOL    HW1 1013   0.632   0.261   0.516  1.0847 -1.3452  0.4726
  338SOL    HW2 1014   0.613   0.251   0.340  0.0062  5.3639  2.3208
  339SOL     OW 1015   0.255   0.871   2.097 -0.6811 -0.0009 -0.4584
  339SOL    HW1 1016   0.215   0.845   2.184 -0.1592  2.6173 -1.9547
  339SOL    HW2 1017   0.179   0.919   2.041 -1.7964  1.3486 -1.1032
  340SOL     OW 1018   1.784   2.979   0.379 -0.1852  0.8562  0.4392
  340SOL    HW1 1019   1.834   3.059   0.343 -0.9250 -1.4408 -2.2615
  340SOL    HW2 1020   1.681   2.990   0.382  0.3788 -2.4544 -2.3398
  341SOL     OW 1021   2.071   0.811   0.976 -0.0357  0.5106  0.0149
  341SOL    HW1 1022   1.977   0.788   0.940 -1.1305 -0.0171 -0.5814
  341SOL    HW2 1023   2.142   0.811   0.901 -0.4601  1.9405 -2.6489
  342SOL     OW 1024   2.441   2.930   0.114 -0.1081 -0.9306  0.5711
  342SOL    HW1 1025   2.400   2.992   0.045  1.2082 -1.0476 -0.3533
  342SOL    HW2 1026   2.435   2.836   0.077 -0.5304  1.9182 -0.3692
  343SOL     OW 1027   1.401   2.164   1.582 -0.6862 -0.0690  0.0213
  343SOL    HW1 1028   1.488   2.218   1.608  3.4320 -0.3957  2.2326
  343SOL    HW2 1029   1.405   2.079   1.637  1.3630  0.6135 -0.6670
  344SOL     OW 1030   2.275   2.760   0.937  0.2853  0.0611 -0.1785
  344SOL    HW1 1031   2.180   2.774   0.976 -1.7261 -0.1476 -0.6373
  344SOL    HW2 1032   2.276   2.667   0.892  1.2217 -0.5537  1.1464
  345SOL     OW 1033   2.883   2.390   0.192 -0.0845 -0.3329 -0.0287
  345SOL    HW1 1034   2.940   2.455   0.242 -2.5730 -0.2378 -0.8564
  345SOL    HW2 1035   2.901   2.302   0.239 -0.6042 -0.0391 -0.7938
  346SOL     OW 1036   2.632   1.884   0.963  0.4668  0.5409 -0.2888
  346SOL    HW1 1037   2.632   1.970   0.911  2.1384 -0.3322 -2.7434
  346SOL    HW2 1038   2.643   1.909   1.063  2.0805  2.7120  2.4636
  347SOL     OW 1039   1.723   1.889   1.866  0.5420 -0.3733 -0.1229
  347SOL    HW1 1040   1.705   1.965   1.932  1.1208  1.0168  2.6815
  347SOL    HW2 1041   1.709   1.797   1.910  0.4357 -0.2808  1.5553
  348SOL     OW 1042   0.448   1.531   2.533  0.1422 -0.2232 -0.1861
  348SOL    HW1 1043   0.499   1.446   2.506  0.6039 -1.2180  0.3956
  348SOL    HW2 1044   0.436   1.537   2.631 -0.4719  1.6351 -2.1210
  349SOL     OW 1045   2.423   1.316   0.860 -0.3616 -0.0080 -0.2064
  349SOL    HW1 1046   2.388   1.410   0.876 -0.1593  0.0348  0.2013
  349SOL    HW2 1047   2.478   1.308   0.775 -2.2525 -0.6965  1.1627
  350SOL     OW 1048   2.858   2.717   1.136  0.2204 -0.1797  0.0663
  350SOL    HW1 1049   2.778   2.776   1.155  1.9942  1.1825  2.2508
  350SOL    HW2 1050   2.890   2.667   1.217 -0.9762  1.5108 -0.1369
  351SOL     OW 1051   0.587   0.020   2.092 -0.0384  0.3749 -0.5551
  351SOL    HW1 1052   0.494   0.058   2.090  0.9212 -1.3106 -1.3628
  351SOL    HW2 1053   0.611   0.003   2.189  0.7063 -0.2095  1.2337
  352SOL     OW 1054   0.989   1.564   0.973  0.0851 -0.1997 -0.0371
  352SOL    HW1 1055   0.993   1.463   0.944  2.0021 -2.0459 -0.9033
  352SOL    HW2 1056   1.034   1.618   0.896  1.1679  1.1194 -3.9041
  353SOL     OW 1057   1.313   1.624   2.609  0.2028 -0.6441 -0.1112
  353SOL    HW1 1058   1.268   1.658   2.524  2.5013  0.3152  1.9451
  353SOL    HW2 1059   1.236   1.566   2.644  1.3014  0.3904 -1.5095
  354SOL     OW 1060   1.321   0.099   0.966 -0.1918  0.1156  0.2900
  354SOL    HW1 1061   1.325   3.077   0.977  1.1319  2.4423 -0.4490
  354SOL    HW2 1062   1.263   0.138   1.041  0.3269  0.9929 -2.0568
  355SOL     OW 1063   2.590   1.285   0.650  0.1440 -0.2400 -0.3515
  355SOL    HW1 1064   2.526   1.237   0.586 -1.6288  0.3873 -1.3076
  355SOL    HW2 1065   2.648   1.354   0.594  1.3803  0.3883  2.0552
  356SOL     OW 1066   2.416   1.661   2.273  0.6843  0.1420 -0.6174
  356SOL    HW1 1067   2.396   1.748   2.220 -2.0951  1.3109  0.9348
  356SOL    HW2 1068   2.514   1.661   2.307  2.8653 -0.3609  1.3084
  357SOL     OW 1069   0.395   2.554   1.367  0.3132 -0.5316  0.0630
  357SOL    HW1 1070   0.305   2.604   1.357 -1.0950 -0.1326  1.1871
  357SOL    HW2 1071   0.468   2.630   1.378 -0.0731  3.7784 -0.5054
  358SOL     OW 1072   2.335   0.720   1.586  0.5342 -0.1857  0.4749
  358SOL    HW1 1073   2.276   0.675   1.662 -1.9062 -3.5019  1.9059
  358SOL    HW2 1074   2.370   0.807   1.625 -1.0364  0.9169  2.8869
  359SOL     OW 1075   2.183   2.645   2.713  0.0244 -0.7222  0.0230
  359SOL    HW1 1076   2.090   2.640   2.671  0.7092 -2.7593 -0.7687
  359SOL    HW2 1077   2.188   2.732   2.767 -2.2785  2.6421  2.5911
  360SOL     OW 1078   0.755   0.464   0.950 -0.0838 -0.2443  0.5482
  360SOL    HW1 1079   0.822   0.532   0.984  2.8920  2.1487 -2.5328
  360SOL    HW2 1080   0.722   0.486   0.854 -0.0773 -1.8133  1.0330
  361SOL     OW 1081   1.826   3.045   1.166 -0.1480  0.2112 -0.1375
  361SOL    HW1 1082   1.756   0.041   1.165  3.6092 -3.7979  1.3761
  361SOL    HW2 1083   1.909   3.073   1.117 -0.1973 -0.9013  0.0470
  362SOL     OW 1084   1.327   1.125   0.895  0.4320  0.5303 -0.7407
  362SOL    HW1 1085   1.387   1.208   0.887 -0.0383 -0.2796  0.0093
  362SOL    HW2 1086   1.382   1.042   0.907 -2.2994  2.8815 -1.1002
  363SOL     OW 1087   2.268   1.345   2.692  0.2193  0.1603 -0.0479
  363SOL    HW1 1088   2.230   1.429   2.743  0.5199  2.1942 -0.8957
  363SOL    HW2 1089   2.298   1.274   2.754 -1.5941  2.4554 -1.0938
  364SOL     OW 1090   0.188   0.316   1.051 -0.4884 -0.0250 -0.0074
  364SOL    HW1 1091   0.279   0.367   1.044  0.5464  0.9196  0.5836
  364SOL    HW2 1092   0.125   0.380   1.098 -0.6185  1.2246  1.3725
  365SOL     OW 1093   0.174   2.697   0.155 -0.1003  0.6782 -0.4044
  365SOL    HW1 1094   0.147   2.665   0.062  1.7258 -1.3376 -0.3294
  365SOL    HW2 1095   0.096   2.739   0.209 -0.4226 -0.6903 -0.2790
  366SOL     OW 1096   2.321   2.215   2.947  0.5595 -0.6392  0.1449
  366SOL    HW1 1097   2.247   2.176   3.004  0.8537  0.3748  0.0860
  366SOL    HW2 1098   2.333   2.314   2.967  1.4480 -1.2962  1.6704
  367SOL     OW 1099   2.801   2.569   2.828  0.2722 -0.2815 -0.0266
  367SOL    HW1 1100   2.749   2.481   2.827  2.2215  1.6982 -0.5295
  367SOL    HW2 1101   2.883   2.559   2.890 -0.7267 -1.0257  0.1943
  368SOL     OW 1102   0.398   1.821   0.862  0.1258  0.4824  0.1099
  368SOL    HW1 1103   0.465   1.804   0.941  2.5286 -1.1938  0.4310
  368SOL    HW2 1104   0.377   1.922   0.849  0.0628  0.5851  2.4911
  369SOL     OW 1105   0.824   2.597   2.812  0.1278 -0.1246 -0.2667
  369SOL    HW1 1106   0.821   2.664   2.735  0.1402  0.6711  0.4532
  369SOL    HW2 1107   0.910   2.609   2.867 -1.9837  1.3387  0.9255
  370SOL     OW 1108   0.156   1.059   0.737 -0.9916 -0.7489 -0.2274
  370SOL    HW1 1109   0.102   1.133   0.781  1.0549 -0.0065  1.2444
  370SOL    HW2 1110   0.106   0.970   0.743 -0.2662 -0.4202  2.7263
  371SOL     OW 1111   1.971   2.454   0.977  0.2453 -0.1815  0.2454
  371SOL    HW1 1112   1.940   2.473   0.879  1.1683  1.1309  2.9011
  371SOL    HW2 1113   1.914   2.380   1.018  0.2749 -1.1358  1.1239
  372SOL     OW 1114   0.236   0.872   2.790 -1.2291 -0.5502  0.1481
  372SOL    HW1 1115   0.285   0.944   2.742  0.5071  0.5147  1.1419
  372SOL    HW2 1116   0.292   0.787   2.803 -0.3518 -1.1524 -1.5204
  373SOL     OW 1117   3.039   1.869   0.644 -0.4994  0.1320  0.9205
  373SOL    HW1 1118   2.949   1.820   0.654 -4.2836 -1.9734  0.5829
  373SOL    HW2 1119   0.015   1.864   0.729 -0.9880 -1.6739 -0.7248
  374SOL     OW 1120   0.282   2.287   0.411 -0.2070  0.3906 -0.4496
  374SOL    HW1 1121   0.268   2.240   0.317 -0.2284 -2.9462 -0.9228
  374SOL    HW2 1122   0.331   2.380   0.405  1.0552  1.3573 -1.2875
  375SOL     OW 1123   0.243   0.595   0.514 -0.0272 -0.4225 -0.4754
  375SOL    HW1 1124   0.261   0.662   0.587 -1.9821 -0.7382  0.9236
  375SOL    HW2 1125   0.335   0.562   0.481  0.3664 -0.1554  2.0098
  376SOL     OW 1126   0.255   2.184   1.832 -0.5129  0.2298  0.5818
  376SOL    HW1 1127   0.323   2.199   1.759  0.1146 -2.3679  0.8913
  376SOL    HW2 1128   0.171   2.238   1.811  2.9155 -0.3356 -1.7546
  377SOL     OW 1129   1.728   2.571   2.853 -0.2473  0.1701  0.2185
  377SOL    HW1 1130   1.634   2.577   2.894  0.2324  1.5096 -0.0476
  377SOL    HW2 1131   1.732   2.527   2.760  0.0890 -0.3396  0.5462
  378SOL     OW 1132   0.825   0.517   0.516  0.6067 -0.1416 -0.2688
  378SOL    HW1 1133   0.821   0.426   0.467  0.0038  0.9553  0.5239
  378SOL    HW2 1134   0.891   0.515   0.591  0.4705 -0.5698 -0.2845
  379SOL     OW 1135   0.748   1.702   0.516  0.3660  0.3387  0.5602
  379SOL    HW1 1136   0.653   1.697   0.558  0.0001  0.3810 -3.2271
  379SOL    HW2 1137   0.775   1.619   0.462 -0.5496  1.4040  0.3138
  380SOL     OW 1138   0.477   2.176   1.082  0.4096  0.6907 -0.0061
  380SOL    HW1 1139   0.378   2.203   1.070 -2.4444  2.9366 -1.7022
  380SOL    HW2 1140   0.528   2.255   1.124 -0.4098  1.3929 -0.3144
  381SOL     OW 1141   0.646   1.186   1.685  0.0387 -0.0042 -0.0114
  381SOL    HW1 1142   0.689   1.281   1.675  3.2068  3.6866 -0.4196
  381SOL    HW2 1143   0.617   1.172   1.781  0.9397  1.5063  0.7527
  382SOL     OW 1144   2.242   2.029   0.521  0.1300 -0.1795 -0.3879
  382SOL    HW1 1145   2.315   1.975   0.570  0.8606  0.7685 -0.6263
  382SOL    HW2 1146   2.283   2.076   0.436 -1.2221  1.1602 -0.6663
  383SOL     OW 1147   2.633   1.742   2.393 -0.2114 -0.5250  0.1098
  383SOL    HW1 1148   2.626   1.704   2.488  0.3534  0.6509  0.8317
  383SOL    HW2 1149   2.587   1.831   2.383  0.0656 -2.0679  1.0718
  384SOL     OW 1150   0.142   1.888   2.324  0.2556 -0.4073 -0.3052
  384SOL    HW1 1151   0.175   1.986   2.328  1.7238  2.6174 -0.1639
  384SOL    HW2 1152   0.091   1.858   2.241  0.4776 -3.7527 -1.3192
  385SOL     OW 1153   2.813   2.239   0.822  0.1130  0.2768 -0.3631
  385SOL    HW1 1154   2.874   2.172   0.873  2.1760  0.5392  1.2681
  385SOL    HW2 1155   2.734   2.191   0.773 -1.3533 -0.6482 -0.4779
  386SOL     OW 1156   1.797   0.796   0.944  0.1629  0.2297  0.2195
  386SOL    HW1 1157   1.764   0.818   0.850 -0.1242 -0.2398  0.7672
  386SOL    HW2 1158   1.760   0.874   1.007  1.7043  2.4723  1.1363
  387SOL     OW 1159   0.391   0.652   2.003 -0.2588 -0.0466 -0.2972
  387SOL    HW1 1160   0.326   0.717   2.050  1.5845  2.7513  1.1459
  387SOL    HW2 1161   0.457   0.693   1.937  1.1017  0.5271 -0.4689
  388SOL     OW 1162   2.413   0.941   2.436 -0.1413  0.2122 -0.3670
  388SOL    HW1 1163   2.427   1.044   2.451 -0.3415  2.4570 -3.5364
  388SOL    HW2 1164   2.317   0.924   2.410 -0.5895  0.9933 -1.1285
  389SOL     OW 1165   1.860   1.171   2.052  0.1242 -0.5140 -0.5588
  389SOL    HW1 1166   1.929   1.232   2.008 -1.9146 -0.9178  0.2531
  389SOL    HW2 1167   1.902   1.077   2.070  3.5272 -1.3587 -1.1867
  390SOL     OW 1168   1.977   2.514   0.480 -0.4685 -0.3251 -0.2229
  390SOL    HW1 1169   1.937   2.606   0.478  1.0028 -0.7324 -3.5884
  390SOL    HW2 1170   1.912   2.444   0.444  1.8218 -0.5913 -0.6542
  391SOL     OW 1171   1.973   2.121   1.234  0.2870  0.0206  0.7127
  391SOL    HW1 1172   1.933   2.113   1.143 -0.0065  1.2086 -1.7681
  391SOL    HW2 1173   2.012   2.033   1.268  1.8694 -1.0233  0.5188
  392SOL     OW 1174   2.646   2.873   1.134  0.3893  0.3809  0.0443
  392SOL    HW1 1175   2.596   2.812   1.202  0.1167  1.6203  0.6373
  392SOL    HW2 1176   2.596   2.872   1.041  0.1874 -1.1772 -1.7165
  393SOL     OW 1177   2.167   1.816   3.042 -0.0265  0.0096 -0.1476
  393SOL    HW1 1178   2.111   1.785   0.043 -2.7727 -1.0240  0.3663
  393SOL    HW2 1179   2.108   1.802   2.955 -1.0999 -0.3820 -2.7054
  394SOL     OW 1180   0.016   0.187   2.674 -0.4712 -0.4451  0.1203
  394SOL    HW1 1181   3.072   0.201   2.774 -1.5779  0.4374  0.0595
  394SOL    HW2 1182   3.056   0.267   2.616 -2.4765  1.2691 -0.4969
  395SOL     OW 1183   1.055   0.781   0.927  0.4050 -0.0560 -0.2209
  395SOL    HW1 1184   1.008   0.857   0.977 -1.5442 -0.4221  1.9458
  395SOL    HW2 1185   1.026   0.776   0.829 -0.8451 -0.6465  2.0795
  396SOL     OW 1186   1.160   0.697   3.041  0.3700  0.9635  0.4990
  396SOL    HW1 1187   1.132   0.687   2.943  0.4126  2.2138  1.8232
  396SOL    HW2 1188   1.230   0.771   3.047 -1.4635  0.6333  0.8481
  397SOL     OW 1189   0.502   0.645   2.434  0.3714 -0.0689  0.0850
  397SOL    HW1 1190   0.492   0.739   2.466  1.8576 -2.4737  0.0407
  397SOL    HW2 1191   0.418   0.608   2.397  0.9589  1.8271  0.5812
  398SOL     OW 1192   0.861   0.020   0.307  0.0877 -0.2905 -0.1108
  398SOL    HW1 1193   0.929   3.025   0.318  2.1817  0.4386 -0.9277
  398SOL    HW2 1194   0.780   3.059   0.259  0.2190 -0.7888 -0.0846
  399SOL     OW 1195   2.017   2.840   1.831  0.5013  0.1037 -0.0555
  399SOL    HW1 1196   2.118   2.830   1.811 -2.4034 -1.7184  0.1869
  399SOL    HW2 1197   1.988   2.928   1.792  1.3952  0.5616  1.2171
  400SOL     OW 1198   0.577   1.736   2.382  0.7436  0.4679  0.0901
  400SOL    HW1 1199   0.542   1.650   2.429  3.8846  1.5776 -0.1488
  400SOL    HW2 1200   0.647   1.718   2.310 -1.0868  0.9283 -2.2962
  401SOL     OW 1201   0.810   0.494   2.682 -0.1191 -0.2588 -0.3607
  401SOL    HW1 1202   0.878   0.419   2.693 -0.3157 -1.2614 -1.4545
  401SOL    HW2 1203   0.767   0.524   2.768 -0.4595 -0.8198 -0.5941
  402SOL     OW 1204   2.953   2.245   1.970  0.3304  0.3410 -0.1433
  402SOL    HW1 1205   2.961   2.147   1.986  1.1555  2.1573 -0.1376
  402SOL    HW2 1206   2.853   2.276   1.966 -1.6407  0.3839  2.2185
  403SOL     OW 1207   0.491   1.129   1.928 -0.4877 -0.3699 -0.1409
  403SOL    HW1 1208   0.564   1.062   1.950  2.7036  2.6578  0.7069
  403SOL    HW2 1209   0.417   1.094   1.874  1.1171  1.7077 -0.3653
  404SOL     OW 1210   0.059   2.535   1.635  0.1394  0.4755  0.5640
  404SOL    HW1 1211   0.079   2.449   1.583  0.5643  0.8154  0.9594
  404SOL    HW2 1212   3.078   2.597   1.582 -0.8740  0.6498  0.5650
  405SOL     OW 1213   0.243   0.484   1.821 -1.0959  0.0114 -0.2243
  405SOL    HW1 1214   0.309   0.506   1.900  1.7651  0.2703  1.0076
  405SOL    HW2 1215   0.290   0.416   1.757 -0.1253 -0.2170 -0.7248
  406SOL     OW 1216   1.851   2.283   2.985  0.2783  0.1491  0.0543
  406SOL    HW1 1217   1.888   2.276   0.003  0.0910 -0.5355  2.0546
  406SOL    HW2 1218   1.923   2.329   2.924  0.1696  1.1391 -1.2405
  407SOL     OW 1219   1.542   1.244   1.988 -0.6917  0.1665 -0.3552
  407SOL    HW1 1220   1.454   1.288   1.991  1.7265  0.9241 -1.4406
  407SOL    HW2 1221   1.561   1.198   2.077  1.6002 -1.4905 -2.3573
  408SOL     OW 1222   0.592   0.180   2.735 -0.7101 -0.4014 -0.2929
  408SOL    HW1 1223   0.676   0.118   2.732  0.2977  1.1296 -0.1818
  408SOL    HW2 1224   0.601   0.256   2.666  0.4271  0.8980 -1.1760
  409SOL     OW 1225   0.084   1.998   0.379 -0.4507  0.2428 -0.0108
  409SOL    HW1 1226   0.080   2.006   0.480 -1.1858 -0.4205  0.2783
  409SOL    HW2 1227   0.162   2.044   0.334  1.3331  0.4304 -0.3692
  410SOL     OW 1228   2.587   1.758   0.539  0.3866  0.1521  0.5420
  410SOL    HW1 1229   2.575   1.804   0.452 -0.6116 -0.7576  0.4892
  410SOL    HW2 1230   2.619   1.663   0.520  1.3102 -0.7535 -2.8969
  411SOL     OW 1231   2.899   0.376   0.968 -0.0595 -0.0144 -0.2149
  411SOL    HW1 1232   2.839   0.331   0.897  2.4965  1.5125 -2.6532
  411SOL    HW2 1233   2.914   0.317   1.051  1.7886  1.3782  0.8095
  412SOL     OW 1234   1.422   0.760   1.205 -0.6289 -0.0486  0.5624
  412SOL    HW1 1235   1.516   0.799   1.233  0.3890  1.3113 -1.4701
  412SOL    HW2 1236   1.349   0.819   1.239  2.8060 -0.4220 -0.2964
  413SOL     OW 1237   0.380   2.970   1.076  0.5739 -0.3509 -0.2793
  413SOL    HW1 1238   0.395   3.054   1.016 -0.7262  0.8380  0.5389
  413SOL    HW2 1239   0.424   2.983   1.166  0.7971  2.2861 -0.0107
  414SOL     OW 1240   2.933   1.805   2.833  0.1061  0.7183  0.1693
  414SOL    HW1 1241   2.847   1.852   2.802  2.4489 -3.3737  1.1460
  414SOL    HW2 1242   3.007   1.870   2.841  0.3778 -2.9013  1.0883
  415SOL     OW 1243   0.402   2.282   2.789 -0.6485 -0.2889  0.4162
  415SOL    HW1 1244   0.450   2.209   2.837  0.3304  1.0247  0.8672
  415SOL    HW2 1245   0.330   2.234   2.732 -0.9661  1.4496 -0.3075
  416SOL     OW 1246   1.397   0.235   0.454  0.1055  0.5725 -0.1665
  416SOL    HW1 1247   1.481   0.291   0.439  1.0113  0.3874  1.2915
  416SOL    HW2 1248   1.356   0.261   0.546 -1.0257 -0.0513  1.8761
  417SOL     OW 1249   0.144   1.237   0.543 -0.5396  0.2222  0.0025
  417SOL    HW1 1250   0.197   1.192   0.471 -3.6255  0.7594  0.0686
  417SOL    HW2 1251   0.102   1.163   0.599  0.4643 -1.3461 -0.4478
  418SOL     OW 1252   2.472   1.219   2.101  0.3305  0.5065 -0.1390
  418SOL    HW1 1253   2.424   1.299   2.062 -0.1276  0.2162  0.1139
  418SOL    HW2 1254   2.538   1.257   2.167 -1.1427  0.8482 -1.5496
  419SOL     OW 1255   0.381   0.706   0.132 -0.4114  0.4410 -0.1545
  419SOL    HW1 1256   0.292   0.719   0.093 -0.5121  2.3518  1.9304
  419SOL    HW2 1257   0.428   0.624   0.092  1.3149 -0.4047  2.3227
  420SOL     OW 1258   0.568   1.449   0.737  0.0252  0.8094  0.7465
  420SOL    HW1 1259   0.509   1.365   0.749 -0.5934 -1.7295  3.2093
  420SOL    HW2 1260   0.657   1.421   0.696 -1.4643  1.5186  3.2725
  421SOL     OW 1261   0.769   2.511   0.862 -0.3063 -0.0585 -0.1317
  421SOL    HW1 1262   0.843   2.473   0.918 -1.8446  0.3345 -0.7652
  421SOL    HW2 1263   0.789   2.608   0.834  1.7605  2.1164  1.7482
  422SOL     OW 1264   0.038   0.856   1.448 -0.0724 -0.2470 -0.0111
  422SOL    HW1 1265   0.111   0.911   1.410 -0.9329 -1.0568  0.5530
  422SOL    HW2 1266   0.069   0.794   1.522 -0.9976 -0.9691  0.8558
  423SOL     OW 1267   1.520   1.521   1.458  0.7680  0.1533  0.2999
  423SOL    HW1 1268   1.457   1.495   1.537 -1.9325 -2.0775  0.9932
  423SOL    HW2 1269   1.491   1.611   1.423 -1.1210 -2.2234 -0.6197
  424SOL     OW 1270   2.081   1.013   2.989  0.3406  0.1853 -0.1318
  424SOL    HW1 1271   2.130   1.026   3.075 -2.8333  0.8186 -2.1978
  424SOL    HW2 1272   2.033   1.094   2.956  1.6122 -4.4785 -1.3062
  425SOL     OW 1273   3.074   0.294   1.859  0.1765  0.0395  0.4972
  425SOL    HW1 1274   0.082   0.338   1.823  1.9952 -0.7838  1.2866
  425SOL    HW2 1275   3.015   0.368   1.902  2.3304  1.6078 -0.1235
  426SOL     OW 1276   2.659   2.674   2.510  0.2883 -0.4362  0.4045
  426SOL    HW1 1277   2.733   2.698   2.576 -0.7121  1.5320  1.6653
  426SOL    HW2 1278   2.574   2.639   2.556 -1.5722  1.1511 -0.7350
  427SOL     OW 1279   1.150   0.725   2.287  0.0473  0.3137 -0.1151
  427SOL    HW1 1280   1.089   0.700   2.209 -1.1653  1.7187  0.3312
  427SOL    HW2 1281   1.242   0.688   2.271 -0.1709  1.3455  0.4478
  428SOL     OW 1282   2.038   0.953   2.042  0.1188 -0.1575  0.5217
  428SOL    HW1 1283   2.037   0.959   1.941 -0.1008 -1.4553  2.7916
  428SOL    HW2 1284   2.005   0.866   2.083  0.7035  0.4533  1.0490
  429SOL     OW 1285   3.060   2.833   0.317 -0.1006 -0.3783  0.1032
  429SOL    HW1 1286   0.045   2.886   0.380 -1.2257  0.5194 -1.0869
  429SOL    HW2 1287   2.979   2.891   0.293  0.6674 -1.7571 -2.0668
  430SOL     OW 1288   2.082   1.520   2.196 -0.6156  0.2484  0.0792
  430SOL    HW1 1289   2.169   1.474   2.226 -1.6159  1.3820  0.4593
  430SOL    HW2 1290   2.007   1.452   2.213  0.5948 -0.7750  1.2157
  431SOL     OW 1291   0.266   1.858   1.367  0.4359  0.0351  0.5797
  431SOL    HW1 1292   0.272   1.798   1.280  1.6827 -1.3345 -2.4693
  431SOL    HW2 1293   0.340   1.928   1.376 -1.9716  1.8057  0.3918
  432SOL     OW 1294   1.884   0.247   2.346 -0.5269 -0.5364  0.1818
  432SOL    HW1 1295   1.857   0.152   2.371 -0.6504  0.7145 -2.0510
  432SOL    HW2 1296   1.811   0.317   2.365 -0.2695  0.3354 -0.5378
  433SOL     OW 1297   1.361   3.055   2.061  0.2089  0.1775 -0.3644
  433SOL    HW1 1298   1.390   3.068   1.963  0.2079  1.6438  0.9805
  433SOL    HW2 1299   1.347   0.064   2.103  2.2726 -0.0204 -1.4498
  434SOL     OW 1300   0.367   2.689   2.139  0.5344 -0.2022 -0.6015
  434SOL    HW1 1301   0.413   2.747   2.208  0.6035 -2.5605  0.2097
  434SOL    HW2 1302   0.360   2.597   2.185  1.4656 -0.4557 -0.3784
  435SOL     OW 1303   0.286   2.167   0.167 -0.1121  0.0220 -0.0404
  435SOL    HW1 1304   0.314   2.264   0.141  1.1439 -0.8785 -1.0440
  435SOL    HW2 1305   0.367   2.104   0.169 -0.4681  1.1140 -1.0371
  436SOL     OW 1306   0.582   0.727   1.809  0.5208 -0.0439  0.2317
  436SOL    HW1 1307   0.634   0.643   1.784  0.2817  0.1722  0.4528
  436SOL    HW2 1308   0.548   0.774   1.726 -1.3576 -0.9100  0.5865
  437SOL     OW 1309   0.534   2.796   2.341  0.1226  0.0549 -0.0391
  437SOL    HW1 1310   0.507   2.890   2.347 -1.1227 -4.2281  1.1870
  437SOL    HW2 1311   0.550   2.742   2.429  1.1156 -0.2101  0.7750
  438SOL     OW 1312   0.832   1.683   1.459 -0.1853  0.0916 -0.0931
  438SOL    HW1 1313   0.768   1.760   1.444  0.9483  3.2555  1.8453
  438SOL    HW2 1314   0.866   1.645   1.371  1.3181 -2.8457  1.4706
  439SOL     OW 1315   2.109   0.806   2.819  0.0254 -0.2015 -0.5549
  439SOL    HW1 1316   2.122   0.898   2.860 -0.9484 -1.8878 -0.1872
  439SOL    HW2 1317   2.160   0.729   2.865 -0.3311  1.4641  0.6979
  440SOL     OW 1318   0.776   0.389   0.097 -0.0139  0.1041  0.0222
  440SOL    HW1 1319   0.717   0.312   0.128 -1.1523 -0.4873 -0.5647
  440SOL    HW2 1320   0.757   0.475   0.145 -0.0899 -1.8299 -0.9057
  441SOL     OW 1321   0.833   2.337   1.452  0.3773  0.0353 -0.0580
  441SOL    HW1 1322   0.778   2.423   1.427 -3.5290 -0.2914  1.3402
  441SOL    HW2 1323   0.832   2.263   1.384  1.4256  1.4449 -3.1569
  442SOL     OW 1324   2.918   1.520   0.786  0.2941  0.0504  0.4801
  442SOL    HW1 1325   2.875   1.614   0.778 -0.3245 -0.0919  0.7482
  442SOL    HW2 1326   2.903   1.479   0.877 -2.0442 -1.6160 -0.1809
  443SOL     OW 1327   2.598   2.104   2.587  0.6618 -0.0231  0.5086
  443SOL    HW1 1328   2.571   2.073   2.493  2.1452 -2.2528 -0.9167
  443SOL    HW2 1329   2.659   2.040   2.634 -1.2953 -0.5790 -2.1537
  444SOL     OW 1330   1.720   0.887   3.055  0.4453  0.5533 -0.4248
  444SOL    HW1 1331   1.741   0.790   3.027  0.2202  1.5101 -0.1143
  444SOL    HW2 1332   1.677   0.942   2.981  0.2422 -0.0100  0.7362
  445SOL     OW 1333   2.665   2.842   1.765  0.0183  0.3161 -0.2015
  445SOL    HW1 1334   2.704   2.834   1.669  1.1363  1.0911  0.5598
  445SOL    HW2 1335   2.580   2.901   1.765 -0.1821 -0.0394  0.3834
  446SOL     OW 1336   0.185   1.119   1.061 -0.3253 -0.2110 -0.2485
  446SOL    HW1 1337   0.236   1.207   1.088  1.1618  1.7722  0.3012
  446SOL    HW2 1338   0.102   1.147   1.014  0.9021 -2.5947  0.2048
  447SOL     OW 1339   1.039   1.966   1.037 -0.3167  0.1252  0.0167
  447SOL    HW1 1340   0.988   1.974   1.127  2.2492  0.5570 -1.6790
  447SOL    HW2 1341   0.966   1.964   0.965 -0.5021  1.2889  1.9784
  448SOL     OW 1342   1.201   1.039   1.646  0.2276 -0.4142 -0.5595
  448SOL    HW1 1343   1.128   1.082   1.592 -1.5176 -0.6522  3.3858
  448SOL    HW2 1344   1.183   0.940   1.630 -1.3875  3.8841  0.7297
  449SOL     OW 1345   2.817   2.093   2.293  0.2081 -0.1004  0.7608
  449SOL    HW1 1346   2.747   2.158   2.250 -2.7351 -0.9603 -0.6207
  449SOL    HW2 1347   2.876   2.053   2.222 -1.0208  2.0191  1.4847
  450SOL     OW 1348   0.058   1.620   1.714 -0.1220 -0.2531  0.4982
  450SOL    HW1 1349   3.040   1.656   1.721  0.1205 -2.0609  0.6938
  450SOL    HW2 1350   0.077   1.548   1.786  2.0880 -1.8733  2.2786
  451SOL     OW 1351   2.142   0.511   1.161 -0.4331  0.2749 -0.1373
  451SOL    HW1 1352   2.125   0.598   1.207  0.8971  0.1060 -0.7124
  451SOL    HW2 1353   2.070   0.490   1.094 -0.4046  0.5345  0.4207
  452SOL     OW 1354   0.763   1.283   0.627 -0.7300 -0.2633  0.7201
  452SOL    HW1 1355   0.722   1.240   0.710  0.5225 -1.2906 -1.5437
  452SOL    HW2 1356   0.867   1.270   0.623  2.2953  0.8217 -0.8549
  453SOL     OW 1357   1.499   1.996   0.431 -0.5012 -0.0490  0.4553
  453SOL    HW1 1358   1.408   2.033   0.467  0.4860 -3.2977  0.9774
  453SOL    HW2 1359   1.582   1.992   0.497  0.2546 -0.3060  1.8892
  454SOL     OW 1360   0.498   1.759   0.064  0.2078 -0.3813  0.3129
  454SOL    HW1 1361   0.565   1.730   3.071  0.6063 -1.1064  1.3586
  454SOL    HW2 1362   0.454   1.683   0.116  2.3042  1.8640 -2.0424
  455SOL     OW 1363   1.216   0.956   0.477 -0.1361  0.3298 -0.4079
  455SOL    HW1 1364   1.124   0.945   0.435  0.3259 -2.4961 -0.9081
  455SOL    HW2 1365   1.214   0.969   0.578 -1.1547 -1.5247  0.1450
  456SOL     OW 1366   2.180   2.232   1.112 -0.3370  0.6066 -0.0237
  456SOL    HW1 1367   2.098   2.201   1.165 -0.5057 -3.2308 -1.5687
  456SOL    HW2 1368   2.212   2.321   1.150 -0.4142 -0.2224  1.3087
  457SOL     OW 1369   1.902   2.998   3.040 -0.1928  0.4512 -0.0918
  457SOL    HW1 1370   1.928   2.953   0.047  1.6680  0.5854 -3.0606
  457SOL    HW2 1371   1.928   2.944   2.955 -1.7360 -0.1284 -0.6838
  458SOL     OW 1372   2.500   0.983   0.420  0.3266 -0.0865  0.4523
  458SOL    HW1 1373   2.468   0.886   0.425  0.5488 -0.4477  3.1092
  458SOL    HW2 1374   2.433   1.052   0.458  1.0701  0.4634 -0.5826
  459SOL     OW 1375   2.937   0.332   2.491 -0.0596  0.2682 -0.2417
  459SOL    HW1 1376   2.952   0.435   2.485 -1.0781  5.4793 -0.5051
  459SOL    HW2 1377   2.838   0.312   2.479 -0.5475  3.8163  1.2065
  460SOL     OW 1378   2.872   0.773   2.790 -0.2535 -0.4413  0.4924
  460SOL    HW1 1379   2.781   0.819   2.799 -0.4504  0.0406 -0.2790
  460SOL    HW2 1380   2.942   0.844   2.797 -2.9601 -0.9681 -0.0019
  461SOL     OW 1381   2.873   2.515   0.932 -0.4000 -0.0463  0.2049
  461SOL    HW1 1382   2.869   2.586   1.009  0.3152  1.6175 -0.9287
  461SOL    HW2 1383   2.819   2.429   0.948 -0.4574 -1.6991  1.0918
  462SOL     OW 1384   0.008   2.944   1.664 -0.3835  0.2924  0.1836
  462SOL    HW1 1385   3.042   3.032   1.651 -0.6544 -1.3658  0.2086
  462SOL    HW2 1386   0.108   2.951   1.644  1.1351 -1.9737  1.6071
  463SOL     OW 1387   2.102   1.715   2.568 -0.7279 -0.4511  0.5571
  463SOL    HW1 1388   2.180   1.651   2.564  1.4414  1.6874 -0.8015
  463SOL    HW2 1389   2.013   1.666   2.553  2.6140  2.3479 -1.8478
  464SOL     OW 1390   0.562   2.769   1.446  0.0600 -0.0412 -0.2638
  464SOL    HW1 1391   0.622   2.767   1.526  0.8495 -0.2112 -0.8391
  464SOL    HW2 1392   0.543   2.864   1.419 -1.2719 -0.7934 -1.9857
  465SOL     OW 1393   0.719   0.292   1.495 -0.2619  0.2652  0.4378
  465SOL    HW1 1394   0.663   0.241   1.428  1.5955  1.7757 -3.5042
  465SOL    HW2 1395   0.694   0.269   1.591 -0.3530 -1.3883 -2.2807
  466SOL     OW 1396   1.568   2.761   2.003 -0.0128 -0.2353 -0.1900
  466SOL    HW1 1397   1.498   2.711   2.059 -2.9889 -2.5297  0.4806
  466SOL    HW2 1398   1.616   2.825   2.069 -2.0263 -3.0739  1.4774
  467SOL     OW 1399   0.660   1.982   1.033 -0.2949 -0.0354 -0.4425
  467SOL    HW1 1400   0.615   1.896   1.059  0.1660  2.2225 -2.1211
  467SOL    HW2 1401   0.587   2.052   1.032  0.9267  0.8821  1.2280
  468SOL     OW 1402   2.419   1.502   2.519 -0.4739 -0.3580  0.3841
  468SOL    HW1 1403   2.355   1.531   2.448  0.0466 -1.6150  2.5482
  468SOL    HW2 1404   2.380   1.426   2.576  1.3917  0.0388  0.1959
  469SOL     OW 1405   1.048   1.825   0.416 -0.3202 -0.2621  0.0312
  469SOL    HW1 1406   1.098   1.746   0.378  1.9788  3.0314 -0.7448
  469SOL    HW2 1407   0.997   1.796   0.500  0.8617 -0.3056 -0.6656
  470SOL     OW 1408   2.188   1.153   1.475 -0.3785  0.2351  0.0380
  470SOL    HW1 1409   2.276   1.186   1.523  1.3759 -0.3155  1.9528
  470SOL    HW2 1410   2.108   1.212   1.493 -0.0149 -2.4873  0.5845
  471SOL     OW 1411   0.378   2.516   2.933 -0.0443 -0.2007 -0.4832
  471SOL    HW1 1412   0.376   2.441   2.863 -2.3429  1.8331 -0.2353
  471SOL    HW2 1413   0.475   2.526   2.967 -1.2926  1.5531  0.8733
  472SOL     OW 1414   2.863   1.765   1.986  0.3560 -0.0634 -0.1396
  472SOL    HW1 1415   2.901   1.757   1.893 -0.0575  1.5570  2.9124
  472SOL    HW2 1416   2.791   1.695   2.002  1.8980  0.9663 -2.8695
  473SOL     OW 1417   1.014   2.874   0.327 -0.3876 -0.2935 -0.1316
  473SOL    HW1 1418   1.059   2.792   0.369  2.3234  1.8398  0.4867
  473SOL    HW2 1419   0.958   2.843   0.244 -0.3690 -0.2872  0.2298
  474SOL     OW 1420   2.634   2.620   0.789  0.7367  0.1272  0.0916
  474SOL    HW1 1421   2.603   2.688   0.718 -0.5093 -2.3678  0.2412
  474SOL    HW2 1422   2.733   2.619   0.804 -2.4722 -1.8223 -0.7735
  475SOL     OW 1423   1.900   2.627   1.690 -0.4971 -0.3747 -0.0461
  475SOL    HW1 1424   1.924   2.545   1.626  2.4176 -0.2261 -1.1629
  475SOL    HW2 1425   1.979   2.663   1.744 -1.0178  1.1773 -0.7987
  476SOL     OW 1426   0.718   0.792   0.845 -0.2658  0.5235 -0.0919
  476SOL    HW1 1427   0.634   0.751   0.801 -2.8020 -2.9402  0.2360
  476SOL    HW2 1428   0.685   0.859   0.920 -1.7890  3.4983  2.0878
  477SOL     OW 1429   0.781   2.194   0.614 -0.1429  0.1786 -0.1456
  477SOL    HW1 1430   0.693   2.247   0.622  2.5461 -1.3105  0.6207
  477SOL    HW2 1431   0.757   2.103   0.563 -1.9908 -2.0876 -0.7597
  478SOL     OW 1432   0.084   2.315   2.211  0.4882  0.1498 -0.2314
  478SOL    HW1 1433   0.016   2.356   2.276  3.1096  0.2664 -0.7938
  478SOL    HW2 1434   0.030   2.286   2.128 -1.3302 -2.7927 -0.6683
  479SOL     OW 1435   0.124   0.608   1.611 -0.4016  0.0625  0.1496
  479SOL    HW1 1436   0.156   0.555   1.690  0.6665 -0.8710 -2.7785
  479SOL    HW2 1437   0.094   0.547   1.533  1.3118 -2.8746 -0.5420
  480SOL     OW 1438   2.990   2.432   3.007  0.3375  0.1971  0.0680
  480SOL    HW1 1439   2.996   2.332   2.972 -1.2961 -1.1265  0.8019
  480SOL    HW2 1440   2.958   2.433   0.021  0.3027 -2.5489 -3.3700
  481SOL     OW 1441   1.969   1.982   2.261 -0.2483 -0.7736 -0.5133
  481SOL    HW1 1442   1.962   1.882   2.258 -0.5167  1.1993 -1.7246
  481SOL    HW2 1443   2.003   2.017   2.172  2.9511 -1.4566  2.2107
  482SOL     OW 1444   1.620   2.193   3.064  0.4829 -0.1758 -0.1554
  482SOL    HW1 1445   1.532   2.234   3.023 -3.8537  0.0050 -0.7225
  482SOL    HW2 1446   1.706   2.230   3.027 -1.0016  0.4777 -0.3740
  483SOL     OW 1447   0.420   2.048   2.175 -0.4983 -0.1170  0.7018
  483SOL    HW1 1448   0.479   2.045   2.092 -1.7345  1.2563  3.1723
  483SOL    HW2 1449   0.376   1.957   2.187 -1.5708  2.7647 -0.2314
  484SOL     OW 1450   3.034   0.531   1.168  0.1451 -0.1480 -0.1128
  484SOL    HW1 1451   2.954   0.490   1.120 -1.1255 -2.4884  0.1848
  484SOL    HW2 1452   3.023   0.630   1.177  1.4655 -1.4308 -2.0843
  485SOL     OW 1453   2.245   0.936   0.718 -0.0686 -0.2497 -0.0615
  485SOL    HW1 1454   2.250   0.849   0.666 -0.5697  0.6527  0.7230
  485SOL    HW2 1455   2.160   0.987   0.691  0.0855 -0.8946  0.2080
  486SOL     OW 1456   1.432   0.182   2.281  0.1188 -0.0874 -0.2175
  486SOL    HW1 1457   1.471   0.256   2.221  1.4954  3.4621 -0.1713
  486SOL    HW2 1458   1.499   0.140   2.345 -1.3407 -1.1327  0.2136
  487SOL     OW 1459   1.245   1.397   1.062  0.0787 -0.0723 -0.3264
  487SOL    HW1 1460   1.154   1.392   1.015  1.4906 -1.6459 -3.0685
  487SOL    HW2 1461   1.307   1.385   0.985 -1.3804 -1.5061  0.1952
  488SOL     OW 1462   2.234   1.424   0.025 -0.6859 -0.4125  0.2166
  488SOL    HW1 1463   2.207   1.396   3.013 -1.0630  2.3052 -1.1890
  488SOL    HW2 1464   2.327   1.464   0.022 -1.0960  1.3766  0.7645
  489SOL     OW 1465   2.366   0.307   0.132  0.5565 -0.0701 -0.0327
  489SOL    HW1 1466   2.418   0.385   0.168 -0.7445 -2.1546  0.8094
  489SOL    HW2 1467   2.424   0.232   0.099 -0.5645  1.2050 -0.6376
  490SOL     OW 1468   1.632   2.594   0.540  0.1341 -0.9890 -0.3673
  490SOL    HW1 1469   1.713   2.652   0.523 -0.0222 -2.1129  1.0253
  490SOL    HW2 1470   1.603   2.547   0.454 -1.3643  1.3532  0.9045
  491SOL     OW 1471   0.957   0.849   0.691  0.6842 -0.0932 -0.3738
  491SOL    HW1 1472   0.870   0.834   0.737  2.0884 -0.3102 -2.0418
  491SOL    HW2 1473   0.950   0.881   0.595  2.7172 -1.1066 -1.4458
  492SOL     OW 1474   1.634   3.055   0.042 -0.0578  0.1875  0.1785
  492SOL    HW1 1475   1.722   3.043   3.070  0.5564  0.0775  1.5928
  492SOL    HW2 1476   1.551   3.065   3.064  1.2826  1.0175 -0.0487
  493SOL     OW 1477   1.938   2.198   0.154 -0.5570  0.2951  0.0136
  493SOL    HW1 1478   2.007   2.243   0.214 -0.5619 -2.9113 -0.8203
  493SOL    HW2 1479   1.854   2.183   0.211 -1.9486  0.0763 -0.7532
  494SOL     OW 1480   0.367   1.102   0.388 -0.0267 -0.5265  0.3860
  494SOL    HW1 1481   0.467   1.128   0.374 -1.1924 -2.1507 -1.3349
  494SOL    HW2 1482   0.322   1.096   0.291 -2.0543  0.4173 -1.8530
  495SOL     OW 1483   2.918   2.890   0.908 -0.4630 -0.8369  0.0871
  495SOL    HW1 1484   2.915   2.825   0.989 -0.0600 -0.8524  1.2343
  495SOL    HW2 1485   3.001   2.950   0.902  0.2800 -1.4476 -1.1147
  496SOL     OW 1486   2.325   0.330   1.649  0.5411 -0.0261 -0.3152
  496SOL    HW1 1487   2.420   0.311   1.632 -0.0487  0.5368  0.4965
  496SOL    HW2 1488   2.313   0.429   1.682  0.8098  0.0288  0.4626
  497SOL     OW 1489   1.858   1.615   2.567 -0.1746 -0.3559  0.4705
  497SOL    HW1 1490   1.887   1.527   2.602  1.0581 -3.0903  0.7541
  497SOL    HW2 1491   1.754   1.623   2.571 -0.5294  2.5552 -1.4605
  498SOL     OW 1492   0.960   1.785   0.683 -0.3447 -0.1499  0.0568
  498SOL    HW1 1493   0.926   1.874   0.715 -0.2987  0.2855 -1.7083
  498SOL    HW2 1494   0.887   1.745   0.620 -1.4077 -1.7082 -2.2255
  499SOL     OW 1495   0.746   2.130   1.271  0.0590 -0.5450 -0.3048
  499SOL    HW1 1496   0.756   2.075   1.185  0.6418 -0.8067  1.3165
  499SOL    HW2 1497   0.645   2.154   1.280 -3.0435 -1.2078  1.0873
  500SOL     OW 1498   1.075   2.017   3.051 -0.5415  0.4017  0.0739
  500SOL    HW1 1499   1.019   1.995   0.059  0.6199 -2.9993  1.3605
  500SOL    HW2 1500   1.164   2.044   0.007 -2.4439  0.5966 -1.0159
  501SOL     OW 1501   2.396   2.982   1.385 -0.4897 -0.0376  0.4442
  501SOL    HW1 1502   2.343   2.897   1.362 -0.3415 -0.0495 -0.5744
  501SOL    HW2 1503   2.342   3.051   1.435  1.5335  0.2594  3.2415
  502SOL     OW 1504   0.320   0.865   1.615  0.0854  0.1580  0.0052
  502SOL    HW1 1505   0.275   0.775   1.637 -1.3624 -0.9586 -1.1934
  502SOL    HW2 1506   0.417   0.851   1.584 -0.6773  2.2743  0.8229
  503SOL     OW 1507   1.953   0.724   1.597 -0.0420 -0.1988 -0.2452
  503SOL    HW1 1508   1.948   0.622   1.611 -0.9591 -1.7921  0.1672
  503SOL    HW2 1509   1.994   0.752   1.508 -0.5712  0.5919  0.9518
  504SOL     OW 1510   1.420   0.626   2.115 -0.1544 -0.4758 -0.6140
  504SOL    HW1 1511   1.466   0.662   2.201  0.0069 -0.8729 -1.2593
  504SOL    HW2 1512   1.418   0.698   2.041  2.5426 -0.3889 -3.6195
  505SOL     OW 1513   0.617   0.017   2.385  0.0920 -0.3038 -0.4034
  505SOL    HW1 1514   0.716   0.050   2.396  1.8075 -0.7590  0.2094
  505SOL    HW2 1515   0.573   3.059   2.474 -0.2927 -1.1941  0.3902
  506SOL     OW 1516   0.356   0.426   1.433  0.2195  0.2069  0.0255
  506SOL    HW1 1517   0.370   0.384   1.523  0.1910  0.1716 -0.4710
  506SOL    HW2 1518   0.257   0.447   1.407  0.8613  1.0059 -0.3627
  507SOL     OW 1519   1.386   3.035   2.971  0.3892 -0.6055 -0.2756
  507SOL    HW1 1520   1.310   3.024   3.037  1.2034 -0.4692 -0.6818
  507SOL    HW2 1521   1.440   2.951   2.961 -2.6905  0.0594 -0.5275
  508SOL     OW 1522   2.130   0.504   2.524 -0.4665  0.2181  0.1593
  508SOL    HW1 1523   2.232   0.516   2.539  1.4334 -2.6823 -0.7950
  508SOL    HW2 1524   2.102   0.412   2.484  0.3009 -0.4529 -0.1279
  509SOL     OW 1525   0.903   1.517   1.862 -0.0837  0.0720 -0.2832
  509SOL    HW1 1526   0.979   1.453   1.831  0.6340 -0.8222 -0.4991
  509SOL    HW2 1527   0.936   1.610   1.885  1.4092 -1.1045  0.1048
  510SOL     OW 1528   3.072   1.236   0.854 -0.3217 -0.0310 -0.3078
  510SOL    HW1 1529   2.976   1.201   0.853 -1.6202  0.7928 -2.2384
  510SOL    HW2 1530   0.003   1.323   0.903 -2.6021  1.9851 -1.8213
  511SOL     OW 1531   1.699   1.790   1.002 -0.3710 -0.1865 -0.0710
  511SOL    HW1 1532   1.738   1.786   0.910 -0.9342 -2.5889  1.6860
  511SOL    HW2 1533   1.767   1.770   1.077 -0.3744 -0.4877  3.1154
  512SOL     OW 1534   0.596   1.237   0.402  0.0717 -0.2601  0.0865
  512SOL    HW1 1535   0.593   1.327   0.357  1.1206 -3.0588 -2.0518
  512SOL    HW2 1536   0.644   1.243   0.494 -0.2318  1.6259  3.5107
  513SOL     OW 1537   0.574   2.370   0.682 -0.0315 -0.1703 -0.6152
  513SOL    HW1 1538   0.549   2.431   0.605  0.7949 -1.4331 -1.0152
  513SOL    HW2 1539   0.592   2.436   0.759 -0.4852  0.2926  0.2606
  514SOL     OW 1540   2.525   1.976   2.360  0.1165  0.1038  0.5393
  514SOL    HW1 1541   2.425   1.985   2.335 -1.9362 -0.9692 -0.4748
  514SOL    HW2 1542   2.572   2.009   2.280  1.1690  0.0873 -2.0391
  515SOL     OW 1543   2.620   0.797   3.050 -0.0505  0.2401  0.5970
  515SOL    HW1 1544   2.624   0.698   3.039 -1.4504 -1.5375 -0.0857
  515SOL    HW2 1545   2.678   0.833   0.049  0.6171 -0.9200 -0.4180
  516SOL     OW 1546   1.726   0.050   0.771  0.1453 -0.7833  0.6125
  516SOL    HW1 1547   1.774   3.062   0.826 -0.9834  0.9785 -2.7068
  516SOL    HW2 1548   1.650   0.007   0.714 -0.2713 -0.7567  3.0251
  517SOL     OW 1549   1.277   2.229   2.795  0.2223  0.2660 -0.2090
  517SOL    HW1 1550   1.210   2.152   2.793  2.8382  1.0481 -2.2224
  517SOL    HW2 1551   1.367   2.194   2.760 -1.3925  0.0805 -0.4279
  518SOL     OW 1552   0.917   0.847   1.719  0.2598  0.2374  0.8440
  518SOL    HW1 1553   0.898   0.752   1.698 -2.2201 -0.1933  2.0988
  518SOL    HW2 1554   0.988   0.860   1.790  2.1731  2.5970 -0.0353
  519SOL     OW 1555   0.004   1.410   0.031 -0.0162  0.0982  0.2671
  519SOL    HW1 1556   0.060   1.476   0.084 -1.8865  0.7310 -2.7845
  519SOL    HW2 1557   3.020   1.459   3.046  1.9123 -1.6686  2.7777
  520SOL     OW 1558   2.061   2.083   2.016 -0.6300  0.3657 -0.1688
  520SOL    HW1 1559   2.149   2.125   2.048  0.5533  0.6718  1.5802
  520SOL    HW2 1560   2.067   2.018   1.939  0.4337 -0.9214  1.7695
  521SOL     OW 1561   0.912   2.707   2.410  0.1140 -0.3631  0.1620
  521SOL    HW1 1562   0.860   2.663   2.330  0.2546  0.1749 -1.2510
  521SOL    HW2 1563   0.974   2.637   2.450  0.6326 -0.1902 -1.4359
  522SOL     OW 1564   2.272   0.136   2.040  0.2845 -0.2162 -0.1730
  522SOL    HW1 1565   2.235   0.101   1.954  0.5585 -3.2097  1.3842
  522SOL    HW2 1566   2.355   0.197   2.033  0.5719  2.3824  1.0084
  523SOL     OW 1567   1.650   2.187   1.285  0.0448 -0.2875 -0.0896
  523SOL    HW1 1568   1.580   2.254   1.329 -0.1140  2.4770 -2.1434
  523SOL    HW2 1569   1.723   2.166   1.350 -1.1086 -0.5531  0.5008
  524SOL     OW 1570   1.336   2.112   0.130  0.0764  0.5781  0.1581
  524SOL    HW1 1571   1.260   2.153   0.195 -2.3587 -0.2108 -0.5165
  524SOL    HW2 1572   1.391   2.187   0.091 -2.7760 -1.5319  0.4635
  525SOL     OW 1573   0.116   0.667   0.024 -0.1831  0.3620  0.5852
  525SOL    HW1 1574   0.145   0.607   3.028 -1.3283  0.1077  1.5171
  525SOL    HW2 1575   0.122   0.621   0.117 -1.9787  1.2364 -1.4723
  526SOL     OW 1576   1.094   2.617   0.383  0.6708 -0.0882 -0.0638
  526SOL    HW1 1577   0.998   2.595   0.364  1.7659  1.5368 -0.9236
  526SOL    HW2 1578   1.121   2.569   0.467 -2.2690  0.3645  0.8627
  527SOL     OW 1579   2.754   1.758   0.747  0.3325 -0.1282  0.3572
  527SOL    HW1 1580   2.724   1.805   0.831  0.0131  1.6481  0.2877
  527SOL    HW2 1581   2.687   1.775   0.668 -1.0748 -1.6225 -3.5673
  528SOL     OW 1582   0.514   0.965   2.222  0.6806  0.4082 -0.0493
  528SOL    HW1 1583   0.422   0.925   2.192 -0.6235 -0.8220 -0.7844
  528SOL    HW2 1584   0.580   0.952   2.142 -1.8784 -1.2527 -4.9197
  529SOL     OW 1585   1.587   1.692   2.566 -0.2404  0.4777 -0.1399
  529SOL    HW1 1586   1.499   1.646   2.597  0.0445 -0.4272  0.2955
  529SOL    HW2 1587   1.573   1.768   2.500  1.2312 -0.8183 -1.3206
  530SOL     OW 1588   1.861   1.031   2.428 -0.2625 -0.7536  0.4796
  530SOL    HW1 1589   1.809   0.967   2.371  0.9445 -2.5371  3.5160
  530SOL    HW2 1590   1.841   1.128   2.400  0.5493  1.6824  1.5437
  531SOL     OW 1591   0.475   2.436   2.534 -0.1502  0.2166  0.2057
  531SOL    HW1 1592   0.429   2.449   2.443  1.5893  0.8946  1.9854
  531SOL    HW2 1593   0.412   2.390   2.598 -0.1733  0.0890 -1.4867
  532SOL     OW 1594   2.372   1.200   0.515 -0.0412  0.3541  0.6300
  532SOL    HW1 1595   2.295   1.155   0.466  2.5970 -0.1281 -1.1098
  532SOL    HW2 1596   2.339   1.277   0.578  2.4392  0.5818 -0.8106
  533SOL     OW 1597   2.957   0.110   1.670 -0.3052  0.1128  0.1073
  533SOL    HW1 1598   2.984   0.185   1.732  2.4764 -0.9387  1.1774
  533SOL    HW2 1599   2.948   0.145   1.573  1.7381 -0.5903 -0.6096
  534SOL     OW 1600   0.769   2.980   2.998  0.0216 -0.1815  0.0518
  534SOL    HW1 1601   0.771   0.005   2.989  3.3087  3.7014 -0.6941
  534SOL    HW2 1602   0.681   2.941   2.961 -0.8642 -0.4214  0.6266
  535SOL     OW 1603   0.337   0.216   0.098 -0.0915 -0.2770  0.4924
  535SOL    HW1 1604   0.303   0.189   0.010 -0.8713  1.1482  0.4605
  535SOL    HW2 1605   0.268   0.197   0.171  0.1607  0.4765 -1.6355
  536SOL     OW 1606   0.550   1.739   1.065 -0.0544  0.0767 -0.4045
  536SOL    HW1 1607   0.475   1.717   1.127  3.4438 -0.7061 -0.6437
  536SOL    HW2 1608   0.603   1.653   1.054 -1.5308  1.5374 -1.0709
  537SOL     OW 1609   0.885   2.599   1.911 -0.8598  0.0734  0.0248
  537SOL    HW1 1610   0.858   2.663   1.983  1.0544  1.3605  0.7084
  537SOL    HW2 1611   0.976   2.557   1.932  0.3540  0.0176  1.7403
  538SOL     OW 1612   0.065   1.977   2.902  0.2059 -0.3028 -0.2185
  538SOL    HW1 1613   0.090   1.968   2.999  2.6017  1.4326 -0.6392
  538SOL    HW2 1614   0.153   1.993   2.853  1.7861  1.3428  1.8747
  539SOL     OW 1615   2.717   1.145   2.654  0.1459 -0.5168  0.2086
  539SOL    HW1 1616   2.685   1.070   2.710 -2.2801  1.0888  0.5498
  539SOL    HW2 1617   2.797   1.123   2.594  2.3908 -1.7563 -0.5788
  540SOL     OW 1618   1.738   0.471   2.394 -0.3469  0.4195 -0.2024
  540SOL    HW1 1619   1.652   0.514   2.399  3.9747 -2.4924  1.9025
  540SOL    HW2 1620   1.812   0.540   2.409  1.0935  0.3549 -1.9380
  541SOL     OW 1621   0.527   0.418   2.189 -0.0558 -0.0207  0.4623
  541SOL    HW1 1622   0.494   0.360   2.260 -0.9639  0.0453 -3.0317
  541SOL    HW2 1623   0.473   0.503   2.169 -0.6006  0.9873  0.2003
  542SOL     OW 1624   2.038   2.849   0.193  0.0684  0.0077  0.0981
  542SOL    HW1 1625   1.960   2.808   0.236 -0.3434  0.6579 -0.1187
  542SOL    HW2 1626   2.106   2.890   0.258  2.3587  2.0066  0.2611
  543SOL     OW 1627   1.222   3.050   0.272 -0.1102  0.4595 -0.1406
  543SOL    HW1 1628   1.225   0.071   0.278  3.8857 -0.4402  1.0459
  543SOL    HW2 1629   1.133   3.014   0.304  0.3865 -1.0597 -0.5254
  544SOL     OW 1630   2.637   1.371   1.689 -0.1181  0.6377 -0.0581
  544SOL    HW1 1631   2.562   1.302   1.671  1.3053  0.2042 -0.5777
  544SOL    HW2 1632   2.730   1.331   1.663  2.9933 -1.0585  1.1806
  545SOL     OW 1633   2.126   1.893   1.276  0.0735  0.1728 -0.3656
  545SOL    HW1 1634   2.180   1.855   1.199 -0.5007  2.2930 -0.4579
  545SOL    HW2 1635   2.188   1.887   1.355 -0.3734  1.0075 -0.5816
  546SOL     OW 1636   0.345   0.132   2.044 -0.2243  0.2704  0.1418
  546SOL    HW1 1637   0.307   0.225   2.066  1.2386  2.1784  2.8903
  546SOL    HW2 1638   0.270   0.066   2.046 -0.4027  5.6442 -0.5714
  547SOL     OW 1639   1.484   0.730   0.740  0.3649 -0.7592  0.0720
  547SOL    HW1 1640   1.437   0.742   0.828  0.0252  1.4437  0.1734
  547SOL    HW2 1641   1.509   0.633   0.728  1.4016  1.6372  0.0155
  548SOL     OW 1642   1.522   2.339   2.599  0.0883  0.3199 -0.2124
  548SOL    HW1 1643   1.431   2.374   2.572  1.5508  0.6275  0.5797
  548SOL    HW2 1644   1.533   2.241   2.618  0.4481  2.0323  0.0636
  549SOL     OW 1645   2.045   0.579   0.242  0.4357  0.1138 -1.2585
  549SOL    HW1 1646   2.131   0.632   0.217  0.6214  0.5020  0.8891
  549SOL    HW2 1647   1.975   0.583   0.168  1.7116 -0.4987 -2.1108
  550SOL     OW 1648   3.002   2.151   0.635 -0.3182 -0.1183  0.1315
  550SOL    HW1 1649   2.945   2.184   0.711  0.6455 -0.6700  0.1792
  550SOL    HW2 1650   3.014   2.048   0.635  0.2404  1.6945 -0.8360
  551SOL     OW 1651   1.283   2.664   2.190 -0.1319 -0.4104 -0.0982
  551SOL    HW1 1652   1.335   2.746   2.222  2.2758 -2.0555  0.8571
  551SOL    HW2 1653   1.295   2.583   2.253  1.1800 -2.0430  0.6704
  552SOL     OW 1654   3.033   2.403   2.537 -0.3295  0.2961  0.0992
  552SOL    HW1 1655   2.997   2.331   2.596  0.8406  1.6660 -0.3023
  552SOL    HW2 1656   2.978   2.415   2.457  1.1802 -1.4382  1.7092
  553SOL     OW 1657   0.141   0.270   0.776 -0.5774 -0.0315 -0.4966
  553SOL    HW1 1658   0.152   0.290   0.874  1.6205  0.0621 -0.3081
  553SOL    HW2 1659   0.061   0.207   0.766  0.0190 -0.3023 -0.9130
  554SOL     OW 1660   2.226   2.302   1.541 -0.4500 -0.2487  0.1813
  554SOL    HW1 1661   2.141   2.355   1.527  1.2203 -2.9006  0.1639
  554SOL    HW2 1662   2.245   2.293   1.644  0.3959  2.7406 -0.2846
  555SOL     OW 1663   1.578   2.231   2.285 -0.1925 -0.5068  0.0734
  555SOL    HW1 1664   1.621   2.183   2.365  2.6986 -2.2320  1.6933
  555SOL    HW2 1665   1.638   2.309   2.256 -1.2117  1.1360  0.9829
  556SOL     OW 1666   1.272   1.182   1.247 -0.2127  0.0418  0.4427
  556SOL    HW1 1667   1.300   1.269   1.200 -1.5237  1.8253  0.9287
  556SOL    HW2 1668   1.184   1.209   1.296  0.0571  0.6256 -1.8693
  557SOL     OW 1669   2.013   2.488   2.252  0.3813 -0.4586  0.5068
  557SOL    HW1 1670   2.086   2.423   2.284 -0.6719  0.4035 -1.3517
  557SOL    HW2 1671   2.024   2.584   2.284  0.2214  1.6030 -1.1353
  558SOL     OW 1672   0.303   2.993   1.751 -0.0935 -0.1626 -0.1555
  558SOL    HW1 1673   0.305   2.894   1.730 -3.1776  2.0235  2.2761
  558SOL    HW2 1674   0.291   3.013   1.848  1.4849  1.8163 -1.0271
  559SOL     OW 1675   2.126   2.991   0.770  0.0668 -0.0721 -0.4398
  559SOL    HW1 1676   2.167   2.938   0.691  0.8934 -1.8116 -0.8895
  559SOL    HW2 1677   2.030   2.972   0.793  2.6397 -0.7508  2.8326
  560SOL     OW 1678   1.674   2.709   0.798 -0.2768  0.0644 -0.5915
  560SOL    HW1 1679   1.617   2.649   0.856  0.9559  2.3955  0.7159
  560SOL    HW2 1680   1.624   2.745   0.718  0.2651  2.2093  1.1113
  561SOL     OW 1681   1.015   0.199   0.923  0.0715 -0.1954 -0.1756
  561SOL    HW1 1682   1.015   0.203   0.820  1.0647  1.6405  2.0917
  561SOL    HW2 1683   1.110   0.234   0.950  0.8500  2.4539 -0.1920
  562SOL     OW 1684   0.532   0.913   2.485  0.7942 -0.4627 -0.4552
  562SOL    HW1 1685   0.523   0.948   2.389  1.8816 -1.7618  3.6472
  562SOL    HW2 1686   0.471   0.969   2.540 -1.5986 -1.6441  1.8296
  563SOL     OW 1687   1.508   1.911   2.395  0.8745 -0.3664  0.0048
  563SOL    HW1 1688   1.595   1.971   2.393  1.0083  1.9715 -0.1274
  563SOL    HW2 1689   1.424   1.953   2.433  1.9048  1.9648  0.8603
  564SOL     OW 1690   2.837   1.039   1.193  0.2696 -0.5452  0.7695
  564SOL    HW1 1691   2.773   1.027   1.269  0.0734  1.4208  0.4785
  564SOL    HW2 1692   2.781   1.028   1.108  0.6061 -1.5911  0.7423
  565SOL     OW 1693   0.918   0.739   0.090  0.2959  0.5998 -0.6788
  565SOL    HW1 1694   1.013   0.705   0.067  1.4730 -2.6983  1.4987
  565SOL    HW2 1695   0.871   0.769   0.005  0.1082  0.3849 -1.7574
  566SOL     OW 1696   2.301   0.259   2.718 -0.9632 -0.6928 -0.3238
  566SOL    HW1 1697   2.236   0.238   2.647 -0.1077 -0.2687 -1.2983
  566SOL    HW2 1698   2.257   0.302   2.796  0.5157  0.0371  1.5852
  567SOL     OW 1699   2.006   1.043   0.641 -0.2985 -0.2975 -0.5125
  567SOL    HW1 1700   2.010   1.147   0.643 -2.0651  4.7076 -0.9585
  567SOL    HW2 1701   1.918   1.019   0.685  1.5083  0.9755  1.7078
  568SOL     OW 1702   1.696   1.738   2.830 -0.5077 -0.0216 -0.1823
  568SOL    HW1 1703   1.649   1.694   2.902  0.4435  3.3438 -3.7709
  568SOL    HW2 1704   1.661   1.719   2.739  0.7067  1.9231  4.7522
  569SOL     OW 1705   1.974   1.377   3.008  0.7830 -0.2731  0.3447
  569SOL    HW1 1706   1.883   1.417   3.024 -0.8070  1.6873 -1.0318
  569SOL    HW2 1707   2.042   1.451   3.025  1.2995 -1.9133  0.8505
  570SOL     OW 1708   0.487   2.237   1.705  0.2034 -0.5082 -0.1307
  570SOL    HW1 1709   0.511   2.328   1.667  0.5112 -1.0224  0.2251
  570SOL    HW2 1710   0.561   2.207   1.766 -1.1435  1.2674 -0.7870
  571SOL     OW 1711   0.258   1.048   1.815  0.1372  0.3091  0.1507
  571SOL    HW1 1712   0.286   0.995   1.730 -0.2655  0.7372  0.6510
  571SOL    HW2 1713   0.178   1.008   1.864  1.6636  1.9870 -1.2802
  572SOL     OW 1714   1.111   1.589   0.307  0.1044  0.0038  0.1436
  572SOL    HW1 1715   1.175   1.524   0.351  0.5478  1.8009 -0.8874
  572SOL    HW2 1716   1.141   1.607   0.210 -1.0013 -0.5649  1.1447
  573SOL     OW 1717   1.806   2.312   0.449  0.3754  0.1352 -0.0049
  573SOL    HW1 1718   1.726   2.297   0.391 -0.3460  0.3541  2.5937
  573SOL    HW2 1719   1.774   2.277   0.543 -3.1894  0.5497  3.3985
  574SOL     OW 1720   0.897   0.100   1.177  0.1065 -0.0415 -0.3240
  574SOL    HW1 1721   0.805   0.144   1.166 -0.0024 -3.7892  2.7454
  574SOL    HW2 1722   0.957   0.141   1.107 -2.7506 -2.5826  2.0987
  575SOL     OW 1723   0.442   1.184   1.532  0.0909 -0.2710  0.0908
  575SOL    HW1 1724   0.528   1.197   1.591 -0.3815  0.4429  0.5442
  575SOL    HW2 1725   0.375   1.245   1.570  2.3850 -1.9266 -1.4367
  576SOL     OW 1726   2.517   2.877   0.904  0.3994  0.1184  0.2748
  576SOL    HW1 1727   2.567   2.857   0.817  0.7186  1.0536 -0.5277
  576SOL    HW2 1728   2.429   2.826   0.912  1.5279 -3.0597  1.2717
  577SOL     OW 1729   1.040   1.182   2.113 -0.0471  0.5508 -0.3676
  577SOL    HW1 1730   1.048   1.205   2.016  2.0081 -0.2595 -0.5509
  577SOL    HW2 1731   0.952   1.128   2.127 -2.3396  0.6560  0.2357
  578SOL     OW 1732   1.785   1.030   2.680 -0.5050 -0.0580  0.0040
  578SOL    HW1 1733   1.816   1.019   2.586 -1.0576  0.7796 -0.2912
  578SOL    HW2 1734   1.851   1.093   2.730 -0.2690 -0.3768  2.0756
  579SOL     OW 1735   1.629   2.289   1.621 -0.0668 -0.4830 -0.6708
  579SOL    HW1 1736   1.667   2.334   1.706 -0.1405  0.4032 -1.6149
  579SOL    HW2 1737   1.703   2.250   1.566  1.9654  0.7180 -1.0769
  580SOL     OW 1738   1.499   1.396   2.588 -0.0839  0.4784 -0.7034
  580SOL    HW1 1739   1.502   1.318   2.653 -0.8191  1.1179  0.5494
  580SOL    HW2 1740   1.425   1.458   2.620 -1.5338  2.9744 -0.4982
  581SOL     OW 1741   1.331   1.108   2.377  0.0831  0.5745  0.4193
  581SOL    HW1 1742   1.330   1.051   2.458  0.4216 -0.2879 -1.3187
  581SOL    HW2 1743   1.285   1.191   2.404  0.4936  0.6347  1.0339
  582SOL     OW 1744   0.987   1.163   1.531  0.1227  0.5252 -0.5298
  582SOL    HW1 1745   0.904   1.102   1.544 -2.8863  1.0531  0.3979
  582SOL    HW2 1746   1.009   1.172   1.436 -0.3932  1.0864  1.9273
  583SOL     OW 1747   1.106   1.226   1.835  0.2299  0.1684  0.0907
  583SOL    HW1 1748   1.127   1.132   1.807 -1.2064  1.0360  2.0841
  583SOL    HW2 1749   1.086   1.298   1.763  1.4697 -0.7151  0.2648
  584SOL     OW 1750   2.437   2.751   0.425  0.0331  0.3011  0.2726
  584SOL    HW1 1751   2.509   2.802   0.472 -0.7262 -0.7094 -0.5699
  584SOL    HW2 1752   2.486   2.688   0.359  0.1485  2.3380  0.4590
  585SOL     OW 1753   2.045   0.167   2.962  0.1279  0.5942  0.3103
  585SOL    HW1 1754   1.965   0.140   3.014  1.9628 -1.8855 -2.5350
  585SOL    HW2 1755   2.099   0.080   2.956 -1.8912 -1.0351  2.0251
  586SOL     OW 1756   3.076   2.183   1.187 -0.0887 -0.5918  0.0390
  586SOL    HW1 1757   3.052   2.273   1.233  1.1571 -1.9198  1.9430
  586SOL    HW2 1758   3.056   2.108   1.254  1.2224  2.8234 -0.1384
  587SOL     OW 1759   1.521   1.655   2.997 -0.0094  0.3366  0.3009
  587SOL    HW1 1760   1.483   1.720   3.067 -2.6779 -0.2718  1.0081
  587SOL    HW2 1761   1.449   1.579   2.973 -2.4197 -0.1295 -0.2404
  588SOL     OW 1762   0.403   0.480   1.052 -0.1297 -0.8019  0.0281
  588SOL    HW1 1763   0.484   0.436   1.005  2.9661 -1.7697  0.6534
  588SOL    HW2 1764   0.403   0.584   1.049  1.1614  2.3641 -1.0558
  589SOL     OW 1765   1.209   0.013   0.662  0.0132  0.0293 -0.3000
  589SOL    HW1 1766   1.159   0.103   0.654  1.3312 -0.4324  1.5332
  589SOL    HW2 1767   1.273   0.021   0.744 -1.5001 -0.9970  1.1189
  590SOL     OW 1768   1.298   1.012   2.627 -0.3046 -0.4339  0.3693
  590SOL    HW1 1769   1.342   0.921   2.657 -0.1267 -1.0696  2.3839
  590SOL    HW2 1770   1.234   1.038   2.697 -0.4129 -2.5740 -1.1403
  591SOL     OW 1771   2.616   2.306   2.272  0.2468  0.6078 -0.2072
  591SOL    HW1 1772   2.530   2.346   2.231  1.3173 -0.9504  1.0387
  591SOL    HW2 1773   2.661   2.364   2.348 -1.6059  0.4930  1.4360
  592SOL     OW 1774   2.347   1.557   1.548  0.1061 -0.1905  0.4316
  592SOL    HW1 1775   2.301   1.642   1.521 -1.1986 -1.1514  0.7204
  592SOL    HW2 1776   2.423   1.534   1.483 -0.7507  1.5013  1.3907
  593SOL     OW 1777   1.181   0.786   1.554  0.1700  0.3239  0.1998
  593SOL    HW1 1778   1.190   0.781   1.448 -2.0459  0.2837 -2.6902
  593SOL    HW2 1779   1.141   0.697   1.589  0.6853 -0.6271  0.1593
  594SOL     OW 1780   2.686   1.274   2.269 -0.2954  0.3788 -0.1248
  594SOL    HW1 1781   2.708   1.368   2.305 -0.3375 -1.4685 -1.8712
  594SOL    HW2 1782   2.768   1.217   2.257  1.5411  1.9262  1.0302
  595SOL     OW 1783   3.001   0.145   0.442  0.2663 -0.1226 -0.2571
  595SOL    HW1 1784   3.036   0.117   0.535  3.9698 -1.0128 -0.3368
  595SOL    HW2 1785   2.955   0.069   0.394  2.3141  0.7290 -0.0133
  596SOL     OW 1786   0.024   1.428   1.042  0.1222  0.0907 -0.9371
  596SOL    HW1 1787   3.062   1.368   1.122 -1.0994 -2.3697  1.6013
  596SOL    HW2 1788   3.052   1.517   1.050 -1.3881 -2.8908  2.4492
  597SOL     OW 1789   1.596   1.588   0.633 -0.2538 -0.3758 -0.0125
  597SOL    HW1 1790   1.664   1.655   0.671 -5.1494 -0.3273 -1.1961
  597SOL    HW2 1791   1.618   1.559   0.538  1.0591  1.7516  0.1072
  598SOL     OW 1792   0.268   2.718   1.682 -0.0389 -0.3723 -0.2032
  598SOL    HW1 1793   0.305   2.744   1.590  2.1830 -2.5104  1.1691
  598SOL    HW2 1794   0.192   2.651   1.680 -3.5472 -0.7161 -2.9218
  599SOL     OW 1795   2.920   1.598   2.651  0.2958 -0.4219 -0.3450
  599SOL    HW1 1796   2.881   1.520   2.710 -2.1980 -2.8243 -1.3038
  599SOL    HW2 1797   2.946   1.677   2.712 -1.3747 -1.1584 -1.6820
  600SOL     OW 1798   0.669   1.032   0.018  0.1825 -0.2124 -1.1316
  600SOL    HW1 1799   0.773   1.046   0.028  1.5848  1.3275 -0.1165
  600SOL    HW2 1800   0.634   0.965   0.088  0.2299  2.2052  1.3290
  601SOL     OW 1801   0.677   1.004   1.039 -0.1167  0.0508  0.1976
  601SOL    HW1 1802   0.599   0.994   1.103  0.7942  2.4434 -0.4555
  601SOL    HW2 1803   0.701   1.102   1.042  0.4548 -1.0472 -1.1086
  602SOL     OW 1804   1.157   2.243   0.280 -0.1005 -0.1278  0.4131
  602SOL    HW1 1805   1.218   2.257   0.362  0.6002  1.0383  1.4917
  602SOL    HW2 1806   1.059   2.264   0.303  1.6690  2.2188  0.9780
  603SOL     OW 1807   1.301   2.473   1.840  0.4339 -0.2914 -0.1233
  603SOL    HW1 1808   1.378   2.471   1.901 -2.6637  1.7050  0.8064
  603SOL    HW2 1809   1.228   2.489   1.913  0.3893  0.0826  2.3355
  604SOL     OW 1810   0.336   0.453   2.686 -0.2391  0.1018  0.2201
  604SOL    HW1 1811   0.343   0.377   2.751 -0.6101  0.3565 -1.2287
  604SOL    HW2 1812   0.311   0.418   2.596 -1.0788  1.0669 -0.9152
  605SOL     OW 1813   2.622   1.063   1.359 -0.3043 -0.6425  0.0789
  605SOL    HW1 1814   2.524   1.065   1.329 -0.3456 -0.2793 -0.3299
  605SOL    HW2 1815   2.632   1.021   1.453 -2.7998 -0.2780 -1.3245
  606SOL     OW 1816   0.861   1.739   2.812 -0.2765  0.1102  0.2811
  606SOL    HW1 1817   0.864   1.838   2.776  0.4859  0.3963  2.5361
  606SOL    HW2 1818   0.810   1.671   2.755 -1.1370 -1.5825  2.6468
  607SOL     OW 1819   0.624   3.004   0.196  0.1813  0.5438 -0.4877
  607SOL    HW1 1820   0.642   2.943   0.120 -0.0135  0.8136 -0.4888
  607SOL    HW2 1821   0.594   2.954   0.280  0.0336 -0.9104 -0.0953
  608SOL     OW 1822   2.296   1.842   2.070  0.0188 -0.3498  0.0420
  608SOL    HW1 1823   2.375   1.858   2.011 -1.2082  2.8198 -0.5035
  608SOL    HW2 1824   2.219   1.802   2.014  0.0675  0.6591  2.6412
  609SOL     OW 1825   2.725   0.267   0.793  0.4934  0.4225  0.0779
  609SOL    HW1 1826   2.727   0.163   0.804 -1.3306 -0.4711  1.7275
  609SOL    HW2 1827   2.629   0.296   0.818  0.2990  0.5819  0.6666
  610SOL     OW 1828   0.216   2.574   0.703  0.7908 -0.2771  0.3898
  610SOL    HW1 1829   0.223   2.553   0.802  0.1430 -0.3802  1.0013
  610SOL    HW2 1830   0.171   2.496   0.657 -1.0976  2.5771  0.0867
  611SOL     OW 1831   1.595   1.335   0.212  0.1439 -0.1818 -0.7386
  611SOL    HW1 1832   1.609   1.262   0.282  0.2251 -2.5304  1.7490
  611SOL    HW2 1833   1.499   1.342   0.175 -0.2723  0.6009  0.0378
  612SOL     OW 1834   0.437   2.726   1.882  0.1046  0.5750 -0.2122
  612SOL    HW1 1835   0.409   2.708   1.984 -0.8405 -2.0144  4.6286
  612SOL    HW2 1836   0.355   2.721   1.815  2.8349  1.2386  0.2913
  613SOL     OW 1837   0.563   2.704   0.614 -0.3941 -0.0905  0.5849
  613SOL    HW1 1838   0.519   2.754   0.687  0.1798 -3.4089  1.1854
  613SOL    HW2 1839   0.668   2.714   0.621  1.1239 -2.9075  0.8242
  614SOL     OW 1840   2.219   0.104   1.770  0.0453  0.0362 -0.1458
  614SOL    HW1 1841   2.126   0.085   1.736  1.8147  0.6057 -0.1697
  614SOL    HW2 1842   2.262   0.179   1.716 -0.6451  0.7549 -0.7112
  615SOL     OW 1843   1.702   1.124   0.443  0.0060 -0.4332 -0.0641
  615SOL    HW1 1844   1.702   1.044   0.381 -2.2758 -1.2153  0.7455
  615SOL    HW2 1845   1.787   1.178   0.434  0.1804  1.3097  0.0594
  616SOL     OW 1846   1.926   1.290   0.400  0.0498 -0.5904 -0.1578
  616SOL    HW1 1847   1.997   1.351   0.359 -3.2015  3.1090  1.0193
  616SOL    HW2 1848   1.934   1.304   0.499  0.5388  0.3938 -2.6104
  617SOL     OW 1849   1.135   0.702   2.772  0.3452 -0.2626  0.1751
  617SOL    HW1 1850   1.153   0.652   2.681 -0.3104  0.2550 -0.5346
  617SOL    HW2 1851   1.050   0.757   2.759  0.5655  1.7843 -0.2251
  618SOL     OW 1852   0.622   2.920   1.885 -0.4405 -0.2520  0.3405
  618SOL    HW1 1853   0.556   2.839   1.890 -1.4349 -1.9240  2.2353
  618SOL    HW2 1854   0.597   2.991   1.957  1.5383 -0.8763  1.6618
  619SOL     OW 1855   2.918   1.678   1.427  0.5838  0.1756 -0.4233
  619SOL    HW1 1856   2.995   1.714   1.374 -2.4585 -0.8864  3.3633
  619SOL    HW2 1857   2.825   1.694   1.383  1.7620 -1.4174 -2.4347
  620SOL     OW 1858   2.872   0.492   2.795 -0.0010 -0.6824 -0.2586
  620SOL    HW1 1859   2.859   0.593   2.785 -0.0435 -0.1215 -3.1177
  620SOL    HW2 1860   2.960   0.468   2.745 -1.3541  0.1223 -0.8049
  621SOL     OW 1861   2.257   1.981   2.317  0.1939  0.5804  0.1391
  621SOL    HW1 1862   2.256   1.917   2.235 -0.5377  0.2929 -0.1561
  621SOL    HW2 1863   2.170   1.990   2.366 -0.4332  0.4596 -1.7786
  622SOL     OW 1864   0.954   0.663   2.084  0.0439  0.2735 -0.5889
  622SOL    HW1 1865   0.874   0.614   2.129 -0.4304  0.7256  4.7925
  622SOL    HW2 1866   0.959   0.638   1.984  0.1160  0.2598  1.7092
  623SOL     OW 1867   0.814   1.055   2.204 -0.0516  0.2416  0.4419
  623SOL    HW1 1868   0.750   1.110   2.258  0.4735  1.6828 -0.3410
  623SOL    HW2 1869   0.866   0.992   2.266  1.1094  0.4624  0.9104
  624SOL     OW 1870   2.728   0.871   0.302 -0.4125  0.4066 -0.3549
  624SOL    HW1 1871   2.662   0.935   0.347  0.2876  0.1196 -1.4581
  624SOL    HW2 1872   2.755   0.913   0.213  1.3219 -0.7894  3.1377
  625SOL     OW 1873   0.830   1.994   0.830 -0.2137 -0.4747 -0.1858
  625SOL    HW1 1874   0.785   2.053   0.763 -0.9646 -1.4488 -2.6270
  625SOL    HW2 1875   0.783   2.007   0.919 -0.4456 -0.5232 -1.2823
  626SOL     OW 1876   1.877   0.788   2.689 -0.2520 -0.2537  0.1907
  626SOL    HW1 1877   1.968   0.798   2.730  1.4943  0.8747  0.9868
  626SOL    HW2 1878   1.828   0.879   2.691 -0.2174 -0.0395 -0.9738
  627SOL     OW 1879   1.421   2.930   2.674 -0.0581 -0.3474  0.0711
  627SOL    HW1 1880   1.448   2.963   2.764 -0.1837 -0.3911 -2.8934
  627SOL    HW2 1881   1.439   2.828   2.655  3.2593 -2.5059 -0.3852
  628SOL     OW 1882   2.233   2.848   2.360 -0.2268 -0.1321 -0.3234
  628SOL    HW1 1883   2.251   2.938   2.416 -0.9154  3.8142 -0.2743
  628SOL    HW2 1884   2.266   2.869   2.265  0.5162  2.3661  2.5083
  629SOL     OW 1885   0.801   0.018   2.704 -0.4196 -0.0881  0.1046
  629SOL    HW1 1886   0.804   0.066   2.612  0.5653  1.7309 -1.5122
  629SOL    HW2 1887   0.874   0.060   2.764  4.5390  0.2911  1.1111
  630SOL     OW 1888   1.006   0.321   2.687  0.0303  0.0175 -0.4085
  630SOL    HW1 1889   1.077   0.320   2.612  3.7964 -0.8217  0.5990
  630SOL    HW2 1890   1.033   0.255   2.758 -0.5540  1.9432  0.0416
  631SOL     OW 1891   1.988   1.311   0.663 -0.0581 -0.2884  0.2396
  631SOL    HW1 1892   1.949   1.298   0.757  1.4613  2.1883 -1.2692
  631SOL    HW2 1893   2.076   1.362   0.659 -1.1249  0.8395  1.2508
  632SOL     OW 1894   2.026   0.961   1.786  0.3278  0.4355 -0.4006
  632SOL    HW1 1895   2.077   0.885   1.737  1.1216  2.3969  0.3306
  632SOL    HW2 1896   1.932   0.967   1.740 -2.9652  0.2517  0.4632
  633SOL     OW 1897   1.235   1.621   0.071 -0.1823 -0.2326 -0.1099
  633SOL    HW1 1898   1.199   1.609   3.053 -0.1622  1.3820 -1.2867
  633SOL    HW2 1899   1.269   1.718   0.082 -0.6058 -0.6205  1.1285
  634SOL     OW 1900   2.452   3.038   1.718 -0.0786  0.3581 -0.0125
  634SOL    HW1 1901   2.371   0.014   1.748  0.9768 -2.4547  0.1526
  634SOL    HW2 1902   2.541   0.014   1.722  0.3774  0.3210 -1.0965
  635SOL     OW 1903   1.615   0.497   0.817  0.0631  0.2542  0.5607
  635SOL    HW1 1904   1.644   0.546   0.903  1.3224  2.1617  0.3571
  635SOL    HW2 1905   1.578   0.407   0.846 -0.6029 -0.1992  1.9935
  636SOL     OW 1906   0.946   1.045   0.116 -0.0060  0.3207 -0.3158
  636SOL    HW1 1907   0.966   1.115   0.185 -0.6469  1.5677  0.0215
  636SOL    HW2 1908   0.967   0.951   0.158  2.3958 -1.7390  0.3914
  637SOL     OW 1909   2.749   2.158   3.014 -0.2541  0.5492  0.0928
  637SOL    HW1 1910   2.763   2.099   0.016 -1.4598  0.6248 -0.5102
  637SOL    HW2 1911   2.840   2.183   2.978 -1.5805  0.1379  1.0287
  638SOL     OW 1912   1.469   2.558   2.819  0.2258  0.0589 -0.2565
  638SOL    HW1 1913   1.468   2.620   2.738  0.6749 -0.4526 -1.0432
  638SOL    HW2 1914   1.495   2.462   2.792 -0.0515  0.9029 -2.0405
  639SOL     OW 1915   1.518   1.594   1.004 -0.1899 -0.3388  0.0042
  639SOL    HW1 1916   1.441   1.645   0.945 -4.0321 -2.0583 -2.0010
  639SOL    HW2 1917   1.599   1.655   1.011 -1.2909 -1.1274 -0.1417
  640SOL     OW 1918   2.169   2.598   0.661  0.2620 -0.4749  0.1449
  640SOL    HW1 1919   2.175   2.695   0.632 -0.7742 -1.0263  1.8599
  640SOL    HW2 1920   2.104   2.548   0.602 -1.2167 -1.7346 -1.3715
  641SOL     OW 1921   3.052   0.238   2.931 -0.4177 -0.1285 -0.0511
  641SOL    HW1 1922   2.964   0.288   2.923 -2.5650 -0.1098  1.6566
  641SOL    HW2 1923   3.047   0.160   2.996 -2.5465 -1.4656  0.1281
  642SOL     OW 1924   3.010   0.818   1.212 -0.1504  0.2092  0.3223
  642SOL    HW1 1925   2.962   0.905   1.199 -0.3724 -1.9750 -2.8618
  642SOL    HW2 1926   3.039   0.816   1.310 -2.9002  0.9488  0.1953
  643SOL     OW 1927   0.686   1.737   2.119  0.0604 -0.1225  0.0811
  643SOL    HW1 1928   0.598   1.781   2.081 -3.1997  1.0606  1.4146
  643SOL    HW2 1929   0.763   1.806   2.114  0.1626 -1.3283  0.1428
  644SOL     OW 1930   1.887   2.196   0.735  0.3143  0.4755 -0.3111
  644SOL    HW1 1931   1.981   2.172   0.738 -1.6218  0.9886 -1.7269
  644SOL    HW2 1932   1.868   2.295   0.726  2.6150 -2.5844 -0.3404
  645SOL     OW 1933   1.843   2.131   1.003 -0.0462  0.2880  0.0915
  645SOL    HW1 1934   1.874   2.189   0.923  0.8764  0.7619 -1.8281
  645SOL    HW2 1935   1.745   2.107   0.992  0.0465  1.7119  1.7038
  646SOL     OW 1936   1.070   2.372   2.752  0.3014  0.4445 -0.0185
  646SOL    HW1 1937   1.170   2.357   2.759  1.3546 -0.1199 -1.5454
  646SOL    HW2 1938   1.015   2.323   2.826 -0.6357 -2.7058  1.9460
  647SOL     OW 1939   0.703   2.740   1.696 -0.2080 -0.3249 -0.2146
  647SOL    HW1 1940   0.771   2.691   1.753 -1.1262 -0.0769  2.3361
  647SOL    HW2 1941   0.652   2.808   1.753 -0.3014 -2.1173  0.7104
  648SOL     OW 1942   1.625   0.456   1.767 -0.0215 -0.7041  0.5687
  648SOL    HW1 1943   1.641   0.388   1.691  0.7841 -0.9761 -0.7407
  648SOL    HW2 1944   1.526   0.452   1.796  0.0686 -0.7020  1.3197
  649SOL     OW 1945   1.626   2.214   0.266 -0.3120 -0.1650 -0.4077
  649SOL    HW1 1946   1.618   2.191   0.168  0.6005 -1.1655  5.1608
  649SOL    HW2 1947   1.567   2.151   0.321 -0.4615 -1.3350  0.9076
  650SOL     OW 1948   2.240   1.809   1.532 -0.3514 -0.3902 -0.1005
  650SOL    HW1 1949   2.147   1.795   1.565  0.1569  0.4733  0.1714
  650SOL    HW2 1950   2.295   1.872   1.601  1.6831  1.9101  2.4376
  651SOL     OW 1951   1.803   2.645   0.208  0.3689 -0.3568 -0.5631
  651SOL    HW1 1952   1.743   2.727   0.203 -1.0669 -0.8400 -0.4327
  651SOL    HW2 1953   1.851   2.631   0.117 -0.3241  0.8857 -0.8201
  652SOL     OW 1954   0.472   1.987   0.192  0.1666  0.2530  0.2196
  652SOL    HW1 1955   0.449   1.975   0.292 -1.4376 -2.4415 -0.8177
  652SOL    HW2 1956   0.472   1.900   0.145  1.0516  0.1983  1.9207
  653SOL     OW 1957   2.528   2.599   1.264 -0.0373 -0.0582  0.1430
  653SOL    HW1 1958   2.481   2.549   1.336  1.9563  0.1670  0.5964
  653SOL    HW2 1959   2.490   2.575   1.175 -1.6432  1.4080 -0.1249
  654SOL     OW 1960   2.667   2.934   1.476  0.2323 -0.4154  0.0171
  654SOL    HW1 1961   2.704   3.026   1.453 -0.7849  2.6363  1.1824
  654SOL    HW2 1962   2.565   2.945   1.465 -0.7557  4.2124 -1.1869
  655SOL     OW 1963   2.982   2.062   0.944 -0.0245  0.0775 -0.3842
  655SOL    HW1 1964   3.043   1.985   0.925 -1.4793 -0.3033 -0.0210
  655SOL    HW2 1965   2.996   2.095   1.038  0.6403 -1.7151 -2.4161
  656SOL     OW 1966   0.059   2.974   2.257  0.1610 -0.1929  0.3008
  656SOL    HW1 1967   0.033   3.072   2.281 -1.4994  3.4675 -1.2358
  656SOL    HW2 1968   0.095   2.962   2.162  2.3833  1.7935  1.8809
  657SOL     OW 1969   2.667   1.443   3.011  0.2632  0.4745 -0.1024
  657SOL    HW1 1970   2.680   1.344   3.013 -0.0740  0.8320 -0.1858
  657SOL    HW2 1971   2.584   1.480   3.060  1.6134 -0.2804 -0.7643
  658SOL     OW 1972   2.125   1.817   0.864 -0.0365 -0.6390 -0.1392
  658SOL    HW1 1973   2.058   1.897   0.879 -1.7985  4.4537  0.0339
  658SOL    HW2 1974   2.067   1.733   0.847 -1.7130 -0.2677 -2.7262
  659SOL     OW 1975   1.389   0.496   1.080  0.1021 -0.2024 -0.5247
  659SOL    HW1 1976   1.370   0.575   1.138  0.5094 -1.5068 -1.6442
  659SOL    HW2 1977   1.484   0.471   1.088 -0.9129 -0.2025 -1.3770
  660SOL     OW 1978   1.654   1.199   3.042  0.0638 -0.0348  0.1406
  660SOL    HW1 1979   1.725   1.218   2.969  0.6198  2.7471  0.1040
  660SOL    HW2 1980   1.692   1.192   0.058 -1.0209  3.6317 -0.4589
  661SOL     OW 1981   0.438   2.169   0.582  0.0802 -0.0921  0.2507
  661SOL    HW1 1982   0.376   2.213   0.515  1.2264  0.8909 -0.0252
  661SOL    HW2 1983   0.505   2.232   0.627 -1.6352  1.3292 -2.2828
  662SOL     OW 1984   0.179   0.774   2.351  0.4889 -0.1773  0.3743
  662SOL    HW1 1985   0.111   0.803   2.421  2.7094 -1.2655  1.4203
  662SOL    HW2 1986   0.213   0.681   2.372 -1.1351  1.2808 -1.5170
  663SOL     OW 1987   1.880   1.321   0.937  0.4490  0.5212  0.0592
  663SOL    HW1 1988   1.782   1.303   0.955 -1.0643  0.1399  0.8212
  663SOL    HW2 1989   1.930   1.231   0.959  1.1835 -1.4686  2.7390
  664SOL     OW 1990   0.932   0.994   1.092 -0.0944 -0.1688  0.5729
  664SOL    HW1 1991   0.942   0.943   1.179 -0.4988  0.1728 -0.6367
  664SOL    HW2 1992   0.849   0.972   1.047  1.0548 -0.2270  1.4453
  665SOL     OW 1993   1.160   2.870   2.637 -0.3077 -0.0522  0.6679
  665SOL    HW1 1994   1.095   2.896   2.713  0.2455 -1.1814 -0.0398
  665SOL    HW2 1995   1.256   2.893   2.661 -0.0653 -2.5998 -0.5635
  666SOL     OW 1996   2.673   0.058   2.553 -0.7377  0.3863  0.0173
  666SOL    HW1 1997   2.772   0.026   2.567  1.1038  1.6919  1.6934
  666SOL    HW2 1998   2.667   0.131   2.485 -0.3996 -1.4576  0.2619
  667SOL     OW 1999   2.395   1.255   1.639  0.1042  0.0039 -0.2991
  667SOL    HW1 2000   2.370   1.351   1.623 -1.2357  0.0497  0.2393
  667SOL    HW2 2001   2.359   1.224   1.731 -1.7659 -0.9940  0.5827
  668SOL     OW 2002   0.355   1.058   2.602 -1.1282 -0.7254 -0.1836
  668SOL    HW1 2003   0.357   1.139   2.661 -1.9968 -3.3264  0.9261
  668SOL    HW2 2004   0.322   1.079   2.508  1.9389  1.3955  0.7520
  669SOL     OW 2005   1.940   2.301   2.539  0.2027 -0.7526  0.4482
  669SOL    HW1 2006   1.931   2.212   2.584 -0.1724 -0.3883  0.2341
  669SOL    HW2 2007   2.035   2.309   2.500  0.3630  1.4792  2.4623
  670SOL     OW 2008   2.217   1.127   2.150 -0.2483  0.8035 -0.4593
  670SOL    HW1 2009   2.320   1.154   2.133  0.7936  2.3233 -0.0029
  670SOL    HW2 2010   2.181   1.050   2.092  0.5208  1.3431 -0.9762
  671SOL     OW 2011   2.473   1.565   0.091 -0.6262  0.0827  0.2113
  671SOL    HW1 2012   2.522   1.547   0.179  2.9226 -1.8598  3.3317
  671SOL    HW2 2013   2.485   1.659   0.062 -0.7633  2.0290  0.0444
  672SOL     OW 2014   2.604   1.003   1.945 -0.0921  0.3438  0.6552
  672SOL    HW1 2015   2.658   1.046   1.873  0.9977  0.5085  0.6565
  672SOL    HW2 2016   2.563   1.075   2.000  3.0639 -0.5367  0.6336
  673SOL     OW 2017   2.676   0.969   1.594 -0.2099 -0.5693 -0.1436
  673SOL    HW1 2018   2.774   1.003   1.597 -0.9417  1.0663 -0.0529
  673SOL    HW2 2019   2.663   0.867   1.609  0.9351  1.6835  0.5036
  674SOL     OW 2020   2.035   1.932   1.801 -0.1847  0.6231 -0.5037
  674SOL    HW1 2021   1.955   1.984   1.771  2.6804 -0.8262  0.8039
  674SOL    HW2 2022   2.039   1.839   1.758  1.2110 -1.5915 -1.2843
  675SOL     OW 2023   0.377   0.755   1.001 -0.4501 -0.9992 -0.6507
  675SOL    HW1 2024   0.419   0.811   1.082  1.7851  0.7820  2.9094
  675SOL    HW2 2025   0.276   0.766   0.999  0.2470 -1.1182  0.3938
  676SOL     OW 2026   1.733   1.141   1.292 -0.1065  0.0260  0.0741
  676SOL    HW1 2027   1.711   1.240   1.300  1.0701  0.3343  0.8556
  676SOL    HW2 2028   1.825   1.112   1.312 -2.3705  2.1118 -0.0332
  677SOL     OW 2029   2.402   1.477   2.062  0.4330 -0.3273  0.0829
  677SOL    HW1 2030   2.333   1.500   1.995 -0.9053 -0.6781  0.5872
  677SOL    HW2 2031   2.398   1.538   2.147 -0.7113  0.4012 -0.1625
  678SOL     OW 2032   0.114   1.469   0.665 -0.3466 -0.4883 -0.4422
  678SOL    HW1 2033   0.135   1.376   0.630  1.3135 -2.3000 -2.5446
  678SOL    HW2 2034   0.014   1.481   0.688 -0.7592 -2.6459 -0.7684
  679SOL     OW 2035   2.747   2.696   0.511  0.2448 -0.2221  0.3073
  679SOL    HW1 2036   2.722   2.659   0.425 -1.0949  2.1731 -1.2326
  679SOL    HW2 2037   2.814   2.641   0.565  3.3894 -2.2443  3.7634
  680SOL     OW 2038   3.024   2.443   1.307  0.8730  0.2272 -0.1869
  680SOL    HW1 2039   0.013   2.416   1.381  2.0074 -1.5946  0.3419
  680SOL    HW2 2040   2.932   2.437   1.346  2.3747  0.6423 -0.7965
  681SOL     OW 2041   0.494   1.461   1.208  0.4988  0.1424 -0.1352
  681SOL    HW1 2042   0.580   1.462   1.266 -0.7653 -0.4419 -0.1065
  681SOL    HW2 2043   0.410   1.470   1.266 -0.2771  0.5533 -0.1047
  682SOL     OW 2044   1.559   2.526   0.958  0.5070 -0.3436  0.3215
  682SOL    HW1 2045   1.488   2.563   1.019  1.9068  2.0011  1.0942
  682SOL    HW2 2046   1.613   2.469   1.024  1.3646 -2.5707 -0.0148
  683SOL     OW 2047   2.289   1.574   0.815  0.3824 -0.0037  0.3901
  683SOL    HW1 2048   2.209   1.579   0.875 -2.5375  1.5769 -0.3623
  683SOL    HW2 2049   2.288   1.654   0.748 -0.1031  0.7816 -3.2712
  684SOL     OW 2050   0.563   2.001   1.964 -0.1585 -0.0266  0.9130
  684SOL    HW1 2051   0.637   2.063   1.931  0.7961  0.8293 -1.4267
  684SOL    HW2 2052   0.508   1.950   1.893 -0.6459  0.4305 -1.0543
  685SOL     OW 2053   2.124   1.424   0.282 -0.2099 -0.2058 -0.1627
  685SOL    HW1 2054   2.136   1.414   0.180 -0.3771 -0.4046  2.4799
  685SOL    HW2 2055   2.069   1.510   0.307 -3.1793  1.5129 -1.6570
  686SOL     OW 2056   2.826   0.392   0.570 -0.0304  0.0815 -0.3740
  686SOL    HW1 2057   2.790   0.359   0.655  0.5785 -0.6631 -0.6386
  686SOL    HW2 2058   2.928   0.394   0.563 -1.8036 -1.4950  0.3686
  687SOL     OW 2059   1.357   2.610   0.243 -0.1314  0.0752  0.0820
  687SOL    HW1 2060   1.270   2.619   0.299  0.8705  1.3215  0.0328
  687SOL    HW2 2061   1.418   2.545   0.289 -1.2007 -0.5762  0.1141
  688SOL     OW 2062   2.070   1.700   1.985 -0.7150 -0.0339  0.2838
  688SOL    HW1 2063   2.080   1.633   2.058  0.9377 -1.9510  2.0108
  688SOL    HW2 2064   1.978   1.739   1.981 -0.7611  0.1165  1.0309
  689SOL     OW 2065   2.532   0.790   2.093 -0.0900  0.5740  0.6877
  689SOL    HW1 2066   2.546   0.866   2.025  1.1952  1.2727 -0.0301
  689SOL    HW2 2067   2.580   0.815   2.180 -2.5487 -0.9945 -2.8736
  690SOL     OW 2068   1.785   0.577   1.315  0.0187 -0.0508 -0.2510
  690SOL    HW1 2069   1.729   0.590   1.399  0.4153 -2.3755 -0.6728
  690SOL    HW2 2070   1.816   0.480   1.318  2.4055 -2.3660 -0.1739
  691SOL     OW 2071   1.128   1.916   1.693 -0.0559 -0.7357  0.0999
  691SOL    HW1 2072   1.124   1.853   1.611  1.9145 -1.8991  2.2089
  691SOL    HW2 2073   1.223   1.951   1.705 -1.3286  1.9975 -1.3483
  692SOL     OW 2074   1.562   0.339   2.085  0.3641  0.0177  0.0002
  692SOL    HW1 2075   1.592   0.437   2.064  1.5339  2.5239 -1.6952
  692SOL    HW2 2076   1.502   0.308   2.008  0.1983  1.1075 -1.2784
  693SOL     OW 2077   0.620   1.085   2.843  0.2922  0.0177  0.1497
  693SOL    HW1 2078   0.648   1.099   2.939 -1.0426  1.3499 -0.1015
  693SOL    HW2 2079   0.623   0.988   2.817 -0.3705  2.4220  2.2850
  694SOL     OW 2080   2.012   2.735   1.000  0.2736 -0.2184 -0.1226
  694SOL    HW1 2081   2.019   2.634   1.022 -0.7171  0.9885  0.8036
  694SOL    HW2 2082   1.986   2.781   1.086 -1.0102  0.9969  0.1953
  695SOL     OW 2083   1.593   1.431   2.342 -0.1282  0.3859 -0.1265
  695SOL    HW1 2084   1.574   1.528   2.308  1.0408  1.1665  0.5265
  695SOL    HW2 2085   1.558   1.424   2.441 -0.1333  1.7146 -1.3385
  696SOL     OW 2086   1.503   0.317   1.352  0.2250 -0.0899  0.3074
  696SOL    HW1 2087   1.436   0.267   1.411 -0.1255 -1.0589 -0.9442
  696SOL    HW2 2088   1.460   0.410   1.336 -2.7518  2.2372 -0.3686
  697SOL     OW 2089   1.407   0.248   1.873  0.2964 -0.0003 -0.2533
  697SOL    HW1 2090   1.423   0.162   1.820 -1.3657 -1.3486 -1.7892
  697SOL    HW2 2091   1.323   0.240   1.930  0.3812  1.3403 -1.7773
  698SOL     OW 2092   1.872   1.362   2.262  0.0058  0.1741 -0.1912
  698SOL    HW1 2093   1.856   1.301   2.182 -0.8798  1.5026  0.4944
  698SOL    HW2 2094   1.782   1.400   2.297  1.2975  1.0458 -1.7201
  699SOL     OW 2095   1.505   0.989   1.376 -0.1386 -0.5174  0.4261
  699SOL    HW1 2096   1.603   1.015   1.381  1.4084  0.5233 -0.1815
  699SOL    HW2 2097   1.468   1.071   1.319  1.1934  1.4049 -2.8979
  700SOL     OW 2098   1.532   3.016   0.319  0.7390 -0.1206 -0.8578
  700SOL    HW1 2099   1.552   3.053   0.228  2.1961 -0.2348  0.2468
  700SOL    HW2 2100   1.452   3.069   0.348  2.7261 -1.9653 -2.8294
  701SOL     OW 2101   0.247   0.105   1.562 -0.4572 -0.5138  0.0870
  701SOL    HW1 2102   0.266   0.027   1.628  4.2664  0.5814  0.3393
  701SOL    HW2 2103   0.205   0.074   1.473  1.6369  2.1154  0.9423
  702SOL     OW 2104   1.374   2.655   0.594 -0.3216 -0.0227 -0.0325
  702SOL    HW1 2105   1.358   2.735   0.534  1.2621  0.3410 -2.3172
  702SOL    HW2 2106   1.472   2.627   0.590  2.9750  1.1651  0.8302
  703SOL     OW 2107   2.272   2.909   2.070  0.0799 -0.0011  0.0621
  703SOL    HW1 2108   2.232   2.999   2.041  0.3905 -1.1914 -0.6535
  703SOL    HW2 2109   2.375   2.926   2.072  2.8603  0.4156 -0.3490
  704SOL     OW 2110   1.162   2.089   0.820 -0.1930  0.2085 -0.3923
  704SOL    HW1 2111   1.112   2.029   0.891  1.1799  0.4931  0.6782
  704SOL    HW2 2112   1.259   2.081   0.842 -0.5434 -0.7178 -0.7089
  705SOL     OW 2113   2.912   1.344   1.961 -0.6818  0.0756 -0.8095
  705SOL    HW1 2114   2.830   1.394   1.988  0.1988  1.1215  1.0689
  705SOL    HW2 2115   2.892   1.290   1.877 -0.0550  0.4512  2.7590
  706SOL     OW 2116   1.315   2.889   0.491  0.0357  0.1585 -0.5079
  706SOL    HW1 2117   1.297   2.912   0.397  0.4618 -0.9059  0.7580
  706SOL    HW2 2118   1.265   2.952   0.559 -1.3981  0.5745  1.7714
  707SOL     OW 2119   1.038   2.298   2.241 -0.5789  0.7761  0.3242
  707SOL    HW1 2120   0.937   2.313   2.237 -2.7604 -1.0247 -0.7120
  707SOL    HW2 2121   1.065   2.263   2.332 -1.6669  0.9599  0.1597
  708SOL     OW 2122   0.118   2.309   1.491 -0.4915  0.4776  0.1767
  708SOL    HW1 2123   0.090   2.212   1.522  0.7237  1.5200  3.0325
  708SOL    HW2 2124   0.191   2.309   1.418  1.8008 -1.2865  0.4067
  709SOL     OW 2125   1.961   0.365   2.090  0.8949 -0.0623 -0.6913
  709SOL    HW1 2126   1.968   0.360   2.190  0.4425  1.6499 -2.8827
  709SOL    HW2 2127   1.878   0.425   2.072 -1.1630 -1.3253 -0.6979
  710SOL     OW 2128   2.742   0.473   1.474 -0.0294 -0.0568 -0.3162
  710SOL    HW1 2129   2.668   0.402   1.499 -2.8570  0.7817  2.5319
  710SOL    HW2 2130   2.725   0.528   1.381 -0.0213  0.4065 -0.7990
  711SOL     OW 2131   0.054   2.773   0.679  0.0342  0.8166  0.1064
  711SOL    HW1 2132   0.132   2.705   0.695  1.6250  0.0093  1.4456
  711SOL    HW2 2133   3.047   2.727   0.657 -0.2326  1.5724 -0.8031
  712SOL     OW 2134   0.325   2.475   2.296 -0.1551 -0.4029 -0.0601
  712SOL    HW1 2135   0.286   2.426   2.216  2.3570  2.0004  0.9574
  712SOL    HW2 2136   0.257   2.502   2.366 -0.5772 -1.1843 -0.3524
  713SOL     OW 2137   1.525   0.611   0.111  0.6907 -0.1532  0.0143
  713SOL    HW1 2138   1.563   0.634   0.202  1.0380 -2.4620  1.5007
  713SOL    HW2 2139   1.602   0.580   0.052  1.3892  1.7105 -0.8063
  714SOL     OW 2140   1.679   1.566   0.373  0.2990  0.0767 -0.3674
  714SOL    HW1 2141   1.648   1.484   0.320  1.6220  0.7372  0.7857
  714SOL    HW2 2142   1.627   1.649   0.349 -0.6481  0.1700  0.6377
  715SOL     OW 2143   2.676   0.230   0.386  0.0264  0.1861  0.0200
  715SOL    HW1 2144   2.624   0.156   0.438  0.8603  1.2159  2.0705
  715SOL    HW2 2145   2.738   0.281   0.450  0.1254  3.0724  1.0864
  716SOL     OW 2146   0.460   0.235   2.378  0.0081  0.1307  0.0233
  716SOL    HW1 2147   0.504   0.298   2.445 -1.4740 -0.0100 -2.2820
  716SOL    HW2 2148   0.506   0.143   2.374  0.5429  2.1136  0.4129
  717SOL     OW 2149   0.045   0.500   2.681  0.1761 -0.8584 -0.5860
  717SOL    HW1 2150   0.089   0.460   2.763  1.0969  0.4729  2.0041
  717SOL    HW2 2151   0.103   0.506   2.603 -0.0837  0.2393  2.1121
  718SOL     OW 2152   1.051   0.481   0.680  0.0498 -0.3236 -0.5504
  718SOL    HW1 2153   1.073   0.469   0.782  1.7724 -0.1550 -0.2218
  718SOL    HW2 2154   1.124   0.534   0.637 -2.7272  0.9647 -0.4204
  719SOL     OW 2155   2.667   2.348   2.850  0.1481 -0.1017 -0.3174
  719SOL    HW1 2156   2.582   2.335   2.792  1.4136 -2.3632 -0.1715
  719SOL    HW2 2157   2.682   2.257   2.898  1.4582 -4.5397 -0.9268
  720SOL     OW 2158   1.621   0.632   1.529 -0.1300 -0.4244 -0.2147
  720SOL    HW1 2159   1.626   0.556   1.597  0.4854 -0.1990  2.0600
  720SOL    HW2 2160   1.560   0.706   1.565  1.2031 -1.6169  3.2133
  721SOL     OW 2161   2.719   0.747   0.800 -0.3274  0.4886  0.2193
  721SOL    HW1 2162   2.626   0.699   0.783 -1.0314  0.7142  0.0593
  721SOL    HW2 2163   2.788   0.674   0.784 -2.0616  1.9799  2.3247
  722SOL     OW 2164   1.258   1.989   2.493  0.2170  0.0208  0.4514
  722SOL    HW1 2165   1.214   2.077   2.484 -1.5945 -1.9804 -1.4178
  722SOL    HW2 2166   1.261   1.956   2.591 -1.8117  0.7025  2.3617
  723SOL     OW 2167   0.593   0.470   0.647  0.1553  0.1555  0.5865
  723SOL    HW1 2168   0.682   0.483   0.598 -1.2038  0.0828  0.3888
  723SOL    HW2 2169   0.551   0.562   0.666  3.2969  0.0127 -0.1609
  724SOL     OW 2170   1.180   2.108   1.867  0.1984 -0.6066 -0.1717
  724SOL    HW1 2171   1.144   2.079   1.777 -0.1688 -0.4988 -2.5516
  724SOL    HW2 2172   1.104   2.119   1.936  0.5234 -0.8898  3.1679
  725SOL     OW 2173   0.236   1.046   1.349 -0.1467  0.1531 -0.2929
  725SOL    HW1 2174   0.238   1.052   1.250  1.3170  0.0157 -1.3840
  725SOL    HW2 2175   0.328   1.061   1.394  0.7031 -1.1458  2.1617
  726SOL     OW 2176   1.784   0.486   0.587 -0.7077 -0.1838  0.2015
  726SOL    HW1 2177   1.757   0.482   0.684  2.4709  2.8584  1.0368
  726SOL    HW2 2178   1.713   0.450   0.527  2.7224  0.5307  2.1245
  727SOL     OW 2179   1.712   0.966   2.200 -0.1150  0.2309 -0.4849
  727SOL    HW1 2180   1.674   0.946   2.109 -0.5790  0.6917  0.4589
  727SOL    HW2 2181   1.664   1.048   2.236  1.9619 -0.4785 -2.6729
  728SOL     OW 2182   1.664   2.739   1.475 -0.2007 -0.7480 -0.0422
  728SOL    HW1 2183   1.692   2.751   1.575  0.0460 -0.9248  0.1933
  728SOL    HW2 2184   1.584   2.674   1.471  1.3950 -0.7817  0.1154
  729SOL     OW 2185   1.329   0.469   1.668  0.3226  0.3946 -0.4223
  729SOL    HW1 2186   1.297   0.371   1.657 -1.3530 -1.5455 -1.0778
  729SOL    HW2 2187   1.308   0.511   1.759  2.5070 -0.7167 -0.1796
  730SOL     OW 2188   0.850   1.990   1.651 -0.1410 -0.2919 -0.4100
  730SOL    HW1 2189   0.867   2.082   1.682  0.7438  0.3295  1.9752
  730SOL    HW2 2190   0.942   1.943   1.655  0.8638  0.0127  2.8442
  731SOL     OW 2191   0.592   0.208   0.160 -0.1903  0.1420 -0.0824
  731SOL    HW1 2192   0.492   0.214   0.139  2.1746 -0.9726 -2.0611
  731SOL    HW2 2193   0.619   0.108   0.164  0.3957 -0.9672  0.5441
  732SOL     OW 2194   0.604   0.845   0.186 -0.4757 -0.5090 -0.4268
  732SOL    HW1 2195   0.667   0.785   0.236 -2.5588  2.3246 -0.0994
  732SOL    HW2 2196   0.514   0.791   0.172 -0.6390 -0.3730  2.4143
  733SOL     OW 2197   1.480   1.655   1.795 -0.5080 -0.3369 -0.3675
  733SOL    HW1 2198   1.570   1.631   1.832  0.4939 -2.1633  0.9100
  733SOL    HW2 2199   1.427   1.577   1.755  1.3165  0.2465  0.4323
  734SOL     OW 2200   2.946   2.731   2.133 -0.7757  0.0265  0.4608
  734SOL    HW1 2201   2.933   2.832   2.120 -2.2419 -0.4002 -0.2330
  734SOL    HW2 2202   3.038   2.700   2.103  1.2450 -0.3025 -1.4841
  735SOL     OW 2203   0.796   2.893   0.930 -0.5521 -0.0422 -0.8931
  735SOL    HW1 2204   0.786   2.997   0.941  0.4098  2.6970  1.6447
  735SOL    HW2 2205   0.876   2.863   0.869 -1.4236  3.1160 -1.0967
  736SOL     OW 2206   1.392   0.788   2.722 -0.0502  0.0212 -0.0007
  736SOL    HW1 2207   1.429   0.709   2.670  1.3735  1.1207 -0.1965
  736SOL    HW2 2208   1.305   0.758   2.767  0.3490 -1.1810 -0.6219
  737SOL     OW 2209   0.067   0.959   0.342 -0.3882 -0.0781  0.0955
  737SOL    HW1 2210   0.094   0.966   0.243  0.7381 -0.8327 -0.8153
  737SOL    HW2 2211   0.141   0.948   0.409 -3.6152 -1.3493  0.1958
  738SOL     OW 2212   0.166   2.709   1.342 -0.1848 -0.2772  0.2429
  738SOL    HW1 2213   0.075   2.678   1.381 -1.6214 -1.9096 -0.7452
  738SOL    HW2 2214   0.159   2.704   1.241 -0.8212  2.2322  0.0595
  739SOL     OW 2215   1.520   3.006   0.657 -0.1457  0.4173  0.4465
  739SOL    HW1 2216   1.476   2.975   0.743  0.4078 -0.9785 -2.7843
  739SOL    HW2 2217   1.467   2.962   0.581  0.6894  1.1354 -1.3636
  740SOL     OW 2218   1.433   2.859   1.162 -0.1380 -0.0640 -0.5298
  740SOL    HW1 2219   1.509   2.911   1.194 -3.3701  0.3814 -1.2912
  740SOL    HW2 2220   1.353   2.864   1.226  1.7044  0.2364 -1.6388
  741SOL     OW 2221   2.005   0.604   0.506  0.4079 -0.2212  0.3945
  741SOL    HW1 2222   1.916   0.559   0.532  0.2611  0.7741  1.0318
  741SOL    HW2 2223   2.012   0.603   0.403  0.0098 -0.5562 -1.9120
  742SOL     OW 2224   1.178   2.301   1.651 -0.0076 -0.8441 -0.4290
  742SOL    HW1 2225   1.211   2.364   1.725 -0.8908  1.9571 -0.9480
  742SOL    HW2 2226   1.250   2.245   1.615 -2.1135  0.5098  0.7734
  743SOL     OW 2227   2.250   0.702   2.174 -0.4586 -0.0748 -0.0079
  743SOL    HW1 2228   2.207   0.785   2.213 -3.7201  1.9700  1.2818
  743SOL    HW2 2229   2.346   0.716   2.144  0.9856  0.4364 -2.3997
  744SOL     OW 2230   2.118   0.341   0.592 -0.0100 -0.0547  0.4379
  744SOL    HW1 2231   2.154   0.308   0.499  0.3776 -3.1605 -1.7617
  744SOL    HW2 2232   2.080   0.433   0.581 -1.9168  0.3957 -2.1376
  745SOL     OW 2233   2.239   1.553   1.852 -0.2727  0.8032 -0.0949
  745SOL    HW1 2234   2.170   1.615   1.891 -0.4400 -0.8087 -3.2548
  745SOL    HW2 2235   2.288   1.592   1.767 -0.1817 -0.9801  0.7678
  746SOL     OW 2236   1.181   1.692   0.787  0.3460 -0.7832  0.3096
  746SOL    HW1 2237   1.101   1.728   0.735  2.1663  1.2222 -1.1882
  746SOL    HW2 2238   1.240   1.772   0.823  1.6886 -0.0877  1.6527
  747SOL     OW 2239   2.014   1.077   1.015  0.0711 -0.1366 -0.0317
  747SOL    HW1 2240   1.996   1.072   1.117  0.3913  1.0133  0.7566
  747SOL    HW2 2241   2.050   0.988   0.981  0.2942 -1.6187 -5.8027
  748SOL     OW 2242   0.215   2.961   0.103 -0.8496  0.0557  0.1439
  748SOL    HW1 2243   0.240   2.995   0.198 -2.5592  1.0772 -0.9092
  748SOL    HW2 2244   0.214   2.856   0.102 -2.3650 -1.4481  0.2545
  749SOL     OW 2245   0.094   0.540   2.141 -0.3565  0.3667 -0.3645
  749SOL    HW1 2246   0.135   0.549   2.044 -2.3683  0.2654 -0.5031
  749SOL    HW2 2247   3.078   0.584   2.146 -2.2977  2.1024 -0.6700
  750SOL     OW 2248   1.716   2.821   1.749  0.5685  0.0957 -0.7238
  750SOL    HW1 2249   1.793   2.758   1.738  1.2313  1.4200 -2.1217
  750SOL    HW2 2250   1.645   2.790   1.817 -3.5609 -0.8921 -0.7169
  751SOL     OW 2251   2.651   0.594   0.489  0.1103  0.1941  0.4471
  751SOL    HW1 2252   2.693   0.684   0.477 -1.9273  0.7172  1.0879
  751SOL    HW2 2253   2.722   0.519   0.496  1.9694  0.0243  0.6387
  752SOL     OW 2254   0.124   2.962   0.856 -0.2546 -0.0530 -0.2806
  752SOL    HW1 2255   0.087   2.906   0.779  1.1243  0.0046  1.5207
  752SOL    HW2 2256   0.200   3.017   0.820 -2.2622 -0.4721  0.5175
  753SOL     OW 2257   0.957   0.390   1.514  0.5165 -0.3119 -0.0887
  753SOL    HW1 2258   0.863   0.351   1.512 -1.4427  2.1603 -0.9414
  753SOL    HW2 2259   1.018   0.333   1.573 -0.4900  0.5015 -0.9156
  754SOL     OW 2260   0.756   2.699   2.182 -0.2861  0.2186 -0.3109
  754SOL    HW1 2261   0.683   2.724   2.247  2.1719  1.5899 -0.5419
  754SOL    HW2 2262   0.799   2.785   2.145  0.5656  1.4556  1.8187
  755SOL     OW 2263   2.319   1.566   0.386  0.4086 -0.0479 -0.0112
  755SOL    HW1 2264   2.411   1.540   0.355  0.4875  0.0362  2.4276
  755SOL    HW2 2265   2.249   1.524   0.322 -0.3289 -0.5212 -0.5758
  756SOL     OW 2266   2.167   1.947   2.679  0.6948  0.4427  0.0101
  756SOL    HW1 2267   2.260   1.940   2.717 -1.6895  2.6727 -1.7870
  756SOL    HW2 2268   2.153   1.876   2.610  1.3768 -1.3198  2.8250
  757SOL     OW 2269   1.653   0.189   1.170  0.7145  0.4854 -0.1952
  757SOL    HW1 2270   1.605   0.227   1.251  0.1254 -1.0370  0.0280
  757SOL    HW2 2271   1.613   0.221   1.080  1.2319 -2.7901 -0.8852
  758SOL     OW 2272   1.552   2.384   0.704 -0.0822  0.2558 -0.0937
  758SOL    HW1 2273   1.571   2.428   0.790  0.7269 -1.2134 -1.0440
  758SOL    HW2 2274   1.584   2.442   0.630  0.4977  1.0397  1.0348
  759SOL     OW 2275   2.419   0.389   1.160 -0.3749  0.0512  0.6459
  759SOL    HW1 2276   2.484   0.452   1.118  0.5167 -1.1185  2.6450
  759SOL    HW2 2277   2.335   0.431   1.194  1.8224  0.1482 -1.4603
  760SOL     OW 2278   2.344   1.047   1.282  0.2940  0.0187  0.0264
  760SOL    HW1 2279   2.290   1.089   1.362  0.9153 -1.0691 -1.0885
  760SOL    HW2 2280   2.324   1.083   1.189  2.1336 -0.1647 -0.2702
  761SOL     OW 2281   0.484   0.688   0.744 -0.3964  0.3112  0.3197
  761SOL    HW1 2282   0.467   0.777   0.696 -1.3733 -1.3651  0.0679
  761SOL    HW2 2283   0.428   0.679   0.831 -2.6023 -1.4533 -2.2074
  762SOL     OW 2284   1.641   1.925   1.337 -0.0606 -0.2198 -0.6243
  762SOL    HW1 2285   1.695   1.908   1.426  0.9244 -1.1884  0.4767
  762SOL    HW2 2286   1.636   2.026   1.320  0.2551  1.3687  0.6335
  763SOL     OW 2287   1.072   1.411   1.633  0.3810 -0.5403 -0.1646
  763SOL    HW1 2288   1.057   1.325   1.589  0.5103  0.9945  1.0824
  763SOL    HW2 2289   1.040   1.486   1.575 -1.7697 -1.3442  0.4902
  764SOL     OW 2290   0.055   1.710   2.061 -0.0037  0.2361 -0.4123
  764SOL    HW1 2291   3.050   1.757   2.032  0.2418 -0.5261 -0.2382
  764SOL    HW2 2292   0.062   1.614   2.018  1.8196 -0.2468 -0.6054
  765SOL     OW 2293   1.420   2.386   1.296  0.5442  0.4094  0.8565
  765SOL    HW1 2294   1.344   2.325   1.266  0.0988 -4.1654 -0.5964
  765SOL    HW2 2295   1.419   2.474   1.239 -0.2929 -1.6830 -2.0407
  766SOL     OW 2296   0.173   2.555   2.489 -0.0046  0.9862  0.2746
  766SOL    HW1 2297   0.142   2.650   2.481  0.6500 -2.0163 -2.9962
  766SOL    HW2 2298   0.092   2.491   2.500 -0.8040 -1.6501  0.1264
  767SOL     OW 2299   1.452   0.566   2.532 -0.1106  0.2579 -0.3479
  767SOL    HW1 2300   1.495   0.480   2.561 -1.3326  0.7237  2.8560
  767SOL    HW2 2301   1.355   0.554   2.549  0.4037  1.6247  1.2147
  768SOL     OW 2302   1.392   2.322   3.008  0.1639  0.0225 -0.1275
  768SOL    HW1 2303   1.390   2.423   2.988 -0.3860  1.0210 -1.9814
  768SOL    HW2 2304   1.336   2.272   2.939  1.7490  0.8576  0.5204
  769SOL     OW 2305   0.185   2.788   1.088 -0.6695 -0.2485  0.0328
  769SOL    HW1 2306   0.134   2.824   1.009 -0.3955 -0.8756  2.2381
  769SOL    HW2 2307   0.273   2.840   1.091 -1.0529  0.1257 -4.0222
  770SOL     OW 2308   1.394   0.823   3.047  0.1968 -0.0560 -0.2671
  770SOL    HW1 2309   1.435   0.858   2.962  0.3738 -0.7653 -0.0151
  770SOL    HW2 2310   1.454   0.763   0.021 -1.5141  1.0329  2.8698
  771SOL     OW 2311   0.233   0.279   2.496  0.5222  0.8338  0.7372
  771SOL    HW1 2312   0.211   0.224   2.578 -0.8736  1.3154  0.5259
  771SOL    HW2 2313   0.309   0.231   2.442 -0.5771 -1.4531 -0.2972
  772SOL     OW 2314   1.947   2.853   2.115 -0.7188 -0.3617 -0.1848
  772SOL    HW1 2315   1.977   2.947   2.146  0.3319  0.5813  0.5879
  772SOL    HW2 2316   1.988   2.826   2.025  0.5285 -2.3188 -0.8402
  773SOL     OW 2317   0.708   2.233   1.883 -0.1191 -0.3571  0.2778
  773SOL    HW1 2318   0.785   2.274   1.824 -0.6675 -0.5742 -0.7550
  773SOL    HW2 2319   0.665   2.308   1.933  2.0098 -0.5349 -2.6212
  774SOL     OW 2320   1.177   0.225   2.051  0.5533 -0.4194 -0.1505
  774SOL    HW1 2321   1.118   0.148   2.084  0.1255 -0.1745 -0.5816
  774SOL    HW2 2322   1.199   0.282   2.132 -1.0803 -2.9512 -0.7877
  775SOL     OW 2323   2.159   2.449   0.092  0.1726 -0.2888  0.0815
  775SOL    HW1 2324   2.153   2.405   0.183 -1.2369  0.3773  2.1585
  775SOL    HW2 2325   2.067   2.483   0.068 -1.2406 -1.2159 -1.4552
  776SOL     OW 2326   2.366   0.495   2.333  0.4774  0.6142 -0.1487
  776SOL    HW1 2327   2.370   0.486   2.437  2.7787 -0.5833  0.5737
  776SOL    HW2 2328   2.296   0.554   2.288 -0.7045  2.9700 -2.4605
  777SOL     OW 2329   2.485   1.208   2.440 -0.3527 -0.1847 -0.6582
  777SOL    HW1 2330   2.521   1.215   2.536  1.2677 -2.3006 -2.2146
  777SOL    HW2 2331   2.554   1.245   2.374  0.4927 -0.7804 -0.2267
  778SOL     OW 2332   2.151   0.932   2.364  0.0983 -0.3540 -0.6500
  778SOL    HW1 2333   2.171   0.986   2.283  0.0245  0.4274 -0.2429
  778SOL    HW2 2334   2.052   0.945   2.396 -3.3045  2.9771  2.8630
  779SOL     OW 2335   3.000   0.343   0.242 -0.3086 -0.4397  0.0755
  779SOL    HW1 2336   3.061   0.421   0.270 -0.0679  2.1534  1.1845
  779SOL    HW2 2337   2.999   0.277   0.319  1.2072  1.2722  0.3722
  780SOL     OW 2338   2.678   0.501   2.976 -0.2522 -0.3213 -0.2114
  780SOL    HW1 2339   2.757   0.493   2.909  1.1512 -3.8790  1.2324
  780SOL    HW2 2340   2.715   0.506   3.070 -0.5801  1.1840  2.9656
  781SOL     OW 2341   0.166   2.991   1.332  0.0743 -0.0952 -0.5264
  781SOL    HW1 2342   0.157   3.041   1.243  1.6347 -1.3112  0.0020
  781SOL    HW2 2343   0.165   2.891   1.321  2.0558  0.8063  0.2528
  782SOL     OW 2344   1.863   2.467   0.726  0.6290  0.3107  0.2199
  782SOL    HW1 2345   1.914   2.502   0.645 -1.7196 -0.8708  0.3391
  782SOL    HW2 2346   1.824   2.550   0.769  0.8541 -0.8213 -0.1768
  783SOL     OW 2347   0.698   1.386   1.363  0.1083  0.2103 -0.1230
  783SOL    HW1 2348   0.775   1.434   1.316  2.3467 -1.2260  2.1258
  783SOL    HW2 2349   0.694   1.403   1.463  0.6309 -1.3947 -0.4426
  784SOL     OW 2350   1.500   0.303   2.674 -0.2532 -0.1708  0.0828
  784SOL    HW1 2351   1.503   0.305   2.774 -0.8601 -0.4681 -1.8531
  784SOL    HW2 2352   1.554   0.221   2.641  2.3885 -2.0992  1.1702
  785SOL     OW 2353   2.540   0.138   1.313  0.2955 -0.7032 -0.2155
  785SOL    HW1 2354   2.478   0.212   1.284  1.4984 -2.1917 -0.3809
  785SOL    HW2 2355   2.493   0.047   1.313 -2.1218 -0.4519 -0.6200
  786SOL     OW 2356   1.241   2.656   1.521  0.6616  0.1455 -0.0389
  786SOL    HW1 2357   1.334   2.616   1.532 -0.6298 -1.5684  1.8384
  786SOL    HW2 2358   1.173   2.583   1.504 -0.0391 -0.1826 -0.3893
  787SOL     OW 2359   1.668   0.281   1.572  0.2109 -0.4702  0.2522
  787SOL    HW1 2360   1.611   0.292   1.483 -1.4218 -0.7792  0.6280
  787SOL    HW2 2361   1.678   0.186   1.594  2.4065  0.5020 -1.8589
  788SOL     OW 2362   2.866   1.229   0.215  0.5701 -0.0147 -0.1227
  788SOL    HW1 2363   2.926   1.307   0.193  0.7768  1.1786 -0.7640
  788SOL    HW2 2364   2.913   1.156   0.268 -1.1120  0.2739 -0.7829
  789SOL     OW 2365   0.720   1.747   1.727 -0.3182 -0.0233  0.5556
  789SOL    HW1 2366   0.794   1.815   1.745  1.9702 -1.8409 -2.0843
  789SOL    HW2 2367   0.753   1.681   1.654  0.7900  0.9624  0.9838
  790SOL     OW 2368   0.772   0.708   2.442  0.1698 -0.1056 -0.3124
  790SOL    HW1 2369   0.808   0.650   2.520  0.6779  0.2107  1.6873
  790SOL    HW2 2370   0.671   0.711   2.449 -0.2940 -1.1737  1.1942
  791SOL     OW 2371   2.267   0.688   0.619  0.0972 -0.3576 -0.1290
  791SOL    HW1 2372   2.190   0.641   0.571 -0.0712  1.1918  2.1985
  791SOL    HW2 2373   2.274   0.654   0.713  3.3573 -1.3274  0.1988
  792SOL     OW 2374   1.208   2.856   1.699  0.4967 -0.3124  0.1643
  792SOL    HW1 2375   1.184   2.823   1.795  1.5357  0.4392  0.8166
  792SOL    HW2 2376   1.219   2.781   1.635 -0.6325 -0.7450  2.0607
  793SOL     OW 2377   0.275   0.047   0.709  0.0607 -0.3769 -0.3289
  793SOL    HW1 2378   0.244   0.140   0.742  1.9786  0.9803 -0.1372
  793SOL    HW2 2379   0.334   0.056   0.628 -1.6303 -0.5118  2.2975
  794SOL     OW 2380   0.024   0.969   1.961  0.0950  0.1206 -0.5806
  794SOL    HW1 2381   3.043   1.030   2.014  0.9672 -0.2354 -1.0764
  794SOL    HW2 2382   3.044   0.888   1.933  0.4391  0.8592 -2.2661
  795SOL     OW 2383   0.553   2.286   2.242 -0.1870 -0.0890 -0.4913
  795SOL    HW1 2384   0.475   2.357   2.253 -0.1292  1.7133  2.2255
  795SOL    HW2 2385   0.518   2.203   2.198 -1.7945 -0.0777  0.8502
  796SOL     OW 2386   2.407   0.221   2.281 -0.0916 -0.7633  0.2377
  796SOL    HW1 2387   2.387   0.322   2.287 -0.9274  0.7804 -1.0409
  796SOL    HW2 2388   2.336   0.179   2.215 -3.2281 -1.2157 -0.6891
  797SOL     OW 2389   2.427   2.550   2.622 -0.0010 -1.1128 -0.0185
  797SOL    HW1 2390   2.457   2.452   2.633 -0.2015  0.7233 -2.6578
  797SOL    HW2 2391   2.342   2.563   2.676 -0.1227 -0.4138 -1.3529
  798SOL     OW 2392   3.002   0.072   1.981 -0.5028  0.0822 -0.0435
  798SOL    HW1 2393   3.035   0.144   1.915  1.9065 -0.3915  1.0029
  798SOL    HW2 2394   2.963   3.069   1.939 -0.8672  1.4122 -3.3110
  799SOL     OW 2395   0.369   2.365   2.030 -0.7900  0.2993  0.3894
  799SOL    HW1 2396   0.321   2.327   1.942  0.7956 -3.5567  1.9465
  799SOL    HW2 2397   0.452   2.423   2.012 -0.5000  0.2224 -0.5820
  800SOL     OW 2398   0.138   1.940   0.085 -0.5112 -0.3230 -0.4802
  800SOL    HW1 2399   0.190   2.026   0.101 -2.6439  2.3676  0.3548
  800SOL    HW2 2400   0.102   1.905   0.174 -0.5996  0.6060 -0.8082
  801SOL     OW 2401   1.639   1.397   1.244  0.4151  0.7923  0.0631
  801SOL    HW1 2402   1.604   1.429   1.334 -3.0276 -2.1789  0.1926
  801SOL    HW2 2403   1.599   1.450   1.172  3.5484 -2.4436  2.0380
  802SOL     OW 2404   2.963   0.750   0.351  0.3005  0.1966  0.0685
  802SOL    HW1 2405   3.038   0.819   0.337  1.5379  0.4491  0.7512
  802SOL    HW2 2406   2.874   0.799   0.339  1.4105 -0.9103 -1.0949
  803SOL     OW 2407   1.301   1.353   2.029  0.3430  0.6102  0.0709
  803SOL    HW1 2408   1.286   1.406   2.116 -1.9286 -2.0694  0.2223
  803SOL    HW2 2409   1.215   1.352   1.976 -2.6753 -2.5581 -0.7307
  804SOL     OW 2410   1.925   1.459   1.190  0.1189  0.5565 -0.2110
  804SOL    HW1 2411   1.836   1.431   1.234 -0.6186 -0.8381 -0.7536
  804SOL    HW2 2412   1.925   1.417   1.097  2.7494  2.0978  0.3498
  805SOL     OW 2413   2.746   1.875   2.667  0.1576  0.2138 -0.3821
  805SOL    HW1 2414   2.811   1.838   2.599 -0.3955  0.3762  1.8520
  805SOL    HW2 2415   2.658   1.825   2.661  1.6212 -0.2657  1.3450
  806SOL     OW 2416   0.450   2.403   0.148 -0.3035  0.2688 -0.1116
  806SOL    HW1 2417   0.543   2.368   0.132 -0.1157 -0.8358  1.2062
  806SOL    HW2 2418   0.440   2.497   0.123  0.6629 -2.5262 -0.4153
  807SOL     OW 2419   2.191   1.555   2.837  0.2264 -0.0197  0.1135
  807SOL    HW1 2420   2.284   1.600   2.840  0.6689  0.0790 -2.4055
  807SOL    HW2 2421   2.122   1.631   2.825  0.4398 -0.2442 -1.1605
  808SOL     OW 2422   1.251   1.858   1.172  0.2613  0.0005  0.2166
  808SOL    HW1 2423   1.169   1.886   1.117  1.5867  0.9564  0.8483
  808SOL    HW2 2424   1.273   1.934   1.238  3.5974  1.0261 -0.4186
  809SOL     OW 2425   0.073   0.583   0.298 -0.4094  0.1223 -0.5706
  809SOL    HW1 2426   3.069   0.645   0.317 -1.2439  2.1213 -1.0380
  809SOL    HW2 2427   0.155   0.602   0.357  1.5821 -1.3929  1.6667
  810SOL     OW 2428   0.977   1.242   0.266 -0.0859 -0.4113  0.1818
  810SOL    HW1 2429   0.966   1.253   0.367 -0.3998 -0.6509 -2.5576
  810SOL    HW2 2430   0.933   1.320   0.210 -3.5887  2.2335 -3.3813
  811SOL     OW 2431   1.722   2.405   1.127 -0.1597 -0.0138  0.3301
  811SOL    HW1 2432   1.726   2.315   1.175 -0.6343  0.9419  2.3378
  811SOL    HW2 2433   1.745   2.483   1.184  1.8345 -2.9643 -1.4842
  812SOL     OW 2434   1.219   2.864   1.329 -0.0352  0.5625 -0.1111
  812SOL    HW1 2435   1.234   2.805   1.414  0.8781 -1.1016 -0.8003
  812SOL    HW2 2436   1.122   2.895   1.322 -0.0144 -0.8987 -0.8818
  813SOL     OW 2437   0.780   3.077   1.746 -1.0007  0.0746  0.5911
  813SOL    HW1 2438   0.730   0.070   1.689 -4.1643  1.2194 -3.1208
  813SOL    HW2 2439   0.705   3.023   1.797 -0.9818  0.0693 -1.0632
  814SOL     OW 2440   1.148   2.486   2.041  0.0032 -0.2506 -0.3018
  814SOL    HW1 2441   1.200   2.555   2.101 -1.0331  0.7325  0.9231
  814SOL    HW2 2442   1.098   2.422   2.099  0.0724  0.6310 -0.9184
  815SOL     OW 2443   0.532   2.971   2.846  0.2073 -0.1835  0.6554
  815SOL    HW1 2444   0.555   3.024   2.763 -2.5277  1.7364 -0.0334
  815SOL    HW2 2445   0.434   2.973   2.867  2.8042 -0.4411  1.9640
  816SOL     OW 2446   2.259   0.645   2.967 -0.1355 -0.8685  0.3775
  816SOL    HW1 2447   2.227   0.551   2.961 -2.5145  3.6123 -0.5128
  816SOL    HW2 2448   2.289   0.668   3.058  0.3208 -0.1192 -4.5273
  817SOL     OW 2449   2.385   2.404   2.165 -0.0560  0.1190  0.2560
  817SOL    HW1 2450   2.400   2.465   2.086  2.2572 -2.3832 -1.0652
  817SOL    HW2 2451   2.342   2.465   2.239  0.5333  1.3352  0.9727
  818SOL     OW 2452   0.965   0.892   0.408  0.3354 -0.1534 -0.3122
  818SOL    HW1 2453   0.975   0.811   0.354 -2.7241  2.4774  4.2409
  818SOL    HW2 2454   0.880   0.941   0.384  0.6493 -1.9141 -0.3787
  819SOL     OW 2455   1.948   1.220   2.786  0.3725 -0.1963  0.0205
  819SOL    HW1 2456   1.977   1.269   2.698  0.2169  0.0966 -2.8161
  819SOL    HW2 2457   1.965   1.286   2.865  1.4759  0.0055 -0.6626
  820SOL     OW 2458   0.155   1.352   2.660  0.1782 -0.2539 -0.0145
  820SOL    HW1 2459   0.112   1.327   2.573 -0.4156  1.1272 -0.1176
  820SOL    HW2 2460   0.251   1.389   2.642  1.8368 -0.0155  1.7330
  821SOL     OW 2461   0.387   0.048   0.467 -0.4223 -0.3968  0.2918
  821SOL    HW1 2462   0.452   0.125   0.437  0.0079  0.5803  0.6413
  821SOL    HW2 2463   0.428   3.037   0.442  0.9906  0.5464  1.9805
  822SOL     OW 2464   2.424   2.740   2.989  0.0539  0.7454 -0.2113
  822SOL    HW1 2465   2.425   2.641   3.007 -4.3433 -0.4116  2.0377
  822SOL    HW2 2466   2.508   2.768   2.936 -0.8675 -0.2331  1.8830
  823SOL     OW 2467   1.827   3.047   2.420 -0.2043  0.6393  0.3867
  823SOL    HW1 2468   1.793   2.959   2.380  0.6402 -1.8518  1.4772
  823SOL    HW2 2469   1.838   3.040   2.523 -0.7161 -0.9051 -1.1355
  824SOL     OW 2470   2.714   2.374   2.023 -0.3370  0.4215  0.4146
  824SOL    HW1 2471   2.725   2.473   2.018 -2.3661  0.8020  0.9118
  824SOL    HW2 2472   2.691   2.339   2.115 -1.4732 -0.7255  0.5206
  825SOL     OW 2473   2.984   1.937   2.490 -0.0332  0.8069  0.2407
  825SOL    HW1 2474   3.068   1.908   2.444 -2.8737  0.2755  0.3286
  825SOL    HW2 2475   2.930   1.996   2.426 -1.2652  0.3783 -1.1835
  826SOL     OW 2476   1.922   0.688   0.023 -0.3385 -0.3022 -0.1170
  826SOL    HW1 2477   1.910   0.775   0.077 -0.4987  2.2244  0.2705
  826SOL    HW2 2478   1.978   0.711   3.019 -3.2730  0.6730 -1.5789
  827SOL     OW 2479   2.869   1.737   1.699  0.0217 -0.0598  0.1029
  827SOL    HW1 2480   2.883   1.731   1.595 -0.6415  1.3576 -3.8615
  827SOL    HW2 2481   2.783   1.687   1.724 -2.3852 -3.1466  2.6182
  828SOL     OW 2482   2.971   0.194   1.166  0.2562  0.0294 -0.4457
  828SOL    HW1 2483   3.055   0.137   1.140  1.8201  0.9378  2.8086
  828SOL    HW2 2484   2.888   0.135   1.179  0.0800 -0.9370  3.7282
  829SOL     OW 2485   0.783   1.933   2.444 -0.0953 -0.3635 -0.3696
  829SOL    HW1 2486   0.773   2.031   2.417  0.7028  1.5944 -0.6070
  829SOL    HW2 2487   0.689   1.887   2.446 -3.1695 -4.3660 -1.7450
  830SOL     OW 2488   0.579   0.796   1.550 -0.1148  0.1405 -0.2571
  830SOL    HW1 2489   0.659   0.861   1.546 -2.6046 -1.1779  0.2538
  830SOL    HW2 2490   0.596   0.715   1.492  0.5077 -1.8064  1.6157
  831SOL     OW 2491   2.432   1.709   2.833 -0.2183 -0.2943 -0.3457
  831SOL    HW1 2492   2.522   1.691   2.782  1.9672  0.4731 -0.6768
  831SOL    HW2 2493   2.444   1.797   2.885 -2.5498 -1.9230  0.7230
  832SOL     OW 2494   1.927   2.590   3.048 -0.2773  0.9539  0.6078
  832SOL    HW1 2495   1.849   2.586   2.984 -2.8949  2.1693 -2.4157
  832SOL    HW2 2496   2.007   2.645   3.005  2.1457  0.6828  0.6888
  833SOL     OW 2497   0.687   0.273   2.027  0.4143  0.0483  0.2678
  833SOL    HW1 2498   0.650   0.178   2.042  0.9797  2.7651 -1.7910
  833SOL    HW2 2499   0.626   0.338   2.081  2.0461 -0.9988 -1.7570
  834SOL     OW 2500   2.923   0.285   1.442 -0.0293  0.6499 -0.4116
  834SOL    HW1 2501   2.930   0.270   1.342 -0.6689 -0.0079  0.7422
  834SOL    HW2 2502   2.866   0.366   1.466  3.1530 -0.2180 -3.4394
  835SOL     OW 2503   2.579   0.445   0.241 -0.2988 -0.4243 -0.3250
  835SOL    HW1 2504   2.660   0.491   0.208 -2.9335 -0.5927  0.9843
  835SOL    HW2 2505   2.595   0.378   0.314 -0.3693  1.4738  1.1134
  836SOL     OW 2506   1.392   1.839   0.101 -0.0328 -0.4659 -0.1917
  836SOL    HW1 2507   1.414   1.796   0.191 -1.2495 -2.1084 -2.0049
  836SOL    HW2 2508   1.381   1.944   0.103 -1.3442  3.1914  2.2463
  837SOL     OW 2509   2.005   1.797   0.592 -0.3799 -0.7669 -0.1727
  837SOL    HW1 2510   2.105   1.777   0.580  2.5277 -0.4750  0.7729
  837SOL    HW2 2511   1.984   1.893   0.565 -1.6682 -0.6097  1.2829
  838SOL     OW 2512   1.534   0.732   2.317  0.2948  0.1695  0.4360
  838SOL    HW1 2513   1.511   0.669   2.398 -2.2321 -0.4049  1.8910
  838SOL    HW2 2514   1.566   0.826   2.343 -0.8652 -1.4656 -0.5708
  839SOL     OW 2515   0.525   1.272   2.430 -0.3949  0.1664  0.4517
  839SOL    HW1 2516   0.595   1.243   2.499 -0.4115  0.6968 -0.9092
  839SOL    HW2 2517   0.549   1.267   2.333 -2.2003 -2.6619 -0.2656
  840SOL     OW 2518   0.833   1.490   0.380  0.0882 -0.0566  0.3533
  840SOL    HW1 2519   0.931   1.525   0.359 -0.5463  0.6889  0.2123
  840SOL    HW2 2520   0.839   1.413   0.449  1.3346 -0.8529  3.1437
  841SOL     OW 2521   1.673   2.008   0.679 -0.1728 -0.4159 -0.3400
  841SOL    HW1 2522   1.755   2.063   0.707 -1.6761  1.5226 -0.0553
  841SOL    HW2 2523   1.591   2.057   0.718 -0.5671  0.2282 -3.0476
  842SOL     OW 2524   0.476   0.502   0.003  0.3103 -0.2116 -0.2047
  842SOL    HW1 2525   0.477   0.402   0.019  0.2859 -1.7997 -0.6265
  842SOL    HW2 2526   0.560   0.519   3.031 -1.3530  0.7276  1.1327
  843SOL     OW 2527   0.432   0.337   0.820  0.3877  0.0324  0.1552
  843SOL    HW1 2528   0.496   0.377   0.746  3.7917  0.6879 -3.4145
  843SOL    HW2 2529   0.334   0.360   0.802 -2.8170  1.0751  0.1578
  844SOL     OW 2530   2.137   0.195   2.516 -0.5037  0.4027 -0.2752
  844SOL    HW1 2531   2.182   0.114   2.477 -1.4792 -1.6157 -1.0054
  844SOL    HW2 2532   2.044   0.188   2.483 -0.6414 -0.8728  1.5173
  845SOL     OW 2533   0.028   2.469   1.886 -0.4415  0.5563  0.1170
  845SOL    HW1 2534   3.040   2.399   1.910  2.4111  0.0538  2.8860
  845SOL    HW2 2535   0.025   2.503   1.791  0.6224  0.8858  1.4803
  846SOL     OW 2536   2.012   1.359   2.554 -0.2188 -0.2903 -0.8176
  846SOL    HW1 2537   2.111   1.346   2.577  0.8513  0.7221 -1.2546
  846SOL    HW2 2538   1.999   1.372   2.457  0.6670 -0.7634  0.0020
  847SOL     OW 2539   0.653   0.943   1.978  0.0699 -0.0892 -0.4588
  847SOL    HW1 2540   0.646   0.852   1.938 -1.2272 -1.5343 -1.0084
  847SOL    HW2 2541   0.742   0.953   2.028 -3.6524  0.8890 -0.9783
  848SOL     OW 2542   2.528   2.954   2.694 -0.7010  0.1514  0.1934
  848SOL    HW1 2543   2.578   2.911   2.767  2.9570 -0.4899  0.1343
  848SOL    HW2 2544   2.580   3.030   2.656  0.4290 -1.1102  0.7580
  849SOL     OW 2545   0.413   2.694   0.224  0.0821 -0.0080  0.1337
  849SOL    HW1 2546   0.313   2.694   0.208 -0.7602  2.5430  1.0029
  849SOL    HW2 2547   0.460   2.740   0.146  0.6468  1.1839 -1.6657
  850SOL     OW 2548   1.148   2.468   0.589  0.0244  0.3389 -0.1256
  850SOL    HW1 2549   1.089   2.412   0.651  0.0030  0.1274 -2.1673
  850SOL    HW2 2550   1.248   2.447   0.607 -1.7391 -1.1766  0.7802
  851SOL     OW 2551   1.968   0.516   2.731  0.6777  0.3121 -0.2391
  851SOL    HW1 2552   2.013   0.521   2.640 -1.5990  1.2162  0.6363
  851SOL    HW2 2553   1.920   0.604   2.744 -1.0720 -0.8217 -0.0713
  852SOL     OW 2554   1.550   0.039   2.486 -1.0428  0.3130  0.2631
  852SOL    HW1 2555   1.650   0.019   2.503  0.1331  0.2157 -2.1508
  852SOL    HW2 2556   1.493   3.046   2.539 -2.0981 -1.3402  0.9174
  853SOL     OW 2557   3.027   2.565   0.351  0.0436 -0.5285 -0.3798
  853SOL    HW1 2558   3.067   2.515   0.431  0.3692  2.8881 -1.0472
  853SOL    HW2 2559   3.030   2.665   0.362  1.2550  2.4773  0.3667
  854SOL     OW 2560   1.944   0.678   2.426  0.2773  0.2375  0.0438
  854SOL    HW1 2561   1.911   0.704   2.523  1.0135 -1.7189  0.3347
  854SOL    HW2 2562   2.029   0.629   2.434  0.7232  0.5546 -1.8441
  855SOL     OW 2563   0.429   2.522   0.443  0.1837 -0.1652 -0.2680
  855SOL    HW1 2564   0.459   2.590   0.508  0.0210 -0.9605 -0.8571
  855SOL    HW2 2565   0.423   2.550   0.346 -0.5475 -0.9305 -2.2063
  856SOL     OW 2566   0.214   3.024   2.609 -0.9534  0.3985  0.0118
  856SOL    HW1 2567   0.148   0.020   2.589  5.3695 -1.1720 -1.3411
  856SOL    HW2 2568   0.209   3.001   2.708  1.3476  0.7987 -0.7528
  857SOL     OW 2569   1.019   3.038   1.610  0.8984  0.4749 -0.0005
  857SOL    HW1 2570   1.083   2.970   1.647  0.6689 -2.8116 -0.0905
  857SOL    HW2 2571   0.937   3.058   1.662  1.2918  1.7517  0.5648
  858SOL     OW 2572   2.648   2.189   1.617 -0.2834 -0.3948 -0.1973
  858SOL    HW1 2573   2.720   2.121   1.646  1.0450  0.5782  3.0792
  858SOL    HW2 2574   2.564   2.138   1.581 -0.9873 -0.5355  2.5286
  859SOL     OW 2575   1.868   2.252   1.939 -0.1594  0.0399 -0.7825
  859SOL    HW1 2576   1.780   2.202   1.958 -1.4254 -0.1076 -1.3060
  859SOL    HW2 2577   1.945   2.198   1.979  0.0613  3.3422 -1.6032
  860SOL     OW 2578   1.603   0.378   0.390 -0.0504  0.3279 -0.3884
  860SOL    HW1 2579   1.613   0.477   0.367  1.7883 -0.3962 -0.2889
  860SOL    HW2 2580   1.657   0.322   0.321  1.4086 -0.5256  0.3047
  861SOL     OW 2581   2.537   0.563   0.750  0.6439 -0.4508  0.3470
  861SOL    HW1 2582   2.573   0.571   0.655 -1.1333 -0.3377 -0.6814
  861SOL    HW2 2583   2.440   0.531   0.746  2.3750  0.5055  0.7766
  862SOL     OW 2584   1.019   2.965   2.381 -0.0851  0.6189 -0.2773
  862SOL    HW1 2585   1.071   2.945   2.467 -0.9072  2.4948  0.0849
  862SOL    HW2 2586   0.979   2.879   2.341 -0.0431  0.7058 -1.0783
  863SOL     OW 2587   0.490   0.859   1.227 -0.0344 -0.3862 -0.1376
  863SOL    HW1 2588   0.517   0.770   1.266 -2.0573  1.1629 -1.6439
  863SOL    HW2 2589   0.472   0.925   1.303 -0.0221 -1.1989  0.5802
  864SOL     OW 2590   2.907   2.945   1.857 -0.4243  0.1390 -0.4574
  864SOL    HW1 2591   2.987   2.943   1.793 -0.2629  1.7021  1.6618
  864SOL    HW2 2592   2.816   2.918   1.814  0.9269 -0.7223 -0.1222
  865SOL     OW 2593   0.967   1.164   2.946  0.1598 -0.9698 -0.1049
  865SOL    HW1 2594   0.976   1.120   3.038 -1.1280 -0.3859 -1.9318
  865SOL    HW2 2595   0.881   1.218   2.938 -0.5383  0.8185 -1.5087
  866SOL     OW 2596   3.055   0.042   0.049 -0.0715 -0.0310 -0.1786
  866SOL    HW1 2597   3.028   0.075   0.139  2.4938 -0.7078 -0.2952
  866SOL    HW2 2598   0.053   3.060   0.064 -0.8985  1.8604  0.6255
  867SOL     OW 2599   2.915   3.041   2.640 -0.5017  0.8863  0.1020
  867SOL    HW1 2600   2.986   0.019   2.679 -2.8032  0.0301 -1.1895
  867SOL    HW2 2601   2.921   2.943   2.664  0.5697  2.0290 -1.5360
  868SOL     OW 2602   1.435   1.047   0.093  0.2182 -0.0601 -0.8683
  868SOL    HW1 2603   1.490   1.110   0.030  0.7669  0.2124  0.9442
  868SOL    HW2 2604   1.395   0.970   0.045 -0.1126  0.3315  0.7997
  869SOL     OW 2605   0.291   1.608   0.490  0.3997  0.5053 -0.1257
  869SOL    HW1 2606   0.362   1.651   0.553  0.6086  1.8155  4.2612
  869SOL    HW2 2607   0.220   1.559   0.551 -2.3351 -1.1892  0.4744
  870SOL     OW 2608   2.305   1.732   0.595 -0.2289  0.1190  0.0727
  870SOL    HW1 2609   2.388   1.778   0.616  0.5654 -0.3263 -1.6425
  870SOL    HW2 2610   2.311   1.675   0.507  1.5370  0.3271  0.1326
  871SOL     OW 2611   0.996   1.291   0.967  0.3212 -0.2047 -0.0918
  871SOL    HW1 2612   1.032   1.224   0.905 -0.0984  1.1010  2.7977
  871SOL    HW2 2613   0.897   1.276   0.991  0.4902  2.0978 -0.3607
  872SOL     OW 2614   1.299   1.688   2.008 -0.4223 -0.6041 -0.1370
  872SOL    HW1 2615   1.366   1.680   1.931 -0.7269 -0.4037 -2.0734
  872SOL    HW2 2616   1.316   1.775   2.060 -0.0969  0.7323  1.3729
  873SOL     OW 2617   0.937   1.752   2.322  0.0953 -0.2563 -0.0843
  873SOL    HW1 2618   0.882   1.817   2.378 -0.3302 -0.9303 -0.3714
  873SOL    HW2 2619   0.946   1.803   2.233 -0.7342  1.6644  2.3915
  874SOL     OW 2620   1.005   2.309   0.753 -0.6150 -0.3410 -0.1368
  874SOL    HW1 2621   1.068   2.231   0.779  0.5684 -2.1255  1.6796
  874SOL    HW2 2622   0.907   2.285   0.740  0.7858  1.5434  1.7554
  875SOL     OW 2623   2.450   0.290   0.898  0.2468  0.3560 -0.3615
  875SOL    HW1 2624   2.382   0.253   0.834  1.4335  2.2110  0.0166
  875SOL    HW2 2625   2.412   0.354   0.970 -0.3654  2.0707  4.0116
  876SOL     OW 2626   0.740   0.625   0.267  0.3773  0.7647 -0.0931
  876SOL    HW1 2627   0.753   0.597   0.362 -0.8481  1.8733 -1.9382
  876SOL    HW2 2628   0.829   0.645   0.226 -2.3784 -1.3369  2.7953
  877SOL     OW 2629   2.714   0.633   1.264 -0.0369  0.4818  0.1035
  877SOL    HW1 2630   2.681   0.577   1.181 -2.3445 -0.2086 -2.5940
  877SOL    HW2 2631   2.739   0.727   1.244  1.2310  0.5995  0.2807
  878SOL     OW 2632   2.125   2.143   0.854  0.1522 -0.1298 -0.0653
  878SOL    HW1 2633   2.130   2.190   0.943 -0.5461  0.9426 -0.8966
  878SOL    HW2 2634   2.207   2.094   0.833 -0.4243  1.2219  1.1476
  879SOL     OW 2635   2.673   1.743   1.339  0.2325  0.3439 -0.4298
  879SOL    HW1 2636   2.633   1.839   1.342 -2.4083  1.7660  1.1414
  879SOL    HW2 2637   2.601   1.668   1.328 -0.0958  1.0810 -2.0450
  880SOL     OW 2638   1.369   2.594   1.140 -0.2181 -0.2519 -0.0906
  880SOL    HW1 2639   1.371   2.693   1.150 -2.3160 -1.2010  0.4322
  880SOL    HW2 2640   1.276   2.562   1.137  0.4665  2.1290  3.1903
  881SOL     OW 2641   0.732   2.358   0.099  0.2073  0.2149 -0.2378
  881SOL    HW1 2642   0.713   2.257   0.087  0.4181 -1.0546  0.5454
  881SOL    HW2 2643   0.833   2.373   0.095  2.4955 -3.1298 -0.2651
  882SOL     OW 2644   1.729   1.202   1.637  0.0724  0.0024 -0.3642
  882SOL    HW1 2645   1.627   1.204   1.650  0.3634 -0.8925  0.9138
  882SOL    HW2 2646   1.759   1.106   1.643 -0.1780  0.2788  0.8733
  883SOL     OW 2647   1.024   0.027   2.151 -0.1835  0.1283  0.7371
  883SOL    HW1 2648   1.016   3.064   2.243  1.7500  0.7585 -0.6973
  883SOL    HW2 2649   0.986   3.039   2.078 -2.0797 -0.1852 -2.8279
  884SOL     OW 2650   2.954   0.774   3.059 -0.1352 -0.1820 -0.6043
  884SOL    HW1 2651   3.044   0.727   3.072  0.2518  2.9994 -1.0734
  884SOL    HW2 2652   2.911   0.762   2.969 -0.3811  0.5431  3.7501
  885SOL     OW 2653   1.210   1.178   2.826 -0.3179  0.1406  1.1287
  885SOL    HW1 2654   1.250   1.248   2.885  0.5717 -1.1330 -2.3165
  885SOL    HW2 2655   1.113   1.170   2.853  0.5174  3.5539  1.3541
  886SOL     OW 2656   1.482   1.188   2.765 -0.2452 -0.3700  0.5649
  886SOL    HW1 2657   1.539   1.109   2.801 -2.1653  2.3282 -0.3006
  886SOL    HW2 2658   1.389   1.153   2.747  0.5446  0.6146  1.9887
  887SOL     OW 2659   1.001   0.569   1.813  0.1017  0.2110  0.5516
  887SOL    HW1 2660   0.960   0.479   1.838  0.4104 -0.2317 -0.9977
  887SOL    HW2 2661   1.098   0.576   1.846  2.2920 -0.5252  0.5149
  888SOL     OW 2662   2.611   0.624   1.907 -0.3255  0.1425  0.1504
  888SOL    HW1 2663   2.584   0.683   1.981  0.7458  0.3452  0.3981
  888SOL    HW2 2664   2.598   0.667   1.814 -0.1461 -1.0946 -0.8174
  889SOL     OW 2665   0.147   2.967   0.495 -0.2027  0.4037  0.5336
  889SOL    HW1 2666   0.134   2.892   0.566  0.9174 -1.3170 -0.1843
  889SOL    HW2 2667   0.211   3.036   0.532  1.3705 -1.3230  0.8013
  890SOL     OW 2668   2.926   2.148   0.350  0.3025  0.0807 -0.6228
  890SOL    HW1 2669   2.901   2.170   0.445  2.0101  0.2662  1.0784
  890SOL    HW2 2670   2.998   2.077   0.347  1.0407  1.6994 -1.0686
  891SOL     OW 2671   1.071   1.581   2.942 -0.1967 -0.1878 -0.2130
  891SOL    HW1 2672   1.013   1.670   2.930 -0.9679  0.9045 -2.6085
  891SOL    HW2 2673   1.084   1.542   2.849 -0.8891 -1.2189 -2.9038
  892SOL     OW 2674   2.749   3.075   0.819  0.1590  0.0777 -0.4426
  892SOL    HW1 2675   2.652   3.062   0.845  0.1952  0.4714  2.5155
  892SOL    HW2 2676   2.805   2.995   0.845 -2.5819  0.6742  2.1285
  893SOL     OW 2677   0.957   2.976   1.335 -0.5421  0.2057  0.2643
  893SOL    HW1 2678   0.969   2.983   1.436 -2.8452 -0.3056 -1.1117
  893SOL    HW2 2679   0.937   3.062   1.288  0.4238 -2.9485 -0.2181
  894SOL     OW 2680   2.914   1.115   0.567  0.5316  0.5430 -0.1817
  894SOL    HW1 2681   2.958   1.024   0.556 -1.8459  1.5743 -0.4482
  894SOL    HW2 2682   2.866   1.131   0.659 -0.2027 -2.1191  1.5388
  895SOL     OW 2683   2.246   2.624   1.934  0.3351  0.1937 -0.3606
  895SOL    HW1 2684   2.166   2.565   1.965 -0.9541 -0.4484  2.6313
  895SOL    HW2 2685   2.261   2.703   1.994 -0.2418 -3.7169  1.7521
  896SOL     OW 2686   1.080   0.244   1.693  0.4682 -0.1692 -0.4018
  896SOL    HW1 2687   1.055   0.153   1.652  1.0431 -1.5649  0.4377
  896SOL    HW2 2688   1.041   0.261   1.786  0.6470  1.6866  0.8535
  897SOL     OW 2689   1.060   1.756   1.894  0.7070  0.3568 -0.0672
  897SOL    HW1 2690   1.085   1.821   1.814  0.4678 -0.9186 -2.7510
  897SOL    HW2 2691   1.148   1.734   1.942 -3.1338  0.2505 -0.5369
  898SOL     OW 2692   1.731   2.439   1.814  0.4626 -0.0780 -0.7245
  898SOL    HW1 2693   1.779   2.521   1.774 -0.3994 -0.1384 -0.6532
  898SOL    HW2 2694   1.796   2.380   1.863  1.0431  1.1523 -0.1990
  899SOL     OW 2695   1.022   0.567   1.068 -0.1849  0.5296 -0.2247
  899SOL    HW1 2696   1.033   0.556   1.166 -2.6016  0.7252 -0.0183
  899SOL    HW2 2697   1.044   0.659   1.029  1.2609  3.1165  0.5125
  900SOL     OW 2698   1.754   2.478   2.585 -0.7010  0.1563 -0.2309
  900SOL    HW1 2699   1.671   2.425   2.553 -0.4845 -0.2303  0.5217
  900SOL    HW2 2700   1.834   2.417   2.558  1.7492 -0.8134  0.6563
  901SOL     OW 2701   0.740   2.186   2.440 -0.1022  0.5730  0.3590
  901SOL    HW1 2702   0.755   2.254   2.518 -0.1152 -1.2491 -0.1567
  901SOL    HW2 2703   0.680   2.228   2.375  1.4329  0.5873  2.4627
  902SOL     OW 2704   2.140   1.083   0.397 -0.0764  0.2342  0.2491
  902SOL    HW1 2705   2.089   1.154   0.345 -0.9619 -0.0905 -2.5493
  902SOL    HW2 2706   2.085   1.038   0.469  1.0356  0.2768 -0.7544
  903SOL     OW 2707   1.845   0.816   0.434  0.1227 -0.0780 -0.0301
  903SOL    HW1 2708   1.886   0.844   0.348 -0.0644  0.2252 -2.0115
  903SOL    HW2 2709   1.903   0.745   0.481 -0.1480 -3.8225  2.2600
  904SOL     OW 2710   0.832   0.788   2.896 -0.0738  0.4416 -0.0932
  904SOL    HW1 2711   0.892   0.832   2.827 -0.8049  1.3131  1.6081
  904SOL    HW2 2712   0.736   0.809   2.874  1.9566 -0.3487  0.4116
  905SOL     OW 2713   1.960   0.235   0.776 -0.2276 -0.1272 -0.2503
  905SOL    HW1 2714   1.882   0.182   0.739  0.5942  1.7720 -1.0968
  905SOL    HW2 2715   2.015   0.289   0.706  0.7787  0.8622 -0.3608
  906SOL     OW 2716   2.778   2.408   1.471  0.2323 -0.2481  0.4554
  906SOL    HW1 2717   2.750   2.350   1.551  0.9543  2.4134  0.2883
  906SOL    HW2 2718   2.765   2.508   1.493 -2.3202 -1.4033  1.2016
  907SOL     OW 2719   1.113   0.655   0.338  0.0869 -0.5565  0.3905
  907SOL    HW1 2720   1.163   0.622   0.420 -1.8396  0.4206 -0.3370
  907SOL    HW2 2721   1.141   0.613   0.251 -0.2304  0.8400  1.0718
  908SOL     OW 2722   2.002   2.846   1.253  0.4181 -0.4295 -0.2290
  908SOL    HW1 2723   2.043   2.860   1.346 -1.6025  2.2077  2.5957
  908SOL    HW2 2724   1.932   2.920   1.234  1.5673  0.4083 -1.4667
  909SOL     OW 2725   2.303   0.767   1.289 -0.2056  0.0482 -0.1477
  909SOL    HW1 2726   2.318   0.728   1.379  0.4152  2.9041  0.1997
  909SOL    HW2 2727   2.330   0.862   1.285  0.3921 -0.9216 -2.0572
  910SOL     OW 2728   1.181   2.848   1.992  0.3958  0.6484 -0.7702
  910SOL    HW1 2729   1.206   2.939   2.028  0.3067 -0.2413  0.1865
  910SOL    HW2 2730   1.224   2.771   2.048  3.0282  0.2059  1.6510
  911SOL     OW 2731   2.677   0.239   2.358  0.0945 -0.7247  0.2488
  911SOL    HW1 2732   2.581   0.253   2.328  0.3245 -0.5864 -1.5988
  911SOL    HW2 2733   2.730   0.225   2.276 -0.1406 -1.2570  4.0082
  912SOL     OW 2734   2.927   1.423   1.482 -0.4009 -0.1887  0.2901
  912SOL    HW1 2735   2.906   1.520   1.466 -0.3982  1.5900 -2.7165
  912SOL    HW2 2736   3.028   1.406   1.466 -0.5051  0.4306  1.4633
  913SOL     OW 2737   2.860   2.003   1.612  0.0984  0.2235  0.2124
  913SOL    HW1 2738   2.877   1.921   1.679 -0.6270  1.3768  0.4336
  913SOL    HW2 2739   2.947   2.050   1.586 -3.1823 -0.3930 -0.9180
  914SOL     OW 2740   1.991   1.066   1.288  0.9022  0.4697 -0.4883
  914SOL    HW1 2741   1.984   0.966   1.268 -0.8423 -1.9864  2.2989
  914SOL    HW2 2742   2.078   1.090   1.329  0.4102  1.0302  1.6210
  915SOL     OW 2743   1.337   0.563   1.404  0.4073  0.8833 -0.1405
  915SOL    HW1 2744   1.368   0.548   1.498 -1.1906  0.2501 -3.0225
  915SOL    HW2 2745   1.388   0.639   1.359 -1.3030 -0.3891 -1.5958
  916SOL     OW 2746   2.716   2.684   1.432  0.1546  0.6976  0.0000
  916SOL    HW1 2747   2.643   2.645   1.370 -1.8335  2.2569  3.5612
  916SOL    HW2 2748   2.699   2.785   1.441  0.0248 -1.8586  0.4112
  917SOL     OW 2749   2.311   2.133   0.285  0.6742 -0.2370  0.0180
  917SOL    HW1 2750   2.255   2.084   0.217  2.3994 -0.3933 -3.4003
  917SOL    HW2 2751   2.394   2.165   0.237 -2.4889 -1.1031  1.2758
  918SOL     OW 2752   1.944   2.680   2.606  0.4970  0.1111 -0.1029
  918SOL    HW1 2753   1.972   2.697   2.511 -2.7609 -0.8914  4.7755
  918SOL    HW2 2754   1.852   2.633   2.599  4.8346 -1.0625 -1.0455
  919SOL     OW 2755   1.269   2.065   1.361  0.1043  0.3245 -0.0432
  919SOL    HW1 2756   1.317   2.107   1.437 -2.3660  0.3766 -1.2163
  919SOL    HW2 2757   1.168   2.086   1.366  1.4872  0.3112  1.4609
  920SOL     OW 2758   0.262   0.507   2.372  0.0230 -0.1750  0.1073
  920SOL    HW1 2759   0.261   0.411   2.410  1.6879  1.1088 -0.3396
  920SOL    HW2 2760   0.208   0.508   2.285  1.4299 -1.6804  0.3297
  921SOL     OW 2761   2.984   0.755   1.805  0.2669 -0.3341 -0.1692
  921SOL    HW1 2762   2.928   0.676   1.842  0.9880 -0.3713  0.4502
  921SOL    HW2 2763   3.042   0.722   1.728 -3.4124  0.5770  1.7201
  922SOL     OW 2764   1.958   2.029   0.484 -0.0490  0.1261 -0.3721
  922SOL    HW1 2765   1.904   2.118   0.484  0.4433 -0.2789  1.1253
  922SOL    HW2 2766   2.054   2.038   0.456 -1.2898 -1.2443  1.2753
  923SOL     OW 2767   0.852   1.977   2.699 -0.5853 -0.2329 -0.2044
  923SOL    HW1 2768   0.789   1.949   2.618 -0.8382 -1.0215 -0.9580
  923SOL    HW2 2769   0.808   2.055   2.750 -1.1885  0.4951  0.4583
  924SOL     OW 2770   0.894   0.276   0.400 -0.3299  0.1092  0.0173
  924SOL    HW1 2771   0.862   0.197   0.344  1.6930  0.7999 -0.4193
  924SOL    HW2 2772   0.984   0.309   0.365  0.8510 -2.4376 -0.1714
  925SOL     OW 2773   2.430   0.733   0.406 -0.1722 -0.0110 -0.2378
  925SOL    HW1 2774   2.382   0.694   0.490  0.7224 -1.6431  1.1571
  925SOL    HW2 2775   2.499   0.668   0.369  1.8045 -1.7415  1.2429
  926SOL     OW 2776   0.120   0.826   1.012  0.2490  0.5185 -0.2152
  926SOL    HW1 2777   0.152   0.921   1.037  3.4891  2.6317  0.9601
  926SOL    HW2 2778   0.045   0.790   1.075  0.1629 -2.2445  0.8741
  927SOL     OW 2779   3.001   1.221   2.754 -0.1760  0.1744  0.4085
  927SOL    HW1 2780   0.007   1.276   2.734  2.0701  0.9711 -0.0422
  927SOL    HW2 2781   2.920   1.259   2.711  0.8222 -2.6020 -0.0018
  928SOL     OW 2782   2.671   0.643   2.515 -0.0066 -1.0219  0.4702
  928SOL    HW1 2783   2.617   0.564   2.555 -1.2184  0.0895  1.4567
  928SOL    HW2 2784   2.771   0.631   2.530  1.5887 -0.0929  1.8020
  929SOL     OW 2785   2.763   0.038   1.194 -0.1710  0.2998  0.4345
  929SOL    HW1 2786   2.682   0.094   1.220 -0.4295  2.7033 -0.9153
  929SOL    HW2 2787   2.724   3.024   1.179 -0.3441  3.3137  2.2995
  930SOL     OW 2788   1.974   1.330   1.582 -0.3428  0.1936 -0.5926
  930SOL    HW1 2789   1.873   1.303   1.587 -2.3909  0.3980  0.5526
  930SOL    HW2 2790   1.979   1.407   1.517  2.4719 -0.7171 -2.6980
  931SOL     OW 2791   1.589   1.319   0.661 -0.0407  0.1386 -0.4217
  931SOL    HW1 2792   1.624   1.261   0.584  2.4555 -1.5123 -2.2717
  931SOL    HW2 2793   1.597   1.415   0.648  0.2099 -2.9186  2.4089
  932SOL     OW 2794   2.801   1.200   0.810 -0.0978  0.2276  0.0563
  932SOL    HW1 2795   2.726   1.249   0.763  0.2301 -2.7416 -2.1454
  932SOL    HW2 2796   2.773   1.119   0.865  0.3554  0.9647 -0.5089
  933SOL     OW 2797   2.545   2.001   1.257  0.0209 -0.2701 -0.2447
  933SOL    HW1 2798   2.487   2.043   1.182 -1.9309  2.0393 -2.0159
  933SOL    HW2 2799   2.602   2.079   1.298  1.2613  1.3756  0.3267
  934SOL     OW 2800   1.745   0.136   2.147 -0.4002  0.7450 -0.2113
  934SOL    HW1 2801   1.798   0.179   2.223  0.2100 -1.0572 -0.6815
  934SOL    HW2 2802   1.685   0.207   2.105 -0.7230  1.0770  4.5061
  935SOL     OW 2803   0.242   1.576   0.885 -0.3335  0.0696 -0.1836
  935SOL    HW1 2804   0.177   1.542   0.817 -0.7991 -0.8344  4.2454
  935SOL    HW2 2805   0.322   1.624   0.845  2.7405 -3.4710 -0.7925
  936SOL     OW 2806   0.346   0.902   0.603  0.2255 -0.0706  0.3763
  936SOL    HW1 2807   0.290   0.958   0.668 -0.1220 -0.8025 -2.1550
  936SOL    HW2 2808   0.375   0.959   0.524 -1.6463  1.6351  1.6057
  937SOL     OW 2809   2.351   0.028   1.021 -0.6500  0.2311 -0.0778
  937SOL    HW1 2810   2.369   3.024   0.968  1.1016  0.3314 -2.0036
  937SOL    HW2 2811   2.429   0.095   1.015  0.1203  1.0722 -4.4683
  938SOL     OW 2812   2.584   2.088   0.480  0.3776 -0.0163  1.0132
  938SOL    HW1 2813   2.569   1.995   0.430  0.5817 -1.0493 -1.8112
  938SOL    HW2 2814   2.555   2.167   0.420  0.2131  3.8671  1.0683
  939SOL     OW 2815   0.937   1.924   0.179 -0.2150  0.6290  0.2622
  939SOL    HW1 2816   0.901   1.838   0.143  1.5385  1.4688 -2.8251
  939SOL    HW2 2817   0.981   1.901   0.270 -0.0691 -0.7449 -1.1675
  940SOL     OW 2818   2.725   0.090   2.830  0.2075 -0.2510 -0.4871
  940SOL    HW1 2819   2.795   0.079   2.755  0.0134  0.5912  2.8412
  940SOL    HW2 2820   2.654   0.160   2.810 -1.4091 -0.1256 -1.4411
  941SOL     OW 2821   1.434   0.249   2.983 -0.1739  0.0628 -0.5036
  941SOL    HW1 2822   1.391   0.158   2.983  0.1732 -0.4227  2.1410
  941SOL    HW2 2823   1.376   0.324   3.024  0.5296 -0.3208  3.2764
  942SOL     OW 2824   1.191   0.875   1.299  0.6164 -0.3323  0.6603
  942SOL    HW1 2825   1.215   0.967   1.263 -0.5803 -0.6048  0.1526
  942SOL    HW2 2826   1.092   0.857   1.308  0.4824  0.7700  0.8167
  943SOL     OW 2827   1.461   1.152   1.729 -0.2277 -0.0228 -0.6858
  943SOL    HW1 2828   1.458   1.182   1.823  0.1705 -1.8139 -1.7232
  943SOL    HW2 2829   1.374   1.098   1.708 -0.4787 -1.1013  1.5516
  944SOL     OW 2830   1.391   0.816   1.938  0.7860 -0.4254 -0.6096
  944SOL    HW1 2831   1.321   0.866   1.993  0.9024  1.3446  0.4054
  944SOL    HW2 2832   1.473   0.874   1.913  2.1305  2.3560 -0.2182
  945SOL     OW 2833   2.863   3.015   0.265 -0.3689  0.2915  0.0040
  945SOL    HW1 2834   2.803   2.942   0.229 -1.7528  1.7862 -0.8825
  945SOL    HW2 2835   2.843   0.027   0.224  0.3713 -0.1068 -1.5333
  946SOL     OW 2836   2.874   0.523   1.932  0.4545  0.0649  0.3882
  946SOL    HW1 2837   2.896   0.559   2.024  0.4080 -1.3227 -0.0144
  946SOL    HW2 2838   2.775   0.541   1.907 -0.5476 -0.1181  0.6605
  947SOL     OW 2839   0.483   2.883   0.398  0.0310 -0.2021  0.0518
  947SOL    HW1 2840   0.501   2.820   0.477 -0.2761 -1.7265  0.2136
  947SOL    HW2 2841   0.446   2.827   0.325  0.0038 -0.1789  2.7399
  948SOL     OW 2842   2.270   1.176   1.871  0.2475  0.3314  0.0336
  948SOL    HW1 2843   2.256   1.230   1.958  0.6724 -1.8631  3.5308
  948SOL    HW2 2844   2.192   1.110   1.855  2.3674  0.6254  3.3923
  949SOL     OW 2845   0.601   0.825   2.732  0.5085 -0.2780 -0.1279
  949SOL    HW1 2846   0.596   0.856   2.637 -0.7196 -2.7468  3.5664
  949SOL    HW2 2847   0.522   0.770   2.761  0.7095  0.9043 -0.0981
  950SOL     OW 2848   0.675   0.229   1.081 -0.0036 -0.4758  0.0953
  950SOL    HW1 2849   0.613   0.165   1.028 -0.8257  0.9006  1.0984
  950SOL    HW2 2850   0.699   0.314   1.037  1.4699 -1.3425  2.8006
  951SOL     OW 2851   0.964   1.513   2.477  0.2858 -0.6899  0.1421
  951SOL    HW1 2852   0.940   1.589   2.413  0.6532  2.1646  0.5834
  951SOL    HW2 2853   1.026   1.448   2.432  1.8415 -0.5081  1.0520
  952SOL     OW 2854   0.907   1.444   0.060  0.1257 -0.6012 -0.1428
  952SOL    HW1 2855   0.967   1.479   3.063  2.3968  1.0191 -2.4789
  952SOL    HW2 2856   0.838   1.514   0.092 -2.8694 -0.8414 -1.5431
  953SOL     OW 2857   2.327   0.007   2.454  0.1156 -0.6754 -0.0450
  953SOL    HW1 2858   2.369   0.090   2.408  2.6034  2.5688 -0.0045
  953SOL    HW2 2859   2.400   3.033   2.500 -1.8306  1.4612  1.5202
  954SOL     OW 2860   1.698   1.132   0.815 -0.0815 -0.1137  0.0513
  954SOL    HW1 2861   1.706   1.043   0.767 -0.0041 -0.6875 -1.9779
  954SOL    HW2 2862   1.652   1.202   0.759  0.9052 -0.7466  1.1583
  955SOL     OW 2863   0.244   2.133   2.373 -0.1714  0.3071 -0.1151
  955SOL    HW1 2864   0.209   2.218   2.322 -1.4550  1.0805  1.1875
  955SOL    HW2 2865   0.337   2.108   2.346 -0.8209 -0.0705  2.9323
  956SOL     OW 2866   1.775   0.554   2.007 -0.4961  0.0894  0.0537
  956SOL    HW1 2867   1.721   0.582   1.925  1.1727  0.4678  2.0713
  956SOL    HW2 2868   1.798   0.632   2.065  0.7271 -0.5546 -0.9199
  957SOL     OW 2869   1.718   2.008   2.829 -0.1005 -0.2892 -0.6783
  957SOL    HW1 2870   1.698   1.907   2.843 -3.3455  3.1526 -1.5684
  957SOL    HW2 2871   1.692   2.057   2.916 -1.1536 -1.8940  3.6130
  958SOL     OW 2872   0.913   2.266   1.710  0.4567  0.1183  0.5978
  958SOL    HW1 2873   1.017   2.273   1.713 -0.6997 -1.1999 -1.6046
  958SOL    HW2 2874   0.881   2.301   1.620 -0.8545  2.4830 -1.0495
  959SOL     OW 2875   2.047   2.386   2.840  0.4967  0.3975 -0.0725
  959SOL    HW1 2876   2.054   2.380   2.741  0.7121  0.3264 -0.3743
  959SOL    HW2 2877   2.068   2.483   2.865 -4.7708 -0.9105 -1.4879
  960SOL     OW 2878   2.941   0.604   2.498  0.3291 -0.0077 -0.2722
  960SOL    HW1 2879   2.967   0.705   2.478 -1.1668  2.1888  0.7919
  960SOL    HW2 2880   2.979   0.574   2.591  0.3424 -0.4545 -0.6764
  961SOL     OW 2881   0.946   0.903   2.370  0.3906 -0.2689  0.2039
  961SOL    HW1 2882   0.881   0.830   2.395 -0.5778 -1.8237 -1.1953
  961SOL    HW2 2883   1.034   0.865   2.347 -1.3679  0.5629  0.8277
  962SOL     OW 2884   0.737   1.221   2.614  0.4232 -0.1070 -0.1316
  962SOL    HW1 2885   0.696   1.154   2.681 -1.4702 -0.8107  0.9702
  962SOL    HW2 2886   0.827   1.187   2.582 -0.1398  0.4111  1.5057
  963SOL     OW 2887   2.550   2.295   0.315  0.0091 -0.2047 -0.2042
  963SOL    HW1 2888   2.638   2.345   0.315  0.3118 -0.3995 -0.3592
  963SOL    HW2 2889   2.474   2.352   0.346  0.7974 -0.0303  1.9356
  964SOL     OW 2890   1.111   2.554   1.216 -0.1263  0.2046 -0.1180
  964SOL    HW1 2891   1.103   2.525   1.310  3.2448 -0.4547 -3.5949
  964SOL    HW2 2892   1.053   2.632   1.192 -0.0931 -1.1013  0.4775
  965SOL     OW 2893   1.333   1.630   0.563 -0.0449  0.0599  0.1548
  965SOL    HW1 2894   1.429   1.632   0.594 -2.3285  0.8911 -1.4775
  965SOL    HW2 2895   1.273   1.647   0.645 -2.4110  1.9240  3.1639
  966SOL     OW 2896   0.391   1.575   0.232  0.2865  0.0001 -0.2024
  966SOL    HW1 2897   0.349   1.576   0.322  0.4237 -1.2023  1.4852
  966SOL    HW2 2898   0.323   1.614   0.165 -0.5240  1.4924  0.9896
  967SOL     OW 2899   1.869   0.316   1.819 -0.1840  0.1497 -0.0601
  967SOL    HW1 2900   1.908   0.318   1.914  0.3631 -1.0919 -0.3727
  967SOL    HW2 2901   1.771   0.353   1.815 -0.4326 -0.4551  1.2765
  968SOL     OW 2902   1.721   0.866   0.675 -0.3649 -0.3824  0.5669
  968SOL    HW1 2903   1.748   0.845   0.577  0.3785 -0.4956 -2.1237
  968SOL    HW2 2904   1.628   0.827   0.693 -1.1872  0.6661 -2.1931
  969SOL     OW 2905   0.256   1.228   2.372  0.3513 -0.3817  0.4974
  969SOL    HW1 2906   0.239   1.265   2.278  1.5268  2.1559 -1.6919
  969SOL    HW2 2907   0.355   1.232   2.392 -0.4652  0.9157  0.9252
  970SOL     OW 2908   2.281   1.476   1.169  0.0569 -0.4206 -0.1832
  970SOL    HW1 2909   2.250   1.400   1.109  1.7246 -0.6113  0.0134
  970SOL    HW2 2910   2.308   1.557   1.121 -0.9132 -2.0876 -1.0225
  971SOL     OW 2911   0.123   0.060   1.104 -0.1029 -0.2687  0.1118
  971SOL    HW1 2912   0.149   0.158   1.083  0.5662 -0.4122 -2.6306
  971SOL    HW2 2913   0.130   3.070   1.027  0.0466  0.1858 -0.1497
  972SOL     OW 2914   0.398   0.671   2.846 -0.3835  0.3744  0.1091
  972SOL    HW1 2915   0.419   0.610   2.924 -0.4018 -0.4382 -3.5082
  972SOL    HW2 2916   0.355   0.612   2.773 -1.1134 -1.6090 -0.7803
  973SOL     OW 2917   2.956   0.573   0.792  0.0948  0.9663  0.3083
  973SOL    HW1 2918   3.001   0.553   0.704  0.9050  0.8311 -0.7991
  973SOL    HW2 2919   2.948   0.492   0.856 -1.2299 -0.7221 -0.0018
  974SOL     OW 2920   2.207   0.474   2.029 -0.1037 -0.1065 -0.1380
  974SOL    HW1 2921   2.220   0.555   2.091  0.0474  3.3107  0.4157
  974SOL    HW2 2922   2.114   0.430   2.045 -1.0681 -0.0866  0.2232
  975SOL     OW 2923   2.794   0.187   0.165 -0.0705  0.5216 -0.8268
  975SOL    HW1 2924   2.727   0.190   0.243  1.0207 -0.3798  0.2978
  975SOL    HW2 2925   2.865   0.258   0.167  0.0053 -2.4404  1.7657
  976SOL     OW 2926   0.234   1.453   1.310  0.5068  0.2588  0.2549
  976SOL    HW1 2927   0.169   1.380   1.338 -1.0274 -1.2581 -0.8439
  976SOL    HW2 2928   0.235   1.527   1.383 -1.4558 -3.7900 -1.0387
  977SOL     OW 2929   1.027   2.376   0.068 -0.3819 -0.1935  0.0651
  977SOL    HW1 2930   1.105   2.339   0.122 -3.6162 -1.4946 -2.5797
  977SOL    HW2 2931   1.027   2.343   3.053 -0.3983 -0.2332  1.4547
  978SOL     OW 2932   0.395   1.236   2.787 -0.1223 -0.2786  0.4209
  978SOL    HW1 2933   0.324   1.219   2.857 -1.8871  1.6153 -0.5485
  978SOL    HW2 2934   0.482   1.182   2.800  0.8798 -2.0344  0.7520
  979SOL     OW 2935   1.921   1.748   1.163  0.0094  0.1662  0.4518
  979SOL    HW1 2936   1.925   1.646   1.173 -0.3734 -2.5781  1.9041
  979SOL    HW2 2937   1.994   1.789   1.219 -2.3244 -1.1245 -1.7649
  980SOL     OW 2938   0.474   1.415   1.820 -0.2123  0.5793  0.6620
  980SOL    HW1 2939   0.393   1.368   1.786  1.3518  2.2010 -1.4012
  980SOL    HW2 2940   0.516   1.369   1.901 -2.2364 -2.0246  0.3455
  981SOL     OW 2941   2.845   1.549   0.331  0.5649  0.2163 -0.5630
  981SOL    HW1 2942   2.916   1.615   0.352 -3.4425 -1.1349 -0.3760
  981SOL    HW2 2943   2.853   1.465   0.391  1.8894 -0.5326  0.0735
  982SOL     OW 2944   2.486   2.687   2.125 -0.4584 -0.0611 -0.4025
  982SOL    HW1 2945   2.489   2.787   2.109  1.6857 -1.0985  0.5635
  982SOL    HW2 2946   2.581   2.649   2.115 -0.7004 -0.6151  0.0775
  983SOL     OW 2947   1.204   0.244   1.162 -0.1240 -0.1369 -0.3642
  983SOL    HW1 2948   1.212   0.230   1.263  0.2279 -0.7167 -1.1887
  983SOL    HW2 2949   1.230   0.336   1.129 -1.1020 -2.3900 -1.1152
  984SOL     OW 2950   1.291   2.703   3.061 -0.3693  0.4488 -0.1503
  984SOL    HW1 2951   1.373   2.703   3.001  1.3478 -0.6163 -0.6089
  984SOL    HW2 2952   1.315   2.673   0.077  3.1334  1.9142  0.9619
  985SOL     OW 2953   1.842   2.155   1.464  0.4085  0.1006 -0.1664
  985SOL    HW1 2954   1.837   2.084   1.538  2.0330  1.7618 -3.5549
  985SOL    HW2 2955   1.909   2.137   1.387 -0.5679  1.3978 -0.1346
  986SOL     OW 2956   2.242   2.948   2.716  0.0337  0.6798 -0.0885
  986SOL    HW1 2957   2.212   3.014   2.645  0.2928 -0.8252  0.8562
  986SOL    HW2 2958   2.342   2.936   2.711  0.3292 -0.5881 -0.3075
  987SOL     OW 2959   2.877   0.888   2.227 -0.1423 -0.1395 -0.5756
  987SOL    HW1 2960   2.785   0.901   2.279  1.9290  0.3078  2.9235
  987SOL    HW2 2961   2.899   0.976   2.182 -0.8627 -3.5069  2.6098
  988SOL     OW 2962   2.343   0.925   2.726 -0.0651  0.5376  0.1651
  988SOL    HW1 2963   2.259   0.878   2.751  2.7392 -1.0757  3.4168
  988SOL    HW2 2964   2.363   0.909   2.628  0.8758 -0.3727 -2.6600
  989SOL     OW 2965   2.022   1.340   1.844  0.1278 -0.0134 -0.0074
  989SOL    HW1 2966   1.999   1.333   1.745 -0.4216  1.3884  0.3235
  989SOL    HW2 2967   2.110   1.387   1.853 -1.1733 -2.6835 -3.1094
  990SOL     OW 2968   0.343   1.108   0.096 -0.5107 -0.6301  0.1408
  990SOL    HW1 2969   0.428   1.063   0.058  0.7410  0.1671  2.6653
  990SOL    HW2 2970   0.261   1.045   0.088 -2.6295  1.0368 -1.8340
  991SOL     OW 2971   0.308   1.892   2.795 -0.4639 -0.0526  0.0142
  991SOL    HW1 2972   0.262   1.805   2.818  0.4890 -0.7718 -1.4450
  991SOL    HW2 2973   0.334   1.890   2.696  0.7160 -1.4790  1.2776
  992SOL     OW 2974   2.562   2.019   2.073 -0.1352  0.0849 -0.0214
  992SOL    HW1 2975   2.470   2.067   2.068 -0.7793 -0.2397  1.5451
  992SOL    HW2 2976   2.568   1.948   2.003 -1.2370  1.8963 -1.3754
  993SOL     OW 2977   0.172   0.126   0.288 -0.2982  0.1915  0.1235
  993SOL    HW1 2978   0.249   0.103   0.347 -2.8652  0.6254 -0.2907
  993SOL    HW2 2979   0.090   0.137   0.343 -2.5783 -1.1424 -2.3527
  994SOL     OW 2980   0.249   1.631   1.504 -0.1332  0.1733  0.7289
  994SOL    HW1 2981   0.190   1.632   1.588 -0.9426  0.1506 -1.0476
  994SOL    HW2 2982   0.261   1.729   1.473 -1.5200  0.7548  3.1696
  995SOL     OW 2983   1.994   1.763   2.837 -0.1627 -0.4205 -0.7500
  995SOL    HW1 2984   1.891   1.754   2.833 -0.0445  2.3277 -0.8113
  995SOL    HW2 2985   2.020   1.812   2.749 -1.4695  2.5334 -0.6596
  996SOL     OW 2986   1.739   1.504   0.021 -0.0861  0.5948  0.0915
  996SOL    HW1 2987   1.696   1.438   0.079  0.8558  0.3044 -2.7555
  996SOL    HW2 2988   1.668   1.554   3.049  0.3378 -0.8243 -0.0054
  997SOL     OW 2989   1.374   1.417   1.696 -0.2110 -0.0453  0.2735
  997SOL    HW1 2990   1.278   1.435   1.665 -0.1006  1.1956 -1.5554
  997SOL    HW2 2991   1.404   1.319   1.679  1.1446 -0.2096  0.0260
  998SOL     OW 2992   2.613   2.293   1.019 -0.3023  0.0707 -0.2430
  998SOL    HW1 2993   2.575   2.389   1.024  0.5856  0.8475  1.5888
  998SOL    HW2 2994   2.675   2.283   0.940  2.0170 -1.0406  1.2080
  999SOL     OW 2995   2.105   2.326   0.330 -0.7304 -0.0294 -0.8361
  999SOL    HW1 2996   2.103   2.411   0.393 -0.5436  2.2509  0.0160
  999SOL    HW2 2997   2.190   2.278   0.343 -0.2903  3.2438  0.7963
 1000SOL     OW 2998   0.848   2.782   0.124  0.4641 -0.3436  0.1071
 1000SOL    HW1 2999   0.880   2.697   0.077  1.2358 -1.0893  0.3326
 1000SOL    HW2 3000   0.819   2.848   0.053 -0.4945 -0.2547  0.3155
   3.07846   3.07846   3.07846
