1000 SPC/Fw water molecules t=  98.00000 step= 98000
 3000
    1SOL     OW    1   1.878   2.562   0.672 -0.2660  0.6575  0.7321
    1SOL    HW1    2   1.849   2.472   0.709 -3.2512  2.6656 -1.5313
    1SOL    HW2    3   1.888   2.625   0.749  2.7766  1.3462 -0.8747
    2SOL     OW    4   1.206   1.261   2.034  0.0048 -0.1024  0.2040
    2SOL    HW1    5   1.157   1.301   2.118 -1.0295  0.6709  2.2137
    2SOL    HW2    6   1.266   1.323   1.990 -2.3880 -4.2016  1.9460
    3SOL     OW    7   1.339   2.521   2.448 -0.3135  0.4261 -0.0312
    3SOL    HW1    8   1.377   2.540   2.355 -2.3495 -0.7518 -0.5813
    3SOL    HW2    9   1.284   2.436   2.446  0.8405  1.0345 -0.2629
    4SOL     OW   10   1.407   2.073   2.412 -0.0036 -0.3306 -0.0584
    4SOL    HW1   11   1.459   2.032   2.337 -0.9914 -1.2833  2.5141
    4SOL    HW2   12   1.440   2.165   2.445 -2.6146  1.0542  0.1573
    5SOL     OW   13   0.512   0.628   1.761 -0.2468 -0.1854 -0.8069
    5SOL    HW1   14   0.546   0.642   1.858 -0.8640  1.2055 -2.2073
    5SOL    HW2   15   0.586   0.659   1.701  0.8506 -0.3020  0.7410
    6SOL     OW   16   2.015   0.887   2.804 -0.1511  0.2175  0.3197
    6SOL    HW1   17   1.999   0.980   2.762  2.1858  0.0426  0.7946
    6SOL    HW2   18   2.072   0.840   2.735 -0.0775 -0.5838 -1.7666
    7SOL     OW   19   0.577   0.350   1.491  0.2404 -0.2431  0.7607
    7SOL    HW1   20   0.579   0.358   1.593 -1.5953 -0.7571  1.0131
    7SOL    HW2   21   0.488   0.384   1.453  0.4093 -0.2062  0.2436
    8SOL     OW   22   1.747   2.986   1.805  0.3949 -0.3294  0.2378
    8SOL    HW1   23   1.802   3.058   1.852  1.4358  0.6360 -3.0548
    8SOL    HW2   24   1.816   2.930   1.759  1.7200  2.3304  0.3292
    9SOL     OW   25   0.178   0.489   0.562  0.0346  0.3862 -0.1580
    9SOL    HW1   26   0.194   0.414   0.630 -0.4191 -1.1455 -0.4370
    9SOL    HW2   27   0.211   0.580   0.592 -1.4118 -0.8331  0.5646
   10SOL     OW   28   0.613   2.087   2.465 -0.1365  0.0368  0.3650
   10SOL    HW1   29   0.608   2.187   2.435 -2.1099 -0.7090  0.0829
   10SOL    HW2   30   0.591   2.084   2.564 -0.5665 -0.3710  0.8498
   11SOL     OW   31   0.776   1.709   0.101  0.4355 -0.3385  0.0608
   11SOL    HW1   32   0.876   1.723   0.108  0.7413  1.1718  0.2093
   11SOL    HW2   33   0.748   1.616   0.121 -0.8355  4.5114  0.2156
   12SOL     OW   34   0.081   2.772   1.374  0.0944 -0.8331  0.0932
   12SOL    HW1   35   0.041   2.840   1.448  2.1918  1.4654  2.2132
   12SOL    HW2   36   0.053   2.799   1.279  0.7470 -1.5465  0.0418
   13SOL     OW   37   0.822   2.951   0.481 -0.3976  0.7523 -0.1503
   13SOL    HW1   38   0.901   2.882   0.487  2.6011 -3.1058  1.1632
   13SOL    HW2   39   0.838   3.019   0.411  1.2247 -2.6496 -0.5462
   14SOL     OW   40   1.581   1.475   0.872  0.4281  0.0406  0.0593
   14SOL    HW1   41   1.496   1.524   0.891  1.1678 -0.1895  0.0903
   14SOL    HW2   42   1.639   1.480   0.955 -2.4167 -1.7361  1.9037
   15SOL     OW   43   2.947   1.609   2.469  0.1943 -0.1409 -0.7446
   15SOL    HW1   44   2.888   1.575   2.546 -3.0993  2.2206  1.0536
   15SOL    HW2   45   2.938   1.711   2.469  2.4076 -0.6752 -1.1324
   16SOL     OW   46   1.426   0.395   2.616  0.1128  1.0146 -0.0521
   16SOL    HW1   47   1.366   0.454   2.670 -0.7195  0.0235 -1.3931
   16SOL    HW2   48   1.365   0.310   2.594 -1.4277 -0.5576 -1.1620
   17SOL     OW   49   0.325   2.286   2.171  0.2499  0.0272  0.3226
   17SOL    HW1   50   0.363   2.201   2.196 -2.1576 -1.1075 -1.1074
   17SOL    HW2   51   0.225   2.277   2.161  1.0760 -0.3232  0.7432
   18SOL     OW   52   1.156   1.290   0.378 -0.0829 -0.2098 -0.0815
   18SOL    HW1   53   1.143   1.293   0.480 -0.1863  1.6962 -0.7224
   18SOL    HW2   54   1.177   1.194   0.349 -0.9092 -0.2121 -1.6963
   19SOL     OW   55   2.332   1.435   2.509 -0.3059 -0.2217 -0.7252
   19SOL    HW1   56   2.383   1.364   2.565 -0.7846 -0.6318 -0.0106
   19SOL    HW2   57   2.234   1.414   2.501  2.5126  1.7920 -0.8379
   20SOL     OW   58   2.504   2.166   2.419 -0.2991 -0.8962  0.3324
   20SOL    HW1   59   2.518   2.172   2.316 -0.2298 -0.2607 -0.5942
   20SOL    HW2   60   2.524   2.259   2.465  0.3259 -0.7016 -1.5436
   21SOL     OW   61   1.002   2.210   0.070  0.6509 -0.1109 -0.1224
   21SOL    HW1   62   1.042   2.298   0.056  0.8981  0.1519  0.8735
   21SOL    HW2   63   1.060   2.137   0.032 -3.8177  0.7932  0.0890
   22SOL     OW   64   2.388   2.144   1.344 -0.3486 -0.3492  0.2385
   22SOL    HW1   65   2.393   2.245   1.373  0.5589  1.1984  1.0511
   22SOL    HW2   66   2.319   2.121   1.277 -2.5948  2.3010 -0.7769
   23SOL     OW   67   0.284   1.197   1.646 -0.1059  0.3182  0.1901
   23SOL    HW1   68   0.283   1.186   1.749 -2.0382 -1.2680 -0.2485
   23SOL    HW2   69   0.357   1.148   1.596  0.3174 -1.9949  0.5774
   24SOL     OW   70   2.277   1.913   2.053 -0.6957  0.2592 -0.0789
   24SOL    HW1   71   2.187   1.888   2.093  1.9618  0.0800 -2.1567
   24SOL    HW2   72   2.339   1.838   2.080 -0.6706  1.0691 -0.4324
   25SOL     OW   73   1.794   0.693   2.360  0.2553  0.3587 -0.4120
   25SOL    HW1   74   1.719   0.724   2.306  2.0861 -0.1438  1.9067
   25SOL    HW2   75   1.762   0.634   2.439  2.0586 -1.2852 -2.0964
   26SOL     OW   76   1.532   0.302   0.538  0.7821 -0.2159 -0.3957
   26SOL    HW1   77   1.448   0.275   0.589 -2.6667  0.6474 -0.3267
   26SOL    HW2   78   1.588   0.372   0.583 -1.6217 -1.0102 -0.1478
   27SOL     OW   79   0.851   1.789   0.372  0.1273  0.2587 -0.4235
   27SOL    HW1   80   0.771   1.849   0.349 -0.2316  1.6527  0.1514
   27SOL    HW2   81   0.838   1.752   0.467 -1.8124 -1.9709  0.9831
   28SOL     OW   82   2.647   1.770   1.077 -0.1834  0.3500  0.5520
   28SOL    HW1   83   2.610   1.709   1.153 -1.0838 -0.6097 -0.9535
   28SOL    HW2   84   2.589   1.840   1.042  1.7693 -1.8000 -2.8901
   29SOL     OW   85   2.252   2.756   1.669 -0.1038 -0.0414  0.6519
   29SOL    HW1   86   2.178   2.821   1.638 -0.7012  0.0431  0.7518
   29SOL    HW2   87   2.312   2.798   1.742  2.4182 -0.9719  0.4624
   30SOL     OW   88   0.663   3.006   1.302 -0.1086 -0.6567 -0.5311
   30SOL    HW1   89   0.720   2.949   1.241  1.2165 -0.4860 -0.6251
   30SOL    HW2   90   0.698   0.013   1.300  2.0714 -0.8048 -0.1587
   31SOL     OW   91   2.885   2.300   1.886  0.0213  0.4361 -0.0441
   31SOL    HW1   92   2.990   2.311   1.880  1.4900  2.6231  3.2148
   31SOL    HW2   93   2.863   2.351   1.968 -0.9683 -2.2227 -0.6301
   32SOL     OW   94   1.578   1.542   1.724 -0.2908 -0.6640  0.2825
   32SOL    HW1   95   1.504   1.575   1.662  0.5898  3.5000 -1.5461
   32SOL    HW2   96   1.658   1.501   1.674 -0.6290 -1.7969 -0.6961
   33SOL     OW   97   0.217   0.210   2.992  0.2517 -0.0785  0.3787
   33SOL    HW1   98   0.307   0.216   2.966 -2.8525 -1.2553  0.0430
   33SOL    HW2   99   0.205   0.199   0.003 -0.4047  1.6675  0.1342
   34SOL     OW  100   2.289   0.024   1.153 -0.5215 -0.1655  0.3970
   34SOL    HW1  101   2.292   0.126   1.171 -0.0127  2.7252 -2.6783
   34SOL    HW2  102   2.376   3.066   1.178  1.1209 -2.1909 -0.6035
   35SOL     OW  103   2.527   0.036   1.583 -0.6284  0.4899  0.1267
   35SOL    HW1  104   2.489   3.035   1.543 -3.5955 -0.1103 -3.1531
   35SOL    HW2  105   2.627   0.027   1.602  1.4201 -0.7899  0.4984
   36SOL     OW  106   2.584   2.812   2.634 -0.4436 -0.6575  0.2919
   36SOL    HW1  107   2.552   2.865   2.717 -0.3103 -1.1011 -0.6044
   36SOL    HW2  108   2.658   2.744   2.650 -0.3144 -1.9839  0.0736
   37SOL     OW  109   1.094   2.824   0.002  0.6320  0.6009 -0.2136
   37SOL    HW1  110   1.153   2.881   3.043 -3.8032 -3.9569  2.4807
   37SOL    HW2  111   1.145   2.784   0.080  1.5289  0.6447  1.3881
   38SOL     OW  112   2.643   1.110   2.799  0.0759  0.7622  0.0157
   38SOL    HW1  113   2.676   1.120   2.894 -0.1328  1.4184 -0.0736
   38SOL    HW2  114   2.635   1.012   2.774  0.5316  0.1312 -0.5913
   39SOL     OW  115   2.289   2.172   2.041 -0.4160  0.5154  0.0317
   39SOL    HW1  116   2.275   2.066   2.049  1.6071 -0.9034  0.3566
   39SOL    HW2  117   2.209   2.227   2.073  2.3170  0.4420 -2.6713
   40SOL     OW  118   0.309   0.196   2.547 -0.4225 -0.2463 -0.3413
   40SOL    HW1  119   0.315   0.117   2.611 -0.1022 -1.7774  3.3842
   40SOL    HW2  120   0.400   0.227   2.506  0.1661  0.9838  1.3404
   41SOL     OW  121   1.478   1.312   1.455  0.1343 -0.0362  0.0435
   41SOL    HW1  122   1.398   1.354   1.500  0.5313  0.5227 -0.1845
   41SOL    HW2  123   1.482   1.217   1.488 -1.5955 -0.6826 -1.1748
   42SOL     OW  124   0.076   0.250   1.994  0.2599  0.0864  0.4370
   42SOL    HW1  125   0.090   0.297   1.906  1.1762  1.5975  0.8285
   42SOL    HW2  126   3.065   0.233   1.999  1.6814  0.0702 -1.2064
   43SOL     OW  127   1.717   1.478   1.944 -0.4827  0.2039 -0.5938
   43SOL    HW1  128   1.676   1.395   1.988 -2.7721  2.1487  0.0473
   43SOL    HW2  129   1.674   1.499   1.852  0.4407  0.3818  1.1607
   44SOL     OW  130   2.928   0.070   3.076 -0.3998 -0.4595  0.0012
   44SOL    HW1  131   2.932   0.040   2.980 -0.1276 -1.4751 -0.3754
   44SOL    HW2  132   2.911   3.077   0.045  0.0539 -0.8950 -2.1828
   45SOL     OW  133   0.732   1.961   1.213 -0.0207 -0.2327  0.0356
   45SOL    HW1  134   0.671   2.042   1.227  0.6043 -0.0473  0.5200
   45SOL    HW2  135   0.725   1.904   1.296 -0.6027  1.3712 -2.0528
   46SOL     OW  136   2.394   2.873   1.859 -0.5225  0.7237  0.6565
   46SOL    HW1  137   2.378   2.971   1.836  0.9379  0.3717  2.2472
   46SOL    HW2  138   2.494   2.866   1.886  0.0100 -0.9868  2.6415
   47SOL     OW  139   1.045   1.931   1.364  0.4973 -0.3463  0.0762
   47SOL    HW1  140   1.011   2.001   1.299 -0.1130 -0.1935  1.9088
   47SOL    HW2  141   0.989   1.936   1.451  1.2993  1.3593 -0.1749
   48SOL     OW  142   0.333   2.576   0.322 -0.1861 -0.0446  0.4735
   48SOL    HW1  143   0.301   2.594   0.416 -0.6862  2.0819  2.8937
   48SOL    HW2  144   0.336   2.665   0.273  0.3362  0.5795 -0.2579
   49SOL     OW  145   2.900   1.581   1.919  0.3991  0.1239 -0.2626
   49SOL    HW1  146   2.892   1.594   2.020 -1.0132  3.0182 -1.7981
   49SOL    HW2  147   2.806   1.553   1.886  0.3611  0.4498 -2.3295
   50SOL     OW  148   2.118   0.946   0.464 -0.2858 -0.1949 -0.1283
   50SOL    HW1  149   2.087   0.937   0.368  3.5828 -1.2288 -1.5124
   50SOL    HW2  150   2.061   0.892   0.533 -0.5506 -1.1986  2.3580
   51SOL     OW  151   1.191   0.761   0.867  0.3734  0.2879  0.4948
   51SOL    HW1  152   1.193   0.759   0.970  0.6185  1.5623 -1.0277
   51SOL    HW2  153   1.100   0.735   0.834  0.8297 -0.3619  0.1612
   52SOL     OW  154   1.134   1.397   0.131 -0.0503 -0.2650 -0.7961
   52SOL    HW1  155   1.149   1.364   0.232  5.4257 -0.1220  0.6581
   52SOL    HW2  156   1.107   1.494   0.127 -0.0252  0.3598  1.9991
   53SOL     OW  157   0.957   2.419   2.739  0.3186  0.4465 -0.3690
   53SOL    HW1  158   0.942   2.327   2.779  0.1707  0.5223  0.8199
   53SOL    HW2  159   1.052   2.451   2.757 -0.3243 -1.1172 -0.2759
   54SOL     OW  160   1.582   0.674   1.688 -0.3639 -0.0303 -0.1912
   54SOL    HW1  161   1.562   0.575   1.672  0.7043  1.1081 -0.9836
   54SOL    HW2  162   1.602   0.716   1.599  0.6036 -1.0467  0.1572
   55SOL     OW  163   2.455   2.628   0.194 -0.0254 -0.9870  0.2785
   55SOL    HW1  164   2.410   2.548   0.233  1.2477  1.9529  0.5164
   55SOL    HW2  165   2.495   2.679   0.267 -0.4647 -1.3484 -3.4449
   56SOL     OW  166   0.738   2.331   1.885 -0.4687 -0.2787 -0.2604
   56SOL    HW1  167   0.655   2.297   1.931  1.6553  0.4751 -0.3487
   56SOL    HW2  168   0.720   2.390   1.803  0.2623  0.7115 -0.9881
   57SOL     OW  169   1.534   0.928   2.428  0.1634  0.3140 -0.1884
   57SOL    HW1  170   1.519   0.830   2.392 -0.3090 -2.2010  1.3378
   57SOL    HW2  171   1.526   0.922   2.533  2.6307 -0.2905  2.2781
   58SOL     OW  172   2.973   1.161   1.907 -0.0581 -0.7636  0.4479
   58SOL    HW1  173   3.042   1.220   1.857  1.9057  1.5061 -1.5700
   58SOL    HW2  174   2.881   1.199   1.886 -0.8145 -0.5563  1.0023
   59SOL     OW  175   0.532   2.879   2.315  0.1456  0.3902 -0.0901
   59SOL    HW1  176   0.633   2.859   2.294  1.1324 -3.0590  0.6337
   59SOL    HW2  177   0.487   2.791   2.327  1.2671  0.3548 -0.6361
   60SOL     OW  178   2.676   2.120   0.418  0.7892  0.3034  0.3954
   60SOL    HW1  179   2.695   2.019   0.411 -0.5193  0.0852 -1.3220
   60SOL    HW2  180   2.715   2.167   0.334  0.6059 -0.5940  1.2461
   61SOL     OW  181   0.665   2.700   0.465  0.4702  0.0691 -0.5898
   61SOL    HW1  182   0.660   2.690   0.364 -1.0602  0.5834 -0.2102
   61SOL    HW2  183   0.723   2.776   0.498  0.4392  0.9192 -0.9037
   62SOL     OW  184   1.946   2.665   2.684  0.1647  0.5351  0.3561
   62SOL    HW1  185   1.888   2.662   2.603 -0.8070  0.7094  1.3524
   62SOL    HW2  186   2.042   2.640   2.661 -1.6022 -1.6119  3.0623
   63SOL     OW  187   2.058   0.508   3.011  0.2533 -0.2277  0.4650
   63SOL    HW1  188   2.074   0.492   2.912  0.4807 -1.1291 -0.3147
   63SOL    HW2  189   2.001   0.433   3.053  0.5724 -2.4644  0.7443
   64SOL     OW  190   0.792   1.122   2.806 -0.3457 -0.0643 -0.0208
   64SOL    HW1  191   0.862   1.064   2.856  2.7171 -2.1016  1.6080
   64SOL    HW2  192   0.698   1.087   2.815  1.4241 -1.0466 -2.7024
   65SOL     OW  193   1.536   2.982   0.531  0.0383  0.1716  0.4405
   65SOL    HW1  194   1.558   2.886   0.558 -1.5867 -1.4152  1.0685
   65SOL    HW2  195   1.593   3.052   0.580  1.5748  1.9587  1.6797
   66SOL     OW  196   0.649   1.439   1.806 -0.1212  0.0442  0.0941
   66SOL    HW1  197   0.606   1.477   1.889  0.4130 -2.2795 -2.2716
   66SOL    HW2  198   0.717   1.365   1.830 -0.8772 -2.8729 -0.1452
   67SOL     OW  199   2.071   3.019   2.098  0.2916 -0.0537  0.3661
   67SOL    HW1  200   2.131   2.951   2.050 -0.0759 -0.2159 -0.4511
   67SOL    HW2  201   2.124   0.005   2.138 -1.2265 -1.2325 -2.0735
   68SOL     OW  202   0.734   0.682   1.614 -0.4441  0.9387 -0.0684
   68SOL    HW1  203   0.804   0.762   1.626  2.1654  1.9664 -2.1656
   68SOL    HW2  204   0.725   0.649   1.515  0.6575 -0.3863 -1.8455
   69SOL     OW  205   2.036   2.665   0.254 -0.2249 -0.2338  0.0041
   69SOL    HW1  206   2.088   2.708   0.329 -0.8546 -2.6014 -0.3308
   69SOL    HW2  207   2.094   2.665   0.169  0.8679 -2.0626 -2.1460
   70SOL     OW  208   2.422   0.688   2.704  0.4369 -0.4027  0.4023
   70SOL    HW1  209   2.502   0.747   2.711 -2.0221 -2.1186  0.7173
   70SOL    HW2  210   2.416   0.629   2.787 -0.0175  0.2554 -1.0128
   71SOL     OW  211   2.957   2.099   0.285  0.5191  0.4570 -0.0570
   71SOL    HW1  212   3.005   2.029   0.228 -1.6211  1.6608  1.4008
   71SOL    HW2  213   2.877   2.147   0.243  0.9866  0.1621 -0.4139
   72SOL     OW  214   0.035   1.849   0.528 -0.1249  0.7218  0.0505
   72SOL    HW1  215   0.001   1.931   0.578  1.0221 -2.4678  0.9262
   72SOL    HW2  216   0.024   1.763   0.582  1.5206 -1.1196  1.5673
   73SOL     OW  217   0.915   0.754   0.506 -0.0034 -0.1933 -0.3773
   73SOL    HW1  218   0.824   0.728   0.465  0.3887 -1.8925 -0.4511
   73SOL    HW2  219   0.919   0.848   0.540 -0.1650 -0.1124 -2.3962
   74SOL     OW  220   0.197   1.732   2.011 -0.6108  0.0862  0.2192
   74SOL    HW1  221   0.266   1.716   2.083  0.5608  1.0916 -0.2956
   74SOL    HW2  222   0.231   1.811   1.952 -0.8059  0.2588 -3.8890
   75SOL     OW  223   1.813   1.646   1.325  0.3600 -0.2092 -0.0431
   75SOL    HW1  224   1.913   1.625   1.337  0.5934 -0.5770 -0.7350
   75SOL    HW2  225   1.784   1.595   1.242  1.7040 -0.0930  0.6764
   76SOL     OW  226   1.862   2.067   0.874  0.1187 -0.1700 -0.2894
   76SOL    HW1  227   1.867   2.009   0.955  1.1211 -0.1496  0.1562
   76SOL    HW2  228   1.935   2.042   0.809 -2.2244  0.7464  0.2164
   77SOL     OW  229   2.443   1.670   1.861  0.2943 -0.1442 -0.1223
   77SOL    HW1  230   2.429   1.667   1.956 -1.0124 -1.4619 -1.6155
   77SOL    HW2  231   2.466   1.766   1.829 -0.6872  1.0062 -1.8557
   78SOL     OW  232   1.485   0.896   0.579  0.3115 -0.4861  0.2343
   78SOL    HW1  233   1.414   0.825   0.565 -2.4750  0.6284  1.5764
   78SOL    HW2  234   1.577   0.850   0.571 -1.0791 -0.8392  2.5874
   79SOL     OW  235   2.189   1.853   1.525  0.1621 -0.3857  0.0808
   79SOL    HW1  236   2.274   1.803   1.510 -3.2101  0.9539  0.1034
   79SOL    HW2  237   2.200   1.937   1.583 -1.6510  0.0525 -0.6554
   80SOL     OW  238   1.108   0.408   1.237 -0.3865  0.0440  0.2407
   80SOL    HW1  239   1.077   0.411   1.332  0.6858 -0.8611  1.2480
   80SOL    HW2  240   1.158   0.322   1.219  0.6037  1.4882 -1.4675
   81SOL     OW  241   0.452   2.253   0.713  0.8233 -0.0881  0.4640
   81SOL    HW1  242   0.482   2.169   0.770  2.7871 -3.2491  1.3892
   81SOL    HW2  243   0.497   2.247   0.618  2.9274 -0.6080 -0.2154
   82SOL     OW  244   1.188   0.240   1.554 -0.0637 -0.5642  0.3348
   82SOL    HW1  245   1.161   0.234   1.654  0.8989 -1.9012 -2.1646
   82SOL    HW2  246   1.239   0.322   1.533 -1.3923 -0.8193 -1.2613
   83SOL     OW  247   0.864   1.683   0.622  0.2045 -0.2641 -0.3815
   83SOL    HW1  248   0.802   1.714   0.698  3.3640 -3.4193  0.6065
   83SOL    HW2  249   0.906   1.597   0.656 -0.7875  0.4187  0.7718
   84SOL     OW  250   2.690   1.208   0.105  0.5502  0.6265  0.2104
   84SOL    HW1  251   2.598   1.206   0.059 -2.5689 -1.6123 -1.2850
   84SOL    HW2  252   2.746   1.139   0.060  1.0891  1.1303  0.8733
   85SOL     OW  253   0.059   2.523   1.232  0.2339  0.0682 -0.5379
   85SOL    HW1  254   0.075   2.606   1.284 -1.1562 -0.9215  2.6583
   85SOL    HW2  255   3.086   2.460   1.279 -0.8609  1.4996 -1.5547
   86SOL     OW  256   1.780   2.649   0.913  0.6141 -0.3853  0.5750
   86SOL    HW1  257   1.842   2.582   0.960 -0.7313  0.3589  1.7652
   86SOL    HW2  258   1.684   2.616   0.900 -0.8269  0.7605 -2.3476
   87SOL     OW  259   3.057   1.655   0.689  0.0666  0.2117 -0.1419
   87SOL    HW1  260   2.993   1.642   0.768  2.9132  2.1136 -0.1277
   87SOL    HW2  261   3.048   1.576   0.621 -0.0613 -1.7922 -3.2432
   88SOL     OW  262   0.791   0.601   1.320 -0.3406 -0.0072  0.6223
   88SOL    HW1  263   0.818   0.595   1.221  2.6686 -0.3084  0.0764
   88SOL    HW2  264   0.862   0.561   1.381 -0.3985  0.7040  0.6043
   89SOL     OW  265   0.828   2.706   1.952  0.0751 -0.7662  0.9861
   89SOL    HW1  266   0.791   2.749   1.862  1.2717  2.7120 -2.4941
   89SOL    HW2  267   0.756   2.654   2.005  1.4360  0.6324  1.9995
   90SOL     OW  268   0.012   1.750   1.294  0.1213 -0.4224  0.7240
   90SOL    HW1  269   0.098   1.736   1.249 -0.3573  1.7509  1.4196
   90SOL    HW2  270   3.029   1.799   1.239  0.6680 -0.6289 -0.3368
   91SOL     OW  271   1.127   2.038   0.883 -0.4576  0.0391  0.2025
   91SOL    HW1  272   1.158   2.133   0.871 -0.7805 -0.3234  0.3840
   91SOL    HW2  273   1.065   2.009   0.803 -0.7269  1.2475  0.1034
   92SOL     OW  274   2.819   2.797   1.403 -0.4018 -0.7279  0.5476
   92SOL    HW1  275   2.763   2.835   1.323 -2.3173  1.4518 -0.4512
   92SOL    HW2  276   2.893   2.858   1.438  0.7967  0.2124 -0.7378
   93SOL     OW  277   2.970   1.217   2.981 -0.2718  0.4850  0.0769
   93SOL    HW1  278   3.031   1.208   2.904  0.3031 -1.2668  3.2987
   93SOL    HW2  279   2.923   1.127   2.997 -0.1528 -1.2966 -0.6107
   94SOL     OW  280   2.694   2.855   1.897  0.2256  0.3120 -0.3309
   94SOL    HW1  281   2.734   2.774   1.948 -0.0580 -0.7386 -2.4095
   94SOL    HW2  282   2.716   2.938   1.949 -3.0707  0.9681  1.7875
   95SOL     OW  283   1.384   0.602   1.859  0.1490 -1.1238 -0.2510
   95SOL    HW1  284   1.397   0.508   1.894 -0.6983  0.2351  0.7746
   95SOL    HW2  285   1.447   0.627   1.786 -0.2577  0.3943  1.7108
   96SOL     OW  286   2.625   0.361   1.747 -0.5896  0.1937  0.0254
   96SOL    HW1  287   2.643   0.419   1.665  0.6544 -1.1153 -0.9896
   96SOL    HW2  288   2.703   0.296   1.755 -2.6276 -0.2488 -1.2012
   97SOL     OW  289   2.406   2.879   1.484 -0.4127 -0.3478 -0.3962
   97SOL    HW1  290   2.476   2.808   1.513 -0.3364  1.5679 -0.7028
   97SOL    HW2  291   2.317   2.857   1.521  1.5075 -1.2819  2.0671
   98SOL     OW  292   2.101   2.681   1.333 -0.0837  0.3814 -0.1730
   98SOL    HW1  293   2.160   2.609   1.376  0.2987  0.4450  0.8103
   98SOL    HW2  294   2.025   2.708   1.392  2.6574  0.9720  0.2333
   99SOL     OW  295   2.639   0.284   2.017  0.5059 -0.4666 -0.2371
   99SOL    HW1  296   2.732   0.277   2.060 -0.4356  0.9835  0.6765
   99SOL    HW2  297   2.635   0.350   1.939  0.4754  1.0424  1.1635
  100SOL     OW  298   2.012   1.555   1.733  0.1995  0.0966 -0.2543
  100SOL    HW1  299   1.994   1.646   1.777 -0.3929 -1.1755 -0.4100
  100SOL    HW2  300   2.008   1.478   1.800  0.6029 -1.0109  1.0028
  101SOL     OW  301   1.904   0.393   0.420 -0.4210 -0.0741 -0.3367
  101SOL    HW1  302   1.912   0.293   0.438 -0.5479  1.1938 -1.5971
  101SOL    HW2  303   1.995   0.434   0.418 -2.8444 -0.0738 -0.1703
  102SOL     OW  304   0.508   0.660   1.291 -0.4905  0.9543  0.2238
  102SOL    HW1  305   0.439   0.600   1.257  1.3200 -0.0692  0.6874
  102SOL    HW2  306   0.600   0.611   1.308  1.3033  1.6851  1.3950
  103SOL     OW  307   2.513   0.171   2.761  0.3819 -0.0589 -0.2335
  103SOL    HW1  308   2.593   0.188   2.822 -0.4323  1.2193 -0.6371
  103SOL    HW2  309   2.452   0.251   2.766  1.3714 -0.7747  0.1360
  104SOL     OW  310   2.972   2.989   1.840  0.5235  0.0126  0.1919
  104SOL    HW1  311   3.059   3.026   1.797  1.3498  1.0324 -3.2816
  104SOL    HW2  312   2.975   2.890   1.852  2.5728 -1.0375 -3.6373
  105SOL     OW  313   1.547   0.759   2.014  0.5831  0.2468 -0.3216
  105SOL    HW1  314   1.499   0.715   1.935 -0.9984 -1.0445 -1.3784
  105SOL    HW2  315   1.593   0.688   2.066 -3.4363  4.5525  0.6865
  106SOL     OW  316   1.803   0.384   0.835 -0.1917  0.1446  0.2017
  106SOL    HW1  317   1.828   0.287   0.868  0.2126 -4.3162  1.4977
  106SOL    HW2  318   1.705   0.409   0.861 -1.8678  2.3685 -0.8008
  107SOL     OW  319   0.869   1.156   1.391 -0.0433  0.3710  0.5275
  107SOL    HW1  320   0.824   1.145   1.482 -1.0602  2.1179  0.2247
  107SOL    HW2  321   0.872   1.073   1.332 -1.7033 -0.4404  1.7782
  108SOL     OW  322   2.986   0.570   2.752 -0.1095 -0.1564 -0.2490
  108SOL    HW1  323   2.965   0.473   2.744  0.2844  0.2820  0.2362
  108SOL    HW2  324   3.065   0.584   2.818  1.7930  1.0873  1.4929
  109SOL     OW  325   1.928   0.116   0.206 -0.5933 -0.7487 -0.2346
  109SOL    HW1  326   1.886   0.026   0.187  0.3067 -0.1543 -2.6477
  109SOL    HW2  327   2.021   0.101   0.246  0.7215  2.9382 -2.6289
  110SOL     OW  328   3.085   1.893   2.905 -0.6584 -0.3630 -0.2522
  110SOL    HW1  329   0.016   1.963   2.973  0.5822 -2.9880 -1.9582
  110SOL    HW2  330   0.018   1.798   2.936 -0.3331  0.0916  1.0522
  111SOL     OW  331   2.282   0.198   2.404 -0.4657 -0.3506  0.4677
  111SOL    HW1  332   2.273   0.124   2.337 -0.2493 -1.2246 -0.1943
  111SOL    HW2  333   2.370   0.189   2.458  0.7986 -0.8135  0.0252
  112SOL     OW  334   2.518   3.000   1.271 -0.1164 -0.1372  0.7160
  112SOL    HW1  335   2.502   2.946   1.191  0.7791 -0.1351  2.5781
  112SOL    HW2  336   2.468   2.958   1.352 -2.6906 -2.3852  4.3173
  113SOL     OW  337   2.522   2.484   2.099 -0.2353  0.0674 -0.6186
  113SOL    HW1  338   2.528   2.489   1.998  0.6745  0.2814  0.1453
  113SOL    HW2  339   2.427   2.516   2.133 -1.8859 -1.1561  0.2804
  114SOL     OW  340   2.737   3.080   0.613 -0.0082 -0.0257 -0.8842
  114SOL    HW1  341   2.767   0.085   0.633  0.9500  1.0272  0.6750
  114SOL    HW2  342   2.637   3.059   0.628 -1.1705 -0.9813 -0.3227
  115SOL     OW  343   2.852   1.656   0.107  0.2037  0.3809  0.0099
  115SOL    HW1  344   2.911   1.727   0.150  0.0501  1.8175  2.0498
  115SOL    HW2  345   2.830   1.577   0.164  0.7689 -3.9702  2.4121
  116SOL     OW  346   0.104   1.461   2.030 -0.2006  0.2081  0.1403
  116SOL    HW1  347   0.128   1.557   2.021 -0.7060 -2.0563 -0.5624
  116SOL    HW2  348   0.066   1.425   1.941 -2.5083  0.9552  0.4351
  117SOL     OW  349   2.488   2.825   1.046  0.1711  0.5248  0.0256
  117SOL    HW1  350   2.572   2.767   1.032  1.5202 -1.4839 -2.2360
  117SOL    HW2  351   2.408   2.768   1.075 -1.7935  0.1906  0.3901
  118SOL     OW  352   0.280   2.206   1.772 -0.0537 -0.0630  0.3714
  118SOL    HW1  353   0.226   2.151   1.710 -0.9575  1.1797  1.1733
  118SOL    HW2  354   0.350   2.256   1.710  2.5385  2.2803 -2.3542
  119SOL     OW  355   1.286   2.149   1.229  0.1322  0.4683 -0.3366
  119SOL    HW1  356   1.192   2.174   1.263 -0.9139  2.4612 -0.2378
  119SOL    HW2  357   1.290   2.054   1.192  2.0268  0.6979 -1.2799
  120SOL     OW  358   0.376   1.852   1.493 -0.4212 -0.4456  0.0928
  120SOL    HW1  359   0.303   1.836   1.559  1.4686  0.9950  2.1576
  120SOL    HW2  360   0.448   1.909   1.537 -0.0480  2.5610  0.0305
  121SOL     OW  361   2.636   1.402   0.944  0.2595  0.2101  0.6960
  121SOL    HW1  362   2.655   1.450   1.030  2.5138 -2.1580  0.6320
  121SOL    HW2  363   2.558   1.440   0.889 -0.8796 -1.2663  1.5055
  122SOL     OW  364   2.067   1.672   2.473 -0.3890  0.2003 -0.0991
  122SOL    HW1  365   2.024   1.654   2.564  1.0450  1.4984  1.1246
  122SOL    HW2  366   2.111   1.766   2.464  1.3415  2.8566  0.0217
  123SOL     OW  367   2.583   2.702   0.671  0.3893 -0.7921 -0.2204
  123SOL    HW1  368   2.681   2.718   0.701 -0.1557  1.3560  0.1372
  123SOL    HW2  369   2.547   2.622   0.720 -0.6871 -2.3594  0.2507
  124SOL     OW  370   1.298   1.256   2.847  0.3195  0.1051  0.0909
  124SOL    HW1  371   1.243   1.297   2.922 -2.0354  1.5806 -1.7514
  124SOL    HW2  372   1.311   1.309   2.759  1.9175  0.5410 -2.2032
  125SOL     OW  373   0.235   1.504   2.803 -0.2710  0.2354  0.2902
  125SOL    HW1  374   0.252   1.574   2.734  1.7938 -1.0532  0.4057
  125SOL    HW2  375   0.310   1.432   2.812 -3.3529 -3.2335  0.9974
  126SOL     OW  376   0.020   2.323   0.341 -0.0674  0.0048 -0.0799
  126SOL    HW1  377   0.112   2.287   0.370 -1.2816 -0.9926 -0.5357
  126SOL    HW2  378   3.040   2.253   0.325 -0.3983 -0.1329  2.9908
  127SOL     OW  379   0.373   1.555   0.873  0.5163  0.3172 -0.0785
  127SOL    HW1  380   0.355   1.456   0.888  2.3941  1.0863  0.0944
  127SOL    HW2  381   0.310   1.588   0.800  0.3816  0.1814  2.3308
  128SOL     OW  382   1.421   1.153   0.090  0.4898 -0.4821 -0.2119
  128SOL    HW1  383   1.509   1.180   0.137  1.2098  1.5515 -1.6429
  128SOL    HW2  384   1.358   1.106   0.151  1.4186  1.5131 -0.8200
  129SOL     OW  385   2.248   1.761   1.231 -0.0074  0.0063  0.3979
  129SOL    HW1  386   2.214   1.857   1.236 -2.4434  2.6478  0.8733
  129SOL    HW2  387   2.317   1.741   1.298 -1.6782 -3.4197  1.0783
  130SOL     OW  388   1.880   1.280   0.337  0.2879 -0.1517 -0.3182
  130SOL    HW1  389   1.946   1.235   0.273  0.0617 -1.9192 -2.7667
  130SOL    HW2  390   1.853   1.219   0.414  1.2705  0.0321 -2.6981
  131SOL     OW  391   2.813   1.308   2.599  0.3261  0.5073 -0.0940
  131SOL    HW1  392   2.787   1.233   2.663 -0.0143 -0.6633 -1.8032
  131SOL    HW2  393   2.817   1.400   2.643 -0.2331  2.1807  0.6189
  132SOL     OW  394   1.945   1.848   1.810  0.4040  0.7130  0.6254
  132SOL    HW1  395   1.982   1.920   1.869 -2.6743 -0.4532  1.0612
  132SOL    HW2  396   1.936   1.871   1.708  0.1245 -1.1792  0.0503
  133SOL     OW  397   0.152   1.341   0.088 -0.5037  0.1368 -1.0298
  133SOL    HW1  398   0.081   1.344   0.023  1.6129 -0.6761  3.1685
  133SOL    HW2  399   0.140   1.268   0.158  1.2431  0.6282  2.3220
  134SOL     OW  400   2.770   1.086   0.675  0.2904 -0.3725  0.9517
  134SOL    HW1  401   2.785   1.132   0.764 -0.3994  1.9712  0.2037
  134SOL    HW2  402   2.783   1.150   0.596  0.3226  2.3416 -1.0039
  135SOL     OW  403   2.435   0.992   0.301  0.3807  0.3132  0.1165
  135SOL    HW1  404   2.391   1.086   0.309 -2.6992  2.0615  2.1006
  135SOL    HW2  405   2.363   0.920   0.307  1.5499  1.1756  0.5548
  136SOL     OW  406   1.899   1.818   1.525 -0.0794  1.1709  0.3238
  136SOL    HW1  407   1.999   1.801   1.511  1.6611 -4.0779 -3.0642
  136SOL    HW2  408   1.851   1.771   1.449 -1.0778  0.1978 -0.6846
  137SOL     OW  409   2.608   2.192   0.661  0.0163  0.6439  0.1713
  137SOL    HW1  410   2.644   2.157   0.570  1.1804  1.1179 -1.4433
  137SOL    HW2  411   2.649   2.142   0.740 -0.4729  1.6913 -1.4272
  138SOL     OW  412   2.107   0.216   1.781 -0.1985  0.5712 -0.0115
  138SOL    HW1  413   2.056   0.249   1.697 -2.1339 -1.5274 -3.6791
  138SOL    HW2  414   2.189   0.274   1.793 -1.2648 -1.2276  1.3749
  139SOL     OW  415   2.573   0.135   0.071 -0.1060 -0.2366 -0.2101
  139SOL    HW1  416   2.522   0.051   0.042  0.6772  0.0863  0.3774
  139SOL    HW2  417   2.603   0.128   0.172  0.6456  0.9065 -0.1759
  140SOL     OW  418   1.387   1.732   2.463  0.3284 -0.1112 -0.2633
  140SOL    HW1  419   1.364   1.689   2.374  0.3437 -0.5918  0.4962
  140SOL    HW2  420   1.296   1.750   2.506 -1.3049  0.5596 -1.3842
  141SOL     OW  421   0.646   0.740   2.028 -0.1396  0.1012  0.0664
  141SOL    HW1  422   0.544   0.733   2.037  2.2499 -0.6915  0.8799
  141SOL    HW2  423   0.675   0.840   2.022  0.1552  1.4426  2.0541
  142SOL     OW  424   2.231   2.627   2.848 -0.0364  0.0667 -0.3456
  142SOL    HW1  425   2.254   2.639   2.945 -1.3570 -0.7068 -1.9775
  142SOL    HW2  426   2.198   2.713   2.809 -0.3251 -1.0118 -1.9693
  143SOL     OW  427   1.025   2.015   0.385 -0.1636 -0.3274  0.2408
  143SOL    HW1  428   0.971   2.101   0.376  1.2848 -0.4564 -0.8769
  143SOL    HW2  429   0.978   1.929   0.356  0.9659  0.3723  2.8708
  144SOL     OW  430   0.938   2.552   0.286  0.5127  0.0564  0.6878
  144SOL    HW1  431   0.958   2.460   0.331  1.7209 -1.2292  1.0517
  144SOL    HW2  432   0.875   2.548   0.210  1.1197  0.5216  0.6543
  145SOL     OW  433   1.721   2.061   2.651 -0.3990  0.3827 -0.7080
  145SOL    HW1  434   1.746   2.068   2.748  0.0918  0.8701 -1.4622
  145SOL    HW2  435   1.680   1.971   2.638  3.0207 -1.9813 -0.4839
  146SOL     OW  436   2.638   2.451   3.063 -0.5125 -0.2029  0.8653
  146SOL    HW1  437   2.652   2.507   2.980  1.5668  0.1220  2.6782
  146SOL    HW2  438   2.552   2.395   3.058  0.9100  1.6380 -1.5641
  147SOL     OW  439   0.111   1.335   1.303 -0.0844 -0.2401 -1.2209
  147SOL    HW1  440   0.164   1.411   1.344  0.1110 -0.5394  0.1457
  147SOL    HW2  441   0.030   1.378   1.267  1.0461 -2.1705  0.5359
  148SOL     OW  442   1.868   2.939   0.144  0.4870  0.3474  0.2502
  148SOL    HW1  443   1.836   2.845   0.166 -0.7742 -0.9364  1.3203
  148SOL    HW2  444   1.859   2.964   0.047  1.5550  0.0280  1.0284
  149SOL     OW  445   0.739   1.785   2.674 -0.1428 -0.0700 -0.1903
  149SOL    HW1  446   0.645   1.813   2.653  1.0214 -0.3527 -0.6555
  149SOL    HW2  447   0.751   1.756   2.773 -0.8157  0.5072  1.3743
  150SOL     OW  448   0.244   2.405   0.614 -0.4107 -0.6574  0.0288
  150SOL    HW1  449   0.221   2.361   0.526  0.5322  2.2630  1.5999
  150SOL    HW2  450   0.321   2.353   0.661  1.1256 -0.8437  2.6248
  151SOL     OW  451   0.478   1.445   0.287 -0.4648  0.2022 -0.0652
  151SOL    HW1  452   0.422   1.375   0.334 -1.8556  1.2946 -0.7055
  151SOL    HW2  453   0.442   1.465   0.195 -0.9551 -0.6562  0.9897
  152SOL     OW  454   2.679   1.775   0.629 -0.5908 -0.3602 -0.7065
  152SOL    HW1  455   2.602   1.820   0.685 -1.1079  0.1072 -1.1000
  152SOL    HW2  456   2.709   1.827   0.549  2.5420 -0.0676  0.3995
  153SOL     OW  457   2.071   2.497   0.462  0.0273 -0.0933  0.5079
  153SOL    HW1  458   2.049   2.562   0.383 -0.1266  2.0976  0.2427
  153SOL    HW2  459   1.999   2.513   0.531  0.0269 -0.8816  0.1182
  154SOL     OW  460   0.802   2.710   0.874 -0.3302 -0.8113  0.0572
  154SOL    HW1  461   0.808   2.803   0.837  3.4647 -1.2856  1.9393
  154SOL    HW2  462   0.711   2.666   0.854 -0.8774  2.2162 -0.3563
  155SOL     OW  463   0.054   1.854   0.952  0.5767 -0.3671  0.3645
  155SOL    HW1  464   0.127   1.846   1.022 -0.4699 -3.6662 -0.5691
  155SOL    HW2  465   0.089   1.854   0.856 -0.6546 -1.4671 -0.3861
  156SOL     OW  466   2.387   2.335   0.014  0.7100  0.0584 -0.4015
  156SOL    HW1  467   2.437   2.251   0.035  0.4258  1.2285 -0.0279
  156SOL    HW2  468   2.359   2.376   0.103 -2.5375 -1.0996  0.8605
  157SOL     OW  469   0.646   1.945   1.606 -0.5233  0.2644  0.2975
  157SOL    HW1  470   0.596   1.899   1.678  0.6014 -0.5936 -2.3610
  157SOL    HW2  471   0.672   1.876   1.528  0.5406 -0.7167 -1.7675
  158SOL     OW  472   1.456   0.797   3.009  0.0570 -0.3518 -0.6090
  158SOL    HW1  473   1.426   0.696   3.017 -1.3729 -0.1874  0.9540
  158SOL    HW2  474   1.561   0.801   3.020  2.4740 -2.9668 -0.5545
  159SOL     OW  475   1.183   0.832   3.056 -0.2700  0.4528 -0.0274
  159SOL    HW1  476   1.140   0.739   3.042  0.6400  1.9789  1.4093
  159SOL    HW2  477   1.279   0.832   3.027  0.5811  0.4732 -1.9224
  160SOL     OW  478   0.904   1.457   0.369  0.3024  0.0950 -0.1329
  160SOL    HW1  479   0.902   1.554   0.406  0.2391 -0.6769  0.2017
  160SOL    HW2  480   0.997   1.426   0.345 -0.3801  1.5367 -0.1876
  161SOL     OW  481   0.212   2.221   2.656 -0.0329  0.2802 -0.1647
  161SOL    HW1  482   0.112   2.209   2.654  2.8846  1.7869  0.9734
  161SOL    HW2  483   0.247   2.168   2.736 -0.1651  3.4726 -0.4645
  162SOL     OW  484   0.356   2.304   0.949 -0.1574  0.0642 -0.2118
  162SOL    HW1  485   0.273   2.246   0.953  0.9819 -1.4378  1.7899
  162SOL    HW2  486   0.394   2.312   0.853  0.3430 -0.4258  1.3580
  163SOL     OW  487   2.845   0.709   2.934 -0.5319 -0.0445 -0.0089
  163SOL    HW1  488   2.892   0.660   2.861 -0.3206  2.9456  3.6184
  163SOL    HW2  489   2.898   0.706   3.022  0.7133 -0.5505  1.2201
  164SOL     OW  490   0.382   3.079   2.729 -0.4314  0.4246  0.0444
  164SOL    HW1  491   0.338   3.015   2.797 -2.9828 -2.1387 -0.5797
  164SOL    HW2  492   0.478   3.056   2.707  0.5271  0.4996 -1.5154
  165SOL     OW  493   2.350   0.345   1.792 -0.4953  0.5047 -0.8137
  165SOL    HW1  494   2.344   0.378   1.888  2.6785  2.1951 -0.1886
  165SOL    HW2  495   2.449   0.351   1.759  1.0533  0.7766  0.6372
  166SOL     OW  496   1.964   2.419   1.614 -0.1178  0.4541 -0.2031
  166SOL    HW1  497   1.982   2.331   1.662 -0.3301  2.3280  1.8815
  166SOL    HW2  498   1.893   2.466   1.667  0.6951 -0.4260 -0.4846
  167SOL     OW  499   1.212   0.762   2.326 -0.0804  0.4324 -0.2558
  167SOL    HW1  500   1.208   0.861   2.366 -0.8193  3.2338  2.2979
  167SOL    HW2  501   1.294   0.712   2.360  2.7729  0.1873 -2.3363
  168SOL     OW  502   2.308   0.050   2.164  0.6023  0.0064  0.3368
  168SOL    HW1  503   2.307   0.064   2.061 -0.9928  0.9313 -1.0526
  168SOL    HW2  504   2.371   3.063   2.193  1.9010  0.4751  1.4432
  169SOL     OW  505   0.375   1.025   0.228 -0.7084  0.3307  0.7607
  169SOL    HW1  506   0.406   0.951   0.297 -2.1260 -1.2694  1.7058
  169SOL    HW2  507   0.423   1.011   0.135  2.0847 -1.2061 -3.2389
  170SOL     OW  508   3.055   1.565   1.688 -0.1752  0.1205  0.7045
  170SOL    HW1  509   2.994   1.605   1.613 -0.1399  0.6118 -0.1905
  170SOL    HW2  510   3.001   1.565   1.776  0.3331  1.2320  1.9239
  171SOL     OW  511   1.131   2.275   2.176  0.1358 -0.2568  0.0354
  171SOL    HW1  512   1.035   2.309   2.162 -1.8423  1.1924 -3.2698
  171SOL    HW2  513   1.159   2.264   2.274  2.2096  0.4113  0.7327
  172SOL     OW  514   0.869   2.324   2.113 -0.1209 -0.4008 -0.1156
  172SOL    HW1  515   0.833   2.344   2.019  0.7478 -1.5893  2.2565
  172SOL    HW2  516   0.800   2.355   2.181  1.3745 -4.0377  1.6215
  173SOL     OW  517   1.237   2.569   0.858  0.6046  0.2836 -0.3430
  173SOL    HW1  518   1.284   2.618   0.937 -0.4463  1.8252  2.4301
  173SOL    HW2  519   1.293   2.559   0.775 -0.4413 -1.2795  1.9171
  174SOL     OW  520   2.034   0.198   0.618 -0.1455 -0.2859  0.3715
  174SOL    HW1  521   2.101   0.274   0.629 -2.3363 -0.9650  0.5042
  174SOL    HW2  522   2.082   0.109   0.621 -0.1724 -1.5948 -1.5107
  175SOL     OW  523   1.111   1.677   0.382 -0.2616 -0.6627  0.1346
  175SOL    HW1  524   1.183   1.725   0.428 -1.9500  0.6512  0.7530
  175SOL    HW2  525   1.018   1.722   0.392 -2.4715  1.8997  0.9898
  176SOL     OW  526   0.958   1.469   0.743  0.5172 -0.4178  0.0409
  176SOL    HW1  527   1.007   1.522   0.817  2.5809  1.2230  3.3897
  176SOL    HW2  528   0.861   1.443   0.771 -1.1740  0.6574 -2.4887
  177SOL     OW  529   1.377   0.777   1.138 -0.2698 -0.7577 -0.0258
  177SOL    HW1  530   1.423   0.870   1.146  0.7395  3.9680 -2.7211
  177SOL    HW2  531   1.448   0.704   1.122 -0.2882  1.1183 -0.2590
  178SOL     OW  532   2.731   1.442   0.236  0.7005  0.2718 -0.2702
  178SOL    HW1  533   2.744   1.426   0.335 -0.8021  1.2875 -0.8719
  178SOL    HW2  534   2.724   1.357   0.178  1.8952  1.2190  0.9382
  179SOL     OW  535   0.640   2.341   0.103  0.1393  0.2007 -0.1803
  179SOL    HW1  536   0.703   2.419   0.080  1.6704 -0.3230 -1.2576
  179SOL    HW2  537   0.548   2.380   0.107 -0.1053  0.3608 -0.7579
  180SOL     OW  538   1.797   1.474   1.539 -0.0265 -0.0769 -0.2620
  180SOL    HW1  539   1.882   1.507   1.587  0.6673  0.9742  0.6173
  180SOL    HW2  540   1.781   1.534   1.456 -0.4362 -0.7009 -1.2562
  181SOL     OW  541   0.901   1.017   2.368 -0.3924 -0.4280  0.3815
  181SOL    HW1  542   0.916   0.953   2.288  0.4484  0.8135  0.1555
  181SOL    HW2  543   0.990   1.032   2.421  3.2608 -0.6440 -0.9028
  182SOL     OW  544   2.819   1.040   2.305  0.0926 -0.0433 -0.5833
  182SOL    HW1  545   2.745   1.091   2.353  1.1804  2.1590  0.7240
  182SOL    HW2  546   2.792   0.980   2.223 -1.8250 -1.1468  2.7799
  183SOL     OW  547   1.564   0.502   2.146  0.0114  0.2231 -0.8434
  183SOL    HW1  548   1.662   0.492   2.117 -0.6604  1.1112  0.2487
  183SOL    HW2  549   1.504   0.436   2.092 -0.3574 -1.3544 -0.2874
  184SOL     OW  550   0.235   0.638   1.759 -0.2182  0.3436  0.0189
  184SOL    HW1  551   0.225   0.600   1.856 -1.9096 -1.7145 -0.0191
  184SOL    HW2  552   0.335   0.650   1.737  2.3983 -2.0576 -0.6770
  185SOL     OW  553   2.261   1.742   0.446  0.0544  0.2172 -0.1976
  185SOL    HW1  554   2.326   1.677   0.405  0.9914 -1.4500  0.7734
  185SOL    HW2  555   2.196   1.701   0.511 -0.4806  1.2308 -0.7986
  186SOL     OW  556   0.486   1.931   2.966  0.4651  0.0017 -0.3177
  186SOL    HW1  557   0.570   1.981   2.996 -0.6681  0.6084  1.8330
  186SOL    HW2  558   0.471   1.847   3.020 -0.5627 -1.2253 -1.5072
  187SOL     OW  559   2.438   1.713   2.975 -0.2368  0.2818  0.7097
  187SOL    HW1  560   2.448   1.698   2.872 -0.0316  0.7856  2.4333
  187SOL    HW2  561   2.519   1.762   3.010  0.4347 -0.3881 -0.4181
  188SOL     OW  562   0.989   2.589   0.729  0.3340 -0.5506  0.7113
  188SOL    HW1  563   1.078   2.576   0.782  2.6126  0.2039  2.2998
  188SOL    HW2  564   0.926   2.658   0.777 -0.5262 -1.0267 -0.2610
  189SOL     OW  565   1.889   0.998   2.248  0.3215  0.0722 -0.6165
  189SOL    HW1  566   1.841   0.929   2.307  0.1382  1.1640 -0.4691
  189SOL    HW2  567   1.886   1.088   2.292 -0.2536 -0.1177 -1.6932
  190SOL     OW  568   0.987   1.935   2.294  0.0916 -0.0425 -0.1277
  190SOL    HW1  569   0.927   1.867   2.247 -1.1825  0.8156  0.6721
  190SOL    HW2  570   0.973   1.953   2.393  0.1174 -0.3782 -1.9413
  191SOL     OW  571   2.390   0.640   1.512  0.1735  0.2789 -0.6446
  191SOL    HW1  572   2.330   0.569   1.558  2.6598  1.1821 -0.0511
  191SOL    HW2  573   2.430   0.600   1.425  0.4717 -0.8096  0.7290
  192SOL     OW  574   2.252   0.470   2.364  0.6242  0.1582  0.5358
  192SOL    HW1  575   2.342   0.492   2.408 -0.9075  0.1013  0.6028
  192SOL    HW2  576   2.232   0.368   2.372 -0.4093 -4.6348  2.2118
  193SOL     OW  577   0.738   0.287   0.703  0.0246 -0.4734 -0.1022
  193SOL    HW1  578   0.704   0.261   0.609 -0.7048 -1.0751 -4.8314
  193SOL    HW2  579   0.762   0.205   0.755  0.1503  1.0830  0.3684
  194SOL     OW  580   1.281   2.457   1.604 -0.3346  0.1599 -0.0574
  194SOL    HW1  581   1.213   2.503   1.662 -0.7035  0.4558 -0.2721
  194SOL    HW2  582   1.304   2.363   1.639  1.1450 -0.8636 -1.3758
  195SOL     OW  583   2.665   0.775   0.900  0.2778  0.1173  0.3409
  195SOL    HW1  584   2.594   0.835   0.943 -0.7936 -0.6261 -0.4613
  195SOL    HW2  585   2.719   0.820   0.823 -0.3878  0.4358  0.4634
  196SOL     OW  586   1.183   1.800   1.697 -0.1480  0.5880 -0.6415
  196SOL    HW1  587   1.144   1.860   1.632  0.9182 -1.5153  2.0568
  196SOL    HW2  588   1.137   1.827   1.784  0.9875  1.2161 -0.4780
  197SOL     OW  589   0.292   0.765   2.317 -0.6958  0.1219 -0.3067
  197SOL    HW1  590   0.316   0.753   2.219 -1.1732  0.7183  0.0357
  197SOL    HW2  591   0.252   0.675   2.349  1.9861  0.7417  0.1785
  198SOL     OW  592   1.488   1.119   0.408  0.2503  0.4797  0.4504
  198SOL    HW1  593   1.490   1.045   0.476  1.8885  0.9596 -1.0239
  198SOL    HW2  594   1.444   1.205   0.435  0.2895 -1.5685 -1.9218
  199SOL     OW  595   2.611   0.517   2.157  0.2489  0.0387 -0.4122
  199SOL    HW1  596   2.608   0.420   2.129  0.5921 -1.4173  0.3052
  199SOL    HW2  597   2.540   0.534   2.224  1.9376  0.2367 -0.9259
  200SOL     OW  598   2.204   2.617   2.515  0.0130  0.2168  0.2878
  200SOL    HW1  599   2.305   2.614   2.499 -1.6665 -1.2300 -2.6215
  200SOL    HW2  600   2.171   2.524   2.518 -0.0353  1.7872 -3.8526
  201SOL     OW  601   2.172   0.082   1.515  0.0440  0.0294  0.4614
  201SOL    HW1  602   2.097   0.153   1.517 -2.8618 -0.4713 -0.6192
  201SOL    HW2  603   2.133   3.081   1.533  0.8083  2.8235 -0.6935
  202SOL     OW  604   2.143   2.943   0.095  0.0522 -0.3968 -1.1017
  202SOL    HW1  605   2.175   3.008   0.170  0.1209  1.4368  2.8585
  202SOL    HW2  606   2.042   2.935   0.105  0.2842 -1.2457 -1.9519
  203SOL     OW  607   0.872   1.978   2.538  0.2040 -0.4003 -0.8164
  203SOL    HW1  608   0.833   1.901   2.588  3.1178  2.8607 -1.0981
  203SOL    HW2  609   0.790   2.033   2.519  0.7937  0.3098 -0.3743
  204SOL     OW  610   0.838   1.348   2.642  0.4497  0.4410 -0.4018
  204SOL    HW1  611   0.762   1.401   2.679  0.7764  0.2128  0.3241
  204SOL    HW2  612   0.854   1.257   2.688  0.6077 -1.0921  1.0559
  205SOL     OW  613   1.082   0.845   1.400 -0.2270 -0.0024 -0.0317
  205SOL    HW1  614   1.145   0.766   1.390 -0.1927  2.1309  1.1654
  205SOL    HW2  615   1.037   0.874   1.314  0.7434 -1.3373  0.8406
  206SOL     OW  616   0.339   0.637   2.607 -0.0491 -0.1045  0.1468
  206SOL    HW1  617   0.422   0.662   2.565 -2.1201 -2.2194  1.7221
  206SOL    HW2  618   0.275   0.586   2.545 -1.1511  1.3628  1.7224
  207SOL     OW  619   1.848   2.429   1.988  0.1836 -0.0944  0.0736
  207SOL    HW1  620   1.861   2.528   1.976  2.8069 -2.1514 -0.8450
  207SOL    HW2  621   1.794   2.383   1.911 -2.4776  0.7221 -2.1245
  208SOL     OW  622   0.970   2.642   1.094  0.1006 -0.2749 -0.1607
  208SOL    HW1  623   0.917   2.676   1.013 -1.3561  1.0097  1.1125
  208SOL    HW2  624   0.962   2.538   1.092 -2.4262  0.4509 -1.0055
  209SOL     OW  625   1.281   1.581   2.832  0.1456  0.2841  0.2203
  209SOL    HW1  626   1.338   1.618   2.906 -1.4754  0.6603 -0.4438
  209SOL    HW2  627   1.332   1.527   2.762  0.7567  1.6988  1.5246
  210SOL     OW  628   2.264   0.835   0.946 -0.3399 -0.0155 -0.2351
  210SOL    HW1  629   2.349   0.844   1.008  1.0933  0.1788 -1.5447
  210SOL    HW2  630   2.292   0.864   0.858  0.8281  1.1618  3.7100
  211SOL     OW  631   1.011   2.743   0.522  0.5213  0.4396 -0.0646
  211SOL    HW1  632   0.997   2.677   0.597 -2.2907  2.4936  0.7169
  211SOL    HW2  633   1.012   2.709   0.428 -2.1237 -1.0551  0.3634
  212SOL     OW  634   2.303   1.964   0.573 -0.7146  0.3964  0.0766
  212SOL    HW1  635   2.295   1.885   0.512  0.7469 -0.4548  1.4520
  212SOL    HW2  636   2.343   2.050   0.525  0.0362  2.4577 -0.9133
  213SOL     OW  637   1.760   0.773   2.758  0.0189  0.5524  0.4303
  213SOL    HW1  638   1.740   0.690   2.811 -1.1658 -0.1383 -0.1729
  213SOL    HW2  639   1.854   0.809   2.780 -1.7300  0.0575 -0.3319
  214SOL     OW  640   1.069   1.862   1.929  0.1750  0.0993  0.0020
  214SOL    HW1  641   0.968   1.859   1.947 -0.8602  0.3904  0.6831
  214SOL    HW2  642   1.126   1.794   1.978  0.7277  0.3629 -0.0024
  215SOL     OW  643   0.498   1.487   0.557  0.6436 -0.0895  0.0927
  215SOL    HW1  644   0.522   1.482   0.455 -1.1730  0.2238 -0.9876
  215SOL    HW2  645   0.429   1.563   0.579 -0.4230 -0.3733  0.2581
  216SOL     OW  646   0.066   3.069   2.391 -0.0170 -0.6869 -0.2867
  216SOL    HW1  647   0.147   3.024   2.432 -2.0029  2.8789 -2.7418
  216SOL    HW2  648   0.088   3.087   2.296 -0.0765 -1.6330 -1.4203
  217SOL     OW  649   2.449   0.861   1.361 -0.1180 -0.3710  0.0659
  217SOL    HW1  650   2.411   0.788   1.422  0.3974 -0.2558 -1.0171
  217SOL    HW2  651   2.549   0.872   1.369 -2.6954 -2.0715 -1.5754
  218SOL     OW  652   1.534   1.923   2.069  0.5898 -0.2622  0.5120
  218SOL    HW1  653   1.512   1.894   1.974  1.3087  0.4394 -0.5627
  218SOL    HW2  654   1.448   1.946   2.116  2.3656 -0.5903 -1.6750
  219SOL     OW  655   1.730   1.656   3.057 -0.0530 -0.0732 -0.6952
  219SOL    HW1  656   1.728   1.602   0.058 -2.8245  0.8043  0.0616
  219SOL    HW2  657   1.703   1.748   3.087 -0.4892  1.5177  0.7005
  220SOL     OW  658   2.061   0.912   0.184 -0.2889  0.2108  0.4116
  220SOL    HW1  659   2.056   1.008   0.150  1.7920  1.0295 -2.4005
  220SOL    HW2  660   2.028   0.851   0.107 -0.3994 -1.5034 -2.4373
  221SOL     OW  661   0.085   0.545   0.141 -0.1323  0.0155 -0.3472
  221SOL    HW1  662   0.182   0.579   0.124  2.9927  0.5892 -1.8608
  221SOL    HW2  663   0.052   0.497   0.057  0.4213  0.7560  1.6166
  222SOL     OW  664   1.521   1.944   0.692 -0.1724 -0.0089  0.0524
  222SOL    HW1  665   1.589   1.866   0.720  0.9262 -0.0293  1.3430
  222SOL    HW2  666   1.519   2.005   0.776  0.4865  1.6505  0.2526
  223SOL     OW  667   0.775   0.060   2.947  0.1606  0.3915 -0.1507
  223SOL    HW1  668   0.866   0.097   2.945 -2.3937 -0.5786  1.4997
  223SOL    HW2  669   0.775   3.051   2.972 -0.0177  3.3144  2.6373
  224SOL     OW  670   1.855   3.037   1.343  0.2882 -0.5263  0.1885
  224SOL    HW1  671   1.770   2.973   1.347 -1.9303  1.0934  0.5492
  224SOL    HW2  672   1.914   3.016   1.264  1.0524  0.7560  0.5199
  225SOL     OW  673   0.565   2.199   1.246  0.5329 -0.2514  0.2789
  225SOL    HW1  674   0.629   2.270   1.258 -1.3236 -1.4885  1.7414
  225SOL    HW2  675   0.473   2.230   1.277  0.5649 -0.5082 -2.9994
  226SOL     OW  676   1.059   1.646   0.098 -0.0306 -0.8071 -0.1021
  226SOL    HW1  677   1.072   1.725   0.032  2.5422  2.8722 -0.6876
  226SOL    HW2  678   1.081   1.669   0.198  1.8029 -0.1604  0.7785
  227SOL     OW  679   1.045   1.758   1.143  0.2873  0.5223 -0.2330
  227SOL    HW1  680   0.994   1.669   1.158  1.0051  0.4641 -0.4907
  227SOL    HW2  681   1.029   1.815   1.226 -0.4899  0.8801 -1.2381
  228SOL     OW  682   0.283   1.644   0.621 -0.1128  0.0051  0.4848
  228SOL    HW1  683   0.215   1.613   0.554 -0.0581  0.8643 -2.4132
  228SOL    HW2  684   0.275   1.745   0.629 -0.5118  2.0303 -0.7148
  229SOL     OW  685   1.843   0.348   2.659  0.0669 -0.1141 -0.8355
  229SOL    HW1  686   1.908   0.302   2.595  2.3001  1.6800  0.8900
  229SOL    HW2  687   1.787   0.416   2.608 -0.0107 -0.6159 -1.9034
  230SOL     OW  688   1.732   1.233   2.740 -0.0047  0.1580  0.4781
  230SOL    HW1  689   1.698   1.330   2.726  1.0937  0.4385 -0.2419
  230SOL    HW2  690   1.690   1.193   2.824 -0.5225 -0.3796  1.2227
  231SOL     OW  691   1.108   1.753   2.489 -0.2297 -0.3551 -0.5563
  231SOL    HW1  692   1.031   1.688   2.505  0.3734  0.8067  0.9376
  231SOL    HW2  693   1.076   1.836   2.439  0.3494 -1.8351  1.4784
  232SOL     OW  694   2.382   2.159   0.385 -0.2211 -0.0475  0.3693
  232SOL    HW1  695   2.481   2.160   0.411  0.7990  0.2525  1.1629
  232SOL    HW2  696   2.378   2.106   0.300  0.0057 -2.0378  2.1711
  233SOL     OW  697   2.949   2.532   0.366 -0.0130 -0.0185 -0.2630
  233SOL    HW1  698   3.023   2.464   0.344  1.6638 -0.4807 -0.2910
  233SOL    HW2  699   2.866   2.526   0.309  2.6976 -0.6292  1.1357
  234SOL     OW  700   0.602   0.574   2.764 -0.1513  0.4897  0.8499
  234SOL    HW1  701   0.591   0.571   2.660 -0.4999 -0.7314 -2.0832
  234SOL    HW2  702   0.660   0.649   2.788  0.5622 -0.6089  1.4907
  235SOL     OW  703   2.738   0.235   2.923 -0.1430 -0.1338  0.0837
  235SOL    HW1  704   2.710   0.315   2.976  0.0765  1.0789  1.3458
  235SOL    HW2  705   2.748   0.151   2.979 -0.6517 -1.6611 -2.0252
  236SOL     OW  706   1.834   2.443   1.175  0.2812 -0.6037  0.2433
  236SOL    HW1  707   1.865   2.374   1.241  1.1373  0.1068 -2.2040
  236SOL    HW2  708   1.898   2.456   1.099 -2.2484 -0.6036  2.7385
  237SOL     OW  709   0.817   1.718   2.246 -0.1538 -0.1266 -0.4409
  237SOL    HW1  710   0.838   1.674   2.154  3.7287  2.5599 -0.7089
  237SOL    HW2  711   0.854   1.666   2.325 -0.9292 -0.1402  3.0548
  238SOL     OW  712   1.271   0.164   2.533 -0.0537 -0.4350  0.4197
  238SOL    HW1  713   1.261   0.099   2.613  0.8757  2.1151 -0.9468
  238SOL    HW2  714   1.260   0.120   2.439  1.0764 -0.6204  1.2739
  239SOL     OW  715   0.327   1.947   1.921 -0.4189  0.6506 -0.6016
  239SOL    HW1  716   0.383   1.983   2.003  1.0392  0.8736  1.6877
  239SOL    HW2  717   0.298   2.018   1.855 -1.5146  0.8976 -1.1832
  240SOL     OW  718   2.313   2.395   0.281  0.2420  0.2783 -0.1785
  240SOL    HW1  719   2.230   2.427   0.325  1.4727 -1.6705 -1.6677
  240SOL    HW2  720   2.336   2.304   0.323  0.3250 -0.2554  1.4853
  241SOL     OW  721   2.515   0.953   1.076 -0.2556  0.0735 -0.3419
  241SOL    HW1  722   2.497   0.911   1.164 -1.2011 -1.7066 -1.2304
  241SOL    HW2  723   2.490   1.054   1.066  1.8573 -1.6448  0.5609
  242SOL     OW  724   2.278   2.545   2.186 -0.3479  0.4399 -0.1934
  242SOL    HW1  725   2.226   2.470   2.145  0.0668  3.6885  4.1977
  242SOL    HW2  726   2.244   2.565   2.277 -0.7194 -1.1455 -1.1720
  243SOL     OW  727   0.646   2.514   1.708  0.0715 -0.4215  0.3946
  243SOL    HW1  728   0.547   2.499   1.706  0.6601  0.0841 -1.3765
  243SOL    HW2  729   0.671   2.609   1.732 -0.0683 -1.3502 -0.5401
  244SOL     OW  730   2.082   0.466   2.743  0.2002 -0.3964 -0.4197
  244SOL    HW1  731   1.985   0.441   2.720 -1.1057  2.1013  2.2093
  244SOL    HW2  732   2.097   0.561   2.717 -1.0570  2.3107 -0.4374
  245SOL     OW  733   1.542   0.257   1.267  0.2533 -0.5485  0.3069
  245SOL    HW1  734   1.445   0.239   1.264  3.0495 -0.6178 -1.0505
  245SOL    HW2  735   1.582   0.210   1.183 -1.5307 -1.6666 -1.5413
  246SOL     OW  736   1.660   2.559   3.067  0.0142  0.0673  0.1602
  246SOL    HW1  737   1.752   2.556   3.027  0.6964  0.0678  0.5169
  246SOL    HW2  738   1.629   2.655   3.055  1.6710  0.1113  0.1135
  247SOL     OW  739   1.215   0.497   2.246  0.3795  0.0415  1.0231
  247SOL    HW1  740   1.148   0.456   2.309 -0.6510  0.4673 -4.5715
  247SOL    HW2  741   1.227   0.598   2.258 -1.1630  3.9886  1.7499
  248SOL     OW  742   0.540   1.783   1.805 -0.1820  0.6288  0.0343
  248SOL    HW1  743   0.555   1.686   1.840  0.3732 -0.4669 -1.5612
  248SOL    HW2  744   0.458   1.823   1.847  0.2525  2.1397  0.3879
  249SOL     OW  745   2.437   0.264   0.557 -0.2640 -0.3610  0.2615
  249SOL    HW1  746   2.386   0.293   0.474  0.2633  1.2322  0.0498
  249SOL    HW2  747   2.385   0.278   0.643  1.6018  1.5518 -0.6675
  250SOL     OW  748   2.687   0.466   0.008 -0.3934 -0.7391 -0.3262
  250SOL    HW1  749   2.744   0.409   0.072  2.5113  1.5878  0.5809
  250SOL    HW2  750   2.700   0.564   0.034  0.9075 -0.9468  0.1226
  251SOL     OW  751   1.353   0.552   3.034 -0.0351 -0.3217  0.3252
  251SOL    HW1  752   1.327   0.536   2.936 -1.2373 -1.2079  0.4983
  251SOL    HW2  753   1.319   0.481   0.013  0.3783 -0.3467 -0.7463
  252SOL     OW  754   1.968   2.092   1.946 -0.9017  0.1413  0.1012
  252SOL    HW1  755   1.879   2.143   1.952  1.3367 -0.7908  1.2149
  252SOL    HW2  756   2.005   2.082   2.040  2.8281  1.5791 -1.7082
  253SOL     OW  757   2.430   2.428   1.153  0.4470 -0.3259  0.3300
  253SOL    HW1  758   2.409   2.521   1.126  0.6757  0.3073 -2.1470
  253SOL    HW2  759   2.448   2.429   1.250 -0.1398  1.3898 -3.9045
  254SOL     OW  760   2.841   1.227   0.900 -0.7519  0.0482  0.0314
  254SOL    HW1  761   2.760   1.288   0.914 -1.3113 -2.4272 -2.4656
  254SOL    HW2  762   2.933   1.272   0.913  2.2236  1.0149  0.7117
  255SOL     OW  763   1.571   0.151   1.007 -0.1810 -0.1164  0.4905
  255SOL    HW1  764   1.491   0.087   0.994 -2.7696  1.5210  1.0476
  255SOL    HW2  765   1.561   0.241   0.967 -2.4601  0.9899  0.8167
  256SOL     OW  766   1.452   2.315   1.436 -0.2140  0.4173  0.1767
  256SOL    HW1  767   1.386   2.374   1.474 -0.2624 -2.1374 -0.9852
  256SOL    HW2  768   1.399   2.249   1.383  0.8750  3.1686  3.7260
  257SOL     OW  769   0.585   2.984   2.590 -0.2107  0.6112 -0.0319
  257SOL    HW1  770   0.687   3.009   2.588  2.8808  0.2837 -0.8241
  257SOL    HW2  771   0.555   2.969   2.491  0.1606 -0.8434 -4.6505
  258SOL     OW  772   0.809   2.394   0.628  0.3953 -0.0923 -0.0969
  258SOL    HW1  773   0.872   2.451   0.681 -1.3315 -2.0165 -1.9437
  258SOL    HW2  774   0.810   2.297   0.666  0.8605 -2.9841 -2.2433
  259SOL     OW  775   1.548   0.014   2.768  0.2709 -0.6120  0.2176
  259SOL    HW1  776   1.480   0.081   2.794  2.9623 -0.3599 -3.6842
  259SOL    HW2  777   1.635   0.059   2.736  0.0667 -0.1341 -3.4672
  260SOL     OW  778   2.370   0.238   1.435 -0.2828  0.2886  0.0668
  260SOL    HW1  779   2.302   0.167   1.455  2.0866 -3.2607  0.4797
  260SOL    HW2  780   2.456   0.202   1.476  0.2372 -1.6739  0.4620
  261SOL     OW  781   0.645   0.556   2.493  0.1138  0.1345  0.2573
  261SOL    HW1  782   0.602   0.640   2.461  0.5108 -1.8719 -1.8269
  261SOL    HW2  783   0.739   0.552   2.458 -0.5931 -0.6220 -0.2957
  262SOL     OW  784   0.461   2.349   2.476 -0.2808  0.1128 -0.3797
  262SOL    HW1  785   0.385   2.282   2.458  1.9424  0.2871 -0.4148
  262SOL    HW2  786   0.507   2.385   2.392  0.5212 -2.8565 -0.2481
  263SOL     OW  787   0.264   1.703   2.612  0.6066 -0.2089  0.3403
  263SOL    HW1  788   0.202   1.781   2.608 -0.5562 -0.6518  2.0804
  263SOL    HW2  789   0.226   1.630   2.547  0.5105 -2.7772  2.7752
  264SOL     OW  790   1.146   1.289   0.646  0.1187  0.0557  0.2437
  264SOL    HW1  791   1.148   1.203   0.703 -1.8161 -1.0390  1.6851
  264SOL    HW2  792   1.066   1.345   0.675 -1.2133  0.3022 -1.9001
  265SOL     OW  793   1.487   2.807   0.746 -0.2741 -0.2082  0.2003
  265SOL    HW1  794   1.468   2.717   0.711  0.0986 -1.0192  0.5860
  265SOL    HW2  795   1.587   2.834   0.736  2.7572  0.3043 -1.0023
  266SOL     OW  796   1.677   0.786   1.446 -0.5234  0.1953  0.1256
  266SOL    HW1  797   1.667   0.693   1.409 -0.1005  0.3426  0.4186
  266SOL    HW2  798   1.775   0.818   1.456  2.2599 -1.2006  0.2068
  267SOL     OW  799   2.467   1.203   2.617 -0.2071  0.1496  0.6224
  267SOL    HW1  800   2.396   1.130   2.630  0.1723 -0.7497  0.2871
  267SOL    HW2  801   2.547   1.180   2.678  1.2620 -2.1407  1.0367
  268SOL     OW  802   1.322   0.275   0.069  0.1284  0.1147  0.6614
  268SOL    HW1  803   1.394   0.266   0.143  2.1646 -0.4459  1.5262
  268SOL    HW2  804   1.243   0.311   0.120  2.3525 -0.9658  0.9215
  269SOL     OW  805   2.845   0.905   2.541 -0.2573 -0.3374  0.1490
  269SOL    HW1  806   2.892   0.932   2.626 -2.3663  0.1623 -0.5794
  269SOL    HW2  807   2.850   0.973   2.466  0.5266 -1.1455 -0.4631
  270SOL     OW  808   0.129   1.501   0.377  0.1574  0.6035 -0.5464
  270SOL    HW1  809   0.177   1.418   0.362 -1.0379  0.2079 -0.8629
  270SOL    HW2  810   0.129   1.552   0.295 -1.1725 -2.0437  1.3903
  271SOL     OW  811   2.296   0.977   2.942  0.3528  0.3689 -0.2537
  271SOL    HW1  812   2.250   1.001   2.856  1.2383  0.4296 -1.0187
  271SOL    HW2  813   2.298   0.881   2.957 -0.4967  2.9007 -1.6479
  272SOL     OW  814   2.962   2.414   2.335  0.5372  0.1795 -0.6090
  272SOL    HW1  815   3.012   2.502   2.342 -0.4901  1.2706  0.5615
  272SOL    HW2  816   2.909   2.392   2.419  3.1256 -0.5691 -0.5157
  273SOL     OW  817   0.144   0.093   0.437  0.3836 -0.7084 -0.1068
  273SOL    HW1  818   0.078   0.137   0.497  2.2603  0.0863  0.0311
  273SOL    HW2  819   0.240   0.119   0.456 -1.0928  1.2126 -0.4452
  274SOL     OW  820   0.839   1.998   0.973  0.0492 -0.1401  0.1437
  274SOL    HW1  821   0.807   1.979   1.066 -3.0541  1.3143 -1.3447
  274SOL    HW2  822   0.935   2.037   0.973  0.5004  0.1808  0.8872
  275SOL     OW  823   2.319   0.917   0.707 -0.0051  0.1747 -0.0967
  275SOL    HW1  824   2.231   0.908   0.660 -2.0022 -1.1492  0.0071
  275SOL    HW2  825   2.379   0.975   0.656 -2.1166 -1.3789  1.3487
  276SOL     OW  826   2.499   1.484   1.434 -0.0695  0.2853 -0.0055
  276SOL    HW1  827   2.433   1.437   1.496 -0.3497  1.9009  0.1336
  276SOL    HW2  828   2.595   1.471   1.477 -1.3759 -0.4837 -2.2840
  277SOL     OW  829   2.539   3.029   0.867 -0.4537 -0.0257 -0.1915
  277SOL    HW1  830   2.483   0.026   0.893 -0.5306  2.7716  1.6747
  277SOL    HW2  831   2.512   2.954   0.928  1.8219 -1.1426  1.6860
  278SOL     OW  832   1.519   0.001   2.113 -0.3862 -0.7195  0.1780
  278SOL    HW1  833   1.485   3.000   2.084 -1.6922 -0.1654 -0.0585
  278SOL    HW2  834   1.582   3.075   2.193  2.4708  0.2351  2.4738
  279SOL     OW  835   1.414   2.653   1.064 -0.0385 -0.1599 -0.1598
  279SOL    HW1  836   1.468   2.725   1.015  0.5924 -5.5632  0.7400
  279SOL    HW2  837   1.475   2.593   1.120 -2.0869  0.2416 -4.2988
  280SOL     OW  838   0.863   1.113   0.858 -0.2654 -0.0139  0.0950
  280SOL    HW1  839   0.843   1.150   0.950 -2.9286  1.9434 -0.9359
  280SOL    HW2  840   0.823   1.172   0.786  1.9892 -2.8777  0.7159
  281SOL     OW  841   2.422   1.398   2.844 -0.3475  0.0727 -0.4383
  281SOL    HW1  842   2.454   1.328   2.779  1.9404  1.7089  1.1150
  281SOL    HW2  843   2.441   1.492   2.810 -0.9130 -0.0567  2.1017
  282SOL     OW  844   0.295   1.263   0.375  0.0699  0.5575  0.3716
  282SOL    HW1  845   0.331   1.182   0.320 -2.0777  0.2298 -1.3594
  282SOL    HW2  846   0.313   1.243   0.472 -0.7635 -1.0748  0.7594
  283SOL     OW  847   1.799   2.902   2.763 -0.3830  0.2047  0.0667
  283SOL    HW1  848   1.837   2.977   2.703  0.2778  2.9390 -0.6708
  283SOL    HW2  849   1.835   2.810   2.725  0.3628 -5.9869 -2.2120
  284SOL     OW  850   1.021   0.107   0.039 -0.5148  0.6302  0.2714
  284SOL    HW1  851   1.084   0.052   0.098 -1.1701 -0.0105 -2.5953
  284SOL    HW2  852   1.031   0.204   0.058 -0.6140 -1.3679  1.6301
  285SOL     OW  853   2.057   1.378   2.501  0.2061  0.9548  0.1223
  285SOL    HW1  854   2.018   1.468   2.488  1.1561 -0.4364 -0.1317
  285SOL    HW2  855   2.010   1.304   2.447  2.2590 -3.4218  0.1693
  286SOL     OW  856   1.583   2.455   0.884 -0.4489  0.1940  0.2111
  286SOL    HW1  857   1.519   2.405   0.947 -1.4406 -1.2703 -2.5796
  286SOL    HW2  858   1.663   2.394   0.864  0.8334 -1.4633 -1.9788
  287SOL     OW  859   1.568   0.934   0.831 -0.0878 -0.0280 -0.0177
  287SOL    HW1  860   1.507   0.970   0.906 -2.0079  2.1239 -0.2403
  287SOL    HW2  861   1.526   0.965   0.743 -1.4436  1.5097 -0.4441
  288SOL     OW  862   0.690   2.631   2.503  0.0318 -0.5966 -0.0057
  288SOL    HW1  863   0.602   2.638   2.555 -1.0534 -0.3161 -2.6110
  288SOL    HW2  864   0.719   2.721   2.476 -2.0594 -3.9480  0.5235
  289SOL     OW  865   0.341   1.274   0.937 -0.7277  0.1454 -0.0411
  289SOL    HW1  866   0.436   1.235   0.951 -0.3192 -0.5819  0.8054
  289SOL    HW2  867   0.283   1.231   1.009  1.4608 -0.7315 -3.7552
  290SOL     OW  868   1.152   2.319   0.848  0.1647 -0.7441  0.0734
  290SOL    HW1  869   1.158   2.420   0.875 -0.2534  1.1426  0.0984
  290SOL    HW2  870   1.155   2.319   0.749  0.6268  0.6456 -0.8779
  291SOL     OW  871   1.437   3.073   0.301 -0.6800 -0.0983  0.3739
  291SOL    HW1  872   1.464   3.053   0.398  0.5705 -1.0281  0.3620
  291SOL    HW2  873   1.431   0.087   0.277 -1.9962  4.6573  0.2650
  292SOL     OW  874   0.449   0.270   2.237 -0.0135 -0.0315 -0.1647
  292SOL    HW1  875   0.347   0.282   2.259 -3.7899  1.6221  0.8250
  292SOL    HW2  876   0.504   0.258   2.323 -3.3301  1.0902 -2.2323
  293SOL     OW  877   2.790   1.659   0.871  0.0886  0.1509 -0.0037
  293SOL    HW1  878   2.735   1.679   0.789  0.5771 -1.4177 -1.2051
  293SOL    HW2  879   2.740   1.688   0.953 -1.7653  2.8062 -1.4921
  294SOL     OW  880   0.829   0.080   2.156 -0.0779  0.1948  0.1633
  294SOL    HW1  881   0.725   0.072   2.147 -3.8955  1.4846 -2.6194
  294SOL    HW2  882   0.870   0.009   2.095 -0.6600 -2.4079  0.8921
  295SOL     OW  883   1.102   1.594   0.936 -0.4203  0.3702 -0.6903
  295SOL    HW1  884   1.200   1.570   0.932 -2.2729 -1.3063 -1.2000
  295SOL    HW2  885   1.086   1.664   1.012  1.6590  0.3410  0.0279
  296SOL     OW  886   2.595   1.683   0.260  0.2142  0.5616  0.0083
  296SOL    HW1  887   2.502   1.688   0.224  0.1313 -1.5315  2.2257
  296SOL    HW2  888   2.644   1.598   0.236 -2.9426 -0.0553  1.0798
  297SOL     OW  889   2.402   3.021   0.049 -0.2622  0.7624 -0.2202
  297SOL    HW1  890   2.305   2.988   0.034  0.4921  0.4029 -0.1214
  297SOL    HW2  891   2.470   2.966   3.084 -0.1734  1.5767 -1.6606
  298SOL     OW  892   1.003   0.184   2.760  0.6278  0.0017 -0.1760
  298SOL    HW1  893   1.058   0.247   2.700  0.2938  0.9756 -3.1377
  298SOL    HW2  894   0.921   0.235   2.797 -0.2424  0.1730  2.9389
  299SOL     OW  895   0.669   2.473   2.270 -0.4171  0.9457 -0.7033
  299SOL    HW1  896   0.658   2.520   2.181 -0.6371 -1.5177  0.4578
  299SOL    HW2  897   0.699   2.539   2.340  1.2701  0.2492 -0.3317
  300SOL     OW  898   2.789   2.914   2.231 -0.2485  0.3404 -0.6996
  300SOL    HW1  899   2.760   2.954   2.320 -0.5448  2.3254 -1.4122
  300SOL    HW2  900   2.785   2.983   2.158 -0.5857 -0.4338 -2.1275
  301SOL     OW  901   1.557   0.411   1.640 -0.8782 -0.1849  0.4236
  301SOL    HW1  902   1.482   0.443   1.572 -0.4961  0.3669  0.0113
  301SOL    HW2  903   1.576   0.310   1.638 -1.2191 -1.1865 -1.2142
  302SOL     OW  904   0.305   2.405   0.139 -0.5618 -0.5041  0.4669
  302SOL    HW1  905   0.326   2.475   0.214  1.5125  2.3259  4.1070
  302SOL    HW2  906   0.356   2.427   0.053  1.9530  2.7318  1.1158
  303SOL     OW  907   1.859   2.278   1.401  0.1268 -0.1035 -0.3901
  303SOL    HW1  908   1.784   2.258   1.466  3.1822 -3.2494  1.2513
  303SOL    HW2  909   1.928   2.329   1.455  0.4342 -1.1202  0.1534
  304SOL     OW  910   2.699   0.893   1.351  0.6007  0.0920 -0.0631
  304SOL    HW1  911   2.760   0.824   1.302  0.1729  2.1713  2.2996
  304SOL    HW2  912   2.753   0.945   1.422  0.8549  0.4427  1.7862
  305SOL     OW  913   0.697   1.373   0.777 -0.3987  1.0301 -0.2781
  305SOL    HW1  914   0.647   1.347   0.859  0.6607  2.5009 -2.0091
  305SOL    HW2  915   0.634   1.425   0.714  4.0257 -0.0892  0.1813
  306SOL     OW  916   0.450   1.314   2.798  0.4336  0.5831 -0.2943
  306SOL    HW1  917   0.497   1.270   2.875  0.0945  2.6073 -1.4547
  306SOL    HW2  918   0.436   1.252   2.720  2.5798 -1.2382 -1.6752
  307SOL     OW  919   0.950   0.172   1.439  0.0312  0.1682  0.0083
  307SOL    HW1  920   1.031   0.186   1.499  0.2730 -0.4426 -0.4766
  307SOL    HW2  921   0.903   0.083   1.460  0.0985 -2.1319  1.0050
  308SOL     OW  922   0.090   0.665   1.036 -0.0146 -0.5218  0.0565
  308SOL    HW1  923   0.002   0.643   0.991  2.2128  1.8310 -0.5798
  308SOL    HW2  924   0.169   0.658   0.977 -1.6670  0.4306  0.7030
  309SOL     OW  925   2.467   1.215   1.041  0.1023  0.2724 -0.4060
  309SOL    HW1  926   2.384   1.248   0.996  2.3648 -1.6066 -0.0383
  309SOL    HW2  927   2.553   1.252   0.997 -0.5977 -0.3879 -0.5499
  310SOL     OW  928   0.486   1.861   2.631 -0.1118  0.0398  0.1189
  310SOL    HW1  929   0.398   1.806   2.616 -0.8715  1.3505 -1.1479
  310SOL    HW2  930   0.468   1.931   2.703 -0.9968  2.7677 -1.5115
  311SOL     OW  931   2.464   2.640   2.450 -0.1774 -0.6056  0.2450
  311SOL    HW1  932   2.520   2.662   2.368 -3.5639  0.7167  3.3303
  311SOL    HW2  933   2.496   2.685   2.534  0.8459 -2.8867 -1.0112
  312SOL     OW  934   2.185   1.864   3.050  0.2218  0.2558 -0.1466
  312SOL    HW1  935   2.102   1.823   3.085  0.1159  1.0314 -2.0482
  312SOL    HW2  936   2.263   1.799   3.043 -0.8146  0.8830  0.3150
  313SOL     OW  937   0.420   0.072   0.528  0.2394 -0.3193  0.1175
  313SOL    HW1  938   0.499   0.130   0.512  0.3084 -0.2724  0.9444
  313SOL    HW2  939   0.431   3.063   0.507 -0.1520  0.0744  1.1199
  314SOL     OW  940   1.997   1.144   2.670  0.6968  0.1583 -0.4397
  314SOL    HW1  941   1.896   1.158   2.683 -3.0594 -1.5079  0.5379
  314SOL    HW2  942   2.017   1.226   2.615  1.1282 -0.3167  1.6907
  315SOL     OW  943   1.655   0.258   2.373  0.1597 -0.0713  0.1453
  315SOL    HW1  944   1.624   0.348   2.349  2.1116  2.6145  1.1489
  315SOL    HW2  945   1.741   0.236   2.321 -1.1239  0.3586 -0.0011
  316SOL     OW  946   3.086   0.971   0.750 -0.3371  0.0223 -0.0772
  316SOL    HW1  947   3.014   0.911   0.708  3.4320  1.3656 -0.0042
  316SOL    HW2  948   3.065   0.980   0.847 -0.4237 -2.6095  0.0748
  317SOL     OW  949   0.403   2.778   2.972 -0.1844  0.5035 -0.0532
  317SOL    HW1  950   0.336   2.846   2.932  0.4449 -1.7752 -0.2658
  317SOL    HW2  951   0.468   2.820   3.033  0.1590 -1.4139 -2.7720
  318SOL     OW  952   2.475   2.486   0.798  0.0803  0.3341 -0.1720
  318SOL    HW1  953   2.443   2.393   0.776  0.1060  0.1970  0.8170
  318SOL    HW2  954   2.530   2.479   0.883 -3.8243 -0.4807  1.3709
  319SOL     OW  955   1.078   1.819   2.777 -0.3323  0.2508 -0.4146
  319SOL    HW1  956   1.151   1.841   2.706  1.4617  0.5172 -2.5932
  319SOL    HW2  957   1.021   1.744   2.746  0.4419 -0.4326  0.5285
  320SOL     OW  958   0.715   1.762   1.420  0.5135  0.2260  0.2572
  320SOL    HW1  959   0.755   1.687   1.479  0.6655 -0.7254 -2.2526
  320SOL    HW2  960   0.677   1.710   1.337 -2.7356 -0.4731 -2.2758
  321SOL     OW  961   1.075   2.624   1.975 -0.0676  0.1110 -0.0015
  321SOL    HW1  962   0.981   2.662   1.975  1.8802 -1.1211  1.4753
  321SOL    HW2  963   1.131   2.707   1.962 -2.2206 -0.5458 -1.3383
  322SOL     OW  964   2.441   1.702   2.138  0.2621 -0.3063  0.2641
  322SOL    HW1  965   2.433   1.624   2.205 -1.2158 -2.0398  1.7929
  322SOL    HW2  966   2.527   1.757   2.152  1.1463 -0.0782 -0.2161
  323SOL     OW  967   2.826   0.259   0.690  0.1230 -0.5190  0.1460
  323SOL    HW1  968   2.769   0.333   0.653  0.7309  1.1956 -1.6404
  323SOL    HW2  969   2.865   0.287   0.777  0.2259 -2.0364 -0.0472
  324SOL     OW  970   2.796   2.665   2.636 -0.4965  0.4287  0.4639
  324SOL    HW1  971   2.872   2.727   2.611 -1.0252  0.0459 -2.1308
  324SOL    HW2  972   2.804   2.576   2.588  0.3835  1.9568 -1.3377
  325SOL     OW  973   1.073   0.342   2.438 -0.1841  0.2564  0.5736
  325SOL    HW1  974   1.151   0.285   2.480 -0.3331 -1.9132  2.7267
  325SOL    HW2  975   1.003   0.278   2.415 -1.0462  2.7545  1.9475
  326SOL     OW  976   2.225   2.520   1.538  0.5459 -0.1102  0.1303
  326SOL    HW1  977   2.237   2.603   1.595 -1.6693  0.7923  0.5674
  326SOL    HW2  978   2.132   2.482   1.562  1.0990  0.9926 -1.2667
  327SOL     OW  979   2.174   0.043   0.329  0.4638 -0.2500  0.6010
  327SOL    HW1  980   2.228   0.126   0.312  0.6865  3.9158 -1.0309
  327SOL    HW2  981   2.178   0.023   0.428  0.1114 -0.8659 -1.9002
  328SOL     OW  982   0.277   1.202   1.924 -0.1834  0.1804 -0.3064
  328SOL    HW1  983   0.362   1.194   1.976  0.8908  0.5771 -0.4018
  328SOL    HW2  984   0.218   1.286   1.940 -1.6229  0.0106 -1.2140
  329SOL     OW  985   2.201   0.491   1.612  0.4757 -0.2921  0.5415
  329SOL    HW1  986   2.122   0.512   1.674  2.1096 -0.0310  0.8715
  329SOL    HW2  987   2.253   0.411   1.652 -0.3428  0.8602  1.5180
  330SOL     OW  988   0.222   0.890   1.076  0.1292  0.2483  0.0991
  330SOL    HW1  989   0.195   0.979   1.037 -0.1087 -0.2612 -2.0157
  330SOL    HW2  990   0.164   0.810   1.054  0.7931 -2.9161 -0.2386
  331SOL     OW  991   0.744   1.403   2.152 -0.3039 -0.0574 -0.0777
  331SOL    HW1  992   0.827   1.457   2.129  1.0057  0.0845 -2.6093
  331SOL    HW2  993   0.759   1.370   2.252 -0.6287 -0.2774  4.5498
  332SOL     OW  994   0.204   2.576   1.527  0.0036 -0.0954  0.5150
  332SOL    HW1  995   0.155   2.651   1.473 -1.3159 -0.2460 -0.2522
  332SOL    HW2  996   0.245   2.509   1.467  0.0066  1.3360 -0.7467
  333SOL     OW  997   2.474   0.207   0.951 -0.2406  0.0932 -0.0792
  333SOL    HW1  998   2.572   0.227   0.959  0.3242 -0.4177 -1.0373
  333SOL    HW2  999   2.422   0.236   1.032 -1.2777 -2.4567 -0.3088
  334SOL     OW 1000   0.346   1.271   0.671  0.1167  0.1555  0.0730
  334SOL    HW1 1001   0.416   1.329   0.625  1.9420 -4.6391 -1.5396
  334SOL    HW2 1002   0.355   1.273   0.773 -1.0514  2.8815  3.0966
  335SOL     OW 1003   0.132   2.658   2.777  0.0151  0.6308 -0.6253
  335SOL    HW1 1004   0.113   2.729   2.707  0.3888  1.1112  0.1718
  335SOL    HW2 1005   0.202   2.693   2.844 -1.1808  1.0136  0.1269
  336SOL     OW 1006   3.014   2.718   2.182  0.4761  0.3977 -0.3494
  336SOL    HW1 1007   3.050   2.694   2.272  1.8893 -0.3416 -3.2133
  336SOL    HW2 1008   2.942   2.791   2.175 -0.8277 -0.2715 -0.9211
  337SOL     OW 1009   2.035   2.178   1.691  0.3308 -0.0486  0.2011
  337SOL    HW1 1010   2.028   2.123   1.778 -0.0853 -2.4319  0.9109
  337SOL    HW2 1011   2.124   2.168   1.644  0.6504 -0.2917 -0.0247
  338SOL     OW 1012   0.765   0.346   2.827  0.2825 -0.0756 -0.4527
  338SOL    HW1 1013   0.708   0.271   2.870  1.0305  0.5876 -0.1954
  338SOL    HW2 1014   0.697   0.422   2.799  2.1037  0.9367  1.3188
  339SOL     OW 1015   0.527   1.213   2.100  0.5432 -0.4822 -0.2299
  339SOL    HW1 1016   0.510   1.217   2.202 -0.8284 -1.6636  0.6022
  339SOL    HW2 1017   0.597   1.280   2.075 -0.0636 -0.6943  2.0961
  340SOL     OW 1018   1.765   2.972   0.775 -0.4294  0.3210 -0.1819
  340SOL    HW1 1019   1.759   2.964   0.878 -0.7702 -0.1355  1.0532
  340SOL    HW2 1020   1.731   3.059   0.747  2.3651 -1.3537 -0.1425
  341SOL     OW 1021   1.887   1.044   0.880 -0.2124  0.2735 -0.7758
  341SOL    HW1 1022   1.806   1.024   0.939  1.6029  1.4561  0.2792
  341SOL    HW2 1023   1.977   1.022   0.930  1.4173  0.6209  0.4092
  342SOL     OW 1024   2.243   2.677   0.032  0.1386  0.2904 -0.6594
  342SOL    HW1 1025   2.187   2.756   0.057  0.3390 -0.2950  0.3118
  342SOL    HW2 1026   2.329   2.665   0.080  1.4603  0.3321 -0.4569
  343SOL     OW 1027   0.901   2.358   1.505 -0.5168 -0.0229 -0.8032
  343SOL    HW1 1028   0.924   2.304   1.588 -1.4973  1.1971 -0.4638
  343SOL    HW2 1029   0.985   2.404   1.461  3.4358  1.3551 -1.4962
  344SOL     OW 1030   2.429   2.399   1.415 -0.1956 -0.0487 -0.4651
  344SOL    HW1 1031   2.354   2.446   1.466  0.2772 -1.5516 -0.4526
  344SOL    HW2 1032   2.522   2.433   1.443  0.1817  3.9855  1.8044
  345SOL     OW 1033   2.675   1.846   3.078  0.0764  0.8333  0.3838
  345SOL    HW1 1034   2.731   1.889   3.003  0.2767  0.0356  0.6087
  345SOL    HW2 1035   2.715   1.761   0.035 -1.7197 -0.6256  1.0131
  346SOL     OW 1036   2.031   2.004   0.659 -0.1517  0.5218  0.8095
  346SOL    HW1 1037   2.131   1.983   0.652 -1.3221 -0.0028  0.8968
  346SOL    HW2 1038   1.996   2.040   0.570 -0.4720  0.5293 -1.8175
  347SOL     OW 1039   1.524   1.876   1.072  0.7091  0.1059 -0.2048
  347SOL    HW1 1040   1.550   1.944   1.000  0.7045 -0.4109 -0.2050
  347SOL    HW2 1041   1.426   1.880   1.091  0.3780  1.3571 -0.9179
  348SOL     OW 1042   0.585   1.858   2.327  0.2519 -0.1225 -0.2040
  348SOL    HW1 1043   0.608   1.929   2.396 -1.3599 -0.0276  1.6372
  348SOL    HW2 1044   0.669   1.803   2.304 -0.4589 -0.1088  1.0073
  349SOL     OW 1045   2.058   1.325   0.659  0.1302 -0.6361  0.2068
  349SOL    HW1 1046   2.128   1.288   0.596  2.4296 -1.0393  2.2829
  349SOL    HW2 1047   1.973   1.267   0.650 -1.0879 -1.8955 -1.7606
  350SOL     OW 1048   2.877   2.458   0.627  0.9149  0.0818 -0.5447
  350SOL    HW1 1049   2.804   2.387   0.631 -3.2265 -0.7018 -1.7293
  350SOL    HW2 1050   2.894   2.485   0.531  2.0057  1.9966 -0.7992
  351SOL     OW 1051   0.373   2.761   1.689 -0.0629 -0.2753  0.4380
  351SOL    HW1 1052   0.429   2.794   1.610 -1.2428 -1.9128 -0.2430
  351SOL    HW2 1053   0.297   2.697   1.662  0.1704 -0.4713 -1.4803
  352SOL     OW 1054   0.442   1.503   1.213 -0.2017  0.0438 -0.2313
  352SOL    HW1 1055   0.485   1.417   1.247  4.4530 -0.1309  1.5918
  352SOL    HW2 1056   0.368   1.532   1.276  0.3998  2.1875  1.0646
  353SOL     OW 1057   1.067   1.362   2.244 -0.1433 -0.0280  0.1684
  353SOL    HW1 1058   0.984   1.315   2.281  1.6091  0.3631 -0.1661
  353SOL    HW2 1059   1.128   1.387   2.322  1.2055  0.1374  3.0239
  354SOL     OW 1060   1.237   3.047   1.759 -0.1527  0.1888 -0.2627
  354SOL    HW1 1061   1.242   3.024   1.661  0.9631  0.0574 -0.1596
  354SOL    HW2 1062   1.199   0.052   1.778 -0.2697 -1.6846  1.7256
  355SOL     OW 1063   2.486   1.099   0.595 -0.2962  0.0908 -0.5529
  355SOL    HW1 1064   2.569   1.061   0.640 -0.1170  1.2598  1.7757
  355SOL    HW2 1065   2.499   1.105   0.494 -1.8634 -0.1814  0.3947
  356SOL     OW 1066   2.915   1.662   1.463  0.2368  0.0368 -0.0581
  356SOL    HW1 1067   2.849   1.724   1.497 -0.0933 -1.5209  0.8234
  356SOL    HW2 1068   2.988   1.710   1.415  0.2960 -2.2348 -0.9677
  357SOL     OW 1069   0.437   2.727   1.182  0.2678 -0.3349 -0.3344
  357SOL    HW1 1070   0.352   2.671   1.165 -1.5264  3.6432 -1.2398
  357SOL    HW2 1071   0.446   2.752   1.281  0.2499 -1.6853  1.6899
  358SOL     OW 1072   2.666   1.513   1.813 -0.0086  0.2599 -0.0245
  358SOL    HW1 1073   2.693   1.488   1.717  1.9260  0.0752  2.9987
  358SOL    HW2 1074   2.579   1.564   1.822 -2.9820  0.3469  1.3026
  359SOL     OW 1075   2.158   2.889   2.744  0.5887 -0.0090  0.5632
  359SOL    HW1 1076   2.131   2.887   2.646 -0.8664  0.0649 -0.6768
  359SOL    HW2 1077   2.071   2.925   2.791 -0.9321  2.6489  2.5808
  360SOL     OW 1078   0.963   0.403   0.821  0.1998 -0.2435  0.0667
  360SOL    HW1 1079   1.043   0.392   0.756 -0.3215  0.9153 -2.6154
  360SOL    HW2 1080   0.878   0.361   0.785 -1.2011 -0.1259  0.7704
  361SOL     OW 1081   2.136   0.053   0.923  0.9685  0.0244 -0.3000
  361SOL    HW1 1082   2.178   0.145   0.900  0.5662 -0.6432  0.9114
  361SOL    HW2 1083   2.191   0.010   0.994 -0.3724  4.0342 -1.2255
  362SOL     OW 1084   1.929   1.215   1.209 -0.0859  0.6173 -0.2520
  362SOL    HW1 1085   1.948   1.292   1.140  0.6365  0.0336 -1.4851
  362SOL    HW2 1086   1.998   1.226   1.287 -0.1787  1.0900 -0.6956
  363SOL     OW 1087   2.081   1.480   2.197  0.1150 -0.3604  0.4385
  363SOL    HW1 1088   2.166   1.472   2.254 -0.9035 -0.3287  2.1444
  363SOL    HW2 1089   2.106   1.440   2.104  1.8248 -1.6800 -1.0081
  364SOL     OW 1090   0.163   3.065   1.220 -0.3090 -0.1393  0.3942
  364SOL    HW1 1091   0.121   0.027   1.299  1.8918  0.1299  1.5187
  364SOL    HW2 1092   0.099   2.998   1.172 -1.2082  1.3046 -0.9813
  365SOL     OW 1093   0.529   0.159   2.910 -0.0815  0.0627  0.0405
  365SOL    HW1 1094   0.471   0.118   2.835 -1.2327  1.3595  2.1437
  365SOL    HW2 1095   0.615   0.109   2.927 -1.8469 -1.5039  0.7468
  366SOL     OW 1096   1.876   2.524   2.893  0.2993 -0.1486  0.0578
  366SOL    HW1 1097   1.900   2.587   2.819 -3.3502 -1.9924 -2.2861
  366SOL    HW2 1098   1.955   2.459   2.911 -2.5451 -1.2551 -0.0105
  367SOL     OW 1099   2.887   2.345   2.979 -0.0823 -0.0134  0.3644
  367SOL    HW1 1100   2.796   2.393   2.993  1.3670  0.6168  0.9471
  367SOL    HW2 1101   2.937   2.353   3.065 -2.6111  2.2194  0.2431
  368SOL     OW 1102   0.120   1.115   1.441  0.3813  0.0890 -0.1103
  368SOL    HW1 1103   0.091   1.201   1.394  0.4044 -0.1244 -1.3708
  368SOL    HW2 1104   0.189   1.147   1.512 -1.8540  0.7023  0.3253
  369SOL     OW 1105   0.825   2.875   3.038 -0.0714  0.3529  0.1051
  369SOL    HW1 1106   0.917   2.846   3.074 -1.0772  0.4432  0.8261
  369SOL    HW2 1107   0.811   2.810   2.963 -0.9884  0.2345 -0.0463
  370SOL     OW 1108   2.682   0.891   0.410 -0.5203 -0.0021  0.2211
  370SOL    HW1 1109   2.737   0.961   0.368  1.9896 -1.2645  2.3424
  370SOL    HW2 1110   2.592   0.918   0.419  1.3529  1.1703 -0.3226
  371SOL     OW 1111   1.798   2.306   0.751 -0.1244  0.1674  0.4761
  371SOL    HW1 1112   1.826   2.218   0.795 -0.8565  2.9457  1.8150
  371SOL    HW2 1113   1.761   2.284   0.656  2.2385  2.6034 -0.5944
  372SOL     OW 1114   2.997   0.980   2.763 -0.1497 -0.1871  0.6543
  372SOL    HW1 1115   3.070   0.975   2.837  0.4294 -0.9434 -4.9190
  372SOL    HW2 1116   3.035   1.037   2.685  1.7208 -0.4622 -1.2283
  373SOL     OW 1117   2.958   1.477   1.238  0.2397  0.0725  0.4889
  373SOL    HW1 1118   2.970   1.518   1.330 -0.3033  2.5247  1.6909
  373SOL    HW2 1119   2.989   1.534   1.157 -0.2299 -0.5234 -2.3184
  374SOL     OW 1120   0.580   2.890   0.049 -0.2712 -0.2362 -0.0753
  374SOL    HW1 1121   0.559   2.971   0.105  0.8190  0.8634 -1.1992
  374SOL    HW2 1122   0.670   2.908   3.087  1.3226  0.6736 -1.5042
  375SOL     OW 1123   0.097   3.034   0.028  0.3364 -0.4019 -0.0364
  375SOL    HW1 1124   0.137   0.018   0.087 -1.1359 -0.3680 -1.6801
  375SOL    HW2 1125   0.002   3.013   0.065 -2.1148  0.6633 -2.1623
  376SOL     OW 1126   0.136   2.109   1.561 -0.7236  0.4233 -0.7720
  376SOL    HW1 1127   0.035   2.100   1.555  1.4718 -1.1932  2.6716
  376SOL    HW2 1128   0.179   2.121   1.470 -1.8310  2.0836  2.3177
  377SOL     OW 1129   1.634   2.508   2.627  0.6309  0.3492 -0.3191
  377SOL    HW1 1130   1.666   2.465   2.715 -2.7983  0.1880  0.7221
  377SOL    HW2 1131   1.590   2.431   2.575  1.8266  0.4740  0.9436
  378SOL     OW 1132   0.546   0.342   0.014  0.2608 -0.3865  0.6305
  378SOL    HW1 1133   0.501   0.431   3.079  1.1417  0.6763 -1.3218
  378SOL    HW2 1134   0.545   0.270   3.027  2.9325  1.1389  0.5335
  379SOL     OW 1135   0.597   1.092   0.432 -0.1713 -0.1995 -0.0187
  379SOL    HW1 1136   0.665   1.158   0.467 -1.0062 -0.3091  0.8372
  379SOL    HW2 1137   0.629   1.052   0.343  1.0764 -2.2032 -3.1653
  380SOL     OW 1138   3.035   1.835   1.949  0.4963  0.0355  0.1597
  380SOL    HW1 1139   2.980   1.759   1.916  0.5005  1.2436  1.3338
  380SOL    HW2 1140   0.014   1.802   2.018 -1.1299  0.6064 -3.0567
  381SOL     OW 1141   0.247   0.922   1.944 -0.0970 -0.4865 -0.4308
  381SOL    HW1 1142   0.247   1.023   1.945 -0.2893 -1.5125 -1.0616
  381SOL    HW2 1143   0.224   0.884   1.853  1.0307  0.2521  1.6960
  382SOL     OW 1144   2.366   1.969   0.192  0.0323 -0.0125 -0.0288
  382SOL    HW1 1145   2.379   1.868   0.166  0.3486 -0.6132 -0.2185
  382SOL    HW2 1146   2.429   2.022   0.129 -0.2009  1.8193 -0.3117
  383SOL     OW 1147   2.823   1.921   2.842  0.3182 -0.1275 -0.2461
  383SOL    HW1 1148   2.918   1.907   2.881 -0.6975 -1.0362 -0.1394
  383SOL    HW2 1149   2.801   2.018   2.839  0.0140 -2.7260  3.0109
  384SOL     OW 1150   0.459   2.381   2.750 -0.4679  0.1070  0.0778
  384SOL    HW1 1151   0.393   2.328   2.801  0.1531  1.3490 -1.3269
  384SOL    HW2 1152   0.462   2.359   2.652  1.8667  0.3136  1.2481
  385SOL     OW 1153   0.132   1.173   1.086 -0.3768  0.0213 -0.4434
  385SOL    HW1 1154   0.136   1.218   1.174  2.3317  1.2683  0.3850
  385SOL    HW2 1155   0.090   1.236   1.018  1.3382 -0.7010  1.1547
  386SOL     OW 1156   2.078   1.578   1.384 -0.3374 -0.1281 -0.3988
  386SOL    HW1 1157   2.127   1.590   1.472  1.6715 -0.8840 -1.2531
  386SOL    HW2 1158   2.108   1.645   1.316 -0.4435 -2.9574 -0.7457
  387SOL     OW 1159   2.704   1.268   1.918  0.6017 -0.1472  0.2628
  387SOL    HW1 1160   2.622   1.221   1.879  0.8437  1.3982 -0.9120
  387SOL    HW2 1161   2.705   1.365   1.889 -0.0801  2.5532  2.3773
  388SOL     OW 1162   2.729   1.347   2.193  0.3406  0.1837  0.0076
  388SOL    HW1 1163   2.719   1.269   2.257  0.3637 -1.4938  2.8273
  388SOL    HW2 1164   2.725   1.315   2.099 -1.6716 -3.0670  1.0082
  389SOL     OW 1165   2.107   1.357   1.959 -0.0671 -0.0678 -0.0581
  389SOL    HW1 1166   2.017   1.311   1.957  0.0397  0.7310  0.3466
  389SOL    HW2 1167   2.161   1.324   1.878 -1.6448 -0.1809 -0.1102
  390SOL     OW 1168   1.760   2.698   0.300 -0.3158  0.1784  0.0902
  390SOL    HW1 1169   1.863   2.709   0.300  2.0208  2.5185  0.6871
  390SOL    HW2 1170   1.723   2.722   0.394  1.7351  1.0153 -1.6718
  391SOL     OW 1171   2.480   1.866   0.759  0.1279  0.5520  0.3994
  391SOL    HW1 1172   2.482   1.927   0.844  1.1010 -3.0387  1.5268
  391SOL    HW2 1173   2.395   1.892   0.706 -2.0455  0.2822  1.2324
  392SOL     OW 1174   2.983   2.498   0.959 -0.4541  0.0815  0.0588
  392SOL    HW1 1175   3.014   2.580   0.904 -0.9887 -0.3482 -1.8821
  392SOL    HW2 1176   3.029   2.492   1.049  1.2279 -0.4632  4.2282
  393SOL     OW 1177   1.795   2.052   2.896  0.5804  0.2050  0.0288
  393SOL    HW1 1178   1.871   1.989   2.870  1.2284 -0.3888  1.4981
  393SOL    HW2 1179   1.741   2.019   2.976  1.2043  1.2085 -0.6649
  394SOL     OW 1180   0.128   0.296   2.754 -0.2388 -0.9141 -0.0187
  394SOL    HW1 1181   0.196   0.263   2.683  1.4617 -4.1744  0.7041
  394SOL    HW2 1182   0.147   0.244   2.840  3.8308  2.0771  1.7592
  395SOL     OW 1183   0.872   0.865   0.965 -0.2359  0.0633 -0.0884
  395SOL    HW1 1184   0.891   0.793   0.890  0.4968 -1.5864 -0.6258
  395SOL    HW2 1185   0.865   0.958   0.927  3.3482  1.9783 -1.1849
  396SOL     OW 1186   1.208   1.037   0.313 -0.2119  0.0982 -0.3256
  396SOL    HW1 1187   1.166   1.001   0.401 -2.0707 -0.3223  3.3061
  396SOL    HW2 1188   1.280   0.976   0.278  2.4222  3.1185 -0.2366
  397SOL     OW 1189   0.376   0.726   2.060 -0.3089  0.6398  0.2163
  397SOL    HW1 1190   0.343   0.811   2.019  1.1345 -0.3658  1.6784
  397SOL    HW2 1191   0.331   0.651   2.014  1.0827  1.5560  1.4958
  398SOL     OW 1192   1.284   0.112   0.678 -0.0554  0.1601  0.1575
  398SOL    HW1 1193   1.311   0.094   0.770  1.1544  0.2532 -2.5112
  398SOL    HW2 1194   1.261   0.018   0.635 -2.1157 -3.9633 -1.1381
  399SOL     OW 1195   2.054   2.912   1.547  1.0030  0.1585 -0.4676
  399SOL    HW1 1196   2.008   2.860   1.623  1.8836 -0.3804 -0.3007
  399SOL    HW2 1197   1.981   2.970   1.507 -0.9771  0.1982 -1.7266
  400SOL     OW 1198   1.197   1.718   2.126 -0.5217 -0.2453 -0.1393
  400SOL    HW1 1199   1.228   1.807   2.162  1.2465  0.3237  1.3214
  400SOL    HW2 1200   1.269   1.652   2.144  0.8809  0.5010  1.6336
  401SOL     OW 1201   0.541   0.999   2.750  0.1577 -0.5722  0.0759
  401SOL    HW1 1202   0.554   0.902   2.732  0.4104  0.6847 -0.7856
  401SOL    HW2 1203   0.460   1.029   2.699  0.1211 -1.4211  0.9068
  402SOL     OW 1204   2.866   1.866   1.238  0.2974 -0.2253 -0.0405
  402SOL    HW1 1205   2.800   1.838   1.169 -0.0900 -0.6866  1.1131
  402SOL    HW2 1206   2.842   1.840   1.332  1.6351  1.9325  0.0277
  403SOL     OW 1207   3.055   0.971   2.085 -0.1709 -0.1648 -0.5714
  403SOL    HW1 1208   3.019   1.028   2.009 -0.9215 -0.0560 -1.0388
  403SOL    HW2 1209   0.035   1.023   2.135 -2.5236  2.7022 -0.9208
  404SOL     OW 1210   0.038   2.560   1.728 -0.4908  0.3397 -0.5621
  404SOL    HW1 1211   0.112   2.557   1.657 -0.9693 -0.0726  1.2018
  404SOL    HW2 1212   3.043   2.572   1.679  1.3846 -1.9302 -0.1070
  405SOL     OW 1213   0.579   0.338   1.976  0.2528  0.4376 -0.0967
  405SOL    HW1 1214   0.676   0.342   2.006  3.3324  0.4047  1.7400
  405SOL    HW2 1215   0.521   0.309   2.053  2.1042  0.9301  1.7751
  406SOL     OW 1216   1.650   2.126   2.230 -0.2005 -0.5118  0.4070
  406SOL    HW1 1217   1.647   2.163   2.134  0.0951 -0.3628  2.8384
  406SOL    HW2 1218   1.675   2.030   2.220 -2.1293  0.9718  1.5258
  407SOL     OW 1219   1.315   1.398   2.380  0.1761  0.2251 -0.1351
  407SOL    HW1 1220   1.328   1.464   2.301  1.4223  1.2180 -0.8268
  407SOL    HW2 1221   1.348   1.307   2.358  1.3361  1.8062 -0.5655
  408SOL     OW 1222   0.878   0.141   2.428 -0.1616 -0.0162 -0.0040
  408SOL    HW1 1223   0.852   0.119   2.331 -1.2459  1.1347 -0.7334
  408SOL    HW2 1224   0.862   0.057   2.484  0.4324  2.3751  0.0903
  409SOL     OW 1225   0.465   2.005   0.366 -0.6760 -0.1286 -0.0222
  409SOL    HW1 1226   0.520   1.962   0.292 -1.6164  2.2852  1.5349
  409SOL    HW2 1227   0.523   2.060   0.428  1.5594  1.8557  0.0480
  410SOL     OW 1228   2.791   1.161   0.348  0.3308 -0.2039 -0.1377
  410SOL    HW1 1229   2.878   1.113   0.344 -0.6672  0.1499 -0.4280
  410SOL    HW2 1230   2.752   1.187   0.258 -0.0827  0.6863  0.2639
  411SOL     OW 1231   2.846   3.037   0.999 -0.0764  0.1702  0.0990
  411SOL    HW1 1232   2.820   0.045   0.989  0.6976 -0.5309  0.4908
  411SOL    HW2 1233   2.783   2.972   0.957  0.5822  2.0735  0.7312
  412SOL     OW 1234   1.500   1.016   1.151  0.1676 -0.4623  0.0976
  412SOL    HW1 1235   1.491   1.100   1.098 -0.8540 -2.0597 -1.2852
  412SOL    HW2 1236   1.596   0.994   1.167  1.4406 -0.9735 -1.1781
  413SOL     OW 1237   0.529   2.789   1.461  0.1100 -0.0797  0.1483
  413SOL    HW1 1238   0.580   2.870   1.431  0.7509 -0.0880  0.2988
  413SOL    HW2 1239   0.585   2.702   1.452 -1.3147  0.0818 -0.6015
  414SOL     OW 1240   2.829   1.542   2.707 -0.1346 -0.1553  0.0851
  414SOL    HW1 1241   2.769   1.627   2.695 -1.2975  0.5507 -2.8069
  414SOL    HW2 1242   2.848   1.511   2.806  0.1034  0.7812  2.7441
  415SOL     OW 1243   0.427   2.508   3.015  0.1511  0.2663 -0.0550
  415SOL    HW1 1244   0.462   2.464   2.927  1.4737 -0.5445 -0.1290
  415SOL    HW2 1245   0.423   2.609   3.007 -0.7188 -0.1742 -1.9394
  416SOL     OW 1246   1.895   2.971   0.476  0.5101  0.2010 -0.5220
  416SOL    HW1 1247   1.835   3.035   0.525 -1.3079 -0.7960 -0.3686
  416SOL    HW2 1248   1.881   2.985   0.377  0.7597  0.3925 -0.1514
  417SOL     OW 1249   0.349   0.624   0.913  0.3147 -0.2365 -0.0097
  417SOL    HW1 1250   0.417   0.699   0.921 -0.3713  1.8624 -1.0201
  417SOL    HW2 1251   0.390   0.537   0.946  0.0518 -1.3908  0.3075
  418SOL     OW 1252   2.588   0.384   1.358  0.0259  0.5206 -0.1433
  418SOL    HW1 1253   2.662   0.406   1.420 -0.1954 -1.4683 -0.7471
  418SOL    HW2 1254   2.496   0.372   1.402  0.8538  0.2504 -0.8354
  419SOL     OW 1255   2.917   0.264   0.364  0.1471  0.6886  0.1016
  419SOL    HW1 1256   2.992   0.335   0.369 -0.8875 -1.4505 -0.5379
  419SOL    HW2 1257   2.936   0.189   0.431  2.7183 -1.4903  0.7938
  420SOL     OW 1258   0.395   1.449   1.662  0.6764 -0.1923  0.3976
  420SOL    HW1 1259   0.490   1.445   1.704 -4.9943  1.6871  3.5536
  420SOL    HW2 1260   0.358   1.352   1.646 -0.2575 -1.3512 -2.3062
  421SOL     OW 1261   1.164   2.979   0.536  0.2485  0.0761  0.4274
  421SOL    HW1 1262   1.120   2.890   0.519 -0.7770  2.0027  3.3993
  421SOL    HW2 1263   1.152   3.039   0.455 -0.4596 -2.8506  0.3348
  422SOL     OW 1264   0.269   0.500   1.486  0.2337 -0.0699  0.0481
  422SOL    HW1 1265   0.262   0.581   1.540 -0.2745 -0.0630 -1.4821
  422SOL    HW2 1266   0.257   0.513   1.387  0.1085 -3.6560  3.0086
  423SOL     OW 1267   1.254   1.064   1.430  0.2515 -0.1288  0.2846
  423SOL    HW1 1268   1.353   1.060   1.410 -0.2376 -1.6184 -1.4631
  423SOL    HW2 1269   1.205   0.987   1.389  1.0142  0.3815 -0.4101
  424SOL     OW 1270   1.937   1.605   2.707 -0.6664  0.4448 -0.6526
  424SOL    HW1 1271   2.020   1.565   2.753  1.3371 -1.3615 -0.6120
  424SOL    HW2 1272   1.852   1.541   2.699 -2.9528 -0.7209  2.2706
  425SOL     OW 1273   2.882   0.298   2.116  0.3120 -0.0655 -0.5044
  425SOL    HW1 1274   2.885   0.246   2.205 -0.8464  0.2365  1.1475
  425SOL    HW2 1275   2.886   0.397   2.142 -1.2855  0.3673 -0.4647
  426SOL     OW 1276   0.201   2.919   2.891 -0.4099  0.1868  0.1047
  426SOL    HW1 1277   0.154   2.959   2.969  2.4215  0.2654 -0.8628
  426SOL    HW2 1278   0.136   2.910   2.811 -2.9526  1.4411  0.5257
  427SOL     OW 1279   1.148   1.066   2.728 -0.0931  0.0132 -0.1196
  427SOL    HW1 1280   1.212   1.132   2.768  0.3834 -2.1052  0.3289
  427SOL    HW2 1281   1.082   1.040   2.805  0.9240 -2.2334  1.4922
  428SOL     OW 1282   2.524   1.143   1.765  0.0430 -0.1817 -0.3706
  428SOL    HW1 1283   2.544   1.047   1.794  0.2460  2.6448  0.2224
  428SOL    HW2 1284   2.559   1.152   1.672 -1.2930 -2.5290  3.9605
  429SOL     OW 1285   2.284   2.586   0.623  0.5023 -0.3381 -0.5181
  429SOL    HW1 1286   2.372   2.545   0.667  0.9294 -0.7961  0.2105
  429SOL    HW2 1287   2.236   2.517   0.563 -2.3923 -1.8017 -2.0122
  430SOL     OW 1288   0.838   1.295   2.371 -0.4757 -0.2044  0.0803
  430SOL    HW1 1289   0.841   1.189   2.376  0.2385 -2.5085 -0.2051
  430SOL    HW2 1290   0.842   1.324   2.471  1.2408  0.3390  2.8141
  431SOL     OW 1291   2.753   1.459   1.567  0.1138 -0.1639 -0.1648
  431SOL    HW1 1292   2.815   1.538   1.539  2.6993  1.3295  0.9801
  431SOL    HW2 1293   2.792   1.368   1.542  0.1593 -0.2266  2.9540
  432SOL     OW 1294   0.985   2.638   2.267  0.3856  0.2888 -0.0137
  432SOL    HW1 1295   1.034   2.579   2.202  3.1267  0.6680  0.1924
  432SOL    HW2 1296   0.978   2.589   2.355 -0.0819 -0.5029  1.0401
  433SOL     OW 1297   1.996   0.216   2.457 -0.4189  0.1838 -0.2572
  433SOL    HW1 1298   2.097   0.205   2.472  1.6754 -0.3790 -1.4613
  433SOL    HW2 1299   1.977   0.203   2.358 -1.3864 -1.6864 -0.6512
  434SOL     OW 1300   0.377   2.659   2.370 -0.3779  0.5852 -0.2780
  434SOL    HW1 1301   0.358   2.594   2.448 -1.5343 -0.3451  1.2458
  434SOL    HW2 1302   0.317   2.632   2.291 -0.4073  0.5947  0.5349
  435SOL     OW 1303   3.036   2.789   0.323  0.5086  0.3133  0.1649
  435SOL    HW1 1304   3.031   2.824   0.417 -0.3283 -2.1837 -1.9994
  435SOL    HW2 1305   2.992   2.696   0.324 -1.9024 -2.0749 -1.4682
  436SOL     OW 1306   0.859   0.605   2.124  0.4670 -0.1355 -0.1161
  436SOL    HW1 1307   0.773   0.655   2.111  3.0115 -1.3020  1.9897
  436SOL    HW2 1308   0.849   0.515   2.074 -0.7755  1.6138  1.7774
  437SOL     OW 1309   0.055   2.617   2.387 -0.0617 -0.3210 -0.5275
  437SOL    HW1 1310   0.090   2.579   2.480 -1.5873 -0.4226  1.3906
  437SOL    HW2 1311   0.117   2.599   2.314 -1.0109 -0.5304 -0.4754
  438SOL     OW 1312   0.839   1.268   1.848  0.2062 -0.0800  0.3394
  438SOL    HW1 1313   0.872   1.189   1.898 -3.5135  0.3339 -1.5825
  438SOL    HW2 1314   0.915   1.308   1.788 -1.1621  2.2909 -1.2527
  439SOL     OW 1315   2.358   0.968   2.123  0.0710 -0.0811 -0.4225
  439SOL    HW1 1316   2.272   0.948   2.175  0.0207  2.1644  0.7185
  439SOL    HW2 1317   2.360   1.067   2.097  0.3032 -1.0015 -1.9462
  440SOL     OW 1318   0.407   0.769   0.325 -0.2156  0.2053  0.1591
  440SOL    HW1 1319   0.385   0.759   0.226 -1.0617 -0.2088  0.9196
  440SOL    HW2 1320   0.329   0.724   0.379 -5.9294  0.3221  2.8960
  441SOL     OW 1321   0.678   2.570   1.406 -0.0763  0.4766  0.1870
  441SOL    HW1 1322   0.706   2.512   1.485 -0.1553 -1.5345  0.8470
  441SOL    HW2 1323   0.658   2.519   1.321  1.1597  0.2680 -0.5791
  442SOL     OW 1324   2.486   1.379   0.666  0.0657  0.5263  0.1679
  442SOL    HW1 1325   2.480   1.280   0.660 -1.8592 -1.7574  2.7632
  442SOL    HW2 1326   2.580   1.411   0.658 -1.2367 -0.4227  1.3693
  443SOL     OW 1327   2.655   1.929   2.403 -0.5696 -0.4545 -0.0071
  443SOL    HW1 1328   2.619   2.025   2.412 -0.2485  1.7436  0.6912
  443SOL    HW2 1329   2.654   1.898   2.305  1.8171 -0.8616  0.9516
  444SOL     OW 1330   1.589   1.500   2.903  0.1142 -0.0419  0.2207
  444SOL    HW1 1331   1.656   1.571   2.940  0.4371  1.0525  1.1386
  444SOL    HW2 1332   1.517   1.479   2.971  2.1627 -1.4541 -1.0580
  445SOL     OW 1333   2.611   2.714   2.219 -0.3263  0.1030 -0.1047
  445SOL    HW1 1334   2.605   2.643   2.148 -0.4189 -0.8764  0.0601
  445SOL    HW2 1335   2.695   2.764   2.212 -3.0110 -0.7666 -3.1389
  446SOL     OW 1336   0.500   1.104   1.505 -0.1351  0.2953  0.1838
  446SOL    HW1 1337   0.518   1.034   1.433  0.1198  2.0172 -0.9400
  446SOL    HW2 1338   0.582   1.111   1.568  0.4937  2.2630 -1.2452
  447SOL     OW 1339   0.868   1.265   1.128 -0.2796 -0.8344  0.1867
  447SOL    HW1 1340   0.970   1.249   1.111 -0.8077 -0.1518 -0.6396
  447SOL    HW2 1341   0.853   1.247   1.227  0.2579  2.1701  0.0723
  448SOL     OW 1342   1.143   1.182   1.653 -0.2483  0.1404  0.2541
  448SOL    HW1 1343   1.110   1.119   1.724  0.6384 -3.5863  1.5863
  448SOL    HW2 1344   1.171   1.128   1.566  2.4799 -2.6729 -2.5075
  449SOL     OW 1345   3.079   2.088   2.349 -0.1746 -0.2556 -0.2903
  449SOL    HW1 1346   3.044   2.163   2.291  1.3059  0.7523 -0.8845
  449SOL    HW2 1347   0.091   2.093   2.347 -0.3242 -0.0146 -1.5837
  450SOL     OW 1348   2.845   2.011   2.021  0.5628 -0.0273  0.1485
  450SOL    HW1 1349   2.860   2.108   2.009 -0.6297 -3.3341 -0.5170
  450SOL    HW2 1350   2.927   1.963   1.989  0.0877  1.2997  2.4034
  451SOL     OW 1351   2.235   1.008   1.297  0.0912  0.0752 -0.2095
  451SOL    HW1 1352   2.157   0.982   1.358 -0.6485 -1.2003 -0.6540
  451SOL    HW2 1353   2.312   0.945   1.309 -3.5188  0.6700 -0.8109
  452SOL     OW 1354   0.584   1.288   1.338  0.0030 -0.2899 -0.2148
  452SOL    HW1 1355   0.681   1.286   1.376  0.8081  0.3517 -0.2609
  452SOL    HW2 1356   0.530   1.212   1.378 -0.5721 -1.0822  2.0930
  453SOL     OW 1357   0.598   1.207   1.011 -0.1227 -0.1829 -0.1745
  453SOL    HW1 1358   0.578   1.111   1.032  0.8586  2.6239  1.9636
  453SOL    HW2 1359   0.653   1.247   1.086  0.6260  0.4756 -0.8005
  454SOL     OW 1360   0.431   1.712   0.050  0.3476 -0.4253  0.2511
  454SOL    HW1 1361   0.502   1.701   0.122  1.9601  0.3639  0.5331
  454SOL    HW2 1362   0.412   1.621   0.008 -2.0043  1.3586 -1.6892
  455SOL     OW 1363   1.960   0.833   0.675  0.3179 -0.3595 -0.3140
  455SOL    HW1 1364   1.983   0.757   0.741  1.1007  0.3585 -0.3916
  455SOL    HW2 1365   1.932   0.918   0.730  0.6154  0.8944  0.9619
  456SOL     OW 1366   2.012   2.492   0.984  0.4166  0.4985  0.6469
  456SOL    HW1 1367   2.070   2.563   0.944 -2.5726 -1.0058  0.4157
  456SOL    HW2 1368   2.060   2.404   0.996 -1.4801  0.8764  0.6782
  457SOL     OW 1369   1.920   0.001   2.613 -0.0369  0.3078 -0.0001
  457SOL    HW1 1370   1.918   0.090   2.573  1.1937  1.3753 -0.1862
  457SOL    HW2 1371   1.958   3.023   2.543 -2.4603 -1.8358  0.8515
  458SOL     OW 1372   2.275   0.300   0.309 -0.3644  0.4535 -0.3138
  458SOL    HW1 1373   2.295   0.312   0.210 -2.9369 -1.4002  3.3241
  458SOL    HW2 1374   2.216   0.376   0.345  0.8780 -0.4313 -0.3373
  459SOL     OW 1375   0.005   1.126   2.305 -0.0147 -0.1058  0.1490
  459SOL    HW1 1376   2.996   1.105   2.299  1.4325  0.7158 -0.2707
  459SOL    HW2 1377   0.024   1.221   2.278 -0.6428 -1.7746  0.9835
  460SOL     OW 1378   0.121   0.763   3.024 -0.2512 -0.2859  0.1298
  460SOL    HW1 1379   0.129   0.691   2.959  0.7065 -0.3232  4.6218
  460SOL    HW2 1380   0.172   0.847   2.995  2.3902 -0.0060  0.7283
  461SOL     OW 1381   2.804   2.270   0.954  0.0387  0.1288 -0.1375
  461SOL    HW1 1382   2.887   2.325   0.957 -1.1921  0.2340  0.5532
  461SOL    HW2 1383   2.818   2.191   0.894 -1.5484  0.7359  1.3865
  462SOL     OW 1384   0.405   0.096   1.710 -0.3812  0.0313  0.2107
  462SOL    HW1 1385   0.433   0.195   1.717  0.1325  0.1890 -1.3432
  462SOL    HW2 1386   0.365   0.077   1.619 -0.7488 -0.0513  0.7124
  463SOL     OW 1387   2.086   2.359   2.123 -0.2014 -0.1782 -0.6442
  463SOL    HW1 1388   2.053   2.283   2.186  0.4081 -0.7870  1.0969
  463SOL    HW2 1389   2.009   2.398   2.070  0.6496  0.8403 -0.8021
  464SOL     OW 1390   0.336   0.003   1.470  0.7715  0.2148 -0.4553
  464SOL    HW1 1391   0.302   3.013   1.528 -0.5837 -2.3487  1.1836
  464SOL    HW2 1392   0.379   3.062   1.382 -0.8745  0.4367 -2.6900
  465SOL     OW 1393   0.717   0.198   1.316  0.6401 -0.1055 -0.5384
  465SOL    HW1 1394   0.817   0.217   1.325  2.2102  1.1817  1.2640
  465SOL    HW2 1395   0.665   0.264   1.375  0.5136  1.7850 -0.5349
  466SOL     OW 1396   1.438   1.916   1.811  0.5220  0.2307 -0.2409
  466SOL    HW1 1397   1.509   1.911   1.740 -0.5490 -0.0867 -1.9187
  466SOL    HW2 1398   1.348   1.913   1.762 -0.8850 -1.5819 -1.0989
  467SOL     OW 1399   0.256   1.725   1.150 -0.1718  0.0684  0.4016
  467SOL    HW1 1400   0.320   1.648   1.128  3.7389  0.6839 -0.5711
  467SOL    HW2 1401   0.302   1.817   1.162 -0.2219  4.6456 -0.3147
  468SOL     OW 1402   2.359   2.077   2.639 -0.3047  0.2790 -0.1958
  468SOL    HW1 1403   2.421   2.068   2.557  1.4130  0.9743  2.5770
  468SOL    HW2 1404   2.262   2.057   2.618  2.3053 -1.0628  1.3912
  469SOL     OW 1405   1.173   2.331   0.565  0.0346 -0.6797 -0.0292
  469SOL    HW1 1406   1.096   2.317   0.500  1.7644  1.6567  1.0717
  469SOL    HW2 1407   1.261   2.346   0.514  2.0673 -0.5948 -0.1358
  470SOL     OW 1408   2.165   1.622   0.992 -0.3487 -0.0905 -0.0091
  470SOL    HW1 1409   2.214   1.672   1.067  0.3903  0.4887 -3.1111
  470SOL    HW2 1410   2.230   1.602   0.916  1.5185 -3.4683 -1.3717
  471SOL     OW 1411   0.528   2.433   0.437 -0.1321  0.1506  0.2462
  471SOL    HW1 1412   0.436   2.453   0.393 -3.5456 -0.3934 -1.4403
  471SOL    HW2 1413   0.590   2.507   0.422  1.4793 -1.6390  1.4515
  472SOL     OW 1414   2.684   1.818   2.152  0.0881 -0.5936 -0.0697
  472SOL    HW1 1415   2.737   1.734   2.150 -1.7658  2.3641 -0.3920
  472SOL    HW2 1416   2.740   1.898   2.112 -0.0149  0.9685 -1.5467
  473SOL     OW 1417   1.251   2.921   0.770 -0.2495  0.0213  0.1300
  473SOL    HW1 1418   1.338   2.867   0.772 -1.6106 -0.2562  1.3645
  473SOL    HW2 1419   1.226   2.930   0.671 -0.5260 -1.5623 -0.0958
  474SOL     OW 1420   2.963   0.068   1.351  0.0282  0.2899  0.2090
  474SOL    HW1 1421   2.863   0.072   1.331  0.5358 -1.4461 -0.4611
  474SOL    HW2 1422   3.013   0.127   1.285 -3.4249 -1.2941 -0.7938
  475SOL     OW 1423   1.686   2.617   1.592  0.4858  0.1500 -0.1872
  475SOL    HW1 1424   1.694   2.536   1.659 -0.7957  0.5238  2.3514
  475SOL    HW2 1425   1.584   2.643   1.597 -2.7094 -0.6622 -0.7931
  476SOL     OW 1426   0.368   0.338   0.987 -0.3202  0.0746  0.4329
  476SOL    HW1 1427   0.466   0.364   0.970  0.2200  1.8129 -2.6443
  476SOL    HW2 1428   0.358   0.241   1.015 -0.2713  0.7847 -1.9264
  477SOL     OW 1429   0.926   2.295   1.040 -0.2089  0.1060 -0.3013
  477SOL    HW1 1430   0.836   2.294   0.995  0.2520  0.1573  2.8139
  477SOL    HW2 1431   1.001   2.259   0.981 -0.4726 -1.9551  2.1636
  478SOL     OW 1432   0.522   2.658   2.744  0.1151 -0.2522  0.0013
  478SOL    HW1 1433   0.475   2.572   2.724  2.4302  2.8045  0.8565
  478SOL    HW2 1434   0.470   2.722   2.800 -0.9148 -1.8490 -1.9180
  479SOL     OW 1435   0.189   0.515   2.012 -0.6308 -0.2526  0.0198
  479SOL    HW1 1436   0.129   0.589   2.052 -1.2557 -0.6670  2.2044
  479SOL    HW2 1437   0.164   0.424   2.051 -0.4424 -2.2480 -1.4800
  480SOL     OW 1438   0.045   2.057   0.017  0.3529 -0.2377 -0.2278
  480SOL    HW1 1439   0.037   2.154   3.084  1.5303 -2.6895 -2.7729
  480SOL    HW2 1440   0.134   2.034   0.059  0.7314 -0.8254  0.6008
  481SOL     OW 1441   1.484   2.581   2.199  0.6403  0.5128  0.1332
  481SOL    HW1 1442   1.575   2.529   2.197 -0.7742 -3.3431  1.4002
  481SOL    HW2 1443   1.415   2.534   2.138 -1.0124 -1.0688  1.5709
  482SOL     OW 1444   1.462   2.165   2.879 -0.1347  0.0535 -0.4191
  482SOL    HW1 1445   1.532   2.224   2.835  1.7422 -3.1279 -0.6241
  482SOL    HW2 1446   1.473   2.066   2.845 -2.0232 -0.5492 -1.5440
  483SOL     OW 1447   0.774   2.656   2.885 -0.9558 -0.0088  0.1108
  483SOL    HW1 1448   0.681   2.667   2.844 -3.2562 -1.7736  0.5236
  483SOL    HW2 1449   0.826   2.586   2.835 -0.8233  1.1065  2.7491
  484SOL     OW 1450   0.150   3.011   0.875  0.1902 -0.3422  0.4726
  484SOL    HW1 1451   0.151   2.918   0.916  1.4005  0.5054  0.4449
  484SOL    HW2 1452   0.154   3.004   0.771 -0.9444 -0.8232 -3.2415
  485SOL     OW 1453   1.737   0.780   0.501 -0.8580  0.2039  0.4380
  485SOL    HW1 1454   1.817   0.826   0.545  0.1993 -0.8309 -0.7043
  485SOL    HW2 1455   1.724   0.687   0.545  1.4237 -1.1795  1.1401
  486SOL     OW 1456   1.908   2.703   1.974 -0.6139  0.1330 -0.4125
  486SOL    HW1 1457   2.009   2.720   1.991  1.9886 -1.3031  3.4360
  486SOL    HW2 1458   1.852   2.739   2.050  1.2348 -0.5095 -0.7197
  487SOL     OW 1459   1.579   2.082   0.920 -0.2628 -0.1842 -0.6107
  487SOL    HW1 1460   1.537   2.172   0.927  0.1986 -0.3740 -2.4325
  487SOL    HW2 1461   1.679   2.074   0.896  2.1772 -2.1245  1.4382
  488SOL     OW 1462   1.715   0.751   0.016 -0.3769 -0.5833  0.3160
  488SOL    HW1 1463   1.690   0.805   0.099 -3.0390  1.6145  1.3713
  488SOL    HW2 1464   1.816   0.745   0.008  3.8325  0.4707  0.8302
  489SOL     OW 1465   2.198   3.059   0.613 -0.1952  0.8651 -0.0384
  489SOL    HW1 1466   2.140   3.010   0.682  1.4511 -0.5448  0.2734
  489SOL    HW2 1467   2.294   3.033   0.632 -0.2092 -0.3690 -0.9189
  490SOL     OW 1468   1.577   2.817   2.947  0.2423  0.2562 -0.1622
  490SOL    HW1 1469   1.579   2.894   3.016  1.1993  0.5253 -1.9258
  490SOL    HW2 1470   1.645   2.834   2.873  1.1435 -0.3819  3.1123
  491SOL     OW 1471   0.903   0.497   1.078 -0.6842 -0.3093 -0.0643
  491SOL    HW1 1472   0.923   0.467   0.979 -0.0449 -0.8912 -1.1204
  491SOL    HW2 1473   0.987   0.492   1.139  3.6771 -0.6612  3.4070
  492SOL     OW 1474   1.729   0.412   0.223 -0.3368  0.1678 -0.0925
  492SOL    HW1 1475   1.800   0.373   0.162 -1.5013 -1.9468 -0.4921
  492SOL    HW2 1476   1.772   0.421   0.314  1.5186 -1.5894 -2.8230
  493SOL     OW 1477   2.016   2.267   2.767 -0.1058  0.4597 -0.1261
  493SOL    HW1 1478   2.089   2.290   2.835 -1.1633  1.0226 -4.0113
  493SOL    HW2 1479   1.948   2.199   2.803 -2.1453  0.0852 -1.2928
  494SOL     OW 1480   0.481   0.943   1.060  0.5086  0.1402 -0.3249
  494SOL    HW1 1481   0.515   0.895   0.978 -2.4067 -1.7604  0.4787
  494SOL    HW2 1482   0.381   0.928   1.068  0.5303  1.6584 -1.1593
  495SOL     OW 1483   3.059   2.971   1.514 -0.1411 -0.0075 -0.0844
  495SOL    HW1 1484   3.022   3.043   1.453  0.4463 -1.1365 -0.9888
  495SOL    HW2 1485   0.015   3.025   1.590 -0.9495  1.8887  1.2212
  496SOL     OW 1486   2.817   2.615   1.924  0.0372 -0.1676 -0.0900
  496SOL    HW1 1487   2.867   2.600   1.835  2.5651  0.5606 -0.8961
  496SOL    HW2 1488   2.838   2.540   1.989 -2.1932  1.4379  1.7502
  497SOL     OW 1489   1.615   1.804   2.577 -0.1848  0.3135  0.3262
  497SOL    HW1 1490   1.522   1.781   2.536 -1.6004 -0.7057 -0.3977
  497SOL    HW2 1491   1.687   1.758   2.526 -1.2912  1.2200  0.0115
  498SOL     OW 1492   0.470   1.809   0.951  0.1343  0.5661  0.4252
  498SOL    HW1 1493   0.441   1.715   0.970  1.7108 -1.0120  1.8646
  498SOL    HW2 1494   0.391   1.867   0.916  1.0034 -0.2431  1.9877
  499SOL     OW 1495   0.251   1.572   1.386 -0.2934 -0.2211 -0.9878
  499SOL    HW1 1496   0.302   1.583   1.476 -2.3371  0.5060 -1.6137
  499SOL    HW2 1497   0.178   1.642   1.375  2.0898 -0.0919  0.0059
  500SOL     OW 1498   1.370   2.412   0.402  0.3723  0.0947 -0.4221
  500SOL    HW1 1499   1.438   2.335   0.391  1.0587  0.1884 -1.4401
  500SOL    HW2 1500   1.352   2.440   0.304  0.7687  1.8950 -3.0773
  501SOL     OW 1501   2.251   2.289   1.012  0.2522  0.2904  0.0478
  501SOL    HW1 1502   2.316   2.346   1.069 -0.5500 -2.0879 -2.6005
  501SOL    HW2 1503   2.278   2.302   0.917  2.2350  0.2976  2.1580
  502SOL     OW 1504   0.153   0.843   1.645  0.1588  0.3073 -0.0717
  502SOL    HW1 1505   0.176   0.846   1.544  0.7436 -2.5430 -1.1899
  502SOL    HW2 1506   0.186   0.754   1.687 -0.4834 -0.7540 -1.4454
  503SOL     OW 1507   2.363   0.036   1.814  0.7742  0.0028  0.2602
  503SOL    HW1 1508   2.289   0.102   1.803  0.5614 -0.8340  0.1107
  503SOL    HW2 1509   2.433   0.049   1.743 -1.7310 -0.4539 -1.5326
  504SOL     OW 1510   2.024   0.681   2.007 -0.2901  0.5900 -0.7966
  504SOL    HW1 1511   1.983   0.739   1.936  2.9828 -1.3900 -0.6999
  504SOL    HW2 1512   2.109   0.722   2.043 -0.7915  1.0158 -1.1760
  505SOL     OW 1513   1.167   2.891   2.326 -0.4445  0.3772 -0.1061
  505SOL    HW1 1514   1.216   2.852   2.403  0.1951  1.1935 -0.6618
  505SOL    HW2 1515   1.113   2.828   2.275  2.0221  1.4314  2.3885
  506SOL     OW 1516   0.464   0.358   1.747  0.0213  0.1605 -0.2707
  506SOL    HW1 1517   0.503   0.329   1.837  0.1299  1.4374  3.2038
  506SOL    HW2 1518   0.458   0.459   1.749 -0.6683 -1.8410 -0.6052
  507SOL     OW 1519   1.540   0.327   2.936  0.3710 -0.3281 -0.3259
  507SOL    HW1 1520   1.466   0.350   2.872  3.3536 -0.4826 -0.2968
  507SOL    HW2 1521   1.505   0.309   3.025  1.1028  3.0624 -3.4834
  508SOL     OW 1522   2.484   0.605   2.432  0.3821  0.3869  0.1485
  508SOL    HW1 1523   2.452   0.631   2.528 -0.2261 -2.4649  2.1032
  508SOL    HW2 1524   2.501   0.687   2.374  0.1284 -0.4310 -0.4861
  509SOL     OW 1525   0.926   1.598   2.034 -0.3476 -0.1423  0.2352
  509SOL    HW1 1526   1.019   1.617   2.069  0.0185 -1.8417  2.4319
  509SOL    HW2 1527   0.926   1.558   1.942  0.8731 -0.8918 -0.1437
  510SOL     OW 1528   2.962   0.623   0.878 -0.2327  0.1025 -0.3472
  510SOL    HW1 1529   2.991   0.670   0.794 -2.7442  0.4923  4.2315
  510SOL    HW2 1530   2.878   0.662   0.922  0.9145  0.3875  0.1993
  511SOL     OW 1531   1.541   1.244   0.726  0.0488  0.1243  0.7291
  511SOL    HW1 1532   1.501   1.248   0.634  0.0822 -0.6125 -2.1141
  511SOL    HW2 1533   1.554   1.335   0.765 -0.2218 -3.2945  0.8194
  512SOL     OW 1534   0.714   1.461   0.181  0.1644  0.3773  0.2181
  512SOL    HW1 1535   0.624   1.447   0.224  3.1465  0.6032  2.4767
  512SOL    HW2 1536   0.783   1.456   0.262 -0.8859 -0.8050  1.9435
  513SOL     OW 1537   0.266   2.676   0.585 -0.8674  0.3810 -0.2884
  513SOL    HW1 1538   0.335   2.731   0.639 -0.4648 -1.2305  1.4850
  513SOL    HW2 1539   0.264   2.582   0.616  0.3906 -0.5452 -1.5812
  514SOL     OW 1540   0.294   2.021   0.125 -0.5908  0.1900  0.3135
  514SOL    HW1 1541   0.364   1.981   0.061  1.6369  0.4353  0.7150
  514SOL    HW2 1542   0.337   2.044   0.210 -1.2370 -0.4299  1.5561
  515SOL     OW 1543   2.570   0.373   0.276  0.0359 -0.0418 -0.1797
  515SOL    HW1 1544   2.568   0.323   0.188  0.0190 -4.1394  0.8168
  515SOL    HW2 1545   2.529   0.322   0.351  1.4436  1.8268  0.9413
  516SOL     OW 1546   2.286   2.662   1.114 -0.1697 -0.4586  0.3717
  516SOL    HW1 1547   2.220   2.690   1.185  0.3232 -0.3776 -1.4026
  516SOL    HW2 1548   2.245   2.655   1.017 -1.2463  0.2320 -2.6055
  517SOL     OW 1549   1.372   1.746   3.024 -0.2482 -0.3183 -0.1420
  517SOL    HW1 1550   1.405   1.710   0.028  0.5326 -0.9490  1.6365
  517SOL    HW2 1551   1.274   1.765   3.015  0.0953  1.6081 -0.1718
  518SOL     OW 1552   1.327   0.498   1.544 -0.0513 -0.0296  0.0814
  518SOL    HW1 1553   1.326   0.558   1.462 -0.0912  2.5613  0.6096
  518SOL    HW2 1554   1.257   0.530   1.611  2.9996 -1.5067  0.4212
  519SOL     OW 1555   3.028   2.094   0.589 -0.6612  0.1970 -0.1147
  519SOL    HW1 1556   3.033   2.184   0.636 -1.1934  0.2236  0.2698
  519SOL    HW2 1557   3.017   2.111   0.492  0.4883  1.1007  0.5000
  520SOL     OW 1558   2.422   2.262   1.783  0.0305  0.5023  0.0006
  520SOL    HW1 1559   2.399   2.214   1.864 -0.8598  2.8306 -3.6752
  520SOL    HW2 1560   2.448   2.356   1.807 -1.3548  0.4758  0.2423
  521SOL     OW 1561   1.051   2.866   2.679 -0.0275  0.2587  0.1748
  521SOL    HW1 1562   1.119   2.808   2.627 -2.2549 -0.6644  0.1602
  521SOL    HW2 1563   1.065   2.855   2.779  2.9924 -3.3733  1.7713
  522SOL     OW 1564   2.779   0.016   2.035  0.4113  0.3088 -0.0564
  522SOL    HW1 1565   2.866   0.041   1.995 -0.8497  2.1425 -0.6854
  522SOL    HW2 1566   2.707   0.090   2.029  0.0691 -1.9649 -1.3732
  523SOL     OW 1567   1.304   2.211   1.732  0.1489 -0.0577  0.0319
  523SOL    HW1 1568   1.265   2.168   1.817 -1.4670 -1.0802  2.8569
  523SOL    HW2 1569   1.320   2.139   1.662  1.2327 -2.2291 -2.4024
  524SOL     OW 1570   2.053   2.127   0.005  0.1582 -0.2871  0.1809
  524SOL    HW1 1571   2.093   2.215   3.057  0.8767  0.2222 -2.4936
  524SOL    HW2 1572   2.112   2.045   3.069 -0.8934 -2.2151 -0.8516
  525SOL     OW 1573   2.987   0.993   0.315 -0.3781 -0.2674  0.0882
  525SOL    HW1 1574   3.056   0.974   0.240  0.5819  1.2858 -0.0491
  525SOL    HW2 1575   2.956   0.903   0.361 -1.9258 -2.7413 -1.0761
  526SOL     OW 1576   0.898   2.899   1.159  0.1420  0.3793  0.6287
  526SOL    HW1 1577   0.908   2.939   1.065 -0.9927 -1.4184  0.8107
  526SOL    HW2 1578   0.921   2.796   1.154 -0.2534 -3.3309  0.8857
  527SOL     OW 1579   2.740   1.525   0.529  0.1198 -0.5587 -0.3909
  527SOL    HW1 1580   2.717   1.615   0.574  0.2572 -0.4591  0.1447
  527SOL    HW2 1581   2.843   1.518   0.521  4.5924 -1.8116 -0.0550
  528SOL     OW 1582   0.539   0.791   2.466 -0.6136  0.2961  0.4497
  528SOL    HW1 1583   0.598   0.876   2.481 -3.9034 -0.4773  2.1206
  528SOL    HW2 1584   0.460   0.812   2.403  0.7160  0.0779 -3.9890
  529SOL     OW 1585   0.977   1.470   2.869 -0.7056 -0.3747  0.2543
  529SOL    HW1 1586   1.079   1.490   2.884  0.9906  0.3137  0.2350
  529SOL    HW2 1587   0.962   1.405   2.797 -1.3138  0.6380  1.6053
  530SOL     OW 1588   1.606   1.267   2.045 -0.2020  0.4361  0.5177
  530SOL    HW1 1589   1.570   1.175   2.022 -0.8329  1.1800  2.5446
  530SOL    HW2 1590   1.607   1.277   2.145  1.9418  0.7444  1.7470
  531SOL     OW 1591   0.728   2.102   2.991 -0.0392  0.8039 -0.1702
  531SOL    HW1 1592   0.824   2.113   2.966 -0.9766 -0.9618  2.1911
  531SOL    HW2 1593   0.709   2.170   3.066 -0.2371  2.4769  2.9879
  532SOL     OW 1594   2.405   0.688   0.312  0.1348  0.2764 -0.1506
  532SOL    HW1 1595   2.369   0.710   0.219 -0.6294 -1.1735 -1.1405
  532SOL    HW2 1596   2.509   0.685   0.302  0.1127  2.3927 -0.2034
  533SOL     OW 1597   0.039   0.386   1.754  0.3301  0.1225 -0.2636
  533SOL    HW1 1598   0.132   0.390   1.709 -0.1407 -1.1210  1.1477
  533SOL    HW2 1599   3.088   0.479   1.778  2.5280 -1.7738 -1.5515
  534SOL     OW 1600   1.699   0.558   2.927  0.1218  0.5150  0.1606
  534SOL    HW1 1601   1.635   0.476   2.930 -3.6575 -1.6819  0.5793
  534SOL    HW2 1602   1.699   0.615   3.011 -1.2288  1.7195 -0.1592
  535SOL     OW 1603   0.809   0.064   0.254 -0.1190 -0.2115  0.2989
  535SOL    HW1 1604   0.853   0.076   0.162 -1.3752  1.0571 -1.2801
  535SOL    HW2 1605   0.712   0.025   0.243 -2.7635 -1.5078 -1.4452
  536SOL     OW 1606   0.589   1.576   2.027  0.1333 -0.0886 -0.4449
  536SOL    HW1 1607   0.501   1.602   2.071  1.0497 -1.0775 -0.1708
  536SOL    HW2 1608   0.646   1.507   2.084  2.1807 -1.3427 -0.2741
  537SOL     OW 1609   0.470   2.357   1.952 -0.6070 -0.0158 -0.1776
  537SOL    HW1 1610   0.438   2.322   1.864  1.4139  1.0919 -0.3306
  537SOL    HW2 1611   0.413   2.327   2.028  1.3093  1.2228 -0.3289
  538SOL     OW 1612   3.017   1.798   0.277  0.2473 -0.3409  0.1256
  538SOL    HW1 1613   0.006   1.760   0.218  1.4210  0.1409 -1.5626
  538SOL    HW2 1614   3.047   1.791   0.370 -2.2567  1.2467 -1.4783
  539SOL     OW 1615   2.463   0.520   2.933  0.0361 -0.1211 -0.0324
  539SOL    HW1 1616   2.421   0.435   2.885 -1.0413 -0.3795 -0.6527
  539SOL    HW2 1617   2.548   0.504   2.985  1.3495 -2.8558  1.0588
  540SOL     OW 1618   1.285   0.795   2.678  0.3131 -0.0717 -0.1245
  540SOL    HW1 1619   1.387   0.810   2.693 -0.3800 -1.2411  1.6769
  540SOL    HW2 1620   1.243   0.886   2.705  1.3016  0.0782  0.0770
  541SOL     OW 1621   0.790   0.437   1.727 -0.3460 -0.2576  0.0330
  541SOL    HW1 1622   0.731   0.400   1.800 -2.0225 -0.3454 -2.6023
  541SOL    HW2 1623   0.759   0.528   1.695  1.4971  1.4386  1.7221
  542SOL     OW 1624   1.809   2.630   2.447 -0.1312 -0.1583  0.1437
  542SOL    HW1 1625   1.731   2.605   2.505  2.2719  1.2094 -0.9078
  542SOL    HW2 1626   1.769   2.673   2.360 -1.8579  1.2938 -0.8774
  543SOL     OW 1627   0.528   2.922   1.023 -0.1431  0.4590  0.0056
  543SOL    HW1 1628   0.502   2.847   1.092  0.3155  1.2055  1.6807
  543SOL    HW2 1629   0.567   3.006   1.068  2.8296 -0.1340 -1.0103
  544SOL     OW 1630   2.850   1.598   2.213  0.2766  0.5178 -0.6290
  544SOL    HW1 1631   2.796   1.506   2.200 -1.6294 -0.4686  1.8674
  544SOL    HW2 1632   2.886   1.603   2.306  0.3296 -0.3470  0.9395
  545SOL     OW 1633   1.970   2.081   1.259 -0.0441 -0.0378  0.3771
  545SOL    HW1 1634   1.932   2.158   1.309  0.8503  0.2114 -0.0178
  545SOL    HW2 1635   1.896   2.039   1.202 -0.7496 -0.5285 -2.9580
  546SOL     OW 1636   0.165   0.295   2.318 -0.4002  0.0090 -0.0727
  546SOL    HW1 1637   0.153   0.213   2.257  0.9969 -1.3246 -0.7325
  546SOL    HW2 1638   0.203   0.256   2.405  0.4911 -3.0272 -0.0797
  547SOL     OW 1639   1.539   0.410   0.902 -0.3764 -0.2753  0.0255
  547SOL    HW1 1640   1.567   0.470   0.980  1.4026 -2.3389 -1.0530
  547SOL    HW2 1641   1.467   0.460   0.846 -1.5172  2.8057  0.7516
  548SOL     OW 1642   1.218   2.456   2.835  0.3706  0.0707 -0.3935
  548SOL    HW1 1643   1.266   2.370   2.811  2.0314  1.0453 -2.1889
  548SOL    HW2 1644   1.276   2.534   2.800  1.1462 -1.5731 -0.1229
  549SOL     OW 1645   2.161   0.726   2.639  0.4018 -0.3341 -0.1453
  549SOL    HW1 1646   2.264   0.720   2.659  0.2848  0.3265 -0.3533
  549SOL    HW2 1647   2.139   0.717   2.539  0.9704  1.6929  1.2273
  550SOL     OW 1648   2.753   1.860   0.371 -0.3370 -0.3703 -0.1696
  550SOL    HW1 1649   2.696   1.793   0.319  0.9012 -0.2893  2.1053
  550SOL    HW2 1650   2.851   1.837   0.363 -0.2200  0.5124 -1.2187
  551SOL     OW 1651   1.220   2.839   1.961 -0.6477 -0.0126  0.1609
  551SOL    HW1 1652   1.250   2.894   1.880  0.1197 -1.7796 -0.7553
  551SOL    HW2 1653   1.283   2.846   2.038 -1.3245  1.8604  2.6808
  552SOL     OW 1654   3.041   2.172   2.624 -0.4607 -0.3542  0.1503
  552SOL    HW1 1655   3.048   2.139   2.528  0.2174 -2.2793 -0.8819
  552SOL    HW2 1656   2.944   2.165   2.657  0.7594 -1.1769  1.7841
  553SOL     OW 1657   0.285   2.519   1.083 -0.4130 -0.0015  0.3893
  553SOL    HW1 1658   0.332   2.432   1.044  2.5866 -3.0098  0.7596
  553SOL    HW2 1659   0.208   2.489   1.144 -2.4704 -1.7992  0.5321
  554SOL     OW 1660   2.424   1.957   1.821  0.1964 -0.2999  0.0605
  554SOL    HW1 1661   2.362   1.948   1.903  1.3666 -0.5026  1.3669
  554SOL    HW2 1662   2.372   2.013   1.750 -0.6797 -0.1591 -0.7231
  555SOL     OW 1663   1.675   2.147   1.965  0.2964 -0.2343  0.0041
  555SOL    HW1 1664   1.640   2.051   1.969 -0.6136 -2.9923 -0.6113
  555SOL    HW2 1665   1.605   2.212   1.934  0.5004  0.6628 -3.6447
  556SOL     OW 1666   1.383   1.599   1.007  0.5907 -0.0036  0.3737
  556SOL    HW1 1667   1.383   1.539   1.090 -0.6399  1.8357 -1.0041
  556SOL    HW2 1668   1.426   1.687   1.029  0.1856 -1.7109  0.5733
  557SOL     OW 1669   1.200   0.000   1.446  0.9698 -0.0187  0.1350
  557SOL    HW1 1670   1.200   0.100   1.474  0.7327 -0.2006  0.7668
  557SOL    HW2 1671   1.109   3.043   1.458  3.0688  1.0200  0.5145
  558SOL     OW 1672   0.603   3.067   1.846  0.6696 -0.1882  0.5279
  558SOL    HW1 1673   0.573   3.075   1.940 -1.9445  0.6124 -3.6422
  558SOL    HW2 1674   0.538   0.030   1.782 -3.5599 -1.4349 -4.2889
  559SOL     OW 1675   2.144   2.773   0.474  0.0744  0.0736  0.0812
  559SOL    HW1 1676   2.152   2.870   0.503 -0.9757 -1.3352  0.7376
  559SOL    HW2 1677   2.188   2.712   0.544 -0.7900  2.4801 -0.6008
  560SOL     OW 1678   1.428   2.539   0.660 -0.1227 -0.6808 -0.3057
  560SOL    HW1 1679   1.414   2.490   0.574  4.3761  0.1884  4.1078
  560SOL    HW2 1680   1.499   2.496   0.722  2.0694  1.4212  0.5755
  561SOL     OW 1681   1.069   0.372   0.134 -0.0099 -0.3408  0.0355
  561SOL    HW1 1682   1.054   0.458   0.087 -0.8112  0.2505 -0.6168
  561SOL    HW2 1683   1.027   0.373   0.224  3.9712 -0.5373 -1.7736
  562SOL     OW 1684   0.418   1.338   2.341  0.3990 -0.0551 -0.2320
  562SOL    HW1 1685   0.411   1.260   2.409 -3.2853 -0.1660  0.2766
  562SOL    HW2 1686   0.459   1.411   2.398  2.3150  1.4126  0.2072
  563SOL     OW 1687   1.610   2.245   2.467 -0.2238 -0.0815 -0.2775
  563SOL    HW1 1688   1.628   2.208   2.374  2.1941  1.4072 -0.0321
  563SOL    HW2 1689   1.653   2.183   2.536 -1.5827 -2.0609 -1.4834
  564SOL     OW 1690   2.999   1.009   1.021 -0.5938  0.2640  0.3408
  564SOL    HW1 1691   2.911   1.057   1.000 -1.0670 -0.8470 -0.3123
  564SOL    HW2 1692   3.062   1.067   1.074 -1.2977 -2.5146 -0.7698
  565SOL     OW 1693   0.428   0.660   0.066 -0.1810  0.4143 -0.1072
  565SOL    HW1 1694   0.399   0.596   3.074 -0.5906 -0.5820 -1.2658
  565SOL    HW2 1695   0.521   0.636   0.098 -1.3621  1.0763  1.2078
  566SOL     OW 1696   2.436   2.975   2.799  0.0201  0.3464 -0.2885
  566SOL    HW1 1697   2.471   3.066   2.790 -1.3832 -1.9160 -2.7767
  566SOL    HW2 1698   2.338   2.975   2.818  3.5932 -0.2863  0.4229
  567SOL     OW 1699   1.454   1.217   0.975  0.1826 -0.0609 -0.0530
  567SOL    HW1 1700   1.489   1.218   0.879  0.1929 -0.4123  1.4435
  567SOL    HW2 1701   1.470   1.305   1.026 -1.5875 -1.9825  0.3706
  568SOL     OW 1702   1.489   1.905   2.812  0.0581  0.3227 -0.6637
  568SOL    HW1 1703   1.558   1.852   2.758 -0.7327 -1.0431 -1.0660
  568SOL    HW2 1704   1.457   1.853   2.891 -1.7054  1.6423  0.0365
  569SOL     OW 1705   2.143   1.446   2.838  0.2747  0.2167 -0.5087
  569SOL    HW1 1706   2.243   1.420   2.856 -0.9443 -1.0845  1.4785
  569SOL    HW2 1707   2.086   1.409   2.910  1.1111  0.1692 -0.3653
  570SOL     OW 1708   0.065   2.321   1.861 -0.2953  0.3975 -0.2099
  570SOL    HW1 1709   0.053   2.408   1.810  1.0594 -1.5391  1.9840
  570SOL    HW2 1710   0.145   2.276   1.821 -0.4520  1.1190 -1.1672
  571SOL     OW 1711   2.725   1.909   1.483 -0.2055  0.3141  0.5072
  571SOL    HW1 1712   2.677   1.964   1.410  1.2019 -0.8473  1.5552
  571SOL    HW2 1713   2.709   1.948   1.579 -2.4444 -0.2888  0.8432
  572SOL     OW 1714   1.814   2.140   0.117 -0.2844  0.3490  0.4051
  572SOL    HW1 1715   1.803   2.235   0.152 -1.4787  1.3677 -1.1326
  572SOL    HW2 1716   1.904   2.117   0.077  1.3317 -3.3220 -1.0698
  573SOL     OW 1717   1.719   2.227   0.491 -0.0343 -0.1462  0.1386
  573SOL    HW1 1718   1.650   2.216   0.414 -2.5828 -2.4145  0.8799
  573SOL    HW2 1719   1.811   2.220   0.451 -1.6063  3.1012 -2.2596
  574SOL     OW 1720   1.288   0.167   1.228  0.6123  0.7452  0.7044
  574SOL    HW1 1721   1.240   0.113   1.301 -1.3527 -1.6894 -1.0753
  574SOL    HW2 1722   1.310   0.104   1.146 -2.1698 -2.3583 -3.0061
  575SOL     OW 1723   0.734   1.105   1.654 -0.0352  0.0538  0.0861
  575SOL    HW1 1724   0.758   1.165   1.736 -0.1010  1.3321  2.3967
  575SOL    HW2 1725   0.799   1.028   1.637  0.0530  0.1167 -1.4160
  576SOL     OW 1726   2.763   0.464   1.530  0.4924  0.0832 -0.0622
  576SOL    HW1 1727   2.833   0.387   1.545 -1.6788 -1.5320 -0.7287
  576SOL    HW2 1728   2.801   0.559   1.551  0.9826  0.1497  1.8106
  577SOL     OW 1729   1.386   1.150   2.289 -0.7945 -0.1652  0.6991
  577SOL    HW1 1730   1.456   1.101   2.348  2.8742  0.0920 -0.7813
  577SOL    HW2 1731   1.409   1.126   2.194  0.9480 -1.0622  2.1611
  578SOL     OW 1732   1.901   1.254   2.316  0.2859 -0.1195 -0.3962
  578SOL    HW1 1733   1.810   1.298   2.320  2.1810  0.2290  1.6694
  578SOL    HW2 1734   1.965   1.304   2.251 -1.1935  0.9845  1.7958
  579SOL     OW 1735   1.285   2.023   1.504  0.2770  0.4767  0.2467
  579SOL    HW1 1736   1.196   2.027   1.452 -0.6140  3.6406 -3.9606
  579SOL    HW2 1737   1.341   1.957   1.452 -0.3951 -1.3224 -0.1258
  580SOL     OW 1738   1.538   2.201   0.291 -0.1063 -0.1521  0.1417
  580SOL    HW1 1739   1.582   2.244   0.208 -0.4612  1.3421 -2.8533
  580SOL    HW2 1740   1.461   2.144   0.266  0.0195  2.9824  2.2379
  581SOL     OW 1741   1.025   0.837   2.110 -0.0747 -0.3128 -0.0062
  581SOL    HW1 1742   0.953   0.767   2.107 -0.0304 -1.0918  2.1819
  581SOL    HW2 1743   1.097   0.799   2.170  1.1925  1.4224 -3.3318
  582SOL     OW 1744   0.931   0.896   1.627 -0.2013  0.2004 -0.0146
  582SOL    HW1 1745   0.994   0.890   1.708 -1.0326  0.7691  2.2634
  582SOL    HW2 1746   0.982   0.882   1.539 -0.5638  1.6606 -1.0975
  583SOL     OW 1747   0.971   1.080   1.992  0.2719 -0.1546 -0.7266
  583SOL    HW1 1748   0.994   0.990   2.037  0.5320 -1.0088  0.7101
  583SOL    HW2 1749   1.047   1.151   1.999  2.1572  0.9749 -0.8998
  584SOL     OW 1750   2.336   2.251   0.731  0.0847 -0.1024 -0.3842
  584SOL    HW1 1751   2.427   2.216   0.705 -0.1773  1.0531 -0.2691
  584SOL    HW2 1752   2.276   2.220   0.653 -0.8082 -1.0525 -1.4058
  585SOL     OW 1753   1.784   0.215   2.896  0.3858 -0.1256 -0.3760
  585SOL    HW1 1754   1.695   0.242   2.927  1.7007  0.7495 -1.9904
  585SOL    HW2 1755   1.813   0.280   2.817  0.0664  0.6313 -1.6709
  586SOL     OW 1756   0.115   2.149   0.942  0.2240 -0.7561 -0.1458
  586SOL    HW1 1757   0.059   2.191   0.870  2.8164 -0.4570  0.1437
  586SOL    HW2 1758   0.066   2.142   1.029 -1.7341 -2.2771 -1.7100
  587SOL     OW 1759   1.679   1.928   0.039 -0.0004 -0.2396  0.1313
  587SOL    HW1 1760   1.740   2.006   0.072  0.8022  0.0488 -0.0279
  587SOL    HW2 1761   1.598   1.928   0.102  0.5608 -0.4417 -1.8277
  588SOL     OW 1762   0.079   0.179   0.940 -0.1361 -0.4696  0.4423
  588SOL    HW1 1763   0.063   0.198   1.039  1.2922  1.5378  1.2717
  588SOL    HW2 1764   0.093   0.080   0.917 -0.3844  1.1286 -0.6087
  589SOL     OW 1765   1.343   0.527   0.729 -0.4739  0.0424  0.2823
  589SOL    HW1 1766   1.300   0.601   0.785 -3.9076  0.8435  0.7417
  589SOL    HW2 1767   1.390   0.561   0.649 -0.9679 -1.9451 -3.1865
  590SOL     OW 1768   1.384   1.443   0.025 -1.2022 -0.2635  0.0323
  590SOL    HW1 1769   1.287   1.436   0.044 -0.1308  0.1859 -0.5337
  590SOL    HW2 1770   1.421   1.349   0.034 -2.8596 -0.1729 -0.7973
  591SOL     OW 1771   2.518   2.394   2.534  0.0595  0.1588 -0.1957
  591SOL    HW1 1772   2.506   2.391   2.632 -0.6292  2.2282 -2.7053
  591SOL    HW2 1773   2.484   2.480   2.490 -0.7349 -1.2310 -1.0331
  592SOL     OW 1774   1.653   2.233   1.576 -0.3828 -0.1163  0.3424
  592SOL    HW1 1775   1.570   2.264   1.524 -1.4882 -0.8137 -2.0414
  592SOL    HW2 1776   1.650   2.131   1.585  0.4041 -1.9761  0.3563
  593SOL     OW 1777   0.791   0.088   0.885 -0.0290 -0.1997 -0.1608
  593SOL    HW1 1778   0.729   0.113   0.959  0.7726  2.4419 -1.6680
  593SOL    HW2 1779   0.885   0.069   0.916 -1.6967 -1.1777 -1.0235
  594SOL     OW 1780   2.992   0.639   2.492 -0.7452 -0.2153  0.0233
  594SOL    HW1 1781   2.948   0.728   2.505  2.6253 -0.1879  1.4689
  594SOL    HW2 1782   2.994   0.587   2.580  0.0459 -2.5419  0.3760
  595SOL     OW 1783   0.597   2.483   1.176 -0.1249  0.1134 -0.1091
  595SOL    HW1 1784   0.638   2.423   1.103 -0.1207 -0.9375  1.7561
  595SOL    HW2 1785   0.539   2.558   1.139 -0.3205  0.0669 -0.2201
  596SOL     OW 1786   0.179   0.867   1.368 -0.2784 -0.0157  0.3138
  596SOL    HW1 1787   0.152   0.963   1.391 -0.4674  2.4085 -1.4572
  596SOL    HW2 1788   0.222   0.861   1.275  1.0777 -1.0126 -0.5998
  597SOL     OW 1789   1.493   1.910   0.257  0.1806 -0.1182 -0.1537
  597SOL    HW1 1790   1.461   1.814   0.253  0.7365  1.3506 -1.5469
  597SOL    HW2 1791   1.554   1.921   0.339  1.3632  0.9466 -0.4738
  598SOL     OW 1792   0.501   2.817   1.934  0.1894  0.7587 -0.6384
  598SOL    HW1 1793   0.446   2.778   1.860  4.6575 -1.9469  2.0584
  598SOL    HW2 1794   0.574   2.882   1.905 -0.5234  1.0874 -0.2499
  599SOL     OW 1795   2.453   1.628   2.702 -0.2286  0.0409  0.5729
  599SOL    HW1 1796   2.410   1.574   2.627 -0.3473 -1.9632 -3.8183
  599SOL    HW2 1797   2.511   1.707   2.670  0.9406  3.8478 -3.3734
  600SOL     OW 1798   0.832   0.995   0.256 -0.8761  0.0868  0.4166
  600SOL    HW1 1799   0.849   0.986   0.359 -1.2378  0.4915  2.6116
  600SOL    HW2 1800   0.910   1.050   0.213  1.0316  0.9497  1.5742
  601SOL     OW 1801   0.565   0.793   0.843 -0.2279 -0.3878 -0.2969
  601SOL    HW1 1802   0.536   0.853   0.763 -1.3580 -0.2546 -1.2464
  601SOL    HW2 1803   0.661   0.792   0.858 -0.4249  0.0748 -1.6041
  602SOL     OW 1804   1.775   0.099   0.579  0.2423 -0.0862 -0.4001
  602SOL    HW1 1805   1.859   0.145   0.608  0.6942 -0.6782 -1.5443
  602SOL    HW2 1806   1.706   0.169   0.552  0.7939  2.5762 -2.0323
  603SOL     OW 1807   0.794   2.844   2.375  0.1965 -0.1384 -0.3337
  603SOL    HW1 1808   0.862   2.790   2.322 -0.2068  1.7663 -3.3128
  603SOL    HW2 1809   0.842   2.910   2.439 -1.5262  1.1040  1.2191
  604SOL     OW 1810   2.924   2.982   2.544  0.8077  0.3749 -0.3680
  604SOL    HW1 1811   2.992   3.015   2.483  0.6404 -0.5794 -2.9581
  604SOL    HW2 1812   2.825   3.005   2.520 -4.0391  0.4117 -0.5416
  605SOL     OW 1813   2.663   1.501   1.202 -0.3011  0.5164  0.4051
  605SOL    HW1 1814   2.606   1.479   1.284  1.0477 -0.8790 -3.1616
  605SOL    HW2 1815   2.750   1.447   1.208  1.7364 -0.9811  1.6983
  606SOL     OW 1816   0.640   1.490   2.741  0.1673  0.2314  0.0316
  606SOL    HW1 1817   0.671   1.557   2.813  0.8283  0.6318 -1.1981
  606SOL    HW2 1818   0.569   1.427   2.785 -1.2589  2.4648  1.1804
  607SOL     OW 1819   0.659   0.183   0.458  0.0447 -0.1355  0.3501
  607SOL    HW1 1820   0.723   0.134   0.392 -1.1615 -1.4095 -1.8943
  607SOL    HW2 1821   0.606   0.249   0.405 -1.1850 -2.1212  0.0440
  608SOL     OW 1822   1.868   1.703   2.003 -0.2561 -0.0387 -0.1099
  608SOL    HW1 1823   1.803   1.627   1.979 -0.5518  1.1393  1.9003
  608SOL    HW2 1824   1.888   1.760   1.918  0.4255 -0.4297  0.0950
  609SOL     OW 1825   2.743   0.206   1.008 -0.5551 -0.2218 -0.2329
  609SOL    HW1 1826   2.728   0.203   1.108  0.2250  1.8058  0.9460
  609SOL    HW2 1827   2.816   0.268   0.979  1.7702 -0.4727 -0.7539
  610SOL     OW 1828   0.450   2.825   0.727  0.0718 -0.2636  0.4236
  610SOL    HW1 1829   0.469   2.883   0.649 -0.9320  1.7963 -0.3202
  610SOL    HW2 1830   0.456   2.879   0.812  0.9163  1.8085  1.3361
  611SOL     OW 1831   1.468   1.065   2.909  0.3709  0.6118 -0.3267
  611SOL    HW1 1832   1.400   1.133   2.874 -1.9641 -0.0621 -2.9510
  611SOL    HW2 1833   1.450   1.041   3.012 -0.6550 -3.4234  0.5298
  612SOL     OW 1834   0.733   2.084   2.124 -0.3756 -0.5582 -0.6043
  612SOL    HW1 1835   0.770   2.033   2.202 -0.3710  2.6388 -0.0823
  612SOL    HW2 1836   0.783   2.174   2.123  2.9130 -0.0307  1.4276
  613SOL     OW 1837   0.559   2.572   0.813 -0.0918  0.3355 -0.3790
  613SOL    HW1 1838   0.567   2.557   0.712 -0.3844  1.3146  2.0545
  613SOL    HW2 1839   0.487   2.637   0.827  1.0299 -1.8368 -0.7625
  614SOL     OW 1840   2.647   2.765   1.639  0.0805 -0.3726 -0.3042
  614SOL    HW1 1841   2.675   2.797   1.734  1.5272  1.8701  0.1562
  614SOL    HW2 1842   2.697   2.809   1.568 -2.1883 -3.4561  0.4732
  615SOL     OW 1843   1.654   1.236   0.202 -0.2280 -0.1840  0.2231
  615SOL    HW1 1844   1.599   1.240   0.289 -1.4415 -2.0421 -1.6449
  615SOL    HW2 1845   1.754   1.225   0.228  3.2953 -0.7457 -1.9585
  616SOL     OW 1846   1.683   0.924   0.238  0.8690 -0.3623  0.1522
  616SOL    HW1 1847   1.675   0.916   0.338  0.1843 -1.9720 -0.2698
  616SOL    HW2 1848   1.593   0.966   0.203 -3.3318 -1.6559  0.3250
  617SOL     OW 1849   1.012   1.012   2.950  0.6167 -0.3561 -0.6707
  617SOL    HW1 1850   1.083   0.942   2.978 -0.6956 -0.9332 -0.1452
  617SOL    HW2 1851   0.982   1.054   3.039  1.1696  0.5064  0.8495
  618SOL     OW 1852   0.855   0.080   1.843 -0.0558 -0.1253 -0.1922
  618SOL    HW1 1853   0.911   0.005   1.888  1.8520 -2.4973 -1.4786
  618SOL    HW2 1854   0.754   0.058   1.846  0.1833 -0.0085  0.6774
  619SOL     OW 1855   2.843   1.202   1.533  0.0130 -0.5231  0.2456
  619SOL    HW1 1856   2.926   1.148   1.543 -3.1062  2.5439 -0.3926
  619SOL    HW2 1857   2.753   1.152   1.554 -1.1803  1.1591  1.2227
  620SOL     OW 1858   2.246   1.048   2.678 -0.2425  0.0903  0.2509
  620SOL    HW1 1859   2.260   1.008   2.584 -2.0854 -0.3637 -1.6619
  620SOL    HW2 1860   2.153   1.082   2.693 -0.0980 -0.1341 -0.6486
  621SOL     OW 1861   2.649   2.503   1.518  0.3587 -0.2098  0.3315
  621SOL    HW1 1862   2.680   2.595   1.523  0.7684 -1.0812 -0.0402
  621SOL    HW2 1863   2.697   2.437   1.583  4.0501 -1.9712 -0.4278
  622SOL     OW 1864   1.004   0.695   2.626  0.1538  0.0175 -0.1731
  622SOL    HW1 1865   0.971   0.652   2.545  0.8369  1.1050 -1.4102
  622SOL    HW2 1866   1.100   0.719   2.614 -1.8917 -0.7126 -1.1676
  623SOL     OW 1867   0.994   0.487   2.793  0.1193  0.9908  0.2358
  623SOL    HW1 1868   0.906   0.435   2.789  0.1997  1.1470  0.4428
  623SOL    HW2 1869   0.984   0.578   2.747 -0.0222 -2.7327 -0.2175
  624SOL     OW 1870   1.993   0.780   3.059 -0.1086 -0.1260 -0.1735
  624SOL    HW1 1871   1.985   0.840   2.979  1.4533 -2.4142 -1.0619
  624SOL    HW2 1872   2.028   0.688   3.028 -1.3052 -0.5100 -2.2701
  625SOL     OW 1873   1.191   1.180   1.042 -0.2463 -0.4617 -0.2020
  625SOL    HW1 1874   1.269   1.228   0.998 -2.3760  1.2712 -0.2739
  625SOL    HW2 1875   1.195   1.184   1.143  1.5047 -0.1891 -2.2874
  626SOL     OW 1876   1.564   1.189   2.520  0.3231 -0.2666 -0.4203
  626SOL    HW1 1877   1.547   1.088   2.510 -0.9528 -2.0323 -2.1293
  626SOL    HW2 1878   1.647   1.207   2.577  1.4410  1.4106 -0.4417
  627SOL     OW 1879   0.859   3.038   2.630 -0.0882  0.0147 -0.1620
  627SOL    HW1 1880   0.920   2.958   2.649  0.4053 -0.3590 -1.6812
  627SOL    HW2 1881   0.893   0.032   2.678 -0.2781 -2.1143 -0.2904
  628SOL     OW 1882   2.536   0.153   2.493 -0.3629  0.3750  0.2671
  628SOL    HW1 1883   2.514   0.137   2.588 -0.5405 -0.5543 -1.5862
  628SOL    HW2 1884   2.584   0.244   2.484  0.4700 -1.7722  2.6593
  629SOL     OW 1885   0.752   0.791   2.812 -0.0833 -0.3342  0.1049
  629SOL    HW1 1886   0.830   0.775   2.751  2.1893 -0.2450 -2.4352
  629SOL    HW2 1887   0.776   0.824   2.907 -1.8787  0.8826 -1.6256
  630SOL     OW 1888   1.209   0.250   2.097  0.4246 -0.0965 -0.2295
  630SOL    HW1 1889   1.212   0.336   2.155  0.5947  0.0368  0.3804
  630SOL    HW2 1890   1.206   0.165   2.159 -0.4922 -1.4375  0.6896
  631SOL     OW 1891   2.842   0.813   0.687  0.2808  0.1391  0.6111
  631SOL    HW1 1892   2.793   0.890   0.643 -0.6842  1.0767 -1.5069
  631SOL    HW2 1893   2.852   0.732   0.629 -0.4757  0.8047  1.1620
  632SOL     OW 1894   1.961   0.818   1.379 -0.4508 -0.5117 -0.2057
  632SOL    HW1 1895   1.994   0.853   1.470 -1.1145  1.1470 -0.3118
  632SOL    HW2 1896   1.990   0.723   1.368  1.3739  2.9706 -1.5359
  633SOL     OW 1897   1.153   1.039   0.782 -0.1346  0.5929  0.0193
  633SOL    HW1 1898   1.177   0.939   0.789 -2.0571 -1.9290 -0.4517
  633SOL    HW2 1899   1.159   1.086   0.871 -0.8821 -0.3988 -3.2495
  634SOL     OW 1900   1.787   2.880   1.056 -0.3540  0.0696 -0.1923
  634SOL    HW1 1901   1.877   2.898   1.094 -1.2465 -1.1816  0.4171
  634SOL    HW2 1902   1.790   2.799   0.995 -2.7617 -1.0912  1.2245
  635SOL     OW 1903   1.748   0.795   0.969 -0.3550 -0.3109  0.1777
  635SOL    HW1 1904   1.672   0.839   0.914 -2.3481  2.0195 -1.4908
  635SOL    HW2 1905   1.775   0.848   1.054 -0.6958  2.7214  0.7957
  636SOL     OW 1906   0.971   1.022   0.555  0.2248 -0.2127  0.1064
  636SOL    HW1 1907   0.926   1.103   0.520 -1.2200 -0.0934  0.1670
  636SOL    HW2 1908   1.018   1.039   0.638  0.4786 -0.6881 -0.4029
  637SOL     OW 1909   2.549   2.118   3.076 -0.3679  0.7533 -0.5000
  637SOL    HW1 1910   2.596   2.028   3.083 -0.4540 -0.3239  0.0545
  637SOL    HW2 1911   2.526   2.140   2.977 -1.0061  0.6494  0.2851
  638SOL     OW 1912   1.298   2.746   2.586 -0.1474  0.0080  0.8299
  638SOL    HW1 1913   1.309   2.655   2.535 -0.3132 -1.8193  0.2021
  638SOL    HW2 1914   1.327   2.727   2.680  2.6852  0.7106 -2.3545
  639SOL     OW 1915   1.024   2.194   1.280  0.1866 -0.0222  0.4322
  639SOL    HW1 1916   1.051   2.276   1.334 -1.2395 -0.2615  2.3572
  639SOL    HW2 1917   0.983   2.220   1.194  2.9361  0.8321  2.3633
  640SOL     OW 1918   2.621   2.688   0.397 -0.1511 -0.1227  0.3048
  640SOL    HW1 1919   2.618   2.786   0.370  2.1883  0.4284 -1.4051
  640SOL    HW2 1920   2.594   2.675   0.495 -0.1430 -0.1936  3.3333
  641SOL     OW 1921   0.450   0.258   0.262  0.1305  0.3087  0.0840
  641SOL    HW1 1922   0.426   0.338   0.325 -0.7296  0.2239  2.8654
  641SOL    HW2 1923   0.478   0.286   0.170 -0.0885  0.6026  1.1605
  642SOL     OW 1924   2.877   0.756   1.184  0.1495  0.1351 -0.3257
  642SOL    HW1 1925   2.821   0.673   1.164  3.4476 -3.2440  0.0301
  642SOL    HW2 1926   2.891   0.808   1.097  0.0982 -0.3036  2.3417
  643SOL     OW 1927   0.781   1.860   1.892 -0.0202  0.3012  0.2486
  643SOL    HW1 1928   0.690   1.823   1.863  3.2673  1.4137 -0.8804
  643SOL    HW2 1929   0.784   1.933   1.961 -0.4651 -0.4140  2.5281
  644SOL     OW 1930   1.342   2.517   0.139  0.2262  0.3716  0.0101
  644SOL    HW1 1931   1.360   2.440   0.076  0.2104  1.6179 -0.2036
  644SOL    HW2 1932   1.421   2.587   0.133  0.6180  2.5977  0.9421
  645SOL     OW 1933   1.970   2.169   0.425  0.5686 -0.0226  0.0467
  645SOL    HW1 1934   1.974   2.095   0.355  1.2612  2.8861  0.9853
  645SOL    HW2 1935   2.042   2.241   0.405 -2.1257  1.4701 -1.2003
  646SOL     OW 1936   1.164   2.713   0.235  0.7872  0.1506 -0.3174
  646SOL    HW1 1937   1.081   2.654   0.257 -1.9893  0.9613  0.5969
  646SOL    HW2 1938   1.251   2.657   0.227 -1.9008 -0.7550 -2.0159
  647SOL     OW 1939   0.605   2.582   2.031 -0.3893 -0.6166 -0.2430
  647SOL    HW1 1940   0.551   2.668   2.017 -0.3933 -0.3148 -2.4974
  647SOL    HW2 1941   0.554   2.499   1.992  0.4026 -1.4536  2.1394
  648SOL     OW 1942   1.831   0.943   1.169  0.0051 -0.9150  0.0278
  648SOL    HW1 1943   1.863   1.042   1.172  1.7420  1.1894 -1.8246
  648SOL    HW2 1944   1.872   0.892   1.247 -0.4877  1.0258 -0.4938
  649SOL     OW 1945   1.437   2.633   2.782 -0.3635 -0.0732  0.0850
  649SOL    HW1 1946   1.518   2.595   2.732 -0.7593  1.8719  0.0698
  649SOL    HW2 1947   1.470   2.699   2.858 -0.5727  2.0959  2.4334
  650SOL     OW 1948   2.280   1.522   1.685 -0.2996  0.1171  0.4259
  650SOL    HW1 1949   2.336   1.580   1.747  1.3243  0.9378  0.1225
  650SOL    HW2 1950   2.184   1.546   1.699 -0.2684  0.9281  0.1230
  651SOL     OW 1951   1.228   2.116   3.040  0.2482  0.4885  0.1848
  651SOL    HW1 1952   1.258   2.095   0.049 -0.7280 -0.4625  2.3451
  651SOL    HW2 1953   1.302   2.145   2.982 -0.8432  0.5673 -0.3066
  652SOL     OW 1954   0.821   2.535   0.035  0.3427  0.4931  0.6544
  652SOL    HW1 1955   0.918   2.501   0.030  1.7610 -1.7925 -0.1833
  652SOL    HW2 1956   0.797   2.578   3.033 -1.4699  1.8480  0.9720
  653SOL     OW 1957   2.452   1.980   1.017 -0.1808 -0.1036 -0.0851
  653SOL    HW1 1958   2.485   2.072   0.997 -1.4997 -1.2196 -0.6599
  653SOL    HW2 1959   2.356   1.977   1.055 -0.8581 -0.8213 -3.1620
  654SOL     OW 1960   2.925   2.601   1.567 -1.0679 -0.3735  0.4058
  654SOL    HW1 1961   2.902   2.678   1.502  0.8258  0.2334 -1.2157
  654SOL    HW2 1962   2.928   2.514   1.509 -1.4457 -1.8502  0.2079
  655SOL     OW 1963   3.045   2.122   1.169 -0.2052 -0.0455  0.0512
  655SOL    HW1 1964   3.012   2.025   1.164  0.1417  1.9517 -0.1055
  655SOL    HW2 1965   2.965   2.178   1.200 -0.5250  1.6310 -1.7861
  656SOL     OW 1966   0.084   2.867   2.632 -0.4024 -0.3986  0.4432
  656SOL    HW1 1967   0.149   2.878   2.549  1.5845  0.1372 -3.3617
  656SOL    HW2 1968   3.076   2.889   2.612 -1.0033 -0.3774  1.4547
  657SOL     OW 1969   0.124   0.872   0.178 -0.8112  0.5790 -0.6771
  657SOL    HW1 1970   0.137   0.829   0.083  2.2984  0.7339  0.8879
  657SOL    HW2 1971   0.198   0.941   0.195  1.0453  0.6371  1.7379
  658SOL     OW 1972   1.950   1.714   0.739  0.4091 -0.0548 -0.1040
  658SOL    HW1 1973   2.016   1.658   0.783 -3.3060  0.2201 -1.0926
  658SOL    HW2 1974   1.973   1.809   0.709  1.5532 -0.6117  0.5020
  659SOL     OW 1975   1.673   0.504   1.336  0.0593 -0.1172  0.1305
  659SOL    HW1 1976   1.766   0.465   1.320  1.7865  0.4693  2.5824
  659SOL    HW2 1977   1.611   0.423   1.323 -2.0108  0.2713 -0.2630
  660SOL     OW 1978   1.403   1.657   0.211  0.0226 -0.4054 -0.4654
  660SOL    HW1 1979   1.424   1.576   0.157  3.6279  1.0290 -0.6496
  660SOL    HW2 1980   1.395   1.634   0.309  0.0383  0.1021 -0.3803
  661SOL     OW 1981   0.295   1.912   0.546  0.0957 -0.0438  0.0417
  661SOL    HW1 1982   0.360   1.965   0.487  0.2716 -1.4479 -0.0842
  661SOL    HW2 1983   0.200   1.899   0.510  0.4469  3.2277 -0.8149
  662SOL     OW 1984   0.007   0.680   2.108 -0.0935  0.2067 -0.3491
  662SOL    HW1 1985   3.016   0.643   2.160 -0.7169  1.1168  1.2064
  662SOL    HW2 1986   0.018   0.783   2.111  1.7754  2.3648  1.0789
  663SOL     OW 1987   1.977   1.435   1.000 -0.1109  0.3668  0.0833
  663SOL    HW1 1988   2.027   1.361   0.951  0.5636 -0.2789 -1.3439
  663SOL    HW2 1989   2.029   1.520   0.995  1.1190 -0.6379  1.0466
  664SOL     OW 1990   0.643   0.416   1.011 -0.0740  0.1737  0.2551
  664SOL    HW1 1991   0.732   0.458   1.043 -1.8641 -1.2655  0.1616
  664SOL    HW2 1992   0.647   0.319   1.032 -1.2984  0.6160 -1.5982
  665SOL     OW 1993   1.267   2.959   2.945 -0.2907 -0.0249 -0.0095
  665SOL    HW1 1994   1.355   2.924   2.917 -1.5027  2.4550 -0.7668
  665SOL    HW2 1995   1.233   3.041   2.898 -0.2194  0.5909  2.1777
  666SOL     OW 1996   0.169   0.554   2.415 -0.0267  0.3439 -0.2044
  666SOL    HW1 1997   0.169   0.463   2.366  0.0118 -0.8194  0.4982
  666SOL    HW2 1998   0.077   0.569   2.450 -3.9398 -0.3882 -2.9456
  667SOL     OW 1999   2.077   1.781   2.184  0.1350  0.2441 -0.0954
  667SOL    HW1 2000   2.085   1.700   2.246  0.9542  1.2464 -0.3423
  667SOL    HW2 2001   2.024   1.759   2.102  0.4961 -0.5111  1.5136
  668SOL     OW 2002   0.058   1.586   2.984  0.5771 -0.5426 -0.7733
  668SOL    HW1 2003   0.124   1.572   2.906 -0.3002 -0.2250  1.3106
  668SOL    HW2 2004   3.058   1.530   2.975  0.0463 -1.6601  2.1378
  669SOL     OW 2005   2.072   2.862   2.486  0.0965  0.2554 -0.0700
  669SOL    HW1 2006   2.120   2.771   2.473  1.5155 -1.9746 -3.0558
  669SOL    HW2 2007   2.015   2.884   2.407  2.2130  1.8664  1.5437
  670SOL     OW 2008   2.359   0.966   2.438 -0.3102 -0.1864 -0.3695
  670SOL    HW1 2009   2.451   0.971   2.398 -2.0845 -0.6286 -0.2270
  670SOL    HW2 2010   2.287   0.971   2.370  0.4113  1.6492  2.6876
  671SOL     OW 2011   2.299   1.325   0.223 -0.0445  0.4123 -0.0280
  671SOL    HW1 2012   2.369   1.310   0.144  0.2569 -1.9334  0.1188
  671SOL    HW2 2013   2.339   1.377   0.300  0.8048 -2.1791  0.6785
  672SOL     OW 2014   2.643   1.205   2.430  0.3706  0.1477 -0.1694
  672SOL    HW1 2015   2.725   1.246   2.476  0.9248 -0.5327 -1.4344
  672SOL    HW2 2016   2.564   1.210   2.495  2.0279  2.3292  1.0242
  673SOL     OW 2017   2.567   1.127   1.487 -0.0234  0.0185  0.4866
  673SOL    HW1 2018   2.507   1.181   1.424  1.4353  0.7766  0.5818
  673SOL    HW2 2019   2.598   1.051   1.434 -2.5999  2.0874  1.4302
  674SOL     OW 2020   1.628   1.955   1.618 -0.1891  0.0436  0.1792
  674SOL    HW1 2021   1.714   1.906   1.623 -2.8998  2.3274 -1.7656
  674SOL    HW2 2022   1.575   1.928   1.533 -1.3206 -0.3849 -2.1622
  675SOL     OW 2023   2.946   0.354   0.913  0.0463 -0.3868  0.0250
  675SOL    HW1 2024   2.966   0.450   0.890 -0.2784 -0.1954  1.3178
  675SOL    HW2 2025   3.032   0.300   0.926 -2.4814 -1.0102 -0.2340
  676SOL     OW 2026   2.099   1.026   1.043  0.0754 -0.3569 -0.0327
  676SOL    HW1 2027   2.136   1.030   1.141 -0.3288 -2.0636 -4.2262
  676SOL    HW2 2028   2.138   0.947   0.997  0.0947  5.0020 -2.0018
  677SOL     OW 2029   1.662   1.713   2.196 -0.2531  0.3995 -0.9604
  677SOL    HW1 2030   1.606   1.786   2.161 -0.6261 -1.8438  1.7160
  677SOL    HW2 2031   1.746   1.703   2.147  0.1271 -0.6866  3.5634
  678SOL     OW 2032   3.025   1.604   0.979 -0.0270 -0.0121 -0.7955
  678SOL    HW1 2033   0.005   1.684   0.986  3.6596  0.5359  3.0673
  678SOL    HW2 2034   2.937   1.629   0.937  4.1607 -1.0920 -2.3692
  679SOL     OW 2035   2.946   2.891   0.608 -0.1444  0.0075  0.4783
  679SOL    HW1 2036   2.873   2.952   0.628  2.8288 -3.8879 -0.3013
  679SOL    HW2 2037   3.039   2.931   0.620  2.1897  0.3036  1.0861
  680SOL     OW 2038   0.208   2.170   1.287 -0.7256  0.2494 -0.2414
  680SOL    HW1 2039   0.275   2.095   1.273  0.4555 -0.2520  3.2108
  680SOL    HW2 2040   0.123   2.144   1.239 -1.7539  0.3111  0.5519
  681SOL     OW 2041   0.828   0.930   1.225 -0.1154  0.4447  0.1697
  681SOL    HW1 2042   0.764   0.870   1.278  0.6270 -2.6400  1.5213
  681SOL    HW2 2043   0.840   0.904   1.128 -0.5844 -1.9871  1.4159
  682SOL     OW 2044   1.736   2.758   0.570 -0.1781  0.0925 -0.2368
  682SOL    HW1 2045   1.800   2.833   0.545  1.0748 -0.5100  0.9028
  682SOL    HW2 2046   1.787   2.679   0.610  1.9202 -0.3782 -2.0819
  683SOL     OW 2047   2.119   1.289   1.378  0.3267  0.1518 -0.3852
  683SOL    HW1 2048   2.103   1.389   1.364  0.1525  0.1130 -2.3866
  683SOL    HW2 2049   2.217   1.270   1.357 -1.8628 -1.3278  0.6566
  684SOL     OW 2050   0.236   1.671   1.674  0.4557  0.4130  0.3611
  684SOL    HW1 2051   0.289   1.583   1.676 -1.1877 -1.2744 -1.4672
  684SOL    HW2 2052   0.141   1.654   1.696  2.2157 -3.1392 -0.3247
  685SOL     OW 2053   2.359   1.701   0.153 -0.2052  0.4126 -0.1839
  685SOL    HW1 2054   2.272   1.654   0.177 -0.9976 -2.5489 -0.1078
  685SOL    HW2 2055   2.378   1.692   0.052  0.6501  2.0977  0.4853
  686SOL     OW 2056   3.071   0.179   0.619  0.3628 -0.0793 -0.4664
  686SOL    HW1 2057   2.991   0.221   0.659  1.1237  2.7164  0.8530
  686SOL    HW2 2058   0.054   0.189   0.695  0.5067  0.9424  1.6247
  687SOL     OW 2059   1.517   3.000   0.055  0.2442  0.3332  0.2977
  687SOL    HW1 2060   1.478   3.028   0.145 -0.0572 -2.5139 -1.0750
  687SOL    HW2 2061   1.473   3.062   3.076 -2.1844  0.5833 -2.3688
  688SOL     OW 2062   2.024   2.044   2.204 -0.2634  0.4129 -0.0999
  688SOL    HW1 2063   2.063   1.952   2.211  1.0358 -0.1447 -0.0354
  688SOL    HW2 2064   1.975   2.068   2.287  0.9839 -1.0943 -1.7016
  689SOL     OW 2065   2.784   0.877   2.083 -0.3861  0.1331 -0.5217
  689SOL    HW1 2066   2.737   0.819   2.015  0.7813  1.0174 -0.9882
  689SOL    HW2 2067   2.887   0.884   2.059  0.9225  0.5229  0.8160
  690SOL     OW 2068   2.200   1.241   0.915  0.1001 -0.1569  0.7234
  690SOL    HW1 2069   2.177   1.254   0.819 -1.1212 -1.0085  0.6730
  690SOL    HW2 2070   2.159   1.159   0.959  1.2740  0.0871  1.3317
  691SOL     OW 2071   1.132   1.299   1.284  0.0546 -0.2825 -0.0690
  691SOL    HW1 2072   1.159   1.225   1.349  2.2021 -0.5464  0.0083
  691SOL    HW2 2073   1.070   1.366   1.332 -1.2725 -0.4224  0.4911
  692SOL     OW 2074   1.893   0.261   2.207  0.5970  0.2779 -0.1604
  692SOL    HW1 2075   1.906   0.194   2.130  0.5383 -2.2982 -0.9704
  692SOL    HW2 2076   1.868   0.354   2.170 -1.0420 -4.4344  0.0511
  693SOL     OW 2077   0.089   1.263   2.805 -0.2363 -0.3638 -0.0928
  693SOL    HW1 2078   0.137   1.349   2.788  0.2900  1.0440 -1.6733
  693SOL    HW2 2079   0.055   1.224   2.719  2.3875 -2.5155  0.8248
  694SOL     OW 2080   2.154   2.674   0.846 -0.3179 -0.0564  0.1161
  694SOL    HW1 2081   2.208   2.647   0.769  0.3176 -1.1056  3.6610
  694SOL    HW2 2082   2.113   2.769   0.831 -0.5930  0.1403 -1.6512
  695SOL     OW 2083   1.373   1.392   2.641 -0.9180  0.0615 -0.0731
  695SOL    HW1 2084   1.462   1.339   2.632 -1.1589 -1.9853  0.3481
  695SOL    HW2 2085   1.326   1.419   2.555  0.2620  1.2891 -2.7162
  696SOL     OW 2086   1.966   0.273   1.569 -0.3335  0.2247  0.0195
  696SOL    HW1 2087   1.940   0.363   1.597  1.2286 -1.7266 -0.6526
  696SOL    HW2 2088   1.885   0.223   1.548  3.5456  4.1917  0.3171
  697SOL     OW 2089   1.759   0.373   1.837 -0.5459  0.0589  0.2026
  697SOL    HW1 2090   1.717   0.288   1.876  0.3696  2.5405 -1.8696
  697SOL    HW2 2091   1.701   0.414   1.767  0.4280 -1.2853  3.1227
  698SOL     OW 2092   1.647   1.357   2.345 -0.3379 -0.1336  0.2838
  698SOL    HW1 2093   1.608   1.290   2.412 -0.4695  0.3190  2.7648
  698SOL    HW2 2094   1.632   1.453   2.375 -3.7994 -1.7782 -1.7748
  699SOL     OW 2095   1.819   1.169   0.641 -0.2190 -0.0668 -0.0740
  699SOL    HW1 2096   1.717   1.175   0.649  1.6277 -1.7249  1.7726
  699SOL    HW2 2097   1.850   1.129   0.730  0.7701 -2.1602 -2.6484
  700SOL     OW 2098   1.504   2.737   0.153  0.3663 -0.6876 -0.0377
  700SOL    HW1 2099   1.589   2.717   0.204 -0.5856 -0.9806  1.6244
  700SOL    HW2 2100   1.505   2.833   0.117 -0.1310  2.2351 -1.1560
  701SOL     OW 2101   0.207   0.238   1.425  0.1188  0.7420 -0.2066
  701SOL    HW1 2102   0.227   0.337   1.447  0.4068 -0.2985 -0.5224
  701SOL    HW2 2103   0.268   0.170   1.477  1.6529 -0.6436  2.7736
  702SOL     OW 2104   1.617   2.894   1.390 -0.3676  0.1528  0.1871
  702SOL    HW1 2105   1.675   2.810   1.376 -0.5857 -0.7793 -2.7657
  702SOL    HW2 2106   1.522   2.865   1.399  0.3934 -1.5437 -0.3673
  703SOL     OW 2107   2.413   2.908   2.275  0.2744 -0.0196  0.1868
  703SOL    HW1 2108   2.372   2.886   2.365 -1.5528 -1.6196  0.6877
  703SOL    HW2 2109   2.486   2.845   2.242 -2.1185 -0.6833 -1.1773
  704SOL     OW 2110   1.402   2.282   0.998  0.8140 -0.6886  1.3095
  704SOL    HW1 2111   1.367   2.240   1.081 -0.1294  0.1058 -0.6819
  704SOL    HW2 2112   1.327   2.320   0.937 -2.0625  1.5550 -0.1508
  705SOL     OW 2113   0.373   1.682   2.217 -0.5863  0.1068  0.0085
  705SOL    HW1 2114   0.452   1.742   2.237  0.7652 -3.7188  0.3708
  705SOL    HW2 2115   0.372   1.616   2.296  1.6851  0.3592 -2.1205
  706SOL     OW 2116   1.911   0.316   0.033 -0.3126  0.4200  0.1009
  706SOL    HW1 2117   1.874   0.266   3.037 -0.7033 -3.9814 -1.1181
  706SOL    HW2 2118   1.929   0.248   0.111 -0.1314  1.4402  3.1011
  707SOL     OW 2119   1.470   2.829   2.091  0.1315 -0.1309 -0.3527
  707SOL    HW1 2120   1.464   2.733   2.127  0.9485  0.3430 -1.3463
  707SOL    HW2 2121   1.494   2.819   1.992  0.1456 -0.8636 -0.8922
  708SOL     OW 2122   0.675   2.195   1.559  0.4395  0.2834 -0.4927
  708SOL    HW1 2123   0.669   2.096   1.573  0.6384 -0.2711  0.1706
  708SOL    HW2 2124   0.759   2.220   1.508 -2.5743 -2.2245  0.2634
  709SOL     OW 2125   2.686   0.666   1.944  0.1434  0.0002 -0.3433
  709SOL    HW1 2126   2.653   0.607   2.020 -1.9510  0.5013  1.5515
  709SOL    HW2 2127   2.773   0.625   1.915 -0.2830 -1.1103 -1.8668
  710SOL     OW 2128   2.945   0.286   1.583  0.2096 -0.8804 -0.1656
  710SOL    HW1 2129   2.988   0.287   1.491  0.4934 -2.1647 -2.2567
  710SOL    HW2 2130   3.015   0.306   1.660  0.8937  0.7229  1.8515
  711SOL     OW 2131   0.001   2.307   0.741 -0.0748 -0.4003 -0.1240
  711SOL    HW1 2132   0.072   2.359   0.692 -0.3229  1.4028  1.1894
  711SOL    HW2 2133   3.013   2.370   0.762  0.8130 -1.0704  2.8877
  712SOL     OW 2134   0.294   2.933   2.502 -0.1450  0.1373 -0.2199
  712SOL    HW1 2135   0.363   2.990   2.556  0.5527  0.6621  0.4310
  712SOL    HW2 2136   0.339   2.889   2.420  1.3267 -0.4734 -1.0366
  713SOL     OW 2137   2.145   0.528   0.372  0.2758  0.0766 -0.1103
  713SOL    HW1 2138   2.234   0.581   0.360 -2.0159  0.6539 -0.4206
  713SOL    HW2 2139   2.062   0.580   0.340 -1.5294  2.4429 -0.0395
  714SOL     OW 2140   1.662   1.960   0.471  0.6502  0.1065  0.7101
  714SOL    HW1 2141   1.702   2.049   0.471  1.7309 -1.8600  0.1856
  714SOL    HW2 2142   1.606   1.955   0.556 -1.1506  0.3017 -0.7188
  715SOL     OW 2143   3.086   0.456   0.371  0.3359  0.7266  0.1982
  715SOL    HW1 2144   0.029   0.499   0.284  1.9119  2.4957  0.8308
  715SOL    HW2 2145   0.070   0.467   0.444 -0.0297  2.1431  0.6327
  716SOL     OW 2146   0.968   2.985   2.005 -0.0661 -0.6373  0.0318
  716SOL    HW1 2147   1.065   2.966   2.013  0.4104 -0.8324 -0.4732
  716SOL    HW2 2148   0.916   2.898   1.984 -0.8600 -2.9332 -0.5346
  717SOL     OW 2149   0.176   0.569   2.819 -0.6082 -0.2083  0.6523
  717SOL    HW1 2150   0.234   0.598   2.739 -1.4827  0.4018  0.0449
  717SOL    HW2 2151   0.141   0.479   2.797  3.0857  1.7308  0.6359
  718SOL     OW 2152   1.379   0.667   0.486 -0.9307  0.4867 -0.0987
  718SOL    HW1 2153   1.432   0.642   0.404 -0.5827  0.9955  0.1799
  718SOL    HW2 2154   1.286   0.689   0.458  1.4650  2.3639 -2.9681
  719SOL     OW 2155   2.510   2.193   2.821  0.3088  0.3532 -0.0453
  719SOL    HW1 2156   2.450   2.133   2.766 -1.6304  0.1384  0.5075
  719SOL    HW2 2157   2.480   2.290   2.805 -0.2978 -1.3650 -0.1825
  720SOL     OW 2158   1.410   0.909   1.720  0.1758  0.1059 -0.4625
  720SOL    HW1 2159   1.445   0.964   1.640  1.9535  0.4325 -1.4947
  720SOL    HW2 2160   1.478   0.836   1.746  1.1305  0.5234  1.0089
  721SOL     OW 2161   3.075   2.876   1.115 -0.2642 -0.4497  0.8467
  721SOL    HW1 2162   3.003   2.926   1.068 -0.8831 -1.7500  1.4632
  721SOL    HW2 2163   0.043   2.820   1.054 -1.8360  0.0345  1.6413
  722SOL     OW 2164   1.304   1.963   2.643  0.1401 -0.3368  0.4318
  722SOL    HW1 2165   1.365   1.945   2.720 -0.3524 -0.2192  1.8131
  722SOL    HW2 2166   1.355   1.998   2.565 -0.4472  0.1833  1.8960
  723SOL     OW 2167   1.727   0.510   0.602  0.0150  0.0451 -0.6008
  723SOL    HW1 2168   1.755   0.484   0.511 -2.8882 -1.1217  1.7574
  723SOL    HW2 2169   1.772   0.457   0.681  2.8645 -1.7656  1.5489
  724SOL     OW 2170   0.618   2.127   2.733  0.0379 -0.0002 -0.4404
  724SOL    HW1 2171   0.586   2.222   2.745 -1.6749 -1.2807 -1.8721
  724SOL    HW2 2172   0.651   2.098   2.824 -0.1490  1.1635 -2.3243
  725SOL     OW 2173   3.039   0.698   1.380 -0.6196  0.0899 -0.4615
  725SOL    HW1 2174   2.992   0.724   1.296  1.8516 -1.7837 -0.1927
  725SOL    HW2 2175   0.042   0.744   1.389  1.7998  3.2460  0.0757
  726SOL     OW 2176   2.036   2.923   0.794 -0.5799  0.0913 -0.4629
  726SOL    HW1 2177   1.945   2.929   0.755  2.9634  2.5390 -1.7390
  726SOL    HW2 2178   2.055   3.002   0.860 -0.0118  0.1324  1.9869
  727SOL     OW 2179   1.923   1.165   2.002 -0.3829 -0.2679 -0.2408
  727SOL    HW1 2180   1.824   1.158   1.988  0.3386  2.4635  2.2219
  727SOL    HW2 2181   1.962   1.112   2.077 -0.9154 -0.2875 -0.6008
  728SOL     OW 2182   1.363   2.855   1.364 -0.3682 -0.5206  0.3651
  728SOL    HW1 2183   1.318   2.947   1.377  1.2069 -0.4662  2.5582
  728SOL    HW2 2184   1.315   2.789   1.296 -0.0527 -1.4416 -2.5784
  729SOL     OW 2185   1.834   0.496   2.071 -0.7497  0.1289  0.0938
  729SOL    HW1 2186   1.912   0.561   2.062  2.6308 -0.3770  1.6075
  729SOL    HW2 2187   1.798   0.461   1.982  0.4119 -4.8781  0.0686
  730SOL     OW 2188   0.530   0.916   1.321  0.3953 -0.3940 -0.1246
  730SOL    HW1 2189   0.537   0.813   1.329 -0.5627 -0.9938  1.8020
  730SOL    HW2 2190   0.496   0.939   1.229 -0.9126  0.1977  0.9805
  731SOL     OW 2191   0.208   0.143   0.175  0.3025 -0.9888  0.0871
  731SOL    HW1 2192   0.163   0.091   0.249 -1.0743 -2.5238  2.7211
  731SOL    HW2 2193   0.302   0.178   0.207  2.0968  2.7965  1.1039
  732SOL     OW 2194   0.640   0.691   0.442  0.0843 -0.1304 -0.0397
  732SOL    HW1 2195   0.625   0.628   0.518 -1.7915 -1.5572 -0.4699
  732SOL    HW2 2196   0.547   0.719   0.406 -0.4439 -3.0368 -0.9541
  733SOL     OW 2197   1.417   1.564   2.169  0.1839 -0.1480 -0.7327
  733SOL    HW1 2198   1.512   1.589   2.183 -0.6797 -3.1144  1.8064
  733SOL    HW2 2199   1.400   1.546   2.071  1.3423  0.5037  3.4317
  734SOL     OW 2200   0.058   2.295   2.146 -0.4466  0.5228  0.1098
  734SOL    HW1 2201   0.053   2.306   2.043  1.1032  0.0716  4.5872
  734SOL    HW2 2202   3.075   2.354   2.189 -2.1404 -0.7810 -0.8581
  735SOL     OW 2203   1.848   0.158   1.000 -0.1544  0.5353  0.0219
  735SOL    HW1 2204   1.906   0.079   0.963  1.3019 -1.2382  1.9416
  735SOL    HW2 2205   1.750   0.137   1.015  0.5281 -4.0732  1.2488
  736SOL     OW 2206   0.979   1.154   0.115  0.1794  0.0928 -0.5806
  736SOL    HW1 2207   0.910   1.211   0.073  0.2367  1.5467  1.3689
  736SOL    HW2 2208   1.063   1.213   0.128  1.2607  2.2746 -0.7486
  737SOL     OW 2209   2.868   0.592   0.494  0.0969  0.7100  0.1996
  737SOL    HW1 2210   2.932   0.525   0.448 -0.7511 -2.0448  0.8115
  737SOL    HW2 2211   2.792   0.535   0.525  0.4149 -2.7714  0.0895
  738SOL     OW 2212   0.437   2.337   1.608 -0.7638  0.4337 -0.3565
  738SOL    HW1 2213   0.411   2.369   1.514  0.2485  0.4507  3.1536
  738SOL    HW2 2214   0.529   2.298   1.596 -2.0353 -1.2420 -1.1504
  739SOL     OW 2215   1.088   2.482   3.080  0.0432  0.4577 -0.1555
  739SOL    HW1 2216   1.110   2.477   2.984 -1.9278 -0.8372 -0.6589
  739SOL    HW2 2217   1.173   2.506   0.044 -2.6315  1.3188 -0.2511
  740SOL     OW 2218   1.788   2.692   1.346  0.4109  0.0911 -0.2065
  740SOL    HW1 2219   1.773   2.672   1.448 -0.6292 -0.2524  1.0156
  740SOL    HW2 2220   1.826   2.617   1.294  0.3034 -0.0027  0.5090
  741SOL     OW 2221   2.261   0.307   0.799 -0.0578  0.1901 -0.1442
  741SOL    HW1 2222   2.230   0.405   0.821 -2.6623  1.5593  1.6071
  741SOL    HW2 2223   2.338   0.272   0.857  3.0136 -0.8844  2.6719
  742SOL     OW 2224   1.132   2.320   2.455  0.2327 -0.0708 -0.0707
  742SOL    HW1 2225   1.133   2.242   2.523  2.2367 -3.0502  0.2978
  742SOL    HW2 2226   1.053   2.374   2.473  4.0615 -2.9398 -1.1996
  743SOL     OW 2227   2.567   0.870   1.813  0.3195 -0.0885 -0.0622
  743SOL    HW1 2228   2.468   0.857   1.804 -0.9252  1.0132  2.1195
  743SOL    HW2 2229   2.613   0.793   1.870 -2.6143 -1.7666  2.3676
  744SOL     OW 2230   2.196   0.573   0.872 -0.0731  0.4639  0.3891
  744SOL    HW1 2231   2.235   0.667   0.882  0.3524  0.0487  1.7869
  744SOL    HW2 2232   2.096   0.577   0.878  0.2016  0.2269  0.4117
  745SOL     OW 2233   2.280   1.253   1.776  0.2022 -0.3070 -0.0452
  745SOL    HW1 2234   2.298   1.344   1.730  2.5314  0.4519  1.3722
  745SOL    HW2 2235   2.369   1.196   1.783 -0.7608  0.0356  1.2019
  746SOL     OW 2236   1.295   1.830   0.586 -0.2215 -0.4217  0.1825
  746SOL    HW1 2237   1.357   1.894   0.634 -0.4618 -0.0735 -2.3588
  746SOL    HW2 2238   1.207   1.819   0.632  2.7363 -0.7611  0.3696
  747SOL     OW 2239   1.799   1.895   1.097  0.5260  0.2208 -0.0887
  747SOL    HW1 2240   1.707   1.914   1.133 -0.1198 -0.0428 -1.1490
  747SOL    HW2 2241   1.820   1.794   1.110 -0.3236 -3.2630 -0.7379
  748SOL     OW 2242   0.240   2.840   0.221  0.0660  0.8968  0.1494
  748SOL    HW1 2243   0.152   2.805   0.257 -1.4003 -2.2229  3.3410
  748SOL    HW2 2244   0.221   2.906   0.144  0.1824 -2.2642  3.6883
  749SOL     OW 2245   0.242   1.030   2.381  0.4579 -0.8759  0.1722
  749SOL    HW1 2246   0.254   0.933   2.359  0.9679  1.0137 -1.2205
  749SOL    HW2 2247   0.147   1.068   2.363 -0.4426 -2.7329  1.0795
  750SOL     OW 2248   1.557   2.792   1.842 -0.3408 -0.0918 -0.6769
  750SOL    HW1 2249   1.508   2.774   1.756  2.2108 -1.5609  1.2265
  750SOL    HW2 2250   1.639   2.854   1.833  0.6372  0.4417  1.6381
  751SOL     OW 2251   2.688   0.644   0.254 -0.0076 -0.2652  0.5063
  751SOL    HW1 2252   2.640   0.555   0.257 -0.2085  2.3173 -1.8813
  751SOL    HW2 2253   2.729   0.670   0.344  1.0023  2.0818 -0.7941
  752SOL     OW 2254   0.295   1.954   0.814 -0.4423 -0.1939 -0.8805
  752SOL    HW1 2255   0.298   1.942   0.711 -1.3860 -0.1784 -2.9068
  752SOL    HW2 2256   0.247   2.036   0.850  0.5719  1.4728  1.5871
  753SOL     OW 2257   0.995   2.950   0.893 -0.8340  0.1975 -0.7198
  753SOL    HW1 2258   1.088   2.945   0.838  3.6475 -0.2861 -0.9324
  753SOL    HW2 2259   0.913   2.970   0.839  3.4192  0.9135  3.2494
  754SOL     OW 2260   0.560   0.026   2.144 -0.3749  0.3686 -0.4309
  754SOL    HW1 2261   0.488   0.094   2.166 -1.4680 -0.6186 -3.9870
  754SOL    HW2 2262   0.537   3.021   2.182  1.6148 -0.2518 -1.0941
  755SOL     OW 2263   1.684   1.206   3.020 -0.1961 -0.3621 -0.0430
  755SOL    HW1 2264   1.682   1.210   0.034 -2.3317 -1.0890 -0.0469
  755SOL    HW2 2265   1.585   1.206   2.989 -1.1987 -1.0282 -1.7733
  756SOL     OW 2266   2.152   2.344   2.544 -0.6767 -0.2420  0.5067
  756SOL    HW1 2267   2.218   2.267   2.527 -1.8797 -0.1825 -0.8429
  756SOL    HW2 2268   2.101   2.329   2.632  1.3890  1.7757  0.8067
  757SOL     OW 2269   1.939   0.675   0.298 -0.3357 -0.0426 -0.5933
  757SOL    HW1 2270   1.998   0.755   0.263  2.5596 -0.2416  0.6842
  757SOL    HW2 2271   1.846   0.706   0.324 -1.8733  3.0678  2.7792
  758SOL     OW 2272   1.899   0.354   1.246 -0.5654  0.8936 -0.5474
  758SOL    HW1 2273   1.897   0.318   1.150  2.8512  0.7759  0.1662
  758SOL    HW2 2274   1.884   0.272   1.308 -0.8956 -0.4898  1.5228
  759SOL     OW 2275   2.731   0.526   1.158  0.1888  0.8324  0.2932
  759SOL    HW1 2276   2.678   0.463   1.214  2.5093  2.0275 -1.9722
  759SOL    HW2 2277   2.681   0.532   1.069  0.8505  0.2939  1.5676
  760SOL     OW 2278   2.389   1.230   1.301 -0.0782 -0.3064 -0.0499
  760SOL    HW1 2279   2.446   1.260   1.222  2.3358  3.2479  2.2905
  760SOL    HW2 2280   2.351   1.133   1.294  1.4978 -2.3377 -2.4711
  761SOL     OW 2281   0.419   0.450   0.451 -0.3241 -0.0526  0.4729
  761SOL    HW1 2282   0.490   0.472   0.511 -2.9901 -1.9873 -4.6530
  761SOL    HW2 2283   0.326   0.456   0.491  3.8922 -0.1039 -2.9173
  762SOL     OW 2284   1.270   1.895   1.084  0.5494 -0.3823 -0.2466
  762SOL    HW1 2285   1.234   1.958   1.009  0.0664  0.4864  0.3176
  762SOL    HW2 2286   1.193   1.826   1.106 -1.2225 -3.5968 -1.0824
  763SOL     OW 2287   1.404   1.427   1.911  0.1141  0.4901  0.3486
  763SOL    HW1 2288   1.449   1.483   1.842 -3.0883 -1.4434  1.4371
  763SOL    HW2 2289   1.476   1.374   1.968  6.1485 -0.4476  0.9272
  764SOL     OW 2290   0.078   1.880   2.637 -0.3571 -0.2910 -0.0203
  764SOL    HW1 2291   3.074   1.907   2.603  1.2026 -0.9049 -0.0122
  764SOL    HW2 2292   0.079   1.850   2.736  3.2178 -1.3030  2.2007
  765SOL     OW 2293   1.204   2.662   1.215  0.5062 -0.0257  0.0864
  765SOL    HW1 2294   1.282   2.643   1.149  1.8297 -1.1159 -0.5413
  765SOL    HW2 2295   1.111   2.677   1.168 -1.8900  1.4001 -0.7953
  766SOL     OW 2296   2.791   2.416   2.555  0.0774  0.6326 -0.3267
  766SOL    HW1 2297   2.685   2.402   2.551 -1.7554 -2.2049  1.9331
  766SOL    HW2 2298   2.816   2.347   2.624 -2.2512 -1.2156 -1.7329
  767SOL     OW 2299   1.174   1.006   2.453  0.5633 -0.7112 -0.1428
  767SOL    HW1 2300   1.146   1.044   2.541 -0.3377  0.5407 -1.0031
  767SOL    HW2 2301   1.258   1.053   2.411  0.7757 -1.4816 -2.6036
  768SOL     OW 2302   0.993   2.141   2.860  0.0931  0.1218 -0.3561
  768SOL    HW1 2303   1.069   2.178   2.919  2.1258 -1.0023  2.7346
  768SOL    HW2 2304   1.032   2.082   2.788  0.4969  0.0723  1.2872
  769SOL     OW 2305   0.588   2.072   0.885 -0.6737  0.3490 -0.0736
  769SOL    HW1 2306   0.667   2.058   0.952  0.8052 -0.5934  0.8367
  769SOL    HW2 2307   0.554   1.982   0.849 -1.0760 -0.6734  2.5553
  770SOL     OW 2308   1.536   0.902   2.691 -0.2872 -0.1320 -0.1897
  770SOL    HW1 2309   1.619   0.848   2.700  0.2886 -0.0679 -0.6404
  770SOL    HW2 2310   1.527   0.964   2.772  0.4273 -0.7442  1.2201
  771SOL     OW 2311   0.201   0.050   2.127  0.2657 -0.0287  0.2164
  771SOL    HW1 2312   0.175   3.058   2.072  1.6878  0.8820  2.9017
  771SOL    HW2 2313   0.204   0.132   2.071  0.9838 -1.3081  0.8172
  772SOL     OW 2314   2.189   2.771   2.019  0.2805 -0.3449  0.5335
  772SOL    HW1 2315   2.205   2.696   2.080 -0.7880 -0.6178  0.2599
  772SOL    HW2 2316   2.271   2.797   1.963  1.0972 -0.3517 -1.1635
  773SOL     OW 2317   0.936   1.992   1.600 -0.0167  0.4465  0.4696
  773SOL    HW1 2318   0.859   1.953   1.654 -0.4926 -1.0047 -1.2350
  773SOL    HW2 2319   0.954   2.083   1.641 -2.2285 -0.7334 -2.3503
  774SOL     OW 2320   1.078   0.216   1.823 -0.2214 -0.4547  0.0360
  774SOL    HW1 2321   1.112   0.258   1.904  0.3732 -0.4410 -3.6839
  774SOL    HW2 2322   0.983   0.172   1.830 -1.6879 -1.0371  0.8280
  775SOL     OW 2323   1.837   3.021   2.980 -0.2201  0.0242  0.1143
  775SOL    HW1 2324   1.844   0.030   2.949  0.6007 -1.9656  1.0312
  775SOL    HW2 2325   1.832   2.958   2.899 -0.7011 -1.1832  0.8798
  776SOL     OW 2326   2.885   0.560   2.235  0.0127  0.3014  0.0739
  776SOL    HW1 2327   2.914   0.586   2.329  0.3986  0.3569  0.5629
  776SOL    HW2 2328   2.786   0.581   2.225  0.9923  0.1433 -0.8638
  777SOL     OW 2329   2.541   2.226   2.156  0.4396  0.6127  0.2497
  777SOL    HW1 2330   2.454   2.185   2.116 -1.2496 -2.2262 -0.4186
  777SOL    HW2 2331   2.544   2.324   2.131  2.9707  0.3974 -2.3050
  778SOL     OW 2332   1.717   0.975   2.005 -0.0581 -0.2275  0.6250
  778SOL    HW1 2333   1.763   1.001   2.090 -0.4431  1.7110  3.5434
  778SOL    HW2 2334   1.651   0.895   2.012  0.2569 -2.1035 -1.9705
  779SOL     OW 2335   2.646   0.450   0.625 -0.1878 -0.2591  0.2844
  779SOL    HW1 2336   2.590   0.374   0.584  1.2803  0.8004  2.1624
  779SOL    HW2 2337   2.590   0.534   0.636 -0.3074 -1.1354 -0.2656
  780SOL     OW 2338   2.274   0.403   0.052  0.0726  0.0226 -0.0211
  780SOL    HW1 2339   2.356   0.440   3.087  0.0477 -2.4069  5.1136
  780SOL    HW2 2340   2.193   0.434   0.000  0.0022 -1.8304  0.3762
  781SOL     OW 2341   0.350   2.404   1.351 -0.7976 -0.3164 -0.2675
  781SOL    HW1 2342   0.390   2.454   1.274  1.9626  0.6793  2.0396
  781SOL    HW2 2343   0.290   2.330   1.329 -0.4225  3.0083  0.8955
  782SOL     OW 2344   2.162   2.391   2.944 -0.3916  0.0004  0.1747
  782SOL    HW1 2345   2.171   2.480   2.895  1.4075 -0.8638  0.4823
  782SOL    HW2 2346   2.240   2.380   3.005 -1.4042 -0.3001  2.6526
  783SOL     OW 2347   0.749   1.529   1.545 -0.4599 -0.7639  0.7428
  783SOL    HW1 2348   0.657   1.482   1.544 -0.0302 -0.2531  3.8034
  783SOL    HW2 2349   0.790   1.502   1.631  0.1911 -0.9752 -1.3362
  784SOL     OW 2350   1.267   0.527   2.775 -0.9407 -0.7142 -0.4239
  784SOL    HW1 2351   1.171   0.484   2.784 -2.4354 -2.0084  1.2996
  784SOL    HW2 2352   1.267   0.629   2.764 -0.4782  0.7481 -0.1843
  785SOL     OW 2353   2.337   0.298   1.181 -0.0682 -0.3083  0.1263
  785SOL    HW1 2354   2.361   0.274   1.277  0.8486  2.2314 -1.6600
  785SOL    HW2 2355   2.300   0.391   1.183  2.0275 -3.3842  1.0904
  786SOL     OW 2356   1.155   2.121   1.937  0.0190  0.0190  0.2053
  786SOL    HW1 2357   1.119   2.027   1.946 -0.5136 -0.1418 -0.6973
  786SOL    HW2 2358   1.155   2.168   2.026 -0.5167 -0.5740 -0.9747
  787SOL     OW 2359   1.581   0.597   1.099  0.2302 -0.2835 -0.0873
  787SOL    HW1 2360   1.651   0.653   1.048  0.7792  1.2945 -1.9603
  787SOL    HW2 2361   1.618   0.553   1.180 -1.9435  0.6585 -0.4133
  788SOL     OW 2362   0.256   0.719   0.669 -0.1823 -0.2254  0.0332
  788SOL    HW1 2363   0.286   0.703   0.768 -0.1710  0.2456  0.2489
  788SOL    HW2 2364   0.262   0.818   0.643 -1.5456 -0.0409 -0.2219
  789SOL     OW 2365   0.383   1.943   1.240  0.2264 -0.5948 -0.0300
  789SOL    HW1 2366   0.462   1.962   1.179 -1.3134  0.1881 -0.4411
  789SOL    HW2 2367   0.399   1.903   1.331  0.5705 -0.9402 -1.5565
  790SOL     OW 2368   0.914   0.569   2.396  0.1036 -0.0692  0.1870
  790SOL    HW1 2369   0.967   0.485   2.416  1.3852  0.1457  1.1795
  790SOL    HW2 2370   0.896   0.577   2.291  2.3933 -0.1152 -2.3372
  791SOL     OW 2371   1.950   0.622   0.896  0.2607 -0.0717 -0.4675
  791SOL    HW1 2372   1.874   0.680   0.932 -1.7511 -0.5813 -1.1161
  791SOL    HW2 2373   1.916   0.528   0.884 -0.3589 -0.9175 -0.5731
  792SOL     OW 2374   1.291   2.473   2.020  0.2319 -0.2674 -0.6551
  792SOL    HW1 2375   1.216   2.541   1.997 -0.3664 -0.0852  3.4570
  792SOL    HW2 2376   1.249   2.380   2.047 -1.5012 -1.5366  1.2368
  793SOL     OW 2377   1.138   0.715   0.380  0.2476 -0.2570  0.4316
  793SOL    HW1 2378   1.149   0.763   0.288  1.6433 -1.5061 -3.1483
  793SOL    HW2 2379   1.052   0.736   0.428 -2.0288  1.3331  0.9816
  794SOL     OW 2380   0.711   0.994   2.044  0.0362 -0.0200  0.7071
  794SOL    HW1 2381   0.651   1.071   2.069  0.7503 -1.7231  0.5634
  794SOL    HW2 2382   0.803   1.025   2.003  3.3469  2.9653  2.1770
  795SOL     OW 2383   0.256   2.120   2.410 -0.8599 -0.2448  0.4294
  795SOL    HW1 2384   0.264   2.019   2.403  0.7026  0.4310  0.5623
  795SOL    HW2 2385   0.244   2.147   2.505  1.3242  1.1620  0.1276
  796SOL     OW 2386   2.557   0.831   2.269 -0.4228 -0.8004 -0.1195
  796SOL    HW1 2387   2.477   0.866   2.218  1.3930  1.2881  0.2225
  796SOL    HW2 2388   2.640   0.827   2.209 -1.4397 -1.4651 -0.4236
  797SOL     OW 2389   2.785   2.194   2.762  0.5148 -0.7837 -0.0774
  797SOL    HW1 2390   2.681   2.187   2.780 -2.8654  0.5528  1.0735
  797SOL    HW2 2391   2.826   2.229   2.849 -3.6045 -1.5336 -0.0047
  798SOL     OW 2392   0.226   2.560   2.166  0.6528  0.3055  0.1239
  798SOL    HW1 2393   0.192   2.600   2.078  1.9822 -2.4282  0.5294
  798SOL    HW2 2394   0.261   2.467   2.151 -0.9340 -1.5684 -0.8710
  799SOL     OW 2395   0.185   2.490   2.579  0.2821 -0.4619 -0.0791
  799SOL    HW1 2396   0.202   2.392   2.583  0.0527  1.4226 -0.0448
  799SOL    HW2 2397   0.170   2.528   2.674 -0.3792  0.0349 -1.6115
  800SOL     OW 2398   0.264   2.240   0.395  0.2646 -0.1054  0.6207
  800SOL    HW1 2399   0.273   2.285   0.303 -2.5122 -0.6270 -1.6292
  800SOL    HW2 2400   0.325   2.161   0.414  1.1619  0.1624 -2.4348
  801SOL     OW 2401   1.748   1.521   1.097 -0.3294 -0.1650  0.1521
  801SOL    HW1 2402   1.706   1.442   1.144  1.2482 -0.2545 -0.7303
  801SOL    HW2 2403   1.828   1.485   1.043 -0.2982 -0.3475  0.4078
  802SOL     OW 2404   0.062   1.250   0.672  0.0377  0.2142  0.1833
  802SOL    HW1 2405   0.161   1.256   0.655 -0.8554  0.0818 -0.7362
  802SOL    HW2 2406   0.040   1.152   0.690  1.0121  0.8894 -3.2743
  803SOL     OW 2407   1.237   1.967   2.217 -0.1688 -0.0663 -0.5168
  803SOL    HW1 2408   1.272   1.995   2.308 -0.8547 -2.0960 -0.5469
  803SOL    HW2 2409   1.137   1.981   2.230  0.4827 -0.9481 -0.8597
  804SOL     OW 2410   1.488   1.644   0.483 -0.4586  0.0735  0.2965
  804SOL    HW1 2411   1.565   1.656   0.549 -2.6725  2.2879  1.1091
  804SOL    HW2 2412   1.407   1.691   0.519  3.1214 -2.0442  0.2357
  805SOL     OW 2413   2.441   1.206   3.055 -0.2485 -0.0889 -0.1490
  805SOL    HW1 2414   2.408   1.281   2.996  1.8030  2.6988  0.1549
  805SOL    HW2 2415   2.414   1.115   3.024 -0.7459  0.1404  0.4544
  806SOL     OW 2416   0.448   2.900   0.426 -0.5974  0.3826  0.1435
  806SOL    HW1 2417   0.513   2.823   0.421 -2.5905  2.5179  0.2250
  806SOL    HW2 2418   0.370   2.882   0.359  1.5926 -3.6142  0.0728
  807SOL     OW 2419   2.010   1.871   2.829  0.0033  0.4084  0.0199
  807SOL    HW1 2420   2.096   1.868   2.888 -0.3924 -0.5819  1.3954
  807SOL    HW2 2421   1.992   1.777   2.795  0.1666  0.1584  0.9712
  808SOL     OW 2422   0.900   1.524   1.186 -0.3522 -0.1769  0.4601
  808SOL    HW1 2423   0.880   1.429   1.147 -1.6842 -0.2388  0.2856
  808SOL    HW2 2424   0.807   1.573   1.180 -2.3428 -1.7157  2.0937
  809SOL     OW 2425   2.450   0.655   0.620 -0.2903 -0.5024 -0.4342
  809SOL    HW1 2426   2.410   0.739   0.664  1.8557  0.9361  2.3876
  809SOL    HW2 2427   2.423   0.649   0.524  0.6273  0.4579  1.7800
  810SOL     OW 2428   0.790   1.258   0.512  0.7239 -0.3030  0.1788
  810SOL    HW1 2429   0.774   1.286   0.609  2.1505 -2.2840 -0.6875
  810SOL    HW2 2430   0.842   1.330   0.455  2.5692 -0.2828 -0.1054
  811SOL     OW 2431   1.580   2.526   1.225 -0.1203 -0.4809 -0.4098
  811SOL    HW1 2432   1.670   2.489   1.195  0.2816 -1.4278 -0.1772
  811SOL    HW2 2433   1.557   2.504   1.322 -0.6399  0.1469  0.6704
  812SOL     OW 2434   1.034   2.545   1.713 -0.3682 -0.3342  0.0888
  812SOL    HW1 2435   1.053   2.581   1.807  1.9964 -1.7958  4.8033
  812SOL    HW2 2436   1.004   2.449   1.715 -0.2025  2.8076 -0.4695
  813SOL     OW 2437   0.724   2.811   1.723  0.3861  0.0563 -0.0636
  813SOL    HW1 2438   0.669   2.896   1.704 -1.3478 -0.2414  1.1600
  813SOL    HW2 2439   0.789   2.782   1.651 -2.4159  0.4135  1.0638
  814SOL     OW 2440   0.930   2.496   2.490 -0.3383 -0.3171  0.1165
  814SOL    HW1 2441   0.945   2.470   2.587  1.1035 -0.3638 -0.4650
  814SOL    HW2 2442   0.835   2.528   2.486  0.1075 -0.0241 -1.1894
  815SOL     OW 2443   0.591   0.261   2.475  0.6108  0.0939 -0.2079
  815SOL    HW1 2444   0.683   0.217   2.462 -1.3740  0.6050 -1.2127
  815SOL    HW2 2445   0.598   0.356   2.506  0.9644 -2.9289 -2.0605
  816SOL     OW 2446   2.317   0.329   2.817 -0.2248 -0.2129 -0.0824
  816SOL    HW1 2447   2.244   0.383   2.768 -1.2755 -0.5115 -1.1141
  816SOL    HW2 2448   2.283   0.249   2.871  0.1221 -0.1089 -2.8529
  817SOL     OW 2449   1.912   0.083   1.904 -0.2549 -0.7407 -0.3861
  817SOL    HW1 2450   1.970   0.027   1.971  0.3877 -0.5771  1.3122
  817SOL    HW2 2451   1.968   0.136   1.838  0.8456 -3.6742  1.6084
  818SOL     OW 2452   1.601   0.656   0.266  0.0092  0.3399  0.0419
  818SOL    HW1 2453   1.654   0.736   0.297 -0.0783  0.3600  0.7710
  818SOL    HW2 2454   1.665   0.586   0.243 -0.5254  1.4417  0.4463
  819SOL     OW 2455   1.790   1.661   2.440 -0.4214 -0.0580  0.0002
  819SOL    HW1 2456   1.759   1.688   2.347  0.6143 -2.9071 -2.0669
  819SOL    HW2 2457   1.892   1.649   2.433  2.1117 -0.3625  0.0927
  820SOL     OW 2458   0.130   1.673   0.122 -0.0681 -0.1672 -0.2318
  820SOL    HW1 2459   0.102   1.620   0.035 -2.0640  0.6055 -1.8423
  820SOL    HW2 2460   0.221   1.711   0.121 -0.2224  2.7967 -0.7126
  821SOL     OW 2461   0.142   2.951   0.602  0.0284 -0.1277 -0.8493
  821SOL    HW1 2462   0.150   3.027   0.534 -0.4761  2.5559 -1.3185
  821SOL    HW2 2463   0.187   2.860   0.579  0.8534 -0.4740 -1.5958
  822SOL     OW 2464   2.454   2.452   2.805  0.5286 -0.1108  0.0474
  822SOL    HW1 2465   2.363   2.486   2.775  1.5494 -0.5170  0.6855
  822SOL    HW2 2466   2.518   2.525   2.839  0.4098 -1.1857  0.4078
  823SOL     OW 2467   1.265   0.045   2.278  0.2764 -0.0997  0.4538
  823SOL    HW1 2468   1.358   0.028   2.243  0.7977  3.2454  0.0449
  823SOL    HW2 2469   1.217   3.044   2.297  0.6639 -1.8932 -0.8230
  824SOL     OW 2470   2.812   2.406   2.127  0.1030  0.1157 -0.8469
  824SOL    HW1 2471   2.871   2.408   2.212  1.0711 -0.0837  0.1843
  824SOL    HW2 2472   2.715   2.389   2.151  0.2251  2.4237 -2.0936
  825SOL     OW 2473   2.919   1.903   2.474 -0.8150 -0.2292 -0.3812
  825SOL    HW1 2474   2.826   1.932   2.444  0.0772  0.0554 -0.5370
  825SOL    HW2 2475   2.984   1.955   2.424 -0.9696 -1.5178  0.2257
  826SOL     OW 2476   2.142   0.889   2.261  0.0657  0.0102  0.2115
  826SOL    HW1 2477   2.131   0.797   2.301  0.3697 -1.0054 -0.7281
  826SOL    HW2 2478   2.051   0.924   2.235 -0.1564 -0.2517 -0.9878
  827SOL     OW 2479   2.617   2.034   1.277  0.3319  0.4935 -0.4954
  827SOL    HW1 2480   2.537   2.094   1.307 -0.7160 -1.0787  2.0114
  827SOL    HW2 2481   2.590   1.994   1.186 -1.3566  0.7568 -2.5188
  828SOL     OW 2482   0.126   3.086   1.736  0.4440 -0.5445  0.1736
  828SOL    HW1 2483   0.172   3.022   1.798  0.0263  0.9874 -0.3907
  828SOL    HW2 2484   0.173   0.087   1.740  0.6521 -1.4442  1.0176
  829SOL     OW 2485   1.085   2.113   2.599 -0.2954  0.1913  0.6492
  829SOL    HW1 2486   1.163   2.050   2.613 -1.0989 -0.8055  2.1368
  829SOL    HW2 2487   0.995   2.062   2.583 -0.8649  1.8092 -0.5545
  830SOL     OW 2488   0.954   0.671   0.774 -0.4397  0.4114 -0.1640
  830SOL    HW1 2489   0.959   0.574   0.808  0.0991 -0.9141  0.9837
  830SOL    HW2 2490   0.952   0.675   0.670 -2.1136  2.0107  2.8860
  831SOL     OW 2491   2.886   1.479   2.974 -0.5216  0.4970  0.4314
  831SOL    HW1 2492   2.863   1.545   3.046  1.8728 -1.9897 -0.9930
  831SOL    HW2 2493   2.913   1.387   3.007  0.6371 -0.5855 -1.5583
  832SOL     OW 2494   1.708   2.428   2.223  0.1255  0.1020 -0.0777
  832SOL    HW1 2495   1.756   2.381   2.301 -1.2133  0.7134 -1.2395
  832SOL    HW2 2496   1.748   2.401   2.135  1.5662 -0.4775  3.5529
  833SOL     OW 2497   0.855   0.337   2.016  0.1495 -0.2057  0.2529
  833SOL    HW1 2498   0.913   0.321   1.935  0.6524 -2.3987  2.2996
  833SOL    HW2 2499   0.872   0.257   2.079  0.7290 -2.3203 -2.0801
  834SOL     OW 2500   0.033   0.264   1.210 -0.3027  0.3844  0.4764
  834SOL    HW1 2501   3.070   0.350   1.230 -1.0789  1.8528 -0.7608
  834SOL    HW2 2502   0.120   0.257   1.261 -2.0716  2.6519 -4.8578
  835SOL     OW 2503   2.402   0.743   0.013  0.0816  0.1755  0.2150
  835SOL    HW1 2504   2.419   0.672   3.028 -1.4135 -1.3754 -0.2775
  835SOL    HW2 2505   2.484   0.804   0.020 -0.4478 -0.5755 -0.5412
  836SOL     OW 2506   1.267   2.058   0.210 -0.0945 -0.1062  0.0619
  836SOL    HW1 2507   1.319   1.970   0.222 -0.2395 -0.3996  1.8938
  836SOL    HW2 2508   1.183   2.060   0.269 -2.4047 -1.7705  0.2107
  837SOL     OW 2509   1.670   1.701   0.697 -0.3897  0.0433 -0.7105
  837SOL    HW1 2510   1.661   1.635   0.771  1.4764 -1.2030  1.3776
  837SOL    HW2 2511   1.768   1.727   0.692 -0.7533  0.9485 -0.7994
  838SOL     OW 2512   1.411   1.058   2.020  0.5835  0.1403  0.0620
  838SOL    HW1 2513   1.415   1.013   1.926 -0.3021 -0.2624 -0.3013
  838SOL    HW2 2514   1.321   1.104   2.025 -0.4154  0.0151  1.4909
  839SOL     OW 2515   0.872   1.602   2.539 -0.1441  0.0864 -0.1994
  839SOL    HW1 2516   0.812   1.657   2.603  1.4242 -2.8157 -1.7620
  839SOL    HW2 2517   0.885   1.507   2.575  1.0111  0.8504 -0.1424
  840SOL     OW 2518   0.788   2.130   0.705 -0.2864  0.3605  0.8153
  840SOL    HW1 2519   0.726   2.116   0.784 -1.3543  1.2589 -0.0117
  840SOL    HW2 2520   0.870   2.072   0.706 -0.9369 -0.1422  3.2025
  841SOL     OW 2521   1.755   2.415   0.205  0.1846  0.1633 -0.2011
  841SOL    HW1 2522   1.786   2.480   0.267  1.6749  1.5486  0.4529
  841SOL    HW2 2523   1.710   2.458   0.125 -0.2491  0.3001 -0.7596
  842SOL     OW 2524   0.419   0.517   2.938  0.7193  0.3690 -0.0597
  842SOL    HW1 2525   0.478   0.545   2.858  1.5771 -2.0872  2.1752
  842SOL    HW2 2526   0.324   0.507   2.907 -2.8963  0.6294  0.9624
  843SOL     OW 2527   1.155   0.354   0.660  0.5372 -0.1143 -0.6870
  843SOL    HW1 2528   1.186   0.256   0.669 -1.3179  0.9394  0.5998
  843SOL    HW2 2529   1.230   0.416   0.665  0.7192 -1.8385  0.2481
  844SOL     OW 2530   2.590   2.890   3.010  1.1219 -0.0007 -0.1171
  844SOL    HW1 2531   2.540   2.909   2.925  0.9440 -1.0786  0.3953
  844SOL    HW2 2532   2.686   2.916   2.997 -2.7457 -0.9358  4.4889
  845SOL     OW 2533   2.956   2.112   1.539 -0.1142  0.5412  0.4386
  845SOL    HW1 2534   2.890   2.186   1.567 -0.1116  0.1233  2.9420
  845SOL    HW2 2535   2.940   2.032   1.597 -0.0364  0.8749  0.6974
  846SOL     OW 2536   2.459   1.452   2.239  0.3779  0.1270 -0.4324
  846SOL    HW1 2537   2.434   1.445   2.340  1.1257 -0.2880  1.1434
  846SOL    HW2 2538   2.549   1.409   2.221 -0.9810 -1.2053 -0.9159
  847SOL     OW 2539   1.120   0.584   1.703  0.2960 -0.1017 -0.4780
  847SOL    HW1 2540   1.176   0.554   1.783 -1.9240  0.8713  2.3796
  847SOL    HW2 2541   1.067   0.668   1.713  0.6217 -0.3554 -0.7190
  848SOL     OW 2542   2.666   2.621   2.866  0.5812  0.1038  0.5065
  848SOL    HW1 2543   2.663   2.698   2.930  0.2515 -0.3995 -2.9749
  848SOL    HW2 2544   2.729   2.642   2.787 -1.4187 -0.3608 -0.9719
  849SOL     OW 2545   0.545   3.075   0.252 -0.1688 -0.0593  0.1836
  849SOL    HW1 2546   0.526   2.996   0.312 -1.1930  1.6573 -0.6901
  849SOL    HW2 2547   0.507   0.073   0.288  3.6346 -0.3181 -0.7524
  850SOL     OW 2548   1.338   0.003   0.996  0.1612  0.0649 -0.3316
  850SOL    HW1 2549   1.405   3.028   1.041 -1.6990 -0.1850  1.2500
  850SOL    HW2 2550   1.281   3.037   0.931 -0.2011  2.7946  1.8717
  851SOL     OW 2551   2.659   0.390   2.522 -1.1777  0.3811  0.5722
  851SOL    HW1 2552   2.599   0.464   2.488  0.8606 -1.6786  1.7996
  851SOL    HW2 2553   2.737   0.430   2.576  3.0775  0.4680 -0.2271
  852SOL     OW 2554   1.509   0.665   2.352  0.0682 -0.2798 -0.4689
  852SOL    HW1 2555   1.561   0.618   2.424 -0.3782  0.8926 -0.4621
  852SOL    HW2 2556   1.505   0.616   2.264  0.8580  1.5271  1.0887
  853SOL     OW 2557   2.677   0.106   0.320  0.3323  0.4430  0.3366
  853SOL    HW1 2558   2.673   0.056   0.409 -1.5254  2.7509 -0.1474
  853SOL    HW2 2559   2.738   0.188   0.324 -0.5557 -0.7346  0.3517
  854SOL     OW 2560   2.393   1.226   2.073  0.2429  0.1837 -0.1775
  854SOL    HW1 2561   2.419   1.295   2.146  0.4094  1.2818  2.2247
  854SOL    HW2 2562   2.392   1.274   1.986 -0.0752 -0.9562  1.8684
  855SOL     OW 2563   0.620   2.655   0.184  0.4024  0.2263  0.6774
  855SOL    HW1 2564   0.601   2.729   0.119  0.8880 -1.5361 -0.3669
  855SOL    HW2 2565   0.712   2.612   0.160  2.2318 -0.0137 -1.2081
  856SOL     OW 2566   2.898   3.057   2.803 -0.4397  0.2909  0.3989
  856SOL    HW1 2567   2.882   3.033   2.705 -0.3665  0.0340  3.5110
  856SOL    HW2 2568   2.891   2.972   2.860 -1.0006 -1.8674 -0.3554
  857SOL     OW 2569   0.915   2.710   1.544  0.0047  0.2580  0.5165
  857SOL    HW1 2570   0.864   2.651   1.481 -1.3275  1.0321 -0.7575
  857SOL    HW2 2571   0.975   2.651   1.602  1.0410 -0.0166  0.0124
  858SOL     OW 2572   2.776   2.296   1.655  0.1125 -0.1239 -0.2828
  858SOL    HW1 2573   2.825   2.299   1.743  1.7707 -0.1883 -1.3181
  858SOL    HW2 2574   2.680   2.255   1.660 -1.9690  0.2693 -0.6993
  859SOL     OW 2575   1.711   2.409   1.745  0.2731  0.2032  0.1168
  859SOL    HW1 2576   1.689   2.335   1.676  2.3074  1.2624  5.0715
  859SOL    HW2 2577   1.637   2.419   1.813  1.3271  1.9647 -1.5976
  860SOL     OW 2578   2.235   0.158   3.010  0.1174  0.6807 -0.1004
  860SOL    HW1 2579   2.301   0.084   3.043  2.4244 -2.2290  2.7994
  860SOL    HW2 2580   2.228   0.241   3.071  1.7754  1.9697 -0.7821
  861SOL     OW 2581   2.460   2.950   0.626  0.3134  0.0303 -0.5197
  861SOL    HW1 2582   2.487   2.852   0.606  0.5453 -2.1786  0.2141
  861SOL    HW2 2583   2.490   2.976   0.721 -1.3318  0.1451  0.9049
  862SOL     OW 2584   1.657   3.059   2.338 -0.3984  0.0894  0.4614
  862SOL    HW1 2585   1.612   3.004   2.409  0.0626 -1.5758  0.4693
  862SOL    HW2 2586   1.638   0.070   2.362 -0.2783  0.6992  1.1745
  863SOL     OW 2587   0.263   0.509   1.214 -0.1613  0.4482  0.6728
  863SOL    HW1 2588   0.184   0.557   1.165 -1.5482 -0.0637 -0.3777
  863SOL    HW2 2589   0.277   0.419   1.162 -1.6697 -1.4821  0.3008
  864SOL     OW 2590   0.214   2.916   1.960  0.1660 -0.0127  0.1979
  864SOL    HW1 2591   0.313   2.895   1.975 -1.0129 -0.9419  0.2866
  864SOL    HW2 2592   0.160   2.830   1.965  0.2919 -0.3493 -0.2629
  865SOL     OW 2593   0.561   1.200   3.013  0.5974  1.1747 -0.3942
  865SOL    HW1 2594   0.654   1.221   3.047 -1.4836  0.1227  0.5397
  865SOL    HW2 2595   0.539   1.108   3.050  0.5648  0.9263  2.9476
  866SOL     OW 2596   2.930   0.718   0.118  0.0886 -0.1449 -0.2582
  866SOL    HW1 2597   3.027   0.739   0.148  0.5813  1.3964 -2.1129
  866SOL    HW2 2598   2.887   0.671   0.195 -0.3057  1.9833 -1.2765
  867SOL     OW 2599   2.870   2.830   2.963  0.5096  0.3735 -0.4612
  867SOL    HW1 2600   2.891   2.855   3.060  0.1261 -1.0923 -0.4195
  867SOL    HW2 2601   2.930   2.756   2.924  0.8889 -0.1063 -0.6302
  868SOL     OW 2602   1.494   0.263   0.261 -0.6349  0.1367  0.5247
  868SOL    HW1 2603   1.483   0.274   0.365 -0.3574 -0.8084 -1.4882
  868SOL    HW2 2604   1.574   0.318   0.225 -3.7829  0.9615 -1.8502
  869SOL     OW 2605   2.454   1.461   0.400 -0.2132 -0.4432 -0.0720
  869SOL    HW1 2606   2.531   1.528   0.397 -2.6183 -1.3944  0.6502
  869SOL    HW2 2607   2.442   1.420   0.490 -3.1856  2.8663  0.1918
  870SOL     OW 2608   2.075   1.568   0.521 -0.2133 -0.1360  0.3332
  870SOL    HW1 2609   2.056   1.479   0.560  2.7945 -1.0318  0.4804
  870SOL    HW2 2610   1.997   1.625   0.551 -0.5322 -1.3648  1.0876
  871SOL     OW 2611   1.381   1.393   1.205  0.3750 -0.0890 -0.2394
  871SOL    HW1 2612   1.285   1.384   1.217  3.3672 -2.8782  0.3650
  871SOL    HW2 2613   1.433   1.361   1.285  2.0856 -2.2133  1.4258
  872SOL     OW 2614   1.380   1.638   1.574 -0.2087  0.4005  0.0925
  872SOL    HW1 2615   1.333   1.551   1.565 -3.1574  1.2424  0.5844
  872SOL    HW2 2616   1.321   1.699   1.626  2.2272  0.3039  3.3197
  873SOL     OW 2617   0.528   1.552   2.472 -0.1684 -0.0113 -0.0511
  873SOL    HW1 2618   0.568   1.536   2.561 -2.7515  1.1524 -1.0005
  873SOL    HW2 2619   0.503   1.651   2.456 -3.0172  3.0590  0.5924
  874SOL     OW 2620   0.982   1.481   1.437 -0.1086  0.2092  0.0772
  874SOL    HW1 2621   0.964   1.518   1.343 -1.1149  0.5736 -0.1470
  874SOL    HW2 2622   0.904   1.483   1.497 -0.8645 -0.5501  3.9511
  875SOL     OW 2623   2.236   0.539   1.152 -0.3476  0.5336  0.2746
  875SOL    HW1 2624   2.226   0.554   1.051  2.0151 -0.0693 -2.7020
  875SOL    HW2 2625   2.150   0.566   1.200 -0.2268  2.0550  2.7684
  876SOL     OW 2626   0.788   0.824   0.029  0.3529 -0.3538  0.1047
  876SOL    HW1 2627   0.762   0.748   0.090 -0.7984  1.4426 -0.1599
  876SOL    HW2 2628   0.795   0.910   0.085  0.1930  1.8730  0.3828
  877SOL     OW 2629   2.960   0.459   1.281  0.0005  0.3355 -0.1515
  877SOL    HW1 2630   2.862   0.474   1.269  2.8892 -1.4499  1.4428
  877SOL    HW2 2631   2.996   0.538   1.327 -1.1787 -2.3337  1.1770
  878SOL     OW 2632   1.500   2.335   0.002 -0.2946  0.1649 -0.0792
  878SOL    HW1 2633   1.561   2.415   3.071  1.1650 -0.3202 -0.4167
  878SOL    HW2 2634   1.494   2.262   3.016  1.6432 -2.5181 -1.3359
  879SOL     OW 2635   2.291   2.092   1.617  0.4651 -0.1125  0.1155
  879SOL    HW1 2636   2.327   2.088   1.525 -0.0878  0.3401  0.3363
  879SOL    HW2 2637   2.340   2.167   1.668  4.0485 -0.3534  0.6518
  880SOL     OW 2638   0.955   2.951   1.414 -0.1909 -0.0008 -0.3585
  880SOL    HW1 2639   0.930   2.859   1.453 -1.7473 -4.6545  2.4387
  880SOL    HW2 2640   0.930   2.954   1.317  2.5442 -0.9963  0.4408
  881SOL     OW 2641   1.111   1.855   3.024  0.3686  0.0391  0.4052
  881SOL    HW1 2642   1.087   1.832   2.927  2.4228 -1.4695 -0.3358
  881SOL    HW2 2643   1.141   1.950   3.028 -0.4565  2.2865  1.9478
  882SOL     OW 2644   2.304   0.745   1.977  0.0647 -0.1633 -0.4179
  882SOL    HW1 2645   2.346   0.829   2.021 -0.9109  0.6305 -1.8996
  882SOL    HW2 2646   2.280   0.764   1.881 -2.3887 -1.5800  0.3179
  883SOL     OW 2647   1.432   0.348   1.982 -0.6421 -0.7694 -0.0828
  883SOL    HW1 2648   1.479   0.278   1.926 -1.4858 -0.0096  2.7129
  883SOL    HW2 2649   1.358   0.295   2.025  0.1531  2.0391 -0.3523
  884SOL     OW 2650   2.887   0.301   0.102  0.7188  0.0015 -0.3989
  884SOL    HW1 2651   2.899   0.206   0.061  2.3600 -1.1478 -2.0657
  884SOL    HW2 2652   2.898   0.293   0.204  2.5274  3.0456  2.2873
  885SOL     OW 2653   0.609   2.189   0.510  0.1828 -0.1295 -0.3646
  885SOL    HW1 2654   0.676   2.184   0.588 -2.1897  5.2888 -1.5590
  885SOL    HW2 2655   0.616   2.279   0.459 -1.2776 -0.7228  0.7495
  886SOL     OW 2656   1.692   1.484   2.653  0.0414  0.0552 -0.5367
  886SOL    HW1 2657   1.718   1.574   2.609 -0.7146  0.6874  1.0744
  886SOL    HW2 2658   1.647   1.499   2.742  0.3466 -0.5544  0.1239
  887SOL     OW 2659   1.997   0.511   1.784  0.0559  0.0579 -0.0445
  887SOL    HW1 2660   2.026   0.564   1.866  0.2595  0.0480  1.1814
  887SOL    HW2 2661   1.920   0.443   1.809 -2.7004  0.2031 -1.5012
  888SOL     OW 2662   2.757   0.955   1.636  0.3938 -0.4382 -0.0272
  888SOL    HW1 2663   2.689   0.938   1.712 -1.2678 -1.4566 -0.9686
  888SOL    HW2 2664   2.852   0.947   1.676  0.0975  1.3082 -0.8620
  889SOL     OW 2665   2.869   2.681   0.761  0.2928 -0.4443 -0.0689
  889SOL    HW1 2666   2.887   2.590   0.715  1.4192  0.4133 -1.6892
  889SOL    HW2 2667   2.908   2.756   0.706  0.0921 -0.1901  0.5448
  890SOL     OW 2668   2.990   2.598   2.901 -0.0321 -0.0401 -0.1592
  890SOL    HW1 2669   2.965   2.501   2.906 -0.5864 -0.0646 -1.5085
  890SOL    HW2 2670   3.086   2.615   2.880 -2.9529 -0.6439  0.0020
  891SOL     OW 2671   0.776   1.653   2.894 -0.0077  0.0127  0.5296
  891SOL    HW1 2672   0.751   1.692   2.982  1.0596 -1.5718  2.0254
  891SOL    HW2 2673   0.859   1.594   2.916  2.0071 -2.1922  2.6732
  892SOL     OW 2674   0.217   2.757   0.968 -0.1314 -0.0458  0.1519
  892SOL    HW1 2675   0.312   2.794   0.981  1.4660  2.2573  1.8303
  892SOL    HW2 2676   0.217   2.661   0.990 -3.3442 -0.0055 -0.6390
  893SOL     OW 2677   0.369   0.090   1.093  0.2295  0.4653 -0.4050
  893SOL    HW1 2678   0.376   0.018   1.023  1.0081  2.0693 -0.5905
  893SOL    HW2 2679   0.295   0.056   1.154 -2.1461  3.0136 -1.5429
  894SOL     OW 2680   0.004   1.348   0.918 -0.1896 -0.2476 -0.1881
  894SOL    HW1 2681   0.030   1.331   0.822 -0.3126 -0.9021  2.7377
  894SOL    HW2 2682   3.078   1.447   0.934 -1.8029 -0.0395 -1.8656
  895SOL     OW 2683   2.564   2.508   1.821 -0.4293 -0.4334 -0.1944
  895SOL    HW1 2684   2.653   2.529   1.865  3.7232  0.2060 -2.6482
  895SOL    HW2 2685   2.553   2.566   1.741  3.1696  0.2940  1.5418
  896SOL     OW 2686   0.968   0.445   1.468 -0.2477 -0.1833 -0.0659
  896SOL    HW1 2687   0.932   0.350   1.468 -0.5207 -0.4075 -0.0199
  896SOL    HW2 2688   0.982   0.479   1.564 -0.8083 -0.0717  1.3543
  897SOL     OW 2689   0.956   1.567   1.765  0.2522 -0.2424  0.1242
  897SOL    HW1 2690   1.039   1.550   1.707 -1.9981  1.9788  0.1401
  897SOL    HW2 2691   0.941   1.667   1.781 -0.4172 -0.0236  0.3486
  898SOL     OW 2692   1.419   2.718   1.600  0.2422  0.4708  0.2876
  898SOL    HW1 2693   1.359   2.645   1.644  0.2451 -2.0685  0.1723
  898SOL    HW2 2694   1.368   2.758   1.523  0.8190 -4.4905  0.8691
  899SOL     OW 2695   0.693   0.611   0.157 -0.0686  0.3693  0.0159
  899SOL    HW1 2696   0.681   0.650   0.249  2.1014 -2.4332 -0.5716
  899SOL    HW2 2697   0.701   0.512   0.164 -1.9272 -0.3688  0.4412
  900SOL     OW 2698   1.485   2.317   1.900  0.0555 -0.0739 -0.1024
  900SOL    HW1 2699   1.420   2.384   1.946 -0.6826  1.4936  1.0758
  900SOL    HW2 2700   1.441   2.271   1.818 -0.4927 -1.6488 -0.7101
  901SOL     OW 2701   0.921   2.290   0.405 -0.0043  0.1715 -0.5301
  901SOL    HW1 2702   0.872   2.323   0.489 -1.0566 -0.0705  2.0631
  901SOL    HW2 2703   0.858   2.279   0.323 -1.1630  0.1794 -1.3629
  902SOL     OW 2704   1.783   1.540   0.198 -0.0827 -0.4729 -0.0056
  902SOL    HW1 2705   1.814   1.628   0.239  2.0216 -0.7016  0.7548
  902SOL    HW2 2706   1.817   1.465   0.262  0.6331 -1.9713  1.8051
  903SOL     OW 2707   2.074   1.178   0.156 -0.2821 -0.2690  0.1944
  903SOL    HW1 2708   2.160   1.223   0.184  0.4794  1.6897  0.6985
  903SOL    HW2 2709   2.042   1.218   0.068  2.5097  0.4610 -0.7209
  904SOL     OW 2710   0.832   1.328   3.061 -0.4409  0.0034 -0.1458
  904SOL    HW1 2711   0.889   1.395   3.006  2.2633  2.4781  2.4552
  904SOL    HW2 2712   0.767   1.377   0.036  0.4378 -1.2754 -0.2477
  905SOL     OW 2713   2.042   2.917   1.187 -0.2857  0.7556 -0.5557
  905SOL    HW1 2714   2.130   2.967   1.194 -0.3308  0.8761 -3.6578
  905SOL    HW2 2715   2.030   2.841   1.256 -1.3451 -0.7523  3.2704
  906SOL     OW 2716   2.804   2.247   1.237 -0.0666 -0.4820  0.7171
  906SOL    HW1 2717   2.770   2.273   1.146  1.0366 -0.0099  1.4840
  906SOL    HW2 2718   2.758   2.167   1.277 -0.5168  2.6645  1.1926
  907SOL     OW 2719   1.358   0.831   0.214  0.0566 -0.7467  0.5186
  907SOL    HW1 2720   1.318   0.828   0.118 -1.6476  1.7581 -3.3447
  907SOL    HW2 2721   1.446   0.783   0.214 -1.3275  0.6659 -1.2610
  908SOL     OW 2722   1.518   2.948   1.125  0.0516 -0.0927 -0.2426
  908SOL    HW1 2723   1.618   2.934   1.107  1.3168 -0.1125 -0.1958
  908SOL    HW2 2724   1.498   2.901   1.213  1.1275  0.8090 -1.9531
  909SOL     OW 2725   2.056   1.181   1.605 -0.6150  0.5350 -0.2984
  909SOL    HW1 2726   2.130   1.208   1.670 -0.5741 -1.2704  2.6780
  909SOL    HW2 2727   2.068   1.237   1.521 -0.2588 -0.0951  0.5879
  910SOL     OW 2728   1.602   0.129   1.885  0.0088  0.1350 -0.2046
  910SOL    HW1 2729   1.563   0.090   1.972  0.5320  1.2986 -2.0341
  910SOL    HW2 2730   1.638   0.052   1.828 -2.8893  1.1855 -0.3807
  911SOL     OW 2731   2.679   0.824   2.744  0.2003  0.2933 -0.0358
  911SOL    HW1 2732   2.714   0.863   2.655 -3.9445  0.7746  0.3328
  911SOL    HW2 2733   2.754   0.782   2.800 -0.5654  0.4542 -2.5194
  912SOL     OW 2734   0.059   1.340   1.780 -0.5023  0.1862 -0.4571
  912SOL    HW1 2735   0.034   1.430   1.737  0.6118  0.8840  1.6350
  912SOL    HW2 2736   0.125   1.287   1.720  0.7432 -1.0041 -2.4720
  913SOL     OW 2737   2.987   2.365   1.380 -0.1132 -0.2819 -0.3968
  913SOL    HW1 2738   3.011   2.271   1.425  3.3044 -3.3931  0.2417
  913SOL    HW2 2739   2.904   2.360   1.318  0.8638 -0.7667 -1.3575
  914SOL     OW 2740   1.557   1.036   1.508  0.7823  0.1166 -0.2612
  914SOL    HW1 2741   1.597   0.950   1.471 -0.7423  4.0681  0.8807
  914SOL    HW2 2742   1.629   1.098   1.546 -2.1923  1.2373  1.1256
  915SOL     OW 2743   2.012   0.557   1.371  0.5384  0.0319 -0.0302
  915SOL    HW1 2744   2.074   0.542   1.445 -0.9191  0.0599 -3.7108
  915SOL    HW2 2745   1.981   0.467   1.324 -1.4757 -1.3492 -0.0360
  916SOL     OW 2746   2.538   2.225   0.953  0.3897 -0.4012  0.1579
  916SOL    HW1 2747   2.511   2.275   1.040 -0.6646 -1.6270  0.3027
  916SOL    HW2 2748   2.634   2.247   0.928 -2.6114 -1.8965 -0.2456
  917SOL     OW 2749   1.709   2.316   2.846  0.2968  0.4905  0.0097
  917SOL    HW1 2750   1.779   2.382   2.869 -2.3730 -2.8427  1.4441
  917SOL    HW2 2751   1.746   2.224   2.879  0.9892  0.8903  0.3036
  918SOL     OW 2752   1.755   2.775   2.202  0.2211  0.0062 -0.1312
  918SOL    HW1 2753   1.803   2.845   2.256  0.8347 -0.7072  2.1099
  918SOL    HW2 2754   1.659   2.796   2.194 -1.2774 -0.4258  1.3310
  919SOL     OW 2755   1.142   2.437   1.390 -0.0398  0.4102 -0.0062
  919SOL    HW1 2756   1.190   2.447   1.485  0.8236  0.4745  3.6907
  919SOL    HW2 2757   1.164   2.511   1.326  4.9451 -2.5185 -1.0435
  920SOL     OW 2758   2.937   0.211   2.359  0.2561 -0.2977  0.1468
  920SOL    HW1 2759   3.028   0.177   2.389 -0.7932 -0.7129 -0.4586
  920SOL    HW2 2760   2.891   0.253   2.438 -0.7077  1.4614 -2.3635
  921SOL     OW 2761   3.012   0.948   1.719  0.2103  0.1467  0.3354
  921SOL    HW1 2762   3.024   1.023   1.789  2.1666 -0.9015 -2.4291
  921SOL    HW2 2763   0.022   0.910   1.693 -0.0929 -1.1857 -0.2140
  922SOL     OW 2764   2.103   1.942   0.317 -0.0507  0.0937 -0.5010
  922SOL    HW1 2765   2.172   1.972   0.247  1.9274  1.3815 -0.6768
  922SOL    HW2 2766   2.140   1.861   0.369 -0.6249 -0.8062  2.1383
  923SOL     OW 2767   0.642   1.911   0.190  0.2376  0.1557  0.0610
  923SOL    HW1 2768   0.693   1.838   0.145  0.4457  1.1660 -1.8881
  923SOL    HW2 2769   0.687   2.001   0.194 -1.2369 -0.2982  1.2404
  924SOL     OW 2770   0.998   0.606   3.056  0.8133 -0.3940 -0.1507
  924SOL    HW1 2771   0.920   0.668   3.066 -0.6058  0.4717 -5.4826
  924SOL    HW2 2772   0.984   0.552   2.971  0.9076  0.3567  1.3665
  925SOL     OW 2773   2.660   0.515   0.913 -0.4228 -0.2354  0.3103
  925SOL    HW1 2774   2.672   0.616   0.911  1.0794  1.2892 -1.4425
  925SOL    HW2 2775   2.680   0.461   0.827 -0.8004 -2.0900  1.9002
  926SOL     OW 2776   0.619   0.133   1.098 -0.4610 -0.5912 -0.2443
  926SOL    HW1 2777   0.518   0.124   1.094  0.7650 -2.4763  0.2857
  926SOL    HW2 2778   0.653   0.172   1.186 -0.5373 -1.1691 -0.0548
  927SOL     OW 2779   0.136   1.563   2.435 -0.0291  0.0357 -0.4086
  927SOL    HW1 2780   0.039   1.585   2.446 -1.5924 -1.4708  0.5699
  927SOL    HW2 2781   0.146   1.481   2.375 -0.5043  1.0548  1.5364
  928SOL     OW 2782   2.909   0.291   2.705  0.2822  0.7923 -0.0962
  928SOL    HW1 2783   2.857   0.275   2.792  2.4309 -1.9714 -0.8987
  928SOL    HW2 2784   2.971   0.211   2.697 -0.2321  0.0373 -1.6147
  929SOL     OW 2785   2.714   0.120   1.294 -0.5424  0.1099  0.0711
  929SOL    HW1 2786   2.634   0.054   1.297 -0.7609  0.9252 -0.0902
  929SOL    HW2 2787   2.671   0.211   1.302 -0.4399 -0.5093 -0.7645
  930SOL     OW 2788   1.863   0.831   1.815 -0.1991 -0.6443 -1.1180
  930SOL    HW1 2789   1.780   0.778   1.794  1.3455  0.5455  1.9986
  930SOL    HW2 2790   1.836   0.921   1.854  0.6887  1.4605 -2.2637
  931SOL     OW 2791   1.996   1.239   2.990 -0.6246  0.1397  0.0530
  931SOL    HW1 2792   2.026   1.223   2.897  0.5104 -1.5711  1.3870
  931SOL    HW2 2793   1.894   1.221   2.989 -0.9391  1.4064  0.1994
  932SOL     OW 2794   2.227   1.194   0.516  0.0530  0.2993  0.2775
  932SOL    HW1 2795   2.331   1.196   0.513 -0.7759 -0.0575  1.0603
  932SOL    HW2 2796   2.187   1.104   0.497  1.2308 -0.1685  1.9512
  933SOL     OW 2797   2.382   1.612   0.817 -0.2980  0.0478 -0.0070
  933SOL    HW1 2798   2.403   1.538   0.746  0.7413 -0.7827  0.5149
  933SOL    HW2 2799   2.425   1.700   0.789  1.1822  0.8666  1.0137
  934SOL     OW 2800   2.079   0.666   2.394 -0.3209  0.2066  0.0807
  934SOL    HW1 2801   2.134   0.585   2.371  0.8799  1.5027  2.6241
  934SOL    HW2 2802   1.982   0.659   2.365 -2.2828 -0.4930 -1.2090
  935SOL     OW 2803   0.214   0.962   0.555  0.3056 -0.2348  0.4073
  935SOL    HW1 2804   0.190   0.986   0.459 -0.9614  0.3860  0.3949
  935SOL    HW2 2805   0.139   0.980   0.621 -1.9939  1.1129  0.6016
  936SOL     OW 2806   0.242   0.299   0.743  0.2258 -0.0133  0.0451
  936SOL    HW1 2807   0.321   0.244   0.721 -1.2295 -1.3070  1.4510
  936SOL    HW2 2808   0.210   0.284   0.841 -3.0888 -2.3608  0.9110
  937SOL     OW 2809   2.781   0.004   1.644 -0.3413  0.0595 -0.2153
  937SOL    HW1 2810   2.842   0.090   1.631  0.8747  3.0049  1.4862
  937SOL    HW2 2811   2.813   3.033   1.719 -0.7477  0.3865 -1.5884
  938SOL     OW 2812   0.051   2.361   0.060 -0.5270  0.2272 -0.0116
  938SOL    HW1 2813   3.088   2.381   0.143  1.6170 -0.7352 -0.9839
  938SOL    HW2 2814   0.149   2.395   0.076  2.2072 -1.4980 -1.8873
  939SOL     OW 2815   0.709   1.792   0.811  0.1193 -0.5621  0.4312
  939SOL    HW1 2816   0.768   1.863   0.850  0.6343  3.0170 -0.5235
  939SOL    HW2 2817   0.627   1.774   0.872  0.6638 -0.8634  1.6504
  940SOL     OW 2818   3.063   0.425   3.013 -0.0442 -0.4937 -0.2323
  940SOL    HW1 2819   2.991   0.391   3.079 -0.8471  0.2214 -2.0587
  940SOL    HW2 2820   0.043   0.353   2.988  2.9700  1.3058  0.5186
  941SOL     OW 2821   1.644   0.538   2.568  0.1403 -0.0577  0.5440
  941SOL    HW1 2822   1.567   0.472   2.584  0.2559  0.7900  1.1768
  941SOL    HW2 2823   1.656   0.599   2.646 -1.8136 -0.3866  0.2889
  942SOL     OW 2824   1.238   0.633   1.324 -0.0512 -0.3288  0.4303
  942SOL    HW1 2825   1.295   0.687   1.259 -1.3600 -1.0443 -1.3298
  942SOL    HW2 2826   1.190   0.558   1.276  0.1467 -0.9240  0.2559
  943SOL     OW 2827   1.139   0.883   1.812 -0.1833 -0.3681  0.4101
  943SOL    HW1 2828   1.235   0.881   1.778 -0.3488  1.1046  0.8147
  943SOL    HW2 2829   1.134   0.853   1.906 -0.7563  0.6475 -1.6154
  944SOL     OW 2830   2.057   0.898   1.611 -0.1934 -0.9129 -0.0437
  944SOL    HW1 2831   1.995   0.858   1.680 -3.6087  1.4322 -0.4476
  944SOL    HW2 2832   2.045   0.995   1.604  1.2889 -0.1473  1.1571
  945SOL     OW 2833   2.531   2.936   0.287  0.0718 -0.3569 -0.2121
  945SOL    HW1 2834   2.485   2.982   0.364  0.2857  2.0389  0.0424
  945SOL    HW2 2835   2.500   2.985   0.199  0.3987  1.7098  0.7611
  946SOL     OW 2836   2.962   0.589   1.845  0.2155 -0.1761 -0.4649
  946SOL    HW1 2837   3.003   0.649   1.915 -0.1652  1.3608  2.5506
  946SOL    HW2 2838   2.924   0.641   1.771  1.8399 -0.6841  2.2653
  947SOL     OW 2839   1.178   3.006   0.249  0.3429  0.4400  0.4803
  947SOL    HW1 2840   1.271   3.018   0.281  1.1244  0.9179  0.2358
  947SOL    HW2 2841   1.164   2.906   0.222  1.9529 -5.9701 -0.1592
  948SOL     OW 2842   2.425   1.754   1.456 -0.6420 -0.1548 -0.4414
  948SOL    HW1 2843   2.500   1.809   1.500 -1.0826  0.0568  0.6106
  948SOL    HW2 2844   2.437   1.651   1.465 -1.0549 -3.3668  0.4175
  949SOL     OW 2845   0.394   1.424   0.027  0.3063  0.2777  0.5412
  949SOL    HW1 2846   0.311   1.374   0.058  3.5244 -1.9401 -0.3276
  949SOL    HW2 2847   0.443   1.358   3.051  0.8342 -2.5580 -1.8930
  950SOL     OW 2848   0.669   2.343   0.954 -0.0595 -0.0106 -0.1816
  950SOL    HW1 2849   0.656   2.430   0.905  1.7802 -1.7439  2.6239
  950SOL    HW2 2850   0.597   2.273   0.934 -2.7095  1.2556 -3.9888
  951SOL     OW 2851   0.669   1.038   2.505 -0.1472  0.3209 -0.1164
  951SOL    HW1 2852   0.690   1.040   2.603  1.7876 -0.2593  0.3642
  951SOL    HW2 2853   0.754   1.027   2.450  1.0468  0.9991  1.1436
  952SOL     OW 2854   0.503   0.920   0.633 -0.0073 -0.1378  0.1064
  952SOL    HW1 2855   0.567   0.961   0.569  0.4484 -0.5590  2.3860
  952SOL    HW2 2856   0.407   0.959   0.616 -1.5112  0.2443  2.4639
  953SOL     OW 2857   2.677   3.016   2.474  0.4802  0.5859  0.0820
  953SOL    HW1 2858   2.616   0.012   2.457 -0.5279  1.1548  2.8830
  953SOL    HW2 2859   2.636   2.944   2.536 -0.7066 -0.8122 -0.2659
  954SOL     OW 2860   1.409   1.373   0.468  0.4784  0.8012  0.3514
  954SOL    HW1 2861   1.435   1.471   0.475  0.8619 -3.4501  1.7558
  954SOL    HW2 2862   1.314   1.367   0.425 -3.3648  0.4091 -0.9116
  955SOL     OW 2863   0.781   2.158   0.218 -0.2693 -0.6309 -0.2361
  955SOL    HW1 2864   0.872   2.163   0.180 -1.1225 -0.2442 -0.4231
  955SOL    HW2 2865   0.716   2.230   0.178 -1.1717  0.1364 -3.2088
  956SOL     OW 2866   2.309   0.482   2.013 -0.1547  0.3594  0.2873
  956SOL    HW1 2867   2.265   0.455   2.099 -1.4632  1.2156 -1.2380
  956SOL    HW2 2868   2.311   0.582   2.011 -1.7634  0.3281  0.5308
  957SOL     OW 2869   1.933   2.375   2.397  0.5076 -0.0200 -0.0828
  957SOL    HW1 2870   1.879   2.461   2.407 -0.4735 -0.0029  0.8386
  957SOL    HW2 2871   2.019   2.384   2.448 -0.5221 -1.8255  0.2433
  958SOL     OW 2872   1.682   1.316   1.232  0.0548  0.0313  0.0410
  958SOL    HW1 2873   1.775   1.274   1.217  0.6976  0.3166 -1.7567
  958SOL    HW2 2874   1.632   1.279   1.308 -0.1408 -0.2306  0.8194
  959SOL     OW 2875   1.922   2.112   2.477 -0.6098 -0.3044  0.3046
  959SOL    HW1 2876   1.927   2.210   2.460  0.4341 -4.7415 -0.0025
  959SOL    HW2 2877   1.849   2.087   2.544  1.0036  1.0964 -1.4390
  960SOL     OW 2878   0.224   0.914   2.671  0.1438  0.4014 -0.7253
  960SOL    HW1 2879   0.226   0.955   2.581 -0.7513 -2.4812  1.5346
  960SOL    HW2 2880   0.232   0.813   2.662 -1.3466 -0.5036  2.6797
  961SOL     OW 2881   0.221   1.014   2.912 -0.1054 -0.3656 -0.4150
  961SOL    HW1 2882   0.227   0.981   2.812 -1.4016 -0.0462  1.5164
  961SOL    HW2 2883   0.172   1.107   2.921 -2.5528  2.1121  3.4006
  962SOL     OW 2884   0.403   1.161   2.563  0.5159  0.0366  0.6360
  962SOL    HW1 2885   0.341   1.103   2.507  0.5300  0.7589 -0.6152
  962SOL    HW2 2886   0.505   1.140   2.539  4.0594  2.0949  0.4840
  963SOL     OW 2887   2.741   2.268   0.202 -0.0827 -0.2577  0.2198
  963SOL    HW1 2888   2.747   2.372   0.198 -0.1579 -0.3125  3.2081
  963SOL    HW2 2889   2.673   2.234   0.139  3.4430  0.0192 -0.6091
  964SOL     OW 2890   0.937   2.219   1.748  0.1022 -0.1766  0.4357
  964SOL    HW1 2891   1.018   2.184   1.800 -0.1573 -0.9611  0.3745
  964SOL    HW2 2892   0.853   2.226   1.806 -1.4290  0.1426 -1.0401
  965SOL     OW 2893   1.862   1.777   0.321 -0.1224  0.1140  0.0469
  965SOL    HW1 2894   1.778   1.808   0.371 -0.2100 -0.1857  2.3670
  965SOL    HW2 2895   1.924   1.852   0.298 -1.4503 -0.4996  1.0120
  966SOL     OW 2896   2.987   1.421   0.499  0.8351 -0.6332  0.0966
  966SOL    HW1 2897   3.020   1.354   0.565  4.1126  1.0096 -1.6558
  966SOL    HW2 2898   3.059   1.450   0.431 -0.7982  1.1063  0.5429
  967SOL     OW 2899   1.881   2.780   1.718  0.5952  1.0283  0.1733
  967SOL    HW1 2900   1.800   2.739   1.674  1.1620 -1.0547  1.1606
  967SOL    HW2 2901   1.890   2.731   1.807  1.5006 -0.7781  1.9003
  968SOL     OW 2902   0.984   0.449   0.393  0.6402  0.0283 -0.2037
  968SOL    HW1 2903   1.010   0.376   0.456  0.3656  0.2609  0.4163
  968SOL    HW2 2904   1.038   0.532   0.406  0.1725 -0.1622  1.2795
  969SOL     OW 2905   0.155   1.357   2.270  0.5332 -0.0094 -0.1082
  969SOL    HW1 2906   0.257   1.341   2.281 -2.9709  0.3843  1.0077
  969SOL    HW2 2907   0.137   1.418   2.189  1.7181 -1.5624  1.2167
  970SOL     OW 2908   2.210   2.051   1.151 -0.1328  0.2353  0.2103
  970SOL    HW1 2909   2.113   2.047   1.188  1.4635 -0.7881 -1.1699
  970SOL    HW2 2910   2.214   2.130   1.089 -1.5704 -0.3591  0.5610
  971SOL     OW 2911   2.703   2.673   1.008 -0.1243  0.7569 -0.0787
  971SOL    HW1 2912   2.735   2.589   1.052  2.6545  3.2759 -0.6301
  971SOL    HW2 2913   2.758   2.685   0.923 -0.1978 -1.4974 -0.9059
  972SOL     OW 2914   3.060   1.156   2.570  0.0020 -0.0615  0.0652
  972SOL    HW1 2915   0.010   1.152   2.476  1.9514  3.0498 -1.1800
  972SOL    HW2 2916   2.991   1.232   2.573 -1.6541 -0.0942 -0.5255
  973SOL     OW 2917   0.590   0.514   0.662  0.3593 -0.3403  0.3171
  973SOL    HW1 2918   0.527   0.526   0.743  0.0528 -1.6213  0.8395
  973SOL    HW2 2919   0.655   0.435   0.678  0.3911  0.1349 -0.0740
  974SOL     OW 2920   2.280   0.803   1.715 -0.1106  0.2805  0.1988
  974SOL    HW1 2921   2.195   0.848   1.676 -0.3185 -0.8054 -0.4643
  974SOL    HW2 2922   2.332   0.744   1.643 -0.0220 -4.0127 -2.8559
  975SOL     OW 2923   2.900   2.957   0.154  0.0667  0.3026 -0.2504
  975SOL    HW1 2924   2.803   2.945   0.177 -1.2708 -1.0919  2.5885
  975SOL    HW2 2925   2.954   2.907   0.223 -2.0457  0.2037  1.0785
  976SOL     OW 2926   0.648   1.642   1.177  0.4520 -0.2755 -0.2342
  976SOL    HW1 2927   0.570   1.581   1.207  1.4566  0.4778 -3.1286
  976SOL    HW2 2928   0.613   1.710   1.106  0.3016  0.4894 -0.8324
  977SOL     OW 2929   1.002   1.954   0.659 -0.0501 -0.8411  0.3298
  977SOL    HW1 2930   1.027   1.994   0.568 -0.0764  1.1814 -1.1993
  977SOL    HW2 2931   0.954   1.863   0.656  0.6695 -2.7678  1.3732
  978SOL     OW 2932   0.450   0.945   3.062  0.0649  0.3336 -0.1771
  978SOL    HW1 2933   0.450   0.847   3.084 -2.1772  1.5104  1.5804
  978SOL    HW2 2934   0.374   0.971   2.999  1.5306  1.2418 -0.2890
  979SOL     OW 2935   2.128   1.539   0.230  0.1014 -0.3689  0.0956
  979SOL    HW1 2936   2.186   1.460   0.222 -0.5693  0.6332  1.7570
  979SOL    HW2 2937   2.097   1.542   0.328 -0.3774 -2.4071 -1.0048
  980SOL     OW 2938   0.465   2.038   2.141  0.5869 -0.0389  0.1808
  980SOL    HW1 2939   0.559   2.070   2.118 -1.9134  0.0609 -2.7896
  980SOL    HW2 2940   0.465   1.962   2.210  2.2655  0.8290 -1.4520
  981SOL     OW 2941   2.643   0.883   0.105  0.3985 -0.6645 -0.3806
  981SOL    HW1 2942   2.689   0.797   0.142  1.0308 -1.3518 -1.4998
  981SOL    HW2 2943   2.586   0.923   0.178  1.7818  1.1096  1.6486
  982SOL     OW 2944   0.091   2.692   1.957  0.2223  0.3679  0.4421
  982SOL    HW1 2945   0.014   2.688   2.023  0.7411 -1.3467 -0.5546
  982SOL    HW2 2946   0.074   2.636   1.875 -0.1808 -0.5679  2.0660
  983SOL     OW 2947   1.730   0.173   1.431  0.5342 -0.0799 -0.4177
  983SOL    HW1 2948   1.646   0.192   1.379  2.8790  1.0321  1.4115
  983SOL    HW2 2949   1.759   0.074   1.427 -0.5455  2.9738  2.6215
  984SOL     OW 2950   1.486   2.951   2.543 -0.3352 -0.3349 -0.1126
  984SOL    HW1 2951   1.508   3.010   2.626  0.2051 -0.5105  1.0998
  984SOL    HW2 2952   1.432   2.866   2.570  3.9900  1.8071  0.3741
  985SOL     OW 2953   1.493   1.822   1.405  0.3012 -0.4958  0.1306
  985SOL    HW1 2954   1.542   1.793   1.319  1.9976  2.4844 -0.9025
  985SOL    HW2 2955   1.477   1.742   1.466 -0.8402 -0.4825  2.7295
  986SOL     OW 2956   1.915   2.963   2.316  0.0836 -0.2196  0.1785
  986SOL    HW1 2957   1.970   2.989   2.235 -1.4278 -1.0029 -1.0919
  986SOL    HW2 2958   1.829   3.020   2.323 -0.6279  1.9347  2.6755
  987SOL     OW 2959   2.691   1.773   2.667 -0.9378 -0.6354  0.0823
  987SOL    HW1 2960   2.745   1.835   2.726 -0.8560 -2.7262 -1.5751
  987SOL    HW2 2961   2.672   1.813   2.578 -2.0968 -2.8514 -1.2633
  988SOL     OW 2962   2.884   0.711   1.602  0.1262  0.1204 -0.7603
  988SOL    HW1 2963   2.822   0.793   1.612 -1.5905  2.8516  1.5079
  988SOL    HW2 2964   2.949   0.721   1.524 -0.6420 -1.5931  1.3405
  989SOL     OW 2965   1.767   1.188   1.583  0.3420 -0.0434  0.5370
  989SOL    HW1 2966   1.729   1.283   1.569 -0.5514 -2.1481 -0.8599
  989SOL    HW2 2967   1.865   1.183   1.593 -4.7869  1.2153 -0.6489
  990SOL     OW 2968   2.820   0.984   3.026 -0.0056  0.4509  0.1188
  990SOL    HW1 2969   2.748   0.941   3.080  2.2369  1.1133 -1.3096
  990SOL    HW2 2970   2.859   0.915   2.962  1.0702  0.2712  0.3244
  991SOL     OW 2971   0.321   2.148   2.901  0.0070 -0.4059  0.7241
  991SOL    HW1 2972   0.270   2.176   2.985  0.1244  2.1468  1.9439
  991SOL    HW2 2973   0.360   2.054   2.912 -1.9403  1.0835 -0.6976
  992SOL     OW 2974   2.696   1.993   1.765 -0.1739 -0.1046  0.3790
  992SOL    HW1 2975   2.606   1.980   1.809  1.2132 -2.0395 -2.0153
  992SOL    HW2 2976   2.768   2.011   1.838 -0.2080  0.8497 -1.8758
  993SOL     OW 2977   0.757   2.949   0.723 -0.1593  0.5281 -0.0118
  993SOL    HW1 2978   0.769   2.954   0.623 -2.1123  1.4232  1.8469
  993SOL    HW2 2979   0.725   3.036   0.758  0.4776 -0.4386  0.2295
  994SOL     OW 2980   3.085   1.882   1.681 -0.1148 -0.7046  0.2257
  994SOL    HW1 2981   3.087   1.894   1.783  0.3332 -2.4111  2.5951
  994SOL    HW2 2982   0.088   1.888   1.634  2.2629 -0.4641  0.3763
  995SOL     OW 2983   2.100   1.937   2.575 -0.0907  0.5999  0.3046
  995SOL    HW1 2984   2.073   1.912   2.668 -0.1424 -2.2454 -0.0327
  995SOL    HW2 2985   2.020   1.987   2.529 -2.7880  0.1139 -1.1319
  996SOL     OW 2986   2.001   1.705   0.054 -0.0836  0.1095 -0.1148
  996SOL    HW1 2987   1.921   1.670   0.003 -0.0329 -0.9784 -2.3505
  996SOL    HW2 2988   2.040   1.630   0.108  1.7685  2.8484  0.2534
  997SOL     OW 2989   1.228   1.419   1.542  0.2266  0.4142  0.4376
  997SOL    HW1 2990   1.198   1.344   1.602  0.9594 -0.2365 -1.1750
  997SOL    HW2 2991   1.144   1.461   1.502  1.4587 -0.6932 -0.0583
  998SOL     OW 2992   2.843   2.057   0.779  0.7155 -0.2518  0.5244
  998SOL    HW1 2993   2.898   2.072   0.697 -1.7630  1.4292 -1.3440
  998SOL    HW2 2994   2.883   1.981   0.829 -0.7799  0.4338  0.6052
  999SOL     OW 2995   2.740   2.531   0.219  0.1391  0.1158 -0.2446
  999SOL    HW1 2996   2.702   2.524   0.126  0.9550 -2.8074 -0.0609
  999SOL    HW2 2997   2.686   2.587   0.287 -0.3921  0.0096  2.9192
 1000SOL     OW 2998   1.242   0.134   2.908  0.5793  0.3294 -0.2183
 1000SOL    HW1 2999   1.259   0.181   2.997 -2.3795 -2.4965  1.6033
 1000SOL    HW2 3000   1.146   0.145   2.878  2.1906  0.2708 -0.2964
   3.08852   3.08852   3.08852
