1000 SPC/Fw water molecules t= 191.00000 step= 191000
 3000
    1SOL     OW    1   2.710   3.077   1.055  0.1008 -0.4894 -0.2600
    1SOL    HW1    2   2.683   0.085   1.073  0.0674 -1.7223 -0.1882
    1SOL    HW2    3   2.737   3.058   0.958 -2.1610  0.1417  0.5495
    2SOL     OW    4   1.916   1.616   2.088  0.0706 -0.2410 -0.3174
    2SOL    HW1    5   1.953   1.561   2.166 -1.1614  1.0649  1.1404
    2SOL    HW2    6   1.816   1.608   2.069  2.3604  1.2584 -3.3061
    3SOL     OW    7   1.857   2.372   2.071  0.4969 -0.2349 -0.1000
    3SOL    HW1    8   1.886   2.449   2.128 -2.1976 -0.7195 -1.4368
    3SOL    HW2    9   1.918   2.294   2.072  0.7415  0.2420 -0.1819
    4SOL     OW   10   1.832   1.938   2.040  0.0294  0.5844 -0.3361
    4SOL    HW1   11   1.908   1.996   2.068 -1.2935 -0.6876  2.9009
    4SOL    HW2   12   1.778   1.982   1.961 -0.0664  1.3802 -0.6837
    5SOL     OW   13   1.170   0.607   1.822 -0.5081 -0.2149  0.4400
    5SOL    HW1   14   1.160   0.706   1.845 -1.6570  1.7549  1.9034
    5SOL    HW2   15   1.270   0.584   1.793  3.1833  0.6433 -4.2114
    6SOL     OW   16   2.714   0.680   2.898 -0.5179 -0.9177 -0.0056
    6SOL    HW1   17   2.754   0.614   2.965  1.2770 -1.1911 -1.2062
    6SOL    HW2   18   2.615   0.698   2.911 -4.0434  1.0038 -0.8970
    7SOL     OW   19   1.195   0.907   1.598 -0.2818  0.1972  0.1135
    7SOL    HW1   20   1.089   0.919   1.581 -1.7672 -1.3003 -1.6325
    7SOL    HW2   21   1.252   0.933   1.518  0.3256  1.5638  0.3993
    8SOL     OW   22   1.254   0.338   1.054 -0.0754  0.0790 -0.1957
    8SOL    HW1   23   1.311   0.291   0.984 -0.8398 -0.8554  3.0074
    8SOL    HW2   24   1.300   0.428   1.071 -0.4481  0.2779 -2.1288
    9SOL     OW   25   0.965   0.949   2.904  0.2771  0.6871  0.2129
    9SOL    HW1   26   0.954   1.047   2.887 -0.1126  0.2012 -0.9404
    9SOL    HW2   27   0.923   0.914   2.988  0.9247  0.7792 -4.6756
   10SOL     OW   28   0.359   2.758   0.478  0.4504 -0.2126 -0.1185
   10SOL    HW1   29   0.276   2.793   0.429 -1.2384 -1.1672 -0.3753
   10SOL    HW2   30   0.383   2.680   0.417 -2.2729  1.9521 -0.7071
   11SOL     OW   31   0.562   1.583   3.065  0.7696 -0.4683 -0.3023
   11SOL    HW1   32   0.577   1.485   3.086  1.4074 -0.1628  0.8707
   11SOL    HW2   33   0.469   1.613   3.037  1.2256 -1.0454 -0.9235
   12SOL     OW   34   0.633   0.217   1.429  0.0862 -0.3224  0.7569
   12SOL    HW1   35   0.577   0.140   1.454  0.8244 -0.5011 -2.9357
   12SOL    HW2   36   0.650   0.268   1.514 -1.8118 -2.9962 -1.9757
   13SOL     OW   37   0.907   2.860   0.565 -0.1856  0.7784  0.3270
   13SOL    HW1   38   1.010   2.870   0.578  1.9122  0.9026 -0.3478
   13SOL    HW2   39   0.874   2.786   0.624  3.4363  4.3729  0.8542
   14SOL     OW   40   1.352   2.119   1.089 -0.0683  0.0512  0.0309
   14SOL    HW1   41   1.302   2.209   1.079 -1.3488  1.8726  0.6997
   14SOL    HW2   42   1.325   2.055   1.018  4.7192  2.0134 -0.1437
   15SOL     OW   43   2.676   0.643   1.930 -0.0071 -0.1254 -0.5449
   15SOL    HW1   44   2.708   0.700   1.853  0.4347  0.2332  1.4964
   15SOL    HW2   45   2.755   0.588   1.959  0.0284  0.5924  1.4684
   16SOL     OW   46   1.130   2.814   2.845  0.0678 -0.2250 -0.3541
   16SOL    HW1   47   1.136   2.810   2.745  1.5977 -1.3794  1.3224
   16SOL    HW2   48   1.106   2.722   2.878 -0.7271  2.8218  0.1959
   17SOL     OW   49   1.059   3.063   1.320 -0.4076  0.6094  0.2156
   17SOL    HW1   50   1.023   0.066   1.339  1.1995  0.4313  1.3694
   17SOL    HW2   51   1.120   3.078   1.242 -0.3713  0.8597  0.1273
   18SOL     OW   52   1.091   0.672   0.420  0.7918 -0.3233 -0.0450
   18SOL    HW1   53   0.994   0.648   0.405  2.4997 -2.2498 -3.3584
   18SOL    HW2   54   1.151   0.615   0.366 -1.4350  2.0412  1.7954
   19SOL     OW   55   2.042   1.367   2.858 -0.5783 -0.3856  0.1033
   19SOL    HW1   56   2.080   1.448   2.909 -1.7281 -1.2050  1.9561
   19SOL    HW2   57   2.077   1.284   2.905 -0.5588 -1.4685 -1.4812
   20SOL     OW   58   1.921   1.504   1.631 -0.0146 -0.3863  0.0043
   20SOL    HW1   59   1.961   1.566   1.706  2.3729 -2.8915 -0.4383
   20SOL    HW2   60   1.846   1.438   1.660 -0.3891 -1.0121 -2.0449
   21SOL     OW   61   0.568   1.317   3.080 -0.3705 -0.2956 -0.5077
   21SOL    HW1   62   0.615   1.232   0.029 -0.0070 -0.0419  0.1372
   21SOL    HW2   63   0.552   1.316   2.983 -0.9013  0.5623  4.0034
   22SOL     OW   64   2.196   3.002   1.319 -0.0532 -0.1044  0.2908
   22SOL    HW1   65   2.138   3.078   1.350  1.5768  0.0573 -1.0252
   22SOL    HW2   66   2.165   2.913   1.347 -1.6218 -0.1286 -0.4792
   23SOL     OW   67   0.170   1.095   1.588  0.2644  0.3972  0.5709
   23SOL    HW1   68   0.208   1.019   1.643 -1.2014 -0.3673 -1.6053
   23SOL    HW2   69   0.213   1.089   1.495  2.4595 -1.2342 -1.6383
   24SOL     OW   70   2.420   2.336   1.347  0.1896 -0.5317  0.3666
   24SOL    HW1   71   2.445   2.352   1.250  1.2005 -1.0426 -1.4467
   24SOL    HW2   72   2.443   2.425   1.396 -1.7081  3.4446  0.8924
   25SOL     OW   73   1.658   2.847   2.580  0.1786 -0.5187  0.3638
   25SOL    HW1   74   1.673   2.822   2.483  0.4426 -1.9832 -0.3124
   25SOL    HW2   75   1.563   2.827   2.616 -1.0140  1.4985  1.2653
   26SOL     OW   76   1.001   2.577   2.904 -0.3306 -0.1276  0.1075
   26SOL    HW1   77   1.050   2.491   2.886 -3.2156  3.8918 -1.2165
   26SOL    HW2   78   0.961   2.582   2.997  0.1347 -0.8378  2.2048
   27SOL     OW   79   0.583   2.148   2.739 -0.0969 -0.2799 -0.3787
   27SOL    HW1   80   0.629   2.078   2.685 -1.3230  0.4884 -0.6893
   27SOL    HW2   81   0.528   2.207   2.676 -1.4222  0.7340  2.1255
   28SOL     OW   82   0.091   1.491   1.370  0.2691  0.1131  0.1893
   28SOL    HW1   83   3.076   1.484   1.369  0.1891 -3.0574  2.5260
   28SOL    HW2   84   0.118   1.586   1.369  2.6753 -1.0172  0.4872
   29SOL     OW   85   2.471   1.972   2.152 -0.1257 -0.4489 -0.0286
   29SOL    HW1   86   2.560   1.920   2.159  0.6817  1.1583  1.4359
   29SOL    HW2   87   2.489   2.069   2.184  0.1921 -1.8705  2.0912
   30SOL     OW   88   1.309   2.840   0.811 -0.0332  0.5980 -0.8239
   30SOL    HW1   89   1.332   2.749   0.857  1.4169 -0.4490  0.4807
   30SOL    HW2   90   1.231   2.878   0.859 -0.4874  0.4805  1.4452
   31SOL     OW   91   2.963   2.293   1.993 -0.3293  0.1921  0.3759
   31SOL    HW1   92   2.999   2.384   2.006 -0.0805 -1.3197  4.5088
   31SOL    HW2   93   3.029   2.229   1.943 -1.7366  0.3814 -1.0187
   32SOL     OW   94   1.157   0.874   1.886 -0.4809  0.4260  0.5267
   32SOL    HW1   95   1.168   0.887   1.788 -1.4231 -1.5362  1.2317
   32SOL    HW2   96   1.195   0.952   1.944  0.2360 -0.7610  1.2795
   33SOL     OW   97   0.204   2.676   2.384 -0.3863 -0.6786  0.1076
   33SOL    HW1   98   0.130   2.620   2.423  0.9826 -1.8517 -1.1946
   33SOL    HW2   99   0.200   2.691   2.286  2.7032  0.9318 -0.4463
   34SOL     OW  100   2.184   0.064   0.687 -0.2387  0.3175 -0.2076
   34SOL    HW1  101   2.183   0.064   0.583 -0.7795  1.4652 -1.5199
   34SOL    HW2  102   2.195   3.062   0.731 -1.6943  0.5723  0.3933
   35SOL     OW  103   2.302   0.600   1.299  0.1191 -0.4414  0.1649
   35SOL    HW1  104   2.262   0.620   1.207 -0.1011  0.0006 -1.7608
   35SOL    HW2  105   2.388   0.659   1.315 -2.4311 -0.1168  1.1706
   36SOL     OW  106   2.247   2.515   2.138 -0.2805 -0.3110  0.4327
   36SOL    HW1  107   2.249   2.447   2.064 -0.2324 -1.8480 -1.1610
   36SOL    HW2  108   2.156   2.550   2.168  2.6393  0.5012 -0.4286
   37SOL     OW  109   0.896   2.445   2.135  0.2796 -0.3486  0.4136
   37SOL    HW1  110   0.916   2.403   2.043  1.4301  1.3063 -0.2074
   37SOL    HW2  111   0.913   2.383   2.209 -0.1976 -1.3193 -2.4538
   38SOL     OW  112   2.461   0.342   2.902  0.7267 -0.2311 -0.3208
   38SOL    HW1  113   2.504   0.310   2.986 -0.1753  2.0505  0.4061
   38SOL    HW2  114   2.400   0.423   2.920 -0.7867  0.9637  0.2185
   39SOL     OW  115   2.033   1.647   1.843  0.2927  0.5337  0.5633
   39SOL    HW1  116   1.997   1.627   1.932 -1.7702 -0.5094 -2.2119
   39SOL    HW2  117   2.077   1.738   1.852  0.0731 -0.7673  0.4883
   40SOL     OW  118   0.108   0.046   2.568 -0.3809  0.5358 -0.5770
   40SOL    HW1  119   0.014   0.036   2.527  3.6643 -1.1579  0.5712
   40SOL    HW2  120   0.178   3.068   2.537 -0.1135  2.0834  1.6068
   41SOL     OW  121   1.756   0.682   1.153 -0.3248  0.3895 -0.4215
   41SOL    HW1  122   1.794   0.600   1.196 -0.0067  4.3551 -1.2929
   41SOL    HW2  123   1.802   0.705   1.068 -3.7365 -1.4076  0.9876
   42SOL     OW  124   0.917   0.209   1.333  0.0407 -0.1755 -0.5248
   42SOL    HW1  125   0.946   0.295   1.379  0.8358  1.4205  2.3931
   42SOL    HW2  126   0.823   0.182   1.356 -2.8200 -1.8183 -1.7033
   43SOL     OW  127   2.527   1.078   2.031  0.1741 -0.3393  0.2520
   43SOL    HW1  128   2.483   1.090   1.938  0.6317  0.3612  1.0173
   43SOL    HW2  129   2.627   1.077   2.025 -4.6422  2.8511 -0.4258
   44SOL     OW  130   3.012   2.693   0.343 -0.1791 -0.1308 -0.2142
   44SOL    HW1  131   2.975   2.773   0.398 -0.6074  2.5966 -1.1404
   44SOL    HW2  132   0.027   2.694   0.343  1.1742 -0.7387 -0.8107
   45SOL     OW  133   3.039   2.598   2.010  0.5059 -0.0570 -0.2851
   45SOL    HW1  134   3.063   2.621   1.915  0.2899  1.2127  0.4538
   45SOL    HW2  135   2.984   2.660   2.065  2.3437 -0.4948 -2.8790
   46SOL     OW  136   2.193   2.338   1.897 -0.3609  0.1416  0.1772
   46SOL    HW1  137   2.153   2.253   1.854 -1.4106  3.2062  0.0415
   46SOL    HW2  138   2.289   2.316   1.928 -0.2412  1.3149  1.0130
   47SOL     OW  139   1.709   2.155   1.335  0.0833  0.3000 -0.1366
   47SOL    HW1  140   1.670   2.150   1.243  1.2180  0.7093  1.9067
   47SOL    HW2  141   1.789   2.088   1.337  1.4987 -0.0872  2.4309
   48SOL     OW  142   0.596   1.749   0.473  0.3745  0.2907  0.3043
   48SOL    HW1  143   0.583   1.747   0.372  3.5784  0.6288  2.2579
   48SOL    HW2  144   0.629   1.843   0.501  1.4383  3.3586  1.2309
   49SOL     OW  145   2.860   0.326   2.635 -0.3376 -0.6185  0.3295
   49SOL    HW1  146   2.913   0.275   2.706 -2.6643  4.3849 -1.7160
   49SOL    HW2  147   2.771   0.359   2.673  1.6688 -0.9569 -0.1288
   50SOL     OW  148   2.140   0.892   0.594  0.3040 -0.2395  0.4602
   50SOL    HW1  149   2.175   0.820   0.659  2.9248 -1.5682 -0.3184
   50SOL    HW2  150   2.196   0.884   0.510  0.5513 -0.1030  0.2139
   51SOL     OW  151   1.575   0.388   0.989  0.0411 -0.0882  0.0651
   51SOL    HW1  152   1.609   0.326   1.065  0.6854 -0.0102  1.5290
   51SOL    HW2  153   1.531   0.466   1.035 -0.0679  0.9570 -1.1300
   52SOL     OW  154   1.181   1.206   0.132 -0.7443  0.3029  0.2974
   52SOL    HW1  155   1.206   1.110   0.105 -1.3014  1.6259 -1.0534
   52SOL    HW2  156   1.262   1.268   0.107  3.6600 -0.9294 -0.1532
   53SOL     OW  157   0.802   1.699   2.536  0.2839  0.1775  0.5614
   53SOL    HW1  158   0.809   1.802   2.530  1.5514 -0.9907 -0.7647
   53SOL    HW2  159   0.732   1.677   2.609 -0.2209 -1.7497 -0.4321
   54SOL     OW  160   2.152   0.367   1.056  0.0637 -0.0371 -0.8541
   54SOL    HW1  161   2.220   0.302   1.023 -3.2870 -0.1288  2.4251
   54SOL    HW2  162   2.083   0.315   1.112 -0.4721  0.3243 -1.1523
   55SOL     OW  163   2.407   2.884   0.908  0.1842 -0.2733 -0.6303
   55SOL    HW1  164   2.461   2.958   0.861  0.5318  1.9707 -3.1058
   55SOL    HW2  165   2.317   2.858   0.860 -2.0369 -1.6429 -1.6757
   56SOL     OW  166   0.547   3.082   1.549 -0.5154 -0.1203 -0.3968
   56SOL    HW1  167   0.490   0.039   1.621 -1.9248  1.0705  1.2794
   56SOL    HW2  168   0.634   3.048   1.593 -1.6135  1.1253  0.1917
   57SOL     OW  169   1.552   1.140   0.429  0.0546  0.0188  0.2032
   57SOL    HW1  170   1.470   1.084   0.441 -0.5058 -2.7489  1.8938
   57SOL    HW2  171   1.525   1.213   0.366 -1.2060 -2.1105 -0.2698
   58SOL     OW  172   0.115   0.936   2.295  0.1425  0.7544  0.0853
   58SOL    HW1  173   0.026   0.982   2.306 -0.2173 -1.6659 -1.2375
   58SOL    HW2  174   0.111   0.833   2.311 -2.6205 -1.6920 -0.5675
   59SOL     OW  175   0.855   2.736   2.486 -0.1328 -0.4005 -0.2655
   59SOL    HW1  176   0.821   2.652   2.531  2.6487 -0.6355 -0.0115
   59SOL    HW2  177   0.788   2.815   2.499 -1.1167 -3.2565  1.3105
   60SOL     OW  178   2.486   2.663   1.049  0.0583  0.3719 -0.0133
   60SOL    HW1  179   2.470   2.727   0.970  0.2740  1.2014  1.2250
   60SOL    HW2  180   2.514   2.716   1.131 -1.3285 -0.0929 -0.9555
   61SOL     OW  181   1.140   2.337   0.644  0.1697  0.4938  0.1282
   61SOL    HW1  182   1.069   2.385   0.585  1.8998 -1.5328 -2.1318
   61SOL    HW2  183   1.130   2.378   0.738  0.4534 -1.3404  0.1113
   62SOL     OW  184   2.091   2.288   2.691  0.0264 -0.3833  0.4570
   62SOL    HW1  185   2.175   2.333   2.723  0.8918 -1.5001  1.0120
   62SOL    HW2  186   2.037   2.339   2.623 -0.2931 -0.9129  1.6720
   63SOL     OW  187   2.147   0.770   2.853  0.2481  0.2943  0.0570
   63SOL    HW1  188   2.130   0.788   2.950  0.5118  0.7282 -2.4502
   63SOL    HW2  189   2.102   0.685   2.827  0.5972 -1.9914  2.1526
   64SOL     OW  190   0.934   0.644   3.038  0.0555 -0.4874  0.6435
   64SOL    HW1  191   0.887   0.732   3.065  0.4050  1.3223 -0.4999
   64SOL    HW2  192   1.027   0.655   3.001 -0.2791  2.2436 -0.4350
   65SOL     OW  193   1.136   2.173   0.385 -0.3894  0.2647  0.0271
   65SOL    HW1  194   1.183   2.210   0.301  0.4267  2.6628 -0.7226
   65SOL    HW2  195   1.183   2.217   0.466  2.2290  0.4498  3.1240
   66SOL     OW  196   0.597   1.374   1.876 -0.5023  0.7611  0.8045
   66SOL    HW1  197   0.639   1.313   1.942 -0.4591  0.8006  0.1796
   66SOL    HW2  198   0.645   1.463   1.877  2.7456 -0.0364  1.5730
   67SOL     OW  199   2.102   2.689   2.493 -0.1166  0.3404  0.2376
   67SOL    HW1  200   2.037   2.710   2.569  1.4961 -0.9042 -0.3611
   67SOL    HW2  201   2.123   2.774   2.437 -1.4072  1.2679  0.0009
   68SOL     OW  202   0.557   1.677   1.355 -0.5228  0.1787 -0.6237
   68SOL    HW1  203   0.571   1.592   1.309 -0.5782  0.7376  4.8946
   68SOL    HW2  204   0.608   1.668   1.443  0.9848  0.7276  1.6779
   69SOL     OW  205   1.251   2.458   0.188 -0.3757  0.0724 -0.1306
   69SOL    HW1  206   1.167   2.504   0.224 -0.7890 -1.3146 -0.9584
   69SOL    HW2  207   1.307   2.518   0.131  1.1768 -0.4640 -0.4993
   70SOL     OW  208   2.700   1.066   2.737 -0.7864  0.0034  0.1084
   70SOL    HW1  209   2.748   1.043   2.647 -0.2983 -1.2273  1.0526
   70SOL    HW2  210   2.612   1.107   2.718 -3.1061 -2.7130 -3.2498
   71SOL     OW  211   2.901   1.559   2.734  0.2235  0.6729  0.3407
   71SOL    HW1  212   2.981   1.588   2.683 -0.1295  0.4466  3.1246
   71SOL    HW2  213   2.817   1.614   2.709 -2.5237  2.4006 -2.8828
   72SOL     OW  214   2.727   2.378   0.110 -0.3797  0.4347 -0.7841
   72SOL    HW1  215   2.804   2.318   0.088 -2.8528  0.6609 -1.0529
   72SOL    HW2  216   2.758   2.426   0.199 -0.4431  0.8392  5.6949
   73SOL     OW  217   0.902   1.532   0.222  0.1462 -1.1222 -0.4728
   73SOL    HW1  218   0.915   1.506   0.318 -0.2504  2.0175  1.2841
   73SOL    HW2  219   0.981   1.581   0.177  1.7436 -1.2004  0.7121
   74SOL     OW  220   3.048   1.245   2.912  0.5547 -0.4089 -0.5107
   74SOL    HW1  221   0.001   1.319   2.856 -0.1270 -3.0300 -0.9391
   74SOL    HW2  222   3.073   1.147   2.883 -0.6019 -1.8737  0.2204
   75SOL     OW  223   1.942   1.379   1.913 -0.2860  0.5466  0.4100
   75SOL    HW1  224   1.972   1.429   1.830  1.7430  1.9384 -1.1484
   75SOL    HW2  225   1.859   1.420   1.960 -1.2042  0.9370 -2.6968
   76SOL     OW  226   2.094   2.380   1.540  0.0064 -0.1801  0.0409
   76SOL    HW1  227   2.071   2.314   1.615 -1.3838  0.1102 -1.2947
   76SOL    HW2  228   2.048   2.363   1.448  1.0415  1.0910 -0.7313
   77SOL     OW  229   2.697   0.543   1.264  0.7569 -0.1146  0.4587
   77SOL    HW1  230   2.781   0.587   1.305  0.2239 -1.5146  1.8592
   77SOL    HW2  231   2.732   0.508   1.176 -2.5333  2.2937 -0.7188
   78SOL     OW  232   1.488   0.829   0.250  0.6175  0.1200 -0.4375
   78SOL    HW1  233   1.452   0.864   0.336  0.0896 -0.0851 -0.3181
   78SOL    HW2  234   1.588   0.803   0.259 -0.0020 -0.3142  0.9187
   79SOL     OW  235   0.358   1.741   1.770  0.7165 -0.0817  0.2805
   79SOL    HW1  236   0.458   1.740   1.782 -2.4824  1.0967  1.6003
   79SOL    HW2  237   0.332   1.772   1.678  2.3718  0.0124 -0.6428
   80SOL     OW  238   1.701   1.106   1.469 -0.1566 -0.2878 -0.2508
   80SOL    HW1  239   1.663   1.043   1.542 -0.6065  0.0959  0.4230
   80SOL    HW2  240   1.638   1.106   1.386  0.2984  2.7186 -0.8069
   81SOL     OW  241   0.778   3.023   1.028  0.1897 -0.0030 -0.3249
   81SOL    HW1  242   0.704   3.024   0.960 -1.1433  0.3280  0.1397
   81SOL    HW2  243   0.802   0.029   1.053 -0.9051  1.3149  2.0227
   82SOL     OW  244   1.746   2.530   1.615 -0.2394  0.2452  0.4074
   82SOL    HW1  245   1.786   2.527   1.522 -0.2304 -2.0676 -0.7818
   82SOL    HW2  246   1.823   2.524   1.683  1.8734 -1.7793  0.2038
   83SOL     OW  247   0.743   2.471   1.176 -0.1550 -0.6380  0.1190
   83SOL    HW1  248   0.645   2.449   1.200 -1.1903  2.7016 -0.4767
   83SOL    HW2  249   0.806   2.387   1.186  4.2010  1.4401 -0.6828
   84SOL     OW  250   0.196   1.322   2.450  0.3934  0.2091  0.0259
   84SOL    HW1  251   0.099   1.288   2.424 -0.0263  0.1910 -0.6518
   84SOL    HW2  252   0.266   1.282   2.394 -0.7093  0.2619  1.1360
   85SOL     OW  253   0.040   2.384   1.355  0.4383 -0.7649  0.3485
   85SOL    HW1  254   0.006   2.384   1.453  0.8527  0.3392 -0.1707
   85SOL    HW2  255   0.060   2.478   1.316 -0.8760  0.2893 -0.0230
   86SOL     OW  256   2.709   2.326   1.518  0.0989  0.1685 -1.0225
   86SOL    HW1  257   2.717   2.419   1.483  0.0057 -0.3343  0.6274
   86SOL    HW2  258   2.678   2.260   1.448 -1.2282 -0.5693  3.9734
   87SOL     OW  259   2.640   2.031   3.068  0.1662  0.2821 -0.3630
   87SOL    HW1  260   2.590   2.118   3.073  2.8375 -0.7170  1.3723
   87SOL    HW2  261   2.641   1.979   0.071 -0.4614 -0.9172  0.1385
   88SOL     OW  262   0.593   1.893   1.212 -0.4198 -0.7804 -0.9066
   88SOL    HW1  263   0.629   1.975   1.264  0.8444  2.2847  2.7843
   88SOL    HW2  264   0.567   1.819   1.273 -2.2952  0.1209 -1.9771
   89SOL     OW  265   1.181   0.018   1.792  0.0594 -0.2305 -0.6256
   89SOL    HW1  266   1.236   3.039   1.738 -0.9012  0.2158  0.8568
   89SOL    HW2  267   1.196   0.112   1.760 -0.9740 -1.7491  0.4825
   90SOL     OW  268   0.007   1.809   1.597 -0.3095  0.1944 -0.0345
   90SOL    HW1  269   3.003   1.765   1.584  0.2060 -0.7831 -0.4756
   90SOL    HW2  270   3.086   1.912   1.608  1.8179  1.9608 -1.9391
   91SOL     OW  271   1.069   1.928   0.490 -0.2589 -0.2666 -0.0466
   91SOL    HW1  272   1.022   1.942   0.584 -0.2030 -0.5571  1.4777
   91SOL    HW2  273   1.101   2.024   0.459  0.8831  3.5448 -1.5831
   92SOL     OW  274   2.469   3.055   1.383  0.0230  0.4383 -0.0395
   92SOL    HW1  275   2.370   3.035   1.373  0.8466 -0.9145  1.4265
   92SOL    HW2  276   2.495   0.061   1.410 -0.7405  0.2291 -1.4801
   93SOL     OW  277   2.727   1.322   2.818 -0.1745 -0.2816 -0.0375
   93SOL    HW1  278   2.755   1.226   2.822 -1.7943  1.6510  2.0283
   93SOL    HW2  279   2.812   1.381   2.814 -0.0428  3.1852  1.8770
   94SOL     OW  280   2.672   2.543   2.505 -0.1037  0.0348 -0.3742
   94SOL    HW1  281   2.681   2.442   2.504 -2.1512 -1.4904 -3.4405
   94SOL    HW2  282   2.572   2.569   2.513  1.0742  1.6117 -1.0774
   95SOL     OW  283   1.766   0.302   1.628 -0.5855  0.0479 -0.0157
   95SOL    HW1  284   1.765   0.320   1.525 -0.0041 -0.0300 -1.3765
   95SOL    HW2  285   1.769   0.202   1.645  0.8716  2.4178  0.0757
   96SOL     OW  286   3.085   0.059   1.641  0.1389  0.1773 -0.2942
   96SOL    HW1  287   3.066   0.026   1.548 -1.6900 -0.0875 -0.4212
   96SOL    HW2  288   0.057   3.082   1.692  2.1510 -1.7689 -1.2207
   97SOL     OW  289   2.197   0.293   1.590 -0.3373  0.3672  0.0735
   97SOL    HW1  290   2.288   0.266   1.550 -3.0435  0.0626 -0.6099
   97SOL    HW2  291   2.207   0.327   1.685  1.1666  0.6121 -2.9338
   98SOL     OW  292   1.285   2.074   1.345 -0.3420 -0.2027  0.1560
   98SOL    HW1  293   1.363   2.112   1.398 -1.5546 -0.5783  1.0220
   98SOL    HW2  294   1.303   2.079   1.245 -1.3453  1.0888  2.2035
   99SOL     OW  295   0.029   2.880   1.835  0.2581  0.0056 -0.7454
   99SOL    HW1  296   0.125   2.906   1.816 -2.2969  0.2394  0.1162
   99SOL    HW2  297   0.033   2.863   1.939  1.0028  2.6917  4.4491
  100SOL     OW  298   3.051   1.455   2.197  0.3516  0.0804 -0.7836
  100SOL    HW1  299   0.062   1.480   2.185 -1.9847 -1.0606  0.4720
  100SOL    HW2  300   3.014   1.479   2.291  1.8749 -0.6081  1.9021
  101SOL     OW  301   1.984   0.719   0.463 -0.2745 -0.3500  0.0594
  101SOL    HW1  302   2.034   0.790   0.523  0.7163  0.7852 -0.7420
  101SOL    HW2  303   1.892   0.750   0.435 -3.7081  0.0725 -1.1424
  102SOL     OW  304   0.169   0.730   1.117  0.1632 -0.3837  0.3464
  102SOL    HW1  305   0.070   0.749   1.094 -1.7517 -0.0715 -2.0957
  102SOL    HW2  306   0.206   0.772   1.198 -0.8800 -0.9405 -1.5490
  103SOL     OW  307   2.634   0.706   2.619 -0.5135 -0.1197 -0.3349
  103SOL    HW1  308   2.620   0.753   2.711 -1.8667  0.4893 -0.7440
  103SOL    HW2  309   2.563   0.727   2.550 -0.6244  1.7115  0.8445
  104SOL     OW  310   0.315   0.387   2.393  0.4557 -0.3654  0.1664
  104SOL    HW1  311   0.398   0.319   2.377  1.9663 -2.4051  2.1075
  104SOL    HW2  312   0.277   0.359   2.485  0.0331 -2.2642  1.1119
  105SOL     OW  313   2.225   0.961   1.548  0.2051  0.1027  0.1173
  105SOL    HW1  314   2.176   0.877   1.570  2.3629  2.6351  0.0413
  105SOL    HW2  315   2.165   1.047   1.554 -2.0257 -0.1903 -1.2548
  106SOL     OW  316   1.164   2.940   0.600  0.0244  0.6290  0.5434
  106SOL    HW1  317   1.126   3.023   0.639  0.2963  0.4800 -2.1411
  106SOL    HW2  318   1.221   2.894   0.669  0.1215 -0.9699  0.7334
  107SOL     OW  319   0.343   1.785   1.474  0.3467  0.0637  0.2015
  107SOL    HW1  320   0.246   1.775   1.438 -1.7730 -0.8964 -3.1616
  107SOL    HW2  321   0.414   1.739   1.419  0.1081 -0.5522  0.1408
  108SOL     OW  322   0.338   0.032   2.301 -0.1520 -0.1578 -0.0826
  108SOL    HW1  323   0.337   3.033   2.353  0.6799  2.7928 -2.2585
  108SOL    HW2  324   0.411   0.097   2.334  0.5365 -1.4799  3.0244
  109SOL     OW  325   2.190   0.037   0.407  0.1211 -0.0641 -0.3924
  109SOL    HW1  326   2.172   3.047   0.346  1.5209  1.6023  1.9375
  109SOL    HW2  327   2.234   0.113   0.352  0.4044  0.8622  0.3047
  110SOL     OW  328   0.386   2.088   2.457 -0.1224 -0.1074  0.0579
  110SOL    HW1  329   0.390   2.095   2.355  1.0539  0.1064 -0.2294
  110SOL    HW2  330   0.399   2.181   2.497  4.2272 -2.7648  2.5767
  111SOL     OW  331   1.657   2.843   2.291  0.4820 -0.7769 -0.3280
  111SOL    HW1  332   1.592   2.868   2.218 -0.5986  0.2285  1.3187
  111SOL    HW2  333   1.741   2.902   2.283 -1.5036 -2.3799  2.7298
  112SOL     OW  334   1.823   2.264   2.776 -0.5296  0.4095  0.3418
  112SOL    HW1  335   1.778   2.191   2.723 -1.0083  2.9964  1.5644
  112SOL    HW2  336   1.920   2.277   2.741  0.1829 -0.9958  1.2359
  113SOL     OW  337   2.454   2.329   1.973 -0.3810 -0.4426  0.0692
  113SOL    HW1  338   2.496   2.286   2.051  0.5216  0.6015 -1.1972
  113SOL    HW2  339   2.527   2.353   1.909  1.2732 -0.5170  0.0753
  114SOL     OW  340   2.345   0.933   0.874  0.0674 -0.0394 -0.1934
  114SOL    HW1  341   2.329   0.841   0.833 -1.6022  0.1780  1.3430
  114SOL    HW2  342   2.383   1.006   0.811 -2.0701  2.4719  2.0270
  115SOL     OW  343   0.028   1.673   2.620 -0.6654 -0.5957  0.2181
  115SOL    HW1  344   0.117   1.625   2.630  0.7151 -3.1898 -0.2702
  115SOL    HW2  345   0.012   1.746   2.689  0.7605 -0.8750 -0.3484
  116SOL     OW  346   0.251   1.416   2.116  1.0569 -0.5550 -0.3713
  116SOL    HW1  347   0.238   1.505   2.063  0.3262 -1.0171 -1.8382
  116SOL    HW2  348   0.187   1.344   2.091  3.0012  1.8834  1.2725
  117SOL     OW  349   2.786   0.356   0.844  0.5592 -0.2499 -0.0252
  117SOL    HW1  350   2.842   0.273   0.850 -3.2158  1.1835  3.1918
  117SOL    HW2  351   2.712   0.342   0.774 -2.3493  1.3586 -0.0522
  118SOL     OW  352   1.021   1.962   1.682 -0.2169  0.3789  0.4133
  118SOL    HW1  353   0.923   1.975   1.711  1.5744 -2.0525 -0.6102
  118SOL    HW2  354   1.045   2.036   1.620 -1.7736 -0.8749 -0.8130
  119SOL     OW  355   1.375   2.120   0.142  0.4146 -0.3018 -0.2329
  119SOL    HW1  356   1.459   2.082   0.098  1.3218 -1.3461  1.3139
  119SOL    HW2  357   1.307   2.160   0.079  3.9106 -0.3202 -0.4876
  120SOL     OW  358   0.428   1.595   2.220  0.1771  0.0055 -0.0311
  120SOL    HW1  359   0.378   1.652   2.290 -2.3033  0.7745 -2.9293
  120SOL    HW2  360   0.374   1.517   2.183  2.6792 -0.6995 -2.3098
  121SOL     OW  361   2.067   2.593   1.114 -0.1943  0.8221 -0.4790
  121SOL    HW1  362   2.097   2.627   1.206  0.6166  0.7032  0.2580
  121SOL    HW2  363   1.970   2.610   1.098  0.5784  2.1380 -0.2065
  122SOL     OW  364   2.219   2.009   2.081  0.4974  0.1382  0.5354
  122SOL    HW1  365   2.172   1.929   2.123 -1.2751  1.2621  1.6440
  122SOL    HW2  366   2.316   2.010   2.109 -0.1815  1.6589 -2.3975
  123SOL     OW  367   2.962   0.140   0.800 -0.2324  0.1022  0.3451
  123SOL    HW1  368   2.988   0.155   0.703 -0.8722 -2.1529  0.0646
  123SOL    HW2  369   2.893   0.061   0.809 -2.4859 -0.3393  2.4168
  124SOL     OW  370   1.796   0.386   2.515 -0.6796 -0.6047 -0.4324
  124SOL    HW1  371   1.818   0.463   2.455 -0.3641 -1.7282 -0.0531
  124SOL    HW2  372   1.707   0.342   2.493 -2.1276  1.0843  1.8644
  125SOL     OW  373   0.412   1.554   0.417 -0.1654  0.4318 -0.3039
  125SOL    HW1  374   0.485   1.620   0.441  0.3733 -2.1842  0.5419
  125SOL    HW2  375   0.427   1.512   0.325 -0.7815 -1.4801  0.5308
  126SOL     OW  376   2.297   1.814   0.419  0.1588  0.6255 -0.1240
  126SOL    HW1  377   2.311   1.739   0.348 -0.1008 -0.6025 -1.3717
  126SOL    HW2  378   2.319   1.771   0.511  3.0068 -1.1390  4.6825
  127SOL     OW  379   0.106   1.743   1.352 -0.3484  0.4536  0.1850
  127SOL    HW1  380   0.043   1.759   1.433 -0.9045 -2.7664 -2.6385
  127SOL    HW2  381   0.072   1.813   1.284 -0.8068  1.9668  0.9030
  128SOL     OW  382   0.708   0.524   2.970  0.3470  0.2521  0.4556
  128SOL    HW1  383   0.789   0.546   3.026 -0.7454 -2.3083 -2.0675
  128SOL    HW2  384   0.638   0.601   2.960 -3.3942 -0.6021 -0.7179
  129SOL     OW  385   2.205   1.776   0.825 -0.6128 -0.5673  0.2389
  129SOL    HW1  386   2.170   1.778   0.917  1.7728 -0.7693 -1.8032
  129SOL    HW2  387   2.143   1.827   0.764  2.5552  0.7429  0.4238
  130SOL     OW  388   2.335   1.624   1.273  0.5952 -0.3211  0.4090
  130SOL    HW1  389   2.400   1.575   1.208 -1.4791  0.0025  0.0635
  130SOL    HW2  390   2.368   1.611   1.372  0.5009 -0.8666  1.1828
  131SOL     OW  391   2.719   0.990   3.002  0.1114 -0.1690  0.6923
  131SOL    HW1  392   2.746   0.898   3.008 -0.4271  4.5727 -1.1981
  131SOL    HW2  393   2.721   1.023   2.907 -0.2158 -0.9352 -1.6151
  132SOL     OW  394   2.565   2.158   1.682 -0.3443 -0.2775  0.3038
  132SOL    HW1  395   2.619   2.227   1.627  1.6387  0.2672 -1.1321
  132SOL    HW2  396   2.619   2.091   1.732  1.3526 -0.2261 -1.0988
  133SOL     OW  397   0.536   1.155   0.812  0.2195  0.0592  0.2273
  133SOL    HW1  398   0.609   1.220   0.834 -0.4400 -0.0316 -0.0238
  133SOL    HW2  399   0.513   1.094   0.889  2.3711  2.6774 -1.1705
  134SOL     OW  400   0.229   1.072   0.029  0.7808 -0.2057 -0.3524
  134SOL    HW1  401   0.149   1.009   0.019  0.8950  0.4727  1.5436
  134SOL    HW2  402   0.252   1.113   3.030 -0.3469 -1.4551  2.5953
  135SOL     OW  403   2.041   1.326   1.081 -0.3322  0.0671 -0.4588
  135SOL    HW1  404   2.044   1.318   1.178 -0.9265  2.4257 -1.0710
  135SOL    HW2  405   1.984   1.252   1.033  0.0120 -0.9197  1.8406
  136SOL     OW  406   1.916   1.117   0.962 -0.7781  0.0299  0.1182
  136SOL    HW1  407   1.989   1.048   0.990  0.5232 -0.9819  0.2057
  136SOL    HW2  408   1.913   1.102   0.861  1.2377 -1.7437 -1.1019
  137SOL     OW  409   2.548   1.751   0.623 -0.3172 -0.1682 -0.0673
  137SOL    HW1  410   2.516   1.847   0.619 -1.9596  0.9418 -0.9200
  137SOL    HW2  411   2.650   1.743   0.649  1.1400 -2.8852  1.6022
  138SOL     OW  412   1.820   0.708   2.079  0.2841 -0.1538  0.1167
  138SOL    HW1  413   1.764   0.622   2.070  1.0752  2.4990  0.0168
  138SOL    HW2  414   1.905   0.690   2.034 -2.3172 -0.0827  2.8356
  139SOL     OW  415   2.240   3.077   0.034 -0.1782  0.0240  0.2297
  139SOL    HW1  416   2.279   3.044   3.031 -0.2812  1.2848 -0.8739
  139SOL    HW2  417   2.165   0.058   0.021 -2.2961 -0.4104  1.2403
  140SOL     OW  418   1.497   2.132   2.336  0.5996 -0.3314 -0.1579
  140SOL    HW1  419   1.578   2.179   2.377  1.7633 -0.3710 -0.6594
  140SOL    HW2  420   1.431   2.086   2.403  0.1763 -1.2568  1.2462
  141SOL     OW  421   1.874   1.540   1.360  0.2576 -0.1022 -0.3271
  141SOL    HW1  422   1.911   1.517   1.450  0.3349  0.4119  0.4312
  141SOL    HW2  423   1.790   1.595   1.376  0.0484  1.1200  1.2743
  142SOL     OW  424   2.779   0.293   3.054  0.1474 -0.9041 -0.1685
  142SOL    HW1  425   2.824   0.242   0.041 -0.6381 -1.6093 -0.8142
  142SOL    HW2  426   2.677   0.286   3.061 -1.1261  2.5309  1.9766
  143SOL     OW  427   0.231   2.381   2.693 -0.3543  0.4299  0.1342
  143SOL    HW1  428   0.221   2.361   2.793 -1.0779 -0.1278  1.3152
  143SOL    HW2  429   0.152   2.337   2.645  0.9075 -0.0260  0.3803
  144SOL     OW  430   0.640   2.723   1.750  0.2086  0.0415 -0.2792
  144SOL    HW1  431   0.592   2.639   1.713 -0.1830 -3.9108 -0.9408
  144SOL    HW2  432   0.702   2.762   1.678  0.9032 -0.6375 -2.9071
  145SOL     OW  433   2.028   1.180   0.377  0.0515  0.2253  0.5658
  145SOL    HW1  434   2.061   1.204   0.473  0.0970 -0.1137  1.8825
  145SOL    HW2  435   2.072   1.251   0.316  1.2531 -0.6733  1.4188
  146SOL     OW  436   2.634   2.938   2.808  0.0641  0.3596 -0.1053
  146SOL    HW1  437   2.564   3.015   2.806 -0.2557  2.3495 -0.8045
  146SOL    HW2  438   2.718   2.980   2.853 -1.0529 -0.9519 -0.0934
  147SOL     OW  439   2.893   2.743   1.126  0.1010 -0.1387 -0.7601
  147SOL    HW1  440   2.922   2.774   1.217  1.7538  0.8720 -1.3787
  147SOL    HW2  441   2.799   2.707   1.126 -0.2105 -1.3012 -0.0170
  148SOL     OW  442   1.841   3.047   0.166 -0.6487 -0.8092 -0.2789
  148SOL    HW1  443   1.871   3.001   0.252  0.2221 -2.3852 -0.7766
  148SOL    HW2  444   1.800   2.986   0.097  3.3501 -0.0299  1.8358
  149SOL     OW  445   1.043   0.366   2.699  0.1763 -0.4295  0.1864
  149SOL    HW1  446   1.041   0.355   2.800 -1.6956 -1.6892  0.8302
  149SOL    HW2  447   0.964   0.426   2.672 -2.3809  1.4785  0.3295
  150SOL     OW  448   0.871   2.532   0.481 -0.1648 -0.1089 -1.0850
  150SOL    HW1  449   0.780   2.523   0.432 -2.6390 -1.9965 -1.3358
  150SOL    HW2  450   0.852   2.571   0.578 -1.9834  1.3967  0.6731
  151SOL     OW  451   3.069   1.868   3.023  0.1381 -0.6169  0.7597
  151SOL    HW1  452   0.019   1.777   3.032  0.1804 -0.0888 -0.1685
  151SOL    HW2  453   3.029   1.888   2.933  0.3461 -0.2132 -1.1594
  152SOL     OW  454   0.182   1.325   0.760  0.4526 -0.2968  0.3075
  152SOL    HW1  455   0.260   1.386   0.728  1.1868 -1.1293 -0.3875
  152SOL    HW2  456   0.102   1.383   0.782 -1.5578  0.5819  1.4992
  153SOL     OW  457   2.394   2.583   0.206 -0.2987  0.2104  0.2848
  153SOL    HW1  458   2.424   2.546   0.296  2.4745  0.3066 -0.0765
  153SOL    HW2  459   2.298   2.614   0.204  2.9218  0.5018 -1.3468
  154SOL     OW  460   0.897   0.751   1.316 -0.4920  0.3255  0.1636
  154SOL    HW1  461   0.824   0.683   1.298  0.9635 -2.4448  0.9931
  154SOL    HW2  462   0.943   0.709   1.395  0.8429 -0.5945  0.2356
  155SOL     OW  463   0.055   1.991   1.207 -0.0285 -0.9931 -0.1322
  155SOL    HW1  464   0.036   1.979   1.107  1.0111  1.7940  0.2564
  155SOL    HW2  465   3.069   2.050   1.252 -1.4148  0.1520 -0.2001
  156SOL     OW  466   2.043   2.052   2.885  0.2505  0.1950  0.4402
  156SOL    HW1  467   2.140   2.066   2.868 -0.4784  0.1633 -1.3605
  156SOL    HW2  468   1.992   2.141   2.869  0.5338 -1.3306 -2.2310
  157SOL     OW  469   0.866   2.628   0.986  0.0291  0.0098 -0.2313
  157SOL    HW1  470   0.813   2.573   1.052 -2.0969 -1.5555 -0.6298
  157SOL    HW2  471   0.888   2.720   1.029  0.7770 -2.6401  0.2286
  158SOL     OW  472   2.610   0.449   2.702 -0.4723 -0.1437 -0.3737
  158SOL    HW1  473   2.556   0.432   2.787  0.0282  0.7192 -1.2765
  158SOL    HW2  474   2.635   0.549   2.686  0.1173  1.6527 -3.0929
  159SOL     OW  475   0.764   0.202   2.855  0.2821  0.9146  0.3011
  159SOL    HW1  476   0.824   0.122   2.868  0.6812  0.5560  1.8450
  159SOL    HW2  477   0.740   0.240   2.945 -0.4243  0.3586 -2.4479
  160SOL     OW  478   0.837   1.993   2.936  0.0687  0.2905  0.4919
  160SOL    HW1  479   0.938   1.998   2.936 -2.9309 -0.1504 -0.0146
  160SOL    HW2  480   0.803   2.088   2.915 -2.5643 -0.4805 -1.6885
  161SOL     OW  481   2.919   2.342   2.926  0.2025  0.2263 -0.0961
  161SOL    HW1  482   2.917   2.301   3.022 -0.3953  1.6090  0.9657
  161SOL    HW2  483   2.935   2.440   2.936  1.1833 -0.4885  0.3712
  162SOL     OW  484   0.453   2.703   1.020  0.0753 -0.4928  0.1611
  162SOL    HW1  485   0.469   2.614   0.975 -0.9049  0.5161 -1.1873
  162SOL    HW2  486   0.352   2.723   1.030  0.1759 -0.1789  0.6748
  163SOL     OW  487   2.464   0.782   2.928 -0.9399  0.0666 -0.3980
  163SOL    HW1  488   2.404   0.858   2.894 -0.5128  2.2421 -1.4452
  163SOL    HW2  489   2.407   0.700   2.957  1.3643 -2.9919 -0.7143
  164SOL     OW  490   3.041   2.553   0.616 -0.4301 -0.0727  0.1907
  164SOL    HW1  491   3.016   2.453   0.612  0.2145 -0.5460  1.2256
  164SOL    HW2  492   2.960   2.609   0.646 -0.2418  0.7147 -1.8697
  165SOL     OW  493   2.769   0.278   1.341  0.2099 -0.1486  0.2568
  165SOL    HW1  494   2.770   0.296   1.443  2.0729 -1.1763  0.6579
  165SOL    HW2  495   2.741   0.358   1.289 -1.5895 -1.6738  0.9468
  166SOL     OW  496   2.093   0.307   0.792 -0.5647 -0.3088 -0.4023
  166SOL    HW1  497   2.098   0.215   0.754 -0.0915  3.1106 -0.3908
  166SOL    HW2  498   2.117   0.322   0.892  1.4363  2.5669  1.3940
  167SOL     OW  499   0.553   0.365   1.207  0.3929  0.1523 -0.1964
  167SOL    HW1  500   0.580   0.318   1.295  0.2826 -1.2271 -0.7610
  167SOL    HW2  501   0.537   0.294   1.136  1.0065  1.7493  0.7774
  168SOL     OW  502   2.707   2.969   2.260 -0.4494 -0.3382  0.2953
  168SOL    HW1  503   2.677   2.890   2.203  1.2868  0.6582 -1.2322
  168SOL    HW2  504   2.667   2.968   2.352 -1.4773 -0.1911  0.6461
  169SOL     OW  505   0.025   1.614   0.691 -0.5724  0.0286  0.4818
  169SOL    HW1  506   0.086   1.657   0.620 -0.4930  0.0933  0.3214
  169SOL    HW2  507   0.055   1.627   0.786  1.0251  0.6585  0.8523
  170SOL     OW  508   2.840   0.926   1.265 -0.3894  0.3774 -0.3570
  170SOL    HW1  509   2.895   0.842   1.281  0.7683 -2.5308  0.1754
  170SOL    HW2  510   2.768   0.944   1.336  3.5033  1.0073  1.3724
  171SOL     OW  511   1.078   2.189   1.523  0.5796  0.3461  0.4845
  171SOL    HW1  512   1.169   2.180   1.478 -0.1691  0.1765 -0.2733
  171SOL    HW2  513   1.050   2.287   1.534 -1.7042 -0.4034 -1.3454
  172SOL     OW  514   0.377   2.547   1.386 -0.1882  0.1110 -0.2886
  172SOL    HW1  515   0.417   2.491   1.315  1.1762 -0.8824  1.2576
  172SOL    HW2  516   0.282   2.574   1.367 -1.4617 -0.5060 -0.3737
  173SOL     OW  517   1.311   2.980   0.153 -0.5618  0.2771 -0.0717
  173SOL    HW1  518   1.390   2.921   0.138 -0.7849  0.7174 -1.2495
  173SOL    HW2  519   1.343   3.071   0.180  1.0319 -1.2289 -1.2734
  174SOL     OW  520   0.756   2.519   2.627 -0.8800  0.0060 -0.0068
  174SOL    HW1  521   0.780   2.501   2.725  0.5102  0.9998  0.4909
  174SOL    HW2  522   0.749   2.431   2.581  1.7251  1.3983 -0.6494
  175SOL     OW  523   1.686   0.429   0.212 -0.2168  0.6452  0.2961
  175SOL    HW1  524   1.758   0.381   0.273  4.5847 -2.4065  0.6549
  175SOL    HW2  525   1.618   0.488   0.262  1.9400 -0.7025  2.5718
  176SOL     OW  526   1.332   0.170   0.205 -0.0559 -0.2125 -0.3090
  176SOL    HW1  527   1.423   0.189   0.164  1.0069  0.5318 -1.4507
  176SOL    HW2  528   1.330   0.141   0.303 -3.0128  0.5389  3.9795
  177SOL     OW  529   1.494   1.023   0.864  0.1224 -0.2750 -0.0996
  177SOL    HW1  530   1.529   1.102   0.812  2.0271  0.8137 -1.8892
  177SOL    HW2  531   1.403   1.033   0.904 -2.8201 -0.1955  1.9707
  178SOL     OW  532   2.231   1.594   2.182  0.0269  0.4945  0.1035
  178SOL    HW1  533   2.298   1.547   2.121 -1.5826 -0.1372  1.2643
  178SOL    HW2  534   2.161   1.528   2.214 -2.9490  0.8071  0.6557
  179SOL     OW  535   0.552   2.723   2.636  0.0079  0.5339  0.4990
  179SOL    HW1  536   0.633   2.674   2.679  0.1625 -1.2626  1.3105
  179SOL    HW2  537   0.513   2.673   2.556  1.3767  0.1646  0.2338
  180SOL     OW  538   1.599   1.898   1.538  0.0095 -0.1033  0.4004
  180SOL    HW1  539   1.648   1.872   1.623  1.7313 -0.8937 -0.2940
  180SOL    HW2  540   1.587   1.998   1.532  0.4541  0.0271 -1.0763
  181SOL     OW  541   1.322   1.271   2.507 -0.4550  0.4211  0.7195
  181SOL    HW1  542   1.269   1.236   2.584  0.9212 -1.4282  0.2488
  181SOL    HW2  543   1.294   1.234   2.422  2.8552  2.3524  1.7198
  182SOL     OW  544   3.049   0.533   2.576  0.4188  0.2394  0.1735
  182SOL    HW1  545   2.971   0.463   2.567  0.8379 -2.1425  2.4272
  182SOL    HW2  546   0.027   0.501   2.648 -3.6179  3.2756 -0.0241
  183SOL     OW  547   1.037   0.070   2.602  0.3335  0.2844  0.1524
  183SOL    HW1  548   1.033   0.166   2.640 -1.1253  1.2970  0.2924
  183SOL    HW2  549   0.948   0.023   2.606  1.4866 -1.6743 -2.6326
  184SOL     OW  550   1.466   0.807   1.539  0.0029 -0.1040 -0.3803
  184SOL    HW1  551   1.537   0.849   1.593  1.0374 -0.2884 -2.0954
  184SOL    HW2  552   1.406   0.875   1.490 -1.8392 -1.0443 -0.6498
  185SOL     OW  553   0.243   1.270   1.217  0.4148  0.0969  0.1584
  185SOL    HW1  554   0.148   1.292   1.246 -2.0128  0.3309  1.4887
  185SOL    HW2  555   0.303   1.328   1.267  1.3906  0.6722  0.0186
  186SOL     OW  556   0.210   1.985   2.633 -0.1805 -0.4115  0.3631
  186SOL    HW1  557   0.240   1.896   2.672  0.5060  2.9260 -0.8730
  186SOL    HW2  558   0.278   2.019   2.562  1.1298 -0.9576  1.5505
  187SOL     OW  559   2.613   1.262   0.367  0.5198  0.0327  0.2121
  187SOL    HW1  560   2.644   1.248   0.273  1.3578  3.6582  0.4847
  187SOL    HW2  561   2.615   1.365   0.388  1.3662  0.7926  0.5659
  188SOL     OW  562   0.183   2.476   0.480 -0.1908 -0.5308  0.2716
  188SOL    HW1  563   0.168   2.377   0.466 -2.8194 -0.9814  0.4144
  188SOL    HW2  564   0.094   2.517   0.508 -1.1994  1.3700  2.0214
  189SOL     OW  565   2.425   0.932   0.087 -0.4694  0.2605  0.1531
  189SOL    HW1  566   2.457   0.865   0.015  0.5031 -1.2085 -0.8504
  189SOL    HW2  567   2.500   0.967   0.151  1.1919 -0.4152 -0.9414
  190SOL     OW  568   1.212   1.441   2.272 -0.0491  0.6791  0.3345
  190SOL    HW1  569   1.303   1.409   2.310 -1.7116 -3.5008 -0.3128
  190SOL    HW2  570   1.184   1.522   2.327  0.1694 -0.6756  0.7777
  191SOL     OW  571   2.698   0.328   1.617  0.1275 -0.4964 -0.3783
  191SOL    HW1  572   2.718   0.240   1.667 -1.8826  1.2450 -0.0274
  191SOL    HW2  573   2.686   0.409   1.677  1.0158  1.0544  1.3351
  192SOL     OW  574   2.243   0.351   1.868 -0.6441 -0.6779 -0.7806
  192SOL    HW1  575   2.266   0.279   1.938  1.6596  0.5748 -0.8445
  192SOL    HW2  576   2.331   0.398   1.845 -0.4482  1.3319  3.5316
  193SOL     OW  577   0.842   0.542   0.404 -0.6348 -0.4050  0.3630
  193SOL    HW1  578   0.805   0.566   0.496  0.7471  2.0246 -0.6199
  193SOL    HW2  579   0.770   0.537   0.330 -2.0981 -1.6648  1.2075
  194SOL     OW  580   1.193   2.728   1.186 -0.1869 -0.0431  0.1225
  194SOL    HW1  581   1.268   2.765   1.129 -0.2300  2.4952  0.4746
  194SOL    HW2  582   1.103   2.739   1.145 -0.2330  0.6718 -0.2785
  195SOL     OW  583   2.290   0.695   0.776  0.0462 -0.1470 -0.2472
  195SOL    HW1  584   2.372   0.655   0.729 -1.1631  0.6019 -2.7291
  195SOL    HW2  585   2.275   0.656   0.871 -1.3105 -2.0145  1.0076
  196SOL     OW  586   1.500   1.620   1.827 -0.1035  0.4694  0.4096
  196SOL    HW1  587   1.423   1.560   1.805  0.8585 -0.2100 -0.7571
  196SOL    HW2  588   1.458   1.706   1.871  1.4849 -1.3607  0.8176
  197SOL     OW  589   0.161   2.867   0.344 -0.6310  0.3000  0.2502
  197SOL    HW1  590   0.165   2.954   0.400  4.3647  1.3838 -1.1930
  197SOL    HW2  591   0.164   2.881   0.243  2.3610  1.7297 -0.3040
  198SOL     OW  592   1.025   1.238   0.669 -0.2424  0.6261 -0.2879
  198SOL    HW1  593   1.110   1.286   0.709  0.0984  0.0190  1.7680
  198SOL    HW2  594   1.018   1.142   0.693  0.0395  0.9864 -1.2518
  199SOL     OW  595   2.983   0.902   1.827 -0.1222 -0.3513 -0.3234
  199SOL    HW1  596   2.952   0.923   1.923  1.8033  1.1950 -0.5159
  199SOL    HW2  597   2.975   0.984   1.765 -0.5400 -2.7580  0.9873
  200SOL     OW  598   2.356   2.015   2.453  0.7693 -0.0485  0.1549
  200SOL    HW1  599   2.265   1.971   2.450  1.3762  0.3105 -0.4591
  200SOL    HW2  600   2.343   2.111   2.487  2.0996  2.1335 -0.1373
  201SOL     OW  601   2.591   0.246   1.017 -0.0833 -0.0425  0.1503
  201SOL    HW1  602   2.652   0.298   0.949  0.8005  3.3132  1.0288
  201SOL    HW2  603   2.503   0.224   0.967  1.2389 -0.2577 -1.8029
  202SOL     OW  604   2.616   0.644   0.247 -0.0165  0.1422 -0.6019
  202SOL    HW1  605   2.707   0.601   0.267  2.2718 -0.8257 -0.0880
  202SOL    HW2  606   2.617   0.748   0.250 -3.6852 -2.1052 -0.4445
  203SOL     OW  607   1.661   1.838   2.210  0.1061 -0.5134 -0.8484
  203SOL    HW1  608   1.739   1.869   2.151  3.3642  2.0485  1.1150
  203SOL    HW2  609   1.582   1.906   2.203 -0.2863 -0.8247 -0.2711
  204SOL     OW  610   0.827   1.779   2.116 -0.0515 -0.1097 -0.0769
  204SOL    HW1  611   0.873   1.835   2.047  0.9826 -0.4698 -0.3543
  204SOL    HW2  612   0.897   1.734   2.174  0.6079 -0.2236  0.6475
  205SOL     OW  613   1.202   1.804   1.338 -0.2242  0.4621  0.6508
  205SOL    HW1  614   1.211   1.903   1.357  0.0366 -2.4007  2.1762
  205SOL    HW2  615   1.250   1.754   1.415  0.1213  0.3059 -2.3846
  206SOL     OW  616   0.034   0.620   3.020  0.3333 -0.2484 -0.1966
  206SOL    HW1  617   3.028   0.581   3.041 -4.2176 -3.2505  0.0876
  206SOL    HW2  618   0.063   0.608   2.923 -0.5885  0.4779  0.1264
  207SOL     OW  619   1.751   2.590   2.329 -0.4947  0.6342  0.3317
  207SOL    HW1  620   1.677   2.527   2.355  0.4252 -0.6557  0.6568
  207SOL    HW2  621   1.714   2.682   2.311 -0.1479 -1.8569 -1.1157
  208SOL     OW  622   0.214   2.205   1.638 -0.6090  0.3633  0.3917
  208SOL    HW1  623   0.272   2.180   1.557  1.1106 -1.1574 -1.2146
  208SOL    HW2  624   0.218   2.307   1.655  0.6769 -0.1102  0.2031
  209SOL     OW  625   1.437   0.671   2.797  0.2695 -0.1473  0.2725
  209SOL    HW1  626   1.399   0.581   2.817  1.4304 -0.8834 -0.9829
  209SOL    HW2  627   1.470   0.664   2.701 -0.3652 -2.0629 -3.5944
  210SOL     OW  628   2.117   0.930   1.023 -0.1702 -0.2740 -0.2081
  210SOL    HW1  629   2.148   0.950   1.120 -0.9391  1.5472  3.0213
  210SOL    HW2  630   2.196   0.932   0.961 -1.9412  1.8437  1.0858
  211SOL     OW  631   0.705   0.579   0.641 -0.2525  0.0307  0.2889
  211SOL    HW1  632   0.700   0.665   0.692  0.4672 -0.8373 -0.1629
  211SOL    HW2  633   0.605   0.555   0.625  1.0770  0.4702  1.5601
  212SOL     OW  634   1.360   1.409   0.030 -0.4954  1.2122 -0.0207
  212SOL    HW1  635   1.402   1.352   3.042  0.3721 -2.4772  0.7780
  212SOL    HW2  636   1.337   1.502   3.084  0.9479 -2.5031  2.0055
  213SOL     OW  637   1.555   0.287   2.476  0.0161 -0.0334  0.2486
  213SOL    HW1  638   1.458   0.284   2.506 -0.1904 -1.3065  1.3211
  213SOL    HW2  639   1.589   0.194   2.473 -1.3339  1.3116  1.3948
  214SOL     OW  640   1.544   1.362   2.330  0.2659  0.4211 -0.1695
  214SOL    HW1  641   1.556   1.464   2.342  0.3787  0.0991  1.0661
  214SOL    HW2  642   1.491   1.322   2.412 -1.2930  0.3839  2.3925
  215SOL     OW  643   0.449   1.839   0.725 -0.1841  0.0184 -0.0202
  215SOL    HW1  644   0.505   1.833   0.809  0.2599 -1.4063  1.4327
  215SOL    HW2  645   0.492   1.793   0.644 -0.0679 -0.6629  2.3263
  216SOL     OW  646   0.715   2.857   2.220 -0.5646  0.0204 -0.4159
  216SOL    HW1  647   0.756   2.873   2.131 -2.9290  2.3130 -1.5466
  216SOL    HW2  648   0.763   2.908   2.296 -0.2448  1.0189  2.1781
  217SOL     OW  649   2.285   0.866   0.386  0.5256 -0.1389  0.2587
  217SOL    HW1  650   2.349   0.946   0.383  1.9765 -1.6920  0.1055
  217SOL    HW2  651   2.294   0.811   0.303  0.0448  0.0463 -1.0914
  218SOL     OW  652   2.070   1.789   2.208 -0.0811 -0.3958 -0.2409
  218SOL    HW1  653   1.990   1.769   2.149  2.8925  1.8497  2.7680
  218SOL    HW2  654   2.146   1.714   2.200 -0.4440 -0.9529  0.9023
  219SOL     OW  655   1.835   1.465   3.039 -0.5349  0.1671 -0.4114
  219SOL    HW1  656   1.769   1.505   2.973 -3.0739  0.7899 -0.3810
  219SOL    HW2  657   1.908   1.417   2.987  0.0064  2.3317 -0.4652
  220SOL     OW  658   1.485   1.605   1.154 -0.0763 -0.6746 -0.2503
  220SOL    HW1  659   1.557   1.629   1.220  1.4062  0.9495 -0.4429
  220SOL    HW2  660   1.503   1.643   1.062 -0.6144 -1.6320  4.9703
  221SOL     OW  661   0.352   0.722   2.744 -0.4423 -0.1667  0.5189
  221SOL    HW1  662   0.271   0.778   2.768 -1.9736  0.2305 -2.3556
  221SOL    HW2  663   0.434   0.775   2.761 -0.9978 -0.6922 -0.3825
  222SOL     OW  664   0.918   1.816   1.362  0.3679 -0.0763 -0.4643
  222SOL    HW1  665   0.884   1.912   1.373 -0.7598 -0.9698 -0.9428
  222SOL    HW2  666   1.015   1.805   1.338 -2.1076  2.2692  1.4165
  223SOL     OW  667   1.293   0.028   2.509 -0.0344  0.3696  0.1823
  223SOL    HW1  668   1.351   0.047   2.589  0.6439  1.1997  0.8147
  223SOL    HW2  669   1.198   0.055   2.529 -0.2324  0.6810 -1.1883
  224SOL     OW  670   2.967   0.916   0.745  0.3582  0.1824  0.1341
  224SOL    HW1  671   3.022   0.996   0.712  2.0452  1.0180 -0.9554
  224SOL    HW2  672   3.017   0.831   0.766 -0.7569  1.9499 -0.8334
  225SOL     OW  673   1.425   0.610   1.724 -0.0969  0.4027  0.1200
  225SOL    HW1  674   1.426   0.678   1.649  3.0987  0.0863 -2.7652
  225SOL    HW2  675   1.519   0.580   1.735 -0.3000 -0.2947  0.1821
  226SOL     OW  676   1.416   2.013   2.588  0.3187  0.2209 -0.4311
  226SOL    HW1  677   1.379   1.920   2.563 -0.1269 -0.8843 -1.0281
  226SOL    HW2  678   1.347   2.067   2.646 -2.8799 -0.0393  1.2164
  227SOL     OW  679   1.154   1.901   1.082  0.3526  0.1237 -0.3153
  227SOL    HW1  680   1.087   1.823   1.067 -1.8430  2.7249 -1.4683
  227SOL    HW2  681   1.211   1.878   1.156 -0.8606 -0.6382 -0.7509
  228SOL     OW  682   0.678   1.943   0.965  0.1750 -0.0698 -0.2847
  228SOL    HW1  683   0.660   1.930   1.061 -1.0726 -0.0401 -0.8847
  228SOL    HW2  684   0.765   1.889   0.936  0.4032 -2.7972 -2.8695
  229SOL     OW  685   2.085   0.343   0.169  0.0714  0.2574  0.1877
  229SOL    HW1  686   2.052   0.435   0.152  0.8721 -0.7532  0.8470
  229SOL    HW2  687   2.168   0.344   0.224 -1.2872  2.1086 -1.5327
  230SOL     OW  688   0.892   0.626   2.103  0.4085  0.0819 -0.0306
  230SOL    HW1  689   0.874   0.609   2.005 -0.7212  0.8478  1.8383
  230SOL    HW2  690   0.988   0.598   2.123  0.1263  0.8002 -1.1150
  231SOL     OW  691   1.145   1.771   2.282 -0.0232 -0.1011 -0.4449
  231SOL    HW1  692   1.071   1.702   2.280  2.4452  0.5409  0.8125
  231SOL    HW2  693   1.106   1.862   2.272 -1.4020  1.1219 -1.8899
  232SOL     OW  694   2.175   2.119   0.955 -0.1440  0.0011 -0.1753
  232SOL    HW1  695   2.108   2.062   0.912  2.1156  0.0174  1.4306
  232SOL    HW2  696   2.129   2.192   1.006  0.6903 -3.3944 -2.2668
  233SOL     OW  697   1.867   2.649   2.959  0.5200  0.1613 -0.3718
  233SOL    HW1  698   1.836   2.559   2.995  0.5573  0.2931  1.1296
  233SOL    HW2  699   1.969   2.660   2.958 -1.0983 -1.7175  0.2832
  234SOL     OW  700   1.232   3.019   2.988 -0.2945  0.4964  0.4540
  234SOL    HW1  701   1.264   3.009   3.083  0.9895 -0.8045 -0.5897
  234SOL    HW2  702   1.197   2.930   2.948 -0.5969 -2.3920 -1.1927
  235SOL     OW  703   2.428   3.024   0.252  0.2264  0.0396  0.7648
  235SOL    HW1  704   2.372   3.029   0.167 -0.7729 -3.9160  0.2494
  235SOL    HW2  705   2.487   2.943   0.254 -0.3512  0.7480 -0.6214
  236SOL     OW  706   2.588   2.215   2.236  0.0267 -0.0008  0.0776
  236SOL    HW1  707   2.662   2.174   2.182 -1.8687  0.4836  3.6610
  236SOL    HW2  708   2.618   2.229   2.333  0.8112 -0.2083 -0.6357
  237SOL     OW  709   1.404   1.289   1.939  0.0556 -0.3101 -0.2977
  237SOL    HW1  710   1.488   1.238   1.908 -3.5016  0.9507  1.4982
  237SOL    HW2  711   1.338   1.301   1.865 -3.3237 -2.7396  2.9403
  238SOL     OW  712   2.179   0.117   2.405 -0.0563 -0.7432 -0.0678
  238SOL    HW1  713   2.205   0.176   2.321 -0.0113  0.4777 -4.3862
  238SOL    HW2  714   2.114   0.170   2.466  0.4806 -0.9062 -4.6838
  239SOL     OW  715   0.289   1.905   2.076  0.6743 -0.2292  0.2010
  239SOL    HW1  716   0.369   1.850   2.059 -1.0406  1.9518  1.3244
  239SOL    HW2  717   0.217   1.888   2.005  0.3534 -0.5619  0.3327
  240SOL     OW  718   2.810   2.459   0.856  0.2790 -0.3778  0.7046
  240SOL    HW1  719   2.775   2.471   0.949  1.1563 -2.4625  1.7523
  240SOL    HW2  720   2.748   2.402   0.798  4.3748 -0.9881 -2.2955
  241SOL     OW  721   1.992   2.206   0.713 -0.3566  0.1383  0.2818
  241SOL    HW1  722   1.986   2.125   0.778 -2.1911 -2.3323 -0.2545
  241SOL    HW2  723   2.070   2.198   0.647  0.5364 -0.6561  2.1039
  242SOL     OW  724   1.083   1.918   2.732  0.2005  0.2026 -0.2051
  242SOL    HW1  725   1.113   1.948   2.825  1.0862  3.8280 -1.2962
  242SOL    HW2  726   1.067   1.815   2.729 -2.4489 -1.4981  1.3908
  243SOL     OW  727   0.640   2.596   2.142 -0.4054  0.2938  0.2667
  243SOL    HW1  728   0.667   2.687   2.164 -0.6259 -1.0980  1.5891
  243SOL    HW2  729   0.725   2.542   2.133  0.6949  1.3617  2.9449
  244SOL     OW  730   2.288   3.012   2.866 -0.0308  0.1157  0.3122
  244SOL    HW1  731   2.364   3.071   2.838 -0.5293 -1.1294 -1.5008
  244SOL    HW2  732   2.205   3.043   2.817 -0.5680 -0.7700 -0.0409
  245SOL     OW  733   1.347   2.528   0.445 -0.0605 -0.3115 -0.3190
  245SOL    HW1  734   1.362   2.476   0.359 -1.5706 -0.1311 -1.4500
  245SOL    HW2  735   1.301   2.616   0.431 -1.0803 -0.5458 -1.8957
  246SOL     OW  736   0.928   2.870   0.138 -0.5951  0.4790 -0.4229
  246SOL    HW1  737   0.942   2.977   0.146 -1.4078  3.3042  1.4015
  246SOL    HW2  738   1.007   2.823   0.182  2.8736  1.1567  0.4560
  247SOL     OW  739   0.636   0.917   1.917 -0.7167 -0.0812 -0.6908
  247SOL    HW1  740   0.662   0.854   1.839  1.4853  0.6525  2.8027
  247SOL    HW2  741   0.717   0.906   1.985  1.5889  1.0116  1.5622
  248SOL     OW  742   1.007   1.264   2.271 -0.0814 -0.0009 -0.0033
  248SOL    HW1  743   1.081   1.330   2.257 -0.2929 -2.0889 -1.8196
  248SOL    HW2  744   0.948   1.285   2.354 -1.0190 -1.0187  1.1553
  249SOL     OW  745   2.220   0.361   0.398  0.2818  0.3511  0.5341
  249SOL    HW1  746   2.276   0.329   0.476 -1.0343  0.8938 -3.9713
  249SOL    HW2  747   2.136   0.405   0.441 -3.0023 -1.0332  0.1557
  250SOL     OW  748   0.770   3.084   0.642  0.3254 -0.3298 -0.2285
  250SOL    HW1  749   0.713   3.087   0.555 -1.8546  3.7306 -1.2698
  250SOL    HW2  750   0.835   3.007   0.636  0.4028 -0.4027  1.2218
  251SOL     OW  751   1.695   3.082   2.867  0.6318 -0.4345  0.0742
  251SOL    HW1  752   1.753   0.051   2.802 -1.0059  1.0355  0.3581
  251SOL    HW2  753   1.595   0.001   2.845  0.1149  2.0701 -0.3249
  252SOL     OW  754   1.748   1.232   2.160  0.2053 -0.0255  0.1477
  252SOL    HW1  755   1.694   1.279   2.226  2.3749 -1.3054 -1.5018
  252SOL    HW2  756   1.838   1.201   2.200  0.7331  0.9704 -2.5488
  253SOL     OW  757   2.411   2.719   2.038  0.5335  0.5148  0.0816
  253SOL    HW1  758   2.503   2.726   2.080 -1.8745 -0.6904 -1.1401
  253SOL    HW2  759   2.365   2.633   2.071 -3.4404 -1.7301  1.2208
  254SOL     OW  760   0.852   1.396   1.145 -0.0330 -0.0062 -0.3961
  254SOL    HW1  761   0.877   1.317   1.084  0.5322  1.7185 -1.7952
  254SOL    HW2  762   0.879   1.368   1.239 -1.5558  0.3540  4.1987
  255SOL     OW  763   1.345   0.984   1.383 -0.7262 -0.0322 -0.3474
  255SOL    HW1  764   1.255   1.024   1.357  0.5157  1.2119  0.6398
  255SOL    HW2  765   1.420   1.026   1.328 -1.1756 -1.5162 -3.1535
  256SOL     OW  766   1.946   2.540   1.807 -0.1356 -0.1228 -0.0822
  256SOL    HW1  767   1.936   2.467   1.877  0.3108  0.5376 -0.6533
  256SOL    HW2  768   2.041   2.557   1.780 -1.4316 -1.4854 -0.5849
  257SOL     OW  769   0.139   2.808   2.823  0.0167  0.2603 -0.0543
  257SOL    HW1  770   0.157   2.907   2.814  0.4169 -1.2715  0.1413
  257SOL    HW2  771   0.221   2.752   2.822 -2.2441 -0.9032 -1.4118
  258SOL     OW  772   0.836   2.863   1.930  0.1209 -0.0233 -0.5309
  258SOL    HW1  773   0.930   2.839   1.906  1.2054  0.2471 -1.0296
  258SOL    HW2  774   0.779   2.803   1.869  0.6627 -0.9468  0.7490
  259SOL     OW  775   1.029   2.965   2.185  0.2277 -0.0038  0.3090
  259SOL    HW1  776   1.122   2.969   2.143  0.9704  3.2549  1.0201
  259SOL    HW2  777   1.001   2.869   2.199  1.3059  3.7384 -1.2923
  260SOL     OW  778   1.659   0.552   0.796 -0.6410  0.0847 -0.1187
  260SOL    HW1  779   1.618   0.487   0.865 -2.5678 -1.3635 -0.2076
  260SOL    HW2  780   1.754   0.523   0.777  0.6460  0.1728 -1.3072
  261SOL     OW  781   0.158   0.526   2.753  0.1341 -0.4943  0.7300
  261SOL    HW1  782   0.195   0.433   2.730 -1.1502  0.3630 -0.2907
  261SOL    HW2  783   0.235   0.592   2.755  0.3734  0.2861  0.1038
  262SOL     OW  784   2.764   2.618   1.904 -0.2720  0.3277 -0.0529
  262SOL    HW1  785   2.853   2.578   1.898 -1.1891 -0.5127 -1.4553
  262SOL    HW2  786   2.721   2.608   1.811 -0.2969 -0.7704 -0.2695
  263SOL     OW  787   2.690   1.814   2.217  0.1364  0.1453 -0.5606
  263SOL    HW1  788   2.789   1.826   2.203  0.2624  0.6660 -1.3721
  263SOL    HW2  789   2.665   1.853   2.312 -0.0876  1.0017 -0.9823
  264SOL     OW  790   0.756   1.308   0.851 -0.0466  0.2727  0.8384
  264SOL    HW1  791   0.778   1.251   0.931  2.3178 -0.6269  1.9644
  264SOL    HW2  792   0.841   1.340   0.808 -0.6561  0.4995 -0.4676
  265SOL     OW  793   0.536   2.120   0.148 -0.1605  0.4785  0.0489
  265SOL    HW1  794   0.624   2.062   0.135  1.0894 -1.9718  1.0902
  265SOL    HW2  795   0.532   2.178   0.228 -1.2596 -3.8110 -2.2637
  266SOL     OW  796   1.391   0.636   0.747  0.2067  0.0284 -0.1271
  266SOL    HW1  797   1.489   0.620   0.772  1.0922 -2.6389 -1.2340
  266SOL    HW2  798   1.348   0.562   0.697  0.0830  2.0574  0.1529
  267SOL     OW  799   2.934   1.333   0.070  0.4108 -0.2130  0.3889
  267SOL    HW1  800   3.015   1.349   0.132  1.8013 -1.1030  0.6393
  267SOL    HW2  801   2.975   1.295   3.072 -1.1693 -1.5270  0.5214
  268SOL     OW  802   1.997   0.120   0.019  0.3882 -0.5776  0.5866
  268SOL    HW1  803   2.042   0.195   0.065 -4.1734  1.7744 -1.2974
  268SOL    HW2  804   1.920   0.078   0.070  0.5196 -0.3689  2.4554
  269SOL     OW  805   1.741   0.683   2.806 -0.3515 -0.5109 -0.0783
  269SOL    HW1  806   1.795   0.729   2.879  0.1003 -0.7043  1.3045
  269SOL    HW2  807   1.644   0.679   2.836 -2.1216  0.6839 -1.1479
  270SOL     OW  808   0.514   0.699   3.013  0.6243 -0.1407 -0.5160
  270SOL    HW1  809   0.472   0.749   0.003  0.6816 -0.5120 -0.8670
  270SOL    HW2  810   0.515   0.756   2.930  1.4483  2.4220  0.1637
  271SOL     OW  811   2.930   1.028   0.147 -0.5832  0.1669 -1.3060
  271SOL    HW1  812   2.977   0.963   0.086  0.2919 -0.1361  1.8145
  271SOL    HW2  813   2.932   1.122   0.105 -1.1889 -1.3627  0.8499
  272SOL     OW  814   2.995   1.889   2.769  0.2289  0.0807 -0.9063
  272SOL    HW1  815   2.897   1.863   2.795  0.1270 -0.5130  0.0785
  272SOL    HW2  816   2.997   1.930   2.680 -1.4444 -0.0854  2.8944
  273SOL     OW  817   2.506   3.050   0.720  0.5621  0.0641  0.1674
  273SOL    HW1  818   2.552   0.024   0.656  0.5725 -2.3016  0.3074
  273SOL    HW2  819   2.461   2.979   0.661  0.2916  2.5318 -0.4504
  274SOL     OW  820   0.457   2.434   0.915  0.9156 -0.0870  0.0613
  274SOL    HW1  821   0.506   2.352   0.929  1.9477  2.2511 -3.1797
  274SOL    HW2  822   0.434   2.447   0.815  0.8257  1.2588  2.1377
  275SOL     OW  823   2.298   1.496   0.531  0.0948  0.0482 -0.3626
  275SOL    HW1  824   2.397   1.480   0.542 -0.9015  1.4205 -0.3499
  275SOL    HW2  825   2.235   1.417   0.554 -1.0540 -0.9071  0.3491
  276SOL     OW  826   2.967   1.214   2.091 -0.1211  0.0067 -0.2868
  276SOL    HW1  827   3.066   1.196   2.071  1.4485  1.3376  2.9010
  276SOL    HW2  828   2.963   1.311   2.120  1.1604 -0.0902  1.1558
  277SOL     OW  829   2.015   2.817   1.450 -0.0929 -0.2548  0.0769
  277SOL    HW1  830   2.075   2.731   1.424  2.3168 -1.7046 -1.3742
  277SOL    HW2  831   1.954   2.849   1.379  1.6942 -0.3518  4.1129
  278SOL     OW  832   1.269   3.078   2.049 -0.1745 -0.3984 -0.1706
  278SOL    HW1  833   1.247   0.006   1.951 -1.8996  1.5069 -0.1173
  278SOL    HW2  834   1.229   0.064   2.108 -2.2329 -0.1855 -2.4237
  279SOL     OW  835   1.696   1.920   0.350  0.4481 -0.3283 -0.0091
  279SOL    HW1  836   1.653   1.906   0.443  0.8444 -1.2597  1.8230
  279SOL    HW2  837   1.648   1.870   0.278 -0.9637  2.4863  1.2943
  280SOL     OW  838   0.048   1.909   0.911 -0.6124 -0.6305  0.1455
  280SOL    HW1  839   0.121   1.845   0.899 -1.9127  3.7386  0.5743
  280SOL    HW2  840   3.048   1.859   0.913  1.1520  1.5023 -0.7329
  281SOL     OW  841   0.105   0.688   2.389 -0.4008 -0.2945  0.2453
  281SOL    HW1  842   0.135   0.622   2.315  0.7434  1.2680 -1.6409
  281SOL    HW2  843   0.054   0.650   2.465  0.6267  0.2443 -1.0035
  282SOL     OW  844   0.653   0.936   0.462 -0.4117 -0.2499 -0.3493
  282SOL    HW1  845   0.606   1.029   0.469  0.3516  1.5769  1.1961
  282SOL    HW2  846   0.754   0.953   0.453 -0.1766  0.5744  0.0068
  283SOL     OW  847   1.614   2.048   3.040  0.5530 -0.2145 -0.6616
  283SOL    HW1  848   1.605   2.109   2.958  1.1857 -1.0468 -2.3525
  283SOL    HW2  849   1.711   2.015   3.054 -1.5145  2.1128  0.6684
  284SOL     OW  850   1.248   0.516   0.277 -0.2801  0.1031  0.2699
  284SOL    HW1  851   1.325   0.558   0.219  1.1702 -3.4455 -1.7888
  284SOL    HW2  852   1.192   0.457   0.216  0.1976  2.0461  0.1810
  285SOL     OW  853   2.060   0.873   2.551  0.1742 -0.1928  0.7481
  285SOL    HW1  854   1.958   0.859   2.540 -0.4229 -1.5740  0.0276
  285SOL    HW2  855   2.090   0.879   2.650  2.6090  0.3319 -0.8295
  286SOL     OW  856   1.373   2.536   1.689  0.4668  0.5174  0.1546
  286SOL    HW1  857   1.441   2.608   1.658 -1.2790  0.4693  0.9747
  286SOL    HW2  858   1.424   2.447   1.694 -1.4323 -1.3091 -1.2185
  287SOL     OW  859   1.037   0.976   0.771  0.3746 -0.2394 -0.2257
  287SOL    HW1  860   0.957   0.923   0.805  1.6008 -2.1299 -1.7191
  287SOL    HW2  861   1.100   0.917   0.716  3.0689  0.6576  4.2769
  288SOL     OW  862   1.037   2.574   0.291  0.1087 -0.1125 -0.2543
  288SOL    HW1  863   1.086   2.660   0.317 -0.7290 -0.0017 -0.7691
  288SOL    HW2  864   0.968   2.548   0.366  0.0715  1.0068  1.1203
  289SOL     OW  865   0.381   1.449   1.727 -0.0200 -0.7454  0.0629
  289SOL    HW1  866   0.379   1.551   1.748 -0.6010  0.6656 -1.0294
  289SOL    HW2  867   0.460   1.402   1.766 -3.0961 -0.6682 -2.8403
  290SOL     OW  868   1.751   2.346   1.001  0.1534 -0.1341  0.1501
  290SOL    HW1  869   1.715   2.253   1.034 -2.2227 -3.4680 -0.3669
  290SOL    HW2  870   1.683   2.417   1.016 -0.7893 -1.8883  0.6188
  291SOL     OW  871   1.734   2.890   3.049 -0.1787 -0.0086  0.1164
  291SOL    HW1  872   1.724   2.966   2.979  0.2559  1.3166 -0.6486
  291SOL    HW2  873   1.783   2.810   3.007 -1.3538  3.0120 -0.1332
  292SOL     OW  874   1.092   0.337   1.933  0.1983  0.6205  0.0390
  292SOL    HW1  875   1.120   0.435   1.932 -0.2982 -1.2332 -0.7505
  292SOL    HW2  876   0.999   0.328   1.979 -1.9995 -1.1723  0.1029
  293SOL     OW  877   1.892   2.445   0.769  0.5988  0.1815 -0.4238
  293SOL    HW1  878   1.948   2.360   0.741  1.6846  0.5501  1.8688
  293SOL    HW2  879   1.866   2.429   0.866 -0.5591 -1.5000 -0.1323
  294SOL     OW  880   0.464   0.597   2.351 -0.4801  0.1254 -0.0472
  294SOL    HW1  881   0.452   0.679   2.409 -0.0032 -0.8521  1.6392
  294SOL    HW2  882   0.383   0.540   2.359  0.3298  3.0721 -0.5186
  295SOL     OW  883   1.509   1.681   0.877 -0.1014  0.0588 -0.1958
  295SOL    HW1  884   1.608   1.711   0.855 -0.9878  3.5381 -3.4270
  295SOL    HW2  885   1.439   1.747   0.835 -1.6356  2.0877 -1.6858
  296SOL     OW  886   2.307   1.970   0.011  0.1906  0.3127 -0.1222
  296SOL    HW1  887   2.409   1.992   0.013  0.9853 -0.6280  1.5052
  296SOL    HW2  888   2.267   1.976   0.104  0.6966  0.5811 -3.1895
  297SOL     OW  889   2.117   2.919   0.225 -0.1758  0.1051 -0.3297
  297SOL    HW1  890   2.021   2.952   0.242 -0.3407 -0.4761  1.2509
  297SOL    HW2  891   2.171   2.972   0.160 -2.7439  0.5254  1.0547
  298SOL     OW  892   1.127   2.444   2.398 -0.5594  0.0261  0.2451
  298SOL    HW1  893   1.135   2.549   2.398 -0.3109  2.9241 -0.9482
  298SOL    HW2  894   1.217   2.402   2.374  1.7864 -0.2719  0.3435
  299SOL     OW  895   1.257   2.692   2.111  0.6240  0.6715  0.5121
  299SOL    HW1  896   1.164   2.646   2.118 -3.3529 -1.4146 -1.8093
  299SOL    HW2  897   1.314   2.684   2.195 -0.3811  0.5829 -2.0945
  300SOL     OW  898   2.513   0.095   2.786  0.5486 -0.4456  0.4611
  300SOL    HW1  899   2.502   0.168   2.858  0.0670 -1.6259 -0.8816
  300SOL    HW2  900   2.498   0.128   2.690  1.5587  1.9507 -0.9858
  301SOL     OW  901   1.595   0.728   2.318 -0.7781  0.4517  0.5214
  301SOL    HW1  902   1.540   0.811   2.297  0.4541 -1.8299  2.2899
  301SOL    HW2  903   1.685   0.725   2.272 -1.2026 -0.7765  2.0468
  302SOL     OW  904   2.446   2.460   0.439  0.2205 -0.3001 -0.3251
  302SOL    HW1  905   2.483   2.369   0.464  1.0132  2.8469  4.3948
  302SOL    HW2  906   2.435   2.521   0.524 -0.8946  3.0847 -2.1006
  303SOL     OW  907   2.812   2.577   2.287  0.4813  0.6735  0.3812
  303SOL    HW1  908   2.899   2.522   2.299  0.0470  1.3528 -3.3794
  303SOL    HW2  909   2.751   2.552   2.363  1.5980  1.1110 -2.2986
  304SOL     OW  910   2.875   0.709   1.630 -0.0076  0.2349 -0.1819
  304SOL    HW1  911   2.874   0.802   1.666  0.6110 -0.8570 -0.4996
  304SOL    HW2  912   2.907   0.648   1.706 -0.0613 -2.0154  0.5235
  305SOL     OW  913   0.715   2.027   1.726 -0.4571  0.0463  0.5516
  305SOL    HW1  914   0.683   2.108   1.670 -1.2267  0.8607  1.8175
  305SOL    HW2  915   0.672   2.033   1.820 -0.4241 -1.5104 -3.5802
  306SOL     OW  916   2.986   1.104   1.652  0.7790 -0.0279  0.2888
  306SOL    HW1  917   2.941   1.188   1.615  2.2656 -2.1350 -0.4503
  306SOL    HW2  918   3.083   1.092   1.617  0.3590  0.8087  1.2245
  307SOL     OW  919   1.419   0.752   1.985  0.5133  0.9327  0.0767
  307SOL    HW1  920   1.338   0.787   2.031  2.4210 -1.0555  0.9624
  307SOL    HW2  921   1.410   0.755   1.883 -0.0069  0.4160  1.4493
  308SOL     OW  922   2.973   1.177   0.931  0.2364  0.0086  0.1212
  308SOL    HW1  923   3.017   1.139   1.010 -1.5070  0.6946 -1.6461
  308SOL    HW2  924   2.901   1.114   0.893 -1.3785 -0.1569 -1.4301
  309SOL     OW  925   2.431   1.366   0.762 -0.8714 -0.0660  0.2501
  309SOL    HW1  926   2.383   1.334   0.847  0.4061  0.8487  0.0410
  309SOL    HW2  927   2.443   1.467   0.774  2.0769  0.3956 -1.3600
  310SOL     OW  928   2.745   1.825   2.912 -0.2132  0.4829  0.4163
  310SOL    HW1  929   2.716   1.906   2.969 -0.4126  3.3951  1.1810
  310SOL    HW2  930   2.671   1.754   2.913  1.6941  0.5775  1.8983
  311SOL     OW  931   3.037   2.752   2.643  0.4598  0.2578 -0.3485
  311SOL    HW1  932   2.946   2.747   2.683  0.7837 -0.7797  0.7125
  311SOL    HW2  933   0.022   2.776   2.713 -0.3617 -0.8444 -0.1602
  312SOL     OW  934   1.948   1.881   0.641  0.1068 -0.3978 -0.1439
  312SOL    HW1  935   1.941   1.943   0.555 -0.9083  0.0044  0.9531
  312SOL    HW2  936   1.988   1.788   0.620  1.8051 -2.4722  2.9869
  313SOL     OW  937   2.769   3.038   0.799  0.2764  0.1690 -0.1803
  313SOL    HW1  938   2.822   2.954   0.823  0.4213  0.1921 -2.1206
  313SOL    HW2  939   2.679   3.021   0.762 -1.1949  0.9743 -0.3786
  314SOL     OW  940   1.291   0.944   0.100  0.0692  0.5815 -0.0297
  314SOL    HW1  941   1.303   0.890   0.011  0.4020  0.1794 -0.3562
  314SOL    HW2  942   1.366   0.919   0.161 -0.3108 -0.2798  1.3664
  315SOL     OW  943   1.410   2.472   2.000  0.2921  0.0913 -0.1199
  315SOL    HW1  944   1.355   2.554   2.025 -0.6627  1.1119  0.7954
  315SOL    HW2  945   1.348   2.414   1.940  2.0211 -0.9256 -1.9333
  316SOL     OW  946   3.081   0.949   0.378  0.2908 -0.2941 -0.1452
  316SOL    HW1  947   3.035   0.962   0.285  2.9503 -0.4825  0.4330
  316SOL    HW2  948   0.004   1.038   0.433  0.7099 -1.1048  2.7590
  317SOL     OW  949   0.446   0.022   0.518  0.2014 -0.2645 -0.0783
  317SOL    HW1  950   0.350   3.073   0.527 -0.6677 -2.0727  0.7140
  317SOL    HW2  951   0.511   3.034   0.497 -0.2048  1.0859  2.5283
  318SOL     OW  952   2.117   2.427   0.447  0.5329 -0.0191  0.2790
  318SOL    HW1  953   2.065   2.357   0.391  0.0672  1.0774  1.0650
  318SOL    HW2  954   2.214   2.443   0.417 -0.5465  1.6816  1.0154
  319SOL     OW  955   1.023   1.519   2.967 -0.1475 -0.0866 -0.2264
  319SOL    HW1  956   1.003   1.452   3.044  2.3917  1.1634  1.3993
  319SOL    HW2  957   0.947   1.585   2.961  3.7746 -4.1129  0.4652
  320SOL     OW  958   0.283   2.402   2.080  0.1933 -0.2501  0.2128
  320SOL    HW1  959   0.196   2.387   2.030  1.0903 -0.6589 -1.8414
  320SOL    HW2  960   0.295   2.499   2.114  0.1524 -0.3190  2.9070
  321SOL     OW  961   1.407   2.825   2.659 -0.3374 -0.0881 -0.5661
  321SOL    HW1  962   1.441   2.733   2.649 -1.0004  3.7925  0.9581
  321SOL    HW2  963   1.307   2.834   2.672 -1.1417  0.6106 -0.8871
  322SOL     OW  964   2.877   1.519   2.006  0.0702  0.2139  0.2673
  322SOL    HW1  965   2.938   1.513   2.089  2.3119 -1.0526  0.2749
  322SOL    HW2  966   2.919   1.467   1.925 -0.3042  0.6836 -0.6013
  323SOL     OW  967   2.107   1.302   0.619 -0.6666  0.2435 -0.1263
  323SOL    HW1  968   2.110   1.215   0.674  2.2398 -0.2412 -0.8519
  323SOL    HW2  969   2.023   1.352   0.632  1.3150 -1.7315 -0.0632
  324SOL     OW  970   2.870   3.042   2.915 -0.1450 -0.0815  0.4698
  324SOL    HW1  971   2.937   0.024   2.885 -0.3041 -0.3740 -0.5858
  324SOL    HW2  972   2.897   2.994   2.997 -3.0837  0.8137  1.5041
  325SOL     OW  973   1.307   0.345   2.602 -0.4493 -0.2658  0.5182
  325SOL    HW1  974   1.215   0.367   2.636  0.8431  2.4205  0.9511
  325SOL    HW2  975   1.374   0.334   2.676  1.3171  1.5256 -0.7541
  326SOL     OW  976   2.170   2.986   1.802 -0.1646  0.0879  0.0825
  326SOL    HW1  977   2.224   3.075   1.817 -0.6244  3.6836 -0.7929
  326SOL    HW2  978   2.233   2.903   1.796 -1.2844 -0.4512 -1.3557
  327SOL     OW  979   1.926   0.151   2.815 -0.3209 -0.3003  0.6021
  327SOL    HW1  980   1.966   0.057   2.811  0.5997 -0.3606 -1.0843
  327SOL    HW2  981   1.931   0.186   2.907  1.5955 -2.7901 -2.7224
  328SOL     OW  982   3.016   1.226   2.378 -0.4086  0.4942  0.0284
  328SOL    HW1  983   3.016   1.227   2.275  1.4459 -1.1581 -1.5157
  328SOL    HW2  984   2.957   1.156   2.424  0.1544 -3.0846 -0.6927
  329SOL     OW  985   1.799   3.007   1.954  0.6522 -0.6538  0.2925
  329SOL    HW1  986   1.837   2.915   1.967 -1.2460 -0.6143 -0.2795
  329SOL    HW2  987   1.854   3.078   2.000 -2.6554  1.0510  0.0348
  330SOL     OW  988   3.013   1.436   1.016  0.4987  0.3479  0.3125
  330SOL    HW1  989   2.988   1.347   0.970 -1.8154 -2.0633 -0.4519
  330SOL    HW2  990   3.062   1.422   1.104 -0.2618 -0.8795 -1.4408
  331SOL     OW  991   0.538   1.776   2.060 -0.1632  0.1587  0.5885
  331SOL    HW1  992   0.485   1.732   2.136 -0.6460  0.5890  1.3266
  331SOL    HW2  993   0.634   1.737   2.066 -1.2040 -3.3736  4.1938
  332SOL     OW  994   3.086   2.758   1.592  0.0500 -0.2007 -0.9989
  332SOL    HW1  995   0.019   2.806   1.683  1.5575  1.0004  1.7255
  332SOL    HW2  996   0.075   2.757   1.529 -3.3085 -0.6826 -0.3802
  333SOL     OW  997   2.158   2.612   1.386  0.1792 -0.4258  0.6786
  333SOL    HW1  998   2.257   2.594   1.362  2.1919 -0.9505 -2.2910
  333SOL    HW2  999   2.113   2.524   1.408  0.9022  0.6633 -1.3689
  334SOL     OW 1000   0.872   1.784   0.887 -0.0600 -0.4564 -0.1407
  334SOL    HW1 1001   0.844   1.734   0.805  0.2239  0.3939  2.0029
  334SOL    HW2 1002   0.884   1.719   0.966 -0.2152 -0.8110  0.7294
  335SOL     OW 1003   3.086   2.713   3.022  0.4598 -0.3404  0.8550
  335SOL    HW1 1004   0.045   2.735   2.934 -0.3246  0.4179 -1.6280
  335SOL    HW2 1005   2.989   2.680   3.007  2.4700  0.2502 -0.5799
  336SOL     OW 1006   0.510   3.036   2.105 -0.4917 -0.9309 -0.6091
  336SOL    HW1 1007   0.438   3.069   2.167 -1.8002 -1.3071  0.9662
  336SOL    HW2 1008   0.590   2.996   2.154 -1.0013 -0.1143 -2.6243
  337SOL     OW 1009   2.309   2.042   2.834  0.3860  0.1991  0.3828
  337SOL    HW1 1010   2.304   2.043   2.933 -1.3790  0.3247 -0.2165
  337SOL    HW2 1011   2.365   1.962   2.798  2.3825 -2.9264  1.4965
  338SOL     OW 1012   1.247   1.545   1.264  0.1882  0.1540  0.4914
  338SOL    HW1 1013   1.198   1.637   1.280 -1.9490 -0.1595  2.0812
  338SOL    HW2 1014   1.321   1.560   1.194 -2.0365 -2.1026 -3.2213
  339SOL     OW 1015   0.271   0.905   1.753  0.5025 -0.4594 -0.0639
  339SOL    HW1 1016   0.228   0.857   1.835 -4.3940  0.9679  2.1869
  339SOL    HW2 1017   0.342   0.971   1.780  2.0575 -0.2793 -0.8481
  340SOL     OW 1018   1.434   2.588   3.085 -0.5608  0.6134  0.2320
  340SOL    HW1 1019   1.500   2.517   0.032  1.1771 -3.9553  3.0909
  340SOL    HW2 1020   1.452   2.679   0.029 -0.1774  1.8269 -2.7241
  341SOL     OW 1021   1.868   1.475   0.930  0.0570 -0.0224 -0.3456
  341SOL    HW1 1022   1.941   1.438   0.993 -3.4995 -1.9290 -0.2819
  341SOL    HW2 1023   1.778   1.436   0.960 -0.1460 -0.0727  2.3681
  342SOL     OW 1024   2.593   2.746   0.577 -0.2454  0.0495 -0.0279
  342SOL    HW1 1025   2.540   2.666   0.614 -2.2039  1.7446  1.0831
  342SOL    HW2 1026   2.592   2.743   0.478 -0.6626 -0.3473  2.7479
  343SOL     OW 1027   1.640   2.113   1.077  0.2776 -0.5656 -0.1798
  343SOL    HW1 1028   1.677   2.021   1.055  1.2896  0.7541 -1.5251
  343SOL    HW2 1029   1.539   2.098   1.097 -1.0983 -1.6774  0.2675
  344SOL     OW 1030   2.224   2.515   0.860  0.2548 -0.0772 -0.6206
  344SOL    HW1 1031   2.163   2.574   0.807 -1.2861 -1.6488 -1.1798
  344SOL    HW2 1032   2.231   2.541   0.957  0.9685 -1.3134 -1.5807
  345SOL     OW 1033   2.708   2.187   2.837  1.0073 -0.0535 -0.5852
  345SOL    HW1 1034   2.683   2.131   2.911  1.2262  1.4377 -1.3240
  345SOL    HW2 1035   2.758   2.266   2.868  0.7862  1.1832 -3.7495
  346SOL     OW 1036   2.800   1.693   0.652  0.3559 -0.6175  0.0320
  346SOL    HW1 1037   2.843   1.706   0.742 -1.0382  2.3256  2.3797
  346SOL    HW2 1038   2.861   1.638   0.589 -0.2294  0.2902 -0.7363
  347SOL     OW 1039   2.275   2.081   1.366 -0.1168  0.4350  0.4258
  347SOL    HW1 1040   2.323   2.025   1.292  0.8847 -2.3242 -0.9078
  347SOL    HW2 1041   2.310   2.176   1.370  2.8085  3.4043  0.4116
  348SOL     OW 1042   0.650   1.791   2.763 -0.1095 -0.2620  0.1770
  348SOL    HW1 1043   0.713   1.870   2.753 -0.9709 -0.1115  0.8148
  348SOL    HW2 1044   0.688   1.726   2.831 -0.6337  0.9813  2.9399
  349SOL     OW 1045   2.311   1.319   1.604  0.1378 -0.2074  0.3693
  349SOL    HW1 1046   2.231   1.265   1.570  0.0619 -1.0586  1.7978
  349SOL    HW2 1047   2.283   1.409   1.645 -0.5021  0.1890  1.4563
  350SOL     OW 1048   0.139   2.627   0.827  0.3882  0.0333  0.3426
  350SOL    HW1 1049   0.056   2.608   0.768 -2.1554  0.0053 -0.1663
  350SOL    HW2 1050   0.214   2.554   0.816  3.1762 -1.9282  0.8855
  351SOL     OW 1051   0.441   0.697   2.101  0.0027  0.2813 -0.0336
  351SOL    HW1 1052   0.387   0.782   2.081  1.6305  3.1856 -1.5013
  351SOL    HW2 1053   0.451   0.681   2.201 -0.6542 -4.3960  0.0304
  352SOL     OW 1054   0.642   2.193   1.509 -0.2271 -0.2071 -0.2067
  352SOL    HW1 1055   0.627   2.292   1.487 -2.0682 -1.7305 -2.9769
  352SOL    HW2 1056   0.555   2.146   1.514  4.5662  0.9630  0.9970
  353SOL     OW 1057   1.358   1.754   2.463 -0.6163 -0.2747  0.2324
  353SOL    HW1 1058   1.281   1.765   2.397 -1.7048  0.1178 -1.7028
  353SOL    HW2 1059   1.437   1.705   2.416 -1.8958  1.4125  1.4631
  354SOL     OW 1060   1.282   0.736   0.973 -0.3206  0.1282  0.2775
  354SOL    HW1 1061   1.326   0.718   0.884  1.2034 -0.4637  2.7532
  354SOL    HW2 1062   1.282   0.841   0.992  0.9544  2.7242  0.9688
  355SOL     OW 1063   2.486   1.040   0.426 -0.0740 -0.1492  0.2417
  355SOL    HW1 1064   2.555   0.985   0.376 -0.3373 -0.4496  2.0130
  355SOL    HW2 1065   2.506   1.139   0.412  0.1160  3.0893  1.8946
  356SOL     OW 1066   2.571   1.497   2.672 -0.0930 -0.6139  0.4385
  356SOL    HW1 1067   2.634   1.435   2.720  1.3315 -1.4969 -1.3420
  356SOL    HW2 1068   2.477   1.469   2.683  2.4067  2.8683 -0.1902
  357SOL     OW 1069   0.831   2.603   1.389 -0.3663 -0.3037  0.2564
  357SOL    HW1 1070   0.808   2.573   1.296 -1.5391 -1.4899 -1.5226
  357SOL    HW2 1071   0.843   2.704   1.388 -0.4630  0.0211 -1.9993
  358SOL     OW 1072   2.402   1.170   1.789  0.3091 -0.2972 -0.3073
  358SOL    HW1 1073   2.365   1.230   1.713 -1.4314  1.2308 -1.9208
  358SOL    HW2 1074   2.442   1.085   1.741  2.9544 -1.8392  0.2987
  359SOL     OW 1075   2.281   2.356   2.984 -0.1863  0.1942 -0.0040
  359SOL    HW1 1076   2.368   2.312   3.025 -1.1928 -2.5293  1.1449
  359SOL    HW2 1077   2.305   2.400   2.897  2.2389 -1.5798  1.0532
  360SOL     OW 1078   2.162   0.633   1.048  0.0349 -0.7200 -0.3862
  360SOL    HW1 1079   2.083   0.697   1.033 -0.0649  1.8461 -0.1713
  360SOL    HW2 1080   2.143   0.534   1.044  0.1948 -3.5034  0.0880
  361SOL     OW 1081   2.332   0.178   0.898 -0.0076  0.3021 -0.2228
  361SOL    HW1 1082   2.340   0.121   0.984  0.1615  0.5897  1.0891
  361SOL    HW2 1083   2.286   0.121   0.828  1.7372 -1.1101  0.4260
  362SOL     OW 1084   1.336   0.983   0.469 -0.4567  0.1520 -0.5096
  362SOL    HW1 1085   1.307   0.912   0.541  0.5288 -1.7311 -0.1388
  362SOL    HW2 1086   1.256   1.043   0.448 -1.8230 -2.9354 -3.6854
  363SOL     OW 1087   2.225   1.331   2.410  0.2013 -0.1214  0.2278
  363SOL    HW1 1088   2.318   1.321   2.371 -0.6927 -0.0616 -1.7346
  363SOL    HW2 1089   2.177   1.241   2.418 -1.1850  2.3828 -1.7555
  364SOL     OW 1090   1.249   0.474   1.354 -0.2009 -0.6960 -0.2827
  364SOL    HW1 1091   1.280   0.490   1.256  0.2935 -0.8529  1.5381
  364SOL    HW2 1092   1.326   0.428   1.396 -2.7098 -0.3761 -0.7753
  365SOL     OW 1093   0.291   3.062   0.863 -0.5315  0.5922  0.5061
  365SOL    HW1 1094   0.278   2.974   0.820 -1.5231  0.8503  0.2640
  365SOL    HW2 1095   0.227   3.079   0.935  0.4713  1.9310 -1.5929
  366SOL     OW 1096   2.832   1.513   0.230 -0.1217  0.1774  0.0085
  366SOL    HW1 1097   2.880   1.500   0.321  1.5058  1.0185 -1.6701
  366SOL    HW2 1098   2.864   1.453   0.156 -2.2730 -1.2458  1.9683
  367SOL     OW 1099   2.836   2.625   2.964  0.5660 -0.7217 -0.0670
  367SOL    HW1 1100   2.838   2.658   2.870  0.4611 -0.1956  0.7316
  367SOL    HW2 1101   2.741   2.587   2.984 -1.1850  0.1431  0.8759
  368SOL     OW 1102   0.101   2.153   0.819  0.0520 -0.0402  0.3747
  368SOL    HW1 1103   0.182   2.139   0.762  0.5473 -1.6064  0.9338
  368SOL    HW2 1104   0.076   2.057   0.860 -1.7493 -1.6240 -1.0192
  369SOL     OW 1105   0.388   0.185   0.286  0.0172 -0.2086 -0.1831
  369SOL    HW1 1106   0.370   0.127   0.366 -0.2577 -1.5002 -1.0938
  369SOL    HW2 1107   0.485   0.219   0.289 -2.4931  3.1777  1.3882
  370SOL     OW 1108   0.507   1.048   1.086 -0.0419 -0.1887  0.1120
  370SOL    HW1 1109   0.415   1.079   1.066  0.8650 -2.9487 -0.2074
  370SOL    HW2 1110   0.541   1.106   1.167  1.3246  2.2305  0.7907
  371SOL     OW 1111   2.071   2.584   0.643 -0.4989 -0.3325 -0.5623
  371SOL    HW1 1112   2.098   2.522   0.563  1.1220 -1.2826  0.3293
  371SOL    HW2 1113   2.005   2.535   0.700  2.2215  1.6539 -0.5181
  372SOL     OW 1114   0.229   0.979   2.698 -0.1720 -0.2667  0.3013
  372SOL    HW1 1115   0.262   1.012   2.609  0.2389 -1.6653  1.0658
  372SOL    HW2 1116   0.271   1.040   2.770 -0.6819  1.0360  2.3528
  373SOL     OW 1117   2.594   1.549   0.432 -0.5029 -0.3828  0.4077
  373SOL    HW1 1118   2.584   1.609   0.350  3.4040  1.3359 -0.3369
  373SOL    HW2 1119   2.584   1.598   0.522 -2.3143  1.0357  0.5003
  374SOL     OW 1120   0.365   2.532   0.275 -0.4375 -0.3004  0.3495
  374SOL    HW1 1121   0.300   2.503   0.345 -0.3315 -1.9697 -3.5332
  374SOL    HW2 1122   0.319   2.537   0.184 -0.8538 -0.1220  0.8181
  375SOL     OW 1123   0.653   0.270   0.230  0.0506  0.1380 -0.4890
  375SOL    HW1 1124   0.720   0.237   0.301  1.9699 -0.1675  0.9887
  375SOL    HW2 1125   0.646   0.372   0.216 -3.2421  1.8183  0.4956
  376SOL     OW 1126   0.285   2.951   1.769  0.5874 -0.3930  0.1055
  376SOL    HW1 1127   0.308   3.047   1.739 -1.5896  2.4230 -0.4548
  376SOL    HW2 1128   0.357   2.908   1.828  0.5501 -0.7230  1.8933
  377SOL     OW 1129   1.000   2.197   2.427  0.1837  0.4683 -0.2396
  377SOL    HW1 1130   1.010   2.144   2.339  2.4602 -1.8903  1.1491
  377SOL    HW2 1131   1.040   2.288   2.430 -0.1939 -1.1631  1.4829
  378SOL     OW 1132   1.217   0.816   0.627  0.4143  0.3900 -0.5077
  378SOL    HW1 1133   1.176   0.762   0.547 -2.1968  1.3796  0.5468
  378SOL    HW2 1134   1.286   0.764   0.681  2.4885 -1.9069 -0.8936
  379SOL     OW 1135   0.815   1.692   2.977 -0.1513 -0.4948  0.3356
  379SOL    HW1 1136   0.726   1.649   2.998  0.4596  3.1266 -1.0933
  379SOL    HW2 1137   0.817   1.791   2.981  0.1333  1.9170 -1.6652
  380SOL     OW 1138   2.694   1.933   1.814 -0.3439  0.4374 -0.2644
  380SOL    HW1 1139   2.617   1.877   1.847 -3.6249  1.3350 -2.3543
  380SOL    HW2 1140   2.778   1.897   1.863  0.4516 -1.1994  1.9160
  381SOL     OW 1141   0.136   1.290   1.763 -0.4508  0.2399 -0.2092
  381SOL    HW1 1142   0.214   1.354   1.762 -0.3657  1.3951 -2.1996
  381SOL    HW2 1143   0.139   1.225   1.687  1.6695  1.2272  0.1959
  382SOL     OW 1144   2.495   2.244   0.050  0.0503  0.4069 -0.3744
  382SOL    HW1 1145   2.429   2.241   0.134  0.2851  0.7138  1.8136
  382SOL    HW2 1146   2.586   2.279   0.078  0.9051 -0.3970  1.8093
  383SOL     OW 1147   2.401   1.735   2.350  0.2544 -0.5376 -0.2228
  383SOL    HW1 1148   2.334   1.698   2.282 -0.3490  0.7710 -1.9244
  383SOL    HW2 1149   2.444   1.821   2.331  1.3635 -0.2024 -1.5851
  384SOL     OW 1150   0.776   2.144   2.108  0.0524 -0.1142  0.5390
  384SOL    HW1 1151   0.754   2.090   2.193 -2.0507 -3.0664  1.1510
  384SOL    HW2 1152   0.758   2.246   2.119  0.8944 -0.2667  1.2001
  385SOL     OW 1153   2.810   2.138   1.092  0.0504  0.2328 -0.2451
  385SOL    HW1 1154   2.871   2.156   1.014  0.3590  0.4997  0.1298
  385SOL    HW2 1155   2.864   2.133   1.177 -0.1712 -1.6829 -2.6031
  386SOL     OW 1156   1.982   0.604   0.199 -0.6826 -0.2300  0.6442
  386SOL    HW1 1157   1.901   0.657   0.170  0.2890 -1.7964  1.5274
  386SOL    HW2 1158   2.009   0.633   0.288  1.6140  0.5372  0.1841
  387SOL     OW 1159   0.635   0.613   1.518 -0.0027 -0.0022  0.7109
  387SOL    HW1 1160   0.662   0.595   1.418  0.1816 -0.5471 -1.2890
  387SOL    HW2 1161   0.603   0.523   1.564 -1.3701 -3.8566  1.8245
  388SOL     OW 1162   2.784   1.017   2.019 -0.3295  0.1600 -0.1752
  388SOL    HW1 1163   2.854   1.091   2.042  0.7438  0.0240 -2.7204
  388SOL    HW2 1164   2.795   0.934   2.079 -2.1326  2.0143  1.4366
  389SOL     OW 1165   1.516   0.585   2.542 -0.1164  0.6824 -0.0622
  389SOL    HW1 1166   1.538   0.621   2.453 -2.6552  0.5847  1.3743
  389SOL    HW2 1167   1.565   0.502   2.560 -2.4443  3.4324  1.7624
  390SOL     OW 1168   2.045   2.332   0.081 -0.0874  0.1430 -0.2422
  390SOL    HW1 1169   1.963   2.372   0.037 -0.1746  1.5406 -0.9298
  390SOL    HW2 1170   2.117   2.321   0.008 -1.5811 -2.8476 -0.7115
  391SOL     OW 1171   1.922   2.345   1.344  0.4953  0.0647 -0.4385
  391SOL    HW1 1172   1.854   2.274   1.367 -1.2031  1.3845 -4.7459
  391SOL    HW2 1173   1.869   2.431   1.331 -0.8949 -0.2351 -0.2227
  392SOL     OW 1174   2.794   2.577   1.401 -0.6492 -0.3261  0.7644
  392SOL    HW1 1175   2.835   2.665   1.379 -0.4351 -3.5123  0.3719
  392SOL    HW2 1176   2.773   2.526   1.316 -0.6706 -0.8233  2.4481
  393SOL     OW 1177   1.765   1.692   2.658  0.3563 -0.0487  0.1055
  393SOL    HW1 1178   1.824   1.778   2.666  0.6744  0.3088 -1.8458
  393SOL    HW2 1179   1.808   1.624   2.594  0.2321 -0.9387  0.7056
  394SOL     OW 1180   0.239   2.963   0.087 -0.3206  0.3787  0.1781
  394SOL    HW1 1181   0.184   2.926   0.008 -1.0995 -0.1387 -2.0102
  394SOL    HW2 1182   0.244   3.065   0.079 -0.8229  2.4224 -0.1429
  395SOL     OW 1183   1.519   1.115   1.245  0.1578  0.0708 -0.2980
  395SOL    HW1 1184   1.497   1.207   1.202 -0.3241  1.2825 -1.5834
  395SOL    HW2 1185   1.527   1.042   1.170 -1.7507 -0.2458  0.3576
  396SOL     OW 1186   1.740   0.735   0.115  0.4903  0.3840  0.3543
  396SOL    HW1 1187   1.714   0.662   0.045 -0.9462 -1.6232  0.8854
  396SOL    HW2 1188   1.710   0.826   0.082  0.6778 -3.1065 -0.4146
  397SOL     OW 1189   3.072   0.997   2.817  0.0186 -0.1936  1.0560
  397SOL    HW1 1190   3.011   0.922   2.787  2.3214  2.6978  0.6663
  397SOL    HW2 1191   0.074   0.992   2.761  0.5250 -1.9663 -1.9568
  398SOL     OW 1192   1.155   0.155   0.002 -0.9106  0.3236 -0.2730
  398SOL    HW1 1193   1.218   0.151   0.084 -0.5137 -0.7443  4.6639
  398SOL    HW2 1194   1.168   0.075   3.025  0.4663 -1.4582  0.9191
  399SOL     OW 1195   2.195   2.863   2.115  0.5308 -0.0144 -0.0302
  399SOL    HW1 1196   2.294   2.831   2.099 -0.1004 -1.6416 -0.5481
  399SOL    HW2 1197   2.136   2.833   2.034 -0.2239  0.7228 -1.7777
  400SOL     OW 1198   2.970   1.639   2.412 -0.4608 -0.1801  0.3771
  400SOL    HW1 1199   3.040   1.657   2.486  0.0288 -0.4441 -1.6947
  400SOL    HW2 1200   2.888   1.617   2.467  1.7503 -0.8359  0.7638
  401SOL     OW 1201   0.427   0.190   2.789  0.0590 -0.5835  0.1076
  401SOL    HW1 1202   0.471   0.243   2.867  1.2536  1.0077  0.2214
  401SOL    HW2 1203   0.500   0.174   2.719 -0.9593 -0.1228 -2.0039
  402SOL     OW 1204   0.245   2.457   1.769  0.0982  0.0722 -0.3081
  402SOL    HW1 1205   0.289   2.540   1.732 -1.1720  0.3751  0.9684
  402SOL    HW2 1206   0.315   2.400   1.818 -1.1870 -0.8525  2.9962
  403SOL     OW 1207   0.895   1.339   1.415 -0.8567  0.0850 -0.3817
  403SOL    HW1 1208   0.855   1.250   1.434 -0.0348  2.8620 -0.7478
  403SOL    HW2 1209   0.917   1.388   1.500  0.7243 -0.5186 -0.6961
  404SOL     OW 1210   2.676   2.626   1.658  0.3732 -0.0509 -0.6262
  404SOL    HW1 1211   2.585   2.670   1.650  0.0337  1.5370  1.0349
  404SOL    HW2 1212   2.720   2.640   1.572 -3.0791 -5.1039  1.0492
  405SOL     OW 1213   3.031   0.607   2.091 -0.1363 -0.0672 -0.5209
  405SOL    HW1 1214   2.937   0.578   2.127 -1.7038 -0.3930 -0.0290
  405SOL    HW2 1215   0.014   0.549   2.133 -0.7247  3.8487 -0.7538
  406SOL     OW 1216   1.450   2.550   2.615  0.0717 -0.0934 -0.5921
  406SOL    HW1 1217   1.406   2.510   2.700 -0.8133  1.6938 -0.0941
  406SOL    HW2 1218   1.530   2.497   2.577 -1.0288 -0.2692  1.0428
  407SOL     OW 1219   1.754   1.872   1.043 -0.3848  0.6014  0.1900
  407SOL    HW1 1220   1.818   1.857   1.116 -0.3572  2.0905 -1.9190
  407SOL    HW2 1221   1.769   1.809   0.965 -0.8135  1.4845  0.6083
  408SOL     OW 1222   0.634   0.275   2.113 -0.0521 -0.5574 -0.3169
  408SOL    HW1 1223   0.621   0.219   2.030  0.0536  1.9652 -0.8726
  408SOL    HW2 1224   0.739   0.288   2.127 -2.0389  2.2833 -2.7274
  409SOL     OW 1225   2.528   2.193   0.492 -0.3515  0.1412  0.1043
  409SOL    HW1 1226   2.484   2.121   0.549 -0.5030  0.2828 -1.2544
  409SOL    HW2 1227   2.581   2.150   0.416  1.3413  0.6579 -0.5988
  410SOL     OW 1228   2.050   1.698   0.283  0.0829  0.0501 -0.4875
  410SOL    HW1 1229   2.145   1.663   0.279 -1.8398 -0.6746 -2.9602
  410SOL    HW2 1230   2.054   1.775   0.346  0.5296 -0.9274  0.1623
  411SOL     OW 1231   0.026   0.707   0.532  0.0669  0.1301 -0.4186
  411SOL    HW1 1232   0.113   0.704   0.585  1.0247  2.7214 -1.2694
  411SOL    HW2 1233   0.018   0.788   0.465 -1.8793  0.4295  0.2371
  412SOL     OW 1234   1.993   0.453   0.522  0.1361 -0.2376  0.2554
  412SOL    HW1 1235   1.947   0.455   0.615  0.5429 -0.7037 -3.9987
  412SOL    HW2 1236   1.981   0.546   0.486  1.2016  0.8768  2.2239
  413SOL     OW 1237   1.030   0.731   1.063 -0.0643  0.3624  0.6237
  413SOL    HW1 1238   1.023   0.727   1.164 -1.8288 -0.4167 -1.5130
  413SOL    HW2 1239   1.128   0.723   1.029 -1.0086  1.9024 -0.6135
  414SOL     OW 1240   0.315   1.727   3.012  0.0488  0.1198  0.2931
  414SOL    HW1 1241   0.220   1.694   3.034  0.6478  1.3776 -3.7582
  414SOL    HW2 1242   0.343   1.803   3.078  0.3652 -0.8873 -1.0925
  415SOL     OW 1243   0.341   1.962   0.057 -0.2721 -0.1985  0.3624
  415SOL    HW1 1244   0.404   2.028   0.103  1.0320 -0.0818  2.6542
  415SOL    HW2 1245   0.279   2.007   3.075 -3.1642  0.8274  0.1454
  416SOL     OW 1246   1.556   0.548   0.413 -0.3692 -0.2554  0.1936
  416SOL    HW1 1247   1.604   0.636   0.405 -0.7726  2.6897 -0.4289
  416SOL    HW2 1248   1.490   0.548   0.489 -1.2259  1.5206  0.0782
  417SOL     OW 1249   0.395   0.910   0.634 -0.1725  0.5058 -0.4960
  417SOL    HW1 1250   0.349   0.930   0.723 -2.1054 -0.1968 -0.8730
  417SOL    HW2 1251   0.492   0.914   0.659 -0.6747  2.0513  1.9996
  418SOL     OW 1252   2.450   1.154   2.670  0.3412 -0.0153  0.2321
  418SOL    HW1 1253   2.400   1.236   2.689  1.9573 -0.3088 -0.5849
  418SOL    HW2 1254   2.409   1.080   2.724 -2.2175  2.5176  2.0953
  419SOL     OW 1255   0.225   0.405   0.285 -0.0563 -0.2143 -0.4780
  419SOL    HW1 1256   0.282   0.474   0.336 -1.6655  2.1238 -1.2360
  419SOL    HW2 1257   0.266   0.312   0.272 -0.8740  2.7442 -0.8951
  420SOL     OW 1258   0.232   1.710   0.882 -0.1490  0.2855  0.4096
  420SOL    HW1 1259   0.289   1.654   0.937 -2.3212  0.0657  1.2260
  420SOL    HW2 1260   0.288   1.751   0.809 -1.1228 -1.0571  1.3973
  421SOL     OW 1261   0.381   2.085   0.447  0.3256  0.3044  0.0782
  421SOL    HW1 1262   0.463   2.126   0.409 -0.5236  0.4802  1.5676
  421SOL    HW2 1263   0.365   2.100   0.544  1.5857 -1.1190 -2.2824
  422SOL     OW 1264   2.923   0.681   1.348 -0.5080  0.5598  0.4843
  422SOL    HW1 1265   3.014   0.648   1.330  1.6165  0.7091 -0.6705
  422SOL    HW2 1266   2.913   0.705   1.444 -0.7917  1.0044 -2.2719
  423SOL     OW 1267   1.773   1.718   0.817  0.4751  0.7805 -0.5554
  423SOL    HW1 1268   1.818   1.640   0.867  0.4215 -0.9636  1.0605
  423SOL    HW2 1269   1.772   1.691   0.715 -1.8195  0.9999 -3.5539
  424SOL     OW 1270   1.795   1.045   0.393  0.1222 -0.3652  0.5846
  424SOL    HW1 1271   1.875   1.108   0.376 -0.2431  0.0482 -0.6965
  424SOL    HW2 1272   1.708   1.103   0.398 -3.7613  0.8979 -1.3605
  425SOL     OW 1273   0.038   2.896   2.102 -0.2624 -0.0368 -0.3512
  425SOL    HW1 1274   0.051   3.002   2.110 -1.5872  0.3782  0.6148
  425SOL    HW2 1275   3.069   2.877   2.183  0.6043 -1.0286 -1.8176
  426SOL     OW 1276   2.369   2.721   2.891 -0.3321 -0.5003  0.0482
  426SOL    HW1 1277   2.457   2.711   2.939 -0.0139 -1.2535 -0.7307
  426SOL    HW2 1278   2.331   2.819   2.894 -0.2301  3.0207  1.8411
  427SOL     OW 1279   0.929   0.989   2.544  0.2635 -0.2634  0.2798
  427SOL    HW1 1280   0.881   0.938   2.620 -1.5459  1.5312 -1.9452
  427SOL    HW2 1281   1.014   0.944   2.517  2.3162 -1.1478 -1.7677
  428SOL     OW 1282   2.231   0.709   2.418  0.4910  0.2790 -0.6927
  428SOL    HW1 1283   2.320   0.756   2.429  0.7566 -0.6795 -0.5222
  428SOL    HW2 1284   2.153   0.768   2.455 -1.6371 -0.8255  1.0348
  429SOL     OW 1285   2.609   0.267   0.651  0.1080 -0.2885  0.2122
  429SOL    HW1 1286   2.608   0.205   0.572 -0.3316 -1.1215  0.3717
  429SOL    HW2 1287   2.514   0.291   0.674  2.7242  0.5615  1.0999
  430SOL     OW 1288   2.005   1.149   2.172  0.0605  0.3254 -0.2616
  430SOL    HW1 1289   2.036   1.111   2.266  2.3220 -1.3496  0.3501
  430SOL    HW2 1290   2.071   1.127   2.095 -0.7780  0.6533 -1.0773
  431SOL     OW 1291   2.970   2.150   1.312  0.4996  0.0575  0.2575
  431SOL    HW1 1292   3.011   2.240   1.318 -1.8425 -0.7432  1.9847
  431SOL    HW2 1293   2.938   2.117   1.403 -2.8104 -0.4768  1.0191
  432SOL     OW 1294   1.335   2.904   2.362  0.7003  0.0755 -0.0050
  432SOL    HW1 1295   1.315   2.988   2.413  0.4898 -1.5895  0.0572
  432SOL    HW2 1296   1.391   2.931   2.280 -0.1105 -0.9672  0.3058
  433SOL     OW 1297   1.536   2.707   1.590 -0.1488 -0.3350 -0.1171
  433SOL    HW1 1298   1.624   2.653   1.603 -0.9332 -1.3560  2.0595
  433SOL    HW2 1299   1.551   2.808   1.577 -0.4448  0.8098  0.2001
  434SOL     OW 1300   3.057   2.422   2.242  0.3352  0.1166 -0.0058
  434SOL    HW1 1301   0.000   2.463   2.331  0.6805  0.5208  0.9403
  434SOL    HW2 1302   3.078   2.489   2.172 -1.1422 -1.1431 -0.7687
  435SOL     OW 1303   3.034   1.984   0.191 -0.1269  0.5441 -0.0645
  435SOL    HW1 1304   3.033   1.943   0.098  1.5364  1.5073  2.9036
  435SOL    HW2 1305   0.034   1.962   0.231  0.2482  1.3092  0.9434
  436SOL     OW 1306   0.935   1.188   1.747  1.0928  0.5656 -0.0073
  436SOL    HW1 1307   0.955   1.090   1.717  0.7474  1.2071 -1.2711
  436SOL    HW2 1308   0.928   1.197   1.848 -1.0835 -0.3218 -0.4639
  437SOL     OW 1309   0.233   0.278   2.629  0.5932 -0.0465 -0.1154
  437SOL    HW1 1310   0.305   0.250   2.698 -0.6147 -1.0318 -2.1835
  437SOL    HW2 1311   0.198   0.195   2.582 -1.6035 -1.8577 -3.8466
  438SOL     OW 1312   0.638   1.769   1.712  0.7466 -0.0970  0.2221
  438SOL    HW1 1313   0.648   1.872   1.712 -2.6480 -0.0947  1.6079
  438SOL    HW2 1314   0.706   1.728   1.650 -3.7028  0.9414 -1.4443
  439SOL     OW 1315   1.841   0.935   2.944  0.1160  0.1867  0.2608
  439SOL    HW1 1316   1.771   0.971   3.009  3.2859 -0.8072 -0.7345
  439SOL    HW2 1317   1.909   0.896   3.001 -2.8224  0.4922  3.3445
  440SOL     OW 1318   0.869   0.892   0.061 -0.5918 -0.4134 -0.0407
  440SOL    HW1 1319   0.951   0.892   0.124  0.1208  1.1669 -2.0663
  440SOL    HW2 1320   0.781   0.922   0.105  1.0337  0.3041  1.8478
  441SOL     OW 1321   0.334   2.684   1.647 -0.7982  0.5578  0.8053
  441SOL    HW1 1322   0.365   2.647   1.556  0.1059 -2.0371 -2.4237
  441SOL    HW2 1323   0.331   2.782   1.659 -1.5961  1.9069  0.0850
  442SOL     OW 1324   2.370   2.258   0.851  0.3475 -0.3491  0.4126
  442SOL    HW1 1325   2.313   2.179   0.881  0.4192 -3.1593  1.3842
  442SOL    HW2 1326   2.313   2.339   0.846 -0.2476 -2.4862  1.2691
  443SOL     OW 1327   2.601   1.106   2.434 -0.2565  0.5223 -0.2013
  443SOL    HW1 1328   2.547   1.109   2.519 -0.3069 -0.1288  1.0454
  443SOL    HW2 1329   2.571   1.159   2.354  0.0458 -0.4809 -0.0660
  444SOL     OW 1330   1.158   0.823   2.779  0.0244 -0.1794 -0.2391
  444SOL    HW1 1331   1.200   0.748   2.831  0.9857 -1.2343  1.9566
  444SOL    HW2 1332   1.075   0.863   2.827  0.0680 -1.6406  2.6239
  445SOL     OW 1333   2.319   2.772   1.797 -0.0267 -0.3885  0.5319
  445SOL    HW1 1334   2.367   2.755   1.885  1.4519 -0.7100 -1.8624
  445SOL    HW2 1335   2.292   2.684   1.753  1.2613  0.7387  3.6056
  446SOL     OW 1336   2.768   2.034   0.397  0.3232  0.6688  0.7241
  446SOL    HW1 1337   2.854   2.004   0.353  2.4938 -1.2446  0.0927
  446SOL    HW2 1338   2.783   2.051   0.491 -1.2908  2.3739  0.2388
  447SOL     OW 1339   1.051   2.457   1.553 -0.2149  0.7623 -0.3737
  447SOL    HW1 1340   1.098   2.502   1.637  0.8683 -1.4877  1.1422
  447SOL    HW2 1341   0.979   2.522   1.521  1.2127  2.3940 -0.7733
  448SOL     OW 1342   1.689   1.493   1.994 -0.2677  0.2987  0.3568
  448SOL    HW1 1343   1.641   1.527   1.916  0.3184 -0.5642  0.6099
  448SOL    HW2 1344   1.633   1.431   2.049 -0.2432 -3.8526 -1.1316
  449SOL     OW 1345   0.129   1.949   2.279 -0.3478 -0.4523  0.0508
  449SOL    HW1 1346   0.077   2.034   2.266  0.6803  3.3692  4.0309
  449SOL    HW2 1347   0.190   1.931   2.199 -2.5786 -0.6369  0.6952
  450SOL     OW 1348   2.719   1.687   2.579  0.1432  0.0116  0.0625
  450SOL    HW1 1349   2.649   1.611   2.594  0.2713 -2.2641 -1.3689
  450SOL    HW2 1350   2.679   1.765   2.523  0.6040 -0.3602  0.4042
  451SOL     OW 1351   2.137   0.541   1.493 -0.0384  0.0111 -0.3757
  451SOL    HW1 1352   2.214   0.571   1.430 -0.0041  0.5828 -2.8654
  451SOL    HW2 1353   2.123   0.438   1.505  1.0782 -0.5570 -0.2053
  452SOL     OW 1354   0.932   1.690   1.140 -0.4456 -0.2454 -0.2235
  452SOL    HW1 1355   0.908   1.748   1.222 -0.1994  0.6458 -1.1694
  452SOL    HW2 1356   0.920   1.590   1.162 -0.9095  0.7251 -0.7592
  453SOL     OW 1357   1.245   2.100   0.746 -0.1812 -0.1100 -0.3580
  453SOL    HW1 1358   1.330   2.124   0.795 -0.9756 -0.0845 -0.5048
  453SOL    HW2 1359   1.211   2.187   0.706  2.0156  0.0319  0.1427
  454SOL     OW 1360   0.265   1.090   0.470 -0.6278  0.2449 -0.2825
  454SOL    HW1 1361   0.324   1.015   0.502  0.8594 -1.4078  1.2296
  454SOL    HW2 1362   0.172   1.072   0.500  1.8010  1.2936 -0.5022
  455SOL     OW 1363   0.915   0.989   0.442 -0.1912 -0.6900  0.2688
  455SOL    HW1 1364   0.965   0.934   0.368 -0.5375 -1.6646 -1.7622
  455SOL    HW2 1365   0.968   1.078   0.451  1.7121  3.8554  0.5342
  456SOL     OW 1366   2.078   2.330   1.091 -0.1490 -0.4165 -0.6243
  456SOL    HW1 1367   2.021   2.306   1.170 -0.9074  2.9064  1.2227
  456SOL    HW2 1368   2.086   2.432   1.092  1.3285 -0.1365 -1.0996
  457SOL     OW 1369   1.402   3.087   2.772 -0.1194  0.6295  0.4891
  457SOL    HW1 1370   1.403   3.002   2.720  0.5658  1.8915 -1.5269
  457SOL    HW2 1371   1.331   3.082   2.843  4.7379  0.4612 -1.7794
  458SOL     OW 1372   2.523   0.287   0.061  0.1103 -0.6626 -0.0994
  458SOL    HW1 1373   2.491   0.373   0.104  2.0903 -1.0432  1.9459
  458SOL    HW2 1374   2.530   0.215   0.132  0.7854  0.1776  2.3177
  459SOL     OW 1375   2.301   0.323   2.267 -0.2627  0.0591  0.3518
  459SOL    HW1 1376   2.231   0.397   2.253 -2.5501  0.9523 -0.6217
  459SOL    HW2 1377   2.389   0.358   2.304  1.8456 -1.0807  0.4972
  460SOL     OW 1378   2.958   0.751   2.767 -0.1812 -0.3194 -0.0329
  460SOL    HW1 1379   2.984   0.670   2.708 -1.2710 -1.7377 -0.6209
  460SOL    HW2 1380   2.886   0.726   2.834 -1.0462  1.0722 -1.5123
  461SOL     OW 1381   2.947   2.227   0.891  0.0171  0.5221 -0.3725
  461SOL    HW1 1382   3.040   2.211   0.851  1.3611  0.9889 -2.2940
  461SOL    HW2 1383   2.925   2.326   0.883 -1.2075  1.3244  0.2165
  462SOL     OW 1384   0.065   0.180   0.989  0.5741  0.2364 -0.2031
  462SOL    HW1 1385   3.079   0.173   0.915 -2.6001 -1.6813 -2.5398
  462SOL    HW2 1386   0.029   0.222   1.073 -0.1522  1.8517 -1.3965
  463SOL     OW 1387   2.069   1.355   0.203  0.1443  0.2252  0.0553
  463SOL    HW1 1388   2.061   1.454   0.233  0.6788  0.2647 -0.8995
  463SOL    HW2 1389   2.102   1.357   0.109 -2.2868  2.2370  0.3305
  464SOL     OW 1390   0.866   2.890   1.383  0.3117  0.5404  0.1944
  464SOL    HW1 1391   0.943   2.954   1.348  0.8375  0.5161 -4.3075
  464SOL    HW2 1392   0.801   2.870   1.309 -0.8232  0.6784  0.5465
  465SOL     OW 1393   1.401   0.289   1.502  0.2869 -0.2380 -0.2256
  465SOL    HW1 1394   1.461   0.348   1.560  1.4814 -0.8693 -0.5558
  465SOL    HW2 1395   1.326   0.250   1.559  1.1526  2.5105 -0.0532
  466SOL     OW 1396   1.622   2.318   1.960 -0.4116  0.5843  0.1988
  466SOL    HW1 1397   1.720   2.337   1.983  2.8443  3.1754  0.0907
  466SOL    HW2 1398   1.562   2.396   1.997  0.3752  5.4591 -0.5289
  467SOL     OW 1399   0.608   2.476   1.505  0.0056  0.2557 -0.5167
  467SOL    HW1 1400   0.525   2.529   1.483  1.3157  1.8033  0.5708
  467SOL    HW2 1401   0.694   2.524   1.477  1.2506  0.6885 -0.4749
  468SOL     OW 1402   2.654   1.525   2.141 -0.0570 -0.2080  0.3797
  468SOL    HW1 1403   2.736   1.511   2.084  1.6724 -0.1968  0.6064
  468SOL    HW2 1404   2.659   1.615   2.195  0.2221  0.2910  2.1068
  469SOL     OW 1405   0.931   1.994   0.721 -0.2361 -0.1279  0.6189
  469SOL    HW1 1406   0.893   2.089   0.740  0.5008 -1.9592  0.4008
  469SOL    HW2 1407   0.913   1.925   0.795  3.5737  0.6179 -0.3745
  470SOL     OW 1408   2.153   1.080   2.382 -0.4564 -0.3458  0.2098
  470SOL    HW1 1409   2.234   1.063   2.314 -0.1038 -0.3527 -2.2439
  470SOL    HW2 1410   2.148   1.008   2.453 -0.5784  1.7523  1.7408
  471SOL     OW 1411   0.213   2.531   0.040  0.0432 -0.2244 -0.0891
  471SOL    HW1 1412   0.174   2.611   3.084  0.7618  0.2977 -0.6559
  471SOL    HW2 1413   0.226   2.464   3.055 -1.2968 -0.4178  1.2875
  472SOL     OW 1414   0.274   2.669   2.076 -0.2332  0.2070 -0.1635
  472SOL    HW1 1415   0.184   2.712   2.067  0.4886  1.2196 -0.9700
  472SOL    HW2 1416   0.342   2.721   2.023  3.0790  0.6205  0.0328
  473SOL     OW 1417   0.505   2.913   0.190 -0.0946 -0.7627  0.0903
  473SOL    HW1 1418   0.410   2.900   0.159  0.6606  0.0875 -1.4587
  473SOL    HW2 1419   0.553   2.980   0.136 -3.5573 -0.9717  0.7590
  474SOL     OW 1420   1.931   3.062   1.051 -0.1773 -0.2329 -0.0911
  474SOL    HW1 1421   1.942   3.032   0.955 -0.1941 -0.0921 -0.0199
  474SOL    HW2 1422   2.016   3.037   1.099  0.2853  1.1280 -3.9599
  475SOL     OW 1423   1.538   2.970   1.540  0.6418  0.1975  0.2758
  475SOL    HW1 1424   1.613   3.031   1.578  3.8750  2.3114  0.2139
  475SOL    HW2 1425   1.499   3.009   1.459 -0.9029 -2.4638 -0.5436
  476SOL     OW 1426   0.589   1.516   0.819  0.0849  0.7951 -0.3086
  476SOL    HW1 1427   0.552   1.556   0.907 -0.9090 -2.1385  0.1810
  476SOL    HW2 1428   0.653   1.439   0.829 -2.7362  0.4969  2.0294
  477SOL     OW 1429   0.372   2.113   0.722 -0.5452 -0.3076  0.1355
  477SOL    HW1 1430   0.381   2.011   0.741  1.5337 -2.2650  2.2607
  477SOL    HW2 1431   0.443   2.156   0.780  0.3106 -0.3296  0.0316
  478SOL     OW 1432   3.079   2.532   2.474 -0.0059 -0.2501 -0.5100
  478SOL    HW1 1433   3.045   2.623   2.510 -1.7910  1.8772 -2.9483
  478SOL    HW2 1434   3.072   2.460   2.549 -0.6518  0.3752 -2.3086
  479SOL     OW 1435   0.052   0.473   1.396  0.3332 -0.0907 -0.2434
  479SOL    HW1 1436   0.144   0.447   1.372 -0.2970 -1.2703  0.7528
  479SOL    HW2 1437   0.041   0.498   1.491  0.4606 -0.1322 -2.4609
  480SOL     OW 1438   2.552   2.573   3.059  0.1056  0.6193  0.3691
  480SOL    HW1 1439   2.592   2.482   3.086 -0.0331  0.0413  2.5777
  480SOL    HW2 1440   2.475   2.596   0.037 -0.4603  0.5495  1.5619
  481SOL     OW 1441   2.202   1.865   1.848  0.4476  0.0304 -0.2452
  481SOL    HW1 1442   2.215   1.923   1.932 -1.0469  0.2902 -0.8581
  481SOL    HW2 1443   2.231   1.923   1.768 -0.1058  3.3343 -1.6589
  482SOL     OW 1444   1.801   2.029   2.401 -0.4695  0.3237  0.3075
  482SOL    HW1 1445   1.904   2.041   2.384  0.8018  0.6216  1.3037
  482SOL    HW2 1446   1.763   1.940   2.369 -0.3379 -0.6889 -1.5922
  483SOL     OW 1447   0.927   1.202   2.018 -0.1635  0.1134 -0.1007
  483SOL    HW1 1448   0.912   1.101   2.017 -1.2219 -2.6887 -0.4196
  483SOL    HW2 1449   0.943   1.228   2.115  0.4977 -0.7609 -3.2781
  484SOL     OW 1450   0.308   0.456   1.284  0.1789  0.1964  0.1286
  484SOL    HW1 1451   0.410   0.433   1.270  3.7925 -3.1443  0.2097
  484SOL    HW2 1452   0.282   0.490   1.189  1.2457  0.0962 -3.4190
  485SOL     OW 1453   2.194   1.023   0.127 -0.3598  0.8055 -0.2467
  485SOL    HW1 1454   2.289   0.997   0.097  2.7720 -0.5118 -0.5611
  485SOL    HW2 1455   2.194   1.040   0.225  0.4165 -2.0974 -0.4649
  486SOL     OW 1456   1.524   0.313   2.176 -0.0976  0.0779 -0.3890
  486SOL    HW1 1457   1.574   0.235   2.141 -0.9383  3.4648 -1.7635
  486SOL    HW2 1458   1.546   0.321   2.272  5.1054 -0.0925 -0.9331
  487SOL     OW 1459   0.864   2.075   1.388  0.0309  0.0861  0.0563
  487SOL    HW1 1460   0.774   2.112   1.435 -3.3843  0.5998  1.4873
  487SOL    HW2 1461   0.944   2.109   1.441  2.9970 -0.1772  2.2072
  488SOL     OW 1462   2.211   1.428   3.064  0.0463 -0.1762 -0.1491
  488SOL    HW1 1463   2.294   1.368   3.054  1.7403  0.4281  0.5108
  488SOL    HW2 1464   2.237   1.528   3.088  1.2069  1.2583 -0.6093
  489SOL     OW 1465   2.208   2.823   0.717  0.0807 -0.4367  0.3339
  489SOL    HW1 1466   2.164   2.735   0.701  5.0158  2.0444 -1.0959
  489SOL    HW2 1467   2.254   2.862   0.635 -1.0081  1.5560 -0.0628
  490SOL     OW 1468   0.895   2.549   0.068 -0.1793 -0.3084  0.1281
  490SOL    HW1 1469   0.819   2.480   0.055 -1.7628 -0.4212  1.6489
  490SOL    HW2 1470   0.937   2.540   0.160 -1.2462 -3.2494  2.1157
  491SOL     OW 1471   1.090   1.124   1.303 -0.1936  0.1697 -0.5920
  491SOL    HW1 1472   0.997   1.084   1.325 -4.6778 -1.5014 -2.4257
  491SOL    HW2 1473   1.086   1.160   1.205 -0.6981 -1.4530 -0.5007
  492SOL     OW 1474   1.131   0.261   2.378 -0.0774 -0.8793 -0.2112
  492SOL    HW1 1475   1.181   0.249   2.291  0.1023  1.5324  3.1822
  492SOL    HW2 1476   1.192   0.255   2.457 -3.8892 -2.2249 -4.4149
  493SOL     OW 1477   1.950   2.019   0.401  0.3063 -0.2832 -0.1697
  493SOL    HW1 1478   1.941   2.118   0.364  0.2854  0.0179  1.1101
  493SOL    HW2 1479   1.874   1.965   0.366 -0.5472  2.1292  0.3235
  494SOL     OW 1480   0.774   1.654   0.687 -0.0304  0.0642 -1.0379
  494SOL    HW1 1481   0.728   1.681   0.604  1.2951  0.2659  2.5927
  494SOL    HW2 1482   0.713   1.607   0.757  0.3056  0.6025 -0.1755
  495SOL     OW 1483   2.626   2.329   0.715 -0.4187 -0.2487  0.0115
  495SOL    HW1 1484   2.628   2.283   0.622 -0.5638  1.4873 -0.2334
  495SOL    HW2 1485   2.556   2.281   0.774  2.0679  0.3005  3.1110
  496SOL     OW 1486   2.530   0.055   1.680 -0.2230  0.4385  0.6595
  496SOL    HW1 1487   2.631   0.073   1.681 -0.8899  0.4631  1.8261
  496SOL    HW2 1488   2.484   0.107   1.605  2.5230 -1.0784  0.2290
  497SOL     OW 1489   2.514   0.838   2.409  0.1497 -0.4120 -0.3350
  497SOL    HW1 1490   2.459   0.885   2.337  0.3249  1.5108  0.1427
  497SOL    HW2 1491   2.591   0.897   2.442 -0.0795  1.9916 -0.1226
  498SOL     OW 1492   0.439   2.384   1.180  0.4523 -0.1015  0.4449
  498SOL    HW1 1493   0.435   2.419   1.086 -0.6541 -1.3312 -0.2353
  498SOL    HW2 1494   0.379   2.296   1.189  0.2385 -1.1695 -2.1583
  499SOL     OW 1495   1.137   2.531   1.794 -0.3132  0.4162 -0.4825
  499SOL    HW1 1496   1.137   2.627   1.830  1.4290  0.6123 -0.9629
  499SOL    HW2 1497   1.235   2.511   1.755  1.2512 -0.2223  0.8759
  500SOL     OW 1498   0.755   1.943   0.102 -0.4178  0.2934 -0.1286
  500SOL    HW1 1499   0.781   1.942   3.088  0.5954 -1.3974 -3.5950
  500SOL    HW2 1500   0.745   1.851   0.148  0.6246 -0.8575  1.2443
  501SOL     OW 1501   1.978   0.208   1.198 -0.2808 -0.2288 -0.1965
  501SOL    HW1 1502   1.947   0.132   1.142  2.2215  1.9974  3.5332
  501SOL    HW2 1503   2.001   0.171   1.293  3.0869 -1.1434  0.9179
  502SOL     OW 1504   2.924   0.544   1.840  0.2785  0.3944  0.0978
  502SOL    HW1 1505   2.957   0.451   1.817  2.2505  2.0620  3.3618
  502SOL    HW2 1506   2.971   0.579   1.926 -0.6083 -2.4225 -1.5744
  503SOL     OW 1507   2.709   1.028   1.752  0.7498  0.5593 -0.3949
  503SOL    HW1 1508   2.787   1.065   1.707 -2.7580 -5.2874  0.2914
  503SOL    HW2 1509   2.733   1.019   1.850  3.6141  1.1619 -0.2526
  504SOL     OW 1510   1.634   0.908   1.941  0.2368 -0.2397  0.2665
  504SOL    HW1 1511   1.713   0.875   1.991 -2.0409  3.0516 -1.1369
  504SOL    HW2 1512   1.556   0.851   1.968  0.4710  1.3938 -0.1069
  505SOL     OW 1513   0.904   0.036   1.787 -0.1888 -0.2407 -0.4529
  505SOL    HW1 1514   0.866   3.067   1.860 -1.0565 -0.1519  1.4113
  505SOL    HW2 1515   1.005   0.034   1.785  3.2853 -1.1950  0.9582
  506SOL     OW 1516   0.192   0.199   0.687  0.2948 -0.1258 -0.2336
  506SOL    HW1 1517   0.286   0.238   0.668  0.8337 -0.8468 -0.2193
  506SOL    HW2 1518   0.173   0.170   0.782 -1.9457 -0.1064 -1.8100
  507SOL     OW 1519   2.314   0.552   3.008  0.0426 -0.0773  0.2707
  507SOL    HW1 1520   2.344   0.543   0.016 -1.3019  0.8507 -2.1029
  507SOL    HW2 1521   2.212   0.553   2.999 -2.2121  0.1163 -0.2156
  508SOL     OW 1522   1.931   0.339   2.154 -0.2124  0.0963 -0.6305
  508SOL    HW1 1523   1.950   0.409   2.227  1.5710  0.8482 -2.0728
  508SOL    HW2 1524   1.948   0.374   2.061  0.6264  0.9324  1.2352
  509SOL     OW 1525   1.543   1.454   1.506  0.3273 -0.1931  0.0458
  509SOL    HW1 1526   1.596   1.415   1.580 -0.3310  0.5229 -0.8777
  509SOL    HW2 1527   1.463   1.392   1.490 -2.2998 -1.0961 -1.5653
  510SOL     OW 1528   2.727   1.342   0.792 -0.1197 -0.1649 -0.4990
  510SOL    HW1 1529   2.639   1.394   0.803 -0.5419  2.8716 -3.3576
  510SOL    HW2 1530   2.778   1.330   0.879  1.6783 -0.0599 -1.2812
  511SOL     OW 1531   1.942   1.790   1.218  0.4928 -0.2625 -0.2404
  511SOL    HW1 1532   1.939   1.693   1.252 -0.8606 -2.3808  1.5622
  511SOL    HW2 1533   1.932   1.860   1.287 -0.3897 -1.2025 -1.5701
  512SOL     OW 1534   0.195   1.700   0.507 -0.4451  0.1251  0.5325
  512SOL    HW1 1535   0.261   1.629   0.474 -0.5679  1.1189  0.0557
  512SOL    HW2 1536   0.183   1.768   0.432  0.0241  1.2639  1.1438
  513SOL     OW 1537   2.931   2.223   0.072  0.4120  0.1334 -0.1822
  513SOL    HW1 1538   2.929   2.132   0.111 -1.5833  1.7223 -0.5631
  513SOL    HW2 1539   3.021   2.263   0.104 -2.6369 -2.3746 -0.8518
  514SOL     OW 1540   2.619   1.917   2.450  1.0013  0.2077 -0.2800
  514SOL    HW1 1541   2.689   1.975   2.500 -0.3133  1.4554  0.3644
  514SOL    HW2 1542   2.529   1.963   2.466  1.1887  3.1033  2.6807
  515SOL     OW 1543   1.866   1.450   0.667 -0.5278  0.2745  0.0121
  515SOL    HW1 1544   1.779   1.452   0.621  0.4863 -2.9323  4.5584
  515SOL    HW2 1545   1.862   1.458   0.771  0.9679  2.2365  0.5829
  516SOL     OW 1546   1.900   2.921   0.415 -0.1969 -0.0939 -0.4743
  516SOL    HW1 1547   1.901   2.965   0.507 -0.6188  2.7435  0.7089
  516SOL    HW2 1548   1.926   2.823   0.417 -0.9596 -1.4420  1.3673
  517SOL     OW 1549   0.756   1.955   2.329  0.4524  0.0880  0.3180
  517SOL    HW1 1550   0.773   1.891   2.254 -1.2565 -0.2542  2.4663
  517SOL    HW2 1551   0.676   1.926   2.385  1.5294  0.0526  2.5545
  518SOL     OW 1552   0.564   0.474   1.955  0.5512 -0.3525  0.1142
  518SOL    HW1 1553   0.532   0.554   2.007  2.0782 -3.1150  1.0343
  518SOL    HW2 1554   0.613   0.407   2.016  0.4672 -0.3456  0.7963
  519SOL     OW 1555   0.229   1.235   0.238 -0.2108 -0.1260 -0.4049
  519SOL    HW1 1556   0.230   1.177   0.156 -2.1956  3.5471 -4.9416
  519SOL    HW2 1557   0.262   1.187   0.323  0.9099  1.3299  0.4568
  520SOL     OW 1558   2.819   1.696   1.533  0.1322  0.0019  0.2282
  520SOL    HW1 1559   2.760   1.667   1.610 -0.9585 -0.2253  1.9691
  520SOL    HW2 1560   2.796   1.791   1.510  1.3823 -2.5464  2.0172
  521SOL     OW 1561   0.471   2.580   2.415  0.7311  0.3141 -0.0259
  521SOL    HW1 1562   0.506   2.624   2.330 -0.9618  0.4796 -1.7651
  521SOL    HW2 1563   0.371   2.562   2.411 -2.0966  0.6539  0.3898
  522SOL     OW 1564   1.992   0.064   2.132 -0.5398  0.3820 -0.3550
  522SOL    HW1 1565   2.092   0.060   2.122  2.7368 -0.1843  0.8153
  522SOL    HW2 1566   1.962   0.159   2.141 -0.8775  1.0722  1.7054
  523SOL     OW 1567   1.726   1.782   1.757  0.4780  0.2987 -0.4617
  523SOL    HW1 1568   1.731   1.851   1.830  1.8843 -0.8993  0.1828
  523SOL    HW2 1569   1.642   1.721   1.772 -0.1032  0.7240  0.7499
  524SOL     OW 1570   0.624   2.920   0.435  0.1842 -0.0744 -0.3836
  524SOL    HW1 1571   0.579   2.905   0.345  1.2772 -0.8619  0.0129
  524SOL    HW2 1572   0.713   2.875   0.449  0.4754  0.1751  1.6612
  525SOL     OW 1573   3.086   0.468   0.425 -0.2234  0.0573 -0.2335
  525SOL    HW1 1574   0.017   0.558   0.473  0.1934  4.5543  1.2948
  525SOL    HW2 1575   0.083   0.440   0.373  0.8362 -3.2029 -0.4197
  526SOL     OW 1576   0.820   2.646   0.711  0.2771 -0.9934 -0.2614
  526SOL    HW1 1577   0.832   2.632   0.811 -1.7603 -1.3827  2.3542
  526SOL    HW2 1578   0.721   2.657   0.697  0.1819 -3.2275  2.6575
  527SOL     OW 1579   2.583   2.035   0.896  0.1852  0.1835  0.1136
  527SOL    HW1 1580   2.522   1.973   0.952  2.6249  3.3067 -0.2237
  527SOL    HW2 1581   2.644   2.093   0.948  0.2608 -3.8234 -4.9404
  528SOL     OW 1582   2.956   0.053   2.308  0.0821 -0.2836  0.0071
  528SOL    HW1 1583   2.895   0.109   2.240  2.3613  1.0173 -3.1677
  528SOL    HW2 1584   2.895   0.035   2.394 -1.6925  1.2649  0.9870
  529SOL     OW 1585   1.018   1.664   2.695  0.3195 -0.1688 -0.4829
  529SOL    HW1 1586   0.931   1.670   2.642  0.2320 -2.9104  1.0107
  529SOL    HW2 1587   1.074   1.591   2.659 -0.4283 -1.5613 -2.5039
  530SOL     OW 1588   1.741   1.082   2.756  0.6782 -0.1283  0.0314
  530SOL    HW1 1589   1.658   1.063   2.693 -0.0501 -1.6441 -0.9236
  530SOL    HW2 1590   1.759   1.009   2.823  0.1705 -1.1006  0.9558
  531SOL     OW 1591   0.515   1.499   2.545 -0.1501  0.0399 -0.3224
  531SOL    HW1 1592   0.456   1.554   2.485 -1.4921 -1.9506  2.6261
  531SOL    HW2 1593   0.598   1.450   2.498  2.7074 -2.2327 -0.7893
  532SOL     OW 1594   1.487   1.366   0.256 -0.1475 -0.2839 -0.3513
  532SOL    HW1 1595   1.439   1.376   0.166  0.2990  0.7282 -1.3386
  532SOL    HW2 1596   1.589   1.364   0.243 -0.1543  1.1408 -0.5623
  533SOL     OW 1597   0.516   0.218   2.361 -0.1796 -0.1515  0.2990
  533SOL    HW1 1598   0.554   0.234   2.267 -3.0958  2.0134  1.6587
  533SOL    HW2 1599   0.587   0.235   2.432  0.0195  3.3414 -0.1282
  534SOL     OW 1600   0.643   2.491   3.046  0.2459 -0.1539  0.1825
  534SOL    HW1 1601   0.549   2.449   3.038 -2.0528  2.1443 -1.7392
  534SOL    HW2 1602   0.638   2.581   0.006 -2.3556 -0.2186 -0.8968
  535SOL     OW 1603   0.171   3.065   0.526  0.2055 -0.0939  0.0391
  535SOL    HW1 1604   0.184   3.012   0.610  2.1677 -0.3776 -0.1961
  535SOL    HW2 1605   0.141   0.067   0.554 -1.3704 -1.0608  2.6862
  536SOL     OW 1606   0.153   1.182   2.031  0.2204  1.0701 -0.9524
  536SOL    HW1 1607   0.139   1.206   1.935  1.2725  0.6267  2.4275
  536SOL    HW2 1608   0.198   1.088   2.043 -1.1442  0.5807 -1.5522
  537SOL     OW 1609   1.178   2.835   1.451  0.1617 -0.0766 -0.1678
  537SOL    HW1 1610   1.123   2.922   1.452 -2.4168  1.5410  0.0908
  537SOL    HW2 1611   1.185   2.803   1.355  1.2618  0.4046  2.0079
  538SOL     OW 1612   0.016   1.987   0.500  0.0716  0.3386  0.5996
  538SOL    HW1 1613   0.064   1.899   0.486 -0.7591 -0.7718 -1.2825
  538SOL    HW2 1614   3.025   1.967   0.559  1.8049  2.8719  0.1803
  539SOL     OW 1615   2.778   0.808   2.188  0.1356  0.2275 -0.2938
  539SOL    HW1 1616   2.822   0.770   2.273  0.7545  0.8253  2.4136
  539SOL    HW2 1617   2.721   0.739   2.139 -0.3560 -0.6998  0.9728
  540SOL     OW 1618   1.487   0.984   2.286 -0.3516  0.9349  0.4544
  540SOL    HW1 1619   1.552   1.057   2.257  1.1276 -1.2474  1.4194
  540SOL    HW2 1620   1.399   1.022   2.306  0.6624 -1.5800 -3.0859
  541SOL     OW 1621   0.755   0.747   1.710  0.3914 -0.4002  0.2544
  541SOL    HW1 1622   0.800   0.684   1.772 -0.5735 -0.4152 -2.5351
  541SOL    HW2 1623   0.708   0.690   1.638  0.9129  1.7220 -2.5580
  542SOL     OW 1624   2.051   3.011   2.714  0.4816  0.1789  0.0075
  542SOL    HW1 1625   1.995   2.926   2.722  1.3424 -1.1700  0.2580
  542SOL    HW2 1626   2.042   3.053   2.621 -1.4159  2.1419  0.2505
  543SOL     OW 1627   0.936   0.053   0.165 -0.3187 -0.4154 -0.0661
  543SOL    HW1 1628   0.923   0.122   0.237  1.6683 -2.5344 -1.1997
  543SOL    HW2 1629   1.023   0.071   0.115 -1.6701 -0.0990  1.0637
  544SOL     OW 1630   2.674   1.629   1.792  0.1336  0.6419  0.2939
  544SOL    HW1 1631   2.666   1.529   1.785 -1.5110  1.5765  1.7217
  544SOL    HW2 1632   2.601   1.664   1.852 -0.1939  1.6499 -1.6924
  545SOL     OW 1633   2.081   2.142   1.716 -0.3117 -0.4284  0.1554
  545SOL    HW1 1634   2.169   2.099   1.681  2.2226  0.9937 -0.1222
  545SOL    HW2 1635   2.013   2.073   1.732  0.6993  1.0958 -2.2888
  546SOL     OW 1636   0.210   3.083   2.862 -0.0701  0.3279  0.4110
  546SOL    HW1 1637   0.303   0.044   2.864 -0.0977  0.6719 -0.5586
  546SOL    HW2 1638   0.150   0.031   2.790 -3.8547  0.0133 -1.6786
  547SOL     OW 1639   1.700   0.805   0.492  0.3025  0.0398  0.8625
  547SOL    HW1 1640   1.711   0.898   0.454 -1.0037  0.9887  2.7443
  547SOL    HW2 1641   1.693   0.810   0.593 -0.0292 -1.3431 -1.1882
  548SOL     OW 1642   2.019   1.435   2.253  0.0229 -0.3799  0.3614
  548SOL    HW1 1643   1.991   1.362   2.197  2.9643  2.9429  3.1789
  548SOL    HW2 1644   2.085   1.395   2.318 -0.1841 -0.6561 -2.9537
  549SOL     OW 1645   1.864   0.268   0.372 -0.2594 -0.5165 -0.2020
  549SOL    HW1 1646   1.898   0.330   0.446  0.2530  3.2959  0.7128
  549SOL    HW2 1647   1.929   0.272   0.294 -3.3129 -1.0360  1.2672
  550SOL     OW 1648   1.957   1.970   0.872  0.2135 -0.1101  0.0974
  550SOL    HW1 1649   1.879   1.936   0.927 -2.6498 -0.4578  2.6814
  550SOL    HW2 1650   1.956   1.935   0.775  0.8446 -1.9135 -1.5148
  551SOL     OW 1651   0.784   2.919   1.638 -0.3205 -0.1983  0.1262
  551SOL    HW1 1652   0.826   2.894   1.548 -1.1936 -0.6311  0.1676
  551SOL    HW2 1653   0.823   3.001   1.688  1.1495 -1.5099  0.5314
  552SOL     OW 1654   2.783   2.055   2.604  0.0139 -0.0511  0.2639
  552SOL    HW1 1655   2.777   2.083   2.702 -1.9231  0.7278 -1.5529
  552SOL    HW2 1656   2.876   2.048   2.566 -2.5375 -1.3305  1.2566
  553SOL     OW 1657   0.363   3.016   1.177 -0.2286  0.2316  0.8197
  553SOL    HW1 1658   0.407   2.981   1.262 -0.2498 -1.4806 -3.2064
  553SOL    HW2 1659   0.326   2.929   1.127 -0.5614 -2.5947 -0.0474
  554SOL     OW 1660   2.324   2.037   1.638  0.1932  0.0507  0.5017
  554SOL    HW1 1661   2.310   2.023   1.536  3.6114 -0.0795 -3.9870
  554SOL    HW2 1662   2.409   2.088   1.646 -1.1401 -0.3491  0.0973
  555SOL     OW 1663   1.250   2.260   1.908 -0.0665  0.5321  0.0396
  555SOL    HW1 1664   1.293   2.208   1.833  2.1823 -2.5053  1.4953
  555SOL    HW2 1665   1.158   2.294   1.883 -1.8656 -0.9097  1.1802
  556SOL     OW 1666   1.204   1.790   1.735  0.4209 -0.4920 -0.2029
  556SOL    HW1 1667   1.139   1.866   1.717 -1.6172 -1.9733 -3.1426
  556SOL    HW2 1668   1.266   1.782   1.653  2.3531  0.7439  0.0676
  557SOL     OW 1669   1.993   2.133   2.117  0.0649  0.0030  1.0267
  557SOL    HW1 1670   2.082   2.095   2.084  0.7119 -0.3246 -0.6802
  557SOL    HW2 1671   1.998   2.152   2.215 -2.4077 -0.5449  0.1612
  558SOL     OW 1672   0.462   2.843   1.922 -0.2790 -0.0391  0.6481
  558SOL    HW1 1673   0.534   2.809   1.861  0.6950 -0.1491  3.3159
  558SOL    HW2 1674   0.492   2.912   1.992  1.2917  0.7684  1.5358
  559SOL     OW 1675   2.319   3.087   1.081  0.5805 -0.1022  0.2970
  559SOL    HW1 1676   2.279   3.056   1.170 -1.3271  1.6955 -0.5369
  559SOL    HW2 1677   2.377   3.020   1.028  2.3064 -2.3597  0.5223
  560SOL     OW 1678   1.647   2.355   0.351  0.2365  0.1373 -0.0485
  560SOL    HW1 1679   1.568   2.290   0.367  0.0220  0.0740  0.6974
  560SOL    HW2 1680   1.668   2.407   0.435  1.5782 -0.4390  0.3373
  561SOL     OW 1681   1.037   0.398   0.078  0.5335 -0.3305 -0.2384
  561SOL    HW1 1682   1.069   0.328   0.009  0.1020  1.0149  2.0776
  561SOL    HW2 1683   1.010   0.482   0.025  0.1203 -1.2022 -0.3455
  562SOL     OW 1684   0.692   0.270   2.575 -0.5000  0.2509 -0.2493
  562SOL    HW1 1685   0.714   0.250   2.674 -0.8424 -1.9119  3.6838
  562SOL    HW2 1686   0.777   0.295   2.522  0.8191  0.6182 -0.6163
  563SOL     OW 1687   1.391   1.917   2.905  0.0612 -0.3794  0.1071
  563SOL    HW1 1688   1.447   1.991   2.942 -0.4492  1.1496  0.1675
  563SOL    HW2 1689   1.441   1.865   2.829 -1.5564 -1.9618 -1.6916
  564SOL     OW 1690   2.430   1.082   1.096  0.4309  0.1328 -0.2148
  564SOL    HW1 1691   2.524   1.098   1.131 -0.4918 -1.6988 -3.3043
  564SOL    HW2 1692   2.427   1.032   1.006  1.8040  1.2169 -0.7147
  565SOL     OW 1693   0.926   3.072   2.890 -0.3377 -0.1526 -0.6621
  565SOL    HW1 1694   0.889   2.984   2.929 -0.7475 -2.0193 -2.4128
  565SOL    HW2 1695   1.007   3.056   2.829 -0.5184 -0.8716 -1.2792
  566SOL     OW 1696   1.646   0.015   2.467  0.0443  0.3469 -0.1904
  566SOL    HW1 1697   1.742   3.083   2.435 -0.5375 -0.7743  0.1402
  566SOL    HW2 1698   1.609   3.021   2.516 -0.4711  0.4099  1.6251
  567SOL     OW 1699   2.043   1.642   0.595  0.4988  0.2353 -0.0105
  567SOL    HW1 1700   1.975   1.568   0.615  2.7114  1.0119 -1.2222
  567SOL    HW2 1701   2.131   1.598   0.571 -1.3263 -0.5427  3.0832
  568SOL     OW 1702   1.853   1.929   3.043 -0.5098 -0.1345 -0.6816
  568SOL    HW1 1703   1.858   1.862   0.032  0.1980 -0.8989  1.2010
  568SOL    HW2 1704   1.943   1.958   3.001 -0.4199  0.9875  1.0301
  569SOL     OW 1705   2.079   1.104   2.959 -0.3181 -0.3775  0.1307
  569SOL    HW1 1706   2.019   1.037   2.912  0.2165 -0.0181 -1.8799
  569SOL    HW2 1707   2.076   1.101   3.063  1.1317 -0.6146  2.6848
  570SOL     OW 1708   3.078   2.520   1.709 -0.4468  0.0161  0.3002
  570SOL    HW1 1709   3.083   2.604   1.654  0.1519 -1.9072 -0.2609
  570SOL    HW2 1710   0.085   2.483   1.726  1.2483 -2.9367  0.0528
  571SOL     OW 1711   0.467   1.066   1.778  0.1199 -0.4812 -0.0791
  571SOL    HW1 1712   0.522   1.022   1.850 -2.0089  0.5175 -0.0262
  571SOL    HW2 1713   0.516   1.140   1.733  0.6228  1.5341  0.5294
  572SOL     OW 1714   1.086   1.608   0.646 -0.0696  0.4570 -0.2850
  572SOL    HW1 1715   0.986   1.600   0.645 -0.0928 -1.0357 -0.3593
  572SOL    HW2 1716   1.111   1.653   0.558 -3.4410  2.9001  2.2474
  573SOL     OW 1717   1.109   1.983   3.029  0.7235  0.3668 -0.7118
  573SOL    HW1 1718   1.120   2.072   3.072 -0.3758 -1.6557 -1.1072
  573SOL    HW2 1719   1.199   1.944   3.011 -2.2771  0.1890 -1.4496
  574SOL     OW 1720   0.991   0.107   0.794  0.1191  0.0104 -0.1593
  574SOL    HW1 1721   0.908   0.067   0.756  0.9789  0.3641  0.7861
  574SOL    HW2 1722   0.973   0.136   0.891 -3.0719 -2.9174 -1.0371
  575SOL     OW 1723   0.627   1.024   1.475  0.1516 -0.0186  0.1800
  575SOL    HW1 1724   0.543   0.974   1.500  0.9818  1.9331  1.6781
  575SOL    HW2 1725   0.647   1.088   1.552  0.5606  0.7952  0.7562
  576SOL     OW 1726   1.965   3.015   1.639 -0.0593 -0.8079  0.1243
  576SOL    HW1 1727   2.035   3.009   1.714  0.1512 -0.5638  1.7750
  576SOL    HW2 1728   1.988   2.938   1.569  0.0308  0.1138 -2.0273
  577SOL     OW 1729   0.900   0.909   2.031  0.2157  0.2855  0.6057
  577SOL    HW1 1730   0.986   0.921   1.975 -3.1286  1.0075 -0.1235
  577SOL    HW2 1731   0.903   0.811   2.063 -0.5544 -0.1011  1.0644
  578SOL     OW 1732   2.113   0.504   2.662  0.1180  0.1010  0.6112
  578SOL    HW1 1733   2.133   0.413   2.621 -0.7317 -0.8912  2.4865
  578SOL    HW2 1734   2.107   0.573   2.589  0.4594 -3.0308  0.0449
  579SOL     OW 1735   2.224   2.544   1.722  0.2551 -0.3668 -0.5182
  579SOL    HW1 1736   2.226   2.487   1.805 -1.6057 -1.6730 -0.8196
  579SOL    HW2 1737   2.201   2.487   1.641  4.2135 -1.8252 -1.1420
  580SOL     OW 1738   2.342   1.381   2.783  0.2729  0.4271 -0.4554
  580SOL    HW1 1739   2.242   1.404   2.791  1.6682  1.5681  0.2514
  580SOL    HW2 1740   2.392   1.391   2.878  2.0047  0.5581  3.8672
  581SOL     OW 1741   1.422   1.116   2.773 -0.1939 -0.8274 -0.0050
  581SOL    HW1 1742   1.461   1.193   2.825  2.9209  0.5176 -0.0960
  581SOL    HW2 1743   1.321   1.121   2.783  1.9565 -1.7417  2.7483
  582SOL     OW 1744   1.023   1.623   1.868 -0.0301  0.2484  0.7336
  582SOL    HW1 1745   1.084   1.576   1.936 -1.9226  2.8846 -2.0306
  582SOL    HW2 1746   1.078   1.696   1.826  2.5242 -1.6245  0.6469
  583SOL     OW 1747   1.938   1.273   1.342 -0.8899  0.3531  0.0388
  583SOL    HW1 1748   1.846   1.236   1.352 -2.0703  1.2588 -0.6758
  583SOL    HW2 1749   1.923   1.376   1.333 -2.5591  0.5220  0.8608
  584SOL     OW 1750   1.703   2.481   0.599  0.5390 -0.6693 -0.1072
  584SOL    HW1 1751   1.611   2.474   0.646 -1.7815 -2.7396 -2.1270
  584SOL    HW2 1752   1.777   2.466   0.664 -0.8254  0.9301 -0.4654
  585SOL     OW 1753   1.910   2.790   2.738 -0.2854  0.0244 -0.3400
  585SOL    HW1 1754   1.815   2.817   2.710 -1.8214  4.5814  0.8372
  585SOL    HW2 1755   1.903   2.714   2.810  1.4537 -3.3929  3.6860
  586SOL     OW 1756   2.769   2.415   1.160 -0.1331  0.5027 -0.1080
  586SOL    HW1 1757   2.671   2.411   1.147  1.5312  1.4481 -1.5848
  586SOL    HW2 1758   2.819   2.329   1.135  0.7413 -1.3799 -0.7991
  587SOL     OW 1759   1.108   1.698   0.124 -0.0577  0.2807  0.2767
  587SOL    HW1 1760   1.053   1.775   0.081 -0.7222  0.6223 -0.0823
  587SOL    HW2 1761   1.186   1.666   0.068 -0.6380  1.2294 -0.5322
  588SOL     OW 1762   0.456   0.164   1.051 -0.0742  0.0510 -0.3254
  588SOL    HW1 1763   0.513   0.164   0.968 -0.4056  0.1003  3.6432
  588SOL    HW2 1764   0.466   0.069   1.090 -0.1689 -2.2154 -2.1098
  589SOL     OW 1765   0.933   0.280   0.319 -0.0430  0.0195 -0.5982
  589SOL    HW1 1766   0.889   0.357   0.371  1.0195  2.5116  1.8106
  589SOL    HW2 1767   1.001   0.313   0.251  0.9783 -1.6113 -1.5105
  590SOL     OW 1768   1.484   0.288   2.822  0.4178  0.6072  0.3157
  590SOL    HW1 1769   1.581   0.307   2.818 -0.4580 -4.0266 -2.7945
  590SOL    HW2 1770   1.453   0.186   2.832  0.1132 -2.8430  0.8985
  591SOL     OW 1771   3.030   2.140   2.258 -0.0586 -0.1189 -0.1681
  591SOL    HW1 1772   2.978   2.120   2.173 -1.2954 -2.1823 -1.8815
  591SOL    HW2 1773   3.057   2.239   2.252  1.2124 -0.8702 -1.1892
  592SOL     OW 1774   2.394   1.439   2.023 -0.1121  0.1491 -0.4083
  592SOL    HW1 1775   2.398   1.342   1.992 -0.6887 -0.9666  1.9147
  592SOL    HW2 1776   2.485   1.465   2.055  0.3273 -0.6066  0.6762
  593SOL     OW 1777   1.724   1.309   1.675  0.1514 -0.1317 -0.2919
  593SOL    HW1 1778   1.734   1.232   1.604  1.8860  1.0551 -0.3608
  593SOL    HW2 1779   1.688   1.270   1.762  3.3673  1.7858 -2.1602
  594SOL     OW 1780   2.682   1.209   0.095 -0.0576 -0.1340 -0.7593
  594SOL    HW1 1781   2.766   1.270   0.085 -0.5296  2.4438  2.3735
  594SOL    HW2 1782   2.690   1.116   0.054  2.0133  0.1048  0.5659
  595SOL     OW 1783   0.500   0.720   0.381 -0.1202  0.0016 -0.3266
  595SOL    HW1 1784   0.446   0.667   0.448  1.4721  1.3982 -3.4279
  595SOL    HW2 1785   0.556   0.798   0.421  0.5800  2.2553 -0.7914
  596SOL     OW 1786   0.489   1.195   1.331  0.0284 -0.1147 -0.0165
  596SOL    HW1 1787   0.422   1.251   1.388  0.7665  2.0428 -1.2610
  596SOL    HW2 1788   0.559   1.144   1.383 -1.1431 -0.0720  0.6738
  597SOL     OW 1789   1.052   2.126   0.966 -0.2484  0.1040 -0.0965
  597SOL    HW1 1790   1.071   2.045   1.019 -2.2896  3.6163 -1.2440
  597SOL    HW2 1791   1.079   2.103   0.869  3.1108  0.2849 -1.3577
  598SOL     OW 1792   3.009   0.287   1.760  0.0336  0.2186  0.0010
  598SOL    HW1 1793   2.988   0.257   1.857 -1.0557 -0.8415 -0.7532
  598SOL    HW2 1794   3.029   0.209   1.698 -0.0882 -1.8224 -0.4122
  599SOL     OW 1795   0.256   1.514   2.627  0.5936  0.0462  0.0549
  599SOL    HW1 1796   0.221   1.440   2.563 -2.0681  1.4521 -0.1707
  599SOL    HW2 1797   0.353   1.504   2.634 -0.0853 -0.6101  2.1127
  600SOL     OW 1798   0.585   0.854   2.762  0.3593 -0.1385 -0.0771
  600SOL    HW1 1799   0.583   0.954   2.741 -2.2386  3.5724  0.9832
  600SOL    HW2 1800   0.679   0.816   2.745  0.0963 -1.6705 -1.0168
  601SOL     OW 1801   0.832   1.021   1.303 -0.1814 -0.2113 -0.2214
  601SOL    HW1 1802   0.873   0.934   1.287  2.2205 -1.9055 -2.1649
  601SOL    HW2 1803   0.737   1.019   1.345 -2.1584  1.6786  0.4255
  602SOL     OW 1804   0.663   0.054   0.074  0.2193 -0.2953 -0.3974
  602SOL    HW1 1805   0.760   0.030   0.099 -0.0311  0.8065 -2.1909
  602SOL    HW2 1806   0.630   0.133   0.130  0.5845 -0.8731 -3.1882
  603SOL     OW 1807   1.366   2.643   2.363 -0.3137 -0.3089 -0.0858
  603SOL    HW1 1808   1.399   2.584   2.442  1.9897  0.5269 -0.0763
  603SOL    HW2 1809   1.361   2.740   2.393  0.2506 -1.6941 -2.1065
  604SOL     OW 1810   0.345   2.648   2.816 -0.7254  0.2230  0.6226
  604SOL    HW1 1811   0.329   2.557   2.769  0.3347 -0.8255  1.2317
  604SOL    HW2 1812   0.428   2.686   2.777 -3.5836 -0.7291  2.9250
  605SOL     OW 1813   2.497   1.203   1.423  0.2401 -0.3666 -0.7509
  605SOL    HW1 1814   2.548   1.272   1.364  1.6762  1.8314 -0.2069
  605SOL    HW2 1815   2.444   1.251   1.492  0.0804  0.3499 -2.9272
  606SOL     OW 1816   0.917   1.201   2.863  0.4661 -0.0490  0.0295
  606SOL    HW1 1817   0.913   1.243   2.959  0.2408  2.0335  3.9349
  606SOL    HW2 1818   0.901   1.267   2.785 -1.1222  0.3683 -3.6559
  607SOL     OW 1819   0.771   0.422   0.881 -0.1742  0.3130  0.2224
  607SOL    HW1 1820   0.742   0.490   0.801 -0.9494 -0.3017 -4.4222
  607SOL    HW2 1821   0.873   0.418   0.887 -0.6856  2.1780 -0.4310
  608SOL     OW 1822   2.881   1.478   1.381  0.4118  0.2506 -0.1895
  608SOL    HW1 1823   2.856   1.556   1.443  0.2660  0.0567 -0.4762
  608SOL    HW2 1824   2.808   1.460   1.308 -1.2349 -1.2294 -2.1044
  609SOL     OW 1825   2.338   0.349   0.651  0.1820  0.8250  0.1335
  609SOL    HW1 1826   2.252   0.315   0.691 -0.8389  0.1944  1.3462
  609SOL    HW2 1827   2.358   0.436   0.691  1.9701 -1.6265 -0.5482
  610SOL     OW 1828   0.129   2.628   1.301 -0.1742  0.1268  0.4672
  610SOL    HW1 1829   0.146   2.708   1.358 -0.7265 -1.9961 -0.9429
  610SOL    HW2 1830   0.117   2.649   1.202 -0.5245 -3.4456  0.0765
  611SOL     OW 1831   1.563   1.797   0.124 -0.2013 -0.1925  0.5479
  611SOL    HW1 1832   1.580   1.865   0.047 -1.9538  1.0180  1.9326
  611SOL    HW2 1833   1.636   1.724   0.133 -0.0427 -0.3459  1.0894
  612SOL     OW 1834   0.592   0.119   1.909  0.3691 -0.2772  0.1575
  612SOL    HW1 1835   0.569   0.035   1.958  0.0462 -0.0598 -1.2100
  612SOL    HW2 1836   0.510   0.176   1.898 -0.3215  2.0527 -1.6819
  613SOL     OW 1837   0.620   2.384   0.632  0.1119 -0.0156 -0.5676
  613SOL    HW1 1838   0.542   2.445   0.647  1.4403  0.5703 -0.0804
  613SOL    HW2 1839   0.602   2.321   0.557 -1.2078  0.4725  2.5716
  614SOL     OW 1840   2.257   0.161   2.055 -0.0414 -0.3192  0.5858
  614SOL    HW1 1841   2.288   0.207   2.142  1.0809 -0.3209  0.0867
  614SOL    HW2 1842   2.333   0.109   2.008 -2.0552 -0.4593  2.5375
  615SOL     OW 1843   1.412   1.532   0.464 -0.0386 -0.0401  0.3416
  615SOL    HW1 1844   1.430   1.478   0.377  0.3124 -0.2670 -0.2870
  615SOL    HW2 1845   1.357   1.613   0.442 -1.1488  0.6116 -1.6408
  616SOL     OW 1846   1.706   1.645   0.528  0.1416 -0.2332  0.4085
  616SOL    HW1 1847   1.636   1.722   0.542 -0.5766  2.6139 -0.1556
  616SOL    HW2 1848   1.747   1.639   0.437  0.9667 -2.8669  0.8157
  617SOL     OW 1849   1.430   0.637   0.059 -0.6543  0.4594 -0.6175
  617SOL    HW1 1850   1.502   0.568   0.047  0.1874  0.0997 -1.2295
  617SOL    HW2 1851   1.458   0.718   0.119 -1.7966 -0.5638  2.8344
  618SOL     OW 1852   0.896   0.547   1.848 -0.4473  0.3335 -0.1854
  618SOL    HW1 1853   0.860   0.461   1.812  0.5220  0.3207  1.3220
  618SOL    HW2 1854   0.996   0.549   1.834 -1.5386 -1.0293 -0.7882
  619SOL     OW 1855   0.308   1.349   1.484 -0.8863 -0.0454 -0.0159
  619SOL    HW1 1856   0.223   1.403   1.467  0.5064  2.1511 -2.1902
  619SOL    HW2 1857   0.348   1.380   1.572 -0.5001  1.0592 -1.3408
  620SOL     OW 1858   2.441   2.922   2.453 -0.1995  0.8826  0.4754
  620SOL    HW1 1859   2.461   3.014   2.497  1.6141 -0.9120  2.9961
  620SOL    HW2 1860   2.343   2.913   2.433 -0.0299 -0.6325 -0.3812
  621SOL     OW 1861   2.456   1.826   2.770 -0.1664 -0.1008  0.2124
  621SOL    HW1 1862   2.547   1.829   2.725  1.2198 -0.8001 -0.4040
  621SOL    HW2 1863   2.395   1.770   2.712  1.0097 -0.5572 -1.2943
  622SOL     OW 1864   1.214   0.600   2.990  0.0790 -0.3681 -0.0903
  622SOL    HW1 1865   1.221   0.501   2.961  0.9831 -1.9770 -1.6034
  622SOL    HW2 1866   1.288   0.629   3.049  0.5683 -3.8675  0.9740
  623SOL     OW 1867   0.926   1.446   1.675  0.4753 -0.0040  0.0576
  623SOL    HW1 1868   0.923   1.349   1.707  1.3732 -2.9207  0.1882
  623SOL    HW2 1869   0.971   1.506   1.747  0.4047 -0.3089 -0.5513
  624SOL     OW 1870   2.860   0.077   0.366 -0.7622 -0.2360  0.0470
  624SOL    HW1 1871   2.915   0.073   0.278  0.1612  2.9694 -1.6803
  624SOL    HW2 1872   2.902   0.138   0.434  2.0538  0.5326 -0.2287
  625SOL     OW 1873   0.821   2.262   0.778 -0.0478 -0.5917 -0.4426
  625SOL    HW1 1874   0.754   2.302   0.714  2.5506 -0.4004  1.2593
  625SOL    HW2 1875   0.892   2.329   0.806  1.1744  0.8230 -0.2173
  626SOL     OW 1876   2.846   0.702   2.453 -0.1759 -0.7365 -0.4771
  626SOL    HW1 1877   2.919   0.633   2.463  0.3384  0.2234 -1.1902
  626SOL    HW2 1878   2.772   0.684   2.518  1.0933  2.3361 -1.9563
  627SOL     OW 1879   0.833   1.978   2.631 -0.2078  0.3488 -0.1577
  627SOL    HW1 1880   0.834   2.017   2.533 -1.3409  0.6399  1.5041
  627SOL    HW2 1881   0.927   1.973   2.675  2.5879 -0.4304 -0.4665
  628SOL     OW 1882   2.781   2.714   2.710 -0.4442 -0.7126  0.5705
  628SOL    HW1 1883   2.740   2.667   2.631  2.8014  0.0769 -0.1175
  628SOL    HW2 1884   2.720   2.782   2.752  1.7145 -1.4058  1.5265
  629SOL     OW 1885   1.111   2.808   2.556 -0.0049 -0.2367  0.4314
  629SOL    HW1 1886   1.013   2.773   2.541 -0.7377 -0.1333 -0.9324
  629SOL    HW2 1887   1.160   2.827   2.469  0.8146  1.9085 -1.5799
  630SOL     OW 1888   0.908   0.285   2.131  0.6603 -0.0732  0.5763
  630SOL    HW1 1889   0.935   0.370   2.183 -0.0786  1.3164 -0.1804
  630SOL    HW2 1890   0.899   0.208   2.197 -0.2973  1.4522 -0.6202
  631SOL     OW 1891   1.906   1.026   0.704  0.0630 -0.1543  1.1359
  631SOL    HW1 1892   1.990   0.982   0.675  0.0004 -0.8320  2.6219
  631SOL    HW2 1893   1.833   1.014   0.627  0.5059 -3.6979 -3.4471
  632SOL     OW 1894   2.792   0.101   1.735 -0.0952  0.0520 -0.1292
  632SOL    HW1 1895   2.780   0.046   1.818  1.4592  0.1353 -0.6441
  632SOL    HW2 1896   2.881   0.078   1.696 -1.1207  1.3200  0.0638
  633SOL     OW 1897   1.125   1.178   0.395 -0.0761  0.1345 -0.0966
  633SOL    HW1 1898   1.125   1.195   0.291 -2.1692  3.4299  1.1701
  633SOL    HW2 1899   1.106   1.274   0.428 -0.2874  0.5164 -2.4228
  634SOL     OW 1900   2.664   2.724   2.137 -0.2111  0.2348  0.0893
  634SOL    HW1 1901   2.699   2.704   2.043  0.6898  0.0172  0.8493
  634SOL    HW2 1902   2.714   2.660   2.195 -2.8943  3.0587 -0.7078
  635SOL     OW 1903   1.473   0.251   0.612 -0.3652  0.1011 -0.0253
  635SOL    HW1 1904   1.431   0.178   0.552 -0.4499 -1.5217  0.8977
  635SOL    HW2 1905   1.565   0.271   0.581 -2.8584 -3.3785  0.1792
  636SOL     OW 1906   0.709   1.226   0.331 -0.0569  0.0684  0.2454
  636SOL    HW1 1907   0.667   1.291   0.268  1.9939 -0.1871  1.1332
  636SOL    HW2 1908   0.655   1.226   0.415 -0.8736 -3.0346  0.9185
  637SOL     OW 1909   2.600   1.897   0.214 -0.0932 -0.1344 -0.1093
  637SOL    HW1 1910   2.622   1.800   0.208 -0.8944  2.5879  2.8791
  637SOL    HW2 1911   2.645   1.940   0.294 -0.3802 -0.4681 -0.0647
  638SOL     OW 1912   1.352   2.344   2.293  0.7511 -0.4595  0.2176
  638SOL    HW1 1913   1.383   2.403   2.220  0.3453  0.0307  0.7138
  638SOL    HW2 1914   1.421   2.275   2.318 -0.6160  3.0495 -0.8846
  639SOL     OW 1915   1.315   1.815   0.734  0.0566  0.0879 -0.5091
  639SOL    HW1 1916   1.259   1.899   0.746 -0.0053  0.4622 -0.4527
  639SOL    HW2 1917   1.250   1.736   0.722 -2.0844  1.3870  1.8806
  640SOL     OW 1918   2.365   2.934   0.534  0.4306  0.0250 -0.3061
  640SOL    HW1 1919   2.419   2.864   0.479  2.3726 -0.5464 -0.2860
  640SOL    HW2 1920   2.339   3.012   0.475 -1.5332  0.0315 -0.3036
  641SOL     OW 1921   2.874   0.528   0.027  0.0340  0.1903  0.0135
  641SOL    HW1 1922   2.861   0.542   0.127  0.2172  1.8140  2.7054
  641SOL    HW2 1923   2.850   0.435   3.085  1.2995  1.6048  2.0935
  642SOL     OW 1924   0.345   0.617   0.943  0.2258  0.1949 -0.1130
  642SOL    HW1 1925   0.290   0.668   1.009  1.0034  2.6883  1.3941
  642SOL    HW2 1926   0.318   0.519   0.949  0.8538 -1.7443 -0.7476
  643SOL     OW 1927   0.656   1.337   2.371 -0.0464  0.2054 -0.6858
  643SOL    HW1 1928   0.699   1.379   2.294 -1.9294  3.0091  0.9012
  643SOL    HW2 1929   0.557   1.317   2.353 -0.9481  0.5587 -0.5256
  644SOL     OW 1930   1.705   2.104   0.683  0.0257 -0.0673  0.0395
  644SOL    HW1 1931   1.730   2.011   0.650  0.8121 -2.6417  0.3510
  644SOL    HW2 1932   1.790   2.152   0.715  1.7773  0.4472  1.3029
  645SOL     OW 1933   1.456   2.197   0.490 -0.1667  0.3719  0.7601
  645SOL    HW1 1934   1.415   2.133   0.424  0.1143  0.5829 -0.4226
  645SOL    HW2 1935   1.515   2.157   0.563  0.9915  1.2876  0.1010
  646SOL     OW 1936   0.138   2.089   2.903 -0.3336 -0.0453  0.0487
  646SOL    HW1 1937   0.143   2.057   2.807  0.6595  0.6913 -0.3839
  646SOL    HW2 1938   0.064   2.031   2.950  0.5173 -2.4345  1.4888
  647SOL     OW 1939   1.258   0.087   1.159 -0.2531 -0.0944 -0.6089
  647SOL    HW1 1940   1.337   0.084   1.223  0.7699 -1.6894  1.5418
  647SOL    HW2 1941   1.235   0.189   1.141 -1.5439  0.8254 -2.8556
  648SOL     OW 1942   1.383   0.177   0.870  0.7514 -0.7157  0.4660
  648SOL    HW1 1943   1.408   0.078   0.873  1.4675  0.8978 -1.6687
  648SOL    HW2 1944   1.423   0.224   0.790  0.9401 -0.4365  1.2551
  649SOL     OW 1945   1.166   1.715   0.396  0.4227  0.1484 -0.8200
  649SOL    HW1 1946   1.125   1.688   0.309  0.0989 -1.1980  0.1395
  649SOL    HW2 1947   1.118   1.797   0.438  2.4341 -1.5019 -1.0775
  650SOL     OW 1948   2.253   1.512   1.786 -0.0518 -0.4908 -0.5109
  650SOL    HW1 1949   2.298   1.482   1.872 -3.5294 -0.2939  1.4326
  650SOL    HW2 1950   2.165   1.561   1.814  1.1129 -0.6191  1.0598
  651SOL     OW 1951   1.525   2.204   2.828  0.0602 -0.5397 -0.3451
  651SOL    HW1 1952   1.497   2.305   2.836  0.5527  0.6648 -1.2884
  651SOL    HW2 1953   1.563   2.183   2.739  0.3060  0.1318  1.8237
  652SOL     OW 1954   2.315   1.597   0.271  0.3430  0.2346  0.1899
  652SOL    HW1 1955   2.394   1.597   0.203  2.6782 -0.1941  1.5334
  652SOL    HW2 1956   2.336   1.540   0.354 -2.1026 -0.0360 -1.8666
  653SOL     OW 1957   0.276   0.347   0.970 -0.3920  0.1443  0.0036
  653SOL    HW1 1958   0.344   0.272   0.982  3.1988 -0.5916  0.6183
  653SOL    HW2 1959   0.182   0.314   0.979  2.7603  2.1364 -1.4222
  654SOL     OW 1960   2.984   0.194   1.999  0.3422  0.3722 -0.3158
  654SOL    HW1 1961   2.898   0.139   2.021 -2.2099 -0.7319 -0.6917
  654SOL    HW2 1962   3.067   0.153   2.033  0.1362 -1.5082 -2.3132
  655SOL     OW 1963   0.390   2.514   0.675  0.3484 -0.1552 -0.2986
  655SOL    HW1 1964   0.435   2.602   0.691 -1.9873 -0.9631 -3.0330
  655SOL    HW2 1965   0.315   2.505   0.605 -2.0695 -2.2400  0.3466
  656SOL     OW 1966   2.919   3.005   2.557  0.2577  0.6724  0.0570
  656SOL    HW1 1967   2.978   2.922   2.547 -0.1867 -3.3927  0.2288
  656SOL    HW2 1968   2.876   3.014   2.650 -1.0475  0.5457  1.7752
  657SOL     OW 1969   0.239   1.409   2.899 -0.3123  0.2322 -0.0899
  657SOL    HW1 1970   0.190   1.447   2.976  1.4131 -1.9926 -1.0898
  657SOL    HW2 1971   0.282   1.479   2.841 -2.5704 -1.5588  0.1156
  658SOL     OW 1972   2.760   1.859   1.097 -0.4123 -0.2429 -0.4523
  658SOL    HW1 1973   2.801   1.951   1.095 -0.6614  0.2622 -0.5714
  658SOL    HW2 1974   2.656   1.865   1.081 -2.8600  2.9661  3.0809
  659SOL     OW 1975   1.528   2.820   0.138 -0.2747  0.4061 -0.5720
  659SOL    HW1 1976   1.565   2.772   0.224  1.7622 -1.5013  0.1859
  659SOL    HW2 1977   1.600   2.845   0.065 -0.8471  1.1346  0.3849
  660SOL     OW 1978   1.449   0.884   2.946 -0.7408 -0.1450 -0.6287
  660SOL    HW1 1979   1.463   0.793   2.900 -0.5318  1.6026  0.6929
  660SOL    HW2 1980   1.427   0.951   2.873 -1.8614  0.8783 -1.0691
  661SOL     OW 1981   0.256   2.198   1.237 -0.3038  0.0311  0.7864
  661SOL    HW1 1982   0.201   2.115   1.211  1.8055  2.3223 -2.9000
  661SOL    HW2 1983   0.190   2.270   1.258 -0.9418 -2.7232 -2.2778
  662SOL     OW 1984   0.231   0.467   0.017 -0.3870  0.1952 -0.2029
  662SOL    HW1 1985   0.173   0.540   3.063 -0.8161 -0.3131 -1.2410
  662SOL    HW2 1986   0.221   0.471   0.117  1.5916 -0.5282  0.5652
  663SOL     OW 1987   2.182   1.745   1.079 -0.0699  0.3340 -0.0061
  663SOL    HW1 1988   2.090   1.760   1.115  0.2554  1.2784  0.5674
  663SOL    HW2 1989   2.238   1.698   1.153 -1.4212 -0.4209  2.4237
  664SOL     OW 1990   1.182   1.247   1.025  0.1796  0.6290  0.5047
  664SOL    HW1 1991   1.279   1.265   1.062  1.1505  1.3150 -0.4869
  664SOL    HW2 1992   1.144   1.324   0.975  2.8973 -2.1922  3.9977
  665SOL     OW 1993   1.980   2.608   2.168  0.6104 -0.5320 -0.5219
  665SOL    HW1 1994   1.912   2.626   2.245 -0.9163  1.4171 -1.0314
  665SOL    HW2 1995   1.992   2.691   2.112  2.1910 -3.1803  2.5367
  666SOL     OW 1996   2.803   2.784   0.142 -0.2454 -0.8142  0.5165
  666SOL    HW1 1997   2.826   2.744   0.053 -2.2747 -0.0255 -0.7988
  666SOL    HW2 1998   2.851   2.739   0.221  1.7784  0.4753  2.8947
  667SOL     OW 1999   2.807   1.311   1.582  0.4753  0.0730  0.0865
  667SOL    HW1 2000   2.837   1.371   1.507 -1.4871 -3.1104  2.6383
  667SOL    HW2 2001   2.712   1.342   1.602 -0.9823 -0.9125  1.7837
  668SOL     OW 2002   0.351   0.784   2.490  0.2576 -0.1618 -0.3579
  668SOL    HW1 2003   0.365   0.774   2.592  2.0602  0.7207  1.2638
  668SOL    HW2 2004   0.255   0.757   2.466 -0.8869 -2.2768  1.8329
  669SOL     OW 2005   2.060   1.963   2.437  0.3721 -0.6528  0.5536
  669SOL    HW1 2006   2.057   1.892   2.365  0.3309 -0.5342  0.4431
  669SOL    HW2 2007   2.092   2.057   2.405  3.5106  1.9232 -3.3264
  670SOL     OW 2008   2.651   1.370   1.845  0.3635  0.0542 -0.4182
  670SOL    HW1 2009   2.599   1.282   1.848 -1.7048 -0.3541 -2.5095
  670SOL    HW2 2010   2.732   1.377   1.903 -1.4008 -0.3917 -0.7928
  671SOL     OW 2011   2.989   1.502   0.478 -0.1452  0.6488  0.3961
  671SOL    HW1 2012   3.048   1.545   0.548  0.1781  0.7344 -2.6417
  671SOL    HW2 2013   2.959   1.410   0.511 -0.0479  1.4927  0.2556
  672SOL     OW 2014   2.540   0.579   2.245  0.9537  0.4701 -0.2582
  672SOL    HW1 2015   2.465   0.590   2.177 -0.2821  0.0107  0.7061
  672SOL    HW2 2016   2.554   0.660   2.305 -0.3057  1.1090  2.2511
  673SOL     OW 2017   2.809   3.082   2.055  0.3912  0.3222  0.1420
  673SOL    HW1 2018   2.822   3.023   1.975 -0.4599 -1.2422  2.2638
  673SOL    HW2 2019   2.768   3.026   2.130 -3.5772  0.7705 -0.2435
  674SOL     OW 2020   1.504   2.177   1.502  0.6003 -0.1740  0.0076
  674SOL    HW1 2021   1.532   2.227   1.586  6.2060  1.3072  0.8158
  674SOL    HW2 2022   1.586   2.181   1.439 -0.3527 -0.1533 -1.6447
  675SOL     OW 2023   0.660   0.832   0.722 -0.3191  0.2983  0.2215
  675SOL    HW1 2024   0.716   0.860   0.806  0.9080  0.5463  1.0740
  675SOL    HW2 2025   0.693   0.868   0.632 -1.6105 -0.4772 -0.2203
  676SOL     OW 2026   1.678   0.828   0.766 -0.5755 -0.4522  0.5934
  676SOL    HW1 2027   1.601   0.886   0.786  1.1381 -1.8454 -0.5218
  676SOL    HW2 2028   1.657   0.737   0.783  1.6770  1.4660  0.1156
  677SOL     OW 2029   2.516   1.268   2.237 -0.0766 -0.2041 -0.2007
  677SOL    HW1 2030   2.519   1.198   2.162 -2.2640  1.8334 -1.6466
  677SOL    HW2 2031   2.558   1.359   2.220  1.3447  1.2963 -0.2781
  678SOL     OW 2032   2.921   1.704   0.932  0.2681 -0.3815  0.1058
  678SOL    HW1 2033   2.965   1.620   0.969 -0.0537  1.8630 -0.3726
  678SOL    HW2 2034   2.857   1.740   1.003 -0.5014  0.7965 -0.0752
  679SOL     OW 2035   2.134   2.646   0.166 -0.2759 -0.3739 -0.2852
  679SOL    HW1 2036   2.117   2.734   0.210  0.4088  0.1946 -1.3856
  679SOL    HW2 2037   2.122   2.655   0.063  0.1176  0.1215 -0.9567
  680SOL     OW 2038   0.104   2.143   1.921 -0.0945  0.2742 -0.0082
  680SOL    HW1 2039   0.094   2.070   1.853 -1.2546  0.3744 -1.0095
  680SOL    HW2 2040   0.196   2.178   1.921  0.1436  1.3982  1.9085
  681SOL     OW 2041   0.674   1.232   1.640 -0.0096  0.3459  0.1017
  681SOL    HW1 2042   0.767   1.201   1.672 -1.5632 -1.4619 -0.2913
  681SOL    HW2 2043   0.644   1.319   1.682 -0.5926  0.2443 -0.6655
  682SOL     OW 2044   1.328   2.577   0.915  0.3973  0.2647  0.2977
  682SOL    HW1 2045   1.372   2.528   0.834  2.6424 -1.9856 -0.2440
  682SOL    HW2 2046   1.236   2.536   0.933  0.9659 -0.1208 -0.7700
  683SOL     OW 2047   2.451   1.661   0.861 -0.5084  0.5014  0.2569
  683SOL    HW1 2048   2.356   1.694   0.867  2.1921 -0.9131  1.3585
  683SOL    HW2 2049   2.496   1.705   0.779  2.4892 -0.4863 -0.9099
  684SOL     OW 2050   0.372   2.205   1.860  0.2388 -0.2321  0.2478
  684SOL    HW1 2051   0.442   2.133   1.878 -0.8377  2.9252  0.5207
  684SOL    HW2 2052   0.329   2.190   1.766 -0.4941 -0.9529 -1.3527
  685SOL     OW 2053   1.643   1.548   2.868  0.3034 -0.3242 -0.2903
  685SOL    HW1 2054   1.576   1.618   2.906  0.6204  0.3855  0.6316
  685SOL    HW2 2055   1.701   1.590   2.795 -1.1598 -0.3583 -0.5077
  686SOL     OW 2056   0.287   0.969   1.298 -0.1118 -0.8440  0.2680
  686SOL    HW1 2057   0.335   1.061   1.287  0.5143 -0.6291  0.1862
  686SOL    HW2 2058   0.336   0.916   1.367  2.0004  1.5903 -2.1653
  687SOL     OW 2059   0.779   2.312   2.869 -0.4651  0.3354  0.3929
  687SOL    HW1 2060   0.717   2.342   2.943  1.0684  0.7613 -0.8975
  687SOL    HW2 2061   0.721   2.280   2.795  1.2995  3.4611  0.6349
  688SOL     OW 2062   2.486   1.787   1.932  0.3768 -0.1260 -0.3872
  688SOL    HW1 2063   2.466   1.822   2.026 -2.5616 -1.3289  0.0621
  688SOL    HW2 2064   2.394   1.785   1.888 -0.9351 -3.1346 -0.0129
  689SOL     OW 2065   2.346   0.629   2.083  0.0954 -0.3474  0.3910
  689SOL    HW1 2066   2.356   0.604   1.987 -1.1087 -1.8905  0.3837
  689SOL    HW2 2067   2.330   0.732   2.085  0.3011  2.9824 -1.1562
  690SOL     OW 2068   2.213   1.014   1.281 -0.2976  0.2723 -0.2363
  690SOL    HW1 2069   2.235   0.996   1.380 -0.2360  0.0784 -1.1365
  690SOL    HW2 2070   2.296   1.038   1.228 -2.5415 -0.6644  1.4099
  691SOL     OW 2071   0.765   1.595   1.888 -0.1159 -0.0600  0.2143
  691SOL    HW1 2072   0.712   1.668   1.837 -2.3049  0.3796 -2.2310
  691SOL    HW2 2073   0.871   1.602   1.885  2.3895 -3.3339 -0.5114
  692SOL     OW 2074   2.050   0.117   1.436 -0.4888 -0.1267 -0.5987
  692SOL    HW1 2075   2.102   0.191   1.485  0.3543  0.0764 -1.1070
  692SOL    HW2 2076   1.985   0.073   1.505 -1.4654 -1.3001 -0.2568
  693SOL     OW 2077   0.538   1.037   2.164  0.6045  0.1606 -0.4379
  693SOL    HW1 2078   0.618   1.032   2.230 -0.0969  2.2831  3.5670
  693SOL    HW2 2079   0.565   0.987   2.081 -1.2735 -0.9752  2.4415
  694SOL     OW 2080   1.786   2.578   1.334 -0.5054  0.6373 -0.0786
  694SOL    HW1 2081   1.682   2.568   1.329 -1.8185 -0.2409  0.1631
  694SOL    HW2 2082   1.808   2.678   1.318  0.8565  0.2090 -0.1294
  695SOL     OW 2083   1.292   1.029   2.044 -0.0743 -0.5659 -0.0572
  695SOL    HW1 2084   1.267   1.040   2.143  0.1546 -0.8884 -1.3240
  695SOL    HW2 2085   1.354   1.101   2.007 -1.5444  0.3528 -2.4454
  696SOL     OW 2086   1.493   3.013   0.819  0.1065 -0.3089  0.1946
  696SOL    HW1 2087   1.406   2.958   0.827  0.0149 -0.9049 -1.7375
  696SOL    HW2 2088   1.546   2.986   0.737 -1.4435 -0.6391 -1.0094
  697SOL     OW 2089   1.087   0.168   0.525 -0.5076  0.1334  0.3919
  697SOL    HW1 2090   1.062   0.198   0.618  0.0529 -3.7069 -0.7720
  697SOL    HW2 2091   1.014   0.209   0.461 -1.4834 -0.9340  0.5420
  698SOL     OW 2092   1.558   0.955   2.580  0.3968 -0.2524 -0.4700
  698SOL    HW1 2093   1.549   0.962   2.480  0.3555 -3.2165  2.5673
  698SOL    HW2 2094   1.484   1.011   2.630  2.0917  0.9891 -1.6677
  699SOL     OW 2095   1.447   1.332   1.087  0.0138 -0.3447  0.7342
  699SOL    HW1 2096   1.433   1.419   1.141 -1.0190  1.8024 -0.4174
  699SOL    HW2 2097   1.541   1.337   1.048 -0.5364 -1.0800 -2.0618
  700SOL     OW 2098   1.349   0.051   0.440  0.4751 -0.0226  0.4878
  700SOL    HW1 2099   1.252   0.066   0.477  0.0296  0.2485 -1.4188
  700SOL    HW2 2100   1.389   3.050   0.477 -0.1751 -1.8798  1.6825
  701SOL     OW 2101   0.327   0.261   1.935 -0.4987  0.3009 -0.0583
  701SOL    HW1 2102   0.320   0.358   1.927 -2.9119 -1.6422  0.5929
  701SOL    HW2 2103   0.263   0.222   1.999  0.4392 -0.0401  0.3017
  702SOL     OW 2104   1.123   2.838   0.319  0.3168  0.5623  0.0322
  702SOL    HW1 2105   1.184   2.880   0.254  0.2421 -0.6639 -0.3421
  702SOL    HW2 2106   1.099   2.900   0.398 -1.5919  2.4973  0.0398
  703SOL     OW 2107   2.408   2.655   2.491 -0.3819 -0.2558  0.0532
  703SOL    HW1 2108   2.309   2.651   2.479  1.4476 -1.8632 -1.1155
  703SOL    HW2 2109   2.435   2.753   2.483 -1.1063  0.2849 -0.0251
  704SOL     OW 2110   0.599   2.187   0.915 -0.6740  0.1843  0.1222
  704SOL    HW1 2111   0.686   2.223   0.885 -0.7172 -0.4057  1.7994
  704SOL    HW2 2112   0.613   2.092   0.948 -1.0626 -2.6423 -0.4687
  705SOL     OW 2113   0.082   0.733   1.887 -0.1390  0.0680  0.2084
  705SOL    HW1 2114   0.039   0.686   1.971 -1.2326 -0.4625  0.1182
  705SOL    HW2 2115   0.032   0.810   1.847  3.4548 -1.5913 -1.7706
  706SOL     OW 2116   1.636   2.931   0.584  0.1379  0.1064 -0.2368
  706SOL    HW1 2117   1.605   2.877   0.502 -2.5795  1.8709 -1.6670
  706SOL    HW2 2118   1.677   3.023   0.552  0.3047  3.8434  1.2361
  707SOL     OW 2119   1.386   1.846   1.938  0.2008 -0.4127 -0.0485
  707SOL    HW1 2120   1.311   1.829   1.874  1.8657 -0.2581  0.0170
  707SOL    HW2 2121   1.368   1.922   2.007  1.3019  1.7646 -0.0370
  708SOL     OW 2122   2.943   2.301   1.633 -0.3463  0.0643  0.2776
  708SOL    HW1 2123   2.851   2.327   1.604  1.8626 -0.1165 -1.1832
  708SOL    HW2 2124   2.988   2.379   1.675  1.7053 -3.3497 -1.0757
  709SOL     OW 2125   1.965   0.385   1.886 -1.0266  0.2427  0.0693
  709SOL    HW1 2126   2.054   0.340   1.861 -0.5779  0.4563 -0.3296
  709SOL    HW2 2127   1.894   0.359   1.821  0.5790  1.9447 -2.0999
  710SOL     OW 2128   2.449   0.251   1.506  0.0367  0.0203  0.2608
  710SOL    HW1 2129   2.532   0.296   1.546 -1.1250 -2.2542  2.6766
  710SOL    HW2 2130   2.438   0.276   1.408 -0.3693 -0.0402  1.0554
  711SOL     OW 2131   0.147   2.217   0.399  0.2831 -0.5668 -0.2869
  711SOL    HW1 2132   0.229   2.161   0.406 -3.2749  0.3070  1.0072
  711SOL    HW2 2133   0.070   2.162   0.429  0.3787  3.2105 -1.7718
  712SOL     OW 2134   0.589   2.321   2.249  0.6059 -0.2555 -0.3918
  712SOL    HW1 2135   0.509   2.261   2.217 -2.0415 -1.3362  0.1478
  712SOL    HW2 2136   0.577   2.422   2.230  0.7055  2.3628 -0.0739
  713SOL     OW 2137   2.052   0.812   0.014 -0.5618 -0.0101 -0.4559
  713SOL    HW1 2138   2.091   0.885   0.079  1.4322 -1.3664  1.0363
  713SOL    HW2 2139   2.042   0.727   0.066 -0.2095  1.3303 -1.2766
  714SOL     OW 2140   0.743   1.961   0.522  0.4272  0.2930 -0.0690
  714SOL    HW1 2141   0.807   1.986   0.598 -0.4347 -1.4898  1.0423
  714SOL    HW2 2142   0.771   2.006   0.435 -0.9003 -0.6478  1.9553
  715SOL     OW 2143   1.745   0.099   0.547 -0.5553  0.0567  0.1065
  715SOL    HW1 2144   1.770   0.150   0.635 -1.3684  0.4800  1.7586
  715SOL    HW2 2145   1.766   0.148   0.462  1.4002 -2.4929  1.1924
  716SOL     OW 2146   0.565   0.416   1.689  0.0536 -0.4382  0.1476
  716SOL    HW1 2147   0.556   0.436   1.790 -1.0140  0.5706 -0.0977
  716SOL    HW2 2148   0.476   0.416   1.639  2.3091  0.6766 -0.5735
  717SOL     OW 2149   0.018   0.899   3.061 -0.3754  0.8176  0.4239
  717SOL    HW1 2150   0.018   0.938   2.966 -1.0691  1.3197 -0.0681
  717SOL    HW2 2151   0.044   0.799   3.052  3.4324  0.1391  0.3023
  718SOL     OW 2152   1.076   0.885   0.236 -0.0677 -0.1254 -0.0823
  718SOL    HW1 2153   1.149   0.910   0.172 -1.4167 -1.8531  2.4116
  718SOL    HW2 2154   1.108   0.812   0.296 -1.0683  1.3675 -2.0961
  719SOL     OW 2155   2.942   1.619   2.980 -0.4106  0.4312 -0.1430
  719SOL    HW1 2156   2.865   1.685   2.997  0.5414  0.5196 -0.1690
  719SOL    HW2 2157   2.928   1.581   2.885 -0.4875 -1.0601 -0.9128
  720SOL     OW 2158   1.588   0.896   1.084 -0.0059 -0.2428 -0.0040
  720SOL    HW1 2159   1.584   0.938   0.989  1.4827 -0.1563 -0.4602
  720SOL    HW2 2160   1.674   0.851   1.108  1.1861 -1.5475  0.0665
  721SOL     OW 2161   2.684   0.930   0.277 -0.1548  0.5308 -0.1358
  721SOL    HW1 2162   2.756   0.951   0.205 -0.3276  2.5532  1.6275
  721SOL    HW2 2163   2.728   0.899   0.363  0.3992  0.0945 -2.2253
  722SOL     OW 2164   0.565   1.360   2.819  0.0361 -0.4649  0.5663
  722SOL    HW1 2165   0.554   1.421   2.741 -3.8225 -0.2696 -1.4941
  722SOL    HW2 2166   0.576   1.261   2.791 -1.2433 -0.6727 -1.1317
  723SOL     OW 2167   0.543   1.179   0.528  0.3239 -0.1517  0.2242
  723SOL    HW1 2168   0.573   1.189   0.625  1.2549 -0.7091 -0.6452
  723SOL    HW2 2169   0.440   1.199   0.530 -1.7068  0.6858  1.6937
  724SOL     OW 2170   0.955   2.354   1.888 -0.8054 -0.3568  0.4334
  724SOL    HW1 2171   0.871   2.351   1.832 -0.2976 -0.9818  0.5300
  724SOL    HW2 2172   1.022   2.426   1.860  0.2005 -0.5153  1.8917
  725SOL     OW 2173   2.621   0.984   1.428 -0.0396  0.1027 -0.5874
  725SOL    HW1 2174   2.570   1.075   1.433 -1.5457 -1.6584  0.0252
  725SOL    HW2 2175   2.645   0.949   1.519 -1.4682 -0.5053 -4.0159
  726SOL     OW 2176   1.617   2.709   0.365  0.0312 -0.2445  0.3201
  726SOL    HW1 2177   1.712   2.680   0.358 -1.6276  1.2256 -0.3882
  726SOL    HW2 2178   1.569   2.649   0.430  1.4833 -2.5723  0.7015
  727SOL     OW 2179   1.171   0.872   2.497 -0.8305  0.3662  0.1684
  727SOL    HW1 2180   1.180   0.866   2.602  0.2305  2.1544  1.4717
  727SOL    HW2 2181   1.198   0.776   2.461  1.1703 -0.1542 -1.7425
  728SOL     OW 2182   1.514   2.592   1.338  0.5531  0.7439 -0.3097
  728SOL    HW1 2183   1.426   2.544   1.338 -0.8123  0.5396  1.3843
  728SOL    HW2 2184   1.528   2.649   1.422 -0.5083  0.6338 -1.7861
  729SOL     OW 2185   1.585   0.602   1.359 -0.3540  0.2498 -0.2194
  729SOL    HW1 2186   1.641   0.664   1.299  0.7372 -2.5570  0.4960
  729SOL    HW2 2187   1.526   0.649   1.428 -1.0306  2.5684  0.5159
  730SOL     OW 2188   0.573   2.027   1.949 -0.0683 -0.2394  0.3448
  730SOL    HW1 2189   0.635   2.073   2.012 -0.6557 -0.9389 -1.1639
  730SOL    HW2 2190   0.559   1.932   1.982 -1.2840  0.4512 -2.9159
  731SOL     OW 2191   0.449   0.263   0.625 -0.0057 -0.2683  0.5359
  731SOL    HW1 2192   0.500   0.246   0.709  0.1550  1.3925  1.1967
  731SOL    HW2 2193   0.432   0.176   0.572  0.6741  2.2105 -1.9924
  732SOL     OW 2194   0.502   0.342   3.007 -0.0475 -0.1264  0.0483
  732SOL    HW1 2195   0.576   0.410   2.985 -0.8439  1.2833 -0.7988
  732SOL    HW2 2196   0.414   0.378   3.041  1.7308  0.9058 -4.6821
  733SOL     OW 2197   1.186   2.364   1.112  0.1481  0.0161  0.7132
  733SOL    HW1 2198   1.115   2.304   1.147  0.4696 -1.7066  1.0245
  733SOL    HW2 2199   1.232   2.411   1.187  0.1881  1.5981 -0.3789
  734SOL     OW 2200   3.043   2.333   2.645  0.0124 -0.2546  0.2114
  734SOL    HW1 2201   3.024   2.246   2.598 -2.1257 -0.4946 -1.0111
  734SOL    HW2 2202   3.003   2.325   2.741  1.2794 -0.6440  2.7531
  735SOL     OW 2203   0.992   2.864   1.039  1.2742 -0.0285 -1.0462
  735SOL    HW1 2204   0.906   2.921   1.046  3.0532  0.9441  2.2855
  735SOL    HW2 2205   1.066   2.919   0.998 -1.3113 -2.8779  0.8164
  736SOL     OW 2206   1.655   0.523   3.051  0.1049 -0.1444 -0.1626
  736SOL    HW1 2207   1.639   0.459   2.974 -0.9998  1.0104 -1.2718
  736SOL    HW2 2208   1.687   0.464   0.042 -0.1925  2.9858 -0.2791
  737SOL     OW 2209   3.038   0.238   0.551 -0.7398  0.1087 -0.3848
  737SOL    HW1 2210   0.032   0.219   0.609 -2.1717  0.2786 -0.8257
  737SOL    HW2 2211   3.048   0.331   0.508  0.2650  2.0610  0.4798
  738SOL     OW 2212   2.587   2.883   1.201  0.2098 -0.1494 -0.1943
  738SOL    HW1 2213   2.529   2.946   1.267 -4.2219  2.3666  0.3011
  738SOL    HW2 2214   2.629   2.942   1.131 -1.3073 -1.4961  2.0613
  739SOL     OW 2215   1.551   2.370   0.102 -0.2402 -0.1466 -0.2098
  739SOL    HW1 2216   1.608   2.375   0.187 -1.6568 -0.5319  3.4463
  739SOL    HW2 2217   1.505   2.282   0.111  1.0808  1.1322  1.5468
  740SOL     OW 2218   1.820   2.831   1.242 -0.0789  0.4141 -0.1658
  740SOL    HW1 2219   1.731   2.879   1.260  0.2615  0.1016 -0.9528
  740SOL    HW2 2220   1.815   2.798   1.146 -1.0472 -1.6893  2.3457
  741SOL     OW 2221   1.924   0.494   0.779 -0.1132 -0.1691  0.2380
  741SOL    HW1 2222   1.999   0.426   0.793  2.4571 -3.7765 -1.9929
  741SOL    HW2 2223   1.945   0.582   0.821 -1.6562 -0.8153 -0.2939
  742SOL     OW 2224   1.383   2.083   2.080 -0.4355  0.1954 -0.6997
  742SOL    HW1 2225   1.434   2.141   2.147 -0.3088  3.5407 -5.4899
  742SOL    HW2 2226   1.355   2.142   2.005  1.4579 -0.5027  1.2022
  743SOL     OW 2227   2.434   0.571   1.821 -0.1596  0.3938 -0.0311
  743SOL    HW1 2228   2.460   0.573   1.719 -1.6193  0.2822 -1.3430
  743SOL    HW2 2229   2.517   0.596   1.879 -0.1986  0.9314  1.1259
  744SOL     OW 2230   2.442   0.333   1.249  0.5591 -1.0337  0.3169
  744SOL    HW1 2231   2.399   0.429   1.234  1.0433  1.8278 -2.1136
  744SOL    HW2 2232   2.509   0.311   1.170  4.2760 -0.2180 -0.1612
  745SOL     OW 2233   1.947   1.135   1.804  0.4883  0.4419 -0.0547
  745SOL    HW1 2234   1.869   1.092   1.848 -0.7391  1.9998 -2.4823
  745SOL    HW2 2235   1.941   1.231   1.829 -1.7847 -1.2585 -1.3325
  746SOL     OW 2236   1.193   1.421   0.796  0.5859 -0.2573 -0.1023
  746SOL    HW1 2237   1.140   1.482   0.730  1.1198  1.4445 -0.8171
  746SOL    HW2 2238   1.293   1.439   0.785 -0.5794  1.2153 -0.9447
  747SOL     OW 2239   1.665   1.287   0.937 -0.0395 -0.0547 -0.8935
  747SOL    HW1 2240   1.640   1.270   0.844 -0.2809 -1.1184  2.4072
  747SOL    HW2 2241   1.733   1.218   0.966  1.1114 -0.8895 -1.7116
  748SOL     OW 2242   2.803   2.707   0.757 -0.4055  0.1027 -0.3081
  748SOL    HW1 2243   2.716   2.717   0.701  0.2276 -1.5573  0.8877
  748SOL    HW2 2244   2.807   2.610   0.785 -0.8898 -0.5031 -1.2362
  749SOL     OW 2245   0.103   0.088   2.164  0.0534  0.8338 -0.5643
  749SOL    HW1 2246   0.021   0.076   2.222 -2.4595  0.5014  1.9238
  749SOL    HW2 2247   0.192   0.080   2.220  0.3311  0.3857  0.0572
  750SOL     OW 2248   1.928   0.653   1.384  0.1871  0.0924 -0.0321
  750SOL    HW1 2249   2.013   0.607   1.415 -1.8617  1.0851 -1.3085
  750SOL    HW2 2250   1.936   0.755   1.388 -1.4698 -0.9582 -0.2318
  751SOL     OW 2251   2.948   0.602   0.755 -0.0966 -0.7076  0.4501
  751SOL    HW1 2252   2.977   0.533   0.827  0.8257 -0.4766 -0.3691
  751SOL    HW2 2253   3.028   0.636   0.693  0.2085  0.4749 -3.0270
  752SOL     OW 2254   0.171   2.785   1.061  0.1584  0.0818  0.3418
  752SOL    HW1 2255   0.106   2.863   1.058  3.3056 -1.4971  1.5754
  752SOL    HW2 2256   0.146   2.715   0.991 -1.7234 -1.4424 -0.6507
  753SOL     OW 2257   1.266   0.244   2.151  0.2652  0.3310  0.5057
  753SOL    HW1 2258   1.232   0.269   2.055 -1.8666  1.8009  0.7993
  753SOL    HW2 2259   1.350   0.295   2.172  0.8570  1.1633 -0.6755
  754SOL     OW 2260   1.603   2.330   1.702  0.6125 -0.1030 -1.0906
  754SOL    HW1 2261   1.657   2.417   1.677 -1.0592  1.0094  0.9133
  754SOL    HW2 2262   1.605   2.317   1.805 -3.0455  0.0591  0.7384
  755SOL     OW 2263   2.869   1.254   0.576 -0.1766 -0.2071 -0.3118
  755SOL    HW1 2264   2.832   1.290   0.664  0.8052 -0.2862 -0.0276
  755SOL    HW2 2265   2.795   1.219   0.518 -0.7416 -2.3331 -0.1692
  756SOL     OW 2266   1.587   1.618   2.347  0.2540  0.1622 -0.2886
  756SOL    HW1 2267   1.623   1.686   2.278  0.6294  1.7441 -0.5360
  756SOL    HW2 2268   1.656   1.566   2.402  0.5503  0.4298  1.9542
  757SOL     OW 2269   1.770   2.759   0.745 -0.0702  0.3457 -0.0513
  757SOL    HW1 2270   1.715   2.817   0.684  2.6719 -1.7956  1.3285
  757SOL    HW2 2271   1.779   2.667   0.708  0.0415 -0.5281 -2.5281
  758SOL     OW 2272   0.682   2.817   1.183 -0.6153 -0.2657 -0.5971
  758SOL    HW1 2273   0.614   2.759   1.138  1.8585 -0.5880 -0.0897
  758SOL    HW2 2274   0.711   2.899   1.130  1.6024 -1.2606 -0.4539
  759SOL     OW 2275   0.256   0.928   0.854 -0.1103  0.1734 -0.6621
  759SOL    HW1 2276   0.189   0.863   0.892 -0.1643 -1.0984 -0.5468
  759SOL    HW2 2277   0.245   1.017   0.908  0.2421  2.3148 -0.6552
  760SOL     OW 2278   2.321   1.302   1.010  0.4717 -0.0729 -0.3014
  760SOL    HW1 2279   2.360   1.213   1.047  2.3223  1.0075  1.5511
  760SOL    HW2 2280   2.220   1.293   1.014 -1.6595 -0.7651  1.7046
  761SOL     OW 2281   1.223   0.995   0.969 -0.2005 -0.0828  0.7457
  761SOL    HW1 2282   1.202   1.082   1.013  0.6670 -2.1021  0.6836
  761SOL    HW2 2283   1.158   0.983   0.888 -1.1386  1.4081  0.2411
  762SOL     OW 2284   2.375   1.942   1.047 -0.2605  0.2991  0.2670
  762SOL    HW1 2285   2.334   1.850   1.062 -1.1002  0.0137  2.4580
  762SOL    HW2 2286   2.312   2.010   1.012  4.8840  2.3413 -0.7623
  763SOL     OW 2287   1.224   1.507   2.015  0.2483 -0.5103  0.5237
  763SOL    HW1 2288   1.204   1.484   2.113  2.7600  0.4558 -1.1034
  763SOL    HW2 2289   1.311   1.463   1.982  0.1133 -0.0568 -1.9012
  764SOL     OW 2290   2.972   1.814   2.217 -0.1810  0.0530 -0.0873
  764SOL    HW1 2291   3.057   1.871   2.233  4.0611 -2.3957  0.6709
  764SOL    HW2 2292   2.970   1.741   2.282 -1.3714  2.1216  0.0834
  765SOL     OW 2293   1.260   2.502   1.330  0.4976  0.1319 -0.6441
  765SOL    HW1 2294   1.236   2.506   1.431 -0.0264  1.0124  1.8890
  765SOL    HW2 2295   1.229   2.588   1.276 -0.7743 -0.7038 -3.0124
  766SOL     OW 2296   0.738   2.276   2.492  0.3934 -0.0546  0.5222
  766SOL    HW1 2297   0.822   2.220   2.492 -1.7460 -1.3145  0.7800
  766SOL    HW2 2298   0.676   2.254   2.413 -2.6194  2.3399 -0.0244
  767SOL     OW 2299   1.740   0.359   2.816  0.3441  0.3746  0.1937
  767SOL    HW1 2300   1.802   0.274   2.814  1.6690 -0.3737 -0.7615
  767SOL    HW2 2301   1.773   0.428   2.749 -1.2760  2.1153  2.6580
  768SOL     OW 2302   1.377   2.441   2.863 -0.2792 -0.0754 -0.8439
  768SOL    HW1 2303   1.285   2.389   2.863  0.3702 -3.0598 -1.3230
  768SOL    HW2 2304   1.385   2.502   2.942  1.7493 -1.9413 -1.1278
  769SOL     OW 2305   2.911   2.815   1.397 -0.0611  0.5796  0.4458
  769SOL    HW1 2306   2.869   2.908   1.400  0.8060  0.2250 -1.5437
  769SOL    HW2 2307   2.980   2.809   1.471 -0.9130  0.2664  0.2790
  770SOL     OW 2308   0.605   2.989   2.915 -0.0906  0.1414 -0.4049
  770SOL    HW1 2309   0.604   3.058   2.987  0.7808  0.7018  0.2313
  770SOL    HW2 2310   0.669   2.913   2.938  1.7817 -1.6896 -1.2934
  771SOL     OW 2311   0.519   2.990   2.656 -0.5321 -0.0510  0.3651
  771SOL    HW1 2312   0.536   3.010   2.755 -0.1801  2.3880  1.2320
  771SOL    HW2 2313   0.537   2.888   2.643 -1.9121 -3.2931  2.0934
  772SOL     OW 2314   2.438   0.010   1.936  0.2025 -0.8017  0.6753
  772SOL    HW1 2315   2.412   2.999   1.937 -3.3971  1.3710  1.5493
  772SOL    HW2 2316   2.486   0.038   1.849  0.2374  0.9282  2.0097
  773SOL     OW 2317   0.718   2.347   1.749 -0.0263 -0.0931 -0.0664
  773SOL    HW1 2318   0.675   2.347   1.656  1.2143  0.3563 -0.2305
  773SOL    HW2 2319   0.654   2.388   1.815 -2.9794 -0.5713 -0.1715
  774SOL     OW 2320   1.606   0.528   2.034 -0.1179 -0.4022 -0.2585
  774SOL    HW1 2321   1.595   0.434   2.069  0.0292 -1.7867 -1.2379
  774SOL    HW2 2322   1.522   0.582   2.058  0.4535 -0.0362  2.2754
  775SOL     OW 2323   2.141   2.614   2.983  0.4451 -0.0094  0.1697
  775SOL    HW1 2324   2.142   2.515   2.979  0.0543 -0.4121 -0.5627
  775SOL    HW2 2325   2.225   2.658   2.937  1.1680  1.4448  0.4108
  776SOL     OW 2326   2.184   0.850   2.094 -0.8816 -0.5033  0.1446
  776SOL    HW1 2327   2.174   0.935   2.038  0.3980  0.3736 -1.1795
  776SOL    HW2 2328   2.111   0.776   2.076 -1.2573  1.5255  1.2581
  777SOL     OW 2329   2.856   1.023   2.498  0.4896 -0.2970  0.5347
  777SOL    HW1 2330   2.872   0.922   2.492  0.5311 -0.9255  0.1909
  777SOL    HW2 2331   2.784   1.051   2.441  0.5639  0.2564  1.7658
  778SOL     OW 2332   2.098   0.553   2.241  0.3949  0.8845  0.7427
  778SOL    HW1 2333   2.156   0.612   2.300 -2.1487 -0.3156  1.7391
  778SOL    HW2 2334   2.118   0.563   2.144  1.6199 -0.7689  3.5307
  779SOL     OW 2335   2.973   0.106   0.100 -0.2471 -0.6008 -0.8968
  779SOL    HW1 2336   2.997   0.007   0.097 -1.5560  0.0230  2.3462
  779SOL    HW2 2337   3.057   0.157   0.065  1.4876 -0.6314  0.3592
  780SOL     OW 2338   2.440   0.136   2.528  0.0810  0.0423 -0.5384
  780SOL    HW1 2339   2.341   0.128   2.504 -1.3334 -0.9096 -0.8863
  780SOL    HW2 2340   2.483   0.216   2.488  0.7798 -1.2991  0.6417
  781SOL     OW 2341   0.343   0.153   1.689 -0.1341 -0.1450  0.2324
  781SOL    HW1 2342   0.329   0.228   1.626 -0.5402  1.1199  2.9533
  781SOL    HW2 2343   0.320   0.185   1.784 -2.3244  1.1394  2.1105
  782SOL     OW 2344   1.790   2.381   3.037  0.0452  0.0554 -0.3789
  782SOL    HW1 2345   1.795   2.324   2.953  1.4349  0.2601  1.9131
  782SOL    HW2 2346   1.705   2.367   0.001 -0.3932 -0.4519  1.9550
  783SOL     OW 2347   0.786   1.638   1.532 -0.1020  0.1004 -0.9151
  783SOL    HW1 2348   0.847   1.687   1.469  1.6739  0.4150  0.1146
  783SOL    HW2 2349   0.841   1.557   1.569 -0.8691  1.3136  0.1870
  784SOL     OW 2350   1.857   0.591   2.367 -0.0609 -0.2269 -0.0826
  784SOL    HW1 2351   1.949   0.595   2.324 -2.9145  0.6259  0.3066
  784SOL    HW2 2352   1.825   0.682   2.399  0.3917  0.6746  1.4656
  785SOL     OW 2353   2.998   0.790   1.013 -0.1712  0.0525  0.0551
  785SOL    HW1 2354   2.960   0.870   0.962 -0.1713 -0.8525 -2.3305
  785SOL    HW2 2355   2.939   0.711   0.985 -1.7067  0.5082 -1.0779
  786SOL     OW 2356   1.980   2.933   0.811  0.4036 -0.5256 -0.2125
  786SOL    HW1 2357   1.909   2.861   0.813 -2.9081  0.3746  0.2680
  786SOL    HW2 2358   2.065   2.899   0.771 -0.6992  2.6272  2.4514
  787SOL     OW 2359   1.159   3.041   0.935 -0.1392  0.2334  0.3175
  787SOL    HW1 2360   1.128   0.022   0.869  0.4315  0.5248 -1.5014
  787SOL    HW2 2361   1.216   3.080   1.014  2.4729  0.5716  2.4689
  788SOL     OW 2362   0.264   1.165   0.957 -0.5965  0.2876  0.2766
  788SOL    HW1 2363   0.230   1.200   1.048 -1.0364 -0.7139 -1.6690
  788SOL    HW2 2364   0.239   1.230   0.881  1.4133  0.1306  0.4589
  789SOL     OW 2365   0.300   0.952   2.078  0.3355  0.2401  0.4956
  789SOL    HW1 2366   0.235   0.934   2.150  0.1878 -1.5225  0.7808
  789SOL    HW2 2367   0.390   0.970   2.114 -1.5914 -0.8880  1.6769
  790SOL     OW 2368   0.800   0.504   2.706  0.8767 -0.0563 -0.3539
  790SOL    HW1 2369   0.762   0.514   2.804 -1.0492 -0.1970  0.9438
  790SOL    HW2 2370   0.735   0.450   2.649 -0.1390 -0.5527  1.2756
  791SOL     OW 2371   2.410   0.494   0.186 -0.0558 -0.0530  0.3085
  791SOL    HW1 2372   2.359   0.472   0.275 -0.9811  0.2250 -0.9064
  791SOL    HW2 2373   2.484   0.562   0.202 -0.2735  1.5630  0.4260
  792SOL     OW 2374   1.396   0.563   1.133  0.3906 -0.2307 -0.0364
  792SOL    HW1 2375   1.355   0.640   1.078  2.2399 -0.8665 -0.3038
  792SOL    HW2 2376   1.443   0.598   1.215  1.2231  0.4643 -0.5675
  793SOL     OW 2377   0.221   2.868   1.433 -0.1894 -0.5811  0.2856
  793SOL    HW1 2378   0.323   2.879   1.439 -0.9261  2.3137  1.2448
  793SOL    HW2 2379   0.172   2.953   1.415 -2.1937 -0.5644  1.5901
  794SOL     OW 2380   0.252   0.543   1.926 -0.4846 -0.2075 -0.4361
  794SOL    HW1 2381   0.182   0.605   1.889  3.6151  0.3399 -1.9256
  794SOL    HW2 2382   0.330   0.595   1.972  0.5709 -1.2443 -0.1421
  795SOL     OW 2383   0.448   2.340   2.574  0.1812  0.6456  0.3611
  795SOL    HW1 2384   0.478   2.414   2.513 -1.9894  1.9543  1.4420
  795SOL    HW2 2385   0.359   2.360   2.626 -4.2295 -0.3466  0.3641
  796SOL     OW 2386   2.009   0.224   2.570  0.2954  0.6044 -0.0129
  796SOL    HW1 2387   1.933   0.282   2.532  2.7887 -1.1535  0.1424
  796SOL    HW2 2388   1.987   0.193   2.662 -0.6790 -1.7686 -0.9341
  797SOL     OW 2389   2.406   2.196   2.644 -0.1954 -0.1569 -0.2075
  797SOL    HW1 2390   2.398   2.296   2.654 -0.2480 -1.0760 -0.0279
  797SOL    HW2 2391   2.348   2.146   2.711 -2.2600 -2.1557 -1.7932
  798SOL     OW 2392   0.455   0.817   1.511  0.5802  0.3236  0.3080
  798SOL    HW1 2393   0.507   0.731   1.522 -0.5300  2.1181  0.4683
  798SOL    HW2 2394   0.410   0.832   1.600  0.0973  2.9971  0.9503
  799SOL     OW 2395   0.817   0.298   1.741 -0.0125  0.3556  0.4473
  799SOL    HW1 2396   0.714   0.309   1.755  0.3072  0.5404 -0.1854
  799SOL    HW2 2397   0.841   0.201   1.766  1.5398  0.4427  1.2796
  800SOL     OW 2398   2.892   2.458   0.319 -0.1118  0.0226  0.2641
  800SOL    HW1 2399   2.972   2.397   0.297  0.2742 -0.7939  0.0547
  800SOL    HW2 2400   2.922   2.550   0.350 -1.5051 -0.9979  0.5252
  801SOL     OW 2401   1.534   1.848   0.550 -0.2604 -0.3125 -0.0102
  801SOL    HW1 2402   1.452   1.885   0.495 -0.0985  1.2110 -1.5265
  801SOL    HW2 2403   1.506   1.811   0.637 -0.8612  1.7361 -0.7247
  802SOL     OW 2404   0.621   0.547   0.206  0.1177 -0.6980 -0.5447
  802SOL    HW1 2405   0.574   0.618   0.271 -4.0567 -0.5158  1.2213
  802SOL    HW2 2406   0.629   0.585   0.111  1.7317  0.1794  0.7294
  803SOL     OW 2407   1.226   1.066   2.320 -0.5036 -0.3647 -0.1318
  803SOL    HW1 2408   1.203   0.995   2.391  1.4562  1.0325  0.8317
  803SOL    HW2 2409   1.149   1.127   2.303  2.0016 -2.2885 -1.3005
  804SOL     OW 2410   1.940   2.024   1.397  0.6188 -0.5904 -0.3527
  804SOL    HW1 2411   1.930   1.994   1.496  0.3744  1.4285  0.2299
  804SOL    HW2 2412   2.033   2.068   1.380  0.9241  0.8021  0.7555
  805SOL     OW 2413   3.053   2.058   2.514  0.1101  0.0218  0.4488
  805SOL    HW1 2414   0.058   2.022   2.541  0.8366 -1.2707  0.5892
  805SOL    HW2 2415   3.050   2.086   2.415  0.6777 -1.0604 -0.7827
  806SOL     OW 2416   0.641   2.506   0.316 -0.1456  0.3649 -0.3656
  806SOL    HW1 2417   0.670   2.566   0.237 -0.1794 -0.2856  1.0111
  806SOL    HW2 2418   0.541   2.519   0.334  0.6949  1.5163 -1.7109
  807SOL     OW 2419   2.302   0.990   2.823  0.1480 -0.1765  0.4661
  807SOL    HW1 2420   2.244   1.062   2.865 -0.8976  0.4012 -0.5116
  807SOL    HW2 2421   2.244   0.907   2.802 -1.4532 -0.7016  1.6725
  808SOL     OW 2422   1.484   2.169   0.822 -0.4481  1.0668  0.2075
  808SOL    HW1 2423   1.556   2.133   0.761 -1.9252 -1.9829  1.3764
  808SOL    HW2 2424   1.527   2.186   0.917  2.2266  0.8145 -1.0838
  809SOL     OW 2425   0.228   0.679   0.697 -0.0398  0.1417  0.3893
  809SOL    HW1 2426   0.270   0.763   0.664  2.8610 -1.2780 -0.1913
  809SOL    HW2 2427   0.261   0.657   0.793  1.9080 -0.0502  1.3596
  810SOL     OW 2428   1.354   1.703   3.039  0.5206  0.2368 -0.6127
  810SOL    HW1 2429   1.375   1.782   2.974 -0.9852  1.5544 -4.7325
  810SOL    HW2 2430   1.421   1.696   0.027  3.0580 -0.7800  0.5408
  811SOL     OW 2431   1.315   2.885   1.689 -0.4072 -0.2936 -0.0428
  811SOL    HW1 2432   1.412   2.877   1.658 -1.3170  0.5383 -1.6639
  811SOL    HW2 2433   1.255   2.844   1.622  2.2083 -2.7139  0.7067
  812SOL     OW 2434   1.673   3.028   1.036  0.1536 -0.4078  0.0775
  812SOL    HW1 2435   1.609   3.046   0.961  3.3049 -2.0067  2.4171
  812SOL    HW2 2436   1.774   3.048   1.011  0.2073  1.2978 -0.4189
  813SOL     OW 2437   1.457   2.910   2.129  0.2614 -0.0349  0.2992
  813SOL    HW1 2438   1.416   2.819   2.106  2.0683  3.1556  1.4034
  813SOL    HW2 2439   1.392   2.988   2.100 -3.1218  2.1336 -0.3245
  814SOL     OW 2440   1.119   2.781   1.885  0.5490 -0.2807  0.2732
  814SOL    HW1 2441   1.164   2.804   1.978 -0.4336  0.6222  1.0469
  814SOL    HW2 2442   1.159   2.840   1.814  2.4537  0.5951  0.5243
  815SOL     OW 2443   0.314   0.130   0.046 -0.4171 -0.3209  0.2644
  815SOL    HW1 2444   0.342   0.158   0.143 -0.2290  2.1526  2.5529
  815SOL    HW2 2445   0.367   0.181   3.065 -1.7391 -1.3207 -2.7746
  816SOL     OW 2446   2.514   1.367   3.005  0.0896  0.4762  0.1996
  816SOL    HW1 2447   2.591   1.350   2.942  1.2459  1.7774 -0.9990
  816SOL    HW2 2448   2.527   1.308   0.001 -0.9715 -2.0652  1.0959
  817SOL     OW 2449   2.635   2.267   2.501 -0.3891 -0.0217 -0.1275
  817SOL    HW1 2450   2.548   2.250   2.548 -1.3028  1.4448 -0.4298
  817SOL    HW2 2451   2.703   2.221   2.553  0.3800  1.4378 -3.0178
  818SOL     OW 2452   0.915   1.367   0.446  0.2017 -0.0032  0.2024
  818SOL    HW1 2453   0.933   1.333   0.542  1.2006 -0.8072  1.1331
  818SOL    HW2 2454   0.849   1.306   0.396  0.0514  0.8891  0.0056
  819SOL     OW 2455   1.548   1.290   2.958  0.4503  0.3912 -0.4013
  819SOL    HW1 2456   1.632   1.232   2.971  1.2310  0.7186 -1.7995
  819SOL    HW2 2457   1.574   1.381   2.927  0.7436 -0.5678 -0.1663
  820SOL     OW 2458   0.383   1.473   0.666 -0.0395 -0.1594  0.0153
  820SOL    HW1 2459   0.472   1.490   0.711  0.0885  1.9766 -0.8628
  820SOL    HW2 2460   0.399   1.498   0.568  1.6754 -1.4621  0.0921
  821SOL     OW 2461   0.489   2.880   1.394  0.2721  0.6620 -0.3071
  821SOL    HW1 2462   0.575   2.840   1.360  1.0653  0.4640  0.9444
  821SOL    HW2 2463   0.510   2.960   1.451  0.3694  0.3080 -0.6765
  822SOL     OW 2464   1.964   1.882   2.680  0.2324  0.2060  0.5264
  822SOL    HW1 2465   1.972   1.943   2.761 -0.5045 -0.5525 -1.8199
  822SOL    HW2 2466   2.003   1.921   2.595 -2.0449  0.9654  0.0472
  823SOL     OW 2467   0.736   0.625   2.348 -0.1823  0.4740  0.0164
  823SOL    HW1 2468   0.786   0.619   2.258 -1.0437  0.2702 -3.5190
  823SOL    HW2 2469   0.636   0.599   2.338  0.5359  0.3621 -3.0401
  824SOL     OW 2470   2.461   2.797   1.540 -0.0994 -0.0086  0.7829
  824SOL    HW1 2471   2.399   2.790   1.621  1.7252 -0.8066  0.9325
  824SOL    HW2 2472   2.482   2.890   1.504 -0.9701  1.2834  0.9949
  825SOL     OW 2473   0.279   1.745   2.417  0.2310  0.3812  0.5181
  825SOL    HW1 2474   0.210   1.815   2.392 -1.6042  0.7547  2.4925
  825SOL    HW2 2475   0.259   1.703   2.504  1.2034  3.0866  1.1332
  826SOL     OW 2476   1.593   0.185   0.133  0.2518  0.4267  0.4407
  826SOL    HW1 2477   1.634   0.272   0.167  2.2909  0.5846 -1.2888
  826SOL    HW2 2478   1.659   0.109   0.154  0.5477 -2.0568  0.1445
  827SOL     OW 2479   2.888   1.792   1.955 -0.0126  0.2400  0.2710
  827SOL    HW1 2480   2.850   1.697   1.960 -1.0806  0.9560 -0.2595
  827SOL    HW2 2481   2.931   1.812   2.042  1.2719 -0.6618 -1.9522
  828SOL     OW 2482   0.227   0.195   1.270  0.0114  0.2749  0.0146
  828SOL    HW1 2483   0.287   0.139   1.209 -0.3340  2.0267 -2.6820
  828SOL    HW2 2484   0.257   0.291   1.275  1.2317 -0.4161  0.9114
  829SOL     OW 2485   0.926   1.605   2.318 -0.0491 -0.2951 -0.1191
  829SOL    HW1 2486   0.871   1.640   2.399  1.1789  2.8301 -1.9561
  829SOL    HW2 2487   0.886   1.519   2.284  1.2288 -1.1159 -1.2948
  830SOL     OW 2488   0.928   0.956   1.598  1.0520 -0.3048 -0.1170
  830SOL    HW1 2489   0.884   0.984   1.508  0.8955  1.7847 -1.8385
  830SOL    HW2 2490   0.881   0.877   1.643 -1.5164  2.4786 -2.5124
  831SOL     OW 2491   2.608   1.636   0.149  0.0987 -0.2283  0.1479
  831SOL    HW1 2492   2.590   1.620   0.051  1.3526 -2.3869 -1.4786
  831SOL    HW2 2493   2.696   1.589   0.182  1.2545 -0.5951  0.0086
  832SOL     OW 2494   1.060   2.326   2.833  0.4663  0.0615  0.1821
  832SOL    HW1 2495   0.957   2.337   2.850  2.4602 -0.1772  1.2772
  832SOL    HW2 2496   1.084   2.279   2.744  2.1385 -0.1898  1.1468
  833SOL     OW 2497   0.316   0.422   1.571  0.3204 -0.4866  0.1730
  833SOL    HW1 2498   0.235   0.456   1.624  1.5576 -0.6651  1.0095
  833SOL    HW2 2499   0.310   0.432   1.471  0.4659 -1.2574  0.0946
  834SOL     OW 2500   3.074   1.124   1.207  0.1129 -0.5359  0.3945
  834SOL    HW1 2501   0.070   1.078   1.246 -1.4532 -1.2386  1.7457
  834SOL    HW2 2502   2.990   1.071   1.233  0.3575 -2.6527 -0.3715
  835SOL     OW 2503   2.748   0.542   0.570 -0.3611  0.1371  0.0391
  835SOL    HW1 2504   2.803   0.575   0.647  0.2579 -0.1747 -1.4901
  835SOL    HW2 2505   2.731   0.442   0.575  1.1519  0.7106  0.6253
  836SOL     OW 2506   0.464   2.221   2.975 -0.5174  0.1663  0.2826
  836SOL    HW1 2507   0.500   2.175   3.057 -0.3452  3.4896 -0.0251
  836SOL    HW2 2508   0.500   2.176   2.889 -0.6197 -5.1697  0.9355
  837SOL     OW 2509   1.366   1.951   0.352 -0.1607 -0.2420 -0.6094
  837SOL    HW1 2510   1.356   2.010   0.272 -1.0880  1.2224  0.9131
  837SOL    HW2 2511   1.306   1.874   0.340 -3.5131  1.1864 -1.1238
  838SOL     OW 2512   2.355   0.988   2.222  0.2023  0.2896 -0.3572
  838SOL    HW1 2513   2.424   1.018   2.146 -0.0797  3.0623 -2.7544
  838SOL    HW2 2514   2.285   0.929   2.175  0.6396  0.5103 -0.3784
  839SOL     OW 2515   1.178   1.215   2.720  0.2628  0.2170 -0.2533
  839SOL    HW1 2516   1.086   1.183   2.744  2.4821 -2.1766 -0.2408
  839SOL    HW2 2517   1.193   1.312   2.751 -0.6561 -0.4913  2.7585
  840SOL     OW 2518   0.648   1.053   0.109  0.2422  0.0673  0.6662
  840SOL    HW1 2519   0.571   0.987   0.123  1.9627  0.4414  0.6269
  840SOL    HW2 2520   0.686   1.076   0.199 -0.3971  0.6428  0.0025
  841SOL     OW 2521   1.173   2.255   0.004  0.0579 -0.4086 -0.1308
  841SOL    HW1 2522   1.184   2.330   0.071 -1.5161  0.1417  0.8068
  841SOL    HW2 2523   1.138   2.283   3.003  1.8895 -4.0364  1.5498
  842SOL     OW 2524   0.405   0.524   0.561 -0.2234 -0.1875 -0.2731
  842SOL    HW1 2525   0.329   0.560   0.618  1.2107 -2.7055 -1.6502
  842SOL    HW2 2526   0.421   0.425   0.579  2.4490 -1.3619  0.8963
  843SOL     OW 2527   0.602   0.806   1.038  0.0687  0.6112  0.0006
  843SOL    HW1 2528   0.578   0.889   1.092  0.6358 -1.5381 -1.8619
  843SOL    HW2 2529   0.518   0.775   0.988  0.7807  1.0789  0.7500
  844SOL     OW 2530   1.971   2.438   2.477 -0.2012  0.4252 -0.1054
  844SOL    HW1 2531   2.031   2.519   2.477  0.1337 -0.8490 -0.1380
  844SOL    HW2 2532   1.884   2.462   2.434 -0.6519 -2.7326  1.9031
  845SOL     OW 2533   2.830   2.905   1.868 -0.5974 -0.3092  0.7642
  845SOL    HW1 2534   2.927   2.876   1.845  3.8056 -0.5645  0.3260
  845SOL    HW2 2535   2.763   2.842   1.824  0.4274 -1.3069  2.1928
  846SOL     OW 2536   1.790   0.804   2.558 -0.1940 -0.2067 -0.4097
  846SOL    HW1 2537   1.774   0.744   2.642  2.1222 -1.3156  0.6926
  846SOL    HW2 2538   1.731   0.884   2.553  1.2956 -4.6178 -2.9529
  847SOL     OW 2539   0.071   0.507   1.666 -0.0434  0.5979 -0.1849
  847SOL    HW1 2540   0.069   0.577   1.740 -0.3454 -0.5523  2.3364
  847SOL    HW2 2541   0.003   0.432   1.690 -1.5158 -0.0127 -2.9354
  848SOL     OW 2542   2.560   2.765   0.295  0.2441  0.8883 -0.0824
  848SOL    HW1 2543   2.641   2.765   0.232  0.1566 -1.0403 -2.5308
  848SOL    HW2 2544   2.499   2.688   0.262  0.2757  2.8214 -0.0947
  849SOL     OW 2545   0.553   2.954   0.863 -0.1251  0.3156  0.0716
  849SOL    HW1 2546   0.554   2.874   0.926 -0.9548  1.4619  2.2903
  849SOL    HW2 2547   0.457   2.989   0.850  0.2628 -1.9147 -0.7634
  850SOL     OW 2548   0.617   2.241   0.376 -0.1105  0.1308  0.3102
  850SOL    HW1 2549   0.625   2.342   0.361 -2.2365 -0.9769  0.5031
  850SOL    HW2 2550   0.704   2.197   0.360 -1.7082 -0.9986  1.0649
  851SOL     OW 2551   2.061   0.507   2.929  0.2917  0.1263  0.2585
  851SOL    HW1 2552   2.098   0.487   2.837 -2.0192 -0.6949 -1.9997
  851SOL    HW2 2553   1.963   0.528   2.928 -1.5410  0.9507 -0.1758
  852SOL     OW 2554   1.661   2.399   2.564 -0.1290  0.0501  0.1178
  852SOL    HW1 2555   1.721   2.401   2.647  1.5654  0.5613 -0.7428
  852SOL    HW2 2556   1.705   2.349   2.490 -1.1855 -0.9361 -0.4881
  853SOL     OW 2557   0.057   2.355   0.186  0.0866  0.2274  0.3298
  853SOL    HW1 2558   0.115   2.418   0.127 -0.0813 -2.0461 -3.0429
  853SOL    HW2 2559   0.108   2.306   0.257  0.1418  0.2918 -1.7181
  854SOL     OW 2560   1.133   0.535   2.212 -0.5258  0.2257 -0.6684
  854SOL    HW1 2561   1.156   0.437   2.212  1.0358  1.2129 -0.2696
  854SOL    HW2 2562   1.186   0.587   2.282  1.3898  0.5650 -1.8410
  855SOL     OW 2563   0.239   2.848   0.706 -0.3548 -0.5593 -0.0739
  855SOL    HW1 2564   0.199   2.772   0.764 -0.8522 -0.2416  1.2604
  855SOL    HW2 2565   0.288   2.812   0.620 -0.2439  0.3197  1.8883
  856SOL     OW 2566   0.291   2.918   2.495 -0.2136 -0.1646  0.1958
  856SOL    HW1 2567   0.264   2.820   2.493  2.4646 -0.3892  0.8334
  856SOL    HW2 2568   0.375   2.932   2.551 -0.1403 -0.1232  1.7862
  857SOL     OW 2569   1.168   0.292   1.657 -0.0514 -0.3977  0.1025
  857SOL    HW1 2570   1.149   0.315   1.755 -1.9330  0.0359  1.5225
  857SOL    HW2 2571   1.098   0.331   1.597  2.7084  1.3752  0.5770
  858SOL     OW 2572   3.078   2.081   1.596 -0.0353  0.4067  0.2995
  858SOL    HW1 2573   3.008   2.154   1.601 -2.0304  3.1161 -1.9771
  858SOL    HW2 2574   0.079   2.128   1.584 -0.8655  0.2489 -0.0613
  859SOL     OW 2575   1.995   2.795   1.946 -0.2511 -0.5936 -0.4308
  859SOL    HW1 2576   2.046   2.867   1.897 -0.9534  0.4601  0.0915
  859SOL    HW2 2577   1.957   2.721   1.887 -0.0791  2.2582  4.7274
  860SOL     OW 2578   1.752   0.245   0.765 -0.0104 -0.1215 -0.0486
  860SOL    HW1 2579   1.684   0.241   0.837  2.2988 -2.7247  0.8980
  860SOL    HW2 2580   1.821   0.317   0.778  2.1341  1.1763 -1.9960
  861SOL     OW 2581   2.782   0.804   0.498  0.2501  0.1719  0.0729
  861SOL    HW1 2582   2.759   0.706   0.517  2.4208 -0.6195  0.8308
  861SOL    HW2 2583   2.861   0.833   0.557  2.6328  1.6050 -0.9584
  862SOL     OW 2584   2.045   0.641   1.950 -0.0446 -0.5204 -0.1586
  862SOL    HW1 2585   2.027   0.544   1.924  2.3963 -3.0923  0.3445
  862SOL    HW2 2586   2.098   0.697   1.878  1.6828  1.7559 -0.5896
  863SOL     OW 2587   0.851   0.889   0.968 -0.3549 -0.3051 -0.1758
  863SOL    HW1 2588   0.760   0.854   0.995  0.2595  4.2155 -0.7036
  863SOL    HW2 2589   0.926   0.821   0.988 -0.6713  0.6807 -0.2218
  864SOL     OW 2590   2.969   2.844   2.305 -0.1663 -0.1575 -0.3239
  864SOL    HW1 2591   2.891   2.783   2.301  2.2327  3.0489  1.1489
  864SOL    HW2 2592   2.943   2.941   2.324 -0.5692 -0.4205  0.4742
  865SOL     OW 2593   1.264   0.622   2.428 -0.3450  0.4383  0.1948
  865SOL    HW1 2594   1.233   0.535   2.473 -0.5569  1.6379  0.9075
  865SOL    HW2 2595   1.363   0.639   2.448  1.0903 -1.3207 -1.4393
  866SOL     OW 2596   2.463   2.548   0.693 -0.3408  1.1227  0.3739
  866SOL    HW1 2597   2.408   2.555   0.778  0.6148 -1.7316  0.1848
  866SOL    HW2 2598   2.536   2.476   0.701 -4.1277  1.6246 -0.7990
  867SOL     OW 2599   2.865   2.902   0.458  0.4803  0.0638 -0.8610
  867SOL    HW1 2600   2.778   2.908   0.514 -0.1664  2.0678 -1.9564
  867SOL    HW2 2601   2.881   2.991   0.415 -0.5787 -0.9665 -0.0240
  868SOL     OW 2602   1.642   0.996   0.040 -0.2840  0.0954  0.1535
  868SOL    HW1 2603   1.551   0.980   3.086 -0.6252  0.4666 -0.6045
  868SOL    HW2 2604   1.648   1.088   0.087  1.8606  1.2210 -0.3069
  869SOL     OW 2605   2.947   2.306   0.555  0.0260 -0.3388  0.1076
  869SOL    HW1 2606   2.944   2.220   0.606 -1.8765 -0.7078 -1.2791
  869SOL    HW2 2607   2.927   2.293   0.455  1.2472  0.7491  0.5574
  870SOL     OW 2608   2.202   2.000   0.259  0.2094  0.1522 -0.5414
  870SOL    HW1 2609   2.108   2.024   0.290  3.8976  0.0999 -0.1942
  870SOL    HW2 2610   2.251   1.935   0.320 -0.0371 -0.1696  0.6429
  871SOL     OW 2611   0.837   1.141   1.042  0.4970  0.3158 -0.1110
  871SOL    HW1 2612   0.849   1.049   0.994 -0.5259  0.2495  1.7965
  871SOL    HW2 2613   0.810   1.119   1.135  1.3302  1.8604 -1.3586
  872SOL     OW 2614   1.094   2.033   2.177  0.2233  0.1871  0.6327
  872SOL    HW1 2615   1.188   2.065   2.142 -1.0335  1.7886 -1.6817
  872SOL    HW2 2616   1.033   2.007   2.100  0.9142 -0.9574  0.6142
  873SOL     OW 2617   0.544   2.435   1.919  0.1590  0.0812  0.0720
  873SOL    HW1 2618   0.569   2.513   1.982  0.9602 -0.5846  0.4118
  873SOL    HW2 2619   0.503   2.361   1.973  1.7039  0.9335 -0.3455
  874SOL     OW 2620   0.910   0.194   1.053  0.1841  0.0493  0.2484
  874SOL    HW1 2621   0.902   0.298   1.061 -0.9787  2.6001  1.9105
  874SOL    HW2 2622   0.925   0.161   1.148 -1.4656  0.9904  1.2824
  875SOL     OW 2623   3.025   0.308   1.223 -0.5279 -0.3418  0.2358
  875SOL    HW1 2624   2.943   0.288   1.282 -0.7462  1.0529  0.7634
  875SOL    HW2 2625   3.083   0.377   1.273 -0.9020 -4.0228  1.8235
  876SOL     OW 2626   0.439   0.883   0.151 -0.2097 -0.1051  0.3778
  876SOL    HW1 2627   0.440   0.816   0.229  3.7182  1.4558 -1.1493
  876SOL    HW2 2628   0.359   0.940   0.151  3.6487 -2.8967 -0.5236
  877SOL     OW 2629   1.079   0.628   1.495  0.3626 -0.3538  0.1325
  877SOL    HW1 2630   1.135   0.557   1.445  2.2467  0.1088 -1.8113
  877SOL    HW2 2631   1.125   0.652   1.585  4.0716  1.4189  1.6109
  878SOL     OW 2632   1.876   2.620   0.365  0.3774  0.1938 -0.1991
  878SOL    HW1 2633   1.939   2.588   0.293  0.4505 -1.6873  0.4666
  878SOL    HW2 2634   1.902   2.571   0.449  2.7072  0.9621 -1.4402
  879SOL     OW 2635   2.651   1.374   1.268 -0.3849  0.1274 -1.1314
  879SOL    HW1 2636   2.690   1.285   1.230  1.7689 -0.6851  1.1011
  879SOL    HW2 2637   2.594   1.423   1.199 -0.7895  0.8135 -1.2441
  880SOL     OW 2638   1.461   2.446   0.714  0.6457 -0.0543 -0.1050
  880SOL    HW1 2639   1.491   2.353   0.743  0.5751 -0.3313  1.9728
  880SOL    HW2 2640   1.414   2.449   0.619 -0.7707  2.5952 -4.3216
  881SOL     OW 2641   0.840   2.086   0.315  0.1455  0.5370 -0.4501
  881SOL    HW1 2642   0.933   2.121   0.307 -0.1283 -3.6456 -1.6598
  881SOL    HW2 2643   0.817   2.032   0.233  1.0575  0.3937  0.6733
  882SOL     OW 2644   1.952   0.951   1.350  0.3543 -0.1629  0.3826
  882SOL    HW1 2645   2.043   0.952   1.309 -1.0700  0.1407 -2.1360
  882SOL    HW2 2646   1.930   1.037   1.399  0.0217  1.0115 -2.1382
  883SOL     OW 2647   1.687   0.937   1.666  0.2335 -0.1389  0.0168
  883SOL    HW1 2648   1.748   0.859   1.638  0.2958 -2.3291  2.2390
  883SOL    HW2 2649   1.672   0.945   1.768 -2.0197 -1.4335 -0.3038
  884SOL     OW 2650   2.863   0.557   0.309 -0.4648 -0.0309 -0.4806
  884SOL    HW1 2651   2.820   0.569   0.404 -3.1679 -0.0218  0.5798
  884SOL    HW2 2652   2.963   0.537   0.318  4.0444 -0.9054  1.1685
  885SOL     OW 2653   1.249   1.460   2.799 -0.5564  0.2762  0.3238
  885SOL    HW1 2654   1.318   1.532   2.800 -2.4331 -1.7982  0.2706
  885SOL    HW2 2655   1.172   1.480   2.860 -0.7784  0.3130 -1.9221
  886SOL     OW 2656   1.477   1.737   2.721 -0.5089 -0.2486 -0.6478
  886SOL    HW1 2657   1.420   1.732   2.640  0.5489 -1.0721  2.5205
  886SOL    HW2 2658   1.578   1.727   2.696  0.8743  0.9532  1.4188
  887SOL     OW 2659   1.488   0.095   1.319  0.5910  0.2159  0.1617
  887SOL    HW1 2660   1.553   0.146   1.261 -2.3302 -3.2726  0.4502
  887SOL    HW2 2661   1.452   0.151   1.401 -4.1390  2.7101  2.3881
  888SOL     OW 2662   2.591   0.639   1.585  0.5800  0.0984 -0.1621
  888SOL    HW1 2663   2.695   0.642   1.602  1.3352 -1.3792  2.0801
  888SOL    HW2 2664   2.574   0.661   1.488  0.3972 -1.3454 -1.3410
  889SOL     OW 2665   2.953   2.856   0.897  0.1913  0.0025  0.0982
  889SOL    HW1 2666   2.904   2.792   0.836  0.0204 -0.0146  1.8660
  889SOL    HW2 2667   2.946   2.819   0.990  0.5890  2.0688 -4.6005
  890SOL     OW 2668   1.915   2.287   0.313  0.2269  0.0674  0.2800
  890SOL    HW1 2669   1.818   2.310   0.335  3.6840  1.9795  0.5892
  890SOL    HW2 2670   1.956   2.325   0.225  2.9349  0.1033 -0.3902
  891SOL     OW 2671   0.578   1.112   2.716  0.4766  0.0118  0.2164
  891SOL    HW1 2672   0.524   1.106   2.627  1.1767  0.9821 -2.8706
  891SOL    HW2 2673   0.669   1.147   2.690 -2.5673  0.5656  2.9846
  892SOL     OW 2674   0.075   3.084   1.359  0.4235  0.0271 -0.2256
  892SOL    HW1 2675   0.118   0.071   1.305  0.4654 -0.8571  1.3116
  892SOL    HW2 2676   3.072   3.059   1.323  2.6118  1.3420  1.0522
  893SOL     OW 2677   1.408   2.851   1.082 -0.6989  0.1130  0.1651
  893SOL    HW1 2678   1.423   2.913   1.160  3.3967  1.0631  0.9384
  893SOL    HW2 2679   1.478   2.850   1.009 -0.5579 -1.5159  0.1829
  894SOL     OW 2680   2.476   0.601   0.611  0.0971  0.0272 -0.0820
  894SOL    HW1 2681   2.470   0.635   0.515  0.1535  3.4090 -0.6995
  894SOL    HW2 2682   2.560   0.546   0.625 -3.8886  0.3873 -0.3495
  895SOL     OW 2683   1.792   1.455   2.426 -0.0642 -0.1876 -0.0401
  895SOL    HW1 2684   1.798   1.397   2.509  1.2077  0.6547 -1.8132
  895SOL    HW2 2685   1.880   1.460   2.371  1.7627  0.8846 -1.7114
  896SOL     OW 2686   1.697   0.518   1.763 -0.0306 -0.2585  0.2330
  896SOL    HW1 2687   1.664   0.483   1.853 -1.9292 -1.7515  0.5286
  896SOL    HW2 2688   1.743   0.445   1.707  1.5255  0.4514  1.1779
  897SOL     OW 2689   0.778   1.423   2.139 -0.1266  0.3530  0.0839
  897SOL    HW1 2690   0.840   1.385   2.069 -1.4031 -1.7368 -1.0192
  897SOL    HW2 2691   0.727   1.504   2.096 -0.7445  1.1283 -1.1846
  898SOL     OW 2692   2.326   2.303   2.317 -0.2566 -0.5549 -0.0920
  898SOL    HW1 2693   2.302   2.364   2.236  1.1465 -1.7012  1.7705
  898SOL    HW2 2694   2.415   2.261   2.317  1.3013  0.6904  2.7628
  899SOL     OW 2695   1.275   1.331   1.714  0.3987 -0.1263 -0.1359
  899SOL    HW1 2696   1.182   1.292   1.719 -0.9731 -0.3127  1.7257
  899SOL    HW2 2697   1.295   1.362   1.618  2.0687 -2.7833 -2.7438
  900SOL     OW 2698   1.180   2.153   2.653 -0.2120  0.3735  0.6285
  900SOL    HW1 2699   1.136   2.068   2.680  0.0401  0.3256 -1.4904
  900SOL    HW2 2700   1.160   2.171   2.549 -0.4439  0.4260 -3.1663
  901SOL     OW 2701   0.530   1.858   2.481  0.5762  0.3184  0.3409
  901SOL    HW1 2702   0.458   1.801   2.441 -0.6668  2.6939  3.2855
  901SOL    HW2 2703   0.479   1.940   2.518  1.3197  1.6787  0.1292
  902SOL     OW 2704   1.806   1.662   0.126  0.1248  0.0078 -0.4981
  902SOL    HW1 2705   1.819   1.592   0.054 -1.5293  1.0335 -1.0325
  902SOL    HW2 2706   1.892   1.669   0.184  0.8193 -0.7840  1.8235
  903SOL     OW 2707   1.760   1.329   0.195  0.4785 -0.0372  0.0191
  903SOL    HW1 2708   1.786   1.397   0.123  0.4335 -0.4552  1.2832
  903SOL    HW2 2709   1.838   1.263   0.215 -0.3112 -0.5283  0.5454
  904SOL     OW 2710   0.830   0.776   2.691 -0.0181 -0.6696 -0.3023
  904SOL    HW1 2711   0.826   0.674   2.688  0.1475  1.9286 -0.8242
  904SOL    HW2 2712   0.892   0.811   2.763  0.9657  1.8809 -0.5711
  905SOL     OW 2713   2.898   0.500   1.054  0.0714 -0.2511  0.2552
  905SOL    HW1 2714   2.864   0.471   0.960 -2.3861 -1.6022 -0.7755
  905SOL    HW2 2715   2.956   0.429   1.093 -2.6609  0.6246  0.9921
  906SOL     OW 2716   2.857   2.034   0.675 -0.5974 -0.1757 -0.2410
  906SOL    HW1 2717   2.833   1.952   0.729  1.1256 -1.6627 -2.7142
  906SOL    HW2 2718   2.845   2.112   0.739  0.1373  0.4638  2.4237
  907SOL     OW 2719   1.320   0.465   0.553  0.2106 -0.0135 -0.2640
  907SOL    HW1 2720   1.373   0.381   0.569  0.8501  1.2984  2.4433
  907SOL    HW2 2721   1.288   0.469   0.456 -1.8920 -0.4860  1.5115
  908SOL     OW 2722   1.713   0.030   1.676  0.2634  0.3634  0.1756
  908SOL    HW1 2723   1.807   0.013   1.649 -1.4494 -0.7060  1.2946
  908SOL    HW2 2724   1.691   3.077   1.767 -0.5021  1.1221 -0.4237
  909SOL     OW 2725   2.530   0.746   1.319  0.2602  0.0510  0.2968
  909SOL    HW1 2726   2.595   0.679   1.275  1.9824 -4.4384 -2.4160
  909SOL    HW2 2727   2.578   0.830   1.351  0.2859  2.1763  3.6760
  910SOL     OW 2728   0.978   2.707   2.242  0.5459  0.1534  0.0012
  910SOL    HW1 2729   0.933   2.701   2.333  2.8174  0.4111 -2.6462
  910SOL    HW2 2730   0.949   2.626   2.183 -2.0924 -0.0499  0.1566
  911SOL     OW 2731   2.447   0.918   1.676 -0.7076 -0.1479  0.2029
  911SOL    HW1 2732   2.436   0.816   1.656  0.7495 -1.6332  0.9438
  911SOL    HW2 2733   2.361   0.959   1.636  0.4543  2.7653  1.2774
  912SOL     OW 2734   2.783   1.981   1.522  0.0070 -0.0609 -0.1566
  912SOL    HW1 2735   2.696   2.024   1.495 -1.0810 -1.9255 -0.0613
  912SOL    HW2 2736   2.779   1.941   1.616  0.9365  1.8258 -2.6284
  913SOL     OW 2737   2.607   2.135   1.355 -0.1934  0.1449  0.1628
  913SOL    HW1 2738   2.529   2.200   1.347 -0.9735  1.3345  2.3253
  913SOL    HW2 2739   2.632   2.091   1.268  0.4962  1.2226  0.8287
  914SOL     OW 2740   2.095   1.683   1.482 -0.2769 -0.0386 -0.1708
  914SOL    HW1 2741   2.192   1.693   1.453  0.0453 -1.2500  1.6685
  914SOL    HW2 2742   2.050   1.609   1.428 -0.9184 -0.1657 -0.3983
  915SOL     OW 2743   1.272   1.340   1.444  0.9806 -0.6101  0.0399
  915SOL    HW1 2744   1.255   1.405   1.367 -0.8836 -1.0305 -2.3159
  915SOL    HW2 2745   1.223   1.245   1.420  0.3429 -1.0092  2.4818
  916SOL     OW 2746   2.502   2.599   1.384 -0.2091  0.2055  0.7366
  916SOL    HW1 2747   2.598   2.625   1.368 -1.4516  0.0926 -0.3157
  916SOL    HW2 2748   2.466   2.676   1.439  2.2270 -1.0238  1.4546
  917SOL     OW 2749   2.565   1.644   2.979 -1.0777 -0.2959  0.1214
  917SOL    HW1 2750   2.493   1.705   2.944  0.6944 -0.2128 -1.5000
  917SOL    HW2 2751   2.540   1.545   2.972  1.8654 -1.5751  0.7486
  918SOL     OW 2752   1.754   2.288   2.325  0.0129 -0.4952  0.4127
  918SOL    HW1 2753   1.801   2.199   2.348  0.2156 -1.1636 -0.1353
  918SOL    HW2 2754   1.748   2.307   2.225 -0.4816  1.4854 -1.3598
  919SOL     OW 2755   1.362   2.098   1.740  0.3484  0.4424 -0.2552
  919SOL    HW1 2756   1.419   2.033   1.799  2.8248  1.7327 -0.5155
  919SOL    HW2 2757   1.407   2.111   1.648  0.1093  0.3471  0.1042
  920SOL     OW 2758   2.973   0.213   2.865 -0.0912  0.5376  0.1667
  920SOL    HW1 2759   3.046   0.216   2.937  0.1995 -0.4594  0.4485
  920SOL    HW2 2760   2.883   0.220   2.911  2.4127  0.3402 -0.9100
  921SOL     OW 2761   2.792   0.311   2.341 -0.0497 -0.2205  0.2712
  921SOL    HW1 2762   2.869   0.280   2.401  0.5850 -2.1523  0.5236
  921SOL    HW2 2763   2.714   0.325   2.405  1.2996  0.4220  0.6172
  922SOL     OW 2764   2.214   2.141   0.537 -0.1139 -0.0906  0.2215
  922SOL    HW1 2765   2.270   2.215   0.490  2.1996  2.1769 -2.6216
  922SOL    HW2 2766   2.185   2.075   0.467  1.1406 -0.3615 -2.5130
  923SOL     OW 2767   0.212   1.897   0.304 -0.1851  0.0679 -0.4703
  923SOL    HW1 2768   0.235   1.898   0.207 -1.9847 -1.1144  1.0461
  923SOL    HW2 2769   0.278   1.955   0.361  2.1040  2.1827  4.7784
  924SOL     OW 2770   1.240   0.347   2.939  0.6749  0.0318 -0.1095
  924SOL    HW1 2771   1.191   0.270   2.986  1.7398  0.1176  1.9679
  924SOL    HW2 2772   1.336   0.327   2.912  2.8997  2.5454  0.2503
  925SOL     OW 2773   2.471   1.110   0.712  0.0492  0.7274  0.0543
  925SOL    HW1 2774   2.469   1.209   0.734 -0.9262 -2.6180 -3.2582
  925SOL    HW2 2775   2.518   1.094   0.624 -0.9903 -2.3662  0.5596
  926SOL     OW 2776   2.737   1.034   0.872 -0.2141 -0.0286  0.2619
  926SOL    HW1 2777   2.652   1.075   0.837 -0.9398 -2.3355 -0.1861
  926SOL    HW2 2778   2.776   0.972   0.804 -0.7600  0.3962  1.2757
  927SOL     OW 2779   0.409   1.423   0.185 -0.5370 -0.0975 -0.8973
  927SOL    HW1 2780   0.335   1.360   0.210 -0.7438  0.3026  0.4477
  927SOL    HW2 2781   0.461   1.381   0.108  3.1969 -0.4483  0.6058
  928SOL     OW 2782   0.149   0.473   2.193 -0.3007 -0.1833 -0.7825
  928SOL    HW1 2783   0.197   0.452   2.106 -1.9400  1.0870  1.5644
  928SOL    HW2 2784   0.198   0.431   2.269  1.0927  0.5690 -1.5176
  929SOL     OW 2785   2.885   0.008   1.319 -0.3556  0.4589 -0.1113
  929SOL    HW1 2786   2.849   3.045   1.237 -0.1848 -1.8821  0.2685
  929SOL    HW2 2787   2.819   0.081   1.349 -2.6594  2.6947 -0.5616
  930SOL     OW 2788   1.934   1.875   1.618 -0.0833 -0.1901  0.1030
  930SOL    HW1 2789   1.983   1.804   1.566  1.0706 -2.7008  0.6915
  930SOL    HW2 2790   1.865   1.817   1.668 -3.6375 -1.6292  1.7756
  931SOL     OW 2791   1.453   1.464   0.709 -0.0108  0.5529 -0.8653
  931SOL    HW1 2792   1.497   1.549   0.758  1.1746 -2.0925 -0.3921
  931SOL    HW2 2793   1.455   1.471   0.607  0.6981 -0.3594 -0.0605
  932SOL     OW 2794   2.707   1.124   1.134 -0.3634  0.3792 -0.0338
  932SOL    HW1 2795   2.756   1.060   1.199  1.6029  2.1161 -0.4440
  932SOL    HW2 2796   2.732   1.094   1.034  0.6505 -0.1680 -0.1841
  933SOL     OW 2797   2.384   1.645   1.556 -0.5072  0.7391  0.0893
  933SOL    HW1 2798   2.343   1.606   1.640  2.3333  0.0595  0.2521
  933SOL    HW2 2799   2.459   1.709   1.583  1.2508 -0.0454  0.5650
  934SOL     OW 2800   1.679   0.187   1.166 -0.4681 -0.2549 -0.4451
  934SOL    HW1 2801   1.707   0.107   1.112  1.8975 -1.2463  0.9931
  934SOL    HW2 2802   1.754   0.224   1.224 -0.0019 -1.4318  0.3033
  935SOL     OW 2803   0.500   1.635   1.049 -0.1663 -0.3999 -0.6888
  935SOL    HW1 2804   0.514   1.559   1.115  1.4441 -1.2036  1.5473
  935SOL    HW2 2805   0.485   1.726   1.101  2.3183  1.3498  1.1406
  936SOL     OW 2806   0.018   1.130   0.653  0.5080  0.1735 -0.5201
  936SOL    HW1 2807   3.015   1.176   0.666  1.0605  1.5427  0.8373
  936SOL    HW2 2808   0.088   1.191   0.696  2.5923 -3.1969 -0.5632
  937SOL     OW 2809   1.818   2.671   1.015  0.2688  0.0506 -0.1233
  937SOL    HW1 2810   1.737   2.617   1.048 -0.3277 -2.1712 -1.7269
  937SOL    HW2 2811   1.814   2.684   0.915 -1.0047 -1.6494 -2.3647
  938SOL     OW 2812   2.496   2.396   1.080 -0.6805 -0.1710  0.2837
  938SOL    HW1 2813   2.482   2.497   1.053 -0.6464  0.0942 -0.0759
  938SOL    HW2 2814   2.465   2.336   1.003 -0.7940 -0.2302  2.6659
  939SOL     OW 2815   0.227   2.327   2.964  0.0092  0.1634 -0.1289
  939SOL    HW1 2816   0.327   2.311   2.974 -0.2306 -1.2905 -0.4965
  939SOL    HW2 2817   0.178   2.237   2.951 -2.9846 -0.7989  2.3395
  940SOL     OW 2818   3.023   2.944   0.074 -0.6708  0.1280 -0.1632
  940SOL    HW1 2819   2.930   2.923   0.105  2.3410 -0.7527 -2.7218
  940SOL    HW2 2820   3.065   2.858   0.033  0.3078  0.9884  0.3473
  941SOL     OW 2821   0.819   2.843   2.976  0.2342 -0.0045 -0.4777
  941SOL    HW1 2822   0.851   2.772   2.915 -0.7141  1.3067  0.4916
  941SOL    HW2 2823   0.870   2.842   3.067 -0.0406  0.7403 -0.5516
  942SOL     OW 2824   1.398   1.705   1.531  0.3439 -0.4568  0.1405
  942SOL    HW1 2825   1.461   1.784   1.533  0.2150  1.2958  1.0781
  942SOL    HW2 2826   1.451   1.621   1.526  0.6407  2.4700 -0.0740
  943SOL     OW 2827   2.080   1.196   1.571 -0.0359  0.3507  0.0324
  943SOL    HW1 2828   2.041   1.219   1.479 -1.4716  0.4867 -1.5037
  943SOL    HW2 2829   2.009   1.173   1.638  1.0260 -1.8550 -0.8876
  944SOL     OW 2830   2.082   0.734   1.693 -0.4388  0.9191  0.1176
  944SOL    HW1 2831   1.983   0.749   1.691  1.2499  0.8944 -1.0888
  944SOL    HW2 2832   2.114   0.656   1.634 -1.6458 -1.0949  0.5601
  945SOL     OW 2833   0.028   3.016   1.034 -0.5048  0.2618 -0.3632
  945SOL    HW1 2834   3.045   2.983   0.970 -0.6867 -1.4177  0.1830
  945SOL    HW2 2835   0.054   0.027   1.019  1.0969  1.2207  2.8529
  946SOL     OW 2836   0.671   0.606   1.231  0.4581  0.1658  0.5551
  946SOL    HW1 2837   0.637   0.512   1.200  1.1457 -0.8672  1.3320
  946SOL    HW2 2838   0.644   0.677   1.164  0.3977 -0.1540 -2.6702
  947SOL     OW 2839   0.550   2.727   0.688 -0.1645 -0.4125 -0.2443
  947SOL    HW1 2840   0.521   2.751   0.594 -0.7750 -1.5465 -2.4101
  947SOL    HW2 2841   0.574   2.810   0.736 -1.7993 -2.8433  0.2578
  948SOL     OW 2842   2.978   1.362   1.817  0.2358 -0.4342 -0.3550
  948SOL    HW1 2843   2.922   1.344   1.737  0.6825 -0.1084  1.6850
  948SOL    HW2 2844   3.077   1.347   1.790 -3.7629 -0.4416  1.2226
  949SOL     OW 2845   0.423   1.071   2.488 -0.8502  0.0800  0.3891
  949SOL    HW1 2846   0.388   1.129   2.409  2.0438 -0.9623 -0.4934
  949SOL    HW2 2847   0.432   0.977   2.462 -0.4713  2.8243  0.9427
  950SOL     OW 2848   1.014   0.439   1.007  0.2625 -0.4836 -0.5449
  950SOL    HW1 2849   1.025   0.543   1.025  1.5620  1.7706  0.8371
  950SOL    HW2 2850   1.106   0.394   1.010  0.8584 -0.1327 -1.1608
  951SOL     OW 2851   0.943   1.964   1.969 -0.2031 -0.3218  0.2146
  951SOL    HW1 2852   1.000   1.964   1.881  0.5376  0.6880 -1.4463
  951SOL    HW2 2853   0.873   2.040   1.975 -1.1312  2.0667  2.8259
  952SOL     OW 2854   0.367   1.774   2.750 -0.3058 -0.7913 -0.2076
  952SOL    HW1 2855   0.465   1.789   2.728 -0.1338 -1.8263  0.3379
  952SOL    HW2 2856   0.359   1.735   2.843 -0.0389 -0.9039  1.8824
  953SOL     OW 2857   1.888   3.010   2.351  0.6096 -0.2776 -0.1234
  953SOL    HW1 2858   1.971   2.960   2.368 -0.3083 -0.3434 -0.6095
  953SOL    HW2 2859   1.897   3.085   2.279 -0.4629 -1.6326  3.7631
  954SOL     OW 2860   1.567   1.228   0.703 -0.1606 -0.5387  0.5566
  954SOL    HW1 2861   1.553   1.182   0.611  1.7211 -2.9212  1.0654
  954SOL    HW2 2862   1.524   1.323   0.708  0.2086 -0.3625  0.0627
  955SOL     OW 2863   0.361   2.163   2.177  0.0447  0.5492  0.1108
  955SOL    HW1 2864   0.321   2.086   2.120  1.0073 -2.2997 -1.1676
  955SOL    HW2 2865   0.334   2.254   2.136  2.8090 -0.2711 -1.1265
  956SOL     OW 2866   1.815   0.713   1.630 -0.4034  0.1761  0.3928
  956SOL    HW1 2867   1.838   0.683   1.535 -0.3567 -0.3091 -0.6016
  956SOL    HW2 2868   1.776   0.636   1.684 -0.3864  1.0248  0.5999
  957SOL     OW 2869   2.144   1.673   2.786  0.2755 -0.0206  0.1997
  957SOL    HW1 2870   2.188   1.635   2.696  0.1331  0.0905 -2.6266
  957SOL    HW2 2871   2.079   1.749   2.766 -0.0498 -0.7851 -2.1741
  958SOL     OW 2872   1.079   2.475   0.878 -0.3258  0.3732 -0.2380
  958SOL    HW1 2873   1.003   2.539   0.894  0.5924  1.4261  1.2893
  958SOL    HW2 2874   1.100   2.416   0.955 -2.2758  1.4527 -1.8685
  959SOL     OW 2875   1.666   2.085   2.617 -0.3844  0.1402 -0.4284
  959SOL    HW1 2876   1.575   2.036   2.613 -1.2356  0.9698  3.4226
  959SOL    HW2 2877   1.726   2.052   2.543 -3.0258  2.3920  2.5580
  960SOL     OW 2878   0.091   0.236   3.017  0.3640  0.4726  0.0526
  960SOL    HW1 2879   0.134   0.326   3.033  2.4914  0.4594  1.6306
  960SOL    HW2 2880   0.161   0.161   3.023  0.4274  0.0166 -0.6827
  961SOL     OW 2881   0.719   0.934   2.337 -0.2857  0.3557  0.6465
  961SOL    HW1 2882   0.789   0.978   2.393 -0.2031  0.7409 -1.5493
  961SOL    HW2 2883   0.724   0.835   2.352 -1.2004 -2.1873 -1.2421
  962SOL     OW 2884   0.957   1.297   0.026  0.1471 -0.3084  0.1890
  962SOL    HW1 2885   1.032   1.253   0.079 -2.8152 -3.8085  1.6649
  962SOL    HW2 2886   0.899   1.346   0.092 -3.8508 -1.2930 -1.2009
  963SOL     OW 2887   2.268   1.699   3.039 -0.1365 -0.0938 -0.5647
  963SOL    HW1 2888   2.242   1.694   2.940 -1.2218  0.0599  0.2536
  963SOL    HW2 2889   2.256   1.794   3.070 -2.4072 -0.2612 -2.9395
  964SOL     OW 2890   1.564   2.560   1.068  0.0999 -0.0253  0.1383
  964SOL    HW1 2891   1.475   2.555   1.019  0.4435  1.1380  1.9620
  964SOL    HW2 2892   1.541   2.578   1.165  0.8904 -1.7518  0.5231
  965SOL     OW 2893   0.903   2.267   1.175 -0.0609 -0.0440 -0.2773
  965SOL    HW1 2894   0.918   2.190   1.241 -0.3749 -0.3971 -0.5979
  965SOL    HW2 2895   0.928   2.238   1.078  0.2674 -1.2128  0.0716
  966SOL     OW 2896   0.087   1.589   3.078 -0.1093  0.2898 -0.1209
  966SOL    HW1 2897   3.079   1.602   3.049  2.9127  0.0562 -1.6691
  966SOL    HW2 2898   0.093   1.547   0.086 -2.8236 -3.8471  0.9708
  967SOL     OW 2899   1.621   0.074   2.116  1.2394  0.3353 -0.1163
  967SOL    HW1 2900   1.609   0.013   2.198 -0.7895  0.9289  0.4146
  967SOL    HW2 2901   1.660   0.022   2.037 -0.7469 -0.5219  0.7785
  968SOL     OW 2902   1.912   0.770   0.905  0.1597 -0.0372  0.6773
  968SOL    HW1 2903   1.978   0.847   0.928  0.0233  0.3157  0.2133
  968SOL    HW2 2904   1.837   0.800   0.847 -3.5339  2.2175  1.5549
  969SOL     OW 2905   0.200   1.621   1.954  0.2595  0.0252 -0.3850
  969SOL    HW1 2906   0.270   1.669   1.899 -1.5334 -1.6843 -1.0975
  969SOL    HW2 2907   0.116   1.676   1.937  1.2585 -0.0824  0.3941
  970SOL     OW 2908   2.494   1.496   1.090 -0.2365  0.0478 -0.4236
  970SOL    HW1 2909   2.452   1.417   1.042  1.5756  0.7411 -0.0659
  970SOL    HW2 2910   2.498   1.578   1.028  0.6145  0.6871  5.2425
  971SOL     OW 2911   0.963   0.391   1.530  0.4993  0.3159  0.5102
  971SOL    HW1 2912   0.986   0.492   1.515  0.8126  1.3958 -1.9438
  971SOL    HW2 2913   0.889   0.378   1.601 -1.2673  2.8918  1.8704
  972SOL     OW 2914   0.874   0.379   2.384  0.0587 -0.2485  0.0478
  972SOL    HW1 2915   0.976   0.387   2.394 -2.6793  1.4745  0.3357
  972SOL    HW2 2916   0.826   0.467   2.399 -0.1777  0.2122 -0.8326
  973SOL     OW 2917   0.591   1.440   1.227 -0.1594  0.9743  0.3197
  973SOL    HW1 2918   0.560   1.351   1.254  2.4043  0.4322  4.8542
  973SOL    HW2 2919   0.688   1.441   1.207 -2.0274 -1.7280  1.3551
  974SOL     OW 2920   2.178   1.081   1.938  0.1980  0.5749  0.3199
  974SOL    HW1 2921   2.102   1.090   1.872 -1.4720  1.1419 -1.3803
  974SOL    HW2 2922   2.268   1.125   1.914 -1.8633 -1.4543 -0.5636
  975SOL     OW 2923   2.613   0.057   0.448 -0.3041 -0.2050 -0.1888
  975SOL    HW1 2924   2.550   0.004   0.388  1.8666  1.2828 -1.8151
  975SOL    HW2 2925   2.705   0.064   0.401 -0.1256  0.7461 -0.9602
  976SOL     OW 2926   0.056   1.822   1.863  0.0463 -0.0417  0.2009
  976SOL    HW1 2927   3.041   1.806   1.887 -3.0936 -1.8866  1.0556
  976SOL    HW2 2928   0.072   1.822   1.761  2.8517  0.7029  0.9754
  977SOL     OW 2929   0.664   2.707   0.140 -0.9583  0.0052  0.4491
  977SOL    HW1 2930   0.604   2.785   0.139  0.7879 -0.4056 -0.8611
  977SOL    HW2 2931   0.760   2.743   0.138  2.4140 -0.9860  1.7846
  978SOL     OW 2932   0.660   1.710   0.210  0.5463 -0.1906 -0.4697
  978SOL    HW1 2933   0.592   1.673   0.145 -2.0617  0.3660  0.0952
  978SOL    HW2 2934   0.738   1.649   0.227 -0.3699 -0.3247 -2.3745
  979SOL     OW 2935   1.624   1.666   1.365  0.3956 -0.1263  0.0221
  979SOL    HW1 2936   1.622   1.751   1.425 -1.0246 -1.2607  1.0357
  979SOL    HW2 2937   1.585   1.585   1.416 -1.1218 -0.9437  1.6449
  980SOL     OW 2938   0.410   1.251   2.272 -0.4945 -0.2309 -0.1746
  980SOL    HW1 2939   0.463   1.177   2.224 -1.7224 -0.4639 -0.8879
  980SOL    HW2 2940   0.354   1.314   2.210 -1.6865 -1.7398 -0.8783
  981SOL     OW 2941   0.070   1.460   0.241 -0.0544 -0.2361  0.7279
  981SOL    HW1 2942   0.040   1.480   0.334  0.8709  1.0408 -2.0104
  981SOL    HW2 2943   0.131   1.376   0.239  1.3270 -1.6826  0.9015
  982SOL     OW 2944   2.339   2.488   2.749  0.2119 -0.1232 -0.1989
  982SOL    HW1 2945   2.352   2.501   2.649  0.1612 -0.0698 -1.8815
  982SOL    HW2 2946   2.349   2.580   2.800 -2.4559  3.3701  3.9571
  983SOL     OW 2947   1.752   0.380   1.369 -0.5791 -0.4069  0.1619
  983SOL    HW1 2948   1.678   0.453   1.363  1.4628  2.3812 -0.7835
  983SOL    HW2 2949   1.844   0.424   1.379 -0.9671  1.4229  1.2020
  984SOL     OW 2950   0.921   0.075   2.320 -0.2875 -0.2503  0.1402
  984SOL    HW1 2951   0.960   3.077   2.283 -1.2335 -1.1500  0.1238
  984SOL    HW2 2952   0.990   0.134   2.367 -0.3900  0.8307 -0.3893
  985SOL     OW 2953   1.611   2.003   1.877  0.1566  0.0186 -0.1630
  985SOL    HW1 2954   1.592   2.102   1.872 -0.5535 -0.8813  1.2296
  985SOL    HW2 2955   1.540   1.946   1.934  0.4546 -0.2431 -0.7793
  986SOL     OW 2956   2.164   2.938   2.373 -0.5151 -0.3525  0.0385
  986SOL    HW1 2957   2.190   2.919   2.274  0.1209 -1.9089 -3.2008
  986SOL    HW2 2958   2.185   3.034   2.395 -1.1943  0.4080 -0.3866
  987SOL     OW 2959   2.786   0.471   2.140  0.0461 -0.1599 -0.1649
  987SOL    HW1 2960   2.814   0.399   2.212 -1.9533 -2.0327  3.6013
  987SOL    HW2 2961   2.687   0.490   2.146  1.0942 -1.3071  0.5035
  988SOL     OW 2962   2.527   0.395   2.447 -0.4209 -0.1591 -0.1917
  988SOL    HW1 2963   2.532   0.427   2.543  0.1632 -1.3075  0.4638
  988SOL    HW2 2964   2.556   0.470   2.380  1.5628  0.9885  0.5051
  989SOL     OW 2965   2.067   2.223   2.370 -0.3811  0.0959 -0.4283
  989SOL    HW1 2966   2.159   2.259   2.348 -2.9766  0.4750 -1.0509
  989SOL    HW2 2967   2.013   2.304   2.412 -0.6858  1.3961  0.0289
  990SOL     OW 2968   0.336   1.152   2.879  0.4110  0.3369  0.0555
  990SOL    HW1 2969   0.290   1.241   2.862 -1.2994 -2.3626  0.1793
  990SOL    HW2 2970   0.429   1.150   2.836  0.9080 -0.0616 -0.8770
  991SOL     OW 2971   0.799   1.232   2.595  0.4538  0.1704  0.3567
  991SOL    HW1 2972   0.859   1.157   2.560  1.3103 -1.3713 -1.2465
  991SOL    HW2 2973   0.749   1.275   2.517 -1.2444 -2.2312 -2.6395
  992SOL     OW 2974   2.785   2.104   2.061  0.1427  0.0518  0.6315
  992SOL    HW1 2975   2.832   2.186   2.024 -0.3406 -0.8532  0.8862
  992SOL    HW2 2976   2.739   2.047   1.993 -2.3585 -1.9083  2.1956
  993SOL     OW 2977   0.637   0.194   0.840  0.1479  0.3826  0.0841
  993SOL    HW1 2978   0.694   0.275   0.847  1.7562  1.2133 -1.5438
  993SOL    HW2 2979   0.687   0.114   0.802  0.6055 -1.9498  1.3163
  994SOL     OW 2980   0.399   2.052   1.452 -0.0550  0.1122  0.1665
  994SOL    HW1 2981   0.383   1.950   1.451  0.5568 -0.5037  0.3484
  994SOL    HW2 2982   0.358   2.092   1.368 -0.0806 -0.1414  0.0024
  995SOL     OW 2983   2.288   1.604   2.565 -0.5863 -0.2597 -0.3090
  995SOL    HW1 2984   2.243   1.528   2.523  1.9095  2.5445 -0.1588
  995SOL    HW2 2985   2.343   1.657   2.495  1.1665  1.9221 -0.8994
  996SOL     OW 2986   1.853   1.341   2.663 -0.6801 -0.0203 -0.1499
  996SOL    HW1 2987   1.936   1.354   2.721  1.6723  1.2907  2.0041
  996SOL    HW2 2988   1.791   1.275   2.702  4.0682 -1.1623 -3.4436
  997SOL     OW 2989   1.630   1.176   1.904  0.4815  0.6332  0.3084
  997SOL    HW1 2990   1.630   1.076   1.896 -0.1468 -0.0493 -2.3927
  997SOL    HW2 2991   1.671   1.203   1.992  1.0008 -2.1230 -0.9974
  998SOL     OW 2992   2.448   1.993   0.664  0.4294  0.0687  0.1493
  998SOL    HW1 2993   2.356   2.037   0.672  0.2577 -0.9140 -0.0679
  998SOL    HW2 2994   2.504   1.988   0.754 -0.3577 -0.4505  2.1578
  999SOL     OW 2995   2.275   2.251   0.254 -0.0951 -0.4625  0.2238
  999SOL    HW1 2996   2.209   2.310   0.202 -1.3393 -0.6189 -0.9622
  999SOL    HW2 2997   2.256   2.154   0.245  0.3970  0.2803  1.6994
 1000SOL     OW 2998   0.731   2.993   2.480  0.5131 -0.1677 -0.2510
 1000SOL    HW1 2999   0.773   3.078   2.440  2.8439  0.4366  0.3434
 1000SOL    HW2 3000   0.657   3.018   2.547 -0.5418  0.1718 -2.1382
   3.08827   3.08827   3.08827
