1000 SPC/Fw water molecules t= 171.00000 step= 171000
 3000
    1SOL     OW    1   2.754   2.808   0.701  0.2081  0.0942 -0.1091
    1SOL    HW1    2   2.673   2.865   0.725 -1.2028 -0.1507 -1.6290
    1SOL    HW2    3   2.791   2.823   0.604  0.3954  0.0503  0.2546
    2SOL     OW    4   1.426   1.878   2.105  0.0957  0.3144 -0.5096
    2SOL    HW1    5   1.370   1.901   2.024 -2.3325 -0.5972  2.0060
    2SOL    HW2    6   1.460   1.783   2.111  0.6157  2.4441  1.9343
    3SOL     OW    7   1.760   2.505   2.208 -0.8668  0.2677 -0.0566
    3SOL    HW1    8   1.818   2.528   2.129 -3.1739 -1.8475  0.6536
    3SOL    HW2    9   1.701   2.588   2.234 -2.9239  0.6781 -0.9013
    4SOL     OW   10   1.963   1.960   1.948  0.2857 -0.1184 -0.0408
    4SOL    HW1   11   2.001   1.971   2.043  2.8896  1.2291  1.3444
    4SOL    HW2   12   1.899   2.039   1.936  0.9952  1.6308 -0.9326
    5SOL     OW   13   0.916   0.477   1.809  0.0548 -0.6371  0.3339
    5SOL    HW1   14   0.938   0.524   1.721  0.6384  0.3193  3.5243
    5SOL    HW2   15   0.886   0.550   1.879  2.1170  2.8798 -0.1950
    6SOL     OW   16   2.475   1.006   2.964  0.3731 -0.1873  0.3234
    6SOL    HW1   17   2.504   0.929   2.907 -1.6661  2.0322  2.5252
    6SOL    HW2   18   2.398   1.066   2.929  0.5772 -0.4706  2.2503
    7SOL     OW   19   1.103   0.748   1.319 -0.0986  0.1482  0.3337
    7SOL    HW1   20   1.147   0.660   1.289  2.0411 -1.7525 -1.9703
    7SOL    HW2   21   1.051   0.794   1.246 -0.5795  1.3872 -0.4140
    8SOL     OW   22   1.064   2.719   1.441 -0.0679  0.3773  0.7111
    8SOL    HW1   23   1.053   2.820   1.452  1.6170 -0.1890 -2.3300
    8SOL    HW2   24   1.064   2.669   1.527 -0.0749 -0.0949 -2.8092
    9SOL     OW   25   0.888   1.013   0.082 -0.1640 -0.1288 -0.2280
    9SOL    HW1   26   0.825   1.090   0.071 -0.6155 -0.7274  0.4705
    9SOL    HW2   27   0.898   0.983   0.177  0.0810 -1.1299 -1.8116
   10SOL     OW   28   0.504   2.950   0.112 -0.2097 -0.1622  0.2482
   10SOL    HW1   29   0.503   2.915   0.209 -0.1852 -1.8610  0.1314
   10SOL    HW2   30   0.582   2.903   0.065 -1.9607 -2.0324 -2.0579
   11SOL     OW   31   0.110   1.381   2.890  0.3464  0.0711 -0.1016
   11SOL    HW1   32   0.202   1.430   2.897  0.1812 -1.1910 -0.1927
   11SOL    HW2   33   0.031   1.429   2.934  1.6761 -0.9870  0.6467
   12SOL     OW   34   0.727   2.911   1.265 -0.4932 -0.3748 -0.7310
   12SOL    HW1   35   0.631   2.955   1.282 -1.9687 -2.8962  2.3931
   12SOL    HW2   36   0.737   2.819   1.303  2.6955 -1.1031 -0.2764
   13SOL     OW   37   0.721   2.853   0.493  0.6636 -0.4182  0.0744
   13SOL    HW1   38   0.639   2.847   0.433 -0.8648 -1.0043  3.4414
   13SOL    HW2   39   0.773   2.769   0.505 -0.5178  0.7532  0.2453
   14SOL     OW   40   1.091   2.067   1.268  0.5192  0.3760 -0.6464
   14SOL    HW1   41   1.009   2.093   1.324  0.8777  0.6853  1.0072
   14SOL    HW2   42   1.138   1.989   1.308  0.1680  3.6009 -1.2646
   15SOL     OW   43   2.698   0.943   2.325 -0.0898 -0.3655 -0.0632
   15SOL    HW1   44   2.688   1.012   2.400 -0.5655 -1.2958 -1.7065
   15SOL    HW2   45   2.608   0.900   2.310  3.3292 -2.2000 -0.8677
   16SOL     OW   46   1.130   2.810   2.949  0.2937  0.0736 -0.0976
   16SOL    HW1   47   1.163   2.827   2.854 -2.4193 -0.4426 -2.1214
   16SOL    HW2   48   1.189   2.749   3.000  0.6879 -2.8005  0.1189
   17SOL     OW   49   0.701   2.961   1.727  0.1869  0.3900 -0.0660
   17SOL    HW1   50   0.713   2.937   1.828  0.8829 -1.0435  1.4550
   17SOL    HW2   51   0.789   3.010   1.701  0.5406  1.0036  1.0908
   18SOL     OW   52   1.504   0.727   0.123 -0.5180  0.3944  0.5734
   18SOL    HW1   53   1.574   0.779   0.073 -0.5547  0.9059  0.9119
   18SOL    HW2   54   1.525   0.627   0.128  0.8189 -0.1435 -0.7083
   19SOL     OW   55   2.027   1.741   2.754  0.1831  0.2548  0.3608
   19SOL    HW1   56   2.052   1.703   2.850  3.5324 -0.8461  1.5029
   19SOL    HW2   57   2.047   1.841   2.750  1.9860  0.8482  0.2204
   20SOL     OW   58   2.167   1.811   1.826  0.0340  0.0923  0.2704
   20SOL    HW1   59   2.208   1.741   1.895  2.1444 -1.0752  4.9046
   20SOL    HW2   60   2.075   1.852   1.855 -4.5180  0.1371 -1.4878
   21SOL     OW   61   0.357   1.504   2.874  0.8476  0.9164  0.1230
   21SOL    HW1   62   0.379   1.501   2.973 -1.6237  0.8812  0.8050
   21SOL    HW2   63   0.436   1.515   2.812 -0.1863  1.1523 -2.4373
   22SOL     OW   64   2.731   3.063   1.450  0.2634  0.1757 -0.0889
   22SOL    HW1   65   2.737   0.018   1.377  2.4023 -1.6158  0.7069
   22SOL    HW2   66   2.702   2.974   1.409  2.0800  2.1542 -1.9011
   23SOL     OW   67   2.881   0.763   1.760  0.2019  0.4100 -0.0392
   23SOL    HW1   68   2.852   0.849   1.716 -3.6217 -0.1182 -0.1289
   23SOL    HW2   69   2.943   0.714   1.701 -1.1240  1.5389  0.8765
   24SOL     OW   70   2.627   2.104   1.437 -0.3562  0.4535  0.1294
   24SOL    HW1   71   2.584   2.178   1.387 -1.5346 -1.9991  3.5535
   24SOL    HW2   72   2.603   2.103   1.537 -0.7503 -0.0033 -0.9208
   25SOL     OW   73   1.788   2.920   2.614  0.3563 -0.0602  0.2448
   25SOL    HW1   74   1.861   2.953   2.553 -1.1340  0.2020  1.8150
   25SOL    HW2   75   1.811   2.821   2.642  2.9784  0.3821  1.7376
   26SOL     OW   76   1.316   0.084   0.208 -0.5747  0.8443 -0.0856
   26SOL    HW1   77   1.374   0.031   0.269  2.5951  1.2258 -1.4709
   26SOL    HW2   78   1.256   0.026   0.147 -0.9559 -0.2972 -1.5828
   27SOL     OW   79   0.505   2.172   3.084 -0.9264  0.0248 -0.0021
   27SOL    HW1   80   0.587   2.108   3.095  3.5313 -1.2735  0.2378
   27SOL    HW2   81   0.523   2.245   3.013  0.5045  3.0436 -0.6557
   28SOL     OW   82   2.985   1.523   1.286 -0.0766  0.1143  0.6480
   28SOL    HW1   83   2.910   1.545   1.218 -1.6418 -0.6437 -1.3618
   28SOL    HW2   84   3.081   1.554   1.258  2.4140 -0.6239  2.3088
   29SOL     OW   85   2.540   2.085   2.042  0.3935 -0.3864 -0.3802
   29SOL    HW1   86   2.599   2.074   2.130  2.0672 -0.9314  0.5127
   29SOL    HW2   87   2.592   2.139   1.967  2.7546  0.3779 -0.8394
   30SOL     OW   88   1.223   2.947   0.876  0.8502  0.2223  0.1406
   30SOL    HW1   89   1.173   2.869   0.832  1.6474  3.6309  0.9374
   30SOL    HW2   90   1.157   3.020   0.904 -0.0395  0.0463 -0.3026
   31SOL     OW   91   3.072   2.451   1.940 -0.0901  0.2377 -0.7182
   31SOL    HW1   92   3.064   2.506   1.855  0.5665  0.2824  1.5532
   31SOL    HW2   93   3.013   2.372   1.943  1.4347 -0.3297 -0.7254
   32SOL     OW   94   1.390   0.929   1.642 -0.0582 -0.1710  0.1659
   32SOL    HW1   95   1.292   0.952   1.626 -0.4625  1.2575  4.1944
   32SOL    HW2   96   1.420   0.938   1.739  0.0196 -1.6782 -1.6848
   33SOL     OW   97   0.443   2.828   2.609  0.3260  0.4203 -0.4987
   33SOL    HW1   98   0.413   2.827   2.516 -1.9688 -0.3545  0.2237
   33SOL    HW2   99   0.542   2.859   2.619  0.8225 -1.3389  0.7265
   34SOL     OW  100   1.816   0.037   1.120  0.6084  0.6794 -0.4531
   34SOL    HW1  101   1.804   3.058   1.082 -2.4118  2.0356  0.2393
   34SOL    HW2  102   1.730   0.092   1.103  3.3594 -3.0712 -1.4672
   35SOL     OW  103   2.339   0.727   1.387  0.5375  0.0467 -0.2225
   35SOL    HW1  104   2.256   0.793   1.387 -2.2525  1.5019  1.3240
   35SOL    HW2  105   2.423   0.781   1.375  0.0939  3.8529  0.5075
   36SOL     OW  106   2.509   2.404   1.992  0.0764  0.0675 -0.0801
   36SOL    HW1  107   2.504   2.398   2.089  2.4960 -1.1512 -1.1788
   36SOL    HW2  108   2.423   2.383   1.937 -5.2923  0.0144  1.9495
   37SOL     OW  109   1.050   2.327   2.461  0.9810  0.0127  0.9102
   37SOL    HW1  110   1.138   2.363   2.493  1.0240 -1.4916 -1.3900
   37SOL    HW2  111   0.967   2.385   2.484 -0.6254 -0.1014  3.0028
   38SOL     OW  112   2.496   0.325   3.057  0.4735 -0.1629 -0.0018
   38SOL    HW1  113   2.526   0.244   3.009  2.6090 -0.0370  0.6634
   38SOL    HW2  114   2.427   0.373   3.000  0.9873  2.5268  2.2247
   39SOL     OW  115   2.080   1.610   2.238  0.5946  0.0992 -0.2621
   39SOL    HW1  116   1.991   1.629   2.187 -2.6058 -1.1575 -0.2767
   39SOL    HW2  117   2.064   1.521   2.286  2.6439 -2.0711 -1.8191
   40SOL     OW  118   0.112   3.100   2.542 -0.1861 -0.1431 -0.0008
   40SOL    HW1  119   0.026   0.002   2.503  3.5131  0.8314  0.7227
   40SOL    HW2  120   0.117   3.008   2.588 -1.6677  2.5089  1.3953
   41SOL     OW  121   1.834   0.402   1.348  0.8271  0.2602 -0.0790
   41SOL    HW1  122   1.772   0.326   1.366  2.1538 -1.3531 -1.6700
   41SOL    HW2  123   1.917   0.364   1.303  0.4923  2.2220 -0.6908
   42SOL     OW  124   0.919   0.199   1.843  0.4411 -0.2944 -0.4733
   42SOL    HW1  125   0.901   0.290   1.808 -1.2140  0.3157  1.0996
   42SOL    HW2  126   0.858   0.186   1.928  0.7980  0.4916  1.0627
   43SOL     OW  127   1.827   0.591   1.972  0.1803 -0.8009  0.6939
   43SOL    HW1  128   1.829   0.487   1.975  1.8080  1.3084  1.6204
   43SOL    HW2  129   1.855   0.624   1.878 -0.3338  0.3221 -1.7744
   44SOL     OW  130   0.108   2.863   2.968 -0.3326  0.2583 -0.5564
   44SOL    HW1  131   0.063   2.812   2.893  0.3838  2.4864 -0.1140
   44SOL    HW2  132   0.050   2.935   3.007  0.1152  1.9763  1.8242
   45SOL     OW  133   0.141   2.438   1.624  0.3579 -0.4732 -0.0460
   45SOL    HW1  134   0.044   2.463   1.631  2.3750 -0.0558 -0.2974
   45SOL    HW2  135   0.175   2.419   1.714 -2.5097  0.0808 -2.8907
   46SOL     OW  136   2.183   2.232   2.212  0.1918 -0.2801 -0.2287
   46SOL    HW1  137   2.278   2.231   2.254 -1.5307 -1.7451  1.7101
   46SOL    HW2  138   2.181   2.296   2.132 -1.5545  0.4798 -1.0830
   47SOL     OW  139   1.762   1.974   1.620 -0.5477 -0.2255  0.0222
   47SOL    HW1  140   1.850   2.023   1.634 -0.7435  1.5342 -0.0063
   47SOL    HW2  141   1.714   2.019   1.544  3.1725 -0.9310  0.9108
   48SOL     OW  142   0.423   1.505   0.381  0.1685 -0.2724  0.0618
   48SOL    HW1  143   0.506   1.549   0.334  1.4831 -0.4016  1.9964
   48SOL    HW2  144   0.399   1.560   0.465 -1.1478  1.5553  0.9725
   49SOL     OW  145   2.635   0.471   2.556  0.0923  0.2533  0.2953
   49SOL    HW1  146   2.672   0.537   2.620  0.9818  0.2319 -0.2971
   49SOL    HW2  147   2.614   0.516   2.465  0.7360  1.7436 -0.2641
   50SOL     OW  148   1.952   0.645   0.824 -0.2514  0.1099  0.4861
   50SOL    HW1  149   1.949   0.730   0.879 -1.4550 -1.1506 -0.4181
   50SOL    HW2  150   1.922   0.664   0.727 -0.0552  0.1679  1.0944
   51SOL     OW  151   1.380   0.553   0.852  0.5249  0.0138 -0.0966
   51SOL    HW1  152   1.283   0.528   0.865  1.5600 -2.7924  0.8506
   51SOL    HW2  153   1.388   0.652   0.846 -0.3188  0.3477 -2.1928
   52SOL     OW  154   1.368   1.286   3.076 -0.4264  0.3705 -0.2505
   52SOL    HW1  155   1.362   1.212   0.029  0.7589  0.1221 -1.0579
   52SOL    HW2  156   1.383   1.381   3.112 -2.7885  2.1722 -1.1634
   53SOL     OW  157   1.195   2.085   2.709 -0.0221 -0.6866  0.5778
   53SOL    HW1  158   1.114   2.136   2.754 -1.3385  2.0568  1.3993
   53SOL    HW2  159   1.289   2.123   2.727  2.9785 -0.1102  1.6279
   54SOL     OW  160   2.125   0.268   1.377  0.4199 -0.2269 -0.1252
   54SOL    HW1  161   2.168   0.347   1.419  3.2576 -1.4948 -0.7743
   54SOL    HW2  162   2.195   0.195   1.367  0.0098  0.4737  4.6152
   55SOL     OW  163   2.195   2.681   0.570  0.0201  0.4600  0.7453
   55SOL    HW1  164   2.267   2.666   0.502  0.9445 -1.0916  0.3230
   55SOL    HW2  165   2.105   2.649   0.531  1.6538 -1.7768  1.4756
   56SOL     OW  166   0.723   2.621   1.418  0.1207  0.3335  0.5856
   56SOL    HW1  167   0.748   2.590   1.509  0.3859 -1.4633  0.0465
   56SOL    HW2  168   0.629   2.658   1.418  0.9235  1.2180 -1.1316
   57SOL     OW  169   1.711   1.317   0.371 -0.4722 -0.1189 -0.4504
   57SOL    HW1  170   1.674   1.261   0.294 -2.0733 -1.4451 -0.4566
   57SOL    HW2  171   1.812   1.335   0.360  2.7727  0.6258  2.5331
   58SOL     OW  172   0.276   1.096   2.292 -0.6052 -0.2239  0.9435
   58SOL    HW1  173   0.258   1.189   2.251  1.1770  0.9733  0.5668
   58SOL    HW2  174   0.187   1.039   2.296 -0.7748 -1.5642  1.3219
   59SOL     OW  175   0.924   2.755   2.535  0.6696 -0.6746 -0.0929
   59SOL    HW1  176   0.948   2.709   2.624 -1.5510 -3.1894 -1.2710
   59SOL    HW2  177   0.836   2.806   2.547 -1.3093  0.0269 -0.4130
   60SOL     OW  178   2.507   2.451   0.940  0.0190 -0.2210  0.5027
   60SOL    HW1  179   2.442   2.469   0.863  0.4028  1.9996  1.1025
   60SOL    HW2  180   2.482   2.512   1.020 -2.1704 -0.1473  0.4635
   61SOL     OW  181   1.183   2.000   0.793  0.3427  0.4176 -0.2225
   61SOL    HW1  182   1.104   1.992   0.861 -1.4176  2.1598 -2.1665
   61SOL    HW2  183   1.266   2.025   0.846  0.9265 -1.3596  0.2847
   62SOL     OW  184   2.121   2.689   2.753  0.5440 -0.1754 -0.0397
   62SOL    HW1  185   2.115   2.620   2.830 -0.1115 -1.5712  5.5007
   62SOL    HW2  186   2.127   2.786   2.780  0.0825 -3.4462 -2.9198
   63SOL     OW  187   2.288   0.662   0.081  0.0756  0.2770  0.9129
   63SOL    HW1  188   2.197   0.622   0.074  2.5395 -0.4729 -0.2952
   63SOL    HW2  189   2.349   0.594   0.129  0.7119 -0.7847  1.9851
   64SOL     OW  190   0.968   1.063   2.938 -0.4057 -0.3352  0.5045
   64SOL    HW1  191   1.041   1.133   2.943  0.6986 -1.1206  4.5166
   64SOL    HW2  192   0.921   1.039   3.025 -1.0237 -2.1428 -2.1098
   65SOL     OW  193   1.102   2.482   0.595 -0.4154  0.4969  0.4114
   65SOL    HW1  194   1.201   2.464   0.598 -2.5706 -1.4210  2.0064
   65SOL    HW2  195   1.053   2.410   0.639 -1.7831 -1.3542 -0.4542
   66SOL     OW  196   1.000   1.067   1.787  0.0416 -0.3047  0.1543
   66SOL    HW1  197   0.978   0.967   1.765 -1.0016 -0.6807  0.0135
   66SOL    HW2  198   0.952   1.101   1.871 -2.8925  2.7959 -0.1026
   67SOL     OW  199   2.294   0.029   2.346 -0.1329  0.4074 -0.0222
   67SOL    HW1  200   2.219   0.011   2.281 -0.0529 -2.5669  1.3783
   67SOL    HW2  201   2.364   0.074   2.296 -2.0964  1.0058  2.3297
   68SOL     OW  202   0.820   1.458   1.168 -0.0824  0.0387  0.4379
   68SOL    HW1  203   0.890   1.422   1.228 -1.8185  1.9977 -1.2083
   68SOL    HW2  204   0.850   1.435   1.073  1.5193 -0.8313  0.4400
   69SOL     OW  205   1.498   2.296   0.215 -0.0104  0.2663  0.7529
   69SOL    HW1  206   1.469   2.389   0.243 -2.1603 -1.4526 -0.1807
   69SOL    HW2  207   1.592   2.276   0.247 -0.3602 -0.1660  1.2453
   70SOL     OW  208   3.000   1.148   2.420 -0.5287  0.2582 -0.0840
   70SOL    HW1  209   2.911   1.199   2.405 -0.9133  1.1501  0.4807
   70SOL    HW2  210   2.983   1.049   2.438 -0.0892 -1.0091 -0.9039
   71SOL     OW  211   2.830   1.773   2.832 -0.2321 -0.0889 -0.2636
   71SOL    HW1  212   2.832   1.680   2.789 -0.0754  0.0417  1.2310
   71SOL    HW2  213   2.909   1.784   2.895 -0.2607  2.6001 -1.9900
   72SOL     OW  214   2.827   2.342   0.521 -0.2522  0.0335 -0.1786
   72SOL    HW1  215   2.859   2.248   0.533 -1.5334  0.8642  0.6948
   72SOL    HW2  216   2.749   2.342   0.456 -2.2905  0.8391  0.0065
   73SOL     OW  217   0.809   1.670   0.496 -0.1977  0.0583 -0.1777
   73SOL    HW1  218   0.887   1.716   0.448 -2.8846 -0.6705 -0.6956
   73SOL    HW2  219   0.748   1.635   0.423 -1.2222  1.2063  0.4241
   74SOL     OW  220   0.012   1.571   2.576  0.2519  0.2196 -0.1810
   74SOL    HW1  221   0.065   1.660   2.596 -1.4687  0.8024  0.7941
   74SOL    HW2  222   0.068   1.487   2.562 -1.2090 -1.7030  1.1440
   75SOL     OW  223   1.682   1.491   1.620 -0.0692  0.2707  0.2894
   75SOL    HW1  224   1.711   1.576   1.569  2.3604  1.3195  0.4413
   75SOL    HW2  225   1.583   1.498   1.641  1.6201 -0.5177  1.0407
   76SOL     OW  226   1.927   2.687   1.441  0.1889  0.7745  0.1852
   76SOL    HW1  227   1.993   2.745   1.394 -1.2267 -2.6029 -0.1172
   76SOL    HW2  228   1.897   2.726   1.528  1.5740 -1.4116 -0.4538
   77SOL     OW  229   2.720   0.926   1.229 -0.2607  0.5838  0.1576
   77SOL    HW1  230   2.785   0.900   1.302  1.0909  1.8812  1.4375
   77SOL    HW2  231   2.697   0.845   1.173 -1.9744 -0.8213  0.0372
   78SOL     OW  232   1.369   0.956   0.517  0.2456  0.5512 -0.8420
   78SOL    HW1  233   1.363   0.994   0.424 -0.3761 -0.1743  1.8204
   78SOL    HW2  234   1.445   0.891   0.533  1.0200  2.1772  0.0582
   79SOL     OW  235   0.063   1.582   1.758  0.2051  0.4841 -0.1945
   79SOL    HW1  236   0.129   1.587   1.678  1.6500  1.4631  1.0938
   79SOL    HW2  237   3.080   1.576   1.728  1.7368  0.3215  0.2988
   80SOL     OW  238   1.514   0.714   1.327 -0.2312 -0.0711 -0.0728
   80SOL    HW1  239   1.501   0.612   1.342 -0.1042  1.9677  0.8202
   80SOL    HW2  240   1.444   0.764   1.264 -2.0298 -0.1653 -1.1975
   81SOL     OW  241   0.806   0.131   0.941 -0.1998  0.5342  0.2037
   81SOL    HW1  242   0.795   0.161   0.843 -1.2222  1.5108 -1.5696
   81SOL    HW2  243   0.717   0.147   0.988 -0.0367 -0.6129  1.5642
   82SOL     OW  244   1.477   2.806   1.514 -0.1964  0.3289 -0.2103
   82SOL    HW1  245   1.418   2.788   1.433 -1.2645 -0.6966 -2.7590
   82SOL    HW2  246   1.559   2.865   1.484  1.7022  1.2127 -2.0861
   83SOL     OW  247   0.989   2.013   0.977  0.3779  0.2011 -0.1105
   83SOL    HW1  248   0.888   2.009   0.979 -0.7302 -0.1901 -0.4461
   83SOL    HW2  249   1.025   2.036   1.067 -2.7605 -2.6911 -2.5523
   84SOL     OW  250   0.486   1.600   2.667  0.2582 -0.0075  0.2347
   84SOL    HW1  251   0.416   1.562   2.605  2.2521  2.4263  0.6360
   84SOL    HW2  252   0.579   1.593   2.624 -1.1901  2.4074  0.1168
   85SOL     OW  253   0.143   2.262   1.402 -0.6745  0.0051 -0.5325
   85SOL    HW1  254   0.049   2.252   1.367  1.7781  1.0202  1.4857
   85SOL    HW2  255   0.152   2.326   1.482 -1.4654  3.4916  1.1857
   86SOL     OW  256   2.439   2.283   1.325 -0.9002 -0.7169 -0.2449
   86SOL    HW1  257   2.367   2.223   1.368  2.8293  0.7505 -1.5941
   86SOL    HW2  258   2.452   2.370   1.377  1.8642  1.3668 -1.1463
   87SOL     OW  259   2.674   2.288   0.313 -0.1305 -0.1305  0.2943
   87SOL    HW1  260   2.576   2.272   0.295  2.2947 -1.4723  0.9205
   87SOL    HW2  261   2.730   2.230   0.253 -0.6679 -0.3996  0.0718
   88SOL     OW  262   0.522   1.457   1.082  0.1519  0.2540  0.2698
   88SOL    HW1  263   0.476   1.519   1.147 -0.5123 -2.6693 -0.5048
   88SOL    HW2  264   0.610   1.424   1.121  0.3453 -0.3691  0.5131
   89SOL     OW  265   0.962   3.050   2.101 -0.1601  0.0372 -0.0109
   89SOL    HW1  266   0.906   3.004   2.033 -2.6315 -0.9870  0.5905
   89SOL    HW2  267   1.050   3.092   2.067  2.7832  3.8556 -0.7630
   90SOL     OW  268   0.046   1.824   1.293 -0.1989 -1.0129  0.1738
   90SOL    HW1  269   3.061   1.826   1.315 -1.3200 -2.6289  1.0332
   90SOL    HW2  270   0.070   1.730   1.266  2.4188  1.2191 -1.3950
   91SOL     OW  271   1.492   1.942   1.168  0.2257  0.2342  0.2766
   91SOL    HW1  272   1.470   1.924   1.067 -1.1570 -1.4180  0.6245
   91SOL    HW2  273   1.514   1.858   1.216  1.2077 -0.0094 -2.2196
   92SOL     OW  274   2.534   2.488   1.454 -0.1387 -0.3300  0.2852
   92SOL    HW1  275   2.524   2.589   1.444  1.6051 -0.0592 -2.8683
   92SOL    HW2  276   2.635   2.471   1.474  1.7432  0.4409  0.9128
   93SOL     OW  277   2.622   1.576   2.612  0.3376 -0.1374  0.3023
   93SOL    HW1  278   2.586   1.502   2.549  0.6904 -2.7535 -0.5767
   93SOL    HW2  279   2.688   1.535   2.679  1.2150  0.5510  1.3131
   94SOL     OW  280   2.845   2.780   2.007  0.3237  0.2100 -0.1648
   94SOL    HW1  281   2.795   2.787   2.097 -1.9620 -0.5843 -1.1364
   94SOL    HW2  282   2.945   2.773   2.018 -2.6151  1.0940 -0.3882
   95SOL     OW  283   1.714   0.270   1.689  0.8846 -0.5132 -0.0133
   95SOL    HW1  284   1.768   0.313   1.766 -0.8636 -1.2818  0.5437
   95SOL    HW2  285   1.660   0.191   1.725 -0.8936  0.1813 -0.7231
   96SOL     OW  286   0.088   2.975   1.516 -0.2754  0.0730  0.1599
   96SOL    HW1  287   0.008   3.028   1.543  2.1606  1.1372 -0.7047
   96SOL    HW2  288   0.055   2.896   1.456 -1.1611 -1.0694 -4.8660
   97SOL     OW  289   2.355   0.219   1.588 -0.1313 -0.6961 -0.2469
   97SOL    HW1  290   2.278   0.290   1.589 -2.5799 -1.1433  1.8284
   97SOL    HW2  291   2.429   0.258   1.652 -0.6858  0.3861  1.7151
   98SOL     OW  292   1.576   2.577   1.675 -0.4545 -0.3423 -0.4085
   98SOL    HW1  293   1.525   2.650   1.621  3.0841  3.3587 -1.4945
   98SOL    HW2  294   1.567   2.601   1.775  0.7914  1.4001 -1.9188
   99SOL     OW  295   0.176   3.018   1.933  0.2066 -0.2897  0.1907
   99SOL    HW1  296   0.223   3.007   1.842  2.4675  3.3387 -1.3761
   99SOL    HW2  297   0.097   3.080   1.925  3.2558 -0.4478  1.0798
  100SOL     OW  298   3.002   1.099   2.126 -0.3540  0.0551  0.0015
  100SOL    HW1  299   2.991   1.196   2.110  1.5482 -0.6876  1.8690
  100SOL    HW2  300   3.016   1.076   2.224 -1.7264 -0.0139 -3.2377
  101SOL     OW  301   1.692   0.469   0.499  0.3968 -0.1733 -0.7378
  101SOL    HW1  302   1.593   0.481   0.474 -0.4498 -2.7551 -2.0563
  101SOL    HW2  303   1.739   0.554   0.531 -1.1601  1.5634  1.1677
  102SOL     OW  304   0.218   0.710   1.657  0.1987 -0.4677 -0.2298
  102SOL    HW1  305   0.255   0.617   1.638  1.6709 -0.2602 -1.1693
  102SOL    HW2  306   0.219   0.741   1.753  2.0385 -0.7444 -0.6682
  103SOL     OW  307   2.248   0.728   2.937 -0.0331 -0.0359 -0.0230
  103SOL    HW1  308   2.257   0.698   3.034  1.3934 -0.2149 -1.5253
  103SOL    HW2  309   2.186   0.806   2.916 -1.0831  2.1961  1.4782
  104SOL     OW  310   0.012   0.244   2.124 -0.4058 -0.4307  0.6183
  104SOL    HW1  311   0.051   0.327   2.081  0.5151 -0.8531 -1.3020
  104SOL    HW2  312   0.035   0.232   2.222 -1.9303  1.0261  1.1582
  105SOL     OW  313   2.097   0.807   1.665 -0.1197 -0.4223 -0.6353
  105SOL    HW1  314   2.000   0.783   1.671  1.4249 -0.6124 -0.3546
  105SOL    HW2  315   2.106   0.862   1.583 -0.7561 -2.2012  2.2678
  106SOL     OW  316   1.457   0.005   0.833 -0.6201 -0.4191 -0.1613
  106SOL    HW1  317   1.391   0.046   0.776  0.3285 -1.3076 -0.9906
  106SOL    HW2  318   1.410   3.092   0.920 -1.5349 -0.8823  1.4594
  107SOL     OW  319   0.200   1.295   0.764 -0.1056 -0.0904 -0.2726
  107SOL    HW1  320   0.137   1.365   0.733 -2.7484 -2.2704  3.2820
  107SOL    HW2  321   0.158   1.228   0.830 -2.7039 -0.9850 -1.7309
  108SOL     OW  322   0.120   0.276   2.388  0.2786  0.1927  0.0594
  108SOL    HW1  323   0.133   0.201   2.453 -0.4343  1.3724 -0.0319
  108SOL    HW2  324   0.196   0.284   2.320  1.5983 -1.5873  1.1797
  109SOL     OW  325   2.617   0.168   0.325 -0.8834 -0.5229 -0.6393
  109SOL    HW1  326   2.548   0.234   0.279 -2.7185  0.6264 -2.4238
  109SOL    HW2  327   2.707   0.214   0.302  0.7333 -1.2465 -0.1118
  110SOL     OW  328   0.329   2.452   2.813 -0.2737  0.0079 -0.7694
  110SOL    HW1  329   0.236   2.427   2.796  0.3370  1.1541 -0.2133
  110SOL    HW2  330   0.363   2.502   2.731 -2.3035 -1.9256  2.5959
  111SOL     OW  331   1.746   3.009   1.979  0.3193  0.0024 -0.1681
  111SOL    HW1  332   1.752   3.009   1.880  0.8371  1.9459  0.4708
  111SOL    HW2  333   1.754   3.105   2.017 -0.6672  2.6495  1.0834
  112SOL     OW  334   2.141   2.570   3.003  0.1509  0.3459  0.3613
  112SOL    HW1  335   2.081   2.501   3.050  0.8718  0.5838  1.7883
  112SOL    HW2  336   2.121   2.665   3.034 -1.2226 -3.4738  1.4847
  113SOL     OW  337   2.672   1.890   1.850 -0.1984 -0.9289  0.2620
  113SOL    HW1  338   2.623   1.928   1.928 -2.5824 -1.7294 -1.9612
  113SOL    HW2  339   2.684   1.964   1.781 -1.5975 -0.7439 -1.4296
  114SOL     OW  340   2.629   0.776   1.009  0.0420  0.7086  0.1598
  114SOL    HW1  341   2.567   0.746   0.938  0.0592  1.1285  2.2689
  114SOL    HW2  342   2.705   0.829   0.971  1.3627  2.3946 -0.0477
  115SOL     OW  343   3.002   1.772   3.051  0.1713 -0.5822  0.1183
  115SOL    HW1  344   3.099   1.764   3.031 -2.1305 -0.9830  0.7310
  115SOL    HW2  345   2.992   1.798   0.030 -0.9587 -1.1551 -1.2392
  116SOL     OW  346   0.150   1.412   1.938  0.4568  0.4405 -0.3247
  116SOL    HW1  347   0.250   1.411   1.958 -3.5100  0.0386 -1.2183
  116SOL    HW2  348   0.115   1.485   1.877 -1.8218  1.7304  0.3022
  117SOL     OW  349   2.560   2.976   0.760  0.7226  0.0260 -0.4839
  117SOL    HW1  350   2.463   2.939   0.762 -1.2830 -0.4916  2.1444
  117SOL    HW2  351   2.575   3.052   0.695 -2.6118 -2.4934  0.9690
  118SOL     OW  352   0.523   2.137   1.637 -0.4363 -0.3141 -0.3781
  118SOL    HW1  353   0.538   2.160   1.540 -0.7906 -0.4638 -2.7756
  118SOL    HW2  354   0.589   2.062   1.665  1.1234 -0.6412 -0.7218
  119SOL     OW  355   1.370   2.148   0.641 -0.0882 -0.3867 -0.7913
  119SOL    HW1  356   1.288   2.091   0.667 -2.5518  1.1028  0.5308
  119SOL    HW2  357   1.367   2.180   0.544 -0.8975 -0.0322  1.2638
  120SOL     OW  358   0.173   1.788   2.621  0.0421 -0.2988  0.0305
  120SOL    HW1  359   0.121   1.870   2.643 -0.4848 -3.4953 -0.6248
  120SOL    HW2  360   0.245   1.811   2.551  1.1263 -0.3612 -2.8640
  121SOL     OW  361   2.243   2.091   1.376 -0.3192  0.7178 -0.0873
  121SOL    HW1  362   2.218   1.998   1.341 -0.5032  0.7842  0.6104
  121SOL    HW2  363   2.165   2.149   1.399 -0.2506 -2.1754  1.0088
  122SOL     OW  364   2.201   1.815   2.383  0.1732  0.6677  0.0484
  122SOL    HW1  365   2.255   1.824   2.298  2.0204 -0.9212  1.4177
  122SOL    HW2  366   2.146   1.732   2.386  1.9710  1.2765 -0.4700
  123SOL     OW  367   0.052   2.866   0.656 -0.0293  0.2647 -0.1078
  123SOL    HW1  368   3.089   2.929   0.674 -0.6694  0.7451  0.1788
  123SOL    HW2  369   0.033   2.775   0.694  1.2520 -0.3075 -0.3275
  124SOL     OW  370   1.660   0.833   2.436 -1.0101  0.0004 -0.0963
  124SOL    HW1  371   1.661   0.898   2.516  1.6280 -2.4203 -0.3068
  124SOL    HW2  372   1.586   0.866   2.376 -1.2394 -0.3860  1.3432
  125SOL     OW  373   0.432   1.457   0.016  0.0602  0.1907  0.2493
  125SOL    HW1  374   0.525   1.458   3.094 -2.5703 -0.1025 -2.1419
  125SOL    HW2  375   0.423   1.379   0.082  1.8434 -3.0998  0.2737
  126SOL     OW  376   2.688   1.943   0.371  0.0292 -0.2293 -0.5131
  126SOL    HW1  377   2.620   1.965   0.298  0.3023 -2.3989  1.0627
  126SOL    HW2  378   2.655   1.989   0.458 -3.6505  0.4979  0.1253
  127SOL     OW  379   0.400   1.635   1.271  0.1719 -0.0495  0.2859
  127SOL    HW1  380   0.333   1.681   1.207  1.4566  1.0273  1.9551
  127SOL    HW2  381   0.418   1.707   1.339 -2.5961  0.7112 -0.3721
  128SOL     OW  382   0.682   0.833   0.051 -0.1023  0.1333  0.2856
  128SOL    HW1  383   0.648   0.814   3.073 -0.2637  0.4890  1.3223
  128SOL    HW2  384   0.750   0.911   0.050 -1.2058  2.7973 -3.5135
  129SOL     OW  385   2.296   1.395   0.791 -0.2352  0.2429 -0.1852
  129SOL    HW1  386   2.200   1.423   0.801  0.5887 -1.2234  1.5493
  129SOL    HW2  387   2.308   1.305   0.843 -1.7814  2.1455  0.2934
  130SOL     OW  388   2.205   1.696   1.107 -0.2692  0.0568  0.5303
  130SOL    HW1  389   2.246   1.772   1.052  0.2715  3.5107  0.7583
  130SOL    HW2  390   2.124   1.658   1.057  1.2539 -1.2453 -0.9326
  131SOL     OW  391   2.759   1.214   2.773 -0.0138  0.3673  0.3288
  131SOL    HW1  392   2.756   1.169   2.861 -0.1349  0.6939 -2.2526
  131SOL    HW2  393   2.848   1.238   2.754 -5.0751 -2.0025  2.2583
  132SOL     OW  394   2.919   1.607   1.661  0.1533 -0.4774  0.0272
  132SOL    HW1  395   2.892   1.663   1.744 -1.0982 -2.1225 -0.8058
  132SOL    HW2  396   2.839   1.554   1.624  1.5699 -0.7415 -1.5068
  133SOL     OW  397   2.928   0.734   0.486  0.4190  0.4281  0.3150
  133SOL    HW1  398   3.028   0.716   0.490  1.1917  2.5716  1.5304
  133SOL    HW2  399   2.876   0.657   0.529  0.5018  0.2228 -1.7550
  134SOL     OW  400   0.159   1.125   0.165  0.3394 -0.9512 -0.4043
  134SOL    HW1  401   0.107   1.050   0.215  2.2660 -2.0224  0.2805
  134SOL    HW2  402   0.144   1.121   0.062  0.8912  1.0572  1.9837
  135SOL     OW  403   2.003   1.438   0.735  0.0538 -0.5583  0.0749
  135SOL    HW1  404   1.984   1.337   0.728 -4.4863  0.4289  2.3524
  135SOL    HW2  405   1.989   1.495   0.652  1.3528  2.3468 -0.1988
  136SOL     OW  406   2.036   1.317   1.157 -0.1535  0.3848 -0.5552
  136SOL    HW1  407   2.038   1.300   1.259 -1.0679  0.4558  0.4091
  136SOL    HW2  408   2.050   1.417   1.133  1.3875  2.8063 -0.1035
  137SOL     OW  409   2.568   1.529   0.817 -0.2155 -0.3460 -0.2060
  137SOL    HW1  410   2.480   1.474   0.809 -1.2778 -1.2875 -0.7055
  137SOL    HW2  411   2.554   1.627   0.845 -1.6905  2.6438  1.9383
  138SOL     OW  412   1.406   0.492   1.874 -0.6684  0.0550  0.2768
  138SOL    HW1  413   1.479   0.545   1.920 -0.8279  0.4198  1.4952
  138SOL    HW2  414   1.383   0.527   1.782  2.1460  0.8555  0.4100
  139SOL     OW  415   2.024   0.123   3.080 -0.6447 -0.1253  0.1325
  139SOL    HW1  416   2.038   0.219   3.049  0.5045 -2.8291  0.4729
  139SOL    HW2  417   2.047   0.107   0.062  0.3153  3.1039 -0.0301
  140SOL     OW  418   1.486   2.263   2.499  0.2289  0.2721  0.0858
  140SOL    HW1  419   1.433   2.183   2.467  1.0657  0.2295 -0.1518
  140SOL    HW2  420   1.528   2.307   2.416  4.7228 -1.7570 -0.5243
  141SOL     OW  421   1.251   1.250   1.577  0.2604  0.5018  0.3274
  141SOL    HW1  422   1.198   1.172   1.526  0.5763 -1.5310  1.2810
  141SOL    HW2  423   1.193   1.334   1.585 -0.5644 -1.7048  1.5410
  142SOL     OW  424   2.662   0.155   2.909 -0.5857 -0.1763 -0.5279
  142SOL    HW1  425   2.652   0.084   2.982 -0.0545  1.3118  2.6528
  142SOL    HW2  426   2.758   0.163   2.871  0.6134 -0.7026 -1.7760
  143SOL     OW  427   0.721   2.584   2.967 -0.1750  0.1196 -0.2817
  143SOL    HW1  428   0.722   2.553   3.069 -2.5857  0.0987  2.7957
  143SOL    HW2  429   0.814   2.615   2.934  1.8111 -1.6676 -1.8077
  144SOL     OW  430   1.044   2.834   2.273  0.0530  1.1019  0.1599
  144SOL    HW1  431   1.041   2.809   2.370 -0.9835 -0.3760  0.6749
  144SOL    HW2  432   1.021   2.928   2.240 -1.3336  1.4520 -0.3224
  145SOL     OW  433   2.576   1.467   0.458 -0.1291 -0.5041 -0.6483
  145SOL    HW1  434   2.585   1.410   0.378  0.2492  2.0471 -0.3088
  145SOL    HW2  435   2.662   1.507   0.483 -3.4427 -1.1187 -0.1113
  146SOL     OW  436   2.608   3.017   2.778  0.0607 -0.3636  0.5088
  146SOL    HW1  437   2.557   3.101   2.767  2.8727 -0.9951 -0.9462
  146SOL    HW2  438   2.565   2.956   2.848  1.1045 -0.6584  1.1270
  147SOL     OW  439   2.564   2.219   1.072 -0.7096 -0.2950  0.5605
  147SOL    HW1  440   2.542   2.301   1.017  3.5542 -0.5745  0.9631
  147SOL    HW2  441   2.512   2.219   1.162  1.6722 -0.3043 -1.7721
  148SOL     OW  442   1.769   0.193   3.039 -0.2413 -0.2363 -0.2542
  148SOL    HW1  443   1.734   0.196   0.017 -1.4661  2.1189 -0.7894
  148SOL    HW2  444   1.865   0.168   3.039 -0.7757  3.3176  0.2098
  149SOL     OW  445   0.934   1.469   2.910  0.6766  0.1769  0.4662
  149SOL    HW1  446   1.004   1.396   2.936  1.7947 -0.0898  1.1766
  149SOL    HW2  447   0.921   1.473   2.808 -2.0597  2.7528  1.5646
  150SOL     OW  448   0.970   2.865   0.608 -0.0352  0.3010 -0.1868
  150SOL    HW1  449   0.879   2.887   0.567 -0.5502  2.9338  1.9765
  150SOL    HW2  450   1.038   2.919   0.557 -2.0136 -0.5655 -2.4689
  151SOL     OW  451   0.482   1.914   0.171  0.3950  0.0452 -0.1326
  151SOL    HW1  452   0.409   1.843   0.150 -2.2098  0.0734  2.5353
  151SOL    HW2  453   0.545   1.938   0.095  0.2432  0.9795  0.7141
  152SOL     OW  454   2.947   0.997   0.542  0.6175  0.5687 -0.0041
  152SOL    HW1  455   2.986   1.001   0.640  1.7433  0.5633 -0.1533
  152SOL    HW2  456   2.921   0.897   0.524  2.0780  1.0574 -3.7016
  153SOL     OW  457   2.520   2.478   3.083  0.3965  0.1746 -0.1539
  153SOL    HW1  458   2.589   2.479   0.040  1.0238 -0.1965 -0.3426
  153SOL    HW2  459   2.508   2.563   3.032  0.3006 -2.4098  0.8028
  154SOL     OW  460   0.552   0.106   1.043  0.1078  0.2438  1.3704
  154SOL    HW1  461   0.551   0.028   0.972  1.0152 -2.4107 -1.4818
  154SOL    HW2  462   0.544   0.062   1.133 -1.1872  1.4108 -1.5761
  155SOL     OW  463   0.393   1.910   1.127  0.5800  0.5681 -0.0805
  155SOL    HW1  464   0.382   1.895   1.028 -2.5239  0.5959 -1.4575
  155SOL    HW2  465   0.339   1.993   1.158 -2.0842  2.1429  1.3442
  156SOL     OW  466   2.440   2.250   2.954  0.4171  0.1264 -0.2024
  156SOL    HW1  467   2.505   2.169   2.950 -0.7518 -0.8108  2.1290
  156SOL    HW2  468   2.469   2.317   3.028 -1.8672  0.7150  1.5076
  157SOL     OW  469   0.978   2.549   1.012 -0.2165 -0.1669  0.2171
  157SOL    HW1  470   0.896   2.578   1.066  1.7078  1.9456  1.0587
  157SOL    HW2  471   1.054   2.538   1.079 -0.4407 -1.3043 -2.0969
  158SOL     OW  472   1.772   0.921   2.683 -0.1052 -0.6471 -0.6880
  158SOL    HW1  473   1.700   0.863   2.730  0.5194  0.5738  2.7224
  158SOL    HW2  474   1.739   1.021   2.683 -1.7207  0.4310 -3.9905
  159SOL     OW  475   0.984   0.389   2.452  0.1215  0.1688  0.8908
  159SOL    HW1  476   0.950   0.464   2.508  0.3281  0.4397  2.4006
  159SOL    HW2  477   1.047   0.431   2.381  0.5479  1.5477  0.3482
  160SOL     OW  478   1.207   1.795   0.569  0.0892 -0.2641 -0.1825
  160SOL    HW1  479   1.181   1.858   0.647 -0.5174  1.0032  1.3000
  160SOL    HW2  480   1.160   1.705   0.592  2.0563 -0.4873  2.5258
  161SOL     OW  481   3.003   2.123   0.047 -0.3268 -0.6102 -0.5069
  161SOL    HW1  482   2.970   2.036   0.091 -0.6384 -0.0170  2.5994
  161SOL    HW2  483   3.077   2.165   0.104 -2.9041 -1.3555 -0.5093
  162SOL     OW  484   0.625   2.650   0.902  1.1433  0.0150 -0.9210
  162SOL    HW1  485   0.680   2.725   0.862  1.3482 -1.1684  2.1985
  162SOL    HW2  486   0.663   2.627   0.992 -0.6168  2.9419  0.4563
  163SOL     OW  487   2.344   0.943   0.071  0.0767  1.0389 -0.2899
  163SOL    HW1  488   2.407   0.963   3.106  0.5239  2.8695 -1.3147
  163SOL    HW2  489   2.313   0.844   0.078 -0.9003 -1.1375 -0.7326
  164SOL     OW  490   0.101   2.810   0.247  0.0505 -0.6221 -0.4572
  164SOL    HW1  491   0.081   2.747   0.325  0.0599 -0.1561  0.6825
  164SOL    HW2  492   0.163   2.765   0.184 -0.3967  1.1095  0.8006
  165SOL     OW  493   2.386   0.460   1.348  0.5548  0.1912 -0.1907
  165SOL    HW1  494   2.444   0.426   1.421 -1.9252 -0.3820 -0.1793
  165SOL    HW2  495   2.361   0.555   1.361  1.7437 -0.8795 -0.3585
  166SOL     OW  496   1.999   0.248   1.027  0.6380  0.0145  0.4075
  166SOL    HW1  497   2.095   0.244   1.058 -1.8615  0.5213 -0.5784
  166SOL    HW2  498   1.945   0.166   1.055  0.7124  1.0352 -2.2243
  167SOL     OW  499   0.427   0.800   1.485 -0.4053 -0.3452 -0.2386
  167SOL    HW1  500   0.370   0.761   1.560  1.2477 -1.0169  0.5668
  167SOL    HW2  501   0.410   0.901   1.470  1.6938  3.9228 -3.0473
  168SOL     OW  502   2.828   0.038   2.054 -0.3188  0.3182 -0.0667
  168SOL    HW1  503   2.803   3.114   2.143  1.4003  0.6791 -3.7281
  168SOL    HW2  504   2.774   3.117   1.978  2.1445 -0.1183  0.4560
  169SOL     OW  505   3.090   1.452   0.490 -0.6988 -0.2259  0.0718
  169SOL    HW1  506   0.035   1.374   0.465 -0.1237  1.7007  2.7564
  169SOL    HW2  507   3.115   1.475   0.584  0.7796 -0.6829 -1.9288
  170SOL     OW  508   3.075   0.660   1.594 -0.2955 -0.2527  0.0226
  170SOL    HW1  509   0.051   0.694   1.622 -0.4870 -0.4606 -1.4705
  170SOL    HW2  510   3.075   0.565   1.559  2.8282  2.0487  2.2377
  171SOL     OW  511   1.183   2.133   1.749  0.3227  0.1608 -1.1612
  171SOL    HW1  512   1.182   2.160   1.847 -1.9310 -0.6794 -0.7278
  171SOL    HW2  513   1.086   2.131   1.722  0.7562  0.2822 -1.1268
  172SOL     OW  514   0.640   2.306   1.147 -0.0441  0.2805 -0.2475
  172SOL    HW1  515   0.633   2.257   1.234  1.1387  1.6279  0.3301
  172SOL    HW2  516   0.588   2.266   1.074  3.4042  3.5882 -2.8875
  173SOL     OW  517   1.092   0.272   0.252  0.0928 -0.0476  0.3089
  173SOL    HW1  518   1.058   0.229   0.337  0.3272  0.6927 -1.6441
  173SOL    HW2  519   1.162   0.211   0.206  0.2723 -2.6914  0.9831
  174SOL     OW  520   0.729   3.015   2.868 -0.3838 -0.1990 -0.4175
  174SOL    HW1  521   0.674   3.089   2.909  0.3186 -1.5391  2.3268
  174SOL    HW2  522   0.813   3.007   2.922 -0.0468  2.4842 -0.7322
  175SOL     OW  523   1.023   0.764   0.050 -0.5132 -0.0745 -0.0120
  175SOL    HW1  524   1.118   0.784   0.084  2.8622 -1.1894  1.3452
  175SOL    HW2  525   0.970   0.851   0.045 -0.8537  1.8766  0.8161
  176SOL     OW  526   1.446   0.554   0.391 -0.2352  0.3305 -0.6382
  176SOL    HW1  527   1.460   0.488   0.324  0.8101  2.3855  3.0111
  176SOL    HW2  528   1.359   0.606   0.392  0.4339 -2.1064  1.3423
  177SOL     OW  529   1.389   0.840   0.789  0.2320  0.5386  0.7270
  177SOL    HW1  530   1.452   0.837   0.708 -1.2098 -0.2036 -0.5911
  177SOL    HW2  531   1.326   0.916   0.791  2.2580  0.2084  3.4081
  178SOL     OW  532   2.589   1.874   2.484  0.0680  0.3855 -0.1223
  178SOL    HW1  533   2.617   1.790   2.531 -2.5479 -0.4457 -1.8731
  178SOL    HW2  534   2.499   1.898   2.518 -0.7213  0.1661  2.7619
  179SOL     OW  535   0.697   2.911   2.614  0.1750  0.2430 -0.1805
  179SOL    HW1  536   0.709   2.960   2.704  0.5614 -0.5460 -1.1831
  179SOL    HW2  537   0.716   2.972   2.535  1.4422  0.1995  1.9216
  180SOL     OW  538   1.983   1.528   1.510 -0.0335  0.0175 -0.4521
  180SOL    HW1  539   1.944   1.441   1.478 -1.9665 -0.5296 -0.7920
  180SOL    HW2  540   1.928   1.601   1.471  0.5653 -1.0328 -0.6052
  181SOL     OW  541   1.374   1.425   2.263 -0.0125  0.3546 -0.3210
  181SOL    HW1  542   1.435   1.492   2.220 -0.5737  2.2588 -1.7096
  181SOL    HW2  543   1.377   1.410   2.360 -1.4434  1.0972 -1.3846
  182SOL     OW  544   2.955   0.650   2.616  0.1831  0.0021  0.0397
  182SOL    HW1  545   2.855   0.633   2.637  1.4806 -0.4313  0.4155
  182SOL    HW2  546   2.999   0.582   2.551 -0.0442  0.0152  0.2488
  183SOL     OW  547   1.588   0.184   2.838 -0.4240 -0.5756 -0.9050
  183SOL    HW1  548   1.617   0.129   2.759 -2.5880  0.1382  4.7627
  183SOL    HW2  549   1.658   0.183   2.910 -1.9827 -1.1390 -1.2084
  184SOL     OW  550   0.689   0.395   1.673 -0.1476  0.5271 -0.0857
  184SOL    HW1  551   0.759   0.432   1.738  0.2437 -1.8913  0.4082
  184SOL    HW2  552   0.674   0.292   1.691 -2.3361  0.2996  0.2822
  185SOL     OW  553   2.656   1.127   0.931 -0.0064 -0.1856 -0.5636
  185SOL    HW1  554   2.705   1.200   0.883 -0.1633 -2.4668 -0.6336
  185SOL    HW2  555   2.700   1.111   1.025  2.0181 -0.0525  1.0413
  186SOL     OW  556   0.358   1.952   2.914  0.2210  0.2847  0.4380
  186SOL    HW1  557   0.406   2.027   2.965 -1.3345  1.3142  0.6260
  186SOL    HW2  558   0.308   1.994   2.832 -2.1447  1.3788  1.8872
  187SOL     OW  559   2.599   1.277   0.266 -0.1323  0.3204  0.4053
  187SOL    HW1  560   2.703   1.268   0.263  1.9439 -0.4438  0.1623
  187SOL    HW2  561   2.565   1.262   0.172 -0.8040 -0.9116 -0.1402
  188SOL     OW  562   0.211   2.040   0.655  0.2320 -0.1678 -0.2531
  188SOL    HW1  563   0.306   2.007   0.635 -0.7215 -0.3274  0.3582
  188SOL    HW2  564   0.175   2.099   0.586  2.4225 -1.3578  2.6049
  189SOL     OW  565   2.493   0.865   0.289 -0.1163 -0.1516 -0.5670
  189SOL    HW1  566   2.436   0.896   0.214 -0.8964 -2.3679  1.8580
  189SOL    HW2  567   2.498   0.941   0.361 -0.2962 -0.0063 -0.3332
  190SOL     OW  568   1.198   1.626   2.157  0.3375  0.1936  0.2384
  190SOL    HW1  569   1.266   1.561   2.186  0.2606  1.0299 -0.0039
  190SOL    HW2  570   1.172   1.696   2.225 -0.2488 -0.7027  1.2351
  191SOL     OW  571   2.615   0.471   1.520  0.3277 -0.6396  0.0148
  191SOL    HW1  572   2.689   0.410   1.489 -1.5307  1.0192 -1.2060
  191SOL    HW2  573   2.617   0.561   1.465  0.3630  0.4405 -1.1154
  192SOL     OW  574   2.082   0.288   1.870 -0.3579 -0.3871 -0.2465
  192SOL    HW1  575   2.119   0.197   1.888 -2.3401  3.3470 -3.0820
  192SOL    HW2  576   2.111   0.350   1.944 -0.7152  0.9911 -0.9514
  193SOL     OW  577   0.730   0.790   0.444 -0.5241  0.5509  0.2281
  193SOL    HW1  578   0.774   0.736   0.516 -0.2592 -0.1161 -1.2097
  193SOL    HW2  579   0.631   0.806   0.462  1.9866 -1.7097  2.9874
  194SOL     OW  580   1.129   2.530   1.685  0.3387  0.2165  0.3058
  194SOL    HW1  581   1.073   2.458   1.722 -0.8486  2.1527  2.7693
  194SOL    HW2  582   1.226   2.496   1.676  2.8170  1.3496 -0.8064
  195SOL     OW  583   2.205   0.555   0.931  0.7438  0.6764 -0.5647
  195SOL    HW1  584   2.265   0.634   0.940 -2.4934 -4.2749 -0.5285
  195SOL    HW2  585   2.110   0.586   0.899 -2.3037  0.7648 -2.1643
  196SOL     OW  586   1.758   2.140   1.951 -0.0738 -0.3448 -0.3326
  196SOL    HW1  587   1.728   2.118   2.046 -0.1373  2.1676  0.4971
  196SOL    HW2  588   1.688   2.195   1.907  1.4217 -2.3749  0.8634
  197SOL     OW  589   0.172   0.253   0.067 -0.5575  0.0576 -0.4925
  197SOL    HW1  590   0.235   0.176   0.105  0.2706 -2.6223  1.8162
  197SOL    HW2  591   0.116   0.218   3.108  2.1177 -2.5868  0.3743
  198SOL     OW  592   1.361   1.276   0.674  0.1633  0.3009  0.0091
  198SOL    HW1  593   1.363   1.380   0.667 -2.7067  0.8343  0.1372
  198SOL    HW2  594   1.300   1.243   0.748  1.2985 -0.2578 -3.3971
  199SOL     OW  595   2.746   1.084   2.059  0.2057 -0.0581 -0.2377
  199SOL    HW1  596   2.706   1.005   2.112  0.6788  0.5844  0.2769
  199SOL    HW2  597   2.847   1.088   2.080 -0.0494 -1.8871  2.4494
  200SOL     OW  598   2.842   2.316   2.521 -0.0451  0.1771 -0.0640
  200SOL    HW1  599   2.809   2.381   2.451  1.7625 -1.0232 -0.5967
  200SOL    HW2  600   2.767   2.286   2.585 -2.3438 -2.9562 -1.1111
  201SOL     OW  601   2.734   0.140   1.252 -0.5742  0.0753  0.0436
  201SOL    HW1  602   2.809   0.196   1.208  2.8584 -0.3131 -1.5975
  201SOL    HW2  603   2.667   0.099   1.188 -0.1953  0.2288 -0.3158
  202SOL     OW  604   1.978   0.249   0.740  0.2466  0.3282  0.5097
  202SOL    HW1  605   1.881   0.270   0.714 -0.1346  0.0486  3.6629
  202SOL    HW2  606   1.977   0.241   0.842  0.6095  0.8596  0.8975
  203SOL     OW  607   1.670   2.051   2.199  0.0139  0.3226 -0.0744
  203SOL    HW1  608   1.606   1.994   2.145 -0.3893 -0.5667 -0.9362
  203SOL    HW2  609   1.706   2.001   2.280 -1.4611 -1.9424 -1.3904
  204SOL     OW  610   0.681   1.575   2.129 -0.3554 -0.4519  0.6215
  204SOL    HW1  611   0.731   1.562   2.040 -0.5293  1.1644  2.8540
  204SOL    HW2  612   0.675   1.674   2.149 -0.0247 -1.8255 -1.0388
  205SOL     OW  613   0.900   1.601   1.589 -0.1593 -0.2019  0.2532
  205SOL    HW1  614   0.880   1.633   1.492  1.9343  3.7126 -2.0078
  205SOL    HW2  615   0.904   1.675   1.657  1.4835 -0.9716 -0.7297
  206SOL     OW  616   2.973   0.529   3.076  0.3888  0.3650  0.4056
  206SOL    HW1  617   2.993   0.452   0.027 -1.2404 -2.3786  1.1738
  206SOL    HW2  618   2.885   0.504   3.025  1.7105 -1.4670 -0.9404
  207SOL     OW  619   1.811   2.744   2.058  0.2282  0.6632  0.8489
  207SOL    HW1  620   1.802   2.842   2.036  0.3109 -1.1703  2.4626
  207SOL    HW2  621   1.880   2.746   2.130 -3.0473  0.4822 -0.8766
  208SOL     OW  622   0.575   2.153   1.357  0.1823 -0.1116 -0.0286
  208SOL    HW1  623   0.590   2.066   1.309  2.8726  0.8272 -2.0759
  208SOL    HW2  624   0.489   2.189   1.328  1.4153 -2.4385  1.2547
  209SOL     OW  625   1.493   1.183   2.219 -0.0158  0.3130 -0.2414
  209SOL    HW1  626   1.438   1.119   2.164  0.0391 -1.4195 -2.4011
  209SOL    HW2  627   1.448   1.273   2.228 -3.4059 -0.7558 -2.5529
  210SOL     OW  628   1.904   0.952   1.268  0.2958 -0.2907  0.2726
  210SOL    HW1  629   1.962   0.977   1.185  0.5968 -0.5968  0.3612
  210SOL    HW2  630   1.877   0.853   1.254  0.6957 -1.1949 -0.9451
  211SOL     OW  631   0.422   0.285   0.596  0.0021 -0.1327  0.1073
  211SOL    HW1  632   0.339   0.323   0.549  0.1763  2.7290  0.0899
  211SOL    HW2  633   0.495   0.355   0.599 -1.5785 -0.9502  1.0599
  212SOL     OW  634   1.987   1.426   0.056  0.3835  0.4131 -0.3187
  212SOL    HW1  635   1.957   1.343   0.005  2.4956 -1.9774 -1.0904
  212SOL    HW2  636   1.978   1.410   0.158 -0.1058  0.3707  3.2996
  213SOL     OW  637   1.602   0.410   2.541  0.6287  0.2154 -0.9009
  213SOL    HW1  638   1.636   0.440   2.633  0.2692  0.1671 -1.7839
  213SOL    HW2  639   1.619   0.482   2.471  1.7335  0.1609  1.5069
  214SOL     OW  640   1.563   1.636   2.139  0.1108 -0.1320  0.3578
  214SOL    HW1  641   1.581   1.630   2.240 -2.6352  2.2158 -0.3338
  214SOL    HW2  642   1.638   1.689   2.093  1.4716 -1.7867  1.0172
  215SOL     OW  643   0.587   1.933   0.418  0.0422  0.2390  0.2841
  215SOL    HW1  644   0.530   1.905   0.338 -0.3546 -1.8378  0.7203
  215SOL    HW2  645   0.627   2.024   0.397 -1.6461 -1.2453  1.5584
  216SOL     OW  646   0.380   2.840   2.331  0.1070  0.1063  0.1592
  216SOL    HW1  647   0.473   2.859   2.294 -0.5531 -0.5537 -4.6665
  216SOL    HW2  648   0.306   2.892   2.280  0.7321  1.2203 -2.0003
  217SOL     OW  649   2.344   0.982   0.716  0.5502  0.4421 -0.5187
  217SOL    HW1  650   2.442   0.985   0.675  1.6356  0.9597 -3.4973
  217SOL    HW2  651   2.273   0.962   0.644  0.3012  1.8410  0.9648
  218SOL     OW  652   1.781   1.750   1.983  0.8250  0.1611 -0.0722
  218SOL    HW1  653   1.838   1.836   1.980  2.3285  1.5163 -1.3063
  218SOL    HW2  654   1.834   1.662   1.983 -0.0901  1.6785 -2.5912
  219SOL     OW  655   1.927   1.249   2.967  0.2768  0.0692  0.1505
  219SOL    HW1  656   1.993   1.268   2.890 -1.8039 -3.1527  0.0341
  219SOL    HW2  657   1.840   1.304   2.961 -0.7086  1.2100 -1.6311
  220SOL     OW  658   1.347   1.517   0.991  0.5427 -0.2201 -0.3316
  220SOL    HW1  659   1.321   1.468   1.078 -1.3339  0.6214  3.2120
  220SOL    HW2  660   1.448   1.505   0.969  1.7649  2.4827 -0.2076
  221SOL     OW  661   0.636   0.732   2.917  0.1775  0.3214 -0.1812
  221SOL    HW1  662   0.657   0.749   2.819 -4.0360  0.3765 -0.0781
  221SOL    HW2  663   0.569   0.657   2.922  1.1944  0.2196 -0.7564
  222SOL     OW  664   0.874   1.733   1.161  0.2016 -0.2186  0.5358
  222SOL    HW1  665   0.818   1.654   1.180 -1.3095  4.3454 -0.3272
  222SOL    HW2  666   0.921   1.767   1.238  0.5721  0.2227 -0.1931
  223SOL     OW  667   1.304   3.042   3.051 -0.3861 -0.2648 -0.5629
  223SOL    HW1  668   1.218   3.026   3.002 -1.3477 -0.6387  0.0583
  223SOL    HW2  669   1.348   0.008   3.018 -0.0503 -1.8711 -0.6962
  224SOL     OW  670   2.635   0.569   1.199 -0.4894 -0.0328 -0.1503
  224SOL    HW1  671   2.549   0.523   1.224 -0.2196  2.0996  0.7081
  224SOL    HW2  672   2.618   0.634   1.115  0.9383 -0.7196 -2.0649
  225SOL     OW  673   0.893   0.537   1.221  0.0782  0.3272  0.5606
  225SOL    HW1  674   0.884   0.619   1.277 -1.0615 -0.4394 -0.7464
  225SOL    HW2  675   0.891   0.452   1.277 -1.5582 -1.4437 -2.0055
  226SOL     OW  676   1.586   1.825   2.945  0.3130 -0.1704 -0.2706
  226SOL    HW1  677   1.499   1.817   2.891 -0.3459  0.1066  3.3521
  226SOL    HW2  678   1.574   1.819   3.050 -0.6193 -1.4830 -1.0225
  227SOL     OW  679   1.174   1.763   1.438 -0.0708 -0.1032 -0.0433
  227SOL    HW1  680   1.264   1.754   1.387  1.1266 -1.3717 -2.2629
  227SOL    HW2  681   1.177   1.720   1.530 -0.7824 -0.6137 -0.0859
  228SOL     OW  682   0.337   1.641   0.632 -0.1233 -0.0899 -0.3022
  228SOL    HW1  683   0.428   1.692   0.640  0.1609  2.5962 -0.2588
  228SOL    HW2  684   0.337   1.544   0.673 -1.7324 -3.4843  1.4519
  229SOL     OW  685   1.415   0.463   3.007 -0.0441  0.2852  0.3206
  229SOL    HW1  686   1.473   0.461   3.088 -0.4554 -0.4245 -0.3678
  229SOL    HW2  687   1.476   0.473   2.925  1.7711  0.3898  2.3968
  230SOL     OW  688   1.362   0.575   2.375  0.3573 -0.0436  0.0841
  230SOL    HW1  689   1.303   0.513   2.322 -1.0184  0.6123  0.9092
  230SOL    HW2  690   1.336   0.570   2.472  0.8072 -3.7674  2.6626
  231SOL     OW  691   1.107   1.798   2.336 -0.8635  0.3559 -0.5119
  231SOL    HW1  692   1.104   1.728   2.407  2.2553  0.4608 -1.8832
  231SOL    HW2  693   1.085   1.893   2.368 -1.3321 -1.1546  4.5347
  232SOL     OW  694   2.327   1.913   0.970  0.2724 -0.3372  0.1908
  232SOL    HW1  695   2.310   1.894   0.869 -1.5132  0.0414 -2.2350
  232SOL    HW2  696   2.422   1.916   1.004  1.4041 -1.1184  3.2410
  233SOL     OW  697   2.165   2.854   3.109  0.1535  0.8269 -0.2255
  233SOL    HW1  698   2.170   2.839   0.093 -0.3310 -0.0586  1.7781
  233SOL    HW2  699   2.253   2.890   3.079 -1.3228 -0.5393  0.7539
  234SOL     OW  700   0.884   0.324   2.759 -0.0190 -0.4972 -0.8621
  234SOL    HW1  701   0.875   0.316   2.860 -1.4612 -2.4161 -1.0273
  234SOL    HW2  702   0.865   0.234   2.719  1.0928  4.5447  2.0412
  235SOL     OW  703   2.218   0.062   2.633  0.4071 -0.2364  0.1990
  235SOL    HW1  704   2.306   0.088   2.671 -3.5863 -0.9746 -1.4848
  235SOL    HW2  705   2.221   0.074   2.532  2.1565  1.4921  2.4795
  236SOL     OW  706   2.700   2.268   2.224  0.6449  0.0209  0.1580
  236SOL    HW1  707   2.691   2.368   2.250 -0.9239 -1.3599  1.3049
  236SOL    HW2  708   2.764   2.251   2.147 -0.0363 -0.3426  0.7830
  237SOL     OW  709   1.038   1.384   2.013 -0.5425  0.3686  0.4961
  237SOL    HW1  710   0.965   1.445   1.975  2.3001 -1.7551  1.5681
  237SOL    HW2  711   1.093   1.419   2.091  1.4971 -2.2164  1.5481
  238SOL     OW  712   1.718   0.052   2.634  0.3843  0.0773 -0.6765
  238SOL    HW1  713   1.734   3.071   2.621 -0.7211  0.9995  0.1997
  238SOL    HW2  714   1.797   0.111   2.616  0.3681  2.8947  0.1723
  239SOL     OW  715   0.334   1.885   1.997  0.2937 -0.4192 -0.1692
  239SOL    HW1  716   0.378   1.796   2.027  1.2647  3.9410 -0.3219
  239SOL    HW2  717   0.247   1.868   1.947  1.2474  0.4138 -0.6780
  240SOL     OW  718   2.818   2.758   0.439  0.1376 -0.4698  0.2048
  240SOL    HW1  719   2.884   2.686   0.472 -1.8910  0.6091  1.8432
  240SOL    HW2  720   2.861   2.840   0.392 -0.0061 -0.5377 -0.0695
  241SOL     OW  721   2.027   1.619   0.478 -0.0053  0.4955  0.5770
  241SOL    HW1  722   2.093   1.696   0.489 -0.3387 -1.6086 -1.7070
  241SOL    HW2  723   1.937   1.656   0.446 -0.6820 -1.1624 -0.7729
  242SOL     OW  724   1.401   1.773   2.755  0.2450  0.7069 -0.2730
  242SOL    HW1  725   1.475   1.795   2.689  2.7593 -2.9833  0.1273
  242SOL    HW2  726   1.305   1.786   2.723  1.2290 -0.3659 -0.8884
  243SOL     OW  727   0.773   2.648   2.331 -0.0655 -0.0492 -0.0108
  243SOL    HW1  728   0.761   2.551   2.362  1.6255 -0.6890 -0.6916
  243SOL    HW2  729   0.836   2.697   2.393  3.0285  0.9476 -2.0250
  244SOL     OW  730   1.970   0.191   2.678  0.1704 -0.2321 -0.2005
  244SOL    HW1  731   1.946   0.231   2.769  1.3622  0.6153  0.9564
  244SOL    HW2  732   2.052   0.128   2.678 -1.7949  2.1010 -0.9917
  245SOL     OW  733   1.430   2.882   0.688 -0.5063  0.3072  0.1774
  245SOL    HW1  734   1.441   2.923   0.780 -0.9248 -0.5053 -0.3739
  245SOL    HW2  735   1.381   2.934   0.623  2.7769 -1.1155  2.7416
  246SOL     OW  736   1.373   2.414   0.507  0.0274  0.3293 -0.7760
  246SOL    HW1  737   1.436   2.471   0.459 -0.6610 -1.3004  0.2766
  246SOL    HW2  738   1.409   2.376   0.594  0.3688  0.7003 -3.0063
  247SOL     OW  739   0.847   0.736   2.387  0.1461 -0.3558 -0.2860
  247SOL    HW1  740   0.902   0.704   2.309 -1.8180  0.2588  2.4492
  247SOL    HW2  741   0.756   0.769   2.362 -0.2242 -1.4197 -2.9375
  248SOL     OW  742   0.683   1.372   2.304  1.0126  0.3888  0.5105
  248SOL    HW1  743   0.725   1.279   2.287  0.9590 -0.3371  0.3480
  248SOL    HW2  744   0.680   1.426   2.222  1.0705 -0.3163 -1.0850
  249SOL     OW  745   2.150   0.316   0.289 -0.3782 -0.2596 -0.7702
  249SOL    HW1  746   2.245   0.314   0.250  1.9000 -2.2516  0.3621
  249SOL    HW2  747   2.138   0.318   0.392 -0.4432  0.5794 -0.0352
  250SOL     OW  748   0.722   0.245   0.698  0.1483  0.1503  0.1946
  250SOL    HW1  749   0.735   0.165   0.640 -0.6260  0.8608  0.8174
  250SOL    HW2  750   0.696   0.326   0.644 -0.2160  1.7033  2.6939
  251SOL     OW  751   1.847   0.592   2.920  0.0718 -0.6440  0.0060
  251SOL    HW1  752   1.870   0.652   2.841 -0.7888  3.1956 -2.6076
  251SOL    HW2  753   1.914   0.518   2.924  0.2013 -1.7305  1.6577
  252SOL     OW  754   2.187   1.475   1.877 -0.0869  1.0064  0.2528
  252SOL    HW1  755   2.101   1.435   1.915 -1.7402  1.4926  1.8892
  252SOL    HW2  756   2.229   1.544   1.943  3.6824 -0.5576  4.3061
  253SOL     OW  757   2.745   2.360   1.718  0.3277 -0.2432  0.0817
  253SOL    HW1  758   2.710   2.439   1.779 -0.7669  2.9547  2.3658
  253SOL    HW2  759   2.782   2.399   1.631  2.4333 -0.0393  1.0204
  254SOL     OW  760   0.353   1.357   1.360  0.2582  0.1536  0.2066
  254SOL    HW1  761   0.443   1.310   1.368 -1.8568  0.6260 -0.5122
  254SOL    HW2  762   0.360   1.453   1.331  0.5647 -3.4792  1.9994
  255SOL     OW  763   0.816   0.791   1.269 -0.2798 -0.0055 -0.6359
  255SOL    HW1  764   0.722   0.766   1.241 -2.1253 -2.0818 -0.4738
  255SOL    HW2  765   0.878   0.793   1.190  3.3917  0.8478  0.8407
  256SOL     OW  766   2.066   2.693   1.805  0.2058  0.3739 -0.1195
  256SOL    HW1  767   2.056   2.671   1.903  0.8831 -1.0052 -2.4450
  256SOL    HW2  768   2.139   2.641   1.761 -3.4443  0.3295 -0.4529
  257SOL     OW  769   0.301   2.757   0.010  1.0467  0.1350 -0.5524
  257SOL    HW1  770   0.376   2.823   0.003  0.8493 -0.6289  0.2214
  257SOL    HW2  771   0.218   2.791   3.075 -3.7755  0.2608 -3.1159
  258SOL     OW  772   0.675   2.836   3.070  0.1290  0.1785 -0.1860
  258SOL    HW1  773   0.674   2.754   3.012  2.0037  0.8260  0.5924
  258SOL    HW2  774   0.668   2.925   3.019 -1.3837  0.6042 -0.4990
  259SOL     OW  775   1.176   0.162   2.278  0.0593  0.1899 -0.0916
  259SOL    HW1  776   1.150   0.164   2.180  1.6257 -1.3119  1.5037
  259SOL    HW2  777   1.276   0.139   2.285  0.0892 -2.1615 -2.3965
  260SOL     OW  778   1.815   0.460   0.973  0.5283 -0.1615  0.1502
  260SOL    HW1  779   1.890   0.398   1.006 -3.8851 -1.1350 -0.6591
  260SOL    HW2  780   1.846   0.515   0.891  0.1855  0.4657  0.8325
  261SOL     OW  781   0.441   0.467   2.515  0.1234 -0.0800  0.2686
  261SOL    HW1  782   0.344   0.459   2.543  1.4738 -0.4388 -1.0973
  261SOL    HW2  783   0.509   0.466   2.596 -0.7829  0.5602  0.8374
  262SOL     OW  784   3.061   2.531   2.206  0.7371  0.8676  0.2629
  262SOL    HW1  785   3.105   2.622   2.220 -1.7352  0.3984 -0.4006
  262SOL    HW2  786   3.066   2.507   2.102 -0.4674  0.5173 -0.7047
  263SOL     OW  787   3.098   1.589   2.266 -0.1036  0.0017 -0.5000
  263SOL    HW1  788   3.072   1.673   2.214 -1.1950 -1.5524  1.5435
  263SOL    HW2  789   3.092   1.605   2.366 -0.3433 -1.5338  0.8630
  264SOL     OW  790   0.428   1.028   0.819 -0.2800  0.0087 -0.2165
  264SOL    HW1  791   0.385   1.081   0.745  0.1552 -2.1873 -1.2771
  264SOL    HW2  792   0.382   1.028   0.912 -0.3779 -0.1489  0.1911
  265SOL     OW  793   1.008   2.236   0.723  0.0230  0.3685  0.4792
  265SOL    HW1  794   1.045   2.144   0.747  0.0851  0.4390  2.4727
  265SOL    HW2  795   0.944   2.271   0.792  0.9302  0.6238 -0.9208
  266SOL     OW  796   1.550   0.463   1.042 -0.5525  0.1919  0.1174
  266SOL    HW1  797   1.644   0.478   1.012 -2.0288  0.7768  0.9112
  266SOL    HW2  798   1.479   0.511   0.986  1.2210 -2.0463 -2.4394
  267SOL     OW  799   2.685   1.173   3.046  0.6463 -0.2303  0.5712
  267SOL    HW1  800   2.760   1.118   3.090  0.1038 -2.1817 -1.3802
  267SOL    HW2  801   2.604   1.116   3.015  0.1238 -0.8249  0.2714
  268SOL     OW  802   1.879   0.361   0.228 -0.8567 -0.0582  0.2079
  268SOL    HW1  803   1.970   0.354   0.269  0.4897  0.9030 -0.4113
  268SOL    HW2  804   1.810   0.385   0.299 -0.7876 -1.6749  0.4741
  269SOL     OW  805   2.017   0.888   2.830 -0.3790 -0.0177 -0.1756
  269SOL    HW1  806   1.930   0.900   2.780  1.3666 -1.2823 -0.4904
  269SOL    HW2  807   2.020   0.946   2.917  1.2027  0.8326  3.0181
  270SOL     OW  808   3.033   0.953   2.988  0.8510 -0.4069 -0.3164
  270SOL    HW1  809   3.030   0.904   2.898  0.0036 -2.1174  0.1162
  270SOL    HW2  810   3.027   0.882   3.063  1.8764 -1.8061  0.1167
  271SOL     OW  811   2.782   0.839   0.255 -0.2385  0.3427  0.5883
  271SOL    HW1  812   2.681   0.839   0.263  1.9835 -1.9809  0.6083
  271SOL    HW2  813   2.820   0.830   0.347  0.7151  1.6878 -1.5158
  272SOL     OW  814   3.103   2.180   2.920  0.0415 -0.4923  0.2912
  272SOL    HW1  815   3.058   2.113   2.856 -1.0313 -2.6179  0.6107
  272SOL    HW2  816   3.063   2.167   3.017  2.0710 -2.6057  3.0604
  273SOL     OW  817   2.533   3.050   0.253 -0.1816 -0.5138 -0.0625
  273SOL    HW1  818   2.575   0.027   0.274  1.0334  1.2288  2.5002
  273SOL    HW2  819   2.432   3.065   0.259 -0.1549  1.4415 -2.0739
  274SOL     OW  820   0.492   2.147   0.948 -0.3906 -0.2887  0.6116
  274SOL    HW1  821   0.392   2.163   0.955  0.1700  1.5473  1.2980
  274SOL    HW2  822   0.514   2.166   0.850  1.2511  0.8878 -1.4796
  275SOL     OW  823   2.831   1.562   0.532 -0.0827 -0.2520 -0.2114
  275SOL    HW1  824   2.828   1.628   0.616 -3.5955  1.5802  3.1503
  275SOL    HW2  825   2.920   1.511   0.522 -0.8179  0.9230 -0.9475
  276SOL     OW  826   3.076   0.883   1.936  0.0589  0.3754  0.3381
  276SOL    HW1  827   3.038   0.940   2.012 -3.6026  1.9997  1.5393
  276SOL    HW2  828   3.001   0.851   1.871 -1.3523 -2.1661 -2.3853
  277SOL     OW  829   2.091   2.858   1.313 -0.2937  0.0416  0.2716
  277SOL    HW1  830   2.093   2.822   1.215 -1.8047 -0.5489 -4.9486
  277SOL    HW2  831   2.028   2.939   1.325 -1.8435  1.1398  0.8892
  278SOL     OW  832   1.307   2.531   2.109  0.1741 -0.4813 -0.2650
  278SOL    HW1  833   1.318   2.434   2.106 -0.2687 -1.0906  1.6015
  278SOL    HW2  834   1.208   2.558   2.109  2.7470 -2.1396 -2.0897
  279SOL     OW  835   1.613   1.846   0.527 -0.2679 -0.0498  0.3563
  279SOL    HW1  836   1.672   1.762   0.509 -1.5161 -2.2655 -0.4160
  279SOL    HW2  837   1.540   1.853   0.454  1.1439  1.0296 -2.4684
  280SOL     OW  838   0.107   1.598   1.125 -0.0933 -0.4258 -0.2289
  280SOL    HW1  839   0.119   1.646   1.038 -0.4531  0.9803  0.1317
  280SOL    HW2  840   0.133   1.502   1.123  0.8794  4.8361  0.3939
  281SOL     OW  841   2.944   0.883   2.413 -0.3782 -0.1733  0.2993
  281SOL    HW1  842   2.853   0.896   2.366  0.7345 -1.5961 -1.2026
  281SOL    HW2  843   2.932   0.808   2.483 -0.7054 -0.3616 -3.4375
  282SOL     OW  844   0.773   1.530   0.711  0.4740 -0.6885 -0.2016
  282SOL    HW1  845   0.677   1.558   0.726  2.8451 -1.1443 -2.0096
  282SOL    HW2  846   0.811   1.595   0.643  0.0916 -1.8790  0.9415
  283SOL     OW  847   1.987   2.217   0.195 -0.3384  0.5271  0.0998
  283SOL    HW1  848   1.939   2.277   0.259 -1.4566 -1.1048  0.1667
  283SOL    HW2  849   2.052   2.149   0.237 -0.9449  0.5675 -2.3467
  284SOL     OW  850   0.830   0.637   0.177  0.0379  0.1292  0.1144
  284SOL    HW1  851   0.752   0.702   0.157 -1.3373  0.5436  1.1965
  284SOL    HW2  852   0.919   0.665   0.136  2.0416 -2.1373 -0.6447
  285SOL     OW  853   2.288   1.200   2.888  0.0448 -0.0163  0.0575
  285SOL    HW1  854   2.218   1.209   2.819  0.9036 -1.3591 -0.0515
  285SOL    HW2  855   2.291   1.274   2.956  1.0645 -2.2047 -0.0608
  286SOL     OW  856   1.774   2.270   1.364 -0.5564 -0.0845  0.2706
  286SOL    HW1  857   1.695   2.207   1.382  0.3049  1.5739 -1.6569
  286SOL    HW2  858   1.739   2.360   1.326 -1.7620 -1.6088 -1.3365
  287SOL     OW  859   0.965   1.077   0.773  0.0206 -0.3028 -0.3806
  287SOL    HW1  860   0.897   1.073   0.853 -1.7361 -0.6911  1.5205
  287SOL    HW2  861   0.955   1.165   0.717 -0.1487  2.9674  3.4644
  288SOL     OW  862   1.132   2.398   0.296  0.2647  0.1520  0.1191
  288SOL    HW1  863   1.187   2.453   0.236  2.2175 -3.0683  3.0168
  288SOL    HW2  864   1.158   2.413   0.390  0.9883 -0.4182  0.9046
  289SOL     OW  865   0.256   1.593   1.573 -0.2192  0.0120 -0.3925
  289SOL    HW1  866   0.310   1.677   1.548  1.9730  1.2001  0.0203
  289SOL    HW2  867   0.313   1.515   1.605  0.0719 -0.1315 -1.2556
  290SOL     OW  868   1.693   2.311   0.923  0.6178  0.0882 -0.4108
  290SOL    HW1  869   1.658   2.297   1.013  3.0813  1.2576 -1.1979
  290SOL    HW2  870   1.746   2.228   0.885 -1.0205 -0.0627 -4.4119
  291SOL     OW  871   1.973   2.981   2.980 -0.3372  0.5622 -0.0258
  291SOL    HW1  872   1.983   3.072   3.023  0.3664 -1.1564  0.4170
  291SOL    HW2  873   2.032   2.919   3.038  0.1187  1.0167 -3.2039
  292SOL     OW  874   0.968   0.618   2.179 -0.0894  0.4249  0.4763
  292SOL    HW1  875   0.916   0.640   2.096  1.8415 -0.3747 -1.0307
  292SOL    HW2  876   1.018   0.528   2.180  1.6297 -0.3916  3.3623
  293SOL     OW  877   2.082   2.365   0.899 -0.7538 -0.3511 -0.3950
  293SOL    HW1  878   2.026   2.329   0.825  3.8301 -1.4294 -1.1879
  293SOL    HW2  879   2.113   2.287   0.961 -0.1999  1.6101  2.1139
  294SOL     OW  880   0.593   0.854   2.379 -0.4325 -0.9374 -0.0654
  294SOL    HW1  881   0.529   0.789   2.340  0.9377  1.1817  0.6752
  294SOL    HW2  882   0.528   0.914   2.433 -1.7686  1.5075  0.4226
  295SOL     OW  883   1.617   1.506   0.955 -0.1770 -0.2016 -0.4927
  295SOL    HW1  884   1.662   1.428   1.007 -1.4393  0.2923 -0.4668
  295SOL    HW2  885   1.675   1.590   0.954  1.0496  0.1236  0.1796
  296SOL     OW  886   2.720   1.690   0.316  0.0179 -0.0207 -0.2285
  296SOL    HW1  887   2.715   1.790   0.337  0.1278  1.1201 -1.5283
  296SOL    HW2  888   2.767   1.631   0.387  0.3258 -1.6090  3.2880
  297SOL     OW  889   2.161   2.777   0.266 -0.3836  0.3271  0.5265
  297SOL    HW1  890   2.210   2.861   0.285 -2.3099 -1.0427  0.4116
  297SOL    HW2  891   2.137   2.715   0.340  0.8324  1.0239 -0.7310
  298SOL     OW  892   0.954   2.663   2.790  0.3804 -0.0725 -0.0974
  298SOL    HW1  893   0.995   2.572   2.775  0.3557 -0.3353  3.1309
  298SOL    HW2  894   1.017   2.722   2.837 -1.8929  0.3097  1.4726
  299SOL     OW  895   1.136   2.174   2.008  0.1120 -0.3402 -0.0922
  299SOL    HW1  896   1.232   2.179   2.043 -3.5210 -0.2220 -1.0926
  299SOL    HW2  897   1.078   2.227   2.080 -1.7814  1.0823  1.7550
  300SOL     OW  898   2.478   0.153   2.701  0.5059 -0.0239  0.0461
  300SOL    HW1  899   2.548   0.168   2.778  0.1864  0.3607  1.7350
  300SOL    HW2  900   2.442   0.240   2.669 -1.6352 -2.6946 -0.8559
  301SOL     OW  901   1.307   0.996   2.092 -0.1556 -0.8758 -0.3158
  301SOL    HW1  902   1.284   1.088   2.055 -1.5660 -2.4805  0.2141
  301SOL    HW2  903   1.362   0.936   2.024  0.9524 -0.8242  0.4793
  302SOL     OW  904   2.820   2.912   0.022 -0.1743 -0.2094  0.3090
  302SOL    HW1  905   2.727   2.886   0.049  1.8976 -0.0325  2.1224
  302SOL    HW2  906   2.875   2.932   0.107  0.6442  0.5926 -0.2631
  303SOL     OW  907   2.686   2.573   1.872 -0.2412 -0.3630  0.0544
  303SOL    HW1  908   2.627   2.511   1.933  2.0462  0.1854  0.5764
  303SOL    HW2  909   2.752   2.635   1.919 -1.9245 -0.2483  1.3579
  304SOL     OW  910   2.749   0.680   2.024  0.6597 -0.0736 -0.6996
  304SOL    HW1  911   2.765   0.690   1.924  0.8540  0.5600 -1.0417
  304SOL    HW2  912   2.820   0.622   2.067 -0.8006  1.2210  1.3440
  305SOL     OW  913   0.657   1.537   1.397 -0.3027 -0.3219  0.2537
  305SOL    HW1  914   0.696   1.516   1.303  0.8431 -0.7059 -1.2225
  305SOL    HW2  915   0.571   1.590   1.391  2.5327  0.9977 -1.5909
  306SOL     OW  916   0.136   1.143   1.826  0.3747  0.1913 -0.1932
  306SOL    HW1  917   0.134   1.221   1.885  0.5037 -1.2143 -1.1673
  306SOL    HW2  918   0.116   1.063   1.882  0.7997  2.0869 -0.7989
  307SOL     OW  919   1.041   0.602   1.574 -0.4321 -0.2318 -0.2353
  307SOL    HW1  920   1.023   0.634   1.478 -0.1791 -2.4713  2.1267
  307SOL    HW2  921   1.144   0.613   1.590 -2.8085  1.6919 -0.1798
  308SOL     OW  922   3.009   0.960   1.148  0.0810 -0.9600 -0.4830
  308SOL    HW1  923   2.976   1.058   1.153  0.0405  0.6003  1.1903
  308SOL    HW2  924   3.004   0.918   1.238 -0.1542 -0.9468 -3.1312
  309SOL     OW  925   2.315   1.005   1.129  0.1787  0.2729 -0.0542
  309SOL    HW1  926   2.350   1.074   1.064 -2.7582 -0.1318  1.1720
  309SOL    HW2  927   2.386   0.991   1.202 -1.7370  1.1292 -0.8143
  310SOL     OW  928   2.974   2.119   2.657  0.3546  0.4288 -0.5515
  310SOL    HW1  929   2.896   2.059   2.677  1.1865 -1.1315  0.0939
  310SOL    HW2  930   2.952   2.192   2.585  0.1747 -0.7079 -0.3964
  311SOL     OW  931   2.810   2.961   2.590 -0.0219 -0.9667 -0.3925
  311SOL    HW1  932   2.746   2.994   2.662  1.3194  0.6953  1.2066
  311SOL    HW2  933   2.821   2.860   2.608  0.2898  0.1551 -0.7602
  312SOL     OW  934   2.225   1.886   0.090 -0.5054  0.0189 -0.2468
  312SOL    HW1  935   2.313   1.858   0.053 -2.9909  0.8431  4.6330
  312SOL    HW2  936   2.158   1.894   0.016 -1.1358  0.3798  0.9596
  313SOL     OW  937   2.570   2.770   0.323 -0.2146 -0.1818 -0.8708
  313SOL    HW1  938   2.660   2.768   0.369  0.9516 -1.0995 -1.1158
  313SOL    HW2  939   2.562   2.869   0.290  1.0163  1.4618  0.6966
  314SOL     OW  940   1.618   1.135   0.175 -0.5923 -0.1273  0.0670
  314SOL    HW1  941   1.520   1.127   0.203 -2.7743  0.7939  0.2188
  314SOL    HW2  942   1.637   1.169   0.081  0.2609  1.0703 -0.0847
  315SOL     OW  943   1.334   2.778   1.961 -0.3457  0.0471  0.0801
  315SOL    HW1  944   1.316   2.707   2.033  1.6232 -2.2177  0.8818
  315SOL    HW2  945   1.374   2.859   2.010 -0.9190 -0.0312  2.3305
  316SOL     OW  946   2.858   1.023   0.064 -0.5980 -0.3047  0.4222
  316SOL    HW1  947   2.927   1.004   3.103  1.7505 -0.5178  0.1019
  316SOL    HW2  948   2.835   0.938   0.124 -2.0857 -1.6132  0.5757
  317SOL     OW  949   0.338   0.052   0.170 -0.1197  0.3595 -0.4353
  317SOL    HW1  950   0.274   0.028   0.243  0.3966  0.7681 -0.7087
  317SOL    HW2  951   0.403   3.093   0.150  0.6611  1.8248 -0.9568
  318SOL     OW  952   2.277   2.538   0.783 -0.2702 -0.1371  0.1434
  318SOL    HW1  953   2.202   2.483   0.827 -0.5962  1.0690 -0.5381
  318SOL    HW2  954   2.241   2.596   0.704 -0.2329  0.2283  0.4138
  319SOL     OW  955   1.046   1.777   3.113 -0.3075 -0.0757  0.0166
  319SOL    HW1  956   1.051   1.852   0.065 -1.8305  1.1004  1.6525
  319SOL    HW2  957   0.980   1.791   3.038  2.5146 -0.4066  3.1477
  320SOL     OW  958   0.201   2.185   1.953  0.5364 -0.3114 -0.1350
  320SOL    HW1  959   0.243   2.274   1.935  1.5995 -1.8364 -2.3374
  320SOL    HW2  960   0.234   2.119   1.886 -1.1454  0.2450  1.7384
  321SOL     OW  961   1.494   2.813   2.916  0.5183  0.3649  0.1264
  321SOL    HW1  962   1.453   2.910   2.926  0.1476 -0.9294 -0.6062
  321SOL    HW2  963   1.596   2.817   2.899 -0.4948  0.1326 -1.6418
  322SOL     OW  964   3.025   1.369   2.075  0.5581 -0.1265 -0.5059
  322SOL    HW1  965   3.101   1.387   2.013 -0.2079 -0.4516  2.2425
  322SOL    HW2  966   3.023   1.445   2.144 -0.5125 -1.3016 -0.5135
  323SOL     OW  967   2.060   1.067   1.061  0.1350  0.2289 -0.3691
  323SOL    HW1  968   2.155   1.042   1.082  1.3373  0.5456 -2.5121
  323SOL    HW2  969   2.047   1.164   1.092  0.0337 -2.0367 -1.6794
  324SOL     OW  970   2.960   0.039   2.465  0.3641  0.3491 -0.4508
  324SOL    HW1  971   2.915   0.129   2.451  0.7535 -3.7370 -0.1680
  324SOL    HW2  972   2.898   3.091   2.513  2.6405  0.7343  2.6606
  325SOL     OW  973   1.302   0.788   2.738  0.3974  0.4337 -0.2725
  325SOL    HW1  974   1.301   0.692   2.709 -1.5977  1.6540  0.3268
  325SOL    HW2  975   1.207   0.816   2.759  1.6069  0.1100 -1.2746
  326SOL     OW  976   2.108   2.680   2.118  0.4676  0.5352  0.0045
  326SOL    HW1  977   2.175   2.756   2.099  0.9364  0.6155  2.5158
  326SOL    HW2  978   2.141   2.596   2.070  1.7881  1.5714 -1.8403
  327SOL     OW  979   2.067   0.075   0.215  0.5852 -0.3466  0.1752
  327SOL    HW1  980   1.976   0.036   0.240  1.8570  1.5578 -2.3299
  327SOL    HW2  981   2.078   0.173   0.245 -1.2677  0.5344  2.9716
  328SOL     OW  982   0.152   1.305   2.496 -0.3057 -0.0537  0.1090
  328SOL    HW1  983   0.190   1.346   2.410 -1.9455 -2.6086 -1.8173
  328SOL    HW2  984   0.053   1.301   2.500  0.5353  1.6101  0.4842
  329SOL     OW  985   2.167   0.050   1.921 -0.3589  0.0358 -0.0957
  329SOL    HW1  986   2.141   3.080   1.870  1.4932 -0.5434 -0.1373
  329SOL    HW2  987   2.272   0.047   1.933  3.9157  0.9806  0.5706
  330SOL     OW  988   3.104   1.260   0.948  0.4006  0.3982 -0.1618
  330SOL    HW1  989   3.036   1.329   0.921  0.5719  1.8110  2.3729
  330SOL    HW2  990   0.030   1.285   1.039 -0.0068  0.7625 -0.6947
  331SOL     OW  991   0.348   1.832   2.424  0.1509  0.4258  0.3846
  331SOL    HW1  992   0.309   1.912   2.370 -0.5152  2.8221 -2.5930
  331SOL    HW2  993   0.445   1.849   2.448  1.0394  0.9664  0.2411
  332SOL     OW  994   0.281   3.014   1.690  0.4609  0.2442  0.6784
  332SOL    HW1  995   0.366   2.961   1.675 -3.0466  1.2370 -2.9115
  332SOL    HW2  996   0.207   2.987   1.614 -4.5130 -3.4879 -3.3668
  333SOL     OW  997   2.238   2.990   0.940  0.0759 -0.4087 -0.1852
  333SOL    HW1  998   2.164   2.928   0.984 -3.6014 -2.1344  2.1932
  333SOL    HW2  999   2.245   3.077   0.990 -0.9201 -0.9904 -2.2410
  334SOL     OW 1000   0.573   1.779   0.668  0.5133  0.0251 -0.4659
  334SOL    HW1 1001   0.584   1.815   0.575  0.0790  1.7191  3.4359
  334SOL    HW2 1002   0.662   1.784   0.716 -1.4296 -1.6664  1.9587
  335SOL     OW 1003   0.238   2.504   3.074  0.1614 -0.7301  0.3165
  335SOL    HW1 1004   0.274   2.481   2.977  0.6802  3.0077 -3.0852
  335SOL    HW2 1005   0.265   2.600   3.098 -0.8998  3.2319  2.8804
  336SOL     OW 1006   0.344   0.095   2.336  0.1698 -0.1369  0.0868
  336SOL    HW1 1007   0.300   0.024   2.395 -3.0318 -0.9870 -0.0644
  336SOL    HW2 1008   0.320   0.080   2.238  1.4276  1.3148  0.8058
  337SOL     OW 1009   2.346   2.206   2.574 -0.6043  0.0449 -0.1597
  337SOL    HW1 1010   2.448   2.209   2.594  1.8315  0.1115  2.5835
  337SOL    HW2 1011   2.308   2.268   2.642  0.5902 -1.0856 -1.1734
  338SOL     OW 1012   0.908   1.169   1.067 -0.6681  0.0011  0.0268
  338SOL    HW1 1013   0.880   1.250   1.014  1.4735  1.7090  2.0698
  338SOL    HW2 1014   0.929   1.183   1.164  1.8859  1.3084 -0.3947
  339SOL     OW 1015   0.094   0.709   2.095  0.0076  0.3673  0.1539
  339SOL    HW1 1016   0.117   0.752   2.184 -0.9917  0.3533 -2.1946
  339SOL    HW2 1017   0.032   0.765   2.038 -0.4881 -0.2989 -0.0214
  340SOL     OW 1018   1.551   2.602   0.368  0.1561 -0.1828 -0.0597
  340SOL    HW1 1019   1.579   2.661   0.446  1.6853  0.1613 -2.2382
  340SOL    HW2 1020   1.583   2.644   0.280 -1.0110  0.2327  0.2363
  341SOL     OW 1021   1.917   0.893   0.897 -0.0678 -0.1034 -0.0886
  341SOL    HW1 1022   1.846   0.957   0.860 -2.5808 -0.7194 -0.6235
  341SOL    HW2 1023   1.975   0.935   0.972 -1.0004  3.3950  1.7578
  342SOL     OW 1024   2.396   2.939   3.000 -0.3191  0.2173  0.6467
  342SOL    HW1 1025   2.328   2.952   2.929  1.1671 -0.0142  0.4931
  342SOL    HW2 1026   2.441   2.849   2.983 -1.0499 -2.2859  0.4796
  343SOL     OW 1027   1.434   2.171   1.640 -0.2275  0.1472 -0.3197
  343SOL    HW1 1028   1.499   2.208   1.711 -2.1742  0.8578  0.6161
  343SOL    HW2 1029   1.336   2.156   1.672  0.5898 -2.3115 -2.7862
  344SOL     OW 1030   2.140   2.460   1.208 -0.1444  0.1311  0.1603
  344SOL    HW1 1031   2.075   2.489   1.135  1.4668  1.5835 -1.4688
  344SOL    HW2 1032   2.235   2.486   1.179 -1.0525 -2.2496 -4.2395
  345SOL     OW 1033   2.667   2.530   0.175 -0.4791 -0.0695 -0.0338
  345SOL    HW1 1034   2.675   2.444   0.227  1.4632 -1.9533 -0.6888
  345SOL    HW2 1035   2.635   2.609   0.227 -0.0601 -1.8528 -0.9248
  346SOL     OW 1036   2.773   1.361   0.793  0.9668  0.6604 -0.2436
  346SOL    HW1 1037   2.773   1.291   0.722  1.9153 -0.3003  1.4688
  346SOL    HW2 1038   2.690   1.418   0.791  1.3200  0.4242  1.0217
  347SOL     OW 1039   2.052   2.467   1.568  0.4521  0.0764 -0.0186
  347SOL    HW1 1040   2.001   2.551   1.538 -2.2813 -1.9483 -1.7465
  347SOL    HW2 1041   2.056   2.397   1.492 -2.3567 -0.1726 -3.6630
  348SOL     OW 1042   0.707   2.009   3.115  0.5219  0.0835  0.5593
  348SOL    HW1 1043   0.775   2.077   3.079  0.3618  0.7093 -0.0752
  348SOL    HW2 1044   0.753   1.958   0.072 -1.6822 -0.1337 -0.6283
  349SOL     OW 1045   2.615   1.358   1.479  0.4024 -0.0929 -0.1266
  349SOL    HW1 1046   2.575   1.449   1.510 -1.9968 -0.9056 -2.4679
  349SOL    HW2 1047   2.719   1.367   1.485  0.9002  1.6382  2.1262
  350SOL     OW 1048   2.838   2.580   1.113 -0.5812 -0.9956  0.2932
  350SOL    HW1 1049   2.876   2.672   1.137 -0.8892  1.0081 -0.9445
  350SOL    HW2 1050   2.784   2.581   1.025 -0.8689 -0.0770  0.3143
  351SOL     OW 1051   0.435   0.633   2.312 -0.1996 -0.1919  0.1588
  351SOL    HW1 1052   0.468   0.593   2.224  0.5694 -0.7723 -2.2408
  351SOL    HW2 1053   0.455   0.572   2.396 -0.5662  0.5270  0.3674
  352SOL     OW 1054   0.624   1.919   1.243  0.6274  0.1765  0.6432
  352SOL    HW1 1055   0.659   1.822   1.255 -0.8133  1.1804  0.8470
  352SOL    HW2 1056   0.537   1.913   1.189 -2.5372  2.1311 -1.1749
  353SOL     OW 1057   1.556   1.869   2.554 -0.2097  0.1195  0.4000
  353SOL    HW1 1058   1.492   1.929   2.500  0.1660 -0.6756  0.0555
  353SOL    HW2 1059   1.594   1.803   2.489  0.8709 -0.3916 -2.2333
  354SOL     OW 1060   1.104   0.494   0.848 -0.6741 -0.3132  0.3648
  354SOL    HW1 1061   1.041   0.456   0.912 -0.3900  1.6127 -0.3944
  354SOL    HW2 1062   1.100   0.448   0.757 -0.5031 -1.1800  0.8339
  355SOL     OW 1063   2.508   0.698   0.696  0.4522 -0.6698  0.8399
  355SOL    HW1 1064   2.568   0.783   0.701 -0.6111 -0.7282  0.6438
  355SOL    HW2 1065   2.435   0.710   0.620  2.0094 -0.3223 -2.9674
  356SOL     OW 1066   2.612   1.805   2.204 -0.0868  0.5467 -0.4116
  356SOL    HW1 1067   2.621   1.837   2.298 -1.8694 -0.8848 -1.0951
  356SOL    HW2 1068   2.662   1.716   2.186  0.8257 -3.0386 -1.2846
  357SOL     OW 1069   0.754   2.554   1.142  0.3064  0.5928 -0.4534
  357SOL    HW1 1070   0.757   2.581   1.241  2.5989 -0.2031  1.1995
  357SOL    HW2 1071   0.715   2.459   1.141  1.1716 -1.2368 -0.8008
  358SOL     OW 1072   2.522   0.797   1.716  0.4171 -0.1584  0.6461
  358SOL    HW1 1073   2.569   0.779   1.626  0.4632  0.7831  0.7558
  358SOL    HW2 1074   2.536   0.887   1.759 -0.6922 -1.2658 -1.4486
  359SOL     OW 1075   2.518   2.602   2.684  0.3093  0.7070  0.4091
  359SOL    HW1 1076   2.462   2.651   2.615  4.2472 -2.3918  1.2184
  359SOL    HW2 1077   2.470   2.521   2.712 -1.0191  1.2964  2.3043
  360SOL     OW 1078   1.721   0.271   0.673  0.4899  0.0363 -0.2333
  360SOL    HW1 1079   1.718   0.348   0.604  1.8082 -0.4619 -0.4482
  360SOL    HW2 1080   1.647   0.287   0.743  0.0260  2.4163  0.7934
  361SOL     OW 1081   2.332   0.053   1.383 -0.6726  0.0209  0.1461
  361SOL    HW1 1082   2.348   0.124   1.452 -0.6573 -2.9663 -0.9968
  361SOL    HW2 1083   2.320   3.079   1.433 -1.7112  1.8030  0.9293
  362SOL     OW 1084   1.265   1.236   0.392  0.4458  0.0159  0.8207
  362SOL    HW1 1085   1.285   1.234   0.494  0.2685  0.2737 -2.0340
  362SOL    HW2 1086   1.246   1.332   0.357 -1.2484  1.2222  0.5814
  363SOL     OW 1087   2.504   1.593   2.848 -0.4982 -0.5005  0.0856
  363SOL    HW1 1088   2.545   1.522   2.907  2.5292  1.5516 -3.9428
  363SOL    HW2 1089   2.544   1.593   2.753 -0.5506  2.6521 -5.7209
  364SOL     OW 1090   0.844   0.324   1.389 -0.1816  0.5839 -0.1187
  364SOL    HW1 1091   0.824   0.355   1.487 -3.3763 -0.8914 -0.7674
  364SOL    HW2 1092   0.756   0.294   1.348 -1.8677  2.6953 -0.7720
  365SOL     OW 1093   0.198   3.041   0.372 -0.5153 -0.2276 -0.3769
  365SOL    HW1 1094   0.163   2.966   0.319 -2.4515 -0.2529  2.9227
  365SOL    HW2 1095   0.251   3.004   0.455  3.3627 -0.6061  0.6006
  366SOL     OW 1096   2.792   1.527   0.104 -0.4955  1.1416  0.0362
  366SOL    HW1 1097   2.752   1.591   0.175 -0.3730 -1.9935 -1.4909
  366SOL    HW2 1098   2.880   1.484   0.143 -0.3562  0.4205 -1.0636
  367SOL     OW 1099   2.803   2.683   2.670  0.2975 -0.0231  0.2382
  367SOL    HW1 1100   2.717   2.653   2.628  0.3893 -2.0068  0.0067
  367SOL    HW2 1101   2.792   2.696   2.772  1.4410  0.4415 -0.5460
  368SOL     OW 1102   0.181   1.735   0.903  0.4483  0.4117 -0.3327
  368SOL    HW1 1103   0.101   1.794   0.910  1.3136  0.0442 -2.2697
  368SOL    HW2 1104   0.259   1.790   0.865  0.4318  4.4842  4.0404
  369SOL     OW 1105   0.705   0.125   0.256  0.4315 -0.6156  0.2340
  369SOL    HW1 1106   0.764   0.114   0.172 -1.4847  0.0894  1.0524
  369SOL    HW2 1107   0.646   0.211   0.254 -1.2200  2.8857 -1.7512
  370SOL     OW 1108   0.149   0.823   0.756  0.1240 -0.4290  0.4880
  370SOL    HW1 1109   0.179   0.771   0.837 -1.0330  3.1419 -2.0449
  370SOL    HW2 1110   0.083   0.893   0.791 -0.8501 -0.0508 -0.3152
  371SOL     OW 1111   1.890   2.838   0.646 -0.4902 -0.3358 -0.4606
  371SOL    HW1 1112   1.942   2.924   0.645  0.2657  0.0411  0.3989
  371SOL    HW2 1113   1.938   2.758   0.611 -1.2774 -2.1166  2.8103
  372SOL     OW 1114   0.107   1.059   2.635 -0.4209 -0.6025 -0.6453
  372SOL    HW1 1115   0.209   1.070   2.639  2.0001  1.4604 -0.2429
  372SOL    HW2 1116   0.060   1.097   2.558 -0.6619 -0.3263  2.8565
  373SOL     OW 1117   2.862   1.763   0.726 -0.2417  0.4499  0.1068
  373SOL    HW1 1118   2.934   1.833   0.714  0.0566 -0.7393  0.1983
  373SOL    HW2 1119   2.871   1.717   0.819  0.1319  1.0518 -0.5995
  374SOL     OW 1120   0.408   2.625   0.222 -0.3458  0.2086  0.4079
  374SOL    HW1 1121   0.358   2.672   0.143 -1.2327  1.8911  3.0400
  374SOL    HW2 1122   0.417   2.526   0.204 -3.2251  0.1212  4.9305
  375SOL     OW 1123   0.198   0.731   0.097 -0.1062 -0.2113 -0.5173
  375SOL    HW1 1124   0.285   0.762   0.142 -0.9122  0.2122  0.1384
  375SOL    HW2 1125   0.213   0.640   0.046  0.0234 -2.1402  0.1601
  376SOL     OW 1126   0.463   2.463   2.114  0.3318 -0.1626 -0.1548
  376SOL    HW1 1127   0.406   2.478   2.034 -0.0057  0.0572  0.8804
  376SOL    HW2 1128   0.402   2.476   2.195 -0.0594 -0.1733 -1.8807
  377SOL     OW 1129   1.288   2.427   2.571  0.6560 -0.2799 -0.2642
  377SOL    HW1 1130   1.332   2.515   2.558 -2.9853 -2.4219  0.0019
  377SOL    HW2 1131   1.351   2.349   2.554  2.6929  0.6101 -1.3922
  378SOL     OW 1132   1.108   0.947   0.562 -0.6477 -0.0103 -0.2943
  378SOL    HW1 1133   1.051   1.000   0.627  1.3662  2.0098 -1.1487
  378SOL    HW2 1134   1.209   0.955   0.569 -0.4568 -0.8906 -0.6500
  379SOL     OW 1135   1.024   1.800   0.370  0.0017  0.4272  0.0815
  379SOL    HW1 1136   1.097   1.809   0.439  1.2981  4.5578 -1.5763
  379SOL    HW2 1137   1.048   1.731   0.298 -0.5719  1.1856 -2.2511
  380SOL     OW 1138   0.203   2.001   1.442 -0.1487  0.2506 -0.2409
  380SOL    HW1 1139   0.132   1.957   1.385 -0.6421  0.5280  3.5209
  380SOL    HW2 1140   0.204   2.103   1.433  0.0987  2.7231  1.2104
  381SOL     OW 1141   0.423   1.061   1.770 -0.2186 -0.0034 -0.0397
  381SOL    HW1 1142   0.340   1.083   1.824 -3.8114  0.6754  1.6225
  381SOL    HW2 1143   0.504   1.100   1.819  2.7246 -0.2762 -2.7034
  382SOL     OW 1144   2.600   2.047   0.612 -0.0980  0.3047 -0.2417
  382SOL    HW1 1145   2.523   2.108   0.644 -1.0526 -0.0399  0.9234
  382SOL    HW2 1146   2.584   1.948   0.637  5.7553 -0.8678 -2.2534
  383SOL     OW 1147   2.363   1.911   2.198 -0.0238  0.2171 -0.0250
  383SOL    HW1 1148   2.449   1.857   2.205 -1.0528 -1.5933 -2.7873
  383SOL    HW2 1149   2.389   2.007   2.174  0.0053 -4.2459 -0.7388
  384SOL     OW 1150   0.274   2.032   2.223 -0.0975 -0.0504 -0.0206
  384SOL    HW1 1151   0.349   2.097   2.239  2.2552  1.5436  0.4928
  384SOL    HW2 1152   0.289   1.991   2.132 -0.5634  1.1679  0.9614
  385SOL     OW 1153   2.889   2.333   0.874  0.3064 -0.5884 -0.1632
  385SOL    HW1 1154   2.849   2.425   0.869 -0.1539 -2.0909  0.7923
  385SOL    HW2 1155   2.988   2.332   0.867 -3.0853  0.9925  0.4253
  386SOL     OW 1156   1.881   0.725   0.574 -0.0048  0.2715  0.1279
  386SOL    HW1 1157   1.860   0.827   0.588  0.8217 -0.7594  0.0416
  386SOL    HW2 1158   1.950   0.706   0.502  0.1634 -0.8663  0.6844
  387SOL     OW 1159   0.323   0.763   1.917  0.0679  0.6621 -0.1759
  387SOL    HW1 1160   0.268   0.718   1.990  1.3910 -1.8733  1.9026
  387SOL    HW2 1161   0.369   0.844   1.954 -1.2498 -0.4298 -0.9094
  388SOL     OW 1162   2.304   1.080   2.403  0.6587  0.2085  0.2740
  388SOL    HW1 1163   2.308   1.169   2.454  0.6883  0.5395 -2.8080
  388SOL    HW2 1164   2.253   1.009   2.456  1.3234  0.0843 -0.7577
  389SOL     OW 1165   1.692   1.346   1.847 -0.0055  0.5546  0.8633
  389SOL    HW1 1166   1.705   1.399   1.758  0.2839 -0.3636  2.1502
  389SOL    HW2 1167   1.600   1.372   1.887  1.2128  0.0390 -0.0111
  390SOL     OW 1168   1.909   2.585   0.220  0.1428  0.0131  0.2310
  390SOL    HW1 1169   1.920   2.526   0.135  0.3687  0.2873 -0.4037
  390SOL    HW2 1170   1.843   2.660   0.204 -0.5189  0.7789  0.2518
  391SOL     OW 1171   2.027   2.290   1.360  0.7322  0.6243 -0.4286
  391SOL    HW1 1172   2.079   2.358   1.303 -3.6495  0.1593 -1.4303
  391SOL    HW2 1173   1.923   2.286   1.348  0.8484 -2.7737 -2.5699
  392SOL     OW 1174   3.080   2.400   1.147 -0.0085 -0.2278 -0.5271
  392SOL    HW1 1175   3.005   2.462   1.119 -1.7303  0.3403  0.9454
  392SOL    HW2 1176   3.041   2.311   1.181  0.1066 -3.1807 -0.2264
  393SOL     OW 1177   1.981   1.932   3.013 -0.1328  0.1555  0.2812
  393SOL    HW1 1178   1.990   1.830   2.989  3.0289 -2.3734 -0.0266
  393SOL    HW2 1179   2.000   1.989   2.927  0.9428  0.2361 -4.8430
  394SOL     OW 1180   0.040   0.143   2.987 -0.1612 -0.5560 -0.2821
  394SOL    HW1 1181   3.098   0.060   3.003 -3.6223  0.0197 -0.9323
  394SOL    HW2 1182   0.080   0.151   2.893 -2.0466  2.5877 -2.0329
  395SOL     OW 1183   1.390   1.107   1.261  0.7047  0.7594  0.0880
  395SOL    HW1 1184   1.432   1.140   1.344  1.8887  0.4129 -2.9709
  395SOL    HW2 1185   1.462   1.062   1.205  0.5075 -0.9731  2.6860
  396SOL     OW 1186   1.632   0.896   3.048 -0.3051  0.5311  0.2031
  396SOL    HW1 1187   1.619   0.989   3.023  2.6330 -3.5565  3.1067
  396SOL    HW2 1188   1.605   0.836   2.971 -1.4737 -2.1956 -0.9848
  397SOL     OW 1189   3.103   0.833   2.750  0.6542 -0.3522 -0.4414
  397SOL    HW1 1190   3.047   0.777   2.683 -2.9595  0.5795 -2.4367
  397SOL    HW2 1191   0.027   0.914   2.702 -0.5050  0.5586  2.6865
  398SOL     OW 1192   0.879   0.345   3.018 -0.1063 -0.2654 -0.6323
  398SOL    HW1 1193   0.809   0.378   3.090 -0.3008  0.4826  4.5045
  398SOL    HW2 1194   0.976   0.382   3.042  3.7538 -0.6106 -0.8161
  399SOL     OW 1195   2.679   2.994   1.875 -0.4482  0.2096  0.3855
  399SOL    HW1 1196   2.698   3.035   1.782 -0.4774 -1.0963 -1.2486
  399SOL    HW2 1197   2.683   2.894   1.872 -0.7800  0.4476  0.0185
  400SOL     OW 1198   0.253   1.601   2.258 -0.4147  0.5592  0.4665
  400SOL    HW1 1199   0.276   1.679   2.320 -2.6791 -0.1401 -0.1419
  400SOL    HW2 1200   0.151   1.597   2.246 -0.4210  1.3188  0.6707
  401SOL     OW 1201   0.645   0.448   2.703  0.0282  0.1694  0.2872
  401SOL    HW1 1202   0.580   0.452   2.778  0.5430 -0.7985 -0.9687
  401SOL    HW2 1203   0.735   0.410   2.726  1.2852  0.0631  2.4399
  402SOL     OW 1204   0.260   2.086   1.712 -0.3336 -0.6989  0.1122
  402SOL    HW1 1205   0.241   2.009   1.650  2.8321  0.0440 -0.5796
  402SOL    HW2 1206   0.355   2.119   1.696  2.0906  0.7545  0.2908
  403SOL     OW 1207   0.828   1.157   1.584  0.1331 -0.0284  0.2342
  403SOL    HW1 1208   0.756   1.086   1.561 -1.4719 -0.2962 -0.9232
  403SOL    HW2 1209   0.906   1.132   1.653 -0.3964 -0.7001  1.6805
  404SOL     OW 1210   2.798   2.451   1.453  0.2957  0.1609  0.4945
  404SOL    HW1 1211   2.836   2.543   1.467  1.7665 -0.5289  0.8678
  404SOL    HW2 1212   2.825   2.414   1.363 -3.0402 -2.5303  2.7874
  405SOL     OW 1213   0.104   0.274   1.706  0.6216  0.4697 -0.4909
  405SOL    HW1 1214   0.062   0.218   1.785 -1.8514  1.1031 -0.0374
  405SOL    HW2 1215   0.194   0.310   1.725  0.5498 -1.7788  1.2695
  406SOL     OW 1216   1.711   2.627   3.033 -0.6863  0.1083  0.1102
  406SOL    HW1 1217   1.708   2.528   3.015  0.2746 -1.8466  2.6260
  406SOL    HW2 1218   1.689   2.682   2.950 -0.8548  0.4909  1.5115
  407SOL     OW 1219   1.511   1.188   1.500 -0.1806 -0.3396 -0.0969
  407SOL    HW1 1220   1.580   1.136   1.559  1.6144 -3.1882  0.5336
  407SOL    HW2 1221   1.427   1.213   1.554 -0.3705 -1.7544 -4.4124
  408SOL     OW 1222   0.746   3.113   2.423  0.8710 -0.6151 -0.3969
  408SOL    HW1 1223   0.693   0.083   2.408  0.1524  0.6668  0.4543
  408SOL    HW2 1224   0.840   0.020   2.443 -2.2744 -0.1152  0.8712
  409SOL     OW 1225   2.998   2.554   0.503  0.0784  0.7620 -0.2656
  409SOL    HW1 1226   2.936   2.486   0.541  1.7150  0.9795  1.3794
  409SOL    HW2 1227   3.065   2.510   0.442 -0.1253 -1.2163  0.1899
  410SOL     OW 1228   2.426   1.662   0.316  0.0591 -0.4012  0.1014
  410SOL    HW1 1229   2.483   1.617   0.387 -1.1117  1.7325 -0.2781
  410SOL    HW2 1230   2.487   1.719   0.265  0.6981 -1.3134  1.3642
  411SOL     OW 1231   0.000   0.530   1.023  0.1885 -0.2018 -0.7319
  411SOL    HW1 1232   3.108   0.452   0.958  1.0262 -0.3640  0.6830
  411SOL    HW2 1233   0.080   0.596   0.992  1.5168  1.3861 -1.3735
  412SOL     OW 1234   1.467   0.310   0.812 -0.0391 -0.0925  0.1181
  412SOL    HW1 1235   1.467   0.261   0.903  0.0134  1.4007 -0.3027
  412SOL    HW2 1236   1.423   0.403   0.820 -0.9693 -2.7218  1.7910
  413SOL     OW 1237   0.961   0.372   1.012  0.4851 -0.2360  0.2489
  413SOL    HW1 1238   0.927   0.279   1.029 -0.2260  0.3743 -0.0948
  413SOL    HW2 1239   0.933   0.434   1.087  0.9947  1.2088 -4.9701
  414SOL     OW 1240   0.331   1.730   0.080 -0.2994  0.0121  0.3187
  414SOL    HW1 1241   0.270   1.740   0.002 -2.0179  0.5521 -0.2357
  414SOL    HW2 1242   0.356   1.632   0.090 -0.2325  0.9262 -2.1260
  415SOL     OW 1243   0.409   2.371   0.099 -0.0612 -0.2746  0.3852
  415SOL    HW1 1244   0.466   2.302   0.054  0.3166  3.1488  0.0264
  415SOL    HW2 1245   0.339   2.404   0.033  1.6244 -2.1634  2.4698
  416SOL     OW 1246   1.552   0.761   0.543 -0.2281 -0.0750  0.5510
  416SOL    HW1 1247   1.525   0.667   0.509  0.8732 -2.9527 -0.6151
  416SOL    HW2 1248   1.650   0.779   0.554 -0.2104 -1.8990 -0.8930
  417SOL     OW 1249   0.221   0.977   0.499  0.7325 -0.3371 -0.5893
  417SOL    HW1 1250   0.154   0.952   0.427  0.6351 -1.0805 -0.4237
  417SOL    HW2 1251   0.198   0.943   0.592 -0.3033 -1.5526  0.7031
  418SOL     OW 1252   2.567   1.380   2.423  0.2287 -0.2640 -0.3975
  418SOL    HW1 1253   2.593   1.372   2.325  0.6296 -2.1133  0.5823
  418SOL    HW2 1254   2.468   1.392   2.434 -0.3046 -1.6969  0.4190
  419SOL     OW 1255   0.252   0.495   3.073  0.3230 -0.7506  0.0685
  419SOL    HW1 1256   0.250   0.406   0.008 -0.7867 -0.0472 -0.4462
  419SOL    HW2 1257   0.177   0.496   3.000 -0.3163  1.0040 -0.1116
  420SOL     OW 1258   0.451   1.411   0.812 -0.1690  0.0898 -0.3072
  420SOL    HW1 1259   0.451   1.456   0.904  0.3650  0.0840  0.8743
  420SOL    HW2 1260   0.373   1.351   0.799  2.4607  1.4493  0.7529
  421SOL     OW 1261   0.506   2.110   0.663 -0.1700  0.0487  0.0715
  421SOL    HW1 1262   0.498   2.196   0.612 -1.6113 -0.5699  1.3281
  421SOL    HW2 1263   0.588   2.053   0.641  0.6900 -2.5378  1.2870
  422SOL     OW 1264   2.941   0.775   1.373  0.2599  0.0707 -0.3433
  422SOL    HW1 1265   2.993   0.732   1.449  0.5528 -2.1582  0.4861
  422SOL    HW2 1266   2.939   0.704   1.292  1.8548 -1.0527 -1.8788
  423SOL     OW 1267   1.573   1.395   1.290  0.0113  0.3425  0.1976
  423SOL    HW1 1268   1.626   1.351   1.210  3.7786 -1.4893 -1.9022
  423SOL    HW2 1269   1.569   1.339   1.375 -0.7894  1.1505  0.5784
  424SOL     OW 1270   1.747   0.930   0.318  0.3813 -0.0316  0.0143
  424SOL    HW1 1271   1.759   0.996   0.235  0.1159  1.2810 -0.3940
  424SOL    HW2 1272   1.724   0.838   0.283 -1.9514 -2.1950  1.2399
  425SOL     OW 1273   3.072   0.090   1.900  0.1349 -0.1855 -0.5023
  425SOL    HW1 1274   3.092   0.151   1.975 -4.0448 -1.9303 -0.1654
  425SOL    HW2 1275   2.982   0.046   1.915  2.1106  1.4910 -0.7445
  426SOL     OW 1276   2.519   3.006   2.466  0.1998 -0.1203  0.1089
  426SOL    HW1 1277   2.531   3.073   2.546  3.0424  2.2509  0.7565
  426SOL    HW2 1278   2.435   3.030   2.417  2.7981  1.6046  0.9923
  427SOL     OW 1279   1.014   0.895   2.510 -0.0083  0.3701  0.6552
  427SOL    HW1 1280   0.960   0.821   2.460  0.7615  3.0073  0.4162
  427SOL    HW2 1281   1.020   0.879   2.609 -0.2076  0.2789 -3.1679
  428SOL     OW 1282   2.229   1.112   2.101 -0.1519 -0.9129 -0.3436
  428SOL    HW1 1283   2.235   1.118   2.204  0.7648  2.6638 -1.5122
  428SOL    HW2 1284   2.172   1.039   2.058  1.9415  2.3304  1.1406
  429SOL     OW 1285   2.617   0.082   0.593 -0.2565  0.3507 -0.1531
  429SOL    HW1 1286   2.612   0.119   0.496 -0.1079  2.2086 -3.6278
  429SOL    HW2 1287   2.707   0.113   0.631 -0.8075 -1.7866  1.4284
  430SOL     OW 1288   1.997   1.272   2.173 -0.4976 -0.6534  0.2845
  430SOL    HW1 1289   2.081   1.227   2.138  1.0737  3.2876  1.4686
  430SOL    HW2 1290   1.904   1.240   2.138 -1.1145  1.6800 -1.5656
  431SOL     OW 1291   0.040   1.970   1.047 -0.2453  0.4301  0.0039
  431SOL    HW1 1292   3.071   2.023   1.038  0.1606 -0.8566  2.7756
  431SOL    HW2 1293   0.043   1.921   1.140  0.1380 -0.6429  2.6882
  432SOL     OW 1294   1.491   2.971   2.097  0.2978  0.0161  0.1574
  432SOL    HW1 1295   1.466   3.061   2.140 -1.4349  1.2992 -0.6986
  432SOL    HW2 1296   1.578   2.980   2.049 -3.3825 -0.2673 -0.0362
  433SOL     OW 1297   1.549   0.044   1.726 -0.2382 -0.1600 -0.0511
  433SOL    HW1 1298   1.481   0.004   1.665 -1.7847  2.0629  4.2381
  433SOL    HW2 1299   1.634   3.111   1.730 -2.5275 -1.0196 -2.6957
  434SOL     OW 1300   0.299   2.580   2.292  0.2648 -0.6722  0.4913
  434SOL    HW1 1301   0.331   2.682   2.293 -0.9725  3.4698  0.2383
  434SOL    HW2 1302   0.197   2.573   2.307 -2.6960  0.3001  1.1341
  435SOL     OW 1303   0.062   2.114   0.290 -0.3410 -0.4074 -0.3879
  435SOL    HW1 1304   0.159   2.122   0.259  4.2930  0.6080 -0.1426
  435SOL    HW2 1305   0.041   2.045   0.357 -1.0102  1.8558 -1.1461
  436SOL     OW 1306   0.894   0.819   1.680 -0.2598 -0.5657  0.1812
  436SOL    HW1 1307   0.945   0.744   1.635  1.7206  0.4047  2.5442
  436SOL    HW2 1308   0.827   0.856   1.611  0.6959  0.0555  2.1826
  437SOL     OW 1309   0.739   0.359   2.244  0.0910  0.8191  0.0384
  437SOL    HW1 1310   0.823   0.407   2.273 -0.7647  2.0412  2.1891
  437SOL    HW2 1311   0.681   0.322   2.323  1.3508 -2.3423  1.8897
  438SOL     OW 1312   0.630   1.823   1.628  0.0564 -0.0285 -0.4878
  438SOL    HW1 1313   0.676   1.890   1.677 -3.7764 -3.2010 -3.7576
  438SOL    HW2 1314   0.678   1.733   1.631  0.0579  3.6742 -0.6306
  439SOL     OW 1315   1.858   0.733   0.027 -0.0596  0.1303 -0.4689
  439SOL    HW1 1316   1.831   0.674   3.065  3.7292  0.8278 -1.6155
  439SOL    HW2 1317   1.810   0.823   0.028 -0.8871 -0.2812  2.9826
  440SOL     OW 1318   0.910   0.975   0.363 -0.0162 -0.1917  0.5323
  440SOL    HW1 1319   0.979   0.939   0.428 -2.8775  0.6147  0.5054
  440SOL    HW2 1320   0.827   0.923   0.391  0.4883  1.8070  2.5287
  441SOL     OW 1321   0.575   2.387   1.763  0.0628  0.0159 -0.6443
  441SOL    HW1 1322   0.636   2.340   1.827 -0.6570  1.5811 -3.2118
  441SOL    HW2 1323   0.540   2.323   1.692  1.3699 -0.4374 -2.1505
  442SOL     OW 1324   2.846   2.111   0.729 -0.1115 -0.3984  0.1439
  442SOL    HW1 1325   2.835   2.208   0.761 -1.3365  0.0198  1.4425
  442SOL    HW2 1326   2.756   2.082   0.700  0.3429  0.4717  0.0852
  443SOL     OW 1327   2.748   1.982   2.699  0.0136 -0.1557 -0.5206
  443SOL    HW1 1328   2.680   1.944   2.637  2.9755  2.4404  1.6142
  443SOL    HW2 1329   2.784   1.905   2.761  0.1854 -3.6945 -0.3008
  444SOL     OW 1330   1.327   1.103   0.167 -0.0799  0.1272  0.3092
  444SOL    HW1 1331   1.284   1.013   0.154 -0.1540  2.3195 -0.0494
  444SOL    HW2 1332   1.290   1.153   0.251 -0.5827  2.0886 -0.9712
  445SOL     OW 1333   2.742   2.729   1.661 -0.7569 -0.8483  0.4041
  445SOL    HW1 1334   2.828   2.774   1.693 -1.0141  0.5882  1.0196
  445SOL    HW2 1335   2.705   2.666   1.730 -0.9972  3.0715 -3.0135
  446SOL     OW 1336   2.739   1.179   0.608 -0.2764  0.1660 -0.3103
  446SOL    HW1 1337   2.693   1.220   0.530  1.0078 -2.8268 -0.1601
  446SOL    HW2 1338   2.833   1.144   0.575  1.9920 -3.3159 -2.8060
  447SOL     OW 1339   0.918   2.366   1.548  0.0866 -0.4323 -0.0247
  447SOL    HW1 1340   0.867   2.453   1.566  0.4092  1.7196 -3.5523
  447SOL    HW2 1341   1.003   2.393   1.495  4.7160  0.2292 -0.2625
  448SOL     OW 1342   1.419   1.473   1.659 -0.5023 -0.2081 -0.2330
  448SOL    HW1 1343   1.422   1.459   1.759  0.5118  1.7382  0.5430
  448SOL    HW2 1344   1.329   1.449   1.619 -2.8383 -2.8263 -2.6810
  449SOL     OW 1345   3.104   2.357   2.397 -0.2381  0.4237  0.6524
  449SOL    HW1 1346   3.032   2.358   2.467 -0.9631  0.7953 -2.0803
  449SOL    HW2 1347   3.074   2.403   2.314 -1.3570  0.9127  0.5645
  450SOL     OW 1348   3.056   1.801   2.113  0.1631 -0.5795  0.8090
  450SOL    HW1 1349   3.057   1.881   2.178 -1.7356  2.7556 -1.6458
  450SOL    HW2 1350   3.112   1.820   2.030 -0.5362  1.6184 -4.6056
  451SOL     OW 1351   2.298   0.640   1.704 -0.0924  0.9053  0.0888
  451SOL    HW1 1352   2.209   0.692   1.691 -1.3424 -0.5116 -1.2052
  451SOL    HW2 1353   2.379   0.697   1.704  0.3089 -0.8636 -0.5497
  452SOL     OW 1354   0.871   1.397   0.911  0.0398  0.6524  0.1354
  452SOL    HW1 1355   0.970   1.384   0.886  1.2198 -0.3002 -1.2681
  452SOL    HW2 1356   0.818   1.440   0.831 -1.0070  0.6964 -1.3805
  453SOL     OW 1357   1.420   2.102   0.902 -0.7441  0.3103 -0.0444
  453SOL    HW1 1358   1.468   2.165   0.966  0.7194 -0.1561  1.1948
  453SOL    HW2 1359   1.425   2.137   0.804  1.4501 -1.4387  2.2231
  454SOL     OW 1360   0.196   1.535   0.226  0.4259  0.0452  0.1919
  454SOL    HW1 1361   0.277   1.505   0.285  0.3819 -1.0513  1.5707
  454SOL    HW2 1362   0.158   1.617   0.272 -1.9539  1.7721  1.6204
  455SOL     OW 1363   0.976   1.233   0.342 -0.5120  0.4299  0.1280
  455SOL    HW1 1364   0.968   1.133   0.359  1.1623  2.7631 -1.6104
  455SOL    HW2 1365   1.076   1.263   0.338 -0.5669 -0.4572 -0.7127
  456SOL     OW 1366   1.753   2.666   0.800 -0.4516  0.8372 -0.1174
  456SOL    HW1 1367   1.803   2.756   0.776  1.9484  3.2808  1.9223
  456SOL    HW2 1368   1.735   2.614   0.719  0.4010  1.6480  1.8349
  457SOL     OW 1369   1.548   2.966   0.085  0.3545  0.5678  0.0948
  457SOL    HW1 1370   1.592   3.051   0.116  1.0692  1.3427 -0.8154
  457SOL    HW2 1371   1.457   2.977   0.038  0.5542 -1.4925  0.4932
  458SOL     OW 1372   2.474   0.598   0.295  0.7459 -0.0682  0.9522
  458SOL    HW1 1373   2.415   0.568   0.375  0.5896 -4.8890 -1.2443
  458SOL    HW2 1374   2.463   0.701   0.286 -1.0253 -0.4891 -1.3189
  459SOL     OW 1375   2.357   0.444   2.305  0.4672 -0.3201  0.1006
  459SOL    HW1 1376   2.293   0.476   2.380 -0.9180  2.0885  0.4115
  459SOL    HW2 1377   2.420   0.524   2.288 -0.3571  0.1784  1.1635
  460SOL     OW 1378   2.704   0.631   2.773 -0.2898 -0.0443 -0.0283
  460SOL    HW1 1379   2.715   0.574   2.859  2.9736  1.6250  0.8188
  460SOL    HW2 1380   2.623   0.688   2.783  0.1637 -0.4523 -0.1262
  461SOL     OW 1381   0.033   2.314   0.795  0.4822  0.0970  0.6665
  461SOL    HW1 1382   0.120   2.292   0.846 -1.8722 -0.5654 -0.2731
  461SOL    HW2 1383   0.044   2.289   0.693  1.3800 -1.6390 -2.1401
  462SOL     OW 1384   2.903   2.694   1.426 -0.2871 -0.1510  0.0910
  462SOL    HW1 1385   2.878   2.709   1.329 -1.7362 -1.1632 -1.4193
  462SOL    HW2 1386   3.001   2.715   1.447 -3.2921 -0.7592  0.7148
  463SOL     OW 1387   2.309   1.778   2.828  0.4217 -0.3591 -0.6583
  463SOL    HW1 1388   2.318   1.846   2.751 -2.0213  2.5460 -2.9378
  463SOL    HW2 1389   2.371   1.703   2.816  1.8853 -0.9738  0.5228
  464SOL     OW 1390   0.775   2.544   1.691  0.1057 -0.0794 -0.6881
  464SOL    HW1 1391   0.697   2.493   1.733 -0.8467 -2.0271 -1.4930
  464SOL    HW2 1392   0.830   2.597   1.759  1.8261  3.2822  3.7651
  465SOL     OW 1393   0.928   3.085   1.674 -0.1355  0.2956  0.2387
  465SOL    HW1 1394   0.998   3.023   1.712 -1.3090  1.0313 -1.8334
  465SOL    HW2 1395   0.915   0.048   1.740  2.1455  1.6565  0.9089
  466SOL     OW 1396   1.600   2.643   1.918  0.6085 -0.4694 -0.1534
  466SOL    HW1 1397   1.684   2.673   1.973 -0.0423 -0.4339  2.2112
  466SOL    HW2 1398   1.523   2.707   1.929 -2.3964 -0.7745  0.2134
  467SOL     OW 1399   0.832   2.101   1.444  0.0381 -0.4022  0.3317
  467SOL    HW1 1400   0.742   2.138   1.409 -4.7365  0.1884 -0.6277
  467SOL    HW2 1401   0.876   2.172   1.504  0.3436 -1.9700  0.5971
  468SOL     OW 1402   2.754   1.574   2.149 -0.4425  0.0398  0.2988
  468SOL    HW1 1403   2.774   1.592   2.051  0.2313 -0.4331  2.5989
  468SOL    HW2 1404   2.735   1.477   2.166 -0.4284  0.2371 -3.0449
  469SOL     OW 1405   0.860   1.893   0.750 -0.6666  0.0332 -0.5320
  469SOL    HW1 1406   0.925   1.946   0.804  0.0021 -0.9061 -0.5682
  469SOL    HW2 1407   0.895   1.800   0.761 -1.4834 -0.6804  2.9276
  470SOL     OW 1408   1.937   1.511   1.988 -0.0354 -0.3308  1.0462
  470SOL    HW1 1409   1.884   1.484   1.907 -2.6622  1.5713 -0.8229
  470SOL    HW2 1410   1.950   1.439   2.057  0.8320  0.0778 -0.7009
  471SOL     OW 1411   0.692   2.461   0.084  0.0452  0.3916 -0.2926
  471SOL    HW1 1412   0.594   2.423   0.097 -0.8403 -2.3259 -0.6492
  471SOL    HW2 1413   0.755   2.418   0.153  0.1160 -1.0915  2.1377
  472SOL     OW 1414   0.012   2.779   1.989 -0.6032  0.3462  0.3464
  472SOL    HW1 1415   0.054   2.699   1.948 -5.7361  2.0142 -0.2867
  472SOL    HW2 1416   0.080   2.849   2.015 -1.6605 -1.4343  2.3286
  473SOL     OW 1417   0.900   2.817   0.117 -0.5041  0.2327  0.4338
  473SOL    HW1 1418   0.888   2.733   0.173  0.6412 -1.5890  0.2325
  473SOL    HW2 1419   0.816   2.847   0.069  3.6703 -1.0545  0.3460
  474SOL     OW 1420   2.739   2.583   0.841 -0.2454  0.2368 -0.0848
  474SOL    HW1 1421   2.652   2.530   0.867 -0.6282 -3.1818 -1.0366
  474SOL    HW2 1422   2.728   2.639   0.757  3.8879 -0.6571  0.6859
  475SOL     OW 1423   2.165   2.942   1.756  0.1179  0.7452 -0.3664
  475SOL    HW1 1424   2.212   2.953   1.667 -0.0843  1.7173  2.4632
  475SOL    HW2 1425   2.114   2.853   1.770  0.9870 -1.4598  0.3454
  476SOL     OW 1426   0.616   1.258   0.674  0.3778  0.1384 -0.2851
  476SOL    HW1 1427   0.558   1.334   0.714 -4.3125  1.0836  3.0359
  476SOL    HW2 1428   0.660   1.214   0.753  0.1371  0.5529 -2.9132
  477SOL     OW 1429   0.402   1.882   0.841  0.3144  0.1712 -0.3186
  477SOL    HW1 1430   0.411   1.981   0.830  1.8816 -2.6146  1.3128
  477SOL    HW2 1431   0.465   1.838   0.777  3.0936 -1.2775  2.5375
  478SOL     OW 1432   0.062   2.726   2.351  0.0174  0.1174 -0.2103
  478SOL    HW1 1433   0.075   2.826   2.356 -2.7069 -0.0837 -0.7930
  478SOL    HW2 1434   0.038   2.693   2.440  1.4271 -1.4007  1.0617
  479SOL     OW 1435   0.248   0.227   1.406  0.3957  0.0303 -0.0421
  479SOL    HW1 1436   0.227   0.258   1.499  0.9964 -4.6544  1.3374
  479SOL    HW2 1437   0.198   0.277   1.332 -0.6457  0.7505 -0.0618
  480SOL     OW 1438   2.870   2.481   3.106 -0.1716  0.2905  0.2758
  480SOL    HW1 1439   2.837   2.388   3.075 -0.1020 -0.9560  0.0420
  480SOL    HW2 1440   2.815   2.503   0.070  0.8809 -4.2346 -1.0658
  481SOL     OW 1441   2.299   2.027   1.685  0.3398 -0.1470 -0.3091
  481SOL    HW1 1442   2.257   1.947   1.737 -3.5802  1.1879 -2.9951
  481SOL    HW2 1443   2.274   2.013   1.589 -1.5773  0.4286 -0.5661
  482SOL     OW 1444   1.780   2.285   2.622  0.0489  0.6252 -0.2956
  482SOL    HW1 1445   1.753   2.190   2.642 -2.2962 -0.1668 -0.2993
  482SOL    HW2 1446   1.827   2.293   2.535 -1.6633 -1.7633  1.0257
  483SOL     OW 1447   0.676   1.808   2.419 -0.4766 -0.2292  0.2406
  483SOL    HW1 1448   0.701   1.719   2.454  1.6888  2.1161  0.4069
  483SOL    HW2 1449   0.707   1.822   2.319 -0.0504  2.5911  1.4774
  484SOL     OW 1450   0.065   0.380   1.239  0.9597  0.0021 -0.4092
  484SOL    HW1 1451   0.053   0.444   1.159  0.8453 -1.1309  0.7435
  484SOL    HW2 1452   3.117   0.404   1.315 -0.0557  0.6919  2.5714
  485SOL     OW 1453   2.107   0.980   0.531 -0.2093  0.2290 -0.4402
  485SOL    HW1 1454   2.109   1.069   0.477  2.1126 -1.0426  0.9261
  485SOL    HW2 1455   2.032   0.980   0.597  1.6823 -1.0015  2.7945
  486SOL     OW 1456   1.445   0.146   2.199  0.5359  0.1271 -0.2660
  486SOL    HW1 1457   1.466   0.184   2.106 -2.1676  0.7263  1.9155
  486SOL    HW2 1458   1.513   0.180   2.264  0.0695 -0.3746  0.8589
  487SOL     OW 1459   0.900   1.833   1.418  0.4661 -0.3769 -0.1435
  487SOL    HW1 1460   0.997   1.825   1.438  0.1771  2.7775 -2.1391
  487SOL    HW2 1461   0.861   1.925   1.405  2.0705 -2.4359  2.4309
  488SOL     OW 1462   2.335   1.396   3.075  0.4479  0.5658 -0.2661
  488SOL    HW1 1463   2.414   1.429   3.022 -1.6700  0.2464 -1.8360
  488SOL    HW2 1464   2.291   1.470   0.015 -0.6374  1.6712  2.0176
  489SOL     OW 1465   2.278   3.045   0.321 -0.0817  0.1421  0.6873
  489SOL    HW1 1466   2.286   3.085   0.415 -0.1023  0.5294 -0.8515
  489SOL    HW2 1467   2.194   3.090   0.283 -2.4227  0.1212  0.0230
  490SOL     OW 1468   1.311   2.579   0.183 -0.5603  0.3105  0.2583
  490SOL    HW1 1469   1.295   2.600   0.087  0.4758  0.3798 -2.4397
  490SOL    HW2 1470   1.381   2.644   0.215 -0.2641  1.2320  1.1783
  491SOL     OW 1471   1.223   1.075   0.857  0.0094  0.2997  0.4658
  491SOL    HW1 1472   1.206   1.114   0.947 -1.2320  0.0916 -1.7865
  491SOL    HW2 1473   1.139   1.045   0.812  1.2217 -1.5012  4.2573
  492SOL     OW 1474   1.335   0.185   2.930 -0.2577 -0.2178 -0.2535
  492SOL    HW1 1475   1.430   0.166   2.891 -0.4747  0.0647 -2.0336
  492SOL    HW2 1476   1.334   0.282   2.962  0.1224 -0.2103 -0.1790
  493SOL     OW 1477   1.803   2.074   0.046  0.3392 -0.0951 -0.6891
  493SOL    HW1 1478   1.857   2.128   0.116 -1.0315 -0.7395 -2.1865
  493SOL    HW2 1479   1.863   2.024   3.099  0.8251  2.2147 -1.8743
  494SOL     OW 1480   0.515   1.254   0.434  0.0483 -0.0315 -0.0940
  494SOL    HW1 1481   0.456   1.342   0.433 -0.7504 -1.6614 -0.2925
  494SOL    HW2 1482   0.576   1.247   0.517  1.1955 -1.1367 -1.2250
  495SOL     OW 1483   3.102   2.615   0.840 -0.3440  0.3280 -0.0192
  495SOL    HW1 1484   0.006   2.519   0.811 -2.5258 -1.3883 -1.8360
  495SOL    HW2 1485   3.009   2.631   0.810 -2.5611 -1.5076 -0.8263
  496SOL     OW 1486   2.829   0.297   1.465 -0.3392  0.1003 -0.3818
  496SOL    HW1 1487   2.788   0.236   1.395 -1.1821  0.5429  0.6561
  496SOL    HW2 1488   2.825   0.249   1.553  1.4202  1.2824  0.6379
  497SOL     OW 1489   2.312   1.332   2.498 -0.4112  0.4209 -0.1326
  497SOL    HW1 1490   2.353   1.334   2.588  0.8241  0.8196 -1.7046
  497SOL    HW2 1491   2.224   1.379   2.495  1.2256 -0.0695 -1.3483
  498SOL     OW 1492   0.733   2.040   1.031  0.2939 -0.6162 -0.1270
  498SOL    HW1 1493   0.648   2.070   0.993 -0.8211  0.2117  2.2863
  498SOL    HW2 1494   0.714   1.987   1.113 -2.9078  3.3715 -1.9492
  499SOL     OW 1495   0.916   2.223   1.767  0.1776  0.4624 -0.3215
  499SOL    HW1 1496   0.883   2.270   1.853 -4.2849 -0.9666  0.7141
  499SOL    HW2 1497   0.902   2.279   1.683  0.5935 -1.1569  3.3525
  500SOL     OW 1498   1.102   2.016   0.171  0.3051 -0.1996  0.0872
  500SOL    HW1 1499   1.108   1.972   0.256 -0.3668 -1.9394 -4.4566
  500SOL    HW2 1500   1.191   2.047   0.134 -1.8343  1.4493 -1.9551
  501SOL     OW 1501   2.681   2.867   1.260 -0.2089 -0.3487  0.6289
  501SOL    HW1 1502   2.612   2.887   1.186 -1.1395  1.3346  1.1281
  501SOL    HW2 1503   2.780   2.884   1.232  1.6378 -0.9448  0.8862
  502SOL     OW 1504   3.081   0.388   1.482 -0.2084 -0.2326 -0.0715
  502SOL    HW1 1505   0.011   0.336   1.555 -2.2049  1.2982 -1.2120
  502SOL    HW2 1506   2.988   0.349   1.465 -2.1282  0.8101  0.7244
  503SOL     OW 1507   2.559   1.043   1.829  0.1228 -0.0620 -0.4971
  503SOL    HW1 1508   2.632   1.046   1.899  4.0047  1.4250 -1.7502
  503SOL    HW2 1509   2.503   1.126   1.827  1.8562 -4.2299  1.4619
  504SOL     OW 1510   1.343   0.614   1.582  0.4882  0.0094  0.1958
  504SOL    HW1 1511   1.435   0.569   1.586 -2.1811  0.9105 -0.4095
  504SOL    HW2 1512   1.363   0.713   1.572 -0.5916 -0.4040  2.4803
  505SOL     OW 1513   0.631   2.898   2.271  0.4153 -0.4505  0.4479
  505SOL    HW1 1514   0.689   2.821   2.296  0.9939  0.5819 -0.7733
  505SOL    HW2 1515   0.658   2.990   2.309  0.3132  1.8472 -0.4040
  506SOL     OW 1516   0.003   0.312   0.866  0.2296  0.5878  0.2047
  506SOL    HW1 1517   0.008   0.334   0.767  0.8542 -1.4326 -0.5590
  506SOL    HW2 1518   0.048   0.222   0.887  0.3628 -2.2029 -1.0973
  507SOL     OW 1519   1.622   0.475   2.826 -0.3894  0.5326 -0.5163
  507SOL    HW1 1520   1.709   0.512   2.863 -0.7456  0.8530  0.3641
  507SOL    HW2 1521   1.611   0.376   2.842 -3.0594  2.5671  2.3870
  508SOL     OW 1522   1.673   0.209   2.372  0.0672 -0.4582  0.7285
  508SOL    HW1 1523   1.632   0.282   2.434  0.7484 -1.4772  0.1912
  508SOL    HW2 1524   1.680   0.119   2.418 -2.7901 -0.9929  0.5452
  509SOL     OW 1525   0.873   1.178   1.995  0.7365 -0.1560  0.2586
  509SOL    HW1 1526   0.934   1.259   1.995  3.5119  1.6033 -2.0258
  509SOL    HW2 1527   0.838   1.155   2.089 -1.2221 -2.7736  1.4445
  510SOL     OW 1528   3.048   1.000   0.805  0.3992  0.0342 -0.5720
  510SOL    HW1 1529   2.979   0.958   0.865  0.6445 -0.2177  1.1193
  510SOL    HW2 1530   3.074   1.095   0.842 -0.4349  2.3380  0.2455
  511SOL     OW 1531   1.884   2.146   1.101 -0.4810  0.2430  0.1780
  511SOL    HW1 1532   1.813   2.176   1.166  0.8155  1.1391  0.3487
  511SOL    HW2 1533   1.969   2.169   1.144 -3.5074  2.1724 -0.1869
  512SOL     OW 1534   0.121   1.701   0.468  0.1717 -0.0200 -0.8054
  512SOL    HW1 1535   0.075   1.607   0.453  0.1708 -0.2735  1.6075
  512SOL    HW2 1536   0.198   1.693   0.541  2.1603  0.3514  1.7599
  513SOL     OW 1537   0.099   2.284   0.496  0.0907 -0.1021 -0.4168
  513SOL    HW1 1538   0.077   2.206   0.434  0.3119 -1.9704  1.1749
  513SOL    HW2 1539   0.099   2.373   0.450  1.2875 -4.1051 -0.4968
  514SOL     OW 1540   2.342   1.938   2.592 -0.1264 -0.0794  0.1262
  514SOL    HW1 1541   2.321   2.035   2.600  0.5997  1.6500  1.2375
  514SOL    HW2 1542   2.277   1.894   2.522 -2.0379  0.3502 -1.6156
  515SOL     OW 1543   2.168   1.232   0.389 -0.1266 -0.0611 -0.1048
  515SOL    HW1 1544   2.186   1.211   0.290  0.1999 -0.3813  0.4306
  515SOL    HW2 1545   2.249   1.280   0.425 -0.1045 -0.6500 -0.0933
  516SOL     OW 1546   1.959   3.102   0.607  0.0389  0.6899 -0.2630
  516SOL    HW1 1547   1.929   0.057   0.671 -0.5376 -1.8180 -0.6227
  516SOL    HW2 1548   2.060   3.105   0.590 -2.9667 -0.4837  0.5215
  517SOL     OW 1549   0.991   2.185   2.844  0.7389  0.0439  0.1647
  517SOL    HW1 1550   0.992   2.206   2.943  2.2828  0.8228 -3.8928
  517SOL    HW2 1551   0.896   2.174   2.811  0.6228 -0.1077  2.1559
  518SOL     OW 1552   0.541   0.544   2.068  0.3475  0.1237 -0.2981
  518SOL    HW1 1553   0.608   0.477   2.107  0.4129  0.6668  0.6158
  518SOL    HW2 1554   0.582   0.623   2.015 -1.5239 -1.1122  1.9052
  519SOL     OW 1555   2.856   1.236   0.240  0.6027  0.3996 -0.0726
  519SOL    HW1 1556   2.936   1.288   0.258 -2.7783 -0.0051  3.4929
  519SOL    HW2 1557   2.878   1.154   0.182 -0.8548  1.8589 -1.2460
  520SOL     OW 1558   2.570   2.141   1.712 -0.1362 -0.3885 -0.1927
  520SOL    HW1 1559   2.469   2.135   1.702  3.1480  0.6931 -0.5798
  520SOL    HW2 1560   2.608   2.234   1.699 -2.9476 -2.9613  0.0668
  521SOL     OW 1561   0.707   2.591   2.071 -0.0323 -0.5107  0.0749
  521SOL    HW1 1562   0.743   2.632   2.157 -1.1449 -2.1265  0.6122
  521SOL    HW2 1563   0.618   2.547   2.093 -1.6033 -0.5148  2.7282
  522SOL     OW 1564   1.789   0.123   2.142 -0.1519  0.1227  0.0692
  522SOL    HW1 1565   1.883   0.090   2.171 -2.6219 -2.1715 -0.5700
  522SOL    HW2 1566   1.745   0.182   2.215 -0.0126  3.0023 -0.3175
  523SOL     OW 1567   1.898   1.904   1.204  0.0531 -0.5713  0.8109
  523SOL    HW1 1568   1.988   1.901   1.254 -0.9736 -2.5663 -0.8352
  523SOL    HW2 1569   1.879   1.993   1.164  1.0092 -1.8044 -0.6790
  524SOL     OW 1570   0.856   2.597   0.527 -0.3412 -0.0617 -0.4571
  524SOL    HW1 1571   0.948   2.563   0.559 -2.1409 -0.0750 -1.8209
  524SOL    HW2 1572   0.784   2.565   0.592  1.2534  0.9391  2.0296
  525SOL     OW 1573   2.791   0.367   0.281 -0.6946  0.1491 -0.2503
  525SOL    HW1 1574   2.741   0.439   0.229  1.0584  1.0314 -1.5292
  525SOL    HW2 1575   2.888   0.365   0.250  1.2589 -0.4817 -1.0351
  526SOL     OW 1576   0.741   0.019   0.512 -0.4096 -0.6281  0.9626
  526SOL    HW1 1577   0.716   3.040   0.509 -1.5445  1.1182  0.2195
  526SOL    HW2 1578   0.712   0.061   0.425  2.4843  1.3248  2.6977
  527SOL     OW 1579   2.566   1.792   0.801 -0.0380 -0.6704  0.0092
  527SOL    HW1 1580   2.642   1.777   0.737 -1.8474  3.1494  0.9891
  527SOL    HW2 1581   2.581   1.866   0.872  0.3829  0.0707  5.2482
  528SOL     OW 1582   2.844   0.517   2.276 -0.0448  0.2852  0.2909
  528SOL    HW1 1583   2.930   0.497   2.328 -2.4102 -0.8995 -0.9525
  528SOL    HW2 1584   2.816   0.447   2.208  1.4756 -1.0650  0.0919
  529SOL     OW 1585   1.136   1.614   2.553 -0.8941 -0.3029  0.3569
  529SOL    HW1 1586   1.219   1.555   2.552 -2.4057  2.0851  0.2544
  529SOL    HW2 1587   1.121   1.667   2.639  1.2270 -2.0485 -2.1401
  530SOL     OW 1588   1.811   1.152   2.373  0.0114  0.6486 -0.4960
  530SOL    HW1 1589   1.788   1.177   2.278  2.0730  0.9034  0.5129
  530SOL    HW2 1590   1.858   1.063   2.387  0.3207 -0.1275  0.2740
  531SOL     OW 1591   0.699   1.915   2.674  0.0685 -0.2601  0.1712
  531SOL    HW1 1592   0.707   1.886   2.578  0.5694 -2.0844 -0.5864
  531SOL    HW2 1593   0.639   1.853   2.737  0.6991 -1.5600  0.9031
  532SOL     OW 1594   1.956   1.389   0.327  0.1723 -0.5380 -0.2510
  532SOL    HW1 1595   2.029   1.322   0.340 -1.0256  1.7390  0.3207
  532SOL    HW2 1596   1.978   1.464   0.387  1.5567 -1.7449 -1.0857
  533SOL     OW 1597   0.349   0.144   1.853 -0.5988  0.0432 -0.7044
  533SOL    HW1 1598   0.440   0.128   1.813 -0.3233  0.1321  3.3995
  533SOL    HW2 1599   0.283   0.071   1.829 -1.9796  1.2309  2.6025
  534SOL     OW 1600   0.485   0.006   2.987  0.2220 -0.5312 -0.2198
  534SOL    HW1 1601   0.433   3.043   2.950 -1.3016  3.2952  2.0876
  534SOL    HW2 1602   0.519   3.106   3.079 -1.2862  1.5639 -3.8048
  535SOL     OW 1603   0.171   0.196   0.449  0.1354 -0.3232 -0.4049
  535SOL    HW1 1604   0.219   0.280   0.408 -1.7091  4.4158 -0.4074
  535SOL    HW2 1605   0.207   0.106   0.416  1.1005 -0.7886 -1.9810
  536SOL     OW 1606   0.411   1.387   1.666 -0.0976 -0.3422  0.6000
  536SOL    HW1 1607   0.367   1.313   1.612  0.7009 -0.0099  0.7997
  536SOL    HW2 1608   0.508   1.398   1.638  1.4691 -1.4299 -1.1784
  537SOL     OW 1609   0.933   2.696   1.846 -0.1150  0.3268 -0.1136
  537SOL    HW1 1610   0.895   2.788   1.866 -3.7240  0.1615  0.4278
  537SOL    HW2 1611   1.035   2.682   1.839  0.0865 -1.3452  0.8118
  538SOL     OW 1612   3.075   1.936   0.463 -0.1924 -0.0486  0.4403
  538SOL    HW1 1613   0.007   1.851   0.490 -0.8638  2.1158 -2.6839
  538SOL    HW2 1614   3.035   1.976   0.545  0.4193 -2.3819 -0.6541
  539SOL     OW 1615   2.646   1.144   2.530  0.0166 -0.0577 -0.0339
  539SOL    HW1 1616   2.694   1.167   2.616  1.3612 -2.2328 -2.0945
  539SOL    HW2 1617   2.598   1.227   2.492 -3.0606 -0.5017 -0.2359
  540SOL     OW 1618   1.743   1.067   1.795  0.2852  0.0922 -0.0992
  540SOL    HW1 1619   1.774   1.051   1.701 -0.8975 -0.7894  1.2467
  540SOL    HW2 1620   1.718   1.165   1.812  1.6367  2.2964 -1.4478
  541SOL     OW 1621   0.801   0.701   1.924 -0.1948  0.3996 -0.0464
  541SOL    HW1 1622   0.757   0.759   1.999 -2.5112 -1.8570  1.0582
  541SOL    HW2 1623   0.829   0.759   1.847  1.3524  1.1086 -0.0390
  542SOL     OW 1624   2.048   0.367   2.979  0.8352  0.4116  0.3389
  542SOL    HW1 1625   2.039   0.437   3.054 -0.6028 -1.3504  2.5658
  542SOL    HW2 1626   2.129   0.387   2.926  0.1068  0.2191  3.6650
  543SOL     OW 1627   0.875   0.083   0.050 -0.2110  0.2591 -0.2715
  543SOL    HW1 1628   0.871   0.161   3.106  1.5368 -0.9093  0.0446
  543SOL    HW2 1629   0.916   0.004   3.113 -0.1090  0.1523 -3.3267
  544SOL     OW 1630   2.893   1.291   1.837  0.1662 -0.2568  0.0537
  544SOL    HW1 1631   2.933   1.328   1.920  0.9904  1.2004 -1.8472
  544SOL    HW2 1632   2.813   1.342   1.809  2.5456  0.3283 -0.2970
  545SOL     OW 1633   1.889   2.374   1.931  0.0895 -0.0007 -0.0791
  545SOL    HW1 1634   1.875   2.275   1.950  0.0798  0.2051 -0.3699
  545SOL    HW2 1635   1.900   2.386   1.832  0.8507 -1.5249 -3.3478
  546SOL     OW 1636   0.171   0.190   2.735 -0.2805 -0.4436  0.6785
  546SOL    HW1 1637   0.178   0.111   2.676  0.6978 -0.5651  2.8873
  546SOL    HW2 1638   0.252   0.206   2.796  0.9522 -0.7053 -0.0173
  547SOL     OW 1639   1.711   1.079   0.885 -0.2718  0.4146 -0.2886
  547SOL    HW1 1640   1.670   1.121   0.804  2.1959  1.6647  0.8106
  547SOL    HW2 1641   1.654   1.024   0.950  0.9641  0.0948  0.1639
  548SOL     OW 1642   1.876   1.868   2.425  0.0344  0.3754  0.3441
  548SOL    HW1 1643   1.923   1.850   2.512 -1.8157 -0.5507  3.0305
  548SOL    HW2 1644   1.942   1.909   2.356 -0.3077 -0.2269 -2.1760
  549SOL     OW 1645   2.154   0.314   0.556  0.3374  0.1239  0.4288
  549SOL    HW1 1646   2.085   0.296   0.624  2.1689 -1.6227 -1.9613
  549SOL    HW2 1647   2.241   0.289   0.600 -0.9066 -0.4574 -4.3007
  550SOL     OW 1648   2.319   1.846   0.708 -0.2753  0.5779 -0.5830
  550SOL    HW1 1649   2.407   1.798   0.731 -0.0009  3.6483 -0.4854
  550SOL    HW2 1650   2.293   1.823   0.614  2.7622  0.9874  2.7551
  551SOL     OW 1651   1.052   2.610   2.117 -0.2933  0.0677  0.3270
  551SOL    HW1 1652   0.985   2.610   2.040 -0.3056 -0.0777 -1.9411
  551SOL    HW2 1653   1.040   2.688   2.182 -1.9798  1.0006  0.1769
  552SOL     OW 1654   0.044   2.394   2.769 -0.1190 -0.5829 -0.0648
  552SOL    HW1 1655   3.116   2.326   2.822  1.5948  4.2116 -2.8643
  552SOL    HW2 1656   0.086   2.358   2.678  0.2052  0.7470 -0.0679
  553SOL     OW 1657   0.112   0.049   0.861  0.0035  0.3698 -0.5769
  553SOL    HW1 1658   0.194   0.036   0.802 -0.6110 -0.5848 -1.9989
  553SOL    HW2 1659   0.118   3.101   0.942  0.6981 -1.6289  0.4047
  554SOL     OW 1660   2.328   2.194   1.900  0.0314 -0.2834 -0.4228
  554SOL    HW1 1661   2.389   2.164   1.972 -2.5807 -0.5417 -0.1236
  554SOL    HW2 1662   2.325   2.124   1.830 -0.8629  4.4381  1.9367
  555SOL     OW 1663   1.569   2.342   1.863  0.0589 -0.0774  0.0597
  555SOL    HW1 1664   1.629   2.367   1.786  0.2209 -2.0628  2.6337
  555SOL    HW2 1665   1.546   2.427   1.906  1.7536 -0.8946  0.5304
  556SOL     OW 1666   1.481   1.742   1.606 -0.3330  0.2437  0.4927
  556SOL    HW1 1667   1.531   1.785   1.686  3.2164 -0.3780  2.0761
  556SOL    HW2 1668   1.424   1.660   1.634 -2.6762 -1.6763 -0.9776
  557SOL     OW 1669   1.901   2.321   2.357 -0.2643  0.2089  0.0108
  557SOL    HW1 1670   1.980   2.272   2.313  1.3518 -0.4820 -2.3691
  557SOL    HW2 1671   1.839   2.372   2.293  0.6329  1.6406 -0.4366
  558SOL     OW 1672   0.250   2.677   1.741 -0.4744  0.1376  0.7268
  558SOL    HW1 1673   0.162   2.708   1.702  1.4121  1.3182  0.8095
  558SOL    HW2 1674   0.329   2.744   1.729  2.9828  1.9918 -1.6432
  559SOL     OW 1675   2.285   2.898   0.693 -0.3211  0.0712  0.5878
  559SOL    HW1 1676   2.282   2.807   0.647 -0.6299  0.9962  1.7831
  559SOL    HW2 1677   2.227   2.904   0.778  1.4432  2.8947 -1.7574
  560SOL     OW 1678   1.798   2.395   0.590  0.4134  0.5515  0.2561
  560SOL    HW1 1679   1.702   2.377   0.616 -0.3375 -1.9198  2.4622
  560SOL    HW2 1680   1.870   2.338   0.637 -1.1925 -1.4541  1.2454
  561SOL     OW 1681   1.075   0.400   0.603  0.1644  0.1472  0.0756
  561SOL    HW1 1682   1.037   0.452   0.521 -3.4596  4.8809 -1.5151
  561SOL    HW2 1683   1.039   0.304   0.596  0.3643  0.8431  1.7970
  562SOL     OW 1684   0.726   0.735   2.638  0.4366  0.0648  0.0817
  562SOL    HW1 1685   0.698   0.638   2.666  0.1419 -3.4128 -0.9382
  562SOL    HW2 1686   0.710   0.754   2.542 -0.9869 -0.7417  2.1462
  563SOL     OW 1687   1.742   1.669   2.800 -0.2186 -0.1561 -0.1788
  563SOL    HW1 1688   1.691   1.736   2.853  1.5094 -0.8723  1.1738
  563SOL    HW2 1689   1.842   1.690   2.795 -1.3415 -0.0741 -0.4295
  564SOL     OW 1690   2.488   0.957   1.338 -0.0431  0.2918 -0.6001
  564SOL    HW1 1691   2.495   0.989   1.433 -0.7555 -1.6759 -1.9700
  564SOL    HW2 1692   2.584   0.948   1.302  3.0682 -0.9557 -0.8503
  565SOL     OW 1693   0.899   0.680   2.949  0.1328 -0.2239  0.1294
  565SOL    HW1 1694   0.932   0.680   3.043 -0.4622  1.0753 -1.7439
  565SOL    HW2 1695   0.801   0.712   2.939 -0.4870  0.8092 -1.9322
  566SOL     OW 1696   1.953   0.415   2.521  0.1127 -0.3159  0.0843
  566SOL    HW1 1697   1.935   0.393   2.424 -0.4498 -1.1556 -0.3960
  566SOL    HW2 1698   1.945   0.333   2.583  1.3177 -1.9195  2.7882
  567SOL     OW 1699   2.246   1.819   0.455  0.7699 -0.0808  0.3060
  567SOL    HW1 1700   2.293   1.751   0.396  0.9641 -2.5907  1.6143
  567SOL    HW2 1701   2.212   1.898   0.400 -0.5926  0.1106  0.4672
  568SOL     OW 1702   1.698   1.854   0.162 -0.1846 -0.4399 -0.2999
  568SOL    HW1 1703   1.748   1.931   0.123 -1.2220  1.7238  1.1704
  568SOL    HW2 1704   1.598   1.871   0.150  2.6492 -1.1039 -0.2597
  569SOL     OW 1705   2.023   1.065   0.005 -0.3189 -0.2292 -0.7698
  569SOL    HW1 1706   1.983   1.145   3.075  0.7850  0.4104  3.1248
  569SOL    HW2 1707   2.092   1.105   0.067 -0.4992  0.5984  0.1079
  570SOL     OW 1708   0.333   2.449   1.880 -0.3502 -0.2836  0.3662
  570SOL    HW1 1709   0.313   2.540   1.831  0.2383  2.2294 -1.3820
  570SOL    HW2 1710   0.423   2.420   1.848 -2.4976 -0.8764  0.1180
  571SOL     OW 1711   0.425   0.981   2.081  0.1230  0.1422  0.1352
  571SOL    HW1 1712   0.491   1.049   2.040  0.6139 -3.0686 -0.7638
  571SOL    HW2 1713   0.363   1.017   2.156 -3.2027  0.7329  0.1773
  572SOL     OW 1714   1.111   1.503   0.601  0.2043 -0.1196  0.2878
  572SOL    HW1 1715   1.028   1.446   0.613 -3.2267 -0.4888  1.8770
  572SOL    HW2 1716   1.150   1.495   0.508 -3.5430 -1.0571  3.3440
  573SOL     OW 1717   1.574   2.135   3.015  0.3542 -0.2768  0.0146
  573SOL    HW1 1718   1.486   2.123   3.061 -0.7760 -0.2015  0.2013
  573SOL    HW2 1719   1.657   2.108   3.068 -0.8739 -0.1042 -1.4982
  574SOL     OW 1720   1.000   3.074   0.949  0.4453  0.4924 -0.2559
  574SOL    HW1 1721   0.971   2.988   1.001 -0.7500 -2.0823  0.5188
  574SOL    HW2 1722   0.919   0.021   0.947 -2.9570 -0.5698  0.7794
  575SOL     OW 1723   0.424   1.069   1.506 -0.3860  0.2638 -0.1406
  575SOL    HW1 1724   0.424   1.067   1.608  1.5214 -0.6967 -0.2965
  575SOL    HW2 1725   0.493   1.133   1.463  0.0666  2.3425  0.9519
  576SOL     OW 1726   2.431   2.890   1.107 -0.2778 -0.0257  0.4445
  576SOL    HW1 1727   2.416   2.933   1.196  1.2543 -2.5543  1.3943
  576SOL    HW2 1728   2.370   2.921   1.033 -2.3008  0.3108 -3.7095
  577SOL     OW 1729   1.094   1.037   2.270 -0.2230  0.2486 -0.1548
  577SOL    HW1 1730   1.166   1.020   2.200 -0.3609 -0.5928 -1.5388
  577SOL    HW2 1731   1.103   0.970   2.350 -1.0646 -2.8802 -0.2497
  578SOL     OW 1732   1.929   0.855   2.392 -0.0838  0.0138 -0.2241
  578SOL    HW1 1733   1.958   0.805   2.307 -0.6950 -2.4111 -0.9866
  578SOL    HW2 1734   1.839   0.820   2.424 -0.0741  1.5815 -3.0754
  579SOL     OW 1735   2.263   2.548   1.716 -0.3297 -0.2232 -0.1888
  579SOL    HW1 1736   2.188   2.514   1.655 -1.4302  0.7196 -0.3967
  579SOL    HW2 1737   2.358   2.524   1.679  1.4371  1.1611 -2.4867
  580SOL     OW 1738   1.677   1.682   2.408  0.1361 -0.3928  0.4246
  580SOL    HW1 1739   1.772   1.720   2.407  1.6170 -0.9061  0.9491
  580SOL    HW2 1740   1.658   1.616   2.479 -0.8157  2.0710 -2.0811
  581SOL     OW 1741   1.359   1.427   2.555 -0.3018 -0.0051 -0.1112
  581SOL    HW1 1742   1.453   1.452   2.577 -0.2703 -3.3925  0.2838
  581SOL    HW2 1743   1.330   1.347   2.613 -1.4989  1.2866  1.1897
  582SOL     OW 1744   0.806   1.503   1.892  0.6192  0.6209 -0.1504
  582SOL    HW1 1745   0.748   1.464   1.818 -2.2311  2.3314 -2.7501
  582SOL    HW2 1746   0.849   1.586   1.858  0.6827 -1.5285 -0.2081
  583SOL     OW 1747   1.626   0.849   1.564  0.1425 -0.2361  0.1095
  583SOL    HW1 1748   1.613   0.801   1.475 -2.3055 -1.2844  0.0646
  583SOL    HW2 1749   1.537   0.890   1.591 -0.8240  4.1217 -0.8422
  584SOL     OW 1750   1.957   2.615   0.483  0.2106 -0.2599 -0.4564
  584SOL    HW1 1751   1.919   2.535   0.532  2.5283  2.3271  2.6948
  584SOL    HW2 1752   1.937   2.616   0.385 -2.3428 -0.3144 -0.6999
  585SOL     OW 1753   1.741   2.909   2.887  1.1152 -0.1713  0.1209
  585SOL    HW1 1754   1.755   2.936   2.790  1.4052 -1.0803  3.4751
  585SOL    HW2 1755   1.827   2.925   2.936 -0.6876  0.8354 -1.8585
  586SOL     OW 1756   3.024   2.177   1.292 -0.0744  0.3664 -0.1594
  586SOL    HW1 1757   3.000   2.103   1.360 -0.2128 -2.4521 -2.4058
  586SOL    HW2 1758   2.973   2.154   1.204  2.6741 -1.3057  0.0066
  587SOL     OW 1759   1.436   1.899   0.069  0.3299  0.2452  0.6330
  587SOL    HW1 1760   1.385   1.987   0.061  0.1403  0.9358  1.3081
  587SOL    HW2 1761   1.384   1.822   0.016 -0.4147 -3.2005 -2.0468
  588SOL     OW 1762   0.379   0.307   1.030  0.1288  0.2429  0.0537
  588SOL    HW1 1763   0.446   0.229   1.038  0.7156 -1.6191 -2.8797
  588SOL    HW2 1764   0.290   0.269   1.002 -1.0972 -1.8200 -0.5152
  589SOL     OW 1765   0.973   0.490   0.355  0.4950 -0.4591 -0.2469
  589SOL    HW1 1766   0.886   0.534   0.321 -0.3909  4.2116 -2.5404
  589SOL    HW2 1767   1.000   0.410   0.299 -2.6430  0.2074 -0.1408
  590SOL     OW 1768   1.572   0.752   2.818  0.7289  0.1900 -0.5564
  590SOL    HW1 1769   1.472   0.758   2.791  0.9515  0.0818 -1.7559
  590SOL    HW2 1770   1.595   0.656   2.803 -2.1040  0.8280  2.4373
  591SOL     OW 1771   2.794   2.168   1.946 -0.3335  0.1610  0.4291
  591SOL    HW1 1772   2.884   2.118   1.965  1.1814 -0.8452 -2.8520
  591SOL    HW2 1773   2.791   2.196   1.846 -0.8653  1.4730  0.2296
  592SOL     OW 1774   2.683   1.449   1.809  0.4818 -0.6884 -0.0919
  592SOL    HW1 1775   2.624   1.373   1.785  1.8428  0.4637  1.4711
  592SOL    HW2 1776   2.624   1.530   1.821 -5.1844 -0.8101  1.0201
  593SOL     OW 1777   1.191   1.028   1.432 -0.2629  0.4278  0.4974
  593SOL    HW1 1778   1.246   1.065   1.354  0.3951  0.4121  0.1380
  593SOL    HW2 1779   1.130   0.952   1.409  0.0436  3.7798 -0.2142
  594SOL     OW 1780   2.616   1.428   3.026  0.0267 -0.0131 -0.5827
  594SOL    HW1 1781   2.635   1.482   3.105 -1.8744 -1.3369 -1.8113
  594SOL    HW2 1782   2.649   1.332   3.032 -2.1352 -1.7753  1.4624
  595SOL     OW 1783   0.529   0.769   0.704  0.7687 -0.1752  0.3611
  595SOL    HW1 1784   0.462   0.844   0.731 -0.3323 -0.7313 -0.9703
  595SOL    HW2 1785   0.558   0.714   0.786  1.0251 -0.6936 -0.8311
  596SOL     OW 1786   0.166   1.315   1.145  0.3782  0.0263  0.6593
  596SOL    HW1 1787   0.140   1.323   1.243 -1.2698  2.7022  1.8768
  596SOL    HW2 1788   0.269   1.327   1.136  3.5077  2.0307  2.2973
  597SOL     OW 1789   1.353   1.778   0.887 -0.3665 -0.1299  0.0212
  597SOL    HW1 1790   1.322   1.694   0.934  0.7452  1.1785  0.4070
  597SOL    HW2 1791   1.273   1.833   0.859  0.4542  3.7033  1.0398
  598SOL     OW 1792   0.476   2.815   1.659 -0.2799 -0.6193 -0.7212
  598SOL    HW1 1793   0.568   2.859   1.681  3.9363 -0.3182  1.0650
  598SOL    HW2 1794   0.479   2.761   1.570 -1.0770  1.0034 -2.4413
  599SOL     OW 1795   0.177   1.763   2.971 -0.1329 -0.6023  1.0649
  599SOL    HW1 1796   0.145   1.714   2.886 -0.4964  0.5395  1.0122
  599SOL    HW2 1797   0.250   1.831   2.950 -1.0304 -1.5964  0.2790
  600SOL     OW 1798   0.143   1.085   3.002  0.5143  0.8072 -0.1224
  600SOL    HW1 1799   0.118   1.173   2.954 -0.1350  1.0925  0.4634
  600SOL    HW2 1800   0.064   1.021   2.987 -3.2775  1.8668  0.5756
  601SOL     OW 1801   0.564   0.751   1.203  0.9766  0.2711 -0.0431
  601SOL    HW1 1802   0.529   0.830   1.263  0.5557 -0.4673  4.2284
  601SOL    HW2 1803   0.485   0.701   1.170  0.4915  2.1915  2.1989
  602SOL     OW 1804   1.013   0.152   0.535  0.5502 -0.6422 -0.3933
  602SOL    HW1 1805   1.062   0.069   0.499  0.3589  0.0545  0.3763
  602SOL    HW2 1806   0.921   0.119   0.567 -0.6320 -1.5460  0.6378
  603SOL     OW 1807   1.585   2.306   2.223 -0.1798  0.4533 -0.0566
  603SOL    HW1 1808   1.621   2.211   2.208  2.0335 -0.4030 -0.1764
  603SOL    HW2 1809   1.658   2.379   2.204 -1.0039  0.2202  0.0414
  604SOL     OW 1810   0.354   2.916   2.885 -0.0816  0.1825 -0.5023
  604SOL    HW1 1811   0.256   2.898   2.912 -1.5690 -0.6913  0.9614
  604SOL    HW2 1812   0.373   2.890   2.787  0.5383 -0.2196 -0.2054
  605SOL     OW 1813   2.681   1.069   1.538  0.5535  0.3031  0.5398
  605SOL    HW1 1814   2.754   1.080   1.608 -1.7232 -3.9269  1.5854
  605SOL    HW2 1815   2.654   1.147   1.481 -1.7173 -0.9550 -1.6084
  606SOL     OW 1816   0.876   1.765   2.911  0.2446 -0.0346 -0.4976
  606SOL    HW1 1817   0.886   1.661   2.919  0.5410 -1.9807  0.1715
  606SOL    HW2 1818   0.779   1.792   2.931  1.6936 -0.9253  0.9482
  607SOL     OW 1819   0.622   0.473   0.605 -0.3615 -0.3410 -0.6458
  607SOL    HW1 1820   0.558   0.535   0.553  0.3487 -0.8155  0.0892
  607SOL    HW2 1821   0.698   0.531   0.636 -2.0927  0.7370 -1.2480
  608SOL     OW 1822   2.917   1.785   1.415  0.6934 -0.3738 -0.4797
  608SOL    HW1 1823   2.921   1.870   1.472 -2.3216 -1.1780 -1.3859
  608SOL    HW2 1824   2.945   1.703   1.462  1.8723  1.8639 -2.0223
  609SOL     OW 1825   2.637   0.304   0.917  0.1266  0.2492  0.0446
  609SOL    HW1 1826   2.635   0.212   0.957 -1.4414  1.2567 -2.0142
  609SOL    HW2 1827   2.541   0.330   0.888 -2.0273  1.8270 -0.6553
  610SOL     OW 1828   0.254   2.571   1.378 -0.2032 -0.5195  0.3105
  610SOL    HW1 1829   0.238   2.532   1.470  1.5091  1.1929 -0.2253
  610SOL    HW2 1830   0.253   2.504   1.297  3.0276  1.6952 -1.0181
  611SOL     OW 1831   1.405   1.664   0.250 -0.3133  0.0288 -0.1727
  611SOL    HW1 1832   1.449   1.625   0.334  5.1354 -0.4021 -0.8974
  611SOL    HW2 1833   1.395   1.770   0.261  1.4784  0.5942  0.4514
  612SOL     OW 1834   0.783   2.880   1.971 -0.5764  0.1702  0.1938
  612SOL    HW1 1835   0.737   2.794   2.001 -3.8156  0.2954 -0.0901
  612SOL    HW2 1836   0.727   2.958   1.999 -0.2029 -0.0437 -1.8119
  613SOL     OW 1837   0.336   2.524   0.904  0.1886 -0.7609  0.0325
  613SOL    HW1 1838   0.308   2.463   0.829 -3.6419  2.6526  0.2143
  613SOL    HW2 1839   0.437   2.541   0.901 -0.8928  0.1860  0.8535
  614SOL     OW 1840   2.056   0.095   2.196  0.0808 -0.3691 -0.1499
  614SOL    HW1 1841   2.091   0.191   2.192 -0.3469 -1.2044  0.6054
  614SOL    HW2 1842   2.081   0.055   2.107 -0.2924  2.7880  1.9279
  615SOL     OW 1843   1.206   1.501   0.326  0.2590  0.3881  0.6051
  615SOL    HW1 1844   1.119   1.530   0.285 -0.0172 -2.2485  1.0533
  615SOL    HW2 1845   1.284   1.559   0.290  2.2703  0.2889  2.2263
  616SOL     OW 1846   1.537   1.529   0.430 -0.5998  0.0769 -0.1951
  616SOL    HW1 1847   1.605   1.455   0.410 -0.4215 -1.7122  1.1070
  616SOL    HW2 1848   1.534   1.550   0.532 -0.5383 -0.2422  4.7228
  617SOL     OW 1849   1.234   1.220   2.659  0.1276 -0.3570 -0.4282
  617SOL    HW1 1850   1.143   1.226   2.608  0.9247  5.2867 -3.8809
  617SOL    HW2 1851   1.271   1.129   2.650  0.4324 -0.2555 -1.7699
  618SOL     OW 1852   0.785   0.135   2.073  0.1969  0.2098  0.5346
  618SOL    HW1 1853   0.847   0.068   2.110  2.5222  2.8691  1.9785
  618SOL    HW2 1854   0.783   0.223   2.132 -0.4961  0.6819 -0.4656
  619SOL     OW 1855   0.106   1.381   1.438 -0.5061 -0.3044 -0.1501
  619SOL    HW1 1856   0.103   1.471   1.480 -0.3164 -0.6174 -1.7874
  619SOL    HW2 1857   0.202   1.348   1.440 -1.1042 -0.6427  1.2432
  620SOL     OW 1858   2.387   0.421   2.652  0.0720  0.0362 -0.0636
  620SOL    HW1 1859   2.478   0.447   2.615 -4.5337  2.5687 -0.4942
  620SOL    HW2 1860   2.315   0.447   2.588 -0.6261  1.9937  1.6855
  621SOL     OW 1861   2.073   2.293   2.719 -0.3677  0.1341 -0.2645
  621SOL    HW1 1862   2.156   2.352   2.726 -0.8104 -0.1067  1.1771
  621SOL    HW2 1863   1.992   2.348   2.688 -1.6476  1.9874  2.1911
  622SOL     OW 1864   1.048   0.855   2.796  0.1649  0.2682  0.1123
  622SOL    HW1 1865   0.993   0.785   2.852 -2.8654 -2.2865  1.1856
  622SOL    HW2 1866   1.046   0.946   2.853  2.8116  0.0947  0.2771
  623SOL     OW 1867   0.840   1.132   2.269 -0.1017  0.2866  0.1683
  623SOL    HW1 1868   0.936   1.105   2.267 -1.3195  1.4299 -1.0629
  623SOL    HW2 1869   0.800   1.119   2.364 -0.3524  2.5512  2.0052
  624SOL     OW 1870   2.879   0.359   0.545 -0.4036  0.1584 -0.0972
  624SOL    HW1 1871   2.848   0.355   0.452  0.4816 -0.2297  2.3075
  624SOL    HW2 1872   2.816   0.421   0.600 -0.2055 -0.8362 -0.8627
  625SOL     OW 1873   0.661   2.483   0.699  0.7641  0.2080 -0.3618
  625SOL    HW1 1874   0.636   2.564   0.759  0.0927 -2.0345  0.8590
  625SOL    HW2 1875   0.714   2.411   0.753 -1.2226 -1.4706  1.2569
  626SOL     OW 1876   2.150   0.904   2.549 -0.1335 -0.1210  0.0300
  626SOL    HW1 1877   2.131   0.916   2.647 -1.2386 -0.9556  1.5354
  626SOL    HW2 1878   2.056   0.897   2.498 -1.9495  0.0898 -1.8687
  627SOL     OW 1879   1.447   2.203   2.758  0.6388  0.7214  0.6082
  627SOL    HW1 1880   1.488   2.229   2.669 -0.9353 -1.2403 -1.6804
  627SOL    HW2 1881   1.509   2.158   2.825 -2.7459 -1.3932  0.6290
  628SOL     OW 1882   2.681   2.801   2.227 -0.1488  0.1132  0.7904
  628SOL    HW1 1883   2.648   2.894   2.205  2.1149 -1.9984 -0.2773
  628SOL    HW2 1884   2.640   2.761   2.310  1.8203  1.7615  0.8950
  629SOL     OW 1885   1.305   2.788   2.729 -0.1950  0.4829  0.0317
  629SOL    HW1 1886   1.330   2.739   2.643 -1.9382 -2.7648 -1.4114
  629SOL    HW2 1887   1.389   2.791   2.795  1.5378 -2.6140  2.4787
  630SOL     OW 1888   1.007   0.123   2.487  0.5219 -0.0065 -0.3232
  630SOL    HW1 1889   0.996   0.222   2.478 -0.3829 -0.1427  1.1727
  630SOL    HW2 1890   1.061   0.087   2.408  1.4256 -0.9856  0.0491
  631SOL     OW 1891   1.948   1.183   0.790 -0.3406 -0.1043  0.0910
  631SOL    HW1 1892   2.014   1.135   0.858  3.7609  0.2323  2.0639
  631SOL    HW2 1893   1.849   1.161   0.804  0.1718 -1.3026  1.6838
  632SOL     OW 1894   2.558   0.263   1.970 -0.4020  0.1333  0.0755
  632SOL    HW1 1895   2.542   0.328   1.894 -0.8906 -1.1179  2.6892
  632SOL    HW2 1896   2.641   0.293   2.024  2.0244  0.8879  5.3726
  633SOL     OW 1897   0.999   1.591   0.191  0.1839 -0.3241 -0.6734
  633SOL    HW1 1898   0.990   1.643   0.103 -1.3164 -1.9263  0.2517
  633SOL    HW2 1899   0.938   1.514   0.199 -0.2342  0.5312 -0.7251
  634SOL     OW 1900   2.943   3.042   1.617 -0.3179  0.0386 -0.2644
  634SOL    HW1 1901   2.946   0.012   1.669  1.7011  0.5850  1.7820
  634SOL    HW2 1902   2.864   3.040   1.553 -1.0475 -2.3350  0.3834
  635SOL     OW 1903   1.560   0.186   1.090 -0.0002  0.1026  0.4182
  635SOL    HW1 1904   1.574   0.284   1.076  0.7383 -1.5702 -0.4779
  635SOL    HW2 1905   1.460   0.164   1.095  2.5993 -1.2221 -0.6804
  636SOL     OW 1906   0.661   1.156   0.056 -0.0330  0.1329  0.2258
  636SOL    HW1 1907   0.590   1.177   0.127  0.5634  0.5447  1.6449
  636SOL    HW2 1908   0.628   1.171   3.082 -0.0354 -0.0232  0.3142
  637SOL     OW 1909   2.767   2.238   3.105  0.3429 -0.4136  0.3988
  637SOL    HW1 1910   2.728   2.190   3.028 -1.6773 -0.1170  0.8502
  637SOL    HW2 1911   2.848   2.195   0.029 -1.6237  4.4491 -4.3970
  638SOL     OW 1912   1.438   2.665   2.511  0.5775 -0.1850  0.0276
  638SOL    HW1 1913   1.473   2.710   2.427  1.9811 -2.2103 -2.0074
  638SOL    HW2 1914   1.506   2.595   2.542 -2.3679  1.1435  1.4258
  639SOL     OW 1915   1.614   1.866   0.800  0.3482  0.1170  0.2577
  639SOL    HW1 1916   1.520   1.845   0.830 -0.4879 -2.8652  1.0696
  639SOL    HW2 1917   1.619   1.873   0.700  0.1035  0.0283 -3.0082
  640SOL     OW 1918   2.390   2.584   0.398  0.1217 -0.1811 -0.0062
  640SOL    HW1 1919   2.383   2.523   0.323  1.6252  2.8163  0.7850
  640SOL    HW2 1920   2.443   2.665   0.370 -0.7101  0.7580  0.9121
  641SOL     OW 1921   2.715   0.488   3.014  0.1128  0.0561  0.0387
  641SOL    HW1 1922   2.699   0.552   3.096 -0.6333  2.3614  0.2466
  641SOL    HW2 1923   2.657   0.403   3.020 -2.0747  0.2008 -1.0093
  642SOL     OW 1924   0.371   0.557   1.106  0.4046  0.2819 -0.2069
  642SOL    HW1 1925   0.321   0.549   1.197 -0.2617  0.3215 -1.7194
  642SOL    HW2 1926   0.397   0.462   1.073  1.4563 -2.5852  2.9532
  643SOL     OW 1927   0.717   1.546   2.514  0.2013  0.0370 -0.3928
  643SOL    HW1 1928   0.790   1.489   2.560 -0.9098 -1.4861 -3.7885
  643SOL    HW2 1929   0.681   1.489   2.437  0.0274 -0.0242  0.3039
  644SOL     OW 1930   1.974   2.223   0.702 -0.0957  0.2929 -0.0599
  644SOL    HW1 1931   2.041   2.153   0.663 -2.4697 -1.0113 -1.4698
  644SOL    HW2 1932   1.899   2.171   0.756 -2.3263  0.5829 -0.9389
  645SOL     OW 1933   1.558   2.416   0.723 -0.0140  0.3828  0.0013
  645SOL    HW1 1934   1.609   2.372   0.805 -0.4383  1.3162  1.9484
  645SOL    HW2 1935   1.506   2.502   0.753 -0.7832 -0.4467 -0.8602
  646SOL     OW 1936   0.587   2.340   2.898 -0.4718  0.4809 -0.4869
  646SOL    HW1 1937   0.505   2.380   2.850  0.8863  1.0591 -0.9561
  646SOL    HW2 1938   0.633   2.414   2.946  0.6092 -3.4919 -0.1883
  647SOL     OW 1939   1.329   2.820   1.300  0.2278 -0.4005  0.1955
  647SOL    HW1 1940   1.252   2.761   1.278  3.0531  1.5797  2.1358
  647SOL    HW2 1941   1.388   2.840   1.223 -2.2749 -0.3114  1.3749
  648SOL     OW 1942   1.295   0.151   1.067 -0.2382 -0.0669 -0.1131
  648SOL    HW1 1943   1.235   0.124   1.147 -0.4830  1.0739  0.1598
  648SOL    HW2 1944   1.243   0.149   0.980  0.8640 -0.6540  2.9343
  649SOL     OW 1945   1.310   2.166   0.360 -0.5058 -0.0965  0.2473
  649SOL    HW1 1946   1.235   2.234   0.338  2.6738  1.2500  1.0948
  649SOL    HW2 1947   1.401   2.201   0.320  1.8355 -0.7952  2.5007
  650SOL     OW 1948   2.465   1.623   1.538 -0.0368 -0.4019  0.3538
  650SOL    HW1 1949   2.512   1.648   1.619 -0.2052  0.9292 -1.0507
  650SOL    HW2 1950   2.375   1.667   1.538 -0.5135 -0.1556  0.9047
  651SOL     OW 1951   1.687   2.734   0.155  0.0121  0.5235 -0.0623
  651SOL    HW1 1952   1.631   2.815   0.148  0.2951 -2.4589  1.0769
  651SOL    HW2 1953   1.684   2.686   0.065 -1.8439  3.5867  2.9712
  652SOL     OW 1954   2.964   1.897   0.210 -0.0647  0.2891  0.6911
  652SOL    HW1 1955   2.876   1.888   0.257 -1.9587  3.3662 -0.2002
  652SOL    HW2 1956   3.038   1.914   0.280 -2.3276 -1.5318 -2.3589
  653SOL     OW 1957   2.927   2.880   0.910  0.3100 -0.1487 -0.4738
  653SOL    HW1 1958   3.021   2.895   0.868  1.0463  1.1304 -0.0749
  653SOL    HW2 1959   2.859   2.866   0.833  0.1425  0.6094  0.0815
  654SOL     OW 1960   3.065   2.797   1.724 -0.0916  0.2762  0.1597
  654SOL    HW1 1961   3.087   2.821   1.821 -0.5940 -1.2587 -1.5048
  654SOL    HW2 1962   3.029   2.879   1.675  2.0890 -0.7472  1.4391
  655SOL     OW 1963   0.217   2.124   0.916 -0.1301 -0.2491 -0.2437
  655SOL    HW1 1964   0.156   2.075   0.982 -0.6921  1.1449 -1.7055
  655SOL    HW2 1965   0.222   2.070   0.825 -0.2793 -0.5138 -2.0007
  656SOL     OW 1966   3.084   3.100   2.237  0.4672  0.2428  0.1457
  656SOL    HW1 1967   3.019   0.041   2.183 -2.5775  1.6310 -2.6343
  656SOL    HW2 1968   3.057   3.101   2.338 -4.9494 -2.9241  0.3192
  657SOL     OW 1969   2.874   1.526   2.734 -0.1533  0.3074  0.6222
  657SOL    HW1 1970   2.957   1.575   2.704  0.4129  1.4980  1.4058
  657SOL    HW2 1971   2.893   1.439   2.787  0.0004 -3.1680  0.8036
  658SOL     OW 1972   2.727   1.606   1.170  0.2381 -0.5798  1.0806
  658SOL    HW1 1973   2.723   1.694   1.205  2.3636 -1.6928 -1.5872
  658SOL    HW2 1974   2.650   1.545   1.189  3.2459  0.0861 -4.6105
  659SOL     OW 1975   1.431   3.078   0.499  0.0590 -0.0667 -0.6054
  659SOL    HW1 1976   1.510   3.021   0.467 -0.3799  0.5710 -0.3412
  659SOL    HW2 1977   1.451   0.058   0.515  1.4183 -2.9791 -1.3561
  660SOL     OW 1978   1.690   1.439   2.937  0.5438 -0.8499 -0.3762
  660SOL    HW1 1979   1.648   1.497   3.012 -0.6197 -0.9420 -2.8493
  660SOL    HW2 1980   1.713   1.501   2.862 -1.1200 -0.1376  0.6146
  661SOL     OW 1981   0.342   2.254   1.246  0.1799  0.2144  0.5066
  661SOL    HW1 1982   0.332   2.333   1.180  0.9935  2.9307  0.1740
  661SOL    HW2 1983   0.260   2.253   1.307 -1.6777  2.9611 -1.3371
  662SOL     OW 1984   3.052   0.759   0.109  0.1095  0.4403 -0.7637
  662SOL    HW1 1985   3.019   0.668   0.075 -0.8648 -2.3080 -0.0629
  662SOL    HW2 1986   0.034   0.766   0.084  3.6464  1.6618  0.5238
  663SOL     OW 1987   1.985   1.557   0.992 -0.6245 -0.0996 -0.0064
  663SOL    HW1 1988   1.983   1.500   0.908 -2.7168  3.0735  1.2964
  663SOL    HW2 1989   1.906   1.614   0.999  3.5760 -0.1741 -0.8282
  664SOL     OW 1990   1.107   1.443   1.333 -0.5220 -0.2538  0.2987
  664SOL    HW1 1991   1.189   1.419   1.276  0.9912 -0.5671  1.7200
  664SOL    HW2 1992   1.122   1.544   1.362  1.5800  1.1717  0.6569
  665SOL     OW 1993   1.985   2.596   2.377  0.4639 -0.3845 -0.0872
  665SOL    HW1 1994   1.987   2.497   2.378 -0.3108 -0.3943 -1.2716
  665SOL    HW2 1995   2.013   2.634   2.288  1.0070 -0.9115  1.1886
  666SOL     OW 1996   2.979   3.038   2.973 -0.6115 -0.6898  0.2101
  666SOL    HW1 1997   2.904   3.014   3.036 -1.8744 -2.7026  0.5774
  666SOL    HW2 1998   2.946   3.097   2.898 -1.3544  0.2817 -0.8502
  667SOL     OW 1999   2.421   1.307   2.034 -0.7614  0.3621  0.0882
  667SOL    HW1 2000   2.344   1.238   2.042  0.1179 -1.8328 -1.9815
  667SOL    HW2 2001   2.430   1.345   1.941 -1.4530 -2.8114  2.2393
  668SOL     OW 2002   0.420   0.997   2.523 -0.0979  0.1122  0.4408
  668SOL    HW1 2003   0.438   1.063   2.593 -1.5939 -3.0860 -1.1366
  668SOL    HW2 2004   0.363   1.027   2.448  0.6453  0.0321  1.5690
  669SOL     OW 2005   2.446   2.231   2.308 -0.1037 -0.0451 -0.5587
  669SOL    HW1 2006   2.547   2.231   2.292  0.6840 -2.0784 -0.5131
  669SOL    HW2 2007   2.416   2.207   2.402 -2.0199  1.0434  1.7370
  670SOL     OW 2008   2.469   1.308   1.715 -0.0471 -0.7071 -0.2437
  670SOL    HW1 2009   2.529   1.269   1.640  1.8959 -1.4677  2.0046
  670SOL    HW2 2010   2.392   1.359   1.673 -1.6562  2.7862 -1.3169
  671SOL     OW 2011   2.512   1.080   0.444 -0.2587 -0.0049  0.5320
  671SOL    HW1 2012   2.564   1.136   0.377 -0.7936  0.9139  0.7861
  671SOL    HW2 2013   2.455   1.147   0.500  0.2925  1.7058  0.8726
  672SOL     OW 2014   2.438   0.884   2.293 -0.0410 -0.0346  0.2847
  672SOL    HW1 2015   2.374   0.853   2.215 -1.9641 -1.6473 -1.3001
  672SOL    HW2 2016   2.397   0.959   2.349  0.5045  0.8709  1.2524
  673SOL     OW 2017   2.813   0.161   1.748  0.0423 -0.0698 -0.6840
  673SOL    HW1 2018   2.903   0.210   1.776  2.2660  2.5461 -1.6805
  673SOL    HW2 2019   2.727   0.193   1.797  0.9477  1.5713 -1.8258
  674SOL     OW 2020   1.818   1.751   1.458 -0.0311  0.1804 -0.3500
  674SOL    HW1 2021   1.821   1.806   1.371  2.8684 -1.3466  2.5293
  674SOL    HW2 2022   1.758   1.791   1.532  0.6576 -1.1446  0.9841
  675SOL     OW 2023   0.824   0.626   0.676  0.0918 -0.7354 -0.0063
  675SOL    HW1 2024   0.782   0.677   0.750  1.6209 -0.9418 -0.5519
  675SOL    HW2 2025   0.920   0.599   0.704  1.7965 -1.2715  2.2840
  676SOL     OW 2026   1.603   0.967   1.111 -0.2364 -0.7713  0.2367
  676SOL    HW1 2027   1.514   0.923   1.107  2.5048  1.2994  1.4189
  676SOL    HW2 2028   1.666   0.927   1.180 -2.9839 -1.2592  1.3877
  677SOL     OW 2029   2.668   1.312   2.182  0.7367  0.0825  0.4309
  677SOL    HW1 2030   2.720   1.227   2.148  1.4174 -1.7963  0.1301
  677SOL    HW2 2031   2.578   1.312   2.139  3.8925  0.5325  1.6874
  678SOL     OW 2032   2.881   1.585   0.944 -0.2389 -0.5562  0.0995
  678SOL    HW1 2033   2.827   1.520   0.891  0.4925 -0.7285 -2.7004
  678SOL    HW2 2034   2.825   1.616   1.025 -4.5551  1.6628  0.5631
  679SOL     OW 2035   2.328   2.487   0.150  0.3147  0.3262 -0.0674
  679SOL    HW1 2036   2.255   2.555   0.140 -0.1785 -3.4233 -0.6134
  679SOL    HW2 2037   2.396   2.492   0.073  0.2408  2.1154  0.7171
  680SOL     OW 2038   3.057   2.165   2.018  0.0842  0.7450 -0.1848
  680SOL    HW1 2039   3.061   2.142   2.116 -0.0715 -0.4183 -2.3666
  680SOL    HW2 2040   0.034   2.198   1.992  2.1981  1.5698  2.9948
  681SOL     OW 2041   0.601   1.235   1.404  0.4044  0.1806 -0.2971
  681SOL    HW1 2042   0.631   1.192   1.316  2.4342  0.0257  2.6628
  681SOL    HW2 2043   0.669   1.284   1.456  0.3445 -0.8067  1.2084
  682SOL     OW 2044   1.359   2.617   0.790  1.0459  0.3879  0.4931
  682SOL    HW1 2045   1.400   2.699   0.741 -0.2499  1.6696 -0.7759
  682SOL    HW2 2046   1.258   2.638   0.802 -0.5113 -1.8937  0.9402
  683SOL     OW 2047   2.392   1.318   0.555  0.3126 -0.2874  0.0470
  683SOL    HW1 2048   2.336   1.343   0.639 -2.4922 -3.2294  0.9518
  683SOL    HW2 2049   2.456   1.395   0.530 -0.0395  0.9048  0.1324
  684SOL     OW 2050   0.591   1.987   2.023  0.4422 -0.3108  0.2244
  684SOL    HW1 2051   0.597   2.061   2.090  0.2043 -0.5764 -0.6106
  684SOL    HW2 2052   0.492   1.978   1.997 -0.9121  1.0802  2.0018
  685SOL     OW 2053   2.075   1.651   3.004 -0.0910  0.5683 -0.2930
  685SOL    HW1 2054   2.176   1.666   3.027 -0.4235 -1.4077  0.4335
  685SOL    HW2 2055   2.026   1.586   3.072  0.8706 -0.5017  5.5690
  686SOL     OW 2056   0.198   0.694   0.975 -0.0393  0.3233 -0.4627
  686SOL    HW1 2057   0.191   0.768   1.044  0.5379 -2.4601 -1.1856
  686SOL    HW2 2058   0.279   0.639   0.990 -0.9503  1.4695 -1.5387
  687SOL     OW 2059   1.076   2.443   2.753 -0.2053 -0.5946 -0.1682
  687SOL    HW1 2060   1.041   2.351   2.756  1.0544  4.1669 -0.6805
  687SOL    HW2 2061   1.164   2.451   2.693  3.1927  2.5367 -2.1075
  688SOL     OW 2062   2.522   1.667   1.829 -0.5284 -0.4337  0.9254
  688SOL    HW1 2063   2.578   1.753   1.832 -2.6432 -2.8009  1.4668
  688SOL    HW2 2064   2.450   1.656   1.898  2.6994  0.4034  0.5089
  689SOL     OW 2065   2.283   0.715   2.098 -0.2227  0.5180 -0.7009
  689SOL    HW1 2066   2.365   0.663   2.063  3.7844 -0.1219 -0.8079
  689SOL    HW2 2067   2.243   0.775   2.026 -2.9009 -2.1385 -0.6232
  690SOL     OW 2068   2.122   0.932   1.427 -0.3764 -0.2252 -0.4923
  690SOL    HW1 2069   2.052   0.957   1.355 -3.2347  1.1369 -1.7202
  690SOL    HW2 2070   2.183   1.013   1.440  3.4448  0.8112  0.9613
  691SOL     OW 2071   0.750   2.019   1.788 -0.1043  0.2140  0.3521
  691SOL    HW1 2072   0.715   2.024   1.882  1.7259 -5.5152 -0.8333
  691SOL    HW2 2073   0.807   2.101   1.767  0.1777 -0.2761 -2.0435
  692SOL     OW 2074   1.931   3.065   1.346 -0.1884 -0.6623 -0.2752
  692SOL    HW1 2075   1.950   0.021   1.415  1.1563  0.6884 -0.7587
  692SOL    HW2 2076   1.907   3.105   1.255  0.1230 -1.3242  0.0824
  693SOL     OW 2077   0.724   1.166   2.534 -0.3875  0.0616 -0.2430
  693SOL    HW1 2078   0.721   1.091   2.608  0.4489 -1.5683  1.6635
  693SOL    HW2 2079   0.645   1.230   2.534  1.1827 -2.5617  0.9078
  694SOL     OW 2080   2.046   2.804   1.046  0.3142 -0.8797 -0.1260
  694SOL    HW1 2081   2.019   2.709   1.036 -0.6518  1.7781 -0.7672
  694SOL    HW2 2082   1.961   2.864   1.040  0.5951  0.8307 -0.2537
  695SOL     OW 2083   1.446   1.416   1.918 -0.2399  0.1425  0.0363
  695SOL    HW1 2084   1.374   1.342   1.936 -0.6322 -2.3922 -4.0463
  695SOL    HW2 2085   1.440   1.487   1.987  0.8190 -0.3573  0.2860
  696SOL     OW 2086   1.732   3.057   0.810  0.3422  0.4491 -0.5458
  696SOL    HW1 2087   1.640   3.103   0.819 -0.8920  2.0862 -0.3851
  696SOL    HW2 2088   1.772   3.080   0.721  0.4647  0.8554 -0.5305
  697SOL     OW 2089   1.143   0.161   0.828 -0.1647  0.3810  0.1730
  697SOL    HW1 2090   1.078   0.086   0.823  1.0774  2.1481 -3.0760
  697SOL    HW2 2091   1.092   0.246   0.813  0.1979  2.4131 -1.8361
  698SOL     OW 2092   1.739   1.226   2.100  0.6291 -0.5793  0.2992
  698SOL    HW1 2093   1.728   1.251   2.002 -2.3120 -1.9556  1.8553
  698SOL    HW2 2094   1.648   1.226   2.150 -0.7887 -0.8541  1.1084
  699SOL     OW 2095   1.324   1.359   1.198 -0.3120 -0.9023  0.1962
  699SOL    HW1 2096   1.315   1.260   1.186 -2.3925  0.1660  0.4028
  699SOL    HW2 2097   1.413   1.379   1.246  2.8656 -2.6887 -0.3869
  700SOL     OW 2098   1.454   0.290   0.279 -0.0289 -0.4064 -0.3610
  700SOL    HW1 2099   1.393   0.219   0.227 -2.1589 -1.5428 -1.5219
  700SOL    HW2 2100   1.430   0.299   0.383 -0.5013  0.1824  0.9772
  701SOL     OW 2101   0.564   0.114   1.695 -0.2958 -0.2647  0.1378
  701SOL    HW1 2102   0.530   0.133   1.604  0.1482 -3.1787  2.7775
  701SOL    HW2 2103   0.595   0.019   1.696  1.1771  0.7727  0.6221
  702SOL     OW 2104   1.154   3.024   0.452  0.0987  0.0933 -0.1056
  702SOL    HW1 2105   1.250   3.021   0.483  1.4534 -0.2937  0.2007
  702SOL    HW2 2106   1.155   2.991   0.356  2.3051  0.9032  2.7310
  703SOL     OW 2107   2.680   3.097   2.263 -0.1639 -0.3370 -0.1705
  703SOL    HW1 2108   2.648   3.077   2.358  1.4011 -0.6454  2.6955
  703SOL    HW2 2109   2.616   0.053   2.231 -2.2864 -1.6542 -1.2379
  704SOL     OW 2110   0.829   2.334   0.893 -0.7793  0.1336 -0.0846
  704SOL    HW1 2111   0.805   2.261   0.964 -0.2890 -0.6577 -0.4094
  704SOL    HW2 2112   0.869   2.414   0.944  0.5083  1.6025  2.4022
  705SOL     OW 2113   0.070   0.904   2.316  0.2171  0.2912  0.0107
  705SOL    HW1 2114   0.123   0.825   2.349 -0.3672 -0.0584  0.7178
  705SOL    HW2 2115   3.092   0.907   2.349  0.1982  1.4995 -3.4188
  706SOL     OW 2116   1.646   0.098   0.207 -0.3836 -0.2680 -0.5066
  706SOL    HW1 2117   1.689   0.048   0.279  0.1663  0.0289  1.7878
  706SOL    HW2 2118   1.595   0.176   0.240  0.9758 -2.9592 -0.0497
  707SOL     OW 2119   1.366   2.022   2.397 -0.1534  0.3564 -0.6004
  707SOL    HW1 2120   1.280   2.036   2.452  0.6403 -1.6220  1.2900
  707SOL    HW2 2121   1.330   2.025   2.304 -1.2830 -0.2748  0.9235
  708SOL     OW 2122   2.923   2.034   1.501 -0.0817 -0.0110 -0.4994
  708SOL    HW1 2123   2.827   2.059   1.511 -2.2401 -2.0821  1.0072
  708SOL    HW2 2124   2.984   2.070   1.570  1.0759 -0.2628 -0.3650
  709SOL     OW 2125   2.166   0.410   1.627 -0.0505  0.3081 -0.2802
  709SOL    HW1 2126   2.140   0.366   1.717 -3.0117 -0.8026 -0.3867
  709SOL    HW2 2127   2.218   0.494   1.651 -1.4435  2.6633  1.1267
  710SOL     OW 2128   2.947   2.829   1.173  0.3636 -0.2471  0.1392
  710SOL    HW1 2129   3.019   2.888   1.214 -3.2878 -1.7827  0.0598
  710SOL    HW2 2130   2.943   2.844   1.071  2.4256  1.3248 -2.2959
  711SOL     OW 2131   0.307   2.376   0.655  0.0481 -0.4448  0.5633
  711SOL    HW1 2132   0.394   2.381   0.595  2.6052 -2.5912 -1.6642
  711SOL    HW2 2133   0.233   2.354   0.591  0.5613  1.4198  1.5651
  712SOL     OW 2134   0.528   2.234   2.448  0.4006  0.0696 -0.0952
  712SOL    HW1 2135   0.493   2.326   2.472 -0.2733  2.0511 -0.3406
  712SOL    HW2 2136   0.614   2.205   2.496 -0.5934  2.0119  1.4272
  713SOL     OW 2137   2.040   0.547   0.049  0.1567 -0.2609 -0.0067
  713SOL    HW1 2138   1.995   0.485   0.120 -0.7684 -0.7703  2.6231
  713SOL    HW2 2139   1.982   0.632   0.039  3.4834 -0.3697  2.0721
  714SOL     OW 2140   1.338   1.896   0.369  0.2733  0.0911  0.3269
  714SOL    HW1 2141   1.298   1.849   0.452 -1.6313 -1.1570  1.6934
  714SOL    HW2 2142   1.342   1.997   0.372  0.1082  2.9862  2.6812
  715SOL     OW 2143   2.237   0.008   0.577 -0.1135  0.2796 -0.4119
  715SOL    HW1 2144   2.295   0.071   0.630  1.5922  2.5611  0.2008
  715SOL    HW2 2145   2.240   3.032   0.621  0.8992  2.2490  0.0911
  716SOL     OW 2146   0.672   0.853   2.100  0.1972  0.0525 -0.0117
  716SOL    HW1 2147   0.675   0.865   2.203  0.6605  0.1533  0.2412
  716SOL    HW2 2148   0.584   0.893   2.065 -0.4951  0.4398  1.1259
  717SOL     OW 2149   0.049   0.595   2.889 -0.3934  0.5992  0.0511
  717SOL    HW1 2150   0.037   0.684   2.847  0.8507 -0.1114  3.4828
  717SOL    HW2 2151   3.099   0.569   2.960  3.0606  1.1896 -4.4390
  718SOL     OW 2152   1.258   0.807   0.188  0.0554  0.0576 -0.4961
  718SOL    HW1 2153   1.349   0.774   0.159  0.6886 -1.8486  0.2160
  718SOL    HW2 2154   1.227   0.760   0.273 -1.9342 -0.0630  1.0483
  719SOL     OW 2155   2.648   2.071   2.930  0.4729 -0.4551 -0.2253
  719SOL    HW1 2156   2.639   1.998   2.999 -0.0023 -0.6431  1.9100
  719SOL    HW2 2157   2.677   2.032   2.837 -1.1622 -0.0705 -2.0102
  720SOL     OW 2158   1.344   0.875   1.083  0.1978  0.0947 -0.2037
  720SOL    HW1 2159   1.345   0.838   0.990  0.8862  0.4275 -1.4977
  720SOL    HW2 2160   1.248   0.897   1.108 -0.7811 -0.4306  0.4266
  721SOL     OW 2161   2.727   0.566   0.631 -0.0361  0.3865 -0.0208
  721SOL    HW1 2162   2.626   0.588   0.639 -1.3488 -1.7724  1.2843
  721SOL    HW2 2163   2.765   0.582   0.723 -1.0798 -0.1446  1.3363
  722SOL     OW 2164   1.105   1.791   2.766  0.2583  0.1938 -0.4115
  722SOL    HW1 2165   1.093   1.881   2.723  1.7727 -0.0308  1.7012
  722SOL    HW2 2166   1.019   1.766   2.815  1.4836 -1.3199  2.3599
  723SOL     OW 2167   0.457   0.989   0.402  0.0342  0.3457  0.5494
  723SOL    HW1 2168   0.497   1.079   0.407  1.2921 -0.4127 -0.5932
  723SOL    HW2 2169   0.367   0.988   0.452 -0.2839 -0.7140  1.5336
  724SOL     OW 2170   0.900   1.774   1.807 -0.5967 -0.2163  0.3243
  724SOL    HW1 2171   0.992   1.782   1.858  1.0400  0.0032 -1.1205
  724SOL    HW2 2172   0.863   1.868   1.792  1.2063 -1.3624 -2.5935
  725SOL     OW 2173   0.153   1.003   1.421  0.1966 -0.0537  0.3200
  725SOL    HW1 2174   0.226   0.987   1.490  2.2390  0.8431  0.0745
  725SOL    HW2 2175   0.075   1.060   1.453  0.9330  0.1274  0.2345
  726SOL     OW 2176   1.767   3.065   0.402 -0.1564  0.2185  1.0037
  726SOL    HW1 2177   1.726   2.980   0.437 -0.0938 -0.3517  0.5947
  726SOL    HW2 2178   1.845   3.095   0.460 -0.1798 -0.4107  0.3121
  727SOL     OW 2179   1.396   0.839   2.334  0.5304  0.5328 -0.1370
  727SOL    HW1 2180   1.384   0.739   2.350 -0.9482  0.3299  0.2068
  727SOL    HW2 2181   1.374   0.859   2.240  2.3334  1.0196  0.0873
  728SOL     OW 2182   1.486   2.439   1.318  0.3733  0.2024  0.2707
  728SOL    HW1 2183   1.412   2.505   1.293  0.0043  0.1084  0.7709
  728SOL    HW2 2184   1.578   2.478   1.317  3.7148  0.7551  0.7144
  729SOL     OW 2185   1.498   0.445   1.314 -0.4951 -0.4227 -0.0723
  729SOL    HW1 2186   1.527   0.353   1.357 -2.4112 -1.3881  0.0544
  729SOL    HW2 2187   1.544   0.444   1.221  3.6519 -0.8795 -2.6622
  730SOL     OW 2188   0.778   1.842   2.157  0.0488  0.3789 -0.5289
  730SOL    HW1 2189   0.869   1.890   2.158 -0.7188  0.7747 -0.0886
  730SOL    HW2 2190   0.708   1.895   2.104  2.5572 -1.3727 -0.1238
  731SOL     OW 2191   0.317   0.431   0.368 -0.6580 -0.0455  0.3692
  731SOL    HW1 2192   0.373   0.518   0.381 -2.2567  1.6225  1.6366
  731SOL    HW2 2193   0.226   0.461   0.340  0.6506  2.5274  2.5109
  732SOL     OW 2194   0.513   0.485   2.954 -0.0488  0.0797  0.1027
  732SOL    HW1 2195   0.581   0.468   3.027 -4.2958  0.5508  1.0510
  732SOL    HW2 2196   0.427   0.494   3.006 -0.9402  2.9874 -0.3230
  733SOL     OW 2197   1.575   2.080   1.437 -0.5030  0.1199 -0.1276
  733SOL    HW1 2198   1.529   2.023   1.371  1.7024  5.0560 -1.3024
  733SOL    HW2 2199   1.511   2.114   1.513  0.4917  4.2877 -0.4651
  734SOL     OW 2200   3.091   2.660   2.650  0.3111 -0.2216 -0.0038
  734SOL    HW1 2201   3.096   2.581   2.716 -0.7790 -1.0444 -1.3392
  734SOL    HW2 2202   2.995   2.673   2.619 -1.4448  4.3109 -1.4198
  735SOL     OW 2203   0.770   2.864   0.816 -0.0097  0.6001 -0.1005
  735SOL    HW1 2204   0.812   2.856   0.910 -0.7424 -1.0135  1.1936
  735SOL    HW2 2205   0.838   2.859   0.740  0.7530  0.6943 -3.7852
  736SOL     OW 2206   1.601   1.140   2.699 -0.1985 -0.0632  0.0483
  736SOL    HW1 2207   1.517   1.124   2.642 -0.3013  0.3796  0.4407
  736SOL    HW2 2208   1.576   1.133   2.794  0.3123 -2.2905 -2.0146
  737SOL     OW 2209   0.034   0.393   0.607 -0.6541  0.3459 -0.4984
  737SOL    HW1 2210   0.089   0.328   0.549 -0.0042  1.0469 -0.8772
  737SOL    HW2 2211   3.056   0.406   0.576  2.3373  1.1312  0.1947
  738SOL     OW 2212   2.781   2.343   1.201 -0.7261  0.1338 -0.1030
  738SOL    HW1 2213   2.707   2.308   1.143  2.1705  1.6860 -1.3241
  738SOL    HW2 2214   2.805   2.436   1.162  0.7235  0.1658  0.8829
  739SOL     OW 2215   1.641   2.844   0.531 -0.6516  0.4417  0.7421
  739SOL    HW1 2216   1.571   2.851   0.604  0.1095 -0.9207 -0.5853
  739SOL    HW2 2217   1.736   2.861   0.564 -1.8835 -0.0208 -2.5392
  740SOL     OW 2218   1.540   3.049   1.182 -0.3955 -0.4800  0.0688
  740SOL    HW1 2219   1.520   2.977   1.111  0.6468  1.4681 -1.7216
  740SOL    HW2 2220   1.562   0.024   1.134 -0.2749  0.4362 -2.5767
  741SOL     OW 2221   2.395   0.237   0.657  0.3555 -0.6542 -0.1675
  741SOL    HW1 2222   2.470   0.176   0.633 -1.3626  1.5833 -2.3048
  741SOL    HW2 2223   2.426   0.318   0.710  1.2484 -1.6869  1.2058
  742SOL     OW 2224   1.385   2.252   2.061  0.0083 -0.2499  0.7625
  742SOL    HW1 2225   1.457   2.279   2.129 -0.4361 -0.1221 -0.0887
  742SOL    HW2 2226   1.422   2.268   1.970 -0.8546 -3.3414 -0.0185
  743SOL     OW 2227   2.495   0.402   1.758  0.0817 -0.6846 -0.2709
  743SOL    HW1 2228   2.424   0.469   1.784 -0.4445  0.2934 -0.7873
  743SOL    HW2 2229   2.541   0.445   1.685 -2.2943 -2.7705  3.6939
  744SOL     OW 2230   2.282   0.348   1.136 -0.1463 -0.1837 -0.2754
  744SOL    HW1 2231   2.258   0.404   1.056 -1.6384  0.7182  0.3515
  744SOL    HW2 2232   2.313   0.404   1.218 -2.1611 -1.5726  0.7179
  745SOL     OW 2233   2.215   1.389   1.610 -0.0317 -0.5224 -0.1538
  745SOL    HW1 2234   2.213   1.425   1.703 -2.0022 -0.8795 -0.0287
  745SOL    HW2 2235   2.155   1.441   1.548  1.3600 -2.5153 -0.7516
  746SOL     OW 2236   1.153   1.411   0.857 -0.0310 -0.2062  0.3704
  746SOL    HW1 2237   1.227   1.459   0.905  0.4436 -1.0802 -0.5361
  746SOL    HW2 2238   1.128   1.460   0.770 -0.5834  2.1014  1.4541
  747SOL     OW 2239   1.769   1.297   1.072 -0.4825 -0.2635  0.2687
  747SOL    HW1 2240   1.760   1.212   1.017 -2.8027  0.9243  1.4103
  747SOL    HW2 2241   1.861   1.341   1.066  0.0445 -0.5569  2.3924
  748SOL     OW 2242   3.020   0.066   0.449 -0.1704 -0.0312  0.9166
  748SOL    HW1 2243   3.027   0.010   0.536  1.7768  0.0246 -0.8413
  748SOL    HW2 2244   0.001   0.111   0.429  0.1930  0.7740 -1.6540
  749SOL     OW 2245   0.082   0.485   1.983  0.7534  0.6108 -0.0251
  749SOL    HW1 2246   0.160   0.485   1.920 -1.5299 -0.6746  1.3688
  749SOL    HW2 2247   0.077   0.573   2.034  1.8854  2.3249  1.6317
  750SOL     OW 2248   1.807   3.052   1.709  0.0154 -0.1513 -0.1702
  750SOL    HW1 2249   1.881   3.098   1.663 -2.8665 -2.7063  1.7840
  750SOL    HW2 2250   1.803   2.954   1.684  0.1800  2.3064  1.4461
  751SOL     OW 2251   2.814   0.170   0.740 -0.4725  0.1787  0.1693
  751SOL    HW1 2252   2.864   0.237   0.684 -1.0583  1.0148 -3.6784
  751SOL    HW2 2253   2.748   0.216   0.799  0.3979 -1.8000  0.5983
  752SOL     OW 2254   0.420   2.817   0.965  0.1925  0.9284  0.5868
  752SOL    HW1 2255   0.482   2.736   0.939  3.4161 -4.5029 -0.3777
  752SOL    HW2 2256   0.329   2.808   0.912  1.3485 -0.2176 -0.9734
  753SOL     OW 2257   1.134   0.450   1.975 -0.2014 -0.3351  0.2001
  753SOL    HW1 2258   1.066   0.445   1.900  0.2571 -0.8716  2.3507
  753SOL    HW2 2259   1.226   0.484   1.942 -1.5511  2.6243 -1.4770
  754SOL     OW 2260   1.134   2.953   1.805 -0.7569 -0.0917  0.1941
  754SOL    HW1 2261   1.199   3.000   1.744  1.6777 -2.0910 -1.3219
  754SOL    HW2 2262   1.188   2.891   1.864 -1.8078 -1.7811  0.0478
  755SOL     OW 2263   2.624   0.944   0.731 -0.6953  0.1016  0.3754
  755SOL    HW1 2264   2.631   0.995   0.820 -0.0858 -0.5491  1.0322
  755SOL    HW2 2265   2.673   0.988   0.655  1.7825  1.1677  2.0148
  756SOL     OW 2266   1.984   2.019   2.758  0.3964 -0.2219  0.5038
  756SOL    HW1 2267   1.883   2.026   2.751  1.2680 -0.4866 -2.3896
  756SOL    HW2 2268   2.027   2.098   2.706 -2.2955  2.7372 -3.6253
  757SOL     OW 2269   1.796   2.892   1.021 -0.2213 -0.6713 -0.1898
  757SOL    HW1 2270   1.764   2.959   0.948 -0.3429 -0.7322  1.3785
  757SOL    HW2 2271   1.732   2.814   1.025 -3.0229 -0.5717 -0.8094
  758SOL     OW 2272   1.104   2.703   0.815 -0.5452 -0.7119 -0.5881
  758SOL    HW1 2273   1.041   2.644   0.871  1.5397 -0.7975 -2.6093
  758SOL    HW2 2274   1.061   2.712   0.726 -0.0635 -0.7841  1.5377
  759SOL     OW 2275   2.927   0.564   1.210 -0.0010  0.4480 -0.1695
  759SOL    HW1 2276   2.990   0.536   1.139  0.6236 -0.5714  0.1736
  759SOL    HW2 2277   2.834   0.543   1.188  0.0703 -0.0157 -1.9797
  760SOL     OW 2278   2.239   1.163   1.452 -0.0131 -0.3829 -0.3488
  760SOL    HW1 2279   2.301   1.156   1.373 -1.5662  1.1567  0.8722
  760SOL    HW2 2280   2.268   1.239   1.513 -0.0183 -0.0261  2.0270
  761SOL     OW 2281   0.678   0.972   0.939  0.1322  0.1765 -0.4934
  761SOL    HW1 2282   0.594   0.979   0.878  1.4206 -0.6918 -2.9108
  761SOL    HW2 2283   0.721   0.878   0.933  0.2764  0.1874 -1.3548
  762SOL     OW 2284   2.136   1.838   1.335  0.4566 -0.7168 -0.2816
  762SOL    HW1 2285   2.162   1.780   1.257 -0.0516  0.2067  2.2119
  762SOL    HW2 2286   2.174   1.796   1.419  2.0528 -1.1043 -1.2158
  763SOL     OW 2287   1.163   1.697   1.908 -0.2208 -0.0232  0.7678
  763SOL    HW1 2288   1.157   1.661   2.008  3.1838  1.4806  0.0814
  763SOL    HW2 2289   1.239   1.769   1.897  0.3866  1.4023  1.3642
  764SOL     OW 2290   3.106   2.039   2.257 -0.2436  0.1100 -0.0880
  764SOL    HW1 2291   3.053   2.099   2.319  0.2331  1.6898  0.6722
  764SOL    HW2 2292   0.091   2.057   2.256  3.2231 -0.2802 -2.9406
  765SOL     OW 2293   1.151   2.585   1.225  0.1698  0.1828 -0.0646
  765SOL    HW1 2294   1.105   2.627   1.309 -1.7783 -1.4636  0.8013
  765SOL    HW2 2295   1.170   2.489   1.249 -0.9509  0.6178  2.2882
  766SOL     OW 2296   0.777   2.418   2.577 -0.1061  0.6500 -0.1054
  766SOL    HW1 2297   0.782   2.329   2.624  0.4342  0.8641 -1.1811
  766SOL    HW2 2298   0.780   2.491   2.642  2.6239  1.1976 -1.0348
  767SOL     OW 2299   1.402   0.999   2.597  0.0966 -0.0653  0.1065
  767SOL    HW1 2300   1.376   0.918   2.659 -0.5736  1.7873 -0.1221
  767SOL    HW2 2301   1.400   0.973   2.499  0.8257  0.2201  2.6956
  768SOL     OW 2302   1.315   2.648   3.035 -0.6752 -0.5215 -0.2777
  768SOL    HW1 2303   1.400   2.704   3.029  0.3186  0.8407  0.7921
  768SOL    HW2 2304   1.308   2.575   2.957 -2.2002 -2.8883 -3.0729
  769SOL     OW 2305   0.055   2.768   1.343 -0.0436 -0.4061  0.2025
  769SOL    HW1 2306   0.030   2.728   1.252  0.4050  0.0679 -0.2990
  769SOL    HW2 2307   0.135   2.717   1.378  1.5760  2.0242  1.7614
  770SOL     OW 2308   1.089   0.521   2.786 -0.5683 -0.5048 -0.4511
  770SOL    HW1 2309   1.017   0.454   2.768  0.8353 -0.7895 -1.1610
  770SOL    HW2 2310   1.049   0.586   2.849  0.9420 -1.0291 -1.1122
  771SOL     OW 2311   0.584   0.216   2.444 -0.8841 -0.1961 -0.2345
  771SOL    HW1 2312   0.499   0.178   2.403 -0.2745  1.6573  0.6347
  771SOL    HW2 2313   0.577   0.301   2.503  0.5639  1.6353 -2.3041
  772SOL     OW 2314   2.442   0.015   1.941  0.0109 -0.6498 -0.0637
  772SOL    HW1 2315   2.478   0.110   1.957  2.4903  0.6338  0.6534
  772SOL    HW2 2316   2.517   3.065   1.943 -1.7025 -1.7487 -0.7879
  773SOL     OW 2317   0.751   2.316   1.968  0.0230  0.0257 -0.1635
  773SOL    HW1 2318   0.756   2.416   1.996 -0.0249  1.4155  2.4155
  773SOL    HW2 2319   0.738   2.252   2.048  2.2228 -4.4547  2.5089
  774SOL     OW 2320   1.155   0.428   2.235  0.2880  0.9362  0.6043
  774SOL    HW1 2321   1.182   0.326   2.257 -1.0789 -1.4789  3.7129
  774SOL    HW2 2322   1.166   0.440   2.132 -0.5612 -0.7471 -0.2646
  775SOL     OW 2323   2.197   2.957   2.796 -0.7316  0.1055  0.2090
  775SOL    HW1 2324   2.127   2.985   2.866  0.9717 -3.0683 -2.6649
  775SOL    HW2 2325   2.210   3.017   2.716 -1.4546 -1.2178  0.1726
  776SOL     OW 2326   1.887   0.480   2.273 -1.1021  0.7919 -0.2392
  776SOL    HW1 2327   1.939   0.563   2.241  0.9386  0.7652  0.0443
  776SOL    HW2 2328   1.785   0.495   2.280  0.0311 -1.5360 -3.5186
  777SOL     OW 2329   2.456   0.977   2.631  0.0240 -0.3965  0.0897
  777SOL    HW1 2330   2.516   1.058   2.601  1.4271  2.1370  0.4241
  777SOL    HW2 2331   2.389   0.945   2.560  0.3677  1.1581  1.7542
  778SOL     OW 2332   2.001   0.682   2.177  0.7340  0.0252  0.1877
  778SOL    HW1 2333   2.101   0.698   2.160 -1.9381 -0.8422  0.6909
  778SOL    HW2 2334   1.946   0.683   2.095 -0.4223 -1.0431  1.6699
  779SOL     OW 2335   3.051   0.386   0.182  0.0755 -0.0639 -0.0546
  779SOL    HW1 2336   3.110   0.455   0.229 -0.9892 -1.2376 -0.2239
  779SOL    HW2 2337   3.107   0.306   0.157 -0.7420 -0.8929 -1.4318
  780SOL     OW 2338   2.302   0.482   2.892 -0.2558 -0.4485 -0.4893
  780SOL    HW1 2339   2.341   0.456   2.797  1.3881 -0.0811  0.1798
  780SOL    HW2 2340   2.307   0.582   2.912  0.4239  0.6738  2.5654
  781SOL     OW 2341   0.463   2.729   1.385  0.3358 -0.4317  0.3521
  781SOL    HW1 2342   0.459   2.809   1.319 -1.2514  3.8545 -1.4569
  781SOL    HW2 2343   0.388   2.659   1.368 -1.4684 -2.2679  0.7910
  782SOL     OW 2344   1.795   2.360   0.332 -0.2495  0.2732  0.2200
  782SOL    HW1 2345   1.759   2.359   0.430  3.0805  2.0580  2.2539
  782SOL    HW2 2346   1.837   2.450   0.307  1.2640 -0.8461  0.6635
  783SOL     OW 2347   0.690   1.403   1.626 -0.1781 -0.9780 -0.0472
  783SOL    HW1 2348   0.698   1.463   1.545  3.3060  0.7873  0.7103
  783SOL    HW2 2349   0.750   1.324   1.620 -1.9222  3.6278 -0.6865
  784SOL     OW 2350   1.494   0.896   1.907  0.1019 -0.1657 -0.0426
  784SOL    HW1 2351   1.576   0.935   1.865  0.2286  0.9028  1.3749
  784SOL    HW2 2352   1.509   0.812   1.958  2.2467  0.1817  0.1294
  785SOL     OW 2353   2.556   0.040   1.073 -0.4315 -0.4151  0.0547
  785SOL    HW1 2354   2.462   0.053   1.111 -0.1338  1.1125  2.8369
  785SOL    HW2 2355   2.549   3.077   1.009 -1.6844  2.4940 -0.4702
  786SOL     OW 2356   1.654   2.969   1.416 -0.3249 -0.1734  0.8244
  786SOL    HW1 2357   1.754   2.992   1.408  1.1727  1.2107 -1.2772
  786SOL    HW2 2358   1.599   2.996   1.332 -0.3530  1.8453  1.1284
  787SOL     OW 2359   1.391   0.042   1.384 -0.4171  0.0790  0.0616
  787SOL    HW1 2360   1.295   0.058   1.362  0.5490  0.0555  0.8541
  787SOL    HW2 2361   1.438   3.107   1.310  3.1012  0.6158 -0.5829
  788SOL     OW 2362   3.114   0.936   0.325 -0.2480 -0.3249  0.1462
  788SOL    HW1 2363   3.072   0.877   0.257 -2.6888 -1.6471  0.5019
  788SOL    HW2 2364   3.038   0.966   0.390 -0.1245  0.7225  0.8439
  789SOL     OW 2365   0.595   1.159   1.949 -0.4108 -0.4081 -0.3095
  789SOL    HW1 2366   0.696   1.161   1.975 -0.8780 -0.3090 -1.2575
  789SOL    HW2 2367   0.547   1.251   1.952  2.8097  1.6419 -0.7643
  790SOL     OW 2368   0.227   0.595   2.643  0.2707 -0.1383 -0.2361
  790SOL    HW1 2369   0.294   0.672   2.667  0.3908 -0.0263 -1.3963
  790SOL    HW2 2370   0.159   0.577   2.717  0.2089 -0.0933 -0.8522
  791SOL     OW 2371   2.292   0.630   0.534 -0.0467 -0.0126 -0.7588
  791SOL    HW1 2372   2.201   0.648   0.504 -0.6784  0.8593  1.8312
  791SOL    HW2 2373   2.298   0.536   0.568  0.4234  1.8987 -1.1853
  792SOL     OW 2374   0.924   3.010   1.412  0.0846  0.4453  0.0996
  792SOL    HW1 2375   0.835   3.000   1.365  2.7351  1.4270  1.0294
  792SOL    HW2 2376   0.926   3.049   1.507  0.7958  0.5511 -2.7537
  793SOL     OW 2377   0.475   2.964   1.230 -0.2270  0.0035  0.5545
  793SOL    HW1 2378   0.441   2.935   1.136  2.2688 -1.0985 -1.5646
  793SOL    HW2 2379   0.411   3.029   1.276  1.4170 -1.4523 -0.8314
  794SOL     OW 2380   0.174   0.660   2.395  0.4101  0.0831 -0.3936
  794SOL    HW1 2381   0.194   0.640   2.493  1.2496  2.0176  0.2656
  794SOL    HW2 2382   0.259   0.652   2.343  0.2394 -0.3486  0.9580
  795SOL     OW 2383   0.600   2.612   2.707 -0.6740  0.5714  0.3581
  795SOL    HW1 2384   0.626   2.633   2.802 -0.7295 -0.5645 -2.2345
  795SOL    HW2 2385   0.556   2.693   2.664  0.9255  1.0640 -0.4066
  796SOL     OW 2386   2.183   0.569   2.515  0.0522  0.5019 -0.0588
  796SOL    HW1 2387   2.170   0.669   2.519 -1.5766  1.0064  0.7901
  796SOL    HW2 2388   2.093   0.520   2.535  0.0924 -0.3253 -0.9323
  797SOL     OW 2389   2.604   2.212   2.667 -0.0093 -0.7899 -0.4063
  797SOL    HW1 2390   2.647   2.127   2.633 -1.8465 -1.3200 -1.9118
  797SOL    HW2 2391   2.608   2.222   2.771 -0.8866  2.3298  0.0819
  798SOL     OW 2392   0.340   0.437   1.636  0.2156 -0.1698 -0.8421
  798SOL    HW1 2393   0.357   0.419   1.735  2.2024 -0.5662 -0.9704
  798SOL    HW2 2394   0.426   0.464   1.589 -0.9427  2.4171  1.0454
  799SOL     OW 2395   0.584   3.076   1.995 -0.3268 -0.1216  0.1673
  799SOL    HW1 2396   0.623   0.043   2.034  0.3735  1.9529  0.7382
  799SOL    HW2 2397   0.486   3.061   2.008 -0.8380  1.0981 -0.1784
  800SOL     OW 2398   0.127   2.514   0.351 -0.2497 -0.4956 -0.0103
  800SOL    HW1 2399   0.078   2.499   0.262  0.4872 -2.8458  0.3932
  800SOL    HW2 2400   0.226   2.542   0.333  0.5387  0.4925  1.7541
  801SOL     OW 2401   1.774   1.725   1.001 -0.2707  0.1112 -0.0675
  801SOL    HW1 2402   1.739   1.786   0.930  2.6945 -2.2591 -2.4708
  801SOL    HW2 2403   1.817   1.780   1.074 -2.4599  3.8735 -1.4776
  802SOL     OW 2404   0.427   0.688   0.441 -0.3505  0.7490 -0.2113
  802SOL    HW1 2405   0.454   0.752   0.514 -1.6127 -0.3056  1.1187
  802SOL    HW2 2406   0.441   0.730   0.347 -0.4781  2.0045 -2.3909
  803SOL     OW 2407   1.221   1.211   1.933 -0.1827 -0.6065 -0.4585
  803SOL    HW1 2408   1.157   1.292   1.958 -1.7597  2.4479  3.8678
  803SOL    HW2 2409   1.190   1.157   1.850  0.8680 -1.7005  3.3203
  804SOL     OW 2410   1.798   2.077   0.856 -0.2879  0.0912 -0.3421
  804SOL    HW1 2411   1.822   2.095   0.953 -2.0896 -2.8127  1.0761
  804SOL    HW2 2412   1.740   1.997   0.839  1.2955  1.0820 -0.3836
  805SOL     OW 2413   0.219   2.104   2.746 -0.0297 -0.0705  0.1500
  805SOL    HW1 2414   0.147   2.133   2.810  1.2200  2.6793 -1.6663
  805SOL    HW2 2415   0.227   2.176   2.672 -0.3162 -0.8627 -1.2056
  806SOL     OW 2416   0.529   2.341   0.501  0.0014  0.1798  0.1064
  806SOL    HW1 2417   0.598   2.380   0.566  0.9453  0.8713 -0.8680
  806SOL    HW2 2418   0.577   2.285   0.433  0.1098 -2.0522 -0.6636
  807SOL     OW 2419   2.479   1.320   2.732  0.6334 -0.0348  0.0561
  807SOL    HW1 2420   2.572   1.277   2.735 -1.4059 -0.3817  0.9542
  807SOL    HW2 2421   2.419   1.271   2.802 -2.2753  0.1588 -0.4101
  808SOL     OW 2422   1.546   2.243   1.128  0.5138  0.1544 -0.6467
  808SOL    HW1 2423   1.500   2.156   1.142 -1.4115  2.0889  0.1989
  808SOL    HW2 2424   1.513   2.320   1.186  0.5681 -0.1902 -1.0025
  809SOL     OW 2425   0.074   0.644   0.571 -0.0000 -0.1346  0.2603
  809SOL    HW1 2426   0.130   0.718   0.612 -0.2755 -1.4541  0.8881
  809SOL    HW2 2427   0.092   0.552   0.613  0.4564 -2.5917  1.4187
  810SOL     OW 2428   1.491   1.520   0.021  0.2879  0.0555  0.8139
  810SOL    HW1 2429   1.416   1.560   3.081  0.9381 -2.4711  0.5288
  810SOL    HW2 2430   1.498   1.569   0.109 -2.0946 -3.4497 -0.9726
  811SOL     OW 2431   1.766   2.549   1.275 -0.6325 -0.1066 -0.2857
  811SOL    HW1 2432   1.756   2.594   1.186 -0.1987 -0.8199 -4.6168
  811SOL    HW2 2433   1.845   2.591   1.319  2.4257  0.5215 -0.3054
  812SOL     OW 2434   1.442   2.865   1.017  0.0417 -0.2910  0.1670
  812SOL    HW1 2435   1.485   2.773   1.016  1.2182  2.4157 -1.6217
  812SOL    HW2 2436   1.356   2.879   0.965 -1.3235 -2.4802  3.3237
  813SOL     OW 2437   1.163   0.137   2.011 -0.5567  0.2087 -0.1527
  813SOL    HW1 2438   1.112   0.164   1.933 -2.0549 -0.6781  4.8241
  813SOL    HW2 2439   1.261   0.120   1.991 -0.4713 -1.0946  0.3192
  814SOL     OW 2440   1.000   2.331   2.194  0.0443 -0.4713 -0.2426
  814SOL    HW1 2441   1.009   2.428   2.165 -0.2868 -0.1194  1.3100
  814SOL    HW2 2442   1.026   2.326   2.292  2.3737 -0.5970 -1.1861
  815SOL     OW 2443   0.389   0.239   2.890  0.5906  0.3550  0.5462
  815SOL    HW1 2444   0.427   0.150   2.917 -0.4688  0.7958 -0.9431
  815SOL    HW2 2445   0.447   0.316   2.920 -2.7475 -2.4783 -2.3771
  816SOL     OW 2446   2.243   1.176   0.146 -0.1365 -0.3133  0.2051
  816SOL    HW1 2447   2.267   1.255   0.090 -1.9855 -1.5129  2.5771
  816SOL    HW2 2448   2.280   1.090   0.102  0.7289 -2.1115  1.4866
  817SOL     OW 2449   2.783   2.528   2.290  0.3531 -0.1415 -0.3340
  817SOL    HW1 2450   2.742   2.619   2.271  0.7631  1.6844 -1.4359
  817SOL    HW2 2451   2.886   2.531   2.282  0.3887  1.2234  2.5868
  818SOL     OW 2452   0.909   1.302   0.610  0.0827  0.1627  0.7443
  818SOL    HW1 2453   0.812   1.314   0.644 -0.3732  1.3630 -1.5543
  818SOL    HW2 2454   0.912   1.282   0.509 -1.6592 -0.2169 -1.7771
  819SOL     OW 2455   1.806   1.295   2.592  0.4037 -0.1735  0.1814
  819SOL    HW1 2456   1.817   1.237   2.510  2.1607 -0.9735  0.5022
  819SOL    HW2 2457   1.735   1.260   2.653  0.6323 -0.9803 -0.0984
  820SOL     OW 2458   0.407   1.258   0.177 -0.2978  0.2766 -0.0155
  820SOL    HW1 2459   0.439   1.266   0.272 -0.5282 -0.5753 -1.5014
  820SOL    HW2 2460   0.316   1.218   0.174 -0.0281  0.5271 -0.8519
  821SOL     OW 2461   0.549   3.013   0.856 -0.7566 -0.0017  0.3121
  821SOL    HW1 2462   0.639   2.970   0.822  0.7050 -1.0243  0.2700
  821SOL    HW2 2463   0.490   2.943   0.902 -1.1389  1.8048 -3.4025
  822SOL     OW 2464   2.296   2.418   2.801  0.1786  0.0046 -0.1739
  822SOL    HW1 2465   2.342   2.338   2.839 -0.1364  2.5765 -1.3955
  822SOL    HW2 2466   2.258   2.476   2.874  0.1673  1.4358 -0.6385
  823SOL     OW 2467   1.318   0.535   2.671 -0.1014 -0.0145  0.3073
  823SOL    HW1 2468   1.358   0.439   2.671  0.6753 -0.1979  0.9908
  823SOL    HW2 2469   1.219   0.529   2.708 -0.5301  2.3060 -3.4174
  824SOL     OW 2470   2.544   2.755   1.456 -0.1737 -0.3240  0.2848
  824SOL    HW1 2471   2.595   2.728   1.540  2.6888 -0.2204  0.8512
  824SOL    HW2 2472   2.608   2.780   1.384  0.2251  2.3266  4.0949
  825SOL     OW 2473   0.178   2.291   2.550 -0.3812  0.1057 -0.6769
  825SOL    HW1 2474   0.109   2.309   2.477 -0.1028 -0.5961  1.2467
  825SOL    HW2 2475   0.264   2.347   2.533  0.9228 -0.8095  0.6225
  826SOL     OW 2476   1.578   0.448   0.117 -0.2431  0.6208 -0.0031
  826SOL    HW1 2477   1.527   0.376   0.176 -4.2614 -1.4433 -0.5433
  826SOL    HW2 2478   1.676   0.427   0.105 -1.1801 -1.6506  1.8323
  827SOL     OW 2479   0.091   1.825   1.895 -0.3843 -0.4665 -0.0234
  827SOL    HW1 2480   0.067   1.726   1.859 -2.5698 -0.9135  0.4669
  827SOL    HW2 2481   0.031   1.896   1.855  0.1843 -2.0112  0.7618
  828SOL     OW 2482   0.244   3.078   1.330  0.5263  0.6984  0.1000
  828SOL    HW1 2483   0.249   0.062   1.345  1.2319 -0.0479 -0.9081
  828SOL    HW2 2484   0.184   3.042   1.410 -0.3515  0.4556  0.2730
  829SOL     OW 2485   1.127   2.065   2.459  0.3524  0.7994 -0.3578
  829SOL    HW1 2486   1.165   2.081   2.552  0.7603  1.4308 -1.6586
  829SOL    HW2 2487   1.073   2.143   2.437  3.1424  0.1514  1.9017
  830SOL     OW 2488   0.718   0.910   1.516 -0.2306  0.0196  0.1230
  830SOL    HW1 2489   0.753   0.917   1.422  0.2917 -0.5335  0.2810
  830SOL    HW2 2490   0.625   0.870   1.520 -1.9106  0.7065 -0.4229
  831SOL     OW 2491   2.689   1.754   3.069  0.1241 -0.0143  0.2226
  831SOL    HW1 2492   2.706   1.727   2.970  0.8608 -0.3431  1.0729
  831SOL    HW2 2493   2.773   1.731   0.002 -0.1352  0.1741  4.9762
  832SOL     OW 2494   1.283   2.352   2.933 -0.1852 -0.2400 -0.4588
  832SOL    HW1 2495   1.198   2.389   2.887  1.0548  0.9918 -2.3342
  832SOL    HW2 2496   1.336   2.290   2.877 -1.6303 -1.1075  0.7150
  833SOL     OW 2497   0.346   0.421   1.902  0.2820 -0.3063  0.1259
  833SOL    HW1 2498   0.416   0.471   1.955 -0.7349 -0.2281  1.6797
  833SOL    HW2 2499   0.363   0.321   1.910 -0.5851 -1.7438 -0.8966
  834SOL     OW 2500   0.205   0.828   1.228  0.0368  0.3225 -0.4696
  834SOL    HW1 2501   0.211   0.732   1.260  1.2739  1.5585  0.0032
  834SOL    HW2 2502   0.182   0.893   1.303  1.3129 -1.4296 -1.8595
  835SOL     OW 2503   2.449   0.349   0.199 -0.7177 -0.4247 -0.2865
  835SOL    HW1 2504   2.447   0.335   0.101 -0.0597  0.8456  3.9989
  835SOL    HW2 2505   2.461   0.442   0.233  1.6822 -0.3582 -0.6855
  836SOL     OW 2506   0.801   2.096   0.578 -0.0863 -0.0369  0.3431
  836SOL    HW1 2507   0.817   2.009   0.628  1.6563 -0.5089  1.3639
  836SOL    HW2 2508   0.870   2.166   0.596 -0.0456 -1.5093  0.6033
  837SOL     OW 2509   1.769   1.690   0.379 -0.1266 -0.3549 -0.5470
  837SOL    HW1 2510   1.754   1.743   0.293 -3.2474  0.1558  3.0029
  837SOL    HW2 2511   1.722   1.601   0.362  0.8021  0.5617  1.2048
  838SOL     OW 2512   1.976   1.006   2.007 -0.2798 -0.2598 -0.2513
  838SOL    HW1 2513   2.042   0.939   1.970 -1.5698  1.4672  2.2488
  838SOL    HW2 2514   1.904   1.023   1.941  2.7214  2.8525  0.6555
  839SOL     OW 2515   0.932   1.445   2.636 -0.3871  0.2985 -0.0610
  839SOL    HW1 2516   0.954   1.353   2.604  0.4360  2.8481  1.6143
  839SOL    HW2 2517   0.996   1.511   2.593 -2.8104 -1.9078 -0.1176
  840SOL     OW 2518   0.816   1.366   0.196  0.3804  0.4033 -0.0802
  840SOL    HW1 2519   0.876   1.301   0.247 -3.2090  0.9506  0.9693
  840SOL    HW2 2520   0.768   1.314   0.121 -2.0719  0.4783 -0.1404
  841SOL     OW 2521   1.327   2.144   0.032  0.7348 -0.0106  0.2600
  841SOL    HW1 2522   1.390   2.199   0.096  1.9153  0.5262  1.8917
  841SOL    HW2 2523   1.278   2.206   3.088  0.9085 -1.3670  1.3149
  842SOL     OW 2524   0.091   0.551   0.318 -0.2929  0.1973 -0.1580
  842SOL    HW1 2525   0.098   0.621   0.242 -0.4490  0.9335  1.5664
  842SOL    HW2 2526   0.090   0.593   0.413  1.8489  1.4089 -1.0891
  843SOL     OW 2527   0.671   0.433   0.915 -0.5258 -0.0721 -0.5145
  843SOL    HW1 2528   0.701   0.367   0.846 -2.4366 -0.9142  2.0776
  843SOL    HW2 2529   0.581   0.416   0.963 -0.3784 -1.2749 -0.5419
  844SOL     OW 2530   2.249   2.629   2.494 -0.1870 -0.3125  0.0288
  844SOL    HW1 2531   2.175   2.619   2.424  0.0588 -4.0952  2.9781
  844SOL    HW2 2532   2.200   2.627   2.584 -0.9320 -1.0183 -0.8832
  845SOL     OW 2533   3.015   2.536   1.684  0.4142  0.0177 -0.2548
  845SOL    HW1 2534   3.009   2.640   1.692 -1.0536 -0.7094  0.3351
  845SOL    HW2 2535   2.949   2.504   1.613 -1.9524  0.0858  0.5875
  846SOL     OW 2536   1.994   1.415   2.424  0.1181  0.1805  0.0997
  846SOL    HW1 2537   1.934   1.416   2.507  1.0029 -1.2764  0.9068
  846SOL    HW2 2538   1.961   1.347   2.354 -2.1247  0.1219 -0.3454
  847SOL     OW 2539   2.921   0.460   1.904  0.4714 -0.3409 -0.0853
  847SOL    HW1 2540   2.869   0.549   1.873  0.0946  3.3681 -0.3705
  847SOL    HW2 2541   3.018   0.468   1.872  0.9452 -0.9117 -1.6913
  848SOL     OW 2542   2.536   2.714   2.928 -0.1701  0.1360 -0.2252
  848SOL    HW1 2543   2.629   2.714   2.969 -2.5720 -0.8785 -0.1095
  848SOL    HW2 2544   2.531   2.688   2.830 -0.7609  2.0115  2.1017
  849SOL     OW 2545   0.293   2.926   0.589 -0.0284  0.4705 -0.1705
  849SOL    HW1 2546   0.334   3.011   0.620 -2.8562 -2.1516  2.1065
  849SOL    HW2 2547   0.194   2.910   0.625 -0.1951  1.8645  2.7908
  850SOL     OW 2548   0.852   2.395   0.332 -0.2318 -0.2800  0.0698
  850SOL    HW1 2549   0.951   2.379   0.311 -1.3820 -0.6224  1.5084
  850SOL    HW2 2550   0.847   2.474   0.401  1.5887  1.4426  0.4716
  851SOL     OW 2551   1.805   0.612   2.634  0.2645 -0.3714  0.4804
  851SOL    HW1 2552   1.762   0.685   2.572  0.6287  1.4336 -0.6827
  851SOL    HW2 2553   1.855   0.547   2.580 -3.3204  3.2167 -0.7867
  852SOL     OW 2554   1.627   2.516   2.622 -0.4552 -0.8465  0.0438
  852SOL    HW1 2555   1.645   2.420   2.640  4.1221 -2.0066  1.3168
  852SOL    HW2 2556   1.712   2.570   2.626 -2.0848  0.5366  2.1311
  853SOL     OW 2557   0.008   2.502   0.108 -0.2217  0.3312  0.1698
  853SOL    HW1 2558   0.086   2.499   0.048 -0.9392 -2.0905  0.3824
  853SOL    HW2 2559   3.038   2.490   0.050 -0.8860  4.7238 -1.0091
  854SOL     OW 2560   1.630   0.566   2.284 -0.5587  0.0091  0.7128
  854SOL    HW1 2561   1.534   0.542   2.307  1.1224 -2.7536 -4.3536
  854SOL    HW2 2562   1.653   0.661   2.311  0.8143  0.1469 -2.0947
  855SOL     OW 2563   0.480   2.839   0.377 -0.4781  0.3031 -0.1902
  855SOL    HW1 2564   0.452   2.749   0.334  1.0707  1.3902  0.6833
  855SOL    HW2 2565   0.421   2.865   0.455  1.1085  0.0442  1.1284
  856SOL     OW 2566   0.148   2.857   2.646 -0.6075  0.3940 -0.0369
  856SOL    HW1 2567   0.242   2.826   2.615  3.1181 -1.6571 -0.1513
  856SOL    HW2 2568   0.076   2.779   2.645  0.6293 -1.4683 -0.4351
  857SOL     OW 2569   1.324   3.029   1.629 -0.7212  0.5411  0.0722
  857SOL    HW1 2570   1.341   3.090   1.551  0.9122 -1.3327  0.6424
  857SOL    HW2 2571   1.369   2.939   1.600  1.4993 -0.0781 -0.2638
  858SOL     OW 2572   3.093   2.108   1.740  0.2511 -0.1735  0.1856
  858SOL    HW1 2573   3.064   2.141   1.835  0.1175 -0.6069  3.4693
  858SOL    HW2 2574   0.076   2.122   1.716  2.1542 -0.0005  0.7463
  859SOL     OW 2575   2.157   2.407   2.000  0.6412 -0.3703 -0.1704
  859SOL    HW1 2576   2.059   2.383   1.969 -0.4508 -1.1412 -1.0919
  859SOL    HW2 2577   2.216   2.360   1.932  1.1286  3.0702  0.8125
  860SOL     OW 2578   1.390   0.245   0.543  0.0487 -0.7955  0.1867
  860SOL    HW1 2579   1.412   0.261   0.640  0.2298 -1.1812 -0.6379
  860SOL    HW2 2580   1.299   0.282   0.523  2.4152 -0.5862  0.3467
  861SOL     OW 2581   2.803   0.518   0.886 -0.1980  0.0204 -0.1807
  861SOL    HW1 2582   2.742   0.450   0.926 -0.6012  0.7650 -0.6973
  861SOL    HW2 2583   2.899   0.482   0.890 -0.5961  2.4779  2.0584
  862SOL     OW 2584   1.573   0.640   2.028  0.7440  0.3091  0.2762
  862SOL    HW1 2585   1.569   0.595   2.121  0.5446  0.4418 -1.1787
  862SOL    HW2 2586   1.664   0.627   1.989 -1.9703  1.1200  2.8114
  863SOL     OW 2587   0.691   0.702   0.928 -0.0639  0.0904 -0.4062
  863SOL    HW1 2588   0.710   0.600   0.919  0.3316  1.9633  0.6839
  863SOL    HW2 2589   0.632   0.713   1.008  0.6951 -4.3099  0.3053
  864SOL     OW 2590   0.176   2.970   2.196 -0.1184 -0.5419 -0.1591
  864SOL    HW1 2591   0.087   3.012   2.231 -2.8112  0.7371  3.7177
  864SOL    HW2 2592   0.183   2.982   2.093  0.0153 -0.1860 -0.5621
  865SOL     OW 2593   1.003   1.209   2.525  0.7758 -0.5438  0.2526
  865SOL    HW1 2594   1.036   1.139   2.468 -0.6461  2.7574  3.1635
  865SOL    HW2 2595   0.900   1.201   2.534 -1.1291  2.6769  0.2524
  866SOL     OW 2596   2.963   2.976   0.248  0.2122 -0.6075 -0.1417
  866SOL    HW1 2597   2.992   3.062   0.304 -1.7844  0.5479  0.9796
  866SOL    HW2 2598   3.041   2.911   0.229 -0.1923 -0.3963  0.4887
  867SOL     OW 2599   2.802   2.701   2.957  0.3299  0.2529 -0.0500
  867SOL    HW1 2600   2.845   2.616   2.999 -0.9115  0.6296  0.6263
  867SOL    HW2 2601   2.827   2.780   3.014 -0.2021  1.3371  0.1357
  868SOL     OW 2602   1.589   1.172   2.972 -0.0592 -0.2035 -0.1674
  868SOL    HW1 2603   1.654   1.243   2.943  0.3370 -2.5567  1.8551
  868SOL    HW2 2604   1.510   1.225   3.006 -1.5975 -0.3496  0.6509
  869SOL     OW 2605   3.051   1.950   0.736  0.6024 -0.1626  0.1332
  869SOL    HW1 2606   2.975   2.017   0.749  0.2304 -0.3400 -2.2118
  869SOL    HW2 2607   0.026   1.985   0.768  0.1651 -0.6511 -2.1826
  870SOL     OW 2608   2.152   2.043   0.611 -0.1447 -0.5165 -0.4873
  870SOL    HW1 2609   2.202   1.963   0.652  1.2862  2.4176 -2.5003
  870SOL    HW2 2610   2.161   2.039   0.506 -1.0070 -1.8245 -4.8102
  871SOL     OW 2611   0.623   1.090   1.170 -0.2207 -0.2745  0.3438
  871SOL    HW1 2612   0.694   1.061   1.100 -1.1613 -0.6936  0.8532
  871SOL    HW2 2613   0.534   1.051   1.143 -1.6828  0.5223 -2.8209
  872SOL     OW 2614   1.317   1.927   1.867 -0.3173 -0.2628 -0.2583
  872SOL    HW1 2615   1.255   1.998   1.822 -0.4803  2.1701 -0.8279
  872SOL    HW2 2616   1.415   1.944   1.846 -1.7829  1.2794 -0.1006
  873SOL     OW 2617   0.543   2.205   2.169  0.1558 -0.4666  0.3722
  873SOL    HW1 2618   0.540   2.212   2.271 -0.4947 -2.2060  0.5054
  873SOL    HW2 2619   0.511   2.295   2.126 -0.1683 -0.0786  1.8048
  874SOL     OW 2620   0.902   2.841   1.058  0.0186  0.7142  0.0212
  874SOL    HW1 2621   0.848   2.878   1.140 -1.1373  1.3806  1.7504
  874SOL    HW2 2622   0.957   2.763   1.087  0.1626  1.2335 -1.2861
  875SOL     OW 2623   2.924   0.264   1.112  0.1261  0.5719  0.6528
  875SOL    HW1 2624   2.959   0.357   1.133 -0.0079  0.2355  0.6680
  875SOL    HW2 2625   2.969   0.233   1.028 -0.2213 -0.7818  1.9109
  876SOL     OW 2626   0.456   0.834   0.183  0.1243  0.0850  0.0037
  876SOL    HW1 2627   0.437   0.916   0.240 -1.4212 -0.8451 -0.6417
  876SOL    HW2 2628   0.554   0.837   0.145 -1.0059  0.0016  0.3370
  877SOL     OW 2629   0.248   0.580   1.347  0.5742 -0.7120  0.2916
  877SOL    HW1 2630   0.193   0.525   1.408 -0.1900  2.4408 -1.7470
  877SOL    HW2 2631   0.339   0.602   1.389  0.0265  2.3285  0.0354
  878SOL     OW 2632   2.428   2.327   0.492  0.0116  0.6355  0.1001
  878SOL    HW1 2633   2.427   2.294   0.587  0.5748  1.1077 -2.1337
  878SOL    HW2 2634   2.427   2.430   0.490 -1.7321  1.6675  1.4176
  879SOL     OW 2635   2.571   1.328   1.210  0.3345 -0.1964  0.0897
  879SOL    HW1 2636   2.598   1.350   1.307  0.9676 -0.2979  3.3010
  879SOL    HW2 2637   2.510   1.396   1.167  0.6521 -2.6042 -4.0637
  880SOL     OW 2638   1.624   2.658   1.043 -0.2252 -0.5033 -0.7387
  880SOL    HW1 2639   1.671   2.646   0.950 -0.0493 -1.1446 -1.8016
  880SOL    HW2 2640   1.549   2.591   1.054  2.7024  1.3179 -0.3512
  881SOL     OW 2641   0.957   2.212   0.026 -0.3753 -0.9735 -0.3784
  881SOL    HW1 2642   1.001   2.299   0.053 -3.9015 -3.6588 -1.6972
  881SOL    HW2 2643   0.978   2.140   0.092 -1.2000 -0.1571 -0.5212
  882SOL     OW 2644   1.791   0.713   1.249  0.6883  0.1340  0.0510
  882SOL    HW1 2645   1.841   0.636   1.291  1.5137  3.1189  2.8130
  882SOL    HW2 2646   1.690   0.695   1.254  2.9466  0.8429 -1.8027
  883SOL     OW 2647   1.595   0.523   1.625  0.4493  0.1023  0.0658
  883SOL    HW1 2648   1.683   0.571   1.628 -1.6608 -0.3987 -1.7322
  883SOL    HW2 2649   1.612   0.424   1.626  0.0447  3.5710  1.2012
  884SOL     OW 2650   2.680   0.619   0.128  0.4174 -0.0540 -0.1292
  884SOL    HW1 2651   2.607   0.614   0.196  1.5032  0.5976  0.2538
  884SOL    HW2 2652   2.759   0.668   0.172  0.6795 -1.8889  0.3521
  885SOL     OW 2653   1.300   1.712   3.034  0.2504  0.4048 -0.4326
  885SOL    HW1 2654   1.199   1.717   3.046 -0.6208  0.9355  0.3734
  885SOL    HW2 2655   1.318   1.718   2.934  1.1552 -0.5584  0.4760
  886SOL     OW 2656   1.638   1.515   2.595 -0.9384  0.1892 -0.2789
  886SOL    HW1 2657   1.662   1.578   2.676  3.2200  1.3955  0.6510
  886SOL    HW2 2658   1.688   1.427   2.602 -2.2084  1.3667 -0.1348
  887SOL     OW 2659   1.626   0.225   1.423  0.3578 -0.0770  0.4344
  887SOL    HW1 2660   1.552   0.155   1.413  1.3480 -2.5695  0.0259
  887SOL    HW2 2661   1.655   0.230   1.520 -4.0169 -0.6914 -0.3869
  888SOL     OW 2662   2.492   0.630   1.945 -0.0931  0.0142 -0.2920
  888SOL    HW1 2663   2.586   0.627   1.991  2.7375  0.5703  1.4249
  888SOL    HW2 2664   2.496   0.708   1.877  0.4432  0.4148  0.0612
  889SOL     OW 2665   0.218   2.472   1.135  0.2596  0.2359  0.0801
  889SOL    HW1 2666   0.128   2.429   1.123  0.5885  0.0489  0.6639
  889SOL    HW2 2667   0.266   2.481   1.045  0.6982 -0.6075 -0.9647
  890SOL     OW 2668   2.395   2.237   0.239  0.4713  0.2388 -0.2342
  890SOL    HW1 2669   2.376   2.316   0.172 -0.1447  1.8637  0.6780
  890SOL    HW2 2670   2.401   2.270   0.334  1.0005  2.9056  1.7977
  891SOL     OW 2671   0.673   1.424   2.998 -0.5231 -0.0328  0.1501
  891SOL    HW1 2672   0.766   1.431   2.962  1.0829 -3.9472  2.5193
  891SOL    HW2 2673   0.641   1.333   2.969  0.1437  0.9732 -0.6823
  892SOL     OW 2674   0.149   3.006   1.066  0.1256 -0.5250 -0.4267
  892SOL    HW1 2675   0.196   3.027   1.153  2.2476 -0.9645  0.1802
  892SOL    HW2 2676   0.142   2.908   1.057  0.9922  0.0050  1.2176
  893SOL     OW 2677   1.106   0.066   1.292 -0.0504 -0.2999 -0.7743
  893SOL    HW1 2678   1.046   0.150   1.298 -0.3293  1.4437 -0.9643
  893SOL    HW2 2679   1.050   3.103   1.322 -2.3740 -0.6728 -1.8300
  894SOL     OW 2680   2.429   0.462   0.808 -0.6946  0.0822  0.1009
  894SOL    HW1 2681   2.339   0.473   0.846  1.2351  0.0367 -0.8966
  894SOL    HW2 2682   2.450   0.557   0.772  0.1057 -1.1926 -1.1993
  895SOL     OW 2683   2.041   1.994   2.238 -0.2287  0.2828  0.1571
  895SOL    HW1 2684   2.067   2.094   2.234 -0.5639 -2.0941 -2.1979
  895SOL    HW2 2685   2.115   1.940   2.278  1.6485  1.7201  0.3328
  896SOL     OW 2686   1.498   0.226   1.937 -0.5406 -0.4242  0.0454
  896SOL    HW1 2687   1.443   0.310   1.921  0.5853  1.4938 -0.9560
  896SOL    HW2 2688   1.509   0.174   1.849 -4.6430 -1.0523 -1.3801
  897SOL     OW 2689   0.427   1.634   2.073 -0.4242 -0.1655  0.1066
  897SOL    HW1 2690   0.357   1.621   2.145  1.5636 -0.3231  0.5806
  897SOL    HW2 2691   0.512   1.594   2.101 -2.4575  1.7702  0.6668
  898SOL     OW 2692   2.264   2.882   2.057 -0.5015 -0.4421 -0.2649
  898SOL    HW1 2693   2.242   2.921   1.963 -1.9295 -0.6875 -4.3459
  898SOL    HW2 2694   2.361   2.901   2.080 -1.9791 -0.2907  1.0019
  899SOL     OW 2695   1.038   0.892   1.090  0.3080 -0.3015  0.1907
  899SOL    HW1 2696   0.997   0.982   1.069  1.9392  1.5801 -0.5436
  899SOL    HW2 2697   1.042   0.832   1.001  0.2631 -1.3186 -0.1037
  900SOL     OW 2698   1.741   2.344   2.926  0.4250 -0.2067 -0.3666
  900SOL    HW1 2699   1.666   2.277   2.940  0.3535  0.0051  0.9265
  900SOL    HW2 2700   1.788   2.326   2.841 -2.6492 -0.2100  2.1113
  901SOL     OW 2701   0.746   2.190   2.746 -0.0678  0.1952 -0.0660
  901SOL    HW1 2702   0.680   2.247   2.807 -2.5056  0.8957  2.4670
  901SOL    HW2 2703   0.702   2.099   2.721  0.1961  0.1815 -1.0636
  902SOL     OW 2704   2.240   1.595   0.138 -0.0982  0.0649  0.0599
  902SOL    HW1 2705   2.310   1.604   0.207 -2.8173  0.6238 -0.5348
  902SOL    HW2 2706   2.157   1.647   0.170  0.4113  1.9559  0.5352
  903SOL     OW 2707   2.077   0.755   0.397 -0.1022  0.4580  0.0647
  903SOL    HW1 2708   2.094   0.827   0.467  0.9941 -2.4320  1.7536
  903SOL    HW2 2709   2.106   0.795   0.302  0.8825  1.1375 -1.7715
  904SOL     OW 2710   0.379   0.962   2.974  0.0313 -0.3584 -0.2341
  904SOL    HW1 2711   0.386   0.897   3.055 -0.2372  0.2702  1.0743
  904SOL    HW2 2712   0.290   1.015   2.976  0.5793  1.4474 -0.8293
  905SOL     OW 2713   2.284   0.073   1.131 -0.0030 -0.6218 -0.1291
  905SOL    HW1 2714   2.303   0.068   1.231  1.5903  0.9642  0.4827
  905SOL    HW2 2715   2.280   0.174   1.110  0.6245 -1.3571 -0.4782
  906SOL     OW 2716   2.917   2.100   1.057 -0.4707  0.0940  0.1630
  906SOL    HW1 2717   2.857   2.029   1.028  1.1038  1.8674 -0.9914
  906SOL    HW2 2718   2.888   2.189   1.015  0.2755 -0.4792 -0.0512
  907SOL     OW 2719   1.205   0.679   0.410 -0.1627 -0.1597 -0.0898
  907SOL    HW1 2720   1.113   0.642   0.395  1.2002  1.9072  0.3231
  907SOL    HW2 2721   1.212   0.743   0.491  0.3631 -1.0213 -1.4377
  908SOL     OW 2722   2.284   2.907   1.502  0.4067 -0.9988 -0.2475
  908SOL    HW1 2723   2.364   2.851   1.505 -2.0870  3.3703  1.4472
  908SOL    HW2 2724   2.222   2.887   1.425 -1.1814 -0.5523 -2.3031
  909SOL     OW 2725   2.700   0.797   1.508 -0.2934 -0.0586 -0.1078
  909SOL    HW1 2726   2.798   0.781   1.485  1.4076  0.2210  0.1564
  909SOL    HW2 2727   2.687   0.897   1.525 -0.4370  0.3416  1.1974
  910SOL     OW 2728   1.498   2.704   2.243 -0.3157 -0.2283 -0.1639
  910SOL    HW1 2729   1.446   2.636   2.185 -2.3972 -1.2783 -0.8946
  910SOL    HW2 2730   1.501   2.790   2.196  1.3254 -0.6681  1.2381
  911SOL     OW 2731   2.122   0.354   2.176  0.0398 -0.1144  0.1955
  911SOL    HW1 2732   2.041   0.394   2.221  0.8274 -2.0767 -1.2668
  911SOL    HW2 2733   2.205   0.396   2.211 -0.8887 -0.3959  0.4333
  912SOL     OW 2734   2.885   1.349   1.511 -0.0347  0.3723  0.2960
  912SOL    HW1 2735   2.929   1.292   1.583  2.5584 -1.0699 -0.8330
  912SOL    HW2 2736   2.955   1.401   1.458  1.6714  2.7397 -2.2532
  913SOL     OW 2737   2.719   1.914   1.279  0.8560 -0.5221  0.3093
  913SOL    HW1 2738   2.680   1.994   1.332  2.3076 -0.5859 -0.9325
  913SOL    HW2 2739   2.792   1.866   1.332 -2.4504 -1.8567 -0.5878
  914SOL     OW 2740   1.969   1.259   1.420 -0.2234  0.3352 -0.6170
  914SOL    HW1 2741   2.053   1.209   1.456  1.5631 -0.1333 -1.1084
  914SOL    HW2 2742   1.877   1.232   1.459 -1.3573 -1.7241  0.6964
  915SOL     OW 2743   0.918   1.263   1.341 -0.3785 -0.4817  0.2558
  915SOL    HW1 2744   0.924   1.190   1.415 -0.0738 -1.2374 -1.5983
  915SOL    HW2 2745   0.992   1.330   1.349 -0.7896 -0.9876 -1.9661
  916SOL     OW 2746   2.404   2.594   1.129  0.0028 -0.0475 -0.5058
  916SOL    HW1 2747   2.426   2.560   1.223 -2.1960  0.8184 -0.2405
  916SOL    HW2 2748   2.377   2.693   1.123 -2.1745 -0.9829 -0.2532
  917SOL     OW 2749   2.510   1.971   0.173  0.3712 -0.4328  0.3826
  917SOL    HW1 2750   2.492   1.914   0.087 -0.7850 -1.4027 -5.0127
  917SOL    HW2 2751   2.458   2.058   0.172  1.9830 -3.1416  0.5491
  918SOL     OW 2752   1.874   2.661   2.609  0.2658  0.0813  0.0041
  918SOL    HW1 2753   1.896   2.657   2.512 -1.1364  1.8577  2.1508
  918SOL    HW2 2754   1.957   2.669   2.668 -0.0552  0.3475  0.2209
  919SOL     OW 2755   1.602   1.887   1.809 -0.3772  0.7062 -0.1053
  919SOL    HW1 2756   1.652   1.838   1.885  1.6743 -1.0277  2.6251
  919SOL    HW2 2757   1.666   1.934   1.747  0.1216 -1.6768  0.1570
  920SOL     OW 2758   2.844   0.279   2.462  0.1241  0.1476  0.2758
  920SOL    HW1 2759   2.920   0.328   2.519  1.6112 -0.7221  0.7220
  920SOL    HW2 2760   2.758   0.323   2.478 -0.8354 -0.8859  1.3736
  921SOL     OW 2761   2.792   0.309   2.085 -0.2313  0.4843  0.1222
  921SOL    HW1 2762   2.827   0.216   2.080  0.0194  0.7618  1.0101
  921SOL    HW2 2763   2.852   0.375   2.027  0.1289  0.7985  1.3126
  922SOL     OW 2764   2.195   2.041   0.306  0.0066  0.1694  0.0930
  922SOL    HW1 2765   2.272   2.111   0.292  3.2948 -0.6622  1.4201
  922SOL    HW2 2766   2.195   1.971   0.231 -1.2660 -0.0856  0.3067
  923SOL     OW 2767   0.333   2.113   0.256 -0.2588  0.1499  0.2415
  923SOL    HW1 2768   0.395   2.040   0.223  1.9056  1.9941  1.6775
  923SOL    HW2 2769   0.382   2.193   0.299 -0.5874 -2.2412 -0.5426
  924SOL     OW 2770   0.682   0.446   0.061  0.1540  0.0540 -0.1798
  924SOL    HW1 2771   0.598   0.405   0.111 -2.8656 -1.0377  1.4720
  924SOL    HW2 2772   0.743   0.507   0.119  0.5935  0.4556 -0.4328
  925SOL     OW 2773   2.304   0.804   0.922  0.6139 -0.1149 -0.2115
  925SOL    HW1 2774   2.351   0.858   0.855 -1.2087 -2.1308  1.6021
  925SOL    HW2 2775   2.311   0.856   1.006 -1.1751  0.7076 -1.8547
  926SOL     OW 2776   2.899   0.798   0.940 -0.3488  0.2271 -0.3371
  926SOL    HW1 2777   2.959   0.843   1.008  0.4139 -2.6382  0.3140
  926SOL    HW2 2778   2.886   0.699   0.967 -1.7207 -3.0610  2.1015
  927SOL     OW 2779   3.033   1.244   2.764  0.2487  0.1132 -0.0020
  927SOL    HW1 2780   3.076   1.164   2.720  0.6646 -0.4873  2.8496
  927SOL    HW2 2781   3.103   1.312   2.790 -3.0158  1.4554 -1.4073
  928SOL     OW 2782   3.069   0.500   2.432  0.1220 -0.1186  0.1682
  928SOL    HW1 2783   0.018   0.566   2.392  3.5230  1.1629  1.8797
  928SOL    HW2 2784   3.091   0.404   2.410 -0.6660  1.1838  0.7403
  929SOL     OW 2785   0.094   2.719   1.064  0.3647 -0.0256 -0.0474
  929SOL    HW1 2786   0.051   2.672   0.986  2.0263  2.2657 -0.2376
  929SOL    HW2 2787   0.187   2.684   1.082 -0.0285  0.5351 -0.6654
  930SOL     OW 2788   2.203   1.701   1.561 -0.3079  0.4912  0.2929
  930SOL    HW1 2789   2.197   1.743   1.657 -0.3984 -0.1297 -1.2851
  930SOL    HW2 2790   2.127   1.635   1.545  0.6701 -1.5513 -1.2486
  931SOL     OW 2791   1.468   1.567   0.714 -0.5210 -0.6765 -0.0592
  931SOL    HW1 2792   1.524   1.525   0.786 -1.1664  0.7494 -3.6925
  931SOL    HW2 2793   1.449   1.665   0.739 -0.4389  2.8214 -1.7677
  932SOL     OW 2794   2.818   1.167   1.145  0.4759 -0.2275 -0.2239
  932SOL    HW1 2795   2.783   1.072   1.175 -1.0218 -0.3374 -1.4366
  932SOL    HW2 2796   2.749   1.237   1.163 -1.1822  0.9268 -1.3702
  933SOL     OW 2797   2.418   1.560   1.221 -0.2700 -0.0483  0.5057
  933SOL    HW1 2798   2.346   1.621   1.181  1.6174  3.1695 -1.7571
  933SOL    HW2 2799   2.435   1.582   1.321  2.1427 -0.8293  2.9551
  934SOL     OW 2800   1.822   2.765   1.697  0.2770  0.0701 -0.0627
  934SOL    HW1 2801   1.911   2.756   1.743 -1.3336  1.6101 -1.5512
  934SOL    HW2 2802   1.756   2.687   1.721 -0.1220 -1.7488  1.5709
  935SOL     OW 2803   0.010   1.552   0.740 -0.0212  0.2499  0.5879
  935SOL    HW1 2804   3.054   1.591   0.796 -0.7119  2.3070 -1.1576
  935SOL    HW2 2805   0.096   1.603   0.764  0.2559  0.2225  1.1426
  936SOL     OW 2806   0.098   1.242   0.406 -0.3100 -0.1555 -0.6542
  936SOL    HW1 2807   0.167   1.196   0.466  1.6030  1.7322 -0.8793
  936SOL    HW2 2808   0.117   1.214   0.306  0.9072 -2.2349 -3.1177
  937SOL     OW 2809   1.943   2.555   1.014  0.1077 -0.2847 -0.3089
  937SOL    HW1 2810   1.874   2.596   0.956  0.1726 -0.2109  1.3099
  937SOL    HW2 2811   2.004   2.485   0.970 -1.3991  0.2253  1.2681
  938SOL     OW 2812   2.593   1.963   1.014 -0.3743  0.4542  0.2724
  938SOL    HW1 2813   2.631   1.942   1.107 -0.3111 -2.3120 -1.2983
  938SOL    HW2 2814   2.598   2.062   0.999  0.6490 -3.1736  0.0662
  939SOL     OW 2815   0.705   2.188   0.367  0.2459 -0.4669 -0.1989
  939SOL    HW1 2816   0.751   2.138   0.445 -1.2425 -0.6494  0.8564
  939SOL    HW2 2817   0.762   2.264   0.336  0.0686 -2.9819  2.9302
  940SOL     OW 2818   2.889   0.110   2.778 -0.0856 -0.1585  0.0076
  940SOL    HW1 2819   2.941   0.190   2.745 -2.2019  0.3243  0.6894
  940SOL    HW2 2820   2.878   0.052   2.698  0.2654  1.3190  0.2197
  941SOL     OW 2821   1.104   0.424   3.116  0.1684 -0.4265 -0.6246
  941SOL    HW1 2822   1.114   0.389   0.092 -0.0297 -0.0833 -0.1317
  941SOL    HW2 2823   1.195   0.452   3.075  1.1608 -1.8224 -2.2668
  942SOL     OW 2824   1.145   1.530   1.683 -0.3033  0.3821  0.4772
  942SOL    HW1 2825   1.157   1.586   1.767  1.6040 -0.0533 -3.7690
  942SOL    HW2 2826   1.046   1.518   1.662  2.0687  0.3819 -1.0107
  943SOL     OW 2827   1.779   1.076   1.515 -0.3945  0.0504 -0.1397
  943SOL    HW1 2828   1.741   0.986   1.530  2.5018  2.6275  2.8384
  943SOL    HW2 2829   1.835   1.057   1.431 -2.2816 -3.0149 -2.3476
  944SOL     OW 2830   1.913   0.511   1.572  0.2093  0.2522  0.2077
  944SOL    HW1 2831   1.884   0.482   1.480  1.0477  1.7325  1.7327
  944SOL    HW2 2832   1.999   0.458   1.588  4.0082 -1.4194  0.8308
  945SOL     OW 2833   3.030   3.093   0.704 -0.5589 -0.2447  0.6214
  945SOL    HW1 2834   2.948   3.106   0.759  2.3231  3.0145 -0.6372
  945SOL    HW2 2835   3.111   0.016   0.750  1.5521  1.4957 -1.5125
  946SOL     OW 2836   0.541   0.541   1.501 -0.0646  0.0361 -0.3008
  946SOL    HW1 2837   0.614   0.507   1.566  0.5240  0.6975  1.0796
  946SOL    HW2 2838   0.530   0.642   1.511  2.3945  4.7079 -0.7509
  947SOL     OW 2839   0.490   0.305   0.196 -0.1316 -0.2540  0.3155
  947SOL    HW1 2840   0.431   0.220   0.172 -4.9072  0.5870  0.1758
  947SOL    HW2 2841   0.428   0.370   0.251  0.8525 -0.6694  0.9965
  948SOL     OW 2842   2.880   1.053   1.705 -0.7023 -0.7164  1.0194
  948SOL    HW1 2843   2.879   1.128   1.777 -1.7532  1.8046  1.3565
  948SOL    HW2 2844   2.965   1.080   1.648  2.9282  3.6552 -3.9018
  949SOL     OW 2845   0.570   1.165   2.910 -0.2197  0.2332  0.0274
  949SOL    HW1 2846   0.477   1.122   2.916 -2.2731  0.7899 -0.2494
  949SOL    HW2 2847   0.635   1.100   2.866 -0.1645  3.7858 -0.8274
  950SOL     OW 2848   1.080   0.768   0.853 -0.0338  0.5927 -0.0389
  950SOL    HW1 2849   1.095   0.668   0.882  3.2160 -1.4013  1.5193
  950SOL    HW2 2850   1.064   0.780   0.750  1.3358  1.4497 -0.7233
  951SOL     OW 2851   1.017   1.939   2.112 -0.0676 -0.9494 -0.5220
  951SOL    HW1 2852   1.072   2.003   2.052  0.0270 -1.8532  1.0653
  951SOL    HW2 2853   1.068   1.882   2.180 -1.5349 -1.8875  3.3856
  952SOL     OW 2854   0.818   1.878   0.203  0.5110  0.0326 -0.9257
  952SOL    HW1 2855   0.901   1.838   0.250  1.4376  3.3937 -0.0762
  952SOL    HW2 2856   0.744   1.907   0.266  1.0008  1.2153  1.3310
  953SOL     OW 2857   1.997   2.968   2.421  0.1157 -0.2383  0.1309
  953SOL    HW1 2858   2.063   2.892   2.420  0.2226 -0.3014  0.9623
  953SOL    HW2 2859   2.024   3.038   2.351 -1.7635  0.4681  0.3002
  954SOL     OW 2860   1.652   1.209   0.649 -0.3737  0.5128  0.1245
  954SOL    HW1 2861   1.692   1.251   0.565  0.1844  0.4671 -0.4195
  954SOL    HW2 2862   1.567   1.262   0.670  0.7620 -0.7492  1.2972
  955SOL     OW 2863   0.414   2.470   2.519 -0.5928  0.0781 -0.0878
  955SOL    HW1 2864   0.384   2.530   2.444 -1.3916  1.1867  0.0640
  955SOL    HW2 2865   0.503   2.500   2.557 -2.5951  1.2620  0.3800
  956SOL     OW 2866   1.933   0.146   1.538  0.0545  0.1163 -0.0687
  956SOL    HW1 2867   2.011   0.205   1.513 -2.0935 -1.2730  0.9973
  956SOL    HW2 2868   1.869   0.199   1.590 -2.0251 -2.3636 -1.4117
  957SOL     OW 2869   1.699   2.014   2.723  0.1915 -0.0547 -0.6290
  957SOL    HW1 2870   1.641   1.971   2.653 -0.6825 -0.3698  0.5548
  957SOL    HW2 2871   1.672   1.980   2.810 -0.4772  0.7326 -2.0396
  958SOL     OW 2872   1.206   2.331   1.298  0.2545 -0.0045  0.0543
  958SOL    HW1 2873   1.166   2.241   1.276 -1.5298  1.9801 -0.4746
  958SOL    HW2 2874   1.292   2.324   1.350  0.1796  1.0097  1.8766
  959SOL     OW 2875   1.961   2.391   3.113 -0.5076  0.6796 -0.0404
  959SOL    HW1 2876   1.981   2.310   0.052  0.0780 -1.0251  0.1163
  959SOL    HW2 2877   1.885   2.370   3.048 -0.0881 -0.1140 -2.5789
  960SOL     OW 2878   3.049   0.321   2.668 -0.8488 -0.0424 -0.0926
  960SOL    HW1 2879   0.021   0.271   2.699  2.6804 -0.8386  2.1264
  960SOL    HW2 2880   3.076   0.418   2.652 -1.9401  4.2938 -1.9277
  961SOL     OW 2881   0.749   1.006   2.764  0.4915  0.4984  0.0611
  961SOL    HW1 2882   0.831   1.019   2.818 -1.4505  1.6193 -0.2407
  961SOL    HW2 2883   0.752   0.917   2.712 -0.4906 -0.8041  0.1337
  962SOL     OW 2884   1.141   1.269   2.928 -1.1449 -0.2891  0.4543
  962SOL    HW1 2885   1.188   1.272   2.834 -1.3326  0.1933  0.6574
  962SOL    HW2 2886   1.210   1.266   3.005 -0.8207 -1.4620  1.2773
  963SOL     OW 2887   2.434   1.825   3.073  0.1370  0.8872  0.3460
  963SOL    HW1 2888   2.522   1.776   3.079  1.0002 -1.8196  1.8500
  963SOL    HW2 2889   2.389   1.821   2.982  1.3453 -0.1613  1.1016
  964SOL     OW 2890   1.367   2.553   1.077  0.1501  0.1037 -0.4979
  964SOL    HW1 2891   1.357   2.547   0.979  2.7133 -0.2876  4.0416
  964SOL    HW2 2892   1.275   2.554   1.122 -0.0087 -1.0276 -0.2001
  965SOL     OW 2893   1.036   1.703   0.902 -0.2191  0.6815 -0.7135
  965SOL    HW1 2894   0.976   1.744   0.971  1.8239  0.5772 -1.5489
  965SOL    HW2 2895   1.044   1.603   0.913  0.4997  1.9922 -0.6125
  966SOL     OW 2896   3.012   1.495   3.005 -0.2469  0.4091  0.0402
  966SOL    HW1 2897   2.985   1.591   3.016  0.0546 -0.9988 -1.7354
  966SOL    HW2 2898   2.944   1.438   3.051  0.3919 -3.2035  2.5260
  967SOL     OW 2899   1.835   0.310   1.927 -0.2012 -0.0113  0.1191
  967SOL    HW1 2900   1.805   0.238   1.993 -1.2755  1.8013  0.1152
  967SOL    HW2 2901   1.937   0.303   1.917  0.2676 -1.3302 -1.1460
  968SOL     OW 2902   1.795   0.998   0.587 -0.5610  0.5126 -0.2281
  968SOL    HW1 2903   1.733   1.072   0.619 -0.4293  1.3210  0.0503
  968SOL    HW2 2904   1.772   0.976   0.487 -1.1041 -2.3381 -2.0932
  969SOL     OW 2905   0.177   1.343   2.221  0.0511 -0.0099  0.9379
  969SOL    HW1 2906   0.117   1.346   2.138 -0.7720  3.0452 -1.3848
  969SOL    HW2 2907   0.217   1.435   2.227 -1.0990  0.5235 -1.7240
  970SOL     OW 2908   2.377   1.161   0.919 -0.0849  0.1220  0.0558
  970SOL    HW1 2909   2.479   1.147   0.941  1.8470 -1.9539 -0.5844
  970SOL    HW2 2910   2.347   1.105   0.841  2.4131 -1.0352  2.6155
  971SOL     OW 2911   0.535   0.224   1.421 -0.2344  0.7614  0.7329
  971SOL    HW1 2912   0.546   0.327   1.443  0.6059  2.6297  1.9335
  971SOL    HW2 2913   0.439   0.194   1.417 -1.6966  0.1017  0.9911
  972SOL     OW 2914   0.394   0.813   2.716 -0.0270  0.2403 -0.0189
  972SOL    HW1 2915   0.404   0.853   2.807 -1.3475 -2.0888 -1.9932
  972SOL    HW2 2916   0.383   0.882   2.637  0.2716 -0.1717  0.0827
  973SOL     OW 2917   0.313   1.046   1.065  0.3882 -0.5169  0.3233
  973SOL    HW1 2918   0.256   1.127   1.084  1.7822  0.8647 -0.2060
  973SOL    HW2 2919   0.278   0.961   1.108 -1.5869 -0.5862  1.5202
  974SOL     OW 2920   2.171   0.869   1.904  0.7710 -0.0630  0.1905
  974SOL    HW1 2921   2.138   0.814   1.825  0.2722  0.9018  0.7076
  974SOL    HW2 2922   2.249   0.929   1.879 -2.4229 -0.3073 -0.4912
  975SOL     OW 2923   2.578   3.093   3.094  0.2276 -0.4099  0.3569
  975SOL    HW1 2924   2.506   3.043   3.046 -2.2830  1.7061  0.9547
  975SOL    HW2 2925   2.566   3.083   0.078 -0.0266 -0.6242 -1.8298
  976SOL     OW 2926   3.110   1.162   1.588 -0.3000 -0.1822 -0.5114
  976SOL    HW1 2927   0.027   1.243   1.536 -2.1016  1.4458  0.3173
  976SOL    HW2 2928   0.053   1.148   1.666 -0.6533  0.1316 -3.1674
  977SOL     OW 2929   1.141   2.930   0.183 -0.2253  0.4519  0.1568
  977SOL    HW1 2930   1.206   2.912   0.110 -2.0117  1.4157  2.7770
  977SOL    HW2 2931   1.049   2.891   0.163 -0.6673  0.9712  2.1860
  978SOL     OW 2932   0.670   1.589   0.295  0.1875  0.8074 -0.5476
  978SOL    HW1 2933   0.687   1.660   0.222 -1.6991 -0.2089  0.8657
  978SOL    HW2 2934   0.704   1.498   0.265 -0.4118  0.8595  1.0864
  979SOL     OW 2935   1.452   1.661   1.355 -0.6551 -0.4866  0.1149
  979SOL    HW1 2936   1.488   1.700   1.446  0.0076  2.8246 -2.0430
  979SOL    HW2 2937   1.495   1.570   1.330  2.3515  1.8940  1.9905
  980SOL     OW 2938   0.417   1.408   1.945  0.2138 -0.2557 -0.0885
  980SOL    HW1 2939   0.422   1.505   1.977  0.6248 -3.8049 -1.4949
  980SOL    HW2 2940   0.414   1.397   1.841 -0.3514 -0.5475  2.7472
  981SOL     OW 2941   3.033   1.430   0.218  0.2617 -0.5293 -0.1204
  981SOL    HW1 2942   3.037   1.449   0.322  1.4870  0.8806  1.2347
  981SOL    HW2 2943   0.010   1.439   0.176 -0.7388 -2.7770  0.6309
  982SOL     OW 2944   2.503   2.724   2.423 -0.0337  0.4983 -0.0447
  982SOL    HW1 2945   2.417   2.674   2.452  0.5948  3.3136  1.1217
  982SOL    HW2 2946   2.512   2.811   2.470  0.0971 -0.0613  2.0412
  983SOL     OW 2947   1.225   0.492   1.241 -0.2233 -0.8255 -0.0767
  983SOL    HW1 2948   1.310   0.438   1.256  1.9452  2.1449  0.1349
  983SOL    HW2 2949   1.161   0.431   1.189 -0.8821 -2.7247 -2.1675
  984SOL     OW 2950   1.091   0.062   2.797 -0.0932  0.0276  0.4083
  984SOL    HW1 2951   1.186   0.088   2.827 -0.9835  0.8650 -0.8981
  984SOL    HW2 2952   1.074   0.097   2.698  0.4212 -3.2126 -1.0808
  985SOL     OW 2953   1.756   2.375   1.656 -0.1285  0.1736 -0.1968
  985SOL    HW1 2954   1.689   2.452   1.629 -1.3133 -0.3194  0.4701
  985SOL    HW2 2955   1.819   2.354   1.575  0.7647 -1.3294 -0.9406
  986SOL     OW 2956   2.521   0.200   2.226  0.4638  0.4361 -0.2392
  986SOL    HW1 2957   2.489   0.282   2.280  0.0667  0.6130  0.9419
  986SOL    HW2 2958   2.531   0.225   2.130 -1.2610 -0.7072 -2.0869
  987SOL     OW 2959   2.577   0.615   2.306  0.3214  0.1403 -0.2847
  987SOL    HW1 2960   2.679   0.601   2.292  0.0138  0.9733  1.1854
  987SOL    HW2 2961   2.547   0.711   2.283  3.4002 -1.2403  1.4244
  988SOL     OW 2962   2.474   0.764   2.803 -0.3561  0.5220  0.1511
  988SOL    HW1 2963   2.387   0.737   2.840  0.0980  0.9145 -0.6819
  988SOL    HW2 2964   2.456   0.835   2.734 -1.6618 -2.2295  0.6492
  989SOL     OW 2965   2.274   1.683   2.036 -0.4279  0.7452  0.1127
  989SOL    HW1 2966   2.217   1.635   2.108 -2.7577  1.2087 -1.3630
  989SOL    HW2 2967   2.342   1.738   2.091  0.0447  1.9101 -1.7030
  990SOL     OW 2968   0.387   1.213   2.675  0.4099 -0.0265 -0.3110
  990SOL    HW1 2969   0.295   1.246   2.648 -0.9188  1.9977  2.5677
  990SOL    HW2 2970   0.423   1.260   2.759  1.1255 -0.0903 -1.0820
  991SOL     OW 2971   0.560   1.777   2.853 -0.1262 -0.2833 -0.0404
  991SOL    HW1 2972   0.520   1.721   2.779 -2.5469  0.0578 -0.0838
  991SOL    HW2 2973   0.490   1.834   2.897 -0.3458 -1.0817  0.1936
  992SOL     OW 2974   2.870   1.725   1.888  0.0243  0.6039 -0.2291
  992SOL    HW1 2975   2.786   1.788   1.873 -1.6064 -1.1883 -1.6080
  992SOL    HW2 2976   2.932   1.741   1.969 -0.0627  1.5106 -4.0444
  993SOL     OW 2977   0.364   0.033   0.708 -0.1045 -0.9240 -0.2692
  993SOL    HW1 2978   0.443   3.117   0.764  0.2773  0.0217  1.4912
  993SOL    HW2 2979   0.396   0.124   0.673  0.1935 -1.7089  1.5500
  994SOL     OW 2980   0.431   1.832   1.457  0.9595  0.0309  0.8596
  994SOL    HW1 2981   0.513   1.836   1.511 -0.5626  1.5249 -1.8726
  994SOL    HW2 2982   0.369   1.914   1.463  0.5140  0.7626 -5.0930
  995SOL     OW 2983   2.248   1.510   2.728  0.6563 -0.6765 -0.3104
  995SOL    HW1 2984   2.218   1.603   2.759 -2.1701  2.2801  0.7918
  995SOL    HW2 2985   2.352   1.506   2.729  1.8803 -0.1368 -0.8937
  996SOL     OW 2986   2.075   1.285   2.737  0.3424  0.6708 -0.2167
  996SOL    HW1 2987   2.130   1.371   2.749  2.6178  2.3004  1.7278
  996SOL    HW2 2988   1.992   1.301   2.679  0.1166  0.1591  2.3779
  997SOL     OW 2989   1.845   0.738   1.688  0.3095  0.1463  0.7198
  997SOL    HW1 2990   1.860   0.644   1.640 -1.1363  0.3229 -2.0359
  997SOL    HW2 2991   1.759   0.784   1.654 -0.1370  1.3920 -3.2936
  998SOL     OW 2992   2.213   2.161   1.034 -0.0542  0.7281  0.2511
  998SOL    HW1 2993   2.248   2.070   1.001  1.2009 -0.0337  3.1398
  998SOL    HW2 2994   2.260   2.170   1.118 -2.5221  0.0417 -0.8676
  999SOL     OW 2995   2.366   2.189   0.720  0.1244 -0.0063 -0.1494
  999SOL    HW1 2996   2.357   2.218   0.816  1.0869 -2.5864 -3.4387
  999SOL    HW2 2997   2.279   2.149   0.691  0.8789 -0.5919 -1.2773
 1000SOL     OW 2998   0.977   3.016   2.980  0.4474 -0.9481 -0.2780
 1000SOL    HW1 2999   1.007   3.062   2.891  1.4518  0.4754 -0.3755
 1000SOL    HW2 3000   1.015   2.923   2.991 -2.8550 -0.0744  1.6116
   3.11715   3.11715   3.11715
