1000 SPC/Fw water molecules t= 449.00000 step= 449000
 3000
    1SOL     OW    1   3.039   3.066   1.433  0.0343  0.3918  0.4068
    1SOL    HW1    2   0.020   3.071   1.368  0.5027 -0.8659  0.1960
    1SOL    HW2    3   3.042   2.977   1.485 -0.3091  0.0065  0.5357
    2SOL     OW    4   2.765   0.033   3.068 -0.0919  0.0337  0.2337
    2SOL    HW1    5   2.863   0.008   3.093  1.5170  0.6173  2.0274
    2SOL    HW2    6   2.702   0.027   0.046  1.4868  1.1866  1.9632
    3SOL     OW    7   1.282   2.853   0.052 -0.2425  0.1542  0.9705
    3SOL    HW1    8   1.305   2.794   3.074 -2.2175  2.5207  0.6607
    3SOL    HW2    9   1.371   2.874   0.101 -0.4973 -1.3379  1.8279
    4SOL     OW   10   1.198   2.733   2.357 -0.0124  0.2115 -0.3503
    4SOL    HW1   11   1.261   2.654   2.338 -2.6787  1.8148 -0.0977
    4SOL    HW2   12   1.105   2.694   2.386  0.3270 -0.5935  1.6188
    5SOL     OW   13   2.310   0.260   2.027 -0.0598 -0.3574 -0.5183
    5SOL    HW1   14   2.363   0.260   1.940 -0.8996 -0.5911  0.3397
    5SOL    HW2   15   2.338   0.340   2.082 -2.0781 -1.8909 -0.2335
    6SOL     OW   16   2.506   2.136   1.259  0.1362 -0.1970  0.6401
    6SOL    HW1   17   2.539   2.069   1.186  2.9437 -0.3366 -0.8447
    6SOL    HW2   18   2.543   2.222   1.219  1.4043  0.7906 -1.8639
    7SOL     OW   19   1.295   2.070   0.510 -0.5022  0.2768 -0.6485
    7SOL    HW1   20   1.305   2.073   0.611  0.6293  0.1222  0.6560
    7SOL    HW2   21   1.205   2.109   0.487  0.7003  1.7950 -0.7833
    8SOL     OW   22   0.299   0.934   0.679 -0.4012  0.2772  0.6438
    8SOL    HW1   23   0.367   0.981   0.739 -0.6939 -0.6949 -2.1753
    8SOL    HW2   24   0.300   0.976   0.590  1.9171 -0.5481 -0.6597
    9SOL     OW   25   0.341   2.981   1.587 -0.2470 -0.8100 -0.9738
    9SOL    HW1   26   0.352   2.883   1.562  0.7869  0.5728  0.7009
    9SOL    HW2   27   0.323   2.988   1.687 -1.2977 -1.6294  2.1305
   10SOL     OW   28   1.166   2.333   0.603 -0.0967  0.2495  0.1299
   10SOL    HW1   29   1.266   2.344   0.593 -1.8778 -1.4681  0.8597
   10SOL    HW2   30   1.123   2.402   0.661  2.3357 -0.5928  0.0418
   11SOL     OW   31   2.181   1.258   1.299 -0.1155 -0.1095  0.0745
   11SOL    HW1   32   2.213   1.164   1.331  0.4584 -4.1794 -0.3333
   11SOL    HW2   33   2.215   1.280   1.206 -1.3926 -2.4280  1.5260
   12SOL     OW   34   0.013   0.849   1.970  0.2734  0.2580 -0.0840
   12SOL    HW1   35   0.005   0.903   1.885 -0.8739 -0.5563  1.3486
   12SOL    HW2   36   0.102   0.811   1.985 -2.4294 -1.3872  1.6142
   13SOL     OW   37   2.352   0.051   0.108 -0.2328 -0.5335  0.5036
   13SOL    HW1   38   2.287   0.074   0.181 -0.8701  0.7352  2.1456
   13SOL    HW2   39   2.294   0.027   0.024 -1.1479  0.6520 -1.6840
   14SOL     OW   40   1.379   2.028   0.213 -0.3560  0.1330  0.5680
   14SOL    HW1   41   1.407   2.046   0.310 -1.8910  1.3867 -0.2235
   14SOL    HW2   42   1.398   2.111   0.162  1.0602 -1.5417  1.0705
   15SOL     OW   43   2.969   2.373   2.062 -1.1154 -0.0547  0.3589
   15SOL    HW1   44   3.037   2.443   2.088 -0.2817  1.6281  1.7086
   15SOL    HW2   45   3.002   2.279   2.071  0.2947  0.7185 -0.5755
   16SOL     OW   46   2.775   0.511   1.038 -0.8002 -0.0762  0.0075
   16SOL    HW1   47   2.813   0.418   1.028  0.1052 -2.6028  0.2153
   16SOL    HW2   48   2.834   0.573   1.096 -3.1090 -2.5311 -1.7476
   17SOL     OW   49   0.733   0.469   0.874 -0.0783 -0.2260  0.2250
   17SOL    HW1   50   0.783   0.462   0.966 -0.0508  1.0550  2.4123
   17SOL    HW2   51   0.791   0.428   0.800 -2.8360 -1.2109  0.7599
   18SOL     OW   52   0.467   3.071   0.409 -0.1716 -0.3826  0.0614
   18SOL    HW1   53   0.500   3.017   0.487 -1.5206 -1.0590 -1.5190
   18SOL    HW2   54   0.541   0.013   0.351  0.6603 -2.1131  0.5240
   19SOL     OW   55   1.407   1.007   0.919 -0.4520  0.4768 -0.5889
   19SOL    HW1   56   1.456   1.093   0.897  0.8742 -2.5054 -1.5910
   19SOL    HW2   57   1.379   0.979   1.013 -0.0341  2.2852 -1.8625
   20SOL     OW   58   2.268   1.820   2.590  0.0933  0.2192 -0.5098
   20SOL    HW1   59   2.238   1.914   2.570  1.5620 -2.4485 -1.2822
   20SOL    HW2   60   2.369   1.824   2.608  0.5801  0.7540  0.3888
   21SOL     OW   61   1.441   2.791   0.464  0.2506 -0.1603  0.0252
   21SOL    HW1   62   1.451   2.695   0.422 -0.6956 -2.2223 -0.1198
   21SOL    HW2   63   1.533   2.836   0.484  1.5607  1.0566  1.0864
   22SOL     OW   64   2.371   1.011   0.315 -0.5099 -0.2545 -0.0670
   22SOL    HW1   65   2.347   1.017   0.413  0.5342  0.8277 -1.2781
   22SOL    HW2   66   2.318   1.082   0.261  0.1653  0.2680 -1.9352
   23SOL     OW   67   0.790   0.410   1.933 -0.3122  0.1060  0.0936
   23SOL    HW1   68   0.794   0.463   1.847 -0.2252 -0.0488  3.8918
   23SOL    HW2   69   0.877   0.411   1.981 -2.6525  1.4372  0.7813
   24SOL     OW   70   1.934   2.396   0.483 -0.3380 -0.9257  0.2481
   24SOL    HW1   71   1.985   2.377   0.568 -0.9565  1.3463 -0.6849
   24SOL    HW2   72   1.843   2.353   0.482 -1.1421  0.5777  0.0792
   25SOL     OW   73   1.699   0.296   2.512 -0.1540 -0.1255  0.1504
   25SOL    HW1   74   1.679   0.318   2.610 -1.7708  0.8639  0.0384
   25SOL    HW2   75   1.613   0.281   2.464  0.7471  0.6088  3.7945
   26SOL     OW   76   1.553   2.815   2.833 -0.0657  0.1455  0.0951
   26SOL    HW1   77   1.474   2.758   2.857  1.9905  1.1408 -2.2393
   26SOL    HW2   78   1.627   2.808   2.902 -0.0943  2.4339  2.2877
   27SOL     OW   79   1.241   0.231   1.011  0.0281  0.5505  0.3635
   27SOL    HW1   80   1.176   0.241   1.090 -1.7586  0.1266 -0.2885
   27SOL    HW2   81   1.244   0.131   0.987  0.2868  0.7685 -0.1002
   28SOL     OW   82   0.525   1.671   0.945  0.0454  0.1584  0.4958
   28SOL    HW1   83   0.614   1.644   0.990  0.5950  0.2414  1.8622
   28SOL    HW2   84   0.444   1.674   1.009 -1.6346  0.6473 -0.9199
   29SOL     OW   85   2.564   0.730   1.396  0.0155 -0.1540  0.0174
   29SOL    HW1   86   2.467   0.746   1.416 -0.7372  1.4497 -0.7994
   29SOL    HW2   87   2.619   0.775   1.465  0.6120  0.7204 -1.8967
   30SOL     OW   88   1.643   2.443   1.524  0.2411 -0.2600  0.0425
   30SOL    HW1   89   1.732   2.487   1.526 -2.9684 -3.0748  0.4671
   30SOL    HW2   90   1.602   2.474   1.434  0.3893  0.2487 -1.0319
   31SOL     OW   91   1.809   2.887   1.449  0.6371  0.4455  0.0488
   31SOL    HW1   92   1.822   2.849   1.353 -2.0579  1.6710  1.5495
   31SOL    HW2   93   1.878   2.852   1.517  0.0087  0.3490 -0.7363
   32SOL     OW   94   2.134   1.433   2.021  0.4185 -0.1383  0.1511
   32SOL    HW1   95   2.203   1.390   2.086  0.4444 -0.7905 -2.0765
   32SOL    HW2   96   2.180   1.479   1.948 -0.6985 -0.4927  4.4967
   33SOL     OW   97   2.400   2.998   2.411  0.3831  0.4557 -0.0043
   33SOL    HW1   98   2.365   3.093   2.401 -1.0124 -0.6870 -0.2309
   33SOL    HW2   99   2.353   2.934   2.346  1.1220 -0.8572 -0.1223
   34SOL     OW  100   2.065   0.677   0.800  0.0611 -0.0993 -0.1453
   34SOL    HW1  101   2.097   0.631   0.716 -0.2795  0.0296 -1.6423
   34SOL    HW2  102   1.966   0.694   0.784  0.7550 -1.9022  1.9936
   35SOL     OW  103   0.268   1.525   1.879  0.0561  0.4609 -0.2848
   35SOL    HW1  104   0.296   1.476   1.967 -0.4909 -0.1819 -0.0054
   35SOL    HW2  105   0.208   1.452   1.838 -2.7616 -2.2333 -0.4468
   36SOL     OW  106   2.600   2.283   2.803  0.0854 -0.3333 -0.0883
   36SOL    HW1  107   2.693   2.309   2.763 -1.0644  0.1291  1.3948
   36SOL    HW2  108   2.569   2.357   2.872 -1.8309  2.1666 -0.0005
   37SOL     OW  109   1.170   2.701   1.705 -0.0496 -0.3784 -0.2413
   37SOL    HW1  110   1.187   2.753   1.791  2.7965 -1.0695 -2.3384
   37SOL    HW2  111   1.246   2.631   1.688 -0.7831  0.8011 -1.1933
   38SOL     OW  112   0.888   0.892   2.228  0.3677  0.1386 -0.0804
   38SOL    HW1  113   0.886   0.790   2.238  0.2946 -2.2731 -1.3268
   38SOL    HW2  114   0.889   0.925   2.133 -0.5289  1.2872 -0.5437
   39SOL     OW  115   1.849   0.769   1.640  0.5273 -0.3820 -0.4664
   39SOL    HW1  116   1.890   0.695   1.584 -0.5925 -1.0808 -2.3441
   39SOL    HW2  117   1.795   0.729   1.714 -0.4229  1.2194 -2.5980
   40SOL     OW  118   0.883   2.180   0.737  0.0779 -0.6413  0.3721
   40SOL    HW1  119   0.972   2.123   0.733  0.1555 -0.7413  1.4688
   40SOL    HW2  120   0.819   2.144   0.808 -2.2867  0.4660 -0.8532
   41SOL     OW  121   2.227   2.114   1.103  0.2542  0.3171  0.1085
   41SOL    HW1  122   2.291   2.062   1.044 -1.0406  2.5994  1.2963
   41SOL    HW2  123   2.228   2.212   1.070 -0.5850 -1.2118 -1.9623
   42SOL     OW  124   2.530   0.610   0.555  0.1241  0.3364 -0.0240
   42SOL    HW1  125   2.534   0.531   0.489  1.5923  1.5794 -0.0559
   42SOL    HW2  126   2.598   0.598   0.631  1.3878  1.3609  2.0215
   43SOL     OW  127   0.785   0.975   2.573  0.0701  0.4438  0.3725
   43SOL    HW1  128   0.879   0.944   2.587  0.8817  2.2674 -0.8590
   43SOL    HW2  129   0.786   1.054   2.507  1.2121  3.2025 -0.5706
   44SOL     OW  130   1.816   2.795   1.213  0.3435 -0.5259 -0.0324
   44SOL    HW1  131   1.722   2.797   1.173  1.0678 -1.8764  0.3085
   44SOL    HW2  132   1.867   2.707   1.196  1.0416 -0.0760  0.5533
   45SOL     OW  133   0.472   2.661   2.863  0.1739  0.3050 -0.2742
   45SOL    HW1  134   0.449   2.637   2.959 -0.1221 -3.2013  0.8546
   45SOL    HW2  135   0.570   2.651   2.842 -1.9825 -0.2979 -0.2266
   46SOL     OW  136   0.401   2.773   1.982  0.1471  0.1966  0.1144
   46SOL    HW1  137   0.459   2.824   1.915  1.7461  1.7183  0.3123
   46SOL    HW2  138   0.451   2.728   2.060  2.3961 -1.0440  3.4421
   47SOL     OW  139   0.505   1.900   0.533 -0.5218 -0.3465  0.3377
   47SOL    HW1  140   0.575   1.832   0.499 -1.2925 -1.6655  0.6054
   47SOL    HW2  141   0.453   1.855   0.606 -1.6013 -0.4350  0.3507
   48SOL     OW  142   0.800   2.870   1.260 -0.5001  0.2455 -0.0364
   48SOL    HW1  143   0.762   2.825   1.343  0.1429  0.5470  0.3584
   48SOL    HW2  144   0.728   2.927   1.211 -2.1011  1.2679 -2.7771
   49SOL     OW  145   3.040   2.807   2.926  0.0591 -0.1845 -0.1170
   49SOL    HW1  146   0.006   2.740   2.958 -0.0066  2.8023 -2.1348
   49SOL    HW2  147   2.944   2.777   2.936  1.0115  1.5984  0.9096
   50SOL     OW  148   1.312   1.125   0.256  0.0822 -0.3853 -0.4241
   50SOL    HW1  149   1.254   1.127   0.168  1.1675 -1.2717 -2.7061
   50SOL    HW2  150   1.409   1.124   0.233  0.9745 -0.4859 -0.2203
   51SOL     OW  151   1.816   0.047   0.601  0.2772  0.7414 -0.3295
   51SOL    HW1  152   1.801   0.095   0.512  3.4830  0.6700  2.6512
   51SOL    HW2  153   1.832   0.104   0.683 -1.2447 -1.1814 -0.5150
   52SOL     OW  154   0.555   1.565   0.688 -0.3110 -0.2644  1.0265
   52SOL    HW1  155   0.556   1.599   0.781 -1.4873 -3.1074  1.6845
   52SOL    HW2  156   0.631   1.601   0.628  1.0424  0.5776  0.1270
   53SOL     OW  157   0.220   1.257   2.976  0.4127 -0.1228 -0.3369
   53SOL    HW1  158   0.145   1.206   2.937  2.6123  0.1278  0.0613
   53SOL    HW2  159   0.239   1.217   3.068 -1.3755  0.2973  1.4890
   54SOL     OW  160   2.623   2.065   2.973  0.8352 -0.1374 -0.3954
   54SOL    HW1  161   2.651   2.113   3.056 -0.7593  0.3881 -4.2565
   54SOL    HW2  162   2.613   2.135   2.898  1.9682  3.7232  1.5297
   55SOL     OW  163   2.674   2.352   1.131 -0.5611 -0.4548 -0.0068
   55SOL    HW1  164   2.759   2.329   1.186  1.1090 -0.2255 -1.5163
   55SOL    HW2  165   2.697   2.424   1.056 -0.7786 -1.4968 -1.5558
   56SOL     OW  166   1.793   0.253   1.543 -0.6176 -0.5405  0.1077
   56SOL    HW1  167   1.705   0.292   1.506 -3.1778 -0.2442 -3.3738
   56SOL    HW2  168   1.789   0.237   1.644  0.6029 -3.4169 -1.0994
   57SOL     OW  169   2.023   1.872   1.059 -0.5158  0.2361  0.1870
   57SOL    HW1  170   2.080   1.948   1.022  1.1617 -1.8794  0.7679
   57SOL    HW2  171   1.925   1.902   1.069 -0.8241  1.7150  1.6383
   58SOL     OW  172   2.489   0.463   2.141 -0.0892  0.3916  0.2321
   58SOL    HW1  173   2.580   0.456   2.183  0.3304  1.8607 -2.6760
   58SOL    HW2  174   2.459   0.557   2.148  1.1256  0.4392 -3.4316
   59SOL     OW  175   1.095   2.475   2.038  0.0408 -0.6402 -0.4804
   59SOL    HW1  176   1.033   2.468   2.119 -0.0541  0.4980 -0.7143
   59SOL    HW2  177   1.039   2.467   1.952 -2.3871  0.0741  0.4390
   60SOL     OW  178   0.777   2.636   2.794 -0.5782  0.0996 -0.1260
   60SOL    HW1  179   0.748   2.659   2.886  2.0290 -3.4004 -2.1217
   60SOL    HW2  180   0.809   2.716   2.744 -0.5205  1.3824 -0.7522
   61SOL     OW  181   0.585   2.150   0.427  0.1277  0.1502 -0.1596
   61SOL    HW1  182   0.530   2.193   0.360  0.6691  2.4497  3.9696
   61SOL    HW2  183   0.558   2.054   0.452 -0.1599 -0.8690  0.4859
   62SOL     OW  184   1.208   1.578   1.750  0.3985  0.5172 -0.5403
   62SOL    HW1  185   1.122   1.625   1.736 -0.5316 -0.1951 -2.1695
   62SOL    HW2  186   1.287   1.640   1.738 -0.2944 -3.9443  1.3584
   63SOL     OW  187   1.081   1.948   0.754  0.0052  0.1317 -0.2380
   63SOL    HW1  188   0.983   1.914   0.754 -0.6806 -0.8114  0.3090
   63SOL    HW2  189   1.141   1.868   0.727  2.9001 -1.3072 -0.9766
   64SOL     OW  190   1.392   1.592   2.810  0.0790  0.0945 -0.2015
   64SOL    HW1  191   1.335   1.664   2.865  1.2464  1.8538 -1.9579
   64SOL    HW2  192   1.391   1.495   2.854 -1.0125 -2.2934 -2.1042
   65SOL     OW  193   1.707   2.077   2.138  0.0093  0.1272 -0.0130
   65SOL    HW1  194   1.673   2.046   2.046 -0.3126 -3.1058  0.4214
   65SOL    HW2  195   1.754   2.008   2.188 -2.0401  3.0601 -1.3368
   66SOL     OW  196   0.015   0.713   1.160  0.4844 -0.1350 -0.3882
   66SOL    HW1  197   3.038   0.718   1.226  0.4457 -2.3675 -1.2173
   66SOL    HW2  198   3.077   0.714   1.063 -2.8176  1.6122  1.4493
   67SOL     OW  199   2.382   2.373   0.485 -0.2912 -0.4869 -0.6172
   67SOL    HW1  200   2.321   2.294   0.511 -1.3938 -0.3663  1.0005
   67SOL    HW2  201   2.330   2.456   0.456 -0.5226  0.8463  1.6595
   68SOL     OW  202   2.586   2.574   1.466 -0.1836  0.2952 -0.7636
   68SOL    HW1  203   2.648   2.656   1.464  0.8873 -0.4625  1.7035
   68SOL    HW2  204   2.630   2.485   1.491 -0.9220  0.7714  1.6337
   69SOL     OW  205   2.516   2.702   3.053 -0.4087 -0.0199  0.6436
   69SOL    HW1  206   2.463   2.746   2.980  0.0617 -2.0465  0.8516
   69SOL    HW2  207   2.534   2.763   0.035  0.2690 -0.5261 -0.2358
   70SOL     OW  208   0.522   1.323   2.664 -0.2056  0.0824 -0.0861
   70SOL    HW1  209   0.592   1.248   2.655  1.8606  0.2526 -0.3749
   70SOL    HW2  210   0.516   1.358   2.759 -1.7758  4.2847 -1.6856
   71SOL     OW  211   0.746   1.275   2.015  0.5708  0.1360 -0.5998
   71SOL    HW1  212   0.648   1.248   2.004  2.1909  0.8038  0.7368
   71SOL    HW2  213   0.792   1.295   1.923 -1.3615  0.9340 -0.6011
   72SOL     OW  214   2.749   1.347   1.706  0.4432  0.2437 -0.0178
   72SOL    HW1  215   2.776   1.250   1.700  1.2989 -0.5424  1.0983
   72SOL    HW2  216   2.765   1.384   1.800 -0.3805 -1.6114  0.0024
   73SOL     OW  217   0.840   1.988   2.538  0.6163 -0.1492 -0.0109
   73SOL    HW1  218   0.740   2.002   2.544  0.7087  0.3961 -0.0063
   73SOL    HW2  219   0.881   2.066   2.485 -0.0425  0.1320 -1.4875
   74SOL     OW  220   1.582   2.860   1.779 -0.3515  0.2240 -0.2063
   74SOL    HW1  221   1.528   2.871   1.863  2.5871  1.5228 -3.1524
   74SOL    HW2  222   1.682   2.861   1.798 -2.0445  1.7268 -1.9363
   75SOL     OW  223   1.185   2.633   0.998  0.3189  0.3175  0.7923
   75SOL    HW1  224   1.141   2.545   0.980 -0.5767 -0.8444 -0.4028
   75SOL    HW2  225   1.283   2.624   0.968 -1.7263 -1.5656  0.7924
   76SOL     OW  226   0.584   1.872   2.829  0.2624 -0.2675 -0.2428
   76SOL    HW1  227   0.666   1.898   2.888 -0.1841 -1.0587 -1.6052
   76SOL    HW2  228   0.595   1.822   2.741 -1.3935  1.7070  0.9127
   77SOL     OW  229   0.639   2.466   1.177 -0.1184  0.1602 -0.0094
   77SOL    HW1  230   0.575   2.542   1.164 -0.4303  0.5709 -0.7931
   77SOL    HW2  231   0.735   2.497   1.193  0.7763 -0.7534 -0.6332
   78SOL     OW  232   2.427   1.330   0.103 -0.2814  0.2707 -0.1955
   78SOL    HW1  233   2.501   1.262   0.087  1.7405 -3.1247  0.0650
   78SOL    HW2  234   2.453   1.395   0.176 -0.6333 -0.0805  0.0680
   79SOL     OW  235   0.396   1.687   2.940 -0.3723 -0.2466 -0.0838
   79SOL    HW1  236   0.423   1.595   2.917 -3.3753  0.1933 -1.2603
   79SOL    HW2  237   0.460   1.759   2.906  0.4885 -1.2615 -0.9971
   80SOL     OW  238   1.871   1.685   1.664  0.3233 -0.3283 -0.6351
   80SOL    HW1  239   1.784   1.729   1.639  0.4807 -3.7286  0.9014
   80SOL    HW2  240   1.856   1.623   1.749 -2.7179  2.7080  2.8586
   81SOL     OW  241   2.065   0.795   2.460 -0.2822  0.2485 -0.8095
   81SOL    HW1  242   2.062   0.715   2.397 -0.1842 -0.2378 -0.2220
   81SOL    HW2  243   2.162   0.809   2.493 -0.6392 -0.9663  2.0395
   82SOL     OW  244   1.621   1.838   1.628  0.2201 -0.4024 -0.4241
   82SOL    HW1  245   1.556   1.821   1.704  0.4072  1.2912  1.2138
   82SOL    HW2  246   1.577   1.860   1.538  3.1539 -1.2036 -2.7272
   83SOL     OW  247   3.007   0.087   2.781 -0.2291  0.4257 -0.6801
   83SOL    HW1  248   3.040   3.091   2.767  3.6848 -2.0813 -0.7348
   83SOL    HW2  249   2.908   0.093   2.798  6.1085  1.4963 -0.9854
   84SOL     OW  250   0.794   1.192   0.239  0.2448 -0.6150 -0.0234
   84SOL    HW1  251   0.816   1.100   0.199 -0.7946  2.6549 -0.0150
   84SOL    HW2  252   0.840   1.203   0.332 -0.1732 -0.8164  3.0612
   85SOL     OW  253   2.068   1.658   1.227  0.3913  0.0872 -0.2044
   85SOL    HW1  254   2.068   1.745   1.175 -1.0692  1.6699  1.0682
   85SOL    HW2  255   2.089   1.578   1.174 -1.6661 -0.6789 -0.5258
   86SOL     OW  256   0.623   0.877   1.078 -0.2519  0.3360  0.5415
   86SOL    HW1  257   0.656   0.951   1.136 -1.6548  0.6975  1.0898
   86SOL    HW2  258   0.524   0.868   1.084 -0.5931  1.7675 -0.9054
   87SOL     OW  259   2.738   2.053   2.437 -0.4613  0.3143 -0.0629
   87SOL    HW1  260   2.676   2.084   2.515 -1.5544  0.8582  2.2807
   87SOL    HW2  261   2.726   2.120   2.361 -0.8414 -0.5927 -1.7674
   88SOL     OW  262   0.110   2.843   0.120 -0.1054 -0.1668 -0.5767
   88SOL    HW1  263   0.076   2.930   0.079 -1.1316  1.6168  0.5471
   88SOL    HW2  264   0.160   2.865   0.209  0.4625  0.3081 -0.3634
   89SOL     OW  265   1.354   0.118   0.461 -0.0636 -0.1620 -0.3271
   89SOL    HW1  266   1.423   0.045   0.445  0.8108 -1.4655  1.2955
   89SOL    HW2  267   1.390   0.178   0.535 -2.9030  0.3313 -2.5147
   90SOL     OW  268   2.816   1.292   2.422  0.5543 -0.9827 -0.4849
   90SOL    HW1  269   2.712   1.286   2.430 -2.7222 -0.5136  1.1391
   90SOL    HW2  270   2.848   1.194   2.416 -1.2293 -1.2562  1.1537
   91SOL     OW  271   2.038   0.023   1.051 -0.1944 -0.4651 -0.7363
   91SOL    HW1  272   2.057   0.015   1.155 -1.2434  0.0324  2.4784
   91SOL    HW2  273   2.087   3.051   0.996 -2.2213  0.1947  1.8390
   92SOL     OW  274   1.659   1.478   0.656  0.1022 -0.0856  0.3290
   92SOL    HW1  275   1.567   1.451   0.639  1.6081  1.1463  2.4629
   92SOL    HW2  276   1.651   1.544   0.730 -1.4817  1.7286 -0.4908
   93SOL     OW  277   0.279   1.545   0.280 -0.1105 -0.4540  0.1832
   93SOL    HW1  278   0.234   1.601   0.346 -1.5460  2.3853 -0.5203
   93SOL    HW2  279   0.346   1.592   0.224 -0.0367 -2.6950 -1.4913
   94SOL     OW  280   0.920   2.604   1.583 -0.0826  0.2948  0.4191
   94SOL    HW1  281   1.011   2.615   1.628  1.3620  1.5065  0.4137
   94SOL    HW2  282   0.922   2.516   1.540  0.6793  1.3047  1.6268
   95SOL     OW  283   3.000   0.706   0.924 -0.8399  0.4505 -0.3866
   95SOL    HW1  284   2.997   0.777   0.848  1.1692 -1.5155  1.5739
   95SOL    HW2  285   2.997   0.617   0.873  0.7814 -1.7903  1.3111
   96SOL     OW  286   0.583   2.923   1.808 -0.2341  0.4969  0.0706
   96SOL    HW1  287   0.573   2.983   1.730 -0.9098 -0.5326 -2.7694
   96SOL    HW2  288   0.654   2.845   1.794  2.2623  0.2148  0.2747
   97SOL     OW  289   2.421   0.913   1.070 -0.1094 -0.8042 -0.3368
   97SOL    HW1  290   2.433   0.815   1.084 -3.5571  0.6978  1.3668
   97SOL    HW2  291   2.395   0.941   0.979  2.8581 -0.8735  2.0356
   98SOL     OW  292   3.062   2.475   1.798 -0.2674 -0.1100 -0.4126
   98SOL    HW1  293   3.029   2.450   1.889  1.1266  1.5820  0.3267
   98SOL    HW2  294   2.989   2.477   1.727 -2.1563  0.7353 -1.2586
   99SOL     OW  295   2.969   0.429   1.677 -0.7771  0.5634  0.0692
   99SOL    HW1  296   3.012   0.341   1.641  1.9964 -0.1840 -1.9564
   99SOL    HW2  297   2.871   0.415   1.700 -1.7784 -2.0993  0.2497
  100SOL     OW  298   2.015   0.362   2.690  0.0643 -0.3100 -0.1501
  100SOL    HW1  299   2.118   0.350   2.689 -0.5377 -0.3390  1.4571
  100SOL    HW2  300   1.981   0.345   2.594 -0.4479  0.2954 -0.8152
  101SOL     OW  301   0.958   0.131   2.075 -0.3947 -0.2010 -0.2376
  101SOL    HW1  302   0.901   0.059   2.121 -0.6034  1.6849  0.6757
  101SOL    HW2  303   1.032   0.157   2.145  2.3689  0.5146  0.3528
  102SOL     OW  304   0.803   0.782   1.461 -0.1175 -0.5041 -0.3217
  102SOL    HW1  305   0.723   0.778   1.519  2.9812 -0.1142 -0.7958
  102SOL    HW2  306   0.814   0.865   1.409 -2.0564 -2.1519  1.1615
  103SOL     OW  307   1.007   0.693   2.878 -0.2514 -0.0027  0.1971
  103SOL    HW1  308   1.051   0.710   2.785  0.0957 -0.6729 -1.3001
  103SOL    HW2  309   0.909   0.662   2.870  1.1209 -2.8554 -1.4759
  104SOL     OW  310   0.279   0.315   2.025  0.3999  0.4078 -0.1040
  104SOL    HW1  311   0.301   0.260   1.940 -1.9150  1.1053 -1.5181
  104SOL    HW2  312   0.296   0.262   2.105 -0.7030  0.4186 -0.4391
  105SOL     OW  313   2.764   2.328   1.526 -0.2173  0.1811 -0.1266
  105SOL    HW1  314   2.764   2.231   1.537 -2.3009 -0.1355 -0.3223
  105SOL    HW2  315   2.752   2.367   1.619 -1.8347 -1.7334 -2.0967
  106SOL     OW  316   1.047   0.007   0.785  0.3578 -0.3663  0.4654
  106SOL    HW1  317   1.041   0.053   0.696  2.3268  0.5104  0.0718
  106SOL    HW2  318   1.123   0.036   0.843  0.1201 -0.0735  1.7348
  107SOL     OW  319   2.945   2.031   1.273  0.3938 -0.3960  0.0200
  107SOL    HW1  320   2.940   1.948   1.208  0.3667  0.4123  0.1711
  107SOL    HW2  321   2.882   2.023   1.351  0.5514  1.9481  0.2379
  108SOL     OW  322   0.058   2.175   0.475 -0.0557  0.3661  0.5433
  108SOL    HW1  323   0.120   2.103   0.445 -1.9077  0.2695  2.1095
  108SOL    HW2  324   0.096   2.224   0.552 -1.0453 -2.8969  1.1822
  109SOL     OW  325   1.532   0.102   0.762  0.2949  0.1805 -0.2489
  109SOL    HW1  326   1.473   0.094   0.843  1.2157 -2.9629  1.5019
  109SOL    HW2  327   1.512   0.191   0.718  0.6196  0.6906 -2.6563
  110SOL     OW  328   1.623   1.654   0.876  0.0078 -0.1687  0.5216
  110SOL    HW1  329   1.712   1.644   0.927  2.1017  1.8202  2.4714
  110SOL    HW2  330   1.549   1.655   0.948 -0.1556 -0.0175  0.5995
  111SOL     OW  331   1.841   2.577   1.922  0.5936  0.5265  0.4550
  111SOL    HW1  332   1.938   2.556   1.906 -3.3534  0.9943  0.3898
  111SOL    HW2  333   1.816   2.547   2.019 -2.1825  1.9868  1.1335
  112SOL     OW  334   1.722   2.157   2.504  0.4123 -0.2421  0.4605
  112SOL    HW1  335   1.631   2.110   2.501  0.6210 -1.5033  0.5966
  112SOL    HW2  336   1.727   2.254   2.474 -0.5271 -2.7535 -1.5056
  113SOL     OW  337   2.038   1.859   2.078 -0.4852 -0.2045  0.3179
  113SOL    HW1  338   2.124   1.804   2.067  1.5447 -1.4249 -3.1644
  113SOL    HW2  339   2.003   1.880   1.985  1.5728 -0.0616  0.3416
  114SOL     OW  340   0.079   1.014   1.204 -0.1177 -0.0508 -0.2023
  114SOL    HW1  341   0.038   0.924   1.193  1.4923  0.1633 -2.3957
  114SOL    HW2  342   0.001   1.077   1.213  0.5703 -0.3381  0.9900
  115SOL     OW  343   2.763   0.735   2.671  0.1928  0.3327 -0.1487
  115SOL    HW1  344   2.834   0.805   2.649 -1.3688  0.7860 -1.3649
  115SOL    HW2  345   2.686   0.727   2.604 -1.8565 -3.5139  0.2592
  116SOL     OW  346   2.828   0.484   2.791  0.1247 -0.1476 -0.4598
  116SOL    HW1  347   2.806   0.584   2.776  1.1693 -0.7353 -0.7561
  116SOL    HW2  348   2.775   0.422   2.730  2.0868 -0.9260 -1.0466
  117SOL     OW  349   2.594   2.665   0.588  0.3459 -0.2946  0.3963
  117SOL    HW1  350   2.587   2.580   0.647 -0.1728  1.5219  2.8015
  117SOL    HW2  351   2.578   2.641   0.489  2.4538 -1.0546  1.5431
  118SOL     OW  352   0.671   1.930   2.208  0.1933 -0.3916 -0.1763
  118SOL    HW1  353   0.633   2.010   2.261 -1.5107  0.7013  3.4759
  118SOL    HW2  354   0.745   1.964   2.146  0.6713 -1.6493 -0.1363
  119SOL     OW  355   0.734   2.796   0.544  0.0049 -0.0091  0.0869
  119SOL    HW1  356   0.781   2.850   0.471  0.0869  1.1557  1.1486
  119SOL    HW2  357   0.643   2.843   0.575 -0.3177  0.1154  0.2108
  120SOL     OW  358   1.274   0.593   0.510  0.2790 -0.2684 -0.0511
  120SOL    HW1  359   1.308   0.661   0.576  2.0809 -1.6878  0.3496
  120SOL    HW2  360   1.207   0.641   0.452  0.5838  1.1167 -0.0909
  121SOL     OW  361   1.741   0.494   0.764  0.1369  0.5339  0.3583
  121SOL    HW1  362   1.658   0.500   0.817  1.3000  2.5750 -0.5687
  121SOL    HW2  363   1.779   0.589   0.757 -1.8583  1.2603 -0.5838
  122SOL     OW  364   2.113   1.276   2.377  0.1460 -0.1651 -0.3458
  122SOL    HW1  365   2.142   1.348   2.312 -1.2560 -1.0051  1.3940
  122SOL    HW2  366   2.024   1.242   2.354  3.2457  2.0044  1.4988
  123SOL     OW  367   0.801   1.149   0.974  0.4115  0.1492 -0.3163
  123SOL    HW1  368   0.893   1.105   0.957 -0.6784  1.9072 -0.2981
  123SOL    HW2  369   0.776   1.217   0.900  0.3610 -1.4306  1.3916
  124SOL     OW  370   0.564   0.387   2.735 -0.2454  0.4304 -0.2960
  124SOL    HW1  371   0.520   0.354   2.822  1.1059  0.3204 -0.5776
  124SOL    HW2  372   0.666   0.378   2.735  0.0600  2.0817 -2.3301
  125SOL     OW  373   0.901   0.004   0.029  0.4797 -0.7603  0.5279
  125SOL    HW1  374   0.882   3.001   0.024 -2.7580 -0.5127 -0.2353
  125SOL    HW2  375   1.005   0.023   0.040  0.0150 -0.5322  1.0387
  126SOL     OW  376   0.643   1.506   0.140 -0.7633  0.5115  0.9783
  126SOL    HW1  377   0.624   1.413   0.109 -2.2786  1.4271 -1.1489
  126SOL    HW2  378   0.671   1.503   0.238  0.0333 -1.5232  0.2188
  127SOL     OW  379   1.146   2.450   1.571  0.5429 -0.3436  0.0673
  127SOL    HW1  380   1.143   2.488   1.475 -0.1347 -1.0226 -2.9240
  127SOL    HW2  381   1.242   2.451   1.603 -1.6576 -0.5514 -0.0810
  128SOL     OW  382   0.977   1.871   0.419  0.3670  0.0720 -0.0902
  128SOL    HW1  383   0.945   1.868   0.325 -0.5033 -0.2770 -1.1052
  128SOL    HW2  384   0.975   1.961   0.462 -1.8736 -0.3716 -1.0601
  129SOL     OW  385   1.912   1.414   2.211 -0.7878 -0.1550 -0.5582
  129SOL    HW1  386   1.833   1.364   2.175  0.2613  2.5399  0.6255
  129SOL    HW2  387   1.983   1.432   2.138  0.3738 -3.4074 -1.9042
  130SOL     OW  388   2.047   1.841   1.788 -0.1258  0.7296 -0.4236
  130SOL    HW1  389   2.113   1.868   1.719 -1.3540 -2.1641  1.9606
  130SOL    HW2  390   1.972   1.778   1.757 -1.6966 -2.7199  0.9196
  131SOL     OW  391   0.424   2.448   1.997 -0.1362  0.3870 -0.5186
  131SOL    HW1  392   0.427   2.344   2.010  1.5000 -2.5861 -0.5741
  131SOL    HW2  393   0.334   2.489   1.962 -1.4721 -1.4872 -2.0796
  132SOL     OW  394   2.479   1.620   0.634 -0.0276 -0.3666 -0.1831
  132SOL    HW1  395   2.480   1.517   0.624 -1.1696  1.0298  0.7181
  132SOL    HW2  396   2.547   1.663   0.569 -0.3909  1.4113  2.8637
  133SOL     OW  397   0.510   1.508   1.745 -0.1752  0.7020  0.1722
  133SOL    HW1  398   0.519   1.596   1.703  1.5289 -2.5902  2.1740
  133SOL    HW2  399   0.431   1.507   1.807 -1.5822  0.7374 -1.6994
  134SOL     OW  400   2.749   1.223   0.663 -0.1029 -0.2036  0.2591
  134SOL    HW1  401   2.726   1.127   0.653  2.0788 -0.9256 -3.0393
  134SOL    HW2  402   2.849   1.233   0.644  2.6770 -0.6544 -2.2289
  135SOL     OW  403   1.749   1.126   2.934  0.4297  0.1048 -0.3780
  135SOL    HW1  404   1.750   1.227   2.934 -0.4511 -1.2106 -1.7029
  135SOL    HW2  405   1.653   1.090   2.935  1.2924  0.7211 -0.6650
  136SOL     OW  406   3.008   1.556   0.822  0.3613  0.1814  0.5702
  136SOL    HW1  407   0.007   1.532   0.836 -2.4610 -0.3751 -2.3327
  136SOL    HW2  408   2.998   1.633   0.753  1.3721 -1.0536 -2.2998
  137SOL     OW  409   2.231   1.653   0.527 -0.3669  0.1443 -0.1520
  137SOL    HW1  410   2.178   1.568   0.517  0.3254  0.3806 -0.6417
  137SOL    HW2  411   2.321   1.635   0.568  1.1637  0.3250  0.5475
  138SOL     OW  412   2.586   0.305   0.637  0.4082 -0.4706  0.3826
  138SOL    HW1  413   2.553   0.210   0.616 -2.6789  1.2271 -0.6087
  138SOL    HW2  414   2.508   0.350   0.690  0.2798  0.3763  1.7383
  139SOL     OW  415   2.749   0.020   2.786 -0.6190 -0.3493  0.0834
  139SOL    HW1  416   2.739   0.021   2.889 -0.2718  1.5654  1.8394
  139SOL    HW2  417   2.738   3.030   2.740  1.0656 -0.6753 -0.8557
  140SOL     OW  418   0.897   1.259   1.557  0.2287  0.6577  0.0230
  140SOL    HW1  419   0.933   1.296   1.644  0.7373 -1.6040 -1.3723
  140SOL    HW2  420   0.800   1.239   1.573  0.3847 -1.5686 -0.6797
  141SOL     OW  421   1.296   1.602   0.755 -0.0529 -0.2314 -0.3051
  141SOL    HW1  422   1.270   1.577   0.851  0.1431  1.2379  1.3440
  141SOL    HW2  423   1.340   1.692   0.760  1.2909  1.0044  0.3189
  142SOL     OW  424   1.369   0.698   1.118  0.1699  0.3377 -0.0156
  142SOL    HW1  425   1.334   0.655   1.202  0.6999  0.5460 -1.6409
  142SOL    HW2  426   1.404   0.793   1.125 -1.1085  0.7007 -0.9946
  143SOL     OW  427   0.727   0.655   2.963  0.7488 -0.1388  0.2374
  143SOL    HW1  428   0.708   0.758   2.953 -0.4696  3.3127 -2.1657
  143SOL    HW2  429   0.649   0.599   2.933 -0.4575  0.6044 -0.4492
  144SOL     OW  430   2.606   0.007   0.192  0.3581 -0.1685 -0.0040
  144SOL    HW1  431   2.509   0.021   0.158  0.5458  2.1513 -0.1377
  144SOL    HW2  432   2.609   0.035   0.290 -1.3529 -1.0751 -1.0266
  145SOL     OW  433   2.145   0.065   2.595 -0.6639  0.1231 -0.4563
  145SOL    HW1  434   2.179   0.094   2.689 -2.7930  0.1083  1.0541
  145SOL    HW2  435   2.200   0.103   2.517  1.3232 -0.9173 -0.4887
  146SOL     OW  436   2.870   2.893   0.418 -0.7348  0.0681 -0.1928
  146SOL    HW1  437   2.896   2.833   0.334  0.7068  0.6479 -1.9818
  146SOL    HW2  438   2.904   2.988   0.413  0.6119 -1.5555  0.6023
  147SOL     OW  439   1.097   0.995   2.555 -0.2431  0.5595 -0.3682
  147SOL    HW1  440   1.181   1.013   2.611  0.2344  1.1695 -0.4997
  147SOL    HW2  441   1.115   1.023   2.460  2.2060  2.6897  1.8841
  148SOL     OW  442   1.080   0.105   0.545 -0.0466 -0.3200  0.0144
  148SOL    HW1  443   1.179   0.096   0.525 -2.7139  0.1447  1.3896
  148SOL    HW2  444   1.025   0.077   0.466 -1.3143 -0.2970  2.2406
  149SOL     OW  445   1.239   0.748   2.222  0.1984 -0.9255  0.1691
  149SOL    HW1  446   1.321   0.793   2.258  1.4771 -3.0593  0.6531
  149SOL    HW2  447   1.206   0.799   2.139  0.5233  2.4716 -1.9650
  150SOL     OW  448   1.814   3.085   2.879  0.4599 -0.5027  0.2625
  150SOL    HW1  449   1.876   0.071   2.891  0.8573  0.5630  0.6058
  150SOL    HW2  450   1.865   3.002   2.847 -2.1620 -1.7247  0.3180
  151SOL     OW  451   0.564   1.243   0.088 -0.0514  0.4238 -0.1045
  151SOL    HW1  452   0.467   1.227   0.114 -0.0091 -1.5077 -2.6140
  151SOL    HW2  453   0.629   1.195   0.155 -0.5849  0.4852  1.6535
  152SOL     OW  454   0.829   0.443   1.119 -0.0495 -0.0079  0.4213
  152SOL    HW1  455   0.773   0.480   1.197 -2.2194 -1.1976  0.3000
  152SOL    HW2  456   0.891   0.371   1.157 -2.7892  2.7366  1.3367
  153SOL     OW  457   2.502   3.036   1.848 -0.6309  0.0041  0.1698
  153SOL    HW1  458   2.551   3.053   1.936  0.6084 -0.4502  2.9466
  153SOL    HW2  459   2.406   3.006   1.865  1.2117 -1.5754  0.0927
  154SOL     OW  460   2.268   2.956   1.895 -0.7226 -0.1884 -0.0605
  154SOL    HW1  461   2.210   3.038   1.875 -0.4373 -1.3400  0.5292
  154SOL    HW2  462   2.215   2.873   1.872  2.0446 -0.6183 -1.7756
  155SOL     OW  463   3.056   0.950   0.645 -0.2617  0.0635  0.0835
  155SOL    HW1  464   0.019   0.931   0.562  1.9066 -1.7188 -0.4990
  155SOL    HW2  465   3.079   1.041   0.687  0.7621  1.8005  0.0463
  156SOL     OW  466   2.065   1.386   0.551  0.5715 -0.1352  0.7355
  156SOL    HW1  467   2.015   1.349   0.636 -0.9915  1.3406 -0.5612
  156SOL    HW2  468   2.039   1.328   0.470 -0.2995 -1.1156  0.0135
  157SOL     OW  469   0.720   0.017   2.821  0.2849  0.2233 -0.1594
  157SOL    HW1  470   0.742   0.109   2.863  1.5817  3.8525  0.2482
  157SOL    HW2  471   0.624   0.023   2.786 -1.6432  0.2574  1.0112
  158SOL     OW  472   1.916   1.149   1.113 -0.0236  0.2600 -0.0588
  158SOL    HW1  473   1.922   1.206   1.198  0.7347 -0.6123  0.7539
  158SOL    HW2  474   1.847   1.184   1.047  1.1935 -1.9481 -0.1129
  159SOL     OW  475   0.145   0.224   0.254 -0.0248  0.4526  0.3399
  159SOL    HW1  476   0.225   0.220   0.192  0.3917  0.9567 -2.9368
  159SOL    HW2  477   0.147   0.150   0.324  1.0452 -0.2196 -0.8240
  160SOL     OW  478   2.592   2.255   1.889  0.0727  0.3455  0.2769
  160SOL    HW1  479   2.582   2.258   1.989 -2.3789 -0.3387 -2.6603
  160SOL    HW2  480   2.509   2.279   1.838 -1.7638 -1.5067  0.6350
  161SOL     OW  481   0.389   0.686   2.921 -0.4414  0.0611 -0.3993
  161SOL    HW1  482   0.445   0.772   2.904 -0.5269  1.7566 -1.4610
  161SOL    HW2  483   0.340   0.661   2.837  0.8044 -0.3671 -0.2778
  162SOL     OW  484   0.782   0.455   1.669 -0.2763  0.8464 -0.7974
  162SOL    HW1  485   0.853   0.509   1.618  0.2265 -0.2326  0.0381
  162SOL    HW2  486   0.783   0.355   1.650 -2.8035  1.0861 -1.3053
  163SOL     OW  487   2.658   2.915   2.351  0.9268 -0.2147  0.4008
  163SOL    HW1  488   2.640   2.861   2.268 -1.6742  3.6900  3.3445
  163SOL    HW2  489   2.572   2.974   2.375 -1.4398  2.3702 -0.9248
  164SOL     OW  490   2.211   1.751   0.267  0.1193 -0.6408  0.2888
  164SOL    HW1  491   2.191   1.850   0.283 -0.0005 -0.2792 -0.0485
  164SOL    HW2  492   2.203   1.693   0.349  1.5510  0.1473 -0.1331
  165SOL     OW  493   0.347   0.126   0.901  0.5159  0.3785 -0.0186
  165SOL    HW1  494   0.352   0.080   0.814 -0.8858 -1.1526  2.2181
  165SOL    HW2  495   0.441   0.139   0.936  1.3389  0.1706  0.1894
  166SOL     OW  496   2.876   0.337   3.007 -0.2083  0.0174 -0.2006
  166SOL    HW1  497   2.868   0.405   2.930  0.6372  2.3172 -1.5471
  166SOL    HW2  498   2.824   0.254   2.988 -0.5743  0.8677 -1.0424
  167SOL     OW  499   2.112   0.605   0.313  0.2175  0.1203 -0.0988
  167SOL    HW1  500   2.067   0.694   0.297 -2.5038  1.7429 -0.5457
  167SOL    HW2  501   2.178   0.585   0.235  4.9352 -1.4273  0.6365
  168SOL     OW  502   1.601   0.167   2.171 -0.3613  0.0411 -0.1195
  168SOL    HW1  503   1.516   0.174   2.229 -2.3022 -1.2590  2.0831
  168SOL    HW2  504   1.629   0.254   2.133  1.1212 -3.0691  1.0601
  169SOL     OW  505   0.391   1.828   0.777  0.6621 -0.0857  0.2502
  169SOL    HW1  506   0.441   1.765   0.841 -0.2565 -0.9497  3.2609
  169SOL    HW2  507   0.378   1.929   0.809 -2.4519  2.1459  0.2721
  170SOL     OW  508   0.353   0.068   1.370  0.3013 -0.0237 -0.2333
  170SOL    HW1  509   0.424   0.133   1.402 -2.3351 -1.0928  1.7314
  170SOL    HW2  510   0.327   0.005   1.443 -0.8301 -3.4362  1.2765
  171SOL     OW  511   2.661   1.663   2.358 -0.0335 -0.6267 -0.5673
  171SOL    HW1  512   2.617   1.734   2.296 -2.9216  0.7537  1.8128
  171SOL    HW2  513   2.738   1.619   2.309 -1.7058 -0.6567 -2.1853
  172SOL     OW  514   0.934   1.760   1.202 -0.8043 -0.0424  0.0965
  172SOL    HW1  515   0.869   1.691   1.158  1.0484  0.8176  0.2510
  172SOL    HW2  516   0.992   1.710   1.268  0.9371  1.2342 -2.1670
  173SOL     OW  517   1.866   2.133   2.911 -0.1022  0.1243 -0.8864
  173SOL    HW1  518   1.819   2.043   2.924 -0.9270  2.3002 -0.6427
  173SOL    HW2  519   1.844   2.191   2.996 -1.0350  2.2178  1.8648
  174SOL     OW  520   1.823   0.428   0.093 -0.4943 -0.0330 -0.5180
  174SOL    HW1  521   1.866   0.492   0.026 -1.8877  0.1161  2.5209
  174SOL    HW2  522   1.770   0.486   0.162 -1.4518 -4.2439 -1.0461
  175SOL     OW  523   0.530   1.778   1.795 -0.0929 -0.8517  0.3167
  175SOL    HW1  524   0.456   1.810   1.734 -0.8629  0.3958 -0.4555
  175SOL    HW2  525   0.513   1.784   1.894 -0.0559  0.0097  0.5377
  176SOL     OW  526   0.727   0.273   0.437  0.1505  0.0865  0.0622
  176SOL    HW1  527   0.775   0.367   0.431 -2.2674  1.8845 -1.9989
  176SOL    HW2  528   0.672   0.277   0.526 -0.7417 -1.8852  1.6877
  177SOL     OW  529   0.034   1.465   3.048 -0.3028 -0.0304 -0.2906
  177SOL    HW1  530   3.035   1.444   3.024 -1.0975  1.8091  2.6369
  177SOL    HW2  531   0.102   1.393   3.019  1.1029 -2.0005 -0.6065
  178SOL     OW  532   0.158   2.033   2.302 -0.1360 -0.4879  0.2634
  178SOL    HW1  533   0.130   1.962   2.234  0.7162  0.7724  0.9593
  178SOL    HW2  534   0.076   2.074   2.343  2.9284 -2.3644 -0.6874
  179SOL     OW  535   2.313   0.055   2.822 -0.4685 -0.5650  0.4001
  179SOL    HW1  536   2.384   0.122   2.848  0.9146 -0.3069 -3.5254
  179SOL    HW2  537   2.250   0.032   2.899 -1.7506 -2.0576 -1.7169
  180SOL     OW  538   2.431   0.241   1.016  0.4264  0.0625  0.1383
  180SOL    HW1  539   2.382   0.203   0.937  0.7533  3.5983  1.5226
  180SOL    HW2  540   2.394   0.332   1.048 -0.4587 -1.1911  0.5226
  181SOL     OW  541   2.880   2.862   2.476 -0.4398  0.2113 -0.0792
  181SOL    HW1  542   2.793   2.897   2.437  0.1226  0.0262 -2.0389
  181SOL    HW2  543   2.953   2.875   2.405  2.8607 -1.7782  1.7169
  182SOL     OW  544   2.246   2.414   2.332 -0.5218 -0.0904 -0.1021
  182SOL    HW1  545   2.325   2.381   2.391  0.6799  0.8511 -0.7974
  182SOL    HW2  546   2.167   2.350   2.323  0.8615 -2.2002 -1.3104
  183SOL     OW  547   2.524   1.365   1.575  0.1624 -1.1634  0.3190
  183SOL    HW1  548   2.609   1.369   1.634  0.4027  0.6493  0.3903
  183SOL    HW2  549   2.467   1.449   1.591  0.1642  0.3944  1.3582
  184SOL     OW  550   2.799   1.406   0.863  0.2957  0.5128 -0.1269
  184SOL    HW1  551   2.889   1.460   0.845  1.6674  0.0988 -2.2116
  184SOL    HW2  552   2.771   1.341   0.789  1.0150 -0.7914 -3.1118
  185SOL     OW  553   0.109   0.029   0.965 -0.0005  0.5852 -0.0601
  185SOL    HW1  554   0.200   0.067   0.947 -2.1992 -0.5565 -0.9974
  185SOL    HW2  555   0.049   0.028   0.880 -0.4939 -3.1593 -3.1675
  186SOL     OW  556   2.046   2.606   2.273  0.0816  0.8966 -0.0987
  186SOL    HW1  557   2.048   2.704   2.289  0.0557 -1.9569  0.1164
  186SOL    HW2  558   2.122   2.546   2.315 -0.5481  0.0464 -0.7007
  187SOL     OW  559   0.309   1.449   0.618 -0.1048  0.0729  0.0386
  187SOL    HW1  560   0.320   1.395   0.532  0.1018 -2.7711  0.5204
  187SOL    HW2  561   0.390   1.508   0.640 -0.9164 -1.1282 -0.3460
  188SOL     OW  562   1.714   1.875   0.399 -0.3956  0.6561 -0.3671
  188SOL    HW1  563   1.713   1.773   0.411  1.5195  0.5010 -2.3538
  188SOL    HW2  564   1.638   1.914   0.448  0.2214 -2.0365 -1.2507
  189SOL     OW  565   2.886   1.349   2.973 -0.3924  0.2886  0.0667
  189SOL    HW1  566   2.943   1.273   2.933  0.1609 -0.0852 -1.0288
  189SOL    HW2  567   2.821   1.389   2.908  1.1893 -0.9756  1.3514
  190SOL     OW  568   2.412   0.420   2.472  0.0766  0.1288  0.2538
  190SOL    HW1  569   2.353   0.491   2.426 -0.8821  0.3845  1.3822
  190SOL    HW2  570   2.505   0.428   2.434 -0.1656  0.2596 -1.4416
  191SOL     OW  571   0.863   1.019   1.975 -0.5574  0.1258 -0.4371
  191SOL    HW1  572   0.816   0.953   1.914 -2.5172  1.8182 -0.8408
  191SOL    HW2  573   0.800   1.089   2.008  3.4177 -2.2774  0.3243
  192SOL     OW  574   1.662   1.324   2.037  0.2467  0.7376 -0.3323
  192SOL    HW1  575   1.593   1.371   1.986  2.9560  1.3886  1.5374
  192SOL    HW2  576   1.690   1.241   1.988 -0.9265  1.8042  3.1041
  193SOL     OW  577   1.525   2.772   1.142  0.3770 -0.6001 -0.3129
  193SOL    HW1  578   1.526   2.873   1.120  0.6479  0.6320 -1.9292
  193SOL    HW2  579   1.513   2.724   1.055 -4.0091 -0.7458  1.1618
  194SOL     OW  580   1.495   1.385   1.797  0.5936 -1.2651 -0.0153
  194SOL    HW1  581   1.581   1.367   1.746 -0.6686  0.5168  0.4956
  194SOL    HW2  582   1.416   1.375   1.738  0.3479 -1.2529 -0.7831
  195SOL     OW  583   1.878   0.250   0.814  0.2011 -0.2944 -0.3395
  195SOL    HW1  584   1.823   0.335   0.790 -0.8054 -1.2889  1.1069
  195SOL    HW2  585   1.971   0.284   0.835 -2.8356 -2.2287 -0.4806
  196SOL     OW  586   1.033   1.333   2.460 -0.1490 -0.5219 -0.2758
  196SOL    HW1  587   0.940   1.300   2.455  2.0918  2.9910  0.9969
  196SOL    HW2  588   1.098   1.283   2.405 -1.0298  0.3785  0.9142
  197SOL     OW  589   0.256   0.215   2.287 -0.1803  0.5965 -1.2606
  197SOL    HW1  590   0.181   0.283   2.282 -1.2942  0.9995  0.2512
  197SOL    HW2  591   0.214   0.133   2.336 -3.1794 -1.0218 -2.0749
  198SOL     OW  592   2.985   1.239   1.058 -0.4171  0.1280  0.3869
  198SOL    HW1  593   2.941   1.310   0.998 -1.2942  0.4714  0.3934
  198SOL    HW2  594   3.046   1.188   1.002 -1.1510  2.9888  1.8539
  199SOL     OW  595   0.377   2.094   0.861  0.1700 -0.0531 -0.1478
  199SOL    HW1  596   0.400   2.142   0.774  2.5548  0.1117 -0.1295
  199SOL    HW2  597   0.411   2.142   0.941  1.3717 -0.3123 -1.7476
  200SOL     OW  598   2.530   2.090   2.634  0.1141 -0.2823 -0.0015
  200SOL    HW1  599   2.542   2.153   2.711  0.9165 -1.6992 -2.3282
  200SOL    HW2  600   2.557   1.994   2.655 -1.6247 -0.2954  0.7615
  201SOL     OW  601   0.973   2.006   1.370 -0.9449  0.0747  0.1472
  201SOL    HW1  602   1.006   2.100   1.337  3.1276 -0.4143  0.3634
  201SOL    HW2  603   1.011   1.934   1.309  0.5058  0.3699 -2.0468
  202SOL     OW  604   0.902   2.493   0.151 -0.2702 -0.3940 -0.0557
  202SOL    HW1  605   0.927   2.504   0.251 -0.0552  1.6078  1.2305
  202SOL    HW2  606   0.982   2.458   0.094 -4.1465 -0.2463 -0.8882
  203SOL     OW  607   1.896   0.325   2.322 -0.3446 -0.1718 -0.3712
  203SOL    HW1  608   1.940   0.238   2.300 -1.2439 -1.0017  1.1643
  203SOL    HW2  609   1.812   0.322   2.385 -1.1300  2.6179  1.9981
  204SOL     OW  610   0.134   1.341   1.722 -0.4387 -0.3684  0.8549
  204SOL    HW1  611   0.097   1.340   1.626  0.4446 -1.8499  0.6544
  204SOL    HW2  612   0.217   1.283   1.723  0.9529  0.3393 -1.3382
  205SOL     OW  613   2.418   1.534   2.459 -0.1106 -0.0494 -0.2158
  205SOL    HW1  614   2.495   1.573   2.406  0.8197 -1.6490 -0.5972
  205SOL    HW2  615   2.331   1.575   2.429  0.9221 -0.9763 -0.0097
  206SOL     OW  616   0.256   1.930   2.562 -0.5149 -0.3314  0.1935
  206SOL    HW1  617   0.162   1.944   2.593  0.5642 -0.1647 -1.5521
  206SOL    HW2  618   0.256   1.934   2.460 -1.6459 -0.1190 -3.2440
  207SOL     OW  619   0.632   3.036   1.566  0.1375 -0.3793 -0.1340
  207SOL    HW1  620   0.543   3.026   1.522  0.0319  0.0793  1.2223
  207SOL    HW2  621   0.694   2.969   1.530 -2.2858 -0.7133  0.9653
  208SOL     OW  622   0.392   2.436   1.443 -0.0406 -0.7902  0.0179
  208SOL    HW1  623   0.371   2.436   1.543 -1.7613 -1.3509 -0.2862
  208SOL    HW2  624   0.479   2.385   1.424  0.0580 -2.0417  0.6843
  209SOL     OW  625   0.981   2.587   2.475  0.5733  0.2849  0.3983
  209SOL    HW1  626   1.001   2.508   2.537 -0.9324 -0.0511  0.8720
  209SOL    HW2  627   0.948   2.672   2.520 -0.1768 -0.3871  0.0849
  210SOL     OW  628   2.893   1.516   2.281  0.7466 -0.2032 -0.2069
  210SOL    HW1  629   2.879   1.422   2.318 -0.5342  1.6161 -1.3633
  210SOL    HW2  630   2.987   1.546   2.300 -1.5692 -0.8535 -1.7918
  211SOL     OW  631   1.183   2.888   1.896  0.1662  0.3216  1.1154
  211SOL    HW1  632   1.246   2.890   1.972  0.2699  1.9009 -0.5553
  211SOL    HW2  633   1.091   2.913   1.930  1.7479 -2.3757 -0.6160
  212SOL     OW  634   1.397   2.498   1.691  0.6939  0.3264  0.0066
  212SOL    HW1  635   1.424   2.509   1.787 -1.2139  0.5191  2.9834
  212SOL    HW2  636   1.478   2.506   1.625  1.7345  1.2529  0.1595
  213SOL     OW  637   2.398   0.803   1.761  0.0529  0.4180 -0.0041
  213SOL    HW1  638   2.322   0.821   1.696  0.9575  3.2141  1.4742
  213SOL    HW2  639   2.491   0.809   1.722 -0.3054  0.3364  0.9973
  214SOL     OW  640   1.038   2.257   1.324  0.0152  0.6770  0.2705
  214SOL    HW1  641   0.971   2.274   1.395  1.8530 -0.6695 -0.5909
  214SOL    HW2  642   1.073   2.343   1.281  0.7937  0.1579  3.6859
  215SOL     OW  643   2.524   2.081   0.646 -0.0872  0.1063  0.0213
  215SOL    HW1  644   2.592   2.138   0.699  2.9435  2.0520  3.9336
  215SOL    HW2  645   2.564   2.040   0.565 -0.3488  1.0166  0.8699
  216SOL     OW  646   0.030   0.833   1.506  0.5567 -0.6160  0.0127
  216SOL    HW1  647   3.087   0.754   1.462 -2.6077 -0.2304 -0.9496
  216SOL    HW2  648   3.065   0.911   1.516 -2.9156  2.2615  2.4931
  217SOL     OW  649   2.256   0.354   1.492  0.2082  0.6142 -0.0598
  217SOL    HW1  650   2.334   0.323   1.438 -1.3714 -0.4902  3.2439
  217SOL    HW2  651   2.167   0.337   1.443 -2.7811  1.2599 -0.8836
  218SOL     OW  652   1.671   2.444   1.020 -0.3814  0.0050 -0.0065
  218SOL    HW1  653   1.686   2.522   0.955  0.7040  0.9157 -4.0557
  218SOL    HW2  654   1.602   2.465   1.089  1.0568 -2.6330  0.9879
  219SOL     OW  655   1.408   2.304   0.083  0.0576  0.3780 -0.2591
  219SOL    HW1  656   1.451   2.382   0.041 -0.1411  0.8060  2.1596
  219SOL    HW2  657   1.348   2.333   0.160  0.7033 -2.2371  3.2201
  220SOL     OW  658   1.602   2.420   2.807  0.4615  0.0885 -0.8625
  220SOL    HW1  659   1.576   2.445   2.712 -0.0282  0.5674  0.6840
  220SOL    HW2  660   1.579   2.320   2.826 -2.9539 -2.3966  1.3293
  221SOL     OW  661   0.124   2.435   1.438 -0.4569  0.2669 -0.4832
  221SOL    HW1  662   0.225   2.423   1.433  0.7570 -0.2970 -0.9246
  221SOL    HW2  663   0.076   2.345   1.447 -0.5180  0.8582  1.2465
  222SOL     OW  664   2.186   2.551   0.777  0.5987  0.5449  0.9816
  222SOL    HW1  665   2.113   2.613   0.740  1.9865  1.8845 -2.3073
  222SOL    HW2  666   2.259   2.615   0.809  0.4772 -1.3182  1.5547
  223SOL     OW  667   0.729   2.395   1.734  0.0623  0.4087  0.4325
  223SOL    HW1  668   0.657   2.324   1.739  0.2703  0.8546  1.9726
  223SOL    HW2  669   0.720   2.470   1.802  1.3275  1.6070  0.0593
  224SOL     OW  670   2.877   2.419   1.297 -0.0309  0.0115  0.7513
  224SOL    HW1  671   2.864   2.520   1.311 -0.3400 -1.6270  0.6294
  224SOL    HW2  672   2.844   2.376   1.382  0.1697 -1.3930 -0.2554
  225SOL     OW  673   2.260   2.157   0.619  0.3890  0.0585 -0.1629
  225SOL    HW1  674   2.356   2.144   0.630 -4.2548  2.5117  0.8450
  225SOL    HW2  675   2.211   2.073   0.601 -1.7723  0.3677  1.4674
  226SOL     OW  676   1.465   2.422   0.397  0.0364 -0.1567 -0.4437
  226SOL    HW1  677   1.380   2.405   0.340  1.6008 -0.2509  0.1796
  226SOL    HW2  678   1.458   2.408   0.497  1.7197 -2.7690 -1.0600
  227SOL     OW  679   2.126   1.115   0.963  0.1732 -0.2232  0.5063
  227SOL    HW1  680   2.044   1.102   1.020 -1.1446 -3.4886 -0.5643
  227SOL    HW2  681   2.182   1.193   0.991  1.1556 -0.8413 -1.4183
  228SOL     OW  682   1.302   0.554   2.518 -0.2413  0.5159 -0.1460
  228SOL    HW1  683   1.300   0.536   2.617  1.5184  1.4657 -1.3211
  228SOL    HW2  684   1.395   0.582   2.493 -1.7172 -1.3150 -2.8743
  229SOL     OW  685   3.055   1.177   2.882 -0.3563 -0.0400 -0.0754
  229SOL    HW1  686   3.075   1.080   2.886  1.1678  2.0975 -1.7450
  229SOL    HW2  687   3.042   1.209   2.785 -1.7286  0.8998  1.1919
  230SOL     OW  688   0.550   1.425   1.168  0.3613 -0.2637  0.1831
  230SOL    HW1  689   0.485   1.408   1.091 -0.4187  0.2266 -0.9990
  230SOL    HW2  690   0.513   1.371   1.245  0.1868  1.6086 -3.3594
  231SOL     OW  691   2.450   2.939   2.675 -0.8695 -0.3674 -0.3382
  231SOL    HW1  692   2.417   3.019   2.733  0.0639 -0.6054 -0.5136
  231SOL    HW2  693   2.438   2.962   2.576 -0.7561 -0.3244 -1.7715
  232SOL     OW  694   0.343   2.216   0.257 -0.0528  1.3239  0.1042
  232SOL    HW1  695   0.405   2.296   0.244  1.0169 -0.2063  0.3514
  232SOL    HW2  696   0.352   2.164   0.172 -1.6996 -1.4362  1.9724
  233SOL     OW  697   1.252   2.235   2.180 -0.0572  0.0561  0.6251
  233SOL    HW1  698   1.200   2.319   2.149 -1.5940  3.3818 -1.9471
  233SOL    HW2  699   1.284   2.250   2.278  1.8397 -1.4825  0.5717
  234SOL     OW  700   1.300   1.339   1.584  0.3623 -0.3168 -0.0952
  234SOL    HW1  701   1.370   1.369   1.518  0.5013 -0.9223 -0.7893
  234SOL    HW2  702   1.244   1.410   1.629 -2.4687  1.7318  1.1805
  235SOL     OW  703   1.063   1.781   1.912 -0.2508 -0.4860 -0.5112
  235SOL    HW1  704   1.128   1.860   1.914 -1.8087  1.6241  1.2258
  235SOL    HW2  705   1.028   1.773   2.009  1.4455  1.7610  1.0900
  236SOL     OW  706   1.557   3.084   2.770  0.3103  0.1078  0.3809
  236SOL    HW1  707   1.648   0.011   2.797 -1.3149  2.9688  1.0764
  236SOL    HW2  708   1.539   2.986   2.790 -2.0690  2.4050 -0.5947
  237SOL     OW  709   1.335   0.332   1.346  0.6027 -0.1463 -0.3901
  237SOL    HW1  710   1.428   0.369   1.365  0.5448  4.7398 -1.9160
  237SOL    HW2  711   1.335   0.232   1.336 -3.2346  1.2507 -0.8961
  238SOL     OW  712   1.240   0.515   2.985  0.3930  0.0810 -0.2836
  238SOL    HW1  713   1.275   0.599   2.941 -1.4172 -3.4561 -0.1271
  238SOL    HW2  714   1.178   0.528   3.061  0.9654 -2.9093 -0.2675
  239SOL     OW  715   2.939   0.934   2.654 -0.0387 -0.3656  0.0472
  239SOL    HW1  716   2.862   1.003   2.652  0.3133 -1.1448  0.1700
  239SOL    HW2  717   2.981   0.934   2.748 -0.1622 -0.7453 -0.1761
  240SOL     OW  718   2.488   2.474   0.734  0.0747 -0.2199  0.7222
  240SOL    HW1  719   2.478   2.407   0.803 -1.0695  2.7731 -1.8333
  240SOL    HW2  720   2.449   2.429   0.648 -1.3041 -2.1374 -0.8356
  241SOL     OW  721   1.030   1.422   1.132  0.5109 -0.4061 -0.2059
  241SOL    HW1  722   1.037   1.397   1.228 -1.5023  0.2986 -0.8038
  241SOL    HW2  723   1.001   1.348   1.071 -1.4918  0.2623 -1.2581
  242SOL     OW  724   0.589   0.664   0.766  0.1954  0.2852 -0.4000
  242SOL    HW1  725   0.634   0.754   0.766  0.7922 -0.0695  1.4380
  242SOL    HW2  726   0.655   0.592   0.802  1.3831  0.9694 -0.0377
  243SOL     OW  727   0.253   0.379   1.108 -0.6582  0.2201 -0.0143
  243SOL    HW1  728   0.274   0.476   1.130 -0.3345  0.2885  3.4029
  243SOL    HW2  729   0.336   0.331   1.078 -1.4364 -2.2207  2.5708
  244SOL     OW  730   0.937   0.072   0.311 -0.2460 -0.7462  0.2415
  244SOL    HW1  731   0.859   0.126   0.355 -1.6307 -0.5346  1.0258
  244SOL    HW2  732   1.002   0.138   0.274  1.8503 -0.8981  0.9182
  245SOL     OW  733   1.950   0.798   0.198  0.2170  0.1854 -0.7117
  245SOL    HW1  734   1.956   0.717   0.139 -1.1333  0.1259  1.2169
  245SOL    HW2  735   1.997   0.883   0.156  2.5383  0.5912  0.4408
  246SOL     OW  736   0.391   0.611   1.803  0.7612 -0.4616  0.4469
  246SOL    HW1  737   0.294   0.649   1.787 -4.8817 -0.1400  0.9144
  246SOL    HW2  738   0.403   0.607   1.904 -0.0864  0.7239  2.8142
  247SOL     OW  739   0.626   3.094   2.030  0.7034  0.4626 -0.0061
  247SOL    HW1  740   0.628   3.034   1.948 -0.3799  2.5272  0.2485
  247SOL    HW2  741   0.710   3.076   2.080 -2.0943 -1.7907  0.7859
  248SOL     OW  742   0.620   1.568   2.305  0.7493  0.0841 -0.0399
  248SOL    HW1  743   0.660   1.651   2.349 -0.8479 -1.4359 -0.9656
  248SOL    HW2  744   0.687   1.497   2.281 -1.4481 -1.2184  1.2471
  249SOL     OW  745   0.610   3.038   3.070  0.5184 -0.2323 -0.0168
  249SOL    HW1  746   0.669   3.006   2.995 -3.2215  2.6514  2.2432
  249SOL    HW2  747   0.517   3.061   3.036 -0.3227 -0.2810 -1.2866
  250SOL     OW  748   0.520   0.244   2.366 -0.6247 -0.2947 -0.2475
  250SOL    HW1  749   0.505   0.258   2.467  1.0719 -0.2593  0.2779
  250SOL    HW2  750   0.434   0.250   2.312  0.0420 -1.6527  1.3018
  251SOL     OW  751   2.923   1.796   1.124  0.4108  0.2942  0.2838
  251SOL    HW1  752   2.978   1.713   1.132 -1.6042  0.4021 -0.7960
  251SOL    HW2  753   2.827   1.776   1.094 -2.2699  1.3138 -0.4364
  252SOL     OW  754   1.865   0.004   1.948  0.4814  0.4348 -0.0824
  252SOL    HW1  755   1.827   0.019   2.044 -1.0770 -1.2735 -0.1501
  252SOL    HW2  756   1.841   3.006   1.914 -4.4490  0.1416 -1.7355
  253SOL     OW  757   2.159   1.634   2.395 -0.0597 -0.4033 -0.5482
  253SOL    HW1  758   2.071   1.601   2.433  2.9453 -0.6127 -0.4936
  253SOL    HW2  759   2.198   1.694   2.464  0.9171  0.0719  1.8709
  254SOL     OW  760   0.788   1.570   1.855  0.0893 -0.1668 -0.3685
  254SOL    HW1  761   0.831   1.628   1.785  1.5857  0.1245 -1.6642
  254SOL    HW2  762   0.692   1.546   1.826  1.7117  0.7705  0.4712
  255SOL     OW  763   0.763   0.179   1.583  0.8334  0.1601  0.1297
  255SOL    HW1  764   0.862   0.178   1.587  2.3239  0.6639 -0.2442
  255SOL    HW2  765   0.724   0.086   1.612 -0.2922  2.2679  1.9561
  256SOL     OW  766   0.272   2.577   0.729 -0.1462 -0.3485  0.3839
  256SOL    HW1  767   0.218   2.496   0.715  1.0375  1.3998  1.2405
  256SOL    HW2  768   0.293   2.590   0.830  0.2057 -0.7364  1.3046
  257SOL     OW  769   0.514   2.626   2.190 -0.0930  0.0273 -0.1025
  257SOL    HW1  770   0.471   2.556   2.129  1.8721 -1.0419 -0.2579
  257SOL    HW2  771   0.543   2.589   2.282 -1.4073  0.1526 -0.1561
  258SOL     OW  772   1.475   1.616   2.001 -0.0868 -0.6097  0.2243
  258SOL    HW1  773   1.482   1.541   1.938 -1.2762  0.7849  4.2254
  258SOL    HW2  774   1.431   1.697   1.954 -1.2506 -0.8043  2.8510
  259SOL     OW  775   1.158   1.381   1.939 -0.4985  0.2724 -0.1889
  259SOL    HW1  776   1.120   1.432   2.017 -0.4967 -0.7590  0.1698
  259SOL    HW2  777   1.202   1.450   1.878  2.4561  0.1712  2.5979
  260SOL     OW  778   2.209   0.592   2.320 -0.3517  0.8856 -0.7531
  260SOL    HW1  779   2.160   0.522   2.265  0.3468  1.3964 -2.1054
  260SOL    HW2  780   2.253   0.665   2.262  0.7709 -0.1030 -1.6367
  261SOL     OW  781   0.748   1.330   0.772 -0.5742 -0.3385 -0.4603
  261SOL    HW1  782   0.660   1.347   0.723  0.2004  0.2560  0.7170
  261SOL    HW2  783   0.816   1.279   0.717  0.9894  0.4783 -2.7230
  262SOL     OW  784   2.255   2.080   2.615 -0.2181  0.5047  0.5328
  262SOL    HW1  785   2.358   2.088   2.636  3.4218 -1.2446  0.1443
  262SOL    HW2  786   2.188   2.116   2.684 -1.6263  0.1414  0.4544
  263SOL     OW  787   0.990   2.222   1.011  0.1256  0.2612 -0.7205
  263SOL    HW1  788   1.006   2.208   1.112 -0.4425 -0.6002  0.5744
  263SOL    HW2  789   0.903   2.180   0.987  2.5105  1.8196 -0.3420
  264SOL     OW  790   0.014   2.402   0.228 -0.0745  0.1328  0.4802
  264SOL    HW1  791   0.016   2.433   0.327 -0.5464 -0.8597 -0.6426
  264SOL    HW2  792   0.075   2.468   0.175  1.3462  1.7068 -1.6440
  265SOL     OW  793   1.383   1.342   2.906  0.6874  0.3021 -0.2272
  265SOL    HW1  794   1.437   1.260   2.884 -0.5175  0.3379  0.3561
  265SOL    HW2  795   1.281   1.317   2.899 -2.8682 -2.4513  0.4076
  266SOL     OW  796   1.027   1.784   2.183 -0.4007 -0.3103  0.5038
  266SOL    HW1  797   1.025   1.885   2.179 -0.1140 -0.1922  0.7084
  266SOL    HW2  798   0.932   1.743   2.169 -0.9770  1.6887 -0.3628
  267SOL     OW  799   2.370   1.042   2.677  0.2182 -0.1248  0.1898
  267SOL    HW1  800   2.436   1.059   2.749 -1.0779 -1.3843 -2.0339
  267SOL    HW2  801   2.304   1.115   2.678  1.7255 -1.2150  0.0780
  268SOL     OW  802   1.002   1.367   0.115 -0.5425  0.4873 -0.3312
  268SOL    HW1  803   1.015   1.310   0.035  0.4032  0.5952 -0.2811
  268SOL    HW2  804   0.947   1.301   0.178 -1.6709 -3.3560 -1.2821
  269SOL     OW  805   2.946   1.907   2.365  0.0617  0.5627  1.0706
  269SOL    HW1  806   2.867   1.958   2.390  2.4160 -1.0899 -2.9263
  269SOL    HW2  807   2.995   1.883   2.444 -0.1517 -0.8379 -3.6437
  270SOL     OW  808   0.713   2.354   3.042  0.0560 -0.1468  0.0885
  270SOL    HW1  809   0.707   2.453   3.054  0.8950 -2.1736  2.9343
  270SOL    HW2  810   0.629   2.318   3.009  1.5121  1.1820  0.0746
  271SOL     OW  811   0.137   0.492   0.198 -0.5726 -0.0494  0.5242
  271SOL    HW1  812   0.127   0.397   0.228  0.4559  2.6210 -2.0788
  271SOL    HW2  813   0.056   0.529   0.154  0.1024 -0.6810  0.8224
  272SOL     OW  814   2.985   0.063   0.385 -0.3574  0.4171  0.2744
  272SOL    HW1  815   3.089   0.082   0.391  3.9755  0.5737  2.8874
  272SOL    HW2  816   2.938   0.153   0.397  2.8498  0.9112 -2.3637
  273SOL     OW  817   0.213   3.036   1.833 -0.4953  0.7003  0.3329
  273SOL    HW1  818   0.206   3.010   1.934  2.5077  0.4212  3.0389
  273SOL    HW2  819   0.165   0.024   1.810  1.1248  0.7285  0.3838
  274SOL     OW  820   3.028   0.570   1.420 -0.1289 -0.2182 -0.1781
  274SOL    HW1  821   2.996   0.550   1.516 -0.1938  2.0593 -2.5494
  274SOL    HW2  822   0.033   0.550   1.402  1.6545 -1.0618 -0.5892
  275SOL     OW  823   0.764   1.590   1.064 -0.6963 -0.0230 -0.6944
  275SOL    HW1  824   0.822   1.565   0.985  0.3397  0.4551  0.2688
  275SOL    HW2  825   0.727   1.504   1.104  0.6319 -3.1993 -1.4641
  276SOL     OW  826   0.351   1.162   1.747 -0.1450  0.0547 -0.6295
  276SOL    HW1  827   0.397   1.160   1.838  0.8292 -2.6720 -0.6191
  276SOL    HW2  828   0.404   1.114   1.679  3.0880  0.2787  1.2872
  277SOL     OW  829   1.277   1.983   1.927  0.0773 -0.2194 -0.4418
  277SOL    HW1  830   1.323   2.007   2.015  1.8550 -1.9956  2.1782
  277SOL    HW2  831   1.249   2.065   1.876  1.6008 -1.2738  0.9185
  278SOL     OW  832   2.378   2.601   2.152 -0.4318 -0.0933  0.3196
  278SOL    HW1  833   2.333   2.690   2.177 -2.4031  1.5537  2.3123
  278SOL    HW2  834   2.329   2.530   2.207 -1.6094 -0.7893 -0.8697
  279SOL     OW  835   1.160   1.951   0.063  0.0271  0.0905  0.6019
  279SOL    HW1  836   1.238   1.970   0.127  0.1612  2.5525 -2.4730
  279SOL    HW2  837   1.108   2.035   0.036  0.1624  0.9225  0.1866
  280SOL     OW  838   1.344   0.370   0.357 -0.1701 -0.0720 -0.7711
  280SOL    HW1  839   1.313   0.293   0.415 -1.1692  0.9164 -1.8909
  280SOL    HW2  840   1.328   0.460   0.401  0.3160 -3.4944  1.2304
  281SOL     OW  841   0.615   0.479   1.291  0.4854  0.6403  0.0045
  281SOL    HW1  842   0.574   0.573   1.306  0.8908  0.7696  1.8625
  281SOL    HW2  843   0.609   0.421   1.375  2.2023  0.9801 -0.8988
  282SOL     OW  844   0.165   2.740   0.560  0.3178  0.1286 -0.1293
  282SOL    HW1  845   0.216   2.681   0.628  1.2717 -3.7983  2.6545
  282SOL    HW2  846   0.226   2.756   0.479 -0.0400  0.6653  1.5747
  283SOL     OW  847   1.376   1.783   1.747  0.0649  0.4059 -0.4958
  283SOL    HW1  848   1.341   1.798   1.651  1.2080  1.3265 -0.4349
  283SOL    HW2  849   1.341   1.860   1.804  2.2088  1.0415 -2.7188
  284SOL     OW  850   2.751   2.770   1.495 -0.0964 -0.0323 -0.3507
  284SOL    HW1  851   2.735   2.872   1.501  1.6418  0.3552  0.6068
  284SOL    HW2  852   2.808   2.749   1.412  1.3625 -0.5464 -0.6248
  285SOL     OW  853   0.265   2.393   0.469  0.5821 -0.5346 -0.4725
  285SOL    HW1  854   0.235   2.323   0.407  0.3921  2.6829  0.5280
  285SOL    HW2  855   0.238   2.379   0.570  0.7708 -0.0273  2.6627
  286SOL     OW  856   0.498   2.729   1.143 -0.2356  0.6868 -0.4232
  286SOL    HW1  857   0.543   2.812   1.107 -2.6002 -2.4370 -0.5336
  286SOL    HW2  858   0.425   2.751   1.212  0.7487  0.7599  1.4206
  287SOL     OW  859   0.451   1.262   0.771 -0.2538 -0.0304 -0.6403
  287SOL    HW1  860   0.436   1.328   0.848  1.5106  2.7838  0.7960
  287SOL    HW2  861   0.414   1.298   0.680 -2.5419  0.1546 -0.0365
  288SOL     OW  862   1.459   2.056   2.518  0.1925 -0.8676  0.3822
  288SOL    HW1  863   1.449   2.028   2.616 -0.2041  1.9370  2.5426
  288SOL    HW2  864   1.449   1.980   2.453  0.1611  1.0687 -2.2457
  289SOL     OW  865   2.468   1.707   0.146 -0.4184 -0.1586 -0.1884
  289SOL    HW1  866   2.370   1.704   0.176 -1.3626 -1.7134 -0.6913
  289SOL    HW2  867   2.513   1.627   0.186 -2.5440  0.4246  1.5326
  290SOL     OW  868   1.275   1.498   1.009 -0.0332  0.2511  0.2189
  290SOL    HW1  869   1.359   1.501   1.063  3.0941 -1.7026 -2.4769
  290SOL    HW2  870   1.192   1.489   1.074 -1.6959 -0.2506  0.9679
  291SOL     OW  871   1.486   1.047   2.931  0.7621 -0.6830 -0.2181
  291SOL    HW1  872   1.488   0.984   3.010  0.7284  1.3454  0.9646
  291SOL    HW2  873   1.430   1.016   2.852 -1.5732  1.6831 -0.6853
  292SOL     OW  874   1.439   1.669   0.322 -0.3594 -0.2060 -0.0030
  292SOL    HW1  875   1.344   1.699   0.342 -0.0203 -2.3058 -1.3820
  292SOL    HW2  876   1.454   1.663   0.224  0.6671 -0.8942  0.2991
  293SOL     OW  877   1.628   3.098   1.316 -0.4911 -0.6796 -0.3582
  293SOL    HW1  878   1.669   3.013   1.355 -0.7392  0.6002  0.0787
  293SOL    HW2  879   1.533   0.014   1.351 -0.3018  2.1949  1.3608
  294SOL     OW  880   1.949   1.074   2.753 -0.9300 -0.2686  1.0374
  294SOL    HW1  881   1.869   1.098   2.806  3.0845 -0.3126  0.0580
  294SOL    HW2  882   2.023   1.145   2.763 -1.1890  0.5943 -0.5515
  295SOL     OW  883   1.733   1.905   2.945 -0.0939  0.4172  0.3985
  295SOL    HW1  884   1.696   1.892   3.039 -2.9888  0.6689 -0.7930
  295SOL    HW2  885   1.712   1.817   2.898  1.4583 -0.4191  2.0873
  296SOL     OW  886   1.570   1.297   1.134 -0.1017  0.2191  0.3509
  296SOL    HW1  887   1.624   1.269   1.053 -0.2716  0.2221  2.1289
  296SOL    HW2  888   1.602   1.245   1.216 -0.8883  0.3375 -2.0201
  297SOL     OW  889   0.262   0.790   2.114  0.3066  0.3315 -0.7342
  297SOL    HW1  890   0.320   0.713   2.074 -0.6476 -0.0297  0.4621
  297SOL    HW2  891   0.250   0.780   2.216  1.4668  1.4754  3.8394
  298SOL     OW  892   1.534   1.880   1.373 -0.2318  0.3179  0.2777
  298SOL    HW1  893   1.439   1.889   1.412 -0.6373  0.9945  0.9207
  298SOL    HW2  894   1.575   1.973   1.373 -0.9985 -0.9305  1.2708
  299SOL     OW  895   1.029   0.079   2.544 -0.4710  0.2019 -0.8002
  299SOL    HW1  896   1.077   3.089   2.565 -0.5871 -4.0592 -0.3827
  299SOL    HW2  897   0.930   0.063   2.531 -0.9538  0.0330  1.4648
  300SOL     OW  898   2.677   1.983   0.449  0.0471 -0.2094 -0.3193
  300SOL    HW1  899   2.773   1.990   0.486 -0.8231 -1.2133  1.2537
  300SOL    HW2  900   2.641   2.069   0.403 -1.9690 -0.1202 -1.4248
  301SOL     OW  901   2.278   0.316   2.685  0.0645 -0.7067  0.4161
  301SOL    HW1  902   2.332   0.382   2.633 -0.9482  0.3594  0.4658
  301SOL    HW2  903   2.331   0.278   2.769  2.3341  1.4848  2.9630
  302SOL     OW  904   2.321   2.259   3.039 -0.1569 -0.4609 -0.1394
  302SOL    HW1  905   2.353   2.164   3.029  0.5596  0.3704 -1.4980
  302SOL    HW2  906   2.389   2.324   2.995  1.2562 -0.9943  1.0378
  303SOL     OW  907   0.009   2.501   2.694 -0.1298 -0.1195 -0.2614
  303SOL    HW1  908   0.081   2.567   2.727  0.8526 -2.0215 -0.6314
  303SOL    HW2  909   0.064   2.414   2.687 -0.8862  0.0896 -0.5736
  304SOL     OW  910   0.131   1.595   1.213  0.4329  0.4334 -0.8627
  304SOL    HW1  911   0.066   1.629   1.284 -2.7686 -1.1073  4.7969
  304SOL    HW2  912   0.168   1.662   1.155 -1.7293  0.5120  2.5956
  305SOL     OW  913   0.050   0.489   1.898  0.0566 -0.7121  0.5158
  305SOL    HW1  914   0.137   0.440   1.919  2.5069  2.7252  3.2386
  305SOL    HW2  915   3.083   0.441   1.837 -0.5767  0.7317 -2.5326
  306SOL     OW  916   1.047   1.540   0.581  0.0807  0.7908  0.6590
  306SOL    HW1  917   1.131   1.574   0.625 -0.2304  0.3053  2.0537
  306SOL    HW2  918   1.065   1.531   0.480  1.7684 -2.2530 -1.1496
  307SOL     OW  919   0.216   0.068   0.480  0.0477  0.4811  0.0523
  307SOL    HW1  920   0.304   0.032   0.435 -0.8157 -0.1088 -0.7179
  307SOL    HW2  921   0.227   0.049   0.580 -1.7001 -0.0364 -0.6830
  308SOL     OW  922   2.888   1.050   2.354 -0.2282  0.1567  0.1739
  308SOL    HW1  923   2.923   0.989   2.427  0.7694 -1.8445 -0.0124
  308SOL    HW2  924   2.936   1.027   2.266 -0.1936 -1.4750 -0.6948
  309SOL     OW  925   3.077   2.012   2.633  0.2104  0.4646  0.1363
  309SOL    HW1  926   0.000   1.915   2.653 -1.5768 -1.5892 -1.5094
  309SOL    HW2  927   2.992   2.039   2.685 -0.4063 -0.1845 -0.8675
  310SOL     OW  928   2.263   0.612   0.073 -0.0554 -0.5460 -0.0902
  310SOL    HW1  929   2.332   0.674   0.116  0.7789 -0.4688  0.1230
  310SOL    HW2  930   2.262   0.625   3.069  1.7949  1.4623  1.5132
  311SOL     OW  931   1.927   0.623   3.032 -0.3544 -0.1402  0.7521
  311SOL    HW1  932   1.917   0.716   2.992  1.3659 -0.4149 -2.4267
  311SOL    HW2  933   2.001   0.572   2.986  2.3399  0.1999 -1.2619
  312SOL     OW  934   1.456   1.930   2.751 -0.3821 -0.3995 -0.7201
  312SOL    HW1  935   1.524   1.855   2.778  1.4142 -3.3689  1.9359
  312SOL    HW2  936   1.380   1.939   2.819 -1.0958  1.8735 -0.1552
  313SOL     OW  937   0.211   0.615   0.447 -0.8886  0.0912  0.3909
  313SOL    HW1  938   0.189   0.562   0.364  0.5295 -1.1461 -2.2605
  313SOL    HW2  939   0.168   0.569   0.527  0.8908 -0.7922 -1.3920
  314SOL     OW  940   0.675   1.790   1.321 -0.1216 -0.3725  0.3207
  314SOL    HW1  941   0.770   1.786   1.280  3.8086  0.8304  0.4945
  314SOL    HW2  942   0.685   1.801   1.421  1.1746 -0.3429 -1.6472
  315SOL     OW  943   0.791   1.672   2.101  0.0802 -0.2671 -0.3290
  315SOL    HW1  944   0.794   1.617   2.016  2.0766 -2.7031  0.0635
  315SOL    HW2  945   0.696   1.680   2.136 -0.6478  2.9486 -1.9852
  316SOL     OW  946   0.531   2.508   0.655  0.4510 -0.1728 -0.1657
  316SOL    HW1  947   0.437   2.529   0.669  0.4809 -0.4612 -0.1436
  316SOL    HW2  948   0.560   2.542   0.566  1.1382 -0.5865  3.5965
  317SOL     OW  949   2.484   0.235   1.319  0.5063  0.2954 -0.3852
  317SOL    HW1  950   2.451   0.225   1.226  1.7880  1.0784  0.7869
  317SOL    HW2  951   2.571   0.291   1.327  0.7619 -1.8835 -0.3515
  318SOL     OW  952   1.663   2.951   0.504 -0.1588  0.6362 -0.1944
  318SOL    HW1  953   1.715   3.011   0.565 -0.2039 -1.1275 -1.9133
  318SOL    HW2  954   1.673   2.983   0.409 -0.3591  0.6316 -0.4229
  319SOL     OW  955   1.671   0.641   2.787  0.1522 -0.0557  0.3540
  319SOL    HW1  956   1.638   0.547   2.774  0.7210 -0.7526 -0.1823
  319SOL    HW2  957   1.771   0.648   2.753  1.5285 -0.4961 -1.1314
  320SOL     OW  958   3.025   2.047   1.699 -0.8622 -0.3642  0.6538
  320SOL    HW1  959   2.938   2.079   1.743  1.2718 -0.7882  0.1523
  320SOL    HW2  960   3.023   1.950   1.685  0.3289  3.1301  2.8876
  321SOL     OW  961   0.218   2.473   2.972 -0.3698 -0.7941  0.0784
  321SOL    HW1  962   0.232   2.508   3.067 -0.6896 -0.8615 -0.2869
  321SOL    HW2  963   0.126   2.435   2.963  4.5038  1.1706 -1.4318
  322SOL     OW  964   2.560   0.732   2.483  0.0425  1.0433  0.4600
  322SOL    HW1  965   2.595   0.798   2.419 -2.1325 -0.5688  4.9525
  322SOL    HW2  966   2.565   0.639   2.442  2.4740  3.4696  0.7569
  323SOL     OW  967   1.963   1.237   0.767 -1.1041 -0.1906  0.0588
  323SOL    HW1  968   2.033   1.222   0.839  1.0696 -2.4039 -1.4486
  323SOL    HW2  969   1.937   1.150   0.715 -0.2336  0.0038  1.2445
  324SOL     OW  970   0.116   0.242   1.327  0.5710 -0.0861  0.2519
  324SOL    HW1  971   0.213   0.226   1.329 -2.3110 -0.2473 -0.9298
  324SOL    HW2  972   0.099   0.318   1.264  0.7237  2.5910 -2.2296
  325SOL     OW  973   2.683   0.094   1.703  0.3202  0.3781 -0.1214
  325SOL    HW1  974   2.716   0.153   1.779 -1.1986 -3.4350 -1.0532
  325SOL    HW2  975   2.630   0.013   1.740  4.4813  1.3815  2.6582
  326SOL     OW  976   1.530   2.897   0.160  0.4024  1.0739 -0.4639
  326SOL    HW1  977   1.541   2.807   0.205 -0.7714  1.6429  1.8219
  326SOL    HW2  978   1.581   2.917   0.079 -2.6609  1.6963 -0.8354
  327SOL     OW  979   1.872   2.086   0.333 -0.3261 -0.3120  0.1337
  327SOL    HW1  980   1.817   2.162   0.374 -0.1413 -1.6654 -2.7013
  327SOL    HW2  981   1.822   2.001   0.341  0.9764  2.4150 -2.5562
  328SOL     OW  982   3.077   2.107   2.034  0.7682 -0.0832 -0.1439
  328SOL    HW1  983   3.027   2.069   1.954  3.0086  1.2130  1.2681
  328SOL    HW2  984   0.076   2.076   2.026  1.4901  0.7451 -1.6485
  329SOL     OW  985   3.037   2.250   1.149 -0.0213  0.2079 -0.4773
  329SOL    HW1  986   3.003   2.322   1.210  0.1000  1.0875 -1.7440
  329SOL    HW2  987   2.986   2.163   1.174  1.7847 -1.7447  0.9864
  330SOL     OW  988   2.321   0.778   2.614  0.2941 -0.2398 -0.0559
  330SOL    HW1  989   2.408   0.754   2.565  0.2305 -0.6737  0.0372
  330SOL    HW2  990   2.333   0.872   2.639 -1.3918 -1.1767 -3.5391
  331SOL     OW  991   2.339   1.713   0.851  0.8456 -0.0310 -0.5218
  331SOL    HW1  992   2.338   1.816   0.834  2.0553  0.9560 -0.5234
  331SOL    HW2  993   2.393   1.665   0.782 -2.2113  0.0862  0.7820
  332SOL     OW  994   0.383   2.866   0.884 -0.0725  0.1677  0.4870
  332SOL    HW1  995   0.456   2.900   0.945  3.2855 -0.7087  1.0044
  332SOL    HW2  996   0.356   2.773   0.910  2.8006  2.8008  2.1428
  333SOL     OW  997   0.039   1.817   2.167 -0.9916 -0.0115  0.1911
  333SOL    HW1  998   0.031   1.728   2.207  1.0401  1.0458  0.6952
  333SOL    HW2  999   3.061   1.876   2.197 -1.5054 -1.7648 -0.7570
  334SOL     OW 1000   0.515   1.021   0.834 -0.2879 -0.3462 -0.1983
  334SOL    HW1 1001   0.504   1.119   0.804 -1.5778 -3.5179  0.0449
  334SOL    HW2 1002   0.598   1.008   0.891  1.2634 -0.6897  0.1462
  335SOL     OW 1003   0.062   1.575   2.317 -0.1625  0.3176  0.5112
  335SOL    HW1 1004   0.109   1.595   2.402 -1.4689 -1.1163 -1.3074
  335SOL    HW2 1005   0.120   1.511   2.265 -0.3015 -0.7971  2.5706
  336SOL     OW 1006   2.268   2.868   2.187  0.5213 -0.8557 -0.1596
  336SOL    HW1 1007   2.169   2.852   2.206  2.1935  0.3738  1.7025
  336SOL    HW2 1008   2.287   2.900   2.095 -1.5371 -1.9505  1.7561
  337SOL     OW 1009   0.888   0.723   1.072  0.5215 -0.0523  0.0902
  337SOL    HW1 1010   0.801   0.768   1.068 -0.3510 -1.3981 -0.5581
  337SOL    HW2 1011   0.878   0.626   1.095  0.3234  1.9950  0.0675
  338SOL     OW 1012   1.746   1.839   1.110 -0.2932  0.2472  0.2928
  338SOL    HW1 1013   1.744   1.781   1.195 -2.4960  1.5301  0.4797
  338SOL    HW2 1014   1.656   1.865   1.085  3.7257 -1.8532  2.1098
  339SOL     OW 1015   0.284   1.777   1.083  0.4634  0.2868 -0.1879
  339SOL    HW1 1016   0.346   1.762   1.160 -1.7786  0.9759  0.6938
  339SOL    HW2 1017   0.250   1.873   1.085  1.7287  0.0783  0.8144
  340SOL     OW 1018   0.926   2.958   1.918 -0.3395 -0.2263  0.2419
  340SOL    HW1 1019   0.908   3.055   1.900  1.4106  0.1254 -0.7726
  340SOL    HW2 1020   0.876   2.890   1.860 -1.4323 -2.3198 -1.9039
  341SOL     OW 1021   1.929   1.599   0.677 -0.2432  0.1034 -0.7156
  341SOL    HW1 1022   1.835   1.556   0.683 -0.2407  2.6114  0.7942
  341SOL    HW2 1023   1.993   1.546   0.621 -0.3496 -0.5569  1.5238
  342SOL     OW 1024   2.045   1.179   0.365  0.2617  0.5154  0.2592
  342SOL    HW1 1025   2.130   1.183   0.316 -1.5309  1.2775  0.4705
  342SOL    HW2 1026   1.969   1.194   0.304  0.4293  0.2525  2.3828
  343SOL     OW 1027   2.112   0.315   0.966 -0.4052  0.2440 -0.1026
  343SOL    HW1 1028   2.040   0.371   1.008 -0.3452 -1.7706  0.1406
  343SOL    HW2 1029   2.101   0.218   0.987 -0.2818  0.3008  0.1244
  344SOL     OW 1030   2.716   0.366   0.129 -0.7528  0.5448  0.0382
  344SOL    HW1 1031   2.781   0.360   0.052  0.4721  0.0995  1.8656
  344SOL    HW2 1032   2.626   0.312   0.119 -1.2680  0.0402 -0.2869
  345SOL     OW 1033   1.002   2.380   1.798 -0.5598  0.1048  0.1887
  345SOL    HW1 1034   1.058   2.384   1.708  2.8831  2.1072 -4.2162
  345SOL    HW2 1035   0.904   2.394   1.763  0.0004  1.1215 -0.6773
  346SOL     OW 1036   2.486   2.297   0.932  0.0616  0.5066  0.5211
  346SOL    HW1 1037   2.397   2.332   0.965  0.5344 -0.0165 -0.9280
  346SOL    HW2 1038   2.544   2.311   1.012 -0.8928 -0.7631  0.3945
  347SOL     OW 1039   2.143   3.098   1.298  0.3210  0.2222  0.2325
  347SOL    HW1 1040   2.237   0.007   1.337  0.1530  1.7816 -1.7895
  347SOL    HW2 1041   2.078   0.025   1.367  0.8928 -3.2154 -0.1022
  348SOL     OW 1042   0.930   1.036   1.382  0.0869 -0.2245  0.4076
  348SOL    HW1 1043   0.967   1.107   1.441  1.6808 -0.9612 -1.2930
  348SOL    HW2 1044   0.846   1.077   1.335 -1.7866  0.1521  0.5372
  349SOL     OW 1045   2.539   0.532   2.983  0.0752  0.4701 -0.3513
  349SOL    HW1 1046   2.577   0.617   2.937  0.4247 -1.0000 -2.8156
  349SOL    HW2 1047   2.551   0.530   3.085  0.0310 -0.4015 -0.4235
  350SOL     OW 1048   2.114   2.193   2.835 -0.2806 -0.0396 -0.7291
  350SOL    HW1 1049   2.017   2.166   2.840  0.4671  0.3273 -2.2839
  350SOL    HW2 1050   2.154   2.195   2.928  2.3191 -1.7777 -1.1243
  351SOL     OW 1051   0.839   0.524   0.425 -0.1803 -0.3271  0.0239
  351SOL    HW1 1052   0.807   0.605   0.475 -1.7226  0.5488 -2.6930
  351SOL    HW2 1053   0.834   0.547   0.328  0.2619  1.7681 -1.9359
  352SOL     OW 1054   1.592   2.138   2.846 -0.5362  0.2657  0.2442
  352SOL    HW1 1055   1.694   2.144   2.850 -1.2726  0.2777  0.2164
  352SOL    HW2 1056   1.573   2.051   2.802 -0.5790  0.2810  0.0992
  353SOL     OW 1057   0.567   0.863   2.869  0.7328  0.2202  0.1488
  353SOL    HW1 1058   0.587   0.828   2.778  0.9940 -2.0603  0.1267
  353SOL    HW2 1059   0.577   0.962   2.877  0.6681 -3.6826 -0.2097
  354SOL     OW 1060   0.772   2.403   2.661 -0.3532  0.0552 -0.5873
  354SOL    HW1 1061   0.713   2.326   2.696  0.0992 -0.2623 -2.1734
  354SOL    HW2 1062   0.773   2.488   2.718  0.6024 -2.7666 -1.1544
  355SOL     OW 1063   2.677   2.725   1.754 -0.5509 -1.0561 -0.1343
  355SOL    HW1 1064   2.705   2.782   1.836  1.3513  0.3147  2.7869
  355SOL    HW2 1065   2.736   2.732   1.669 -1.9905 -1.9167 -0.8320
  356SOL     OW 1066   2.635   1.324   1.219  0.3133  0.0444  0.1687
  356SOL    HW1 1067   2.574   1.302   1.296  0.3762  0.9243  0.0660
  356SOL    HW2 1068   2.580   1.356   1.143  2.0584 -2.1730 -1.5579
  357SOL     OW 1069   2.710   0.401   1.354 -0.0507  0.7985  0.2289
  357SOL    HW1 1070   2.708   0.402   1.456 -1.2718 -0.6737 -0.7729
  357SOL    HW2 1071   2.798   0.364   1.313  0.6740  1.4273  0.4446
  358SOL     OW 1072   0.760   1.981   1.531  0.0983  0.2999 -0.0544
  358SOL    HW1 1073   0.840   2.007   1.473  1.4277 -0.4838 -1.7123
  358SOL    HW2 1074   0.672   2.022   1.505  1.8183 -2.7750  0.5750
  359SOL     OW 1075   2.864   2.624   2.593 -0.6445  0.4875 -0.0615
  359SOL    HW1 1076   2.878   2.714   2.544 -0.5953 -1.3286  1.4122
  359SOL    HW2 1077   2.948   2.603   2.646 -0.5381  2.5255  0.0387
  360SOL     OW 1078   1.132   0.849   1.648  0.0991  0.1787  0.4599
  360SOL    HW1 1079   1.036   0.841   1.672 -0.3903  1.1499  0.5616
  360SOL    HW2 1080   1.185   0.811   1.723 -3.0631  0.0651 -0.8737
  361SOL     OW 1081   2.315   0.138   0.762  0.1958  0.4249 -0.1297
  361SOL    HW1 1082   2.268   0.223   0.788  4.3185  0.6554  0.8445
  361SOL    HW2 1083   2.304   0.119   0.662  0.9453  0.4208  0.3094
  362SOL     OW 1084   0.631   0.087   0.802 -0.0406 -0.5433  0.1442
  362SOL    HW1 1085   0.729   0.080   0.814 -1.4014  2.7889 -0.5809
  362SOL    HW2 1086   0.610   0.180   0.761 -0.7010  2.4395 -0.2891
  363SOL     OW 1087   0.730   1.486   0.416 -0.0491 -0.4812 -0.2128
  363SOL    HW1 1088   0.649   1.433   0.449  1.0305  3.0463  1.0281
  363SOL    HW2 1089   0.817   1.446   0.452 -1.1637  2.2028  0.7810
  364SOL     OW 1090   0.573   1.017   1.651 -0.6229 -0.3335  0.1071
  364SOL    HW1 1091   0.597   0.947   1.728 -0.9733 -1.9309  1.4770
  364SOL    HW2 1092   0.516   0.971   1.585  2.5352 -0.8759  0.8047
  365SOL     OW 1093   2.747   0.890   0.877  0.0440 -0.0834 -0.1235
  365SOL    HW1 1094   2.734   0.945   0.967  0.0079  0.7099  0.3092
  365SOL    HW2 1095   2.749   0.790   0.890 -0.2754  0.7281 -2.4461
  366SOL     OW 1096   2.542   1.362   0.538 -0.6022  0.3786  0.2195
  366SOL    HW1 1097   2.524   1.325   0.444  0.9546 -1.8629  0.3670
  366SOL    HW2 1098   2.624   1.310   0.570  2.1315 -1.0806 -1.6887
  367SOL     OW 1099   2.132   2.083   2.184 -0.3779 -0.5552 -0.0217
  367SOL    HW1 1100   2.065   2.024   2.143  0.1316  0.0380  0.8508
  367SOL    HW2 1101   2.091   2.156   2.243 -0.4557 -1.5596 -0.7075
  368SOL     OW 1102   2.759   1.674   0.740 -0.1525  0.9231 -0.4495
  368SOL    HW1 1103   2.756   1.576   0.779 -0.6658 -1.6720  1.0012
  368SOL    HW2 1104   2.718   1.687   0.651  2.2058 -2.3794  0.3593
  369SOL     OW 1105   2.083   2.378   2.647  0.5447 -0.2285 -0.0389
  369SOL    HW1 1106   2.100   2.314   2.721  1.5884  1.2636  1.1926
  369SOL    HW2 1107   2.000   2.436   2.666  1.9747 -0.9375  0.6973
  370SOL     OW 1108   0.142   3.056   1.236 -0.3819  0.3395  0.4488
  370SOL    HW1 1109   0.211   0.021   1.279  2.7159  2.8955 -0.8427
  370SOL    HW2 1110   0.138   3.074   1.133 -0.2564 -1.5516  0.2658
  371SOL     OW 1111   0.642   2.089   0.071 -0.0582 -0.0958 -0.2378
  371SOL    HW1 1112   0.645   2.107   0.170  1.0577 -2.1730  2.1995
  371SOL    HW2 1113   0.551   2.050   0.050  2.1288 -0.0749 -1.9251
  372SOL     OW 1114   1.154   1.116   0.039  0.3908  0.2456 -0.1782
  372SOL    HW1 1115   1.133   1.190   3.075  3.1079 -3.4722  1.3046
  372SOL    HW2 1116   1.133   1.025   3.100  2.2577 -1.1664 -1.0955
  373SOL     OW 1117   1.413   2.545   2.290 -0.4228  0.2049 -0.6460
  373SOL    HW1 1118   1.453   2.467   2.244 -0.2070  2.2886  2.4585
  373SOL    HW2 1119   1.477   2.606   2.344 -1.7845  0.1037  0.2007
  374SOL     OW 1120   0.436   2.257   2.932  0.0523  0.0028 -0.0551
  374SOL    HW1 1121   0.408   2.166   2.896  2.3578 -2.3235  0.9928
  374SOL    HW2 1122   0.363   2.330   2.924  0.2096 -2.9139  0.3687
  375SOL     OW 1123   0.600   1.293   1.608  0.4125  0.4126  0.5054
  375SOL    HW1 1124   0.601   1.199   1.654  0.8406 -1.8684  2.6972
  375SOL    HW2 1125   0.556   1.363   1.668  0.0722 -0.8423  0.2819
  376SOL     OW 1126   0.325   2.423   1.708 -0.4977 -0.4781 -0.1594
  376SOL    HW1 1127   0.369   2.420   1.802  0.5527  1.4162  1.7356
  376SOL    HW2 1128   0.245   2.357   1.699  2.3971 -0.7087  1.1682
  377SOL     OW 1129   2.974   1.538   2.568  0.6465  0.1910 -0.0024
  377SOL    HW1 1130   2.900   1.539   2.499 -3.1094  0.1150  2.1725
  377SOL    HW2 1131   3.011   1.454   2.612 -1.5378  0.9935 -0.0144
  378SOL     OW 1132   1.178   0.049   0.024  0.2697  0.2380  0.2163
  378SOL    HW1 1133   1.224   0.075   3.036 -0.1875  3.1987 -1.2057
  378SOL    HW2 1134   1.205   3.060   0.058  0.0727  0.4461  0.2067
  379SOL     OW 1135   1.814   0.751   0.753  0.0329 -0.5582 -0.8383
  379SOL    HW1 1136   1.783   0.834   0.812 -3.0589  1.1445  2.9472
  379SOL    HW2 1137   1.824   0.776   0.653  0.2419  1.1045  0.0477
  380SOL     OW 1138   0.282   2.052   1.197  0.2316 -0.0008 -0.0274
  380SOL    HW1 1139   0.267   2.057   1.299 -0.8906 -0.6613  2.6226
  380SOL    HW2 1140   0.281   2.147   1.164  1.9622 -1.8479 -1.3440
  381SOL     OW 1141   2.257   1.709   2.151 -0.0406  0.1326  0.1931
  381SOL    HW1 1142   2.192   1.678   2.221  3.7350 -0.4193 -2.3013
  381SOL    HW2 1143   2.269   1.646   2.074  0.0814 -0.5132 -0.1053
  382SOL     OW 1144   0.092   0.239   2.623  0.6738  0.1897  0.0444
  382SOL    HW1 1145   0.028   0.174   2.667  1.2323 -0.5158  1.3488
  382SOL    HW2 1146   0.181   0.197   2.604 -1.8118  0.1827  1.2193
  383SOL     OW 1147   1.788   1.390   2.929  0.2856 -1.2043 -0.2289
  383SOL    HW1 1148   1.878   1.436   2.943  1.2659 -1.2701 -2.3500
  383SOL    HW2 1149   1.716   1.434   2.987 -1.1113  1.4979 -2.8253
  384SOL     OW 1150   1.196   2.120   1.536  0.0978 -0.7519 -0.6950
  384SOL    HW1 1151   1.223   2.159   1.624  1.0161 -0.5899 -2.2186
  384SOL    HW2 1152   1.117   2.172   1.497  1.3932 -0.6761  0.7261
  385SOL     OW 1153   1.684   2.618   0.753  0.3439 -0.1741  0.3405
  385SOL    HW1 1154   1.694   2.705   0.807  0.4598  2.4315  3.6350
  385SOL    HW2 1155   1.724   2.629   0.659  0.8280  0.2107 -0.1505
  386SOL     OW 1156   1.832   2.237   1.081 -0.4812 -0.2257 -0.3229
  386SOL    HW1 1157   1.883   2.211   0.994  1.0787  1.4321 -2.2704
  386SOL    HW2 1158   1.774   2.316   1.050 -1.6970 -0.0666  0.8577
  387SOL     OW 1159   3.088   2.174   1.456  0.3191  0.4544  0.1159
  387SOL    HW1 1160   3.057   2.122   1.373 -3.3323 -0.2987  1.8517
  387SOL    HW2 1161   3.061   2.128   1.546 -1.3404  0.9639  1.6057
  388SOL     OW 1162   2.674   0.482   1.601 -0.3405 -0.0538 -0.1681
  388SOL    HW1 1163   2.718   0.574   1.598  1.1359 -0.6951 -1.7898
  388SOL    HW2 1164   2.572   0.481   1.620 -1.2239 -0.8030  2.2418
  389SOL     OW 1165   1.873   0.798   0.486  0.4216  0.3062  0.3329
  389SOL    HW1 1166   1.891   0.812   0.389 -0.1197 -0.5279  0.6789
  389SOL    HW2 1167   1.776   0.764   0.497  1.3321  2.4112  0.0685
  390SOL     OW 1168   1.088   1.905   2.682  0.4726  0.1862 -0.2647
  390SOL    HW1 1169   0.988   1.917   2.658  1.4498 -2.1629  1.8050
  390SOL    HW2 1170   1.140   1.856   2.612  0.1345 -0.8548 -0.4198
  391SOL     OW 1171   1.068   2.178   3.035  0.5997 -0.1776  0.4985
  391SOL    HW1 1172   1.160   2.161   2.986  0.9012 -1.5741 -2.2787
  391SOL    HW2 1173   1.021   2.259   2.996  0.8696  2.1215 -0.6931
  392SOL     OW 1174   0.033   2.859   1.663 -0.1261 -0.0374  0.2052
  392SOL    HW1 1175   0.110   2.893   1.722  0.0433  1.2597  1.9700
  392SOL    HW2 1176   3.044   2.892   1.705  0.1207  1.4069  0.6045
  393SOL     OW 1177   1.620   2.611   0.264 -0.4820  0.0658 -0.0334
  393SOL    HW1 1178   1.684   2.566   0.199 -0.4886  0.7952 -0.9651
  393SOL    HW2 1179   1.566   2.538   0.310 -2.1761 -0.6172  0.0741
  394SOL     OW 1180   0.678   0.439   2.194  0.4618  0.2720  0.1120
  394SOL    HW1 1181   0.700   0.404   2.102 -1.3043 -1.3077  1.0583
  394SOL    HW2 1182   0.623   0.375   2.253 -1.5378  1.8944 -1.0070
  395SOL     OW 1183   0.201   1.189   1.387 -0.0798  0.5767 -0.4052
  395SOL    HW1 1184   0.163   1.124   1.318  0.0096  2.3755  2.4907
  395SOL    HW2 1185   0.131   1.257   1.421  1.2425 -0.6351 -0.7093
  396SOL     OW 1186   1.857   1.067   2.297 -0.0183  0.3643  0.5978
  396SOL    HW1 1187   1.784   1.134   2.320  1.3855 -0.6513 -0.1806
  396SOL    HW2 1188   1.856   1.002   2.374 -0.3940  1.0157 -0.5681
  397SOL     OW 1189   0.775   0.236   3.015  0.4616 -0.1299  0.2582
  397SOL    HW1 1190   0.808   0.154   3.054  0.1102  0.8921 -0.2449
  397SOL    HW2 1191   0.713   0.281   3.080  0.4589 -2.0915 -1.1226
  398SOL     OW 1192   0.793   1.962   2.984  0.4565 -0.0741 -0.2793
  398SOL    HW1 1193   0.734   2.003   3.059  2.7643 -2.2635  2.7976
  398SOL    HW2 1194   0.870   2.027   2.970  0.0569 -2.7136  3.5257
  399SOL     OW 1195   2.532   1.567   2.710 -0.3192  0.7799 -0.0355
  399SOL    HW1 1196   2.489   1.550   2.618 -1.7272  0.9539  0.8352
  399SOL    HW2 1197   2.474   1.533   2.787  0.6560 -2.1121  0.3904
  400SOL     OW 1198   2.337   1.525   1.353  0.1092 -0.6164  0.3456
  400SOL    HW1 1199   2.371   1.550   1.256  3.5822 -0.6173 -2.3179
  400SOL    HW2 1200   2.275   1.444   1.358  0.7358 -0.4683  2.4309
  401SOL     OW 1201   1.383   1.764   1.116  0.1860  0.5446 -0.0538
  401SOL    HW1 1202   1.426   1.671   1.132 -1.6638 -1.1374 -0.0234
  401SOL    HW2 1203   1.394   1.817   1.199 -0.7606 -1.6739 -5.2393
  402SOL     OW 1204   0.026   2.555   2.181  0.2205  0.3773  0.2703
  402SOL    HW1 1205   0.059   2.521   2.273 -1.9264  1.1915  2.8069
  402SOL    HW2 1206   0.105   2.568   2.119 -1.0660 -2.8723  1.3673
  403SOL     OW 1207   0.123   1.125   2.566 -0.3411  0.0598 -0.1674
  403SOL    HW1 1208   0.194   1.198   2.553  1.5451 -1.2252  0.2519
  403SOL    HW2 1209   0.165   1.057   2.626  0.0800  1.5884  0.7481
  404SOL     OW 1210   2.213   1.925   1.288 -0.6117  0.2095  0.5942
  404SOL    HW1 1211   2.238   2.009   1.237 -0.4192  0.4161 -1.8922
  404SOL    HW2 1212   2.194   1.845   1.226 -0.7611  0.3320  0.4491
  405SOL     OW 1213   2.691   0.271   2.683 -0.2521  0.0629  0.1183
  405SOL    HW1 1214   2.701   0.258   2.580  2.0886 -1.9754 -1.6292
  405SOL    HW2 1215   2.713   0.182   2.726 -1.4967 -0.4076  1.7683
  406SOL     OW 1216   0.823   0.978   0.078  0.0012 -0.0602  0.0408
  406SOL    HW1 1217   0.914   0.941   0.054 -3.9145 -0.2229 -0.5069
  406SOL    HW2 1218   0.780   1.013   3.089 -0.1373 -2.0075  1.1412
  407SOL     OW 1219   1.847   2.519   2.696 -0.0269 -0.0731  0.3090
  407SOL    HW1 1220   1.765   2.474   2.737 -1.5561  2.4146  0.3323
  407SOL    HW2 1221   1.817   2.612   2.676  1.9400 -0.5451  2.8694
  408SOL     OW 1222   3.034   3.031   3.072 -0.0519  0.0821  0.2762
  408SOL    HW1 1223   3.014   2.962   2.998 -1.1216 -0.7970 -2.3982
  408SOL    HW2 1224   3.090   0.006   3.038 -1.0735 -1.3989 -0.9980
  409SOL     OW 1225   2.127   1.536   0.948 -0.3955  0.5364  0.3883
  409SOL    HW1 1226   2.039   1.516   0.902  0.4253  0.7607  0.0086
  409SOL    HW2 1227   2.174   1.613   0.900  0.4728  2.4422  0.3029
  410SOL     OW 1228   2.515   1.819   2.997  0.6179 -0.4711 -0.0926
  410SOL    HW1 1229   2.514   1.776   3.090 -1.2323  1.2647  3.0135
  410SOL    HW2 1230   2.569   1.901   2.998  3.0663 -3.3936 -0.9392
  411SOL     OW 1231   0.056   1.120   0.878  0.0331  0.3182  0.4192
  411SOL    HW1 1232   0.098   1.206   0.847  1.2800  2.1228  1.3645
  411SOL    HW2 1233   0.111   1.036   0.855  0.5318  0.3149  1.2235
  412SOL     OW 1234   1.793   2.627   0.512  0.1879 -0.3424 -0.7682
  412SOL    HW1 1235   1.718   2.607   0.452  2.8253 -1.9529  0.4155
  412SOL    HW2 1236   1.872   2.570   0.487 -1.0056  2.2221  1.4053
  413SOL     OW 1237   2.027   0.491   2.157 -0.5882 -0.0643  0.2978
  413SOL    HW1 1238   1.974   0.567   2.132  3.8454 -0.9743  0.5648
  413SOL    HW2 1239   1.977   0.417   2.210  1.9782 -0.1612 -0.1691
  414SOL     OW 1240   2.925   0.504   0.548 -0.0629  0.0709  0.0992
  414SOL    HW1 1241   2.872   0.443   0.488 -0.7643  0.1335  0.5677
  414SOL    HW2 1242   2.956   0.449   0.627  0.0503 -0.2946  1.3611
  415SOL     OW 1243   0.956   1.739   1.677  0.4392  0.1565 -0.0250
  415SOL    HW1 1244   0.984   1.756   1.777  0.9456 -1.7409  4.9193
  415SOL    HW2 1245   0.894   1.814   1.641 -2.7127  3.8796 -2.3236
  416SOL     OW 1246   0.362   3.095   2.977  0.3740 -0.0456 -0.0921
  416SOL    HW1 1247   0.357   0.081   2.925  1.5472  1.8186 -0.5608
  416SOL    HW2 1248   0.332   3.021   2.918 -0.8135  2.1747  1.9898
  417SOL     OW 1249   2.598   0.045   1.005 -0.2020  0.2947  0.3572
  417SOL    HW1 1250   2.596   3.083   1.090 -0.9922 -1.2298  1.4623
  417SOL    HW2 1251   2.537   0.130   1.014 -1.1191 -0.0489  3.8460
  418SOL     OW 1252   0.245   0.504   2.462 -0.7479  0.0101 -0.7280
  418SOL    HW1 1253   0.165   0.450   2.429 -1.4929  0.7116 -1.2865
  418SOL    HW2 1254   0.256   0.589   2.413  0.3091 -2.7736  0.8075
  419SOL     OW 1255   0.026   1.373   1.477 -0.1235 -0.1005 -0.4261
  419SOL    HW1 1256   0.021   1.472   1.471  1.2596 -4.3110  0.8751
  419SOL    HW2 1257   3.043   1.334   1.434  2.3536 -0.3023  1.7121
  420SOL     OW 1258   0.835   1.851   0.767  0.1530  0.1220  0.2052
  420SOL    HW1 1259   0.765   1.840   0.693 -2.0457 -0.2372  1.7106
  420SOL    HW2 1260   0.818   1.770   0.826 -4.1543  0.8087  1.2312
  421SOL     OW 1261   2.049   2.246   2.384  0.3988  0.2527  0.0202
  421SOL    HW1 1262   2.107   2.258   2.467  2.4284  0.9336  1.0287
  421SOL    HW2 1263   1.953   2.279   2.391 -1.0382 -1.0172 -1.1643
  422SOL     OW 1264   3.091   0.498   2.653  0.4425 -0.2985  0.3663
  422SOL    HW1 1265   3.011   0.500   2.716 -1.6379  1.1434  1.6309
  422SOL    HW2 1266   0.026   0.403   2.646 -1.6317  1.8904  1.9591
  423SOL     OW 1267   1.520   2.096   1.082 -0.3903 -0.4347  0.3218
  423SOL    HW1 1268   1.456   2.080   1.158 -0.0930 -2.1125 -0.7306
  423SOL    HW2 1269   1.611   2.118   1.118  1.1687  1.4898  1.2675
  424SOL     OW 1270   0.752   1.899   1.790  0.3336  1.0121  0.3464
  424SOL    HW1 1271   0.757   1.945   1.703  2.4301 -1.5548  0.8990
  424SOL    HW2 1272   0.658   1.866   1.812  0.2056 -2.3339 -0.4780
  425SOL     OW 1273   3.011   2.764   2.052  0.1534 -0.1547  0.1674
  425SOL    HW1 1274   3.039   2.680   2.102 -1.5030 -0.7249  0.5480
  425SOL    HW2 1275   2.910   2.750   2.032 -0.6755 -0.7125  1.2594
  426SOL     OW 1276   1.650   0.416   0.529  0.0011 -0.1639 -0.4719
  426SOL    HW1 1277   1.699   0.356   0.469  1.0098  2.7388  0.6324
  426SOL    HW2 1278   1.690   0.431   0.624  0.0605 -0.1564 -0.6064
  427SOL     OW 1279   1.203   0.721   0.212  0.6645 -0.1529 -0.0344
  427SOL    HW1 1280   1.155   0.776   0.284 -0.1359  2.2054  1.0238
  427SOL    HW2 1281   1.160   0.630   0.197 -1.1823 -0.1414  0.5314
  428SOL     OW 1282   1.576   1.168   0.229 -0.0073 -0.2491  0.2625
  428SOL    HW1 1283   1.562   1.188   0.329  0.9486  0.2959 -0.5641
  428SOL    HW2 1284   1.581   1.247   0.167 -0.1107 -2.6536 -1.5254
  429SOL     OW 1285   2.995   2.703   0.595 -0.2714 -0.2180  0.1680
  429SOL    HW1 1286   3.093   2.718   0.574  0.9686  0.7088 -0.3037
  429SOL    HW2 1287   2.932   2.777   0.564 -3.4373  0.9342  3.3118
  430SOL     OW 1288   0.449   3.053   2.231 -0.0740 -0.5243  0.3576
  430SOL    HW1 1289   0.472   0.029   2.294 -1.6154  0.5011 -0.3450
  430SOL    HW2 1290   0.504   3.066   2.146 -0.3702  2.1690 -0.9828
  431SOL     OW 1291   2.657   1.038   1.103 -0.0133  0.5868  0.3421
  431SOL    HW1 1292   2.560   1.013   1.087  1.8375  2.7606 -1.3336
  431SOL    HW2 1293   2.672   1.133   1.139 -2.1566 -2.2257 -0.4312
  432SOL     OW 1294   2.097   2.472   1.897  0.1130 -0.1465 -0.1467
  432SOL    HW1 1295   2.157   2.452   1.980 -0.3976 -3.7091  1.8318
  432SOL    HW2 1296   2.054   2.379   1.862 -2.1955 -3.4780 -0.6009
  433SOL     OW 1297   1.472   2.378   0.672  0.6520 -0.3271 -0.0835
  433SOL    HW1 1298   1.506   2.304   0.732 -0.7387  0.0612 -3.1084
  433SOL    HW2 1299   1.495   2.469   0.708  1.8399 -1.6674 -1.4575
  434SOL     OW 1300   0.460   2.162   2.053 -0.7508  0.4016  0.1997
  434SOL    HW1 1301   0.484   2.144   2.151 -0.9537 -1.9009 -0.0039
  434SOL    HW2 1302   0.374   2.112   2.035  0.6367  1.0900  0.8259
  435SOL     OW 1303   3.029   0.916   0.139  0.1810 -0.1556  0.2850
  435SOL    HW1 1304   3.052   0.878   0.233 -2.7307 -0.3998 -1.6873
  435SOL    HW2 1305   0.010   0.967   0.110 -2.4477 -1.6641 -0.3611
  436SOL     OW 1306   0.184   2.575   1.952 -0.2429  0.0026 -0.4256
  436SOL    HW1 1307   0.245   2.657   1.945 -0.5170 -2.7536  0.0883
  436SOL    HW2 1308   0.144   2.548   1.860  0.1427 -0.3986 -0.2292
  437SOL     OW 1309   1.684   2.360   1.805  0.6986 -0.1687 -0.7016
  437SOL    HW1 1310   1.671   2.362   1.700 -0.7284  1.7730 -3.8924
  437SOL    HW2 1311   1.740   2.440   1.838 -1.5868 -1.7149 -3.5563
  438SOL     OW 1312   0.158   1.770   0.383  0.0052  0.0572 -0.4082
  438SOL    HW1 1313   0.205   1.850   0.423 -1.2404 -1.2366  2.5665
  438SOL    HW2 1314   0.141   1.786   0.283  0.1068 -0.5164 -1.9079
  439SOL     OW 1315   0.135   0.497   0.703  0.3996  0.0661 -0.4313
  439SOL    HW1 1316   0.176   0.568   0.763  0.0149  0.8423 -0.4783
  439SOL    HW2 1317   0.046   0.462   0.738 -0.8840  0.1593 -0.3349
  440SOL     OW 1318   0.033   2.868   2.349 -0.4816 -0.0593  0.5324
  440SOL    HW1 1319   0.075   2.796   2.409 -2.0193  0.2785  0.9519
  440SOL    HW2 1320   0.032   2.843   2.252 -0.9983 -3.9330 -0.7707
  441SOL     OW 1321   3.002   0.436   0.816  0.1415 -0.0623 -0.2188
  441SOL    HW1 1322   3.034   0.408   0.910  0.1651  1.2940 -0.3787
  441SOL    HW2 1323   2.937   0.369   0.777  0.7412  3.8448 -1.4835
  442SOL     OW 1324   1.321   2.290   2.460  0.3901  0.2049  0.8539
  442SOL    HW1 1325   1.221   2.300   2.473 -1.1908 -1.0375  0.1522
  442SOL    HW2 1326   1.365   2.203   2.493  3.0143  2.1081  0.2012
  443SOL     OW 1327   0.565   0.925   0.272  0.0509 -0.1470 -0.3416
  443SOL    HW1 1328   0.495   0.851   0.259  1.3580 -2.8869  1.8243
  443SOL    HW2 1329   0.623   0.941   0.192 -0.5913  1.0031 -0.4788
  444SOL     OW 1330   1.748   1.375   2.646  0.0357 -0.4272  0.4351
  444SOL    HW1 1331   1.682   1.450   2.646  1.3684 -2.3103 -0.0151
  444SOL    HW2 1332   1.791   1.371   2.735 -2.6062  1.8940 -3.0262
  445SOL     OW 1333   3.044   0.056   0.716  0.1760 -0.1813 -0.7174
  445SOL    HW1 1334   3.086   3.097   0.647 -1.6440  0.8585 -2.2039
  445SOL    HW2 1335   2.954   0.021   0.747  0.0185  0.2666 -0.9847
  446SOL     OW 1336   2.108   0.633   1.090  0.0810  0.2632 -0.3310
  446SOL    HW1 1337   2.091   0.697   1.019 -2.0121 -0.9219  3.4711
  446SOL    HW2 1338   2.015   0.592   1.122 -3.9293 -3.1514 -1.9842
  447SOL     OW 1339   0.004   0.593   2.953  0.0610  0.2361 -0.0162
  447SOL    HW1 1340   0.067   0.515   2.961 -0.3128  1.4887 -0.3845
  447SOL    HW2 1341   3.048   0.605   3.038 -1.0633  2.8024  1.3687
  448SOL     OW 1342   1.772   2.074   1.631 -0.1938  0.1110 -0.2881
  448SOL    HW1 1343   1.834   2.137   1.578  1.6635  2.9609  0.6722
  448SOL    HW2 1344   1.786   1.976   1.617 -1.2969  1.6476 -0.3666
  449SOL     OW 1345   0.875   1.570   0.810  0.4161  0.8626  0.5735
  449SOL    HW1 1346   0.929   1.564   0.724  0.0459 -0.4670 -1.2326
  449SOL    HW2 1347   0.818   1.481   0.817 -0.5585 -0.5777  0.4293
  450SOL     OW 1348   2.784   2.278   2.243  0.0239  0.2411 -0.2255
  450SOL    HW1 1349   2.850   2.306   2.173 -1.0555  0.9546 -1.0859
  450SOL    HW2 1350   2.684   2.290   2.213 -2.1947  1.8322  1.7401
  451SOL     OW 1351   2.588   1.192   2.868 -0.3211  0.2971  0.0570
  451SOL    HW1 1352   2.583   1.155   2.963 -0.4888  2.2811  0.3986
  451SOL    HW2 1353   2.566   1.288   2.870  2.8363 -2.3489  0.0445
  452SOL     OW 1354   1.850   0.877   1.139 -0.8085  0.6069  0.1632
  452SOL    HW1 1355   1.882   0.969   1.150  0.8625  0.1887 -0.7298
  452SOL    HW2 1356   1.894   0.798   1.191  0.9718 -1.7079 -0.9689
  453SOL     OW 1357   2.313   0.821   1.474 -0.5330 -0.8126  0.4253
  453SOL    HW1 1358   2.233   0.848   1.533 -4.2116  1.0503  2.0229
  453SOL    HW2 1359   2.295   0.728   1.437  1.4005  0.8066  2.7407
  454SOL     OW 1360   2.871   1.124   0.231 -0.2192 -0.3536  0.1743
  454SOL    HW1 1361   2.931   1.059   0.185 -0.4853 -0.8563 -0.2656
  454SOL    HW2 1362   2.787   1.075   0.262  2.0032  2.0603 -0.0773
  455SOL     OW 1363   2.400   1.605   1.105  0.5373 -0.0645  0.4457
  455SOL    HW1 1364   2.454   1.535   1.058  1.1505  0.1330  0.1636
  455SOL    HW2 1365   2.341   1.653   1.039  1.9159 -1.9886  1.9942
  456SOL     OW 1366   1.109   0.341   1.507 -0.9083  0.2033 -0.3321
  456SOL    HW1 1367   1.100   0.440   1.535 -2.5672  1.9483 -0.1688
  456SOL    HW2 1368   1.198   0.319   1.462  1.4093 -0.0586 -0.6454
  457SOL     OW 1369   1.782   2.863   0.867  0.3317 -0.2767 -0.2647
  457SOL    HW1 1370   1.866   2.839   0.816  0.9932  1.0446  1.3126
  457SOL    HW2 1371   1.774   2.964   0.886 -1.6755  1.9514 -0.3664
  458SOL     OW 1372   2.785   0.294   0.387  0.6320  0.1205 -0.2013
  458SOL    HW1 1373   2.762   0.307   0.286 -0.2797  0.1587 -0.1991
  458SOL    HW2 1374   2.708   0.247   0.441 -1.8244 -2.4086  4.0355
  459SOL     OW 1375   1.718   0.635   0.224  0.2966 -0.7518 -0.0460
  459SOL    HW1 1376   1.705   0.720   0.172 -0.7216  0.0069  1.8085
  459SOL    HW2 1377   1.660   0.636   0.310  1.5558  1.7767  1.3455
  460SOL     OW 1378   0.211   2.713   2.490 -0.4427 -0.2337 -0.3051
  460SOL    HW1 1379   0.201   2.694   2.589 -0.2394  2.9155 -0.3022
  460SOL    HW2 1380   0.294   2.764   2.477  0.6250  0.1617 -3.7811
  461SOL     OW 1381   0.443   1.709   0.127 -0.0818 -0.0503 -0.0696
  461SOL    HW1 1382   0.505   1.628   0.132  1.3247 -0.0416  0.5196
  461SOL    HW2 1383   0.435   1.733   0.026 -2.4492  0.6987 -2.6158
  462SOL     OW 1384   2.071   2.328   0.692 -0.3285  0.0876  0.3990
  462SOL    HW1 1385   2.140   2.255   0.667  2.3535  2.6386  4.2023
  462SOL    HW2 1386   2.116   2.410   0.732 -2.2394  0.0159  1.8015
  463SOL     OW 1387   2.843   0.745   0.423 -0.5775  0.0355 -0.0175
  463SOL    HW1 1388   2.823   0.827   0.481 -1.0777  1.1283  0.9663
  463SOL    HW2 1389   2.860   0.659   0.477  0.6650  2.0923  1.8842
  464SOL     OW 1390   0.688   2.559   0.403 -0.2162 -0.0179 -0.1071
  464SOL    HW1 1391   0.736   2.644   0.430  1.9171 -1.3447 -0.4813
  464SOL    HW2 1392   0.750   2.479   0.440  2.8873 -1.3331  2.4690
  465SOL     OW 1393   2.276   0.404   0.779 -0.7321  0.1426  0.2695
  465SOL    HW1 1394   2.209   0.392   0.860  1.3807  0.3263  1.1292
  465SOL    HW2 1395   2.231   0.467   0.716  0.2620  0.8747 -0.8520
  466SOL     OW 1396   2.148   0.140   0.261  0.3699 -0.8169 -0.2448
  466SOL    HW1 1397   2.110   0.238   0.258 -0.8789  1.0421 -0.8376
  466SOL    HW2 1398   2.073   0.077   0.232  0.4015 -0.4705  0.5671
  467SOL     OW 1399   1.059   0.478   2.029  0.1641 -0.4707 -0.0095
  467SOL    HW1 1400   1.125   0.473   2.106  1.6444 -3.2352 -1.4805
  467SOL    HW2 1401   1.083   0.415   1.953 -2.1512 -1.2453  1.6269
  468SOL     OW 1402   2.788   0.749   2.078 -0.2136  0.3684  0.6509
  468SOL    HW1 1403   2.849   0.704   2.141  1.0288  3.2173 -2.4947
  468SOL    HW2 1404   2.741   0.681   2.016  0.7276  1.9268  0.1261
  469SOL     OW 1405   1.032   2.151   2.401  0.0429  0.0661  0.6193
  469SOL    HW1 1406   1.096   2.129   2.478  2.2759  0.9677  2.6665
  469SOL    HW2 1407   1.066   2.114   2.313  0.8379 -0.1028  0.0451
  470SOL     OW 1408   2.112   1.088   1.812  0.2797  0.3269 -0.2034
  470SOL    HW1 1409   2.189   1.144   1.849  0.7421 -0.8007  1.4173
  470SOL    HW2 1410   2.055   1.056   1.893  2.7096 -0.0535 -1.3262
  471SOL     OW 1411   2.771   1.350   0.118 -0.4408 -0.3217  0.1469
  471SOL    HW1 1412   2.835   1.350   0.042 -3.1051 -0.5315 -0.8518
  471SOL    HW2 1413   2.806   1.283   0.188  0.4522 -1.5247  1.5254
  472SOL     OW 1414   0.416   2.605   0.331 -0.8482 -0.0357 -0.6199
  472SOL    HW1 1415   0.372   2.521   0.366  1.4919  2.7172 -1.3922
  472SOL    HW2 1416   0.519   2.605   0.341  1.1809  1.7003  2.2540
  473SOL     OW 1417   0.887   2.458   2.212 -0.0906  0.3076 -0.2801
  473SOL    HW1 1418   0.849   2.368   2.250  1.6706 -0.3506  0.3631
  473SOL    HW2 1419   0.900   2.528   2.284  0.5023  0.4962  1.0617
  474SOL     OW 1420   1.374   0.061   2.581 -0.2940  0.1226  0.4203
  474SOL    HW1 1421   1.445   0.056   2.657  1.0212  0.2210  1.3210
  474SOL    HW2 1422   1.314   3.081   2.587 -2.2475 -1.3393  3.5246
  475SOL     OW 1423   1.031   2.494   0.408  0.3421 -0.4719  0.4087
  475SOL    HW1 1424   1.055   2.591   0.399 -1.7753  0.0402 -0.7314
  475SOL    HW2 1425   0.984   2.468   0.495  2.1602 -2.3418 -0.7245
  476SOL     OW 1426   0.536   0.343   1.057  0.4957 -0.2912  0.2125
  476SOL    HW1 1427   0.542   0.405   1.138  0.6738  2.4021  1.9005
  476SOL    HW2 1428   0.607   0.367   0.991 -1.7006 -3.9109  0.6132
  477SOL     OW 1429   1.924   2.111   1.304  0.6011  0.3393 -0.6165
  477SOL    HW1 1430   1.891   2.164   1.223 -0.6329  1.2436  0.2939
  477SOL    HW2 1431   2.001   2.054   1.277  0.7359 -1.8113  2.8096
  478SOL     OW 1432   0.079   0.896   2.870  0.1256 -0.1575 -0.5922
  478SOL    HW1 1433   0.144   0.902   2.793 -1.7516  1.0455  1.1341
  478SOL    HW2 1434   0.056   0.798   2.894 -0.3981 -1.6764 -1.0101
  479SOL     OW 1435   0.851   2.988   0.933  0.1918 -0.1966 -0.0715
  479SOL    HW1 1436   0.830   2.898   0.892  1.7364 -0.4695  3.9305
  479SOL    HW2 1437   0.929   3.025   0.886 -0.9259 -0.8317  2.3252
  480SOL     OW 1438   2.552   2.651   0.326  0.2275  0.5916  0.2977
  480SOL    HW1 1439   2.594   2.719   0.263  1.4319 -0.2688  0.9681
  480SOL    HW2 1440   2.579   2.565   0.286 -0.3063  2.0785  1.1979
  481SOL     OW 1441   2.822   0.649   1.266  0.4282 -1.0436  0.1361
  481SOL    HW1 1442   2.731   0.613   1.280  1.9252  2.7999 -0.1232
  481SOL    HW2 1443   2.897   0.594   1.304  1.6006  0.9650 -1.5268
  482SOL     OW 1444   1.173   2.535   1.320 -0.3752  0.0326  0.3759
  482SOL    HW1 1445   1.240   2.494   1.251  0.7305 -2.6613  1.0184
  482SOL    HW2 1446   1.207   2.631   1.340  1.9320  0.5121  1.1628
  483SOL     OW 1447   0.465   1.398   2.942  0.2557  0.1223  0.1542
  483SOL    HW1 1448   0.534   1.366   3.005  0.1597  0.0789  1.1287
  483SOL    HW2 1449   0.385   1.338   2.944 -1.2231 -3.3491 -0.0328
  484SOL     OW 1450   1.563   1.430   2.269 -0.0155  0.5228 -0.4089
  484SOL    HW1 1451   1.593   1.377   2.189 -2.1485  2.2887  1.6623
  484SOL    HW2 1452   1.540   1.523   2.232 -0.7596  0.8408  1.5044
  485SOL     OW 1453   0.209   3.058   2.426 -0.6015  0.3355  0.7942
  485SOL    HW1 1454   0.293   3.007   2.438 -0.8326  3.9371  2.2342
  485SOL    HW2 1455   0.122   2.998   2.434 -2.4538 -1.9558  2.5462
  486SOL     OW 1456   1.397   2.873   0.712 -0.2190  0.0563  0.3414
  486SOL    HW1 1457   1.422   2.966   0.737  2.3798  0.1159 -0.2552
  486SOL    HW2 1458   1.409   2.861   0.614  0.1738  1.3259  3.4414
  487SOL     OW 1459   1.531   3.031   1.048  0.2249 -0.2308 -0.0747
  487SOL    HW1 1460   1.542   3.085   1.133 -0.2635 -1.2867 -0.9605
  487SOL    HW2 1461   1.599   3.075   0.977  0.8902  1.4434 -3.9603
  488SOL     OW 1462   2.244   0.915   0.807  0.6175  0.1867  0.0083
  488SOL    HW1 1463   2.202   0.973   0.879  0.7451 -0.9638  0.9324
  488SOL    HW2 1464   2.196   0.826   0.799 -1.5595 -1.2269 -0.2844
  489SOL     OW 1465   1.167   3.032   1.332  0.3198  0.0842  0.2421
  489SOL    HW1 1466   1.126   2.982   1.407  2.5587  0.9855 -1.6113
  489SOL    HW2 1467   1.178   2.970   1.251  0.2663 -0.5330  0.6486
  490SOL     OW 1468   0.803   0.768   0.530  0.4117  0.2992 -0.0291
  490SOL    HW1 1469   0.749   0.850   0.517 -0.8841 -3.0725 -1.8141
  490SOL    HW2 1470   0.826   0.765   0.631 -0.7651 -1.4319 -1.6494
  491SOL     OW 1471   1.101   2.757   0.412 -0.2250 -0.1261  0.3799
  491SOL    HW1 1472   1.115   2.744   0.515  0.6102  0.7698 -0.5886
  491SOL    HW2 1473   1.193   2.777   0.370  3.6948  0.5039 -0.2998
  492SOL     OW 1474   0.826   1.397   2.244  0.4059  0.2601 -0.5094
  492SOL    HW1 1475   0.905   1.458   2.217 -1.4638  0.4891 -0.0502
  492SOL    HW2 1476   0.792   1.343   2.165  1.1904  0.8374  3.3681
  493SOL     OW 1477   0.046   1.831   0.135  0.3331  0.4064  0.2798
  493SOL    HW1 1478   0.067   1.863   0.038 -2.0634 -1.2174 -0.4156
  493SOL    HW2 1479   3.072   1.884   0.177  1.3727 -0.6054 -1.4215
  494SOL     OW 1480   1.861   1.476   0.162 -0.4815  0.0683 -0.3183
  494SOL    HW1 1481   1.798   1.515   0.231  2.0341  0.5725 -1.5287
  494SOL    HW2 1482   1.868   1.374   0.166  0.1569  3.5612  2.2415
  495SOL     OW 1483   0.510   1.169   2.385  0.4117 -0.2964 -0.0629
  495SOL    HW1 1484   0.477   1.114   2.306 -1.7015 -0.2526  0.7096
  495SOL    HW2 1485   0.435   1.227   2.417 -3.1134 -0.4647  1.3119
  496SOL     OW 1486   3.024   0.162   2.383 -0.1389 -0.4185 -0.3512
  496SOL    HW1 1487   3.065   0.194   2.470  5.7209 -0.2137 -0.0617
  496SOL    HW2 1488   3.040   0.063   2.369  0.3546  1.9783 -0.3281
  497SOL     OW 1489   1.918   1.058   0.560 -0.2384  0.0161 -0.1349
  497SOL    HW1 1490   1.971   1.104   0.486 -1.0961  1.0735  0.3544
  497SOL    HW2 1491   1.932   0.954   0.559 -2.5995  1.1004 -1.0508
  498SOL     OW 1492   2.792   2.690   2.948  0.2960  0.0125  0.9751
  498SOL    HW1 1493   2.715   2.704   3.010  2.1865 -0.5058 -2.5878
  498SOL    HW2 1494   2.754   2.715   2.853  1.8031 -2.0701 -3.2232
  499SOL     OW 1495   1.973   2.746   0.680 -0.6166  0.1086 -0.5983
  499SOL    HW1 1496   2.000   2.836   0.648  0.0486  0.7392  0.8269
  499SOL    HW2 1497   1.884   2.715   0.638 -0.1950 -0.0880 -0.4907
  500SOL     OW 1498   1.098   0.709   2.589  0.0222 -0.1898 -0.4469
  500SOL    HW1 1499   1.183   0.655   2.574 -1.3987  0.0593 -0.0257
  500SOL    HW2 1500   1.105   0.812   2.565 -1.4257  3.1802 -0.9039
  501SOL     OW 1501   1.391   0.057   1.434 -0.4044  0.1396  0.2270
  501SOL    HW1 1502   1.394   0.048   1.537  0.2824 -0.9270 -0.5209
  501SOL    HW2 1503   1.311   3.096   1.411 -0.7909  0.0864  2.1894
  502SOL     OW 1504   3.043   0.171   1.974 -0.0295 -0.0515 -0.3160
  502SOL    HW1 1505   3.042   0.083   2.025  1.2545 -1.4706  1.2667
  502SOL    HW2 1506   0.038   0.186   1.935  1.5063 -1.2519 -3.1401
  503SOL     OW 1507   1.598   2.346   2.176  0.5548  0.0731  0.4193
  503SOL    HW1 1508   1.670   2.416   2.185  0.0892 -0.5977  1.0926
  503SOL    HW2 1509   1.643   2.254   2.156  2.1979  1.4517  0.2448
  504SOL     OW 1510   2.107   0.059   1.853  0.2598 -0.5441 -0.1665
  504SOL    HW1 1511   2.121   0.142   1.792  0.8601 -0.4864  1.6895
  504SOL    HW2 1512   2.010   0.039   1.874  2.0465  3.8690  1.6064
  505SOL     OW 1513   2.758   1.612   1.427 -0.2660  0.8655 -0.5805
  505SOL    HW1 1514   2.755   1.510   1.423 -1.8116  1.0812 -2.4494
  505SOL    HW2 1515   2.701   1.647   1.501  1.3073  0.5101  0.7500
  506SOL     OW 1516   0.124   1.279   2.247 -0.2497 -0.2492 -0.2601
  506SOL    HW1 1517   0.177   1.238   2.316 -0.5901  2.6166 -1.6674
  506SOL    HW2 1518   0.048   1.219   2.211 -1.4060  1.6406 -0.3563
  507SOL     OW 1519   0.275   2.834   1.318 -0.1235 -0.1681  0.2443
  507SOL    HW1 1520   0.240   2.922   1.278 -1.3627 -1.9661 -1.5718
  507SOL    HW2 1521   0.191   2.788   1.351  2.7253  3.0030 -0.1169
  508SOL     OW 1522   1.378   0.672   1.468 -0.3419 -0.4301 -0.1150
  508SOL    HW1 1523   1.310   0.630   1.406  0.7605  0.2233  2.0142
  508SOL    HW2 1524   1.336   0.675   1.559  2.7083 -2.2359 -0.1901
  509SOL     OW 1525   1.443   2.292   1.921 -0.6770  0.2699 -0.0374
  509SOL    HW1 1526   1.535   2.305   1.875  0.8025  1.1645 -1.7730
  509SOL    HW2 1527   1.433   2.339   2.013 -0.0758 -4.1731 -1.4176
  510SOL     OW 1528   2.401   1.433   2.932  0.3699  0.3692  0.0832
  510SOL    HW1 1529   2.407   1.391   3.026  2.6568 -1.8962  1.7298
  510SOL    HW2 1530   2.304   1.442   2.899 -0.9952  0.8665  1.9245
  511SOL     OW 1531   0.440   1.682   1.275  0.5225 -0.3116 -0.4597
  511SOL    HW1 1532   0.454   1.590   1.231  1.1288 -0.4130  0.5390
  511SOL    HW2 1533   0.528   1.731   1.291  0.7802 -1.4096 -2.4549
  512SOL     OW 1534   2.717   2.195   0.099  0.1147 -0.9401 -0.3031
  512SOL    HW1 1535   2.808   2.169   0.129  0.9097  1.4676 -1.4707
  512SOL    HW2 1536   2.661   2.206   0.183  1.9302  1.7262 -2.7822
  513SOL     OW 1537   0.741   1.716   2.518  0.4179  0.0593 -0.0577
  513SOL    HW1 1538   0.831   1.674   2.534 -0.2277  2.1053  0.7421
  513SOL    HW2 1539   0.750   1.814   2.488 -2.2588 -2.1115  0.2576
  514SOL     OW 1540   0.299   2.254   2.331  0.3442 -0.2199 -0.2493
  514SOL    HW1 1541   0.243   2.169   2.322 -1.2831  2.5339  0.7564
  514SOL    HW2 1542   0.239   2.331   2.366  0.5542  1.1852 -0.0992
  515SOL     OW 1543   2.045   1.225   1.559  0.5274  0.0688 -0.2567
  515SOL    HW1 1544   2.091   1.176   1.638  2.0761 -2.2745  1.6911
  515SOL    HW2 1545   2.104   1.276   1.497 -3.7377  1.0598  1.8848
  516SOL     OW 1546   1.775   2.532   0.050  0.2963 -0.0627 -0.1321
  516SOL    HW1 1547   1.832   2.609   0.019 -1.7838  0.5775  0.3033
  516SOL    HW2 1548   1.831   2.448   0.059  0.8048 -1.2943 -1.1090
  517SOL     OW 1549   0.735   1.745   0.494 -0.6572 -0.2246  0.3408
  517SOL    HW1 1550   0.823   1.793   0.487  0.9495 -0.5387 -0.4896
  517SOL    HW2 1551   0.746   1.652   0.449 -0.8271 -0.2542 -1.1970
  518SOL     OW 1552   1.911   2.544   1.499  0.6594  0.6885  0.0338
  518SOL    HW1 1553   1.921   2.633   1.548 -1.8358  0.3371 -1.1439
  518SOL    HW2 1554   1.949   2.539   1.405  0.1573 -0.5431  0.6080
  519SOL     OW 1555   2.260   2.399   1.023 -0.5827  1.0270  0.1987
  519SOL    HW1 1556   2.280   2.491   1.062 -2.5463  1.2737  1.6830
  519SOL    HW2 1557   2.194   2.405   0.945 -0.1000 -0.4762  1.4756
  520SOL     OW 1558   3.010   2.224   2.456  0.6994 -0.0924  0.1877
  520SOL    HW1 1559   2.919   2.208   2.406 -2.4271  1.6746  0.1336
  520SOL    HW2 1560   3.044   2.143   2.518 -2.3388  0.1426  1.0918
  521SOL     OW 1561   2.542   1.170   2.407  0.4962  0.0270  0.1640
  521SOL    HW1 1562   2.507   1.139   2.315  2.1726  0.6665  0.5752
  521SOL    HW2 1563   2.463   1.183   2.469 -1.9540  0.0167  2.5148
  522SOL     OW 1564   0.890   0.624   2.251 -0.5801  0.3907  0.7931
  522SOL    HW1 1565   0.982   0.583   2.238  0.2146 -0.0779  3.5096
  522SOL    HW2 1566   0.812   0.565   2.229 -0.4598  0.5339 -0.9174
  523SOL     OW 1567   0.113   2.094   0.901 -0.4809 -0.0888 -0.0564
  523SOL    HW1 1568   0.218   2.068   0.892  1.3855 -1.7163  0.2232
  523SOL    HW2 1569   0.090   2.162   0.973  1.6716 -1.2852 -1.1493
  524SOL     OW 1570   1.949   2.771   0.039  0.1460 -0.5611  0.1627
  524SOL    HW1 1571   1.949   2.792   0.139  2.0120  2.5377 -0.9369
  524SOL    HW2 1572   2.040   2.745   0.005 -1.4464 -0.0539 -1.6094
  525SOL     OW 1573   2.184   0.614   1.344  0.6387  0.4263  0.4424
  525SOL    HW1 1574   2.159   0.637   1.249 -1.0173 -1.7102  2.1100
  525SOL    HW2 1575   2.238   0.524   1.348 -0.8971 -1.4557 -2.6962
  526SOL     OW 1576   0.975   2.440   0.792 -0.4525  0.5802  0.1699
  526SOL    HW1 1577   0.891   2.482   0.831 -0.7444 -0.7023  1.2114
  526SOL    HW2 1578   0.964   2.339   0.792 -0.9059  0.1623  0.2894
  527SOL     OW 1579   2.368   2.897   0.473 -0.2428  0.3082  0.4203
  527SOL    HW1 1580   2.388   2.854   0.560 -0.0654 -1.5402 -0.7951
  527SOL    HW2 1581   2.308   2.839   0.420  1.0282  0.0837  1.2075
  528SOL     OW 1582   1.608   0.696   0.503  0.2688  0.0262 -0.3470
  528SOL    HW1 1583   1.542   0.747   0.556  0.4417 -0.2944  1.7060
  528SOL    HW2 1584   1.594   0.597   0.509  0.7020  2.5497 -0.2821
  529SOL     OW 1585   1.529   1.548   2.589  0.2304  0.3344  0.1096
  529SOL    HW1 1586   1.466   1.560   2.670  0.6485  2.4857  0.8316
  529SOL    HW2 1587   1.498   1.479   2.522 -3.6329  1.8306  0.0401
  530SOL     OW 1588   2.439   0.334   0.110 -0.4111  0.2449 -0.6510
  530SOL    HW1 1589   2.361   0.395   0.115  0.6248  0.7586 -0.4828
  530SOL    HW2 1590   2.418   0.234   0.110 -0.6679 -0.3912  0.0938
  531SOL     OW 1591   1.339   0.956   2.719 -0.2894  0.1203  0.2766
  531SOL    HW1 1592   1.412   0.963   2.649  0.4129 -0.5403  1.6209
  531SOL    HW2 1593   1.341   0.861   2.756 -2.2725 -1.0180 -1.2675
  532SOL     OW 1594   1.471   0.515   0.923 -0.5834 -0.1903 -0.0489
  532SOL    HW1 1595   1.380   0.492   0.878 -1.9153  0.7630  0.8431
  532SOL    HW2 1596   1.446   0.567   1.006 -0.7048 -0.5902  0.5647
  533SOL     OW 1597   0.513   0.966   2.585  0.1038 -0.9182 -0.0088
  533SOL    HW1 1598   0.493   1.005   2.494 -1.4644  0.3733  0.2663
  533SOL    HW2 1599   0.613   0.953   2.603 -1.1080  0.6493 -3.3544
  534SOL     OW 1600   1.592   0.376   2.742  0.7455  0.1538 -0.1117
  534SOL    HW1 1601   1.639   0.346   2.829  2.2418  1.1438 -1.3019
  534SOL    HW2 1602   1.494   0.402   2.756  1.4175 -0.3419 -4.0769
  535SOL     OW 1603   0.228   2.937   2.775  0.2363  0.2294 -0.6873
  535SOL    HW1 1604   0.241   2.836   2.789  0.0450  1.9846  2.1543
  535SOL    HW2 1605   0.137   2.967   2.738 -1.7016 -0.4780 -2.5817
  536SOL     OW 1606   0.476   0.339   0.343  0.2889  1.0040  0.3370
  536SOL    HW1 1607   0.563   0.290   0.373  2.4528  0.6966 -0.4588
  536SOL    HW2 1608   0.413   0.354   0.424 -2.1515 -0.2186  2.4108
  537SOL     OW 1609   1.515   0.241   0.198  0.3540 -0.1411 -0.1773
  537SOL    HW1 1610   1.461   0.251   0.109 -1.7426 -0.8303 -1.2126
  537SOL    HW2 1611   1.458   0.297   0.263  2.3951 -0.1181 -0.3408
  538SOL     OW 1612   2.871   2.044   2.816 -0.6677 -0.8064 -0.0667
  538SOL    HW1 1613   2.897   1.950   2.836 -1.5141  1.6658  2.4526
  538SOL    HW2 1614   2.793   2.068   2.873 -0.2478  1.7737 -0.0900
  539SOL     OW 1615   2.304   1.985   3.037  0.5233 -0.2415  0.0362
  539SOL    HW1 1616   2.270   1.948   0.026  0.3232  1.0982 -0.4526
  539SOL    HW2 1617   2.375   1.925   3.005 -2.9139  1.8546 -0.2008
  540SOL     OW 1618   0.794   2.752   1.806  0.2041  0.4672 -0.4467
  540SOL    HW1 1619   0.765   2.676   1.865  2.5233  0.6828 -0.8028
  540SOL    HW2 1620   0.839   2.705   1.724  1.7453 -1.4506  2.4613
  541SOL     OW 1621   2.539   0.149   2.239  0.1619  0.4771 -0.0592
  541SOL    HW1 1622   2.517   0.198   2.153 -1.3212 -1.6125 -1.0371
  541SOL    HW2 1623   2.456   0.140   2.302  0.7896  0.3975  0.7401
  542SOL     OW 1624   0.229   0.630   2.716  0.0851 -0.2668 -0.2016
  542SOL    HW1 1625   0.236   0.572   2.637 -0.8921  0.2246  0.5004
  542SOL    HW2 1626   0.146   0.605   2.766  3.0096  0.3116  0.3853
  543SOL     OW 1627   0.304   0.667   1.117  0.3435  0.3180  0.6006
  543SOL    HW1 1628   0.313   0.666   1.013  0.8651 -1.1997  1.7714
  543SOL    HW2 1629   0.202   0.672   1.141 -1.1409 -1.4319 -0.6835
  544SOL     OW 1630   2.531   0.650   1.152 -0.2069 -0.1689  0.4720
  544SOL    HW1 1631   2.604   0.597   1.106  0.9717 -0.9382 -0.7254
  544SOL    HW2 1632   2.547   0.678   1.248 -0.3589  0.6867 -2.7648
  545SOL     OW 1633   1.558   2.045   0.558  0.4098  0.3663 -0.4882
  545SOL    HW1 1634   1.460   2.054   0.540  1.8580  1.7996  1.4928
  545SOL    HW2 1635   1.593   2.065   0.654  1.9183  0.0474  0.9568
  546SOL     OW 1636   2.218   2.854   1.412 -0.0644  0.1005  0.4734
  546SOL    HW1 1637   2.262   2.915   1.478  0.1409  1.5381 -3.9108
  546SOL    HW2 1638   2.204   2.909   1.326  2.7062 -0.5493 -0.3135
  547SOL     OW 1639   0.422   2.866   2.439 -0.7397  0.1313 -0.1069
  547SOL    HW1 1640   0.484   2.790   2.418 -0.9487 -1.8970 -2.3162
  547SOL    HW2 1641   0.420   2.919   2.353  0.9795  0.4881  1.0593
  548SOL     OW 1642   1.412   0.741   2.867  0.4359  0.1623 -0.4046
  548SOL    HW1 1643   1.410   0.791   2.958 -0.5551 -0.2284  2.5222
  548SOL    HW2 1644   1.509   0.713   2.845 -1.9347  0.1255 -0.2817
  549SOL     OW 1645   2.636   0.987   0.301  0.4761  0.1175  0.7185
  549SOL    HW1 1646   2.668   0.978   0.394 -2.7469 -1.0104 -1.4415
  549SOL    HW2 1647   2.533   1.006   0.306 -0.2456  3.0585  2.0919
  550SOL     OW 1648   1.905   1.882   0.685 -0.0997 -0.2906  0.0457
  550SOL    HW1 1649   1.870   1.872   0.589 -1.8565 -2.0729 -2.6432
  550SOL    HW2 1650   1.924   1.790   0.722 -3.6582  0.9110 -0.9213
  551SOL     OW 1651   1.259   3.074   0.990  0.4299 -0.3828  0.1559
  551SOL    HW1 1652   1.358   3.042   1.000 -1.4099 -0.9121 -0.4441
  551SOL    HW2 1653   1.190   3.009   1.031 -0.1915 -0.8834  1.8385
  552SOL     OW 1654   2.635   2.665   2.170  0.9249 -0.2090  0.2000
  552SOL    HW1 1655   2.538   2.627   2.156 -0.4542  0.3319 -0.4763
  552SOL    HW2 1656   2.673   2.598   2.234 -2.3582 -2.1605 -1.3043
  553SOL     OW 1657   0.215   2.971   2.092  0.3205  0.2269  0.1943
  553SOL    HW1 1658   0.265   2.887   2.058  2.8540 -1.0755  0.5194
  553SOL    HW2 1659   0.278   3.013   2.163 -0.3017 -1.1646  1.3605
  554SOL     OW 1660   0.615   2.935   1.032  0.2705 -0.5315 -0.0961
  554SOL    HW1 1661   0.582   3.025   1.069  0.3472  1.1537  1.4924
  554SOL    HW2 1662   0.708   2.951   0.994 -0.0839  4.6529 -0.8788
  555SOL     OW 1663   2.529   2.239   2.169 -0.6334  0.0981 -0.2435
  555SOL    HW1 1664   2.501   2.178   2.246 -0.3916  0.3093  0.2411
  555SOL    HW2 1665   2.445   2.287   2.138 -0.0616 -0.8206 -1.4507
  556SOL     OW 1666   1.142   0.183   2.781 -0.0545  0.9768 -0.1406
  556SOL    HW1 1667   1.081   0.233   2.846 -0.7054 -1.3906 -0.9406
  556SOL    HW2 1668   1.094   0.170   2.692  0.9904  0.5261 -0.8685
  557SOL     OW 1669   0.351   1.604   2.255 -0.4778  0.5022 -0.0865
  557SOL    HW1 1670   0.304   1.631   2.342 -1.5352 -0.2401 -1.2519
  557SOL    HW2 1671   0.444   1.576   2.279 -1.2309  2.2777  0.6027
  558SOL     OW 1672   2.387   0.900   3.031 -0.7260  0.1219  0.2083
  558SOL    HW1 1673   2.455   0.875   2.955  3.5121 -0.2303 -1.6821
  558SOL    HW2 1674   2.412   0.843   0.010  0.7881 -0.7309  0.3862
  559SOL     OW 1675   2.565   2.049   1.675  0.4016  0.1429  0.5628
  559SOL    HW1 1676   2.488   2.093   1.623 -0.6960  0.0989  2.5029
  559SOL    HW2 1677   2.572   2.098   1.766 -2.6397  2.0960 -0.9192
  560SOL     OW 1678   2.467   0.995   1.958 -0.0607 -0.1720  0.1003
  560SOL    HW1 1679   2.431   0.924   1.899  4.0807  0.4055  2.5174
  560SOL    HW2 1680   2.566   1.010   1.963 -2.4493 -0.3069  2.7203
  561SOL     OW 1681   3.054   2.924   2.698  0.0013 -1.0271  0.4364
  561SOL    HW1 1682   2.995   2.910   2.616 -0.3228 -2.5885 -1.4212
  561SOL    HW2 1683   3.034   2.851   2.762 -0.8429 -0.6467  1.4426
  562SOL     OW 1684   1.078   1.387   1.402  0.4599  0.0064 -0.7643
  562SOL    HW1 1685   1.159   1.329   1.436  0.2079  0.1103 -1.2021
  562SOL    HW2 1686   0.990   1.341   1.429  0.0907  2.8566 -2.8027
  563SOL     OW 1687   1.346   0.091   2.916  0.5929  0.5062  0.0653
  563SOL    HW1 1688   1.418   0.040   2.866 -0.7243  0.1930  1.0665
  563SOL    HW2 1689   1.270   0.130   2.851 -1.7674  0.6908 -0.8587
  564SOL     OW 1690   0.110   2.315   0.713  0.1133  0.3890  0.0343
  564SOL    HW1 1691   0.129   2.244   0.784  3.5163 -0.6138 -2.0439
  564SOL    HW2 1692   0.008   2.317   0.696  0.6842  1.7159 -1.8753
  565SOL     OW 1693   0.609   2.261   1.331 -0.4971 -1.2985 -0.5899
  565SOL    HW1 1694   0.597   2.167   1.300 -0.1719  1.0479 -1.1092
  565SOL    HW2 1695   0.619   2.322   1.251  0.9190 -2.0807 -2.0928
  566SOL     OW 1696   1.346   2.579   2.022  0.4140 -0.0150  0.2859
  566SOL    HW1 1697   1.247   2.547   2.006 -2.0134 -2.1492 -0.3486
  566SOL    HW2 1698   1.367   2.564   2.117  2.8465  1.2247 -2.7790
  567SOL     OW 1699   2.389   2.784   0.723  0.2028 -0.5028 -0.7160
  567SOL    HW1 1700   2.407   2.855   0.796  2.2018 -1.7440  0.2457
  567SOL    HW2 1701   2.470   2.726   0.698  2.7813 -2.8961  0.7832
  568SOL     OW 1702   1.670   1.024   0.669  0.3338  0.3866  0.7367
  568SOL    HW1 1703   1.671   0.999   0.767  1.0719  0.5247 -1.6207
  568SOL    HW2 1704   1.767   1.050   0.644  0.7567  0.4467  1.2843
  569SOL     OW 1705   0.056   1.738   2.658  0.4546  0.0109  0.0872
  569SOL    HW1 1706   0.095   1.702   2.746 -2.0212  0.1203  1.4767
  569SOL    HW2 1707   3.078   1.675   2.630  1.9893 -1.7371  0.0335
  570SOL     OW 1708   3.091   0.203   1.578 -0.6250  0.5326  0.1742
  570SOL    HW1 1709   0.014   0.238   1.489  1.1787  0.4224  0.9418
  570SOL    HW2 1710   3.062   0.107   1.577  0.4355  0.2451 -2.5263
  571SOL     OW 1711   0.386   0.358   1.752  0.3791  0.4078 -0.2106
  571SOL    HW1 1712   0.473   0.316   1.792  0.8608 -0.8030  0.0116
  571SOL    HW2 1713   0.395   0.461   1.771 -0.0909  0.1922  0.3390
  572SOL     OW 1714   0.126   2.437   1.135  0.2146  0.1632  0.3270
  572SOL    HW1 1715   0.050   2.369   1.123  0.6236  0.1986 -0.3948
  572SOL    HW2 1716   0.140   2.449   1.234  0.0610 -2.7239 -2.1515
  573SOL     OW 1717   1.055   0.507   0.123 -0.2386  0.1116 -0.3191
  573SOL    HW1 1718   0.957   0.539   0.117  0.3190  2.1436  0.6138
  573SOL    HW2 1719   1.058   0.423   0.178  0.2032  0.2208  3.5138
  574SOL     OW 1720   2.652   2.833   0.143 -0.0583 -0.3716 -0.6708
  574SOL    HW1 1721   2.747   2.807   0.138 -2.4508 -1.5607 -1.3542
  574SOL    HW2 1722   2.650   2.927   0.178  2.0053  1.1630  0.8823
  575SOL     OW 1723   1.527   2.522   1.282  0.4944 -0.0811  0.1598
  575SOL    HW1 1724   1.470   2.452   1.232 -0.8852 -0.6415 -2.2397
  575SOL    HW2 1725   1.523   2.618   1.247  0.0802  0.3309  2.9943
  576SOL     OW 1726   1.081   2.875   1.085 -0.1313 -0.2467 -0.0611
  576SOL    HW1 1727   1.119   2.785   1.061  0.0097  0.1745  0.1318
  576SOL    HW2 1728   0.981   2.862   1.102 -1.0788 -0.6127 -0.6707
  577SOL     OW 1729   2.460   1.250   0.793 -0.1209  0.1758 -0.2059
  577SOL    HW1 1730   2.491   1.294   0.707  1.6199 -0.2659  0.0928
  577SOL    HW2 1731   2.471   1.148   0.795 -0.4415 -0.4385  1.6593
  578SOL     OW 1732   1.410   0.335   0.615  0.5961  0.2239 -0.1660
  578SOL    HW1 1733   1.464   0.382   0.543  0.1236  0.3215  2.1942
  578SOL    HW2 1734   1.334   0.393   0.657 -0.1318  0.5605 -1.2362
  579SOL     OW 1735   2.236   0.594   2.901 -0.0410 -0.2165 -0.2237
  579SOL    HW1 1736   2.332   0.580   2.908 -3.6896 -0.4208  1.0381
  579SOL    HW2 1737   2.202   0.676   2.847 -0.5892  1.7037  2.1322
  580SOL     OW 1738   1.538   0.626   2.417 -0.6822  0.0242  0.2431
  580SOL    HW1 1739   1.637   0.607   2.397  0.3016  1.3281 -2.7003
  580SOL    HW2 1740   1.522   0.720   2.381 -0.5562 -0.5939  0.8403
  581SOL     OW 1741   0.292   0.698   0.851 -0.3120 -0.5337 -0.0919
  581SOL    HW1 1742   0.386   0.672   0.821  0.7974 -3.2752  0.1433
  581SOL    HW2 1743   0.265   0.782   0.797  1.6588 -3.4871 -1.7927
  582SOL     OW 1744   2.771   0.243   1.954  0.1629  0.0237  0.2975
  582SOL    HW1 1745   2.747   0.344   1.947 -1.5124  2.8688 -0.7205
  582SOL    HW2 1746   2.870   0.225   1.967 -0.1730  1.0035  0.1138
  583SOL     OW 1747   0.412   0.554   2.061 -0.5555 -0.2054  0.4377
  583SOL    HW1 1748   0.508   0.537   2.091 -0.7054 -1.5012 -0.8437
  583SOL    HW2 1749   0.362   0.471   2.058  2.4289  1.9523  1.5934
  584SOL     OW 1750   1.342   2.179   2.931  0.0162  0.1179  0.1368
  584SOL    HW1 1751   1.424   2.167   2.868 -0.5465 -0.5308  0.3829
  584SOL    HW2 1752   1.366   2.232   3.015  0.1640  1.7297  0.8588
  585SOL     OW 1753   0.227   2.641   2.764  0.3209  0.0861  0.1557
  585SOL    HW1 1754   0.204   2.569   2.835  0.4221  2.2535  3.4480
  585SOL    HW2 1755   0.327   2.662   2.764  1.2928  0.0836  0.6275
  586SOL     OW 1756   1.850   1.737   2.589 -0.2146 -0.0843  0.0399
  586SOL    HW1 1757   1.879   1.825   2.552 -3.7049  1.8480 -2.3682
  586SOL    HW2 1758   1.872   1.656   2.529 -1.1368 -3.7935 -0.5008
  587SOL     OW 1759   2.231   2.284   0.197  0.1703 -0.6060 -0.1600
  587SOL    HW1 1760   2.281   2.277   0.110  1.1674 -0.7610  0.8241
  587SOL    HW2 1761   2.189   2.199   0.232  0.3811 -1.4443  1.3920
  588SOL     OW 1762   2.843   0.183   1.039  0.1069  0.2913  0.4836
  588SOL    HW1 1763   2.766   0.116   1.053 -0.8153 -0.1127  1.4628
  588SOL    HW2 1764   2.874   0.179   0.943 -0.6468 -3.1414 -0.3849
  589SOL     OW 1765   0.492   0.623   0.505  0.5607 -0.1085  0.0632
  589SOL    HW1 1766   0.519   0.615   0.600  0.3869 -1.6896 -1.6759
  589SOL    HW2 1767   0.394   0.628   0.487  2.9503 -2.1705 -1.1743
  590SOL     OW 1768   2.128   2.020   0.319 -0.6611 -0.3658  0.3008
  590SOL    HW1 1769   2.145   1.965   0.404 -0.3490 -2.6457 -0.9210
  590SOL    HW2 1770   2.033   2.052   0.315  0.2734  0.2852  2.9002
  591SOL     OW 1771   0.359   2.288   1.079  0.3522 -0.2425  0.2669
  591SOL    HW1 1772   0.284   2.350   1.092  3.1988 -1.6853 -0.9636
  591SOL    HW2 1773   0.429   2.304   1.153 -0.2481 -0.6771  0.3190
  592SOL     OW 1774   1.213   0.565   1.284 -0.3709  0.4380 -0.1779
  592SOL    HW1 1775   1.114   0.553   1.279 -0.5327  0.2074 -1.4161
  592SOL    HW2 1776   1.254   0.473   1.303 -0.4284  2.2326 -0.6414
  593SOL     OW 1777   1.084   1.659   1.427 -0.2459 -0.1454 -0.4063
  593SOL    HW1 1778   1.088   1.558   1.430 -1.9900  2.3183 -1.0577
  593SOL    HW2 1779   1.040   1.693   1.513  0.9048 -0.7908 -1.8303
  594SOL     OW 1780   1.034   2.141   0.445  0.7538 -0.3009 -0.2262
  594SOL    HW1 1781   0.961   2.167   0.378 -0.4896  0.8965 -0.9754
  594SOL    HW2 1782   1.061   2.217   0.505  1.5246 -0.5865  0.3762
  595SOL     OW 1783   1.624   0.701   1.369  0.6233  0.5229  0.4195
  595SOL    HW1 1784   1.687   0.726   1.442 -4.1486 -1.1044 -0.2455
  595SOL    HW2 1785   1.531   0.696   1.409  2.8557 -0.2879 -0.7198
  596SOL     OW 1786   2.656   0.869   1.626  0.5352  0.1663 -0.1373
  596SOL    HW1 1787   2.737   0.890   1.685  0.3049  2.1170 -1.7015
  596SOL    HW2 1788   2.610   0.956   1.604 -0.9546  1.5613  4.2180
  597SOL     OW 1789   0.785   2.267   2.394  0.7612 -0.5575 -0.0025
  597SOL    HW1 1790   0.780   2.297   2.491  0.8780  1.9843 -0.1499
  597SOL    HW2 1791   0.872   2.219   2.386 -0.9268  1.6809  2.1194
  598SOL     OW 1792   2.603   1.781   1.677  0.3192  0.1093 -0.0907
  598SOL    HW1 1793   2.582   1.878   1.699 -0.4007  0.6863 -1.2799
  598SOL    HW2 1794   2.516   1.732   1.659  2.4395  0.1708  0.2216
  599SOL     OW 1795   0.697   2.853   0.134 -0.2071  0.1813  0.0681
  599SOL    HW1 1796   0.642   2.928   0.087  0.5628 -1.3079 -0.0156
  599SOL    HW2 1797   0.742   2.889   0.216  1.4742 -1.2064 -0.9166
  600SOL     OW 1798   3.077   2.195   2.952  0.0762 -0.4296  0.4361
  600SOL    HW1 1799   3.067   2.195   3.053  1.0057 -0.0923 -1.6116
  600SOL    HW2 1800   3.022   2.121   2.910 -2.1934 -0.6166 -0.7471
  601SOL     OW 1801   0.414   0.675   1.352  0.0988 -0.2399  0.0743
  601SOL    HW1 1802   0.350   0.684   1.271 -1.1533  1.4571 -3.1375
  601SOL    HW2 1803   0.434   0.761   1.405  0.0587 -3.0713 -0.6963
  602SOL     OW 1804   0.581   0.331   0.682  0.3341  0.4044 -0.0573
  602SOL    HW1 1805   0.602   0.392   0.759  0.8467  0.9088  0.8777
  602SOL    HW2 1806   0.492   0.350   0.643  0.3848 -1.0726 -0.7307
  603SOL     OW 1807   0.363   0.282   2.613 -0.3354 -0.1448 -0.0024
  603SOL    HW1 1808   0.302   0.349   2.569  0.6562  1.0007 -1.4992
  603SOL    HW2 1809   0.443   0.333   2.641 -3.9221 -2.0820 -0.5786
  604SOL     OW 1810   0.695   2.746   1.453  0.3173  0.3736  0.1408
  604SOL    HW1 1811   0.596   2.726   1.477 -1.4120  1.3306 -2.7260
  604SOL    HW2 1812   0.758   2.669   1.466 -0.9832 -0.2972  0.1682
  605SOL     OW 1813   1.516   1.031   2.062 -0.0781  0.6438  0.5885
  605SOL    HW1 1814   1.433   1.090   2.040  0.4409 -0.2661  0.0501
  605SOL    HW2 1815   1.600   1.075   2.017  0.9918  2.2848 -1.1268
  606SOL     OW 1816   2.223   2.752   3.090  0.1232  0.1323  0.1012
  606SOL    HW1 1817   2.294   2.744   0.060 -1.3217  0.4200 -2.2235
  606SOL    HW2 1818   2.257   2.724   2.997 -1.9007  2.7151 -2.6022
  607SOL     OW 1819   0.994   0.277   1.236 -0.2303 -0.3396 -0.3445
  607SOL    HW1 1820   1.029   0.275   1.333 -0.8320  0.5740 -0.7936
  607SOL    HW2 1821   0.963   0.182   1.204  0.5736  0.3937  0.3909
  608SOL     OW 1822   0.263   1.602   2.523  0.0844  0.3050 -0.2084
  608SOL    HW1 1823   0.359   1.605   2.561  2.8013 -0.2127 -0.4877
  608SOL    HW2 1824   0.204   1.673   2.569 -0.5205  2.8383 -0.6628
  609SOL     OW 1825   1.170   1.454   0.339  0.0761  0.7888 -0.3697
  609SOL    HW1 1826   1.259   1.492   0.326 -1.6946 -0.4017  1.3652
  609SOL    HW2 1827   1.127   1.427   0.247  0.4668  2.3857  0.6528
  610SOL     OW 1828   0.028   0.298   0.996 -0.2874  0.3104 -0.5827
  610SOL    HW1 1829   0.039   0.199   0.969 -0.7415 -0.6032 -1.1154
  610SOL    HW2 1830   0.121   0.327   1.032 -1.4047  3.2026 -1.5999
  611SOL     OW 1831   1.240   1.293   0.568  0.0543  0.4721 -0.1433
  611SOL    HW1 1832   1.218   1.369   0.506  1.2997 -1.5702  2.2196
  611SOL    HW2 1833   1.200   1.208   0.534  1.5328 -0.2930  1.5104
  612SOL     OW 1834   2.083   1.625   0.062 -0.4660 -0.4129  0.4010
  612SOL    HW1 1835   1.994   1.589   0.092 -1.6286 -1.2492 -0.9671
  612SOL    HW2 1836   2.129   1.686   0.135  0.5550  0.5913  2.4096
  613SOL     OW 1837   1.685   0.916   0.122 -0.2814  0.3139 -0.2687
  613SOL    HW1 1838   1.782   0.940   0.131 -0.9114  2.7623 -1.3264
  613SOL    HW2 1839   1.626   0.994   0.158  0.1482 -0.9815 -1.9095
  614SOL     OW 1840   2.757   0.210   2.418 -0.2160 -0.3604 -0.1201
  614SOL    HW1 1841   2.856   0.198   2.398 -0.2206 -0.8802 -4.3685
  614SOL    HW2 1842   2.708   0.148   2.353 -1.8375 -2.4165 -1.4045
  615SOL     OW 1843   0.731   2.058   0.964 -0.3270  0.2329  0.1984
  615SOL    HW1 1844   0.713   2.005   0.882 -0.5049  1.3556 -0.1100
  615SOL    HW2 1845   0.690   2.010   1.044 -0.1370 -2.8057 -0.0679
  616SOL     OW 1846   1.554   1.013   2.538 -0.9604  0.2259 -0.1909
  616SOL    HW1 1847   1.599   1.091   2.489 -1.1142  1.2317 -0.9269
  616SOL    HW2 1848   1.624   0.957   2.589  0.3706 -1.9388  1.4917
  617SOL     OW 1849   1.119   0.264   0.226 -0.5966 -0.5601  0.2887
  617SOL    HW1 1850   1.207   0.292   0.269  0.8047  0.9965 -0.0139
  617SOL    HW2 1851   1.141   0.210   0.143 -0.4592 -2.1183 -2.1025
  618SOL     OW 1852   2.369   2.063   2.342  0.1196 -0.0226 -0.9192
  618SOL    HW1 1853   2.284   2.062   2.287 -1.7490  1.4673  0.1424
  618SOL    HW2 1854   2.352   2.090   2.441  0.4541 -2.0811  1.0114
  619SOL     OW 1855   2.376   1.994   0.914  0.0068 -0.1903 -0.0389
  619SOL    HW1 1856   2.451   1.961   0.978  2.3344 -1.9116  0.7686
  619SOL    HW2 1857   2.400   2.053   0.840  2.0717 -0.4707  2.8546
  620SOL     OW 1858   2.179   2.723   1.789  0.2126 -0.0732  0.2591
  620SOL    HW1 1859   2.274   2.683   1.768  1.4037 -1.4796  0.4778
  620SOL    HW2 1860   2.120   2.652   1.829 -0.9283  1.3315 -0.4607
  621SOL     OW 1861   3.059   1.905   0.784  0.2781  0.0206  0.3128
  621SOL    HW1 1862   0.032   1.842   0.743  1.3747  1.5589 -0.4811
  621SOL    HW2 1863   0.004   1.977   0.838  1.3012 -0.8282  0.9059
  622SOL     OW 1864   1.256   1.790   2.952 -0.2482 -0.3065 -0.0031
  622SOL    HW1 1865   1.159   1.772   2.926  0.2036 -0.0487 -0.5312
  622SOL    HW2 1866   1.247   1.854   3.028 -0.5165  0.3540 -2.6216
  623SOL     OW 1867   2.709   2.499   2.366  0.1091 -0.1055 -0.0060
  623SOL    HW1 1868   2.769   2.422   2.331  3.6377 -0.3160 -0.1791
  623SOL    HW2 1869   2.765   2.562   2.424  0.0221 -0.8562  0.4928
  624SOL     OW 1870   0.772   2.334   0.530  0.1511 -0.0111  0.4156
  624SOL    HW1 1871   0.802   2.295   0.618 -0.4286 -1.1574  3.7314
  624SOL    HW2 1872   0.706   2.271   0.484 -0.5493 -2.2148  0.9899
  625SOL     OW 1873   0.513   1.769   2.062 -0.5114  0.0895 -0.0145
  625SOL    HW1 1874   0.432   1.716   2.094  1.4305  0.4201  2.0181
  625SOL    HW2 1875   0.563   1.832   2.128  1.2745  0.9779 -1.9145
  626SOL     OW 1876   0.466   2.652   0.046  0.2248 -0.2032  0.4183
  626SOL    HW1 1877   0.560   2.641   0.022 -0.7726 -1.7951 -0.2903
  626SOL    HW2 1878   0.461   2.701   0.133 -2.7341 -3.0118  0.8258
  627SOL     OW 1879   1.444   1.663   0.012  0.5800 -0.0587  0.2039
  627SOL    HW1 1880   1.362   1.691   3.056 -0.8871 -1.1044 -1.9185
  627SOL    HW2 1881   1.534   1.685   3.066  0.0256  2.2442  1.5458
  628SOL     OW 1882   1.601   2.183   0.813 -0.5709 -0.6478  0.8426
  628SOL    HW1 1883   1.559   2.139   0.892  2.1029  0.3199 -2.3922
  628SOL    HW2 1884   1.698   2.188   0.827  0.2154 -1.1573  1.6250
  629SOL     OW 1885   0.533   0.307   1.497 -0.5844  0.4666 -0.2793
  629SOL    HW1 1886   0.495   0.327   1.589  0.3769 -0.4479  0.1705
  629SOL    HW2 1887   0.621   0.259   1.509  0.8876 -0.9233  0.2924
  630SOL     OW 1888   2.405   0.497   1.674 -0.5725 -0.1499 -0.5849
  630SOL    HW1 1889   2.335   0.558   1.706 -0.4694  0.6869 -1.3733
  630SOL    HW2 1890   2.366   0.450   1.590  1.0001 -1.0787  1.1740
  631SOL     OW 1891   1.529   0.250   1.027  0.2618  0.3930 -0.1157
  631SOL    HW1 1892   1.552   0.330   0.971  2.6155 -1.7327 -0.0111
  631SOL    HW2 1893   1.429   0.243   1.058 -4.1083 -2.0453  0.3601
  632SOL     OW 1894   2.744   1.015   1.956 -0.0830 -0.4446  0.4381
  632SOL    HW1 1895   2.771   1.053   1.866  2.5830 -1.0883 -2.6647
  632SOL    HW2 1896   2.773   0.918   1.961  0.6819  5.0676  0.5873
  633SOL     OW 1897   1.435   0.839   0.020  0.0848  0.1035 -0.3837
  633SOL    HW1 1898   1.372   0.814   0.095 -0.6080 -0.6810 -0.9317
  633SOL    HW2 1899   1.530   0.865   0.053  3.2645  1.5336  0.9214
  634SOL     OW 1900   0.584   2.356   0.219  0.4107  0.0959  0.4066
  634SOL    HW1 1901   0.639   2.427   0.261 -0.4720 -1.5051 -1.1615
  634SOL    HW2 1902   0.632   2.318   0.134  2.0589 -0.8705 -1.8355
  635SOL     OW 1903   3.043   1.778   1.696 -0.0262 -0.1731  0.3165
  635SOL    HW1 1904   2.947   1.755   1.723 -0.1290  1.1236  1.3413
  635SOL    HW2 1905   0.013   1.774   1.771 -0.8994  1.4802  0.9333
  636SOL     OW 1906   3.028   1.559   0.174  0.6708  0.1677  0.3057
  636SOL    HW1 1907   3.084   1.521   0.100 -0.0424 -1.3106  2.7111
  636SOL    HW2 1908   3.068   1.648   0.198 -1.3110 -3.0263  1.8663
  637SOL     OW 1909   2.807   2.437   0.482 -0.3621 -0.5896  0.8943
  637SOL    HW1 1910   2.818   2.535   0.497 -0.3435  0.8065  0.6018
  637SOL    HW2 1911   2.855   2.384   0.554 -2.2243  3.0564 -0.1620
  638SOL     OW 1912   2.898   2.701   0.200  0.2532 -0.2737  0.2933
  638SOL    HW1 1913   2.852   2.610   0.193 -1.7570  0.7605  0.1008
  638SOL    HW2 1914   2.980   2.704   0.142  0.4675  2.6303 -1.1501
  639SOL     OW 1915   1.415   0.303   3.057 -0.0458  0.3320  0.0977
  639SOL    HW1 1916   1.351   0.380   3.041  1.1477 -0.5082  0.0452
  639SOL    HW2 1917   1.395   0.219   3.002 -0.5292  1.2343 -3.4259
  640SOL     OW 1918   2.392   2.152   1.515  0.6047 -0.5320  0.4197
  640SOL    HW1 1919   2.434   2.136   1.425 -3.0401  0.4545  2.4018
  640SOL    HW2 1920   2.319   2.223   1.506 -1.5176 -0.6205 -0.5530
  641SOL     OW 1921   2.908   2.945   1.151  0.6718 -0.5740 -0.4659
  641SOL    HW1 1922   2.808   2.964   1.154 -0.4484 -2.2483 -0.2929
  641SOL    HW2 1923   2.970   3.025   1.174  2.9219 -0.0762  0.6226
  642SOL     OW 1924   1.654   1.066   1.282 -0.4737  0.2867  0.0740
  642SOL    HW1 1925   1.725   1.067   1.212 -2.5228 -0.2601  0.5394
  642SOL    HW2 1926   1.706   1.051   1.368 -1.1608 -0.5132 -1.1383
  643SOL     OW 1927   1.157   1.780   2.432 -0.0315  1.0709 -0.0159
  643SOL    HW1 1928   1.254   1.818   2.419  2.3490  0.4554 -0.0624
  643SOL    HW2 1929   1.111   1.755   2.343 -1.4039 -2.2213  1.8282
  644SOL     OW 1930   1.765   3.089   2.221 -0.2136 -1.0194 -0.2341
  644SOL    HW1 1931   1.809   0.005   2.315  2.0934  1.5785  0.8490
  644SOL    HW2 1932   1.690   0.059   2.204 -0.9233  0.0268 -0.4640
  645SOL     OW 1933   1.605   0.961   1.708  0.3273  0.0978 -0.5069
  645SOL    HW1 1934   1.506   0.991   1.707 -1.9351 -0.7474  4.0002
  645SOL    HW2 1935   1.671   1.003   1.638 -1.8097 -0.9299 -0.4260
  646SOL     OW 1936   1.340   2.671   2.950 -0.0645 -0.0719  0.1439
  646SOL    HW1 1937   1.294   2.632   2.868 -0.5548  1.0570  1.1767
  646SOL    HW2 1938   1.408   2.601   2.983 -0.7144 -2.3347 -1.8583
  647SOL     OW 1939   1.352   2.358   1.170  0.9361 -0.0724 -0.2430
  647SOL    HW1 1940   1.309   2.342   1.081  0.3933 -0.1574  2.2062
  647SOL    HW2 1941   1.358   2.269   1.219  2.7125  0.2096  1.0044
  648SOL     OW 1942   2.938   2.696   1.294  0.4696  0.2947  0.8835
  648SOL    HW1 1943   3.035   2.676   1.331 -0.7334 -0.0074  0.1920
  648SOL    HW2 1944   2.936   2.769   1.221 -0.9553 -4.2491  0.6389
  649SOL     OW 1945   1.061   2.383   2.638 -0.8250 -1.0746  0.3920
  649SOL    HW1 1946   1.096   2.292   2.657  0.9678  2.3397  0.9233
  649SOL    HW2 1947   0.960   2.381   2.662  1.4461 -1.5474  1.2512
  650SOL     OW 1948   2.992   1.817   2.938 -0.1519 -0.1990  0.2246
  650SOL    HW1 1949   2.924   1.756   2.988 -0.3581  1.0697  0.5381
  650SOL    HW2 1950   3.085   1.779   2.939  0.4874  0.2585 -0.1509
  651SOL     OW 1951   2.262   2.287   2.053  0.1914  0.0746 -0.1588
  651SOL    HW1 1952   2.233   2.195   2.090 -0.4762 -1.7023  1.5728
  651SOL    HW2 1953   2.271   2.291   1.952 -2.3784 -0.9573 -1.2407
  652SOL     OW 1954   2.151   2.912   0.919 -0.2616 -0.3862  0.0592
  652SOL    HW1 1955   2.252   2.934   0.929  1.9398 -0.9618 -1.7729
  652SOL    HW2 1956   2.133   2.864   0.830 -0.5065 -1.2784 -0.3325
  653SOL     OW 1957   2.903   1.301   1.297  0.1051 -0.3724 -0.0283
  653SOL    HW1 1958   2.809   1.308   1.272  1.8351  0.3891 -1.3742
  653SOL    HW2 1959   2.961   1.288   1.212 -0.2935  1.6017 -0.1604
  654SOL     OW 1960   1.003   0.354   2.930 -0.0256  0.0953  0.0603
  654SOL    HW1 1961   1.037   0.427   2.996  0.0093  1.9808  2.9102
  654SOL    HW2 1962   0.912   0.319   2.959 -3.5636 -0.4765  0.2119
  655SOL     OW 1963   1.136   0.825   1.040  0.4541  0.0650  0.2683
  655SOL    HW1 1964   1.047   0.780   1.067  0.9919 -0.2962  1.0467
  655SOL    HW2 1965   1.203   0.813   1.115  0.7018 -0.4268  0.3894
  656SOL     OW 1966   0.700   2.542   1.962 -0.2282  0.2514 -0.1323
  656SOL    HW1 1967   0.599   2.534   1.991 -1.6549 -2.8042  0.7605
  656SOL    HW2 1968   0.758   2.523   2.042 -1.0329  1.8251  0.1375
  657SOL     OW 1969   2.217   1.179   0.159  0.1152  0.9036  0.4014
  657SOL    HW1 1970   2.191   1.132   0.070  0.6249 -1.0374 -1.4215
  657SOL    HW2 1971   2.283   1.248   0.142 -1.3790 -1.4481  1.6293
  658SOL     OW 1972   1.637   2.124   1.351  0.2816 -0.1869 -0.1335
  658SOL    HW1 1973   1.596   2.180   1.423 -0.4256 -0.9447 -1.0344
  658SOL    HW2 1974   1.739   2.146   1.334  0.5658  1.2535 -0.3516
  659SOL     OW 1975   2.736   1.815   0.158 -0.7041  0.1180  0.0996
  659SOL    HW1 1976   2.765   1.752   0.083 -0.3963  1.6081  1.6250
  659SOL    HW2 1977   2.638   1.809   0.171 -0.7605  1.0797  2.0172
  660SOL     OW 1978   0.995   0.338   0.632 -0.8639  0.3349  0.2510
  660SOL    HW1 1979   1.033   0.253   0.589 -2.8441 -2.0364 -1.8050
  660SOL    HW2 1980   0.962   0.400   0.557  1.4063 -1.6493 -1.0655
  661SOL     OW 1981   1.805   0.229   0.409  0.4441  0.0084 -0.1437
  661SOL    HW1 1982   1.744   0.165   0.361  0.8796  1.0161  0.4187
  661SOL    HW2 1983   1.882   0.264   0.353  0.0950 -0.4803  0.4397
  662SOL     OW 1984   0.300   0.322   0.575 -0.5616 -0.1743 -0.3372
  662SOL    HW1 1985   0.249   0.389   0.633 -3.5920  0.6118  0.2189
  662SOL    HW2 1986   0.243   0.242   0.548 -1.0433  0.2495  0.0259
  663SOL     OW 1987   1.281   2.947   2.223  0.1132 -0.4767 -0.2105
  663SOL    HW1 1988   1.226   3.029   2.226  0.1228  0.5745  2.3378
  663SOL    HW2 1989   1.234   2.868   2.264  1.8747 -1.3142  0.1170
  664SOL     OW 1990   0.845   2.352   1.477 -0.0671  0.0433  0.4744
  664SOL    HW1 1991   0.819   2.356   1.573  0.0994 -0.3296 -1.4263
  664SOL    HW2 1992   0.764   2.323   1.416 -1.8571 -0.3465 -0.1578
  665SOL     OW 1993   1.197   2.208   1.786  0.1416  0.1211  0.1504
  665SOL    HW1 1994   1.115   2.265   1.791  0.4078  0.2047 -0.9511
  665SOL    HW2 1995   1.282   2.261   1.807  0.1583 -0.0716  1.1089
  666SOL     OW 1996   0.682   2.979   2.468  0.1818 -0.2845  0.4608
  666SOL    HW1 1997   0.591   2.940   2.494  1.7984 -1.3991 -1.0482
  666SOL    HW2 1998   0.693   3.068   2.519 -0.2195 -0.8443 -0.6765
  667SOL     OW 1999   2.495   1.088   1.541  0.0394 -0.5844  0.3483
  667SOL    HW1 2000   2.486   1.181   1.575  1.7600 -0.3258  0.0085
  667SOL    HW2 2001   2.459   1.072   1.444 -0.0316 -0.3849 -0.1016
  668SOL     OW 2002   1.757   0.205   1.790  0.0459 -0.3390 -0.3047
  668SOL    HW1 2003   1.809   0.138   1.849  2.2754 -2.7850  0.3772
  668SOL    HW2 2004   1.669   0.235   1.831 -1.7786 -1.2710  0.4935
  669SOL     OW 2005   2.573   2.687   1.177  0.0896 -0.7492  0.1956
  669SOL    HW1 2006   2.588   2.612   1.245 -2.6869 -1.7826  1.2461
  669SOL    HW2 2007   2.594   2.654   1.085  0.8521 -2.1678  1.5160
  670SOL     OW 2008   1.508   2.474   2.575 -0.0465 -0.5443  0.5914
  670SOL    HW1 2009   1.546   2.541   2.508 -2.6943 -1.5609 -3.0089
  670SOL    HW2 2010   1.448   2.406   2.528 -0.5266 -3.0114  2.2333
  671SOL     OW 2011   0.541   1.308   0.452  0.1652  0.0714  0.2856
  671SOL    HW1 2012   0.578   1.215   0.460  0.7956  0.8019  0.3385
  671SOL    HW2 2013   0.447   1.317   0.416  1.4618 -0.6821  1.3300
  672SOL     OW 2014   2.605   1.132   0.048  0.0565 -0.7089  0.4248
  672SOL    HW1 2015   2.681   1.198   0.052  1.5711  0.8541  0.1510
  672SOL    HW2 2016   2.633   1.045   0.090 -0.4953  1.2539  1.0451
  673SOL     OW 2017   0.248   1.991   1.486 -0.3226 -0.3395  0.0322
  673SOL    HW1 2018   0.173   2.029   1.542  0.9767 -0.0039 -1.9057
  673SOL    HW2 2019   0.261   1.892   1.508  2.1573  0.7740  0.0148
  674SOL     OW 2020   1.024   2.054   2.129 -0.0346  0.2786 -0.3242
  674SOL    HW1 2021   1.101   2.119   2.120  0.7892 -2.1934 -1.5331
  674SOL    HW2 2022   0.948   2.089   2.072  1.9809  0.8774  2.6167
  675SOL     OW 2023   1.184   0.938   1.370  0.2438  0.3582 -0.0820
  675SOL    HW1 2024   1.199   0.918   1.467  0.3348  3.3616 -1.9544
  675SOL    HW2 2025   1.087   0.958   1.349  0.3405 -1.9254 -0.4944
  676SOL     OW 2026   2.016   0.321   1.365 -0.0580 -0.1558  0.7005
  676SOL    HW1 2027   1.992   0.362   1.277  2.9549  1.5324  1.4049
  676SOL    HW2 2028   1.935   0.284   1.413  1.0111 -2.5357 -1.6109
  677SOL     OW 2029   2.730   0.644   0.185 -0.2194  0.1604 -0.0380
  677SOL    HW1 2030   2.766   0.684   0.274  1.8606  1.2168 -1.8280
  677SOL    HW2 2031   2.726   0.542   0.181  0.7569  2.3147 -0.1977
  678SOL     OW 2032   2.555   1.420   0.971  0.2760  1.0275  0.2505
  678SOL    HW1 2033   2.662   1.431   0.964  2.9436  0.8409 -0.0229
  678SOL    HW2 2034   2.528   1.346   0.901 -2.4341  0.1574 -0.8505
  679SOL     OW 2035   2.617   0.785   2.911  0.2778 -0.3768  0.2105
  679SOL    HW1 2036   2.658   0.794   2.818  1.7440 -2.1375  1.0240
  679SOL    HW2 2037   2.686   0.809   2.983 -2.1432 -0.2964 -0.2180
  680SOL     OW 2038   0.472   1.189   2.001  0.4072 -0.2011 -0.1928
  680SOL    HW1 2039   0.449   1.111   2.062  0.2456 -0.4647  0.7868
  680SOL    HW2 2040   0.429   1.278   2.028  3.2179  2.5479  1.2499
  681SOL     OW 2041   2.753   2.004   1.481 -0.0450  0.0096 -0.2276
  681SOL    HW1 2042   2.690   2.000   1.560 -2.7006  0.5254  0.9990
  681SOL    HW2 2043   2.743   1.924   1.419  1.4444 -0.6041 -1.9678
  682SOL     OW 2044   0.158   2.002   3.008  0.2428  0.2690  0.7256
  682SOL    HW1 2045   0.116   2.091   3.003  3.1151 -4.0304  0.5723
  682SOL    HW2 2046   0.223   1.983   2.931 -0.0397 -1.1754  1.2703
  683SOL     OW 2047   2.724   2.179   0.815  0.0659  0.0452 -0.3058
  683SOL    HW1 2048   2.742   2.079   0.823 -1.5660  1.6633  0.3676
  683SOL    HW2 2049   2.634   2.199   0.854  0.1486 -0.2700 -1.8631
  684SOL     OW 2050   2.726   1.245   2.130  0.1638 -0.2831 -0.5858
  684SOL    HW1 2051   2.732   1.167   2.065  3.3424 -0.1785 -0.8487
  684SOL    HW2 2052   2.751   1.221   2.223  0.2884  1.0197 -0.3989
  685SOL     OW 2053   1.127   0.697   0.773 -0.0766 -0.1037  0.3087
  685SOL    HW1 2054   1.147   0.601   0.773 -2.0156  2.3436  0.0943
  685SOL    HW2 2055   1.143   0.725   0.871 -2.0867  0.3259 -0.6778
  686SOL     OW 2056   0.592   0.371   0.089 -0.1580 -0.0427 -0.2938
  686SOL    HW1 2057   0.534   0.369   0.175  1.7553  3.1556  1.4749
  686SOL    HW2 2058   0.660   0.453   0.094  0.7116  1.4171  1.1637
  687SOL     OW 2059   0.529   1.998   2.524  0.2582  0.5332  0.1346
  687SOL    HW1 2060   0.560   2.048   2.439  3.4227 -0.4453  0.0313
  687SOL    HW2 2061   0.431   1.972   2.521  2.4792 -0.8895 -0.4623
  688SOL     OW 2062   2.084   0.275   1.692  0.4598  0.0392  0.0876
  688SOL    HW1 2063   2.136   0.297   1.610 -3.1566 -0.5527  2.4157
  688SOL    HW2 2064   1.987   0.249   1.668  2.0892  1.8065  0.5951
  689SOL     OW 2065   1.686   0.911   0.916  0.2023 -0.3292  0.5074
  689SOL    HW1 2066   1.722   0.916   1.009 -1.5194  0.6072 -0.3462
  689SOL    HW2 2067   1.583   0.918   0.924 -0.9233 -0.1469  0.7256
  690SOL     OW 2068   2.940   1.063   1.455  0.1076  0.4133 -0.3241
  690SOL    HW1 2069   2.943   1.152   1.409  0.3218 -2.4413  2.2908
  690SOL    HW2 2070   2.904   0.991   1.391  0.5415  3.7285 -1.8367
  691SOL     OW 2071   3.002   1.280   1.891 -0.1746  0.1888 -0.1091
  691SOL    HW1 2072   3.084   1.290   1.834 -1.8872  1.1994 -0.9171
  691SOL    HW2 2073   2.949   1.363   1.919 -0.2904  0.5490 -1.1439
  692SOL     OW 2074   0.982   0.697   1.886 -0.3617  0.6924 -0.5220
  692SOL    HW1 2075   1.013   0.624   1.947 -1.3076  1.6645 -2.6280
  692SOL    HW2 2076   1.022   0.785   1.920 -1.1072 -1.1974 -0.3093
  693SOL     OW 2077   0.776   1.241   2.450 -0.0793 -0.1124  0.4026
  693SOL    HW1 2078   0.797   1.299   2.369 -1.6010  0.5729 -1.4270
  693SOL    HW2 2079   0.673   1.232   2.448 -1.0787  0.8630 -0.1664
  694SOL     OW 2080   1.707   1.585   0.376 -0.5968 -0.3152 -0.2270
  694SOL    HW1 2081   1.711   1.542   0.471  1.1735  1.4134 -0.0635
  694SOL    HW2 2082   1.611   1.618   0.360 -1.3732  0.8038 -1.0236
  695SOL     OW 2083   0.489   1.232   1.363  0.1262  0.4262 -0.5062
  695SOL    HW1 2084   0.386   1.232   1.374 -0.1824  0.9180  0.4832
  695SOL    HW2 2085   0.533   1.260   1.451 -0.9251  2.2087 -1.7499
  696SOL     OW 2086   0.291   2.880   0.345  0.1879  0.1100  0.2777
  696SOL    HW1 2087   0.352   2.954   0.385  0.2169  0.9575  2.5265
  696SOL    HW2 2088   0.345   2.804   0.307 -1.9825  3.8263 -0.7046
  697SOL     OW 2089   1.907   0.423   1.123  0.1159 -0.0685  0.1520
  697SOL    HW1 2090   1.843   0.498   1.114  3.3118 -0.5552  0.6948
  697SOL    HW2 2091   1.851   0.342   1.166 -2.6489 -2.6360  1.0850
  698SOL     OW 2092   1.720   1.413   1.599 -0.5183  0.1375  0.0190
  698SOL    HW1 2093   1.774   1.440   1.679  2.5239 -2.3269  0.2921
  698SOL    HW2 2094   1.776   1.364   1.534 -2.1331  1.7663  0.7510
  699SOL     OW 2095   0.057   0.388   2.291  0.1560 -0.2258 -0.0719
  699SOL    HW1 2096   0.038   0.457   2.219 -0.8449  0.7205 -1.6319
  699SOL    HW2 2097   3.092   0.309   2.286 -0.6183 -1.5227 -1.6175
  700SOL     OW 2098   1.455   2.672   0.873  0.2401 -0.1327  0.1164
  700SOL    HW1 2099   1.543   2.641   0.825  0.9294  0.1441 -0.9040
  700SOL    HW2 2100   1.404   2.733   0.811 -0.0164  0.4955 -0.3990
  701SOL     OW 2101   0.300   1.343   2.509  0.2695  0.3337 -0.5756
  701SOL    HW1 2102   0.256   1.430   2.530  0.5495  0.1498  0.0751
  701SOL    HW2 2103   0.367   1.325   2.577 -1.9420  1.3180 -0.5239
  702SOL     OW 2104   0.448   0.331   2.956  0.2487 -0.4602  0.2701
  702SOL    HW1 2105   0.345   0.339   2.967 -0.0988  1.8150 -3.1205
  702SOL    HW2 2106   0.502   0.348   3.044  1.8357 -0.4819  1.1411
  703SOL     OW 2107   1.906   0.037   2.464 -0.1505 -0.5962 -0.1642
  703SOL    HW1 2108   1.991   0.032   2.521  1.1629 -1.7520 -0.4759
  703SOL    HW2 2109   1.836   0.097   2.508 -0.3768  1.2280  0.6610
  704SOL     OW 2110   2.686   1.701   0.482  0.0557  0.1469  0.0317
  704SOL    HW1 2111   2.675   1.802   0.465 -0.9735  0.6226  1.7608
  704SOL    HW2 2112   2.762   1.669   0.422 -0.1512 -0.1309 -0.1379
  705SOL     OW 2113   2.785   2.064   1.906 -0.5924 -0.2663  0.0844
  705SOL    HW1 2114   2.787   2.026   2.001 -0.6810 -0.6119 -4.4778
  705SOL    HW2 2115   2.732   2.150   1.903  0.3811  3.1214 -1.7946
  706SOL     OW 2116   2.913   2.587   0.838 -0.0944  0.5187 -0.2098
  706SOL    HW1 2117   2.969   2.633   0.913 -1.3456  0.7716 -0.4061
  706SOL    HW2 2118   2.940   2.621   0.746  0.1379 -0.6650 -0.4237
  707SOL     OW 2119   0.876   2.899   0.336 -0.1783  0.1039 -0.1474
  707SOL    HW1 2120   0.950   2.836   0.376 -0.6655 -1.6639 -2.3893
  707SOL    HW2 2121   0.910   2.996   0.316  0.5597 -0.6176 -2.8225
  708SOL     OW 2122   0.515   2.091   1.511 -0.2833  0.4697  0.1904
  708SOL    HW1 2123   0.420   2.064   1.503  0.4454  0.5837  0.8170
  708SOL    HW2 2124   0.547   2.161   1.442 -1.9749  1.0918  0.5386
  709SOL     OW 2125   1.457   2.829   2.024 -0.2650 -0.4671  0.3107
  709SOL    HW1 2126   1.442   2.732   2.004  0.0957  0.6374  1.3869
  709SOL    HW2 2127   1.398   2.854   2.102  0.5310 -0.6410 -0.9982
  710SOL     OW 2128   1.574   2.710   2.432 -0.5943 -0.1164  0.1048
  710SOL    HW1 2129   1.630   2.735   2.515 -0.7722  0.1242  2.6237
  710SOL    HW2 2130   1.607   2.755   2.348  0.9544 -0.6235  0.7193
  711SOL     OW 2131   1.277   2.528   2.728 -0.2897  0.1666  0.7034
  711SOL    HW1 2132   1.188   2.493   2.694  1.0355  0.4176  0.6205
  711SOL    HW2 2133   1.355   2.511   2.667 -1.6283 -0.2314  0.7913
  712SOL     OW 2134   1.168   2.162   2.736 -0.0910  0.3053 -0.1694
  712SOL    HW1 2135   1.236   2.173   2.812 -0.2470  1.3542  1.4680
  712SOL    HW2 2136   1.166   2.068   2.699  2.1982  0.8755 -0.7244
  713SOL     OW 2137   1.335   1.041   1.676 -0.0580 -0.4459 -0.0014
  713SOL    HW1 2138   1.317   1.134   1.642 -1.5784  0.9225 -0.9974
  713SOL    HW2 2139   1.270   0.971   1.644  0.9484  0.7379 -1.1081
  714SOL     OW 2140   1.512   1.541   1.160 -0.3534  0.2130 -0.5637
  714SOL    HW1 2141   1.533   1.441   1.149 -1.3530 -0.6572  0.6140
  714SOL    HW2 2142   1.582   1.579   1.220 -2.1428  2.0991 -1.8391
  715SOL     OW 2143   2.685   2.913   0.592  0.1864  0.0779  1.1288
  715SOL    HW1 2144   2.765   2.906   0.524 -1.3684 -1.0433  1.9850
  715SOL    HW2 2145   2.642   2.821   0.601  1.3667 -0.6275  1.0525
  716SOL     OW 2146   0.778   2.770   0.802  0.3904  0.5779  0.3940
  716SOL    HW1 2147   0.758   2.775   0.701 -0.6280 -0.1728  1.2491
  716SOL    HW2 2148   0.769   2.669   0.831  0.7862 -0.5732 -1.0304
  717SOL     OW 2149   0.016   0.221   0.010 -0.1178 -0.3404 -0.3122
  717SOL    HW1 2150   3.022   0.260   0.004  1.0054  1.2178 -0.1559
  717SOL    HW2 2151   0.030   0.195   0.110 -0.3124 -0.0276 -0.9484
  718SOL     OW 2152   1.702   1.666   1.312  0.5872 -0.2635 -0.3011
  718SOL    HW1 2153   1.767   1.616   1.366 -1.1044 -0.2386 -0.2855
  718SOL    HW2 2154   1.654   1.736   1.368 -2.7510  1.6213  2.4317
  719SOL     OW 2155   2.783   2.468   0.207 -0.5354 -0.2798 -0.1734
  719SOL    HW1 2156   2.784   2.387   0.150 -0.1880  3.1803  1.0401
  719SOL    HW2 2157   2.813   2.436   0.300  0.3077  0.7450 -1.5840
  720SOL     OW 2158   1.042   1.063   0.895  0.3780  0.2737 -0.2606
  720SOL    HW1 2159   1.084   0.990   0.952 -0.1949  0.4553  0.3584
  720SOL    HW2 2160   1.112   1.132   0.860  1.2080  1.8741 -1.4415
  721SOL     OW 2161   1.737   0.255   1.229  0.0207 -0.0757 -0.1125
  721SOL    HW1 2162   1.698   0.245   1.137 -0.3905 -0.7221  0.1514
  721SOL    HW2 2163   1.740   0.163   1.277  0.6365  0.3739  0.7334
  722SOL     OW 2164   1.106   1.530   2.146  0.0761  0.2248  0.1400
  722SOL    HW1 2165   1.084   1.628   2.140 -0.6596  0.6092 -1.2403
  722SOL    HW2 2166   1.181   1.525   2.211  0.0639  0.5077  2.9071
  723SOL     OW 2167   1.028   0.110   1.628 -0.3437 -0.2068  0.0098
  723SOL    HW1 2168   1.079   0.189   1.589  2.1004 -0.7195  1.1609
  723SOL    HW2 2169   1.067   0.017   1.603 -1.3261  1.2183  1.6167
  724SOL     OW 2170   1.633   1.985   1.875 -0.3585  0.4198  0.7533
  724SOL    HW1 2171   1.656   2.024   1.783  1.8666 -1.3590  0.1753
  724SOL    HW2 2172   1.694   1.905   1.885 -0.5860  1.9435 -1.5457
  725SOL     OW 2173   1.341   2.762   1.352 -0.3577 -0.0152 -0.3157
  725SOL    HW1 2174   1.404   2.772   1.431  0.4009  0.2260  0.6575
  725SOL    HW2 2175   1.395   2.758   1.262  0.3071  1.4941 -0.7341
  726SOL     OW 2176   1.713   2.899   3.061 -0.2050 -0.1915 -0.1179
  726SOL    HW1 2177   1.722   2.986   3.008 -0.3384 -0.1629  0.9268
  726SOL    HW2 2178   1.807   2.863   3.078  1.1137  0.0841  0.6776
  727SOL     OW 2179   1.447   1.833   0.736 -0.0999 -0.1701 -0.7492
  727SOL    HW1 2180   1.454   1.935   0.741  0.2963 -0.1732 -0.7840
  727SOL    HW2 2181   1.529   1.779   0.763  0.0766 -1.4508 -0.1461
  728SOL     OW 2182   2.012   2.896   2.307 -0.7212  0.0709 -0.2541
  728SOL    HW1 2183   1.913   2.903   2.309 -0.8294  2.5499  0.1886
  728SOL    HW2 2184   2.044   2.893   2.406 -0.4103  2.5497 -0.3270
  729SOL     OW 2185   2.224   1.920   1.564  0.1028 -0.6677  0.2093
  729SOL    HW1 2186   2.284   2.001   1.581 -0.6891 -2.5649 -1.5352
  729SOL    HW2 2187   2.217   1.907   1.464 -0.2231  3.5616  0.5830
  730SOL     OW 2188   1.803   0.588   2.392  0.0146  0.0320  0.4581
  730SOL    HW1 2189   1.836   0.491   2.366  0.2420 -2.8098  1.4991
  730SOL    HW2 2190   1.832   0.615   2.485 -2.2826  0.8852 -1.9528
  731SOL     OW 2191   0.521   0.076   1.122 -0.0442  0.1753  0.2043
  731SOL    HW1 2192   0.454   0.062   1.200 -1.6783 -0.3236  0.7137
  731SOL    HW2 2193   0.524   0.178   1.102 -0.8484 -2.7491  0.1716
  732SOL     OW 2194   1.778   0.018   0.941  0.2535  0.4619  0.1739
  732SOL    HW1 2195   1.791   0.088   0.866  1.2037 -2.8774 -0.4638
  732SOL    HW2 2196   1.864   0.021   0.995 -3.0169 -1.5402 -0.6330
  733SOL     OW 2197   0.708   1.104   1.227  0.1142  0.2749  0.2036
  733SOL    HW1 2198   0.668   1.190   1.267 -0.0232 -2.2521 -0.1230
  733SOL    HW2 2199   0.732   1.126   1.127 -0.0165  0.4322 -1.0224
  734SOL     OW 2200   2.613   2.245   0.372 -0.2478  0.0453 -0.5389
  734SOL    HW1 2201   2.519   2.268   0.401  0.8893  1.0101 -0.7709
  734SOL    HW2 2202   2.679   2.284   0.439  3.0558  2.9176  0.4540
  735SOL     OW 2203   0.319   0.679   0.102 -0.1553 -0.9172 -0.3417
  735SOL    HW1 2204   0.367   0.658   0.016  1.1025  3.4716  2.1984
  735SOL    HW2 2205   0.249   0.613   0.127  0.4652  0.6706  0.4398
  736SOL     OW 2206   1.824   2.391   2.427 -0.0120 -0.0365  0.6790
  736SOL    HW1 2207   1.813   2.461   2.351  1.2657  2.0460 -2.5023
  736SOL    HW2 2208   1.842   2.431   2.524 -2.1929  1.1644  1.6590
  737SOL     OW 2209   1.309   2.087   1.264 -0.0182 -0.3293  0.1443
  737SOL    HW1 2210   1.250   2.031   1.203  0.4263  1.1645  2.0566
  737SOL    HW2 2211   1.261   2.111   1.351 -1.5139 -0.4176  0.5181
  738SOL     OW 2212   1.660   2.818   2.202  0.0202 -0.9267  0.6208
  738SOL    HW1 2213   1.581   2.825   2.143  0.0163  0.2111  0.7999
  738SOL    HW2 2214   1.702   2.907   2.207 -2.6067  1.0868  1.3870
  739SOL     OW 2215   1.448   2.042   2.158  0.2987  0.6471 -0.3495
  739SOL    HW1 2216   1.552   2.041   2.165  3.2179  0.6055 -2.0672
  739SOL    HW2 2217   1.410   2.135   2.151 -0.8312  0.3542  0.5224
  740SOL     OW 2218   1.954   2.260   1.531  0.2405 -0.6693  0.1325
  740SOL    HW1 2219   1.940   2.208   1.447 -1.1548 -0.4700  1.0675
  740SOL    HW2 2220   1.939   2.362   1.517  1.1262  2.1826 -0.0564
  741SOL     OW 2221   2.100   1.662   2.718  0.7971 -0.5176  0.7737
  741SOL    HW1 2222   2.002   1.702   2.701 -1.4790  1.5313 -0.0669
  741SOL    HW2 2223   2.165   1.720   2.667  1.0753 -1.6223  0.2747
  742SOL     OW 2224   0.654   1.106   2.968 -0.1518 -0.0306 -0.5989
  742SOL    HW1 2225   0.610   1.137   3.055  0.3953  2.1768  1.2457
  742SOL    HW2 2226   0.696   1.184   2.920 -1.2227 -1.9469  0.9627
  743SOL     OW 2227   2.090   0.808   2.766 -0.0297 -0.0681 -0.8194
  743SOL    HW1 2228   2.165   0.794   2.702 -2.0043  2.6014  1.9791
  743SOL    HW2 2229   2.036   0.896   2.750  0.9023  4.6658 -0.3863
  744SOL     OW 2230   1.999   2.782   1.600 -0.4639 -0.3716  0.1054
  744SOL    HW1 2231   2.049   2.809   1.513  2.0628  0.1184  1.5039
  744SOL    HW2 2232   2.070   2.771   1.673  0.5153 -1.7218 -1.0890
  745SOL     OW 2233   2.593   1.971   1.061  0.1221 -0.1986 -0.4667
  745SOL    HW1 2234   2.651   1.956   0.978 -0.9743 -0.3786  1.1961
  745SOL    HW2 2235   2.597   1.886   1.121 -0.3917 -0.7809  3.4278
  746SOL     OW 2236   2.778   1.916   0.868 -0.0902  0.1911 -0.4867
  746SOL    HW1 2237   2.747   1.833   0.815  3.1267  0.3804 -0.9749
  746SOL    HW2 2238   2.879   1.917   0.865 -2.5941 -0.9567  2.3090
  747SOL     OW 2239   2.040   2.832   0.299  0.6138  0.5350  0.2731
  747SOL    HW1 2240   2.126   2.788   0.271 -2.9406 -0.2432 -1.2429
  747SOL    HW2 2241   2.041   2.864   0.394  2.9100  0.9635  0.8214
  748SOL     OW 2242   0.907   2.157   0.213  0.0524 -0.1099  0.2333
  748SOL    HW1 2243   0.881   2.060   0.188 -1.4151 -1.6721 -3.4457
  748SOL    HW2 2244   0.913   2.216   0.129  0.4837 -0.9803  0.9903
  749SOL     OW 2245   2.678   0.460   2.390  0.3941  0.1150 -0.3604
  749SOL    HW1 2246   2.720   0.370   2.389 -0.2537  4.1091 -1.9519
  749SOL    HW2 2247   2.753   0.532   2.380 -0.8094 -1.0646  2.5659
  750SOL     OW 2248   1.301   0.669   1.767 -0.2476  0.0031  0.4633
  750SOL    HW1 2249   1.360   0.734   1.818  0.0899 -0.0218 -0.8126
  750SOL    HW2 2250   1.304   0.577   1.809  3.2397  0.4003 -0.2976
  751SOL     OW 2251   2.356   2.329   1.786 -0.7619 -0.3174 -0.2583
  751SOL    HW1 2252   2.305   2.324   1.698 -0.2619  1.1114  1.5921
  751SOL    HW2 2253   2.389   2.427   1.800  0.7573  4.3032  0.1282
  752SOL     OW 2254   1.859   1.588   1.019  0.1444 -1.2277  0.2146
  752SOL    HW1 2255   1.862   1.676   1.070 -1.7305  2.2100  1.6364
  752SOL    HW2 2256   1.822   1.521   1.078 -0.1399  1.4895 -3.5860
  753SOL     OW 2257   1.470   0.893   2.289  0.0410  0.4792  0.4752
  753SOL    HW1 2258   1.474   0.942   2.204 -0.3714 -1.6317  1.7857
  753SOL    HW2 2259   1.507   0.940   2.367 -1.6405  0.1484 -0.4093
  754SOL     OW 2260   0.292   2.608   0.997 -0.1502 -0.8548  0.4944
  754SOL    HW1 2261   0.372   2.606   1.061  0.7491 -0.2408  0.1734
  754SOL    HW2 2262   0.215   2.560   1.040  0.0976  1.4335  2.1565
  755SOL     OW 2263   2.388   3.088   1.396  0.2046  0.1705 -0.0104
  755SOL    HW1 2264   2.433   3.026   1.464  1.6943  2.1007  2.5708
  755SOL    HW2 2265   2.424   0.082   1.407  0.0744 -2.7493 -1.8087
  756SOL     OW 2266   1.674   1.234   2.424 -0.1987 -0.3958 -0.7176
  756SOL    HW1 2267   1.712   1.278   2.512  1.1957  0.8892  1.7285
  756SOL    HW2 2268   1.619   1.304   2.379  0.5244 -3.4919 -0.0976
  757SOL     OW 2269   2.900   2.972   1.753 -0.1041 -0.2083  0.6368
  757SOL    HW1 2270   2.861   2.938   1.844  1.5233 -0.7598  1.1408
  757SOL    HW2 2271   2.873   3.067   1.733 -0.9970 -0.0010 -1.1858
  758SOL     OW 2272   0.431   2.711   1.514 -0.3267 -0.2320 -0.2009
  758SOL    HW1 2273   0.368   2.759   1.444 -1.2743  3.1280 -3.6240
  758SOL    HW2 2274   0.441   2.612   1.513  2.6250  0.8267 -0.6656
  759SOL     OW 2275   2.276   1.309   1.028 -0.4051 -0.7463 -0.2278
  759SOL    HW1 2276   2.366   1.326   0.980  1.8762  2.0797 -2.4322
  759SOL    HW2 2277   2.209   1.380   1.003 -0.6063  0.5744  1.9345
  760SOL     OW 2278   1.493   0.190   1.883  0.2960  0.4722  0.1266
  760SOL    HW1 2279   1.478   0.106   1.837 -0.2449  1.8956  1.4169
  760SOL    HW2 2280   1.481   0.177   1.984  2.2063 -0.3620 -0.2231
  761SOL     OW 2281   2.102   0.523   0.578 -0.2670 -0.0375 -0.4931
  761SOL    HW1 2282   2.022   0.462   0.596 -0.6106  0.0069 -0.5713
  761SOL    HW2 2283   2.091   0.569   0.489  1.1978  0.3183  1.9325
  762SOL     OW 2284   2.293   2.715   0.297 -0.5326  0.7579 -0.1753
  762SOL    HW1 2285   2.394   2.708   0.311  1.6153 -0.7231  0.3579
  762SOL    HW2 2286   2.251   2.623   0.291  0.0351 -1.3739 -2.6625
  763SOL     OW 2287   1.005   0.610   1.516  0.5523 -0.6949  0.3502
  763SOL    HW1 2288   1.074   0.675   1.553 -1.3042 -3.1106  1.7146
  763SOL    HW2 2289   0.923   0.662   1.493 -1.0147  0.6518  1.3913
  764SOL     OW 2290   2.291   2.559   2.666 -0.1182  0.3911 -0.4942
  764SOL    HW1 2291   2.376   2.528   2.615  0.6047 -1.7395  2.1932
  764SOL    HW2 2292   2.207   2.505   2.660  0.2038  3.1007 -2.6861
  765SOL     OW 2293   0.206   0.792   2.386  0.3176 -0.2185  0.4572
  765SOL    HW1 2294   0.123   0.750   2.421  1.8258 -0.3003  1.0675
  765SOL    HW2 2295   0.256   0.837   2.460 -1.1561  0.8502 -3.1023
  766SOL     OW 2296   2.779   1.502   2.769 -0.0730  0.3856 -0.2154
  766SOL    HW1 2297   2.687   1.532   2.738  0.5360 -0.2832  1.2765
  766SOL    HW2 2298   2.849   1.523   2.699 -0.3830  1.0341  0.0862
  767SOL     OW 2299   0.253   2.033   1.965  0.3351  0.7531 -0.1822
  767SOL    HW1 2300   0.209   2.096   1.899 -1.8698  2.0030  1.6691
  767SOL    HW2 2301   0.228   1.934   1.955  0.0654 -0.5278  2.4474
  768SOL     OW 2302   1.071   0.866   3.083  0.2665  0.2319  0.1445
  768SOL    HW1 2303   1.113   0.817   0.061 -0.1404  1.7981  0.6566
  768SOL    HW2 2304   1.075   0.814   2.999  2.1852  1.8792  0.7181
  769SOL     OW 2305   1.742   2.777   2.633  0.2948 -0.2046  0.0517
  769SOL    HW1 2306   1.828   2.828   2.659  3.5042 -1.9357 -0.8150
  769SOL    HW2 2307   1.658   2.789   2.691 -0.7577 -0.0596 -0.9606
  770SOL     OW 2308   0.764   0.127   2.501  0.2205  0.1843 -0.0378
  770SOL    HW1 2309   0.697   0.172   2.439  1.2217 -1.6594 -2.0449
  770SOL    HW2 2310   0.781   0.189   2.583  0.9303 -0.0958 -0.8000
  771SOL     OW 2311   0.724   2.503   0.871  0.8306  0.4243 -0.1001
  771SOL    HW1 2312   0.652   2.475   0.807 -0.4982 -2.2893  0.2214
  771SOL    HW2 2313   0.692   2.472   0.962 -0.3679  1.0068 -0.6715
  772SOL     OW 2314   3.098   0.826   0.382 -0.5476  0.2984  0.1040
  772SOL    HW1 2315   0.072   0.772   0.430 -0.1408  0.8170  0.6931
  772SOL    HW2 2316   3.007   0.787   0.394  0.1800  1.8542 -0.2927
  773SOL     OW 2317   1.950   1.005   2.018 -0.1545  0.0132  0.4987
  773SOL    HW1 2318   1.925   0.908   2.031 -1.4872  1.5094 -0.2146
  773SOL    HW2 2319   1.995   1.040   2.106 -2.7517 -1.2852  2.5500
  774SOL     OW 2320   0.662   1.023   0.522 -0.2750  0.1972  0.5899
  774SOL    HW1 2321   0.588   0.997   0.588 -1.8102 -4.1904  3.1277
  774SOL    HW2 2322   0.632   0.999   0.425  1.6086  0.2098  0.7966
  775SOL     OW 2323   1.650   0.022   0.276  0.3744 -0.3656  0.2471
  775SOL    HW1 2324   1.590   3.044   0.259  1.0465  3.0866  0.4824
  775SOL    HW2 2325   1.612   0.105   0.230 -1.6464 -0.2261 -1.6929
  776SOL     OW 2326   2.310   0.159   2.391  0.4155  0.1775 -0.3314
  776SOL    HW1 2327   2.335   0.245   2.444 -1.6294 -1.0708  0.3684
  776SOL    HW2 2328   2.241   0.176   2.317  0.4599  0.4249 -1.7249
  777SOL     OW 2329   0.906   1.609   0.097  0.3182  0.2336  0.3145
  777SOL    HW1 2330   0.949   1.513   0.102  3.4846 -4.2385 -1.0489
  777SOL    HW2 2331   0.808   1.595   0.094  1.5534 -1.0578 -1.7068
  778SOL     OW 2332   0.192   2.576   0.134  0.1178  0.3720 -0.1200
  778SOL    HW1 2333   0.140   2.660   0.127 -2.2103 -1.3222  0.7426
  778SOL    HW2 2334   0.283   2.592   0.176 -1.3965 -1.5003 -2.3410
  779SOL     OW 2335   0.281   1.166   0.114  0.0144  0.1834 -0.3436
  779SOL    HW1 2336   0.281   1.191   0.214  0.3203 -0.7650  1.5193
  779SOL    HW2 2337   0.234   1.079   0.097  0.5002  1.7618  1.4200
  780SOL     OW 2338   2.119   0.141   2.184 -0.0656  0.3051  0.5108
  780SOL    HW1 2339   2.160   0.176   2.093  0.6818 -0.3126 -0.6117
  780SOL    HW2 2340   2.053   0.069   2.167 -0.3160  0.0268  0.0738
  781SOL     OW 2341   1.823   1.036   1.528  0.3606  0.1738 -0.0189
  781SOL    HW1 2342   1.899   1.107   1.540  2.4089  2.4655 -3.2872
  781SOL    HW2 2343   1.848   0.951   1.578  0.2069  0.9462  1.4608
  782SOL     OW 2344   1.836   1.833   2.257 -0.4590 -0.1711  0.0155
  782SOL    HW1 2345   1.866   1.871   2.349 -2.2344 -1.3980  1.9575
  782SOL    HW2 2346   1.918   1.822   2.196 -4.0404 -1.1050  0.2610
  783SOL     OW 2347   1.396   3.048   1.694 -0.7871 -0.5682 -0.2291
  783SOL    HW1 2348   1.329   3.011   1.757  1.5418  0.7279 -2.8120
  783SOL    HW2 2349   1.472   2.987   1.682 -0.4866  0.6916  4.0506
  784SOL     OW 2350   1.841   0.923   2.536 -0.2311 -0.0200  0.4751
  784SOL    HW1 2351   1.876   0.970   2.619 -2.0376  1.8148  1.1826
  784SOL    HW2 2352   1.906   0.849   2.507  1.0442  0.7207 -0.1936
  785SOL     OW 2353   2.014   0.361   0.272 -0.2389 -0.0043  0.0336
  785SOL    HW1 2354   1.947   0.372   0.195 -1.3087  0.2544  1.5110
  785SOL    HW2 2355   2.048   0.453   0.301  0.7876 -0.5695 -1.5543
  786SOL     OW 2356   2.996   1.742   0.472  0.1013  0.1963  0.2659
  786SOL    HW1 2357   2.978   1.820   0.532 -2.4131 -5.6364 -0.6488
  786SOL    HW2 2358   3.087   1.749   0.432 -0.7482 -1.7540  0.7316
  787SOL     OW 2359   1.698   2.264   0.468 -0.5137  0.0192  0.2387
  787SOL    HW1 2360   1.653   2.175   0.504 -1.4330 -2.4748  2.7179
  787SOL    HW2 2361   1.630   2.332   0.460  2.0286 -4.1608  0.0223
  788SOL     OW 2362   1.941   1.552   1.435  0.0438 -0.5058 -0.0920
  788SOL    HW1 2363   1.995   1.602   1.362 -2.4051 -1.9119 -0.9898
  788SOL    HW2 2364   1.935   1.611   1.523 -0.6169 -0.7939  3.2931
  789SOL     OW 2365   3.002   1.271   2.631  0.1404  0.0915 -0.0677
  789SOL    HW1 2366   3.085   1.219   2.594  2.1589  1.3719  0.5577
  789SOL    HW2 2367   2.933   1.282   2.557  0.9874  0.5141 -0.3677
  790SOL     OW 2368   0.441   0.040   2.719 -0.2680 -0.4743 -0.6194
  790SOL    HW1 2369   0.398   0.123   2.679 -2.4848  2.3600 -4.3003
  790SOL    HW2 2370   0.379   3.061   2.715  0.8227  1.6695 -1.5863
  791SOL     OW 2371   0.872   2.900   2.843  0.6910  0.2383 -0.3137
  791SOL    HW1 2372   0.821   2.986   2.846 -1.3033 -3.3776 -1.9043
  791SOL    HW2 2373   0.923   2.883   2.932  1.3858  0.7274  0.7274
  792SOL     OW 2374   1.658   0.411   2.051 -0.4648  0.3639  0.2419
  792SOL    HW1 2375   1.729   0.443   1.982  0.8218 -4.8634 -0.9227
  792SOL    HW2 2376   1.586   0.475   2.068  1.2843  1.4828  0.4937
  793SOL     OW 2377   2.668   0.543   1.921 -0.7271 -0.8653  0.3739
  793SOL    HW1 2378   2.630   0.546   1.827  0.2373 -1.7686 -0.0506
  793SOL    HW2 2379   2.592   0.527   1.985 -1.8744 -1.4027  0.5510
  794SOL     OW 2380   0.594   0.679   1.611 -0.5022  0.3117  0.1406
  794SOL    HW1 2381   0.640   0.587   1.598  1.1420 -2.5274  1.2202
  794SOL    HW2 2382   0.520   0.664   1.683 -0.9145  1.4708  1.6679
  795SOL     OW 2383   3.010   1.305   0.636  0.2404  0.1461 -1.0339
  795SOL    HW1 2384   2.982   1.389   0.588 -0.4966 -0.2932 -0.6165
  795SOL    HW2 2385   3.065   1.332   0.714 -1.8477 -0.1011 -1.9621
  796SOL     OW 2386   3.027   2.494   3.007  0.3876  0.7537 -0.2533
  796SOL    HW1 2387   2.999   2.407   3.056  1.4507 -4.3387  0.9620
  796SOL    HW2 2388   2.946   2.550   2.979  0.1135 -0.9746 -0.4402
  797SOL     OW 2389   2.166   2.478   0.357 -0.2839 -0.3941  0.0595
  797SOL    HW1 2390   2.079   2.451   0.398  1.9675 -1.3242  0.2550
  797SOL    HW2 2391   2.199   2.407   0.296  1.2631 -0.1887  2.0484
  798SOL     OW 2392   0.296   0.942   1.491 -0.1365  0.0164  0.4785
  798SOL    HW1 2393   0.220   0.874   1.519 -1.3691  1.0307 -1.3012
  798SOL    HW2 2394   0.264   1.034   1.465  0.6354 -0.4589  0.9511
  799SOL     OW 2395   2.909   0.614   2.304 -0.8508  0.0606  0.1983
  799SOL    HW1 2396   2.940   0.673   2.387  2.5441  0.4078  3.7428
  799SOL    HW2 2397   2.990   0.604   2.242  1.6430  0.9874 -0.1267
  800SOL     OW 2398   2.945   2.028   0.560  0.2840  0.2728  0.3663
  800SOL    HW1 2399   3.017   2.095   0.531  0.5588 -3.6070 -1.7302
  800SOL    HW2 2400   2.973   1.992   0.651 -3.1188  0.3480  0.1195
  801SOL     OW 2401   1.206   1.277   0.844 -0.3847 -0.2103 -0.2601
  801SOL    HW1 2402   1.192   1.290   0.742 -0.0621 -0.1130 -0.2806
  801SOL    HW2 2403   1.226   1.365   0.891 -0.5666 -3.0084 -1.1751
  802SOL     OW 2404   1.288   1.861   1.492 -0.2454  0.4714 -0.4280
  802SOL    HW1 2405   1.236   1.779   1.458  1.4475 -2.4292  1.9723
  802SOL    HW2 2406   1.230   1.942   1.506 -0.8649 -0.2356 -0.0904
  803SOL     OW 2407   2.930   1.488   0.441 -0.0577 -0.0093 -0.3210
  803SOL    HW1 2408   2.972   1.469   0.349  1.9528 -1.2952 -0.4531
  803SOL    HW2 2409   2.936   1.584   0.464 -0.7493 -2.5497  0.2848
  804SOL     OW 2410   1.209   2.354   0.949  0.5036 -0.6259  0.0853
  804SOL    HW1 2411   1.224   2.384   0.854  0.6652  1.6607 -1.1002
  804SOL    HW2 2412   1.112   2.315   0.960 -0.2700  2.5039  0.0225
  805SOL     OW 2413   1.526   1.390   0.093  0.2476 -0.0219 -0.1425
  805SOL    HW1 2414   1.559   1.484   0.082 -0.6005 -1.3778 -0.2860
  805SOL    HW2 2415   1.465   1.367   0.014 -1.1692  1.7325 -0.5520
  806SOL     OW 2416   1.563   2.795   1.518  0.6430  0.4549 -0.9076
  806SOL    HW1 2417   1.564   2.818   1.617 -1.2228  2.8942  0.8584
  806SOL    HW2 2418   1.650   2.816   1.472 -0.7923 -0.6263 -0.0362
  807SOL     OW 2419   1.964   2.872   2.805  0.4916 -0.6855  0.1294
  807SOL    HW1 2420   2.024   2.857   2.725 -1.9398  1.4386 -0.0080
  807SOL    HW2 2421   2.020   2.870   2.888 -0.5011  0.1788  0.6379
  808SOL     OW 2422   0.276   1.308   0.367  0.1692 -0.3493 -0.0132
  808SOL    HW1 2423   0.176   1.294   0.384  0.2734 -0.0458 -1.7747
  808SOL    HW2 2424   0.276   1.396   0.312  2.0547 -0.2934 -2.0682
  809SOL     OW 2425   2.674   0.884   2.268  0.6774 -0.3794 -0.0577
  809SOL    HW1 2426   2.715   0.846   2.179 -0.2871  3.2046 -0.4090
  809SOL    HW2 2427   2.744   0.950   2.309  0.3377  0.3188  3.0241
  810SOL     OW 2428   2.684   0.007   2.069  0.4369 -0.2315  0.1189
  810SOL    HW1 2429   2.627   0.043   2.147 -2.3074 -1.4939  0.6382
  810SOL    HW2 2430   2.735   0.086   2.026  3.6217 -0.9149 -1.9170
  811SOL     OW 2431   2.210   2.346   1.547 -0.4217  0.2162 -0.0271
  811SOL    HW1 2432   2.110   2.338   1.549  3.3973 -0.2258 -1.9487
  811SOL    HW2 2433   2.243   2.439   1.513 -0.7444 -0.4820  0.4736
  812SOL     OW 2434   1.687   0.310   2.990 -0.2226  0.1483  0.1433
  812SOL    HW1 2435   1.590   0.306   3.026 -3.1489  0.4239 -0.0233
  812SOL    HW2 2436   1.747   0.350   3.060  1.2120  0.8499 -0.9169
  813SOL     OW 2437   1.815   0.545   1.841  0.0312 -0.2711 -0.3640
  813SOL    HW1 2438   1.735   0.514   1.787  2.7131  2.3027  1.1706
  813SOL    HW2 2439   1.899   0.506   1.806  0.7028 -0.3712 -0.3357
  814SOL     OW 2440   1.930   1.341   1.290  0.1864  0.4591  0.1116
  814SOL    HW1 2441   2.018   1.300   1.298 -3.4152  2.7217 -0.5527
  814SOL    HW2 2442   1.928   1.427   1.338  4.1846 -1.6392 -1.7677
  815SOL     OW 2443   0.306   0.974   0.423 -0.4798 -0.2989 -0.4598
  815SOL    HW1 2444   0.237   0.914   0.380  1.7948  0.9399 -1.7786
  815SOL    HW2 2445   0.397   0.972   0.374  1.8729 -0.2553 -0.0735
  816SOL     OW 2446   1.653   1.706   2.797  0.9025  0.6900  0.4946
  816SOL    HW1 2447   1.712   1.704   2.716 -1.4748 -1.5274  0.5533
  816SOL    HW2 2448   1.568   1.655   2.782  1.7044  0.1739  2.0936
  817SOL     OW 2449   0.226   2.995   0.715 -0.4959 -0.3051 -0.1729
  817SOL    HW1 2450   0.280   2.959   0.797 -1.5591 -0.3943  2.4541
  817SOL    HW2 2451   0.204   2.919   0.649  1.5041  2.7117  3.5765
  818SOL     OW 2452   1.314   0.395   2.764  0.2680 -0.3852 -0.0908
  818SOL    HW1 2453   1.295   0.440   2.855 -1.0464 -0.9899  0.6775
  818SOL    HW2 2454   1.261   0.308   2.754 -1.3791 -1.2864 -0.6818
  819SOL     OW 2455   0.890   1.112   0.652 -0.4098  0.2149 -0.1894
  819SOL    HW1 2456   0.943   1.059   0.717 -0.0854 -1.3995  0.3243
  819SOL    HW2 2457   0.806   1.067   0.614  1.5318  1.2504 -3.4276
  820SOL     OW 2458   2.377   1.026   1.314 -0.4411 -0.6227  0.9290
  820SOL    HW1 2459   2.403   0.999   1.217 -3.1563  3.2214 -1.9319
  820SOL    HW2 2460   2.369   0.944   1.375  0.1226  1.4946  0.5037
  821SOL     OW 2461   2.294   0.058   0.501  0.2195  0.4095 -0.1618
  821SOL    HW1 2462   2.330   3.064   0.493 -0.1513  2.2603 -0.1128
  821SOL    HW2 2463   2.230   0.083   0.425 -0.6442  1.8830 -1.2294
  822SOL     OW 2464   0.631   2.565   2.424  0.2799  0.4661 -0.2050
  822SOL    HW1 2465   0.719   2.610   2.399 -1.5840 -0.3823 -0.9627
  822SOL    HW2 2466   0.633   2.499   2.498 -2.8926 -0.7194 -0.6626
  823SOL     OW 2467   0.113   2.253   1.772 -0.2110  0.1314 -0.2691
  823SOL    HW1 2468   0.070   2.338   1.810  0.5129 -1.7918 -0.3418
  823SOL    HW2 2469   0.047   2.184   1.732 -1.4398 -1.2242 -1.4088
  824SOL     OW 2470   0.818   3.035   2.218  0.7935  0.2148 -0.4755
  824SOL    HW1 2471   0.767   3.016   2.306  1.2625  0.7754 -1.4510
  824SOL    HW2 2472   0.906   2.984   2.220  2.0860  1.8918  1.3559
  825SOL     OW 2473   1.241   1.795   0.467 -0.4261  0.7077  0.0093
  825SOL    HW1 2474   1.142   1.804   0.444  3.4581  0.2132 -1.8627
  825SOL    HW2 2475   1.292   1.879   0.499  0.0315  0.8871 -0.5906
  826SOL     OW 2476   0.984   2.804   3.090  0.4970  0.1239  0.1772
  826SOL    HW1 2477   0.932   2.745   0.056 -1.2586  2.4963  1.2952
  826SOL    HW2 2478   1.085   2.809   0.015  1.2919  0.0395 -1.3673
  827SOL     OW 2479   0.295   1.687   1.547  0.3763 -0.1402  0.3426
  827SOL    HW1 2480   0.255   1.607   1.591 -0.0981 -0.9583 -1.9153
  827SOL    HW2 2481   0.353   1.661   1.469 -0.2923  1.7344  0.9212
  828SOL     OW 2482   2.646   1.707   1.180  0.4302 -0.3983  0.4108
  828SOL    HW1 2483   2.547   1.686   1.168  2.3139  0.7415  2.4522
  828SOL    HW2 2484   2.680   1.670   1.267 -1.5164  1.1242 -1.9879
  829SOL     OW 2485   3.016   2.198   0.120  0.2563  0.3093 -0.2182
  829SOL    HW1 2486   3.063   2.282   0.166  2.7037  0.8443 -0.9174
  829SOL    HW2 2487   3.023   2.113   0.177 -0.2655 -3.7353 -1.3865
  830SOL     OW 2488   0.866   0.767   0.794 -0.0986 -0.0112 -0.5882
  830SOL    HW1 2489   0.964   0.751   0.772  1.3845 -0.2128 -0.6087
  830SOL    HW2 2490   0.855   0.769   0.897  0.3360 -0.0236  0.9440
  831SOL     OW 2491   2.967   1.990   0.281 -0.1393  0.6559 -0.4958
  831SOL    HW1 2492   2.884   1.946   0.250 -0.0012  0.7781 -0.6865
  831SOL    HW2 2493   2.978   2.000   0.382 -0.6289  2.8653 -0.7757
  832SOL     OW 2494   1.122   2.779   0.692  0.3712  0.5703 -0.4742
  832SOL    HW1 2495   1.043   2.770   0.754 -0.0128 -1.0416  2.3300
  832SOL    HW2 2496   1.189   2.842   0.736 -0.1419 -0.9276 -0.0536
  833SOL     OW 2497   0.844   0.603   2.541  0.5439 -0.1763  0.6473
  833SOL    HW1 2498   0.826   0.613   2.445  2.1955  0.5533  2.7720
  833SOL    HW2 2499   0.942   0.625   2.556 -0.0165  2.7004  0.7536
  834SOL     OW 2500   2.754   0.631   0.736  0.3244 -0.0122 -0.1914
  834SOL    HW1 2501   2.817   0.576   0.677  0.2676 -1.7016 -0.4849
  834SOL    HW2 2502   2.724   0.579   0.817 -2.4038  1.9279 -1.5316
  835SOL     OW 2503   2.404   0.749   2.163 -0.0949  0.4172  0.2299
  835SOL    HW1 2504   2.340   0.744   2.084 -1.3517 -0.6860 -1.7262
  835SOL    HW2 2505   2.472   0.819   2.149  0.3506 -1.0506 -0.0173
  836SOL     OW 2506   0.466   2.243   0.668 -0.1498  0.1436 -0.2734
  836SOL    HW1 2507   0.497   2.338   0.696 -0.4125  1.1083 -0.0371
  836SOL    HW2 2508   0.509   2.215   0.583 -1.5646 -0.2446 -0.7720
  837SOL     OW 2509   2.489   1.852   2.197 -0.2947 -0.3575 -0.3393
  837SOL    HW1 2510   2.405   1.795   2.188  0.4517  1.1821  3.1473
  837SOL    HW2 2511   2.468   1.928   2.260 -0.8786  1.7856  0.8024
  838SOL     OW 2512   3.056   1.103   2.105  0.2107  0.1429 -0.1250
  838SOL    HW1 2513   3.072   1.009   2.074 -1.2580 -1.3151 -2.2680
  838SOL    HW2 2514   3.024   1.157   2.026 -0.3666 -2.3259  0.6484
  839SOL     OW 2515   0.355   0.119   0.116 -0.4610 -0.3286 -0.1747
  839SOL    HW1 2516   0.355   0.081   0.024  2.1712  2.0210  0.6080
  839SOL    HW2 2517   0.454   0.130   0.142  0.1025  2.7693 -3.3926
  840SOL     OW 2518   3.070   0.721   2.507 -0.4202 -0.5609  0.4205
  840SOL    HW1 2519   3.019   0.789   2.559 -0.1566  0.3130 -1.4993
  840SOL    HW2 2520   3.083   0.637   2.559 -1.6632 -1.0751 -1.2615
  841SOL     OW 2521   0.616   2.183   2.716  0.0650  0.2848  0.3808
  841SOL    HW1 2522   0.574   2.205   2.809  2.4925  1.1118  2.2137
  841SOL    HW2 2523   0.572   2.096   2.682  1.5945  2.3238 -3.4300
  842SOL     OW 2524   0.900   0.036   1.159  0.0313  0.1702 -0.5449
  842SOL    HW1 2525   0.887   3.069   1.233 -0.6940 -2.0715  1.0320
  842SOL    HW2 2526   0.925   3.083   1.075  1.5366  1.2682  1.4663
  843SOL     OW 2527   0.518   1.591   2.629  0.1488 -0.1596 -0.2938
  843SOL    HW1 2528   0.599   1.634   2.584 -1.6737  0.7946  0.0890
  843SOL    HW2 2529   0.541   1.498   2.653  0.8813 -1.8121 -1.1903
  844SOL     OW 2530   1.401   1.859   2.348  0.2134 -0.6664 -0.1365
  844SOL    HW1 2531   1.403   1.916   2.266 -0.7780 -0.0227  2.5361
  844SOL    HW2 2532   1.478   1.794   2.350  0.0085 -2.1215  1.7526
  845SOL     OW 2533   2.333   2.754   2.838 -0.1848 -0.6100  0.3041
  845SOL    HW1 2534   2.374   2.828   2.782  0.5728  0.5752 -2.2261
  845SOL    HW2 2535   2.311   2.678   2.775 -0.8934  0.3197 -1.0648
  846SOL     OW 2536   2.101   1.481   2.911 -0.0443 -0.2808  0.2945
  846SOL    HW1 2537   2.091   1.564   2.851  2.7759 -1.5566  0.7246
  846SOL    HW2 2538   2.123   1.516   3.001 -0.3453  0.0295 -1.9998
  847SOL     OW 2539   2.469   0.278   2.872 -0.1673  0.2083 -0.0536
  847SOL    HW1 2540   2.532   0.262   2.800 -0.5389  0.2471  3.6756
  847SOL    HW2 2541   2.491   0.366   2.922  1.0995  0.8121  1.1032
  848SOL     OW 2542   3.001   0.612   0.087 -0.4169 -0.3952  0.2959
  848SOL    HW1 2543   3.049   0.698   0.111 -2.0251  0.2696 -0.3646
  848SOL    HW2 2544   2.900   0.626   0.098 -0.2767  1.9241  0.7218
  849SOL     OW 2545   1.383   0.240   2.360 -0.9012 -0.4653 -0.2118
  849SOL    HW1 2546   1.387   0.180   2.445  1.8375  0.2405 -0.7343
  849SOL    HW2 2547   1.373   0.340   2.386 -0.8082  2.2949  0.7190
  850SOL     OW 2548   2.779   0.942   0.607  0.6141 -0.0284 -0.6681
  850SOL    HW1 2549   2.724   0.881   0.667 -0.6033  1.1937  0.1740
  850SOL    HW2 2550   2.879   0.946   0.629 -0.5346  0.7980 -0.2287
  851SOL     OW 2551   0.318   1.107   1.035  0.0394 -0.1281  0.3870
  851SOL    HW1 2552   0.254   1.064   1.100 -1.6382 -0.1295 -1.7456
  851SOL    HW2 2553   0.383   1.043   0.996 -0.4097 -0.5922  2.2517
  852SOL     OW 2554   1.298   1.124   1.933  0.0016  0.2692 -0.2608
  852SOL    HW1 2555   1.226   1.196   1.939 -0.7858 -0.7524  2.3989
  852SOL    HW2 2556   1.312   1.090   1.836  0.4741  0.0211 -2.4652
  853SOL     OW 2557   1.933   1.008   0.006  0.1185  0.2587  0.4970
  853SOL    HW1 2558   2.023   1.041   3.070 -2.0781 -0.6964 -0.2001
  853SOL    HW2 2559   1.861   1.045   3.039  0.3213 -0.7709 -1.8378
  854SOL     OW 2560   1.734   1.102   1.895  0.0345  0.1031  0.5167
  854SOL    HW1 2561   1.828   1.079   1.929  2.9396  1.1218  0.1011
  854SOL    HW2 2562   1.701   1.036   1.827 -0.4202  0.3527 -0.4031
  855SOL     OW 2563   0.551   2.168   2.321  0.0420 -0.1006  0.3493
  855SOL    HW1 2564   0.462   2.215   2.340 -1.4113  1.7983 -0.8338
  855SOL    HW2 2565   0.628   2.232   2.343 -2.4562 -1.6794 -0.7291
  856SOL     OW 2566   1.112   0.918   1.972  0.2405 -0.1894 -0.4196
  856SOL    HW1 2567   1.024   0.973   1.979  1.4250  1.0187  1.8000
  856SOL    HW2 2568   1.189   0.984   1.954 -1.4507 -1.2657 -2.6979
  857SOL     OW 2569   1.119   1.101   2.302  0.1644 -0.1320 -0.0639
  857SOL    HW1 2570   1.047   1.034   2.275 -0.6793 -2.0175 -1.9873
  857SOL    HW2 2571   1.195   1.092   2.234  0.0468 -0.0875 -0.1192
  858SOL     OW 2572   0.130   0.712   1.727 -0.2575  0.2124  0.4055
  858SOL    HW1 2573   0.075   0.739   1.645 -0.5165  1.3973  1.8497
  858SOL    HW2 2574   0.087   0.642   1.790  0.4380  1.5173  0.4619
  859SOL     OW 2575   2.400   3.006   0.878 -0.3854 -0.1845 -0.4386
  859SOL    HW1 2576   2.351   3.080   0.831 -0.3680 -0.9955 -0.7247
  859SOL    HW2 2577   2.484   3.041   0.929 -0.4714 -0.4642  2.6983
  860SOL     OW 2578   1.574   0.434   1.366 -0.2241 -0.6650 -0.3143
  860SOL    HW1 2579   1.573   0.535   1.347  0.1743  0.2475 -0.4807
  860SOL    HW2 2580   1.642   0.386   1.303 -1.4145 -0.6179  1.0970
  861SOL     OW 2581   1.697   0.615   1.128 -0.1271 -0.2380 -0.6239
  861SOL    HW1 2582   1.662   0.646   1.038 -3.0256 -2.2404  1.0510
  861SOL    HW2 2583   1.664   0.667   1.211  0.5337  0.0151  2.7107
  862SOL     OW 2584   1.177   2.940   2.565  0.1567  0.6339  0.4737
  862SOL    HW1 2585   1.224   2.890   2.492  0.2384 -0.7495  0.3187
  862SOL    HW2 2586   1.099   2.886   2.596 -1.4856 -0.7054 -0.8530
  863SOL     OW 2587   2.750   3.040   1.468  0.3916  0.5602  0.0416
  863SOL    HW1 2588   2.694   3.093   1.536 -2.2044  2.1261  3.7197
  863SOL    HW2 2589   2.833   3.094   1.447 -2.0691  0.4242 -0.0505
  864SOL     OW 2590   2.733   2.846   1.989 -0.2877 -0.2093 -0.0172
  864SOL    HW1 2591   2.686   2.768   2.038  0.9341 -0.1236  2.2011
  864SOL    HW2 2592   2.707   2.935   2.031  1.0339  1.1356  1.5851
  865SOL     OW 2593   1.088   1.291   2.920  0.0231  0.2672  0.2497
  865SOL    HW1 2594   1.046   1.229   2.849 -0.3670  0.8528 -0.5729
  865SOL    HW2 2595   1.060   1.389   2.908  2.1518  1.0558 -0.4731
  866SOL     OW 2596   2.632   2.972   1.220 -0.1045  0.3727  0.2452
  866SOL    HW1 2597   2.625   2.986   1.318 -0.0045 -1.5101 -4.6009
  866SOL    HW2 2598   2.614   2.871   1.198  1.7488 -1.8143 -3.4647
  867SOL     OW 2599   3.075   2.761   0.988  0.0040  0.1333 -0.2768
  867SOL    HW1 2600   0.072   2.787   0.967  2.5441 -0.1340  1.7244
  867SOL    HW2 2601   3.022   2.836   1.035 -1.5209  2.1457 -1.2879
  868SOL     OW 2602   3.043   1.642   1.445 -0.3153 -0.0407  0.0463
  868SOL    HW1 2603   2.942   1.627   1.432 -0.0119  0.6939  0.8614
  868SOL    HW2 2604   3.059   1.708   1.526 -0.8021  1.0932  3.1088
  869SOL     OW 2605   1.928   1.963   2.481 -0.6619 -0.2171  0.5801
  869SOL    HW1 2606   1.852   2.026   2.497 -1.7638 -3.0013 -0.5829
  869SOL    HW2 2607   2.016   2.011   2.468  0.3303  0.2038  3.0051
  870SOL     OW 2608   1.304   0.856   0.646  0.2281  0.3999  0.6452
  870SOL    HW1 2609   1.344   0.918   0.710 -3.1796  0.5253 -1.0249
  870SOL    HW2 2610   1.229   0.808   0.690  0.8485  1.7247  1.1264
  871SOL     OW 2611   2.796   1.755   1.861  0.0870 -0.1401 -0.1362
  871SOL    HW1 2612   2.722   1.749   1.791  1.3467 -1.6285  1.1441
  871SOL    HW2 2613   2.791   1.838   1.918  2.8911 -1.0925  0.9912
  872SOL     OW 2614   0.966   1.751   2.968 -0.7406 -0.2777 -0.4543
  872SOL    HW1 2615   0.896   1.824   2.962  1.1438 -2.7658 -2.5281
  872SOL    HW2 2616   0.959   1.690   3.052 -3.1558 -2.2749 -1.7402
  873SOL     OW 2617   0.931   1.352   1.790 -0.1543 -0.4104 -0.0124
  873SOL    HW1 2618   0.891   1.449   1.798  0.8290 -0.2169 -0.7796
  873SOL    HW2 2619   1.008   1.342   1.856 -0.0234  2.7012 -2.4489
  874SOL     OW 2620   1.397   0.960   1.202 -0.1341  0.3448  0.1864
  874SOL    HW1 2621   1.473   1.016   1.241 -0.6920 -0.1999  1.7155
  874SOL    HW2 2622   1.325   0.938   1.267  1.9849  2.2001 -0.8545
  875SOL     OW 2623   2.665   2.784   2.720 -0.3765  0.1725  0.1045
  875SOL    HW1 2624   2.591   2.850   2.700  0.0128 -2.8386  0.9080
  875SOL    HW2 2625   2.701   2.738   2.637 -0.3657  0.2925 -0.2998
  876SOL     OW 2626   0.916   1.315   0.505 -0.2521 -0.6237  0.0054
  876SOL    HW1 2627   0.923   1.219   0.545 -0.6398 -0.5762  0.5387
  876SOL    HW2 2628   0.996   1.375   0.539 -1.2097  2.6705 -0.2682
  877SOL     OW 2629   2.036   2.988   0.568  0.8684 -0.5612 -0.1409
  877SOL    HW1 2630   1.951   3.044   0.562 -0.3116  0.0757 -0.1709
  877SOL    HW2 2631   2.121   3.044   0.574 -0.2466  1.0194 -1.0202
  878SOL     OW 2632   1.926   2.312   0.128  0.0122 -0.3184  0.0283
  878SOL    HW1 2633   2.015   2.335   0.160 -4.5052 -2.9758  0.9714
  878SOL    HW2 2634   1.889   2.251   0.199  1.1426  4.0400  0.9232
  879SOL     OW 2635   0.549   2.187   1.768  0.0922  0.4794 -0.6949
  879SOL    HW1 2636   0.539   2.160   1.675  2.6017 -0.0485  0.9503
  879SOL    HW2 2637   0.492   2.135   1.833 -1.8700 -0.4468  1.8086
  880SOL     OW 2638   0.139   1.738   0.696  0.4805 -0.1394 -0.3236
  880SOL    HW1 2639   0.233   1.761   0.738  2.4893  0.2646 -2.0422
  880SOL    HW2 2640   0.133   1.659   0.635  1.3243  1.3147 -0.8288
  881SOL     OW 2641   1.135   0.096   2.292 -0.3907  0.4765  0.8453
  881SOL    HW1 2642   1.078   0.085   2.375  1.0244 -2.6187 -0.4268
  881SOL    HW2 2643   1.225   0.139   2.317  0.8579  1.9920  0.9038
  882SOL     OW 2644   2.516   1.004   0.799  0.6216 -0.0124 -0.6502
  882SOL    HW1 2645   2.484   0.964   0.711  1.0983 -0.9462  0.8958
  882SOL    HW2 2646   2.611   0.964   0.816 -0.0664 -0.1318  0.0669
  883SOL     OW 2647   1.422   0.582   2.079  0.6301  0.1124 -0.7185
  883SOL    HW1 2648   1.380   0.633   2.162  0.4963  2.6227  2.4680
  883SOL    HW2 2649   1.453   0.653   2.006  0.6871  2.1339 -0.9620
  884SOL     OW 2650   0.156   0.190   1.789 -0.1018  0.2481  0.3129
  884SOL    HW1 2651   0.095   0.195   1.701 -1.7540  2.8910 -2.0857
  884SOL    HW2 2652   0.253   0.222   1.773 -0.0613 -0.3990  0.9090
  885SOL     OW 2653   2.317   1.298   2.545 -0.3330  0.0565 -0.7460
  885SOL    HW1 2654   2.373   1.381   2.516  0.7511  2.1392  1.2230
  885SOL    HW2 2655   2.246   1.269   2.479 -1.0172 -1.5198  2.5835
  886SOL     OW 2656   1.933   0.218   2.923 -0.2019 -0.1127  0.0870
  886SOL    HW1 2657   1.975   0.277   2.848 -0.3035 -0.1139  2.6291
  886SOL    HW2 2658   1.837   0.249   2.940 -0.5870 -1.1139  0.2745
  887SOL     OW 2659   1.041   2.935   1.594  0.0642  0.5226 -0.1811
  887SOL    HW1 2660   1.115   2.897   1.651 -0.7213  0.7743 -2.2281
  887SOL    HW2 2661   0.980   2.854   1.573 -2.5047 -0.5191  1.2579
  888SOL     OW 2662   2.212   1.592   1.814  0.2799  0.0208 -0.3959
  888SOL    HW1 2663   2.143   1.661   1.831  0.9228 -2.9172 -0.6051
  888SOL    HW2 2664   2.276   1.616   1.739  0.4131  0.0792 -0.4826
  889SOL     OW 2665   2.025   2.536   1.267 -0.9821 -0.4188 -0.0313
  889SOL    HW1 2666   2.111   2.590   1.267  0.3856  2.7292 -4.3920
  889SOL    HW2 2667   2.043   2.446   1.219  0.1103 -1.0854 -3.5369
  890SOL     OW 2668   1.322   2.113   0.771 -0.3950 -0.2203 -1.1558
  890SOL    HW1 2669   1.239   2.066   0.800  3.0429  1.7521 -1.4291
  890SOL    HW2 2670   1.359   2.178   0.841  0.6257 -1.7192  0.5823
  891SOL     OW 2671   0.013   1.245   0.404  0.2610  0.7274 -0.5951
  891SOL    HW1 2672   3.037   1.215   0.346  1.2879  0.7224  1.5746
  891SOL    HW2 2673   3.078   1.254   0.502 -2.1412  0.0357 -1.6901
  892SOL     OW 2674   2.552   1.840   2.717 -0.0625 -0.3035  0.1005
  892SOL    HW1 2675   2.560   1.739   2.700  0.6336 -1.2713 -1.2594
  892SOL    HW2 2676   2.525   1.850   2.813 -0.5982 -2.1346 -1.7820
  893SOL     OW 2677   2.259   2.642   1.153  0.2624 -0.0752 -0.2352
  893SOL    HW1 2678   2.198   2.716   1.119 -0.9406  1.8176 -2.4975
  893SOL    HW2 2679   2.340   2.679   1.201  2.5279 -1.4753  0.1234
  894SOL     OW 2680   2.822   0.256   0.725 -0.8143 -0.1544 -0.7742
  894SOL    HW1 2681   2.803   0.158   0.733  2.0249  0.4963  2.9234
  894SOL    HW2 2682   2.740   0.308   0.690  0.4303 -0.4754  0.1957
  895SOL     OW 2683   2.488   2.412   2.530 -0.1949  0.0519  0.7463
  895SOL    HW1 2684   2.535   2.448   2.451 -1.3968 -0.5385  2.2254
  895SOL    HW2 2685   2.550   2.355   2.590 -1.2502 -0.6657  0.0760
  896SOL     OW 2686   2.132   2.893   2.582 -0.5692  0.0124 -0.2446
  896SOL    HW1 2687   2.211   2.847   2.618 -1.2047  0.8276 -1.1134
  896SOL    HW2 2688   2.133   2.996   2.596 -2.7747 -1.1134  0.9669
  897SOL     OW 2689   0.322   1.393   2.108  0.0531  0.1312 -0.1817
  897SOL    HW1 2690   0.241   1.349   2.148  1.8125  0.2881 -0.2247
  897SOL    HW2 2691   0.346   1.475   2.164 -0.2158 -3.4312  0.8455
  898SOL     OW 2692   0.149   1.779   1.909 -0.2621 -0.1474  0.1966
  898SOL    HW1 2693   0.089   1.788   1.991  0.3515 -0.9266 -0.4880
  898SOL    HW2 2694   0.205   1.692   1.908  1.3007 -1.4483 -1.8254
  899SOL     OW 2695   1.935   0.039   1.481  0.0368 -0.5852  0.4409
  899SOL    HW1 2696   1.870   0.113   1.499 -1.1720 -0.9259  1.2838
  899SOL    HW2 2697   1.883   3.051   1.474 -1.7602  1.3086 -0.8148
  900SOL     OW 2698   1.184   1.052   0.473  0.0488  0.4848 -0.1120
  900SOL    HW1 2699   1.240   0.990   0.533 -0.1055 -1.7453  0.2855
  900SOL    HW2 2700   1.231   1.080   0.389  1.8698 -0.0301 -1.2055
  901SOL     OW 2701   0.998   1.187   2.698  0.4624 -0.5257  0.8969
  901SOL    HW1 2702   1.010   1.093   2.656 -4.6810  0.9935 -3.0891
  901SOL    HW2 2703   1.011   1.257   2.621 -0.1930  1.7367 -1.3385
  902SOL     OW 2704   2.931   2.330   0.714 -0.4518  0.4632 -0.1000
  902SOL    HW1 2705   2.928   2.414   0.771 -0.5122 -0.2743 -2.1254
  902SOL    HW2 2706   2.864   2.262   0.751  0.7294  1.3073  0.1428
  903SOL     OW 2707   2.872   1.498   1.966  0.1507 -0.3407 -0.1769
  903SOL    HW1 2708   2.862   1.595   1.938  0.4752 -0.5060  0.7945
  903SOL    HW2 2709   2.850   1.490   2.068  1.8007  0.2358  1.1293
  904SOL     OW 2710   1.507   1.174   0.488 -0.4125 -0.4050 -0.4645
  904SOL    HW1 2711   1.418   1.217   0.511 -0.9874 -1.7642 -0.4130
  904SOL    HW2 2712   1.536   1.099   0.548  1.9039 -0.5930 -1.8046
  905SOL     OW 2713   2.307   2.591   1.490  0.5274 -0.0181  0.4346
  905SOL    HW1 2714   2.270   2.682   1.460 -1.5450  0.5926  0.2966
  905SOL    HW2 2715   2.410   2.588   1.487  0.2668 -0.5355  0.5166
  906SOL     OW 2716   1.539   2.522   3.043  0.7242 -0.3272 -0.3162
  906SOL    HW1 2717   1.629   2.535   3.086 -0.6022  2.7883 -1.6355
  906SOL    HW2 2718   1.555   2.475   2.955 -2.4090 -1.4764 -2.3847
  907SOL     OW 2719   0.539   2.927   0.646  0.9563  0.4801 -0.1170
  907SOL    HW1 2720   0.488   2.860   0.712 -3.5096 -0.7188  1.1403
  907SOL    HW2 2721   0.557   3.015   0.696  0.7397  0.4058  1.9493
  908SOL     OW 2722   0.590   0.230   1.875  0.2490 -0.0745  0.2709
  908SOL    HW1 2723   0.593   0.146   1.933 -1.4847  1.4262 -2.8268
  908SOL    HW2 2724   0.675   0.285   1.862 -1.1624  1.5187  0.4033
  909SOL     OW 2725   1.964   0.570   1.491  0.0187  0.4119  0.1358
  909SOL    HW1 2726   1.944   0.473   1.471 -1.3099  1.5790 -0.9821
  909SOL    HW2 2727   2.058   0.597   1.461  1.5579 -0.3823  1.1501
  910SOL     OW 2728   1.053   0.835   0.412  0.1028  0.0968 -0.1042
  910SOL    HW1 2729   0.961   0.825   0.454  0.8326 -4.0822 -2.8384
  910SOL    HW2 2730   1.092   0.932   0.428 -0.5957  2.2487 -0.8605
  911SOL     OW 2731   0.164   0.325   2.919  0.6844  0.3776 -0.7811
  911SOL    HW1 2732   0.108   0.284   2.993  0.8795  0.9368  1.9222
  911SOL    HW2 2733   0.123   0.318   2.828 -0.0339 -0.0283 -3.4774
  912SOL     OW 2734   2.839   2.332   2.680  0.0520  0.1105  0.5049
  912SOL    HW1 2735   2.872   2.427   2.685  0.2309  2.9312  2.5764
  912SOL    HW2 2736   2.905   2.278   2.623  0.8626  0.7927 -0.6332
  913SOL     OW 2737   2.533   2.442   3.003 -0.2034 -0.0433 -0.1578
  913SOL    HW1 2738   2.549   2.422   0.001 -1.6232 -0.1402 -1.5899
  913SOL    HW2 2739   2.524   2.547   2.982  1.8069  0.8534  0.3458
  914SOL     OW 2740   1.845   1.508   1.853 -0.9651  0.1825  0.6688
  914SOL    HW1 2741   1.908   1.432   1.879  0.1316  1.1666 -1.8146
  914SOL    HW2 2742   1.802   1.550   1.934  2.4360 -2.1821 -5.2301
  915SOL     OW 2743   0.103   2.430   2.395 -0.2489 -0.0803  0.2580
  915SOL    HW1 2744   0.114   2.481   2.484  0.0364 -3.0388 -0.9371
  915SOL    HW2 2745   0.025   2.370   2.401  0.6779 -0.7235 -0.8220
  916SOL     OW 2746   2.858   1.102   1.727 -0.4170 -0.6750  0.6215
  916SOL    HW1 2747   2.937   1.141   1.781  1.3554 -2.3670  1.2244
  916SOL    HW2 2748   2.894   1.089   1.630 -1.3960 -0.1280  0.6518
  917SOL     OW 2749   2.114   0.028   3.043 -0.0306  0.1095  0.4166
  917SOL    HW1 2750   2.067   3.074   0.015 -0.4434 -0.5606 -3.6688
  917SOL    HW2 2751   2.059   0.092   2.989 -1.0212  2.6409 -2.4454
  918SOL     OW 2752   1.797   2.541   2.195  0.2838  0.5928 -0.4548
  918SOL    HW1 2753   1.894   2.555   2.231 -0.2077  1.6052 -1.6631
  918SOL    HW2 2754   1.747   2.626   2.207 -1.4381  0.3796  0.9702
  919SOL     OW 2755   1.966   2.263   1.812 -0.2577  0.4981 -0.5998
  919SOL    HW1 2756   2.002   2.229   1.725  0.2302  0.7326  0.6283
  919SOL    HW2 2757   1.871   2.236   1.830  2.0092 -0.0664 -0.7806
  920SOL     OW 2758   0.197   0.918   0.040  0.5983 -0.1776  0.2161
  920SOL    HW1 2759   0.242   0.835   0.068 -2.0540  2.8736 -1.4954
  920SOL    HW2 2760   0.171   0.915   3.041  0.0725  3.5560  1.3081
  921SOL     OW 2761   2.723   1.098   2.644  0.1705 -0.2394 -0.0763
  921SOL    HW1 2762   2.695   1.134   2.736 -1.0464  0.9406 -1.6279
  921SOL    HW2 2763   2.666   1.131   2.567 -0.1293  2.9426 -1.5360
  922SOL     OW 2764   0.370   1.984   0.101  0.1921 -0.4005  0.2757
  922SOL    HW1 2765   0.289   1.978   0.038  3.6798 -1.3351 -2.8204
  922SOL    HW2 2766   0.391   1.885   0.130 -1.4194 -2.1957 -3.4742
  923SOL     OW 2767   0.448   0.994   2.181  0.4459  0.2184  0.3605
  923SOL    HW1 2768   0.371   0.933   2.151 -1.1918 -0.5673 -1.3880
  923SOL    HW2 2769   0.506   0.937   2.236 -1.0285  2.3983 -3.0682
  924SOL     OW 2770   0.898   2.843   2.577 -0.9757 -0.4453  0.0641
  924SOL    HW1 2771   0.826   2.889   2.523  0.4347 -0.9763  0.2054
  924SOL    HW2 2772   0.897   2.867   2.677  0.1524 -0.1377  1.9682
  925SOL     OW 2773   1.485   1.241   0.802 -0.1868  0.5517  0.1211
  925SOL    HW1 2774   1.387   1.261   0.830 -2.3799 -0.3337  2.1002
  925SOL    HW2 2775   1.479   1.208   0.706 -0.1664 -3.2353  0.2682
  926SOL     OW 2776   1.836   0.746   2.159  0.3237 -0.3319  0.5239
  926SOL    HW1 2777   1.748   0.737   2.107  1.5937 -0.1125 -2.7476
  926SOL    HW2 2778   1.839   0.706   2.248  2.2696  2.4983 -4.5244
  927SOL     OW 2779   2.739   2.457   1.755  0.3560 -0.7173 -0.3785
  927SOL    HW1 2780   2.683   2.401   1.820 -1.5393 -0.1742  0.9861
  927SOL    HW2 2781   2.706   2.555   1.757  0.6875  1.3969  0.1718
  928SOL     OW 2782   0.278   0.904   2.686 -0.3277  0.0269 -0.2700
  928SOL    HW1 2783   0.267   0.802   2.693 -2.7920 -1.7761  1.0804
  928SOL    HW2 2784   0.371   0.932   2.655  0.7982 -2.2079  0.9976
  929SOL     OW 2785   2.793   3.087   0.789  0.4712  0.0590  0.0700
  929SOL    HW1 2786   2.712   3.099   0.853  0.1441  3.5177  2.4324
  929SOL    HW2 2787   2.759   3.020   0.719  0.7813 -0.8510  2.2062
  930SOL     OW 2788   2.507   0.272   1.820  0.0760  0.8480  0.4388
  930SOL    HW1 2789   2.574   0.209   1.779 -0.0449  0.3395 -1.8870
  930SOL    HW2 2790   2.481   0.354   1.767  0.3534 -2.3797  0.7635
  931SOL     OW 2791   2.181   1.107   2.996  0.5721  0.1109  0.4990
  931SOL    HW1 2792   2.254   1.037   2.997 -4.6447 -1.4233  0.6686
  931SOL    HW2 2793   2.179   1.167   2.913 -1.1947 -1.3047 -0.8668
  932SOL     OW 2794   2.357   1.668   1.581  0.4078 -0.0371  0.5764
  932SOL    HW1 2795   2.298   1.753   1.580 -0.8936  0.9953  1.2081
  932SOL    HW2 2796   2.353   1.616   1.493 -3.9226  0.7584 -0.7687
  933SOL     OW 2797   0.070   2.694   1.439  0.0911  0.3179 -0.9319
  933SOL    HW1 2798   0.078   2.593   1.446 -4.3142  2.0150 -1.8308
  933SOL    HW2 2799   0.049   2.736   1.526  1.2366 -2.4133 -2.0239
  934SOL     OW 2800   0.886   2.597   1.209 -0.0982 -0.0277 -0.1466
  934SOL    HW1 2801   0.860   2.692   1.190 -1.9103 -0.0423 -3.4614
  934SOL    HW2 2802   0.982   2.601   1.246 -2.3922 -1.4938  0.1278
  935SOL     OW 2803   2.343   1.359   2.203  0.7853 -0.7764  0.2619
  935SOL    HW1 2804   2.417   1.387   2.139 -1.4623  0.6050  0.9205
  935SOL    HW2 2805   2.356   1.261   2.231  0.7050  0.4107  1.0292
  936SOL     OW 2806   2.330   1.227   1.909 -0.1375  0.3743 -0.4102
  936SOL    HW1 2807   2.387   1.312   1.918  0.1817  1.2218  2.7131
  936SOL    HW2 2808   2.386   1.143   1.929 -0.5687 -0.0317 -0.5601
  937SOL     OW 2809   2.123   1.007   2.252 -0.0434  0.4251 -0.0465
  937SOL    HW1 2810   2.038   1.059   2.273 -1.5265 -0.1445 -1.8014
  937SOL    HW2 2811   2.135   0.923   2.311 -0.3094 -0.8018  1.8344
  938SOL     OW 2812   0.731   2.624   0.003  0.2455  0.3912  0.2121
  938SOL    HW1 2813   0.783   2.560   0.063  0.1091  0.7668 -1.3676
  938SOL    HW2 2814   0.741   2.716   0.042 -0.0004 -0.6110 -0.5275
  939SOL     OW 2815   2.785   0.882   0.022  0.0476  0.4145  0.2540
  939SOL    HW1 2816   2.881   0.899   0.058  0.2906  0.3379  0.7000
  939SOL    HW2 2817   2.748   0.807   0.085  0.8779  0.6566  1.2342
  940SOL     OW 2818   1.136   1.932   1.143 -0.0981  0.2839 -0.0456
  940SOL    HW1 2819   1.220   1.883   1.108 -0.0803  1.4717  0.0914
  940SOL    HW2 2820   1.054   1.873   1.135  1.4362  0.4739 -1.0581
  941SOL     OW 2821   0.799   2.086   1.998  0.0814  0.4886  0.0846
  941SOL    HW1 2822   0.754   2.157   1.950  1.0693 -2.5726  2.9176
  941SOL    HW2 2823   0.798   1.996   1.945 -1.2958 -1.0954  0.2853
  942SOL     OW 2824   0.351   2.015   2.794  0.5499 -0.4572  0.7635
  942SOL    HW1 2825   0.312   1.982   2.703  3.3724  0.1502  0.6682
  942SOL    HW2 2826   0.435   1.960   2.809  0.4324  1.7006  0.1945
  943SOL     OW 2827   1.852   2.838   1.848 -0.5773 -0.0161 -0.1263
  943SOL    HW1 2828   1.853   2.744   1.889  0.6621  1.4510 -0.8952
  943SOL    HW2 2829   1.907   2.841   1.761  2.8932 -0.9161  0.7244
  944SOL     OW 2830   0.924   1.878   0.156 -0.0337 -0.7033  0.5755
  944SOL    HW1 2831   1.012   1.889   0.106 -1.8232 -0.3822 -1.1151
  944SOL    HW2 2832   0.898   1.777   0.162  1.9459  0.1398  2.7845
  945SOL     OW 2833   2.673   2.561   0.953  0.1248 -0.3185 -0.1755
  945SOL    HW1 2834   2.757   2.569   0.903 -3.3176  1.6174 -0.5510
  945SOL    HW2 2835   2.601   2.522   0.888 -3.3255 -0.3128 -1.6647
  946SOL     OW 2836   0.944   1.547   2.788 -0.1338 -0.0527  0.0262
  946SOL    HW1 2837   0.938   1.582   2.695  0.6154 -0.1443 -0.1538
  946SOL    HW2 2838   0.951   1.624   2.855 -2.2090  0.2896  1.6067
  947SOL     OW 2839   3.080   0.608   2.121 -0.2858  0.2197  0.3427
  947SOL    HW1 2840   3.075   0.699   2.075  1.0683 -0.4667 -1.7786
  947SOL    HW2 2841   0.011   0.546   2.044  0.7462 -0.4085 -1.0068
  948SOL     OW 2842   0.125   1.376   0.808 -0.2641 -0.1797 -0.2185
  948SOL    HW1 2843   0.177   1.411   0.726 -0.5497 -0.3060  1.6227
  948SOL    HW2 2844   0.195   1.381   0.885  2.4187  0.5033 -1.7929
  949SOL     OW 2845   0.605   0.826   2.315  0.2527 -0.2311 -0.2284
  949SOL    HW1 2846   0.610   0.803   2.411  2.8352 -0.7713 -1.6297
  949SOL    HW2 2847   0.692   0.822   2.266  1.6864 -0.5191 -2.2289
  950SOL     OW 2848   0.200   0.522   1.500 -0.1478  0.9429 -0.0096
  950SOL    HW1 2849   0.286   0.551   1.459 -4.4768 -2.1400  0.3038
  950SOL    HW2 2850   0.219   0.455   1.574 -0.7805  0.5618 -0.2769
  951SOL     OW 2851   0.782   1.285   2.818  0.0098 -0.5151  0.0913
  951SOL    HW1 2852   0.806   1.388   2.814 -0.8291  1.8178 -2.7446
  951SOL    HW2 2853   0.846   1.229   2.763  0.2345  2.6863  0.2667
  952SOL     OW 2854   1.888   2.126   0.816  0.1990  0.4498 -0.5004
  952SOL    HW1 2855   1.873   2.047   0.759 -1.2917  1.2468  1.4387
  952SOL    HW2 2856   1.942   2.195   0.763  0.3133  0.9656 -0.0973
  953SOL     OW 2857   0.551   0.641   0.245 -0.2460  0.2966 -0.5450
  953SOL    HW1 2858   0.543   0.617   0.346 -0.3614  0.2434  2.3925
  953SOL    HW2 2859   0.460   0.656   0.202 -1.7531 -0.9032  0.6083
  954SOL     OW 2860   2.344   0.471   1.121 -0.1543 -0.6188 -0.2390
  954SOL    HW1 2861   2.432   0.530   1.124  1.2155  3.7308  0.2219
  954SOL    HW2 2862   2.269   0.532   1.099 -0.7702 -1.2594  1.0772
  955SOL     OW 2863   1.841   1.185   0.188 -0.2107 -0.1192 -0.3086
  955SOL    HW1 2864   1.874   1.101   0.136  1.4528 -2.0033 -1.6307
  955SOL    HW2 2865   1.742   1.194   0.192  0.3427  2.2241  0.2918
  956SOL     OW 2866   1.134   0.517   2.319  1.1256 -0.0915  0.2140
  956SOL    HW1 2867   1.178   0.600   2.268  1.2284  1.4135 -2.8117
  956SOL    HW2 2868   1.168   0.508   2.415  1.8163 -0.9936 -1.5076
  957SOL     OW 2869   1.346   0.403   1.800  0.7130  0.4030  0.8589
  957SOL    HW1 2870   1.245   0.385   1.809 -1.0163  4.1427  0.4974
  957SOL    HW2 2871   1.396   0.316   1.822  0.7312 -1.1459 -0.5020
  958SOL     OW 2872   0.283   2.022   0.448  0.3132 -0.5075  0.1532
  958SOL    HW1 2873   0.317   2.087   0.378  0.0690 -0.7139 -0.9539
  958SOL    HW2 2874   0.364   1.984   0.497  0.9134  1.6165  0.0761
  959SOL     OW 2875   2.108   0.868   1.637 -0.3929  0.0635 -0.6361
  959SOL    HW1 2876   2.123   0.942   1.705 -1.1372 -3.1904 -1.5856
  959SOL    HW2 2877   2.011   0.831   1.642 -1.4491  1.8538 -0.0788
  960SOL     OW 2878   0.126   1.680   2.905  0.2880 -0.1867 -0.0088
  960SOL    HW1 2879   0.226   1.686   2.923 -1.3072 -0.1717 -1.4215
  960SOL    HW2 2880   0.087   1.607   2.963 -0.5660  0.2560 -0.7527
  961SOL     OW 2881   0.568   2.008   1.214  0.2214 -0.1725 -0.0080
  961SOL    HW1 2882   0.468   1.998   1.201  1.1791 -1.1188 -0.4876
  961SOL    HW2 2883   0.606   1.928   1.262 -0.7826  3.7512  0.1381
  962SOL     OW 2884   0.294   1.387   1.016  0.1371  0.3227  0.4907
  962SOL    HW1 2885   0.292   1.284   1.023  2.8544  1.0750  0.7983
  962SOL    HW2 2886   0.250   1.427   1.098  1.8254 -0.8110  2.5920
  963SOL     OW 2887   1.615   1.696   2.378 -0.5367 -0.3093  0.3342
  963SOL    HW1 2888   1.605   1.642   2.462 -3.0572  2.2744 -3.2468
  963SOL    HW2 2889   1.708   1.733   2.361 -1.3058 -0.2480 -1.3618
  964SOL     OW 2890   3.049   3.064   2.130  0.3875  0.5019 -0.2592
  964SOL    HW1 2891   2.982   2.990   2.119  1.9666 -1.4492  2.6097
  964SOL    HW2 2892   0.043   3.018   2.122  0.3475  0.0677 -0.7557
  965SOL     OW 2893   0.156   2.285   2.768 -0.8849  0.0003  0.3527
  965SOL    HW1 2894   0.088   2.261   2.840  1.7825 -0.8899 -0.8545
  965SOL    HW2 2895   0.204   2.205   2.742 -0.4255  0.4634  0.8810
  966SOL     OW 2896   2.815   1.642   3.044  0.2488 -0.2835 -0.5691
  966SOL    HW1 2897   2.794   1.599   2.954  0.7119  1.0784  0.8709
  966SOL    HW2 2898   2.819   1.581   0.027  0.1603 -1.8887  0.6114
  967SOL     OW 2899   1.954   3.069   0.169  0.0108 -0.4451 -0.4424
  967SOL    HW1 2900   1.977   2.974   0.201  1.1800 -0.5420 -1.3404
  967SOL    HW2 2901   1.855   3.087   0.181 -3.7010 -2.5516 -1.0626
  968SOL     OW 2902   2.607   0.046   0.462  0.2598  0.2944 -0.8351
  968SOL    HW1 2903   2.650   3.071   0.518  1.7689 -1.1732  3.0462
  968SOL    HW2 2904   2.510   0.047   0.493 -0.9263 -0.0396 -1.2236
  969SOL     OW 2905   0.110   1.009   1.766  0.2199  0.2380 -0.1390
  969SOL    HW1 2906   0.175   1.085   1.751 -1.7569 -2.2420 -0.1205
  969SOL    HW2 2907   0.145   0.921   1.717 -0.6882 -2.2929 -1.3364
  970SOL     OW 2908   1.619   1.892   0.105  0.4483 -1.0677  0.0727
  970SOL    HW1 2909   1.657   1.895   0.198  0.3232 -0.8258  0.6340
  970SOL    HW2 2910   1.515   1.890   0.114  0.6132 -0.2639  1.1027
  971SOL     OW 2911   2.492   2.909   1.580  0.2211 -0.2784  0.0324
  971SOL    HW1 2912   2.545   2.820   1.582  0.1562  1.6155 -3.0366
  971SOL    HW2 2913   2.478   2.935   1.677  0.6968 -1.2146 -0.4113
  972SOL     OW 2914   2.929   0.271   1.279  0.2056  0.2385 -0.1510
  972SOL    HW1 2915   3.024   0.240   1.286 -5.8934 -0.3663 -0.9433
  972SOL    HW2 2916   2.887   0.254   1.184  2.0670  4.7638 -2.1817
  973SOL     OW 2917   0.606   0.665   2.673  0.3858  0.2398  0.0594
  973SOL    HW1 2918   0.686   0.640   2.610  2.1920 -2.1437 -2.4029
  973SOL    HW2 2919   0.553   0.580   2.693 -2.2767 -2.1436 -2.0359
  974SOL     OW 2920   2.548   1.399   2.006 -0.2164 -0.5608 -0.9576
  974SOL    HW1 2921   2.599   1.469   1.962 -1.3605  2.0414 -0.4747
  974SOL    HW2 2922   2.613   1.341   2.063  0.6659  1.6245 -0.8163
  975SOL     OW 2923   1.049   0.264   1.858 -0.8469 -0.1711 -0.2894
  975SOL    HW1 2924   1.048   0.202   1.780 -0.9231  1.2595 -1.6361
  975SOL    HW2 2925   1.003   0.217   1.937  0.3899  3.0462 -1.3017
  976SOL     OW 2926   1.499   1.421   1.425  0.4192 -0.2730  0.1933
  976SOL    HW1 2927   1.578   1.411   1.486 -2.6675  0.5949  1.0414
  976SOL    HW2 2928   1.519   1.416   1.322 -0.5432  0.0722 -1.7784
  977SOL     OW 2929   0.628   0.084   0.222  0.2166 -0.1938  0.1062
  977SOL    HW1 2930   0.693   0.160   0.250  0.0154  0.6231  1.8763
  977SOL    HW2 2931   0.642   0.057   0.125 -0.8829  2.3186  0.5276
  978SOL     OW 2932   2.386   1.102   2.199  0.5484 -0.1467 -0.3731
  978SOL    HW1 2933   2.436   1.063   2.118 -0.1069  0.5733 -3.4156
  978SOL    HW2 2934   2.300   1.050   2.214  2.1570  3.1286  0.1987
  979SOL     OW 2935   1.477   0.806   1.916  0.1741 -0.3606  0.0805
  979SOL    HW1 2936   1.479   0.882   1.981  2.0630 -1.5645  0.6753
  979SOL    HW2 2937   1.545   0.810   1.838 -0.2013 -1.4481 -1.4576
  980SOL     OW 2938   1.921   1.509   2.463 -0.0585 -0.3375  0.1766
  980SOL    HW1 2939   1.917   1.474   2.365  0.0524  1.2233 -2.3479
  980SOL    HW2 2940   1.878   1.444   2.529  2.2553 -0.6996  2.0085
  981SOL     OW 2941   1.594   0.505   1.696  0.3325  0.0694  0.5601
  981SOL    HW1 2942   1.510   0.465   1.735  1.0310  1.6315  0.0387
  981SOL    HW2 2943   1.576   0.522   1.597  3.8187 -0.4773  1.6894
  982SOL     OW 2944   0.783   0.604   0.121 -0.4504 -0.4873 -0.2475
  982SOL    HW1 2945   0.699   0.626   0.173  2.2956 -1.4111  2.3541
  982SOL    HW2 2946   0.780   0.639   0.027  1.7432  1.3061 -0.0256
  983SOL     OW 2947   2.453   0.784   0.174 -0.5127  0.0696 -0.3258
  983SOL    HW1 2948   2.427   0.863   0.234 -0.9266 -0.2396  1.2122
  983SOL    HW2 2949   2.541   0.744   0.201 -2.3365  1.1388 -1.0849
  984SOL     OW 2950   0.835   0.355   2.673  0.3031  0.1027 -0.4155
  984SOL    HW1 2951   0.904   0.353   2.750  1.2466 -0.8196  0.4373
  984SOL    HW2 2952   0.827   0.446   2.633 -1.7356 -2.6104  0.7830
  985SOL     OW 2953   1.705   1.743   2.040  0.2637  0.6641  0.3572
  985SOL    HW1 2954   1.619   1.688   2.042  0.0986 -0.3802  0.0017
  985SOL    HW2 2955   1.735   1.777   2.129 -1.8493 -0.9719 -1.7297
  986SOL     OW 2956   2.446   2.570   1.859  0.0982  0.0118  0.4821
  986SOL    HW1 2957   2.527   2.619   1.819  2.7897 -0.2749 -1.3302
  986SOL    HW2 2958   2.438   2.566   1.958  1.8754 -1.0946 -0.9926
  987SOL     OW 2959   1.733   1.241   0.927  0.0461 -0.0590  0.4799
  987SOL    HW1 2960   1.795   1.274   0.854  2.1781  0.5065  1.4761
  987SOL    HW2 2961   1.638   1.230   0.894 -1.9722 -0.7710  1.1618
  988SOL     OW 2962   2.765   1.890   2.143 -0.0882 -0.3069  0.0561
  988SOL    HW1 2963   2.806   1.876   2.234 -1.3468 -0.9761 -0.7856
  988SOL    HW2 2964   2.664   1.868   2.137 -0.5428  0.4245 -3.0806
  989SOL     OW 2965   1.229   2.349   0.298  0.0274  0.1016 -0.5422
  989SOL    HW1 2966   1.176   2.394   0.367  0.6036 -1.5809 -3.7800
  989SOL    HW2 2967   1.164   2.278   0.259 -1.8910 -3.6282 -0.9984
  990SOL     OW 2968   1.894   0.609   2.647 -0.2393  0.2458 -0.3157
  990SOL    HW1 2969   1.971   0.664   2.680 -2.7736 -1.0153  0.3367
  990SOL    HW2 2970   1.915   0.511   2.666 -0.3923 -1.8186  0.0805
  991SOL     OW 2971   1.186   0.418   0.823 -0.6294  0.4558  0.0871
  991SOL    HW1 2972   1.117   0.383   0.757  0.8124 -0.7672 -1.0431
  991SOL    HW2 2973   1.199   0.348   0.900  0.7441  0.2184 -1.0820
  992SOL     OW 2974   2.835   0.907   1.240  0.1511  0.4121 -0.0069
  992SOL    HW1 2975   2.768   0.952   1.179 -0.3737 -0.9028  2.3798
  992SOL    HW2 2976   2.809   0.810   1.245 -0.7250 -0.0163 -2.1241
  993SOL     OW 2977   2.250   0.689   1.954 -0.4821  0.5830 -0.1459
  993SOL    HW1 2978   2.181   0.614   1.943  1.3753  0.2260  2.2471
  993SOL    HW2 2979   2.307   0.707   1.873 -1.7165  1.1594  0.1353
  994SOL     OW 2980   0.975   1.619   2.537  0.2725 -0.1126 -0.2695
  994SOL    HW1 2981   1.004   1.523   2.523  0.1690  0.5007 -1.8379
  994SOL    HW2 2982   1.052   1.682   2.515  0.4782 -0.3504  0.2575
  995SOL     OW 2983   2.181   1.260   2.773 -0.4731 -0.0302  0.8009
  995SOL    HW1 2984   2.227   1.291   2.686  2.1552  2.7327  0.4600
  995SOL    HW2 2985   2.148   1.336   2.833 -0.7047  1.0012  0.8705
  996SOL     OW 2986   2.149   1.896   0.553 -0.2920 -0.1719  0.1008
  996SOL    HW1 2987   2.064   1.902   0.611 -0.3333 -0.2815  2.2265
  996SOL    HW2 2988   2.188   1.802   0.554 -0.2132  1.6155  1.6115
  997SOL     OW 2989   2.119   0.474   1.856  0.1920  0.2195  0.8091
  997SOL    HW1 2990   2.109   0.452   1.955 -0.3318  0.0350 -1.4357
  997SOL    HW2 2991   2.114   0.391   1.796  1.2470  1.0833  1.6077
  998SOL     OW 2992   2.438   0.865   0.565 -0.2266  0.2236  0.4965
  998SOL    HW1 2993   2.353   0.831   0.604 -1.9896 -1.7004 -0.5703
  998SOL    HW2 2994   2.503   0.789   0.549  1.1272  1.6296 -1.6351
  999SOL     OW 2995   2.591   1.484   0.262 -0.1672  0.1597 -0.3047
  999SOL    HW1 2996   2.627   1.518   0.352  0.0002  0.7105  0.1072
  999SOL    HW2 2997   2.667   1.453   0.201 -2.2885  2.4502  1.0317
 1000SOL     OW 2998   0.750   0.804   1.811  0.0303  0.1666 -0.3628
 1000SOL    HW1 2999   0.829   0.750   1.849  0.3974  0.2402  1.5549
 1000SOL    HW2 3000   0.712   0.754   1.732  1.2564  1.3230 -0.4531
   3.09957   3.09957   3.09957
