1000 SPC/Fw water molecules t= 365.00000 step= 365000
 3000
    1SOL     OW    1   2.538   2.767   1.634 -0.3128 -0.2239  0.3685
    1SOL    HW1    2   2.446   2.817   1.640 -1.5335  3.0309  2.0067
    1SOL    HW2    3   2.593   2.828   1.573 -2.3610 -0.7256  1.7688
    2SOL     OW    4   2.512   2.370   0.665 -0.7037  0.0561  0.2015
    2SOL    HW1    5   2.588   2.402   0.723 -1.2847  2.7844 -1.1654
    2SOL    HW2    6   2.497   2.440   0.590 -0.3786 -1.5994 -1.0355
    3SOL     OW    7   1.237   3.092   0.043 -0.8404  0.3664  0.4537
    3SOL    HW1    8   1.252   0.068   0.005 -2.9519 -3.1198 -2.9761
    3SOL    HW2    9   1.211   3.024   3.085 -0.7617 -0.4620 -3.2030
    4SOL     OW   10   1.414   2.671   2.123 -0.5290  0.4658 -0.4124
    4SOL    HW1   11   1.459   2.734   2.191 -1.6348  0.5511  1.3120
    4SOL    HW2   12   1.313   2.696   2.124 -1.7355  3.5152 -0.4032
    5SOL     OW   13   2.121   0.524   1.679 -0.4881 -0.6336 -0.5538
    5SOL    HW1   14   2.217   0.517   1.721  2.4813 -2.0561  1.8127
    5SOL    HW2   15   2.046   0.493   1.742  0.2985  1.3332  0.9232
    6SOL     OW   16   2.201   2.406   0.478  0.1595 -0.1473  0.0950
    6SOL    HW1   17   2.130   2.454   0.426  0.9367 -2.7026 -1.6295
    6SOL    HW2   18   2.291   2.463   0.478  1.2970  2.0732 -1.0788
    7SOL     OW   19   1.879   1.153   1.105  0.1306 -0.3367  0.3838
    7SOL    HW1   20   1.811   1.083   1.070 -1.2000 -1.0895 -0.1444
    7SOL    HW2   21   1.900   1.142   1.204 -0.3168  2.1407  0.2604
    8SOL     OW   22   1.048   1.563   1.227  0.1883  0.2608 -0.3899
    8SOL    HW1   23   0.949   1.555   1.208  3.0603 -0.9525 -0.4798
    8SOL    HW2   24   1.101   1.520   1.153 -1.2027  2.0561  2.4725
    9SOL     OW   25   1.044   2.595   1.827 -0.4105  0.0377  0.2770
    9SOL    HW1   26   0.980   2.662   1.779  0.6155  4.8510 -3.5757
    9SOL    HW2   27   1.022   2.500   1.803  2.8315 -2.4345 -1.2703
   10SOL     OW   28   1.013   2.270   0.818 -0.0307 -0.1604 -0.2331
   10SOL    HW1   29   1.058   2.334   0.754  1.6997 -0.2857  2.1392
   10SOL    HW2   30   0.961   2.199   0.770  0.6086 -0.0181 -2.2206
   11SOL     OW   31   1.553   1.836   1.297  0.2826  0.1590 -0.2848
   11SOL    HW1   32   1.523   1.909   1.363  0.1992 -1.5446 -3.8292
   11SOL    HW2   33   1.589   1.870   1.207  0.5424 -1.1101  0.0429
   12SOL     OW   34   2.659   0.420   2.409  0.1410 -0.2340 -0.3947
   12SOL    HW1   35   2.584   0.461   2.347 -2.9045  0.1972 -1.3475
   12SOL    HW2   36   2.746   0.422   2.360  0.2389  1.9819  2.0942
   13SOL     OW   37   2.587   2.976   0.595 -0.3302  0.0502  0.5639
   13SOL    HW1   38   2.564   3.000   0.694 -1.6352  0.9202  3.0447
   13SOL    HW2   39   2.686   2.991   0.580  0.5564 -1.8224 -0.6451
   14SOL     OW   40   1.593   1.697   2.899  0.4295 -0.4131 -0.0242
   14SOL    HW1   41   1.641   1.609   2.904  0.4044 -0.2418 -0.4425
   14SOL    HW2   42   1.573   1.738   2.987 -0.2734 -1.2199 -1.7665
   15SOL     OW   43   2.397   2.539   1.542 -0.1279 -0.3063 -0.4094
   15SOL    HW1   44   2.407   2.446   1.574 -0.3380  2.9388  1.0269
   15SOL    HW2   45   2.445   2.607   1.601  0.0787  2.0150  1.7091
   16SOL     OW   46   2.255   2.816   0.309  0.3007  0.5238  0.1128
   16SOL    HW1   47   2.238   2.803   0.412  0.1408 -0.6401  1.0289
   16SOL    HW2   48   2.350   2.846   0.293 -1.5844  1.4445  0.6231
   17SOL     OW   49   0.892   0.485   1.219 -0.4975 -0.6141  0.1670
   17SOL    HW1   50   0.879   0.587   1.226  0.0107  1.2802 -1.0153
   17SOL    HW2   51   0.956   0.465   1.139  2.7746 -2.4777 -1.2567
   18SOL     OW   52   2.060   0.450   0.419 -0.3528 -0.0424  0.0282
   18SOL    HW1   53   1.995   0.395   0.464  2.0599  0.7788 -3.1953
   18SOL    HW2   54   2.129   0.394   0.368  0.7321  1.3761 -0.5170
   19SOL     OW   55   2.202   1.454   0.140  0.3601  0.9475  0.5934
   19SOL    HW1   56   2.225   1.518   0.063  2.2537 -0.0089 -1.9609
   19SOL    HW2   57   2.127   1.483   0.201  1.5308  0.5706  1.4225
   20SOL     OW   58   2.379   1.682   2.438 -0.1260 -0.3423 -0.2421
   20SOL    HW1   59   2.431   1.746   2.379 -0.6538 -0.1924 -1.9852
   20SOL    HW2   60   2.375   1.594   2.387  0.9415 -1.6927  0.7626
   21SOL     OW   61   1.442   0.127   0.630  0.4146 -0.0993 -0.1410
   21SOL    HW1   62   1.468   0.165   0.720  1.5021  1.8277 -1.8203
   21SOL    HW2   63   1.389   0.195   0.575  0.5669  0.0982 -1.5171
   22SOL     OW   64   2.722   0.430   1.420 -0.1729 -0.1455 -0.6056
   22SOL    HW1   65   2.720   0.530   1.395 -0.8043  0.7448  0.3551
   22SOL    HW2   66   2.655   0.405   1.493 -2.1371 -2.8399 -2.1468
   23SOL     OW   67   0.241   0.253   1.889  0.3770 -0.6711 -0.5096
   23SOL    HW1   68   0.272   0.235   1.795  0.6789  1.4668  2.8707
   23SOL    HW2   69   0.214   0.352   1.906  3.4215  0.3738 -1.2469
   24SOL     OW   70   2.465   2.681   0.161  0.2000 -0.1080  0.3972
   24SOL    HW1   71   2.555   2.655   0.128 -0.6524  0.4375 -0.4811
   24SOL    HW2   72   2.472   2.760   0.224 -1.7460  1.3618  2.8123
   25SOL     OW   73   0.872   2.854   2.681 -0.0195 -0.2317 -0.4403
   25SOL    HW1   74   0.842   2.782   2.614  2.1714 -2.0279  1.0119
   25SOL    HW2   75   0.891   2.820   2.774 -3.0739  1.6579 -0.4179
   26SOL     OW   76   1.352   2.476   0.362 -0.0755  0.2096  0.2905
   26SOL    HW1   77   1.353   2.391   0.419  0.1838  0.2727 -0.6092
   26SOL    HW2   78   1.408   2.547   0.410  1.7394  1.0800 -0.3399
   27SOL     OW   79   2.246   0.881   0.906 -0.0858  0.0237 -0.1724
   27SOL    HW1   80   2.184   0.916   0.979  0.9862 -2.7811 -0.3055
   27SOL    HW2   81   2.312   0.813   0.946  0.2074  0.6005  0.4256
   28SOL     OW   82   1.157   1.496   0.959  0.3007  0.1216  0.1444
   28SOL    HW1   83   1.107   1.521   0.873  0.4341  0.5170 -1.7838
   28SOL    HW2   84   1.157   1.392   0.971 -0.3226 -2.4268  0.0456
   29SOL     OW   85   3.018   0.102   1.853 -0.4405  0.3857  0.5484
   29SOL    HW1   86   3.037   0.202   1.828 -0.0535 -1.2236  1.7300
   29SOL    HW2   87   2.936   0.066   1.804  1.3710 -2.1669  1.5662
   30SOL     OW   88   1.328   0.020   1.222 -0.5053  0.3679  0.6399
   30SOL    HW1   89   1.269   3.073   1.169 -2.0224 -1.6545  3.8260
   30SOL    HW2   90   1.302   0.020   1.316  2.7978  0.2086 -4.5109
   31SOL     OW   91   1.823   2.691   2.183  0.7659  0.3829 -0.3524
   31SOL    HW1   92   1.773   2.759   2.245  0.9713 -1.1419 -0.9712
   31SOL    HW2   93   1.911   2.732   2.160  0.0719  2.0932  2.0536
   32SOL     OW   94   0.938   1.337   3.055  0.0363  0.5038  0.0509
   32SOL    HW1   95   1.032   1.293   3.074 -1.0486 -1.4835 -1.3585
   32SOL    HW2   96   0.938   1.421   0.001 -0.8658  3.1551 -0.3088
   33SOL     OW   97   3.042   0.965   2.364 -0.1843 -0.5441  0.3190
   33SOL    HW1   98   2.965   0.897   2.355 -0.8332  0.1393  0.0882
   33SOL    HW2   99   0.010   0.927   2.411  2.4760 -0.7171 -1.0383
   34SOL     OW  100   2.058   3.080   0.505 -0.4460  0.1010  0.1612
   34SOL    HW1  101   2.008   0.018   0.575  1.9560 -2.3336  2.0596
   34SOL    HW2  102   2.090   2.992   0.542  1.6180 -1.3407  4.3178
   35SOL     OW  103   2.667   2.402   1.808  0.5717  0.1130 -0.5500
   35SOL    HW1  104   2.682   2.380   1.907 -1.6060  1.9437  1.4864
   35SOL    HW2  105   2.678   2.503   1.796  1.3745  1.9698 -1.4380
   36SOL     OW  106   2.344   2.222   2.925 -0.0441 -0.0908  0.0605
   36SOL    HW1  107   2.345   2.306   2.868 -0.4400 -3.6660  1.7026
   36SOL    HW2  108   2.435   2.208   2.965  0.5671 -0.1070  1.4283
   37SOL     OW  109   1.946   0.405   1.864 -0.2997 -0.3684  0.2046
   37SOL    HW1  110   1.954   0.305   1.841  0.2540 -0.0684 -0.5659
   37SOL    HW2  111   1.859   0.433   1.912 -2.3425  0.1849  1.6822
   38SOL     OW  112   0.049   0.497   2.957  0.4047  0.2814 -0.0821
   38SOL    HW1  113   3.063   0.490   2.938 -2.5033 -0.7084  0.5136
   38SOL    HW2  114   0.088   0.425   3.017  0.2615  0.7638 -0.0155
   39SOL     OW  115   1.904   1.366   1.685 -0.3307 -0.0014  0.6496
   39SOL    HW1  116   1.881   1.424   1.764 -1.6448 -0.6793  1.6634
   39SOL    HW2  117   1.989   1.400   1.637  2.1635  0.1951  0.4699
   40SOL     OW  118   1.188   2.016   0.538  0.0594 -0.0696  0.0542
   40SOL    HW1  119   1.165   1.993   0.636  0.3297 -0.4416  1.2819
   40SOL    HW2  120   1.105   2.014   0.480 -0.1392  1.7704  1.2633
   41SOL     OW  121   1.957   1.835   1.012 -0.3982 -0.2845 -0.1183
   41SOL    HW1  122   2.023   1.911   1.020  1.8852  0.8428 -0.4483
   41SOL    HW2  123   1.964   1.789   0.917  0.3375 -0.5582 -0.9126
   42SOL     OW  124   0.595   0.301   1.180  0.2307 -0.3362 -0.3843
   42SOL    HW1  125   0.581   0.383   1.242  0.5633  1.2435  0.1366
   42SOL    HW2  126   0.651   0.329   1.101  0.9535  1.8575  1.0367
   43SOL     OW  127   3.044   1.648   2.478  0.3602 -0.0757 -0.5852
   43SOL    HW1  128   3.023   1.661   2.574  1.6209 -0.7922  1.7154
   43SOL    HW2  129   3.026   1.551   2.451 -0.1217 -0.2698 -0.1455
   44SOL     OW  130   2.129   2.863   1.360 -0.1855  0.1571 -0.2608
   44SOL    HW1  131   2.084   2.789   1.303 -2.5527  1.4117 -3.0053
   44SOL    HW2  132   2.115   2.844   1.460 -1.1574  0.7004  0.2246
   45SOL     OW  133   1.115   3.061   2.526  0.3843  0.1148 -0.0804
   45SOL    HW1  134   1.210   3.040   2.560  0.5881  2.1422  1.3959
   45SOL    HW2  135   1.079   2.978   2.474  0.1797 -1.9994  0.9082
   46SOL     OW  136   0.796   2.655   2.499 -0.4130 -0.0184  0.2574
   46SOL    HW1  137   0.731   2.710   2.446 -0.2251 -1.4125  2.6686
   46SOL    HW2  138   0.800   2.557   2.467 -0.8364 -0.7207 -1.8695
   47SOL     OW  139   0.778   1.966   0.862  0.1378 -0.1350 -0.0282
   47SOL    HW1  140   0.797   2.001   0.953  0.1585 -0.3297 -3.4553
   47SOL    HW2  141   0.833   2.007   0.784  3.3025  0.0517 -1.4237
   48SOL     OW  142   1.264   2.694   1.120 -0.2294  0.2424  0.2675
   48SOL    HW1  143   1.254   2.593   1.093  0.8570  0.3448  0.6830
   48SOL    HW2  144   1.311   2.710   1.210 -2.8336  0.1979  1.4774
   49SOL     OW  145   2.271   0.266   0.013  0.3643 -0.1455  0.4027
   49SOL    HW1  146   2.283   0.168   0.042  1.5461 -0.8191  1.1588
   49SOL    HW2  147   2.317   0.283   3.041 -1.9813  0.8220  0.5146
   50SOL     OW  148   1.630   0.107   0.228  0.6389 -0.3919 -0.2392
   50SOL    HW1  149   1.675   0.059   0.151 -0.9934  0.8249  0.1490
   50SOL    HW2  150   1.586   0.197   0.202  0.2893 -0.1832 -1.2274
   51SOL     OW  151   2.316   0.628   1.277  0.4815 -0.5713 -0.1270
   51SOL    HW1  152   2.240   0.692   1.284  0.6459 -0.2479 -1.1997
   51SOL    HW2  153   2.359   0.622   1.370  0.2424 -0.3608  3.2388
   52SOL     OW  154   0.511   1.660   0.181 -0.5121 -0.0482  0.2201
   52SOL    HW1  155   0.456   1.698   0.102  0.6086  4.6052 -0.0333
   52SOL    HW2  156   0.611   1.679   0.166  1.6026 -0.9578  1.5298
   53SOL     OW  157   0.190   1.519   2.786 -0.2270  0.2735  0.4689
   53SOL    HW1  158   0.149   1.436   2.741 -2.7303 -1.0727  0.0924
   53SOL    HW2  159   0.267   1.493   2.852  0.7611  0.5682 -2.0852
   54SOL     OW  160   2.795   1.284   1.883  0.1227  0.0302 -0.0917
   54SOL    HW1  161   2.782   1.183   1.879  1.2784 -1.2408  1.1043
   54SOL    HW2  162   2.874   1.313   1.937 -1.2201  0.8565  1.5025
   55SOL     OW  163   2.349   1.895   0.250  0.1163 -0.3183 -0.2282
   55SOL    HW1  164   2.436   1.948   0.269 -0.5898  1.1473 -1.0199
   55SOL    HW2  165   2.327   1.834   0.328 -0.9099 -1.3603 -2.2872
   56SOL     OW  166   1.935   3.092   1.511 -0.4738  0.0341 -0.0203
   56SOL    HW1  167   1.875   3.013   1.513  1.4147  0.7114 -1.1929
   56SOL    HW2  168   1.965   3.098   1.412 -0.4953  0.6559 -0.1453
   57SOL     OW  169   1.596   1.179   2.901  0.5354 -0.1870  0.1387
   57SOL    HW1  170   1.683   1.130   2.917 -2.2426 -1.0028 -0.6046
   57SOL    HW2  171   1.608   1.248   2.826  1.3902 -1.3265  1.6041
   58SOL     OW  172   0.212   0.634   1.357 -0.0307 -0.0844 -0.5591
   58SOL    HW1  173   0.172   0.597   1.447 -2.7767 -1.8380  4.8091
   58SOL    HW2  174   0.158   0.608   1.279  2.3731  0.7950  1.8673
   59SOL     OW  175   1.321   2.510   0.094  0.4767 -0.0668  0.1107
   59SOL    HW1  176   1.312   2.495   0.195 -1.4227  0.4748  0.8959
   59SOL    HW2  177   1.244   2.469   0.039 -2.2623  0.4282 -0.8704
   60SOL     OW  178   3.109   2.187   3.016 -0.4971 -0.2745 -0.1375
   60SOL    HW1  179   0.093   2.171   3.026 -0.1029  1.5467 -3.8845
   60SOL    HW2  180   3.096   2.221   2.924 -0.2686 -1.5179  2.5747
   61SOL     OW  181   0.614   2.483   1.078 -0.3536  0.0928  0.8485
   61SOL    HW1  182   0.707   2.518   1.106 -1.0494 -2.8299  0.5459
   61SOL    HW2  183   0.580   2.502   0.984 -1.3036 -0.5903  2.5870
   62SOL     OW  184   1.772   1.846   2.673 -0.2394 -0.7461  0.3615
   62SOL    HW1  185   1.723   1.762   2.704 -1.1393 -1.0877  1.5989
   62SOL    HW2  186   1.833   1.882   2.749  0.7893  3.1370  0.5083
   63SOL     OW  187   2.018   1.792   0.270 -0.1029 -0.3610 -0.3355
   63SOL    HW1  188   1.940   1.855   0.242 -1.0170  0.4749 -2.3267
   63SOL    HW2  189   2.101   1.805   0.212 -0.5302 -0.1919  0.8355
   64SOL     OW  190   2.141   1.192   0.188 -0.0459 -0.5998 -0.6972
   64SOL    HW1  191   2.142   1.292   0.163 -2.0847  3.1695  1.3919
   64SOL    HW2  192   2.234   1.162   0.216 -0.1551  1.5456 -0.4112
   65SOL     OW  193   2.243   1.852   2.205 -0.3242 -0.4197  0.4283
   65SOL    HW1  194   2.180   1.784   2.244  0.1697  2.1411  0.3843
   65SOL    HW2  195   2.336   1.815   2.203 -1.3056  2.4113  0.4575
   66SOL     OW  196   0.346   1.031   1.326  0.0985  0.1086  0.0421
   66SOL    HW1  197   0.398   0.975   1.393 -1.0419  0.6124  0.5336
   66SOL    HW2  198   0.391   1.119   1.305 -0.7536  1.0857 -1.4907
   67SOL     OW  199   2.068   0.137   2.777 -0.2402 -0.1936  0.6389
   67SOL    HW1  200   2.066   0.120   2.678 -0.2652  0.2000  0.2558
   67SOL    HW2  201   2.135   0.211   2.793 -0.6228  0.1450  0.5584
   68SOL     OW  202   1.481   2.033   1.461 -0.0135  0.4920  0.4020
   68SOL    HW1  203   1.419   2.086   1.399 -0.1297  0.2289  1.1467
   68SOL    HW2  204   1.550   2.093   1.499 -2.3020 -0.5376 -0.5037
   69SOL     OW  205   0.429   2.594   0.020  0.4449 -0.0450 -0.3372
   69SOL    HW1  206   0.385   2.503   0.022 -0.9766  0.5676  0.1693
   69SOL    HW2  207   0.526   2.574   0.003 -1.7913  1.7852  0.8108
   70SOL     OW  208   0.206   0.708   2.183  0.7706  0.2716  0.8835
   70SOL    HW1  209   0.131   0.733   2.120 -3.4645  0.7596 -1.4930
   70SOL    HW2  210   0.299   0.732   2.140  3.3281 -0.1262 -1.5560
   71SOL     OW  211   0.947   1.195   2.715  0.0470 -0.1296 -0.0866
   71SOL    HW1  212   0.866   1.181   2.775 -0.4720  0.3237 -0.6922
   71SOL    HW2  213   1.009   1.113   2.724 -1.4862 -0.1568  0.2174
   72SOL     OW  214   2.875   1.775   2.172 -0.1728 -0.1652 -0.7821
   72SOL    HW1  215   2.901   1.871   2.178  0.7050  0.7955 -0.2338
   72SOL    HW2  216   2.835   1.758   2.080 -1.1900  0.0006  1.5582
   73SOL     OW  217   1.485   1.640   0.165  0.6012 -0.5780 -0.3619
   73SOL    HW1  218   1.506   1.713   0.097  0.2239  1.7056  0.1630
   73SOL    HW2  219   1.400   1.590   0.145  1.9498  1.2097  2.8105
   74SOL     OW  220   2.483   3.060   2.800 -0.0207  0.3394  0.1174
   74SOL    HW1  221   2.533   0.017   2.854  0.9162  1.3561 -0.6078
   74SOL    HW2  222   2.397   3.100   2.762  0.0287 -1.3683  1.2064
   75SOL     OW  223   1.706   1.962   1.113  0.1739 -0.0521  0.0452
   75SOL    HW1  224   1.712   2.056   1.063  0.1935  1.5744 -0.6580
   75SOL    HW2  225   1.786   1.905   1.086  0.5363 -2.5688  0.2065
   76SOL     OW  226   2.934   2.161   1.616 -0.2474 -0.2234  0.2637
   76SOL    HW1  227   2.879   2.099   1.558  1.1687  1.2794  1.3986
   76SOL    HW2  228   3.036   2.149   1.597  2.1019 -0.5614 -2.0248
   77SOL     OW  229   0.343   2.931   1.863  0.0262 -0.5996 -0.5549
   77SOL    HW1  230   0.339   2.910   1.764  1.3199 -2.2411 -1.4060
   77SOL    HW2  231   0.282   3.005   1.896  1.8901  0.7427  0.2296
   78SOL     OW  232   2.400   1.080   0.209 -0.1082  0.5403 -0.1757
   78SOL    HW1  233   2.437   1.120   0.122  0.1017  0.6492 -0.8165
   78SOL    HW2  234   2.475   1.055   0.270 -0.9427  0.4904  1.6758
   79SOL     OW  235   3.003   1.382   2.450 -0.2508  0.5047 -0.1368
   79SOL    HW1  236   2.994   1.347   2.547  0.1587 -2.8985  1.5852
   79SOL    HW2  237   3.076   1.333   2.398  1.7926  0.7657  0.0999
   80SOL     OW  238   1.771   1.406   1.457  0.1076 -0.3178  1.1621
   80SOL    HW1  239   1.816   1.408   1.550 -2.3650  1.2582 -1.7066
   80SOL    HW2  240   1.760   1.505   1.416  0.0049  1.0643 -1.3565
   81SOL     OW  241   2.208   1.192   2.048  0.4261  0.3853  0.1367
   81SOL    HW1  242   2.116   1.147   2.046 -1.1533 -1.5721 -1.9588
   81SOL    HW2  243   2.236   1.222   1.953  2.2709 -2.1501  0.8647
   82SOL     OW  244   1.624   1.551   1.914  0.2278  0.0399 -0.0537
   82SOL    HW1  245   1.710   1.556   1.853 -0.7121  0.2958  0.3233
   82SOL    HW2  246   1.545   1.565   1.852 -1.7025  0.0090  1.0993
   83SOL     OW  247   0.313   0.196   0.346  0.6527  0.3411  0.3921
   83SOL    HW1  248   0.345   0.165   0.253 -0.0584  0.7674 -1.2164
   83SOL    HW2  249   0.237   0.143   0.384  0.4036  1.4253 -0.7068
   84SOL     OW  250   0.096   0.726   0.228  0.1955  0.0347  0.0052
   84SOL    HW1  251   0.008   0.729   0.279 -1.2269  3.3218 -0.6822
   84SOL    HW2  252   0.127   0.822   0.211  1.7222 -1.8316 -3.2832
   85SOL     OW  253   2.508   2.401   1.091 -0.3974  0.4314 -0.1963
   85SOL    HW1  254   2.469   2.362   1.005 -0.7580 -0.1158 -2.9049
   85SOL    HW2  255   2.590   2.348   1.108 -2.3485  1.6624 -0.5086
   86SOL     OW  256   0.535   2.964   1.526 -0.0360 -0.1178  0.4935
   86SOL    HW1  257   0.587   2.899   1.464  0.9933 -0.5823 -1.4727
   86SOL    HW2  258   0.520   3.047   1.467 -0.1086  0.5137  0.1249
   87SOL     OW  259   0.397   2.490   2.017  0.4769  0.5232 -1.2236
   87SOL    HW1  260   0.486   2.443   2.004 -0.8276 -2.2735 -2.2923
   87SOL    HW2  261   0.333   2.431   2.065  0.4689  0.2554 -0.9307
   88SOL     OW  262   0.261   2.125   3.062  0.1690  0.3966 -0.5968
   88SOL    HW1  263   0.254   2.074   0.035  0.2363  2.8869 -2.7462
   88SOL    HW2  264   0.280   2.059   2.984 -0.1985 -3.0912 -3.2113
   89SOL     OW  265   0.933   0.967   0.720 -0.0726  0.1817 -0.0192
   89SOL    HW1  266   0.861   1.014   0.666  0.6908  0.0683 -1.1593
   89SOL    HW2  267   0.991   0.921   0.656  0.7753 -1.9010  2.6039
   90SOL     OW  268   0.208   1.379   2.104 -0.2014  0.0514 -0.2837
   90SOL    HW1  269   0.225   1.472   2.131 -0.5305 -4.3022 -1.3578
   90SOL    HW2  270   0.109   1.372   2.089  0.9239  2.1193  0.7145
   91SOL     OW  271   1.884   1.084   0.805 -0.4375 -0.0048  0.0194
   91SOL    HW1  272   1.861   1.166   0.752 -0.8751  0.5080  0.8408
   91SOL    HW2  273   1.811   1.057   0.866 -1.6366  3.4577 -1.4533
   92SOL     OW  274   2.233   1.333   0.855  0.3397  0.0125  0.0034
   92SOL    HW1  275   2.160   1.401   0.829  0.6510  2.2766 -0.8010
   92SOL    HW2  276   2.226   1.242   0.817  1.6299  2.5370  0.7250
   93SOL     OW  277   2.772   0.920   2.590 -0.3029 -0.1979  0.4422
   93SOL    HW1  278   2.739   0.861   2.665  3.2334  2.2211 -0.6662
   93SOL    HW2  279   2.829   0.868   2.524 -2.1397  0.5458 -0.2276
   94SOL     OW  280   2.093   2.197   2.778 -0.0895  0.3664  0.2046
   94SOL    HW1  281   2.083   2.289   2.746 -1.6644 -4.8769 -0.6709
   94SOL    HW2  282   2.186   2.188   2.820  1.2312  0.3363 -0.1541
   95SOL     OW  283   0.015   0.173   1.176  0.5273  0.5586 -0.5536
   95SOL    HW1  284   0.018   0.200   1.077  1.5189 -0.6357 -1.6341
   95SOL    HW2  285   3.093   0.073   1.178  1.4441  0.5814  1.0462
   96SOL     OW  286   2.855   2.867   1.552  0.7543  0.4546 -0.3243
   96SOL    HW1  287   2.821   2.786   1.603 -1.0057  0.5864 -1.2513
   96SOL    HW2  288   2.777   2.913   1.500  0.8564  1.9847 -2.2794
   97SOL     OW  289   2.648   0.915   1.530 -0.7594  0.1527 -0.2601
   97SOL    HW1  290   2.725   0.941   1.591  1.3887  1.3836 -0.4244
   97SOL    HW2  291   2.559   0.938   1.573 -1.6802 -0.0375  0.8034
   98SOL     OW  292   1.782   2.508   1.735  0.3610 -0.2282 -0.7486
   98SOL    HW1  293   1.738   2.417   1.725  0.9884 -1.1347 -1.8174
   98SOL    HW2  294   1.785   2.548   1.642 -0.0916 -0.7706  0.7790
   99SOL     OW  295   0.402   2.763   1.638 -0.3816  0.0363  0.0462
   99SOL    HW1  296   0.444   2.688   1.692 -3.3515 -0.1146  2.5946
   99SOL    HW2  297   0.474   2.833   1.606  1.1535  1.0423 -0.2238
  100SOL     OW  298   1.609   0.585   2.659  0.0851 -0.2378 -0.4836
  100SOL    HW1  299   1.651   0.676   2.664 -1.1809 -2.9529  2.1207
  100SOL    HW2  300   1.657   0.524   2.728 -1.4608 -0.4886  0.6291
  101SOL     OW  301   2.422   0.441   2.834  0.5091 -0.2425  0.6818
  101SOL    HW1  302   2.337   0.452   2.780  0.4384 -1.3119 -0.1205
  101SOL    HW2  303   2.499   0.476   2.777  0.4685  0.4901 -1.8722
  102SOL     OW  304   0.411   0.797   1.180  0.0470  0.6499 -0.2451
  102SOL    HW1  305   0.343   0.749   1.237  0.9962  0.0053 -3.1109
  102SOL    HW2  306   0.419   0.891   1.217  0.5919 -1.0087 -2.3114
  103SOL     OW  307   0.901   0.821   2.584  0.5494 -0.5154  0.2920
  103SOL    HW1  308   0.846   0.742   2.548 -1.2188  0.9479 -2.4116
  103SOL    HW2  309   0.972   0.791   2.649  3.8048  1.7067  1.1758
  104SOL     OW  310   0.133   0.831   2.459  0.2988  0.0662 -0.4428
  104SOL    HW1  311   0.122   0.790   2.552 -0.5417 -1.1857  1.9640
  104SOL    HW2  312   0.152   0.758   2.389 -0.4125 -3.4879 -1.7624
  105SOL     OW  313   2.269   1.920   1.572 -0.6271 -0.0010  0.2166
  105SOL    HW1  314   2.244   2.017   1.593 -1.6970  0.2801 -0.2782
  105SOL    HW2  315   2.209   1.886   1.496 -0.6710  0.5620 -0.9328
  106SOL     OW  316   1.723   2.976   0.565 -0.5153 -0.7460 -0.1662
  106SOL    HW1  317   1.745   3.066   0.522  0.3391  0.2520 -0.8738
  106SOL    HW2  318   1.731   2.901   0.502 -0.7814  2.3789  3.6295
  107SOL     OW  319   2.073   2.242   1.148  0.5568 -0.2227 -0.1572
  107SOL    HW1  320   2.139   2.166   1.155  2.3449 -1.4658 -1.4771
  107SOL    HW2  321   2.105   2.329   1.190  2.2859 -0.6806 -0.4160
  108SOL     OW  322   0.040   2.597   1.485 -0.4782 -0.1074 -0.2449
  108SOL    HW1  323   3.087   2.664   1.452  2.0592  1.6353 -0.0566
  108SOL    HW2  324   0.005   2.542   1.565  0.0834  1.0190  0.1949
  109SOL     OW  325   2.108   2.313   0.885 -0.2892 -0.6183  0.2798
  109SOL    HW1  326   2.206   2.294   0.855  3.7241 -0.4012  0.3290
  109SOL    HW2  327   2.093   2.290   0.985 -2.9968 -1.8815  0.2206
  110SOL     OW  328   1.119   1.780   2.092 -0.0623  0.9248  0.3029
  110SOL    HW1  329   1.135   1.686   2.129 -0.2757 -0.5033 -2.4862
  110SOL    HW2  330   1.077   1.764   1.997  0.2990 -0.2629 -2.8430
  111SOL     OW  331   1.617   2.268   2.074  0.1309  0.3654  0.5327
  111SOL    HW1  332   1.632   2.225   1.980 -0.2484 -2.2331 -1.5080
  111SOL    HW2  333   1.524   2.315   2.071 -2.9273 -0.5221 -0.1700
  112SOL     OW  334   1.574   1.974   2.548  0.4658  0.2842 -0.0846
  112SOL    HW1  335   1.603   2.034   2.475 -0.9032 -1.9529 -0.5116
  112SOL    HW2  336   1.647   1.920   2.587 -1.7702  2.0222 -2.1250
  113SOL     OW  337   1.807   2.044   1.854  0.9090 -0.2337 -0.4064
  113SOL    HW1  338   1.731   2.108   1.823 -1.5342  1.2410 -0.4118
  113SOL    HW2  339   1.783   2.008   1.953 -0.0191  0.9123  1.6384
  114SOL     OW  340   3.012   1.094   1.446 -0.1663 -0.1359 -0.5521
  114SOL    HW1  341   3.082   1.122   1.379 -0.4505  0.5376 -0.0588
  114SOL    HW2  342   3.009   0.995   1.460 -0.4613 -0.0864  2.0056
  115SOL     OW  343   0.815   0.665   0.125 -0.2010  0.5970 -0.3240
  115SOL    HW1  344   0.811   0.578   0.074 -0.4833  1.1986  4.3209
  115SOL    HW2  345   0.910   0.708   0.121  1.1770 -3.1480  0.6785
  116SOL     OW  346   2.778   2.133   2.353  0.1046 -0.1876 -0.1507
  116SOL    HW1  347   2.815   2.078   2.278 -2.2483  2.3665 -1.3190
  116SOL    HW2  348   2.749   2.071   2.427 -2.6681 -1.8961 -0.6610
  117SOL     OW  349   0.008   2.574   0.707 -0.3126 -0.1244  0.3566
  117SOL    HW1  350   0.028   2.538   0.616 -0.0980 -1.1845  0.2047
  117SOL    HW2  351   0.013   2.499   0.777  2.0069 -1.5867  0.3862
  118SOL     OW  352   0.709   1.995   2.688 -0.0544  0.8079  0.1695
  118SOL    HW1  353   0.620   2.041   2.710 -1.1060  2.2080  1.0926
  118SOL    HW2  354   0.734   1.990   2.587  1.3759  0.4266 -1.1904
  119SOL     OW  355   0.544   2.005   0.553  0.2640  0.0828 -0.0481
  119SOL    HW1  356   0.510   1.995   0.644  1.0615 -0.2195 -3.1758
  119SOL    HW2  357   0.526   2.100   0.521 -1.1138  1.2304 -1.1492
  120SOL     OW  358   1.223   0.586   0.170 -0.4771 -0.5014 -0.2088
  120SOL    HW1  359   1.309   0.596   0.228  2.2783  0.4859 -0.6634
  120SOL    HW2  360   1.145   0.544   0.224 -2.0283  0.1384  0.7402
  121SOL     OW  361   1.264   2.333   0.686  0.2310  0.1406  0.2506
  121SOL    HW1  362   1.235   2.245   0.728  0.3536  1.5639 -0.2290
  121SOL    HW2  363   1.286   2.321   0.587  0.6070 -0.1897  3.5065
  122SOL     OW  364   3.055   2.358   2.005  0.4220  0.1594 -0.2516
  122SOL    HW1  365   3.061   2.272   1.945  2.1329 -3.0545  0.2575
  122SOL    HW2  366   3.108   2.429   1.960 -1.7887 -2.0293 -0.8624
  123SOL     OW  367   0.818   1.738   0.707 -0.7020  0.7893  0.9787
  123SOL    HW1  368   0.832   1.823   0.764  0.1882  2.0833 -0.5769
  123SOL    HW2  369   0.732   1.691   0.724  3.6399  0.7009 -1.8908
  124SOL     OW  370   3.053   1.019   0.461 -0.0734  0.0706 -0.1684
  124SOL    HW1  371   3.042   0.914   0.450 -0.8698 -2.6109  1.6116
  124SOL    HW2  372   3.026   1.075   0.383  2.1740  0.0673  1.3941
  125SOL     OW  373   0.214   0.688   3.087 -0.0874  0.0311  0.1562
  125SOL    HW1  374   0.191   0.705   0.063  2.3577  1.0679 -2.4214
  125SOL    HW2  375   0.143   0.629   3.048  2.0528  0.9326  0.1227
  126SOL     OW  376   0.192   1.774   0.681  0.0732  0.0626  0.0606
  126SOL    HW1  377   0.105   1.816   0.648 -0.1649  3.1349  2.7299
  126SOL    HW2  378   0.200   1.775   0.785 -0.3034 -2.0847  0.2455
  127SOL     OW  379   1.307   2.552   1.804  0.6381  0.4287 -0.1645
  127SOL    HW1  380   1.206   2.567   1.809 -0.3178 -1.8892  1.9728
  127SOL    HW2  381   1.342   2.497   1.885  1.4167 -3.8349 -2.0022
  128SOL     OW  382   1.216   1.330   3.079 -0.0558  0.5184  0.3429
  128SOL    HW1  383   1.203   1.385   2.991 -2.2217 -0.2395  0.5662
  128SOL    HW2  384   1.282   1.253   3.066 -1.2059  0.2235  0.0781
  129SOL     OW  385   1.842   1.895   1.633  0.0389  0.4845  0.3760
  129SOL    HW1  386   1.825   1.961   1.555  0.5184 -1.6176 -3.0675
  129SOL    HW2  387   1.822   1.930   1.725  1.1199 -1.7852 -1.3395
  130SOL     OW  388   2.078   1.767   1.710  0.3177 -0.4677 -0.6341
  130SOL    HW1  389   2.162   1.820   1.694 -0.0229  1.9596  1.8547
  130SOL    HW2  390   1.995   1.824   1.679 -1.6964 -1.0156  1.7552
  131SOL     OW  391   2.853   2.868   2.921 -0.6695 -0.3335 -0.4717
  131SOL    HW1  392   2.794   2.876   2.837  0.1813  0.6544  0.5685
  131SOL    HW2  393   2.896   2.776   2.936 -0.5617  0.0585  2.2217
  132SOL     OW  394   2.548   2.074   0.626  0.8584 -0.0381  0.2255
  132SOL    HW1  395   2.568   2.037   0.534 -0.8865  2.8219 -0.9273
  132SOL    HW2  396   2.510   2.169   0.613  0.6126 -1.7120  0.1006
  133SOL     OW  397   0.697   0.111   2.512 -0.0469 -0.5112  0.0667
  133SOL    HW1  398   0.633   0.175   2.555 -0.8485 -4.4922 -2.1894
  133SOL    HW2  399   0.672   0.107   2.412 -0.2049  2.4933 -1.6179
  134SOL     OW  400   2.710   2.276   0.132  0.4866  0.4676  0.5585
  134SOL    HW1  401   2.614   2.291   0.170 -1.2042  1.2871 -0.8392
  134SOL    HW2  402   2.769   2.347   0.170  1.2780  0.0694 -0.3593
  135SOL     OW  403   1.412   0.978   2.281  0.1428 -0.0761  0.2604
  135SOL    HW1  404   1.357   1.059   2.314  1.1861 -1.8959 -1.5630
  135SOL    HW2  405   1.487   1.007   2.217  2.3723  1.1122 -0.8120
  136SOL     OW  406   2.458   1.708   0.776 -0.1929  0.3260 -0.1635
  136SOL    HW1  407   2.559   1.709   0.776  2.8587 -0.0868  1.0022
  136SOL    HW2  408   2.424   1.644   0.845  1.1386  0.5256  2.5651
  137SOL     OW  409   2.731   1.687   0.753  0.1177 -0.0376  0.5355
  137SOL    HW1  410   2.712   1.598   0.797  1.1743 -0.3888 -0.6496
  137SOL    HW2  411   2.815   1.724   0.792 -0.1309 -1.2979  0.1844
  138SOL     OW  412   2.919   0.570   1.060 -0.0042  0.1035 -0.3710
  138SOL    HW1  413   2.856   0.639   1.095  2.1331  0.4456 -1.2434
  138SOL    HW2  414   2.930   0.575   0.956  1.1498 -1.0407 -1.4929
  139SOL     OW  415   0.086   2.463   2.949  0.2250  0.2985 -0.7703
  139SOL    HW1  416   0.116   2.400   3.021 -0.6355 -0.1569  1.7159
  139SOL    HW2  417   0.164   2.501   2.898  0.9109 -1.4639  0.3309
  140SOL     OW  418   0.796   1.813   1.477 -0.3586  0.2608  0.3569
  140SOL    HW1  419   0.801   1.833   1.576  1.6744 -3.4705 -2.5686
  140SOL    HW2  420   0.886   1.820   1.431 -0.8596 -1.9005 -0.7181
  141SOL     OW  421   1.136   1.997   0.820 -0.2281 -0.6343  0.3754
  141SOL    HW1  422   1.129   1.895   0.826  1.3705 -2.6043  1.2040
  141SOL    HW2  423   1.120   2.041   0.908  0.6499 -0.8044  0.9537
  142SOL     OW  424   1.028   0.544   0.934 -0.3946 -0.3902  0.3140
  142SOL    HW1  425   0.969   0.576   0.853 -1.1778  1.2525 -1.0407
  142SOL    HW2  426   1.091   0.613   0.974 -1.4123 -2.2291 -0.3673
  143SOL     OW  427   0.710   1.038   2.797  0.5456  0.3277 -0.2446
  143SOL    HW1  428   0.781   1.052   2.869  0.0443 -0.0169  1.8848
  143SOL    HW2  429   0.737   0.983   2.717  1.6650 -2.4492 -1.3850
  144SOL     OW  430   1.920   2.509   0.747  0.0845 -0.1038  0.3583
  144SOL    HW1  431   1.834   2.455   0.747 -0.2809  0.9188 -0.7072
  144SOL    HW2  432   1.995   2.446   0.776 -1.6050 -0.0171  0.7336
  145SOL     OW  433   2.089   0.902   2.801  0.4225  0.7010  0.2171
  145SOL    HW1  434   2.014   0.871   2.739  0.9994  0.7659 -0.6538
  145SOL    HW2  435   2.104   0.835   2.876  1.5757  2.0999 -1.7663
  146SOL     OW  436   3.065   2.848   0.726 -0.4472 -0.2200 -0.2690
  146SOL    HW1  437   3.031   2.831   0.818 -0.6189  1.5643 -1.6910
  146SOL    HW2  438   0.000   2.761   0.709  1.2330 -1.6170  3.4478
  147SOL     OW  439   1.155   0.942   1.968  0.1641  0.5124  0.2951
  147SOL    HW1  440   1.181   1.034   2.003  2.4847 -1.1675  0.9388
  147SOL    HW2  441   1.231   0.880   1.935 -0.0448  0.5068 -2.8249
  148SOL     OW  442   1.263   0.647   2.010 -0.1672 -0.2532  0.0784
  148SOL    HW1  443   1.342   0.663   2.075 -1.4872  1.0576  0.5925
  148SOL    HW2  444   1.180   0.619   2.064  0.5937  1.7483 -2.6045
  149SOL     OW  445   1.746   0.118   2.210  0.6979 -0.1988 -0.1874
  149SOL    HW1  446   1.761   0.221   2.212 -0.0916 -0.1873  0.1205
  149SOL    HW2  447   1.674   0.090   2.139 -0.2411  1.0880  0.8892
  150SOL     OW  448   2.617   3.107   0.146  0.0936 -0.5389 -0.3486
  150SOL    HW1  449   2.702   3.065   0.103  2.5168 -0.6312  0.4187
  150SOL    HW2  450   2.614   0.095   0.146 -1.8982  2.9071 -0.2260
  151SOL     OW  451   0.410   1.424   2.990 -0.2546  0.4374  0.3577
  151SOL    HW1  452   0.362   1.334   3.003 -2.0942 -2.8548  2.0326
  151SOL    HW2  453   0.511   1.412   2.981 -0.9580  3.7746  1.7248
  152SOL     OW  454   0.049   0.234   0.918 -0.1859 -1.0728 -0.3501
  152SOL    HW1  455   0.039   0.138   0.886 -3.1322 -0.7485 -2.9597
  152SOL    HW2  456   0.146   0.269   0.922  3.3607 -0.8348 -0.2051
  153SOL     OW  457   2.480   0.342   1.586  0.8888  0.5214  0.0817
  153SOL    HW1  458   2.497   0.298   1.676 -1.0321  0.7196 -1.8700
  153SOL    HW2  459   2.406   0.299   1.531 -2.2191  0.6638  2.3071
  154SOL     OW  460   1.595   0.379   2.282  0.1133 -0.4924  0.4712
  154SOL    HW1  461   1.623   0.473   2.250  0.2340  2.4936 -0.7331
  154SOL    HW2  462   1.542   0.331   2.209  1.4155  1.7599  0.0520
  155SOL     OW  463   2.986   1.837   0.257 -0.5562  0.6545  0.2629
  155SOL    HW1  464   3.012   1.875   0.170 -1.6023  0.2991 -0.4312
  155SOL    HW2  465   3.048   1.765   0.282 -1.0616  0.6366  1.5572
  156SOL     OW  466   2.802   1.770   2.983 -0.5575  0.8309  0.5029
  156SOL    HW1  467   2.884   1.823   3.016 -0.0679 -0.4235 -0.8014
  156SOL    HW2  468   2.744   1.736   3.058 -0.6825 -0.4341 -3.7216
  157SOL     OW  469   0.755   0.175   0.719 -0.2529 -0.1210  0.3518
  157SOL    HW1  470   0.674   0.116   0.735  0.5734 -0.7274  0.3379
  157SOL    HW2  471   0.757   0.200   0.620 -2.0004  2.6960  0.6698
  158SOL     OW  472   2.295   0.814   1.682  0.2342  0.3579  0.3414
  158SOL    HW1  473   2.326   0.742   1.748  0.9028  0.4830 -0.9846
  158SOL    HW2  474   2.311   0.766   1.590 -0.1328 -0.4735 -0.5769
  159SOL     OW  475   0.032   0.500   0.460 -1.1191 -0.4091  0.6462
  159SOL    HW1  476   0.012   0.434   0.533  2.7108  1.5603 -2.2883
  159SOL    HW2  477   0.024   0.464   0.363 -1.0783 -1.7339 -0.0741
  160SOL     OW  478   2.071   2.188   1.922  0.1687  0.0648 -0.3824
  160SOL    HW1  479   2.072   2.287   1.952  1.5833  1.2500 -2.4025
  160SOL    HW2  480   1.976   2.152   1.919  2.2281 -2.0500  1.5929
  161SOL     OW  481   2.964   0.574   2.604 -0.5183 -0.4259 -0.6189
  161SOL    HW1  482   3.055   0.617   2.622 -0.1425  0.5449 -0.4777
  161SOL    HW2  483   2.983   0.473   2.579 -1.3899 -0.1827 -0.4011
  162SOL     OW  484   0.986   2.491   1.454  0.0676  0.1494  0.6129
  162SOL    HW1  485   1.031   2.409   1.421 -0.6461  0.4248  0.2424
  162SOL    HW2  486   1.056   2.555   1.499  1.2024  1.2737  1.2734
  163SOL     OW  487   2.595   0.154   2.462 -0.0043  0.6056 -0.4285
  163SOL    HW1  488   2.643   0.084   2.408  1.4032 -0.9748 -0.6560
  163SOL    HW2  489   2.611   0.248   2.426 -1.0939 -2.6467 -0.9324
  164SOL     OW  490   2.187   1.870   0.055  0.0044  0.0134  0.6395
  164SOL    HW1  491   2.256   1.886   0.130 -0.0311 -2.0221  1.7248
  164SOL    HW2  492   2.217   1.803   3.095  2.1122  1.5267 -0.5593
  165SOL     OW  493   0.086   0.560   1.106  0.3149  0.0491  0.6924
  165SOL    HW1  494   0.146   0.490   1.057 -0.0266  1.4579  1.4497
  165SOL    HW2  495   3.101   0.541   1.096 -0.9186  0.0110  0.9520
  166SOL     OW  496   2.360   0.735   0.601 -0.5601 -0.2083  0.6623
  166SOL    HW1  497   2.412   0.750   0.684 -0.8925 -1.4321  0.5065
  166SOL    HW2  498   2.348   0.811   0.536 -1.8307 -2.0608 -1.3895
  167SOL     OW  499   2.762   0.931   3.068  0.0116 -0.0474 -0.0428
  167SOL    HW1  500   2.666   0.901   3.042 -2.9165 -0.8678 -0.2640
  167SOL    HW2  501   2.757   0.997   0.035 -3.3187  2.0441  3.4252
  168SOL     OW  502   1.523   0.213   2.899 -0.2572  0.4911  0.1262
  168SOL    HW1  503   1.613   0.249   2.923 -3.7274 -0.6859  0.6078
  168SOL    HW2  504   1.513   0.202   2.795 -2.2609  0.2989 -1.6244
  169SOL     OW  505   0.413   1.478   0.913  0.2928 -0.1253  0.0705
  169SOL    HW1  506   0.317   1.497   0.918  4.9337  0.1002 -0.9897
  169SOL    HW2  507   0.429   1.394   0.866  0.3386 -0.1401  2.1228
  170SOL     OW  508   3.083   0.828   1.264 -0.3087 -0.1335  0.0517
  170SOL    HW1  509   0.044   0.830   1.198 -0.8883  1.1570  1.7735
  170SOL    HW2  510   3.001   0.782   1.224  1.4967 -1.9367 -0.4467
  171SOL     OW  511   2.521   2.032   2.098 -0.2694 -0.4584  0.0112
  171SOL    HW1  512   2.606   2.028   2.045  0.2963  0.7442  0.2230
  171SOL    HW2  513   2.436   2.037   2.044  2.0367  0.4439  3.5559
  172SOL     OW  514   0.311   2.299   1.376 -0.0039  0.1982 -0.3752
  172SOL    HW1  515   0.257   2.240   1.309 -0.9238 -0.8231  0.3339
  172SOL    HW2  516   0.338   2.387   1.330 -0.3678  2.4697 -3.9752
  173SOL     OW  517   1.700   1.347   3.094  0.2646 -0.3373 -0.1208
  173SOL    HW1  518   1.646   1.289   3.031 -0.9174 -1.2591 -1.6137
  173SOL    HW2  519   1.763   1.411   3.044 -3.2249  0.3166 -2.9939
  174SOL     OW  520   1.367   0.588   2.771 -0.4615 -0.3971  0.4263
  174SOL    HW1  521   1.460   0.588   2.719  2.0843  0.9756  0.7404
  174SOL    HW2  522   1.380   0.617   2.866 -1.8195 -3.3426 -1.4796
  175SOL     OW  523   1.412   1.460   1.120  0.2224 -0.3730 -0.3891
  175SOL    HW1  524   1.413   1.536   1.183 -1.2615  0.2991  1.1185
  175SOL    HW2  525   1.344   1.470   1.048 -0.9377  1.1433  0.0926
  176SOL     OW  526   1.444   3.004   0.206 -0.0539  0.2104  0.3499
  176SOL    HW1  527   1.374   3.049   0.144  1.0906  1.5978 -1.6304
  176SOL    HW2  528   1.524   3.068   0.219  0.8646 -1.0380 -1.0649
  177SOL     OW  529   0.399   1.037   3.044 -0.5789  0.0741  0.5289
  177SOL    HW1  530   0.315   1.058   3.095  1.0205 -0.3215 -1.6887
  177SOL    HW2  531   0.482   1.023   3.102  0.1126  2.7435  0.4001
  178SOL     OW  532   2.298   2.566   2.131 -0.0993  0.2208  0.1905
  178SOL    HW1  533   2.317   2.573   2.234  0.1641  3.7808 -2.2499
  178SOL    HW2  534   2.384   2.579   2.074  0.3412 -2.3838  0.5370
  179SOL     OW  535   2.951   0.042   2.552 -0.2135  0.1069 -0.8480
  179SOL    HW1  536   2.882   0.063   2.630 -0.1869 -1.9855  0.5805
  179SOL    HW2  537   2.891   0.017   2.474 -0.4048  0.0189 -0.8530
  180SOL     OW  538   2.127   0.631   0.836  0.3245  0.0688  0.6304
  180SOL    HW1  539   2.203   0.561   0.830  1.5124 -1.7743  0.1061
  180SOL    HW2  540   2.170   0.723   0.842 -0.0019  1.8226 -1.5041
  181SOL     OW  541   2.108   1.135   2.420 -0.0605  0.2202 -0.1309
  181SOL    HW1  542   2.187   1.079   2.444 -1.5439  1.3662  0.7083
  181SOL    HW2  543   2.045   1.086   2.353  1.1424  2.2659 -2.3862
  182SOL     OW  544   2.677   2.313   2.066  0.1972  0.6524  0.2654
  182SOL    HW1  545   2.737   2.386   2.098 -0.4082 -1.8363  0.1647
  182SOL    HW2  546   2.608   2.278   2.138  0.2184 -2.5865  6.4931
  183SOL     OW  547   2.032   0.781   1.796  0.0793 -0.1269 -0.1601
  183SOL    HW1  548   2.097   0.731   1.730  1.4037  0.2135 -1.3229
  183SOL    HW2  549   2.066   0.781   1.891 -3.4515 -1.9528 -1.5937
  184SOL     OW  550   0.215   1.597   1.194 -0.3592  0.1945  0.0770
  184SOL    HW1  551   0.144   1.522   1.178 -0.0639 -3.3703  0.8246
  184SOL    HW2  552   0.296   1.556   1.243 -0.6843  1.5229  0.1358
  185SOL     OW  553   2.459   0.086   0.974 -0.1687 -0.1021 -0.0845
  185SOL    HW1  554   2.415   0.120   0.885 -1.3326  2.8080 -0.7014
  185SOL    HW2  555   2.530   0.015   0.951 -1.6455 -1.5081 -1.8639
  186SOL     OW  556   2.961   2.623   2.892  0.9142  0.4035  0.2005
  186SOL    HW1  557   2.878   2.559   2.897 -3.2317  1.6138 -1.4684
  186SOL    HW2  558   3.044   2.577   2.927 -2.9755 -0.8225  2.5011
  187SOL     OW  559   0.086   1.682   0.301 -0.1882 -0.5650 -0.7902
  187SOL    HW1  560   0.184   1.714   0.294  2.0091  0.6350  0.8296
  187SOL    HW2  561   0.080   1.578   0.297  0.3009 -3.0649  0.7834
  188SOL     OW  562   2.461   1.135   1.199  0.0807 -0.3585 -0.2668
  188SOL    HW1  563   2.379   1.177   1.163 -0.7350  2.3675 -0.0876
  188SOL    HW2  564   2.466   1.150   1.300 -2.1234  0.7146  0.6965
  189SOL     OW  565   3.054   0.317   2.475  0.3266 -0.2264 -0.0269
  189SOL    HW1  566   3.051   0.217   2.497  1.4927  0.4113 -0.8367
  189SOL    HW2  567   0.031   0.339   2.439 -3.3220  0.4038  0.1279
  190SOL     OW  568   1.730   0.771   1.862 -0.9873  0.2669  0.0352
  190SOL    HW1  569   1.678   0.760   1.773  0.2007 -0.6427 -0.6472
  190SOL    HW2  570   1.831   0.781   1.845  3.3458  1.8015  0.8030
  191SOL     OW  571   0.898   0.432   2.166  0.1250  0.2280  0.1604
  191SOL    HW1  572   0.951   0.349   2.191  2.4235  0.3912 -2.9113
  191SOL    HW2  573   0.954   0.515   2.185  0.9447 -0.0772  0.5135
  192SOL     OW  574   1.395   2.033   1.831 -0.1513  0.1846  0.5615
  192SOL    HW1  575   1.360   2.007   1.920 -2.2758  3.1937 -2.2930
  192SOL    HW2  576   1.403   1.952   1.757  2.1314 -0.4913 -2.5726
  193SOL     OW  577   1.488   0.230   0.876  0.5115  0.1884  0.4282
  193SOL    HW1  578   1.427   0.244   0.954  3.4843  1.1702 -0.3231
  193SOL    HW2  579   1.555   0.160   0.908 -1.1881  3.0134 -0.3594
  194SOL     OW  580   0.921   2.115   1.488  0.3695  0.3324  0.2685
  194SOL    HW1  581   0.998   2.173   1.452  1.8520 -1.3827 -1.5308
  194SOL    HW2  582   0.939   2.094   1.589  1.1097 -0.7766  2.6824
  195SOL     OW  583   1.481   0.589   0.291  0.2903  0.0433 -0.1087
  195SOL    HW1  584   1.553   0.653   0.319  0.4924  1.0113 -1.1160
  195SOL    HW2  585   1.513   0.517   0.227  1.0778  1.1767  1.8540
  196SOL     OW  586   0.795   1.497   1.998 -0.0663 -0.0438 -0.3849
  196SOL    HW1  587   0.865   1.427   2.019  0.2358  0.6016  1.3378
  196SOL    HW2  588   0.806   1.527   1.903 -0.1403  0.7008 -0.8536
  197SOL     OW  589   1.018   0.483   1.504 -0.1462  0.3955 -0.1740
  197SOL    HW1  590   0.931   0.457   1.449 -2.5206  0.3147 -3.0251
  197SOL    HW2  591   1.104   0.470   1.452 -3.3366  1.2100  0.8290
  198SOL     OW  592   0.940   1.216   1.107 -0.1987  0.3105  0.1932
  198SOL    HW1  593   0.990   1.128   1.068  3.4961 -2.5442 -0.6847
  198SOL    HW2  594   0.842   1.191   1.127 -3.7820 -3.8614 -0.5810
  199SOL     OW  595   0.228   2.460   1.652 -0.4074 -0.3187 -0.4682
  199SOL    HW1  596   0.185   2.513   1.577  0.7531 -0.1092 -1.3954
  199SOL    HW2  597   0.318   2.500   1.674 -1.3808  0.3645  0.2244
  200SOL     OW  598   1.395   1.136   2.044  0.1988 -0.6301 -0.2843
  200SOL    HW1  599   1.365   1.195   2.123  1.2546  1.3366  0.3233
  200SOL    HW2  600   1.346   1.148   1.956 -1.2150 -0.6316  0.8105
  201SOL     OW  601   0.614   1.904   2.079 -0.0830  0.0664 -0.3350
  201SOL    HW1  602   0.686   1.977   2.070  1.6414  0.7124 -1.4486
  201SOL    HW2  603   0.654   1.816   2.040  1.1275  0.1435 -0.3650
  202SOL     OW  604   1.096   3.102   0.281  0.1461 -0.0114  0.3837
  202SOL    HW1  605   1.157   3.108   0.197 -0.1325 -2.4497 -1.6507
  202SOL    HW2  606   1.099   3.012   0.322  1.8375  2.3583 -2.0577
  203SOL     OW  607   1.527   0.137   2.631 -0.0431  0.0674  1.0157
  203SOL    HW1  608   1.552   0.047   2.675 -0.4333 -1.7186  1.8801
  203SOL    HW2  609   1.607   0.167   2.577 -1.3786  1.5675 -0.3657
  204SOL     OW  610   0.823   1.776   1.770  0.0705 -0.3242 -0.0078
  204SOL    HW1  611   0.917   1.769   1.806  0.0026  1.7990  0.1052
  204SOL    HW2  612   0.788   1.687   1.742 -0.8763 -0.5696  0.5114
  205SOL     OW  613   1.760   1.509   2.392  0.6339 -0.0025 -0.3385
  205SOL    HW1  614   1.796   1.462   2.306  2.9080 -0.8305 -1.6648
  205SOL    HW2  615   1.799   1.603   2.395  0.8544 -1.7821  3.1273
  206SOL     OW  616   0.189   1.720   2.363  0.7304 -0.1231 -0.4773
  206SOL    HW1  617   0.245   1.745   2.444 -1.2502 -0.2262  1.0160
  206SOL    HW2  618   0.094   1.699   2.400 -0.3043  1.6865  0.5569
  207SOL     OW  619   1.433   2.906   1.544  0.2406 -0.4067 -0.3164
  207SOL    HW1  620   1.449   2.842   1.621 -0.8851 -2.7004 -1.9187
  207SOL    HW2  621   1.351   2.965   1.554 -2.0754 -2.0106 -0.0345
  208SOL     OW  622   0.510   2.537   1.734  0.3596  0.6668 -0.8810
  208SOL    HW1  623   0.538   2.490   1.822  1.5069 -2.5051 -0.9302
  208SOL    HW2  624   0.583   2.511   1.669  1.5022  2.3358 -0.6233
  209SOL     OW  625   1.460   2.668   0.516 -0.4642  0.1783 -0.0614
  209SOL    HW1  626   1.415   2.647   0.604  0.7450 -1.0682 -1.4131
  209SOL    HW2  627   1.433   2.757   0.481  1.2398  2.9458  2.6874
  210SOL     OW  628   2.850   1.046   0.955  0.0214  0.0377  0.0399
  210SOL    HW1  629   2.882   0.990   0.877 -0.2243  0.6124  1.2642
  210SOL    HW2  630   2.758   1.023   0.986  0.4233  0.4849 -3.2292
  211SOL     OW  631   0.523   0.195   2.012  0.3241  0.2143 -0.4473
  211SOL    HW1  632   0.599   0.141   1.970  0.0473  0.9893 -0.2703
  211SOL    HW2  633   0.444   0.192   1.951  0.7470  3.0317  0.6264
  212SOL     OW  634   1.293   2.242   1.713  0.2017  0.0982 -0.3799
  212SOL    HW1  635   1.358   2.308   1.752 -0.3638  1.6578 -0.7266
  212SOL    HW2  636   1.309   2.147   1.746  1.1496 -1.2812  0.3211
  213SOL     OW  637   2.941   0.384   1.535 -0.1645  0.1151 -0.8546
  213SOL    HW1  638   2.982   0.303   1.487 -1.1031 -0.8835 -1.8524
  213SOL    HW2  639   2.846   0.402   1.505  1.1961  2.4835 -0.5432
  214SOL     OW  640   0.829   2.708   1.732  0.7173 -0.6575  0.5921
  214SOL    HW1  641   0.770   2.642   1.675 -1.8132 -2.4096 -0.3734
  214SOL    HW2  642   0.775   2.765   1.797  1.3833 -0.3104  0.2071
  215SOL     OW  643   2.493   1.805   1.394 -0.1341  0.1789 -0.1975
  215SOL    HW1  644   2.443   1.854   1.468  0.9042  1.9082  1.0763
  215SOL    HW2  645   2.509   1.709   1.421 -0.6769  1.9644 -1.0727
  216SOL     OW  646   0.522   0.959   2.011  0.4118 -0.0622  0.2060
  216SOL    HW1  647   0.453   1.034   1.991  0.1447  0.2182  1.4623
  216SOL    HW2  648   0.581   0.947   1.926 -2.2035  0.3677  0.4130
  217SOL     OW  649   2.695   0.127   1.446  0.4140  0.0508  0.3433
  217SOL    HW1  650   2.621   0.189   1.477  1.4591  0.8614  1.0400
  217SOL    HW2  651   2.746   0.160   1.368 -3.0536 -0.3066 -1.2428
  218SOL     OW  652   1.503   2.249   1.059  0.2328  0.0934 -0.2043
  218SOL    HW1  653   1.453   2.202   0.983  0.6600  0.4801 -0.3973
  218SOL    HW2  654   1.605   2.261   1.042  1.1563  1.0725 -0.2861
  219SOL     OW  655   1.696   2.760   0.378 -0.1881  0.2966 -0.1680
  219SOL    HW1  656   1.625   2.743   0.449  0.4798 -0.3148  0.6030
  219SOL    HW2  657   1.662   2.720   0.292 -3.7562 -2.8687 -1.4686
  220SOL     OW  658   1.605   2.436   0.218  0.6819 -0.5918 -0.2547
  220SOL    HW1  659   1.513   2.436   0.261  0.5115 -1.3656 -0.8465
  220SOL    HW2  660   1.609   2.527   0.169 -0.4421 -1.4512  0.6444
  221SOL     OW  661   2.556   2.039   0.941 -0.6660 -0.0341 -0.3704
  221SOL    HW1  662   2.560   2.024   0.839  0.6647 -0.0117  0.0774
  221SOL    HW2  663   2.538   1.950   0.989 -0.3418 -2.3753  1.8580
  222SOL     OW  664   1.006   2.351   1.080  0.1100  1.0275 -0.2197
  222SOL    HW1  665   0.989   2.329   0.979  1.5544  2.2856 -1.2124
  222SOL    HW2  666   0.918   2.334   1.130  4.9981 -2.3963  1.3806
  223SOL     OW  667   0.888   2.802   2.960 -0.8033  0.1744  0.4891
  223SOL    HW1  668   0.796   2.800   2.919  0.2215 -2.7653  1.7000
  223SOL    HW2  669   0.885   2.767   3.056  0.4345  2.1427  0.1746
  224SOL     OW  670   0.008   1.065   0.993  0.6107 -0.9397 -0.0668
  224SOL    HW1  671   3.022   1.076   1.004 -1.1656 -2.4130  2.3212
  224SOL    HW2  672   0.032   0.967   0.977 -1.6390 -0.2516 -2.5616
  225SOL     OW  673   2.951   1.743   0.906 -0.1232 -0.1787  0.1293
  225SOL    HW1  674   3.001   1.831   0.888  0.5446  1.0368 -1.5239
  225SOL    HW2  675   3.014   1.664   0.903  1.1493  0.4963 -1.7513
  226SOL     OW  676   0.993   2.718   1.043  0.5230 -0.3045  0.1314
  226SOL    HW1  677   0.993   2.729   0.940 -2.1411  0.2757 -0.2237
  226SOL    HW2  678   1.089   2.726   1.074 -1.2929 -0.1813  0.7970
  227SOL     OW  679   1.091   1.311   1.337  0.1632  0.3437 -0.1336
  227SOL    HW1  680   1.024   1.246   1.291  0.1464  0.8564 -0.8123
  227SOL    HW2  681   1.080   1.407   1.312  0.7542  0.6482  1.8125
  228SOL     OW  682   1.429   0.245   2.075 -0.3510 -0.1199  0.5457
  228SOL    HW1  683   1.480   0.152   2.066  0.9342 -4.3487 -1.5785
  228SOL    HW2  684   1.367   0.251   2.152  1.2330  0.3883 -0.9599
  229SOL     OW  685   2.892   0.755   2.403  0.3496 -0.5094  0.4829
  229SOL    HW1  686   2.885   0.711   2.305 -1.3396  0.0827 -0.5658
  229SOL    HW2  687   2.891   0.680   2.473 -0.2666 -1.6974 -0.5651
  230SOL     OW  688   0.195   1.137   0.818 -0.2085 -0.3137 -0.0929
  230SOL    HW1  689   0.177   1.206   0.741  1.1710  3.1715 -4.2843
  230SOL    HW2  690   0.116   1.122   0.878  5.2340  0.4653  2.1534
  231SOL     OW  691   1.727   0.215   2.478  0.4706 -0.2194 -0.5907
  231SOL    HW1  692   1.680   0.295   2.429 -0.7822  0.7105 -1.5469
  231SOL    HW2  693   1.762   0.145   2.413 -0.1329 -0.4710  0.7425
  232SOL     OW  694   0.399   1.695   3.052  0.1831  0.6929  0.0640
  232SOL    HW1  695   0.431   1.755   2.976  3.7687  1.7643 -2.4667
  232SOL    HW2  696   0.390   1.601   3.016  2.8801  0.1549  0.1118
  233SOL     OW  697   1.198   2.345   3.027 -0.3624  0.2686  0.0748
  233SOL    HW1  698   1.284   2.298   3.038 -0.6590  1.5313 -0.1294
  233SOL    HW2  699   1.175   2.360   2.929  0.3125  0.8945 -0.4533
  234SOL     OW  700   1.149   1.506   2.175  0.7661  0.0863 -0.6806
  234SOL    HW1  701   1.238   1.465   2.193  1.1798  0.0543 -0.2596
  234SOL    HW2  702   1.082   1.485   2.252  1.0368  0.1100  0.8000
  235SOL     OW  703   0.196   1.997   1.847 -0.2569  0.1875  0.2651
  235SOL    HW1  704   0.248   1.931   1.912  0.4932 -2.9465  1.5172
  235SOL    HW2  705   0.225   2.097   1.850 -0.0027 -0.4488 -2.9874
  236SOL     OW  706   1.689   2.238   2.777 -0.5003 -0.2113  0.0966
  236SOL    HW1  707   1.599   2.238   2.827 -0.2595 -1.9258  1.7532
  236SOL    HW2  708   1.754   2.307   2.818  3.0353  0.9655  1.6696
  237SOL     OW  709   1.556   0.488   0.838 -0.0621 -0.0971 -0.7199
  237SOL    HW1  710   1.645   0.520   0.804  0.1490  0.4210 -0.1464
  237SOL    HW2  711   1.538   0.386   0.826 -0.1946 -1.4884  0.3587
  238SOL     OW  712   0.942   0.124   2.635  0.3723  0.6109 -0.4958
  238SOL    HW1  713   0.850   0.118   2.589 -3.2971  1.4234  3.4325
  238SOL    HW2  714   1.004   0.047   2.602 -0.0970 -3.3209  0.1966
  239SOL     OW  715   1.161   3.013   1.811 -0.0081 -0.2685 -0.4219
  239SOL    HW1  716   1.135   2.968   1.726  0.4197  1.9444 -0.3093
  239SOL    HW2  717   1.170   3.115   1.799 -2.2550  3.8246  0.4382
  240SOL     OW  718   2.416   2.628   0.864 -0.5823  0.0194  0.4522
  240SOL    HW1  719   2.486   2.563   0.830 -0.8071 -0.7889 -0.2845
  240SOL    HW2  720   2.393   2.611   0.961  2.6657  0.2077  0.0717
  241SOL     OW  721   1.411   1.373   1.703 -0.3819  0.1237  0.0829
  241SOL    HW1  722   1.490   1.308   1.702 -1.9003 -0.8941  0.7679
  241SOL    HW2  723   1.327   1.329   1.744 -0.8907 -1.9465  1.2410
  242SOL     OW  724   2.623   0.695   0.389 -1.0010  0.2415 -0.0904
  242SOL    HW1  725   2.705   0.639   0.352  2.3657  1.5440 -0.7910
  242SOL    HW2  726   2.533   0.663   0.348  0.9110  0.1124  1.0384
  243SOL     OW  727   0.884   0.856   1.074  0.4381  0.1773  0.3067
  243SOL    HW1  728   0.928   0.814   1.156  0.9790 -1.8325 -0.5388
  243SOL    HW2  729   0.952   0.903   1.014 -1.0081  0.1822  0.7446
  244SOL     OW  730   1.336   0.224   3.096 -0.3907  0.1128 -0.6982
  244SOL    HW1  731   1.256   0.276   3.056  1.2331 -0.0497 -0.5835
  244SOL    HW2  732   1.399   0.196   3.022  0.6968  0.6430  0.3804
  245SOL     OW  733   1.815   0.221   3.002  0.0872 -0.4471 -0.5702
  245SOL    HW1  734   1.892   0.228   3.066 -2.8026 -0.0622 -0.4156
  245SOL    HW2  735   1.815   0.127   2.967 -1.2397 -1.1571 -1.4978
  246SOL     OW  736   0.987   0.768   1.304 -0.1848  0.2790 -0.0478
  246SOL    HW1  737   0.988   0.751   1.404  2.8043  0.3158 -1.0380
  246SOL    HW2  738   1.053   0.700   1.265 -1.1480  1.2480 -3.6370
  247SOL     OW  739   0.547   0.088   2.271  0.7676  0.4576  0.3594
  247SOL    HW1  740   0.472   0.066   2.335  0.2664  1.6178 -1.0016
  247SOL    HW2  741   0.507   0.116   2.183  1.6892  1.3273 -1.7824
  248SOL     OW  742   0.224   1.614   1.650  0.5684  0.9030  0.5707
  248SOL    HW1  743   0.124   1.608   1.645 -5.0227  1.4607  0.1907
  248SOL    HW2  744   0.258   1.711   1.642 -0.8655  1.3307  1.7345
  249SOL     OW  745   3.045   0.064   2.887  0.2951  0.1552 -0.0074
  249SOL    HW1  746   3.038   3.091   2.845  0.2969  0.4308  0.7013
  249SOL    HW2  747   0.009   0.067   2.956  4.0883  2.3535  0.0413
  250SOL     OW  748   2.895   0.025   0.350  0.0751 -0.0860  0.3523
  250SOL    HW1  749   2.865   3.114   0.447  1.8353 -2.2309  0.4235
  250SOL    HW2  750   2.925   3.055   0.300 -0.6618 -2.2939  0.5080
  251SOL     OW  751   0.791   1.554   1.154  0.8882 -0.4641  0.0245
  251SOL    HW1  752   0.840   1.531   1.068 -1.9486 -0.1738 -0.3258
  251SOL    HW2  753   0.702   1.499   1.158 -1.4701 -0.1235  0.8836
  252SOL     OW  754   1.695   2.884   1.463  0.3608  0.3511  0.3425
  252SOL    HW1  755   1.703   2.877   1.361 -1.3755 -0.9099 -0.6184
  252SOL    HW2  756   1.607   2.933   1.485  2.1083  1.6735  0.9329
  253SOL     OW  757   2.381   1.928   2.878 -0.0293  0.2296  0.4028
  253SOL    HW1  758   2.415   2.024   2.893 -0.3650 -0.7645  1.7360
  253SOL    HW2  759   2.463   1.862   2.863  0.0723 -1.9235 -2.1788
  254SOL     OW  760   0.357   1.861   2.020 -0.3278 -0.2137  0.0456
  254SOL    HW1  761   0.454   1.891   2.037  0.9229  1.7100 -0.9831
  254SOL    HW2  762   0.351   1.768   2.056  0.7204  3.5749  0.1941
  255SOL     OW  763   1.045   0.197   1.564 -0.2084 -0.4529  0.2361
  255SOL    HW1  764   1.007   0.288   1.570 -0.3739  0.0051  2.6254
  255SOL    HW2  765   0.960   0.134   1.549 -3.1494 -1.3915 -0.6045
  256SOL     OW  766   2.390   2.204   1.298 -0.6144  0.2074  0.1597
  256SOL    HW1  767   2.331   2.140   1.249 -2.5278 -0.5619  0.4216
  256SOL    HW2  768   2.394   2.294   1.246  1.9105 -0.0717 -0.5845
  257SOL     OW  769   0.524   2.562   2.852  0.4862  0.4693  0.5066
  257SOL    HW1  770   0.422   2.563   2.830 -0.9527  0.3966  1.0451
  257SOL    HW2  771   0.536   2.513   2.939 -1.7932 -0.7187 -1.7250
  258SOL     OW  772   0.693   1.741   2.848  0.4754  0.3610 -0.2030
  258SOL    HW1  773   0.713   1.839   2.818 -1.2382  2.1171 -0.4507
  258SOL    HW2  774   0.640   1.695   2.772 -0.8280 -0.5895 -4.0464
  259SOL     OW  775   0.563   1.596   2.663 -0.1268 -0.2278 -0.0939
  259SOL    HW1  776   0.604   1.630   2.576 -0.1090  1.4519 -0.2727
  259SOL    HW2  777   0.522   1.502   2.649  1.2562 -1.2605 -0.3345
  260SOL     OW  778   2.308   1.284   1.747 -0.4171 -0.1238 -0.0225
  260SOL    HW1  779   2.370   1.360   1.780  0.6157 -2.2350  1.3940
  260SOL    HW2  780   2.250   1.312   1.671  0.3432 -4.8628  0.6643
  261SOL     OW  781   1.507   0.788   0.860 -0.3444  0.0114  0.1044
  261SOL    HW1  782   1.499   0.688   0.851 -1.7571  0.4471 -0.0160
  261SOL    HW2  783   1.471   0.817   0.954 -3.6556 -1.4223  0.5239
  262SOL     OW  784   1.726   2.335   2.533 -0.1572 -0.3745 -0.4101
  262SOL    HW1  785   1.816   2.314   2.483  0.2371 -0.2933 -1.3711
  262SOL    HW2  786   1.732   2.290   2.621  0.2308 -0.2022 -4.5836
  263SOL     OW  787   0.120   1.752   3.094 -0.2234  0.0177  0.1073
  263SOL    HW1  788   0.057   1.670   3.075 -0.6818 -3.6897  1.1697
  263SOL    HW2  789   0.221   1.725   3.099 -1.2961 -1.2761 -1.6147
  264SOL     OW  790   0.449   1.977   1.251  0.2500 -0.1195  0.1617
  264SOL    HW1  791   0.522   2.046   1.275 -2.3602  2.8505  1.1914
  264SOL    HW2  792   0.482   1.882   1.249 -2.6581  0.2915 -1.1351
  265SOL     OW  793   0.780   1.069   0.302 -0.0731  0.4233 -0.2246
  265SOL    HW1  794   0.871   1.027   0.304 -0.8609 -0.5147 -1.1536
  265SOL    HW2  795   0.779   1.169   0.333  1.7758  1.2656  1.9616
  266SOL     OW  796   1.196   1.762   3.081 -0.2522 -0.3132  0.2878
  266SOL    HW1  797   1.220   1.678   0.018 -0.9300  2.9462 -1.5277
  266SOL    HW2  798   1.110   1.744   3.033  1.5759  2.7880  0.3995
  267SOL     OW  799   0.759   0.793   2.089  0.2703 -0.2058 -0.1037
  267SOL    HW1  800   0.730   0.815   1.991 -0.7989  1.3796 -2.7390
  267SOL    HW2  801   0.675   0.785   2.146 -1.3185  0.9619  1.6468
  268SOL     OW  802   0.319   0.780   2.835 -0.2484 -0.4005  0.1062
  268SOL    HW1  803   0.410   0.824   2.836 -0.2272  0.7510  1.5472
  268SOL    HW2  804   0.286   0.767   2.932  1.3959 -0.9147 -1.1973
  269SOL     OW  805   1.703   2.852   2.559 -0.5712 -0.3784 -0.0405
  269SOL    HW1  806   1.700   2.879   2.461 -1.8931 -0.0543 -2.1607
  269SOL    HW2  807   1.649   2.766   2.568  2.3505  0.2107  0.4662
  270SOL     OW  808   0.992   1.446   2.386 -0.5237 -0.9494 -0.1741
  270SOL    HW1  809   0.917   1.415   2.447  0.7016  0.2767  1.3400
  270SOL    HW2  810   1.063   1.492   2.443  1.6961  1.2864 -0.0437
  271SOL     OW  811   0.119   0.103   3.094  0.4192  0.1596  0.1258
  271SOL    HW1  812   0.150   0.194   0.015  0.6611 -1.3990 -0.2411
  271SOL    HW2  813   0.193   0.057   3.038  0.7673  0.1813 -1.2056
  272SOL     OW  814   2.254   0.850   0.257 -0.0264 -0.0598  0.3775
  272SOL    HW1  815   2.223   0.862   0.351  1.8384 -1.7792  0.8542
  272SOL    HW2  816   2.289   0.936   0.218  1.0796  1.7745 -1.1156
  273SOL     OW  817   0.104   0.002   2.016  0.2728 -0.0306 -0.2441
  273SOL    HW1  818   0.037   0.046   1.953  2.0999  0.8854  1.9134
  273SOL    HW2  819   0.197   0.044   2.010 -0.1161  0.2534 -0.3932
  274SOL     OW  820   3.012   0.359   1.798 -0.0681  0.1555 -0.1151
  274SOL    HW1  821   3.092   0.417   1.827 -0.7180 -0.2591  0.4235
  274SOL    HW2  822   2.980   0.380   1.702  0.7434  2.3211 -2.7359
  275SOL     OW  823   1.490   1.641   0.651 -0.1461 -0.5237 -0.0351
  275SOL    HW1  824   1.404   1.591   0.661  1.3845 -0.0107  2.5627
  275SOL    HW2  825   1.545   1.649   0.736 -0.3137 -1.3290  0.3675
  276SOL     OW  826   0.501   0.814   2.227 -0.5246 -0.2024 -0.3329
  276SOL    HW1  827   0.497   0.861   2.319 -1.0118 -3.2726  2.3946
  276SOL    HW2  828   0.500   0.876   2.146 -2.2241  2.1364  0.1406
  277SOL     OW  829   1.846   2.422   2.180  0.0649 -0.0526  0.2668
  277SOL    HW1  830   1.777   2.379   2.120  0.3671  0.2033 -0.9251
  277SOL    HW2  831   1.824   2.523   2.184 -0.3222  0.1027 -0.9126
  278SOL     OW  832   1.770   2.932   2.300  0.2159 -0.2190  0.1453
  278SOL    HW1  833   1.857   2.934   2.358 -0.1206  2.0743  1.1850
  278SOL    HW2  834   1.766   3.024   2.250 -1.4950  2.5272 -0.6165
  279SOL     OW  835   1.886   1.141   0.082 -0.0946  0.3860  0.0614
  279SOL    HW1  836   1.819   1.221   0.075  0.5898 -1.4575 -3.0903
  279SOL    HW2  837   1.980   1.159   0.118  0.2819  0.1895  0.9039
  280SOL     OW  838   0.853   1.063   3.017 -0.3178 -0.3236  0.8434
  280SOL    HW1  839   0.874   1.165   3.031 -2.3920  2.1897  2.3023
  280SOL    HW2  840   0.940   1.016   3.033  1.4148 -1.7402 -1.9434
  281SOL     OW  841   3.013   0.142   1.435  0.0568  0.1308  0.0008
  281SOL    HW1  842   3.093   0.111   1.494  0.0460 -0.6745 -1.4842
  281SOL    HW2  843   3.031   0.126   1.335  0.1803 -0.4612  1.6953
  282SOL     OW  844   2.926   2.287   0.772  0.3057 -0.4150  0.5936
  282SOL    HW1  845   3.010   2.324   0.814 -2.1956 -1.1781  0.1814
  282SOL    HW2  846   2.849   2.352   0.802 -1.0603  1.7688 -1.5433
  283SOL     OW  847   1.353   1.904   2.084 -0.0539  0.3702  0.1926
  283SOL    HW1  848   1.424   1.839   2.116  0.5033 -2.7392  1.3339
  283SOL    HW2  849   1.266   1.863   2.067  2.5066  1.0401 -0.1299
  284SOL     OW  850   1.689   0.149   0.487  0.4953  0.2039 -0.0555
  284SOL    HW1  851   1.678   0.130   0.387  0.5948 -1.7165  0.0330
  284SOL    HW2  852   1.600   0.117   0.533 -1.6332 -0.1316  0.2318
  285SOL     OW  853   2.920   2.720   2.642 -0.0637 -0.4625 -0.3529
  285SOL    HW1  854   2.847   2.786   2.629  1.5834  0.8774  1.4791
  285SOL    HW2  855   2.924   2.699   2.740  1.7538  3.1443 -1.9114
  286SOL     OW  856   2.403   2.594   1.252 -0.4131 -0.1577  0.5729
  286SOL    HW1  857   2.407   2.567   1.347  2.4944  0.9627 -0.2682
  286SOL    HW2  858   2.452   2.522   1.194  0.0201 -1.4018  1.1546
  287SOL     OW  859   0.625   1.333   0.591 -0.0107  0.3713 -0.1419
  287SOL    HW1  860   0.559   1.324   0.666  3.1199 -1.1457  0.0505
  287SOL    HW2  861   0.597   1.400   0.519  1.0929 -3.4418 -1.3677
  288SOL     OW  862   2.147   1.824   2.782  0.1140  0.6006 -0.1706
  288SOL    HW1  863   2.067   1.823   2.850 -0.1617  1.0365  1.2151
  288SOL    HW2  864   2.237   1.839   2.831 -0.5077  2.0002 -1.3120
  289SOL     OW  865   0.093   1.756   2.747 -0.0539  0.3922 -0.0941
  289SOL    HW1  866   3.113   1.755   2.775  1.1344 -3.1708 -1.2884
  289SOL    HW2  867   0.133   1.665   2.769  1.6110  0.6370 -0.0139
  290SOL     OW  868   1.092   1.988   1.100 -0.4397 -0.3085  0.2035
  290SOL    HW1  869   1.097   1.904   1.048 -3.3486 -2.0349  0.8611
  290SOL    HW2  870   0.997   2.012   1.123  1.5324 -2.4210 -1.2364
  291SOL     OW  871   1.833   1.049   2.924  0.2724  0.5370 -0.2345
  291SOL    HW1  872   1.866   1.089   2.840 -0.7091 -0.4273  0.1895
  291SOL    HW2  873   1.903   1.063   2.998  0.8433  2.3312 -2.2318
  292SOL     OW  874   1.245   1.484   0.646 -0.0312 -0.1802 -0.1706
  292SOL    HW1  875   1.144   1.506   0.648  1.4144 -0.4672  3.3612
  292SOL    HW2  876   1.267   1.395   0.684 -0.5107  3.1101  0.6855
  293SOL     OW  877   1.743   2.633   0.973 -1.0342 -0.2722 -0.2567
  293SOL    HW1  878   1.816   2.626   0.901 -1.8671  0.9788  0.8548
  293SOL    HW2  879   1.657   2.672   0.936 -0.6999 -1.5870 -1.9202
  294SOL     OW  880   2.528   1.303   2.836  0.3058  0.0191 -0.3139
  294SOL    HW1  881   2.463   1.286   2.762  1.3773 -0.9839  0.6659
  294SOL    HW2  882   2.618   1.318   2.796 -0.5189  0.4618 -2.6715
  295SOL     OW  883   1.600   2.195   2.334  0.3393  0.0425 -0.2611
  295SOL    HW1  884   1.636   2.268   2.399  3.7392 -0.5998  0.3320
  295SOL    HW2  885   1.613   2.231   2.241 -0.0806 -0.8406 -1.0079
  296SOL     OW  886   1.722   0.522   1.963 -0.4530  0.5190 -0.0874
  296SOL    HW1  887   1.708   0.610   1.914  0.8221  1.2092  1.3702
  296SOL    HW2  888   1.715   0.532   2.063  0.3268 -0.5807  2.0840
  297SOL     OW  889   3.109   0.759   2.023 -0.0578 -0.1129  0.6832
  297SOL    HW1  890   3.026   0.740   2.079  2.2425  3.3182  1.1923
  297SOL    HW2  891   3.101   0.841   1.961  0.5964  1.6353 -2.0587
  298SOL     OW  892   1.125   2.698   2.099  0.0274 -0.0286  0.4219
  298SOL    HW1  893   1.097   2.662   2.008  2.4854  1.2489  1.1896
  298SOL    HW2  894   1.089   2.643   2.177 -3.6130  1.9014 -1.0244
  299SOL     OW  895   1.153   2.491   2.781 -0.6395  0.3770 -0.0792
  299SOL    HW1  896   1.144   2.586   2.808  2.4768 -0.2855 -2.5339
  299SOL    HW2  897   1.220   2.483   2.708  0.1962  0.3376 -1.2240
  300SOL     OW  898   2.850   1.067   2.835  0.0216  0.3545 -0.3594
  300SOL    HW1  899   2.843   1.014   2.923 -0.5233 -0.2077  0.7988
  300SOL    HW2  900   2.814   1.015   2.758 -0.7201 -0.3560 -0.4992
  301SOL     OW  901   1.826   1.089   1.681 -0.1471 -0.0808  0.5228
  301SOL    HW1  902   1.879   1.062   1.601 -0.1323  0.6808 -1.6815
  301SOL    HW2  903   1.844   1.183   1.702 -1.3476 -2.7633  0.6938
  302SOL     OW  904   2.664   1.959   2.520  0.2943 -0.0537 -0.4758
  302SOL    HW1  905   2.660   1.856   2.532 -1.3782 -0.1949  0.8118
  302SOL    HW2  906   2.571   1.999   2.525 -1.5497  0.4445  0.3456
  303SOL     OW  907   0.323   2.808   2.307  0.7487  0.2906  0.4763
  303SOL    HW1  908   0.263   2.874   2.356 -0.2374  0.2433  0.3564
  303SOL    HW2  909   0.278   2.785   2.216 -1.8643  0.6425 -1.5733
  304SOL     OW  910   0.101   0.806   0.927  0.0943  0.6507  0.4190
  304SOL    HW1  911   0.199   0.837   0.926  0.5576  0.0604 -2.9328
  304SOL    HW2  912   0.100   0.721   0.985 -0.2595 -0.5763  3.3319
  305SOL     OW  913   2.797   0.464   1.928  0.3273  0.7132 -0.0096
  305SOL    HW1  914   2.882   0.444   1.876  2.5766 -1.3860  3.9706
  305SOL    HW2  915   2.766   0.381   1.980 -1.2919  1.4176  1.0771
  306SOL     OW  916   2.427   1.160   1.469  0.1733 -0.1840 -0.1012
  306SOL    HW1  917   2.440   1.129   1.564  2.4041  1.0866  1.0060
  306SOL    HW2  918   2.322   1.165   1.457 -2.4096 -0.1715  0.3821
  307SOL     OW  919   2.638   3.037   0.846 -1.0092 -0.2394 -0.4676
  307SOL    HW1  920   2.724   3.099   0.845  2.3422  0.0604  2.6644
  307SOL    HW2  921   2.661   2.949   0.892  2.5926 -1.1446 -0.7775
  308SOL     OW  922   2.802   1.803   1.316  0.5430 -0.0771  0.0391
  308SOL    HW1  923   2.823   1.733   1.243 -1.5664  0.2975  0.1273
  308SOL    HW2  924   2.758   1.760   1.398  1.3055  2.2619  0.9904
  309SOL     OW  925   2.181   2.155   1.670  0.5013  0.2100 -0.2706
  309SOL    HW1  926   2.147   2.218   1.594 -1.7816  0.8161  0.3462
  309SOL    HW2  927   2.115   2.145   1.743  0.0031  0.2592 -4.2786
  310SOL     OW  928   2.100   1.358   2.619  0.2044  0.4161 -0.5764
  310SOL    HW1  929   2.088   1.457   2.607  0.1159 -2.3802  0.2727
  310SOL    HW2  930   2.047   1.308   2.551  1.2551  0.0548 -0.2263
  311SOL     OW  931   2.155   1.173   2.981  0.6697 -0.0763  0.2022
  311SOL    HW1  932   2.136   1.090   2.922 -1.7238  0.5629  1.3579
  311SOL    HW2  933   2.202   1.144   3.065 -1.8562  1.3023  0.7834
  312SOL     OW  934   1.180   2.294   2.154  0.0743  0.0718  0.1018
  312SOL    HW1  935   1.234   2.234   2.219 -0.2032 -1.7288 -0.9467
  312SOL    HW2  936   1.087   2.313   2.188  3.1091  1.4287  2.4132
  313SOL     OW  937   0.519   3.107   0.781  0.4139  0.7532  0.2381
  313SOL    HW1  938   0.450   3.031   0.762  0.2051  1.9251 -0.9827
  313SOL    HW2  939   0.612   3.064   0.796 -2.4385  0.1029 -4.2053
  314SOL     OW  940   0.658   1.783   1.232 -0.6272 -0.2416 -0.2343
  314SOL    HW1  941   0.697   1.784   1.327 -0.6987  0.7794  1.0709
  314SOL    HW2  942   0.708   1.711   1.180 -0.4279  1.0509  0.1347
  315SOL     OW  943   0.866   2.537   2.065 -0.3682  0.4863  0.1374
  315SOL    HW1  944   0.908   2.609   2.002  0.6996  0.0148 -1.4527
  315SOL    HW2  945   0.841   2.567   2.159 -1.6081  1.1463 -1.0751
  316SOL     OW  946   0.118   2.115   1.007 -0.3939  0.0114  0.0055
  316SOL    HW1  947   0.098   2.134   1.109  1.1304  2.6956  0.6946
  316SOL    HW2  948   0.219   2.087   1.005 -0.4203 -0.9603  1.0344
  317SOL     OW  949   1.915   0.664   0.511  0.1810 -0.0671 -0.2042
  317SOL    HW1  950   1.853   0.616   0.579  0.0466 -2.9763  0.0376
  317SOL    HW2  951   1.971   0.599   0.454 -1.8820  1.0104 -1.3051
  318SOL     OW  952   2.365   2.617   3.015 -0.0290  0.2976 -0.3826
  318SOL    HW1  953   2.418   2.627   3.101  1.5137  0.3670  1.6239
  318SOL    HW2  954   2.372   2.524   2.976 -2.0358 -0.6461 -0.4410
  319SOL     OW  955   1.366   1.942   2.993 -0.3629 -0.1126  0.7891
  319SOL    HW1  956   1.355   1.954   2.889 -2.6045  0.5677 -1.2082
  319SOL    HW2  957   1.294   1.875   3.025 -0.4788  1.2675  0.6281
  320SOL     OW  958   0.646   2.389   2.661  0.3066 -0.3526  0.2069
  320SOL    HW1  959   0.613   2.453   2.735 -1.2006 -2.0175  3.1503
  320SOL    HW2  960   0.744   2.363   2.672  0.3214  0.2100 -1.0560
  321SOL     OW  961   0.881   2.692   0.105  0.2119 -0.4278  0.3688
  321SOL    HW1  962   0.961   2.632   0.120  0.7438  2.9394 -1.5447
  321SOL    HW2  963   0.887   2.776   0.159  0.7296  1.1889 -1.9789
  322SOL     OW  964   2.138   0.402   2.378 -0.0010  0.1885  0.1112
  322SOL    HW1  965   2.088   0.487   2.386  1.8734 -1.2107 -0.4330
  322SOL    HW2  966   2.207   0.410   2.304 -0.6423  1.7698 -0.5894
  323SOL     OW  967   2.957   0.932   0.728  0.3483 -0.2720  0.1044
  323SOL    HW1  968   2.986   0.834   0.725 -1.4964  0.1302 -0.1540
  323SOL    HW2  969   2.971   0.974   0.636 -1.2281 -0.7683 -0.6958
  324SOL     OW  970   0.341   0.559   2.372 -0.8321 -0.2980  0.3247
  324SOL    HW1  971   0.294   0.624   2.312  1.4780 -1.9818  0.0893
  324SOL    HW2  972   0.440   0.541   2.349  3.8461  0.1566  2.4461
  325SOL     OW  973   0.356   0.112   2.480  0.4757  0.0119 -0.4103
  325SOL    HW1  974   0.289   0.178   2.451  2.6975 -0.4619 -0.4012
  325SOL    HW2  975   0.312   0.022   2.499  0.5541 -0.3006 -0.5458
  326SOL     OW  976   2.477   2.317   0.236 -0.1330  0.1315 -0.0321
  326SOL    HW1  977   2.404   2.371   0.188  0.4246 -2.7684 -1.6505
  326SOL    HW2  978   2.437   2.264   0.311 -2.4294 -1.0518  0.2911
  327SOL     OW  979   2.501   1.291   0.661 -0.4032  0.3569 -0.4060
  327SOL    HW1  980   2.495   1.204   0.717 -1.2832 -4.4706  0.0224
  327SOL    HW2  981   2.437   1.290   0.581 -0.2544 -0.4174  0.9494
  328SOL     OW  982   0.028   1.977   2.285  0.3878  0.2276  0.0031
  328SOL    HW1  983   0.047   1.876   2.309  0.6801 -0.9727  0.8224
  328SOL    HW2  984   3.053   1.983   2.236  0.0537  0.2764 -1.3282
  329SOL     OW  985   2.968   2.435   1.659  0.1529  0.1482 -0.7750
  329SOL    HW1  986   2.897   2.482   1.715  1.7733  0.1419  1.8123
  329SOL    HW2  987   2.947   2.334   1.643  1.2783 -0.7001  0.2118
  330SOL     OW  988   2.406   1.441   2.310  0.1253 -0.2773 -0.8509
  330SOL    HW1  989   2.311   1.413   2.278 -1.5249 -3.4291 -2.4622
  330SOL    HW2  990   2.474   1.439   2.234 -1.4001  0.2412  2.0819
  331SOL     OW  991   2.717   2.226   1.051  0.5945 -0.8095 -0.3035
  331SOL    HW1  992   2.770   2.167   1.110  0.3311  5.0241 -0.0821
  331SOL    HW2  993   2.653   2.162   1.000 -0.2546  0.4607 -1.9376
  332SOL     OW  994   0.506   2.669   0.845 -0.0452 -0.2670  0.3966
  332SOL    HW1  995   0.484   2.723   0.760 -0.7596  1.2509  0.8082
  332SOL    HW2  996   0.515   2.725   0.928 -1.5598 -1.1358 -0.5333
  333SOL     OW  997   2.205   0.117   2.300 -0.4301 -0.0788  0.8152
  333SOL    HW1  998   2.181   0.039   2.247  2.5114  0.9165  2.3177
  333SOL    HW2  999   2.138   0.135   2.370  2.4966  1.4053 -1.1855
  334SOL     OW 1000   1.040   0.974   0.265 -0.3036 -0.4327  0.1927
  334SOL    HW1 1001   1.104   1.054   0.262  0.1230  1.0853 -0.5509
  334SOL    HW2 1002   1.047   0.934   0.360  0.6718  1.2223  3.0323
  335SOL     OW 1003   0.219   2.300   2.093 -0.1682  0.1632 -0.1174
  335SOL    HW1 1004   0.248   2.217   2.145  1.4573  1.0387 -0.4687
  335SOL    HW2 1005   0.121   2.311   2.095  1.5011  0.8224  0.4762
  336SOL     OW 1006   2.690   2.890   2.641 -0.3369 -0.0848 -0.0134
  336SOL    HW1 1007   2.626   2.954   2.689 -1.4269  1.3498  0.9356
  336SOL    HW2 1008   2.677   2.898   2.540  2.4749  0.8552  1.2436
  337SOL     OW 1009   1.223   1.238   0.974  0.2832  0.0001 -0.9546
  337SOL    HW1 1010   1.292   1.198   1.038  0.6655 -0.5870 -0.8360
  337SOL    HW2 1011   1.269   1.268   0.889 -0.3404  0.0226  2.1102
  338SOL     OW 1012   0.843   2.018   1.154 -0.0267  0.6431 -0.0849
  338SOL    HW1 1013   0.818   2.118   1.142  2.2259  1.1037  3.1078
  338SOL    HW2 1014   0.775   1.972   1.219 -2.9869  0.3700  0.0394
  339SOL     OW 1015   0.071   1.215   1.621 -0.7347  0.1642  0.2662
  339SOL    HW1 1016   3.114   1.171   1.561 -1.2312 -0.5223 -1.9596
  339SOL    HW2 1017   0.022   1.273   1.687  0.1669 -2.0518  1.8172
  340SOL     OW 1018   1.523   3.110   2.077 -0.2932 -0.1130  0.1062
  340SOL    HW1 1019   1.469   3.048   2.138 -1.5740 -1.4176  1.0176
  340SOL    HW2 1020   1.496   3.096   1.984  1.4549  1.9760 -0.0653
  341SOL     OW 1021   1.683   1.433   1.006 -0.2396  0.5113  0.0630
  341SOL    HW1 1022   1.617   1.458   1.077  1.1174  0.8536 -1.6636
  341SOL    HW2 1023   1.781   1.413   1.031 -0.1779  1.2347 -0.8357
  342SOL     OW 1024   3.059   1.490   0.920  0.4646  0.1188  0.0790
  342SOL    HW1 1025   0.014   1.450   0.859  1.4055  0.5393 -0.7652
  342SOL    HW2 1026   3.072   1.476   1.021 -1.5684 -0.3728 -0.6054
  343SOL     OW 1027   3.097   0.842   1.527 -0.2536  1.1420  0.1736
  343SOL    HW1 1028   0.074   0.860   1.576  1.6485  1.6761  0.9290
  343SOL    HW2 1029   3.112   0.834   1.426 -0.6975 -0.0112  1.8053
  344SOL     OW 1030   1.850   0.299   1.007 -0.0341  0.7850 -0.0975
  344SOL    HW1 1031   1.952   0.304   1.014 -0.7401 -1.4715  2.1736
  344SOL    HW2 1032   1.799   0.377   1.043  0.6801 -0.0018  0.4327
  345SOL     OW 1033   0.406   2.835   2.600  0.7013  0.1428  0.1475
  345SOL    HW1 1034   0.435   2.752   2.646 -1.7724  1.7062 -0.7902
  345SOL    HW2 1035   0.476   2.906   2.590 -1.4300 -3.3609 -0.9090
  346SOL     OW 1036   2.580   1.671   0.332 -0.3677 -0.0435  0.2328
  346SOL    HW1 1037   2.506   1.707   0.388  0.7045  0.3090 -0.4257
  346SOL    HW2 1038   2.664   1.654   0.393 -0.7788  0.6561 -0.4753
  347SOL     OW 1039   2.222   0.224   1.849  0.7561  0.0066  0.1102
  347SOL    HW1 1040   2.273   0.305   1.818 -2.2191 -0.5964  0.3691
  347SOL    HW2 1041   2.216   0.149   1.775 -4.1232 -0.3124 -1.8115
  348SOL     OW 1042   1.271   1.216   1.496 -0.1500  0.3426 -0.0820
  348SOL    HW1 1043   1.199   1.259   1.440  1.5125 -1.3030 -0.0480
  348SOL    HW2 1044   1.354   1.269   1.485 -1.2537  1.5832  0.3530
  349SOL     OW 1045   2.681   0.676   1.783 -0.7420  0.1572  0.3446
  349SOL    HW1 1046   2.713   0.611   1.853 -2.6968  0.7686 -1.7124
  349SOL    HW2 1047   2.759   0.719   1.734 -0.2179 -2.7138 -0.4079
  350SOL     OW 1048   2.138   2.158   0.033  0.7357 -0.2093 -0.2047
  350SOL    HW1 1049   2.204   2.171   3.077  0.7133  0.4635  0.7678
  350SOL    HW2 1050   2.120   2.059   0.052 -0.5225 -0.0753 -0.2182
  351SOL     OW 1051   0.912   0.071   1.930  0.0862 -0.1101 -0.8121
  351SOL    HW1 1052   1.007   0.094   1.912 -1.7122  0.5410 -1.0726
  351SOL    HW2 1053   0.846   0.094   1.856  0.9590  2.8096  3.1295
  352SOL     OW 1054   2.067   2.556   1.720  0.1187  0.1750  0.3550
  352SOL    HW1 1055   2.114   2.502   1.793 -1.8236  0.0143 -0.5158
  352SOL    HW2 1056   1.973   2.576   1.745  3.4811 -1.4431 -0.4592
  353SOL     OW 1057   0.769   1.130   2.433  0.2112 -0.1087 -0.2611
  353SOL    HW1 1058   0.859   1.085   2.411  2.2511  1.7527 -0.3500
  353SOL    HW2 1059   0.785   1.224   2.474 -3.0055  1.3817 -0.5107
  354SOL     OW 1060   0.967   1.741   2.945 -0.1334 -0.6852  0.0892
  354SOL    HW1 1061   0.984   1.825   2.886 -0.9482 -0.6084  0.8330
  354SOL    HW2 1062   0.875   1.700   2.934  1.0210  2.2764 -1.2026
  355SOL     OW 1063   1.999   2.839   0.970  0.2944 -0.3136 -0.3358
  355SOL    HW1 1064   2.054   2.791   0.902 -0.5902 -1.4549  0.4531
  355SOL    HW2 1065   2.000   2.936   0.955 -1.2593 -1.8381 -0.3233
  356SOL     OW 1066   2.464   1.231   3.098  0.3623  0.2736  0.0898
  356SOL    HW1 1067   2.492   1.236   2.999 -2.0726 -0.9086  0.9185
  356SOL    HW2 1068   2.450   1.322   0.025 -1.6119 -0.4227  1.8226
  357SOL     OW 1069   2.981   0.122   2.143  0.0361  0.5780  0.3385
  357SOL    HW1 1070   3.070   0.113   2.189 -2.6662 -1.0492 -0.6361
  357SOL    HW2 1071   2.992   0.117   2.039 -0.1217 -1.2764 -1.3262
  358SOL     OW 1072   0.170   1.474   0.722 -0.4348  0.2743 -0.0210
  358SOL    HW1 1073   0.125   1.420   0.648  1.6309  0.6298  0.5812
  358SOL    HW2 1074   0.180   1.569   0.701  0.3170 -0.5081  2.8162
  359SOL     OW 1075   2.565   0.180   2.934 -0.2119  0.1656 -0.3797
  359SOL    HW1 1076   2.503   0.259   2.922 -0.9348  2.5078 -1.3313
  359SOL    HW2 1077   2.661   0.213   2.952  1.8559 -2.8893  0.3914
  360SOL     OW 1078   1.457   0.758   1.313 -0.0236 -0.1131 -0.2092
  360SOL    HW1 1079   1.531   0.685   1.309  0.2658 -0.9635  0.8156
  360SOL    HW2 1080   1.381   0.734   1.378  0.9323  0.5533  1.0973
  361SOL     OW 1081   2.712   2.418   0.855 -0.6069 -0.2093  0.2723
  361SOL    HW1 1082   2.704   2.371   0.944 -1.3307 -1.7911 -1.2531
  361SOL    HW2 1083   2.728   2.514   0.881  0.9822 -1.6162  0.8896
  362SOL     OW 1084   1.080   0.287   0.952 -0.1352 -0.0380  0.2061
  362SOL    HW1 1085   1.042   0.227   0.878 -1.4197 -0.2522 -2.1387
  362SOL    HW2 1086   1.052   0.385   0.936  0.6543 -0.7666 -1.4613
  363SOL     OW 1087   1.864   1.792   0.498  0.0260  0.3062 -0.3185
  363SOL    HW1 1088   1.945   1.796   0.437 -0.2838 -1.1794  2.2633
  363SOL    HW2 1089   1.781   1.783   0.435 -1.5020  0.7578 -1.0679
  364SOL     OW 1090   0.481   0.535   1.324  0.0253  0.5855 -0.0815
  364SOL    HW1 1091   0.389   0.567   1.357 -1.0432  1.4861  2.6061
  364SOL    HW2 1092   0.542   0.612   1.295 -0.5709  0.1013  1.6895
  365SOL     OW 1093   0.259   3.055   0.949 -0.0670 -0.6531 -0.0699
  365SOL    HW1 1094   0.331   0.007   0.970 -0.8931 -0.2231  0.3489
  365SOL    HW2 1095   0.250   2.990   1.030  0.0477  1.2235 -1.0715
  366SOL     OW 1096   2.913   1.559   0.115 -0.0560 -0.3450 -0.3154
  366SOL    HW1 1097   2.983   1.555   0.038 -1.8170  0.3006  1.6006
  366SOL    HW2 1098   2.848   1.639   0.113  0.4971  1.0772 -2.2535
  367SOL     OW 1099   2.331   2.649   2.386  0.0625 -0.2496 -0.3273
  367SOL    HW1 1100   2.304   2.628   2.484 -0.0420  1.3727  0.5323
  367SOL    HW2 1101   2.435   2.645   2.381  1.3534 -0.6250 -0.6606
  368SOL     OW 1102   2.347   1.697   0.477 -0.0334  0.2234 -0.3356
  368SOL    HW1 1103   2.396   1.705   0.570  1.1957 -1.3519  0.1037
  368SOL    HW2 1104   2.248   1.660   0.493 -0.5498 -2.4572  1.0892
  369SOL     OW 1105   1.671   0.833   3.011  0.1151 -0.1265 -0.1826
  369SOL    HW1 1106   1.720   0.915   2.980 -0.1554 -2.4775  0.7126
  369SOL    HW2 1107   1.594   0.810   2.955  1.2722  1.1631  0.4282
  370SOL     OW 1108   0.442   0.144   1.009  0.2119  0.5558  0.6359
  370SOL    HW1 1109   0.510   0.194   1.068 -2.1079 -0.7228  0.2931
  370SOL    HW2 1110   0.492   0.099   0.930 -0.6819  0.4772  1.1165
  371SOL     OW 1111   2.773   1.433   2.647  0.2954  0.2251  0.4873
  371SOL    HW1 1112   2.822   1.514   2.684  0.8420 -1.0743 -0.1647
  371SOL    HW2 1113   2.815   1.347   2.677 -1.4176 -0.6260 -0.2931
  372SOL     OW 1114   0.605   0.571   2.287 -0.0970 -0.2289  0.3032
  372SOL    HW1 1115   0.642   0.534   2.199  0.9434  1.2688 -0.5485
  372SOL    HW2 1116   0.566   0.666   2.270 -1.5356  1.1170  1.0997
  373SOL     OW 1117   0.604   0.056   2.854 -0.0057  0.4107  0.6337
  373SOL    HW1 1118   0.631   0.012   2.767  0.2283  1.2859 -0.9823
  373SOL    HW2 1119   0.688   0.092   2.900 -2.2597  1.2796  2.0287
  374SOL     OW 1120   1.211   1.471   2.854  0.2276 -0.0739  0.7573
  374SOL    HW1 1121   1.243   1.451   2.759 -0.3861  2.1101  3.1553
  374SOL    HW2 1122   1.170   1.565   2.859  2.6454 -0.4311  0.1425
  375SOL     OW 1123   0.981   0.400   1.871 -0.2571  0.1190  0.7377
  375SOL    HW1 1124   0.986   0.301   1.843  0.6794 -0.7363  3.7868
  375SOL    HW2 1125   0.950   0.415   1.965  1.3360  0.9694 -2.1796
  376SOL     OW 1126   0.248   2.704   2.008 -0.6733  0.1132 -0.1154
  376SOL    HW1 1127   0.279   2.784   1.953  0.6377  1.8128  0.0667
  376SOL    HW2 1128   0.325   2.635   2.019  0.3673 -2.0505  1.4319
  377SOL     OW 1129   2.748   2.468   2.901 -0.1211 -0.3834  0.8248
  377SOL    HW1 1130   2.689   2.530   2.843 -1.1057  1.8338 -0.6152
  377SOL    HW2 1131   2.696   2.388   2.932 -0.9039 -0.4899  1.1219
  378SOL     OW 1132   2.015   0.267   0.059  0.3127  0.0301 -0.0825
  378SOL    HW1 1133   2.025   0.204   0.136  1.4192  1.8700 -1.5118
  378SOL    HW2 1134   2.108   0.280   0.027 -1.1235  2.2720 -0.3320
  379SOL     OW 1135   1.687   0.770   0.356 -0.7622  0.2184 -0.7485
  379SOL    HW1 1136   1.774   0.732   0.398 -1.1592  0.5421  2.2845
  379SOL    HW2 1137   1.705   0.815   0.265 -0.8729 -3.3782 -3.2843
  380SOL     OW 1138   2.723   2.051   1.927  0.7432  0.9551 -0.6364
  380SOL    HW1 1139   2.718   2.150   1.938 -3.1814  0.5081 -2.9238
  380SOL    HW2 1140   2.734   2.022   1.827 -0.4131 -0.0349 -0.2427
  381SOL     OW 1141   2.610   1.390   2.142 -0.3923 -0.1615 -0.1178
  381SOL    HW1 1142   2.683   1.454   2.176 -0.8620  3.0582  0.7370
  381SOL    HW2 1143   2.636   1.297   2.124 -3.5171  0.3978  0.0695
  382SOL     OW 1144   2.914   2.412   2.632 -0.0638  0.7310 -0.0401
  382SOL    HW1 1145   2.943   2.506   2.651  0.6861  2.0477 -1.2893
  382SOL    HW2 1146   2.977   2.348   2.677 -0.0581  3.4627 -1.6692
  383SOL     OW 1147   1.146   1.010   2.772  0.1349  0.0835  0.3960
  383SOL    HW1 1148   1.152   0.918   2.724  2.4900 -0.7998 -1.3864
  383SOL    HW2 1149   1.140   0.995   2.872  1.1316  1.2482 -0.6215
  384SOL     OW 1150   1.860   2.040   2.308  0.5615  0.3714  0.1002
  384SOL    HW1 1151   1.817   2.132   2.320  2.0745  2.8453  2.9934
  384SOL    HW2 1152   1.954   2.038   2.345 -1.6377  0.9456 -0.8484
  385SOL     OW 1153   2.098   2.565   0.299  0.3711  0.8921 -0.1476
  385SOL    HW1 1154   2.017   2.611   0.334  2.0682  1.0174  1.3079
  385SOL    HW2 1155   2.179   2.629   0.307 -2.4521 -2.0568 -1.3166
  386SOL     OW 1156   1.844   1.287   0.628  0.3103 -0.5303  0.3645
  386SOL    HW1 1157   1.888   1.255   0.544 -1.4438 -0.5285  1.7453
  386SOL    HW2 1158   1.775   1.359   0.599 -2.1636 -0.6445 -0.0098
  387SOL     OW 1159   2.500   1.844   1.123  0.0647  0.4829  0.1861
  387SOL    HW1 1160   2.504   1.851   1.227 -2.5669 -0.9137 -0.7251
  387SOL    HW2 1161   2.579   1.788   1.086  0.5297 -2.7906 -0.8451
  388SOL     OW 1162   0.529   1.163   1.641 -0.8015  0.3737  0.0555
  388SOL    HW1 1163   0.554   1.216   1.725  4.1862 -0.5096 -1.4397
  388SOL    HW2 1164   0.440   1.197   1.602  0.2107  1.5615  2.2213
  389SOL     OW 1165   2.345   1.010   2.821 -0.4281  0.4221  0.3281
  389SOL    HW1 1166   2.255   0.964   2.789 -0.8615 -1.2982 -1.6441
  389SOL    HW2 1167   2.368   1.088   2.759 -1.4827  2.1116  1.9493
  390SOL     OW 1168   0.697   1.427   2.984  0.4534 -0.5877  0.5724
  390SOL    HW1 1169   0.794   1.394   2.993  0.2219  2.1526 -2.9174
  390SOL    HW2 1170   0.686   1.522   2.946  1.3177  0.6145  1.8514
  391SOL     OW 1171   0.918   2.035   0.128 -0.2771 -0.1380  0.1404
  391SOL    HW1 1172   0.963   2.081   0.047 -1.0026 -1.6422 -0.3886
  391SOL    HW2 1173   0.816   2.045   0.116 -2.1502 -1.3945 -0.9154
  392SOL     OW 1174   2.605   2.626   2.300  0.7542  0.4796  0.1151
  392SOL    HW1 1175   2.663   2.553   2.343 -0.3284  2.2024 -2.5114
  392SOL    HW2 1176   2.607   2.610   2.201  2.6481 -1.8476  1.2815
  393SOL     OW 1177   1.443   2.056   0.242 -0.0892 -0.5412 -0.0120
  393SOL    HW1 1178   1.508   1.995   0.287 -0.9529 -0.7124 -1.5472
  393SOL    HW2 1179   1.362   2.005   0.212  0.7993 -0.1546 -0.2893
  394SOL     OW 1180   0.501   0.289   2.603  0.1786  0.0740  0.0786
  394SOL    HW1 1181   0.453   0.372   2.643 -0.5952  1.0039  0.6081
  394SOL    HW2 1182   0.442   0.217   2.561  0.5503  0.4820 -0.1358
  395SOL     OW 1183   0.559   1.381   1.124 -0.0675  0.7447  0.3218
  395SOL    HW1 1184   0.512   1.412   1.042  3.1485 -2.0007  1.3826
  395SOL    HW2 1185   0.500   1.387   1.206 -0.3775  0.9157  2.5967
  396SOL     OW 1186   2.116   1.427   2.890 -0.3567 -0.3089 -0.3080
  396SOL    HW1 1187   2.139   1.352   2.951  0.6573  1.7524 -1.1901
  396SOL    HW2 1188   2.122   1.392   2.798  2.3496  0.8260  2.2795
  397SOL     OW 1189   0.469   0.683   0.051 -0.1629 -0.5738  0.0183
  397SOL    HW1 1190   0.376   0.694   0.006 -0.7247  0.8981  0.4638
  397SOL    HW2 1191   0.464   0.718   0.145  1.2552 -1.6627 -1.8366
  398SOL     OW 1192   1.071   2.543   0.356  0.4551 -0.1280 -0.0775
  398SOL    HW1 1193   1.173   2.517   0.344 -0.2596 -3.7959 -0.6652
  398SOL    HW2 1194   1.006   2.469   0.372  1.9422  1.2026 -0.9515
  399SOL     OW 1195   1.965   2.292   2.396  0.4791  0.2695 -0.0300
  399SOL    HW1 1196   1.935   2.354   2.325  1.8521 -0.7462  0.1084
  399SOL    HW2 1197   2.041   2.226   2.371  2.2674 -0.0589 -0.6595
  400SOL     OW 1198   2.520   1.546   1.476 -0.3808  0.2971 -0.6628
  400SOL    HW1 1199   2.538   1.534   1.579  1.5765  1.5625  3.0329
  400SOL    HW2 1200   2.492   1.464   1.419 -2.0847 -0.6569  1.0837
  401SOL     OW 1201   1.651   1.031   0.946 -0.4334 -0.4575 -0.0784
  401SOL    HW1 1202   1.610   0.951   0.899 -2.2147  0.7692 -1.1306
  401SOL    HW2 1203   1.570   1.098   0.957 -0.9357 -0.8584  0.0658
  402SOL     OW 1204   0.218   3.007   2.526 -0.0031 -0.1305  0.2811
  402SOL    HW1 1205   0.274   2.927   2.563  0.4838  0.1987 -0.8410
  402SOL    HW2 1206   0.131   3.020   2.576  0.0924  0.4585  0.5727
  403SOL     OW 1207   2.789   1.710   1.585 -0.4392 -0.2920 -0.2489
  403SOL    HW1 1208   2.736   1.634   1.626  1.4240  2.1584  0.9760
  403SOL    HW2 1209   2.765   1.796   1.637 -0.1599  1.8964 -0.7710
  404SOL     OW 1210   2.438   1.950   1.784 -0.0078  0.3921 -0.3773
  404SOL    HW1 1211   2.382   1.983   1.865  0.5033 -0.0278 -2.8081
  404SOL    HW2 1212   2.375   1.920   1.705 -1.8383  0.7750 -3.3156
  405SOL     OW 1213   2.194   0.387   2.681  0.0731  0.1267  0.0351
  405SOL    HW1 1214   2.207   0.407   2.584  1.3535 -0.8064  1.6290
  405SOL    HW2 1215   2.102   0.408   2.714  0.5490  0.7983 -0.6018
  406SOL     OW 1216   0.804   1.374   2.562  0.1148 -0.3996 -0.5116
  406SOL    HW1 1217   0.876   1.329   2.621 -0.5078  0.4305  1.3645
  406SOL    HW2 1218   0.715   1.374   2.615 -2.4414 -2.4568  4.2460
  407SOL     OW 1219   1.816   2.204   0.751 -0.3192 -0.1598 -0.3550
  407SOL    HW1 1220   1.725   2.174   0.722  2.2129  1.0359  1.5711
  407SOL    HW2 1221   1.899   2.159   0.712 -0.0063  0.4368  1.4382
  408SOL     OW 1222   0.044   0.004   0.801  0.0005  0.1061 -0.2052
  408SOL    HW1 1223   0.125   3.082   0.850 -1.0205 -3.8041 -0.6240
  408SOL    HW2 1224   3.092   3.048   0.772  0.5515 -0.2899 -3.1502
  409SOL     OW 1225   1.995   1.464   0.782 -0.4193 -0.6385 -0.3149
  409SOL    HW1 1226   1.996   1.458   0.881  0.3981  1.8526 -0.0554
  409SOL    HW2 1227   1.941   1.386   0.736 -1.1330 -1.9722 -3.6826
  410SOL     OW 1228   1.942   2.359   3.111 -0.0852  0.3951 -0.4586
  410SOL    HW1 1229   2.013   2.287   0.018 -2.2944 -1.0563 -1.0610
  410SOL    HW2 1230   1.871   2.361   0.068 -2.2035  1.9281 -0.5738
  411SOL     OW 1231   0.041   2.812   0.316 -0.2570  0.3785 -0.2180
  411SOL    HW1 1232   0.040   2.895   0.256  2.2443  0.3483 -1.0671
  411SOL    HW2 1233   3.062   2.798   0.359 -1.2515  0.4898  0.3162
  412SOL     OW 1234   1.527   2.725   0.836 -0.3116 -0.4883 -0.3628
  412SOL    HW1 1235   1.432   2.694   0.815  1.7436  0.0356  0.5306
  412SOL    HW2 1236   1.532   2.827   0.835 -0.5161  0.6796 -1.8104
  413SOL     OW 1237   2.013   0.189   2.479 -0.3526  0.0195  0.7026
  413SOL    HW1 1238   1.915   0.204   2.503  0.1332  1.0020  1.1091
  413SOL    HW2 1239   2.059   0.275   2.450 -1.8824 -1.7946 -0.9424
  414SOL     OW 1240   0.416   0.804   0.339  0.3905  0.1741  0.1769
  414SOL    HW1 1241   0.386   0.901   0.346  1.1921  0.3642 -4.0300
  414SOL    HW2 1242   0.514   0.791   0.333 -4.1013 -0.4313  1.1478
  415SOL     OW 1243   0.098   1.160   1.239 -0.2089  0.2026  0.6433
  415SOL    HW1 1244   0.182   1.103   1.269 -0.0964 -1.2402  0.1469
  415SOL    HW2 1245   0.056   1.127   1.150  2.2754  1.8912 -1.6470
  416SOL     OW 1246   0.229   0.330   0.045  0.8794  0.0542  0.6675
  416SOL    HW1 1247   0.244   0.383   0.130 -1.8580  1.3217 -2.7575
  416SOL    HW2 1248   0.314   0.313   3.107 -0.8058  0.1073  1.4157
  417SOL     OW 1249   2.303   0.182   0.752 -0.1271  0.3062 -0.3735
  417SOL    HW1 1250   2.364   0.184   0.668  3.1680  0.5145  2.2462
  417SOL    HW2 1251   2.303   0.275   0.792  1.3614 -1.5042  1.5521
  418SOL     OW 1252   0.391   0.556   2.648  0.1882  0.1821 -0.2662
  418SOL    HW1 1253   0.441   0.642   2.663  0.9266 -2.0742 -0.7562
  418SOL    HW2 1254   0.350   0.561   2.556 -0.4313  0.3472  2.0489
  419SOL     OW 1255   0.466   0.825   0.607 -0.2157 -0.1354  0.0986
  419SOL    HW1 1256   0.408   0.783   0.532 -0.5407 -0.3807 -0.2442
  419SOL    HW2 1257   0.506   0.751   0.664  0.3972  1.7902  0.1635
  420SOL     OW 1258   2.110   1.482   1.352 -0.0327  0.5178 -0.0714
  420SOL    HW1 1259   2.035   1.543   1.326  0.2403  1.4370  1.1364
  420SOL    HW2 1260   2.201   1.515   1.302  0.2162 -0.2964 -1.9895
  421SOL     OW 1261   1.058   1.917   2.774 -0.3540  0.0697 -0.0252
  421SOL    HW1 1262   1.105   1.841   2.721  0.7321 -1.7153 -2.2961
  421SOL    HW2 1263   1.001   1.969   2.704 -2.3111  2.2462 -2.2721
  422SOL     OW 1264   2.559   0.533   0.083  0.0314  0.2427  0.1975
  422SOL    HW1 1265   2.501   0.561   0.161  0.0570 -0.6982  0.3381
  422SOL    HW2 1266   2.645   0.581   0.064 -0.1427  0.3384  0.0674
  423SOL     OW 1267   1.975   1.518   0.290  0.2513  0.2965  0.2102
  423SOL    HW1 1268   1.980   1.621   0.287  1.0471  0.3113 -0.0077
  423SOL    HW2 1269   1.898   1.481   0.233 -1.9738 -0.1544  1.9143
  424SOL     OW 1270   0.780   1.195   1.531  1.0501 -0.3710 -0.2147
  424SOL    HW1 1271   0.688   1.173   1.581 -0.5583 -0.6580  1.4130
  424SOL    HW2 1272   0.807   1.116   1.473  0.0970  2.4553  1.1166
  425SOL     OW 1273   2.606   2.894   2.366  0.2913 -0.1837 -0.4609
  425SOL    HW1 1274   2.503   2.911   2.367 -1.3207 -1.0393  1.2213
  425SOL    HW2 1275   2.636   2.802   2.336  1.2333 -0.8193 -1.8188
  426SOL     OW 1276   1.905   2.639   0.499  0.0961  0.8535 -0.0092
  426SOL    HW1 1277   1.821   2.684   0.477  1.7649 -2.2851  1.5243
  426SOL    HW2 1278   1.886   2.589   0.585 -1.8975  1.7810 -0.4566
  427SOL     OW 1279   0.482   0.486   2.919  0.2103 -0.0165 -0.2185
  427SOL    HW1 1280   0.461   0.572   2.860  0.6915  3.2081 -0.5930
  427SOL    HW2 1281   0.477   0.518   3.012  0.0692 -1.7015 -2.2587
  428SOL     OW 1282   2.334   1.227   2.647 -0.3678 -0.0069 -0.0422
  428SOL    HW1 1283   2.407   1.248   2.583 -0.4976 -4.1674  1.4952
  428SOL    HW2 1284   2.245   1.271   2.624  0.3593  2.0292 -3.2183
  429SOL     OW 1285   3.078   0.321   0.638  0.3837  0.2944 -0.2478
  429SOL    HW1 1286   0.017   0.246   0.592  2.6490 -1.4631  1.5813
  429SOL    HW2 1287   3.089   0.310   0.740  0.6225 -0.8384 -0.1574
  430SOL     OW 1288   1.159   2.973   2.079 -1.0509 -0.1605 -0.3845
  430SOL    HW1 1289   1.156   2.871   2.092  1.3686 -0.6147  0.4216
  430SOL    HW2 1290   1.141   2.993   1.980 -0.5494 -0.3538  0.9498
  431SOL     OW 1291   0.049   1.768   1.345 -0.4516 -0.4182  0.1081
  431SOL    HW1 1292   0.109   1.709   1.285  1.7078  0.8670  0.0531
  431SOL    HW2 1293   3.094   1.820   1.292  0.4420  1.0690 -0.8428
  432SOL     OW 1294   2.522   2.610   2.012 -0.2989 -0.3744  0.1074
  432SOL    HW1 1295   2.588   2.559   1.952  1.2850 -2.1437 -0.1841
  432SOL    HW2 1296   2.495   2.695   1.966  0.0839 -2.0418 -0.4606
  433SOL     OW 1297   1.254   1.865   0.219 -0.4120  0.1287  0.4038
  433SOL    HW1 1298   1.227   1.836   0.127  0.9907  2.2860  0.3160
  433SOL    HW2 1299   1.224   1.798   0.284 -0.8760  0.5910 -5.2976
  434SOL     OW 1300   0.002   2.283   2.770  0.3743  0.0787 -0.3041
  434SOL    HW1 1301   0.050   2.259   2.686 -0.9346 -0.2098 -1.0408
  434SOL    HW2 1302   0.033   2.366   2.816 -0.8915 -1.1416 -1.1770
  435SOL     OW 1303   0.086   1.224   0.581 -0.2623  0.0560  0.1696
  435SOL    HW1 1304   0.055   1.132   0.558 -0.1124  2.8926 -0.5524
  435SOL    HW2 1305   0.012   1.292   0.577  3.4937 -0.8595 -1.9604
  436SOL     OW 1306   0.668   2.861   1.914  0.0994  0.1103  0.4141
  436SOL    HW1 1307   0.687   2.898   2.008 -0.7761 -0.9354  0.0588
  436SOL    HW2 1308   0.572   2.841   1.906 -0.9860  0.3992  1.1720
  437SOL     OW 1309   1.269   2.422   1.151 -0.1027 -0.5437 -0.2771
  437SOL    HW1 1310   1.341   2.386   1.084  0.4818  2.4592 -1.4021
  437SOL    HW2 1311   1.176   2.402   1.124  3.2089  1.5561  3.3707
  438SOL     OW 1312   0.303   2.265   0.735 -0.4570  0.7230 -0.0754
  438SOL    HW1 1313   0.275   2.241   0.640 -1.4523  0.7693 -0.1026
  438SOL    HW2 1314   0.225   2.288   0.797 -0.0106 -0.6702  1.4814
  439SOL     OW 1315   1.031   2.864   1.595 -0.1956  0.0002  0.2330
  439SOL    HW1 1316   1.102   2.791   1.579  1.2882 -2.7828 -1.1604
  439SOL    HW2 1317   0.954   2.819   1.644 -0.2498 -0.6392  0.4194
  440SOL     OW 1318   2.040   2.905   2.360 -0.1549 -0.6012 -0.4880
  440SOL    HW1 1319   2.046   2.818   2.296  2.7002 -4.1959 -2.9942
  440SOL    HW2 1320   2.116   2.916   2.423 -1.8006  1.1711 -1.2146
  441SOL     OW 1321   0.100   0.542   1.839 -0.1332 -0.6198 -0.3175
  441SOL    HW1 1322   0.102   0.530   1.735  2.5115 -0.6966 -1.1055
  441SOL    HW2 1323   0.052   0.631   1.857 -2.9447  2.6314 -3.0028
  442SOL     OW 1324   1.650   2.341   0.466  0.3993  0.7398  0.0639
  442SOL    HW1 1325   1.655   2.401   0.550 -1.3506 -0.0628 -0.8514
  442SOL    HW2 1326   1.630   2.404   0.389 -2.5189  1.6660 -1.0688
  443SOL     OW 1327   0.065   0.707   2.701 -0.1378 -0.3568 -0.1073
  443SOL    HW1 1328   0.165   0.718   2.729  2.4731 -2.0989  2.1116
  443SOL    HW2 1329   0.001   0.757   2.761  1.4117  0.1417  0.1003
  444SOL     OW 1330   1.734   1.167   2.204 -0.0167 -0.4604 -0.1453
  444SOL    HW1 1331   1.704   1.091   2.140 -2.3832 -0.1068  1.8993
  444SOL    HW2 1332   1.734   1.263   2.162  0.8880  2.1991 -0.8779
  445SOL     OW 1333   0.239   2.741   1.396  0.2749 -0.0389 -0.4428
  445SOL    HW1 1334   0.151   2.691   1.421 -0.5914  2.3423  0.9588
  445SOL    HW2 1335   0.280   2.773   1.484  0.1073  0.0156  0.8133
  446SOL     OW 1336   2.716   1.694   1.032 -0.7899 -0.3231 -0.5655
  446SOL    HW1 1337   2.720   1.620   1.102  0.4588  0.8408  1.2170
  446SOL    HW2 1338   2.810   1.729   1.006 -0.9099  0.9664 -2.4431
  447SOL     OW 1339   0.346   1.063   0.372 -0.1960 -0.6207  0.5496
  447SOL    HW1 1340   0.373   1.159   0.339  1.4483 -0.1457  0.0082
  447SOL    HW2 1341   0.391   1.048   0.465  2.5040 -0.3329 -2.5174
  448SOL     OW 1342   1.031   2.203   1.931  0.2965  0.1396  0.1170
  448SOL    HW1 1343   1.050   2.268   1.858  1.2585  0.2877  0.2261
  448SOL    HW2 1344   1.106   2.214   1.999 -1.6579  0.3313 -2.1697
  449SOL     OW 1345   1.222   1.529   0.139  0.1007  0.2712  0.2252
  449SOL    HW1 1346   1.212   1.447   0.081  0.1264  1.2740 -0.1586
  449SOL    HW2 1347   1.130   1.559   0.174 -2.7789  1.3898 -0.7066
  450SOL     OW 1348   2.773   2.840   1.999 -0.1904 -0.2210  0.0477
  450SOL    HW1 1349   2.806   2.790   2.079 -0.6172 -0.3327 -0.7683
  450SOL    HW2 1350   2.722   2.918   2.036  3.4889  0.5007  1.1985
  451SOL     OW 1351   2.027   0.700   2.549 -0.4521  0.1847 -0.3364
  451SOL    HW1 1352   2.131   0.709   2.551  0.5814 -1.1789  2.8784
  451SOL    HW2 1353   1.998   0.656   2.640  0.1814 -0.9078  3.9910
  452SOL     OW 1354   1.828   0.538   0.736 -0.7306 -0.5266 -0.2331
  452SOL    HW1 1355   1.830   0.448   0.690 -0.5266  2.7708  0.6943
  452SOL    HW2 1356   1.916   0.575   0.770 -2.1016 -1.0674  1.9361
  453SOL     OW 1357   1.986   0.879   1.544 -0.3707  0.3646 -0.0567
  453SOL    HW1 1358   1.973   0.854   1.643  0.7651 -1.1777 -2.5536
  453SOL    HW2 1359   2.084   0.897   1.528 -1.5256  0.8208  0.5963
  454SOL     OW 1360   2.996   1.433   0.337  0.1447  0.6248  0.1897
  454SOL    HW1 1361   2.917   1.376   0.368  0.2056 -0.1276 -1.5039
  454SOL    HW2 1362   2.972   1.486   0.253  0.2297 -2.2471  0.5658
  455SOL     OW 1363   2.601   2.967   1.471  0.3639  0.5835  0.2756
  455SOL    HW1 1364   2.633   3.061   1.467  2.1559 -4.0763  1.7735
  455SOL    HW2 1365   2.541   2.936   1.394  0.3252 -0.0629 -0.4798
  456SOL     OW 1366   0.119   2.878   1.650 -0.0470  0.1013 -0.4010
  456SOL    HW1 1367   0.191   2.814   1.688 -1.5530  0.2614 -0.6493
  456SOL    HW2 1368   0.028   2.852   1.693 -1.0880  1.5443  0.8679
  457SOL     OW 1369   1.358   2.936   0.454  0.3066 -0.2210 -0.2486
  457SOL    HW1 1370   1.389   2.952   0.359  0.9906 -2.3168 -2.3930
  457SOL    HW2 1371   1.340   3.015   0.511 -1.4300 -0.6396 -0.5006
  458SOL     OW 1372   2.585   2.838   1.028 -0.1224  0.3427 -0.0116
  458SOL    HW1 1373   2.525   2.875   1.106  0.7478 -0.7871  0.3342
  458SOL    HW2 1374   2.528   2.804   0.952  1.3885 -1.0163 -0.0817
  459SOL     OW 1375   2.376   0.642   3.012 -0.4172  0.7343  0.4388
  459SOL    HW1 1376   2.421   0.626   3.102 -2.4015  0.1586 -2.6711
  459SOL    HW2 1377   2.399   0.564   2.952 -1.1325 -0.3574 -0.8699
  460SOL     OW 1378   2.389   2.791   2.797 -0.1209 -0.7846  0.7472
  460SOL    HW1 1379   2.405   2.885   2.829  2.8033 -0.1838  0.0104
  460SOL    HW2 1380   2.375   2.729   2.881 -0.9666  1.3810  0.6337
  461SOL     OW 1381   0.797   1.741   0.190  0.1150  0.2560 -0.3846
  461SOL    HW1 1382   0.768   1.781   0.280 -3.5841 -0.0236 -0.8436
  461SOL    HW2 1383   0.839   1.818   0.142  1.5085 -1.9554  0.1605
  462SOL     OW 1384   2.115   2.033   0.890 -0.0513 -0.5743  0.1697
  462SOL    HW1 1385   2.143   2.003   0.795 -3.2800  1.3038  0.1274
  462SOL    HW2 1386   2.082   2.131   0.898 -0.8364  2.7121  0.3045
  463SOL     OW 1387   2.684   1.035   0.587 -0.1753  0.0209  0.6226
  463SOL    HW1 1388   2.780   1.023   0.620  0.3327  0.7020  1.6105
  463SOL    HW2 1389   2.610   0.995   0.644 -1.6009  2.3156 -2.9477
  464SOL     OW 1390   0.736   2.953   0.853  0.2240 -0.5315  0.6391
  464SOL    HW1 1391   0.793   2.987   0.925 -3.5171 -1.7203  0.5724
  464SOL    HW2 1392   0.741   2.854   0.837  0.2459  2.2671 -2.9721
  465SOL     OW 1393   2.438   1.455   0.233 -0.9403  0.6550  0.2790
  465SOL    HW1 1394   2.487   1.541   0.269  0.0170  0.1132 -3.2398
  465SOL    HW2 1395   2.345   1.471   0.196  0.3018  1.8077 -0.3099
  466SOL     OW 1396   1.745   0.439   2.849  0.0239 -0.1464  0.2249
  466SOL    HW1 1397   1.721   0.494   2.932 -2.3589 -0.8850  0.0873
  466SOL    HW2 1398   1.763   0.343   2.871  0.6427 -1.2662  0.7053
  467SOL     OW 1399   0.675   0.731   1.601  0.2345  0.3547 -0.0276
  467SOL    HW1 1400   0.769   0.737   1.562  0.1686 -1.3773  0.1266
  467SOL    HW2 1401   0.673   0.651   1.664  0.6412 -1.0416  3.4588
  468SOL     OW 1402   0.458   1.114   2.802 -0.3499 -0.1476  0.2198
  468SOL    HW1 1403   0.438   1.073   2.891  1.9859 -0.0954  4.5783
  468SOL    HW2 1404   0.553   1.092   2.773  2.7058  0.4685 -0.9655
  469SOL     OW 1405   0.515   2.231   0.377  0.0761  0.5064  0.2026
  469SOL    HW1 1406   0.531   2.243   0.279 -0.1665 -0.8644  1.5385
  469SOL    HW2 1407   0.598   2.246   0.435  0.5506  0.8868  0.9057
  470SOL     OW 1408   2.613   1.702   2.558 -0.4976 -0.1802 -0.0440
  470SOL    HW1 1409   2.669   1.619   2.579  0.9648  0.9134  2.1431
  470SOL    HW2 1410   2.523   1.678   2.523  0.5722  0.2911  1.9199
  471SOL     OW 1411   2.679   1.027   2.148  0.3427  0.6070  0.0612
  471SOL    HW1 1412   2.651   0.975   2.236  0.4768  1.2623  2.2785
  471SOL    HW2 1413   2.637   0.989   2.066  1.6572  4.1303  2.2380
  472SOL     OW 1414   0.497   2.818   0.620  0.4128  0.0855 -0.0196
  472SOL    HW1 1415   0.415   2.784   0.567  2.1354 -0.3502 -1.9131
  472SOL    HW2 1416   0.538   2.892   0.564 -1.6990 -0.7824 -1.1240
  473SOL     OW 1417   0.788   0.031   0.152  0.8330 -0.1730  0.2367
  473SOL    HW1 1418   0.694   0.065   0.173  1.3823  0.8708  1.9937
  473SOL    HW2 1419   0.795   0.027   0.055  0.8310 -3.4850  2.0957
  474SOL     OW 1420   1.917   3.038   1.945  0.2370 -0.3935  0.0335
  474SOL    HW1 1421   1.868   2.958   1.910  0.4958  2.9780 -0.9119
  474SOL    HW2 1422   1.884   0.004   1.894  0.6403 -1.8347 -0.5678
  475SOL     OW 1423   1.330   2.224   0.441 -0.3535 -0.2141  0.0686
  475SOL    HW1 1424   1.271   2.146   0.469  0.9708 -2.1574  1.9919
  475SOL    HW2 1425   1.394   2.194   0.365  0.9754 -1.9366 -0.6343
  476SOL     OW 1426   0.663   1.050   0.630  0.0384  0.2040  0.0729
  476SOL    HW1 1427   0.591   0.977   0.614  2.3216 -1.1427 -1.0563
  476SOL    HW2 1428   0.632   1.142   0.608  2.6388  0.0826  3.7416
  477SOL     OW 1429   1.749   2.505   1.226 -0.5522 -0.2315  0.0973
  477SOL    HW1 1430   1.658   2.470   1.235  1.5057  1.5662 -2.4233
  477SOL    HW2 1431   1.774   2.528   1.127  2.1723  0.7689 -1.0256
  478SOL     OW 1432   0.326   1.736   2.609  0.5501  0.1270 -0.3217
  478SOL    HW1 1433   0.394   1.665   2.640  3.9662 -0.4054 -2.3390
  478SOL    HW2 1434   0.246   1.744   2.671  2.1474  1.3986  1.4332
  479SOL     OW 1435   3.025   3.041   1.184 -0.7069  0.0911  0.1001
  479SOL    HW1 1436   3.019   2.980   1.106 -1.5790  1.1518 -2.4439
  479SOL    HW2 1437   3.047   2.995   1.278  0.2568 -1.9677  3.3163
  480SOL     OW 1438   2.883   2.963   0.561 -0.5458 -0.5173 -0.1247
  480SOL    HW1 1439   2.946   2.944   0.640 -1.7737  3.7597 -0.0456
  480SOL    HW2 1440   2.880   2.882   0.498 -1.1545 -0.5608  1.0660
  481SOL     OW 1441   2.785   2.661   0.989  0.2773 -0.3684  0.4845
  481SOL    HW1 1442   2.715   2.723   1.026 -0.2132  1.4740 -0.4918
  481SOL    HW2 1443   2.834   2.610   1.060 -2.8057 -0.6253  0.7655
  482SOL     OW 1444   1.218   2.290   2.487 -0.4581 -0.3452 -0.4197
  482SOL    HW1 1445   1.267   2.231   2.420  2.0484 -0.3150 -0.8038
  482SOL    HW2 1446   1.267   2.377   2.507 -0.7953  0.0292  1.1104
  483SOL     OW 1447   0.414   2.030   2.611  0.2424 -0.2175 -0.4115
  483SOL    HW1 1448   0.398   1.940   2.564 -0.1766 -0.8125 -0.9652
  483SOL    HW2 1449   0.431   2.104   2.538 -0.5790  3.2593 -1.4317
  484SOL     OW 1450   0.868   1.213   1.994  1.1501 -0.4101 -0.4953
  484SOL    HW1 1451   0.945   1.207   1.926  2.0856 -0.9704 -0.6873
  484SOL    HW2 1452   0.902   1.203   2.090  1.2010  0.2754  0.1347
  485SOL     OW 1453   2.571   0.352   0.474  0.6851  0.3078 -0.6189
  485SOL    HW1 1454   2.530   0.260   0.474  3.4314  0.4504 -1.5884
  485SOL    HW2 1455   2.502   0.421   0.516 -1.5902  0.0841 -0.1356
  486SOL     OW 1456   1.596   3.011   0.811 -0.0273 -0.3094  0.3323
  486SOL    HW1 1457   1.639   3.082   0.874  1.9863 -0.1671 -2.0984
  486SOL    HW2 1458   1.650   3.003   0.724  0.1382 -2.4929  1.1046
  487SOL     OW 1459   0.540   2.085   0.840 -0.0771 -0.4494  0.2633
  487SOL    HW1 1460   0.635   2.044   0.836  3.6041  0.6401 -2.7686
  487SOL    HW2 1461   0.556   2.182   0.816  5.6137  0.8626  0.1762
  488SOL     OW 1462   2.719   1.363   0.208 -0.9677  0.3933  0.0900
  488SOL    HW1 1463   2.788   1.441   0.190 -1.0282  1.5327 -1.1388
  488SOL    HW2 1464   2.635   1.378   0.153 -1.5670 -0.5035  1.9330
  489SOL     OW 1465   1.621   3.093   1.226 -0.2582  0.3717  0.2362
  489SOL    HW1 1466   1.645   0.022   1.317 -0.1627 -0.1999 -0.6614
  489SOL    HW2 1467   1.518   3.098   1.208 -1.2819 -1.6235 -0.2864
  490SOL     OW 1468   1.052   0.775   0.088  0.2899  0.0284 -0.1640
  490SOL    HW1 1469   1.135   0.714   0.102 -0.6069 -0.2680  1.5610
  490SOL    HW2 1470   1.049   0.840   0.169  0.0934 -1.0558  2.1467
  491SOL     OW 1471   0.703   2.312   0.560 -0.6335  0.7896 -0.2938
  491SOL    HW1 1472   0.663   2.358   0.641  1.5961  0.6266 -1.6473
  491SOL    HW2 1473   0.762   2.376   0.507 -1.1784  1.9926 -3.3397
  492SOL     OW 1474   1.384   1.311   2.258 -0.3731  0.2274 -0.3090
  492SOL    HW1 1475   1.432   1.397   2.291 -1.3309  1.2331  0.1985
  492SOL    HW2 1476   1.345   1.255   2.341  1.5868 -2.2816  1.4014
  493SOL     OW 1477   0.074   2.342   0.875  0.3365  0.2631 -0.2886
  493SOL    HW1 1478   0.087   2.258   0.934 -3.3005  2.9122  1.0865
  493SOL    HW2 1479   0.129   2.418   0.910 -3.4126 -1.6670  2.9207
  494SOL     OW 1480   2.625   2.231   2.973 -0.0716 -0.2883  0.2433
  494SOL    HW1 1481   2.678   2.175   2.914 -0.8728  1.4549  1.9535
  494SOL    HW2 1482   2.674   2.257   3.060 -0.1533  1.3693  0.9805
  495SOL     OW 1483   2.581   1.769   2.837  0.2930  0.2544  0.3632
  495SOL    HW1 1484   2.655   1.801   2.900 -2.4588 -1.6672  0.6641
  495SOL    HW2 1485   2.613   1.722   2.756 -3.2626 -1.1289 -2.0168
  496SOL     OW 1486   2.505   0.226   1.832  0.4756 -0.3651  0.1009
  496SOL    HW1 1487   2.544   0.253   1.920 -2.9230  0.1643  0.3630
  496SOL    HW2 1488   2.523   0.129   1.805  1.2503 -0.9625 -0.9843
  497SOL     OW 1489   2.629   0.969   0.330 -0.3220 -0.3627 -0.1381
  497SOL    HW1 1490   2.649   1.015   0.420  2.6005 -1.0879  0.0664
  497SOL    HW2 1491   2.610   0.871   0.338 -0.8868 -1.6355  0.2131
  498SOL     OW 1492   0.159   2.328   2.504  0.2722  0.2711  0.6920
  498SOL    HW1 1493   0.145   2.429   2.489 -2.0802  2.7011  1.4063
  498SOL    HW2 1494   0.069   2.288   2.490 -0.1316  0.0761  0.3626
  499SOL     OW 1495   0.963   2.016   0.392 -0.2020 -0.3083 -0.0488
  499SOL    HW1 1496   0.896   1.939   0.409 -0.8749  0.6232  0.2714
  499SOL    HW2 1497   0.970   2.034   0.294 -0.2460 -0.5591  0.1709
  500SOL     OW 1498   1.158   2.954   2.933 -0.2723  0.5585 -1.0152
  500SOL    HW1 1499   1.125   3.044   2.895 -0.8835  0.2525 -0.8876
  500SOL    HW2 1500   1.083   2.880   2.933  0.5104  0.1977 -0.5545
  501SOL     OW 1501   1.707   0.098   1.452 -0.1693 -0.4049  0.3070
  501SOL    HW1 1502   1.631   0.114   1.517  0.5667  1.2714 -2.9998
  501SOL    HW2 1503   1.783   0.049   1.492 -1.5486  1.3733  1.5890
  502SOL     OW 1504   2.915   0.399   2.259 -0.0603  0.1653  0.7257
  502SOL    HW1 1505   2.970   0.392   2.342  0.9195  1.8431 -0.3651
  502SOL    HW2 1506   2.924   0.317   2.196 -0.8035  1.3525 -0.2142
  503SOL     OW 1507   2.440   2.120   2.515 -0.1808  0.0466 -0.1060
  503SOL    HW1 1508   2.433   2.166   2.422 -1.8798 -0.4153  0.1018
  503SOL    HW2 1509   2.355   2.085   2.545  1.3856  1.2983 -1.8570
  504SOL     OW 1510   1.387   0.433   1.590 -0.1873  0.3865 -0.3379
  504SOL    HW1 1511   1.487   0.419   1.578  0.4436 -1.0202 -1.1307
  504SOL    HW2 1512   1.360   0.434   1.689 -3.2313 -0.7743 -4.7581
  505SOL     OW 1513   0.209   0.874   1.659 -0.6230 -0.0493 -0.1107
  505SOL    HW1 1514   0.214   0.937   1.739 -0.5382 -0.5763 -1.7792
  505SOL    HW2 1515   0.295   0.875   1.607 -2.3695  0.4260  1.1626
  506SOL     OW 1516   0.276   1.061   2.451  0.7177  0.2971  0.5055
  506SOL    HW1 1517   0.378   1.034   2.456  2.8577  0.8454 -1.3556
  506SOL    HW2 1518   0.225   0.975   2.476  0.0337  0.8644 -1.9585
  507SOL     OW 1519   0.144   2.878   2.852 -0.3946  0.0735 -0.5848
  507SOL    HW1 1520   0.208   2.957   2.877  3.7357 -0.9699  0.5775
  507SOL    HW2 1521   0.069   2.907   2.785 -0.7747  0.6087 -1.2643
  508SOL     OW 1522   1.743   0.819   1.428  0.2236  0.4689 -0.4479
  508SOL    HW1 1523   1.759   0.742   1.360  0.7744  0.0803 -1.0442
  508SOL    HW2 1524   1.832   0.860   1.458  0.0859  0.2625  0.4787
  509SOL     OW 1525   1.078   1.905   1.612  0.6369  0.1113  0.0454
  509SOL    HW1 1526   1.176   1.906   1.618 -3.1483 -0.5648  1.1016
  509SOL    HW2 1527   1.039   1.870   1.525  0.6066 -3.3318 -2.5375
  510SOL     OW 1528   2.133   1.347   2.271 -0.0116  0.2260  0.4119
  510SOL    HW1 1529   2.120   1.275   2.346 -0.5662  1.4349  1.5361
  510SOL    HW2 1530   2.172   1.306   2.185 -0.2125  0.1254 -0.4440
  511SOL     OW 1531   0.557   1.697   0.858  0.1893  0.2016  0.2675
  511SOL    HW1 1532   0.487   1.627   0.886 -1.3161 -2.1212  1.3133
  511SOL    HW2 1533   0.564   1.779   0.920  1.5129  0.4527  1.7235
  512SOL     OW 1534   2.337   2.167   0.441  0.7923  0.4685  0.5668
  512SOL    HW1 1535   2.288   2.252   0.466  1.3063  1.6769 -1.5916
  512SOL    HW2 1536   2.301   2.114   0.364  0.2077 -0.5866  1.3843
  513SOL     OW 1537   2.996   1.951   2.729 -0.2021  0.4530  0.2498
  513SOL    HW1 1538   3.026   1.951   2.827  0.4257 -1.2733 -0.6307
  513SOL    HW2 1539   3.057   2.014   2.674  3.0170  2.2133 -0.4797
  514SOL     OW 1540   0.246   2.617   2.785 -0.6725  0.2470  0.4900
  514SOL    HW1 1541   0.224   2.598   2.688 -0.8055  1.1650 -0.6439
  514SOL    HW2 1542   0.240   2.716   2.799 -1.0610 -3.7914 -0.2886
  515SOL     OW 1543   1.917   1.599   1.854  0.0505  0.3922 -0.5883
  515SOL    HW1 1544   1.921   1.628   1.952 -0.2918 -2.3399 -1.0704
  515SOL    HW2 1545   1.978   1.662   1.802  1.8462  0.8791  1.0485
  516SOL     OW 1546   2.387   2.444   2.758  0.3701  0.8309 -0.2238
  516SOL    HW1 1547   2.419   2.539   2.770 -1.5769  0.6464 -1.4359
  516SOL    HW2 1548   2.391   2.420   2.659  2.0338  4.0139  0.0006
  517SOL     OW 1549   1.391   1.127   3.057  0.0551  0.1434  0.5073
  517SOL    HW1 1550   1.477   1.128   3.002  0.2883 -0.0640  0.4256
  517SOL    HW2 1551   1.411   1.095   0.042  1.3747  1.9734  3.4962
  518SOL     OW 1552   2.798   3.111   2.332  0.2993 -0.1990 -0.2313
  518SOL    HW1 1553   2.835   0.035   2.248 -0.0909 -0.7495  4.0775
  518SOL    HW2 1554   2.731   3.033   2.314 -1.1275 -1.3447  0.8199
  519SOL     OW 1555   1.744   1.907   2.081  0.0464  0.5360  0.0781
  519SOL    HW1 1556   1.663   1.846   2.094  1.3292 -0.4327  2.9411
  519SOL    HW2 1557   1.767   1.951   2.167  0.6002 -1.0364  0.7731
  520SOL     OW 1558   2.747   0.118   2.710 -0.5275  0.1039 -0.1832
  520SOL    HW1 1559   2.700   0.163   2.786  2.8739 -0.3537  1.9027
  520SOL    HW2 1560   2.682   0.091   2.632  1.3018  0.8060 -1.5780
  521SOL     OW 1561   0.580   1.509   2.181  0.6722 -0.1894  0.3084
  521SOL    HW1 1562   0.641   1.532   2.102  2.0355  0.6104 -0.8341
  521SOL    HW2 1563   0.592   1.409   2.206 -1.2987 -0.7917  1.0108
  522SOL     OW 1564   1.269   0.040   1.500  0.7101 -0.3981  0.8090
  522SOL    HW1 1565   1.339   0.101   1.542 -2.4959 -0.9646  0.7484
  522SOL    HW2 1566   1.176   0.078   1.513  1.3576  1.7008  0.6328
  523SOL     OW 1567   0.238   2.518   0.987 -0.4487 -0.0055 -0.2925
  523SOL    HW1 1568   0.281   2.484   1.071  0.0726 -2.3067 -1.7771
  523SOL    HW2 1569   0.315   2.552   0.929 -0.0230  2.8321 -0.0758
  524SOL     OW 1570   1.619   2.477   0.726  0.2267  0.5130 -0.3653
  524SOL    HW1 1571   1.545   2.413   0.758 -0.0880 -1.0757  1.4025
  524SOL    HW2 1572   1.601   2.574   0.766  4.0727  2.9707  1.6476
  525SOL     OW 1573   2.600   0.962   1.040  0.0150 -0.3206  0.1746
  525SOL    HW1 1574   2.546   1.028   1.100 -3.4633  0.6133  0.1438
  525SOL    HW2 1575   2.535   0.886   1.014  1.4038  0.1380 -0.1621
  526SOL     OW 1576   1.058   2.738   0.772 -0.2366  0.0924 -0.2437
  526SOL    HW1 1577   0.974   2.709   0.723  1.0364  3.1354  1.7387
  526SOL    HW2 1578   1.073   2.836   0.759 -1.1747 -2.1494 -0.1671
  527SOL     OW 1579   2.281   1.945   0.696  0.5067 -0.0893  0.3937
  527SOL    HW1 1580   2.347   1.979   0.623  1.6605  0.4655 -1.9572
  527SOL    HW2 1581   2.313   1.863   0.741  0.3749  2.7161 -2.0004
  528SOL     OW 1582   2.308   0.472   0.557  0.2254 -0.3338 -0.0771
  528SOL    HW1 1583   2.317   0.572   0.567 -1.3746  0.1337  1.4056
  528SOL    HW2 1584   2.216   0.455   0.509 -1.7962 -0.7245 -1.6614
  529SOL     OW 1585   0.991   1.215   2.253  0.0966 -0.4881  0.1214
  529SOL    HW1 1586   1.002   1.300   2.305 -1.0535 -1.3623  0.4616
  529SOL    HW2 1587   1.038   1.142   2.307  0.5883 -1.6515 -0.3124
  530SOL     OW 1588   2.530   0.858   2.970  0.0991 -0.9053  0.2478
  530SOL    HW1 1589   2.457   0.781   2.972 -0.0585  0.3672  1.7214
  530SOL    HW2 1590   2.479   0.941   2.933 -0.3135  0.6160 -1.1440
  531SOL     OW 1591   1.457   1.085   0.185  0.1899  0.2870  0.0429
  531SOL    HW1 1592   1.371   1.084   0.237 -0.5563 -0.0346 -0.1432
  531SOL    HW2 1593   1.535   1.079   0.249 -1.9523 -3.2071  1.8048
  532SOL     OW 1594   2.030   0.110   0.744  0.3569  0.1844  0.2709
  532SOL    HW1 1595   2.001   0.030   0.802  1.3858 -0.8943  2.7922
  532SOL    HW2 1596   2.125   0.138   0.753 -3.2519  1.1522 -0.2095
  533SOL     OW 1597   0.967   0.973   1.766 -0.2847  0.1206 -0.7874
  533SOL    HW1 1598   0.976   1.060   1.718  0.8465 -0.2841  2.1700
  533SOL    HW2 1599   1.056   0.947   1.816  1.6856  2.1060 -2.7771
  534SOL     OW 1600   1.574   3.026   2.742 -0.6864 -0.0103  0.2375
  534SOL    HW1 1601   1.613   2.932   2.724 -2.2129  2.1280  2.4658
  534SOL    HW2 1602   1.557   3.041   2.843  1.4590  1.4840 -3.1048
  535SOL     OW 1603   0.526   0.108   0.163 -0.5439  0.0172 -0.1210
  535SOL    HW1 1604   0.521   0.156   0.071  1.3908 -1.4036  0.0920
  535SOL    HW2 1605   0.463   0.027   0.164 -0.9217 -4.8697  1.0303
  536SOL     OW 1606   0.840   2.570   1.202 -1.0755 -0.1208 -0.7134
  536SOL    HW1 1607   0.901   2.537   1.275 -1.6745 -0.5345  0.1979
  536SOL    HW2 1608   0.885   2.650   1.156 -0.3926 -1.3546 -1.5428
  537SOL     OW 1609   1.829   0.129   1.772  0.0878  0.2385  0.1046
  537SOL    HW1 1610   1.755   0.199   1.775 -0.9221  0.5273  1.7598
  537SOL    HW2 1611   1.851   0.089   1.676 -0.9011 -2.7469 -0.6441
  538SOL     OW 1612   2.906   2.743   0.362  0.2750 -0.1500 -0.4714
  538SOL    HW1 1613   2.907   2.734   0.261  1.9949 -0.8232 -2.5281
  538SOL    HW2 1614   2.890   2.651   0.406 -1.0631 -0.7121 -1.0661
  539SOL     OW 1615   2.897   2.048   2.121 -0.4268 -0.2252 -0.1604
  539SOL    HW1 1616   2.963   2.098   2.059  2.3647 -1.7063  0.7032
  539SOL    HW2 1617   2.823   2.027   2.061 -0.6495 -0.7756  1.1553
  540SOL     OW 1618   3.000   2.788   1.797 -0.2852  0.1644  0.3669
  540SOL    HW1 1619   3.038   2.701   1.839  0.1870 -4.4506 -0.6003
  540SOL    HW2 1620   2.927   2.832   1.854  0.8502 -0.5638 -0.6344
  541SOL     OW 1621   2.589   3.096   1.749 -0.2751  0.7489  0.7317
  541SOL    HW1 1622   2.547   3.004   1.727 -0.6651  0.2331 -2.1727
  541SOL    HW2 1623   2.686   3.096   1.717 -0.2778  0.0703  1.0416
  542SOL     OW 1624   2.881   0.648   2.156  0.6415  0.1578  0.3597
  542SOL    HW1 1625   2.827   0.621   2.074 -1.5120  1.0405  0.2474
  542SOL    HW2 1626   2.907   0.560   2.205 -0.8901 -0.8422 -0.5179
  543SOL     OW 1627   0.839   0.673   0.750  0.3889 -0.1625  0.2315
  543SOL    HW1 1628   0.864   0.770   0.771 -1.0390 -0.0038  1.3344
  543SOL    HW2 1629   0.741   0.669   0.751 -1.0168  1.6621 -0.2382
  544SOL     OW 1630   2.241   1.979   1.122  0.6022 -0.7178  0.0278
  544SOL    HW1 1631   2.204   1.995   1.028 -1.0729  0.6793 -0.1357
  544SOL    HW2 1632   2.331   1.926   1.118  2.4990  0.7578 -0.1569
  545SOL     OW 1633   1.199   1.639   0.381  0.1111 -0.2730  0.1658
  545SOL    HW1 1634   1.236   1.574   0.312 -0.9443 -0.5067  2.4391
  545SOL    HW2 1635   1.198   1.591   0.471  0.3558 -1.6295 -0.3598
  546SOL     OW 1636   2.471   0.483   2.232 -0.3802 -0.4931 -0.5527
  546SOL    HW1 1637   2.471   0.554   2.160 -0.0429  0.3674 -0.9418
  546SOL    HW2 1638   2.430   0.401   2.189  1.3966 -1.2337 -1.4727
  547SOL     OW 1639   0.187   0.336   2.422 -0.3335  0.0336 -0.2497
  547SOL    HW1 1640   0.172   0.363   2.518  0.5738 -3.5597 -1.8821
  547SOL    HW2 1641   0.241   0.411   2.371  0.3671  1.5240  1.5663
  548SOL     OW 1642   2.102   2.041   2.338 -0.0404  0.0930 -0.1779
  548SOL    HW1 1643   2.167   2.000   2.272  0.8076  1.1665  1.5483
  548SOL    HW2 1644   2.127   2.025   2.436  0.0663  0.1377 -1.4404
  549SOL     OW 1645   2.543   0.512   0.910  0.1803  0.2819  0.1123
  549SOL    HW1 1646   2.593   0.544   0.824  0.6752  0.3710  1.1191
  549SOL    HW2 1647   2.586   0.437   0.962 -0.6494  0.3339 -0.4807
  550SOL     OW 1648   1.679   1.469   0.519 -0.9150 -0.2960 -0.1204
  550SOL    HW1 1649   1.697   1.468   0.419  4.4994  4.5477 -0.9698
  550SOL    HW2 1650   1.651   1.561   0.552  1.2612  0.9544  0.0477
  551SOL     OW 1651   1.296   0.262   1.103  0.0128 -0.3953 -0.3254
  551SOL    HW1 1652   1.206   0.265   1.053 -0.4675 -0.9956 -0.3019
  551SOL    HW2 1653   1.304   0.177   1.158  1.1037  3.5120  1.2802
  552SOL     OW 1654   2.083   2.442   1.973 -0.1952 -0.3434 -0.3433
  552SOL    HW1 1655   1.990   2.452   2.022 -3.8552  0.7421  1.0437
  552SOL    HW2 1656   2.161   2.469   2.027  1.1172 -1.4681 -3.0411
  553SOL     OW 1657   0.400   2.985   0.164  0.2558 -0.5756 -0.8226
  553SOL    HW1 1658   0.416   2.911   0.231 -3.4921  2.2812  0.4017
  553SOL    HW2 1659   0.425   2.948   0.075  1.4439 -0.0642  0.4308
  554SOL     OW 1660   1.729   2.718   1.901  0.4738 -0.6824  0.3651
  554SOL    HW1 1661   1.748   2.632   1.844 -1.6252 -2.4341 -1.5924
  554SOL    HW2 1662   1.745   2.703   1.998 -0.7316  0.7607 -2.0145
  555SOL     OW 1663   2.430   2.839   1.922 -0.0911 -0.3241  0.2571
  555SOL    HW1 1664   2.378   2.878   1.844  1.4946 -0.3168  0.4681
  555SOL    HW2 1665   2.437   2.910   1.992  0.8043 -2.2136 -0.0233
  556SOL     OW 1666   0.864   2.902   0.283  0.1353 -0.2545  0.1744
  556SOL    HW1 1667   0.948   2.881   0.339 -2.9140 -0.9905 -1.7635
  556SOL    HW2 1668   0.857   2.997   0.250  2.8804 -3.1469  0.1720
  557SOL     OW 1669   0.636   2.240   2.169 -0.1910 -0.1272  0.5026
  557SOL    HW1 1670   0.619   2.299   2.084  0.0117  0.4579 -0.5172
  557SOL    HW2 1671   0.628   2.295   2.256  1.4380  0.3597  0.5178
  558SOL     OW 1672   2.589   1.017   2.412  0.6377  0.1523  0.1568
  558SOL    HW1 1673   2.666   0.992   2.470  0.8543  0.6283  0.0768
  558SOL    HW2 1674   2.577   1.117   2.426  0.9846 -0.5512  1.7816
  559SOL     OW 1675   2.450   2.225   2.258  0.1556  0.2536  0.0481
  559SOL    HW1 1676   2.375   2.275   2.213 -0.3691 -0.2523  2.4395
  559SOL    HW2 1677   2.465   2.143   2.201 -0.0701  0.1618 -0.5577
  560SOL     OW 1678   0.647   0.442   2.056  0.3819  0.1611  0.3183
  560SOL    HW1 1679   0.733   0.451   2.112  1.6380  2.7241  0.2828
  560SOL    HW2 1680   0.599   0.352   2.052  1.1042  1.8505  0.7833
  561SOL     OW 1681   1.039   0.465   0.334  0.3637  0.1237 -0.2244
  561SOL    HW1 1682   0.964   0.505   0.388 -1.2315  0.7359  1.2463
  561SOL    HW2 1683   1.013   0.397   0.262 -2.3913  0.0987  1.3779
  562SOL     OW 1684   0.799   1.470   1.482 -0.3812 -0.1121 -0.2142
  562SOL    HW1 1685   0.785   1.366   1.490  1.5271  1.1804  0.3682
  562SOL    HW2 1686   0.797   1.496   1.383  0.0246 -1.7063 -0.6145
  563SOL     OW 1687   1.661   2.685   0.106 -0.1748  0.5583 -0.2358
  563SOL    HW1 1688   1.757   2.707   0.096 -1.6174 -0.6450 -2.4904
  563SOL    HW2 1689   1.606   2.737   0.045  1.7629  0.1125  2.1606
  564SOL     OW 1690   3.083   1.899   0.604 -0.0112 -0.2270 -0.7072
  564SOL    HW1 1691   3.003   1.919   0.542 -0.7420  0.3663 -0.3111
  564SOL    HW2 1692   3.074   1.944   0.695 -0.9506  1.9191  2.2351
  565SOL     OW 1693   0.576   2.691   2.330  0.5335  0.4513 -0.5102
  565SOL    HW1 1694   0.489   2.750   2.335 -0.2117  2.0078 -0.3789
  565SOL    HW2 1695   0.557   2.589   2.333  1.9589 -2.2273  0.2057
  566SOL     OW 1696   1.610   2.560   2.601 -0.4282 -0.2952  0.2885
  566SOL    HW1 1697   1.631   2.593   2.690 -4.2624  0.1333 -6.2231
  566SOL    HW2 1698   1.662   2.473   2.580  1.8071  2.1092  0.1902
  567SOL     OW 1699   1.795   2.029   1.409  0.9464 -0.5659  0.3038
  567SOL    HW1 1700   1.826   2.126   1.416  0.8320 -0.1364 -0.6680
  567SOL    HW2 1701   1.732   2.020   1.323 -0.8337  1.4329 -2.6756
  568SOL     OW 1702   2.057   0.675   2.991  0.4285  0.3112 -0.6130
  568SOL    HW1 1703   1.992   0.630   3.060 -1.0210 -0.6861  2.7407
  568SOL    HW2 1704   2.154   0.663   3.012  0.4948 -1.5566  2.3265
  569SOL     OW 1705   2.841   1.510   2.261 -0.2123 -0.1427 -0.1192
  569SOL    HW1 1706   2.885   1.603   2.245  1.4795  0.1571 -1.0783
  569SOL    HW2 1707   2.883   1.458   2.337 -0.0654 -1.1506  0.6299
  570SOL     OW 1708   2.710   2.664   1.801 -0.0116  0.1770  0.0345
  570SOL    HW1 1709   2.640   2.703   1.732  0.0298 -0.4869  0.3132
  570SOL    HW2 1710   2.748   2.735   1.861 -1.8429 -1.1123  0.7430
  571SOL     OW 1711   0.358   0.161   1.658 -0.6682  0.0254  0.0206
  571SOL    HW1 1712   0.401   0.217   1.586 -2.1351 -1.8158 -0.1279
  571SOL    HW2 1713   0.425   0.099   1.711  2.9684  0.8668  3.8798
  572SOL     OW 1714   3.025   2.015   0.844  0.3052  0.0758 -0.4099
  572SOL    HW1 1715   2.976   2.102   0.829  1.2013 -0.2696 -1.2093
  572SOL    HW2 1716   0.005   2.029   0.877  0.2775 -0.5049  0.8719
  573SOL     OW 1717   0.937   0.689   2.906  0.6840  0.3498 -0.9155
  573SOL    HW1 1718   0.971   0.679   3.003  0.4428  0.4812 -0.4731
  573SOL    HW2 1719   0.839   0.661   2.900  0.1803 -0.3357  0.6896
  574SOL     OW 1720   0.007   2.984   0.091 -0.1477 -0.1286  0.0115
  574SOL    HW1 1721   0.048   3.060   0.035  0.9356  0.0894 -1.7223
  574SOL    HW2 1722   0.043   2.891   0.060 -1.7387 -1.5796 -1.5088
  575SOL     OW 1723   1.310   2.123   1.271 -0.3025 -0.3153  0.2754
  575SOL    HW1 1724   1.234   2.070   1.217  0.5599 -1.7741  0.7439
  575SOL    HW2 1725   1.366   2.181   1.204  0.9272  1.0116  1.1614
  576SOL     OW 1726   3.082   2.899   1.423 -0.1882 -0.1681 -0.2798
  576SOL    HW1 1727   2.987   2.889   1.459  1.3464 -1.8216 -0.4779
  576SOL    HW2 1728   0.041   2.873   1.491  2.2317  1.9046  2.6639
  577SOL     OW 1729   2.164   1.527   1.632  0.3173 -0.7246  0.0889
  577SOL    HW1 1730   2.131   1.617   1.654  3.2697 -1.3677 -0.1898
  577SOL    HW2 1731   2.130   1.497   1.539 -2.0622 -2.6469 -2.1982
  578SOL     OW 1732   1.083   0.103   2.862  0.0470  0.3189 -0.7605
  578SOL    HW1 1733   1.118   0.185   2.913 -0.6970  0.1792  0.4151
  578SOL    HW2 1734   1.032   0.131   2.781  0.1305 -0.8642  0.5542
  579SOL     OW 1735   2.503   1.818   2.268 -0.0141  0.5454  0.3639
  579SOL    HW1 1736   2.595   1.780   2.272 -0.9063  1.1316 -0.3171
  579SOL    HW2 1737   2.499   1.904   2.212 -0.7674  0.5112  0.2999
  580SOL     OW 1738   1.662   0.342   1.779  0.5206 -0.1377 -0.2096
  580SOL    HW1 1739   1.673   0.377   1.683 -0.1589 -1.0236 -2.1690
  580SOL    HW2 1740   1.667   0.422   1.844  1.5818  2.9604  1.6901
  581SOL     OW 1741   1.037   1.524   1.649  0.1904  0.3543 -0.4693
  581SOL    HW1 1742   1.025   1.432   1.688  0.7660 -0.2087  0.2052
  581SOL    HW2 1743   0.987   1.546   1.563  0.0144 -1.2704  1.5047
  582SOL     OW 1744   2.927   2.748   2.220 -0.2777 -0.1802  0.7913
  582SOL    HW1 1745   3.006   2.814   2.200 -0.0163  2.6163  0.5019
  582SOL    HW2 1746   2.943   2.694   2.305 -0.0259 -0.8872 -0.9203
  583SOL     OW 1747   1.865   1.140   1.371 -0.5598 -0.5643 -0.4454
  583SOL    HW1 1748   1.845   1.239   1.386  0.0964  0.3458  0.9755
  583SOL    HW2 1749   1.782   1.083   1.375  1.2376 -1.3614  0.9948
  584SOL     OW 1750   1.359   2.022   2.724 -0.3916 -0.3184  0.3247
  584SOL    HW1 1751   1.432   1.992   2.658  1.4815 -2.3340 -2.2113
  584SOL    HW2 1752   1.283   2.078   2.688 -2.6092  0.9434  0.1236
  585SOL     OW 1753   0.099   2.497   0.456  0.5115  0.6476  0.5227
  585SOL    HW1 1754   0.123   2.395   0.444  1.3082 -2.7438  1.0411
  585SOL    HW2 1755   0.084   2.538   0.364  0.4789  0.5927 -0.2694
  586SOL     OW 1756   1.852   2.427   2.874 -0.0828 -0.8900 -0.2356
  586SOL    HW1 1757   1.876   2.383   2.963 -1.7910  0.3655 -0.5625
  586SOL    HW2 1758   1.933   2.428   2.813 -1.2525 -0.2293  0.8897
  587SOL     OW 1759   2.599   2.018   0.352  0.7739 -0.3858 -0.1975
  587SOL    HW1 1760   2.604   2.108   0.307  0.1886 -1.9930 -4.5919
  587SOL    HW2 1761   2.692   1.971   0.348  1.9166 -1.8629 -0.0406
  588SOL     OW 1762   2.337   0.374   1.186  0.7483 -0.9031 -0.1713
  588SOL    HW1 1763   2.423   0.350   1.143 -1.7625 -0.2160 -1.1315
  588SOL    HW2 1764   2.314   0.477   1.197  0.4865  2.4440  0.0075
  589SOL     OW 1765   1.042   0.816   0.497  0.2827  0.3335  0.4066
  589SOL    HW1 1766   0.967   0.748   0.514 -1.8604  0.9446  0.8045
  589SOL    HW2 1767   1.132   0.776   0.477 -0.9320  3.3543 -1.3026
  590SOL     OW 1768   2.239   2.403   0.115 -0.2230 -0.2623  0.0457
  590SOL    HW1 1769   2.193   2.469   0.174  1.7579 -1.3821 -0.9949
  590SOL    HW2 1770   2.194   2.311   0.108 -1.6254 -2.7034  3.0853
  591SOL     OW 1771   0.063   2.553   1.872 -0.0134 -0.0599 -0.0728
  591SOL    HW1 1772   0.116   2.500   1.795 -0.1412  0.3517  1.0403
  591SOL    HW2 1773   0.125   2.608   1.932  2.3925  1.6075  0.3054
  592SOL     OW 1774   0.849   1.015   1.342 -0.0093  0.2961  0.1001
  592SOL    HW1 1775   0.788   1.034   1.260 -1.0619  0.5643  0.8853
  592SOL    HW2 1776   0.895   0.924   1.335  0.9737 -0.1528 -1.6174
  593SOL     OW 1777   1.068   1.839   1.343 -0.0686  0.2740 -0.2095
  593SOL    HW1 1778   1.093   1.912   1.281  1.2961 -1.4781  1.8379
  593SOL    HW2 1779   1.078   1.748   1.295  2.0470  0.6785 -1.1425
  594SOL     OW 1780   0.286   1.954   2.838  0.3062 -0.0295 -0.2007
  594SOL    HW1 1781   0.211   1.894   2.808  1.1584  3.7048  1.8006
  594SOL    HW2 1782   0.354   1.977   2.762  0.4123  1.2457  1.6970
  595SOL     OW 1783   1.491   0.459   1.121  0.4271  0.1049  0.1255
  595SOL    HW1 1784   1.526   0.465   1.027  1.1328 -0.8415 -0.0587
  595SOL    HW2 1785   1.418   0.386   1.140 -2.1424  2.0113  2.3298
  596SOL     OW 1786   0.151   1.420   0.290 -0.5215  0.2097 -0.5495
  596SOL    HW1 1787   0.080   1.403   0.360  0.1380 -1.9258 -1.7562
  596SOL    HW2 1788   0.235   1.364   0.303 -2.4368  2.6838  1.0759
  597SOL     OW 1789   3.026   2.383   0.086 -0.0794 -0.6629 -0.1790
  597SOL    HW1 1790   3.043   2.313   0.011 -0.3444 -0.3100 -1.8082
  597SOL    HW2 1791   3.012   2.337   0.175  0.8134 -2.3116  0.3713
  598SOL     OW 1792   2.145   2.011   2.589  0.0860  0.5004 -0.4904
  598SOL    HW1 1793   2.175   1.924   2.633  2.2936 -1.4049  0.6738
  598SOL    HW2 1794   2.115   2.074   2.662 -1.1178  1.5570 -0.8783
  599SOL     OW 1795   1.281   0.330   0.446 -0.0031  0.0385 -0.6057
  599SOL    HW1 1796   1.207   0.404   0.460  0.1405  0.4917  3.8422
  599SOL    HW2 1797   1.367   0.362   0.401  2.2654  0.7912 -0.6076
  600SOL     OW 1798   0.705   2.678   0.395  0.1381 -1.0235  0.3998
  600SOL    HW1 1799   0.742   2.772   0.393 -2.2310 -2.9109  0.3416
  600SOL    HW2 1800   0.607   2.687   0.367 -2.3559  0.1187  1.3381
  601SOL     OW 1801   0.625   0.792   0.980 -0.3154  0.2694 -0.6022
  601SOL    HW1 1802   0.553   0.794   1.053 -0.6971 -1.1597 -0.5233
  601SOL    HW2 1803   0.722   0.790   1.021  2.0695 -0.8519  1.5543
  602SOL     OW 1804   0.252   2.909   1.190 -0.7611  0.0261 -0.5111
  602SOL    HW1 1805   0.232   3.004   1.227 -0.0103  3.8158 -3.0057
  602SOL    HW2 1806   0.256   2.845   1.267 -0.3478  2.2789 -0.6993
  603SOL     OW 1807   1.243   2.752   2.428 -0.2446  0.2029 -0.2072
  603SOL    HW1 1808   1.280   2.815   2.500 -0.9065  0.0567  1.4907
  603SOL    HW2 1809   1.178   2.810   2.374 -0.3402  0.6060 -1.6951
  604SOL     OW 1810   0.601   2.824   2.855  0.4911  0.1859  0.3520
  604SOL    HW1 1811   0.590   2.887   2.769 -1.1544  2.1603 -1.4737
  604SOL    HW2 1812   0.582   2.724   2.835  1.0868 -1.5628 -2.1752
  605SOL     OW 1813   1.126   0.666   1.797  0.4919  0.0336  0.3759
  605SOL    HW1 1814   1.044   0.608   1.812  2.4934  1.5100 -1.3298
  605SOL    HW2 1815   1.185   0.665   1.880  0.3901 -0.2419  2.4522
  606SOL     OW 1816   1.975   0.546   2.782  0.2337 -0.2195  0.9461
  606SOL    HW1 1817   2.004   0.583   2.874 -0.4348  1.1507  1.9694
  606SOL    HW2 1818   1.882   0.508   2.794  2.2725  2.2762  1.2057
  607SOL     OW 1819   0.626   1.070   0.906 -0.0822  0.3285 -0.3878
  607SOL    HW1 1820   0.697   1.064   0.831  0.6869 -0.9632 -1.5253
  607SOL    HW2 1821   0.602   0.980   0.948  1.2612  0.9877 -1.5047
  608SOL     OW 1822   0.157   2.627   2.525 -0.0904 -0.1684  0.5219
  608SOL    HW1 1823   0.237   2.685   2.502  3.2445 -0.6317  0.4441
  608SOL    HW2 1824   0.084   2.643   2.454  1.6834  1.5266 -1.1990
  609SOL     OW 1825   1.398   0.664   3.052  0.1650  0.5392  0.5635
  609SOL    HW1 1826   1.480   0.603   3.053  0.9717  1.7460 -3.2513
  609SOL    HW2 1827   1.351   0.662   0.032 -0.7916  0.1896  0.8532
  610SOL     OW 1828   0.629   2.769   1.348  0.2616 -0.4472  0.1057
  610SOL    HW1 1829   0.688   2.690   1.319 -0.4376  0.8107 -0.5462
  610SOL    HW2 1830   0.582   2.818   1.271 -0.1981  1.2571 -2.3673
  611SOL     OW 1831   1.586   0.956   0.539  0.2799  0.3471 -0.1655
  611SOL    HW1 1832   1.618   1.035   0.490 -1.9078 -1.7968  2.6519
  611SOL    HW2 1833   1.616   0.869   0.494  1.2660 -0.2950 -0.3513
  612SOL     OW 1834   1.470   0.893   2.791  0.4865  0.7628  0.2775
  612SOL    HW1 1835   1.426   0.870   2.705 -1.1355 -1.0026  4.7537
  612SOL    HW2 1836   1.395   0.929   2.852  0.2331 -2.9927  0.9629
  613SOL     OW 1837   2.466   0.998   0.748  0.0396  0.0842 -0.0277
  613SOL    HW1 1838   2.398   1.006   0.672 -1.3598  2.6169 -0.5956
  613SOL    HW2 1839   2.424   0.991   0.839  1.6396  1.2471 -1.9856
  614SOL     OW 1840   2.336   0.277   2.110 -0.0259  0.0519 -0.6532
  614SOL    HW1 1841   2.281   0.227   2.180  0.1266  2.7767 -2.1492
  614SOL    HW2 1842   2.327   0.235   2.020 -2.3131  2.7580  0.7591
  615SOL     OW 1843   0.754   2.272   1.178  0.2835 -0.3983  0.0786
  615SOL    HW1 1844   0.724   2.256   1.274  0.5247  2.4064 -1.2293
  615SOL    HW2 1845   0.692   2.344   1.143  2.0760 -0.1692 -0.7168
  616SOL     OW 1846   1.777   1.230   2.468  0.7287  0.5269  0.1103
  616SOL    HW1 1847   1.756   1.184   2.378  1.4127 -2.2904 -0.1543
  616SOL    HW2 1848   1.772   1.331   2.465 -0.0744  1.9321  0.5151
  617SOL     OW 1849   1.421   2.787   0.021 -0.4040 -0.1976 -0.7118
  617SOL    HW1 1850   1.419   2.853   0.102 -1.2816 -2.0777  1.5750
  617SOL    HW2 1851   1.385   2.695   0.043  3.7662  1.1575  0.5852
  618SOL     OW 1852   1.500   1.557   2.333  0.0406 -0.8942 -0.0398
  618SOL    HW1 1853   1.466   1.643   2.385 -1.7407  2.7663  3.0277
  618SOL    HW2 1854   1.596   1.541   2.358  0.0180  0.6879 -0.5500
  619SOL     OW 1855   2.678   1.426   0.823 -0.0289  0.3608 -0.0821
  619SOL    HW1 1856   2.621   1.376   0.756 -0.5007  1.8606  1.2384
  619SOL    HW2 1857   2.691   1.372   0.909  0.9822  1.9157  0.9827
  620SOL     OW 1858   2.208   2.650   2.632  0.4514  0.0387 -0.6421
  620SOL    HW1 1859   2.280   2.704   2.679  0.5945  0.0633  0.3694
  620SOL    HW2 1860   2.129   2.717   2.627 -0.9107 -0.5975  0.3083
  621SOL     OW 1861   2.810   1.270   0.447 -0.2364 -0.4460  0.7148
  621SOL    HW1 1862   2.744   1.292   0.376 -1.5909 -3.0806  1.5905
  621SOL    HW2 1863   2.764   1.192   0.505 -1.2329  0.6027  0.0916
  622SOL     OW 1864   1.323   2.527   2.566 -0.0233 -0.8539  0.3182
  622SOL    HW1 1865   1.424   2.516   2.583 -0.1696  1.1524  1.1556
  622SOL    HW2 1866   1.301   2.615   2.515  1.1525  0.1298  1.7294
  623SOL     OW 1867   0.295   2.372   0.052  0.5351  0.3541  0.3785
  623SOL    HW1 1868   0.279   2.275   0.030  1.9482 -1.1530 -0.3380
  623SOL    HW2 1869   0.232   2.416   0.118  0.1172 -0.6310  2.4365
  624SOL     OW 1870   0.300   3.076   2.948 -0.5320 -0.7574 -0.3020
  624SOL    HW1 1871   0.373   0.016   2.901  2.2669  0.6055 -0.6181
  624SOL    HW2 1872   0.342   3.005   3.007 -2.5222  0.5599  0.3789
  625SOL     OW 1873   0.802   2.313   2.956 -0.0588 -0.4733  0.0988
  625SOL    HW1 1874   0.872   2.294   2.887  0.9398  0.9260 -0.0708
  625SOL    HW2 1875   0.712   2.266   2.939  1.7324  2.9287 -1.5149
  626SOL     OW 1876   2.992   0.729   0.440 -0.2171 -0.0338 -0.6398
  626SOL    HW1 1877   2.899   0.689   0.435  0.1347 -0.7858  1.2926
  626SOL    HW2 1878   3.060   0.654   0.468  0.5705 -1.0127  1.0281
  627SOL     OW 1879   1.871   1.531   2.946  0.3289 -0.3469 -0.0592
  627SOL    HW1 1880   1.958   1.486   2.922 -1.3589 -0.4481 -0.6636
  627SOL    HW2 1881   1.889   1.630   2.949  0.1451 -1.3702  0.3837
  628SOL     OW 1882   1.314   1.216   2.695  0.0810 -0.3470 -0.2208
  628SOL    HW1 1883   1.247   1.148   2.727  3.0605  1.1782 -0.4030
  628SOL    HW2 1884   1.402   1.204   2.744  0.9087  1.2038 -0.8196
  629SOL     OW 1885   0.606   3.070   1.770  0.1003  0.2274 -0.5446
  629SOL    HW1 1886   0.628   2.998   1.842 -2.9792 -1.7087  0.3451
  629SOL    HW2 1887   0.601   3.021   1.685 -0.8224  3.6993  3.1027
  630SOL     OW 1888   2.288   0.915   2.166  0.2720 -0.3008  0.2821
  630SOL    HW1 1889   2.319   0.990   2.105  1.4036  1.9768  0.7134
  630SOL    HW2 1890   2.204   0.884   2.124  0.4711  0.4675  3.1169
  631SOL     OW 1891   1.875   0.309   0.599  0.6687 -0.4365 -0.2863
  631SOL    HW1 1892   1.931   0.236   0.637  0.9034 -1.3669  2.1965
  631SOL    HW2 1893   1.785   0.271   0.579 -0.0447 -2.6506 -0.1770
  632SOL     OW 1894   0.063   0.555   1.565  0.2580 -0.2064  0.0030
  632SOL    HW1 1895   3.107   0.481   1.554 -1.1062  1.6782  2.5263
  632SOL    HW2 1896   0.017   0.648   1.566  1.7540 -0.8607  0.0903
  633SOL     OW 1897   0.890   0.428   3.110 -0.0159 -0.0063  0.1678
  633SOL    HW1 1898   0.830   0.395   3.032 -1.2724 -1.2898  0.5257
  633SOL    HW2 1899   0.909   0.348   0.053 -1.3116  3.2593  0.0973
  634SOL     OW 1900   0.677   2.538   3.091  0.4684 -0.2278 -0.4623
  634SOL    HW1 1901   0.744   2.601   0.024  0.7077  1.5485  0.8215
  634SOL    HW2 1902   0.734   2.475   3.034  2.6681 -1.2556 -0.4904
  635SOL     OW 1903   0.254   0.659   0.510 -0.2153 -0.3875 -0.0079
  635SOL    HW1 1904   0.165   0.617   0.473 -0.1750 -1.2951  0.2866
  635SOL    HW2 1905   0.311   0.693   0.432  1.8351  0.0173  2.3227
  636SOL     OW 1906   0.625   1.297   0.108 -0.3148  0.1499  0.1628
  636SOL    HW1 1907   0.629   1.197   0.080  0.8783 -0.9340  0.7669
  636SOL    HW2 1908   0.662   1.350   0.028 -0.3263  0.9602  0.6614
  637SOL     OW 1909   0.246   2.731   0.445 -0.4754  0.2249  0.0545
  637SOL    HW1 1910   0.227   2.643   0.491  2.1128  0.0698 -0.1172
  637SOL    HW2 1911   0.161   2.762   0.395  2.0184 -1.8689 -0.7855
  638SOL     OW 1912   2.833   2.536   0.525 -0.4671 -0.0402  0.1768
  638SOL    HW1 1913   2.816   2.435   0.514  2.4970  0.6717  2.0158
  638SOL    HW2 1914   2.904   2.552   0.597 -0.8055  0.0550 -1.3694
  639SOL     OW 1915   1.796   0.887   0.144 -0.0148 -0.2562  0.2739
  639SOL    HW1 1916   1.763   0.866   0.049 -1.9068  2.7153 -2.3141
  639SOL    HW2 1917   1.834   0.985   0.142  0.6870  2.3792  1.1232
  640SOL     OW 1918   1.608   2.290   1.535 -0.2190  0.3278 -1.1399
  640SOL    HW1 1919   1.541   2.328   1.466  2.2721  0.2629 -0.6251
  640SOL    HW2 1920   1.699   2.316   1.497  0.6584 -0.7250  1.5281
  641SOL     OW 1921   0.058   2.686   1.115  0.1033  0.1491 -1.3434
  641SOL    HW1 1922   0.113   2.736   1.184 -0.5070 -0.4424 -1.9653
  641SOL    HW2 1923   0.126   2.634   1.055  1.3072 -2.4199 -0.5949
  642SOL     OW 1924   1.165   0.186   1.810 -0.2819  0.3043 -0.5745
  642SOL    HW1 1925   1.128   0.199   1.714 -1.0530  2.5800 -0.9653
  642SOL    HW2 1926   1.209   0.275   1.836 -0.0866 -0.1329 -0.5457
  643SOL     OW 1927   0.913   2.376   2.685 -0.8457 -0.2543  0.5612
  643SOL    HW1 1928   0.931   2.367   2.585  1.3243  2.3338 -0.0029
  643SOL    HW2 1929   0.995   2.410   2.729 -3.7299  0.3642  1.1720
  644SOL     OW 1930   1.289   2.609   0.754 -0.2275  0.0891 -0.5344
  644SOL    HW1 1931   1.266   2.512   0.784 -0.8145  0.8126 -0.7543
  644SOL    HW2 1932   1.214   2.671   0.768  1.6140  0.8641 -1.7129
  645SOL     OW 1933   1.568   1.140   1.695  0.0454  0.1582 -0.0631
  645SOL    HW1 1934   1.668   1.112   1.701 -0.1538  1.9946 -2.1167
  645SOL    HW2 1935   1.512   1.061   1.661 -0.4188  0.2269 -1.8286
  646SOL     OW 1936   0.299   0.460   0.253 -0.0860 -1.0200  0.2269
  646SOL    HW1 1937   0.325   0.395   0.326 -1.2174  0.5889 -0.6328
  646SOL    HW2 1938   0.301   0.554   0.291  1.4206 -1.6825  1.0657
  647SOL     OW 1939   1.040   0.158   0.476  0.0765 -0.2295 -0.2328
  647SOL    HW1 1940   1.125   0.213   0.467  2.4946 -3.3752  1.3092
  647SOL    HW2 1941   1.033   0.080   0.406 -1.2443 -2.0605 -0.8671
  648SOL     OW 1942   2.400   2.867   1.249  0.0844 -0.2012  0.5568
  648SOL    HW1 1943   2.435   2.774   1.233  0.3839  1.2307  0.3729
  648SOL    HW2 1944   2.308   2.860   1.291  0.6511  0.9044 -0.5885
  649SOL     OW 1945   0.584   2.164   2.918  0.3440 -0.6376  0.6319
  649SOL    HW1 1946   0.487   2.155   2.886  0.7223  2.1594  0.7288
  649SOL    HW2 1947   0.606   2.110   3.005 -1.2681 -0.6132  0.3284
  650SOL     OW 1948   2.288   2.032   1.990 -0.3086 -0.0485 -0.0646
  650SOL    HW1 1949   2.213   2.093   1.958 -1.9316  1.1920  0.7695
  650SOL    HW2 1950   2.253   1.960   2.056 -0.6208 -0.8203 -0.2419
  651SOL     OW 1951   3.061   2.957   2.709 -0.1333  0.6297 -0.3807
  651SOL    HW1 1952   3.004   2.874   2.693 -3.1977  3.2878  0.4845
  651SOL    HW2 1953   3.027   3.035   2.657 -1.1428  1.6949  1.3723
  652SOL     OW 1954   2.808   1.624   0.497 -0.2594  0.3670  0.2213
  652SOL    HW1 1955   2.756   1.633   0.584  1.5767 -0.3428 -0.2732
  652SOL    HW2 1956   2.910   1.605   0.511  0.2864 -1.7599 -0.9148
  653SOL     OW 1957   0.257   0.405   0.951 -0.7202 -0.0437 -0.7074
  653SOL    HW1 1958   0.268   0.435   0.854  1.6110  0.1006 -0.0451
  653SOL    HW2 1959   0.340   0.379   1.001 -1.4147 -0.5613 -0.4577
  654SOL     OW 1960   0.991   0.240   0.151 -0.0280  0.1384  0.0255
  654SOL    HW1 1961   1.076   0.192   0.183 -1.8050 -1.1528 -4.1651
  654SOL    HW2 1962   0.918   0.166   0.152  0.1105  1.7600 -0.3278
  655SOL     OW 1963   0.486   2.805   1.062 -0.7448 -0.3571  0.2024
  655SOL    HW1 1964   0.557   2.879   1.082 -0.5302 -0.3181 -0.5791
  655SOL    HW2 1965   0.400   2.847   1.097  0.7126  1.5826  0.9915
  656SOL     OW 1966   0.042   2.853   2.129  0.1738  0.1666 -0.0675
  656SOL    HW1 1967   0.075   2.946   2.112 -1.9457 -1.1591 -0.5975
  656SOL    HW2 1968   0.089   2.786   2.069  0.8507 -0.8675  2.5341
  657SOL     OW 1969   1.815   0.769   2.407  0.4045  0.3513  0.0928
  657SOL    HW1 1970   1.758   0.812   2.480 -0.4116  2.6099 -2.5529
  657SOL    HW2 1971   1.896   0.722   2.442 -1.5317 -0.2321  0.3766
  658SOL     OW 1972   1.923   1.620   1.197 -0.4601 -0.0357  0.2014
  658SOL    HW1 1973   1.930   1.700   1.134 -3.6261 -3.5720  1.5596
  658SOL    HW2 1974   1.857   1.647   1.269  1.0615 -0.6346  1.7151
  659SOL     OW 1975   2.599   2.624   2.726  0.1437  0.2132 -0.0859
  659SOL    HW1 1976   2.558   2.713   2.746 -0.6073 -1.5123 -1.8815
  659SOL    HW2 1977   2.638   2.611   2.630  0.5733  0.3629 -1.7947
  660SOL     OW 1978   1.304   0.720   0.460  0.4207  0.1668 -0.5180
  660SOL    HW1 1979   1.347   0.784   0.528 -1.2461 -1.4036  2.6399
  660SOL    HW2 1980   1.369   0.664   0.402  1.4236 -0.2405 -4.9068
  661SOL     OW 1981   2.505   2.912   0.296  0.9367 -0.3614 -0.6551
  661SOL    HW1 1982   2.522   2.939   0.394  0.4417  0.1403  2.3981
  661SOL    HW2 1983   2.537   2.987   0.232  1.2514  0.9173  1.7067
  662SOL     OW 1984   0.856   0.073   1.222 -0.1819 -0.7753 -0.4111
  662SOL    HW1 1985   0.871   0.170   1.250 -2.3953 -4.3796  1.9066
  662SOL    HW2 1986   0.911   0.044   1.145 -3.1076 -1.0714  3.3826
  663SOL     OW 1987   1.489   2.910   2.271  0.6311 -0.1813  0.0829
  663SOL    HW1 1988   1.451   2.926   2.363  1.5375 -0.5719  1.1129
  663SOL    HW2 1989   1.591   2.921   2.270  0.6154 -0.8921 -0.3771
  664SOL     OW 1990   0.681   2.255   1.746 -0.2782 -0.4236  0.1101
  664SOL    HW1 1991   0.742   2.171   1.764  2.2393  0.6361  1.9407
  664SOL    HW2 1992   0.606   2.234   1.683  3.2308 -1.3186 -0.3049
  665SOL     OW 1993   0.998   2.331   1.708 -0.2095  0.2946  0.2596
  665SOL    HW1 1994   0.910   2.282   1.673 -0.8727  0.1560 -0.4389
  665SOL    HW2 1995   1.078   2.324   1.644 -1.3021  2.3344 -1.0284
  666SOL     OW 1996   0.067   2.729   3.067  0.0659 -0.9103 -0.0934
  666SOL    HW1 1997   0.099   2.780   2.984 -0.3036  1.9326  2.5330
  666SOL    HW2 1998   0.105   2.638   3.060 -0.0771  1.1727  2.0557
  667SOL     OW 1999   1.404   1.615   1.325  0.3281  0.4884  0.2597
  667SOL    HW1 2000   1.357   1.603   1.414  0.3297 -0.8756 -2.2782
  667SOL    HW2 2001   1.460   1.700   1.327 -0.8194  0.7789 -5.6296
  668SOL     OW 2002   1.264   0.315   2.290  0.4404 -0.0184  0.4965
  668SOL    HW1 2003   1.270   0.299   2.390  0.3899 -1.1687 -2.0944
  668SOL    HW2 2004   1.257   0.417   2.267 -1.9925 -1.4634 -0.2971
  669SOL     OW 2005   2.418   2.289   1.666 -0.1855  0.0275 -0.2096
  669SOL    HW1 2006   2.339   2.229   1.688  2.0960 -0.9819 -1.8335
  669SOL    HW2 2007   2.480   2.297   1.745 -0.7679 -2.1918 -2.4015
  670SOL     OW 2008   1.794   1.931   0.222  0.1715  0.2963  0.0911
  670SOL    HW1 2009   1.714   1.886   0.267 -0.7652  0.1500  0.5562
  670SOL    HW2 2010   1.824   2.013   0.276 -2.1151 -0.8200 -1.2816
  671SOL     OW 2011   1.396   0.896   1.090  0.0469  0.0707  0.5279
  671SOL    HW1 2012   1.411   0.846   1.178  0.6912 -1.3035 -1.5632
  671SOL    HW2 2013   1.396   0.997   1.104 -1.2099  0.6122  0.3845
  672SOL     OW 2014   2.560   1.296   2.497 -0.2837  0.2619  0.2140
  672SOL    HW1 2015   2.508   1.356   2.429  0.0143  0.4853  1.4594
  672SOL    HW2 2016   2.647   1.339   2.527 -0.9226  1.6914  0.2138
  673SOL     OW 2017   3.058   1.663   1.564  0.3688 -0.0148  0.1590
  673SOL    HW1 2018   2.960   1.683   1.570 -0.7185  0.1724 -1.5172
  673SOL    HW2 2019   3.101   1.720   1.490  2.0245  2.0755  0.8900
  674SOL     OW 2020   1.054   2.528   2.312  0.2185 -0.1911  0.1943
  674SOL    HW1 2021   1.062   2.618   2.366  0.9100 -0.4707  0.5750
  674SOL    HW2 2022   1.014   2.457   2.371 -0.8903  2.5899 -1.4542
  675SOL     OW 2023   1.032   1.224   1.652 -0.1144  0.1587 -0.6271
  675SOL    HW1 2024   1.116   1.230   1.597 -3.1163  1.5436 -0.6841
  675SOL    HW2 2025   0.944   1.235   1.599  1.6077 -1.5807  1.5050
  676SOL     OW 2026   2.317   0.433   0.826  0.1344  0.0339  0.4975
  676SOL    HW1 2027   2.310   0.439   0.725 -1.8276  1.3893  0.8061
  676SOL    HW2 2028   2.406   0.470   0.860  2.3505 -2.2185  1.5260
  677SOL     OW 2029   2.519   1.531   2.984  0.2436  0.3316  0.1471
  677SOL    HW1 2030   2.512   1.443   2.934  1.0597 -4.5844  2.4998
  677SOL    HW2 2031   2.551   1.606   2.923 -1.6422  0.7400 -1.4975
  678SOL     OW 2032   0.204   0.019   1.298 -0.1191  0.5761  0.0971
  678SOL    HW1 2033   0.135   0.079   1.249  0.0785  1.8426  3.8125
  678SOL    HW2 2034   0.190   0.022   1.401  2.0202 -1.3880 -0.5371
  679SOL     OW 2035   2.250   0.361   0.261 -0.5411 -0.5649 -0.1241
  679SOL    HW1 2036   2.264   0.330   0.164 -2.7143 -0.1076  1.1150
  679SOL    HW2 2037   2.275   0.281   0.315 -0.4067  1.9318  0.8160
  680SOL     OW 2038   0.317   2.261   1.820  0.2744  0.1072 -0.6014
  680SOL    HW1 2039   0.289   2.334   1.756 -0.6635 -2.4538 -0.6519
  680SOL    HW2 2040   0.280   2.279   1.915 -1.1528 -1.6079 -0.6445
  681SOL     OW 2041   2.079   1.957   1.381 -0.0375 -0.2041  0.2004
  681SOL    HW1 2042   1.979   1.966   1.387 -1.1031 -0.6678  3.3965
  681SOL    HW2 2043   2.113   1.977   1.287 -1.1728  0.9400 -0.2634
  682SOL     OW 2044   3.054   2.106   1.886 -0.5682  0.2783  0.0121
  682SOL    HW1 2045   2.987   2.115   1.811  1.0615  0.6393 -1.0165
  682SOL    HW2 2046   0.022   2.053   1.856  0.3857 -1.5238  2.2608
  683SOL     OW 2047   0.100   2.165   1.283 -0.5289 -0.3630  0.0443
  683SOL    HW1 2048   0.138   2.189   1.375  1.2507  0.9237 -0.3164
  683SOL    HW2 2049   3.110   2.172   1.285 -3.8119 -0.4344 -0.6187
  684SOL     OW 2050   2.370   0.741   2.596 -0.0789 -0.1467  0.1001
  684SOL    HW1 2051   2.362   0.808   2.521 -4.0043 -2.6940  0.2714
  684SOL    HW2 2052   2.382   0.786   2.689 -2.4489  1.5073  1.3542
  685SOL     OW 2053   1.363   1.264   0.440  0.0059 -0.3873 -0.3823
  685SOL    HW1 2054   1.334   1.274   0.539  1.9080 -2.4486  2.4014
  685SOL    HW2 2055   1.462   1.244   0.439 -3.6526 -1.6502  1.0315
  686SOL     OW 2056   0.096   0.108   0.538 -0.3257  0.0747  0.2214
  686SOL    HW1 2057   0.179   0.139   0.585 -1.4709 -1.8774  0.5033
  686SOL    HW2 2058   0.040   0.042   0.593 -1.0817 -1.8491 -1.2891
  687SOL     OW 2059   1.635   1.384   2.710  0.2558 -0.1567  0.4696
  687SOL    HW1 2060   1.578   1.466   2.710 -0.6999  0.2503 -1.1562
  687SOL    HW2 2061   1.709   1.382   2.638 -0.1410  0.2630  0.0871
  688SOL     OW 2062   1.505   1.354   1.408  0.3310 -0.2869  0.0808
  688SOL    HW1 2063   1.602   1.362   1.409 -1.8153  1.7522  0.3301
  688SOL    HW2 2064   1.461   1.443   1.375 -1.3799  2.1769 -0.9199
  689SOL     OW 2065   2.354   0.202   1.379 -0.3355  0.3738 -0.4345
  689SOL    HW1 2066   2.350   0.286   1.319 -0.9966 -0.2062  0.3736
  689SOL    HW2 2067   2.333   0.116   1.324 -1.8376  1.9810  1.3745
  690SOL     OW 2068   0.030   1.410   1.170 -0.3258 -0.2267  0.2041
  690SOL    HW1 2069   3.080   1.439   1.248 -1.5339 -0.0531 -1.7056
  690SOL    HW2 2070   0.065   1.316   1.187  0.0906  0.1678 -0.5094
  691SOL     OW 2071   0.370   2.514   1.218 -0.4638 -0.0928 -0.3430
  691SOL    HW1 2072   0.460   2.492   1.177 -2.1759 -0.7373  2.9258
  691SOL    HW2 2073   0.360   2.607   1.263 -1.7151  1.7844  0.9100
  692SOL     OW 2074   2.371   0.561   1.828  0.1872  0.5665  0.5818
  692SOL    HW1 2075   2.451   0.525   1.781 -3.7844  0.0703  1.9688
  692SOL    HW2 2076   2.395   0.608   1.913  4.3903 -0.3645 -5.7742
  693SOL     OW 2077   0.339   1.609   2.122 -0.0551  0.4099  0.1672
  693SOL    HW1 2078   0.425   1.563   2.144 -1.7052  1.0790  0.7964
  693SOL    HW2 2079   0.289   1.649   2.204  0.6254 -0.8972  0.7808
  694SOL     OW 2080   1.596   1.051   1.339  0.3279  0.0993  0.3643
  694SOL    HW1 2081   1.546   1.086   1.423  2.2712  1.1451  0.7804
  694SOL    HW2 2082   1.605   0.950   1.346 -1.0975  2.2388 -1.5473
  695SOL     OW 2083   0.837   1.399   0.919  0.3913  0.4180  0.1424
  695SOL    HW1 2084   0.873   1.324   0.973 -1.2144  2.6961 -0.3034
  695SOL    HW2 2085   0.750   1.358   0.875 -2.4739 -2.0797 -0.5883
  696SOL     OW 2086   1.104   2.837   0.400  0.0203 -0.9971  0.3830
  696SOL    HW1 2087   1.100   2.736   0.395 -0.0812  1.3002  0.1135
  696SOL    HW2 2088   1.188   2.860   0.450  0.0667  0.4400  1.3893
  697SOL     OW 2089   1.360   0.410   1.860  0.1412 -0.1853 -0.4815
  697SOL    HW1 2090   1.389   0.346   1.936  2.4873 -0.6686  1.6025
  697SOL    HW2 2091   1.324   0.501   1.895 -0.7377  1.1082  0.1081
  698SOL     OW 2092   1.782   1.424   2.131 -0.3017 -0.1253 -0.1979
  698SOL    HW1 2093   1.868   1.479   2.117  2.4133 -0.7211 -0.1373
  698SOL    HW2 2094   1.709   1.456   2.068 -0.7044 -0.7934 -1.0460
  699SOL     OW 2095   2.718   0.254   2.070  0.3724 -0.2925 -0.0491
  699SOL    HW1 2096   2.653   0.297   2.133  0.2106  2.6059  1.4532
  699SOL    HW2 2097   2.710   0.154   2.062  0.2821  0.7078  4.0871
  700SOL     OW 2098   0.879   2.113   0.649 -0.0044 -0.1010  0.5765
  700SOL    HW1 2099   0.800   2.178   0.634 -0.3893 -1.7002  2.8213
  700SOL    HW2 2100   0.925   2.091   0.562  1.0211  0.0599  1.5483
  701SOL     OW 2101   1.991   2.843   2.689  0.9432  0.8910  0.1383
  701SOL    HW1 2102   1.908   2.839   2.627 -1.0257  0.1301 -0.2902
  701SOL    HW2 2103   1.967   2.811   2.781 -1.4926 -1.9427  2.9873
  702SOL     OW 2104   0.960   3.056   1.012 -0.0645  0.0828  0.2047
  702SOL    HW1 2105   1.037   2.993   1.037 -0.4137 -0.3986  1.2930
  702SOL    HW2 2106   0.984   0.010   0.949  0.5697 -1.9912  0.2286
  703SOL     OW 2107   2.390   3.049   2.091  0.2600  0.4911  0.4603
  703SOL    HW1 2108   2.304   3.090   2.060  1.0418  1.4415 -0.3366
  703SOL    HW2 2109   2.376   2.994   2.174  0.0542  1.8165 -2.8017
  704SOL     OW 2110   2.815   2.242   0.521 -0.2705  0.0945 -0.3302
  704SOL    HW1 2111   2.863   2.235   0.611  0.5448  0.5324  0.4141
  704SOL    HW2 2112   2.750   2.169   0.514 -0.4752  2.3088  1.4400
  705SOL     OW 2113   2.343   2.922   2.314 -0.2233 -0.3670 -0.1523
  705SOL    HW1 2114   2.295   2.971   2.393 -0.6955  0.8517  3.0609
  705SOL    HW2 2115   2.335   2.821   2.325  1.5889 -3.3623  0.3250
  706SOL     OW 2116   2.295   0.001   1.176 -0.1722  0.3943 -0.2186
  706SOL    HW1 2117   2.349   0.057   1.111 -1.2270 -0.7910  2.1544
  706SOL    HW2 2118   2.338   3.024   1.194  0.9644  1.7450 -0.8814
  707SOL     OW 2119   1.053   2.893   2.330 -0.5787  0.5954  0.0585
  707SOL    HW1 2120   1.081   2.963   2.265  3.1895 -1.0042  0.0930
  707SOL    HW2 2121   0.967   2.843   2.296 -1.1168 -0.4803 -0.3052
  708SOL     OW 2122   0.093   2.192   1.557 -0.0751 -0.0789 -0.9306
  708SOL    HW1 2123   0.152   2.277   1.557  2.9101  0.0471 -1.9943
  708SOL    HW2 2124   0.151   2.113   1.584 -0.4539  1.4893 -2.2433
  709SOL     OW 2125   1.661   0.388   1.504  0.0768 -0.0460  0.2244
  709SOL    HW1 2126   1.649   0.454   1.427  0.4720 -1.7747  1.5012
  709SOL    HW2 2127   1.704   0.302   1.472  3.3682 -0.0736 -1.3232
  710SOL     OW 2128   0.643   2.992   2.628 -0.2957  0.0764 -0.2874
  710SOL    HW1 2129   0.734   2.948   2.648 -1.1580 -1.5220  1.5230
  710SOL    HW2 2130   0.645   3.079   2.574 -1.0088 -0.2419 -0.4288
  711SOL     OW 2131   1.003   2.027   2.524  0.2629 -0.5216  0.3539
  711SOL    HW1 2132   0.979   2.108   2.585  0.6834 -0.7987  1.9399
  711SOL    HW2 2133   0.922   1.979   2.490 -0.4677  0.4036  1.3863
  712SOL     OW 2134   1.033   2.129   2.998  0.6325  0.6469 -0.1388
  712SOL    HW1 2135   1.117   2.129   3.054 -0.9960  0.7902 -1.7047
  712SOL    HW2 2136   1.042   2.069   2.915 -1.8949  0.0969 -0.0093
  713SOL     OW 2137   1.967   1.065   1.961 -0.1910  0.1084  0.5326
  713SOL    HW1 2138   2.013   1.020   1.881 -0.8782 -0.3977  1.6518
  713SOL    HW2 2139   1.867   1.056   1.944 -1.4515  1.9550 -1.0025
  714SOL     OW 2140   1.096   1.717   1.827  0.5903 -0.4605  0.5665
  714SOL    HW1 2141   1.122   1.785   1.754  0.2912  0.4365 -2.2220
  714SOL    HW2 2142   1.073   1.630   1.783 -1.7590  1.4529  2.1476
  715SOL     OW 2143   2.376   0.615   0.265  0.0883  0.7736 -0.5334
  715SOL    HW1 2144   2.319   0.528   0.269 -0.4763 -1.7880 -1.4255
  715SOL    HW2 2145   2.311   0.694   0.263 -1.0443 -0.0027 -0.9989
  716SOL     OW 2146   2.939   2.298   1.312 -0.4520  0.1018  0.2653
  716SOL    HW1 2147   2.875   2.222   1.314  2.1615  0.6086 -1.4259
  716SOL    HW2 2148   2.949   2.342   1.400 -0.7620  0.5507 -1.6106
  717SOL     OW 2149   2.696   1.289   1.072  0.5852 -0.0006  0.0995
  717SOL    HW1 2150   2.620   1.240   1.120 -0.8112 -1.5332 -3.3556
  717SOL    HW2 2151   2.767   1.226   1.039 -1.6670 -0.2689  0.1606
  718SOL     OW 2152   1.297   1.565   1.565 -0.3448  0.0058  0.2604
  718SOL    HW1 2153   1.362   1.504   1.612 -0.0906  1.5180  0.5688
  718SOL    HW2 2154   1.202   1.551   1.592  0.9253  1.7671 -0.5001
  719SOL     OW 2155   2.823   0.571   0.236 -0.2813 -0.2570 -0.4506
  719SOL    HW1 2156   2.820   0.612   0.142 -1.5577 -1.7379 -2.4943
  719SOL    HW2 2157   2.894   0.496   0.245  0.3561 -1.5645 -1.0624
  720SOL     OW 2158   1.012   0.090   0.727  0.9514 -0.2517 -0.3001
  720SOL    HW1 2159   1.032   0.118   0.634 -1.8294 -3.0311  0.6312
  720SOL    HW2 2160   0.914   0.074   0.740  3.3662 -1.8760  0.9383
  721SOL     OW 2161   2.642   0.601   0.678  0.2740 -0.2310 -0.0238
  721SOL    HW1 2162   2.609   0.632   0.592  0.8481 -1.5320  1.8149
  721SOL    HW2 2163   2.706   0.525   0.660 -0.5344 -0.3836  1.7244
  722SOL     OW 2164   0.573   2.403   2.409 -0.2734 -0.5238 -0.5469
  722SOL    HW1 2165   0.606   2.404   2.506  0.0740  1.0921  2.6406
  722SOL    HW2 2166   0.502   2.331   2.398 -1.2252  0.3534  1.0501
  723SOL     OW 2167   1.961   3.101   0.980  0.2379  0.1282  0.1498
  723SOL    HW1 2168   1.916   0.071   0.947 -0.5406 -0.4391  0.1374
  723SOL    HW2 2169   1.972   3.103   1.085 -0.9978  0.3902  1.0988
  724SOL     OW 2170   1.158   1.846   2.398  0.1378  0.2074  0.1306
  724SOL    HW1 2171   1.109   1.836   2.311 -1.3977  0.4514 -2.3958
  724SOL    HW2 2172   1.130   1.921   2.454  0.5994 -1.2358  1.2573
  725SOL     OW 2173   1.414   2.714   1.354  0.5359 -0.1126  0.1376
  725SOL    HW1 2174   1.413   2.779   1.434  1.0076 -2.5092  0.3433
  725SOL    HW2 2175   1.491   2.737   1.296 -1.2039 -1.3914  3.7449
  726SOL     OW 2176   2.117   2.879   0.072  0.0747  0.0894 -0.4418
  726SOL    HW1 2177   2.105   2.804   0.001  0.3412 -2.0698  0.5304
  726SOL    HW2 2178   2.157   2.833   0.148  2.7215 -2.0885 -0.1727
  727SOL     OW 2179   1.438   1.827   0.962  0.4614 -0.1248 -0.4677
  727SOL    HW1 2180   1.447   1.926   0.942 -0.8896 -1.0696  1.1328
  727SOL    HW2 2181   1.515   1.774   0.923 -1.2164  0.1905  0.1464
  728SOL     OW 2182   2.082   2.759   2.132  0.2404  0.3898  0.0872
  728SOL    HW1 2183   2.115   2.842   2.094  0.3141 -2.7051  2.3333
  728SOL    HW2 2184   2.148   2.678   2.127  1.6616 -2.0404 -1.4507
  729SOL     OW 2185   1.871   2.279   1.414  0.0890  0.3208 -0.1381
  729SOL    HW1 2186   1.856   2.347   1.339  3.2573 -0.6148 -0.8430
  729SOL    HW2 2187   1.969   2.267   1.432 -3.0595 -3.3994 -0.3820
  730SOL     OW 2188   1.697   0.841   2.651 -0.2227  0.4206  0.2967
  730SOL    HW1 2189   1.614   0.873   2.703  1.8446  0.6749  3.7260
  730SOL    HW2 2190   1.761   0.920   2.642 -0.7880  1.2193  1.7570
  731SOL     OW 2191   0.892   3.086   1.472  0.1631  0.3873 -0.4319
  731SOL    HW1 2192   0.940   3.000   1.497 -0.5010  3.4822 -1.0317
  731SOL    HW2 2193   0.871   3.090   1.373 -0.4875  4.0858 -2.5735
  732SOL     OW 2194   1.259   3.057   0.791  0.1809  0.3017 -0.3010
  732SOL    HW1 2195   1.178   3.109   0.764 -0.7433 -2.8530  1.3261
  732SOL    HW2 2196   1.343   3.105   0.755 -0.1491 -1.0298  1.9566
  733SOL     OW 2197   1.320   1.240   0.710  0.1561 -0.0782  0.0135
  733SOL    HW1 2198   1.416   1.258   0.732 -0.3966 -0.5941  1.0730
  733SOL    HW2 2199   1.307   1.138   0.691 -0.3655 -0.7260  1.7355
  734SOL     OW 2200   2.457   2.389   2.501  0.0365 -0.1053 -0.0767
  734SOL    HW1 2201   2.523   2.405   2.423 -1.2162  2.1035 -0.2743
  734SOL    HW2 2202   2.463   2.292   2.530 -0.5159  0.7451 -0.9261
  735SOL     OW 2203   0.612   3.026   1.140  0.4239  0.1413 -0.0865
  735SOL    HW1 2204   0.713   3.043   1.145 -2.2568 -4.6710 -1.4790
  735SOL    HW2 2205   0.564   3.077   1.217 -0.1470  0.4861 -2.1426
  736SOL     OW 2206   1.444   2.235   2.905 -0.2665  0.6183 -0.8485
  736SOL    HW1 2207   1.458   2.218   3.003 -2.9406 -1.4593 -2.6408
  736SOL    HW2 2208   1.407   2.152   2.863  1.4992  1.5007  0.1581
  737SOL     OW 2209   0.667   2.120   1.398 -0.6872  0.2895  0.4310
  737SOL    HW1 2210   0.603   2.104   1.475  0.0730 -0.2428 -0.0542
  737SOL    HW2 2211   0.765   2.114   1.425  2.4712 -0.2534 -1.4499
  738SOL     OW 2212   1.363   2.782   2.836 -0.1665 -0.3113 -0.1117
  738SOL    HW1 2213   1.320   2.838   2.904  3.9753  0.6556 -2.5765
  738SOL    HW2 2214   1.404   2.691   2.869 -2.6696 -1.4757  0.0821
  739SOL     OW 2215   0.846   2.073   2.117  0.2153 -0.4268 -0.1823
  739SOL    HW1 2216   0.890   2.118   2.035 -0.1087 -2.0153 -1.1961
  739SOL    HW2 2217   0.764   2.128   2.139 -0.9174 -3.4249 -1.8859
  740SOL     OW 2218   1.467   2.443   1.360 -0.0217  0.2032 -0.1447
  740SOL    HW1 2219   1.401   2.413   1.289 -0.2237  2.3451 -3.3921
  740SOL    HW2 2220   1.462   2.544   1.363 -2.3066 -0.1972 -0.2646
  741SOL     OW 2221   2.754   1.113   0.142  0.0464 -0.1001  0.3589
  741SOL    HW1 2222   2.715   1.057   0.223  0.2516 -0.9967  1.1771
  741SOL    HW2 2223   2.749   1.214   0.152  0.0389 -2.5587 -1.9551
  742SOL     OW 2224   0.691   1.653   2.383  0.3611 -0.5276 -0.2709
  742SOL    HW1 2225   0.766   1.598   2.423 -0.8695 -0.4302  0.1646
  742SOL    HW2 2226   0.642   1.607   2.308  2.2317  1.2088  0.6763
  743SOL     OW 2227   0.560   0.958   2.469  0.0054 -0.1150 -0.2921
  743SOL    HW1 2228   0.639   1.022   2.457 -0.7892 -0.8747  2.6135
  743SOL    HW2 2229   0.579   0.889   2.549 -1.1605 -1.4527  2.0148
  744SOL     OW 2230   2.162   2.483   1.258  0.4986  0.4155 -0.3470
  744SOL    HW1 2231   2.258   2.510   1.237 -2.6394 -2.1503 -0.7014
  744SOL    HW2 2232   2.100   2.565   1.240  0.8056 -0.5132  2.4007
  745SOL     OW 2233   2.139   1.212   1.450 -0.7759  0.8931 -0.2346
  745SOL    HW1 2234   2.049   1.160   1.454  1.5176  0.1222  2.0054
  745SOL    HW2 2235   2.121   1.305   1.402 -0.5519  5.1247 -0.2322
  746SOL     OW 2236   2.123   1.023   1.137 -1.3175 -0.1765  0.2942
  746SOL    HW1 2237   2.181   1.110   1.146  1.5495 -0.1396  1.4808
  746SOL    HW2 2238   2.041   1.043   1.088 -0.0051  0.0108  0.6130
  747SOL     OW 2239   1.892   1.713   0.760 -0.7500 -0.3405  0.1942
  747SOL    HW1 2240   1.882   1.750   0.662 -0.3465  0.0080 -3.9074
  747SOL    HW2 2241   1.945   1.624   0.762  0.4463 -3.8265 -0.6098
  748SOL     OW 2242   0.516   1.524   0.418  0.0807  0.0902 -0.0443
  748SOL    HW1 2243   0.475   1.581   0.490  2.8402 -2.7680  0.4357
  748SOL    HW2 2244   0.528   1.571   0.328 -0.2640  2.0843  2.1261
  749SOL     OW 2245   3.027   2.583   2.412 -0.6648  0.4902  0.0653
  749SOL    HW1 2246   3.013   2.483   2.435 -2.8245 -1.0096 -0.3954
  749SOL    HW2 2247   2.996   2.635   2.490  2.6881 -3.2890 -1.4109
  750SOL     OW 2248   2.099   0.375   1.031 -0.0973  0.0811 -0.2828
  750SOL    HW1 2249   2.121   0.463   0.983 -0.3339  0.8129 -2.3840
  750SOL    HW2 2250   2.183   0.332   1.073  3.4115 -2.1848  1.6345
  751SOL     OW 2251   2.255   0.069   0.341  0.0846  0.6053 -0.0571
  751SOL    HW1 2252   2.268   0.020   0.250 -0.3470 -0.6975 -1.5818
  751SOL    HW2 2253   2.171   0.034   0.385  2.7658  2.9948 -1.9512
  752SOL     OW 2254   2.000   2.059   0.594 -0.2558 -1.0083 -0.3125
  752SOL    HW1 2255   2.097   2.035   0.613  0.9028 -0.4220  0.3279
  752SOL    HW2 2256   1.940   1.979   0.573 -0.1294 -0.1429 -0.0079
  753SOL     OW 2257   1.870   1.770   2.407  0.8144  0.1585 -0.5002
  753SOL    HW1 2258   1.873   1.862   2.359  2.9130  1.1583 -1.9769
  753SOL    HW2 2259   1.880   1.780   2.506  1.3726  0.7334 -1.9637
  754SOL     OW 2260   2.574   2.137   1.481  0.3225 -0.1900  0.1271
  754SOL    HW1 2261   2.581   2.208   1.549  2.1604 -0.1730 -2.4021
  754SOL    HW2 2262   2.496   2.155   1.415 -2.0262  0.0249 -0.7892
  755SOL     OW 2263   2.426   0.728   1.055  0.0617  0.6454 -0.2737
  755SOL    HW1 2264   2.378   0.690   1.134  1.3437  0.8672 -3.9426
  755SOL    HW2 2265   2.487   0.661   1.010  2.4424 -2.5432  0.3505
  756SOL     OW 2266   1.250   1.434   2.568  0.4006 -0.6010  0.3265
  756SOL    HW1 2267   1.338   1.488   2.582  1.5446 -1.2145  2.2652
  756SOL    HW2 2268   1.265   1.333   2.590  0.4727 -1.0315  0.5036
  757SOL     OW 2269   1.998   2.672   1.202 -0.0565 -0.5322 -0.1440
  757SOL    HW1 2270   1.913   2.619   1.203  1.5412  0.5940  0.7273
  757SOL    HW2 2271   1.997   2.737   1.124 -1.8500 -1.3547  0.1382
  758SOL     OW 2272   1.149   2.260   1.475 -0.1032 -0.4804  0.6936
  758SOL    HW1 2273   1.197   2.255   1.386  1.7898  2.2948 -1.2845
  758SOL    HW2 2274   1.216   2.250   1.550 -2.7628  0.9476 -1.8775
  759SOL     OW 2275   2.246   1.283   1.125 -0.1239 -0.0580 -0.3436
  759SOL    HW1 2276   2.252   1.355   1.199  1.1808  0.4855  2.3580
  759SOL    HW2 2277   2.204   1.324   1.041 -3.2366 -1.1979  1.4888
  760SOL     OW 2278   2.219   0.904   1.367  0.8090  0.5727  0.1980
  760SOL    HW1 2279   2.319   0.925   1.373 -1.6757 -2.1503 -3.1052
  760SOL    HW2 2280   2.167   0.965   1.302  0.3454  0.5234 -1.0395
  761SOL     OW 2281   1.966   3.072   0.237  0.3693  0.0427 -0.2099
  761SOL    HW1 2282   1.999   3.072   0.334 -0.5619  0.8080  1.5859
  761SOL    HW2 2283   2.016   3.007   0.185 -2.1567  1.4069  1.8757
  762SOL     OW 2284   1.911   1.803   2.979  0.1657  0.1456 -0.3972
  762SOL    HW1 2285   1.868   1.893   2.971 -2.7846  0.0273 -1.4493
  762SOL    HW2 2286   1.932   1.794   3.079  0.1853  0.5281  3.9348
  763SOL     OW 2287   0.662   1.146   1.176  0.0037  0.0043 -0.4052
  763SOL    HW1 2288   0.640   1.249   1.168 -2.7788  2.4942  0.4910
  763SOL    HW2 2289   0.609   1.090   1.109  1.6818  0.2663  0.9584
  764SOL     OW 2290   2.704   2.641   0.035 -0.3583  0.2199 -0.2145
  764SOL    HW1 2291   2.703   2.564   3.080  0.4711  0.0547 -2.1549
  764SOL    HW2 2292   2.797   2.671   0.050 -4.8942 -1.6372 -0.7093
  765SOL     OW 2293   0.743   3.050   2.120 -0.0533 -0.9749 -0.0561
  765SOL    HW1 2294   0.823   3.096   2.074  0.3870  1.7813  0.1678
  765SOL    HW2 2295   0.690   0.002   2.173 -1.4044  1.8655 -1.0048
  766SOL     OW 2296   3.054   2.184   2.475 -0.1565 -0.1556  0.1321
  766SOL    HW1 2297   2.965   2.194   2.435  1.9475  0.6032  0.1143
  766SOL    HW2 2298   0.002   2.124   2.424  1.9188 -0.9373  1.4875
  767SOL     OW 2299   3.071   1.383   1.784 -0.2325  0.6113  0.1125
  767SOL    HW1 2300   3.085   1.356   1.882 -0.2772  0.5659  1.5963
  767SOL    HW2 2301   3.026   1.473   1.780 -0.8363  1.1595  0.1951
  768SOL     OW 2302   1.141   0.755   2.740  0.1975  0.0855  0.1406
  768SOL    HW1 2303   1.075   0.741   2.820  0.1732  0.5697  0.5396
  768SOL    HW2 2304   1.213   0.685   2.745 -1.5027  1.4917  2.3057
  769SOL     OW 2305   1.839   2.138   0.394 -1.0027  0.0279  0.8008
  769SOL    HW1 2306   1.913   2.159   0.468  3.1424 -0.0327  7.3122
  769SOL    HW2 2307   1.787   2.221   0.378  1.0589  0.6834  0.3709
  770SOL     OW 2308   2.875   0.223   0.143 -0.1448 -0.2623  0.6029
  770SOL    HW1 2309   2.788   0.254   0.190  1.9189 -1.6275 -0.2173
  770SOL    HW2 2310   2.918   0.145   0.192 -1.8402  1.3123 -4.2688
  771SOL     OW 2311   1.595   2.200   1.785 -0.4049  0.1193  0.3802
  771SOL    HW1 2312   1.602   2.238   1.693  1.1154 -0.3103  0.6435
  771SOL    HW2 2313   1.511   2.140   1.790 -0.1671 -0.0488 -0.3640
  772SOL     OW 2314   0.744   0.386   2.899 -0.7085  0.0911  0.4689
  772SOL    HW1 2315   0.648   0.410   2.890  0.3731  0.0607  1.5976
  772SOL    HW2 2316   0.792   0.408   2.810  1.8910 -3.1753  1.5654
  773SOL     OW 2317   2.889   0.890   1.688 -0.0408 -0.0017  0.5482
  773SOL    HW1 2318   2.967   0.876   1.623 -0.1478 -1.0557 -1.8216
  773SOL    HW2 2319   2.915   0.956   1.764 -0.3918  2.0413  5.1072
  774SOL     OW 2320   1.654   1.186   0.368 -0.3466 -0.6273  0.6065
  774SOL    HW1 2321   1.635   1.275   0.324  1.5284  0.8752 -0.1114
  774SOL    HW2 2322   1.755   1.171   0.369  3.0161  0.1151 -1.3818
  775SOL     OW 2323   2.287   3.101   0.027 -0.0791 -0.3906  0.3042
  775SOL    HW1 2324   2.382   3.089   0.026 -3.1220  0.1730  1.3198
  775SOL    HW2 2325   2.235   3.012   0.011 -0.9765 -0.8082  1.9822
  776SOL     OW 2326   2.336   0.943   2.431  0.0515 -0.4989 -0.0041
  776SOL    HW1 2327   2.429   0.978   2.453  0.1097  1.2481 -0.4339
  776SOL    HW2 2328   2.331   0.933   2.332  0.4280 -1.3220  3.8884
  777SOL     OW 2329   0.156   1.271   2.656  0.0310 -0.1186  0.4537
  777SOL    HW1 2330   0.242   1.232   2.698 -0.5542 -1.2973  2.0885
  777SOL    HW2 2331   0.157   1.286   2.556 -1.3555 -0.2666  0.6519
  778SOL     OW 2332   0.595   0.146   0.436  0.2241 -0.2831 -0.4010
  778SOL    HW1 2333   0.675   0.207   0.424 -0.7825 -1.9849 -1.9370
  778SOL    HW2 2334   0.541   0.157   0.348 -0.6239 -1.1590  1.1683
  779SOL     OW 2335   0.593   0.764   2.678 -0.1476 -0.8440  0.3512
  779SOL    HW1 2336   0.611   0.751   2.780  2.5617  2.9551 -0.3361
  779SOL    HW2 2337   0.654   0.700   2.622  2.1658 -1.0777 -2.3014
  780SOL     OW 2338   1.943   0.976   2.270  0.4346 -0.8624 -0.1420
  780SOL    HW1 2339   1.875   1.042   2.218 -0.4489  1.5171 -2.1493
  780SOL    HW2 2340   1.895   0.901   2.316 -0.4013  0.5928 -0.4628
  781SOL     OW 2341   3.031   1.022   1.898 -0.0447  0.1707  0.2957
  781SOL    HW1 2342   0.016   1.033   1.895 -0.9034 -0.4364 -2.3517
  781SOL    HW2 2343   2.995   1.041   1.987  1.7692  0.4715 -0.1704
  782SOL     OW 2344   0.784   1.940   2.404  0.0885 -0.0034 -0.3072
  782SOL    HW1 2345   0.788   1.981   2.308 -1.3823  1.1068 -2.3961
  782SOL    HW2 2346   0.731   1.853   2.413  0.5410 -0.1074  3.1459
  783SOL     OW 2347   0.730   2.495   1.592 -0.5595 -0.3170 -0.3262
  783SOL    HW1 2348   0.731   2.410   1.647 -0.6166 -0.6830 -2.0164
  783SOL    HW2 2349   0.807   2.492   1.525  0.1063 -1.7200 -2.1326
  784SOL     OW 2350   1.154   0.426   2.720 -0.0382 -0.4291 -0.2639
  784SOL    HW1 2351   1.196   0.353   2.668  0.3751  0.3905  1.2544
  784SOL    HW2 2352   1.225   0.489   2.756 -0.3628 -0.8894  0.7493
  785SOL     OW 2353   0.892   0.399   2.651 -0.7602 -0.3843  0.4267
  785SOL    HW1 2354   0.980   0.433   2.688  0.2294  0.8188  0.0167
  785SOL    HW2 2355   0.898   0.306   2.613 -2.2186 -0.3771 -2.2826
  786SOL     OW 2356   0.343   1.848   0.388  0.3476  0.3396  0.4262
  786SOL    HW1 2357   0.395   1.782   0.327  0.7591 -1.5917 -2.7276
  786SOL    HW2 2358   0.390   1.862   0.474 -1.4859 -0.3484 -0.0321
  787SOL     OW 2359   1.926   1.152   0.398 -0.7519 -0.2154 -0.0121
  787SOL    HW1 2360   2.009   1.168   0.337  2.3756  1.2326 -1.2370
  787SOL    HW2 2361   1.943   1.064   0.452  0.0994 -1.2444 -0.5574
  788SOL     OW 2362   1.745   1.693   1.438  0.3434 -0.8090 -0.0028
  788SOL    HW1 2363   1.675   1.753   1.395  1.7797 -1.7329 -1.7066
  788SOL    HW2 2364   1.799   1.745   1.508  0.9488  1.7313  0.1081
  789SOL     OW 2365   0.440   1.553   1.807 -0.3463 -0.0501  0.0609
  789SOL    HW1 2366   0.362   1.572   1.746  0.4397  0.3827  2.5140
  789SOL    HW2 2367   0.408   1.572   1.897  0.6993 -0.7187 -1.7554
  790SOL     OW 2368   0.447   2.723   0.279 -0.1080  0.2253  0.3014
  790SOL    HW1 2369   0.429   2.655   0.203 -0.2035  0.9942  1.8525
  790SOL    HW2 2370   0.362   2.740   0.334 -1.1845  1.1429 -2.1669
  791SOL     OW 2371   0.445   0.237   3.013 -0.5115  0.1628 -0.3349
  791SOL    HW1 2372   0.444   0.330   2.973  0.4437 -4.0318  1.4135
  791SOL    HW2 2373   0.496   0.176   2.945  0.1566 -0.7608 -1.5330
  792SOL     OW 2374   1.674   0.618   2.241 -0.0163 -0.2069 -0.1806
  792SOL    HW1 2375   1.722   0.676   2.305  0.1039  1.3797 -1.2838
  792SOL    HW2 2376   1.595   0.677   2.206 -0.2955  0.4111 -2.3865
  793SOL     OW 2377   0.560   0.608   0.755  0.0176 -0.3189  1.0096
  793SOL    HW1 2378   0.480   0.544   0.762 -2.4174  2.3245  1.4588
  793SOL    HW2 2379   0.568   0.659   0.843 -0.6932  1.3354 -1.5790
  794SOL     OW 2380   0.747   0.193   1.718  0.1867 -0.0067 -0.1256
  794SOL    HW1 2381   0.684   0.264   1.672 -0.5221  1.9075  1.0542
  794SOL    HW2 2382   0.710   0.099   1.696 -0.6146  2.5544 -0.5702
  795SOL     OW 2383   3.095   1.529   3.019  0.1066  0.1509  0.1946
  795SOL    HW1 2384   0.046   1.460   3.052 -1.4272 -2.1684  1.0910
  795SOL    HW2 2385   3.060   1.502   2.930  0.9843  0.1429 -0.5847
  796SOL     OW 2386   3.085   0.424   0.205 -0.5334 -0.2901  0.2430
  796SOL    HW1 2387   0.042   0.476   0.156  3.1487  0.0404 -0.8790
  796SOL    HW2 2388   3.047   0.338   0.159  0.4981 -0.2462  0.8474
  797SOL     OW 2389   1.435   2.509   2.941  0.1280 -0.5490  0.9561
  797SOL    HW1 2390   1.396   2.508   3.034 -0.8172  3.1383  0.7511
  797SOL    HW2 2391   1.438   2.417   2.902  0.3381 -0.8281 -2.7963
  798SOL     OW 2392   2.941   0.578   0.786 -0.0651 -0.0256  0.2037
  798SOL    HW1 2393   2.888   0.539   0.705  0.0325 -0.4614 -0.3219
  798SOL    HW2 2394   3.035   0.606   0.759 -0.4912  2.3688 -0.1202
  799SOL     OW 2395   2.453   0.695   2.068  0.1104  0.4160  0.1858
  799SOL    HW1 2396   2.403   0.723   2.153 -4.9994 -1.9002  0.6911
  799SOL    HW2 2397   2.526   0.752   2.035  0.5352 -0.5297 -0.4019
  800SOL     OW 2398   0.078   2.035   0.384  0.5765  0.5054  0.0680
  800SOL    HW1 2399   0.052   1.966   0.457  2.1598 -0.3337  1.6511
  800SOL    HW2 2400   0.127   2.001   0.300  3.0635 -2.6454 -0.7724
  801SOL     OW 2401   1.168   1.762   0.925  0.3401  0.1935  0.4481
  801SOL    HW1 2402   1.266   1.774   0.943  0.2699  0.8680 -0.1664
  801SOL    HW2 2403   1.151   1.661   0.933 -1.3745 -2.5599 -2.2997
  802SOL     OW 2404   1.118   1.680   2.608 -0.6376 -0.8954 -0.3757
  802SOL    HW1 2405   1.113   1.708   2.510  0.9523 -1.9332 -1.0046
  802SOL    HW2 2406   1.149   1.583   2.616  2.6930 -2.0694 -0.8694
  803SOL     OW 2407   0.245   1.967   1.437 -0.1218 -0.0630 -0.0144
  803SOL    HW1 2408   0.160   1.915   1.427  0.6908 -0.4869 -0.8697
  803SOL    HW2 2409   0.297   1.975   1.348 -0.0963 -0.8485 -0.8847
  804SOL     OW 2410   1.209   2.662   1.552 -0.4142 -0.1311 -0.3282
  804SOL    HW1 2411   1.274   2.666   1.473  2.5025  1.3936 -1.0438
  804SOL    HW2 2412   1.244   2.611   1.630 -1.6028  2.1636 -3.1651
  805SOL     OW 2413   2.254   1.626   3.021 -0.6495 -0.2166 -0.0568
  805SOL    HW1 2414   2.346   1.597   2.996 -2.0899  0.5542  0.4470
  805SOL    HW2 2415   2.188   1.573   2.962 -0.4920 -1.2059  0.6670
  806SOL     OW 2416   2.155   2.688   0.802 -0.2157 -0.2056 -0.0840
  806SOL    HW1 2417   2.255   2.667   0.806  0.0484  1.6689  1.3438
  806SOL    HW2 2418   2.097   2.622   0.753 -3.0965  1.7077 -0.7064
  807SOL     OW 2419   2.901   0.510   2.893 -0.3105  0.4898  0.2208
  807SOL    HW1 2420   2.843   0.433   2.917  5.2461  3.1608 -0.1408
  807SOL    HW2 2421   2.853   0.581   2.839  2.1307 -2.3718  3.5101
  808SOL     OW 2422   0.399   1.318   0.269  0.3617 -0.1377  0.0480
  808SOL    HW1 2423   0.481   1.322   0.205 -1.4635 -0.0886 -0.5798
  808SOL    HW2 2424   0.418   1.368   0.356  1.3566 -0.3306 -0.5795
  809SOL     OW 2425   2.565   0.902   1.927 -0.1609  0.0603  0.2013
  809SOL    HW1 2426   2.522   0.963   1.857  0.2364 -1.5295  0.1551
  809SOL    HW2 2427   2.611   0.827   1.878 -1.9671  1.2568 -0.2010
  810SOL     OW 2428   1.251   0.412   1.343 -0.5917  0.1158 -0.3651
  810SOL    HW1 2429   1.229   0.326   1.292  0.3928 -1.7526  1.9875
  810SOL    HW2 2430   1.303   0.393   1.428  3.4930  0.4671 -0.7029
  811SOL     OW 2431   2.330   2.924   1.681  0.8670  0.3439  0.4229
  811SOL    HW1 2432   2.332   3.020   1.647 -0.1071 -0.0601 -2.8897
  811SOL    HW2 2433   2.233   2.890   1.671 -0.8238  0.0354 -1.7487
  812SOL     OW 2434   1.477   2.231   0.044 -0.1590  0.1115 -0.3019
  812SOL    HW1 2435   1.462   2.154   0.109 -1.5721  2.6523  1.3558
  812SOL    HW2 2436   1.513   2.312   0.095 -1.5005 -0.2200  0.2214
  813SOL     OW 2437   1.598   0.763   1.634  0.3716 -0.2797 -0.5038
  813SOL    HW1 2438   1.511   0.755   1.587  2.5212  0.4455 -1.0329
  813SOL    HW2 2439   1.662   0.762   1.554 -3.5547 -0.1156  2.1470
  814SOL     OW 2440   0.563   0.405   1.583  0.1215 -0.0936 -0.1137
  814SOL    HW1 2441   0.539   0.476   1.513  0.9960 -3.1458 -0.7049
  814SOL    HW2 2442   0.607   0.444   1.666 -2.4375  1.5298 -4.3053
  815SOL     OW 2443   0.693   0.770   0.335 -0.4762  0.3684 -0.9599
  815SOL    HW1 2444   0.731   0.714   0.254  0.6034 -1.6862  1.0115
  815SOL    HW2 2445   0.741   0.853   0.354 -2.9219 -1.2142  0.5598
  816SOL     OW 2446   2.130   1.642   2.572 -0.1734 -0.5670 -0.5135
  816SOL    HW1 2447   2.119   1.702   2.657  0.7655  0.9851  3.3504
  816SOL    HW2 2448   2.228   1.651   2.548 -1.4331 -0.4961  0.7617
  817SOL     OW 2449   0.804   2.689   0.660 -0.0444  0.5537 -0.8587
  817SOL    HW1 2450   0.709   2.706   0.679  1.5962  0.9844 -0.0319
  817SOL    HW2 2451   0.817   2.683   0.559 -0.0829  1.6846  3.5502
  818SOL     OW 2452   1.666   0.544   3.072  0.0610 -0.1885 -0.4562
  818SOL    HW1 2453   1.759   0.516   3.110  0.3331 -0.7371 -0.3952
  818SOL    HW2 2454   1.654   0.647   3.078  0.0646 -1.1782  2.6466
  819SOL     OW 2455   1.511   0.363   0.137 -0.1539 -0.3619  0.1498
  819SOL    HW1 2456   1.555   0.400   0.052 -1.7760  0.1025  0.6844
  819SOL    HW2 2457   1.433   0.308   0.120  2.1205  2.7478  0.4728
  820SOL     OW 2458   1.915   0.523   0.078 -0.0797  0.1177 -0.3301
  820SOL    HW1 2459   1.953   0.432   0.088 -1.2824  0.0930 -1.3660
  820SOL    HW2 2460   1.959   0.590   0.140 -0.3583  0.0191  2.3955
  821SOL     OW 2461   2.445   0.122   0.523 -0.3398 -0.2029  0.4997
  821SOL    HW1 2462   2.367   0.105   0.461  0.0291  0.0738 -1.4080
  821SOL    HW2 2463   2.490   0.037   0.551  1.8102 -0.4005 -0.1814
  822SOL     OW 2464   0.648   2.404   1.963 -0.2415  0.3746  0.1381
  822SOL    HW1 2465   0.659   2.346   1.879 -1.1887 -0.5763  0.8650
  822SOL    HW2 2466   0.741   2.427   2.003  1.2822  0.4696  0.5873
  823SOL     OW 2467   0.309   1.334   1.563 -0.3840  0.0118 -0.3395
  823SOL    HW1 2468   0.289   1.418   1.617  1.8576 -1.4523  2.7029
  823SOL    HW2 2469   0.232   1.265   1.575 -2.4539  0.6012  0.9916
  824SOL     OW 2470   1.359   2.947   2.604  0.1353  0.1402  0.1299
  824SOL    HW1 2471   1.445   3.000   2.614 -0.5810  2.1151  0.3784
  824SOL    HW2 2472   1.354   2.885   2.682 -2.1206  1.4939  1.7216
  825SOL     OW 2473   2.152   1.093   0.786  0.4110  0.5020  0.4679
  825SOL    HW1 2474   2.198   1.007   0.807 -0.4700  1.2396 -0.2756
  825SOL    HW2 2475   2.052   1.081   0.799 -1.7089  1.8977 -0.7160
  826SOL     OW 2476   2.035   0.743   0.174 -0.1403  0.1243 -0.4653
  826SOL    HW1 2477   2.121   0.790   0.201 -0.1667 -0.2931  0.2713
  826SOL    HW2 2478   1.950   0.801   0.166  1.0335 -0.4823  0.9833
  827SOL     OW 2479   0.733   1.526   1.730  0.3831  0.0267 -0.3535
  827SOL    HW1 2480   0.743   1.506   1.631 -1.1629  0.1329  0.0154
  827SOL    HW2 2481   0.635   1.519   1.761  0.3752  0.7876  0.6827
  828SOL     OW 2482   2.406   1.569   1.780 -0.0888  0.6522  0.1243
  828SOL    HW1 2483   2.390   1.600   1.875 -0.6927  1.3790 -2.3565
  828SOL    HW2 2484   2.324   1.573   1.720  0.3026 -0.2865  1.8233
  829SOL     OW 2485   0.211   1.937   0.158  0.3408 -0.6648 -0.5318
  829SOL    HW1 2486   0.269   1.916   0.238  1.0547  1.3614 -0.5452
  829SOL    HW2 2487   0.159   1.861   0.121  3.1332 -0.7156 -2.0902
  830SOL     OW 2488   1.993   0.937   0.572 -0.0246  0.1992 -0.6554
  830SOL    HW1 2489   1.952   0.969   0.663  2.4618 -1.3067  0.6930
  830SOL    HW2 2490   1.959   0.839   0.554  0.5259 -0.0639 -0.2693
  831SOL     OW 2491   3.030   1.926   3.027 -0.0230 -0.5333 -0.1793
  831SOL    HW1 2492   3.040   2.029   3.035 -1.0255  0.2466 -0.4341
  831SOL    HW2 2493   0.005   1.877   3.041 -2.3115  0.4507  1.2504
  832SOL     OW 2494   0.802   0.307   0.465 -0.0303  0.2139 -0.6237
  832SOL    HW1 2495   0.821   0.407   0.482  0.9852  1.4046 -0.8555
  832SOL    HW2 2496   0.886   0.259   0.434 -2.7501  2.3546  0.8345
  833SOL     OW 2497   0.721   0.519   1.798 -0.3768 -0.4285  0.3216
  833SOL    HW1 2498   0.667   0.505   1.883  0.5274 -1.1422 -0.0063
  833SOL    HW2 2499   0.816   0.492   1.815 -1.1010 -0.3210  0.3376
  834SOL     OW 2500   0.327   0.455   0.710  0.8058  0.0257  0.4314
  834SOL    HW1 2501   0.348   0.358   0.691 -0.7812 -0.1051  1.1571
  834SOL    HW2 2502   0.296   0.511   0.631  3.7226 -0.0547  0.1071
  835SOL     OW 2503   2.895   2.559   1.229 -0.1210  0.0620 -0.2700
  835SOL    HW1 2504   2.897   2.458   1.234  1.1433  1.6016  0.6360
  835SOL    HW2 2505   2.988   2.601   1.226  0.9899 -1.2184 -1.0387
  836SOL     OW 2506   0.651   2.050   0.077  0.3351 -0.4798  0.6723
  836SOL    HW1 2507   0.643   2.147   0.117 -0.6513 -1.6123  1.1579
  836SOL    HW2 2508   0.582   1.987   0.113 -2.6009 -0.2111 -2.7939
  837SOL     OW 2509   1.441   1.607   2.673 -0.3808  0.2461  0.3582
  837SOL    HW1 2510   1.453   1.662   2.757 -1.2271 -0.9247 -3.6173
  837SOL    HW2 2511   1.431   1.672   2.597  4.4759 -1.0799  0.6412
  838SOL     OW 2512   0.366   1.215   1.962 -0.5643 -0.0350 -0.3838
  838SOL    HW1 2513   0.455   1.260   1.939  1.4455 -0.8148  0.0915
  838SOL    HW2 2514   0.319   1.272   2.033 -2.7750  1.4415  0.5100
  839SOL     OW 2515   0.457   1.239   0.786  0.1627  0.0581 -0.3246
  839SOL    HW1 2516   0.510   1.163   0.834 -1.8443 -2.6333 -0.0920
  839SOL    HW2 2517   0.359   1.210   0.784 -1.3504  2.1390  3.0216
  840SOL     OW 2518   2.344   0.108   2.605 -0.7173 -0.6604  0.0385
  840SOL    HW1 2519   2.335   0.207   2.630 -2.0981  1.0827  1.4689
  840SOL    HW2 2520   2.420   0.102   2.541 -3.4348  0.6660  1.8339
  841SOL     OW 2521   0.809   2.433   0.317 -0.2931 -0.2428  0.1501
  841SOL    HW1 2522   0.785   2.531   0.338  2.5184 -0.6729  0.2816
  841SOL    HW2 2523   0.869   2.425   0.231  2.7131 -2.3295 -3.0087
  842SOL     OW 2524   0.333   0.186   0.654 -0.2371 -0.0565 -0.4641
  842SOL    HW1 2525   0.386   0.110   0.696 -1.2434 -0.1848 -0.5795
  842SOL    HW2 2526   0.384   0.218   0.574 -0.7787  1.4131 -1.3576
  843SOL     OW 2527   0.165   0.997   0.183 -0.1694  0.8426  0.2428
  843SOL    HW1 2528   0.225   1.008   0.265 -0.5758  0.3745  1.6054
  843SOL    HW2 2529   0.072   1.047   0.187 -0.8217  0.7047  0.9319
  844SOL     OW 2530   0.950   2.386   0.076  0.5008  0.3028  0.8520
  844SOL    HW1 2531   0.878   2.359   0.008  0.1302  2.4683 -0.3333
  844SOL    HW2 2532   1.040   2.359   0.038 -0.8420 -0.6713 -0.2017
  845SOL     OW 2533   2.204   2.981   2.555 -0.3190  0.1750 -1.0447
  845SOL    HW1 2534   2.228   3.077   2.575 -1.7545 -0.3942  0.6821
  845SOL    HW2 2535   2.158   2.939   2.638  0.2219  3.7269 -0.5732
  846SOL     OW 2536   1.868   2.046   2.873 -0.1714 -0.3691  0.1731
  846SOL    HW1 2537   1.804   2.122   2.858  3.8613  0.2573 -0.4056
  846SOL    HW2 2538   1.954   2.066   2.832  0.3552  2.0781  0.0398
  847SOL     OW 2539   2.627   0.301   0.224  0.4273  0.5036 -0.2994
  847SOL    HW1 2540   2.604   0.373   0.153  0.3199 -0.1848  1.0927
  847SOL    HW2 2541   2.593   0.338   0.312  0.3797  2.1537 -0.3774
  848SOL     OW 2542   0.855   0.578   0.491 -0.0151 -0.2560  0.0202
  848SOL    HW1 2543   0.851   0.592   0.594  0.1243  0.8393  1.4075
  848SOL    HW2 2544   0.786   0.639   0.442 -3.8539  1.3597  1.8179
  849SOL     OW 2545   1.487   2.766   1.774  0.0766 -0.2582  0.9366
  849SOL    HW1 2546   1.574   2.752   1.824  3.2362 -0.4439 -1.2953
  849SOL    HW2 2547   1.423   2.691   1.802 -4.1179 -1.6104  2.5210
  850SOL     OW 2548   0.773   1.346   0.333 -0.1212  0.1131  0.6640
  850SOL    HW1 2549   0.725   1.361   0.423 -0.6877  1.5746  1.2323
  850SOL    HW2 2550   0.710   1.356   0.251 -0.9205 -1.4473 -4.8755
  851SOL     OW 2551   0.115   1.331   0.023  0.2174 -0.4928  0.0075
  851SOL    HW1 2552   0.053   1.252   0.033  0.0121  1.1732 -1.5909
  851SOL    HW2 2553   0.137   1.373   0.113 -0.8030 -0.1677  0.6873
  852SOL     OW 2554   1.445   3.043   1.830 -0.6661 -0.2760  0.3395
  852SOL    HW1 2555   1.341   3.053   1.830 -1.9877  2.4349 -0.4565
  852SOL    HW2 2556   1.474   2.949   1.808  0.0901  0.1606 -2.6332
  853SOL     OW 2557   2.658   1.672   0.065  0.2270 -0.3569  0.1849
  853SOL    HW1 2558   2.585   1.615   0.022 -2.3100  0.3821 -3.5002
  853SOL    HW2 2559   2.645   1.692   0.163  0.8640  0.2128 -1.8124
  854SOL     OW 2560   1.238   1.170   1.817  0.0094 -0.0541  0.5044
  854SOL    HW1 2561   1.149   1.206   1.777 -2.6457 -0.3084 -2.7737
  854SOL    HW2 2562   1.310   1.141   1.750  0.4316 -0.2076  0.8312
  855SOL     OW 2563   0.100   2.549   0.178  0.0997  0.2013  0.6932
  855SOL    HW1 2564   0.032   2.495   0.126 -1.3171  0.1296  1.8609
  855SOL    HW2 2565   0.088   2.647   0.162  0.3772 -3.5482 -0.5129
  856SOL     OW 2566   0.698   0.917   1.805  0.0592 -0.4518  0.0298
  856SOL    HW1 2567   0.798   0.942   1.808  3.6058 -0.5533 -2.3055
  856SOL    HW2 2568   0.684   0.867   1.715 -1.4923 -0.8239 -0.1245
  857SOL     OW 2569   1.281   1.144   2.437  0.3711 -0.2774  0.1078
  857SOL    HW1 2570   1.196   1.092   2.435  1.2644  1.3918  1.3298
  857SOL    HW2 2571   1.293   1.185   2.529 -1.8650 -0.1442  0.1194
  858SOL     OW 2572   0.357   1.313   2.374 -0.3221 -0.3372 -0.2143
  858SOL    HW1 2573   0.294   1.376   2.322  0.0402  1.7542 -0.8215
  858SOL    HW2 2574   0.311   1.226   2.399  1.8179  3.4891  1.0199
  859SOL     OW 2575   2.614   0.295   1.045  0.3965  0.0697 -0.2003
  859SOL    HW1 2576   2.571   0.207   1.031  2.9379  0.2329  2.1093
  859SOL    HW2 2577   2.710   0.285   1.079  1.0948  2.3184  0.3855
  860SOL     OW 2578   1.780   3.062   0.040 -0.0569  0.1676 -0.1369
  860SOL    HW1 2579   1.852   3.058   0.110  0.1804 -0.8146  0.9458
  860SOL    HW2 2580   1.822   3.065   3.061 -2.3122  2.2219 -2.1198
  861SOL     OW 2581   0.717   0.320   0.937 -0.0698 -0.1625  0.0805
  861SOL    HW1 2582   0.742   0.264   0.859 -0.5543  0.7881 -0.5306
  861SOL    HW2 2583   0.707   0.414   0.909  1.6879 -2.5770  1.8146
  862SOL     OW 2584   1.277   0.239   2.572  0.4644 -0.2747  0.0203
  862SOL    HW1 2585   1.227   0.151   2.562 -1.4948  0.7572  0.7079
  862SOL    HW2 2586   1.378   0.222   2.583  1.5253 -0.5382 -1.1704
  863SOL     OW 2587   2.380   2.270   0.884  0.6197  0.2928  0.1010
  863SOL    HW1 2588   2.437   2.292   0.802 -1.7232 -1.5608 -0.2764
  863SOL    HW2 2589   2.399   2.177   0.918 -0.3099 -2.8518  2.3897
  864SOL     OW 2590   2.640   3.081   2.012 -0.1626  0.0431  0.5960
  864SOL    HW1 2591   2.644   3.081   1.910 -0.3502  1.8542  0.9093
  864SOL    HW2 2592   2.541   3.069   2.048 -3.1571  2.5904  0.4474
  865SOL     OW 2593   1.299   0.687   1.567  0.1652  0.0932  0.4042
  865SOL    HW1 2594   1.335   0.593   1.574 -0.7697  2.3056  0.1688
  865SOL    HW2 2595   1.220   0.701   1.632  0.2275 -0.8937  3.9429
  866SOL     OW 2596   1.622   2.816   1.202 -0.0477  0.0863  0.0561
  866SOL    HW1 2597   1.661   2.754   1.127  0.2427 -0.3745  2.1256
  866SOL    HW2 2598   1.646   2.913   1.184  0.9959 -0.6177 -1.4122
  867SOL     OW 2599   2.445   2.518   0.459  0.6451 -0.3668 -1.1062
  867SOL    HW1 2600   2.501   2.482   0.384  2.3146 -0.6564  1.4677
  867SOL    HW2 2601   2.484   2.605   0.495 -0.0372  0.8597  1.3498
  868SOL     OW 2602   0.448   2.189   1.612 -0.1673  0.0379 -0.4236
  868SOL    HW1 2603   0.411   2.225   1.521 -1.8108 -0.2682  1.5975
  868SOL    HW2 2604   0.394   2.215   1.693 -0.1116  2.5966  1.4975
  869SOL     OW 2605   2.041   2.427   2.664 -0.1197  0.3599  0.4259
  869SOL    HW1 2606   2.015   2.394   2.571 -0.5977  3.2782 -0.9222
  869SOL    HW2 2607   2.108   2.502   2.668 -0.0709 -1.7755  0.8170
  870SOL     OW 2608   1.646   1.676   0.869 -0.3305 -0.2849  0.5144
  870SOL    HW1 2609   1.737   1.700   0.827  2.9204 -0.0082 -1.3501
  870SOL    HW2 2610   1.657   1.591   0.925  0.0051  2.2813 -1.9115
  871SOL     OW 2611   0.426   1.492   1.366  0.0565 -0.3218 -0.1792
  871SOL    HW1 2612   0.470   1.575   1.398 -1.1906  0.4066  1.4167
  871SOL    HW2 2613   0.389   1.434   1.439  1.5857 -1.3075  0.8546
  872SOL     OW 2614   0.476   1.354   2.611 -0.3083  0.4357 -0.0558
  872SOL    HW1 2615   0.428   1.355   2.523 -0.6869  0.0893  0.1127
  872SOL    HW2 2616   0.457   1.267   2.660  1.8466  0.8360 -1.5125
  873SOL     OW 2617   0.870   2.069   1.774 -0.0783 -0.3404  0.0926
  873SOL    HW1 2618   0.939   2.096   1.847  1.8586 -1.1449 -0.8416
  873SOL    HW2 2619   0.841   1.971   1.795  1.7835 -1.4508  1.7248
  874SOL     OW 2620   0.947   0.730   1.557 -0.5740 -0.1195  0.2846
  874SOL    HW1 2621   0.982   0.631   1.558 -1.0161 -2.7670 -0.8522
  874SOL    HW2 2622   0.977   0.775   1.642  3.1876 -2.9267 -1.7381
  875SOL     OW 2623   2.603   2.687   0.613 -0.6976 -0.1125 -0.1241
  875SOL    HW1 2624   2.692   2.642   0.593  0.8204 -1.7570 -0.0559
  875SOL    HW2 2625   2.610   2.791   0.608 -1.5782 -1.0859  3.3162
  876SOL     OW 2626   0.940   1.514   0.154  0.7487 -0.1332  0.1886
  876SOL    HW1 2627   0.890   1.440   0.208  0.0937  1.3301  1.1765
  876SOL    HW2 2628   0.891   1.602   0.159  3.3727 -1.8930  0.3207
  877SOL     OW 2629   2.847   0.095   0.882  0.4882  0.5852 -0.3085
  877SOL    HW1 2630   2.894   0.156   0.818 -1.8563  1.9778  1.9208
  877SOL    HW2 2631   2.845   0.142   0.975 -0.0509  2.1035 -0.2898
  878SOL     OW 2632   2.132   1.520   0.493 -0.5856 -0.2642  0.9876
  878SOL    HW1 2633   2.073   1.525   0.409  1.3041 -3.3472  4.7679
  878SOL    HW2 2634   2.069   1.508   0.570  0.0284 -0.0300 -0.0050
  879SOL     OW 2635   2.353   1.525   1.234 -0.1334  0.0049 -0.3677
  879SOL    HW1 2636   2.401   1.606   1.274 -2.4031 -0.1261 -0.6024
  879SOL    HW2 2637   2.378   1.518   1.136  0.9852 -1.1853  1.0576
  880SOL     OW 2638   0.529   2.395   0.777  0.1130 -0.1691 -0.2413
  880SOL    HW1 2639   0.434   2.350   0.775 -0.8245  1.1271  1.2198
  880SOL    HW2 2640   0.519   2.497   0.793 -1.0904 -1.7040 -3.0551
  881SOL     OW 2641   1.061   1.024   0.945 -0.4846  0.4504 -0.1164
  881SOL    HW1 2642   1.017   1.010   0.855  2.0736  0.9867  1.7917
  881SOL    HW2 2643   1.122   1.104   0.951  0.5415  1.5365  1.4904
  882SOL     OW 2644   2.284   0.986   0.502  0.2298 -0.4650  0.2885
  882SOL    HW1 2645   2.321   1.074   0.475 -2.3261  0.1783  1.8748
  882SOL    HW2 2646   2.190   0.988   0.543  0.6308  3.5492  3.1632
  883SOL     OW 2647   1.521   0.114   1.643  0.3595  0.1608 -0.0890
  883SOL    HW1 2648   1.541   0.202   1.698  2.4404  1.1603 -0.8269
  883SOL    HW2 2649   1.500   0.036   1.706 -0.0992 -0.6374 -2.8181
  884SOL     OW 2650   2.842   0.020   1.661 -0.3474 -0.0109  0.5332
  884SOL    HW1 2651   2.860   0.069   1.572 -1.0438 -0.0294  0.5649
  884SOL    HW2 2652   2.887   3.043   1.647 -1.0668 -1.9772 -0.6711
  885SOL     OW 2653   1.003   0.848   2.177  0.6320  0.3175 -0.1185
  885SOL    HW1 2654   1.052   0.892   2.102  0.1388 -0.8335  2.1155
  885SOL    HW2 2655   0.907   0.829   2.144 -0.2084  1.7121 -2.1685
  886SOL     OW 2656   1.436   0.726   2.200 -0.9595 -0.0572  0.4116
  886SOL    HW1 2657   1.413   0.825   2.205 -1.5653 -1.2669 -0.9236
  886SOL    HW2 2658   1.426   0.681   2.292 -0.5251  0.1882 -0.3080
  887SOL     OW 2659   1.680   0.572   1.290 -0.3403 -0.4583 -0.1732
  887SOL    HW1 2660   1.630   0.546   1.208  1.8587  2.5512  3.3835
  887SOL    HW2 2661   1.767   0.519   1.295 -2.8179  0.5013 -1.0502
  888SOL     OW 2662   2.525   1.652   2.026  0.1485  0.1855  0.6440
  888SOL    HW1 2663   2.616   1.697   2.035 -0.8865 -0.1040 -1.3887
  888SOL    HW2 2664   2.520   1.555   2.053  1.5275  0.5473  0.3669
  889SOL     OW 2665   1.561   2.156   0.618  0.3304  0.3826 -0.3262
  889SOL    HW1 2666   1.605   2.210   0.544  0.5972 -0.4443 -1.2059
  889SOL    HW2 2667   1.522   2.061   0.588 -0.7974 -1.9938 -1.1970
  890SOL     OW 2668   0.740   1.828   0.449  0.5896  0.0884 -0.2161
  890SOL    HW1 2669   0.792   1.775   0.519  0.8596 -2.1953  0.6201
  890SOL    HW2 2670   0.668   1.886   0.486 -0.5849 -0.6801 -1.9227
  891SOL     OW 2671   2.690   0.747   2.788 -0.3278  0.1960 -0.0996
  891SOL    HW1 2672   2.656   0.665   2.738 -0.2450 -0.4661 -1.3420
  891SOL    HW2 2673   2.634   0.776   2.869  0.0281 -0.3906  1.3402
  892SOL     OW 2674   0.760   0.592   2.541  0.2550 -0.3744 -0.1261
  892SOL    HW1 2675   0.718   0.547   2.462  2.2594  2.8310  0.1506
  892SOL    HW2 2676   0.811   0.529   2.599  1.6051  2.6134  1.0850
  893SOL     OW 2677   1.691   0.087   0.974 -0.4328 -0.1257 -0.3544
  893SOL    HW1 2678   1.755   0.163   0.962  0.4565  1.1497  0.3813
  893SOL    HW2 2679   1.674   0.055   1.069 -1.0174 -0.9350 -0.0693
  894SOL     OW 2680   2.986   2.847   0.992  0.1800 -0.3571  0.1737
  894SOL    HW1 2681   3.072   2.799   1.036  1.7312 -1.1014  1.3901
  894SOL    HW2 2682   2.901   2.797   1.011  1.5533  0.2670 -0.4016
  895SOL     OW 2683   1.873   2.803   2.933 -0.0613  0.0049  0.3827
  895SOL    HW1 2684   1.796   2.741   2.914  0.6255  0.7700 -0.2557
  895SOL    HW2 2685   1.957   2.754   2.972  2.0647 -0.4619  2.8845
  896SOL     OW 2686   2.144   0.033   2.015 -0.4565 -0.5405  0.1066
  896SOL    HW1 2687   2.151   0.125   1.965  0.5042  2.2221 -0.1212
  896SOL    HW2 2688   2.058   3.095   1.991 -0.3134  1.5549  0.9308
  897SOL     OW 2689   0.357   1.850   1.659  0.0379 -0.2434  0.2780
  897SOL    HW1 2690   0.327   1.879   1.751  0.9876 -0.5993  1.6689
  897SOL    HW2 2691   0.334   1.921   1.582  0.7185  1.7367 -1.2939
  898SOL     OW 2692   2.761   1.751   1.923  0.4180  0.1697 -0.3331
  898SOL    HW1 2693   2.695   1.819   1.884 -0.2877 -1.1319 -0.0392
  898SOL    HW2 2694   2.757   1.659   1.878 -0.3424 -0.3993  1.1445
  899SOL     OW 2695   1.402   2.096   0.862 -0.2979  0.3885 -0.0958
  899SOL    HW1 2696   1.305   2.063   0.851 -1.1061  1.1588  2.7484
  899SOL    HW2 2697   1.448   2.114   0.774  0.2024 -0.5349  0.9630
  900SOL     OW 2698   0.846   0.028   2.987 -0.3404  0.0666 -0.4019
  900SOL    HW1 2699   0.853   3.043   2.982  0.2189 -1.7883 -0.1218
  900SOL    HW2 2700   0.921   0.072   2.937 -2.9561  0.9294  3.8660
  901SOL     OW 2701   1.413   1.781   2.451  0.5981 -0.3449  0.0937
  901SOL    HW1 2702   1.329   1.823   2.411  0.5015 -1.3498  1.3911
  901SOL    HW2 2703   1.479   1.858   2.482  2.1599  2.0664  1.5967
  902SOL     OW 2704   2.817   0.260   3.001  0.3058 -0.5410 -0.1086
  902SOL    HW1 2705   2.848   0.257   3.101  1.5967 -0.8663 -0.1669
  902SOL    HW2 2706   2.878   0.188   2.957  1.3570  1.0648 -0.9729
  903SOL     OW 2707   2.072   0.758   2.095 -0.7727  0.1025 -0.5860
  903SOL    HW1 2708   2.014   0.800   2.165 -0.9801  0.2341 -1.3980
  903SOL    HW2 2709   2.066   0.658   2.098 -0.2029  0.8429  0.1961
  904SOL     OW 2710   1.378   0.584   2.472  0.3479  0.6505  0.0070
  904SOL    HW1 2711   1.478   0.556   2.467 -2.5433 -0.6386 -0.8499
  904SOL    HW2 2712   1.341   0.529   2.552  1.7972 -1.4997  0.8190
  905SOL     OW 2713   2.122   2.347   1.485 -0.4815 -0.3167 -0.5849
  905SOL    HW1 2714   2.150   2.399   1.400 -0.1997 -1.0099 -0.4005
  905SOL    HW2 2715   2.142   2.406   1.566  1.2610  0.9760  3.9585
  906SOL     OW 2716   1.583   1.823   0.367 -0.3777  0.2326 -0.0301
  906SOL    HW1 2717   1.518   1.762   0.320  1.2131  3.0867  2.5762
  906SOL    HW2 2718   1.545   1.866   0.449  3.3445  1.3132 -0.1153
  907SOL     OW 2719   1.211   2.953   1.035 -0.0513 -0.1001 -0.3552
  907SOL    HW1 2720   1.236   3.003   0.949 -2.9843  0.3988 -1.3707
  907SOL    HW2 2721   1.276   2.876   1.052  3.6211  1.7016 -0.9786
  908SOL     OW 2722   1.389   2.429   2.033  0.1488 -0.2788 -0.6433
  908SOL    HW1 2723   1.415   2.524   2.070  0.6738  1.9901  1.1876
  908SOL    HW2 2724   1.301   2.394   2.072 -0.3758 -1.2000 -2.0099
  909SOL     OW 2725   2.117   0.463   2.075 -0.4509 -0.4234  0.4046
  909SOL    HW1 2726   2.198   0.404   2.075 -1.4157  2.1711 -0.4028
  909SOL    HW2 2727   2.045   0.431   2.012 -4.8491  0.1861  1.6399
  910SOL     OW 2728   1.146   1.000   3.040 -0.0240  0.0593  0.7490
  910SOL    HW1 2729   1.120   0.920   3.095  0.3927 -0.2600  2.0282
  910SOL    HW2 2730   1.237   1.043   3.058  3.8148  0.5223  1.1471
  911SOL     OW 2731   3.045   1.165   0.179  0.8926 -0.3702 -0.0361
  911SOL    HW1 2732   3.053   1.261   0.205  2.5277 -0.6317  0.5000
  911SOL    HW2 2733   2.952   1.133   0.183  2.1810 -0.8196  2.9528
  912SOL     OW 2734   0.230   2.247   0.466 -0.0820 -0.7754 -0.4242
  912SOL    HW1 2735   0.180   2.161   0.446  0.3734 -2.0496  0.0564
  912SOL    HW2 2736   0.327   2.247   0.426  1.3010 -0.1891 -0.6309
  913SOL     OW 2737   2.737   2.393   2.403 -0.5053 -0.2080 -0.0207
  913SOL    HW1 2738   2.710   2.296   2.388 -1.6347 -0.7584 -0.6775
  913SOL    HW2 2739   2.794   2.405   2.488 -2.6459 -0.5741  0.3555
  914SOL     OW 2740   1.346   1.862   1.635  0.2130 -0.1827  0.7659
  914SOL    HW1 2741   1.398   1.920   1.563  0.2091  2.3779  0.7945
  914SOL    HW2 2742   1.346   1.764   1.607 -0.8167 -0.5921  2.5320
  915SOL     OW 2743   0.795   2.805   2.257 -0.4187 -0.2197 -0.3839
  915SOL    HW1 2744   0.789   2.896   2.219  0.9259  1.2100  0.7312
  915SOL    HW2 2745   0.701   2.774   2.296 -1.1143  0.2925  1.6564
  916SOL     OW 2746   0.476   0.912   1.546 -0.5464 -0.4469  0.4889
  916SOL    HW1 2747   0.547   0.839   1.553  0.8586 -0.6711  0.2223
  916SOL    HW2 2748   0.511   0.999   1.583  3.0048  2.0827 -1.4438
  917SOL     OW 2749   2.808   0.419   0.615  0.2192  0.3094  0.2580
  917SOL    HW1 2750   2.897   0.364   0.609  0.5860 -2.0763 -0.0627
  917SOL    HW2 2751   2.735   0.365   0.566 -1.5163 -0.7192  0.3407
  918SOL     OW 2752   1.661   2.608   2.847  0.5833  0.5266 -0.3455
  918SOL    HW1 2753   1.735   2.541   2.867  0.7153  0.5757  0.2827
  918SOL    HW2 2754   1.576   2.568   2.886 -1.2402 -1.3359 -3.0273
  919SOL     OW 2755   1.766   2.616   1.488 -0.7959 -0.1381  0.0819
  919SOL    HW1 2756   1.811   2.587   1.400 -2.3526 -2.1113 -2.2171
  919SOL    HW2 2757   1.738   2.715   1.483 -0.9867  2.2493 -0.9210
  920SOL     OW 2758   0.635   0.758   2.929 -0.1948  0.4866  0.5219
  920SOL    HW1 2759   0.583   0.748   3.018 -2.4870  0.5400  0.2061
  920SOL    HW2 2760   0.666   0.854   2.920  2.1308  1.8007  0.5323
  921SOL     OW 2761   2.818   0.672   3.108 -0.5689 -0.2437  0.3613
  921SOL    HW1 2762   2.801   0.770   3.094 -2.1654  0.3395 -0.7569
  921SOL    HW2 2763   2.880   0.628   3.036 -0.6704 -2.1278 -1.7358
  922SOL     OW 2764   0.359   2.006   1.016 -0.4838  0.4184 -0.1978
  922SOL    HW1 2765   0.386   1.994   1.114 -0.8597 -2.1884  1.9888
  922SOL    HW2 2766   0.440   2.035   0.957  1.7936  0.8995  0.7916
  923SOL     OW 2767   0.620   1.274   1.906 -0.8786 -0.8480  0.1926
  923SOL    HW1 2768   0.692   1.203   1.931 -0.7659 -0.7269  1.6457
  923SOL    HW2 2769   0.661   1.362   1.908 -0.6704 -3.8123  2.0614
  924SOL     OW 2770   1.558   2.987   3.015  0.0378  0.4020  0.0789
  924SOL    HW1 2771   1.491   2.923   3.054  1.6529  0.4979 -0.7524
  924SOL    HW2 2772   1.636   3.018   3.076  2.7762  1.7923  0.0926
  925SOL     OW 2773   2.770   1.515   1.221 -0.0023  0.0382 -0.0044
  925SOL    HW1 2774   2.738   1.436   1.169  0.5010  2.4741  0.7520
  925SOL    HW2 2775   2.814   1.489   1.311  2.5416  0.8412  1.3398
  926SOL     OW 2776   2.441   0.608   1.527 -0.1471  0.1477 -0.5710
  926SOL    HW1 2777   2.514   0.670   1.564 -0.6417  0.5629 -2.7594
  926SOL    HW2 2778   2.453   0.509   1.552  1.3163  1.1961  0.3953
  927SOL     OW 2779   2.029   3.082   1.253 -0.2076  0.0563 -0.6539
  927SOL    HW1 2780   2.068   2.999   1.300 -1.0224 -1.0614  0.3082
  927SOL    HW2 2781   2.101   0.011   1.202 -2.3365 -1.4676 -0.4984
  928SOL     OW 2782   0.069   1.208   2.380  0.1628 -0.2289  0.2512
  928SOL    HW1 2783   0.144   1.141   2.394  2.3525 -0.7091 -1.5733
  928SOL    HW2 2784   3.095   1.159   2.371 -1.2441 -1.0142 -1.3758
  929SOL     OW 2785   2.808   0.804   1.157  0.7520 -0.5120 -0.4023
  929SOL    HW1 2786   2.745   0.811   1.076  0.2721  0.2414  0.2708
  929SOL    HW2 2787   2.804   0.895   1.213 -0.8382  3.1924  2.2865
  930SOL     OW 2788   2.866   2.530   2.094  0.4523 -0.4435  0.4351
  930SOL    HW1 2789   2.903   2.612   2.139  0.3685 -2.2653 -2.8971
  930SOL    HW2 2790   2.944   2.467   2.074 -2.5186 -0.4657  0.9115
  931SOL     OW 2791   1.921   0.463   1.263 -0.6923  0.5888 -0.1665
  931SOL    HW1 2792   1.979   0.434   1.186  0.5722  1.4081 -0.0620
  931SOL    HW2 2793   1.978   0.498   1.338  0.3240 -0.2472 -0.0487
  932SOL     OW 2794   0.169   1.083   1.852 -0.0122  0.0313 -0.1768
  932SOL    HW1 2795   0.241   1.140   1.906  0.6145 -1.3581 -0.4167
  932SOL    HW2 2796   0.127   1.130   1.775  4.2219 -2.4941  0.8517
  933SOL     OW 2797   2.668   1.938   1.660  0.1013 -0.4070 -0.2600
  933SOL    HW1 2798   2.629   1.967   1.572 -3.1434  0.5566 -0.5973
  933SOL    HW2 2799   2.589   1.949   1.728 -2.3186  0.5624 -0.2065
  934SOL     OW 2800   0.521   1.708   1.509 -0.3816 -1.0731  0.0048
  934SOL    HW1 2801   0.624   1.717   1.525  1.3913  2.3677 -0.2236
  934SOL    HW2 2802   0.471   1.769   1.571  2.3501  2.2453  0.1767
  935SOL     OW 2803   2.977   1.428   1.402 -0.0809 -0.4427  0.3332
  935SOL    HW1 2804   2.990   1.495   1.478  1.1066  0.6106  0.7090
  935SOL    HW2 2805   2.972   1.331   1.434 -0.7274  1.5802 -1.0735
  936SOL     OW 2806   2.695   1.507   1.784 -0.5550  0.3329  0.0144
  936SOL    HW1 2807   2.730   1.413   1.817  0.3497 -0.8687  0.5260
  936SOL    HW2 2808   2.595   1.507   1.784 -0.4271  0.1483 -0.1418
  937SOL     OW 2809   2.068   0.639   1.436  0.2479  0.0361 -0.7376
  937SOL    HW1 2810   2.110   0.599   1.519 -2.5865 -0.3517 -0.3199
  937SOL    HW2 2811   2.039   0.736   1.448  0.1258  0.7654 -1.5334
  938SOL     OW 2812   0.416   2.853   3.042 -0.3881  0.4363 -0.2203
  938SOL    HW1 2813   0.389   2.755   3.068 -0.0347 -0.6434  1.4784
  938SOL    HW2 2814   0.501   2.851   2.987  0.5610 -1.8855  0.1042
  939SOL     OW 2815   2.759   2.094   2.782  0.2512  0.4031  0.2065
  939SOL    HW1 2816   2.853   2.068   2.757 -1.6394  1.0668  0.6160
  939SOL    HW2 2817   2.691   2.048   2.720  1.2653 -1.9682 -0.6112
  940SOL     OW 2818   1.445   1.916   0.573  0.0749 -0.1725  0.0709
  940SOL    HW1 2819   1.355   1.949   0.529 -1.7524 -2.7749 -0.1202
  940SOL    HW2 2820   1.436   1.819   0.603 -2.4910 -1.9984  0.3815
  941SOL     OW 2821   2.096   2.632   3.034 -0.4389 -0.1881  0.5326
  941SOL    HW1 2822   2.192   2.614   3.009  0.5562 -1.2504 -0.6412
  941SOL    HW2 2823   2.053   2.551   3.074  1.3699  1.4520 -0.0746
  942SOL     OW 2824   1.773   2.217   1.029 -0.1508  0.6967 -0.7602
  942SOL    HW1 2825   1.867   2.227   1.070 -0.5371  1.5398 -0.3562
  942SOL    HW2 2826   1.784   2.218   0.929 -0.6766  0.3639 -0.8547
  943SOL     OW 2827   2.428   1.042   1.733 -0.2082 -0.4055  0.1960
  943SOL    HW1 2828   2.375   1.128   1.755  0.8721  0.7255  1.0274
  943SOL    HW2 2829   2.368   0.961   1.723  0.9101  0.1053 -0.9188
  944SOL     OW 2830   1.369   0.843   2.532  0.1390 -0.4642  0.0910
  944SOL    HW1 2831   1.396   0.902   2.449 -0.4472  0.6427 -1.7249
  944SOL    HW2 2832   1.371   0.744   2.517  1.4804 -1.0934  0.2543
  945SOL     OW 2833   2.773   2.086   1.323  0.2187  0.0134  0.0860
  945SOL    HW1 2834   2.786   1.988   1.323  0.3921  3.1126  0.7251
  945SOL    HW2 2835   2.683   2.119   1.371 -2.2997  2.7361 -0.2439
  946SOL     OW 2836   0.641   0.987   0.045  0.4359  0.0626 -0.4230
  946SOL    HW1 2837   0.671   1.016   0.136 -0.4957  1.7583 -2.0864
  946SOL    HW2 2838   0.721   0.979   3.100 -1.6987  0.1947  1.3191
  947SOL     OW 2839   2.074   2.798   1.617  0.0708 -0.1193  0.1192
  947SOL    HW1 2840   1.998   2.848   1.661 -0.9287  0.3146  3.0913
  947SOL    HW2 2841   2.085   2.705   1.655 -2.5804  0.9988 -0.5706
  948SOL     OW 2842   0.228   1.747   0.960 -0.1240 -0.1220 -0.1415
  948SOL    HW1 2843   0.251   1.843   0.976  1.1384  0.9297  1.7630
  948SOL    HW2 2844   0.229   1.699   1.051  0.1357 -1.7348 -0.6586
  949SOL     OW 2845   1.370   0.984   1.563 -0.3806  0.3022  0.0174
  949SOL    HW1 2846   1.312   1.052   1.516 -2.4874  1.9998  1.0041
  949SOL    HW2 2847   1.332   0.889   1.564  1.6017 -1.0883  0.6856
  950SOL     OW 2848   0.346   0.903   0.855 -0.3591 -0.2621  0.4650
  950SOL    HW1 2849   0.293   0.986   0.844  0.4295 -1.6502  0.8160
  950SOL    HW2 2850   0.405   0.876   0.774  0.3225 -1.6062 -0.4411
  951SOL     OW 2851   0.271   2.066   2.201  0.2822  0.1765  0.0969
  951SOL    HW1 2852   0.174   2.035   2.228 -1.2200 -2.0037 -1.9381
  951SOL    HW2 2853   0.312   2.002   2.131  3.0368 -2.7419  1.1638
  952SOL     OW 2854   1.716   1.453   0.253  0.2188  0.1883  0.1129
  952SOL    HW1 2855   1.649   1.526   0.224 -2.0844  4.5891  1.2706
  952SOL    HW2 2856   1.736   1.400   0.166 -0.2519 -0.6594  0.6308
  953SOL     OW 2857   1.115   0.347   2.985 -0.3219 -0.6505 -0.0239
  953SOL    HW1 2858   1.034   0.400   3.025  0.8704 -3.2490 -1.6568
  953SOL    HW2 2859   1.144   0.378   2.892 -1.8022 -0.2835 -3.0983
  954SOL     OW 2860   2.329   1.298   0.437 -0.1196  0.1874 -0.2036
  954SOL    HW1 2861   2.258   1.369   0.461 -1.9296 -1.9926 -1.4992
  954SOL    HW2 2862   2.388   1.340   0.365 -1.4216 -1.4075  1.5271
  955SOL     OW 2863   2.853   3.013   0.038 -0.0224  0.0806  0.3402
  955SOL    HW1 2864   2.839   2.967   3.064 -0.4121 -0.9919 -2.0002
  955SOL    HW2 2865   2.951   3.002   0.067  1.5130 -1.6027 -1.0227
  956SOL     OW 2866   1.216   0.644   1.131 -0.1539  0.2729 -0.2175
  956SOL    HW1 2867   1.289   0.713   1.115  2.2086 -1.7587 -1.0581
  956SOL    HW2 2868   1.259   0.571   1.190  1.4552  1.3068  1.3535
  957SOL     OW 2869   1.396   1.178   1.168 -0.2839 -0.0914 -0.4757
  957SOL    HW1 2870   1.387   1.279   1.181 -0.1602  1.3940  1.9144
  957SOL    HW2 2871   1.446   1.140   1.246  0.3625 -0.8743  0.2109
  958SOL     OW 2872   0.436   1.677   0.617  0.3635 -0.3183  0.1702
  958SOL    HW1 2873   0.479   1.697   0.709  0.2244 -0.3964 -0.5000
  958SOL    HW2 2874   0.339   1.717   0.614 -0.7229 -1.2814 -0.1318
  959SOL     OW 2875   1.964   1.393   1.035  0.4564 -0.4721 -0.3176
  959SOL    HW1 2876   1.936   1.461   1.106  1.7333 -1.5697 -1.0454
  959SOL    HW2 2877   1.949   1.293   1.059  0.0375 -2.6835 -0.9303
  960SOL     OW 2878   2.995   1.261   2.695  0.0320  0.0175 -0.3115
  960SOL    HW1 2879   3.098   1.258   2.695  1.8742  0.0950 -0.9224
  960SOL    HW2 2880   2.952   1.194   2.763 -0.3682 -1.6387  1.1369
  961SOL     OW 2881   0.992   1.551   0.746 -0.0051  0.2416 -0.2451
  961SOL    HW1 2882   0.959   1.489   0.820  1.0139 -2.0591  0.8314
  961SOL    HW2 2883   0.929   1.628   0.730 -2.8589 -0.1226  1.8037
  962SOL     OW 2884   1.196   1.197   0.232  0.0743  0.5067  0.2402
  962SOL    HW1 2885   1.263   1.235   0.297  1.8263 -1.4469  0.8176
  962SOL    HW2 2886   1.195   1.264   0.157 -0.6151  0.1827  2.6441
  963SOL     OW 2887   1.317   2.116   2.306  0.6530 -0.0071 -0.2481
  963SOL    HW1 2888   1.418   2.106   2.301 -2.3556 -1.1729  2.7899
  963SOL    HW2 2889   1.274   2.039   2.255 -2.8235 -1.9411  0.4521
  964SOL     OW 2890   2.940   2.755   0.094  0.2940 -0.2597  0.6607
  964SOL    HW1 2891   2.896   2.851   0.079  0.0103  0.6607 -1.1226
  964SOL    HW2 2892   3.024   2.749   0.040 -1.4764  1.5280 -1.3059
  965SOL     OW 2893   0.629   2.313   0.150 -0.3166 -0.0319  0.2552
  965SOL    HW1 2894   0.694   2.348   0.220  0.0031  2.6930 -2.1431
  965SOL    HW2 2895   0.579   2.391   0.105 -1.8197 -0.4514 -1.4539
  966SOL     OW 2896   2.877   1.671   2.724  0.3634  0.3295  0.1019
  966SOL    HW1 2897   2.850   1.695   2.818  0.0562 -1.7592 -1.2849
  966SOL    HW2 2898   2.879   1.762   2.675 -0.9935 -1.5530 -0.8564
  967SOL     OW 2899   1.889   3.084   2.910 -0.4121 -0.3495 -0.2365
  967SOL    HW1 2900   1.867   3.000   2.860  0.8477  1.0838  1.6415
  967SOL    HW2 2901   1.960   0.023   2.864 -0.2626  1.3300  1.7140
  968SOL     OW 2902   2.135   2.802   0.556  0.3992 -0.2366  0.3691
  968SOL    HW1 2903   2.040   2.767   0.546 -3.0308 -1.3201  1.5524
  968SOL    HW2 2904   2.170   2.779   0.647 -0.3406 -0.0376 -0.8696
  969SOL     OW 2905   0.595   1.251   2.245 -0.0685 -0.2666 -0.1801
  969SOL    HW1 2906   0.659   1.194   2.301  0.9112 -1.0875  3.0486
  969SOL    HW2 2907   0.501   1.251   2.277 -0.3758  0.4555  0.2866
  970SOL     OW 2908   1.570   1.321   0.785 -0.4214  0.2711  0.0629
  970SOL    HW1 2909   1.659   1.289   0.750  1.9073 -1.4411  0.3466
  970SOL    HW2 2910   1.578   1.365   0.873  0.6720 -2.1465 -4.3903
  971SOL     OW 2911   2.203   0.052   1.585  0.4741 -0.1856  0.4362
  971SOL    HW1 2912   2.112   0.013   1.575  1.9562  1.2601  0.3583
  971SOL    HW2 2913   2.215   0.128   1.516 -0.5974 -1.1704  0.5823
  972SOL     OW 2914   0.138   0.049   1.573  0.1187 -0.6869 -0.2375
  972SOL    HW1 2915   0.221   0.105   1.608  1.8065 -0.5940 -0.6618
  972SOL    HW2 2916   0.154   3.061   1.576 -1.5884 -0.5053 -1.7781
  973SOL     OW 2917   0.166   0.410   2.700  0.6206 -0.0827 -0.0074
  973SOL    HW1 2918   0.118   0.449   2.782  1.4761 -1.6439  0.0996
  973SOL    HW2 2919   0.262   0.454   2.694  0.1678  2.1292  2.4412
  974SOL     OW 2920   2.123   1.637   2.305  0.9537 -0.2747  0.0757
  974SOL    HW1 2921   2.128   1.646   2.406 -2.0476 -1.2713 -0.9035
  974SOL    HW2 2922   2.101   1.539   2.285 -0.6081 -1.2824 -0.3070
  975SOL     OW 2923   0.469   0.061   1.341  0.2097 -0.5722 -0.3556
  975SOL    HW1 2924   0.507   0.141   1.292  3.9725 -2.5609  1.4737
  975SOL    HW2 2925   0.373   0.038   1.306 -2.3576  0.9054  0.1083
  976SOL     OW 2926   0.958   2.304   2.413 -0.4251 -0.5557  0.8555
  976SOL    HW1 2927   1.061   2.281   2.426  4.3331  0.9037  0.1481
  976SOL    HW2 2928   0.920   2.219   2.370  1.2345 -1.8375 -1.2304
  977SOL     OW 2929   0.620   2.997   0.457  0.6921  0.1992  0.6094
  977SOL    HW1 2930   0.601   3.098   0.443 -2.5834  0.5035 -2.7250
  977SOL    HW2 2931   0.687   2.962   0.385 -1.0989  0.1876 -0.6366
  978SOL     OW 2932   3.026   1.349   2.064  0.1328 -0.4498 -0.2372
  978SOL    HW1 2933   2.998   1.260   2.092  3.5643  1.8987  0.6718
  978SOL    HW2 2934   2.999   1.410   2.145 -0.0353  1.4454 -0.2365
  979SOL     OW 2935   1.819   2.892   1.707  0.7872  0.1469  0.0027
  979SOL    HW1 2936   1.777   2.857   1.617 -1.1971 -0.9904  0.1966
  979SOL    HW2 2937   1.788   2.828   1.782  2.5576  0.8532  0.9716
  980SOL     OW 2938   1.541   1.706   2.120  0.7895 -0.1873 -0.2304
  980SOL    HW1 2939   1.570   1.641   2.047  2.5407  2.2291 -1.3063
  980SOL    HW2 2940   1.525   1.648   2.205 -1.1195 -1.1449  2.5850
  981SOL     OW 2941   2.744   0.700   1.388 -0.0395  0.1627 -0.2563
  981SOL    HW1 2942   2.718   0.777   1.448 -0.2933 -1.1101  0.2008
  981SOL    HW2 2943   2.807   0.724   1.314  0.1749 -0.0498  0.8556
  982SOL     OW 2944   0.075   0.146   2.672 -0.0160  0.1091  0.2395
  982SOL    HW1 2945   0.003   0.122   2.737  3.3527 -1.1451 -1.7737
  982SOL    HW2 2946   0.114   0.239   2.689 -0.7280  3.1332 -1.9065
  983SOL     OW 2947   2.580   0.551   2.638  0.5321  0.1515  0.4330
  983SOL    HW1 2948   2.515   0.615   2.593 -3.1932  0.4512 -0.3339
  983SOL    HW2 2949   2.615   0.484   2.577 -2.7586  4.0908 -1.6716
  984SOL     OW 2950   1.045   0.204   2.189 -0.4338 -0.3889 -0.1607
  984SOL    HW1 2951   1.137   0.240   2.224  2.2627  0.1562  0.5205
  984SOL    HW2 2952   1.040   0.102   2.184 -1.2579  0.2810 -0.8899
  985SOL     OW 2953   1.932   1.674   2.110  0.4641 -0.0632  0.0021
  985SOL    HW1 2954   1.871   1.751   2.128  0.2511 -0.3261 -0.2260
  985SOL    HW2 2955   2.013   1.668   2.171 -0.8436  0.2311  0.6786
  986SOL     OW 2956   2.855   0.248   1.176  0.3315  0.7330  0.2753
  986SOL    HW1 2957   2.954   0.241   1.194  0.0429 -0.5804  0.9170
  986SOL    HW2 2958   2.823   0.332   1.219  1.1611 -1.5676 -1.4865
  987SOL     OW 2959   2.776   1.054   1.309 -0.3567 -0.7119 -0.4731
  987SOL    HW1 2960   2.700   1.029   1.367  0.0032 -0.3536 -0.5152
  987SOL    HW2 2961   2.849   1.105   1.361  2.6662 -2.8582 -1.9110
  988SOL     OW 2962   2.939   1.102   2.149  0.4363 -0.0240  0.0603
  988SOL    HW1 2963   2.968   1.058   2.237 -0.2067 -0.1384 -0.9396
  988SOL    HW2 2964   2.840   1.078   2.137  2.0011 -0.5354  0.8720
  989SOL     OW 2965   1.585   1.842   0.004 -0.0708  0.5558 -0.0436
  989SOL    HW1 2966   1.633   1.888   0.083 -0.7087  0.3224  1.0949
  989SOL    HW2 2967   1.510   1.898   3.087  1.2958 -0.0323  0.1936
  990SOL     OW 2968   1.096   0.604   2.235  0.0783  0.5762  0.3021
  990SOL    HW1 2969   1.073   0.702   2.217  2.2144  0.3187 -0.1296
  990SOL    HW2 2970   1.124   0.605   2.333  0.2618  1.5370  2.0079
  991SOL     OW 2971   1.359   0.959   0.687 -0.2586  0.4056  0.1268
  991SOL    HW1 2972   1.384   0.910   0.771 -0.0813 -1.7265 -1.2446
  991SOL    HW2 2973   1.447   0.964   0.629  1.3290 -0.9293 -1.6413
  992SOL     OW 2974   2.432   1.511   0.972 -0.5086 -0.0809  0.1661
  992SOL    HW1 2975   2.380   1.430   0.929  0.1510 -1.7217 -0.3107
  992SOL    HW2 2976   2.531   1.503   0.949  1.2988  0.2162 -0.3599
  993SOL     OW 2977   0.048   0.695   0.692  0.3462  0.4341  0.6740
  993SOL    HW1 2978   0.047   0.739   0.783 -0.1478 -1.3778  0.8900
  993SOL    HW2 2979   0.140   0.687   0.653 -0.0322  1.2753  2.3147
  994SOL     OW 2980   0.390   2.228   2.387  0.0049  0.1733 -0.7175
  994SOL    HW1 2981   0.376   2.182   2.300  1.1189 -1.2953 -1.2783
  994SOL    HW2 2982   0.304   2.262   2.424  2.5111 -0.0562  0.4521
  995SOL     OW 2983   1.900   1.026   2.610 -0.2223  0.0509 -0.6037
  995SOL    HW1 2984   2.001   1.025   2.602 -3.5279 -1.5162  0.9847
  995SOL    HW2 2985   1.856   1.111   2.567 -1.1531 -1.2738 -1.1746
  996SOL     OW 2986   2.994   1.371   0.634  0.3201  0.0347 -0.2376
  996SOL    HW1 2987   2.909   1.370   0.574 -2.4699  2.9106 -1.2683
  996SOL    HW2 2988   2.973   1.364   0.734  2.5702  4.0089 -2.4427
  997SOL     OW 2989   1.625   0.986   2.044 -0.0865  0.0444 -0.1847
  997SOL    HW1 2990   1.543   1.042   2.029  0.5076 -1.6720  2.6422
  997SOL    HW2 2991   1.636   0.914   1.975 -0.4133 -0.3387 -2.2559
  998SOL     OW 2992   2.832   1.917   0.462  0.2033  0.6015 -0.0331
  998SOL    HW1 2993   2.882   1.879   0.378 -2.6707 -0.3819 -2.6450
  998SOL    HW2 2994   2.818   1.847   0.534  0.8400  0.5818  0.6444
  999SOL     OW 2995   2.988   2.227   0.309  0.1794  0.3429  0.0274
  999SOL    HW1 2996   3.056   2.156   0.330 -0.5044 -2.1557  2.3833
  999SOL    HW2 2997   2.928   2.245   0.392 -0.9991  1.2222  1.8843
 1000SOL     OW 2998   1.052   0.984   2.395 -0.2036  0.3094  0.4298
 1000SOL    HW1 2999   0.996   0.946   2.467  0.8183  0.3103 -1.4125
 1000SOL    HW2 3000   1.060   0.918   2.311 -1.0914  1.0049  0.1788
   3.11509   3.11509   3.11509
