1000 SPC/Fw water molecules t= 118.00000 step= 118000
 3000
    1SOL     OW    1   2.135   2.255   0.791 -0.1757 -0.0657 -0.2009
    1SOL    HW1    2   2.151   2.227   0.694  0.1171  1.1160 -1.1806
    1SOL    HW2    3   2.213   2.209   0.847  2.4289 -0.3045  1.4728
    2SOL     OW    4   1.456   1.609   2.347 -0.0358  0.4326 -0.3503
    2SOL    HW1    5   1.384   1.618   2.277  1.8235  1.1815  2.8372
    2SOL    HW2    6   1.456   1.504   2.371  1.3442 -1.7383  0.2219
    3SOL     OW    7   1.348   2.531   2.252 -0.4188  0.5311  0.0792
    3SOL    HW1    8   1.406   2.496   2.171  2.1211  0.7827 -1.2843
    3SOL    HW2    9   1.346   2.466   2.330  1.5650  3.2197 -0.2756
    4SOL     OW   10   1.101   2.201   1.822 -0.0161  0.0173 -0.1332
    4SOL    HW1   11   1.029   2.146   1.872 -0.4145 -1.4514 -0.4933
    4SOL    HW2   12   1.111   2.168   1.726 -1.8813  0.9973 -0.5161
    5SOL     OW   13   0.549   0.878   1.660 -0.1198 -0.0804  0.5313
    5SOL    HW1   14   0.639   0.928   1.681 -0.4561  1.2834 -0.1192
    5SOL    HW2   15   0.559   0.774   1.677  1.0467 -0.8305 -1.6744
    6SOL     OW   16   2.322   0.737   0.069  0.0996  0.5028  0.1394
    6SOL    HW1   17   2.237   0.746   0.016  1.2666 -3.4656  2.2231
    6SOL    HW2   18   2.350   0.641   0.072 -1.9630  1.7489 -0.5880
    7SOL     OW   19   0.935   0.353   1.590 -0.0350 -0.1609  0.3944
    7SOL    HW1   20   1.006   0.282   1.586 -2.5149  1.8389 -0.9817
    7SOL    HW2   21   0.901   0.349   1.684 -2.1475  3.1544 -1.6694
    8SOL     OW   22   1.432   0.244   1.789  0.0017  0.1052  0.1990
    8SOL    HW1   23   1.456   0.274   1.696  1.7389  1.3204 -3.1029
    8SOL    HW2   24   1.516   0.237   1.852  0.1343 -2.8978 -1.3392
    9SOL     OW   25   0.588   0.746   0.582  1.1141 -0.2257  0.0853
    9SOL    HW1   26   0.635   0.710   0.662 -1.6910  2.3420 -1.7088
    9SOL    HW2   27   0.525   0.822   0.608  0.1832 -2.9277 -0.4766
   10SOL     OW   28   0.567   2.326   2.332  0.0902 -0.2589  0.0269
   10SOL    HW1   29   0.623   2.334   2.420  1.1659  0.1614  1.0031
   10SOL    HW2   30   0.471   2.351   2.348  0.6481 -0.8192 -1.6168
   11SOL     OW   31   0.515   1.976   2.974  0.3388  0.3132 -0.0706
   11SOL    HW1   32   0.559   2.045   3.035  1.4446 -0.9186 -1.1903
   11SOL    HW2   33   0.483   1.896   3.033 -2.8805 -1.0661  1.3014
   12SOL     OW   34   0.180   2.999   1.376 -0.1708 -0.2900 -0.1059
   12SOL    HW1   35   0.232   3.062   1.433  0.8107  1.4104 -0.7011
   12SOL    HW2   36   0.219   2.902   1.385  1.3023 -0.5247  0.0191
   13SOL     OW   37   0.829   2.773   0.136  0.2276  0.0759  0.3013
   13SOL    HW1   38   0.918   2.763   0.087 -1.1483  1.1213 -0.8476
   13SOL    HW2   39   0.769   2.832   0.079  2.3048 -0.1006 -1.8944
   14SOL     OW   40   1.539   1.723   0.864  0.0256  0.1977 -0.6419
   14SOL    HW1   41   1.535   1.816   0.902  0.1887 -0.8214 -1.6674
   14SOL    HW2   42   1.463   1.665   0.907 -2.8479 -2.0468  2.6893
   15SOL     OW   43   2.874   1.279   2.201 -0.0131 -0.4981  0.2440
   15SOL    HW1   44   2.929   1.209   2.256  1.3200 -1.9333  0.3825
   15SOL    HW2   45   2.871   1.368   2.252 -1.0763  0.5353  2.3766
   16SOL     OW   46   1.235   3.025   2.993 -1.0584  0.1357  0.1461
   16SOL    HW1   47   1.218   2.926   3.006  0.3835 -1.3325  3.3040
   16SOL    HW2   48   1.210   3.055   2.897  1.1856  0.9426  0.2637
   17SOL     OW   49   0.470   2.179   1.956 -0.1481 -0.2345  0.1283
   17SOL    HW1   50   0.483   2.142   2.052 -1.0020 -0.0092  0.8767
   17SOL    HW2   51   0.373   2.220   1.956 -0.1569  1.3903 -0.2793
   18SOL     OW   52   1.727   0.864   0.315  0.3362  0.8095  0.4871
   18SOL    HW1   53   1.726   0.961   0.287 -0.9246 -0.7358 -0.1147
   18SOL    HW2   54   1.786   0.812   0.254 -3.3249  0.8208 -0.4073
   19SOL     OW   55   2.338   1.875   2.558 -0.1339  0.3889 -1.1905
   19SOL    HW1   56   2.279   1.874   2.647  0.4641 -0.3435  2.4412
   19SOL    HW2   57   2.430   1.821   2.582  2.5255 -1.6708  2.6493
   20SOL     OW   58   2.380   2.226   2.257 -0.7191  0.1415  0.3337
   20SOL    HW1   59   2.315   2.292   2.215  1.8275  2.9428 -0.5080
   20SOL    HW2   60   2.358   2.204   2.350 -1.3234  0.9302 -0.0326
   21SOL     OW   61   0.556   2.091   0.416 -0.0898 -0.3246 -0.0206
   21SOL    HW1   62   0.465   2.130   0.372 -3.3887  0.0679 -2.3146
   21SOL    HW2   63   0.549   2.060   0.513 -0.8917 -0.0125  1.6637
   22SOL     OW   64   2.497   2.725   1.398  0.7685  0.4337 -0.2987
   22SOL    HW1   65   2.594   2.751   1.379  0.1376  0.7307  2.2541
   22SOL    HW2   66   2.443   2.809   1.404  0.3331  0.3387  2.2019
   23SOL     OW   67   0.335   1.053   1.720  0.3429 -0.7013  0.2396
   23SOL    HW1   68   0.367   1.143   1.750 -0.3801 -0.1053  0.8214
   23SOL    HW2   69   0.417   0.999   1.709 -1.3013 -0.7041  0.3910
   24SOL     OW   70   2.045   2.070   1.584 -0.3612 -0.5153  0.0428
   24SOL    HW1   71   2.035   1.969   1.583 -0.3031  0.8910  0.1348
   24SOL    HW2   72   2.062   2.101   1.678 -2.9667  0.6545 -1.7343
   25SOL     OW   73   1.819   0.188   2.595 -0.1639  0.3311 -0.3378
   25SOL    HW1   74   1.816   0.285   2.581  2.0176 -2.4964  2.6161
   25SOL    HW2   75   1.776   0.131   2.522 -0.1426 -1.4248 -0.6401
   26SOL     OW   76   1.368   3.098   0.902  0.6837  0.1900  0.7350
   26SOL    HW1   77   1.414   3.053   0.823 -1.2608  0.2791 -1.7267
   26SOL    HW2   78   1.403   0.066   0.921 -1.8887 -1.8585  0.4439
   27SOL     OW   79   1.129   1.842   0.135  0.0353 -0.4793 -0.2565
   27SOL    HW1   80   1.150   1.803   0.230  0.8565 -0.2182  0.7324
   27SOL    HW2   81   1.033   1.884   0.133 -3.5935  3.0546 -0.1242
   28SOL     OW   82   2.898   1.790   1.233  0.1152  0.3670 -0.3714
   28SOL    HW1   83   2.806   1.831   1.229 -4.0797  0.1447 -1.1118
   28SOL    HW2   84   2.953   1.828   1.313 -0.7222  0.4982  3.8448
   29SOL     OW   85   2.212   2.717   1.860  0.1752  0.2863  0.3798
   29SOL    HW1   86   2.280   2.664   1.805  3.0494  0.1709 -1.2782
   29SOL    HW2   87   2.209   2.692   1.954  0.9409  2.4674 -0.3326
   30SOL     OW   88   0.953   2.805   1.189 -0.1356 -0.4007 -0.2370
   30SOL    HW1   89   1.034   2.815   1.131  0.3430 -0.5962 -0.3553
   30SOL    HW2   90   0.874   2.857   1.152  0.4204  1.1620 -0.9677
   31SOL     OW   91   2.946   2.292   1.892  0.7990  0.5055 -0.5550
   31SOL    HW1   92   2.995   2.203   1.887  2.9949  0.8356  0.4513
   31SOL    HW2   93   2.983   2.348   1.969 -0.2479 -0.3800  0.6765
   32SOL     OW   94   1.488   1.299   2.030 -0.5722 -0.7648 -0.0039
   32SOL    HW1   95   1.468   1.228   1.963 -2.1564 -2.3148  2.6927
   32SOL    HW2   96   1.421   1.290   2.107  0.8034  0.7842  1.5809
   33SOL     OW   97   0.178   0.072   2.664  0.1674 -0.4436  0.2115
   33SOL    HW1   98   0.232   0.159   2.665 -0.9481  0.0059  1.5026
   33SOL    HW2   99   0.233   3.119   2.619  1.3892  3.1628 -1.3108
   34SOL     OW  100   1.800   0.305   1.623 -0.7067 -0.0724 -0.4465
   34SOL    HW1  101   1.838   0.394   1.661 -0.9080  1.3924  0.9883
   34SOL    HW2  102   1.833   0.224   1.679  3.5679 -0.8833 -0.5884
   35SOL     OW  103   2.433   0.558   1.567  0.4256  0.6384 -0.3259
   35SOL    HW1  104   2.493   0.575   1.646 -0.4058  2.6673  0.5126
   35SOL    HW2  105   2.459   0.620   1.490  1.1826  1.9184 -2.5931
   36SOL     OW  106   2.432   0.008   2.381 -0.3673 -0.2292  0.5744
   36SOL    HW1  107   2.391   3.038   2.396  1.0488 -0.4828  0.2194
   36SOL    HW2  108   2.527   0.008   2.412 -1.4809  1.4876 -0.8871
   37SOL     OW  109   1.144   2.235   2.861 -0.6344 -0.3543 -0.0734
   37SOL    HW1  110   1.069   2.248   2.928  2.8560 -1.2027  0.4900
   37SOL    HW2  111   1.166   2.137   2.860  1.8941  0.8339  1.8337
   38SOL     OW  112   2.813   0.919   2.780 -0.0152 -0.6197  0.4160
   38SOL    HW1  113   2.745   0.867   2.725  0.0314  2.0007  2.4364
   38SOL    HW2  114   2.771   0.951   2.867  1.6215  0.6602  0.9092
   39SOL     OW  115   2.077   2.153   2.258  0.2059 -0.2208 -0.2933
   39SOL    HW1  116   2.007   2.086   2.256  3.3354  1.4983 -0.6659
   39SOL    HW2  117   2.140   2.131   2.335 -4.2869  0.5429  2.8199
   40SOL     OW  118   0.406   0.122   3.118  0.4195 -0.3698 -0.6974
   40SOL    HW1  119   0.448   0.076   0.078 -1.1016  2.9631 -1.3522
   40SOL    HW2  120   0.320   0.077   3.087  0.4697 -0.1300  1.5452
   41SOL     OW  121   1.476   0.991   1.404  0.4596 -0.1079  0.0261
   41SOL    HW1  122   1.576   0.984   1.421  2.0135  0.7049 -2.4136
   41SOL    HW2  123   1.420   0.992   1.490 -1.8701 -0.4897 -1.0392
   42SOL     OW  124   0.278   0.340   2.021 -0.1993  0.4335  0.5839
   42SOL    HW1  125   0.177   0.343   2.004 -0.4871 -0.2225 -0.9754
   42SOL    HW2  126   0.309   0.403   2.090  0.5621 -1.2030 -0.6249
   43SOL     OW  127   1.679   1.314   2.252  0.3089 -0.2854  0.8134
   43SOL    HW1  128   1.597   1.336   2.305 -0.9359 -0.5220  0.9241
   43SOL    HW2  129   1.649   1.281   2.159 -1.0109 -1.0463 -0.1608
   44SOL     OW  130   2.972   3.057   2.912  0.2531  0.1220  0.1513
   44SOL    HW1  131   3.024   3.067   2.999 -1.1393  3.4911 -1.3510
   44SOL    HW2  132   2.918   2.967   2.905 -0.4738 -4.5493 -0.5824
   45SOL     OW  133   0.926   2.086   1.306 -0.1439  0.1962 -0.5172
   45SOL    HW1  134   0.948   2.160   1.242 -0.9453 -2.9674  0.5001
   45SOL    HW2  135   0.835   2.050   1.280 -2.9034  0.2804  1.1631
   46SOL     OW  136   2.646   2.722   1.849 -0.3585 -0.2032 -0.0360
   46SOL    HW1  137   2.724   2.763   1.798  2.3318 -1.0676  2.6299
   46SOL    HW2  138   2.583   2.664   1.792 -3.0400 -2.0165 -0.2702
   47SOL     OW  139   1.430   1.640   1.233  0.1897 -0.3328 -0.0127
   47SOL    HW1  140   1.436   1.732   1.276  1.4921  1.7379  0.6626
   47SOL    HW2  141   1.356   1.624   1.165  1.3657  0.6097 -2.2988
   48SOL     OW  142   0.223   2.100   0.529 -0.0495  0.0823  0.4362
   48SOL    HW1  143   0.129   2.070   0.540  1.4780 -2.9543  0.1289
   48SOL    HW2  144   0.271   2.118   0.618  0.9374 -0.3443 -3.0442
   49SOL     OW  145   2.955   1.329   1.922 -0.3166 -0.3492 -0.0318
   49SOL    HW1  146   2.999   1.409   1.963  0.7317  1.3753 -0.5365
   49SOL    HW2  147   2.881   1.296   1.978  3.0788  3.7887 -1.6117
   50SOL     OW  148   2.164   0.897   0.813  0.7164  0.0067 -0.1386
   50SOL    HW1  149   2.241   0.863   0.751  1.1194 -2.4451 -1.5798
   50SOL    HW2  150   2.091   0.930   0.748 -1.5273  0.1607 -1.4149
   51SOL     OW  151   1.248   0.650   0.739 -0.0075 -0.0592 -0.1590
   51SOL    HW1  152   1.174   0.701   0.783  0.6094 -1.7515 -2.4488
   51SOL    HW2  153   1.334   0.699   0.762  1.8021 -0.2044  0.1479
   52SOL     OW  154   1.337   1.111   0.119  0.0901  0.1576  0.0411
   52SOL    HW1  155   1.320   1.024   0.163  4.1917  0.6093 -1.2081
   52SOL    HW2  156   1.438   1.113   0.107 -1.3666  0.5237 -2.3559
   53SOL     OW  157   1.001   2.336   2.574 -0.6989  0.0941 -0.2812
   53SOL    HW1  158   1.040   2.268   2.500  2.4737 -2.4726 -2.5124
   53SOL    HW2  159   1.035   2.303   2.662  2.1372 -0.0997 -0.2945
   54SOL     OW  160   1.627   0.861   1.667 -0.1599  0.3695  0.2607
   54SOL    HW1  161   1.541   0.910   1.672  1.4779  1.5615  1.3763
   54SOL    HW2  162   1.646   0.804   1.584 -0.1567  1.9208  0.9722
   55SOL     OW  163   2.400   2.943   0.368  0.0471 -0.4836  0.3487
   55SOL    HW1  164   2.304   2.924   0.364 -0.1209  4.4342  4.2893
   55SOL    HW2  165   2.456   2.875   0.320  0.8634 -1.1654  0.9042
   56SOL     OW  166   0.959   2.443   1.521  0.4506 -0.0194  0.4935
   56SOL    HW1  167   0.935   2.514   1.589 -0.0655  2.2150 -0.4968
   56SOL    HW2  168   0.931   2.472   1.427 -0.0275  1.4090 -1.1002
   57SOL     OW  169   1.991   0.552   2.926 -0.8482  0.0134 -0.3199
   57SOL    HW1  170   1.948   0.626   2.865 -0.6483  0.3472 -0.6492
   57SOL    HW2  171   1.912   0.504   2.973  0.2820  0.8005  2.1812
   58SOL     OW  172   2.840   1.296   1.686  0.5444  0.2352 -0.4379
   58SOL    HW1  173   2.882   1.311   1.780  2.4885  1.6703  1.7156
   58SOL    HW2  174   2.740   1.298   1.678  1.9820 -2.3793 -3.0436
   59SOL     OW  175   0.564   2.757   2.169 -0.2689  0.0310 -0.4608
   59SOL    HW1  176   0.579   2.661   2.137  0.7316  1.6966  0.1092
   59SOL    HW2  177   0.467   2.787   2.170 -0.0839  2.4449  0.4402
   60SOL     OW  178   2.687   2.251   0.761  0.5387  0.3392 -0.2453
   60SOL    HW1  179   2.729   2.166   0.792 -0.3178  1.4957  0.1170
   60SOL    HW2  180   2.652   2.303   0.843  0.6816 -0.3912 -0.8984
   61SOL     OW  181   0.964   2.425   0.222  0.2634 -0.2260  0.2314
   61SOL    HW1  182   1.053   2.389   0.195 -0.3802  1.1440  3.2201
   61SOL    HW2  183   0.958   2.450   0.318 -0.0774  1.2935  0.4086
   62SOL     OW  184   2.099   2.610   2.845 -0.4240 -0.3580 -0.3807
   62SOL    HW1  185   2.166   2.605   2.768 -1.6925  0.5959  1.7108
   62SOL    HW2  186   2.019   2.651   2.803  1.6139 -1.0446  1.5229
   63SOL     OW  187   1.889   0.125   3.043 -0.1439  0.1305  0.3450
   63SOL    HW1  188   1.833   0.043   3.067  1.8901  1.5900  0.4839
   63SOL    HW2  189   1.983   0.096   3.009  0.7962 -0.3404 -0.2994
   64SOL     OW  190   0.894   1.074   2.588  0.5894  0.2935 -0.2225
   64SOL    HW1  191   0.959   0.992   2.614 -1.0259 -2.2778 -0.6867
   64SOL    HW2  192   0.802   1.065   2.636  1.0544 -0.0067  1.1124
   65SOL     OW  193   1.275   2.760   0.587 -1.0531 -0.3830  0.2284
   65SOL    HW1  194   1.288   2.722   0.685  0.7745 -1.8586 -0.4837
   65SOL    HW2  195   1.345   2.714   0.527  1.1460  1.0367  1.5789
   66SOL     OW  196   0.520   1.258   1.790  0.1757  0.2330  0.2737
   66SOL    HW1  197   0.607   1.267   1.739  0.6965  1.7752  1.7563
   66SOL    HW2  198   0.479   1.350   1.814  0.7551 -2.1067 -0.4197
   67SOL     OW  199   2.184   3.073   2.065  0.8885 -0.1884  0.3774
   67SOL    HW1  200   2.191   3.041   1.970  1.8579 -1.0519 -1.9440
   67SOL    HW2  201   2.261   0.011   2.084 -3.2083 -2.7992 -0.4646
   68SOL     OW  202   0.892   0.820   1.542 -0.1423 -0.0223 -0.1153
   68SOL    HW1  203   0.836   0.737   1.537 -2.4897 -2.8206  1.8261
   68SOL    HW2  204   0.845   0.901   1.587 -0.5295 -1.1131 -0.2207
   69SOL     OW  205   2.129   2.861   0.403 -0.0204 -0.6216  0.4057
   69SOL    HW1  206   2.077   2.779   0.426  1.0226  1.7207 -3.3261
   69SOL    HW2  207   2.071   2.944   0.400  0.0084 -0.8044  2.3991
   70SOL     OW  208   2.682   0.547   2.853 -0.3266  0.6817  0.4752
   70SOL    HW1  209   2.671   0.631   2.789 -0.0322  0.9212 -1.9026
   70SOL    HW2  210   2.599   0.497   2.886  0.3835  1.6412  0.2288
   71SOL     OW  211   2.861   1.905   2.954  0.1603 -0.2239 -0.0753
   71SOL    HW1  212   2.878   1.806   2.956 -0.1683  0.7008  3.0105
   71SOL    HW2  213   2.942   1.952   2.978 -2.1031 -1.4497 -3.0655
   72SOL     OW  214   3.052   1.946   0.353  0.1722  0.4543  0.2951
   72SOL    HW1  215   2.973   1.980   0.298 -3.2561 -2.5202 -2.8079
   72SOL    HW2  216   3.043   1.987   0.444  0.6859  1.9368  1.2316
   73SOL     OW  217   1.022   0.874   0.489 -0.3222  0.1600 -0.1721
   73SOL    HW1  218   0.980   0.945   0.545 -0.6648  0.1728 -2.4656
   73SOL    HW2  219   0.991   0.882   0.395 -0.1773  2.2134  1.3746
   74SOL     OW  220   0.020   2.091   1.872 -0.3238 -0.6772 -0.6083
   74SOL    HW1  221   0.110   2.140   1.875  0.9001  0.1796 -1.3702
   74SOL    HW2  222   0.021   2.008   1.935 -0.5834 -3.5130  0.4567
   75SOL     OW  223   1.748   1.486   1.559 -0.4317 -0.3888 -0.5714
   75SOL    HW1  224   1.692   1.400   1.551  0.7401 -1.0134  1.9214
   75SOL    HW2  225   1.754   1.519   1.657 -0.7320  2.1366  5.0824
   76SOL     OW  226   2.070   2.230   1.105 -0.4097 -0.3571  0.0256
   76SOL    HW1  227   2.016   2.245   1.194  1.1715 -0.6208 -0.5887
   76SOL    HW2  228   2.122   2.317   1.071  2.6617 -2.0369 -0.9744
   77SOL     OW  229   2.671   1.676   1.579  0.8260 -0.2472  0.1580
   77SOL    HW1  230   2.607   1.728   1.640 -1.7280 -0.0377  0.4339
   77SOL    HW2  231   2.758   1.662   1.627 -3.7997 -1.9487 -1.8668
   78SOL     OW  232   1.442   0.549   0.421  0.3051 -0.5091 -0.3486
   78SOL    HW1  233   1.469   0.537   0.519  0.8377 -1.4012 -2.4566
   78SOL    HW2  234   1.494   0.494   0.354  0.2347  0.6155  0.7544
   79SOL     OW  235   2.358   1.763   1.540 -0.1121 -0.0994 -0.2383
   79SOL    HW1  236   2.419   1.796   1.614 -1.3609  0.2652 -0.4896
   79SOL    HW2  237   2.341   1.664   1.549 -0.9298 -0.2869  2.8847
   80SOL     OW  238   0.774   0.563   1.517  0.0588 -0.2938  0.1970
   80SOL    HW1  239   0.832   0.484   1.529 -0.0040  1.8960 -0.3306
   80SOL    HW2  240   0.716   0.562   1.429 -2.0058 -3.2377 -0.0818
   81SOL     OW  241   0.631   2.606   0.931  0.1314 -0.5220  0.5521
   81SOL    HW1  242   0.700   2.675   0.911 -0.7267 -2.8656  1.9791
   81SOL    HW2  243   0.590   2.631   1.021  0.7967  2.6432 -0.6393
   82SOL     OW  244   1.243   0.062   1.777  0.4046  0.0970  0.3360
   82SOL    HW1  245   1.314   0.135   1.777 -1.1315 -0.9849  1.8467
   82SOL    HW2  246   1.173   0.082   1.847 -0.4357 -0.2102 -3.3002
   83SOL     OW  247   1.059   1.897   0.569 -0.6239 -0.0656  0.1815
   83SOL    HW1  248   1.110   1.986   0.559  3.3127  0.0591 -2.0172
   83SOL    HW2  249   0.959   1.915   0.586  0.1894  1.8659  1.4143
   84SOL     OW  250   0.059   1.432   3.071 -0.0530  0.2488  0.6488
   84SOL    HW1  251   0.023   1.337   3.093  0.2408 -3.5149  1.9388
   84SOL    HW2  252   0.025   1.496   0.020 -1.1657 -1.0675 -0.7130
   85SOL     OW  253   0.268   2.396   0.967  0.2562 -0.1293 -0.1847
   85SOL    HW1  254   0.247   2.422   0.875  0.0581  2.1504 -0.7552
   85SOL    HW2  255   0.347   2.335   0.975 -2.0489  0.2762  0.2689
   86SOL     OW  256   2.184   2.708   1.523 -0.2095 -0.3542  0.0844
   86SOL    HW1  257   2.273   2.658   1.541  0.0377  0.1602 -2.4369
   86SOL    HW2  258   2.107   2.642   1.536  0.6722 -0.3766  2.6998
   87SOL     OW  259   3.063   2.046   0.607  0.2272 -0.8878  0.4504
   87SOL    HW1  260   3.064   2.123   0.675 -2.6470  0.6186 -1.4865
   87SOL    HW2  261   2.988   1.983   0.628  4.0443  3.7318 -0.0660
   88SOL     OW  262   0.991   0.663   1.056 -0.5347 -0.5565 -0.2214
   88SOL    HW1  263   0.975   0.658   0.957 -1.7719 -1.6372 -2.2780
   88SOL    HW2  264   1.088   0.673   1.078  2.6518  1.0926  0.5716
   89SOL     OW  265   1.006   2.895   1.776 -0.4373 -0.2314 -0.0388
   89SOL    HW1  266   1.092   2.930   1.816 -0.4111  1.5125  0.7170
   89SOL    HW2  267   0.960   2.969   1.729 -1.6237  2.3481 -0.1248
   90SOL     OW  268   0.281   2.179   1.378 -0.0453  0.2345 -0.2790
   90SOL    HW1  269   0.271   2.079   1.338 -3.4176 -1.8198  0.9713
   90SOL    HW2  270   0.375   2.199   1.412 -0.9231 -0.4034 -1.4581
   91SOL     OW  271   1.533   2.112   1.262  0.7740 -0.4326  0.1873
   91SOL    HW1  272   1.469   2.187   1.282  1.9434  2.8946  2.2216
   91SOL    HW2  273   1.596   2.091   1.341  1.3151 -2.8442  1.7730
   92SOL     OW  274   3.004   2.841   1.494 -0.2660 -0.1670  0.1352
   92SOL    HW1  275   3.068   2.914   1.464  1.0703  0.9285 -0.7243
   92SOL    HW2  276   3.052   2.769   1.553 -1.8382 -0.0804  0.8245
   93SOL     OW  277   3.059   1.195   0.013  0.1738  0.0912  0.6155
   93SOL    HW1  278   3.085   1.124   3.062  1.2731  0.4430  0.8724
   93SOL    HW2  279   3.113   1.184   0.101 -0.7447 -0.8256  0.5686
   94SOL     OW  280   2.890   2.695   2.002 -0.7114  0.4638 -0.0476
   94SOL    HW1  281   2.967   2.764   1.995 -2.7126 -1.3585 -1.4728
   94SOL    HW2  282   2.810   2.718   1.940  0.6277  1.3674 -1.3067
   95SOL     OW  283   1.548   0.705   2.015 -0.4271 -0.4489  0.0950
   95SOL    HW1  284   1.555   0.637   2.088  2.3001 -1.0363 -3.5184
   95SOL    HW2  285   1.489   0.787   2.035 -0.3990  2.0108 -1.2467
   96SOL     OW  286   2.594   0.562   1.792 -0.4785  0.0165 -0.7470
   96SOL    HW1  287   2.581   0.461   1.807  0.8672 -2.0652  0.8524
   96SOL    HW2  288   2.691   0.584   1.823  1.2640 -0.9474 -2.4875
   97SOL     OW  289   2.415   0.298   1.533  0.4024  0.5048 -0.5103
   97SOL    HW1  290   2.366   0.250   1.608  2.2594  1.1960 -2.5728
   97SOL    HW2  291   2.424   0.397   1.555  0.1373 -2.8265  2.1808
   98SOL     OW  292   2.157   2.924   1.227  0.7547 -0.4550  0.6227
   98SOL    HW1  293   2.126   2.828   1.239 -1.5655  0.2046  1.2842
   98SOL    HW2  294   2.154   2.971   1.314  0.0061  1.5148 -1.9153
   99SOL     OW  295   2.925   0.283   2.172 -0.6369 -0.6383  0.1424
   99SOL    HW1  296   2.978   0.284   2.257 -2.3470  0.2416 -1.1080
   99SOL    HW2  297   2.881   0.372   2.155 -1.6570 -1.5295 -1.0176
  100SOL     OW  298   2.508   1.800   1.763 -0.1398  0.4226 -0.1178
  100SOL    HW1  299   2.435   1.749   1.817 -1.9136  2.0293 -0.6767
  100SOL    HW2  300   2.558   1.867   1.821 -1.2434  0.4695 -0.3277
  101SOL     OW  301   1.685   2.949   0.727 -0.3490  0.2601  0.2955
  101SOL    HW1  302   1.714   2.965   0.825  1.5396  2.2371 -1.8363
  101SOL    HW2  303   1.584   2.949   0.720  2.1169  0.6115 -0.3756
  102SOL     OW  304   0.409   0.835   1.428 -0.1484 -0.4318 -0.3562
  102SOL    HW1  305   0.465   0.759   1.389  0.3250 -1.1059  0.5895
  102SOL    HW2  306   0.465   0.876   1.501  0.6485 -2.3464 -2.3683
  103SOL     OW  307   2.688   0.192   0.058  1.0618  0.7266 -0.1797
  103SOL    HW1  308   2.729   0.170   3.090 -0.3584 -1.1823 -0.8323
  103SOL    HW2  309   2.709   0.287   0.074 -1.1782 -1.7090 -1.7783
  104SOL     OW  310   2.871   0.048   1.990 -0.1392  0.6299  0.0143
  104SOL    HW1  311   2.907   0.080   1.901  0.0924  0.8039  1.0955
  104SOL    HW2  312   2.901   0.103   2.065 -0.6226 -0.2843  0.2179
  105SOL     OW  313   1.865   0.904   2.291  0.1229 -0.1470  0.1979
  105SOL    HW1  314   1.903   0.820   2.253 -1.3649  2.8527  2.6293
  105SOL    HW2  315   1.932   0.974   2.305 -1.8885 -0.2159 -0.0292
  106SOL     OW  316   1.772   2.954   1.030  0.5435 -0.4949  0.0001
  106SOL    HW1  317   1.764   3.053   1.059  0.3181 -0.6785  2.7789
  106SOL    HW2  318   1.867   2.933   0.989  1.3026 -1.8657 -3.8239
  107SOL     OW  319   0.715   1.173   0.796  0.3348  0.2538  0.2991
  107SOL    HW1  320   0.621   1.183   0.757 -0.3471  1.1208 -2.0433
  107SOL    HW2  321   0.740   1.260   0.848  1.7532  0.0402  0.0020
  108SOL     OW  322   2.947   0.573   2.573 -0.2297 -0.3211 -0.2461
  108SOL    HW1  323   3.017   0.504   2.580 -1.9589  0.6049  2.6234
  108SOL    HW2  324   2.858   0.531   2.585  0.0549  2.1713 -1.8457
  109SOL     OW  325   1.967   0.173   0.212  0.1166  0.3082 -0.2470
  109SOL    HW1  326   1.927   0.173   0.118 -2.4968  2.0752 -0.4470
  109SOL    HW2  327   1.904   0.220   0.279  0.7427  2.0260 -0.7913
  110SOL     OW  328   0.053   1.909   2.806  0.1336  0.1571  0.5103
  110SOL    HW1  329   0.019   1.958   2.887  1.3877  0.5350 -0.5504
  110SOL    HW2  330   0.134   1.845   2.826  3.1983 -0.8030 -0.9096
  111SOL     OW  331   1.979   0.036   2.262  0.7252  0.8320  0.8137
  111SOL    HW1  332   2.027   3.107   2.190 -3.0849  0.9205  2.6628
  111SOL    HW2  333   2.033   0.102   2.311 -3.2675  0.0144 -0.8618
  112SOL     OW  334   2.491   3.016   0.791 -0.0541 -0.0086  1.0270
  112SOL    HW1  335   2.439   3.088   0.839  1.2312 -0.5351  0.6952
  112SOL    HW2  336   2.495   3.033   0.690 -1.2957 -1.5483 -1.0978
  113SOL     OW  337   2.433   2.558   1.783  0.1466  0.2255  0.4026
  113SOL    HW1  338   2.441   2.545   1.682  0.7523 -0.4589  1.9864
  113SOL    HW2  339   2.391   2.478   1.828 -0.6533 -0.0858 -2.2428
  114SOL     OW  340   3.047   0.387   0.612  0.0555 -0.0647 -0.5200
  114SOL    HW1  341   0.001   0.427   0.657  0.0971 -0.4714 -0.6832
  114SOL    HW2  342   2.978   0.340   0.677  1.0060 -0.4152  0.5538
  115SOL     OW  343   2.677   1.866   0.058 -0.5247  0.5250 -0.2602
  115SOL    HW1  344   2.761   1.893   0.019 -0.7529 -4.3182  2.3001
  115SOL    HW2  345   2.654   1.769   0.042 -2.1465 -0.1142 -0.0392
  116SOL     OW  346   3.117   1.545   1.994 -0.1237 -0.3497  0.8051
  116SOL    HW1  347   3.094   1.622   2.058  2.8638  2.1198  0.5819
  116SOL    HW2  348   0.052   1.582   1.913  1.3032  2.0199  0.3503
  117SOL     OW  349   2.729   0.041   0.690  0.1140 -0.1943  0.3761
  117SOL    HW1  350   2.729   3.079   0.742  1.9390  0.1862 -0.6730
  117SOL    HW2  351   2.655   0.034   0.622  1.6203  1.5014  1.4585
  118SOL     OW  352   0.400   2.522   1.619 -0.2620 -0.0797 -0.0899
  118SOL    HW1  353   0.401   2.515   1.518 -0.7785 -0.3719 -1.1734
  118SOL    HW2  354   0.312   2.493   1.653  0.8514  2.4999 -2.3886
  119SOL     OW  355   1.628   2.256   0.963  0.0382  0.1827  0.1503
  119SOL    HW1  356   1.712   2.231   0.906  2.9627 -1.3725 -0.0361
  119SOL    HW2  357   1.655   2.295   1.053 -0.3585 -4.0502 -0.0678
  120SOL     OW  358   0.474   2.085   2.205  0.2511  0.2193 -0.1586
  120SOL    HW1  359   0.476   2.010   2.273 -2.2429 -1.1889 -1.3976
  120SOL    HW2  360   0.510   2.168   2.251  1.0721  2.6299  1.1174
  121SOL     OW  361   2.535   1.457   0.804 -0.1420  0.1774  0.3994
  121SOL    HW1  362   2.521   1.559   0.799 -0.8517  2.4846  0.3977
  121SOL    HW2  363   2.495   1.416   0.890  0.8815 -1.1858  3.3584
  122SOL     OW  364   2.141   1.538   2.441  0.4230 -0.1607 -0.4430
  122SOL    HW1  365   2.061   1.547   2.378 -0.0901  0.7834  2.9093
  122SOL    HW2  366   2.226   1.574   2.402  1.2044 -1.5378 -0.5290
  123SOL     OW  367   2.929   0.176   0.762  0.0994  0.4963 -0.1122
  123SOL    HW1  368   3.021   0.136   0.731  1.2042 -0.8531 -0.6376
  123SOL    HW2  369   2.851   0.124   0.727  1.1006  4.2031  2.1956
  124SOL     OW  370   1.474   1.148   2.787  0.1198  0.0492  0.1155
  124SOL    HW1  371   1.424   1.185   2.870 -0.1504  0.8570  0.0208
  124SOL    HW2  372   1.573   1.137   2.809  0.4708  2.1626  1.7568
  125SOL     OW  373   0.236   1.716   2.396  0.0229  0.2222  0.1730
  125SOL    HW1  374   0.283   1.728   2.484 -1.1731 -1.0949 -1.2443
  125SOL    HW2  375   0.295   1.674   2.327 -5.4992  0.8854 -1.0476
  126SOL     OW  376   2.852   2.096   0.233 -0.0444  0.2992  0.3338
  126SOL    HW1  377   2.880   2.178   0.282 -2.4509 -1.5943 -3.0862
  126SOL    HW2  378   2.867   2.118   0.136  0.7489  0.7524 -0.2607
  127SOL     OW  379   0.602   1.830   0.995 -0.0008 -0.0552  0.0925
  127SOL    HW1  380   0.574   1.738   1.023  0.7886  1.4828 -0.3427
  127SOL    HW2  381   0.522   1.891   0.986  0.4310  0.5390 -1.4624
  128SOL     OW  382   1.359   0.802   3.104 -0.6181  0.4377  0.3765
  128SOL    HW1  383   1.354   0.825   0.080 -1.4190 -0.5269  2.3443
  128SOL    HW2  384   1.456   0.809   3.073  0.4241 -1.4314  0.7724
  129SOL     OW  385   2.297   1.964   1.362  0.1904  0.4885  0.3980
  129SOL    HW1  386   2.195   1.975   1.345  0.2949  0.0313 -1.0985
  129SOL    HW2  387   2.315   1.896   1.441  0.2394  0.9951  0.2487
  130SOL     OW  388   1.892   1.422   0.455 -0.2450 -0.2267 -0.0514
  130SOL    HW1  389   1.984   1.382   0.431  2.0459  0.3640 -1.7884
  130SOL    HW2  390   1.866   1.402   0.553 -0.4244  1.6945 -0.8503
  131SOL     OW  391   2.910   1.125   2.616  0.0119 -0.0548  0.2458
  131SOL    HW1  392   2.910   1.028   2.640  1.9856  0.8383 -1.4843
  131SOL    HW2  393   2.911   1.192   2.696 -0.4472  0.0867  2.6679
  132SOL     OW  394   2.077   1.800   1.620  0.0784  0.1352  0.0088
  132SOL    HW1  395   2.182   1.818   1.609 -0.2043 -1.6754  1.2815
  132SOL    HW2  396   2.059   1.735   1.694  1.2669  0.1437 -1.7239
  133SOL     OW  397   0.274   1.314   0.073  0.2660  0.0685 -0.0883
  133SOL    HW1  398   0.230   1.383   0.015  1.4655 -1.6995 -0.9398
  133SOL    HW2  399   0.251   1.328   0.176 -2.2547  1.5039  2.7338
  134SOL     OW  400   2.612   1.378   0.072 -0.5222  0.3057  0.0833
  134SOL    HW1  401   2.678   1.316   0.029 -3.6097  1.6696  2.3616
  134SOL    HW2  402   2.623   1.390   0.171 -3.4550  0.1293 -0.0292
  135SOL     OW  403   2.573   1.116   0.355  0.7549  0.4835 -0.3478
  135SOL    HW1  404   2.476   1.136   0.332  1.0720  2.1781 -0.3069
  135SOL    HW2  405   2.606   1.161   0.440  0.3799 -0.1588 -0.4104
  136SOL     OW  406   2.002   1.575   1.485  0.6879  0.1307 -0.4294
  136SOL    HW1  407   2.015   1.667   1.525 -0.6740 -0.3767 -1.5784
  136SOL    HW2  408   1.904   1.552   1.490 -1.8708  4.2335  0.6613
  137SOL     OW  409   2.583   2.091   0.330 -0.4332  0.0893  0.2577
  137SOL    HW1  410   2.528   2.012   0.299 -1.7473 -1.8929 -0.2747
  137SOL    HW2  411   2.675   2.081   0.287 -1.8939 -2.3688  1.3621
  138SOL     OW  412   1.653   0.230   1.959  0.1107  0.1167 -0.4269
  138SOL    HW1  413   1.677   0.132   1.935 -1.4511 -0.6459  1.5320
  138SOL    HW2  414   1.731   0.289   1.978  1.7746  1.2758 -1.2953
  139SOL     OW  415   2.410   0.176   0.106 -0.4803 -0.2283 -0.1753
  139SOL    HW1  416   2.509   0.193   0.092  1.2191  1.0905 -0.1316
  139SOL    HW2  417   2.385   0.094   0.047 -1.4623  1.5133 -2.0550
  140SOL     OW  418   1.363   2.029   2.640  0.6420 -0.4162  0.5129
  140SOL    HW1  419   1.393   1.952   2.588 -2.0264  1.7582  3.4266
  140SOL    HW2  420   1.321   1.993   2.723  0.4203  0.7543  0.6229
  141SOL     OW  421   0.974   0.983   1.940  0.7284 -0.8989 -0.0458
  141SOL    HW1  422   0.917   0.991   2.026 -2.0016  2.6105  0.7330
  141SOL    HW2  423   1.031   0.898   1.946  1.4309 -0.5826  0.0857
  142SOL     OW  424   2.112   2.510   3.081 -0.3215  0.5669  0.4701
  142SOL    HW1  425   2.100   2.559   2.992 -1.2362 -0.8881  2.6010
  142SOL    HW2  426   2.194   2.443   3.078  3.8062  0.8063 -2.7717
  143SOL     OW  427   0.641   2.140   0.064  0.6945  0.3462  0.0041
  143SOL    HW1  428   0.732   2.181   0.074 -1.1789 -0.6157 -1.2742
  143SOL    HW2  429   0.595   2.133   0.152 -0.2819  0.3499  0.4214
  144SOL     OW  430   1.292   2.605   0.107 -0.1627 -0.0401  0.2787
  144SOL    HW1  431   1.229   2.658   0.048 -0.7178  1.6531  1.9145
  144SOL    HW2  432   1.239   2.529   0.152  0.3731 -1.6814  1.5124
  145SOL     OW  433   2.190   1.853   2.766  0.2862  0.4327 -0.7977
  145SOL    HW1  434   2.238   1.862   2.856 -0.9190 -2.0267  0.5116
  145SOL    HW2  435   2.091   1.871   2.783  1.9574 -1.4420  1.0852
  146SOL     OW  436   2.534   2.803   2.555 -0.0458 -0.1051  0.2691
  146SOL    HW1  437   2.439   2.830   2.527  1.6530 -1.1213 -1.6502
  146SOL    HW2  438   2.585   2.874   2.614  3.4604  0.5254 -1.8943
  147SOL     OW  439   2.762   1.637   1.018 -0.5642  0.1137  0.1049
  147SOL    HW1  440   2.784   1.705   1.089 -0.6305 -2.8291 -1.7033
  147SOL    HW2  441   2.664   1.645   0.993 -0.0959  0.8013  2.1755
  148SOL     OW  442   1.765   2.991   3.091 -0.0614  0.1401  0.0230
  148SOL    HW1  443   1.668   3.012   3.065 -0.5205 -0.1253  0.0396
  148SOL    HW2  444   1.775   2.964   0.061  1.2350  1.0188 -1.6083
  149SOL     OW  445   0.994   1.343   2.904 -0.3686 -0.4590 -0.0430
  149SOL    HW1  446   1.034   1.300   2.984 -2.9234  1.9412 -0.9609
  149SOL    HW2  447   0.895   1.320   2.893 -0.0628  0.7663  0.4849
  150SOL     OW  448   0.469   2.252   0.701  0.0511 -0.1587 -0.1753
  150SOL    HW1  449   0.522   2.289   0.778 -0.1759 -0.6810  0.4550
  150SOL    HW2  450   0.483   2.153   0.689  0.1926 -1.0287 -0.3265
  151SOL     OW  451   0.454   1.748   3.119  0.3536  0.2286 -0.4049
  151SOL    HW1  452   0.495   1.743   0.090 -0.3946 -1.2468  0.3212
  151SOL    HW2  453   0.501   1.682   3.057 -1.2278  1.5658  0.4168
  152SOL     OW  454   2.866   1.225   0.519 -0.1382  0.3126 -0.2460
  152SOL    HW1  455   2.797   1.303   0.519 -3.4012  1.6766 -1.1951
  152SOL    HW2  456   2.959   1.250   0.564  1.5588  2.7105  1.0535
  153SOL     OW  457   2.109   2.244   0.509 -0.4038 -0.3631  0.2082
  153SOL    HW1  458   2.078   2.179   0.435  1.6421 -1.5029 -1.4227
  153SOL    HW2  459   2.101   2.341   0.485  0.0522  0.3313 -1.0571
  154SOL     OW  460   0.566   2.842   0.504 -0.1806  0.0672  0.1968
  154SOL    HW1  461   0.561   2.923   0.567 -1.1287 -1.3128 -1.7968
  154SOL    HW2  462   0.562   2.753   0.559  0.4771  0.8663  1.3469
  155SOL     OW  463   0.441   2.063   0.923 -0.6788 -0.4760 -0.5492
  155SOL    HW1  464   0.467   2.116   1.007  0.3725 -1.2492  2.9169
  155SOL    HW2  465   0.344   2.059   0.922  2.4838  0.2106  1.1202
  156SOL     OW  466   2.358   2.361   0.000  0.3840  0.1636  0.4596
  156SOL    HW1  467   2.406   2.451   3.104 -3.3373 -0.1760  0.3995
  156SOL    HW2  468   2.347   2.330   0.101 -1.1336  0.2928  0.9105
  157SOL     OW  469   1.043   1.843   1.366  0.3676  0.5177  0.0829
  157SOL    HW1  470   0.997   1.935   1.355  0.3309 -0.9566 -2.5626
  157SOL    HW2  471   1.006   1.773   1.306 -0.4224  1.4300 -1.2397
  158SOL     OW  472   1.633   0.426   0.286  0.2248  0.2828  0.0784
  158SOL    HW1  473   1.665   0.483   0.210 -0.9717  0.3130  2.4906
  158SOL    HW2  474   1.598   0.335   0.259 -1.6924 -1.0669 -1.3953
  159SOL     OW  475   0.971   0.619   3.109 -0.2250 -0.5278 -0.0674
  159SOL    HW1  476   1.056   0.601   3.056 -0.4485  1.7731  1.0376
  159SOL    HW2  477   0.984   0.607   0.088 -0.3290  0.9378  2.1470
  160SOL     OW  478   1.153   1.507   0.229  0.1074 -0.7472 -0.0133
  160SOL    HW1  479   1.174   1.594   0.284 -1.8149  0.1243  3.1574
  160SOL    HW2  480   1.197   1.423   0.266  0.9110  1.8053 -1.6040
  161SOL     OW  481   0.096   2.149   2.518  0.6256  0.4154 -0.1565
  161SOL    HW1  482   3.119   2.165   2.538 -0.2812 -1.8615 -0.6117
  161SOL    HW2  483   0.106   2.093   2.431 -1.2436 -1.4379  1.5380
  162SOL     OW  484   0.598   2.334   0.922 -0.4216 -0.6161  0.1528
  162SOL    HW1  485   0.628   2.435   0.927  0.5179 -0.4968  0.1137
  162SOL    HW2  486   0.574   2.303   1.015 -0.6687  0.5880 -0.2419
  163SOL     OW  487   3.030   0.483   0.047 -0.0892 -0.0636 -0.5072
  163SOL    HW1  488   3.085   0.520   3.091  1.5911  1.6951 -1.6543
  163SOL    HW2  489   3.074   0.520   0.134 -0.7014  0.5333  0.0445
  164SOL     OW  490   0.482   0.176   2.867 -0.2124  0.1886 -0.6884
  164SOL    HW1  491   0.454   0.161   2.967  1.1955 -1.0038 -0.7455
  164SOL    HW2  492   0.529   0.090   2.840 -0.1011 -0.2065 -2.4467
  165SOL     OW  493   2.149   0.662   1.583 -0.1028 -0.0358 -0.1597
  165SOL    HW1  494   2.178   0.748   1.630 -1.6306  0.0276  0.1286
  165SOL    HW2  495   2.224   0.591   1.588 -0.5828  0.3586 -0.2338
  166SOL     OW  496   2.118   2.965   1.589  0.3366  0.6914  0.0170
  166SOL    HW1  497   2.144   2.970   1.682 -0.6019 -1.2280  1.5978
  166SOL    HW2  498   2.147   2.875   1.553 -2.0027  2.6655 -1.1676
  167SOL     OW  499   1.051   0.506   2.009  0.0139  0.5018  0.1316
  167SOL    HW1  500   1.023   0.500   2.106 -0.5846  2.8333  3.0198
  167SOL    HW2  501   1.144   0.460   1.999  0.4618 -0.3953 -1.7512
  168SOL     OW  502   2.517   0.304   2.078  0.4289  0.6989 -0.1587
  168SOL    HW1  503   2.535   0.310   1.978 -1.9628 -2.5859 -0.6814
  168SOL    HW2  504   2.486   0.207   2.096  1.5869 -0.1410  0.8322
  169SOL     OW  505   0.197   1.355   0.338  0.0638 -0.1571 -0.6004
  169SOL    HW1  506   0.174   1.446   0.381 -0.8403  1.4316  0.9270
  169SOL    HW2  507   0.111   1.303   0.331 -0.6226  1.8689 -1.1811
  170SOL     OW  508   0.142   1.611   1.786  0.1481 -0.3445  1.0546
  170SOL    HW1  509   0.183   1.699   1.775  0.1978 -5.3170 -1.3860
  170SOL    HW2  510   0.085   1.589   1.703 -0.5276 -0.6744 -1.7501
  171SOL     OW  511   0.908   2.505   2.087 -0.6453 -0.4054  0.0353
  171SOL    HW1  512   0.915   2.416   2.140  1.3243 -2.2855 -3.7643
  171SOL    HW2  513   0.980   2.505   2.014  0.2829 -0.1798  3.3068
  172SOL     OW  514   0.814   2.798   1.525  0.5955 -0.2910  0.4277
  172SOL    HW1  515   0.855   2.742   1.599 -0.1318  1.8617 -2.9508
  172SOL    HW2  516   0.754   2.743   1.461  0.4345 -2.2582  0.0757
  173SOL     OW  517   1.405   2.373   0.889  0.6798 -0.3160 -0.2770
  173SOL    HW1  518   1.411   2.435   0.968  0.0551 -0.7305 -0.3815
  173SOL    HW2  519   1.461   2.289   0.898 -1.5456  2.8231  0.6472
  174SOL     OW  520   1.357   0.160   0.661  0.6405  0.3905  0.5369
  174SOL    HW1  521   1.422   0.178   0.737 -0.8664  0.2528  0.7361
  174SOL    HW2  522   1.410   0.122   0.582 -1.4482  1.3310  1.3388
  175SOL     OW  523   1.241   1.249   0.343 -0.5590  0.1894 -0.0064
  175SOL    HW1  524   1.278   1.194   0.266  0.1606 -2.1459 -1.9024
  175SOL    HW2  525   1.201   1.180   0.408  0.7888  2.2097 -0.3692
  176SOL     OW  526   1.490   0.803   0.410  0.6788  0.3687  0.3969
  176SOL    HW1  527   1.581   0.816   0.365 -0.1399 -2.7203  1.6689
  176SOL    HW2  528   1.464   0.703   0.417  0.5089 -2.2780  1.5311
  177SOL     OW  529   1.350   0.752   1.347  0.2125 -0.2341  0.0332
  177SOL    HW1  530   1.321   0.720   1.443 -0.2653 -0.2423  2.4244
  177SOL    HW2  531   1.412   0.833   1.356 -0.1414 -0.0282  0.3354
  178SOL     OW  532   2.605   1.613   3.049  0.8212  0.1639  0.3856
  178SOL    HW1  533   2.619   1.524   3.096 -1.0662 -0.7033  1.4442
  178SOL    HW2  534   2.631   1.614   2.951 -0.9184 -0.2756  2.6622
  179SOL     OW  535   0.541   2.482   3.041  0.8051  0.1426 -0.5118
  179SOL    HW1  536   0.541   2.580   3.022 -1.5954 -2.2492 -0.4964
  179SOL    HW2  537   0.608   2.457   3.118 -0.9893 -4.3543 -0.9032
  180SOL     OW  538   2.048   1.611   1.814 -0.0139  0.1089 -0.0311
  180SOL    HW1  539   2.113   1.550   1.857 -2.4381  0.8606  0.2689
  180SOL    HW2  540   1.948   1.575   1.811 -2.6270 -1.5069  3.5117
  181SOL     OW  541   1.264   1.195   2.205  0.0910 -0.0046 -0.1226
  181SOL    HW1  542   1.217   1.195   2.118  1.6388  0.6783 -0.8080
  181SOL    HW2  543   1.241   1.109   2.260 -1.3626 -2.7974  1.4903
  182SOL     OW  544   3.036   1.169   2.384  0.2189 -0.0978 -0.6031
  182SOL    HW1  545   0.001   1.224   2.396  1.3615  2.6494 -1.0152
  182SOL    HW2  546   2.983   1.164   2.473  0.9197  0.4227 -0.6427
  183SOL     OW  547   1.626   0.577   2.265 -0.0534  0.3870  0.3379
  183SOL    HW1  548   1.666   0.496   2.315 -1.8113 -1.8160 -0.1444
  183SOL    HW2  549   1.646   0.666   2.306 -0.1716 -1.3040 -1.0303
  184SOL     OW  550   0.297   0.572   1.665 -0.1073 -0.0478 -0.4015
  184SOL    HW1  551   0.399   0.580   1.668 -3.0941  1.0062  0.7879
  184SOL    HW2  552   0.257   0.652   1.615 -0.6099 -0.4109  1.2674
  185SOL     OW  553   2.422   1.793   0.719  0.1376 -0.3578 -0.1781
  185SOL    HW1  554   2.381   1.880   0.686  0.4984 -0.4184  1.0668
  185SOL    HW2  555   2.483   1.759   0.646 -1.8143 -1.3601  0.6377
  186SOL     OW  556   0.602   1.760   2.722 -0.1564  0.3401  0.3278
  186SOL    HW1  557   0.635   1.840   2.774 -1.6823 -0.4881 -2.5360
  186SOL    HW2  558   0.506   1.776   2.689 -0.0555 -0.4166  0.6596
  187SOL     OW  559   2.305   1.914   2.998  0.2917 -0.3564 -0.3139
  187SOL    HW1  560   2.332   1.827   3.048 -1.9624 -2.5519 -0.3284
  187SOL    HW2  561   2.387   1.963   2.963 -0.7315  0.4036 -0.8784
  188SOL     OW  562   0.717   2.333   0.488 -0.6116 -0.0679  0.0303
  188SOL    HW1  563   0.644   2.405   0.492 -0.9599 -0.3289  0.6618
  188SOL    HW2  564   0.682   2.252   0.440 -0.2705  1.2158  2.3850
  189SOL     OW  565   2.235   0.532   2.816  0.9093  0.1229 -0.0223
  189SOL    HW1  566   2.143   0.534   2.856  1.5358 -0.1517  1.2406
  189SOL    HW2  567   2.252   0.608   2.749  2.4947  0.1420 -1.1990
  190SOL     OW  568   1.181   1.848   2.273 -0.1932 -0.0776  0.0439
  190SOL    HW1  569   1.227   1.941   2.297 -0.1820  1.2545  0.3497
  190SOL    HW2  570   1.169   1.792   2.360  2.2438 -1.6022  0.6291
  191SOL     OW  571   2.549   0.746   1.418  0.4374  0.0500  0.2308
  191SOL    HW1  572   2.605   0.803   1.484 -0.5859 -2.4136  0.3997
  191SOL    HW2  573   2.486   0.799   1.359  0.7665 -3.0400  1.0700
  192SOL     OW  574   2.059   0.373   2.189 -0.6322 -0.2105 -0.9454
  192SOL    HW1  575   2.137   0.434   2.159  1.6809 -0.6287 -1.1420
  192SOL    HW2  576   2.087   0.275   2.195 -3.2321 -1.8536  1.0735
  193SOL     OW  577   0.179   0.286   0.876 -0.7003 -0.0397 -0.1639
  193SOL    HW1  578   0.193   0.239   0.969 -0.0809 -0.2756 -1.6947
  193SOL    HW2  579   0.137   0.381   0.890 -1.3307  0.7080  1.5147
  194SOL     OW  580   1.394   2.617   1.531 -0.3328 -0.2532  0.0381
  194SOL    HW1  581   1.391   2.638   1.431 -0.5812 -0.2389 -2.8211
  194SOL    HW2  582   1.474   2.558   1.552 -0.1186 -1.7738  0.5815
  195SOL     OW  583   2.654   0.715   0.601 -0.3746  0.6047 -0.3877
  195SOL    HW1  584   2.694   0.624   0.625 -2.4441  1.7166  0.9397
  195SOL    HW2  585   2.651   0.776   0.682 -2.0216  0.1609  1.5546
  196SOL     OW  586   1.331   1.868   1.817  0.0584  0.0527  0.4484
  196SOL    HW1  587   1.268   1.867   1.733 -2.1268 -0.7766  1.0818
  196SOL    HW2  588   1.423   1.838   1.793  0.8649  2.9113  0.6848
  197SOL     OW  589   0.312   0.313   2.696 -0.2451 -0.4153 -0.3966
  197SOL    HW1  590   0.381   0.265   2.753 -0.1118  0.0133  0.5844
  197SOL    HW2  591   0.290   0.406   2.730  0.7675 -0.0943 -3.6507
  198SOL     OW  592   1.256   1.065   0.548  0.2015 -0.0835  0.4565
  198SOL    HW1  593   1.358   1.061   0.537  1.3740  0.1406  0.6082
  198SOL    HW2  594   1.212   0.978   0.530 -0.3334 -0.7049 -0.0292
  199SOL     OW  595   2.366   0.662   1.951 -0.1367  0.5562 -0.0095
  199SOL    HW1  596   2.344   0.609   2.037  1.9536  3.4897  0.9545
  199SOL    HW2  597   2.424   0.605   1.896 -1.5714 -1.0020  0.4700
  200SOL     OW  598   2.552   2.716   2.120  0.3743  0.4715  0.0675
  200SOL    HW1  599   2.623   2.769   2.158 -1.2244 -2.3193 -1.5761
  200SOL    HW2  600   2.561   2.718   2.018 -1.1510 -1.9450  0.4273
  201SOL     OW  601   2.296   0.162   1.745  0.3596  0.0948  0.7223
  201SOL    HW1  602   2.196   0.180   1.770 -0.4267 -0.0907  1.5619
  201SOL    HW2  603   2.318   0.072   1.782  0.6352 -1.3107  0.3375
  202SOL     OW  604   2.156   2.918   0.079 -0.0692 -0.2537  0.1695
  202SOL    HW1  605   2.120   2.977   0.152  0.3024  0.2411 -3.7007
  202SOL    HW2  606   2.099   2.919   3.120 -2.7873  1.3309 -0.0145
  203SOL     OW  607   1.032   2.160   2.359  0.4110  0.0190 -0.1097
  203SOL    HW1  608   0.945   2.113   2.394 -4.8752  1.0010 -1.0567
  203SOL    HW2  609   1.108   2.104   2.330  1.0865  0.3189  1.8890
  204SOL     OW  610   1.049   1.310   2.646 -0.2535 -0.0530 -0.4569
  204SOL    HW1  611   1.026   1.328   2.748 -0.4988 -1.6491 -1.6527
  204SOL    HW2  612   1.010   1.218   2.626  0.6007  2.6200  1.3046
  205SOL     OW  613   0.918   1.069   1.170  0.2544  0.1058 -0.1821
  205SOL    HW1  614   0.928   0.974   1.205 -3.1492  0.3980  0.0201
  205SOL    HW2  615   1.007   1.108   1.136 -1.1530  2.2997 -0.2852
  206SOL     OW  616   0.587   0.428   2.843  0.1022 -0.1976  0.5670
  206SOL    HW1  617   0.589   0.439   2.743  0.1670 -3.0087  4.4096
  206SOL    HW2  618   0.555   0.332   2.859 -1.2572 -2.9850  0.4411
  207SOL     OW  619   1.630   2.642   2.175 -0.5485 -0.3407  1.1823
  207SOL    HW1  620   1.703   2.716   2.173 -1.4094  1.0482  2.1455
  207SOL    HW2  621   1.558   2.666   2.248 -0.2838  2.2294  2.6136
  208SOL     OW  622   0.900   2.517   1.269  0.5674 -0.4701  0.4822
  208SOL    HW1  623   0.918   2.611   1.227 -1.3606 -1.2263 -3.1892
  208SOL    HW2  624   0.909   2.438   1.203  0.7815 -2.6441  0.0011
  209SOL     OW  625   1.570   1.464   2.650  0.2163 -0.4428 -0.0213
  209SOL    HW1  626   1.635   1.407   2.594  1.9857 -0.2310 -2.0218
  209SOL    HW2  627   1.492   1.401   2.668 -0.4229 -0.7630 -1.7402
  210SOL     OW  628   1.971   0.820   0.991 -0.0420 -0.2294  0.3299
  210SOL    HW1  629   1.990   0.860   1.081 -0.6029  0.9663  1.1043
  210SOL    HW2  630   2.054   0.831   0.932  2.0221  0.9038 -1.4390
  211SOL     OW  631   0.904   2.573   0.537 -0.2374  0.1567  0.3334
  211SOL    HW1  632   0.878   2.656   0.480 -0.0819  2.3080 -1.0409
  211SOL    HW2  633   0.847   2.492   0.519  0.7457 -0.0086  1.4149
  212SOL     OW  634   1.997   1.775   0.193  0.2982  0.1995 -0.1052
  212SOL    HW1  635   1.980   1.862   0.137 -1.6142  3.8329  1.4872
  212SOL    HW2  636   1.980   1.799   0.294 -1.3745 -1.3479  1.6995
  213SOL     OW  637   1.785   0.390   3.010  0.3156 -0.1547  0.0171
  213SOL    HW1  638   1.801   0.292   3.011  3.4968  0.2541 -0.2235
  213SOL    HW2  639   1.724   0.422   2.935  0.7615  0.4188 -0.4688
  214SOL     OW  640   0.951   1.646   1.832 -0.4256 -0.5787 -0.2339
  214SOL    HW1  641   0.931   1.714   1.758 -0.9360  0.3779 -2.2023
  214SOL    HW2  642   0.981   1.699   1.913 -1.0162 -1.8594  0.1744
  215SOL     OW  643   0.755   1.797   0.347 -0.1110  0.8544 -0.1798
  215SOL    HW1  644   0.791   1.874   0.290 -2.2323 -1.7876  1.7412
  215SOL    HW2  645   0.664   1.760   0.314  0.8863 -0.9906  0.7671
  216SOL     OW  646   0.288   2.977   2.537 -0.4106  0.1023 -0.3519
  216SOL    HW1  647   0.377   2.933   2.505 -0.6675 -0.9308  0.4857
  216SOL    HW2  648   0.226   2.906   2.574 -0.8408 -0.4833  0.7358
  217SOL     OW  649   2.606   0.752   0.940  0.2022  0.3954  0.2513
  217SOL    HW1  650   2.547   0.669   0.935 -0.9449 -0.9391 -1.0969
  217SOL    HW2  651   2.660   0.740   1.023  0.7780 -0.8702 -1.0179
  218SOL     OW  652   1.792   1.736   2.299  0.4808  0.3208  0.0100
  218SOL    HW1  653   1.742   1.766   2.214  2.0896 -0.4606 -0.3214
  218SOL    HW2  654   1.735   1.734   2.381  0.2802  2.5075  0.5172
  219SOL     OW  655   2.115   1.561   0.037 -0.1040  0.8589  0.3072
  219SOL    HW1  656   2.052   1.559   3.079  2.2188 -2.9418 -3.5193
  219SOL    HW2  657   2.087   1.629   0.106  0.0105 -2.3862 -0.2086
  220SOL     OW  658   1.512   1.075   0.517 -0.8393  0.6358 -0.6021
  220SOL    HW1  659   1.521   0.990   0.457  1.0581 -2.2930 -2.6880
  220SOL    HW2  660   1.565   1.153   0.480 -2.0787  0.4663 -0.5616
  221SOL     OW  661   0.514   0.674   2.915 -0.1306 -0.8296 -0.4337
  221SOL    HW1  662   0.518   0.666   3.016 -1.4253  0.0557  1.7208
  221SOL    HW2  663   0.529   0.582   2.872  0.9489 -2.2822 -0.8441
  222SOL     OW  664   1.500   1.417   0.025 -0.5835 -0.1431  0.0758
  222SOL    HW1  665   1.532   1.474   0.101  2.3268 -0.4230 -0.3725
  222SOL    HW2  666   1.401   1.433   0.011  0.7749 -1.4129 -2.3402
  223SOL     OW  667   1.166   0.260   0.188 -0.0467 -0.0290  0.4892
  223SOL    HW1  668   1.062   0.264   0.192  1.6106  0.6267 -0.3166
  223SOL    HW2  669   1.213   0.288   0.272 -3.5303 -2.2004 -1.4869
  224SOL     OW  670   2.003   0.054   1.423 -0.1818  0.3105 -0.0087
  224SOL    HW1  671   1.907   0.019   1.416 -1.4638 -0.5052 -3.2929
  224SOL    HW2  672   2.053   0.013   1.496  1.0213 -0.0530 -2.2724
  225SOL     OW  673   0.519   2.371   1.371 -0.7075 -0.2642 -0.4893
  225SOL    HW1  674   0.523   2.304   1.446  1.9941 -1.6578 -1.0578
  225SOL    HW2  675   0.583   2.451   1.385 -3.5030 -0.4426  2.4109
  226SOL     OW  676   1.219   1.474   3.069  0.2613 -0.2198 -0.0884
  226SOL    HW1  677   1.171   1.505   2.981 -1.4294  1.3272  0.3947
  226SOL    HW2  678   1.171   1.504   0.026 -1.9049  1.6993 -3.4812
  227SOL     OW  679   1.089   1.411   0.761  0.2306 -0.8233 -0.8594
  227SOL    HW1  680   1.088   1.514   0.764 -0.8659  2.6049 -2.0270
  227SOL    HW2  681   1.168   1.366   0.808 -0.7011 -0.5150  0.0628
  228SOL     OW  682   0.316   1.810   0.458 -0.0098 -0.1423 -0.8258
  228SOL    HW1  683   0.348   1.764   0.545 -0.0811  1.9621  0.2179
  228SOL    HW2  684   0.306   1.910   0.471 -0.0494 -0.9845  0.8780
  229SOL     OW  685   1.527   0.210   3.010  0.4000 -0.1827 -0.4906
  229SOL    HW1  686   1.528   0.226   2.908 -0.6241  0.7969  0.2219
  229SOL    HW2  687   1.449   0.260   3.058 -2.7120 -1.1153  0.1666
  230SOL     OW  688   1.464   0.864   2.730 -0.5029  0.1151 -0.2625
  230SOL    HW1  689   1.561   0.871   2.717 -2.1582  0.7912 -0.6963
  230SOL    HW2  690   1.425   0.956   2.747 -0.5817 -1.5072  0.2075
  231SOL     OW  691   1.160   1.688   2.511  0.1137  0.0704  0.1759
  231SOL    HW1  692   1.212   1.686   2.600 -0.1273 -0.3701  3.2622
  231SOL    HW2  693   1.093   1.608   2.497 -2.7197 -0.2132 -0.5906
  232SOL     OW  694   2.346   2.303   0.271  0.0042  0.4883  0.0964
  232SOL    HW1  695   2.261   2.344   0.314 -1.8078 -0.4446  2.0495
  232SOL    HW2  696   2.375   2.214   0.316  0.0586  1.5054  0.4378
  233SOL     OW  697   2.483   2.571   0.230 -0.1625  0.4745  0.5611
  233SOL    HW1  698   2.402   2.601   0.179  1.4122 -3.1086  1.1744
  233SOL    HW2  699   2.454   2.537   0.319 -0.9084 -1.2973  1.1483
  234SOL     OW  700   0.721   0.837   2.809  0.0372 -0.0394 -0.2952
  234SOL    HW1  701   0.650   0.790   2.868 -0.0738 -2.5217  0.5393
  234SOL    HW2  702   0.806   0.836   2.857 -1.6559  0.6690 -3.4739
  235SOL     OW  703   2.921   0.360   2.831  0.4425 -0.0516  0.0055
  235SOL    HW1  704   2.878   0.277   2.878 -1.5594  0.7571  0.2247
  235SOL    HW2  705   2.849   0.428   2.833  1.7315 -0.5547  1.6533
  236SOL     OW  706   2.000   2.504   1.560  0.0911 -0.0382  0.0276
  236SOL    HW1  707   2.038   2.423   1.515 -2.7969  1.2918  3.9357
  236SOL    HW2  708   1.930   2.478   1.630  2.4561  0.7014  3.8660
  237SOL     OW  709   0.724   1.627   2.101 -0.0479  0.6789  0.3952
  237SOL    HW1  710   0.803   1.686   2.127 -0.7197 -2.6535  1.3951
  237SOL    HW2  711   0.718   1.544   2.155  2.0925 -1.5043  0.1527
  238SOL     OW  712   1.610   0.452   2.781  0.1323 -0.0037 -0.2415
  238SOL    HW1  713   1.526   0.511   2.782  1.6512 -1.3184  0.2561
  238SOL    HW2  714   1.581   0.356   2.775 -0.9493  1.3554 -0.7347
  239SOL     OW  715   0.349   2.083   1.726 -0.0805 -0.1658  0.7115
  239SOL    HW1  716   0.282   2.157   1.708  2.4859 -1.7202  1.4294
  239SOL    HW2  717   0.403   2.104   1.808 -2.6083  1.3307 -2.4039
  240SOL     OW  718   2.525   2.248   0.548 -0.0074 -0.0314 -0.3334
  240SOL    HW1  719   2.591   2.239   0.626 -1.1513 -0.0121 -2.1439
  240SOL    HW2  720   2.546   2.191   0.462 -2.1179  2.3500 -1.1223
  241SOL     OW  721   2.671   0.942   0.768  0.2197 -0.0059 -0.1598
  241SOL    HW1  722   2.638   0.892   0.850 -1.1025  0.5435 -4.1301
  241SOL    HW2  723   2.608   1.012   0.729 -1.3526 -0.4211 -0.9188
  242SOL     OW  724   2.278   2.651   2.124  0.2288 -0.1494  0.0805
  242SOL    HW1  725   2.254   2.559   2.152 -2.2727  0.6193 -2.2116
  242SOL    HW2  726   2.378   2.668   2.120 -2.4579  0.4513 -1.0908
  243SOL     OW  727   0.819   2.190   1.549  0.2793 -0.0522  0.6344
  243SOL    HW1  728   0.872   2.275   1.553 -0.1136  1.0592  1.4410
  243SOL    HW2  729   0.846   2.134   1.470 -0.1006  0.0914  1.8682
  244SOL     OW  730   1.574   0.193   2.740  0.4896 -0.1967  0.1563
  244SOL    HW1  731   1.671   0.193   2.709 -0.5790 -0.0977 -1.4921
  244SOL    HW2  732   1.508   0.153   2.671  2.0930  2.2656 -0.4564
  245SOL     OW  733   1.363   0.253   1.233 -0.0654  0.5255 -0.4863
  245SOL    HW1  734   1.340   0.278   1.140 -0.1278 -0.1645  1.9562
  245SOL    HW2  735   1.338   0.158   1.239 -2.3271 -0.2765 -2.3368
  246SOL     OW  736   1.794   2.621   0.255 -0.4055 -0.0155  0.6795
  246SOL    HW1  737   1.833   2.553   0.189  0.6000  1.7252  1.7127
  246SOL    HW2  738   1.698   2.637   0.232  2.0149 -0.1851  0.6794
  247SOL     OW  739   1.239   0.568   2.534  0.0775 -0.1597  0.2434
  247SOL    HW1  740   1.149   0.581   2.489  0.2884  0.4316  1.6709
  247SOL    HW2  741   1.260   0.471   2.525 -0.2517 -0.1391 -2.8808
  248SOL     OW  742   0.621   1.850   1.698  0.0307  0.0888 -0.7690
  248SOL    HW1  743   0.694   1.922   1.712 -0.1148  1.6971 -4.0830
  248SOL    HW2  744   0.597   1.797   1.781  2.2428 -1.6942 -0.3954
  249SOL     OW  745   2.320   0.223   0.541 -0.3200  0.1584 -0.4460
  249SOL    HW1  746   2.285   0.280   0.462  0.1266  1.7677 -1.4526
  249SOL    HW2  747   2.238   0.183   0.585  1.6867  0.4911 -2.1910
  250SOL     OW  748   0.216   0.692   0.314 -0.4387  0.2323  0.1978
  250SOL    HW1  749   0.276   0.656   0.391  0.7884  2.1325  0.7206
  250SOL    HW2  750   0.142   0.620   0.290  0.0275 -1.4547 -0.4420
  251SOL     OW  751   1.224   0.603   2.976 -0.3140 -0.5013 -0.3374
  251SOL    HW1  752   1.283   0.666   3.039  2.8420  1.7145  0.7205
  251SOL    HW2  753   1.263   0.594   2.879  2.2458  0.5595 -1.3237
  252SOL     OW  754   1.647   1.791   2.067 -0.2171 -0.2210  0.3124
  252SOL    HW1  755   1.733   1.814   2.011 -0.0888  2.3210 -3.1289
  252SOL    HW2  756   1.588   1.721   2.017  0.0522  1.0271 -0.6246
  253SOL     OW  757   2.594   2.337   1.366  0.1226 -0.3311  0.0478
  253SOL    HW1  758   2.605   2.298   1.460 -0.5868 -1.2693  1.0027
  253SOL    HW2  759   2.673   2.402   1.338  0.9019  0.6917 -0.4174
  254SOL     OW  760   2.873   1.250   1.165 -0.6454 -0.1435  0.2267
  254SOL    HW1  761   2.903   1.337   1.216 -1.5732 -0.0368  1.0210
  254SOL    HW2  762   2.937   1.236   1.087  0.8916 -3.0861  2.0662
  255SOL     OW  763   1.301   0.396   1.005 -0.2454  0.0478 -0.4103
  255SOL    HW1  764   1.206   0.377   0.980 -0.4158  2.4851 -0.5112
  255SOL    HW2  765   1.307   0.500   1.014  1.8237  2.5668 -0.6875
  256SOL     OW  766   1.718   2.301   1.432 -0.3472  0.2002  0.1280
  256SOL    HW1  767   1.691   2.374   1.499  0.2632  0.9727 -1.3399
  256SOL    HW2  768   1.680   2.208   1.453 -1.4662  2.5563  0.6961
  257SOL     OW  769   0.600   3.069   2.713 -0.0770  0.6049 -0.0501
  257SOL    HW1  770   0.592   2.970   2.737  1.6894  0.7618 -1.8446
  257SOL    HW2  771   0.623   3.075   2.613  0.9741 -2.8606 -0.2023
  258SOL     OW  772   0.913   2.181   0.599  0.3821  0.1129 -0.2789
  258SOL    HW1  773   0.869   2.268   0.558 -1.6073  0.0764 -1.1989
  258SOL    HW2  774   0.860   2.097   0.569  0.0883 -0.4002 -2.0702
  259SOL     OW  775   1.243   0.022   2.750  0.6998 -0.1421  0.1995
  259SOL    HW1  776   1.172   3.116   2.691  1.1064  3.6551  0.8493
  259SOL    HW2  777   1.330   0.050   2.699  1.9546  2.5070 -1.9545
  260SOL     OW  778   2.150   0.663   1.278  0.5037 -0.1830  0.2633
  260SOL    HW1  779   2.048   0.679   1.269  1.7642  2.5274 -0.8296
  260SOL    HW2  780   2.187   0.662   1.375  2.1162 -0.5610  0.1373
  261SOL     OW  781   0.589   0.457   2.556 -0.1757  0.3045 -0.3350
  261SOL    HW1  782   0.500   0.430   2.517  2.3569 -1.3170 -0.7721
  261SOL    HW2  783   0.592   0.559   2.567  2.2464 -1.3964  0.8697
  262SOL     OW  784   0.226   2.289   1.928 -0.5896 -0.3077 -0.2266
  262SOL    HW1  785   0.195   2.318   2.021  1.3740  0.9875  0.9332
  262SOL    HW2  786   0.255   2.364   1.871 -0.9859 -1.1700  0.8354
  263SOL     OW  787   3.075   1.648   2.453 -0.2443  0.0934 -0.0699
  263SOL    HW1  788   0.049   1.614   2.465  2.3056 -3.5322 -2.0999
  263SOL    HW2  789   3.067   1.743   2.487  4.2488 -3.3683 -0.0069
  264SOL     OW  790   1.188   1.040   0.824 -0.2308 -0.3113  0.1884
  264SOL    HW1  791   1.093   1.019   0.850 -2.1885  0.2622  0.8407
  264SOL    HW2  792   1.184   1.079   0.729 -2.9868  1.9361 -2.0132
  265SOL     OW  793   1.353   2.685   0.822 -0.1846 -0.1884 -1.1690
  265SOL    HW1  794   1.387   2.590   0.848  1.8605 -1.8130  1.2133
  265SOL    HW2  795   1.417   2.753   0.862  1.3249 -0.8683  0.3012
  266SOL     OW  796   1.737   1.047   1.412  0.0685 -0.2137 -0.5115
  266SOL    HW1  797   1.801   0.974   1.441 -0.9948 -3.5123 -1.6247
  266SOL    HW2  798   1.770   1.092   1.329 -1.6862 -0.6987 -1.1877
  267SOL     OW  799   2.424   0.969   3.066  0.5856 -0.2031 -0.2040
  267SOL    HW1  800   2.371   0.979   2.979  0.0168  0.1865 -0.1290
  267SOL    HW2  801   2.407   0.880   3.108  0.4018  0.0593 -1.0732
  268SOL     OW  802   1.277   0.299   0.426  0.3907  0.3182  0.9378
  268SOL    HW1  803   1.286   0.225   0.490  0.2385 -1.0052 -0.7079
  268SOL    HW2  804   1.338   0.375   0.451 -0.8242 -1.2050  2.4945
  269SOL     OW  805   3.042   0.784   2.718 -0.1443 -0.3951 -0.3696
  269SOL    HW1  806   3.011   0.709   2.652 -3.2486 -1.6238 -0.4172
  269SOL    HW2  807   2.959   0.837   2.747  1.1391  1.9834  0.7502
  270SOL     OW  808   0.267   1.399   2.877  0.4069  0.1808  0.3593
  270SOL    HW1  809   0.341   1.356   2.923 -0.8324  0.6561 -1.5621
  270SOL    HW2  810   0.177   1.389   2.922 -0.2994 -0.8962 -1.4132
  271SOL     OW  811   2.824   0.730   3.059  0.4257 -0.0076  0.0171
  271SOL    HW1  812   2.866   0.663   2.996  1.6318 -1.6434  0.5398
  271SOL    HW2  813   2.769   0.687   0.009 -0.1860  1.7432  0.1806
  272SOL     OW  814   2.799   2.478   2.452  0.2608 -0.3805  0.1952
  272SOL    HW1  815   2.870   2.479   2.523 -1.1346  1.6911  0.3711
  272SOL    HW2  816   2.718   2.541   2.465 -1.2668  1.0263 -0.5419
  273SOL     OW  817   3.120   3.060   0.008 -0.0587 -0.8550  0.5608
  273SOL    HW1  818   3.094   0.019   0.061  0.3866  0.8455 -4.0220
  273SOL    HW2  819   3.111   2.979   0.070  0.9754  0.5748 -2.7837
  274SOL     OW  820   0.833   2.160   0.882  0.1831  0.8491  0.0934
  274SOL    HW1  821   0.732   2.166   0.886  0.2536 -0.4367  0.8208
  274SOL    HW2  822   0.865   2.166   0.784  0.6242  1.3829 -1.5599
  275SOL     OW  823   2.118   0.718   0.503 -0.1804 -0.8840 -0.4784
  275SOL    HW1  824   2.128   0.642   0.439 -1.6070  2.0035  0.0075
  275SOL    HW2  825   2.213   0.750   0.539 -1.1813  1.5528 -0.2020
  276SOL     OW  826   2.591   1.535   1.359  0.5709  0.0501 -0.1091
  276SOL    HW1  827   2.496   1.577   1.345 -1.5855  0.8294  0.4443
  276SOL    HW2  828   2.628   1.577   1.446 -1.1839  1.4759 -0.1479
  277SOL     OW  829   2.189   0.070   1.127 -0.4561 -0.5304  0.8068
  277SOL    HW1  830   2.197   3.099   1.166  1.8225  0.5556  0.4140
  277SOL    HW2  831   2.169   0.141   1.197 -0.0549 -2.1685 -0.0637
  278SOL     OW  832   1.312   2.794   2.243  0.3564 -0.4194  0.5777
  278SOL    HW1  833   1.315   2.694   2.231  0.2340  0.7439 -1.4853
  278SOL    HW2  834   1.279   2.818   2.337  3.0588 -0.4487  0.4915
  279SOL     OW  835   1.585   1.978   0.985  0.4738 -0.3675 -1.0059
  279SOL    HW1  836   1.584   1.959   1.088 -0.8495  1.3031 -0.5569
  279SOL    HW2  837   1.563   2.080   0.967  0.7929  1.4070  0.6000
  280SOL     OW  838   0.365   1.181   1.116  0.1698 -0.1835 -0.3015
  280SOL    HW1  839   0.312   1.135   1.192 -0.9797  1.2484 -0.2884
  280SOL    HW2  840   0.464   1.188   1.133 -1.2316  0.0672 -1.1106
  281SOL     OW  841   2.684   1.386   2.660  0.0135 -0.5592 -0.2703
  281SOL    HW1  842   2.609   1.437   2.706  0.8125 -1.4615 -1.2134
  281SOL    HW2  843   2.751   1.362   2.734 -1.3784  1.2456 -0.2908
  282SOL     OW  844   0.515   1.713   0.261  0.2687 -0.3010 -0.4960
  282SOL    HW1  845   0.459   1.752   0.343 -1.6311  0.7620  3.3196
  282SOL    HW2  846   0.517   1.610   0.265 -3.1742  1.5856  0.6300
  283SOL     OW  847   1.907   2.419   0.101  0.2839 -0.5197 -0.4389
  283SOL    HW1  848   1.991   2.457   0.061  1.8821 -0.9226 -0.3261
  283SOL    HW2  849   1.852   2.375   0.026 -0.9003 -0.5812  1.4850
  284SOL     OW  850   0.942   0.082   0.887  0.2659  0.3760 -0.7158
  284SOL    HW1  851   1.005   0.003   0.901 -1.0691 -2.5577  1.2412
  284SOL    HW2  852   0.917   0.092   0.790 -1.3688  0.7043 -0.6728
  285SOL     OW  853   2.271   1.024   2.825 -0.7837  0.0716 -0.1116
  285SOL    HW1  854   2.293   1.066   2.738  0.0070 -0.1677 -3.2238
  285SOL    HW2  855   2.181   1.060   2.861 -0.5544 -1.6976 -2.5378
  286SOL     OW  856   1.964   2.598   1.028 -0.3102 -0.1656  0.1679
  286SOL    HW1  857   2.055   2.553   1.040 -0.0578  4.7892  1.1196
  286SOL    HW2  858   1.985   2.694   1.009 -0.6757 -2.5183  0.8213
  287SOL     OW  859   1.506   0.230   0.927 -0.5805  0.6666  0.3886
  287SOL    HW1  860   1.551   0.224   1.017 -1.3654 -0.1722  1.2204
  287SOL    HW2  861   1.434   0.302   0.921 -1.4076 -2.1821 -2.8803
  288SOL     OW  862   0.698   2.430   2.829  0.0851  0.1186 -0.1138
  288SOL    HW1  863   0.748   2.517   2.799 -1.6971 -0.2434  0.3903
  288SOL    HW2  864   0.636   2.447   2.903  1.6597 -0.6398  0.0380
  289SOL     OW  865   0.211   1.624   0.921 -0.2670  0.2018 -0.6157
  289SOL    HW1  866   0.172   1.582   1.004  0.5296  0.2689  0.8115
  289SOL    HW2  867   0.159   1.705   0.891 -0.4868 -0.1138 -1.4607
  290SOL     OW  868   1.187   2.044   1.165 -0.1549  0.0682 -0.2437
  290SOL    HW1  869   1.254   2.113   1.192 -4.3449  0.7164 -1.0323
  290SOL    HW2  870   1.120   2.025   1.244  0.8348  0.6608  0.4394
  291SOL     OW  871   1.446   2.981   0.256 -0.5392  0.0689  0.2751
  291SOL    HW1  872   1.432   2.878   0.246  1.3535 -1.1022 -1.9970
  291SOL    HW2  873   1.378   3.035   0.205 -0.6216  1.3939  1.0949
  292SOL     OW  874   0.492   0.463   2.194  0.1196 -0.3500  0.2338
  292SOL    HW1  875   0.462   0.428   2.286 -1.5893 -2.3862  1.4883
  292SOL    HW2  876   0.484   0.565   2.184  1.3714 -0.9195 -0.4750
  293SOL     OW  877   2.630   1.922   1.104 -0.0939 -0.1818 -0.0304
  293SOL    HW1  878   2.586   1.853   1.045 -0.8127 -1.0536  0.4135
  293SOL    HW2  879   2.556   1.989   1.127 -0.5755 -1.1780  0.3273
  294SOL     OW  880   0.692   0.263   2.190  0.5103 -0.0873  0.5272
  294SOL    HW1  881   0.628   0.338   2.184  0.8822 -2.4853 -0.0700
  294SOL    HW2  882   0.644   0.175   2.211 -2.4846  1.3535 -0.0012
  295SOL     OW  883   1.681   1.603   1.317  0.4640 -0.0782  0.4359
  295SOL    HW1  884   1.686   1.550   1.405  1.5064  0.3362  0.2242
  295SOL    HW2  885   1.579   1.609   1.285 -1.5815  0.3139 -0.7638
  296SOL     OW  886   2.462   1.890   0.194  0.5502  0.5194  0.8382
  296SOL    HW1  887   2.401   1.819   0.156  0.5049  0.6531  1.7471
  296SOL    HW2  888   2.539   1.910   0.132 -0.5573 -1.5359 -0.1585
  297SOL     OW  889   2.526   0.034   0.509  0.2254  0.0845 -0.2122
  297SOL    HW1  890   2.486   3.069   0.468  0.9538  0.8983 -1.2615
  297SOL    HW2  891   2.450   0.104   0.510 -1.1391 -1.1996 -0.0507
  298SOL     OW  892   0.840   0.125   2.969  0.4696  0.5154 -0.6088
  298SOL    HW1  893   0.847   0.123   2.870 -0.8089  0.8879  0.5433
  298SOL    HW2  894   0.822   0.219   3.003 -2.7122  0.9300 -0.8675
  299SOL     OW  895   0.829   2.244   2.195 -0.2732  0.0671  0.4213
  299SOL    HW1  896   0.901   2.205   2.258 -0.7237 -1.4123  0.9128
  299SOL    HW2  897   0.741   2.258   2.238  1.0739  0.9036 -0.5398
  300SOL     OW  898   2.918   0.093   2.444 -0.1062 -0.1698  0.5437
  300SOL    HW1  899   2.968   0.184   2.437  1.0015  2.2342 -3.9102
  300SOL    HW2  900   2.952   0.039   2.526  0.1918 -0.5106  1.6158
  301SOL     OW  901   1.283   0.571   1.576 -0.4985 -0.6762 -0.4216
  301SOL    HW1  902   1.356   0.559   1.646 -0.0837  0.4965  1.5888
  301SOL    HW2  903   1.231   0.482   1.562 -0.6022  3.3699 -1.9816
  302SOL     OW  904   2.754   2.431   2.816 -0.8433 -0.4659 -0.2625
  302SOL    HW1  905   2.770   2.481   2.904 -4.7439 -1.8751 -2.4532
  302SOL    HW2  906   2.707   2.342   2.827  0.6783 -0.4442 -0.9658
  303SOL     OW  907   2.388   2.506   1.528 -0.2757  0.0815  0.2260
  303SOL    HW1  908   2.354   2.410   1.521 -2.9613  2.1156  0.8874
  303SOL    HW2  909   2.432   2.534   1.436  2.9430 -0.4043 -2.1800
  304SOL     OW  910   2.734   0.927   1.498  0.6728  0.0721  0.0961
  304SOL    HW1  911   2.776   0.937   1.403 -5.2802 -1.0723 -3.8519
  304SOL    HW2  912   2.797   0.954   1.573  0.6889  2.7192  1.3998
  305SOL     OW  913   0.814   1.791   0.841 -0.1804  0.0736 -0.0842
  305SOL    HW1  914   0.894   1.846   0.869  0.7886 -0.0389  1.5793
  305SOL    HW2  915   0.733   1.811   0.899  3.2124  1.4355 -1.8759
  306SOL     OW  916   0.363   1.593   2.177 -0.1847  0.3938  0.4097
  306SOL    HW1  917   0.293   1.529   2.146  2.0403  0.5828 -0.4070
  306SOL    HW2  918   0.364   1.677   2.128  0.7948 -2.0732  0.3637
  307SOL     OW  919   1.236   0.296   1.472  0.4108 -0.4478  0.5431
  307SOL    HW1  920   1.194   0.204   1.499 -0.3591 -1.8184  1.1095
  307SOL    HW2  921   1.289   0.297   1.384  1.8274 -1.2773 -2.3703
  308SOL     OW  922   0.012   0.982   1.209  0.9619  0.4020 -0.1255
  308SOL    HW1  923   3.041   0.994   1.243 -0.7228  1.6265 -2.6201
  308SOL    HW2  924   0.014   1.011   1.112 -1.9923  0.4514 -0.0948
  309SOL     OW  925   2.611   1.281   1.264 -0.0025 -0.0674  0.1738
  309SOL    HW1  926   2.599   1.374   1.304 -1.1059  2.1465 -1.2976
  309SOL    HW2  927   2.708   1.268   1.225  3.7937 -0.3522  0.3191
  310SOL     OW  928   0.128   1.969   2.305  0.4043 -0.0771 -0.7849
  310SOL    HW1  929   0.169   1.881   2.326 -1.9647  0.8819 -1.6675
  310SOL    HW2  930   0.075   1.969   2.220  3.1126 -0.2172 -1.3416
  311SOL     OW  931   2.747   2.882   2.255  0.0583  0.0357  0.1205
  311SOL    HW1  932   2.818   2.812   2.277 -0.6391 -1.4406 -1.0278
  311SOL    HW2  933   2.731   2.945   2.329 -0.2261  1.2452 -1.8204
  312SOL     OW  934   1.974   2.243   2.835 -0.2441  0.1556 -0.4273
  312SOL    HW1  935   1.903   2.292   2.891 -1.3534  2.7408 -2.1405
  312SOL    HW2  936   2.052   2.209   2.893  0.4426 -1.5574  1.1856
  313SOL     OW  937   3.057   3.016   0.803  0.0046  0.1085  0.0907
  313SOL    HW1  938   3.046   2.946   0.731  0.4689  1.2366 -1.4553
  313SOL    HW2  939   0.005   3.086   0.771  1.9886  0.8500  0.8884
  314SOL     OW  940   1.880   0.941   0.001  0.5176 -0.1368 -0.2885
  314SOL    HW1  941   1.905   0.986   0.090 -0.8176 -0.7958 -0.8963
  314SOL    HW2  942   1.880   1.008   3.046 -0.6893  0.2670 -1.5048
  315SOL     OW  943   1.429   0.073   2.555  0.2794 -0.6535  0.0631
  315SOL    HW1  944   1.452   0.093   2.459 -1.7249  2.3921  0.9242
  315SOL    HW2  945   1.405   3.094   2.557  0.5882  3.9537 -0.2848
  316SOL     OW  946   3.108   1.263   0.605 -0.2110 -0.2902 -0.2764
  316SOL    HW1  947   0.023   1.323   0.675 -2.0575 -2.4660 -0.4445
  316SOL    HW2  948   0.043   1.176   0.594 -0.2801 -1.6479 -0.3676
  317SOL     OW  949   0.524   2.749   2.968 -0.4791  0.2878 -0.9957
  317SOL    HW1  950   0.425   2.766   2.971 -1.4678 -1.8054  0.7138
  317SOL    HW2  951   0.574   2.830   3.003  2.7955 -0.1428  0.7002
  318SOL     OW  952   2.785   2.324   1.074 -0.5171 -0.1407 -0.2372
  318SOL    HW1  953   2.819   2.233   1.041 -0.9073 -0.9198 -3.3198
  318SOL    HW2  954   2.687   2.337   1.075 -0.6497  0.7254 -0.5462
  319SOL     OW  955   1.177   1.971   2.856 -0.1520  0.2066 -0.3202
  319SOL    HW1  956   1.093   1.932   2.818  0.0097 -2.0305 -1.2202
  319SOL    HW2  957   1.224   1.904   2.917 -1.6532 -1.5546  1.0152
  320SOL     OW  958   0.700   1.999   1.191 -0.1030  0.3283  1.0330
  320SOL    HW1  959   0.675   1.932   1.119 -0.4273 -0.6159 -0.6577
  320SOL    HW2  960   0.675   1.964   1.280 -1.8141 -2.9010 -2.9263
  321SOL     OW  961   1.164   2.828   2.458 -0.3944 -0.2791 -0.3182
  321SOL    HW1  962   1.086   2.894   2.458 -0.2820 -0.9298  0.6352
  321SOL    HW2  963   1.135   2.734   2.486 -0.9912 -1.0959  1.7844
  322SOL     OW  964   2.639   1.983   1.922 -0.0105 -0.2198  0.3613
  322SOL    HW1  965   2.559   2.024   1.967  1.6844  0.9930 -2.0892
  322SOL    HW2  966   2.683   2.056   1.870 -0.1482  0.3321  1.5469
  323SOL     OW  967   2.939   0.636   0.897  0.1782  0.7372  0.0105
  323SOL    HW1  968   2.942   0.725   0.842  1.7294  0.0072  0.9175
  323SOL    HW2  969   3.035   0.586   0.892  2.6031  1.2204 -0.8845
  324SOL     OW  970   2.700   3.070   2.466 -0.5747  0.3435  0.2787
  324SOL    HW1  971   2.707   3.025   2.558 -3.1753 -0.4956 -1.6875
  324SOL    HW2  972   2.778   0.017   2.459  1.1961 -0.3161  1.8094
  325SOL     OW  973   0.957   0.629   2.559  0.0527  0.1348 -0.1357
  325SOL    HW1  974   0.943   0.556   2.632 -1.1360  1.1834 -0.3094
  325SOL    HW2  975   0.867   0.662   2.522  0.5732  2.1233 -0.8675
  326SOL     OW  976   1.921   2.613   1.848 -0.5217  0.0421 -0.1066
  326SOL    HW1  977   1.841   2.664   1.811  0.5140  1.9550  1.5879
  326SOL    HW2  978   2.002   2.673   1.833 -3.0957 -0.1809  0.9818
  327SOL     OW  979   2.136   0.041   2.962  0.2742  0.1036  0.1064
  327SOL    HW1  980   2.235   0.051   2.977 -2.4848  0.1054 -1.6930
  327SOL    HW2  981   2.105   3.067   2.951  0.3786 -0.2781  1.1444
  328SOL     OW  982   0.196   1.401   2.104 -0.4183 -0.2443  0.1025
  328SOL    HW1  983   0.174   1.345   2.195 -0.3970 -1.4672  4.3979
  328SOL    HW2  984   0.117   1.438   2.046  0.9829  1.2315 -1.4603
  329SOL     OW  985   1.884   0.560   1.680  0.2041 -0.1937 -0.1373
  329SOL    HW1  986   1.873   0.587   1.779 -0.6682 -0.0159  0.6499
  329SOL    HW2  987   1.961   0.613   1.641  1.2665  1.3531  0.2815
  330SOL     OW  988   0.245   1.178   0.872 -0.5088  0.4450  0.4013
  330SOL    HW1  989   0.160   1.121   0.874 -0.4214  1.4764  1.3108
  330SOL    HW2  990   0.287   1.171   0.966 -0.0944  1.5313  0.0463
  331SOL     OW  991   0.061   1.891   2.058  0.3999  0.7069  0.0331
  331SOL    HW1  992   3.112   1.821   2.091 -3.6028 -2.5316  1.7764
  331SOL    HW2  993   0.153   1.851   2.049  0.4637  0.0234  1.3338
  332SOL     OW  994   0.002   2.644   1.614 -0.4653  0.1144  0.3516
  332SOL    HW1  995   0.044   2.601   1.529  3.7423 -0.4691  1.7012
  332SOL    HW2  996   3.049   2.592   1.651 -2.2266  1.1412  1.8884
  333SOL     OW  997   2.397   0.081   0.972 -0.2802 -0.1713  0.3943
  333SOL    HW1  998   2.317   0.077   1.038 -1.3239 -0.3224  3.1325
  333SOL    HW2  999   2.478   0.070   1.031 -0.9767 -0.1161  0.7011
  334SOL     OW 1000   0.385   1.699   0.710  0.1059 -0.1294 -0.4404
  334SOL    HW1 1001   0.433   1.615   0.671 -1.2472  0.4038  4.6648
  334SOL    HW2 1002   0.331   1.671   0.792  2.2918 -0.3626  0.7589
  335SOL     OW 1003   0.082   2.632   2.921  0.4991  0.1426  0.0742
  335SOL    HW1 1004   0.114   2.601   2.827  1.1734 -0.5852 -0.4797
  335SOL    HW2 1005   0.059   2.554   2.984 -2.4275 -0.2355 -0.0100
  336SOL     OW 1006   3.017   2.814   2.345  0.7008  0.0716  0.7137
  336SOL    HW1 1007   3.034   2.893   2.284 -0.8148 -0.3042 -0.5508
  336SOL    HW2 1008   3.073   2.734   2.305 -0.4608 -1.7246  0.1580
  337SOL     OW 1009   1.929   2.395   2.020  0.0651 -0.0855  0.6315
  337SOL    HW1 1010   1.929   2.476   1.950  0.3026 -0.2950 -2.3445
  337SOL    HW2 1011   1.841   2.341   2.007 -2.0955 -0.2233  0.4486
  338SOL     OW 1012   0.647   2.938   0.002  0.3319 -0.5673  0.0179
  338SOL    HW1 1013   0.590   2.967   0.084 -1.4649  1.9533  1.9035
  338SOL    HW2 1014   0.736   2.989   3.121 -0.1785  0.8842  1.2647
  339SOL     OW 1015   0.441   1.143   2.294 -0.3360 -0.2152 -0.1952
  339SOL    HW1 1016   0.468   1.232   2.327 -0.2166 -0.1526  1.4009
  339SOL    HW2 1017   0.468   1.128   2.191  1.2324 -2.7101 -3.1828
  340SOL     OW 1018   1.758   2.696   0.663  0.0193 -0.0917 -0.1843
  340SOL    HW1 1019   1.726   2.644   0.743  0.9786  1.0360 -0.8714
  340SOL    HW2 1020   1.746   2.797   0.675 -0.1078 -0.8270 -2.2839
  341SOL     OW 1021   2.277   1.150   0.895 -0.3003 -0.2656 -0.7379
  341SOL    HW1 1022   2.232   1.058   0.881 -1.8405 -1.7378 -1.2835
  341SOL    HW2 1023   2.272   1.179   0.995  0.8462  1.8588  3.6811
  342SOL     OW 1024   2.384   3.041   3.066 -0.4147 -0.1495 -0.6794
  342SOL    HW1 1025   2.313   2.980   3.103 -0.2684  0.9149  0.9687
  342SOL    HW2 1026   2.477   2.994   3.085  3.0003  1.0711  1.6860
  343SOL     OW 1027   1.340   2.107   1.560  0.1118  0.5115 -0.2419
  343SOL    HW1 1028   1.360   2.205   1.556  0.5840 -2.2271  0.3332
  343SOL    HW2 1029   1.418   2.065   1.608 -0.8013 -0.5464  1.3959
  344SOL     OW 1030   2.774   2.925   1.183  0.3817  0.1257 -0.0166
  344SOL    HW1 1031   2.767   2.845   1.247 -1.4456 -0.4650  1.3308
  344SOL    HW2 1032   2.865   2.924   1.135  1.9801 -2.7077 -4.0004
  345SOL     OW 1033   2.531   2.048   2.952 -0.3883  0.1220 -0.2061
  345SOL    HW1 1034   2.587   1.961   2.970 -1.7903 -1.2283  1.1687
  345SOL    HW2 1035   2.553   2.121   3.019 -0.4455  2.3320  1.7098
  346SOL     OW 1036   2.348   2.057   0.646 -0.4479  0.5748 -0.4761
  346SOL    HW1 1037   2.405   2.131   0.603 -3.7664 -1.2072 -1.2343
  346SOL    HW2 1038   2.345   2.078   0.748  0.4420  1.0449 -1.3123
  347SOL     OW 1039   1.568   2.103   1.753 -0.3444 -0.0057  0.1287
  347SOL    HW1 1040   1.533   2.202   1.757 -1.3190  2.7019  0.9202
  347SOL    HW2 1041   1.514   2.050   1.823 -1.8454 -1.4719  0.2270
  348SOL     OW 1042   0.468   1.906   2.412  0.3857  0.7108 -0.0493
  348SOL    HW1 1043   0.536   1.842   2.455  1.9590 -1.1491  1.0869
  348SOL    HW2 1044   0.403   1.944   2.486 -3.8268 -3.3748  2.5125
  349SOL     OW 1045   2.125   1.650   0.708  0.8358 -0.1044 -0.2194
  349SOL    HW1 1046   2.141   1.553   0.707  0.5301  0.8096  0.0606
  349SOL    HW2 1047   2.202   1.699   0.745 -1.1471 -0.0027  2.8650
  350SOL     OW 1048   2.872   2.411   0.621 -0.0909  0.2425 -0.2284
  350SOL    HW1 1049   2.863   2.506   0.621  1.1953 -3.0825 -2.0424
  350SOL    HW2 1050   2.797   2.363   0.666 -1.3903  0.9745  2.7570
  351SOL     OW 1051   0.582   2.972   1.706 -0.4124 -0.2228 -0.4083
  351SOL    HW1 1052   0.591   2.875   1.667 -0.1395 -1.5208  1.2561
  351SOL    HW2 1053   0.617   3.045   1.644  0.9051  1.7811  0.0580
  352SOL     OW 1054   0.726   1.501   1.102  0.0075  0.0418  0.3370
  352SOL    HW1 1055   0.634   1.540   1.085 -2.4425 -0.6178 -3.0643
  352SOL    HW2 1056   0.759   1.465   1.013 -1.0900  1.7669  1.7150
  353SOL     OW 1057   1.323   1.298   2.599 -0.4976  0.3721 -0.2162
  353SOL    HW1 1058   1.233   1.320   2.641  2.6615 -0.2388 -0.8105
  353SOL    HW2 1059   1.354   1.213   2.652 -1.0277 -0.9775  0.3829
  354SOL     OW 1060   1.475   0.026   1.519  0.2097  0.1836 -0.1933
  354SOL    HW1 1061   1.386   3.108   1.497  1.7002 -0.5456 -1.2096
  354SOL    HW2 1062   1.475   0.128   1.525 -1.4833 -0.9148 -1.2449
  355SOL     OW 1063   2.157   1.370   0.713 -0.7815 -0.0539  0.0078
  355SOL    HW1 1064   2.181   1.290   0.767 -0.6207  1.0349 -3.3701
  355SOL    HW2 1065   2.161   1.351   0.610  2.1926 -1.3602 -2.5764
  356SOL     OW 1066   2.765   1.850   2.158  0.1451 -0.1431  0.4714
  356SOL    HW1 1067   2.721   1.855   2.064  0.0911  0.7054 -0.7219
  356SOL    HW2 1068   2.784   1.946   2.197 -0.3193  1.9516  0.5624
  357SOL     OW 1069   0.533   3.020   1.318 -0.4542 -0.4847 -0.2790
  357SOL    HW1 1070   0.524   2.942   1.386 -0.9773  1.3694  0.7724
  357SOL    HW2 1071   0.615   3.013   1.255 -0.6067 -1.3651  0.9023
  358SOL     OW 1072   2.562   1.368   1.745 -0.0451 -0.0543 -0.1222
  358SOL    HW1 1073   2.579   1.449   1.810  1.4396  2.0582 -0.2494
  358SOL    HW2 1074   2.479   1.314   1.778 -0.8022 -1.7869 -1.7100
  359SOL     OW 1075   2.291   2.896   2.481 -0.4390  0.1410  0.1654
  359SOL    HW1 1076   2.251   2.801   2.476 -0.5463  2.7704 -1.0109
  359SOL    HW2 1077   2.225   2.960   2.517 -2.0740 -3.0779 -0.0905
  360SOL     OW 1078   0.583   0.439   0.966 -0.2729  0.0220  0.0217
  360SOL    HW1 1079   0.492   0.454   0.924 -0.8821  0.8193 -1.7675
  360SOL    HW2 1080   0.584   0.342   0.990 -0.3446 -0.4508  0.0061
  361SOL     OW 1081   1.847   0.100   1.038 -0.2194 -0.5354  0.2370
  361SOL    HW1 1082   1.932   0.103   1.095  1.5577 -0.8738  1.5143
  361SOL    HW2 1083   1.780   0.171   1.069  0.1760 -1.2060  3.4585
  362SOL     OW 1084   1.406   0.914   0.756  0.2147  0.1216 -0.1751
  362SOL    HW1 1085   1.474   0.975   0.709  1.0046  1.8462  2.5881
  362SOL    HW2 1086   1.318   0.960   0.779 -0.5186 -1.7709  1.4174
  363SOL     OW 1087   2.391   1.348   2.298  0.0557 -0.4694  0.1691
  363SOL    HW1 1088   2.436   1.277   2.357 -1.6388 -0.6330  1.5409
  363SOL    HW2 1089   2.439   1.441   2.308  1.9213  4.2676 -0.6073
  364SOL     OW 1090   0.159   3.044   1.105  0.7335 -0.2581 -0.2866
  364SOL    HW1 1091   0.162   3.033   1.205 -0.0495  0.2339 -2.5784
  364SOL    HW2 1092   0.064   3.036   1.073 -1.4202 -1.8968 -0.9999
  365SOL     OW 1093   0.193   3.092   2.942  0.0725  0.1976 -0.2190
  365SOL    HW1 1094   0.171   0.007   2.848 -0.7387  0.7969 -0.9460
  365SOL    HW2 1095   0.109   3.083   2.998 -0.7747  1.5444 -1.6046
  366SOL     OW 1096   2.208   2.162   2.983  0.2376  0.4070 -0.0676
  366SOL    HW1 1097   2.207   2.059   2.995  2.0025 -2.7074  1.3325
  366SOL    HW2 1098   2.277   2.207   3.051  2.2725  0.3363  4.6370
  367SOL     OW 1099   2.511   2.545   3.015  0.4593 -0.4239  0.6230
  367SOL    HW1 1100   2.495   2.536   2.913  2.8396 -2.5298  0.4239
  367SOL    HW2 1101   2.611   2.540   3.033 -0.7950 -0.6932  0.6898
  368SOL     OW 1102   0.022   1.551   1.121  0.1408  0.5768 -0.2147
  368SOL    HW1 1103   3.059   1.544   1.173 -0.0116  2.2526  0.9254
  368SOL    HW2 1104   0.095   1.502   1.176 -0.3870  1.0925  3.0777
  369SOL     OW 1105   0.611   2.778   2.711 -0.0405  0.1622 -0.2750
  369SOL    HW1 1106   0.581   2.766   2.807  0.9950 -0.6312  0.0739
  369SOL    HW2 1107   0.714   2.759   2.711 -0.7893 -1.0716 -1.2556
  370SOL     OW 1108   3.039   0.844   0.530  0.6184  0.3381 -0.0988
  370SOL    HW1 1109   3.037   0.917   0.466  1.5357 -2.5529  2.0609
  370SOL    HW2 1110   2.997   0.758   0.493  0.4168 -1.2502  0.9529
  371SOL     OW 1111   1.889   2.217   0.763  0.3498 -0.1136 -0.1787
  371SOL    HW1 1112   1.982   2.248   0.791  2.3411 -0.5932 -0.0276
  371SOL    HW2 1113   1.867   2.124   0.803 -0.8392 -0.5100  0.4820
  372SOL     OW 1114   3.048   0.972   2.970  0.0074 -0.4049 -0.0783
  372SOL    HW1 1115   2.967   0.949   2.916  3.0366 -0.1505 -0.4985
  372SOL    HW2 1116   3.087   0.896   3.023 -1.1429  0.9571 -0.0213
  373SOL     OW 1117   3.104   1.937   1.086 -0.3551  0.0647 -0.5286
  373SOL    HW1 1118   3.094   2.021   1.141  0.2123  0.3959  0.0695
  373SOL    HW2 1119   3.049   1.862   1.129  3.7780  3.1883  1.5015
  374SOL     OW 1120   0.332   2.715   0.116  0.1707  0.1028  0.4854
  374SOL    HW1 1121   0.294   2.738   0.021  2.5450  0.0538  0.3532
  374SOL    HW2 1122   0.394   2.788   0.152  1.7123 -0.5364  0.0533
  375SOL     OW 1123   0.214   0.229   0.223 -0.2506 -0.3722  0.6643
  375SOL    HW1 1124   0.296   0.288   0.200  2.4663  0.2240  1.0653
  375SOL    HW2 1125   0.128   0.259   0.179  0.2444  3.1147 -0.0593
  376SOL     OW 1126   0.181   2.262   1.636 -0.2506  0.5892 -0.5115
  376SOL    HW1 1127   0.079   2.245   1.652 -1.6672  0.6663 -0.9915
  376SOL    HW2 1128   0.199   2.255   1.536 -1.9017  3.9713  0.4285
  377SOL     OW 1129   1.730   2.510   2.779  0.0039 -0.0780 -0.3308
  377SOL    HW1 1130   1.801   2.561   2.730 -0.4245  1.8140 -1.7752
  377SOL    HW2 1131   1.706   2.434   2.718  0.7994 -1.1285  0.8746
  378SOL     OW 1132   0.535   0.120   0.275  0.5533  0.4939 -0.1558
  378SOL    HW1 1133   0.522   0.215   0.301  0.7165 -1.9827  1.3054
  378SOL    HW2 1134   0.623   0.082   0.316  0.1654  0.9623  2.7729
  379SOL     OW 1135   0.499   1.480   0.593  0.1863 -0.1349 -0.5989
  379SOL    HW1 1136   0.485   1.477   0.496 -1.0240 -1.8140  2.3974
  379SOL    HW2 1137   0.594   1.514   0.617 -0.5906  1.2149 -1.6260
  380SOL     OW 1138   0.188   1.871   1.746 -0.0079 -0.4003  0.4078
  380SOL    HW1 1139   0.100   1.918   1.715  0.0300  0.3608 -1.6133
  380SOL    HW2 1140   0.268   1.930   1.715 -0.2549  1.1174  0.8755
  381SOL     OW 1141   0.600   1.140   2.067  0.1325 -1.0708 -0.0818
  381SOL    HW1 1142   0.554   1.165   1.977  0.9946  0.8691 -1.8834
  381SOL    HW2 1143   0.621   1.228   2.118 -0.7757  1.8676  2.2803
  382SOL     OW 1144   2.261   1.982   0.393  0.5625 -0.2886 -0.4184
  382SOL    HW1 1145   2.283   1.999   0.489 -1.7524  2.3782 -0.6283
  382SOL    HW2 1146   2.345   1.959   0.347 -2.7569 -0.6530  1.9457
  383SOL     OW 1147   2.765   1.906   2.706  0.1461 -0.1415  0.1579
  383SOL    HW1 1148   2.775   1.914   2.809 -0.3495  1.2695 -1.7668
  383SOL    HW2 1149   2.861   1.898   2.676  1.5369  0.0512  0.0326
  384SOL     OW 1150   0.337   2.043   2.610  0.1201  0.1489 -0.1246
  384SOL    HW1 1151   0.245   2.096   2.595  2.9406  0.6098  1.3922
  384SOL    HW2 1152   0.406   2.105   2.645 -1.8803 -0.3282 -1.2570
  385SOL     OW 1153   2.886   1.823   0.776 -0.6295 -0.2325 -0.1254
  385SOL    HW1 1154   2.827   1.769   0.840  2.4820 -0.0930  1.3756
  385SOL    HW2 1155   2.827   1.877   0.719  1.7306 -2.2248  0.7799
  386SOL     OW 1156   1.904   1.221   1.266 -0.1500 -0.1538  0.4871
  386SOL    HW1 1157   1.855   1.292   1.207 -1.0614  1.2897  1.8620
  386SOL    HW2 1158   2.007   1.241   1.263  1.9774  1.9524 -1.3923
  387SOL     OW 1159   3.112   1.046   2.034  0.1641  0.5246 -0.3069
  387SOL    HW1 1160   3.018   1.010   1.999 -2.0297 -3.8240 -2.0137
  387SOL    HW2 1161   3.093   1.137   2.076 -0.8435  3.3569 -0.3575
  388SOL     OW 1162   2.422   1.139   2.104  0.1579 -0.0783  0.2773
  388SOL    HW1 1163   2.428   1.221   2.165  1.5179  1.6532 -2.7308
  388SOL    HW2 1164   2.442   1.050   2.150 -0.3562  0.3597  0.8206
  389SOL     OW 1165   2.139   1.355   2.173 -0.0266  0.2693 -0.7146
  389SOL    HW1 1166   2.211   1.376   2.244 -2.3625  0.2670  0.8385
  389SOL    HW2 1167   2.050   1.396   2.199 -0.8676 -3.3080  0.9038
  390SOL     OW 1168   1.951   2.658   0.482  0.3347 -0.0158 -0.2140
  390SOL    HW1 1169   1.888   2.676   0.562 -0.7737 -1.0863 -0.2475
  390SOL    HW2 1170   1.896   2.653   0.395  0.1362 -0.1154 -2.1694
  391SOL     OW 1171   2.320   2.061   0.933  0.2180  0.0476 -0.7536
  391SOL    HW1 1172   2.258   1.985   0.964 -1.8046 -1.8384 -0.3068
  391SOL    HW2 1173   2.374   2.095   1.013  0.9491  0.9804  1.9115
  392SOL     OW 1174   0.058   2.543   1.369  0.7889  0.2935  0.0697
  392SOL    HW1 1175   3.092   2.494   1.343 -1.6827 -0.8776 -2.0317
  392SOL    HW2 1176   0.140   2.508   1.317  3.5103 -1.9186 -0.7737
  393SOL     OW 1177   1.930   1.990   2.873  0.2433  0.1146  0.5308
  393SOL    HW1 1178   1.942   2.087   2.835  1.3595 -0.2016 -4.0502
  393SOL    HW2 1179   1.836   1.950   2.859 -0.3190  1.1304  1.2251
  394SOL     OW 1180   0.286   0.599   2.791 -0.4894 -0.0236 -0.7745
  394SOL    HW1 1181   0.359   0.651   2.842  0.6184  2.8444 -0.7996
  394SOL    HW2 1182   0.233   0.669   2.747 -0.2984 -3.6871 -0.6536
  395SOL     OW 1183   0.675   0.682   0.853  0.7031 -0.4739 -0.5640
  395SOL    HW1 1184   0.666   0.591   0.904  2.2504 -2.0197  4.5286
  395SOL    HW2 1185   0.636   0.760   0.912 -1.7220  2.1161  1.6696
  396SOL     OW 1186   1.040   1.207   0.063 -0.5584 -0.3364  0.9092
  396SOL    HW1 1187   0.987   1.293   0.090 -2.2699 -0.8972 -0.4872
  396SOL    HW2 1188   1.131   1.209   0.112  0.7579 -1.6159  0.5943
  397SOL     OW 1189   0.491   0.889   2.385 -0.3591  0.1494  0.6693
  397SOL    HW1 1190   0.477   0.990   2.366 -1.7111  2.4495 -1.2565
  397SOL    HW2 1191   0.494   0.843   2.294  0.4219 -1.8109  0.4415
  398SOL     OW 1192   0.788   0.033   0.382 -0.0850  0.1198  0.2362
  398SOL    HW1 1193   0.813   0.060   0.476 -0.3622  0.1083 -0.7956
  398SOL    HW2 1194   0.877   3.114   0.343 -1.9501 -4.3547 -1.3331
  399SOL     OW 1195   2.025   0.182   1.802 -0.3097  0.3064  0.2546
  399SOL    HW1 1196   1.985   0.253   1.864 -3.2713  1.6799  0.7774
  399SOL    HW2 1197   1.963   0.109   1.781  1.9005 -2.1999 -1.0932
  400SOL     OW 1198   0.548   1.694   1.904  0.4041  0.0029  0.6024
  400SOL    HW1 1199   0.603   1.681   1.990 -0.5094  0.8389 -0.0034
  400SOL    HW2 1200   0.492   1.611   1.892 -0.9069  0.2857  2.2489
  401SOL     OW 1201   0.647   1.066   2.696  0.5108 -0.1769  0.1454
  401SOL    HW1 1202   0.661   0.968   2.720 -2.6086 -1.5740  1.1982
  401SOL    HW2 1203   0.550   1.089   2.690 -1.4975  1.9400 -2.3425
  402SOL     OW 1204   2.948   2.213   1.447 -0.0121  0.1508  0.0459
  402SOL    HW1 1205   2.892   2.133   1.477  0.2298  0.9398  0.4821
  402SOL    HW2 1206   3.021   2.190   1.381  0.2995  0.6137  0.5765
  403SOL     OW 1207   0.188   0.934   1.928  0.9807  0.1242  0.0911
  403SOL    HW1 1208   0.114   0.985   1.973 -1.4907  0.7621  1.1682
  403SOL    HW2 1209   0.247   0.990   1.872 -2.1300 -2.3531  2.7369
  404SOL     OW 1210   0.103   2.925   1.686  0.2469  0.7188  0.1331
  404SOL    HW1 1211   0.191   2.974   1.706  0.1582 -1.1082 -0.8538
  404SOL    HW2 1212   0.116   2.828   1.661  0.9340  4.6370  2.1530
  405SOL     OW 1213   0.591   0.473   1.932  0.6057 -0.4371 -0.0957
  405SOL    HW1 1214   0.681   0.446   1.959 -1.6704 -0.3516 -0.8143
  405SOL    HW2 1215   0.522   0.471   2.007  1.3069 -0.5652 -1.2270
  406SOL     OW 1216   1.706   2.291   2.487  0.0482  0.7073 -0.0724
  406SOL    HW1 1217   1.722   2.346   2.406 -0.0989 -0.2096  1.6847
  406SOL    HW2 1218   1.800   2.261   2.517  2.2417  2.8121 -1.8675
  407SOL     OW 1219   1.434   1.343   2.365 -0.1758 -0.1936 -0.0323
  407SOL    HW1 1220   1.382   1.285   2.297 -1.7055 -0.2028 -1.2981
  407SOL    HW2 1221   1.399   1.334   2.459  2.2354  1.6085  0.8529
  408SOL     OW 1222   0.818   0.297   2.451 -0.5209 -0.4047  0.0452
  408SOL    HW1 1223   0.792   0.217   2.401  1.1082 -0.4728  3.3637
  408SOL    HW2 1224   0.734   0.342   2.487  0.2205  0.5279  0.2465
  409SOL     OW 1225   0.181   1.759   0.057  0.4842  0.3929 -0.5237
  409SOL    HW1 1226   0.282   1.750   0.034 -2.2079 -1.8168 -0.6381
  409SOL    HW2 1227   0.162   1.852   0.090  1.0257  0.2256 -1.4655
  410SOL     OW 1228   2.787   1.448   0.279  0.4996  0.6281 -0.0651
  410SOL    HW1 1229   2.852   1.366   0.262  1.4325  0.6453 -2.0426
  410SOL    HW2 1230   2.802   1.483   0.373  0.2058  1.6201  2.5392
  411SOL     OW 1231   2.771   0.482   1.036 -0.1834  0.5960 -0.0776
  411SOL    HW1 1232   2.818   0.562   0.990  0.3372 -1.4094 -1.2632
  411SOL    HW2 1233   2.671   0.485   1.014 -1.6920 -0.0844  0.8357
  412SOL     OW 1234   1.402   1.082   1.163  0.4376  0.0532  0.0047
  412SOL    HW1 1235   1.477   1.139   1.126 -0.3605  1.6714 -2.2692
  412SOL    HW2 1236   1.421   1.050   1.261  1.8923  0.1274 -0.9733
  413SOL     OW 1237   0.658   2.594   1.370 -0.3319  0.6247  0.8201
  413SOL    HW1 1238   0.746   2.567   1.332  0.5271  0.9760 -0.5332
  413SOL    HW2 1239   0.611   2.647   1.297  0.0972 -0.6521  3.3334
  414SOL     OW 1240   2.880   1.313   2.818  0.7142  0.3433 -0.5278
  414SOL    HW1 1241   2.975   1.353   2.808 -1.0816  0.2313  1.5101
  414SOL    HW2 1242   2.860   1.275   2.907 -1.2963 -1.9213  0.2968
  415SOL     OW 1243   0.273   2.118   2.918 -0.0989 -0.0867  0.1827
  415SOL    HW1 1244   0.343   2.047   2.936 -2.1736 -2.2436  0.0599
  415SOL    HW2 1245   0.194   2.063   2.886  1.9260 -1.3693 -1.7795
  416SOL     OW 1246   1.510   0.043   0.469  0.2827  0.1382  0.3725
  416SOL    HW1 1247   1.610   0.040   0.486  0.7025  0.6704 -0.4468
  416SOL    HW2 1248   1.476   3.107   0.389 -0.0343  0.5165 -0.4892
  417SOL     OW 1249   0.353   0.858   0.912 -0.4071 -0.0392 -0.1188
  417SOL    HW1 1250   0.446   0.896   0.928 -4.7710 -1.2899  0.8613
  417SOL    HW2 1251   0.306   0.892   0.829 -0.5093 -0.7537  0.2294
  418SOL     OW 1252   2.335   1.224   1.846  0.2584 -0.7984  0.3534
  418SOL    HW1 1253   2.294   1.172   1.764 -2.7398 -0.1247 -3.3655
  418SOL    HW2 1254   2.329   1.165   1.927  1.6041 -0.2544  1.2024
  419SOL     OW 1255   0.096   0.080   0.718 -0.5703  0.4375  0.3002
  419SOL    HW1 1256   0.145   0.075   0.628 -0.3416  0.3727 -0.5064
  419SOL    HW2 1257   0.131   0.149   0.781 -1.8549 -1.5994 -4.2816
  420SOL     OW 1258   0.239   1.418   1.239 -0.1863 -0.5612 -0.3794
  420SOL    HW1 1259   0.251   1.383   1.338  3.0284 -0.0521  2.2474
  420SOL    HW2 1260   0.302   1.361   1.177 -1.1567 -1.4416 -4.1476
  421SOL     OW 1261   0.974   2.559   0.805 -0.2434  0.3723 -0.1266
  421SOL    HW1 1262   0.963   2.555   0.703 -0.3965 -2.0285 -0.2948
  421SOL    HW2 1263   1.002   2.468   0.836 -2.6858  1.3010 -0.0168
  422SOL     OW 1264   0.157   0.747   1.508 -0.1114  0.7722 -0.0798
  422SOL    HW1 1265   0.097   0.738   1.428  0.5632  1.2171 -0.2226
  422SOL    HW2 1266   0.252   0.764   1.478  1.0826 -1.0709  0.0260
  423SOL     OW 1267   1.156   1.113   1.080 -0.1910 -0.7754 -0.1459
  423SOL    HW1 1268   1.248   1.100   1.118 -0.8444 -2.9440  0.3378
  423SOL    HW2 1269   1.166   1.100   0.980  0.2738 -1.2745  0.9983
  424SOL     OW 1270   2.040   1.093   2.948  0.5169 -0.9477  0.1458
  424SOL    HW1 1271   2.074   1.155   3.025 -1.7208  3.4119 -1.8866
  424SOL    HW2 1272   1.989   1.158   2.883 -2.0526  1.5337  1.2327
  425SOL     OW 1273   0.020   0.399   2.030  0.0773  0.5921 -0.3133
  425SOL    HW1 1274   0.057   0.463   2.106  0.3010  0.7170  2.1298
  425SOL    HW2 1275   3.050   0.367   2.045  1.6150 -0.0891  0.8760
  426SOL     OW 1276   2.993   2.727   3.088 -0.2115  0.0404  0.4340
  426SOL    HW1 1277   3.065   2.705   3.023  1.3700 -1.5777  1.2732
  426SOL    HW2 1278   3.045   2.773   0.040  0.4832 -2.0707 -2.0131
  427SOL     OW 1279   0.805   0.722   2.304 -0.1810  0.2299  0.1878
  427SOL    HW1 1280   0.742   0.735   2.381 -1.7756  0.4013  0.8584
  427SOL    HW2 1281   0.816   0.815   2.260 -1.8471 -2.2337  0.4616
  428SOL     OW 1282   2.209   1.174   1.589 -0.3766 -0.0482  0.0436
  428SOL    HW1 1283   2.267   1.170   1.507 -2.5465  3.3581 -0.4475
  428SOL    HW2 1284   2.126   1.227   1.569  0.3171 -0.1749 -0.2011
  429SOL     OW 1285   2.523   2.497   0.706 -0.5759  0.1444  0.2706
  429SOL    HW1 1286   2.526   2.423   0.633  0.3139 -1.6801 -0.1309
  429SOL    HW2 1287   2.444   2.560   0.696  1.2843  1.3525 -1.4480
  430SOL     OW 1288   1.470   1.848   2.435  0.3265 -0.1097  0.1226
  430SOL    HW1 1289   1.466   1.751   2.401 -2.3898 -0.2163 -1.3209
  430SOL    HW2 1290   1.470   1.923   2.367  0.6963 -1.1051 -0.9275
  431SOL     OW 1291   0.018   1.661   1.527  0.2006 -0.1011 -0.4694
  431SOL    HW1 1292   3.059   1.609   1.551  1.8432  0.9738  0.2852
  431SOL    HW2 1293   3.109   1.741   1.475 -0.8723 -1.7250 -0.9048
  432SOL     OW 1294   1.379   2.936   2.555  0.4479  0.2617  0.2266
  432SOL    HW1 1295   1.293   2.888   2.519 -1.0110  2.4041 -0.3598
  432SOL    HW2 1296   1.450   2.869   2.581  0.6323  2.4646  2.1793
  433SOL     OW 1297   1.720   0.060   2.385 -0.2161  0.4488 -0.1607
  433SOL    HW1 1298   1.809   0.046   2.336 -1.6544  1.7250 -2.1749
  433SOL    HW2 1299   1.643   0.049   2.321 -1.4002 -1.0253  1.6273
  434SOL     OW 1300   0.288   2.800   2.172 -0.8412  0.8056 -0.2164
  434SOL    HW1 1301   0.215   2.748   2.222  1.1159 -2.7650 -1.6204
  434SOL    HW2 1302   0.296   2.769   2.074 -2.9688  2.7189 -1.1771
  435SOL     OW 1303   0.032   2.447   0.004 -0.1541  0.6973  0.4213
  435SOL    HW1 1304   0.128   2.409   3.120 -0.5967 -1.6592 -0.7433
  435SOL    HW2 1305   0.011   2.489   0.096 -0.5353 -1.0446  0.7477
  436SOL     OW 1306   0.486   0.721   2.136  0.0449 -0.1180 -0.2851
  436SOL    HW1 1307   0.413   0.708   2.066 -1.3919 -0.0943  1.9632
  436SOL    HW2 1308   0.580   0.739   2.096  1.1272 -0.7872 -3.8307
  437SOL     OW 1309   0.496   2.832   2.459  0.0958 -0.8790  0.2432
  437SOL    HW1 1310   0.526   2.806   2.362  0.3347  1.7602  0.8568
  437SOL    HW2 1311   0.569   2.832   2.527 -0.5673  1.3915 -1.3438
  438SOL     OW 1312   0.650   1.578   1.578  0.1617 -0.1021 -0.1551
  438SOL    HW1 1313   0.639   1.665   1.636 -1.1698  1.0851 -0.7683
  438SOL    HW2 1314   0.696   1.499   1.623 -0.9713  0.7110 -1.3738
  439SOL     OW 1315   2.242   0.760   2.688 -0.3482 -0.1500 -0.1632
  439SOL    HW1 1316   2.276   0.786   2.595 -0.4612  1.0856  1.1118
  439SOL    HW2 1317   2.248   0.834   2.756  0.2505  1.6521  0.5843
  440SOL     OW 1318   0.559   0.638   0.046 -0.2863 -0.0375  0.4477
  440SOL    HW1 1319   0.589   0.671   0.137  4.2022 -3.9900 -2.0438
  440SOL    HW2 1320   0.494   0.557   0.051 -1.2282 -0.9757 -2.7937
  441SOL     OW 1321   1.329   2.281   1.262  0.2942 -0.7431 -0.0226
  441SOL    HW1 1322   1.351   2.370   1.209 -2.9430  0.9039 -2.6103
  441SOL    HW2 1323   1.290   2.308   1.351 -2.1282 -0.3643  0.6521
  442SOL     OW 1324   2.821   1.459   0.786 -0.0405 -0.0145 -0.0728
  442SOL    HW1 1325   2.836   1.524   0.863 -0.3823 -1.1909 -1.0283
  442SOL    HW2 1326   2.729   1.421   0.788 -0.2042  2.1967 -1.2884
  443SOL     OW 1327   2.707   2.114   2.525  0.0543 -1.3275  0.8324
  443SOL    HW1 1328   2.715   2.033   2.588 -1.4686 -1.4997  1.5367
  443SOL    HW2 1329   2.655   2.190   2.567 -4.5610  1.6345 -2.4941
  444SOL     OW 1330   1.620   1.166   0.020  0.4515 -0.0640 -0.1635
  444SOL    HW1 1331   1.679   1.157   0.106 -0.2416  0.4300  1.5406
  444SOL    HW2 1332   1.567   1.254   0.018  1.7818 -0.3189  0.6572
  445SOL     OW 1333   2.643   3.044   2.050  0.1032  0.2163 -1.1468
  445SOL    HW1 1334   2.723   3.103   2.018 -1.7476  0.5490 -0.8962
  445SOL    HW2 1335   2.673   2.981   2.124 -1.6375 -2.8202  1.2241
  446SOL     OW 1336   0.234   1.083   1.353  0.1476 -0.0237  0.3714
  446SOL    HW1 1337   0.282   0.993   1.365  0.9319  0.8123 -0.4087
  446SOL    HW2 1338   0.137   1.067   1.329  1.0421  1.6726  0.9194
  447SOL     OW 1339   1.117   1.782   0.804  0.1654  0.2552  0.1166
  447SOL    HW1 1340   1.084   1.849   0.871  0.8355 -1.1807  0.2732
  447SOL    HW2 1341   1.106   1.812   0.709  0.1584 -2.6210  0.4568
  448SOL     OW 1342   1.368   0.936   1.696 -0.3471  0.2148  0.2203
  448SOL    HW1 1343   1.368   0.972   1.797 -0.4576 -0.9801  3.2996
  448SOL    HW2 1344   1.276   0.894   1.688 -0.1191  0.1055  0.7896
  449SOL     OW 1345   3.026   2.273   2.256  0.4810 -0.2560 -0.7759
  449SOL    HW1 1346   2.962   2.319   2.192  1.6761 -0.9525  1.0555
  449SOL    HW2 1347   3.122   2.261   2.223 -0.2998 -0.5128 -0.8056
  450SOL     OW 1348   2.989   1.968   1.691 -0.4599 -0.6546 -0.0174
  450SOL    HW1 1349   2.899   2.002   1.663  2.0476  2.0189  1.4143
  450SOL    HW2 1350   3.025   2.023   1.769 -1.5299 -1.3946 -3.1822
  451SOL     OW 1351   2.363   0.846   1.242  0.3769 -0.2147  0.0341
  451SOL    HW1 1352   2.278   0.810   1.275 -0.4251 -0.3908 -2.6185
  451SOL    HW2 1353   2.407   0.794   1.166  0.2766 -0.4922 -0.0586
  452SOL     OW 1354   0.807   1.408   0.850 -0.1791  0.3186  0.6193
  452SOL    HW1 1355   0.907   1.416   0.835 -2.8470  0.8840  2.8449
  452SOL    HW2 1356   0.757   1.475   0.783  1.1916  1.6596  0.8919
  453SOL     OW 1357   1.006   1.952   0.993  0.3356 -0.0865 -0.0825
  453SOL    HW1 1358   0.929   2.016   0.963 -0.1534  0.8935  1.1270
  453SOL    HW2 1359   1.076   2.001   1.051  1.3881 -1.7638  1.2778
  454SOL     OW 1360   0.570   1.595   2.940 -0.3416  0.4400 -0.4851
  454SOL    HW1 1361   0.584   1.647   2.851 -1.3295  1.0448  2.0834
  454SOL    HW2 1362   0.567   1.490   2.932 -1.5907  0.3320  1.7785
  455SOL     OW 1363   1.838   0.794   0.564  0.2018  0.6216 -0.1211
  455SOL    HW1 1364   1.914   0.727   0.559 -0.9443 -1.6946 -1.3487
  455SOL    HW2 1365   1.793   0.819   0.475 -1.4918 -1.5929 -3.1518
  456SOL     OW 1366   2.178   2.451   0.983 -0.4690 -0.2744 -0.0379
  456SOL    HW1 1367   2.144   2.410   0.898  2.1521 -1.5689 -0.2815
  456SOL    HW2 1368   2.270   2.490   0.966 -1.0022 -2.7042  0.5734
  457SOL     OW 1369   1.697   2.929   2.779  0.3138  0.1929  0.1004
  457SOL    HW1 1370   1.641   2.982   2.847  1.7116  1.0843 -2.9757
  457SOL    HW2 1371   1.631   2.886   2.714  1.6722 -2.7001  2.5513
  458SOL     OW 1372   2.144   0.520   0.301 -0.0553  0.0495 -0.1905
  458SOL    HW1 1373   2.163   0.421   0.311 -0.2538  0.8978  0.1033
  458SOL    HW2 1374   2.048   0.545   0.278  0.1450 -0.4645 -1.8242
  459SOL     OW 1375   0.028   0.894   2.284 -0.0247 -0.3822 -0.0855
  459SOL    HW1 1376   3.120   0.958   2.350  0.5141 -0.4035 -4.6802
  459SOL    HW2 1377   0.027   0.934   2.191 -0.5210  1.1982  0.0425
  460SOL     OW 1378   0.493   0.946   3.054 -0.3033 -0.4081 -0.0082
  460SOL    HW1 1379   0.573   0.968   3.120  2.4036  2.1550  2.5528
  460SOL    HW2 1380   0.507   0.860   2.997 -0.3187 -0.7997 -0.3318
  461SOL     OW 1381   2.714   2.684   0.810  0.6103 -0.2810  0.5404
  461SOL    HW1 1382   2.690   2.753   0.882  0.3833  0.8923 -1.4037
  461SOL    HW2 1383   2.631   2.631   0.779 -2.2172 -1.2549  0.6613
  462SOL     OW 1384   0.254   0.150   1.531  0.0051 -0.3292  0.1856
  462SOL    HW1 1385   0.204   0.235   1.502 -1.6973 -0.9398  0.1615
  462SOL    HW2 1386   0.350   0.148   1.490 -0.2498  0.9411 -0.4737
  463SOL     OW 1387   2.172   2.372   2.145  0.1549  0.6667  0.9700
  463SOL    HW1 1388   2.129   2.303   2.206 -0.0641  2.6079 -2.9188
  463SOL    HW2 1389   2.096   2.404   2.086 -1.6306 -0.5207  0.1288
  464SOL     OW 1390   0.872   0.154   1.363  0.2128  0.0987 -0.0986
  464SOL    HW1 1391   0.826   0.113   1.282  0.1050 -1.6947  3.2024
  464SOL    HW2 1392   0.937   0.227   1.336  0.7242 -2.4928 -0.5534
  465SOL     OW 1393   0.695   0.148   1.564  0.0490  0.1360  0.3138
  465SOL    HW1 1394   0.783   0.174   1.525 -0.7187  0.0633  0.1010
  465SOL    HW2 1395   0.696   0.146   1.659 -1.3523 -1.5290 -3.6089
  466SOL     OW 1396   1.318   2.051   1.996 -0.6515 -0.5996 -0.0581
  466SOL    HW1 1397   1.251   2.120   1.964 -1.3711  0.1455  1.6347
  466SOL    HW2 1398   1.306   1.967   1.941 -0.8324  3.3338  2.5591
  467SOL     OW 1399   0.256   1.918   1.254 -0.0073 -0.1668 -0.2444
  467SOL    HW1 1400   0.243   1.836   1.314 -1.6072 -1.4773  0.0032
  467SOL    HW2 1401   0.183   1.924   1.178 -1.6505  3.4425 -4.6448
  468SOL     OW 1402   2.582   1.765   2.587 -0.3970 -0.1225  0.0500
  468SOL    HW1 1403   2.664   1.821   2.611 -1.6978 -0.8221  0.9019
  468SOL    HW2 1404   2.596   1.723   2.494  0.2002  0.0960  3.7868
  469SOL     OW 1405   1.189   2.148   0.586  0.1268 -0.0160  0.2613
  469SOL    HW1 1406   1.255   2.203   0.527  0.9977 -0.4245 -1.2508
  469SOL    HW2 1407   1.093   2.179   0.578  1.7656  1.9057 -0.3987
  470SOL     OW 1408   2.343   1.652   1.286  1.1360 -0.6204  0.2871
  470SOL    HW1 1409   2.339   1.720   1.363  1.2752 -4.3776 -3.2164
  470SOL    HW2 1410   2.247   1.615   1.272  2.7784  1.2939  2.1518
  471SOL     OW 1411   0.288   2.337   3.102  0.3444  0.4592 -0.1293
  471SOL    HW1 1412   0.280   2.254   3.046 -2.0752  1.0011  3.3239
  471SOL    HW2 1413   0.376   2.377   3.086 -0.2344 -1.5385 -0.3189
  472SOL     OW 1414   2.825   2.087   2.271  0.1304 -0.0171 -0.0206
  472SOL    HW1 1415   2.907   2.144   2.262 -2.8101 -0.1034 -0.1522
  472SOL    HW2 1416   2.772   2.098   2.358  2.1113  0.4739  0.3696
  473SOL     OW 1417   0.813   2.777   0.838  0.5064  0.0782  0.4726
  473SOL    HW1 1418   0.858   2.685   0.833 -1.6864  1.4566  0.3101
  473SOL    HW2 1419   0.849   2.839   0.764  0.5586  1.1329 -0.6602
  474SOL     OW 1420   2.986   0.045   1.161  0.3855 -0.3051 -0.5474
  474SOL    HW1 1421   2.922   0.111   1.120 -2.9315  1.8785  0.8945
  474SOL    HW2 1422   3.026   0.095   1.246 -0.5743  0.5029  0.4717
  475SOL     OW 1423   1.799   0.017   1.801 -0.1290 -0.9022 -0.0765
  475SOL    HW1 1424   1.831   3.097   1.888  1.7908  1.0594 -0.8120
  475SOL    HW2 1425   1.716   3.095   1.764  0.4605  2.6930  0.2803
  476SOL     OW 1426   0.272   0.633   1.072  0.3888  0.1444 -0.1226
  476SOL    HW1 1427   0.310   0.715   1.025 -1.8393 -0.5930  3.6536
  476SOL    HW2 1428   0.353   0.572   1.092 -2.3443  1.9757 -1.9728
  477SOL     OW 1429   0.929   2.297   1.106  0.2095  0.0521  0.2139
  477SOL    HW1 1430   0.852   2.247   1.053 -2.9149  0.1906 -1.9162
  477SOL    HW2 1431   1.011   2.297   1.047 -3.8114  0.2550 -1.9494
  478SOL     OW 1432   0.275   2.352   2.415 -0.1373 -0.3448  0.1504
  478SOL    HW1 1433   0.326   2.428   2.474  0.9313  2.4592  0.3866
  478SOL    HW2 1434   0.208   2.295   2.473 -0.1553 -2.6006  0.1737
  479SOL     OW 1435   0.284   0.700   1.964 -0.5764 -0.4650  0.5698
  479SOL    HW1 1436   0.229   0.786   1.949 -0.0834  1.0104 -0.4082
  479SOL    HW2 1437   0.304   0.647   1.881  0.7327 -0.2826 -1.9499
  480SOL     OW 1438   2.956   2.246   3.108  0.3274  0.3936  0.2691
  480SOL    HW1 1439   2.861   2.288   3.099  1.6616  2.6437  1.6942
  480SOL    HW2 1440   3.030   2.310   3.096 -5.1601 -1.5414 -0.2755
  481SOL     OW 1441   1.565   2.051   2.064 -0.1597  0.2335  0.4772
  481SOL    HW1 1442   1.589   1.954   2.079 -0.2245 -0.7076 -0.0442
  481SOL    HW2 1443   1.465   2.058   2.041 -1.1610  0.6867  0.9716
  482SOL     OW 1444   1.514   2.279   2.678  0.2443 -0.0219  0.4185
  482SOL    HW1 1445   1.468   2.186   2.670 -0.3545  0.0571 -0.5648
  482SOL    HW2 1446   1.586   2.293   2.606  0.6228  2.1003 -1.2716
  483SOL     OW 1447   0.753   2.383   2.543 -0.4323  0.0686  0.2547
  483SOL    HW1 1448   0.731   2.423   2.634  1.1107 -1.5368  3.9022
  483SOL    HW2 1449   0.854   2.371   2.537 -1.3010 -0.5617 -3.6872
  484SOL     OW 1450   0.279   0.220   1.159  0.2173  0.1683 -0.4410
  484SOL    HW1 1451   0.295   0.301   1.221  0.5969  1.4586  2.7431
  484SOL    HW2 1452   0.209   0.153   1.189 -2.4300  1.8262 -3.1306
  485SOL     OW 1453   1.962   0.523   0.592 -0.6892 -0.0665 -0.0016
  485SOL    HW1 1454   1.917   0.545   0.679 -2.1687 -0.5285  2.1639
  485SOL    HW2 1455   2.035   0.594   0.569  0.0020 -0.6721  0.4903
  486SOL     OW 1456   1.835   2.796   2.245  0.0770  0.0265 -0.2674
  486SOL    HW1 1457   1.924   2.823   2.206  0.1362  0.0310  2.0671
  486SOL    HW2 1458   1.826   2.839   2.341  2.1378  3.4204  3.9182
  487SOL     OW 1459   1.629   1.749   0.607 -0.6059  0.1907 -0.0516
  487SOL    HW1 1460   1.733   1.729   0.607  0.6452 -1.2822  0.2706
  487SOL    HW2 1461   1.581   1.736   0.700 -1.3083  1.0978  0.8424
  488SOL     OW 1462   2.284   1.151   0.308 -0.3424 -0.1574  0.5284
  488SOL    HW1 1463   2.260   1.052   0.290 -3.1077 -2.9519 -0.3278
  488SOL    HW2 1464   2.313   1.203   0.225  2.0150  2.0179  3.5064
  489SOL     OW 1465   2.436   0.306   0.798 -0.4062  0.1389  0.6817
  489SOL    HW1 1466   2.371   0.292   0.719 -2.1446  0.6598 -3.5617
  489SOL    HW2 1467   2.420   0.233   0.867 -2.0529 -0.3294  0.2205
  490SOL     OW 1468   1.589   2.729   3.099 -0.4242 -0.0100  0.0644
  490SOL    HW1 1469   1.575   2.715   0.074  1.5946  0.7505 -2.3034
  490SOL    HW2 1470   1.679   2.777   3.090  0.6262 -1.8383 -0.2433
  491SOL     OW 1471   0.989   0.792   0.794  0.0665  0.0399  0.1132
  491SOL    HW1 1472   0.955   0.880   0.829  0.2213 -1.3178 -1.3588
  491SOL    HW2 1473   0.995   0.809   0.695  0.6689 -0.4829  2.2161
  492SOL     OW 1474   1.618   0.176   0.159  0.2924 -0.1729 -0.0304
  492SOL    HW1 1475   1.558   0.102   0.183  1.2502  1.4833 -0.0916
  492SOL    HW2 1476   1.612   0.197   0.058 -1.1660 -0.0400 -0.8456
  493SOL     OW 1477   1.765   2.342   3.010  0.1498 -0.0244  0.3806
  493SOL    HW1 1478   1.673   2.333   3.048  2.1034  0.4701  1.4680
  493SOL    HW2 1479   1.764   2.398   2.923 -0.5177  0.1961  0.2261
  494SOL     OW 1480   0.456   1.217   0.712  0.4105 -0.4720  0.3280
  494SOL    HW1 1481   0.438   1.305   0.660 -2.1637  2.0637  0.9501
  494SOL    HW2 1482   0.376   1.209   0.779 -3.7984 -0.3872  0.7597
  495SOL     OW 1483   3.097   0.186   1.356 -0.4035  0.2597  0.7173
  495SOL    HW1 1484   0.007   0.281   1.369  1.0555 -0.4671 -2.5557
  495SOL    HW2 1485   3.068   0.142   1.443 -1.7407  0.2515 -0.8912
  496SOL     OW 1486   2.522   3.051   1.760 -0.4381  0.1300  0.3502
  496SOL    HW1 1487   2.575   3.005   1.834  0.2245  0.0987  1.2702
  496SOL    HW2 1488   2.586   3.111   1.711  3.1819  0.1654 -0.8659
  497SOL     OW 1489   1.668   1.700   2.583 -0.1615 -0.4608 -0.2674
  497SOL    HW1 1490   1.630   1.608   2.615  1.2149 -0.8674 -0.7213
  497SOL    HW2 1491   1.602   1.759   2.539  3.0188  1.1828  1.4004
  498SOL     OW 1492   0.471   1.953   0.683  0.0505 -0.0267 -0.6367
  498SOL    HW1 1493   0.427   1.862   0.679  1.7408  2.1361  0.8804
  498SOL    HW2 1494   0.461   1.984   0.782  2.5379  1.6066  2.4030
  499SOL     OW 1495   0.227   1.666   1.379  0.3078  0.0533  0.2095
  499SOL    HW1 1496   0.243   1.581   1.327  1.1381  5.1502  0.8674
  499SOL    HW2 1497   0.142   1.656   1.439  0.3287 -0.3976  1.3531
  500SOL     OW 1498   1.218   2.333   0.224 -0.1956  0.4809  0.3448
  500SOL    HW1 1499   1.227   2.251   0.167 -0.9881 -0.5614  0.3395
  500SOL    HW2 1500   1.289   2.337   0.298  0.4142 -0.6300  2.2143
  501SOL     OW 1501   2.583   2.604   1.110  0.4850 -0.2651 -0.3957
  501SOL    HW1 1502   2.575   2.694   1.062  0.1702  4.7947 -0.3377
  501SOL    HW2 1503   2.559   2.614   1.205 -0.2114  1.2078 -0.8450
  502SOL     OW 1504   0.101   0.980   1.622  0.2910  0.3738 -0.7712
  502SOL    HW1 1505   0.196   1.009   1.652  2.5085  3.0870 -2.2343
  502SOL    HW2 1506   0.103   0.880   1.601  0.4397 -0.4105 -2.2958
  503SOL     OW 1507   2.527   0.288   1.803 -0.3148  0.1577  0.2918
  503SOL    HW1 1508   2.428   0.267   1.794 -0.5329  1.1828  0.5969
  503SOL    HW2 1509   2.579   0.226   1.746 -1.5504  0.2040 -0.7133
  504SOL     OW 1510   1.822   0.676   1.914  0.6873 -0.3676  0.2361
  504SOL    HW1 1511   1.725   0.674   1.927  1.4624 -1.2026 -0.5793
  504SOL    HW2 1512   1.854   0.773   1.899 -2.0749 -0.9418 -0.5146
  505SOL     OW 1513   1.216   0.280   2.826  0.1031  0.2348  0.2133
  505SOL    HW1 1514   1.209   0.180   2.824  0.1670  1.5694 -0.0545
  505SOL    HW2 1515   1.247   0.316   2.919  0.4245 -0.1034  1.0433
  506SOL     OW 1516   0.566   0.609   1.696 -0.2786  0.2603  0.1078
  506SOL    HW1 1517   0.643   0.583   1.634  0.4032  0.9518 -1.7038
  506SOL    HW2 1518   0.572   0.560   1.785 -0.4216 -0.8569  2.3871
  507SOL     OW 1519   1.533   3.048   2.942  0.4857  0.6324  0.0174
  507SOL    HW1 1520   1.541   0.023   2.970  1.0911  0.4069  1.5454
  507SOL    HW2 1521   1.438   3.010   2.941  1.5883  2.3437  0.6474
  508SOL     OW 1522   2.519   0.312   2.687  0.2549 -0.0143  0.1393
  508SOL    HW1 1523   2.493   0.360   2.770  1.8210 -1.8169 -0.1178
  508SOL    HW2 1524   2.475   0.223   2.673 -0.6448 -0.2921  0.6485
  509SOL     OW 1525   0.877   1.400   1.915 -0.2645  0.0049 -0.0600
  509SOL    HW1 1526   0.814   1.400   1.995  0.6479 -0.7890  1.0659
  509SOL    HW2 1527   0.898   1.500   1.896  0.5040  0.5419  0.4627
  510SOL     OW 1528   3.103   1.046   0.946 -0.1191 -0.0518 -0.1408
  510SOL    HW1 1529   3.073   1.148   0.951 -1.3100  0.1783  3.8189
  510SOL    HW2 1530   3.045   0.989   0.883 -0.0386 -1.2394 -2.2018
  511SOL     OW 1531   1.802   1.458   1.129 -0.1045 -0.1497 -0.2494
  511SOL    HW1 1532   1.770   1.525   1.200  0.5366  1.5670  1.1550
  511SOL    HW2 1533   1.782   1.493   1.036  2.7367  1.3918 -1.0760
  512SOL     OW 1534   0.924   1.427   0.130  0.1998 -0.0002  0.1362
  512SOL    HW1 1535   0.895   1.505   0.075 -0.2707 -3.7496  3.0205
  512SOL    HW2 1536   1.010   1.460   0.180  0.7235  1.6280 -0.1628
  513SOL     OW 1537   0.144   2.491   0.711  0.0689  0.1309  0.7029
  513SOL    HW1 1538   0.104   2.580   0.744  1.0162  1.2977 -0.5982
  513SOL    HW2 1539   0.213   2.501   0.635  1.8102  0.0430 -0.9904
  514SOL     OW 1540   0.207   1.672   2.890 -0.3185  0.8116 -0.1818
  514SOL    HW1 1541   0.206   1.713   2.983 -0.0434 -1.2969  0.2945
  514SOL    HW2 1542   0.220   1.571   2.898  0.1385 -2.7723  1.0321
  515SOL     OW 1543   2.421   0.595   0.331 -0.1292 -0.3542 -0.0078
  515SOL    HW1 1544   2.443   0.693   0.328  1.1904 -1.2988  0.8801
  515SOL    HW2 1545   2.323   0.574   0.304  2.9110 -1.1806  0.2209
  516SOL     OW 1546   2.578   2.854   0.990  0.8355 -0.0650 -0.3295
  516SOL    HW1 1547   2.602   2.912   1.067  1.0769 -1.9592 -0.2520
  516SOL    HW2 1548   2.550   2.912   0.910  0.4157 -1.3298  0.2952
  517SOL     OW 1549   1.322   1.789   3.034 -0.0619 -0.5810  0.3794
  517SOL    HW1 1550   1.422   1.772   3.042  0.7178 -2.1745  1.9948
  517SOL    HW2 1551   1.262   1.766   3.108  0.4651 -1.4849 -1.2300
  518SOL     OW 1552   1.149   0.786   1.652  0.2917  0.4199 -0.0122
  518SOL    HW1 1553   1.044   0.790   1.627 -1.8385  0.0354 -0.2580
  518SOL    HW2 1554   1.185   0.692   1.633  1.0840  1.2686 -1.8572
  519SOL     OW 1555   2.837   1.549   0.528  0.2407  0.6206  0.6666
  519SOL    HW1 1556   2.861   1.504   0.617  1.5389  0.8109  0.6799
  519SOL    HW2 1557   2.912   1.610   0.490  2.9179  2.3761 -0.2653
  520SOL     OW 1558   2.087   2.180   1.828 -0.1242 -0.0192 -0.3674
  520SOL    HW1 1559   2.148   2.259   1.829 -0.3341 -1.1992 -0.0612
  520SOL    HW2 1560   2.053   2.167   1.919  2.8929  0.7931 -3.5399
  521SOL     OW 1561   0.970   3.031   2.675 -0.2593 -0.1810 -0.5277
  521SOL    HW1 1562   0.910   3.115   2.684  0.3236 -0.7775  2.6978
  521SOL    HW2 1563   0.956   2.994   2.580  1.0033 -0.6127  0.6950
  522SOL     OW 1564   2.684   0.469   2.528  0.3324  0.2379  0.5897
  522SOL    HW1 1565   2.683   0.424   2.439 -0.5695 -2.4800  1.7187
  522SOL    HW2 1566   2.621   0.412   2.593 -4.0309 -1.4246  1.3268
  523SOL     OW 1567   1.644   2.508   1.612 -0.7861 -0.3900 -0.0130
  523SOL    HW1 1568   1.670   2.597   1.565 -3.4929  2.0356  1.1338
  523SOL    HW2 1569   1.715   2.473   1.681  2.1652 -1.5231  2.0201
  524SOL     OW 1570   1.592   2.111   2.900  0.4094 -0.6748 -0.0027
  524SOL    HW1 1571   1.602   2.191   2.834  1.9940 -2.5266 -3.1877
  524SOL    HW2 1572   1.616   2.023   2.854  0.9443 -0.3846 -2.3309
  525SOL     OW 1573   0.169   0.941   0.206  0.4480  0.1943  0.0152
  525SOL    HW1 1574   0.192   0.859   0.264  1.5298  1.7918 -0.2352
  525SOL    HW2 1575   0.232   0.941   0.132 -1.4127  3.0583  1.0956
  526SOL     OW 1576   0.882   2.950   0.651 -0.3795  0.1243 -0.8275
  526SOL    HW1 1577   0.882   2.870   0.586  1.1487  1.6308 -0.4793
  526SOL    HW2 1578   0.935   3.030   0.615  1.0376  1.6935  0.4263
  527SOL     OW 1579   2.609   1.706   0.524  0.0535 -0.0682 -0.1945
  527SOL    HW1 1580   2.694   1.656   0.533 -0.4392  0.7647 -0.7580
  527SOL    HW2 1581   2.548   1.649   0.463 -1.0949 -1.2766 -0.1314
  528SOL     OW 1582   0.813   0.965   2.155  1.2027 -0.2752  0.3256
  528SOL    HW1 1583   0.862   1.039   2.198  0.1743  1.3371 -0.4096
  528SOL    HW2 1584   0.720   0.991   2.121 -0.6055  1.8261  1.7829
  529SOL     OW 1585   1.308   1.686   2.744 -0.4020 -0.3273  0.9818
  529SOL    HW1 1586   1.284   1.705   2.841 -0.5342 -4.1742 -0.4247
  529SOL    HW2 1587   1.394   1.637   2.733  2.0907 -1.4467 -1.1722
  530SOL     OW 1588   1.721   1.292   2.515  0.7423  0.3843 -0.1050
  530SOL    HW1 1589   1.750   1.322   2.420 -0.3479  2.2158 -1.0861
  530SOL    HW2 1590   1.645   1.223   2.509  0.4589 -0.1888 -0.5370
  531SOL     OW 1591   0.514   2.202   2.746  0.2139 -0.1726 -0.8071
  531SOL    HW1 1592   0.475   2.154   2.821 -0.2792  3.1283 -1.9104
  531SOL    HW2 1593   0.557   2.286   2.779 -0.0189 -0.2703 -0.0252
  532SOL     OW 1594   2.330   0.846   0.606 -0.0919  0.4686  0.0250
  532SOL    HW1 1595   2.347   0.944   0.618  0.6093  1.6586 -1.6023
  532SOL    HW2 1596   2.412   0.796   0.574 -1.1117  0.5907 -0.9462
  533SOL     OW 1597   0.076   0.427   1.779  0.3678  0.0669 -0.2385
  533SOL    HW1 1598   0.164   0.474   1.755 -0.2792  1.4273 -2.5054
  533SOL    HW2 1599   0.051   0.425   1.881 -0.7727 -0.9908 -1.7097
  534SOL     OW 1600   1.289   0.027   0.121  0.2360 -0.7660 -0.6319
  534SOL    HW1 1601   1.256   0.126   0.126  1.9734  0.3521 -1.5540
  534SOL    HW2 1602   1.271   3.117   0.027 -0.1120 -2.8938  0.9329
  535SOL     OW 1603   0.268   3.074   0.213  0.6327 -0.6504 -0.5950
  535SOL    HW1 1604   0.244   3.027   0.127 -1.5080 -3.0395 -1.1547
  535SOL    HW2 1605   0.249   0.053   0.212  0.5605  1.2692 -0.0687
  536SOL     OW 1606   0.527   1.646   1.356 -0.5225  0.2647 -0.3942
  536SOL    HW1 1607   0.431   1.655   1.378 -1.1842 -1.1302  1.5525
  536SOL    HW2 1608   0.582   1.610   1.436 -0.1273 -2.7542  1.6257
  537SOL     OW 1609   0.546   2.633   1.840  0.2128  0.4031  0.6084
  537SOL    HW1 1610   0.495   2.597   1.763  0.7836 -0.6027  3.3531
  537SOL    HW2 1611   0.616   2.562   1.871  0.9407 -3.5543  2.1147
  538SOL     OW 1612   3.080   1.638   0.104 -0.2680 -0.1133 -0.5831
  538SOL    HW1 1613   0.042   1.696   0.101  0.5742 -0.8346  2.4194
  538SOL    HW2 1614   3.038   1.651   0.197  0.0404  1.0095 -0.6450
  539SOL     OW 1615   2.639   0.752   2.633 -0.6781  0.0938  0.5662
  539SOL    HW1 1616   2.626   0.661   2.587 -1.7578  0.5386  0.2610
  539SOL    HW2 1617   2.570   0.814   2.594  0.5116 -0.2634  1.3386
  540SOL     OW 1618   1.788   0.448   2.508 -0.3699 -0.1819 -0.4051
  540SOL    HW1 1619   1.726   0.498   2.572 -2.3989 -1.0558  2.8660
  540SOL    HW2 1620   1.882   0.489   2.516  4.0626  0.5313  2.4724
  541SOL     OW 1621   0.730   0.097   1.830  0.3005  0.0060 -0.1873
  541SOL    HW1 1622   0.732   0.012   1.883  1.8857  1.8568  0.6831
  541SOL    HW2 1623   0.736   0.182   1.888 -0.9818 -0.3307  2.3741
  542SOL     OW 1624   1.926   2.786   2.727 -0.0503 -0.6854 -0.4374
  542SOL    HW1 1625   1.842   2.845   2.748 -1.9475  0.6253  0.3016
  542SOL    HW2 1626   1.939   2.771   2.626  1.1243 -0.9819  1.6554
  543SOL     OW 1627   0.606   3.060   0.697  0.8676 -0.6373 -0.4827
  543SOL    HW1 1628   0.587   3.107   0.784  0.5093 -3.2009  1.0124
  543SOL    HW2 1629   0.707   3.038   0.693  0.4450 -0.7052  2.3185
  544SOL     OW 1630   2.583   1.548   1.950 -0.0537 -0.3384 -0.3181
  544SOL    HW1 1631   2.632   1.528   2.037 -1.8211 -0.8141  0.8741
  544SOL    HW2 1632   2.500   1.612   1.965 -3.6369  2.5551 -0.0237
  545SOL     OW 1633   1.787   1.849   1.413  0.1033  0.1888 -0.0865
  545SOL    HW1 1634   1.739   1.760   1.386 -2.1856  1.2935 -2.3070
  545SOL    HW2 1635   1.848   1.886   1.342 -1.0023  1.0499  1.1142
  546SOL     OW 1636   0.234   0.196   2.253  1.0023  0.1623  0.2931
  546SOL    HW1 1637   0.234   0.230   2.158 -0.2492  1.5602 -1.3102
  546SOL    HW2 1638   0.247   0.090   2.255 -1.5718 -4.5009 -0.7515
  547SOL     OW 1639   1.277   0.656   1.094 -0.1869  0.2602 -0.1193
  547SOL    HW1 1640   1.304   0.693   1.186 -0.2593 -1.5440  1.6922
  547SOL    HW2 1641   1.351   0.682   1.030  0.3461  0.9602 -0.9293
  548SOL     OW 1642   1.384   2.384   2.874 -0.1807  0.1117  0.0216
  548SOL    HW1 1643   1.297   2.331   2.878 -1.0931 -2.7598  0.0807
  548SOL    HW2 1644   1.430   2.354   2.791 -0.8413  0.6746 -1.0378
  549SOL     OW 1645   2.234   0.258   0.272  0.4854 -0.5620  0.3004
  549SOL    HW1 1646   2.144   0.223   0.246  0.5490  3.4069  0.6599
  549SOL    HW2 1647   2.308   0.209   0.226  1.1171 -0.7814 -2.9209
  550SOL     OW 1648   2.695   1.962   0.606 -1.2068 -0.9781  0.5033
  550SOL    HW1 1649   2.675   1.870   0.577  0.9574  1.3609  0.7814
  550SOL    HW2 1650   2.651   2.030   0.543  2.6420 -3.0949  0.2101
  551SOL     OW 1651   1.057   3.108   2.209 -0.1954 -0.0562  0.1272
  551SOL    HW1 1652   1.031   0.027   2.119  0.1559  1.8119 -0.1351
  551SOL    HW2 1653   1.071   0.063   2.273  1.3061 -0.5785  3.0684
  552SOL     OW 1654   2.969   2.448   2.655  0.1392 -0.4095 -0.0740
  552SOL    HW1 1655   2.968   2.361   2.600  1.9222  2.4509  0.0282
  552SOL    HW2 1656   2.891   2.462   2.727 -0.3423 -1.4363  2.7253
  553SOL     OW 1657   0.240   2.768   1.120 -0.5937  0.2020 -0.1939
  553SOL    HW1 1658   0.238   2.869   1.125  0.8132 -2.7057  0.1594
  553SOL    HW2 1659   0.155   2.733   1.080 -0.2968 -0.2275 -2.1323
  554SOL     OW 1660   2.311   2.210   1.520  0.1123 -0.9057  0.5864
  554SOL    HW1 1661   2.225   2.180   1.564 -0.9556  0.4165 -0.0116
  554SOL    HW2 1662   2.336   2.156   1.439  0.1577 -3.0910  1.3999
  555SOL     OW 1663   1.692   2.285   1.995  0.0517  0.4057  0.0796
  555SOL    HW1 1664   1.667   2.188   1.992  0.2871  1.7903  3.2656
  555SOL    HW2 1665   1.612   2.346   2.013  0.7806  1.2950  0.5052
  556SOL     OW 1666   1.319   1.348   0.875  0.0878 -0.0758 -0.1021
  556SOL    HW1 1667   1.387   1.280   0.909  1.1771 -3.0835 -0.2238
  556SOL    HW2 1668   1.313   1.433   0.932 -0.2628 -2.0630 -0.1129
  557SOL     OW 1669   1.573   2.988   1.690 -0.2037 -0.8848  0.4285
  557SOL    HW1 1670   1.501   2.953   1.748  1.3480  2.3004 -2.3593
  557SOL    HW2 1671   1.535   3.050   1.620 -1.3325 -0.1619 -1.0144
  558SOL     OW 1672   0.279   0.152   1.832  0.5309 -0.6813  0.1866
  558SOL    HW1 1673   0.272   0.235   1.894 -0.9681 -0.0243 -1.0329
  558SOL    HW2 1674   0.286   0.177   1.736  0.4768 -1.5845 -0.7864
  559SOL     OW 1675   2.146   2.869   0.683 -0.7698 -0.7084  0.3043
  559SOL    HW1 1676   2.083   2.940   0.718  2.3880  1.0542 -1.0712
  559SOL    HW2 1677   2.167   2.888   0.585  1.5933  0.0957  1.6617
  560SOL     OW 1678   1.732   2.552   0.899  0.1060  0.5678 -0.2288
  560SOL    HW1 1679   1.829   2.569   0.923 -1.1935  0.2335 -3.2206
  560SOL    HW2 1680   1.699   2.451   0.910 -1.9173 -3.4154 -2.4081
  561SOL     OW 1681   0.890   0.141   0.612 -0.0108  0.9074 -0.0296
  561SOL    HW1 1682   0.977   0.187   0.603 -2.0997  1.3482 -0.1955
  561SOL    HW2 1683   0.813   0.207   0.647 -4.4910  1.3864  0.7983
  562SOL     OW 1684   0.498   1.414   2.352  0.1455 -0.0045 -0.0930
  562SOL    HW1 1685   0.445   1.488   2.309 -2.9720 -4.2889  0.5914
  562SOL    HW2 1686   0.479   1.414   2.451  2.1529 -0.1460 -0.7663
  563SOL     OW 1687   1.524   2.227   2.279  0.1561  0.2872  0.6649
  563SOL    HW1 1688   1.576   2.183   2.204 -1.3685 -1.1972  0.0047
  563SOL    HW2 1689   1.585   2.246   2.358 -0.0293  1.2962  0.3550
  564SOL     OW 1690   2.944   0.936   0.769  0.2335 -0.5481 -0.3819
  564SOL    HW1 1691   2.979   0.911   0.679  0.5023  0.0973  1.9483
  564SOL    HW2 1692   2.840   0.925   0.768 -1.8523  0.2638 -1.4233
  565SOL     OW 1693   0.658   1.075   0.118  0.5401  0.5400  0.0680
  565SOL    HW1 1694   0.731   1.069   0.046 -1.2100 -1.6981 -1.4871
  565SOL    HW2 1695   0.678   1.139   0.194  1.4595 -2.4667 -1.0028
  566SOL     OW 1696   2.524   0.020   2.857 -0.9482 -0.4301  0.2344
  566SOL    HW1 1697   2.478   3.104   2.938  0.4752 -3.7447 -0.3029
  566SOL    HW2 1698   2.458   0.059   2.788 -0.9371 -0.8049 -2.8299
  567SOL     OW 1699   1.471   0.723   0.932  0.0877 -0.0962 -0.2767
  567SOL    HW1 1700   1.571   0.707   0.937  0.6781 -0.3061  0.7057
  567SOL    HW2 1701   1.451   0.795   0.865 -0.4123 -0.3753  1.8847
  568SOL     OW 1702   1.688   1.872   2.822  0.0727 -0.3731 -0.8354
  568SOL    HW1 1703   1.660   1.829   2.909 -0.1790  1.2026  0.5895
  568SOL    HW2 1704   1.657   1.813   2.748  0.7337  1.1404  1.9437
  569SOL     OW 1705   2.129   1.277   0.040 -0.2214  0.3054  0.6909
  569SOL    HW1 1706   2.124   1.377   0.053  2.2643  1.0648  0.9626
  569SOL    HW2 1707   2.227   1.248   0.033  1.3814 -0.9995 -3.7834
  570SOL     OW 1708   0.172   2.560   1.876  0.9630  0.1091  0.2457
  570SOL    HW1 1709   0.231   2.640   1.908  1.5804  0.8984 -0.6725
  570SOL    HW2 1710   0.113   2.594   1.800  0.2961  1.8758  0.2039
  571SOL     OW 1711   2.910   1.707   1.694  0.4535  0.4651 -0.1539
  571SOL    HW1 1712   2.954   1.800   1.702  2.0878 -0.0598 -1.0327
  571SOL    HW2 1713   2.934   1.648   1.771 -0.4629 -0.1899 -0.5045
  572SOL     OW 1714   1.640   1.925   0.384 -0.2191  0.3667 -0.2040
  572SOL    HW1 1715   1.635   1.855   0.457  1.7855  0.9979  1.5209
  572SOL    HW2 1716   1.679   2.012   0.420 -0.0465  0.7348  0.2035
  573SOL     OW 1717   1.793   2.137   0.448 -0.0973 -0.1843 -0.7144
  573SOL    HW1 1718   1.863   2.170   0.386  0.5003  0.4699 -0.5055
  573SOL    HW2 1719   1.749   2.212   0.498 -0.8736 -0.4739 -1.9727
  574SOL     OW 1720   0.793   0.100   1.121 -0.4163 -0.0642 -0.0884
  574SOL    HW1 1721   0.696   0.128   1.104 -0.7319 -0.8591 -0.4631
  574SOL    HW2 1722   0.852   0.110   1.038  1.5386  1.6092 -1.0403
  575SOL     OW 1723   0.778   1.020   1.717  0.1713  0.1631  0.3726
  575SOL    HW1 1724   0.767   1.115   1.687  1.6766 -1.9136  0.8351
  575SOL    HW2 1725   0.845   1.008   1.790 -1.7616  1.8229 -1.1778
  576SOL     OW 1726   2.706   0.119   1.668  0.0709 -0.2376 -0.0099
  576SOL    HW1 1727   2.801   0.126   1.713  0.5014 -0.2380 -0.8513
  576SOL    HW2 1728   2.707   0.138   1.563 -0.8544  0.9143 -1.7392
  577SOL     OW 1729   1.190   0.991   2.363  0.1386 -0.1010 -0.2619
  577SOL    HW1 1730   1.125   1.001   2.442  1.0599 -1.2200  0.9942
  577SOL    HW2 1731   1.253   0.911   2.376  1.4151 -2.2325 -1.8207
  578SOL     OW 1732   2.261   1.117   2.546 -0.0764  0.6718  0.3645
  578SOL    HW1 1733   2.181   1.174   2.561  0.9900 -0.6983  0.9610
  578SOL    HW2 1734   2.346   1.164   2.514  1.1471 -0.9061  0.7869
  579SOL     OW 1735   1.474   2.344   1.743  0.0905 -0.4792  0.4500
  579SOL    HW1 1736   1.452   2.388   1.832 -1.2985  1.4831 -0.4371
  579SOL    HW2 1737   1.527   2.413   1.689 -2.0648  1.5189 -0.2432
  580SOL     OW 1738   1.363   2.022   0.327 -0.1293  0.1496 -0.1908
  580SOL    HW1 1739   1.447   1.966   0.342  2.3332 -0.9510  3.2142
  580SOL    HW2 1740   1.317   2.011   0.241  0.5143  1.2165  5.0532
  581SOL     OW 1741   1.312   0.883   2.106  0.3277 -0.0545 -0.8226
  581SOL    HW1 1742   1.258   0.816   2.057  3.5625 -2.2453 -0.6301
  581SOL    HW2 1743   1.278   0.895   2.203  1.7299  1.6011 -0.3345
  582SOL     OW 1744   0.751   1.297   1.664 -0.3855  0.1542  0.2096
  582SOL    HW1 1745   0.803   1.349   1.742 -0.3313  3.4924  4.2760
  582SOL    HW2 1746   0.812   1.265   1.592 -2.2146 -0.3370  2.7652
  583SOL     OW 1747   1.112   1.220   1.974  0.1566 -0.1254  0.1788
  583SOL    HW1 1748   1.086   1.124   1.954  2.4234  0.4323  1.5429
  583SOL    HW2 1749   1.033   1.283   1.950 -1.1689  0.7542 -1.5428
  584SOL     OW 1750   2.545   2.382   0.956  0.2657  0.4352 -0.5068
  584SOL    HW1 1751   2.524   2.422   0.862 -0.3907  4.1497 -1.9511
  584SOL    HW2 1752   2.523   2.451   1.027  0.1853 -0.2057 -2.0268
  585SOL     OW 1753   2.055   0.153   2.698 -0.0101  0.0127  0.2275
  585SOL    HW1 1754   1.965   0.189   2.666  2.1769 -0.6071 -0.7957
  585SOL    HW2 1755   2.053   0.144   2.801  1.2357  0.7064  0.6658
  586SOL     OW 1756   3.096   2.283   0.724  0.1668 -0.3220 -1.0919
  586SOL    HW1 1757   3.011   2.331   0.693  2.0643  2.1514 -3.4174
  586SOL    HW2 1758   0.053   2.346   0.725  2.3277 -1.8276 -1.5000
  587SOL     OW 1759   1.618   1.766   3.052  0.0104 -0.6530  0.0848
  587SOL    HW1 1760   1.634   1.847   3.116  2.4606  1.5907 -0.5352
  587SOL    HW2 1761   1.665   1.681   3.083  1.3638 -0.6150  2.0920
  588SOL     OW 1762   0.392   0.433   1.275  0.8719 -0.7009  0.1281
  588SOL    HW1 1763   0.423   0.343   1.302  1.2587  0.0868 -1.0142
  588SOL    HW2 1764   0.312   0.463   1.333 -0.3607 -0.8160 -0.5875
  589SOL     OW 1765   1.558   0.493   0.664  0.8270  0.2124 -0.0006
  589SOL    HW1 1766   1.596   0.406   0.701 -0.9950 -0.9550  0.0407
  589SOL    HW2 1767   1.571   0.578   0.720  2.2508  1.1087  0.1456
  590SOL     OW 1768   1.278   1.216   2.993  0.1537 -0.0178 -0.0925
  590SOL    HW1 1769   1.295   1.160   3.080  0.7372 -3.5254  0.6208
  590SOL    HW2 1770   1.283   1.316   3.014  1.4369 -0.1499  1.0010
  591SOL     OW 1771   2.546   2.591   2.374 -0.1352  0.3556 -0.8519
  591SOL    HW1 1772   2.545   2.672   2.440  0.4338  2.1655  3.2583
  591SOL    HW2 1773   2.530   2.627   2.280  0.8373  1.5541  0.4501
  592SOL     OW 1774   1.985   2.213   1.370  0.1088  0.2104 -0.2359
  592SOL    HW1 1775   1.887   2.237   1.387  0.0434 -0.9947 -2.4950
  592SOL    HW2 1776   2.025   2.168   1.452  0.1985 -2.1077  0.2969
  593SOL     OW 1777   1.028   0.389   1.235 -0.2656 -0.0502  0.4199
  593SOL    HW1 1778   1.062   0.454   1.308  2.3145  1.5200  0.4035
  593SOL    HW2 1779   0.950   0.436   1.191 -1.4018  0.8244  1.1613
  594SOL     OW 1780   2.672   1.137   2.305  0.0744  0.0091 -1.2829
  594SOL    HW1 1781   2.733   1.203   2.268 -0.7176  1.1416  1.8672
  594SOL    HW2 1782   2.713   1.045   2.292 -0.7845  0.4729 -0.6101
  595SOL     OW 1783   0.396   3.090   0.934 -0.5280 -0.4085 -0.2889
  595SOL    HW1 1784   0.327   3.093   1.008  1.9184  0.6424  0.2928
  595SOL    HW2 1785   0.365   3.035   0.850 -2.8396 -4.4340  0.1745
  596SOL     OW 1786   0.234   1.311   1.482  0.1834  1.4098  0.1054
  596SOL    HW1 1787   0.192   1.313   1.573  2.2563  0.9847 -1.7765
  596SOL    HW2 1788   0.246   1.217   1.443  2.0760  0.9747  1.7215
  597SOL     OW 1789   1.821   1.572   0.240 -0.0255  0.0357  0.2909
  597SOL    HW1 1790   1.864   1.523   0.321  2.4754 -2.6538  0.0831
  597SOL    HW2 1791   1.884   1.646   0.199  3.7848  3.3066 -1.3708
  598SOL     OW 1792   0.324   3.029   1.766  0.5586 -0.1080  0.1339
  598SOL    HW1 1793   0.425   3.017   1.752 -1.2991  0.9940  0.6499
  598SOL    HW2 1794   0.305   0.005   1.792  0.6725 -0.0759 -1.0029
  599SOL     OW 1795   2.518   1.556   2.765  0.1713 -0.1064 -0.2323
  599SOL    HW1 1796   2.420   1.558   2.793 -1.2197  1.6118  1.6375
  599SOL    HW2 1797   2.539   1.639   2.713 -2.4700 -0.1350 -0.3829
  600SOL     OW 1798   0.722   1.266   0.329 -0.0786  0.6082 -0.5090
  600SOL    HW1 1799   0.799   1.327   0.298  0.0231  1.5414 -1.0506
  600SOL    HW2 1800   0.737   1.240   0.426 -0.1712 -1.1978 -0.7244
  601SOL     OW 1801   0.602   0.955   0.957 -0.5854 -0.4161  0.1456
  601SOL    HW1 1802   0.681   0.986   0.902 -0.8571  0.7198  0.6916
  601SOL    HW2 1803   0.613   0.991   1.053  1.7085 -2.2685  2.7975
  602SOL     OW 1804   1.526   2.639   0.515 -0.9616  0.9343 -0.0729
  602SOL    HW1 1805   1.516   2.540   0.546  2.0870 -0.2790 -0.6986
  602SOL    HW2 1806   1.614   2.671   0.555 -2.2025 -0.5897 -2.9849
  603SOL     OW 1807   0.629   2.494   2.134 -0.3734  0.4941  0.0411
  603SOL    HW1 1808   0.605   2.423   2.203  0.9554  0.0963 -0.2302
  603SOL    HW2 1809   0.727   2.497   2.106  0.0792 -2.1610 -1.9681
  604SOL     OW 1810   0.363   0.373   2.424  0.0236  0.4934 -0.2990
  604SOL    HW1 1811   0.315   0.308   2.362 -1.3726 -1.2973  0.4961
  604SOL    HW2 1812   0.343   0.350   2.522 -0.1105 -0.3967 -1.6523
  605SOL     OW 1813   3.024   1.416   1.554  0.2549 -0.5275  0.1760
  605SOL    HW1 1814   3.108   1.380   1.602 -1.1350 -2.1567 -0.2020
  605SOL    HW2 1815   2.942   1.381   1.603  3.2742 -0.5649 -1.4368
  606SOL     OW 1816   0.940   1.501   2.488  0.0254  0.2466 -0.5927
  606SOL    HW1 1817   0.837   1.505   2.499 -2.8572 -0.4040 -0.7394
  606SOL    HW2 1818   0.978   1.422   2.541 -0.8235  1.3974  0.3674
  607SOL     OW 1819   0.210   2.916   0.496  0.0991  0.7621  0.0624
  607SOL    HW1 1820   0.304   2.951   0.486 -2.0516  0.8868 -3.2229
  607SOL    HW2 1821   0.144   2.992   0.486  0.4150 -1.4179 -0.5569
  608SOL     OW 1822   2.208   1.864   2.140  0.4611 -0.2839 -0.5512
  608SOL    HW1 1823   2.117   1.904   2.163 -2.4112 -0.7419 -1.7155
  608SOL    HW2 1824   2.242   1.796   2.207 -1.0387 -0.9320 -2.3914
  609SOL     OW 1825   2.813   0.410   1.302 -0.2646 -0.4383  0.0230
  609SOL    HW1 1826   2.802   0.422   1.200  3.0864 -0.4574 -4.2889
  609SOL    HW2 1827   2.748   0.345   1.341 -0.5921  0.7176  0.7509
  610SOL     OW 1828   0.448   2.659   0.729 -0.2722 -0.8240 -0.2296
  610SOL    HW1 1829   0.517   2.633   0.805 -0.3005 -2.8588  1.4581
  610SOL    HW2 1830   0.437   2.585   0.659  1.0513  0.5406 -0.1631
  611SOL     OW 1831   1.643   0.805   3.015 -0.0978  0.0821 -0.6063
  611SOL    HW1 1832   1.705   0.868   3.066 -1.7994  0.2463  2.3122
  611SOL    HW2 1833   1.649   0.822   2.913  0.3435  2.1159  1.3976
  612SOL     OW 1834   0.719   2.095   1.787 -0.1984 -0.5291 -0.2342
  612SOL    HW1 1835   0.652   2.129   1.861 -0.5837 -0.8097  0.6578
  612SOL    HW2 1836   0.748   2.162   1.721  2.7927 -0.2063  1.1327
  613SOL     OW 1837   0.433   2.481   0.514  0.0105  0.0540 -0.0418
  613SOL    HW1 1838   0.456   2.385   0.529  0.4634  0.7427 -1.1969
  613SOL    HW2 1839   0.431   2.510   0.416 -1.0780  0.0030 -0.4847
  614SOL     OW 1840   2.419   3.002   1.520  0.2991 -0.6536 -0.5331
  614SOL    HW1 1841   2.461   3.024   1.612 -0.3208  1.8215  0.0868
  614SOL    HW2 1842   2.315   3.009   1.519  0.0568 -0.3863 -1.5577
  615SOL     OW 1843   1.753   1.133   0.243  0.1713 -0.1726  0.1957
  615SOL    HW1 1844   1.713   1.197   0.309  1.9927 -1.8569  1.0207
  615SOL    HW2 1845   1.855   1.136   0.246  0.2608  2.3543  0.1015
  616SOL     OW 1846   1.904   0.669   0.223 -0.2529 -0.7208 -0.3123
  616SOL    HW1 1847   1.964   0.702   0.145  0.4503 -1.0797  0.8966
  616SOL    HW2 1848   1.829   0.614   0.190 -0.4279  3.6087  0.5423
  617SOL     OW 1849   0.939   0.835   2.954 -0.3367  0.4697 -0.1549
  617SOL    HW1 1850   1.025   0.860   2.908 -0.7337  2.0750  1.2915
  617SOL    HW2 1851   0.945   0.746   3.008  0.2340 -0.5150  0.3816
  618SOL     OW 1852   0.647   2.986   1.970  0.1573 -0.1721  0.7614
  618SOL    HW1 1853   0.649   2.910   2.034  0.1134 -1.5164  1.6952
  618SOL    HW2 1854   0.651   2.955   1.874 -1.0186  1.6454 -1.4201
  619SOL     OW 1855   2.930   1.471   1.292  0.3737  0.2251 -0.1611
  619SOL    HW1 1856   2.955   1.449   1.391  2.5189  1.2524 -0.1690
  619SOL    HW2 1857   2.866   1.555   1.289 -0.0356  2.3795  3.4691
  620SOL     OW 1858   2.693   0.966   3.007  0.3878 -0.2095  0.0038
  620SOL    HW1 1859   2.594   0.965   3.040  1.6827  1.2174 -2.1473
  620SOL    HW2 1860   2.730   0.885   3.047  0.2112  0.4259  1.0782
  621SOL     OW 1861   2.296   2.356   1.900  0.1767  0.1233  0.1494
  621SOL    HW1 1862   2.361   2.278   1.897  3.0887  1.8273 -1.1282
  621SOL    HW2 1863   2.255   2.354   1.994  0.2112  0.9931  2.4970
  622SOL     OW 1864   0.898   0.452   2.258  0.2479 -0.5620 -0.2414
  622SOL    HW1 1865   0.871   0.386   2.326  0.2221  2.7897 -0.2485
  622SOL    HW2 1866   0.877   0.553   2.291 -0.5135  0.0301  1.5537
  623SOL     OW 1867   1.086   0.885   2.619  0.4064  0.0497 -0.2256
  623SOL    HW1 1868   1.055   0.789   2.605 -0.3079  0.4850  1.4824
  623SOL    HW2 1869   1.131   0.899   2.712  0.7163  2.6369  0.9332
  624SOL     OW 1870   2.576   0.829   0.354  0.2512 -0.3639 -0.1877
  624SOL    HW1 1871   2.578   0.930   0.359 -0.8759 -0.5922  1.9091
  624SOL    HW2 1872   2.610   0.784   0.441  1.5417  2.3614  0.5272
  625SOL     OW 1873   0.946   1.349   0.532  0.0655 -0.2350  0.7896
  625SOL    HW1 1874   0.993   1.376   0.617  1.0271  1.7412 -1.3622
  625SOL    HW2 1875   0.955   1.427   0.469  1.4156 -1.6403  1.1634
  626SOL     OW 1876   1.712   0.910   2.704  0.3170  0.0764  0.3676
  626SOL    HW1 1877   1.802   0.859   2.701  2.3715 -1.7195 -2.1772
  626SOL    HW2 1878   1.719   0.982   2.781  1.0362  0.2634  0.9554
  627SOL     OW 1879   0.948   2.891   2.911  0.9791  0.2169  0.1488
  627SOL    HW1 1880   0.950   2.960   2.834 -3.7699  0.2911 -1.9690
  627SOL    HW2 1881   0.936   2.942   3.001  0.2974  0.8888  2.6448
  628SOL     OW 1882   2.189   0.172   2.361  0.4836  0.1276  0.6291
  628SOL    HW1 1883   2.286   0.154   2.343 -0.2205  1.2101 -1.5957
  628SOL    HW2 1884   2.173   0.244   2.434 -0.2040 -0.5404  2.3887
  629SOL     OW 1885   0.809   0.407   3.017  0.1311 -0.3720  0.1017
  629SOL    HW1 1886   0.721   0.420   2.965 -0.9841  0.1775 -1.7050
  629SOL    HW2 1887   0.851   0.494   3.037 -0.2161 -0.2933 -4.0462
  630SOL     OW 1888   0.971   0.421   2.776  0.0302 -0.4012  0.1975
  630SOL    HW1 1889   1.060   0.376   2.788 -1.1014 -0.8481 -1.0559
  630SOL    HW2 1890   0.918   0.430   2.866 -0.3772  0.1797  2.1687
  631SOL     OW 1891   2.422   1.110   0.672 -0.1933 -0.3030 -0.3393
  631SOL    HW1 1892   2.402   1.145   0.764 -0.3258  0.4453 -2.9662
  631SOL    HW2 1893   2.428   1.195   0.613  0.2438  1.5606 -0.2499
  632SOL     OW 1894   1.938   0.859   1.477  0.6000 -0.6153 -0.2854
  632SOL    HW1 1895   2.018   0.871   1.541  3.3335  0.5191  2.7777
  632SOL    HW2 1896   1.883   0.777   1.500  0.6862  1.7756  0.1728
  633SOL     OW 1897   0.928   1.616   0.441 -0.9730 -0.3185 -0.1762
  633SOL    HW1 1898   0.859   1.678   0.389  1.5282 -2.1511 -1.8262
  633SOL    HW2 1899   1.025   1.641   0.411 -0.6214 -0.2860 -0.4110
  634SOL     OW 1900   2.204   0.230   1.358 -0.2846  0.1445 -0.2185
  634SOL    HW1 1901   2.114   0.198   1.390 -2.6405  1.6930  1.5208
  634SOL    HW2 1902   2.277   0.233   1.433  0.5365  0.7066  0.6909
  635SOL     OW 1903   1.869   0.589   1.240 -0.1663  0.5738  0.5102
  635SOL    HW1 1904   1.799   0.649   1.290  0.4457 -1.4419 -0.6730
  635SOL    HW2 1905   1.863   0.603   1.138 -1.6032 -0.8561 -1.2210
  636SOL     OW 1906   0.860   1.081   0.574 -0.4052  0.4218  0.5650
  636SOL    HW1 1907   0.796   1.089   0.657  1.2520 -0.1896  1.2920
  636SOL    HW2 1908   0.898   1.167   0.546  0.1980 -3.7053  2.4776
  637SOL     OW 1909   2.553   2.241   2.739  0.1564 -0.1987  0.4426
  637SOL    HW1 1910   2.551   2.150   2.790 -0.4268 -1.0269  2.5223
  637SOL    HW2 1911   2.467   2.263   2.688 -1.2668  0.9300 -2.8829
  638SOL     OW 1912   1.544   2.738   2.662 -0.0085  0.4249 -0.5436
  638SOL    HW1 1913   1.631   2.679   2.667 -0.6182 -1.5235 -1.0080
  638SOL    HW2 1914   1.490   2.736   2.742  0.2800 -1.8043 -3.6058
  639SOL     OW 1915   1.395   1.878   1.367  0.2500 -0.2020 -0.3476
  639SOL    HW1 1916   1.303   1.875   1.330 -1.4164 -0.0903  3.0930
  639SOL    HW2 1917   1.451   1.956   1.331 -0.7302  2.2480  1.4551
  640SOL     OW 1918   2.631   2.801   0.268  0.2257  0.3253  0.3510
  640SOL    HW1 1919   2.578   2.718   0.276  1.5824  1.6054 -1.9365
  640SOL    HW2 1920   2.706   2.791   0.341 -0.1937 -1.0939  4.5546
  641SOL     OW 1921   0.016   2.834   0.190  0.1340 -0.5094  0.0077
  641SOL    HW1 1922   0.068   2.769   0.245 -0.0995  0.2740 -3.1393
  641SOL    HW2 1923   3.102   2.908   0.253  1.1245  0.6791  0.9864
  642SOL     OW 1924   2.857   1.002   1.271  0.1366  0.2557 -0.3001
  642SOL    HW1 1925   2.814   0.941   1.199  1.6542 -3.4912 -1.3385
  642SOL    HW2 1926   2.844   1.100   1.243  0.2674  1.8143  2.6862
  643SOL     OW 1927   0.978   1.807   2.106  0.2450 -0.1424  0.1754
  643SOL    HW1 1928   0.975   1.877   2.027 -0.7511  4.3790  0.5618
  643SOL    HW2 1929   1.039   1.829   2.181 -2.0642 -2.4243  1.2812
  644SOL     OW 1930   1.760   2.362   0.582 -0.5293  0.3310  0.5359
  644SOL    HW1 1931   1.811   2.295   0.639  1.3452  1.2287  1.1700
  644SOL    HW2 1932   1.806   2.451   0.586 -0.3845  1.1168 -0.2711
  645SOL     OW 1933   2.076   1.967   1.035 -0.1673  0.1890 -0.2879
  645SOL    HW1 1934   2.005   1.946   0.961  2.2246  1.9337 -1.7147
  645SOL    HW2 1935   2.082   2.064   1.057  0.2262  0.6469 -0.6898
  646SOL     OW 1936   1.139   2.725   3.029  0.3482 -0.3570 -0.1527
  646SOL    HW1 1937   1.203   2.704   2.954  1.0953  0.9275 -2.0934
  646SOL    HW2 1938   1.053   2.775   2.991 -1.5108  0.4197 -4.0451
  647SOL     OW 1939   0.304   2.793   1.904 -0.2887  0.1738  0.0297
  647SOL    HW1 1940   0.286   2.880   1.858 -1.1390 -0.1912  0.9528
  647SOL    HW2 1941   0.397   2.761   1.893 -0.7122  0.7320  2.7999
  648SOL     OW 1942   1.730   0.684   0.967 -0.0627 -0.1208  0.4410
  648SOL    HW1 1943   1.763   0.616   0.901  0.8513 -0.3888  2.4181
  648SOL    HW2 1944   1.805   0.752   0.986  1.0451  4.0506  1.4096
  649SOL     OW 1945   1.438   2.148   0.000 -0.2390 -0.1766  0.1575
  649SOL    HW1 1946   1.467   2.249   0.013  1.6313  0.8293 -0.3897
  649SOL    HW2 1947   1.492   2.120   3.040 -0.2363  2.5048  0.0854
  650SOL     OW 1948   2.333   1.676   1.962 -0.1551  0.0338 -0.4586
  650SOL    HW1 1949   2.281   1.747   2.014  2.5989 -0.6172 -3.1009
  650SOL    HW2 1950   2.292   1.585   1.953  3.1177 -1.9452 -0.6432
  651SOL     OW 1951   1.513   2.419   3.106 -0.6450  0.2041  0.1515
  651SOL    HW1 1952   1.467   2.400   3.016  0.6367  1.2646  0.3420
  651SOL    HW2 1953   1.474   2.497   0.035 -0.2431  1.5340 -2.0839
  652SOL     OW 1954   0.348   2.208   0.295  0.1307 -0.0940 -0.3657
  652SOL    HW1 1955   0.271   2.201   0.364  0.7826 -0.3697  0.8498
  652SOL    HW2 1956   0.347   2.288   0.237 -0.3752 -0.5317 -4.2195
  653SOL     OW 1957   2.445   2.081   1.185 -0.3339  0.0386  0.4963
  653SOL    HW1 1958   2.479   2.159   1.241 -1.8805 -0.8009  0.7653
  653SOL    HW2 1959   2.392   2.022   1.248  1.5062  1.1754 -0.1097
  654SOL     OW 1960   2.810   2.696   1.362  0.6797  0.5407  0.2447
  654SOL    HW1 1961   2.890   2.742   1.406 -2.2569  0.5054 -1.6459
  654SOL    HW2 1962   2.826   2.594   1.348  1.1043 -0.2153 -2.2378
  655SOL     OW 1963   0.031   2.171   1.270  0.4929 -0.0883  0.3384
  655SOL    HW1 1964   0.125   2.189   1.306 -2.0171 -0.1734  0.9461
  655SOL    HW2 1965   0.014   2.238   1.192  0.2418 -0.6293  0.2443
  656SOL     OW 1966   0.022   2.828   2.581  0.0693 -0.8297 -0.4202
  656SOL    HW1 1967   3.070   2.819   2.509  0.4935  0.2855 -3.0999
  656SOL    HW2 1968   0.018   2.928   2.608 -0.3773  2.0065 -2.1977
  657SOL     OW 1969   0.005   0.779   0.034 -0.5860 -0.0511  0.3841
  657SOL    HW1 1970   3.030   0.756   0.032 -2.3469  0.7480 -1.5848
  657SOL    HW2 1971   0.020   0.854   0.102  1.3925  1.3410  0.7720
  658SOL     OW 1972   1.845   1.975   0.880 -0.2498 -0.3267  0.3695
  658SOL    HW1 1973   1.850   1.895   0.814 -0.7520 -0.4989  2.1596
  658SOL    HW2 1974   1.756   1.974   0.927  0.8521  1.0695  0.4710
  659SOL     OW 1975   1.514   0.514   1.338 -0.2413  0.0956  0.4053
  659SOL    HW1 1976   1.457   0.594   1.336  2.7079 -2.2124 -0.8431
  659SOL    HW2 1977   1.504   0.464   1.251  1.9478 -0.2091  2.2419
  660SOL     OW 1978   1.759   1.519   3.106 -0.2894  0.0977  0.2805
  660SOL    HW1 1979   1.782   1.533   0.079 -2.4719 -1.0922 -4.2068
  660SOL    HW2 1980   1.665   1.489   3.102  3.1604  1.8720 -1.2440
  661SOL     OW 1981   0.146   2.005   0.157 -0.6635  0.1414  0.5074
  661SOL    HW1 1982   0.220   2.051   0.211 -1.0795  0.4641 -0.4485
  661SOL    HW2 1983   0.071   1.978   0.225  1.5410 -1.5820  1.9846
  662SOL     OW 1984   0.153   0.577   2.171 -0.0237  0.4440  0.4325
  662SOL    HW1 1985   0.133   0.633   2.254  0.7159 -0.6975  0.5951
  662SOL    HW2 1986   0.193   0.633   2.099  2.5495  0.5074  0.0018
  663SOL     OW 1987   1.875   1.320   0.714 -0.5076  0.0990 -0.2950
  663SOL    HW1 1988   1.860   1.227   0.760  2.4693 -3.9551 -1.0153
  663SOL    HW2 1989   1.977   1.342   0.722  0.0175  0.2059 -0.9105
  664SOL     OW 1990   0.782   0.512   1.150  0.7699 -0.0487 -0.7339
  664SOL    HW1 1991   0.853   0.574   1.111  0.0613 -2.2221  0.2507
  664SOL    HW2 1992   0.720   0.476   1.081  1.9941  1.6859 -0.4604
  665SOL     OW 1993   1.024   3.087   0.245  0.0070 -0.0770  0.1350
  665SOL    HW1 1994   1.053   3.007   0.306 -1.5006 -0.2048  1.3781
  665SOL    HW2 1995   1.101   0.031   0.230  2.6600  0.5974  1.2063
  666SOL     OW 1996   3.112   0.367   2.633 -0.1278 -0.1558 -0.0961
  666SOL    HW1 1997   0.071   0.309   2.647 -1.7980 -0.2662 -2.9304
  666SOL    HW2 1998   3.045   0.337   2.703 -0.2613 -1.9479  1.5714
  667SOL     OW 1999   2.399   2.030   2.024  0.2732  0.0086  0.2427
  667SOL    HW1 2000   2.402   2.092   2.108  1.1792  0.4673  0.3960
  667SOL    HW2 2001   2.319   1.971   2.037 -1.8336 -0.1230  2.2809
  668SOL     OW 2002   0.667   1.511   2.595  0.0786  0.3351 -0.3993
  668SOL    HW1 2003   0.651   1.606   2.625  1.1404 -2.6015 -2.2970
  668SOL    HW2 2004   0.591   1.443   2.601 -1.9556  0.0488 -1.4813
  669SOL     OW 2005   2.108   2.692   2.428 -0.3082  0.5720  0.2154
  669SOL    HW1 2006   2.104   2.728   2.336  1.1456 -1.5555  0.3735
  669SOL    HW2 2007   2.024   2.648   2.453  1.8980  1.2662  1.3059
  670SOL     OW 2008   2.356   0.863   2.469  0.3925  0.0006 -0.0706
  670SOL    HW1 2009   2.400   0.857   2.380  2.8012  0.5047 -1.0570
  670SOL    HW2 2010   2.329   0.959   2.488 -0.0223  0.5665 -0.4403
  671SOL     OW 2011   2.387   1.208   0.067 -0.0658 -0.2487  0.0327
  671SOL    HW1 2012   2.409   1.131   0.007  2.2197  2.6040  1.8643
  671SOL    HW2 2013   2.469   1.274   0.070 -0.8940  2.8731  1.4029
  672SOL     OW 2014   2.511   1.214   2.491 -0.3750 -0.2803 -0.2015
  672SOL    HW1 2015   2.572   1.260   2.563  4.0634 -1.3529  1.0582
  672SOL    HW2 2016   2.574   1.175   2.417  0.9679 -1.6370 -0.3394
  673SOL     OW 2017   2.503   1.081   1.482 -0.6908  0.6784 -0.0455
  673SOL    HW1 2018   2.546   1.162   1.443 -0.1751 -1.6232  0.2359
  673SOL    HW2 2019   2.575   1.009   1.493 -1.5335  0.4946  1.4583
  674SOL     OW 2020   1.901   1.810   1.925  0.0692 -0.0676  0.3647
  674SOL    HW1 2021   1.970   1.741   1.909 -1.1975 -0.3957  0.3519
  674SOL    HW2 2022   1.863   1.830   1.833  0.8791 -1.4194 -2.0470
  675SOL     OW 2023   0.086   0.549   0.857 -0.0751  0.0428  0.0326
  675SOL    HW1 2024   0.093   0.616   0.780  0.7697 -0.1186 -5.0040
  675SOL    HW2 2025   0.128   0.595   0.935 -1.3061 -2.3936 -3.0849
  676SOL     OW 2026   2.042   0.952   1.227 -0.0757 -0.1538  0.2387
  676SOL    HW1 2027   2.040   1.055   1.209  1.9028  2.5011  0.0541
  676SOL    HW2 2028   2.024   0.931   1.328  1.2684 -2.0986  6.2806
  677SOL     OW 2029   1.911   1.481   2.285  0.4834  0.3040  0.6035
  677SOL    HW1 2030   1.830   1.430   2.248  2.2845 -1.1332 -1.6159
  677SOL    HW2 2031   1.889   1.584   2.296 -1.7208 -0.7880 -0.4829
  678SOL     OW 2032   0.042   1.846   0.841 -0.0951 -0.5362 -0.5430
  678SOL    HW1 2033   0.003   1.863   0.936 -0.9500 -0.7740  2.3601
  678SOL    HW2 2034   3.083   1.824   0.778  1.5078  1.4672 -2.1339
  679SOL     OW 2035   2.873   2.780   0.394 -0.1914  0.1019  0.0641
  679SOL    HW1 2036   2.904   2.869   0.353 -0.4188 -0.5350  0.4489
  679SOL    HW2 2037   2.912   2.768   0.489 -2.2761 -2.9970 -0.1518
  680SOL     OW 2038   0.284   2.459   1.249  0.0629 -0.2630 -0.5737
  680SOL    HW1 2039   0.359   2.414   1.296 -1.8899  1.5865  0.8148
  680SOL    HW2 2040   0.295   2.467   1.149  1.1384  2.3620 -0.9813
  681SOL     OW 2041   0.640   1.081   1.207 -0.1171  0.5394 -0.1563
  681SOL    HW1 2042   0.743   1.091   1.208  0.4258  0.1762  0.7528
  681SOL    HW2 2043   0.602   1.041   1.293  1.0880  0.0910  0.9102
  682SOL     OW 2044   1.737   2.673   1.168 -0.0923 -0.2227 -0.0506
  682SOL    HW1 2045   1.809   2.642   1.103 -0.6580  2.5874 -0.3172
  682SOL    HW2 2046   1.699   2.762   1.135  1.5303 -0.9010  2.4084
  683SOL     OW 2047   2.175   1.247   1.250 -0.4097 -0.3218 -0.4355
  683SOL    HW1 2048   2.189   1.315   1.328  0.9686  1.2613  2.5471
  683SOL    HW2 2049   2.261   1.194   1.229 -0.2137 -0.9961  0.3178
  684SOL     OW 2050   0.920   2.061   1.986  0.1876  0.3205 -0.3395
  684SOL    HW1 2051   0.854   2.044   1.909 -0.7424  2.2104 -0.4569
  684SOL    HW2 2052   0.891   2.125   2.060  1.3675 -2.0040 -0.5414
  685SOL     OW 2053   2.346   1.691   0.011  0.0271  0.0647 -0.0030
  685SOL    HW1 2054   2.437   1.655   3.099 -0.8359  0.9404 -0.3781
  685SOL    HW2 2055   2.279   1.614   0.009  0.0349  1.0596 -1.4882
  686SOL     OW 2056   0.027   0.505   0.294 -0.1578  0.5921 -0.1370
  686SOL    HW1 2057   0.022   0.400   0.301  3.0842 -0.7055 -0.7391
  686SOL    HW2 2058   3.068   0.554   0.331 -0.7001  0.5118 -2.6711
  687SOL     OW 2059   1.108   2.899   0.400 -0.0361 -0.5303  0.6639
  687SOL    HW1 2060   1.027   2.829   0.401 -2.7469 -0.8803  1.7732
  687SOL    HW2 2061   1.179   2.868   0.463 -1.8223  0.7150  0.0763
  688SOL     OW 2062   1.949   1.925   2.173 -0.0601  0.1664 -0.2341
  688SOL    HW1 2063   1.928   1.907   2.074  1.2896 -0.1589 -0.6168
  688SOL    HW2 2064   1.886   1.869   2.239  2.8536 -4.5420  2.2389
  689SOL     OW 2065   2.652   1.191   1.949 -0.1012  0.2141 -0.0350
  689SOL    HW1 2066   2.562   1.170   1.990 -2.8284  1.2460 -2.1947
  689SOL    HW2 2067   2.635   1.237   1.860  2.0879 -1.3062 -0.5718
  690SOL     OW 2068   1.848   1.097   0.869  0.0232  0.6235  0.3759
  690SOL    HW1 2069   1.836   1.026   0.941  2.0052 -1.7094 -1.3571
  690SOL    HW2 2070   1.900   1.063   0.790 -0.9891  0.3108  0.7263
  691SOL     OW 2071   1.153   1.285   1.305  0.3652  0.1963 -0.0391
  691SOL    HW1 2072   1.147   1.209   1.237 -0.3103 -0.7693 -2.1859
  691SOL    HW2 2073   1.105   1.249   1.390  0.8947  1.9683  2.3566
  692SOL     OW 2074   1.494   0.347   2.174  0.3117  0.3289 -0.0062
  692SOL    HW1 2075   1.534   0.435   2.210  1.6528  3.2140  0.1851
  692SOL    HW2 2076   1.557   0.309   2.099 -0.1354 -0.1320 -2.5996
  693SOL     OW 2077   0.263   1.112   3.027 -0.7684  0.0483 -0.3182
  693SOL    HW1 2078   0.272   1.193   3.089  0.9879  0.4243  0.8550
  693SOL    HW2 2079   0.350   1.052   3.035  0.1362  0.1679 -2.8388
  694SOL     OW 2080   2.241   2.608   0.678 -0.0017  0.2628  0.5640
  694SOL    HW1 2081   2.190   2.696   0.680 -0.5098 -1.3759 -1.3416
  694SOL    HW2 2082   2.213   2.551   0.600  1.7317 -1.3603  1.6739
  695SOL     OW 2083   1.718   1.113   2.915  0.2710 -0.1742 -0.3773
  695SOL    HW1 2084   1.689   1.123   3.012  0.3115 -1.7010  1.9847
  695SOL    HW2 2085   1.779   1.191   2.890  0.6510 -1.1703  0.9595
  696SOL     OW 2086   1.543   0.299   1.546 -0.0675 -0.1825 -0.3354
  696SOL    HW1 2087   1.538   0.376   1.484 -0.8633 -1.6373  2.9981
  696SOL    HW2 2088   1.633   0.295   1.598 -1.1305  0.3646 -0.3567
  697SOL     OW 2089   1.269   0.347   2.012  0.1555  0.3149 -0.1179
  697SOL    HW1 2090   1.323   0.344   1.926 -0.5832  0.9233  0.2467
  697SOL    HW2 2091   1.328   0.332   2.096 -1.2137 -0.5487  1.3860
  698SOL     OW 2092   2.046   1.280   2.570  0.2666  0.0871  0.4396
  698SOL    HW1 2093   2.101   1.367   2.545  3.2153  3.6441  1.3543
  698SOL    HW2 2094   1.951   1.274   2.528 -0.6347 -0.8827  0.2482
  699SOL     OW 2095   1.566   1.244   1.031 -1.0024 -0.1619 -0.5844
  699SOL    HW1 2096   1.571   1.345   1.044  1.8682  0.3903  0.4490
  699SOL    HW2 2097   1.638   1.216   0.964  0.8132  1.8233 -0.0782
  700SOL     OW 2098   1.725   2.911   0.241  0.4011 -0.3107  0.0403
  700SOL    HW1 2099   1.746   2.815   0.267 -0.7702  0.4285 -3.0475
  700SOL    HW2 2100   1.625   2.930   0.236  0.1869  0.5927 -1.7500
  701SOL     OW 2101   0.488   0.180   1.356 -0.4241 -0.2780  1.1012
  701SOL    HW1 2102   0.479   0.079   1.330 -0.2413 -3.2998  2.3068
  701SOL    HW2 2103   0.567   0.184   1.417  0.4945  0.5102  0.2873
  702SOL     OW 2104   1.480   2.974   1.184 -0.2164  0.1208 -0.5978
  702SOL    HW1 2105   1.572   3.015   1.212 -1.6148  0.7362 -1.2641
  702SOL    HW2 2106   1.398   3.032   1.203  1.2023 -3.8286 -1.6418
  703SOL     OW 2107   2.433   0.057   2.105 -0.5093 -0.3957 -0.0923
  703SOL    HW1 2108   2.436   0.016   2.201  1.5921 -0.8138  2.2439
  703SOL    HW2 2109   2.514   0.022   2.058 -1.0691  1.7621  1.9405
  704SOL     OW 2110   1.262   1.618   0.957 -0.0176 -0.4163  0.4793
  704SOL    HW1 2111   1.215   1.693   0.907 -0.9454  0.3964 -1.1868
  704SOL    HW2 2112   1.205   1.586   1.040 -1.6944 -0.7508  2.2600
  705SOL     OW 2113   3.006   1.738   2.191  0.1993 -0.4565  0.6967
  705SOL    HW1 2114   2.910   1.767   2.179  1.9458 -2.3587  3.1318
  705SOL    HW2 2115   3.027   1.719   2.291  1.0178  0.9065 -0.8580
  706SOL     OW 2116   1.432   2.974   0.661 -0.2150 -0.1675 -0.2298
  706SOL    HW1 2117   1.366   2.895   0.647 -2.3561 -3.6149 -2.6774
  706SOL    HW2 2118   1.440   3.032   0.583  1.5078 -1.3366  2.1151
  707SOL     OW 2119   1.003   2.603   2.521  0.1364  0.2472  0.5151
  707SOL    HW1 2120   0.938   2.595   2.446 -0.3268  1.2840  0.6140
  707SOL    HW2 2121   1.023   2.509   2.549  0.1180  0.0285 -0.2128
  708SOL     OW 2122   0.531   2.147   1.531 -0.2895 -0.0967  0.2789
  708SOL    HW1 2123   0.481   2.097   1.604  0.1632  0.6826 -0.1796
  708SOL    HW2 2124   0.632   2.144   1.543 -2.4590 -0.7929  0.3346
  709SOL     OW 2125   2.490   0.858   2.225 -0.5019  0.3500  0.4547
  709SOL    HW1 2126   2.593   0.861   2.222 -2.7623 -1.3518 -1.7701
  709SOL    HW2 2127   2.457   0.801   2.144  0.6974 -0.9174 -0.2524
  710SOL     OW 2128   2.948   0.471   1.686 -0.3435 -0.2029 -0.1417
  710SOL    HW1 2129   2.925   0.464   1.585 -0.0833  1.0937  1.0443
  710SOL    HW2 2130   3.049   0.453   1.692 -1.5984 -1.1321  0.9262
  711SOL     OW 2131   2.922   2.341   0.349  0.1038  0.3653  0.0477
  711SOL    HW1 2132   2.906   2.332   0.451  0.1303  2.1609 -1.3272
  711SOL    HW2 2133   2.987   2.410   0.323 -3.7762  0.5558 -1.0182
  712SOL     OW 2134   0.365   2.558   2.522 -0.0327  0.0072  0.0304
  712SOL    HW1 2135   0.415   2.646   2.530 -1.6901 -2.0769  2.0263
  712SOL    HW2 2136   0.285   2.562   2.583 -1.3503 -0.8095  0.5606
  713SOL     OW 2137   2.056   0.742   3.103  0.0671 -0.2869  0.3428
  713SOL    HW1 2138   1.990   0.817   3.105  0.4299 -2.6297  1.5227
  713SOL    HW2 2139   2.026   0.658   3.047 -1.2863 -3.4908 -0.5750
  714SOL     OW 2140   1.409   2.303   0.410  0.2660  0.3428 -0.1082
  714SOL    HW1 2141   1.416   2.206   0.391 -3.8507  3.2423  0.4713
  714SOL    HW2 2142   1.449   2.330   0.500  0.3621 -1.2622 -2.0920
  715SOL     OW 2143   0.091   0.055   0.440  0.3625  0.1846  0.1319
  715SOL    HW1 2144   0.043   0.145   0.421 -1.4074  2.5933 -0.7820
  715SOL    HW2 2145   0.179   0.048   0.391  1.1691 -0.3585  0.0715
  716SOL     OW 2146   0.582   0.009   2.202 -0.4704 -0.5836 -0.5070
  716SOL    HW1 2147   0.481   0.008   2.204 -0.9812  2.9610 -1.4324
  716SOL    HW2 2148   0.606   3.089   2.110 -0.1450  0.9047  0.3974
  717SOL     OW 2149   0.407   0.412   0.050  0.3838 -0.1082  0.2837
  717SOL    HW1 2150   0.406   0.316   0.020  0.2281  0.7834 -0.5696
  717SOL    HW2 2151   0.322   0.458   0.019 -0.1060  0.7536 -2.2417
  718SOL     OW 2152   1.079   0.529   0.542  0.0725 -0.1509 -0.0053
  718SOL    HW1 2153   1.135   0.590   0.605 -1.4209  1.2210  2.1598
  718SOL    HW2 2154   1.124   0.441   0.533  0.4477  3.9440 -0.7105
  719SOL     OW 2155   2.257   2.279   2.698  0.6495  0.0356 -0.1241
  719SOL    HW1 2156   2.226   2.374   2.706  0.9377 -2.5603 -0.8679
  719SOL    HW2 2157   2.241   2.236   2.787 -0.0393  0.4058  1.3324
  720SOL     OW 2158   1.716   1.011   2.079  0.0823  0.1817  0.4615
  720SOL    HW1 2159   1.763   0.970   2.000  0.4059  0.9540 -2.5667
  720SOL    HW2 2160   1.744   0.980   2.175  1.3759  1.9412 -0.0703
  721SOL     OW 2161   2.817   0.209   1.008 -0.4026 -0.2983 -0.4410
  721SOL    HW1 2162   2.800   0.310   1.007  0.7615  2.7032 -2.0547
  721SOL    HW2 2163   2.872   0.187   0.923  2.9118  0.9639 -1.3060
  722SOL     OW 2164   1.289   2.096   2.347 -0.4402 -0.4224 -0.3069
  722SOL    HW1 2165   1.362   2.148   2.299  0.2001 -0.9607 -0.4167
  722SOL    HW2 2166   1.299   2.099   2.449  1.9277 -1.3611 -0.0958
  723SOL     OW 2167   1.112   0.277   0.669 -0.3032  0.5194  0.2229
  723SOL    HW1 2168   1.104   0.305   0.767  1.7875 -0.2504 -1.3986
  723SOL    HW2 2169   1.206   0.229   0.665  2.8742  0.2923 -0.5067
  724SOL     OW 2170   0.825   2.022   2.435  0.6642  0.4379  0.1200
  724SOL    HW1 2171   0.758   2.056   2.503 -0.7741  0.8106 -0.9376
  724SOL    HW2 2172   0.827   1.918   2.429 -1.7773 -3.2210  1.1978
  725SOL     OW 2173   0.059   0.721   1.234 -0.0330  0.1826 -0.0387
  725SOL    HW1 2174   0.046   0.821   1.217  1.0871  3.4077  1.3857
  725SOL    HW2 2175   0.140   0.688   1.179  2.3474 -1.7066 -2.2124
  726SOL     OW 2176   1.760   0.033   0.569 -0.9243  0.2642 -0.0107
  726SOL    HW1 2177   1.846   0.024   0.514 -0.2576  1.0219 -0.0362
  726SOL    HW2 2178   1.759   3.086   0.643  1.6151  2.5581  1.3688
  727SOL     OW 2179   2.079   1.060   2.322 -0.1909  0.3407  0.0675
  727SOL    HW1 2180   2.073   1.159   2.298 -1.3588  1.9186  0.5524
  727SOL    HW2 2181   2.146   1.041   2.398  2.9214  1.9553  1.8425
  728SOL     OW 2182   1.749   2.785   1.731 -0.3779  0.2687  0.5290
  728SOL    HW1 2183   1.693   2.873   1.730 -1.0435 -1.6712  1.9708
  728SOL    HW2 2184   1.791   2.766   1.638 -0.6171  0.9019 -0.5291
  729SOL     OW 2185   1.862   0.397   1.992  0.2492 -0.0302 -0.6460
  729SOL    HW1 2186   1.923   0.406   2.072  0.4309 -1.6426  0.4244
  729SOL    HW2 2187   1.830   0.489   1.952  2.6398 -0.9161  0.1295
  730SOL     OW 2188   0.815   1.477   1.393  0.5467 -0.2007 -0.0876
  730SOL    HW1 2189   0.746   1.520   1.452 -2.6682 -0.8686 -0.0562
  730SOL    HW2 2190   0.774   1.460   1.302  1.8428 -0.9365 -1.0076
  731SOL     OW 2191   0.493   2.906   0.249  0.1643 -0.0982  0.1892
  731SOL    HW1 2192   0.532   2.883   0.342  1.6556  2.7937  1.0634
  731SOL    HW2 2193   0.434   2.987   0.254  0.3705 -2.0353  0.5997
  732SOL     OW 2194   0.661   0.715   0.307 -0.5338  0.5327  0.2146
  732SOL    HW1 2195   0.707   0.627   0.295 -4.3383  0.1787  1.7361
  732SOL    HW2 2196   0.626   0.733   0.402  2.1164 -0.2267  0.3449
  733SOL     OW 2197   1.566   1.542   1.911 -0.1182  0.4385  0.4672
  733SOL    HW1 2198   1.531   1.459   1.954  0.4322 -1.3683 -2.0660
  733SOL    HW2 2199   1.515   1.551   1.821 -0.0017  0.6406 -1.2828
  734SOL     OW 2200   3.082   2.483   2.040  0.4712  0.2045  0.3201
  734SOL    HW1 2201   0.039   2.509   1.985 -0.4121  2.0024  3.7709
  734SOL    HW2 2202   3.006   2.551   2.024 -1.8610 -2.2329  2.5126
  735SOL     OW 2203   1.138   3.009   0.991 -0.4994  0.0390 -0.1639
  735SOL    HW1 2204   1.132   2.909   0.968  1.0440 -0.1908 -0.9869
  735SOL    HW2 2205   1.228   3.047   0.953  1.0836 -0.6408  0.6153
  736SOL     OW 2206   1.185   0.940   2.906  0.2792 -0.1316 -0.3593
  736SOL    HW1 2207   1.256   0.891   2.960  1.4026 -1.9400  1.3448
  736SOL    HW2 2208   1.169   1.034   2.943  0.3528 -1.2401 -0.0758
  737SOL     OW 2209   0.160   1.059   0.560 -0.0508  0.1083  0.6214
  737SOL    HW1 2210   0.244   1.011   0.590  3.5947  0.7400  0.9925
  737SOL    HW2 2211   0.159   1.092   0.465  0.2721 -0.2911  1.3047
  738SOL     OW 2212   0.510   2.804   1.488 -0.4341  0.4155  0.1605
  738SOL    HW1 2213   0.556   2.707   1.489 -0.4198 -2.2609 -0.2786
  738SOL    HW2 2214   0.410   2.809   1.475  0.9359  1.5441  0.2811
  739SOL     OW 2215   1.516   2.685   0.247  0.0051  0.5311  0.1754
  739SOL    HW1 2216   1.519   2.678   0.349 -0.1217 -1.7027  1.9079
  739SOL    HW2 2217   1.434   2.636   0.206  1.4896 -1.8059  0.2740
  740SOL     OW 2218   1.758   2.981   1.423 -0.2406  0.3397 -0.0125
  740SOL    HW1 2219   1.666   2.987   1.464  0.3952 -1.5433  1.6736
  740SOL    HW2 2220   1.797   2.889   1.447  0.9797 -1.4104  0.9303
  741SOL     OW 2221   2.017   0.232   0.677  0.0348  0.9131 -0.1077
  741SOL    HW1 2222   2.049   0.269   0.769  0.2526  0.3442  1.3815
  741SOL    HW2 2223   1.970   0.302   0.621  0.6962 -3.1425  1.2434
  742SOL     OW 2224   0.822   2.721   2.250 -0.2219 -0.1980  0.1606
  742SOL    HW1 2225   0.720   2.733   2.238 -3.2509  1.7421 -1.1777
  742SOL    HW2 2226   0.852   2.657   2.179  0.8677  3.4054 -0.6687
  743SOL     OW 2227   2.246   0.913   1.905  0.1156 -0.2960 -0.2842
  743SOL    HW1 2228   2.210   0.913   1.809 -0.1682 -1.5121 -1.2902
  743SOL    HW2 2229   2.305   0.837   1.924  0.1048  1.3526  0.9866
  744SOL     OW 2230   2.095   0.351   0.894 -0.1070 -0.0739  0.5312
  744SOL    HW1 2231   2.093   0.377   0.993  2.6063  0.3677  2.0214
  744SOL    HW2 2232   2.191   0.327   0.871 -0.5393  2.4589 -1.5576
  745SOL     OW 2233   2.194   1.426   1.929 -0.0132  0.0582 -0.0859
  745SOL    HW1 2234   2.247   1.355   1.877 -0.5367 -0.4152 -0.6235
  745SOL    HW2 2235   2.172   1.389   2.027 -0.4134 -0.7132  0.8913
  746SOL     OW 2236   1.422   1.606   0.482 -0.2279 -0.0061  0.4749
  746SOL    HW1 2237   1.497   1.660   0.529 -1.1176  0.3930  0.3394
  746SOL    HW2 2238   1.422   1.512   0.520 -2.1989  1.8889 -1.5211
  747SOL     OW 2239   2.113   1.527   1.259  0.1095 -0.3210  0.3427
  747SOL    HW1 2240   2.036   1.487   1.202 -0.8468  1.9959 -0.8477
  747SOL    HW2 2241   2.080   1.548   1.352 -0.9021  0.7304 -2.6232
  748SOL     OW 2242   0.174   2.674   0.382  0.1068 -0.0983  0.0122
  748SOL    HW1 2243   0.201   2.760   0.433 -0.5765  1.2960  1.7924
  748SOL    HW2 2244   0.248   2.638   0.320  0.6851 -0.5401 -0.3168
  749SOL     OW 2245   0.242   0.792   2.413 -0.2836  0.0358  0.6081
  749SOL    HW1 2246   0.336   0.833   2.398  2.2706  2.4108  1.0442
  749SOL    HW2 2247   0.171   0.844   2.367  0.8697 -3.1148  1.1824
  750SOL     OW 2248   1.303   2.939   1.880  0.0557  0.2727  0.2722
  750SOL    HW1 2249   1.271   3.028   1.835 -2.1471  0.8629  1.0708
  750SOL    HW2 2250   1.316   2.957   1.981  1.3606 -2.0133  2.2898
  751SOL     OW 2251   2.650   0.491   0.370 -0.0384 -0.0636 -1.0403
  751SOL    HW1 2252   2.557   0.533   0.349  0.9822 -1.2337 -2.0821
  751SOL    HW2 2253   2.637   0.433   0.457  1.1815  0.5633  3.9315
  752SOL     OW 2254   0.173   2.078   0.872  0.1655 -0.4447  0.1593
  752SOL    HW1 2255   0.126   1.990   0.850  1.7759  0.8580  2.6150
  752SOL    HW2 2256   0.102   2.154   0.846 -2.7021  0.7655 -0.3951
  753SOL     OW 2257   1.055   0.321   0.963 -0.4168 -0.5378  0.3045
  753SOL    HW1 2258   1.005   0.236   0.924  0.3378 -0.4609 -0.1677
  753SOL    HW2 2259   1.055   0.314   1.063 -0.0668  2.7238 -0.7318
  754SOL     OW 2260   0.710   3.112   2.458 -0.1304 -0.3019 -0.3453
  754SOL    HW1 2261   0.671   0.007   2.362 -1.1995 -0.8121  1.4589
  754SOL    HW2 2262   0.781   3.041   2.444  0.5571  1.3240 -2.7401
  755SOL     OW 2263   2.206   0.898   0.268  0.0555  0.3809  0.1185
  755SOL    HW1 2264   2.169   0.864   0.359 -0.0436  0.6596 -0.0216
  755SOL    HW2 2265   2.240   0.827   0.210  0.1995  4.1108 -0.0459
  756SOL     OW 2266   2.224   2.128   2.485 -0.1049  0.7004  0.2657
  756SOL    HW1 2267   2.249   2.031   2.509  2.0927 -0.8344 -1.0525
  756SOL    HW2 2268   2.240   2.194   2.567  1.3580 -1.3738  0.4287
  757SOL     OW 2269   1.716   0.258   0.753 -0.0356  0.6559  0.4740
  757SOL    HW1 2270   1.633   0.237   0.810 -0.5900 -1.3384  2.3192
  757SOL    HW2 2271   1.756   0.170   0.714  3.6301 -1.1413 -1.4457
  758SOL     OW 2272   1.538   2.836   0.961 -0.3639  0.1453  0.1459
  758SOL    HW1 2273   1.639   2.848   0.974 -0.1545 -0.2133  2.1880
  758SOL    HW2 2274   1.494   2.870   1.046  2.3010 -0.5274  1.7343
  759SOL     OW 2275   2.736   0.724   1.197 -0.3410 -0.5472  0.2771
  759SOL    HW1 2276   2.696   0.752   1.287 -1.2782 -1.5246 -1.1902
  759SOL    HW2 2277   2.770   0.629   1.210 -0.9680 -1.4175 -1.6521
  760SOL     OW 2278   2.394   1.122   1.217 -0.0140 -0.1599 -0.8363
  760SOL    HW1 2279   2.481   1.171   1.246  0.8933 -0.0689  2.4553
  760SOL    HW2 2280   2.400   1.025   1.249  1.2842  0.7068  1.5340
  761SOL     OW 2281   0.380   0.573   0.518  0.3782 -0.1850 -0.4129
  761SOL    HW1 2282   0.403   0.496   0.455  0.0719 -1.2557  3.0459
  761SOL    HW2 2283   0.457   0.618   0.566 -0.4130  1.2297 -2.4920
  762SOL     OW 2284   1.650   2.055   1.498  0.0401 -0.1068 -0.1351
  762SOL    HW1 2285   1.702   1.969   1.475  0.7987 -4.3090  0.7361
  762SOL    HW2 2286   1.625   2.067   1.597 -1.6748 -0.6243 -1.2048
  763SOL     OW 2287   1.195   1.477   1.865 -0.1508 -0.0949 -0.6984
  763SOL    HW1 2288   1.106   1.515   1.836 -1.0037 -0.7768  2.3953
  763SOL    HW2 2289   1.184   1.392   1.921 -2.9277 -0.7303  0.1532
  764SOL     OW 2290   3.005   1.880   2.585 -0.4379  0.0585 -0.5830
  764SOL    HW1 2291   3.007   1.974   2.550 -2.3750 -0.4041  1.1647
  764SOL    HW2 2292   3.073   1.871   2.664 -0.5004 -1.1952  0.5738
  765SOL     OW 2293   1.673   2.401   1.190 -0.4657  0.1925 -0.6841
  765SOL    HW1 2294   1.671   2.345   1.273  2.2835  0.8935  0.1734
  765SOL    HW2 2295   1.706   2.494   1.207  2.9466  0.9830 -0.1901
  766SOL     OW 2296   0.094   2.581   2.645 -0.6479 -0.4585 -0.1148
  766SOL    HW1 2297   0.062   2.676   2.613 -0.3202  0.3649  1.0847
  766SOL    HW2 2298   0.012   2.522   2.646 -0.4985 -0.4306 -0.1841
  767SOL     OW 2299   1.370   0.786   2.393 -0.2499  0.7338 -0.0571
  767SOL    HW1 2300   1.468   0.781   2.419 -2.0804  1.4974  0.6857
  767SOL    HW2 2301   1.314   0.729   2.453  0.3914  1.3541 -1.5835
  768SOL     OW 2302   1.176   2.096   0.064  0.0476 -0.3165 -0.7338
  768SOL    HW1 2303   1.273   2.109   0.032 -0.0742 -0.8837 -3.0647
  768SOL    HW2 2304   1.156   1.994   0.064  0.3523  0.5675 -1.5100
  769SOL     OW 2305   0.542   2.208   1.153 -0.3876  0.3333 -0.5646
  769SOL    HW1 2306   0.598   2.125   1.179 -0.2107  0.3949  3.2329
  769SOL    HW2 2307   0.528   2.273   1.229 -2.1066 -2.5530 -1.4534
  770SOL     OW 2308   1.698   0.592   0.055 -0.2586 -0.1064  0.0880
  770SOL    HW1 2309   1.705   0.504   0.009  0.1111  0.3592 -0.7581
  770SOL    HW2 2310   1.660   0.666   3.121  0.8784  3.0389  1.5018
  771SOL     OW 2311   0.329   3.059   2.287  0.1952  0.0094 -0.2365
  771SOL    HW1 2312   0.297   3.041   2.382 -1.0804 -0.0977  1.7811
  771SOL    HW2 2313   0.316   2.969   2.237  1.0196 -2.8929 -1.1357
  772SOL     OW 2314   2.095   2.836   2.147  0.0065  0.1495  0.3821
  772SOL    HW1 2315   2.144   2.748   2.123 -0.7876 -0.5630  1.3500
  772SOL    HW2 2316   2.158   2.909   2.115  2.2221  0.2724 -0.7151
  773SOL     OW 2317   1.187   1.896   1.581  0.7271 -0.4040  0.0124
  773SOL    HW1 2318   1.137   1.866   1.496  1.2047  2.1464  0.3096
  773SOL    HW2 2319   1.260   1.964   1.560  0.0900 -1.0170  1.7773
  774SOL     OW 2320   1.067   0.157   1.976 -0.4384 -0.1511 -0.3193
  774SOL    HW1 2321   0.989   0.222   1.961  1.5912 -1.2974 -0.6120
  774SOL    HW2 2322   1.155   0.211   2.000  1.0160 -0.7906 -0.3895
  775SOL     OW 2323   1.987   2.917   2.985  0.1152  0.7971 -0.0180
  775SOL    HW1 2324   1.985   2.872   2.894 -1.2372 -5.4049 -2.5579
  775SOL    HW2 2325   1.891   2.948   3.005  0.8086 -0.4304 -0.1493
  776SOL     OW 2326   2.768   0.884   2.190 -0.5244 -0.9704  0.0045
  776SOL    HW1 2327   2.827   0.813   2.235  0.9313 -3.0463  0.3676
  776SOL    HW2 2328   2.778   0.892   2.087  1.4144  0.1883 -0.3168
  777SOL     OW 2329   2.572   2.338   2.100  0.0159  0.0653 -0.1565
  777SOL    HW1 2330   2.523   2.313   2.182  0.7310  1.7326 -4.0120
  777SOL    HW2 2331   2.658   2.390   2.126  0.8258  0.5217 -2.1972
  778SOL     OW 2332   1.938   0.774   2.681  0.2316  0.8168  0.2401
  778SOL    HW1 2333   2.013   0.840   2.682 -2.6591  0.7565 -1.1561
  778SOL    HW2 2334   1.968   0.697   2.619  0.9883 -1.6736 -2.4100
  779SOL     OW 2335   3.022   0.237   0.383  0.2789  0.2451  0.9988
  779SOL    HW1 2336   3.028   0.279   0.475 -0.9797 -1.4136  0.6686
  779SOL    HW2 2337   2.931   0.190   0.375 -0.3649 -0.8778 -2.1497
  780SOL     OW 2338   2.401   0.469   0.085 -0.2307  0.4098 -0.1254
  780SOL    HW1 2339   2.373   0.369   0.082  1.3029 -1.4998 -0.0130
  780SOL    HW2 2340   2.461   0.485   0.166 -0.9997 -1.0837 -0.3332
  781SOL     OW 2341   0.220   2.750   1.395 -0.1182  0.0028 -0.5916
  781SOL    HW1 2342   0.231   2.756   1.297 -3.2876 -1.0267  3.1246
  781SOL    HW2 2343   0.159   2.676   1.420 -1.0774  0.2114  0.6688
  782SOL     OW 2344   2.169   2.521   0.397  0.2034 -0.0154 -0.0679
  782SOL    HW1 2345   2.202   2.555   0.307  2.4794  0.1527  1.2047
  782SOL    HW2 2346   2.079   2.563   0.418 -0.1878 -0.1252  1.4935
  783SOL     OW 2347   0.896   1.228   1.432  0.3817  0.6435 -0.0852
  783SOL    HW1 2348   0.874   1.328   1.412 -0.9699  1.0940 -0.8113
  783SOL    HW2 2349   0.903   1.183   1.339  0.3582  0.5063 -4.2638
  784SOL     OW 2350   1.394   0.621   2.759  0.7294  0.3721 -0.4503
  784SOL    HW1 2351   1.330   0.608   2.679  1.5534  2.0071  0.0671
  784SOL    HW2 2352   1.427   0.719   2.757  2.7868  0.3298 -0.8036
  785SOL     OW 2353   2.477   0.446   1.217 -0.4268 -0.0327 -0.3710
  785SOL    HW1 2354   2.515   0.414   1.309 -1.5483  0.3277 -0.3251
  785SOL    HW2 2355   2.375   0.439   1.210 -0.5412  0.2042 -1.1455
  786SOL     OW 2356   1.081   2.488   1.874  0.5710  0.0618 -0.1495
  786SOL    HW1 2357   1.161   2.549   1.877 -0.0465 -0.0040 -0.5991
  786SOL    HW2 2358   1.105   2.390   1.851  1.7542 -0.0945  0.9176
  787SOL     OW 2359   1.893   0.322   1.325  0.3346  0.1709 -0.9256
  787SOL    HW1 2360   1.901   0.415   1.291  1.2889 -1.6330  0.9433
  787SOL    HW2 2361   1.843   0.318   1.415 -2.7843  0.6606  2.9635
  788SOL     OW 2362   0.433   0.965   0.610 -0.0576 -0.2505  0.1651
  788SOL    HW1 2363   0.463   1.047   0.660  0.1892 -1.8159  0.3739
  788SOL    HW2 2364   0.447   0.984   0.511 -1.3159  0.8254  3.8454
  789SOL     OW 2365   0.684   1.865   1.436  0.2259 -0.6484 -0.0809
  789SOL    HW1 2366   0.627   1.807   1.376 -3.6273  0.5222  0.1082
  789SOL    HW2 2367   0.652   1.857   1.532 -2.5815  2.0208 -0.3503
  790SOL     OW 2368   0.647   0.739   2.553 -0.3208 -0.0237  0.7532
  790SOL    HW1 2369   0.672   0.783   2.643 -1.0307  1.9223  1.0950
  790SOL    HW2 2370   0.588   0.799   2.497 -3.3153  1.6642  0.5009
  791SOL     OW 2371   1.849   0.465   0.836  0.4570 -0.1529 -0.1281
  791SOL    HW1 2372   1.799   0.390   0.787 -2.6642  2.7988  1.8610
  791SOL    HW2 2373   1.941   0.440   0.866 -1.7649  1.9380 -1.2202
  792SOL     OW 2374   0.922   2.637   1.719  0.5018 -0.1747 -0.4694
  792SOL    HW1 2375   0.958   2.733   1.733 -0.5819  0.6082 -2.4684
  792SOL    HW2 2376   0.955   2.572   1.790  2.1317 -1.8803  1.0541
  793SOL     OW 2377   0.403   0.001   0.500 -1.5056  0.0235 -0.0254
  793SOL    HW1 2378   0.443   0.054   0.420  0.1643  2.2231 -1.6869
  793SOL    HW2 2379   0.477   3.115   0.571  0.5426 -0.5730  0.5788
  794SOL     OW 2380   0.367   1.474   1.866 -0.9261  0.1924  0.3607
  794SOL    HW1 2381   0.330   1.436   1.952 -1.5369  1.3347 -2.7260
  794SOL    HW2 2382   0.290   1.526   1.817  0.8035  0.5700  1.6201
  795SOL     OW 2383   0.169   2.244   2.201  0.1944  0.3820  0.0891
  795SOL    HW1 2384   0.204   2.295   2.288 -0.7031  3.2851  1.7001
  795SOL    HW2 2385   0.191   2.144   2.202 -2.3978 -2.3859  2.6363
  796SOL     OW 2386   2.338   0.500   2.159 -0.0649 -0.3304 -0.2368
  796SOL    HW1 2387   2.409   0.440   2.118 -1.3086  2.9270  0.5029
  796SOL    HW2 2388   2.348   0.509   2.258  0.0606 -0.3922  0.4202
  797SOL     OW 2389   2.528   2.589   2.725  0.3372 -0.2469 -0.3704
  797SOL    HW1 2390   2.534   2.675   2.670  0.0631 -1.0777 -0.5119
  797SOL    HW2 2391   2.622   2.552   2.756 -0.4406  0.9497 -1.4411
  798SOL     OW 2392   3.062   3.045   2.206  0.1068  0.4417 -0.4734
  798SOL    HW1 2393   3.046   3.099   2.292 -2.5068  1.2127  1.0182
  798SOL    HW2 2394   3.020   3.094   2.128 -1.6592  1.5512  1.9712
  799SOL     OW 2395   0.089   2.600   2.279  0.0694  0.3585 -0.0954
  799SOL    HW1 2396   0.141   2.535   2.335 -1.2721  2.5727 -0.1535
  799SOL    HW2 2397   0.034   2.541   2.217  0.6867 -0.4707  0.5461
  800SOL     OW 2398   3.102   2.015   3.050 -0.3215 -0.0641  0.3926
  800SOL    HW1 2399   3.051   2.105   3.056 -1.2097 -0.3969  0.7818
  800SOL    HW2 2400   0.044   2.006   0.009 -1.2613  0.4184 -0.4868
  801SOL     OW 2401   1.569   1.283   1.552 -0.0997  0.1857 -0.3485
  801SOL    HW1 2402   1.637   1.217   1.515  0.2068  1.6440  2.1969
  801SOL    HW2 2403   1.499   1.312   1.487  3.5862  2.2049  0.5011
  802SOL     OW 2404   0.155   1.409   0.761  0.1852  0.3242 -0.4375
  802SOL    HW1 2405   0.171   1.477   0.835  0.5682 -2.0788  1.5013
  802SOL    HW2 2406   0.165   1.309   0.791  0.7074 -1.5550  2.2075
  803SOL     OW 2407   1.260   1.590   2.150 -0.2156  0.4964 -0.0955
  803SOL    HW1 2408   1.247   1.548   2.058  1.3729  0.1974 -3.2452
  803SOL    HW2 2409   1.214   1.678   2.155  1.5664  0.9962 -0.0173
  804SOL     OW 2410   1.740   1.508   0.886  0.0693  0.6532  0.1385
  804SOL    HW1 2411   1.718   1.593   0.840 -2.1062  1.3497 -0.5865
  804SOL    HW2 2412   1.796   1.444   0.829  1.3388  0.8296  0.5588
  805SOL     OW 2413   2.806   1.219   3.072 -0.3449 -0.4569  0.0822
  805SOL    HW1 2414   2.756   1.134   3.054 -0.4276  1.7670 -0.1773
  805SOL    HW2 2415   2.896   1.206   3.112 -2.4321  1.6906 -0.5612
  806SOL     OW 2416   0.428   2.506   0.246 -0.1822  0.0510  0.2871
  806SOL    HW1 2417   0.528   2.508   0.223 -0.4066  0.1709  0.9537
  806SOL    HW2 2418   0.375   2.575   0.187 -0.8569  2.5916  0.1199
  807SOL     OW 2419   2.231   1.598   2.817  0.0683 -0.7130 -0.6133
  807SOL    HW1 2420   2.141   1.585   2.868 -2.7446 -1.5069  2.0185
  807SOL    HW2 2421   2.245   1.695   2.792  2.4630 -2.4408 -1.6834
  808SOL     OW 2422   1.140   1.509   1.155  0.6913  0.1092  0.0172
  808SOL    HW1 2423   1.153   1.419   1.207 -0.5360 -1.4458  3.6543
  808SOL    HW2 2424   1.039   1.544   1.165 -2.2223  0.7442  1.0637
  809SOL     OW 2425   2.911   0.597   0.458  0.3387 -0.3696 -0.7340
  809SOL    HW1 2426   2.948   0.511   0.496  0.6054 -2.3210  0.0597
  809SOL    HW2 2427   2.809   0.586   0.441 -0.6619 -0.2343 -2.3341
  810SOL     OW 2428   0.743   1.585   0.647  0.5155 -0.3559  0.0731
  810SOL    HW1 2429   0.770   1.658   0.714  0.4026 -2.3116 -1.0443
  810SOL    HW2 2430   0.812   1.581   0.574 -4.1194  2.1785  0.2369
  811SOL     OW 2431   1.815   2.713   1.465  0.2348  0.7862 -0.0397
  811SOL    HW1 2432   1.765   2.707   1.377  0.1080  0.0128 -1.2405
  811SOL    HW2 2433   1.880   2.635   1.474 -0.7310 -1.0846  1.9891
  812SOL     OW 2434   1.385   2.753   1.303  0.1571 -0.3145 -0.1032
  812SOL    HW1 2435   1.429   2.838   1.268 -1.9086  0.7412  1.6027
  812SOL    HW2 2436   1.297   2.785   1.356 -0.6346  2.1866 -0.1514
  813SOL     OW 2437   0.949   3.018   1.470 -0.0371 -0.4318 -0.3144
  813SOL    HW1 2438   0.896   2.934   1.494 -1.8159  0.1100 -1.6483
  813SOL    HW2 2439   0.889   3.089   1.428  2.6925 -2.7922  1.3522
  814SOL     OW 2440   0.932   2.951   2.390  0.3995 -0.3413 -0.4390
  814SOL    HW1 2441   0.977   3.013   2.327 -2.3029 -1.3777  3.5705
  814SOL    HW2 2442   0.882   2.876   2.342  1.0782  1.0252 -1.2320
  815SOL     OW 2443   0.815   0.131   2.704 -0.7173  0.7676  0.4441
  815SOL    HW1 2444   0.725   0.091   2.678  0.7970 -0.0316 -2.1806
  815SOL    HW2 2445   0.835   0.220   2.657  2.3640 -1.0718 -1.3389
  816SOL     OW 2446   2.452   0.436   2.933  0.5975  0.3444  0.1556
  816SOL    HW1 2447   2.453   0.450   3.036  1.2702 -0.3228  0.7490
  816SOL    HW2 2448   2.371   0.483   2.892 -0.6170 -1.4957 -3.6899
  817SOL     OW 2449   2.275   2.981   1.822  0.0951  0.3168 -0.8374
  817SOL    HW1 2450   2.371   2.985   1.791 -1.1191 -0.9602 -0.0892
  817SOL    HW2 2451   2.254   2.883   1.849  0.0502 -2.9671  0.5465
  818SOL     OW 2452   1.008   0.623   0.254  0.5587 -0.0282 -0.0254
  818SOL    HW1 2453   0.966   0.717   0.257 -1.2411 -1.1997 -1.0637
  818SOL    HW2 2454   1.036   0.583   0.340  3.8325  1.2575 -1.6639
  819SOL     OW 2455   1.935   1.702   2.667  0.1945 -0.2316  0.0331
  819SOL    HW1 2456   1.840   1.702   2.627  0.3999 -0.5205  0.4628
  819SOL    HW2 2457   2.006   1.693   2.598 -0.5198  0.2651 -1.3162
  820SOL     OW 2458   3.066   1.534   2.751  0.5298  0.5645  0.4592
  820SOL    HW1 2459   3.021   1.594   2.679 -0.2630 -1.4660  1.1275
  820SOL    HW2 2460   0.001   1.590   2.810 -3.5839  2.0666  0.0657
  821SOL     OW 2461   0.043   2.743   0.786 -0.1048 -0.2072 -0.1444
  821SOL    HW1 2462   0.129   2.800   0.772  4.0699  0.6626  1.0107
  821SOL    HW2 2463   0.029   2.722   0.887 -2.7504  1.6621 -1.3594
  822SOL     OW 2464   2.256   2.567   2.643  0.4185  0.4794 -0.2607
  822SOL    HW1 2465   2.214   2.612   2.560  1.6524 -0.2673  0.9240
  822SOL    HW2 2466   2.354   2.568   2.636 -2.7385 -0.1707 -2.2154
  823SOL     OW 2467   1.474   0.088   2.280 -0.1625 -0.5671  0.1728
  823SOL    HW1 2468   1.476   0.184   2.238  0.2167  1.0943  0.2729
  823SOL    HW2 2469   1.425   0.023   2.216  1.7754  1.2222  0.1637
  824SOL     OW 2470   2.807   2.466   2.173  0.0609  0.4908  0.0602
  824SOL    HW1 2471   2.798   2.561   2.139 -1.0719  0.4421  3.3300
  824SOL    HW2 2472   2.825   2.462   2.275 -0.2835  0.1260  1.2154
  825SOL     OW 2473   2.955   2.210   2.516  0.2557  1.0029  0.3011
  825SOL    HW1 2474   2.860   2.172   2.528  2.3217  0.7442  0.5094
  825SOL    HW2 2475   2.970   2.246   2.418  1.1258 -0.6938 -2.7604
  826SOL     OW 2476   2.207   0.362   2.542 -0.3738 -0.3050  0.2349
  826SOL    HW1 2477   2.218   0.314   2.627  2.0678  0.6745  0.1991
  826SOL    HW2 2478   2.268   0.442   2.534  0.1373 -1.2581  0.9867
  827SOL     OW 2479   2.774   2.049   1.555 -0.0229 -0.1880 -0.4018
  827SOL    HW1 2480   2.718   2.132   1.576 -0.0868 -0.1463 -2.4598
  827SOL    HW2 2481   2.727   1.983   1.493  0.7785  1.9076  3.1506
  828SOL     OW 2482   2.948   0.217   1.785 -0.6841  0.2394  0.0354
  828SOL    HW1 2483   3.040   0.197   1.743 -0.2476  5.0850  0.7002
  828SOL    HW2 2484   2.930   0.315   1.775 -1.4831 -2.4498 -1.5784
  829SOL     OW 2485   0.936   1.852   2.713  0.4312 -0.3089  0.5386
  829SOL    HW1 2486   0.851   1.908   2.689 -1.0458  0.5743 -0.3163
  829SOL    HW2 2487   0.974   1.820   2.626 -1.0253  0.2994 -0.8373
  830SOL     OW 2488   0.915   1.026   0.899 -0.0603 -0.7417 -0.0367
  830SOL    HW1 2489   0.916   1.039   1.002  1.7143  1.3023 -2.7673
  830SOL    HW2 2490   0.856   1.091   0.848 -1.2196 -0.6517  0.1617
  831SOL     OW 2491   2.929   1.648   2.978 -0.2949 -0.6694  0.0092
  831SOL    HW1 2492   2.965   1.618   3.070  0.9782 -3.1694  2.4154
  831SOL    HW2 2493   2.967   1.590   2.907 -0.2267 -0.4466  1.4976
  832SOL     OW 2494   1.770   2.418   2.264 -0.8209 -0.0856  0.4275
  832SOL    HW1 2495   1.842   2.396   2.196 -1.1801  1.5074  0.6756
  832SOL    HW2 2496   1.707   2.489   2.227 -2.6789  2.0257  1.5646
  833SOL     OW 2497   0.848   0.332   1.970  0.4099  0.5252 -0.4414
  833SOL    HW1 2498   0.921   0.401   1.965  1.4958 -0.7499  0.7123
  833SOL    HW2 2499   0.803   0.334   2.065  0.9506 -0.1649  1.9604
  834SOL     OW 2500   0.168   0.416   1.464 -0.6671  0.1678  0.1229
  834SOL    HW1 2501   0.080   0.462   1.439 -0.0303  0.5962  0.2772
  834SOL    HW2 2502   0.205   0.453   1.553 -1.3121 -2.0648 -0.3934
  835SOL     OW 2503   2.757   0.450   0.118 -1.2671 -0.3088  0.4532
  835SOL    HW1 2504   2.740   0.458   0.216 -0.4363  0.5565 -0.5594
  835SOL    HW2 2505   2.853   0.476   0.088 -0.8036  1.6911 -1.5441
  836SOL     OW 2506   1.652   1.992   0.084 -0.5105 -0.0620 -0.1990
  836SOL    HW1 2507   1.569   2.050   0.063  0.4246  0.2242 -1.0224
  836SOL    HW2 2508   1.664   1.965   0.184 -0.8841 -1.6835  2.3694
  837SOL     OW 2509   1.886   1.769   0.667 -0.6453  0.3156  0.0005
  837SOL    HW1 2510   1.954   1.707   0.704 -2.8884 -0.0582  1.9702
  837SOL    HW2 2511   1.923   1.817   0.583  2.9452 -0.0668 -1.3488
  838SOL     OW 2512   1.655   0.833   2.437  0.0429 -0.8180 -0.2298
  838SOL    HW1 2513   1.671   0.856   2.533  0.2408 -0.9241 -0.8220
  838SOL    HW2 2514   1.725   0.874   2.379 -0.6590 -3.8789 -0.6866
  839SOL     OW 2515   0.736   1.360   2.191  0.4667 -0.4579 -0.5969
  839SOL    HW1 2516   0.652   1.360   2.258 -4.1111  0.0959  2.3652
  839SOL    HW2 2517   0.822   1.312   2.227 -0.5946 -0.9305  0.4704
  840SOL     OW 2518   1.200   1.735   0.379  0.0228 -0.0126 -0.3651
  840SOL    HW1 2519   1.150   1.801   0.439 -0.1632  0.2984  1.9960
  840SOL    HW2 2520   1.293   1.725   0.419  0.6140 -2.4028  1.3751
  841SOL     OW 2521   1.496   2.392   0.630 -0.1405 -0.1774  0.1918
  841SOL    HW1 2522   1.597   2.390   0.630 -0.1441 -1.0691  0.8105
  841SOL    HW2 2523   1.459   2.358   0.720 -2.8370 -0.2097  2.2423
  842SOL     OW 2524   0.491   0.388   0.318 -0.2164  0.1513 -0.5415
  842SOL    HW1 2525   0.580   0.431   0.342 -1.5213 -2.3885 -1.2034
  842SOL    HW2 2526   0.463   0.418   0.226 -0.7303 -0.8484  0.8355
  843SOL     OW 2527   0.671   0.314   0.688 -0.1464  0.0385 -0.2014
  843SOL    HW1 2528   0.582   0.339   0.727  2.1279  0.2481  0.2148
  843SOL    HW2 2529   0.724   0.398   0.674  0.9585 -1.5749 -1.7220
  844SOL     OW 2530   2.773   0.131   2.933 -0.0421 -0.2630  0.3422
  844SOL    HW1 2531   2.677   0.116   2.897 -4.1079 -1.6628 -2.3218
  844SOL    HW2 2532   2.820   0.042   2.917 -0.7634  2.7445 -0.9098
  845SOL     OW 2533   2.999   2.400   1.640 -0.0007 -0.4499  0.9925
  845SOL    HW1 2534   2.982   2.374   1.738  0.0645 -0.1395  2.1763
  845SOL    HW2 2535   2.992   2.325   1.571 -0.3364 -1.4400 -0.2801
  846SOL     OW 2536   2.635   1.668   2.337  0.4009 -0.2895  0.0559
  846SOL    HW1 2537   2.709   1.600   2.362  2.4345 -0.4059  0.4989
  846SOL    HW2 2538   2.670   1.735   2.269  1.0800  1.7061 -0.1769
  847SOL     OW 2539   1.140   0.755   1.931 -0.2902 -0.3185 -0.1892
  847SOL    HW1 2540   1.116   0.655   1.949  2.2906  0.2096  2.4380
  847SOL    HW2 2541   1.141   0.776   1.830  0.3482  0.2879  0.6988
  848SOL     OW 2542   2.707   2.986   2.723  0.1383 -0.3805 -0.1366
  848SOL    HW1 2543   2.727   2.922   2.802  2.1320 -0.0555 -3.7798
  848SOL    HW2 2544   2.673   3.076   2.753 -0.7703 -2.4959 -2.5275
  849SOL     OW 2545   0.267   2.820   2.995 -0.2695  0.2867 -0.0265
  849SOL    HW1 2546   0.263   2.910   2.947  4.0749 -1.2697  0.9134
  849SOL    HW2 2547   0.187   2.756   2.971 -1.5191  2.6429 -1.7062
  850SOL     OW 2548   1.110   2.737   0.969 -0.3282 -0.0663 -0.1496
  850SOL    HW1 2549   1.209   2.723   0.953 -0.0168 -0.8307 -1.6334
  850SOL    HW2 2550   1.056   2.670   0.916 -0.0536  0.3109 -1.4069
  851SOL     OW 2551   2.624   0.292   2.344  0.5080  0.8100 -0.1752
  851SOL    HW1 2552   2.576   0.290   2.258 -0.9516 -1.5470  1.7780
  851SOL    HW2 2553   2.699   0.225   2.341 -1.5858  1.6927  3.0266
  852SOL     OW 2554   1.252   0.301   2.550 -0.7692 -0.3670  0.1598
  852SOL    HW1 2555   1.339   0.252   2.543 -0.5431  1.2048 -0.3683
  852SOL    HW2 2556   1.211   0.288   2.640 -1.8938 -0.9035  1.1198
  853SOL     OW 2557   3.098   2.539   0.295  0.2710  0.2527 -0.4475
  853SOL    HW1 2558   3.033   2.610   0.333 -0.9491 -0.3361 -3.1014
  853SOL    HW2 2559   0.067   2.546   0.338 -3.6075  1.3311 -0.2730
  854SOL     OW 2560   2.388   0.540   2.426  0.6229 -0.6820 -0.0531
  854SOL    HW1 2561   2.466   0.498   2.478  0.4571  3.1880  0.9094
  854SOL    HW2 2562   2.389   0.642   2.424 -3.1837 -0.8596 -1.4129
  855SOL     OW 2563   0.718   2.526   0.184 -0.5691 -0.6172  0.6128
  855SOL    HW1 2564   0.804   2.470   0.169 -3.0173  2.2497 -0.5588
  855SOL    HW2 2565   0.747   2.624   0.180  1.6724 -0.0401  0.3430
  856SOL     OW 2566   3.053   3.072   2.628  0.4019 -0.1899 -0.3244
  856SOL    HW1 2567   0.013   0.007   2.642 -0.9810 -0.8562 -2.7470
  856SOL    HW2 2568   2.997   3.062   2.718  0.5907 -1.6650  2.1282
  857SOL     OW 2569   1.152   2.848   1.397  1.1130 -0.0747  0.3605
  857SOL    HW1 2570   1.096   2.909   1.453  1.4769 -0.6841  0.2690
  857SOL    HW2 2571   1.090   2.811   1.323  1.5718  0.5599 -0.0333
  858SOL     OW 2572   2.587   2.218   1.621 -0.2006  0.4397 -0.1018
  858SOL    HW1 2573   2.608   2.245   1.718  0.5494 -1.3852  2.0043
  858SOL    HW2 2574   2.492   2.207   1.613  3.2088 -0.4892  3.2161
  859SOL     OW 2575   1.845   2.331   1.722 -0.0601  0.1718 -0.3077
  859SOL    HW1 2576   1.916   2.264   1.694  2.9467 -1.8887  4.2027
  859SOL    HW2 2577   1.790   2.296   1.809  0.1676 -3.6080  2.3810
  860SOL     OW 2578   1.941   3.064   0.342 -0.3399  0.0692 -0.0231
  860SOL    HW1 2579   1.943   0.029   0.289  0.2122 -1.9799  0.8616
  860SOL    HW2 2580   1.858   3.010   0.318 -0.0453  0.0775  0.7011
  861SOL     OW 2581   2.658   0.344   0.617 -0.0450  0.0706  0.1332
  861SOL    HW1 2582   2.714   0.263   0.630  0.6815  4.0343  0.0178
  861SOL    HW2 2583   2.572   0.342   0.673  1.0884 -1.7339  0.8905
  862SOL     OW 2584   0.853   2.677   2.749  0.3835 -0.2615  0.4150
  862SOL    HW1 2585   0.875   2.748   2.819 -1.8732  0.0241 -0.4210
  862SOL    HW2 2586   0.931   2.649   2.691  1.6429  2.1914  1.1610
  863SOL     OW 2587   0.565   0.665   1.286  0.6787  0.1004 -0.3790
  863SOL    HW1 2588   0.641   0.670   1.223 -0.8573  2.9345 -1.5514
  863SOL    HW2 2589   0.511   0.577   1.288  2.1767 -1.3999  0.6335
  864SOL     OW 2590   0.007   0.066   1.643 -0.4017  0.4376  0.0559
  864SOL    HW1 2591   0.102   0.100   1.625  1.6004  0.4843  0.2559
  864SOL    HW2 2592   0.016   3.087   1.664  2.1536 -2.5021  1.3098
  865SOL     OW 2593   0.515   1.305   2.980 -0.3906 -0.3529  0.5894
  865SOL    HW1 2594   0.604   1.254   2.957 -0.1149 -0.4447  0.6329
  865SOL    HW2 2595   0.489   1.295   3.077  1.8043 -0.6394 -1.8036
  866SOL     OW 2596   3.071   0.195   0.106  0.2005  0.1148  0.0372
  866SOL    HW1 2597   3.058   0.273   0.044  0.8918 -1.9725 -2.8168
  866SOL    HW2 2598   3.059   0.211   0.210  1.1180 -0.7351  1.8116
  867SOL     OW 2599   2.751   2.838   2.935  0.4796  0.0904 -0.2465
  867SOL    HW1 2600   2.837   2.780   2.947  1.8755  1.1071  1.3550
  867SOL    HW2 2601   2.685   2.827   3.013  2.7503  0.0648 -0.4517
  868SOL     OW 2602   1.283   0.876   0.250 -0.4476  0.2132 -0.1963
  868SOL    HW1 2603   1.202   0.830   0.285  1.7445  2.7185 -0.2057
  868SOL    HW2 2604   1.360   0.846   0.311 -0.2882 -1.2094  0.4588
  869SOL     OW 2605   2.586   1.337   0.545 -0.2631 -0.4402 -0.1765
  869SOL    HW1 2606   2.569   1.404   0.469 -0.1771  0.5683  1.4663
  869SOL    HW2 2607   2.557   1.369   0.636  0.2503 -0.4580 -4.4157
  870SOL     OW 2608   2.489   1.547   0.342 -0.0221  0.9016  0.4707
  870SOL    HW1 2609   2.561   1.564   0.274 -0.6073 -0.5458  1.2532
  870SOL    HW2 2610   2.395   1.557   0.304 -1.9942  2.3595  0.1768
  871SOL     OW 2611   1.420   1.343   0.573 -0.2089  0.3929  0.3139
  871SOL    HW1 2612   1.357   1.309   0.504  1.3308  1.1794 -0.4077
  871SOL    HW2 2613   1.379   1.332   0.666  0.4512  1.0575  0.2940
  872SOL     OW 2614   1.501   1.794   1.601 -0.7352  0.0940 -0.0144
  872SOL    HW1 2615   1.449   1.709   1.624 -0.7264  0.1983  0.0456
  872SOL    HW2 2616   1.475   1.827   1.505 -2.5782 -0.5994 -0.5673
  873SOL     OW 2617   0.888   1.752   2.411 -0.4829  0.5661  0.0212
  873SOL    HW1 2618   0.923   1.766   2.317  2.2248 -0.3121 -0.8490
  873SOL    HW2 2619   0.905   1.655   2.438 -1.0246 -1.7635 -0.5834
  874SOL     OW 2620   0.926   1.721   1.154  0.2191  0.7341  0.4851
  874SOL    HW1 2621   0.938   1.801   1.089  0.9928  1.7342  0.3639
  874SOL    HW2 2622   0.843   1.667   1.135  0.7137  1.6615 -1.4671
  875SOL     OW 2623   2.210   0.428   1.149 -0.0367  0.0054 -0.0376
  875SOL    HW1 2624   2.206   0.352   1.219 -0.5039  0.7057  1.4924
  875SOL    HW2 2625   2.180   0.518   1.192 -2.6863  3.0435  1.2105
  876SOL     OW 2626   0.745   0.453   0.380 -0.5204 -0.0191 -0.1301
  876SOL    HW1 2627   0.770   0.489   0.471 -1.3956  0.8722  0.4573
  876SOL    HW2 2628   0.811   0.384   0.348 -2.1591 -1.8547  1.6649
  877SOL     OW 2629   3.069   0.497   1.363  0.1545  0.3847 -0.1062
  877SOL    HW1 2630   2.973   0.471   1.333 -0.6678 -1.8789 -1.6480
  877SOL    HW2 2631   3.100   0.567   1.294 -0.4472  0.3273  1.1344
  878SOL     OW 2632   1.996   2.203   0.247  0.1565 -0.2506  0.2330
  878SOL    HW1 2633   1.962   2.290   0.208  1.7346  1.0038  0.5643
  878SOL    HW2 2634   1.972   2.124   0.188 -0.8378  2.7708  2.1958
  879SOL     OW 2635   2.639   1.857   1.394 -0.1929  0.3066 -0.1215
  879SOL    HW1 2636   2.614   1.833   1.295 -0.6083 -1.0911 -0.1775
  879SOL    HW2 2637   2.644   1.775   1.453 -0.4049  0.9531 -0.6315
  880SOL     OW 2638   1.263   0.016   1.244 -0.1200 -0.3045  0.2366
  880SOL    HW1 2639   1.232   0.002   1.340  1.5538 -0.8006 -0.2246
  880SOL    HW2 2640   1.188   3.112   1.187  3.1163  2.9834  4.5463
  881SOL     OW 2641   0.905   2.191   0.073 -0.1990 -0.6358 -0.1983
  881SOL    HW1 2642   0.921   2.265   0.138  1.8339 -4.9284  1.3799
  881SOL    HW2 2643   0.994   2.140   0.069  2.3303  5.3085  1.4654
  882SOL     OW 2644   2.134   0.864   2.145 -0.0648 -0.6445 -0.3440
  882SOL    HW1 2645   2.116   0.958   2.190 -0.4922 -1.9755 -0.7338
  882SOL    HW2 2646   2.185   0.883   2.059  2.7056 -1.5695 -1.3693
  883SOL     OW 2647   1.063   0.179   2.383 -0.3754 -0.0419  0.2170
  883SOL    HW1 2648   1.141   0.221   2.436 -1.5691  3.2435  0.6888
  883SOL    HW2 2649   0.976   0.210   2.426  0.7898  0.8913  0.2365
  884SOL     OW 2650   2.780   0.071   0.345  0.6033 -0.8663  0.1788
  884SOL    HW1 2651   2.713   0.043   0.413  1.9048  0.3352 -2.5839
  884SOL    HW2 2652   2.730   0.115   0.266 -1.8207  0.7550 -3.4694
  885SOL     OW 2653   0.800   1.619   3.093  0.0401 -0.0536 -0.5407
  885SOL    HW1 2654   0.865   1.620   3.015  0.1083  1.6495 -1.2740
  885SOL    HW2 2655   0.703   1.603   3.061 -0.8181 -2.9466 -0.4522
  886SOL     OW 2656   1.900   1.316   2.848  0.4205  0.1755 -0.1558
  886SOL    HW1 2657   1.908   1.328   2.747 -0.2078  1.4277  0.7880
  886SOL    HW2 2658   1.964   1.385   2.886 -0.2729 -2.7971 -3.1542
  887SOL     OW 2659   1.464   0.584   1.761  0.2635 -0.2443  0.1087
  887SOL    HW1 2660   1.543   0.650   1.757  2.1241 -1.2465  1.3877
  887SOL    HW2 2661   1.414   0.594   1.848 -0.4855  1.4238 -2.3593
  888SOL     OW 2662   2.841   0.669   1.861  0.2460  0.1105 -0.1232
  888SOL    HW1 2663   2.891   0.757   1.869 -2.7793  1.4469 -0.0361
  888SOL    HW2 2664   2.883   0.600   1.795 -1.1031 -0.3011  1.5941
  889SOL     OW 2665   2.930   2.735   0.657  0.0079 -0.3485 -0.7465
  889SOL    HW1 2666   2.844   2.710   0.709 -0.6531 -1.8280  1.0720
  889SOL    HW2 2667   3.010   2.728   0.720 -0.5238 -1.2999 -2.2847
  890SOL     OW 2668   2.784   2.559   3.072  0.4359  0.7816 -0.0982
  890SOL    HW1 2669   2.767   2.494   0.024 -1.1427 -0.2024  0.0268
  890SOL    HW2 2670   2.858   2.626   3.102 -1.4231  0.8933  1.4560
  891SOL     OW 2671   0.986   1.634   2.891  0.0074  0.2376 -0.0529
  891SOL    HW1 2672   0.974   1.542   2.848  0.9799 -2.6870  1.4839
  891SOL    HW2 2673   0.968   1.712   2.828 -1.4910  0.8260  0.5548
  892SOL     OW 2674   3.034   2.927   1.061  0.0126 -0.8740  0.3376
  892SOL    HW1 2675   3.025   2.950   0.960 -1.0980 -1.0027  0.9978
  892SOL    HW2 2676   3.010   3.015   1.109 -1.7220  2.0377  1.9488
  893SOL     OW 2677   0.712   2.925   1.112  0.3943 -0.2457  0.6857
  893SOL    HW1 2678   0.685   2.904   1.016 -2.1255 -1.4054  1.8433
  893SOL    HW2 2679   0.762   3.017   1.105 -1.7557  1.1023 -0.0275
  894SOL     OW 2680   3.014   1.324   0.930 -0.6025 -0.0090  0.4462
  894SOL    HW1 2681   3.053   1.411   0.970 -2.1241  1.7482  2.5397
  894SOL    HW2 2682   2.951   1.352   0.856  0.3261  0.2068  0.7619
  895SOL     OW 2683   2.852   2.869   1.725 -0.4795  0.1587 -0.0957
  895SOL    HW1 2684   2.901   2.933   1.784 -0.5055 -1.3472 -0.7997
  895SOL    HW2 2685   2.902   2.847   1.639  1.8729 -1.3120  1.7514
  896SOL     OW 2686   1.186   0.013   1.507  0.7691 -0.1370 -0.1018
  896SOL    HW1 2687   1.102   3.081   1.494 -1.2998  3.1367  0.3487
  896SOL    HW2 2688   1.207   0.018   1.607 -1.9947  0.2149  1.4844
  897SOL     OW 2689   0.915   1.827   1.651 -0.2136 -0.0507  0.6390
  897SOL    HW1 2690   1.011   1.855   1.634  2.0537  2.3951 -1.4809
  897SOL    HW2 2691   0.871   1.794   1.566  1.6498  1.8727 -0.7243
  898SOL     OW 2692   1.332   2.658   1.843 -0.7882  0.2843  0.8849
  898SOL    HW1 2693   1.322   2.756   1.853 -3.1794 -2.0696 -0.9521
  898SOL    HW2 2694   1.352   2.640   1.745  0.2546  0.5110 -1.3353
  899SOL     OW 2695   0.831   0.570   0.618 -0.1252  0.5066 -0.0678
  899SOL    HW1 2696   0.819   0.622   0.705 -0.0275  0.2655 -0.5632
  899SOL    HW2 2697   0.930   0.548   0.595  2.9031 -1.2395 -0.8375
  900SOL     OW 2698   1.481   2.490   1.998  0.0402 -0.5624 -0.0528
  900SOL    HW1 2699   1.421   2.555   1.946 -1.6218  1.2832  1.1980
  900SOL    HW2 2700   1.553   2.540   2.059  1.1012  1.2129 -2.5879
  901SOL     OW 2701   0.844   2.213   2.904 -0.5744 -0.6251 -0.4388
  901SOL    HW1 2702   0.856   2.232   3.002  0.0586  0.5461 -3.2096
  901SOL    HW2 2703   0.786   2.278   2.858  1.2629 -2.0778  2.4772
  902SOL     OW 2704   2.013   1.098   0.215 -0.0948  0.5144 -0.4026
  902SOL    HW1 2705   2.087   1.027   0.226  0.7918 -1.3748 -2.3253
  902SOL    HW2 2706   2.047   1.164   0.150  1.6450 -1.0777  2.2602
  903SOL     OW 2707   1.965   1.029   0.648  0.0048 -0.7634 -0.3876
  903SOL    HW1 2708   1.897   0.959   0.615  0.3908  1.8208  1.1051
  903SOL    HW2 2709   2.009   1.061   0.561  0.3829 -0.6320 -1.4587
  904SOL     OW 2710   0.855   1.066   3.070  0.0271  0.2332  0.6751
  904SOL    HW1 2711   0.930   1.123   3.115 -0.9357  1.7347  0.7811
  904SOL    HW2 2712   0.903   0.982   3.048 -0.0492  1.2372  0.7268
  905SOL     OW 2713   1.982   3.122   0.809 -0.3615  0.5380  0.2456
  905SOL    HW1 2714   1.919   0.029   0.883 -2.5323 -1.2538 -0.2753
  905SOL    HW2 2715   2.006   0.077   0.750 -1.4222  1.8098  1.8862
  906SOL     OW 2716   0.003   2.347   1.045  0.0726  0.2122  0.3289
  906SOL    HW1 2717   3.062   2.413   0.996  1.3927 -0.9004  0.4311
  906SOL    HW2 2718   0.100   2.368   1.026 -0.9691  0.4894  1.4851
  907SOL     OW 2719   0.891   0.886   0.261 -0.4570 -0.2885 -0.3655
  907SOL    HW1 2720   0.868   0.977   0.225  0.1490 -0.2156  3.1519
  907SOL    HW2 2721   0.805   0.830   0.270 -0.6379 -0.6119 -1.6724
  908SOL     OW 2722   2.027   2.863   0.956  1.4793  0.3816  0.0762
  908SOL    HW1 2723   2.081   2.920   1.016 -2.7823 -0.9358 -0.9472
  908SOL    HW2 2724   2.069   2.850   0.867 -1.5189  3.0551  1.8581
  909SOL     OW 2725   1.977   1.294   1.538  0.5273  0.0965 -0.1024
  909SOL    HW1 2726   1.933   1.251   1.454  1.3912 -1.1910  0.6353
  909SOL    HW2 2727   1.978   1.397   1.531 -1.4134 -0.3669 -0.7031
  910SOL     OW 2728   1.321   3.040   2.131  0.2732  0.0882 -0.3095
  910SOL    HW1 2729   1.344   2.943   2.164 -0.0060  1.4437 -2.8470
  910SOL    HW2 2730   1.238   3.074   2.174 -1.1514 -1.1098  0.3712
  911SOL     OW 2731   2.935   0.719   2.340  0.5288 -0.7207 -0.4312
  911SOL    HW1 2732   3.017   0.775   2.332 -1.7197  0.8808 -2.6963
  911SOL    HW2 2733   2.937   0.662   2.425 -0.7650 -0.7719  1.0027
  912SOL     OW 2734   0.069   1.274   1.718  0.0443  0.5442 -0.1273
  912SOL    HW1 2735   0.092   1.177   1.693  0.3607  0.6459  0.7174
  912SOL    HW2 2736   0.002   1.278   1.789  0.3091 -0.5074  1.5353
  913SOL     OW 2737   2.871   2.432   1.314  0.6311  0.0548  0.1172
  913SOL    HW1 2738   2.893   2.351   1.378 -0.6745 -3.6946  1.9576
  913SOL    HW2 2739   2.850   2.391   1.219 -1.4874 -0.6726 -1.3389
  914SOL     OW 2740   1.825   0.938   1.845 -0.4410  0.0483 -0.5480
  914SOL    HW1 2741   1.760   0.920   1.770 -1.5512 -0.7519 -0.4563
  914SOL    HW2 2742   1.879   1.027   1.824  4.1105  1.5941 -1.5355
  915SOL     OW 2743   1.731   0.673   1.481 -0.4091  0.4402 -0.0899
  915SOL    HW1 2744   1.783   0.622   1.554 -1.0031 -1.5375  1.1167
  915SOL    HW2 2745   1.666   0.614   1.436 -1.0500 -0.2380  1.2636
  916SOL     OW 2746   2.885   2.539   0.978 -0.5032 -0.5631 -0.5827
  916SOL    HW1 2747   2.819   2.580   0.911 -1.3421 -4.0380  3.2425
  916SOL    HW2 2748   2.841   2.456   1.017  1.7280  0.0116 -0.9731
  917SOL     OW 2749   1.932   2.014   0.056 -0.4102  1.1462  0.1102
  917SOL    HW1 2750   1.833   2.038   0.051  2.0446 -1.6018 -0.0379
  917SOL    HW2 2751   1.967   2.014   3.084 -1.2321  2.1642  0.4260
  918SOL     OW 2752   1.875   2.950   2.491 -0.0502  0.2421 -0.1839
  918SOL    HW1 2753   1.966   2.981   2.527 -0.3506  0.6556  3.0840
  918SOL    HW2 2754   1.809   3.024   2.476  0.4412  0.6051  0.3473
  919SOL     OW 2755   1.419   2.509   1.133 -0.6569  0.3618 -0.0935
  919SOL    HW1 2756   1.518   2.479   1.127 -0.4139  3.4741 -0.9598
  919SOL    HW2 2757   1.408   2.589   1.192  1.6255 -0.1409 -2.5792
  920SOL     OW 2758   3.101   0.304   2.369 -0.0183 -0.2752  0.0075
  920SOL    HW1 2759   3.111   0.347   2.459  0.2684 -0.7583 -1.8443
  920SOL    HW2 2760   0.066   0.262   2.334  0.9849  1.1184 -2.2396
  921SOL     OW 2761   2.943   1.020   1.690 -0.5173 -0.1788 -0.2009
  921SOL    HW1 2762   2.904   1.106   1.666 -0.3518 -1.5155 -0.5715
  921SOL    HW2 2763   3.045   1.023   1.674 -0.9087 -2.9040 -0.2856
  922SOL     OW 2764   1.994   1.886   0.445 -0.1651  0.2748  0.2572
  922SOL    HW1 2765   2.086   1.925   0.432 -1.0016  0.6590 -3.1049
  922SOL    HW2 2766   1.921   1.956   0.433 -1.3894 -0.2227 -0.5658
  923SOL     OW 2767   0.857   1.881   0.120 -0.9034 -0.5454  0.2272
  923SOL    HW1 2768   0.851   1.790   0.075  1.0075 -0.4508  0.7065
  923SOL    HW2 2769   0.787   1.938   0.074  0.2434 -0.8790 -0.5025
  924SOL     OW 2770   0.894   0.254   0.193 -0.1869 -0.0227  0.6236
  924SOL    HW1 2771   0.868   0.156   0.223  0.1656 -4.4600 -2.0517
  924SOL    HW2 2772   0.856   0.281   0.102 -2.7336 -0.5436 -1.2331
  925SOL     OW 2773   2.520   0.503   0.953 -0.2204 -0.6673  0.7064
  925SOL    HW1 2774   2.509   0.437   0.876 -0.1969  1.6839 -0.5056
  925SOL    HW2 2775   2.476   0.461   1.035  0.7571  2.9589  0.8583
  926SOL     OW 2776   0.533   0.154   1.065  0.1186  0.1092  0.4096
  926SOL    HW1 2777   0.490   0.089   1.001  2.5929  2.1135  3.7370
  926SOL    HW2 2778   0.480   0.149   1.152 -0.8469 -1.0748  0.8591
  927SOL     OW 2779   0.097   1.334   2.604  0.2107  0.2171  0.5585
  927SOL    HW1 2780   0.107   1.282   2.689 -0.2735 -0.8785 -2.5878
  927SOL    HW2 2781   0.047   1.417   2.627 -1.3381 -2.3869  3.3375
  928SOL     OW 2782   3.101   0.567   2.922 -0.1347  0.3376 -0.2340
  928SOL    HW1 2783   3.104   0.657   2.873 -1.3938  2.7219 -0.4724
  928SOL    HW2 2784   3.050   0.492   2.872 -1.5965 -1.5246 -1.3398
  929SOL     OW 2785   2.631   0.213   1.402 -0.1657  0.0733  0.0088
  929SOL    HW1 2786   2.559   0.230   1.474  0.7162 -0.0753 -0.0114
  929SOL    HW2 2787   2.586   0.160   1.327  1.3107  0.4082 -0.1894
  930SOL     OW 2788   1.897   1.249   2.014 -1.0337 -0.0012 -0.0215
  930SOL    HW1 2789   1.828   1.187   2.048  1.0736  1.2710 -1.5890
  930SOL    HW2 2790   1.974   1.266   2.080  1.0428 -1.0689  1.1528
  931SOL     OW 2791   2.143   1.338   0.452 -0.3494  0.2471  0.7882
  931SOL    HW1 2792   2.196   1.260   0.413 -0.1090  0.2780 -1.4738
  931SOL    HW2 2793   2.160   1.427   0.400 -1.8337  2.2715  0.2318
  932SOL     OW 2794   2.410   1.409   1.055  0.6250 -0.5750  0.1420
  932SOL    HW1 2795   2.485   1.354   1.101  2.3613  0.0461  0.5694
  932SOL    HW2 2796   2.319   1.401   1.101  0.0268 -2.8943 -0.0311
  933SOL     OW 2797   2.482   1.732   0.973  0.5510 -0.1568  0.8094
  933SOL    HW1 2798   2.437   1.659   1.036 -1.5850 -0.7341  2.3198
  933SOL    HW2 2799   2.431   1.735   0.881 -1.6160  0.5759  1.0915
  934SOL     OW 2800   2.007   0.578   2.515  0.4001  0.2705 -0.4256
  934SOL    HW1 2801   2.020   0.616   2.424 -0.4486  1.9413 -0.0010
  934SOL    HW2 2802   2.071   0.495   2.524  3.7822 -1.2843 -0.6455
  935SOL     OW 2803   0.120   1.596   0.496  0.3265  0.0613 -0.4482
  935SOL    HW1 2804   0.156   1.530   0.567  2.1412 -1.6993  0.6003
  935SOL    HW2 2805   0.190   1.661   0.459 -1.6028  3.2367  0.1965
  936SOL     OW 2806   0.129   0.714   0.641 -0.4831 -0.0661 -0.4656
  936SOL    HW1 2807   0.055   0.778   0.613 -0.1216  1.1445  0.9584
  936SOL    HW2 2808   0.199   0.685   0.568  0.1997 -0.4367 -0.4652
  937SOL     OW 2809   2.608   0.035   1.146  0.8746 -0.3787  0.3146
  937SOL    HW1 2810   2.664   3.082   1.190  1.8028 -0.7300 -1.9705
  937SOL    HW2 2811   2.670   0.095   1.095  1.9339 -1.5282  1.6631
  938SOL     OW 2812   2.715   2.425   0.168 -0.8538 -0.2704  0.0174
  938SOL    HW1 2813   2.790   2.418   0.237  2.4335  2.2748  0.0985
  938SOL    HW2 2814   2.626   2.460   0.201 -1.0595  1.9318 -0.5254
  939SOL     OW 2815   0.798   1.942   0.596  0.1395 -0.3967 -0.7459
  939SOL    HW1 2816   0.767   1.868   0.533  0.8527  1.9932  1.0460
  939SOL    HW2 2817   0.773   1.914   0.688 -0.4687  2.5380 -1.3672
  940SOL     OW 2818   0.199   0.545   3.106 -0.8607  0.1017 -0.3350
  940SOL    HW1 2819   0.160   0.609   0.051  0.4476  2.8481 -0.4131
  940SOL    HW2 2820   0.165   0.569   3.014  3.1011 -0.5741 -0.8663
  941SOL     OW 2821   1.296   0.366   3.093 -0.3066 -0.1487  0.2355
  941SOL    HW1 2822   1.281   0.461   3.070 -1.4031 -0.4834  0.3856
  941SOL    HW2 2823   1.234   0.335   0.049  2.5397 -0.5157  1.8598
  942SOL     OW 2824   0.931   0.826   1.264  0.3544 -0.3693  0.1844
  942SOL    HW1 2825   0.943   0.752   1.197  1.2051  1.7661  2.1561
  942SOL    HW2 2826   0.944   0.800   1.362 -1.2591  2.4446 -2.3910
  943SOL     OW 2827   1.448   1.045   1.935  0.7454 -0.1052 -0.0182
  943SOL    HW1 2828   1.541   1.036   1.980 -0.6761  1.7565  1.2347
  943SOL    HW2 2829   1.380   0.998   1.994 -2.1551 -0.4595 -1.9825
  944SOL     OW 2830   1.959   1.147   1.767  0.4918  0.4524 -0.0696
  944SOL    HW1 2831   1.942   1.204   1.849 -0.8201 -1.0457 -1.0274
  944SOL    HW2 2832   1.965   1.208   1.686 -1.0306 -0.9461 -0.7662
  945SOL     OW 2833   2.995   3.024   0.334  0.0304  0.3456 -0.2934
  945SOL    HW1 2834   3.070   3.084   0.369 -1.5381 -0.5842  0.6005
  945SOL    HW2 2835   2.912   3.084   0.313 -1.4675  4.5140  0.4853
  946SOL     OW 2836   2.853   0.983   1.941 -0.7439  0.5420 -0.3306
  946SOL    HW1 2837   2.908   0.994   1.855  1.6073 -1.0188  1.4527
  946SOL    HW2 2838   2.773   1.044   1.945 -2.3626 -2.8562  0.9561
  947SOL     OW 2839   0.828   2.790   0.401 -0.5088  0.4331  0.0133
  947SOL    HW1 2840   0.732   2.820   0.430 -0.9472 -0.0784  0.6442
  947SOL    HW2 2841   0.823   2.776   0.295 -0.6419 -1.3575 -2.6674
  948SOL     OW 2842   2.311   1.515   1.617  0.0238  0.0740 -0.3602
  948SOL    HW1 2843   2.398   1.463   1.613 -1.9115 -0.7713  2.2807
  948SOL    HW2 2844   2.238   1.463   1.657  0.9383  1.8087 -0.4909
  949SOL     OW 2845   0.406   1.378   2.614  0.2758  0.5201  0.1338
  949SOL    HW1 2846   0.353   1.419   2.695 -1.2054 -0.6789 -0.7223
  949SOL    HW2 2847   0.405   1.280   2.606  0.2742 -0.5440  2.5348
  950SOL     OW 2848   0.515   2.729   1.146 -0.0752  0.1620 -0.0344
  950SOL    HW1 2849   0.419   2.739   1.116  1.6328  2.2726 -0.9309
  950SOL    HW2 2850   0.576   2.815   1.138 -0.2021 -3.2886  1.3976
  951SOL     OW 2851   0.915   1.191   2.331  0.6437  0.8170 -0.2060
  951SOL    HW1 2852   0.991   1.261   2.332 -0.1838 -0.7400  1.0593
  951SOL    HW2 2853   0.900   1.153   2.425 -0.1028 -1.6149 -0.8779
  952SOL     OW 2854   0.483   1.407   0.340  0.5742 -0.0897  0.4775
  952SOL    HW1 2855   0.559   1.340   0.325  0.5321 -0.0714  1.7194
  952SOL    HW2 2856   0.392   1.362   0.343 -0.8718 -2.0742  1.4057
  953SOL     OW 2857   2.330   0.105   2.655 -0.3440  0.2971  0.2293
  953SOL    HW1 2858   2.230   0.116   2.674 -0.7359 -0.0503 -2.7771
  953SOL    HW2 2859   2.352   0.082   2.558  1.0911 -1.2213  0.0786
  954SOL     OW 2860   1.645   1.306   0.423  0.3556  0.3931 -0.0434
  954SOL    HW1 2861   1.562   1.327   0.485 -1.8120 -0.1244 -1.5319
  954SOL    HW2 2862   1.727   1.362   0.438 -2.5021  0.1985  0.1083
  955SOL     OW 2863   0.736   2.027   2.713  0.2187  0.5414 -0.7762
  955SOL    HW1 2864   0.797   2.057   2.790 -0.0041 -0.3336  0.5356
  955SOL    HW2 2865   0.672   2.101   2.695  1.0597  1.2221  1.5212
  956SOL     OW 2866   1.991   0.658   2.238 -0.0703 -0.2502 -0.2936
  956SOL    HW1 2867   1.990   0.563   2.204 -3.2788 -2.8725 -2.0744
  956SOL    HW2 2868   2.047   0.720   2.179  0.5453  0.3651  1.7208
  957SOL     OW 2869   1.978   2.297   2.565 -0.1534  0.8142  0.1516
  957SOL    HW1 2870   2.049   2.244   2.515 -0.0282  1.2350 -0.9513
  957SOL    HW2 2871   1.984   2.284   2.663  1.1413 -0.7477 -5.8550
  958SOL     OW 2872   1.361   1.445   1.424  0.0099 -0.1004 -0.1467
  958SOL    HW1 2873   1.271   1.396   1.415 -1.4628  1.6215  0.0895
  958SOL    HW2 2874   1.368   1.523   1.361  0.4935  1.1542  3.4107
  959SOL     OW 2875   1.905   2.551   2.493 -0.0596  0.2496  0.9663
  959SOL    HW1 2876   1.853   2.544   2.406  1.6034 -0.9603  1.3861
  959SOL    HW2 2877   1.944   2.462   2.526 -0.1335 -0.6464  2.3854
  960SOL     OW 2878   0.182   0.862   2.664 -0.4259 -0.2457  0.1203
  960SOL    HW1 2879   0.197   0.825   2.569 -2.0655 -1.3736  2.4406
  960SOL    HW2 2880   0.082   0.848   2.687 -3.1247 -0.7917 -1.3748
  961SOL     OW 2881   0.352   1.097   2.706  0.2184  0.2036 -0.2188
  961SOL    HW1 2882   0.327   1.002   2.684  2.9329 -1.5133  1.9937
  961SOL    HW2 2883   0.293   1.146   2.775 -0.5230 -0.0908  1.7192
  962SOL     OW 2884   0.746   1.218   2.889  0.4353  0.3434 -0.4344
  962SOL    HW1 2885   0.779   1.161   2.966 -1.0296  1.9735 -0.6112
  962SOL    HW2 2886   0.719   1.151   2.814  0.5969 -0.5306  1.6212
  963SOL     OW 2887   2.618   2.272   3.083  0.1805 -0.3858 -0.2324
  963SOL    HW1 2888   2.657   2.301   0.052  0.8444  0.6219 -0.8055
  963SOL    HW2 2889   2.521   2.304   3.074  0.5255  0.7375 -0.8680
  964SOL     OW 2890   1.230   2.394   1.480  0.0903 -0.4240 -0.0457
  964SOL    HW1 2891   1.275   2.478   1.513 -0.7028  1.8482 -1.2844
  964SOL    HW2 2892   1.126   2.407   1.485 -3.4561  0.4682 -1.9669
  965SOL     OW 2893   1.550   1.578   0.217  0.7653  0.1163 -0.0856
  965SOL    HW1 2894   1.653   1.577   0.236 -2.4378  1.0319  0.0900
  965SOL    HW2 2895   1.492   1.589   0.303 -3.3137 -1.4695  2.6409
  966SOL     OW 2896   3.016   1.681   0.372  1.2994 -0.0730  0.5255
  966SOL    HW1 2897   3.098   1.634   0.409 -0.4176  0.0809  1.0401
  966SOL    HW2 2898   3.032   1.780   0.361 -1.5583 -1.9969  0.4632
  967SOL     OW 2899   1.813   3.027   2.041  0.1148  0.3487 -0.0786
  967SOL    HW1 2900   1.853   3.086   2.116  0.2114 -2.5491  0.5895
  967SOL    HW2 2901   1.801   2.932   2.066 -0.2039  1.2768 -1.2852
  968SOL     OW 2902   1.867   0.342   0.401 -0.1428  0.2612 -0.1367
  968SOL    HW1 2903   1.779   0.372   0.367  0.7231 -0.6871 -1.7730
  968SOL    HW2 2904   1.910   0.402   0.472  0.9921 -2.8934 -0.9694
  969SOL     OW 2905   0.179   1.234   2.318 -0.3955  0.6362  0.0879
  969SOL    HW1 2906   0.266   1.193   2.289 -0.8546 -0.2938 -0.5197
  969SOL    HW2 2907   0.183   1.260   2.418  1.1938  3.5942  0.1873
  970SOL     OW 2908   1.990   1.946   1.277 -0.1522 -0.5992 -0.3652
  970SOL    HW1 2909   2.035   1.935   1.185 -1.1175  1.9292  1.5570
  970SOL    HW2 2910   1.994   2.041   1.316 -1.1019  2.1534  0.6711
  971SOL     OW 2911   3.113   2.689   1.057  0.1433 -0.3863  0.2058
  971SOL    HW1 2912   3.048   2.613   1.034 -0.7981 -2.2155  0.1573
  971SOL    HW2 2913   3.070   2.778   1.085 -1.1364  2.4116  0.1380
  972SOL     OW 2914   0.074   1.179   2.841  0.5524 -0.7283 -0.1817
  972SOL    HW1 2915   0.155   1.196   2.905  2.2122 -0.4574  0.7997
  972SOL    HW2 2916   0.031   1.085   2.859 -0.9195 -0.9608 -0.0499
  973SOL     OW 2917   0.397   0.419   0.757  0.4578  0.2296  0.3367
  973SOL    HW1 2918   0.332   0.342   0.782 -1.1508  0.5070  2.1384
  973SOL    HW2 2919   0.360   0.483   0.682 -0.0515 -2.4681  1.2947
  974SOL     OW 2920   2.121   0.927   1.653 -0.3490 -0.9603  0.2645
  974SOL    HW1 2921   2.050   0.980   1.708  0.9031  0.7698 -2.0719
  974SOL    HW2 2922   2.175   0.995   1.594 -1.8316  2.0015 -2.7120
  975SOL     OW 2923   2.553   2.797   0.001 -0.2855 -0.2422 -0.3511
  975SOL    HW1 2924   2.577   2.799   0.101 -1.4912 -1.2990 -0.4044
  975SOL    HW2 2925   2.523   2.704   3.094  0.6969  0.1219  1.6314
  976SOL     OW 2926   0.464   1.621   1.091  0.1165  0.2405  0.2184
  976SOL    HW1 2927   0.363   1.630   1.060 -3.2905  1.6062 -3.2111
  976SOL    HW2 2928   0.466   1.622   1.192  0.5804  0.3647 -0.5676
  977SOL     OW 2929   1.118   2.312   0.910  0.1228 -0.4050 -0.2733
  977SOL    HW1 2930   1.102   2.238   0.837  0.7873 -0.8037  0.3153
  977SOL    HW2 2931   1.216   2.349   0.918 -0.6891  1.2315 -1.1514
  978SOL     OW 2932   0.517   0.981   0.322  0.3117  0.2221  0.1207
  978SOL    HW1 2933   0.556   1.023   0.238 -0.6791  2.9448 -1.9065
  978SOL    HW2 2934   0.500   0.885   0.304  0.0891  1.1844  0.1092
  979SOL     OW 2935   2.199   1.597   0.359 -0.7764 -0.3020 -0.4102
  979SOL    HW1 2936   2.212   1.636   0.453 -0.4425  0.3105  1.7350
  979SOL    HW2 2937   2.134   1.661   0.312 -0.4303  0.2217  1.9745
  980SOL     OW 2938   0.335   1.851   2.033 -0.4905 -0.1817 -0.0873
  980SOL    HW1 2939   0.398   1.827   1.955  0.4669  2.8615 -1.9221
  980SOL    HW2 2940   0.357   1.945   2.073 -1.0261 -2.1824  0.3686
  981SOL     OW 2941   2.916   1.032   0.347  0.0045  0.2704  0.3806
  981SOL    HW1 2942   2.874   1.098   0.408  0.4341 -2.0556 -0.1029
  981SOL    HW2 2943   2.845   0.995   0.293  1.2698 -0.3403  3.0119
  982SOL     OW 2944   3.106   2.859   1.936 -0.8336 -0.2772 -0.5114
  982SOL    HW1 2945   0.011   2.929   2.004 -1.5962 -1.6359 -2.5006
  982SOL    HW2 2946   0.053   2.852   1.861  2.7353  2.3681  0.8192
  983SOL     OW 2947   1.648   0.247   1.167  0.5358 -1.0220 -0.5389
  983SOL    HW1 2948   1.560   0.229   1.217 -0.6684  2.6835  0.0595
  983SOL    HW2 2949   1.727   0.269   1.232 -2.5005  2.0855  0.2959
  984SOL     OW 2950   1.393   2.670   2.908  1.0293 -0.1273  0.3599
  984SOL    HW1 2951   1.387   2.570   2.893  0.9065  2.5587 -1.5048
  984SOL    HW2 2952   1.478   2.692   2.963 -2.7393 -2.5771 -1.5757
  985SOL     OW 2953   1.770   1.801   1.702 -0.1825  0.1877 -0.2171
  985SOL    HW1 2954   1.670   1.783   1.704  1.0188  0.0101  2.3529
  985SOL    HW2 2955   1.790   1.839   1.608  1.6121  2.6326 -0.8621
  986SOL     OW 2956   2.109   3.075   2.544  0.3357 -0.0909 -0.3081
  986SOL    HW1 2957   2.119   3.115   2.455 -0.5840 -1.4170  2.3650
  986SOL    HW2 2958   2.084   0.029   2.614 -0.6562  2.7810  1.9284
  987SOL     OW 2959   2.821   1.500   2.416  0.0039  0.4230 -0.7792
  987SOL    HW1 2960   2.780   1.440   2.491  1.1703 -0.1483 -0.0956
  987SOL    HW2 2961   2.901   1.545   2.458 -0.6299  0.0874  0.4210
  988SOL     OW 2962   2.893   0.543   2.092  0.3856 -0.5031  0.4733
  988SOL    HW1 2963   2.884   0.575   1.994  0.0542  2.0457 -1.9825
  988SOL    HW2 2964   2.937   0.616   2.152  2.2810  0.2272  4.6815
  989SOL     OW 2965   1.809   1.469   1.827  0.4136 -0.1748 -0.3513
  989SOL    HW1 2966   1.714   1.503   1.849  1.8260 -2.7282  0.2187
  989SOL    HW2 2967   1.840   1.394   1.892 -0.8483 -0.9288  3.6430
  990SOL     OW 2968   0.017   1.146   0.270 -0.2905 -0.5085  0.7507
  990SOL    HW1 2969   3.056   1.115   0.307 -1.3636  1.0015 -0.0711
  990SOL    HW2 2970   0.083   1.072   0.258  0.5400  2.6208 -1.7538
  991SOL     OW 2971   0.327   1.773   2.673 -0.1645  0.3801  0.0838
  991SOL    HW1 2972   0.291   1.749   2.766  1.4311 -0.6790  0.0990
  991SOL    HW2 2973   0.313   1.874   2.654  0.9399  0.3557  1.8019
  992SOL     OW 2974   2.683   2.268   1.872 -0.0600  0.0032 -0.2729
  992SOL    HW1 2975   2.638   2.306   1.957 -1.7162  1.1732  1.5218
  992SOL    HW2 2976   2.785   2.276   1.877 -0.9015 -0.2221  0.7148
  993SOL     OW 2977   0.272   2.886   0.765 -0.8722  0.3591 -0.0207
  993SOL    HW1 2978   0.258   2.890   0.666 -1.3827 -0.2958  0.1842
  993SOL    HW2 2979   0.339   2.813   0.783  0.2495  1.2155  0.7038
  994SOL     OW 2980   3.086   1.918   1.419  0.4016  0.4332 -0.2002
  994SOL    HW1 2981   3.058   1.950   1.512 -1.9536  1.7951 -0.0628
  994SOL    HW2 2982   0.001   1.998   1.368 -2.0621 -0.3135  0.2501
  995SOL     OW 2983   2.328   1.708   2.338 -0.3494 -0.2084 -0.5239
  995SOL    HW1 2984   2.317   1.780   2.412  1.6180 -0.9822  0.2001
  995SOL    HW2 2985   2.428   1.710   2.314 -1.0574  0.3945 -1.1073
  996SOL     OW 2986   1.964   1.574   2.929  0.0569 -0.2216  0.0952
  996SOL    HW1 2987   1.883   1.563   2.995  1.9262  1.9517  0.0102
  996SOL    HW2 2988   1.946   1.623   2.839 -0.0402  1.2904 -1.8648
  997SOL     OW 2989   1.414   1.540   1.690  0.2223 -0.0556  0.4142
  997SOL    HW1 2990   1.343   1.505   1.757 -1.4797  1.1813  0.7357
  997SOL    HW2 2991   1.406   1.494   1.600 -1.1830 -2.7039  1.9389
  998SOL     OW 2992   2.812   2.076   0.960  0.2605 -0.8253 -0.2531
  998SOL    HW1 2993   2.727   2.032   1.002 -0.1094  0.3452 -2.3526
  998SOL    HW2 2994   2.890   2.008   0.947 -0.0899 -2.0756  1.8823
  999SOL     OW 2995   2.252   2.677   0.131  0.1761 -0.3220 -0.2233
  999SOL    HW1 2996   2.223   2.775   0.120 -1.0939  1.3778 -0.8606
  999SOL    HW2 2997   2.190   2.622   0.074  0.9271  0.9007  1.0603
 1000SOL     OW 2998   0.892   3.035   3.122  0.4046  0.0455  0.4900
 1000SOL    HW1 2999   0.960   3.037   0.075 -0.3546 -0.8889 -3.6921
 1000SOL    HW2 3000   0.882   3.120   3.067 -1.1407  1.2365 -1.4395
   3.12266   3.12266   3.12266
