1000 SPC/Fw water molecules t= 321.00000 step= 321000
 3000
    1SOL     OW    1   2.475   0.005   1.015  0.3546 -0.3307  0.3362
    1SOL    HW1    2   2.443   3.021   1.065  1.1315  3.0536 -1.2674
    1SOL    HW2    3   2.571   3.095   0.988 -1.5055 -1.6314  0.7048
    2SOL     OW    4   2.744   2.348   0.963 -0.1521  0.3662 -0.1109
    2SOL    HW1    5   2.753   2.298   1.049 -0.1826  2.0771  0.6900
    2SOL    HW2    6   2.798   2.299   0.890 -0.0742  0.6634 -2.8433
    3SOL     OW    7   0.921   2.895   2.831 -0.6005  0.6106 -0.1513
    3SOL    HW1    8   0.913   2.879   2.931 -3.2297 -2.1170  0.9299
    3SOL    HW2    9   0.858   2.959   2.794  0.8317  0.0156  0.0703
    4SOL     OW   10   1.952   2.427   2.059 -0.2186 -0.2159 -0.0702
    4SOL    HW1   11   2.032   2.472   2.018  2.4647  1.2838  2.7103
    4SOL    HW2   12   1.925   2.344   2.012  1.8540  1.6258  2.8039
    5SOL     OW   13   1.969   0.901   1.582  0.1237  0.4817  0.0461
    5SOL    HW1   14   1.973   0.896   1.485 -1.6490  0.6524 -0.8878
    5SOL    HW2   15   1.905   0.974   1.618 -0.9181  0.9110  0.4544
    6SOL     OW   16   2.162   2.667   0.829 -0.1672  0.7361  0.3824
    6SOL    HW1   17   2.138   2.570   0.805 -1.6694  1.3970  1.6092
    6SOL    HW2   18   2.127   2.687   0.920  1.3278  0.1592 -0.8344
    7SOL     OW   19   2.420   1.458   1.129 -0.4726 -0.4382 -0.4642
    7SOL    HW1   20   2.502   1.509   1.159  0.9454 -0.0544  1.7530
    7SOL    HW2   21   2.373   1.413   1.209  0.1881  0.5804  2.1485
    8SOL     OW   22   1.080   1.933   1.449 -0.1733 -0.4067  0.7441
    8SOL    HW1   23   0.981   1.918   1.422 -0.4227  0.2225 -0.6732
    8SOL    HW2   24   1.105   2.028   1.463  0.0676 -3.6478  1.6013
    9SOL     OW   25   1.197   2.685   2.382 -0.2801 -0.0481 -0.7165
    9SOL    HW1   26   1.103   2.689   2.420  1.6886 -2.1525 -0.0810
    9SOL    HW2   27   1.209   2.740   2.299  0.2266 -1.2548 -0.3817
   10SOL     OW   28   0.421   1.914   0.879  0.1528  0.2914 -0.4985
   10SOL    HW1   29   0.513   1.873   0.903  0.4548  2.8726  2.2242
   10SOL    HW2   30   0.376   1.941   0.966  0.8767  0.3131  0.1994
   11SOL     OW   31   1.822   1.647   1.058 -0.0141 -0.1766  0.4730
   11SOL    HW1   32   1.836   1.547   1.046 -2.1083 -2.4335 -1.0761
   11SOL    HW2   33   1.832   1.680   1.151 -1.2644 -3.1525 -1.2809
   12SOL     OW   34   2.583   2.631   1.947  0.1725  0.6184 -0.1631
   12SOL    HW1   35   2.627   2.553   2.000  2.5984 -1.2071 -0.1863
   12SOL    HW2   36   2.653   2.708   1.946 -0.5135  1.8214  3.4457
   13SOL     OW   37   2.499   2.901   0.435  0.1916 -0.0563 -0.1332
   13SOL    HW1   38   2.495   2.875   0.534 -0.0987 -2.0073 -0.9290
   13SOL    HW2   39   2.562   2.977   0.419 -1.3070  0.4254  1.6871
   14SOL     OW   40   1.621   2.261   0.344 -0.5644  0.3890 -0.0315
   14SOL    HW1   41   1.556   2.197   0.397 -0.9815 -1.3439 -1.6101
   14SOL    HW2   42   1.711   2.216   0.321  3.6968  0.5872 -0.8032
   15SOL     OW   43   3.001   2.264   1.733 -0.0786  0.0133 -0.2659
   15SOL    HW1   44   2.945   2.187   1.705 -2.8949  0.9795  0.4428
   15SOL    HW2   45   2.938   2.340   1.766 -0.2559  2.8910  1.0582
   16SOL     OW   46   2.265   2.867   0.248  0.7444 -0.0531 -0.1071
   16SOL    HW1   47   2.294   2.880   0.345 -0.1401  0.8649  0.0792
   16SOL    HW2   48   2.341   2.818   0.201  0.5475  2.2102  2.0011
   17SOL     OW   49   0.283   0.341   1.309 -0.3160  0.4970  0.2306
   17SOL    HW1   50   0.314   0.431   1.348 -0.5468 -1.8380 -2.5702
   17SOL    HW2   51   0.322   0.268   1.371 -0.4978 -1.7227 -1.0987
   18SOL     OW   52   2.166   0.945   0.343 -0.1759 -0.2588 -0.4006
   18SOL    HW1   53   2.127   0.936   0.248 -0.3271 -1.1688  0.1969
   18SOL    HW2   54   2.238   0.877   0.355  1.8371 -0.7320 -2.3704
   19SOL     OW   55   1.658   1.825   0.660  0.1976  0.1858 -0.2148
   19SOL    HW1   56   1.694   1.811   0.753  1.8212 -0.1756  1.2036
   19SOL    HW2   57   1.714   1.899   0.617 -2.5583  2.4067  0.5203
   20SOL     OW   58   2.347   2.189   2.142 -0.1430 -0.4552  0.7611
   20SOL    HW1   59   2.333   2.213   2.242  0.6531 -0.9258  0.2534
   20SOL    HW2   60   2.451   2.174   2.127  2.2377  0.9787 -1.2398
   21SOL     OW   61   1.577   0.279   0.651 -0.1977  0.4972  0.1574
   21SOL    HW1   62   1.648   0.222   0.605  0.0700  1.3753  0.6584
   21SOL    HW2   63   1.494   0.224   0.675  0.5204  2.0242 -0.7378
   22SOL     OW   64   2.536   3.011   1.708  0.3065 -0.5222 -0.2928
   22SOL    HW1   65   2.541   3.103   1.666  1.8920  3.6991 -0.6701
   22SOL    HW2   66   2.442   2.976   1.730  1.3869  2.9409 -0.7870
   23SOL     OW   67   0.028   0.565   1.938  0.0837 -0.2945  0.0978
   23SOL    HW1   68   0.023   0.481   1.996  1.4531 -0.9896  1.5312
   23SOL    HW2   69   3.037   0.589   1.909  0.2292  2.3584  0.2192
   24SOL     OW   70   2.585   2.678   0.304 -0.4107  0.2471  0.1012
   24SOL    HW1   71   2.579   2.622   0.390  3.0307 -0.3496  1.3919
   24SOL    HW2   72   2.564   2.773   0.332 -1.5646 -1.6183  1.5741
   25SOL     OW   73   1.382   3.080   2.345 -0.2848 -0.1101  0.1196
   25SOL    HW1   74   1.389   2.999   2.413 -0.5276 -3.7362  2.0751
   25SOL    HW2   75   1.465   0.041   2.349  0.7330 -2.4477 -2.0806
   26SOL     OW   76   1.496   2.459   0.537 -0.1128  0.2047  0.5449
   26SOL    HW1   77   1.542   2.387   0.476  0.7574 -0.3445  1.2570
   26SOL    HW2   78   1.466   2.539   0.484 -0.4618 -0.5808  2.9487
   27SOL     OW   79   2.411   1.331   2.863  0.2140 -0.5375  0.3508
   27SOL    HW1   80   2.421   1.422   2.909  0.1674 -1.0709  1.4593
   27SOL    HW2   81   2.483   1.334   2.791  0.5600 -0.4859 -0.9591
   28SOL     OW   82   1.144   1.376   1.221 -0.0796  0.1600  0.2067
   28SOL    HW1   83   1.143   1.272   1.201 -2.0312 -2.1179  1.2953
   28SOL    HW2   84   1.055   1.414   1.255 -1.1614  0.8220  0.2011
   29SOL     OW   85   2.778   2.439   1.758  0.0894  0.2478  0.0100
   29SOL    HW1   86   2.805   2.538   1.746  0.1948  2.4807 -0.6460
   29SOL    HW2   87   2.724   2.430   1.844 -1.7756 -1.7774 -1.1754
   30SOL     OW   88   1.226   0.307   1.089  1.1347 -0.0874 -0.0302
   30SOL    HW1   89   1.179   0.300   1.000  1.1710 -2.7473 -0.1086
   30SOL    HW2   90   1.322   0.334   1.082 -0.9887  0.2260  1.0135
   31SOL     OW   91   2.155   2.759   1.993  0.3414  0.4917 -0.0775
   31SOL    HW1   92   2.063   2.803   2.003  3.1195  2.1246  2.0928
   31SOL    HW2   93   2.152   2.668   1.942  1.3181 -6.0018 -2.8612
   32SOL     OW   94   1.078   1.756   0.347 -0.7532 -0.3592  0.1809
   32SOL    HW1   95   1.042   1.720   0.434  2.3605  1.2996 -1.0641
   32SOL    HW2   96   1.098   1.683   0.281  0.0441  3.3443 -0.2188
   33SOL     OW   97   0.391   0.767   2.365  0.0627  0.0256  0.2768
   33SOL    HW1   98   0.447   0.775   2.450  0.7333 -0.3768  1.0814
   33SOL    HW2   99   0.433   0.696   2.303 -1.9646  0.5437 -1.4864
   34SOL     OW  100   2.124   2.859   0.525  0.1771  0.3841  0.3892
   34SOL    HW1  101   2.109   2.871   0.623 -3.0056  1.2010 -2.4998
   34SOL    HW2  102   2.135   2.950   0.487  2.4322  0.7800  1.6150
   35SOL     OW  103   2.082   2.541   1.642 -1.1097 -0.2734  0.1170
   35SOL    HW1  104   2.025   2.623   1.653 -1.0895 -1.5902  1.7918
   35SOL    HW2  105   2.020   2.471   1.601 -0.6195  0.4529  0.6676
   36SOL     OW  106   1.868   2.439   0.020 -0.4441  0.1561  0.2759
   36SOL    HW1  107   1.807   2.424   3.039  0.7990  0.2792 -1.3557
   36SOL    HW2  108   1.962   2.479   3.096 -0.8122 -0.3707 -0.3275
   37SOL     OW  109   1.329   0.641   2.200 -0.2096 -0.1345 -0.7651
   37SOL    HW1  110   1.264   0.709   2.241  0.8048 -0.2104 -0.8048
   37SOL    HW2  111   1.356   0.567   2.268  0.5810 -3.8615  1.4804
   38SOL     OW  112   0.218   0.274   2.644 -0.5311 -0.2604 -0.1779
   38SOL    HW1  113   0.221   0.361   2.587 -1.7521  0.6828  1.3273
   38SOL    HW2  114   0.295   0.212   2.615  3.2702  0.4021  1.9660
   39SOL     OW  115   2.594   1.251   1.691 -0.4462  0.7419  0.0030
   39SOL    HW1  116   2.530   1.326   1.663 -0.2887 -0.4633  1.1724
   39SOL    HW2  117   2.691   1.278   1.704  0.9206 -2.6057 -2.8563
   40SOL     OW  118   1.202   3.018   0.397 -0.1750  0.0901 -0.1573
   40SOL    HW1  119   1.143   3.089   0.440  0.4744 -0.2675 -3.4381
   40SOL    HW2  120   1.187   2.925   0.436  1.2019  0.7458 -0.9977
   41SOL     OW  121   2.386   1.429   0.857 -0.0364 -0.1662 -0.2730
   41SOL    HW1  122   2.382   1.445   0.960  1.2437 -1.6340 -0.0898
   41SOL    HW2  123   2.385   1.517   0.805 -0.6940  3.1991  0.8346
   42SOL     OW  124   0.669   0.490   1.369 -0.2430 -0.2429  0.0999
   42SOL    HW1  125   0.574   0.509   1.378  0.7954  0.6968 -2.2048
   42SOL    HW2  126   0.683   0.389   1.352 -2.1846 -1.1695 -1.1381
   43SOL     OW  127   0.095   1.641   2.515  0.1558 -0.2239  0.0101
   43SOL    HW1  128   0.119   1.618   2.610  0.5310  0.8571 -3.2092
   43SOL    HW2  129   0.016   1.592   2.476 -1.4399 -0.7515  0.3393
   44SOL     OW  130   2.301   2.911   1.797  0.2819  0.8514  0.0212
   44SOL    HW1  131   2.269   2.898   1.897 -1.3322 -1.3683 -1.1429
   44SOL    HW2  132   2.227   2.948   1.735  0.9036  0.6522  0.1144
   45SOL     OW  133   1.299   0.240   2.221 -0.1464  0.0069 -0.0015
   45SOL    HW1  134   1.331   0.228   2.124 -0.8085  1.5529 -0.7689
   45SOL    HW2  135   1.329   0.160   2.279  0.0651 -1.9142  0.4234
   46SOL     OW  136   1.129   2.801   2.665 -0.4909 -0.3420 -0.1717
   46SOL    HW1  137   1.069   2.851   2.723  0.8833 -1.8985 -1.5159
   46SOL    HW2  138   1.225   2.829   2.676  2.0252  0.8384 -0.0739
   47SOL     OW  139   1.898   1.559   0.680  0.6299 -0.2801  0.4075
   47SOL    HW1  140   1.951   1.633   0.724  1.2558 -2.6841  1.0019
   47SOL    HW2  141   1.962   1.493   0.631 -1.6644 -2.3729 -1.3077
   48SOL     OW  142   1.180   2.208   0.620 -0.4673  0.0524 -0.1114
   48SOL    HW1  143   1.171   2.241   0.524  0.7378 -0.4726  1.1860
   48SOL    HW2  144   1.155   2.108   0.616  1.3016  0.7050 -0.9578
   49SOL     OW  145   1.961   2.866   2.681 -0.2777 -0.4035  0.1590
   49SOL    HW1  146   1.970   2.863   2.580  3.9633 -0.6994 -0.1825
   49SOL    HW2  147   2.039   2.911   2.729 -0.7205  0.6330 -0.3673
   50SOL     OW  148   1.593   2.923   0.202  0.1336 -0.1112 -0.1935
   50SOL    HW1  149   1.694   2.942   0.204 -1.1366  0.5735  1.7700
   50SOL    HW2  150   1.552   2.954   0.286 -0.3308 -0.0309 -3.3262
   51SOL     OW  151   2.056   0.547   1.192  0.3279 -0.2154 -0.3243
   51SOL    HW1  152   2.095   0.491   1.269  0.8516 -0.1460  1.1496
   51SOL    HW2  153   2.029   0.635   1.231  1.9088  2.1094 -1.7935
   52SOL     OW  154   1.048   1.627   0.843 -0.2665  0.3387  0.0253
   52SOL    HW1  155   1.100   1.547   0.876  2.1213 -1.9763 -1.0207
   52SOL    HW2  156   1.031   1.700   0.912 -0.5916  2.6197  0.4622
   53SOL     OW  157   0.628   1.712   2.499 -0.2515 -0.4352 -0.2015
   53SOL    HW1  158   0.576   1.705   2.587 -0.3798 -0.8004 -3.6365
   53SOL    HW2  159   0.696   1.638   2.483  1.8190  1.5014  0.6034
   54SOL     OW  160   2.853   1.310   1.756  0.1486  0.0612 -0.5667
   54SOL    HW1  161   2.881   1.234   1.816  2.3559 -1.0129  1.1803
   54SOL    HW2  162   2.881   1.400   1.794 -1.0332  0.8162 -3.0994
   55SOL     OW  163   2.604   1.796   0.592 -0.1100  0.0743 -0.5399
   55SOL    HW1  164   2.642   1.704   0.615 -0.8824  2.1227 -1.6467
   55SOL    HW2  165   2.677   1.862   0.605 -1.3616 -2.1306  0.1606
   56SOL     OW  166   1.497   0.143   1.666 -0.0511  0.0576  0.4168
   56SOL    HW1  167   1.508   0.058   1.717  0.9187  1.5251 -1.2041
   56SOL    HW2  168   1.514   0.221   1.726  0.4517 -0.2787 -0.2973
   57SOL     OW  169   1.286   1.577   2.831  0.5399  0.1292  0.4032
   57SOL    HW1  170   1.358   1.531   2.774  3.0209  1.5355 -1.7384
   57SOL    HW2  171   1.321   1.585   2.924 -2.0503 -0.4608 -1.1708
   58SOL     OW  172   0.064   0.782   1.715  0.4358 -0.3349 -0.0864
   58SOL    HW1  173   0.152   0.788   1.767  1.1546 -0.8856 -0.0485
   58SOL    HW2  174   0.037   0.874   1.684 -1.3896 -1.5708 -1.4199
   59SOL     OW  175   1.793   2.703   0.416  0.1757  0.1240 -0.1693
   59SOL    HW1  176   1.741   2.626   0.366 -1.9102 -2.0816 -2.2119
   59SOL    HW2  177   1.844   2.754   0.346  3.1722  2.0170  0.5595
   60SOL     OW  178   2.898   1.726   0.054 -0.1055  0.2062  0.2116
   60SOL    HW1  179   2.913   1.813   0.099 -0.0363 -2.0599 -1.3320
   60SOL    HW2  180   2.969   1.727   3.085 -0.5570  0.7567  1.2803
   61SOL     OW  181   0.873   2.634   0.858  0.0697 -0.2916  0.5208
   61SOL    HW1  182   0.822   2.595   0.932 -0.8035  0.7817 -1.5645
   61SOL    HW2  183   0.844   2.601   0.768 -2.6148  1.5124  0.0220
   62SOL     OW  184   1.893   1.693   2.714  0.0117 -0.1094  0.3890
   62SOL    HW1  185   1.934   1.739   2.632 -0.3719  0.0319  0.1207
   62SOL    HW2  186   1.883   1.760   2.785  0.1617 -1.6961  0.4606
   63SOL     OW  187   2.285   2.250   0.790 -0.3219 -0.6643 -0.7529
   63SOL    HW1  188   2.348   2.280   0.715 -1.2071  1.7195  0.1884
   63SOL    HW2  189   2.225   2.171   0.764 -0.9775  0.3590 -0.9832
   64SOL     OW  190   1.539   1.099   2.816  0.0270  0.7737 -0.4162
   64SOL    HW1  191   1.504   1.130   2.727  1.1686  0.6567  0.3289
   64SOL    HW2  192   1.615   1.039   2.798 -1.7722  0.6870  3.5982
   65SOL     OW  193   2.011   1.780   2.485 -0.0283 -0.8941 -0.1072
   65SOL    HW1  194   2.111   1.818   2.495  4.0269  2.8509  1.3818
   65SOL    HW2  195   1.957   1.847   2.429  0.4695  0.7572 -1.7694
   66SOL     OW  196   0.268   1.036   1.385 -0.6375 -0.2576 -0.2869
   66SOL    HW1  197   0.309   1.075   1.301  2.7701 -0.6903  1.6933
   66SOL    HW2  198   0.248   1.104   1.458  0.4165 -0.5805 -0.7818
   67SOL     OW  199   2.333   2.721   2.649  0.3047 -0.3355 -0.0636
   67SOL    HW1  200   2.321   2.663   2.564  1.4251  1.5017  0.3942
   67SOL    HW2  201   2.377   2.811   2.622  0.6798 -1.7490 -0.7643
   68SOL     OW  202   1.239   2.633   1.178 -0.1845 -0.0805  0.4777
   68SOL    HW1  203   1.204   2.728   1.166  0.4156  0.4318 -0.3188
   68SOL    HW2  204   1.196   2.574   1.105  1.2224 -0.6304  0.0815
   69SOL     OW  205   0.785   2.552   3.046 -0.2815 -0.1349 -0.7745
   69SOL    HW1  206   0.812   2.639   3.092  1.5699 -0.6637  2.5036
   69SOL    HW2  207   0.871   2.511   3.005 -0.0124 -0.7247  1.9414
   70SOL     OW  208   2.856   0.309   2.383 -0.4135  0.0043 -0.0763
   70SOL    HW1  209   2.854   0.295   2.486 -3.1870  2.5763  1.3798
   70SOL    HW2  210   2.948   0.333   2.353 -1.7105  0.4782  2.4723
   71SOL     OW  211   0.359   1.407   2.660  0.3116  0.4204  0.4269
   71SOL    HW1  212   0.270   1.441   2.697  0.4221  0.6164  2.2085
   71SOL    HW2  213   0.437   1.454   2.700 -0.1066 -2.4378 -0.1619
   72SOL     OW  214   0.120   1.894   2.770 -0.6702 -0.4263 -0.0244
   72SOL    HW1  215   0.065   1.858   2.694  0.3530  1.0294  2.0296
   72SOL    HW2  216   0.191   1.958   2.736  0.1359  0.0212 -0.7164
   73SOL     OW  217   1.559   1.564   0.231 -0.1336  0.5117  0.2915
   73SOL    HW1  218   1.611   1.549   0.316 -0.2369 -0.2616 -3.5090
   73SOL    HW2  219   1.488   1.638   0.247  1.9643  0.8187 -1.2512
   74SOL     OW  220   2.123   2.627   2.863 -0.1992 -0.2583  0.2129
   74SOL    HW1  221   2.163   2.660   2.775  0.6544 -0.8143 -1.6115
   74SOL    HW2  222   2.182   2.658   2.943  2.4850  2.3195  4.1705
   75SOL     OW  223   2.081   1.805   1.159  0.2558 -0.2124  0.1596
   75SOL    HW1  224   2.144   1.808   1.081  1.2340 -0.6438 -0.1759
   75SOL    HW2  225   2.099   1.721   1.210  0.4716  0.5979  1.3582
   76SOL     OW  226   2.284   2.275   1.887  0.1556 -0.0687 -0.3932
   76SOL    HW1  227   2.288   2.260   1.988  2.4335 -1.3176 -1.8910
   76SOL    HW2  228   2.343   2.211   1.834 -1.2321  1.4392 -1.0540
   77SOL     OW  229   2.403   3.060   2.228 -0.3515 -0.3858  0.1335
   77SOL    HW1  230   2.394   0.005   2.140 -2.8654  0.7538  2.9972
   77SOL    HW2  231   2.341   2.977   2.241 -1.7684  0.1017 -1.0478
   78SOL     OW  232   1.859   1.105   0.003 -0.8997  0.3423 -0.2929
   78SOL    HW1  233   1.888   1.036   0.073  0.4994  0.1384  2.3885
   78SOL    HW2  234   1.909   1.112   3.017  2.5284  1.9595 -0.6986
   79SOL     OW  235   2.572   1.438   2.447 -0.0733 -0.0200 -0.3570
   79SOL    HW1  236   2.622   1.528   2.485  0.9798  0.8988  0.7961
   79SOL    HW2  237   2.472   1.441   2.462  1.4050 -1.7969  0.9084
   80SOL     OW  238   1.845   1.677   1.522  0.1103 -0.2866 -0.1205
   80SOL    HW1  239   1.751   1.656   1.549 -0.5463  0.6297 -0.9537
   80SOL    HW2  240   1.906   1.713   1.596  1.5703 -2.7985  0.1991
   81SOL     OW  241   2.008   0.595   1.571 -0.0810 -0.6555  0.3596
   81SOL    HW1  242   2.111   0.601   1.580  0.5190  0.1260 -0.9111
   81SOL    HW2  243   1.970   0.694   1.568  1.2529  2.9524 -2.2250
   82SOL     OW  244   2.220   2.229   1.566  0.3705  0.5440 -0.2345
   82SOL    HW1  245   2.301   2.291   1.585 -0.8305 -0.0419 -0.2672
   82SOL    HW2  246   2.251   2.132   1.547  2.3175 -2.8011  0.2569
   83SOL     OW  247   2.957   0.015   0.090 -0.3112  0.8163  0.1088
   83SOL    HW1  248   3.033   0.067   0.136  2.1351  0.8169 -1.4160
   83SOL    HW2  249   2.939   0.048   3.099  0.9231  0.6814  1.1550
   84SOL     OW  250   0.638   1.310   0.010  0.4669 -0.4276  0.2907
   84SOL    HW1  251   0.727   1.359   0.005 -2.2712 -1.4961 -1.3602
   84SOL    HW2  252   0.651   1.236   0.078 -2.6257  2.1122 -2.3450
   85SOL     OW  253   2.866   2.030   1.669 -0.3184  0.5870 -0.0311
   85SOL    HW1  254   2.905   1.949   1.721  0.9056 -1.2853  3.0587
   85SOL    HW2  255   2.827   2.000   1.580 -0.4611  0.0329 -0.0561
   86SOL     OW  256   0.374   2.653   1.526  0.3613 -0.1091  0.0739
   86SOL    HW1  257   0.434   2.576   1.494  2.8975 -0.2181 -0.3471
   86SOL    HW2  258   0.433   2.732   1.543  1.8806 -2.3474 -4.9197
   87SOL     OW  259   0.390   2.586   2.408 -0.4216 -0.5713 -0.1448
   87SOL    HW1  260   0.487   2.583   2.370  2.5891 -0.9938  0.3552
   87SOL    HW2  261   0.365   2.487   2.424 -1.2040 -1.4650 -2.0142
   88SOL     OW  262   0.171   2.136   0.622  0.0210  0.0775 -0.0888
   88SOL    HW1  263   0.225   2.176   0.698  2.7338 -1.2648  1.2082
   88SOL    HW2  264   0.234   2.103   0.546  1.1591  1.2127 -0.1208
   89SOL     OW  265   0.824   0.672   1.473  0.1256 -0.0249  0.4565
   89SOL    HW1  266   0.878   0.716   1.400  1.5807  0.2281  0.2970
   89SOL    HW2  267   0.772   0.590   1.440  1.0514 -1.5925 -2.6487
   90SOL     OW  268   0.242   1.217   1.603  0.1437 -0.0629  0.1073
   90SOL    HW1  269   0.230   1.311   1.644 -1.1827  1.4949  2.4887
   90SOL    HW2  270   0.334   1.181   1.632 -1.3192  0.7592  1.3449
   91SOL     OW  271   1.129   0.808   0.992 -0.1662 -0.3789 -0.0552
   91SOL    HW1  272   1.162   0.859   1.073  2.2163 -3.8082 -1.0967
   91SOL    HW2  273   1.204   0.790   0.927 -1.3829 -2.3699  0.1961
   92SOL     OW  274   2.142   0.972   0.673 -0.3819 -0.2121  0.4040
   92SOL    HW1  275   2.239   0.991   0.690 -1.8032  0.3652 -0.4007
   92SOL    HW2  276   2.091   1.042   0.621 -0.0222 -0.2570 -1.3321
   93SOL     OW  277   2.443   0.741   2.508  0.0769  0.1608 -0.3189
   93SOL    HW1  278   2.494   0.651   2.517 -1.5904  0.7225  0.6966
   93SOL    HW2  279   2.340   0.731   2.505 -2.3364  0.8474  3.3199
   94SOL     OW  280   2.250   1.925   2.480 -0.2758  0.4308  0.3506
   94SOL    HW1  281   2.236   2.014   2.438 -0.0060 -4.2934 -1.2581
   94SOL    HW2  282   2.276   1.932   2.579  0.3775 -0.0775 -0.4698
   95SOL     OW  283   2.582   0.567   1.104  0.0468  0.0287 -0.2410
   95SOL    HW1  284   2.513   0.531   1.036 -2.0563 -0.3062 -0.8087
   95SOL    HW2  285   2.609   0.493   1.166 -2.5127 -0.0384 -1.5169
   96SOL     OW  286   2.400   2.671   1.725 -0.2852  0.2427 -0.2095
   96SOL    HW1  287   2.331   2.735   1.751  2.5693  0.5567 -0.8318
   96SOL    HW2  288   2.459   2.651   1.807  1.9393  0.2598 -2.4042
   97SOL     OW  289   2.530   0.991   1.207 -0.1668  0.1934  0.2073
   97SOL    HW1  290   2.529   1.063   1.132 -2.1968  0.0014 -0.8742
   97SOL    HW2  291   2.489   1.027   1.294 -0.4345 -0.0309 -0.7319
   98SOL     OW  292   1.566   1.972   1.689  0.4546  0.4035 -0.3719
   98SOL    HW1  293   1.525   1.937   1.776  2.8879 -2.2038 -0.8413
   98SOL    HW2  294   1.502   2.034   1.636 -0.5628 -0.6650  0.7827
   99SOL     OW  295   0.313   2.336   1.455  0.1196  0.6647 -0.2526
   99SOL    HW1  296   0.396   2.386   1.423  0.6566  1.1743  4.0024
   99SOL    HW2  297   0.266   2.389   1.529  0.5397 -0.4041 -1.2001
  100SOL     OW  298   1.145   0.666   2.908  0.0636  0.6233  0.3404
  100SOL    HW1  299   1.103   0.743   2.858 -0.5902 -1.2281  0.1653
  100SOL    HW2  300   1.229   0.637   2.850  0.0756  0.3622 -1.2108
  101SOL     OW  301   2.285   0.161   2.643  0.5141 -0.0906  0.0042
  101SOL    HW1  302   2.346   0.160   2.563 -2.2926 -2.0839 -2.6268
  101SOL    HW2  303   2.313   0.220   2.716 -1.2330 -1.8763 -0.1333
  102SOL     OW  304   0.438   0.839   1.548  0.3237  0.6591 -0.0008
  102SOL    HW1  305   0.391   0.894   1.475 -0.7135  2.1105 -0.4447
  102SOL    HW2  306   0.537   0.869   1.555  0.0562 -1.4399  1.0001
  103SOL     OW  307   0.261   0.640   2.704  0.2397 -0.6874 -0.0006
  103SOL    HW1  308   0.194   0.714   2.724 -4.3853 -2.8979  2.6539
  103SOL    HW2  309   0.308   0.611   2.791 -1.0071  0.4513 -0.7769
  104SOL     OW  310   0.891   0.526   2.593  0.5757 -0.5557  0.2434
  104SOL    HW1  311   0.865   0.510   2.492  2.3061  1.6799  2.1046
  104SOL    HW2  312   0.844   0.461   2.652  0.7220 -1.5134 -1.6231
  105SOL     OW  313   1.970   1.781   1.743 -0.3080 -0.6567 -0.0763
  105SOL    HW1  314   1.931   1.759   1.831  2.5183  1.8534 -0.5789
  105SOL    HW2  315   2.074   1.783   1.762  1.4679  0.6642  4.0233
  106SOL     OW  316   1.896   0.169   0.589 -0.0770 -0.4385 -0.1890
  106SOL    HW1  317   1.902   0.073   0.551  2.3320  1.6906  2.6905
  106SOL    HW2  318   1.987   0.220   0.585  2.2115  3.2643 -1.3029
  107SOL     OW  319   2.851   1.940   1.117  0.1249 -0.4050 -0.1213
  107SOL    HW1  320   2.839   2.030   1.162 -0.5728 -0.6600  2.3818
  107SOL    HW2  321   2.769   1.918   1.061  0.1536  1.7477 -0.5918
  108SOL     OW  322   2.867   2.694   1.496  0.3113  0.7549  0.1203
  108SOL    HW1  323   2.813   2.779   1.504  0.2833  0.5563  0.5951
  108SOL    HW2  324   2.962   2.708   1.468 -2.6106 -1.1690 -1.1308
  109SOL     OW  325   2.020   2.714   1.069  0.2050  0.7784  0.1476
  109SOL    HW1  326   2.076   2.657   1.134 -1.0779  0.3916 -0.0806
  109SOL    HW2  327   2.061   2.808   1.066  2.8785  0.8942 -1.1904
  110SOL     OW  328   0.759   1.951   2.446 -0.0429  0.1480  0.7843
  110SOL    HW1  329   0.707   1.865   2.462 -1.0516  0.7708 -2.9981
  110SOL    HW2  330   0.841   1.955   2.505  2.2701  0.9942  0.3440
  111SOL     OW  331   1.578   2.628   2.202 -0.5222 -0.2120  0.2077
  111SOL    HW1  332   1.681   2.626   2.205 -1.6724 -1.7141 -0.1793
  111SOL    HW2  333   1.551   2.611   2.108 -2.4492  0.2514  2.9236
  112SOL     OW  334   1.898   1.746   0.028  0.4854  0.0394 -0.0758
  112SOL    HW1  335   1.813   1.782   3.092 -0.4149  1.9248  0.9909
  112SOL    HW2  336   1.971   1.815   0.011 -2.7743 -3.4033 -1.4891
  113SOL     OW  337   1.872   2.075   1.415  0.6371  0.1809  0.0256
  113SOL    HW1  338   1.927   1.990   1.421 -0.8361 -1.5068 -1.7928
  113SOL    HW2  339   1.888   2.135   1.494 -0.2376 -1.8320  0.5528
  114SOL     OW  340   2.955   1.039   0.857  0.0229  0.5673 -0.3904
  114SOL    HW1  341   2.909   1.001   0.773 -1.9188  1.9977 -1.9261
  114SOL    HW2  342   2.927   0.991   0.941 -1.0859 -0.3492 -0.0992
  115SOL     OW  343   0.736   0.747   3.095 -0.5304 -0.6640  0.0390
  115SOL    HW1  344   0.637   0.766   3.062 -1.4218  1.6899  2.0599
  115SOL    HW2  345   0.748   0.651   0.026 -0.9830 -0.4259 -1.3668
  116SOL     OW  346   2.699   1.674   2.521 -0.4702  0.6058  0.0491
  116SOL    HW1  347   2.694   1.748   2.452 -2.0657 -1.1710  1.1454
  116SOL    HW2  348   2.754   1.697   2.605  0.5505  1.8221 -0.4645
  117SOL     OW  349   2.977   2.790   0.587  0.1652  0.4431  0.0438
  117SOL    HW1  350   3.069   2.747   0.590  0.8162  0.1394 -3.3354
  117SOL    HW2  351   2.907   2.722   0.555 -3.7669 -0.6768  1.9522
  118SOL     OW  352   0.880   1.603   2.935  0.2434  0.9319 -0.3569
  118SOL    HW1  353   0.822   1.674   2.886 -0.0652  0.1322  1.1488
  118SOL    HW2  354   0.949   1.647   2.984 -4.4905 -4.6956 -0.6344
  119SOL     OW  355   0.455   2.240   0.168 -0.2001  0.0261 -0.3451
  119SOL    HW1  356   0.355   2.261   0.165 -1.5139 -1.1453  0.6909
  119SOL    HW2  357   0.474   2.187   0.252  2.1656 -1.7811 -3.9161
  120SOL     OW  358   1.126   0.624   0.079  0.1074  0.4408  0.6358
  120SOL    HW1  359   1.124   0.716   0.129  0.9967 -0.1163 -1.0398
  120SOL    HW2  360   1.125   0.635   3.079  1.0244 -1.0976  1.5609
  121SOL     OW  361   1.231   2.788   0.552 -0.0990  0.1805  0.1967
  121SOL    HW1  362   1.257   2.778   0.652  0.4668  2.6861 -1.0280
  121SOL    HW2  363   1.298   2.739   0.491  1.9016 -0.6035  0.0021
  122SOL     OW  364   2.490   2.311   1.362 -0.2204  0.0596  0.0303
  122SOL    HW1  365   2.488   2.404   1.325  0.2146 -2.8736  1.8281
  122SOL    HW2  366   2.538   2.298   1.453  1.6902  1.7070  1.1313
  123SOL     OW  367   0.764   1.924   0.528  0.3302  0.3116 -0.0826
  123SOL    HW1  368   0.756   1.993   0.449 -0.3617  4.7664  2.3934
  123SOL    HW2  369   0.692   1.944   0.596  3.0412 -1.6748 -2.7211
  124SOL     OW  370   2.897   0.656   0.191 -0.1888  0.2488  0.6945
  124SOL    HW1  371   2.996   0.666   0.219  4.1069 -0.6694 -1.6098
  124SOL    HW2  372   2.841   0.738   0.208  0.2087 -0.1814 -1.9145
  125SOL     OW  373   0.371   0.928   0.198 -0.0980 -1.0205  0.2574
  125SOL    HW1  374   0.380   0.893   0.098  2.0401 -1.6940 -2.3706
  125SOL    HW2  375   0.381   0.855   0.263  0.3813 -0.3833 -1.2192
  126SOL     OW  376   0.102   1.953   0.862  0.0500  0.6409  0.2347
  126SOL    HW1  377   0.161   1.877   0.832 -2.0362 -2.3290  0.2432
  126SOL    HW2  378   0.078   2.021   0.786 -0.8417  4.5411 -0.3904
  127SOL     OW  379   1.524   1.865   1.939  0.1072 -0.1842 -0.6975
  127SOL    HW1  380   1.623   1.856   1.970 -0.8442  0.6359  1.3366
  127SOL    HW2  381   1.462   1.910   2.011 -0.5482  1.0894  1.4305
  128SOL     OW  382   1.152   1.182   0.401 -0.6479  0.4236 -0.1424
  128SOL    HW1  383   1.160   1.239   0.317  1.1360 -0.5049  4.6405
  128SOL    HW2  384   1.246   1.185   0.452  2.4673 -0.1396  0.9829
  129SOL     OW  385   2.001   1.077   1.003  0.0141  0.6220 -0.1307
  129SOL    HW1  386   2.034   0.996   0.951 -1.0238 -0.3190 -2.9532
  129SOL    HW2  387   1.930   1.122   0.949  1.4160  1.9613  2.6529
  130SOL     OW  388   2.498   1.491   1.612  0.3413  0.0582 -0.0848
  130SOL    HW1  389   2.430   1.549   1.562 -0.1765  0.3946  1.2435
  130SOL    HW2  390   2.594   1.528   1.616 -0.7672  0.0072  0.7339
  131SOL     OW  391   3.024   2.637   2.796 -0.3938 -0.4024  0.3742
  131SOL    HW1  392   2.939   2.628   2.855  1.0528  1.8627  1.3161
  131SOL    HW2  393   2.996   2.674   2.704  0.6291  0.4545 -1.2842
  132SOL     OW  394   3.049   1.546   0.363 -0.2260 -0.1285 -0.4920
  132SOL    HW1  395   2.998   1.501   0.289  0.6769 -2.8962  0.1936
  132SOL    HW2  396   3.021   1.507   0.456 -0.6148  2.3797 -2.5026
  133SOL     OW  397   0.429   0.541   1.714  0.3755 -0.3660 -0.0383
  133SOL    HW1  398   0.425   0.631   1.765 -1.4838  4.0639  0.6958
  133SOL    HW2  399   0.359   0.475   1.756  0.0871  2.7397 -0.6915
  134SOL     OW  400   0.281   1.901   2.994  0.1981  0.0424  0.7891
  134SOL    HW1  401   0.226   1.895   2.911 -1.4093  0.2233  2.9914
  134SOL    HW2  402   0.336   1.990   3.002  5.0140  0.7314  0.9953
  135SOL     OW  403   1.697   0.596   1.836 -0.2981 -0.5456  0.0018
  135SOL    HW1  404   1.714   0.695   1.818 -0.3876  0.2403  0.5035
  135SOL    HW2  405   1.648   0.585   1.923  1.9808 -0.2165 -0.4524
  136SOL     OW  406   2.944   1.106   0.176  0.2832  0.3071  0.1154
  136SOL    HW1  407   3.028   1.066   0.135 -0.8964 -0.9050 -1.8722
  136SOL    HW2  408   2.896   1.166   0.109  0.2575  0.6255  0.5075
  137SOL     OW  409   0.207   1.501   0.992 -0.4170 -0.9028 -0.3652
  137SOL    HW1  410   0.221   1.403   0.965 -0.4315 -2.1955  0.6551
  137SOL    HW2  411   0.106   1.516   1.005 -2.2736  1.6085 -0.8625
  138SOL     OW  412   2.299   0.378   1.345  0.4696  0.1933  0.3370
  138SOL    HW1  413   2.332   0.313   1.277 -1.4790  2.8915  1.1548
  138SOL    HW2  414   2.371   0.448   1.357  1.4376  0.4540  0.0957
  139SOL     OW  415   1.365   2.675   0.354 -0.4863  0.5458  0.8076
  139SOL    HW1  416   1.430   2.671   0.274  0.7242 -1.8112 -2.0123
  139SOL    HW2  417   1.270   2.675   0.314  1.1037 -1.3096 -1.0395
  140SOL     OW  418   1.298   1.603   1.330  0.1717 -0.0867 -0.0586
  140SOL    HW1  419   1.248   1.523   1.295 -0.4698 -1.8552 -1.1208
  140SOL    HW2  420   1.392   1.613   1.287  2.3300  0.8132 -2.6183
  141SOL     OW  421   1.436   2.097   0.455 -0.5484  0.3280  0.7528
  141SOL    HW1  422   1.345   2.117   0.415 -1.4415 -1.1156 -0.1918
  141SOL    HW2  423   1.423   2.027   0.526 -3.4691 -1.0362 -1.0914
  142SOL     OW  424   0.850   0.411   0.539  0.0041  0.0618 -0.0112
  142SOL    HW1  425   0.862   0.342   0.466 -2.1194  1.0504  2.6863
  142SOL    HW2  426   0.808   0.496   0.503 -0.4488 -0.9382 -1.1053
  143SOL     OW  427   0.545   1.968   2.791 -0.2181 -0.4384  0.1799
  143SOL    HW1  428   0.516   2.012   2.878 -1.3017 -1.4226  2.8903
  143SOL    HW2  429   0.475   1.988   2.715 -0.9875  1.6895 -1.7677
  144SOL     OW  430   1.571   2.686   0.958 -0.3603 -0.1412  0.3835
  144SOL    HW1  431   1.534   2.771   1.004 -0.0784 -1.3748  0.0306
  144SOL    HW2  432   1.671   2.706   0.938 -1.1499  2.0201  0.4122
  145SOL     OW  433   1.812   0.708   2.776 -0.6193 -0.3651  0.1300
  145SOL    HW1  434   1.806   0.610   2.747  0.4974  1.9011 -0.5736
  145SOL    HW2  435   1.793   0.729   2.875  0.5341 -2.7096  1.6921
  146SOL     OW  436   0.078   2.791   0.789  0.0083  0.0723  0.3091
  146SOL    HW1  437   0.023   2.875   0.779  0.2024 -0.1616  0.7884
  146SOL    HW2  438   0.132   2.770   0.708 -1.1859  0.5381 -1.3495
  147SOL     OW  439   2.111   0.029   1.918  0.0749 -0.0910 -0.3907
  147SOL    HW1  440   2.096   3.069   1.844  1.0966  0.0735  0.0198
  147SOL    HW2  441   2.023   0.057   1.957 -2.0249 -0.0985 -2.9756
  148SOL     OW  442   1.062   0.147   1.936 -0.2985 -0.1480 -0.4486
  148SOL    HW1  443   1.054   0.253   1.908 -1.4011  2.4230 -1.4882
  148SOL    HW2  444   0.979   0.122   1.992 -1.4679 -4.1296  1.1922
  149SOL     OW  445   1.566   0.543   2.080 -0.4450  0.4007  0.3786
  149SOL    HW1  446   1.576   0.443   2.097 -1.2965  2.4535 -0.0476
  149SOL    HW2  447   1.469   0.573   2.099 -2.0287 -1.0089 -1.7584
  150SOL     OW  448   2.927   0.108   2.925  0.3474  0.1668  0.6867
  150SOL    HW1  449   2.871   0.181   2.965  0.1937 -3.2233  1.4273
  150SOL    HW2  450   2.870   0.049   2.872  1.8600  2.7515 -1.7652
  151SOL     OW  451   0.813   1.615   0.202  0.3965 -1.2047 -0.4329
  151SOL    HW1  452   0.778   1.638   0.295  1.9276  0.8950  0.7668
  151SOL    HW2  453   0.788   1.684   0.133  1.8768 -4.7633 -0.0283
  152SOL     OW  454   2.962   0.403   0.447 -0.0736 -0.0729  0.4192
  152SOL    HW1  455   2.873   0.375   0.490  1.7538  0.5972 -1.1281
  152SOL    HW2  456   3.008   0.483   0.495  0.5210  1.8790 -0.8172
  153SOL     OW  457   2.508   0.555   1.409 -0.5021  1.0456 -0.0472
  153SOL    HW1  458   2.530   0.561   1.511 -0.0554 -1.9158  2.9252
  153SOL    HW2  459   2.533   0.633   1.354 -2.2972 -1.3732  0.7753
  154SOL     OW  460   1.604   0.091   2.074  0.9681  0.3117 -0.3746
  154SOL    HW1  461   1.592   3.091   2.070 -0.4128  0.6648  0.4005
  154SOL    HW2  462   1.526   0.136   2.028  2.7726 -1.0807  0.4068
  155SOL     OW  463   0.247   1.702   0.820  0.2176  0.7138 -0.1645
  155SOL    HW1  464   0.321   1.768   0.814 -1.4576  0.6889 -0.0899
  155SOL    HW2  465   0.270   1.640   0.899  2.1759  1.5050 -3.1613
  156SOL     OW  466   2.064   2.193   0.057  0.0470 -0.3877  0.1319
  156SOL    HW1  467   2.061   2.268   3.099  2.8808 -1.9639  2.1782
  156SOL    HW2  468   1.984   2.133   0.043 -0.1980  0.9643  1.1725
  157SOL     OW  469   0.971   0.497   0.245  0.2484 -0.2153  0.1632
  157SOL    HW1  470   1.000   0.564   0.315  1.3929 -0.5081  1.9472
  157SOL    HW2  471   1.021   0.522   0.160 -0.3042  3.1912  2.3121
  158SOL     OW  472   2.218   3.019   2.729  0.0303 -0.1297  0.6291
  158SOL    HW1  473   2.224   0.001   2.677 -0.7514 -0.9034 -0.5829
  158SOL    HW2  474   2.297   2.956   2.709 -2.6900 -4.6357  0.7145
  159SOL     OW  475   2.936   0.101   0.438 -0.4826  0.0222 -0.2307
  159SOL    HW1  476   2.960   0.201   0.420 -2.0314  1.1230 -0.8707
  159SOL    HW2  477   3.012   0.056   0.486 -0.9003  2.0583  0.7215
  160SOL     OW  478   1.609   1.914   2.536  0.0807 -0.7357 -0.5951
  160SOL    HW1  479   1.650   1.818   2.540  0.8431  0.1929 -1.9809
  160SOL    HW2  480   1.566   1.933   2.445 -1.1904  0.7954  1.0884
  161SOL     OW  481   2.663   0.828   2.686  0.0433 -0.4762 -0.1478
  161SOL    HW1  482   2.747   0.772   2.669 -1.4293  0.7110 -1.2488
  161SOL    HW2  483   2.580   0.786   2.643 -2.7932  0.2893 -0.5064
  162SOL     OW  484   0.558   2.481   1.396 -0.1814  0.6159 -0.0604
  162SOL    HW1  485   0.601   2.556   1.342  1.1981 -1.2051 -1.5680
  162SOL    HW2  486   0.630   2.409   1.413  0.4858 -2.1486  1.5205
  163SOL     OW  487   2.137   0.421   2.431  0.1180 -0.4218  0.8753
  163SOL    HW1  488   2.160   0.341   2.478 -2.0934  1.1626  0.2940
  163SOL    HW2  489   2.179   0.418   2.337  0.3337  0.4374 -3.4415
  164SOL     OW  490   1.961   1.864   0.335 -0.1263 -0.0645  0.4813
  164SOL    HW1  491   1.974   1.850   0.234 -0.5376  1.6604  1.0056
  164SOL    HW2  492   2.039   1.839   0.398 -1.2521 -0.3211  0.2038
  165SOL     OW  493   2.825   0.311   1.564 -0.0358 -0.5225 -0.0030
  165SOL    HW1  494   2.791   0.330   1.661  2.6956 -1.7853  2.2362
  165SOL    HW2  495   2.900   0.377   1.539  0.6829  0.2970 -2.6789
  166SOL     OW  496   2.360   1.145   3.028 -0.2610  0.3803  0.0855
  166SOL    HW1  497   2.400   1.205   2.953 -1.0231 -0.3754 -1.7580
  166SOL    HW2  498   2.305   1.206   3.088 -0.5784  0.1368 -0.0705
  167SOL     OW  499   2.881   0.709   3.007  0.0547 -0.2350 -0.0974
  167SOL    HW1  500   2.908   0.693   3.101 -1.7267  2.7449 -0.3911
  167SOL    HW2  501   2.925   0.640   2.944  2.2803  1.5819 -0.6178
  168SOL     OW  502   1.514   2.837   2.827  0.1552  0.4588 -0.0730
  168SOL    HW1  503   1.608   2.841   2.866 -0.2832  2.1754  0.4021
  168SOL    HW2  504   1.477   2.930   2.821  2.2648  0.8828  2.0398
  169SOL     OW  505   3.011   1.438   0.645 -0.6530 -0.3683 -0.1973
  169SOL    HW1  506   3.037   1.537   0.666 -0.7060  1.8454 -3.5346
  169SOL    HW2  507   2.911   1.426   0.654 -1.8964 -1.0120  4.2339
  170SOL     OW  508   2.959   0.527   1.439 -0.1159 -0.1106  0.6554
  170SOL    HW1  509   3.051   0.563   1.470 -0.0003 -1.6688 -0.8887
  170SOL    HW2  510   2.959   0.515   1.339 -1.1653  2.6185 -0.6925
  171SOL     OW  511   1.802   2.220   2.511 -0.2176  0.1469  0.3984
  171SOL    HW1  512   1.813   2.133   2.464  3.9004  1.8234 -0.2803
  171SOL    HW2  513   1.801   2.293   2.443 -0.6832  1.5075  0.3819
  172SOL     OW  514   0.013   2.766   1.425 -0.7385  0.1286  0.2900
  172SOL    HW1  515   0.009   2.865   1.406  0.0681  1.4241 -0.4254
  172SOL    HW2  516   0.099   2.733   1.466 -2.2240 -2.4311  0.4370
  173SOL     OW  517   1.179   0.860   0.203  0.0769  0.6273 -0.3761
  173SOL    HW1  518   1.149   0.960   0.199  0.8967  5.1918 -0.5502
  173SOL    HW2  519   1.280   0.850   0.192 -0.7873  2.7048  0.0598
  174SOL     OW  520   1.112   0.148   2.638 -0.0868 -1.0411  0.3531
  174SOL    HW1  521   1.060   0.139   2.725 -1.7560  2.2539 -2.3688
  174SOL    HW2  522   1.085   0.067   2.585 -0.1986  1.8698  2.7538
  175SOL     OW  523   2.057   1.758   0.770  0.5315  0.4696 -0.4334
  175SOL    HW1  524   1.967   1.786   0.807  1.6393 -1.5616  3.1924
  175SOL    HW2  525   2.130   1.778   0.833  0.0579 -1.4021 -2.9972
  176SOL     OW  526   1.307   0.433   0.080  0.2389  0.0711  0.2415
  176SOL    HW1  527   1.242   0.509   0.080  4.2240  0.3919  0.6994
  176SOL    HW2  528   1.273   0.349   0.028  0.1568 -0.0461  0.3763
  177SOL     OW  529   0.947   1.412   0.263 -0.0917 -0.7222 -0.4773
  177SOL    HW1  530   0.887   1.489   0.232  1.1545  0.2924 -1.8556
  177SOL    HW2  531   1.048   1.433   0.261  2.2629 -1.1467  1.5930
  178SOL     OW  532   2.462   2.370   2.939  0.2072 -0.0514 -0.2780
  178SOL    HW1  533   2.527   2.303   2.896 -0.8132  2.0099 -1.2763
  178SOL    HW2  534   2.457   2.361   3.039 -1.1086 -1.5639 -0.4543
  179SOL     OW  535   2.559   3.064   2.888 -0.0924 -0.3838  0.1858
  179SOL    HW1  536   2.470   3.023   2.869  1.5990  3.1881  0.1306
  179SOL    HW2  537   2.541   0.062   2.894  0.6802  1.0504  1.4930
  180SOL     OW  538   1.499   1.401   0.617  0.2328 -0.0808  0.2199
  180SOL    HW1  539   1.441   1.321   0.580  1.0230 -1.8909 -0.9513
  180SOL    HW2  540   1.433   1.476   0.638 -1.9850  0.7353  1.1027
  181SOL     OW  541   1.681   1.039   2.462 -0.1361 -0.1967  0.3426
  181SOL    HW1  542   1.689   0.939   2.490  0.8699 -2.1433 -0.8369
  181SOL    HW2  543   1.743   1.100   2.514 -1.5509 -1.8977  1.7301
  182SOL     OW  544   2.460   2.940   2.611 -0.8031  0.3792 -0.1575
  182SOL    HW1  545   2.424   3.028   2.581 -0.4889 -2.0038 -0.3405
  182SOL    HW2  546   2.549   2.908   2.567 -2.5346  3.8333  0.3515
  183SOL     OW  547   1.888   0.526   2.458  0.8829  0.0445 -0.2372
  183SOL    HW1  548   1.847   0.553   2.368 -0.3157 -1.1481 -0.8397
  183SOL    HW2  549   1.983   0.492   2.447  0.0891  1.3503 -0.2251
  184SOL     OW  550   0.006   1.376   1.280  0.4110 -0.2550  0.2797
  184SOL    HW1  551   3.053   1.353   1.362  1.1756  1.1328 -0.9013
  184SOL    HW2  552   0.068   1.455   1.294  0.6908  3.0426  1.7361
  185SOL     OW  553   1.694   0.517   0.687  0.2923  0.7659  0.3052
  185SOL    HW1  554   1.765   0.507   0.760 -1.0958 -1.0430  0.0907
  185SOL    HW2  555   1.642   0.430   0.671 -0.5336  0.0886  0.9123
  186SOL     OW  556   0.297   2.586   3.029 -0.2828 -0.2586  0.1377
  186SOL    HW1  557   0.215   2.627   3.072  2.0296 -1.2502 -0.6037
  186SOL    HW2  558   0.271   2.502   2.978 -1.1763  2.2776  0.6858
  187SOL     OW  559   2.728   0.921   0.221 -0.2739  0.0177 -0.7511
  187SOL    HW1  560   2.806   0.987   0.215  0.1119  0.4436  2.0514
  187SOL    HW2  561   2.650   0.946   0.157  0.0180 -0.6268  1.0115
  188SOL     OW  562   2.850   1.542   1.406  0.0927 -0.0420  0.5767
  188SOL    HW1  563   2.889   1.460   1.449 -0.5596  0.0493 -1.4270
  188SOL    HW2  564   2.926   1.612   1.399  0.6230 -1.8268 -1.8654
  189SOL     OW  565   2.522   0.511   2.982  0.3451 -0.0552  0.3635
  189SOL    HW1  566   2.600   0.543   2.924 -0.0586  1.5837 -0.8724
  189SOL    HW2  567   2.554   0.493   3.073 -2.1403  2.5148 -3.2494
  190SOL     OW  568   1.532   1.404   2.225 -0.0888  0.2349  0.4077
  190SOL    HW1  569   1.513   1.432   2.132 -0.2788  1.3490  1.1954
  190SOL    HW2  570   1.480   1.468   2.291  1.1262 -0.2309  0.9947
  191SOL     OW  571   0.746   0.311   1.881  0.2864  0.1574  0.3836
  191SOL    HW1  572   0.779   0.346   1.786 -0.4246  1.1172 -2.3871
  191SOL    HW2  573   0.728   0.215   1.877 -0.0254  1.6778  0.4692
  192SOL     OW  574   1.936   1.369   1.077  0.1351  0.7266 -0.0762
  192SOL    HW1  575   1.917   1.315   0.993 -0.1547  1.2415  0.3562
  192SOL    HW2  576   1.925   1.311   1.159 -0.3237 -1.9173 -1.0362
  193SOL     OW  577   1.537   0.647   0.999 -0.0525  0.0181 -0.1566
  193SOL    HW1  578   1.633   0.665   0.969 -3.1772 -1.9204  0.8393
  193SOL    HW2  579   1.479   0.706   0.945 -3.1652  1.2986 -0.7245
  194SOL     OW  580   0.816   2.193   1.483 -0.2133  0.2156 -0.3491
  194SOL    HW1  581   0.844   2.228   1.393 -0.1549 -1.1614  1.3893
  194SOL    HW2  582   0.818   2.094   1.482  1.4910  0.4766 -0.2201
  195SOL     OW  583   1.861   0.133   2.955  0.1064  0.4792 -0.3476
  195SOL    HW1  584   1.936   0.118   3.020  0.5025  1.5628  0.0933
  195SOL    HW2  585   1.887   0.133   2.857 -1.8193 -2.6414 -0.9332
  196SOL     OW  586   0.568   1.576   1.650  0.5801  0.4085 -0.0227
  196SOL    HW1  587   0.540   1.519   1.569  1.4902  4.8570  1.1447
  196SOL    HW2  588   0.650   1.530   1.692  0.0270 -1.0414  1.2721
  197SOL     OW  589   0.995   0.125   1.340 -0.6375 -0.1436  0.3179
  197SOL    HW1  590   1.045   0.087   1.261  1.5570  0.5275  1.7917
  197SOL    HW2  591   1.054   0.198   1.374 -0.3998 -1.8679 -1.8714
  198SOL     OW  592   0.689   1.096   1.056  0.1059 -0.5484  0.2451
  198SOL    HW1  593   0.710   1.008   1.106 -1.6689 -0.0649 -1.1155
  198SOL    HW2  594   0.727   1.079   0.961  0.4535  1.2546 -2.3339
  199SOL     OW  595   0.233   2.459   1.686  0.2080 -0.0366 -0.1159
  199SOL    HW1  596   0.266   2.442   1.776 -1.1079  2.2372 -0.9961
  199SOL    HW2  597   0.281   2.528   1.637  2.6677 -1.7366 -0.2428
  200SOL     OW  598   1.791   1.714   1.965  0.2286  0.4378  0.2999
  200SOL    HW1  599   1.753   1.650   1.898 -2.0030 -0.0078 -1.1255
  200SOL    HW2  600   1.818   1.662   2.050 -2.5680 -1.7576 -1.2911
  201SOL     OW  601   0.405   1.666   2.306 -0.1406 -0.1537 -0.5044
  201SOL    HW1  602   0.322   1.712   2.346 -0.1119  1.5073  1.6665
  201SOL    HW2  603   0.475   1.665   2.381  0.3804 -0.2331  0.9947
  202SOL     OW  604   1.633   0.603   0.107  0.2730 -0.1671 -0.6895
  202SOL    HW1  605   1.672   0.510   0.082  0.9527  0.2026  0.5174
  202SOL    HW2  606   1.655   0.629   0.204  2.5948 -0.2014  1.7957
  203SOL     OW  607   1.234   2.663   1.890  0.2181 -0.2839  0.5306
  203SOL    HW1  608   1.183   2.577   1.911 -2.9162  0.2052 -1.1534
  203SOL    HW2  609   1.215   2.695   1.793 -0.7431  1.1676 -1.2235
  204SOL     OW  610   0.935   2.084   1.812 -0.8793  0.3860 -0.0508
  204SOL    HW1  611   0.954   2.157   1.740  1.1652 -0.0221 -1.1529
  204SOL    HW2  612   1.014   2.046   1.863 -1.4993  1.3573  1.6248
  205SOL     OW  613   1.707   1.905   2.141  0.9030 -0.0546 -0.3321
  205SOL    HW1  614   1.749   1.852   2.068 -1.8287  4.0688  2.2055
  205SOL    HW2  615   1.633   1.851   2.189  2.1813 -0.5884  2.2328
  206SOL     OW  616   0.023   0.971   2.457  0.4936 -0.6414 -0.0577
  206SOL    HW1  617   0.036   0.892   2.388  0.1366 -1.1186  0.3542
  206SOL    HW2  618   0.080   1.048   2.426  0.1204  0.5177 -0.2945
  207SOL     OW  619   0.896   2.954   1.900  0.0596 -0.3126  0.3220
  207SOL    HW1  620   0.933   2.931   1.991  3.2056 -1.1040  0.7031
  207SOL    HW2  621   0.842   2.873   1.862 -1.1702  1.3905  0.4058
  208SOL     OW  622   0.662   2.802   1.895  0.0346  0.3394 -0.0124
  208SOL    HW1  623   0.703   2.707   1.910 -1.9765 -0.7001  0.9410
  208SOL    HW2  624   0.624   2.823   1.804  1.5496  0.2159  0.5130
  209SOL     OW  625   1.531   0.305   0.101  0.2105  0.1748 -0.1210
  209SOL    HW1  626   1.534   0.272   0.194  0.0703  2.2354 -0.0216
  209SOL    HW2  627   1.454   0.373   0.091 -0.6412 -1.9517 -0.6595
  210SOL     OW  628   2.804   0.747   0.804 -0.1295 -0.5072 -0.4616
  210SOL    HW1  629   2.888   0.712   0.847 -0.4022 -1.2140 -4.3669
  210SOL    HW2  630   2.831   0.809   0.728 -0.3940 -2.1623  0.6893
  211SOL     OW  631   0.408   0.550   1.440  0.2188 -0.2216  0.3706
  211SOL    HW1  632   0.402   0.653   1.424 -0.6599  3.6242 -2.5241
  211SOL    HW2  633   0.439   0.533   1.538  0.2324 -0.7551  0.7389
  212SOL     OW  634   1.706   1.749   1.296  0.2623 -0.4395 -0.1983
  212SOL    HW1  635   1.761   1.743   1.381 -0.5576  1.3450  0.8096
  212SOL    HW2  636   1.635   1.821   1.307 -2.1151 -0.8365  0.8631
  213SOL     OW  637   2.381   0.304   1.779 -0.1573 -0.2426 -0.0386
  213SOL    HW1  638   2.423   0.228   1.723  1.5619  0.4000 -1.2536
  213SOL    HW2  639   2.428   0.396   1.754 -3.4250  0.7754 -2.0014
  214SOL     OW  640   0.632   2.568   2.277 -0.2248  0.6260 -0.2248
  214SOL    HW1  641   0.651   2.608   2.185 -0.0420 -0.0602 -1.9639
  214SOL    HW2  642   0.707   2.503   2.304  0.1495  0.8372  0.3895
  215SOL     OW  643   2.737   1.661   1.647  0.2096 -0.1861 -0.1385
  215SOL    HW1  644   2.816   1.659   1.714  0.5314 -0.4148 -1.4284
  215SOL    HW2  645   2.770   1.639   1.551  1.2140 -0.2538 -2.5354
  216SOL     OW  646   0.634   0.826   1.848 -0.3925  0.0670  0.5409
  216SOL    HW1  647   0.670   0.917   1.842 -0.0447 -3.7348 -2.4269
  216SOL    HW2  648   0.540   0.823   1.812  3.6359  1.9204  0.5646
  217SOL     OW  649   2.764   0.335   0.657 -0.4305 -0.6399 -0.0728
  217SOL    HW1  650   2.862   0.343   0.696  2.1672  1.2744  0.0211
  217SOL    HW2  651   2.711   0.418   0.677  1.1298 -0.5800 -0.2743
  218SOL     OW  652   1.560   1.987   1.238  0.0157  0.6581 -0.0129
  218SOL    HW1  653   1.626   1.985   1.158 -1.1091 -0.7069 -1.7559
  218SOL    HW2  654   1.563   2.076   1.287 -2.2199  0.5712 -1.7477
  219SOL     OW  655   1.832   2.982   0.542 -0.1790  0.2915  0.0774
  219SOL    HW1  656   1.851   2.978   0.646 -0.3359 -0.8593 -0.2455
  219SOL    HW2  657   1.803   2.891   0.512 -0.7463  0.0861 -0.1743
  220SOL     OW  658   1.932   2.228   0.564  0.1010  0.3046  0.3244
  220SOL    HW1  659   1.977   2.238   0.474  1.5324  0.5085  0.7816
  220SOL    HW2  660   1.851   2.293   0.570 -0.3358  1.4563  2.0716
  221SOL     OW  661   2.765   1.333   0.301 -0.0690  0.2593 -0.1179
  221SOL    HW1  662   2.686   1.298   0.245  0.4614  2.8357  0.0133
  221SOL    HW2  663   2.837   1.374   0.242  2.5645 -2.5003  1.2343
  222SOL     OW  664   0.680   2.275   1.101  0.2682  0.4963  0.5204
  222SOL    HW1  665   0.724   2.205   1.046  0.7278  1.5179  1.7970
  222SOL    HW2  666   0.730   2.289   1.187  3.3139  0.9198 -0.4932
  223SOL     OW  667   1.278   0.328   0.342  0.1936 -0.0401 -0.0461
  223SOL    HW1  668   1.283   0.235   0.301 -2.2141  2.3218  1.4267
  223SOL    HW2  669   1.276   0.402   0.270  0.0030 -1.3108 -0.3106
  224SOL     OW  670   2.778   1.131   1.291  0.8211 -0.3441 -0.0271
  224SOL    HW1  671   2.692   1.078   1.256  0.5805  0.1761  0.4375
  224SOL    HW2  672   2.783   1.219   1.244  1.3218  1.8626  0.3051
  225SOL     OW  673   0.503   1.429   1.428  0.2415  0.2282 -0.2241
  225SOL    HW1  674   0.546   1.334   1.422  0.5689 -0.4455  0.6288
  225SOL    HW2  675   0.495   1.458   1.331  1.7505 -2.4180  1.2248
  226SOL     OW  676   0.445   2.962   0.822 -0.5200 -0.3551  0.3039
  226SOL    HW1  677   0.382   2.894   0.859  0.4421  2.7216  1.0037
  226SOL    HW2  678   0.457   3.032   0.895  0.1953  0.9304 -0.3720
  227SOL     OW  679   1.401   1.631   1.863  0.4422  0.2044 -0.6022
  227SOL    HW1  680   1.380   1.636   1.764 -0.4510  3.2238  1.8188
  227SOL    HW2  681   1.428   1.717   1.906 -0.2204 -0.9889 -1.2512
  228SOL     OW  682   0.789   0.133   1.644 -0.2137 -0.5015  0.1639
  228SOL    HW1  683   0.798   0.235   1.623  0.8135  2.7867 -2.6025
  228SOL    HW2  684   0.878   0.081   1.649  1.7042 -0.5747  0.9632
  229SOL     OW  685   2.894   0.679   2.623 -0.0563  0.2399 -0.3759
  229SOL    HW1  686   2.896   0.652   2.525 -1.9649  0.7238  0.3191
  229SOL    HW2  687   2.975   0.645   2.676 -0.7035  0.2549  1.4994
  230SOL     OW  688   0.212   0.852   1.072 -0.9593  0.1189  0.1754
  230SOL    HW1  689   0.212   0.937   1.015 -0.3690  0.9254  0.5197
  230SOL    HW2  690   0.155   0.860   1.154  1.0874 -0.7530 -0.7462
  231SOL     OW  691   1.228   3.040   1.813  0.0288 -0.1183  0.3608
  231SOL    HW1  692   1.187   0.016   1.864  1.2424  0.1221 -0.2601
  231SOL    HW2  693   1.329   3.042   1.818  1.3934  1.7178 -4.3190
  232SOL     OW  694   2.920   2.012   0.106 -0.2741 -0.4638  0.1766
  232SOL    HW1  695   2.921   1.992   0.205  1.6358 -0.3372 -0.6022
  232SOL    HW2  696   2.824   2.025   0.067 -0.8048 -0.6900  1.3049
  233SOL     OW  697   1.267   2.461   2.897 -0.3791  0.6514  0.9150
  233SOL    HW1  698   1.315   2.423   2.812  0.6875 -2.7521  1.6874
  233SOL    HW2  699   1.317   2.543   2.935 -0.2354 -0.1623 -3.2817
  234SOL     OW  700   0.492   1.141   1.641 -0.4807  0.7313 -0.0435
  234SOL    HW1  701   0.564   1.123   1.572  0.4797 -1.0342  3.3845
  234SOL    HW2  702   0.528   1.145   1.737 -0.5870  0.5146  0.5891
  235SOL     OW  703   0.051   2.339   2.300  0.1225 -0.4056  0.3123
  235SOL    HW1  704   0.146   2.347   2.343 -1.4212  0.3224 -1.5924
  235SOL    HW2  705   3.082   2.377   2.358 -1.9192  1.4285 -0.4006
  236SOL     OW  706   1.662   2.034   2.774  0.0830  0.2275 -0.0382
  236SOL    HW1  707   1.636   1.988   2.684  1.5734 -2.0193  0.4555
  236SOL    HW2  708   1.658   2.135   2.761  1.5217 -1.4200  0.8076
  237SOL     OW  709   1.642   0.971   0.942 -0.0284  0.6710 -0.8166
  237SOL    HW1  710   1.705   1.028   0.883 -0.7907  0.5483 -1.7276
  237SOL    HW2  711   1.548   1.009   0.939  1.2259  1.9427  0.8832
  238SOL     OW  712   1.231   2.811   2.111 -0.1303 -0.1030  0.7333
  238SOL    HW1  713   1.233   2.768   2.016 -0.6599 -2.2228 -0.1443
  238SOL    HW2  714   1.215   2.914   2.107 -0.2392  2.4761  1.2784
  239SOL     OW  715   1.066   2.460   1.927  0.0352 -0.2520  0.3511
  239SOL    HW1  716   1.101   2.431   2.017  0.5442  0.2235 -3.0920
  239SOL    HW2  717   1.021   2.389   1.872  0.0173  1.7722  1.3372
  240SOL     OW  718   2.180   0.024   0.730 -0.5116  0.3766  0.1539
  240SOL    HW1  719   2.109   0.065   0.671  1.4725  2.9641 -1.8966
  240SOL    HW2  720   2.267   0.080   0.722  2.0969  0.1135 -1.2107
  241SOL     OW  721   1.039   1.492   2.757  0.3289  0.3028 -0.0340
  241SOL    HW1  722   0.954   1.522   2.809 -2.9165  0.1274  0.8770
  241SOL    HW2  723   1.121   1.527   2.802 -3.3993 -0.5358 -2.3180
  242SOL     OW  724   2.746   0.945   2.935  0.4031  0.2832 -0.0326
  242SOL    HW1  725   2.799   0.863   2.963 -1.4792 -0.2937  1.2786
  242SOL    HW2  726   2.718   0.928   2.836  1.2484 -0.6682 -2.3369
  243SOL     OW  727   0.864   0.401   1.625  0.1490  0.6523 -0.0586
  243SOL    HW1  728   0.838   0.497   1.634 -2.0172 -3.0584 -1.1252
  243SOL    HW2  729   0.944   0.393   1.563 -1.6919  0.5018 -0.7209
  244SOL     OW  730   1.204   2.979   3.010 -0.2513  0.4954 -0.2421
  244SOL    HW1  731   1.190   2.889   3.054  2.2308 -1.9827  3.6043
  244SOL    HW2  732   1.304   3.003   3.018  0.4794 -1.7685  1.6080
  245SOL     OW  733   1.509   2.677   0.120  0.6304  0.0881  0.2658
  245SOL    HW1  734   1.590   2.615   0.117  0.4456  1.1584  1.1016
  245SOL    HW2  735   1.534   2.771   0.145  1.0951 -4.6089  0.0802
  246SOL     OW  736   0.657   1.114   1.841  0.5088 -0.4576  0.0358
  246SOL    HW1  737   0.610   1.116   1.933 -0.6031 -2.1494 -1.5187
  246SOL    HW2  738   0.758   1.105   1.854 -1.2128 -1.6807 -1.0069
  247SOL     OW  739   3.093   0.462   2.310 -0.6527  0.5398  0.8525
  247SOL    HW1  740   3.086   0.398   2.228 -3.5563 -1.6026 -0.1056
  247SOL    HW2  741   0.075   0.453   2.361 -1.2051  0.3340  0.8365
  248SOL     OW  742   0.029   1.285   2.107  0.1062  0.1908  0.2744
  248SOL    HW1  743   3.047   1.240   2.071 -3.7980 -0.1977  1.5293
  248SOL    HW2  744   0.045   1.238   2.197 -1.6674 -0.7842 -0.1247
  249SOL     OW  745   3.076   0.392   0.193  0.1892 -0.0358  0.0450
  249SOL    HW1  746   3.102   0.293   0.213  0.3760  1.4928 -0.1871
  249SOL    HW2  747   3.020   0.421   0.277  0.7991 -1.8923  2.3891
  250SOL     OW  748   2.803   0.332   2.988  0.4647  0.1931 -0.1218
  250SOL    HW1  749   2.763   0.382   3.068 -0.3802 -0.9773  0.4217
  250SOL    HW2  750   2.768   0.361   2.901  1.7188 -0.7598 -0.0663
  251SOL     OW  751   0.950   1.730   1.865  0.9428 -0.7199 -0.6972
  251SOL    HW1  752   0.868   1.772   1.910  1.6313  1.2627  2.4265
  251SOL    HW2  753   0.979   1.787   1.787  2.1552  0.2010 -2.0143
  252SOL     OW  754   2.108   1.538   1.286  0.2788  0.0470 -0.2645
  252SOL    HW1  755   2.112   1.547   1.185 -0.2471 -1.1054  0.0262
  252SOL    HW2  756   2.081   1.438   1.314 -1.3116 -1.1809 -1.2596
  253SOL     OW  757   1.569   2.296   2.362  0.2022  0.2674  0.3079
  253SOL    HW1  758   1.551   2.396   2.369 -2.0750 -0.9972 -1.6366
  253SOL    HW2  759   1.609   2.282   2.271 -0.3866 -0.5857 -3.4175
  254SOL     OW  760   0.630   2.351   2.054 -0.5929  0.9283 -0.7255
  254SOL    HW1  761   0.647   2.267   1.996 -2.5781 -0.9897  0.1513
  254SOL    HW2  762   0.698   2.429   2.040 -3.0130  0.4947  0.1067
  255SOL     OW  763   1.091   0.302   0.861  0.1784  0.7277 -0.1273
  255SOL    HW1  764   1.100   0.356   0.772 -0.6527  1.3005  0.4742
  255SOL    HW2  765   0.997   0.270   0.878  3.2911 -2.9401  0.1615
  256SOL     OW  766   2.284   1.955   1.477  0.1391  0.2320 -0.1265
  256SOL    HW1  767   2.314   1.997   1.387  2.2600  0.4932 -0.8758
  256SOL    HW2  768   2.191   1.918   1.477  0.9357 -0.7514  0.2747
  257SOL     OW  769   0.580   2.313   2.889  0.2606 -0.5288  0.2066
  257SOL    HW1  770   0.590   2.413   2.904  1.0996 -2.1496 -1.1362
  257SOL    HW2  771   0.672   2.275   2.893 -1.4140  2.7700 -1.5843
  258SOL     OW  772   0.337   1.000   2.216  0.3632 -0.1320  0.1892
  258SOL    HW1  773   0.338   0.921   2.280 -0.1269  0.1680  1.2744
  258SOL    HW2  774   0.427   1.041   2.195  0.7291 -0.1095  2.8090
  259SOL     OW  775   0.714   1.337   2.154  0.5524 -0.3814  0.0309
  259SOL    HW1  776   0.798   1.300   2.200 -0.6392 -1.2166 -0.7356
  259SOL    HW2  777   0.701   1.437   2.160 -2.6765  0.1863 -0.3576
  260SOL     OW  778   2.018   0.812   0.854 -0.0731 -0.1705  0.3005
  260SOL    HW1  779   2.097   0.754   0.892  1.9473 -1.9608  1.8470
  260SOL    HW2  780   2.062   0.876   0.786 -1.1240  1.4322  2.4259
  261SOL     OW  781   0.810   0.146   0.857  0.6395 -0.5476 -0.0182
  261SOL    HW1  782   0.768   0.207   0.789  0.2575 -1.0109 -2.2129
  261SOL    HW2  783   0.857   0.071   0.807  0.6911  0.9800  2.1749
  262SOL     OW  784   2.008   2.542   2.458  0.3714  0.3301  0.2795
  262SOL    HW1  785   1.962   2.540   2.547  0.4055  2.0968  0.9273
  262SOL    HW2  786   2.101   2.580   2.466  0.1227  0.5246 -0.2721
  263SOL     OW  787   0.451   1.713   3.053 -0.1241 -0.0198  0.2149
  263SOL    HW1  788   0.367   1.772   3.036  2.5683 -0.4140 -0.7341
  263SOL    HW2  789   0.428   1.612   3.051  0.9433 -4.1139  0.4569
  264SOL     OW  790   0.377   1.725   1.359  0.2841  0.3376  0.5988
  264SOL    HW1  791   0.482   1.722   1.372  0.4460 -1.5150  0.0599
  264SOL    HW2  792   0.352   1.809   1.307 -0.0408  1.2417 -0.9149
  265SOL     OW  793   0.895   0.834   0.580  0.4207  0.0284  0.5379
  265SOL    HW1  794   0.835   0.752   0.566  0.7822 -1.6665  0.8753
  265SOL    HW2  795   0.895   0.842   0.682 -1.1256 -3.5447  0.2559
  266SOL     OW  796   1.384   2.033   3.037  0.2659  0.2322 -0.1739
  266SOL    HW1  797   1.459   2.098   3.053 -3.2948 -0.6274 -1.1248
  266SOL    HW2  798   1.412   1.937   3.023  0.1132 -0.0078 -1.5225
  267SOL     OW  799   0.381   0.547   2.941 -0.4857  0.5633 -0.0278
  267SOL    HW1  800   0.323   0.466   2.946  1.1095  3.6990  0.5147
  267SOL    HW2  801   0.480   0.526   2.934 -0.0231 -2.1119  1.1908
  268SOL     OW  802   0.740   0.678   2.799  0.0289  0.0332 -0.4782
  268SOL    HW1  803   0.822   0.651   2.743  0.5046 -0.3809  0.7560
  268SOL    HW2  804   0.779   0.721   2.886  2.4633 -3.3114  0.0823
  269SOL     OW  805   1.697   0.025   2.612  0.0253 -0.1509  0.1727
  269SOL    HW1  806   1.667   0.090   2.540  1.8051  2.0745 -2.2445
  269SOL    HW2  807   1.617   0.011   2.676 -1.3112  0.0647 -2.5384
  270SOL     OW  808   0.712   0.987   2.509 -0.2534 -0.0680  0.4272
  270SOL    HW1  809   0.700   0.973   2.408  0.9595 -1.3220  0.1564
  270SOL    HW2  810   0.637   0.948   2.564 -1.5161 -0.0584 -0.1318
  271SOL     OW  811   0.062   0.679   0.272 -0.7778  0.0360  0.3332
  271SOL    HW1  812   0.057   0.740   0.351  1.5018  0.4084 -0.9746
  271SOL    HW2  813   0.140   0.615   0.277  0.5682 -1.4188  0.0202
  272SOL     OW  814   2.257   1.221   2.416  0.0524 -0.0998  0.4476
  272SOL    HW1  815   2.185   1.217   2.348  1.5662  0.0004 -0.3353
  272SOL    HW2  816   2.319   1.142   2.401 -0.8645  0.1554 -0.2357
  273SOL     OW  817   3.100   0.334   2.068 -0.0733 -0.8008 -0.3228
  273SOL    HW1  818   0.089   0.289   2.059 -0.4772 -1.0332  0.2615
  273SOL    HW2  819   3.030   0.288   2.015 -0.3101  0.7026  1.1921
  274SOL     OW  820   2.828   0.176   1.929  0.1906 -0.3961  0.1140
  274SOL    HW1  821   2.922   0.138   1.895  2.5188  1.2492 -1.9261
  274SOL    HW2  822   2.756   0.106   1.936  0.2009  0.1978 -1.5786
  275SOL     OW  823   2.003   1.123   0.460  0.1786 -0.4713  0.0317
  275SOL    HW1  824   2.061   1.050   0.424  1.0389 -0.0957  3.5538
  275SOL    HW2  825   1.953   1.178   0.390  0.4364 -0.9438 -4.4786
  276SOL     OW  826   0.325   1.182   2.931  0.6120  0.0695  0.0320
  276SOL    HW1  827   0.418   1.143   2.953 -2.2533  1.8313  0.7096
  276SOL    HW2  828   0.309   1.182   2.831 -0.8643 -3.1677 -1.7665
  277SOL     OW  829   1.769   2.851   2.248 -0.0243 -0.1368 -0.5615
  277SOL    HW1  830   1.828   2.767   2.244 -0.1092  1.9087 -0.4325
  277SOL    HW2  831   1.716   2.848   2.338 -0.2471  0.1463 -0.5604
  278SOL     OW  832   1.746   0.101   1.532  0.2103  0.3675 -0.2555
  278SOL    HW1  833   1.791   0.144   1.610  0.4769  0.8719  1.8521
  278SOL    HW2  834   1.651   0.133   1.539 -0.8860  2.2617 -2.1504
  279SOL     OW  835   1.235   1.157   3.031 -0.0310  0.3664 -0.1295
  279SOL    HW1  836   1.320   1.190   3.076  0.1177 -1.1007  3.6283
  279SOL    HW2  837   1.255   1.071   2.978 -2.0712 -0.2095 -1.0003
  280SOL     OW  838   0.735   1.203   0.247  0.6351  0.0627  0.1877
  280SOL    HW1  839   0.795   1.284   0.232 -0.0510  1.5612  0.0534
  280SOL    HW2  840   0.789   1.136   0.295  0.9144 -0.1671 -1.3663
  281SOL     OW  841   0.280   3.078   1.507 -0.2982 -0.1323  0.7980
  281SOL    HW1  842   0.302   3.037   1.597 -1.4642  0.1160  1.5232
  281SOL    HW2  843   0.344   0.053   1.480  0.1460  0.5045  0.7967
  282SOL     OW  844   3.072   2.302   0.880 -0.2351 -0.4138 -0.1936
  282SOL    HW1  845   3.039   2.398   0.859  0.0177  1.0185  0.3061
  282SOL    HW2  846   0.067   2.290   0.848  2.2733 -1.3344 -0.1202
  283SOL     OW  847   1.329   2.217   2.022  0.7026  0.1448 -0.4623
  283SOL    HW1  848   1.263   2.280   2.074  2.4458 -0.1158  1.5057
  283SOL    HW2  849   1.419   2.268   2.002 -0.7909  1.1589  0.0088
  284SOL     OW  850   2.355   0.730   0.378  0.1790 -0.4485  0.0789
  284SOL    HW1  851   2.398   0.643   0.411  0.1397  0.4675 -0.7919
  284SOL    HW2  852   2.354   0.733   0.275 -0.4479 -0.8122 -1.0230
  285SOL     OW  853   2.962   2.713   2.531  0.0175  0.0448 -0.1628
  285SOL    HW1  854   3.035   2.683   2.469 -0.0383  2.4684  1.7132
  285SOL    HW2  855   2.991   2.813   2.548  0.1596 -1.8444  0.3994
  286SOL     OW  856   2.209   2.554   1.224  0.0321  0.2812  0.6216
  286SOL    HW1  857   2.251   2.604   1.307 -0.0380 -1.1843  3.5700
  286SOL    HW2  858   2.204   2.453   1.243  0.8252 -1.4759 -0.9213
  287SOL     OW  859   0.767   1.381   1.082 -0.2480 -0.2259 -0.1836
  287SOL    HW1  860   0.791   1.427   0.997 -1.1692 -1.0169 -1.6199
  287SOL    HW2  861   0.732   1.288   1.063  0.2909  0.6425 -0.6329
  288SOL     OW  862   1.727   2.502   0.244  0.4010  0.0549  0.0065
  288SOL    HW1  863   1.684   2.412   0.282 -1.4153 -1.5592  1.5155
  288SOL    HW2  864   1.798   2.475   0.179  0.8080  1.1156  0.6737
  289SOL     OW  865   0.349   2.065   2.618 -0.2658  0.2736  0.0229
  289SOL    HW1  866   0.345   2.166   2.645  2.7260  3.6376  0.7660
  289SOL    HW2  867   0.364   2.048   2.519  1.1867 -1.7045 -4.6740
  290SOL     OW  868   1.719   2.075   1.016 -0.2528  0.4716  0.3163
  290SOL    HW1  869   1.775   2.107   1.093 -0.4550 -0.2277 -1.8266
  290SOL    HW2  870   1.646   2.138   0.994  1.1451 -0.7216  0.0645
  291SOL     OW  871   1.617   1.543   3.074  0.0803 -0.7488  0.4783
  291SOL    HW1  872   1.687   1.470   3.061 -0.4565 -1.1784 -0.7763
  291SOL    HW2  873   1.611   1.565   0.069 -0.2280 -1.0304  1.3637
  292SOL     OW  874   1.538   1.570   1.154  0.2137  0.1594  0.1247
  292SOL    HW1  875   1.495   1.600   1.066 -1.0753  1.5684  1.8621
  292SOL    HW2  876   1.604   1.641   1.186 -1.2939  2.1688 -0.1404
  293SOL     OW  877   1.891   2.968   0.827  0.0624 -0.5245  0.4021
  293SOL    HW1  878   1.976   2.991   0.872 -2.4348  1.1585 -1.8589
  293SOL    HW2  879   1.870   2.871   0.846  3.7496 -0.4961 -3.6405
  294SOL     OW  880   3.043   1.337   2.768 -0.3420 -0.0082  0.4508
  294SOL    HW1  881   2.959   1.386   2.802 -0.2468  0.4504  0.1298
  294SOL    HW2  882   3.027   1.236   2.749  1.2909 -0.5605  0.1086
  295SOL     OW  883   1.329   1.996   2.765 -0.1474  0.0051  0.4409
  295SOL    HW1  884   1.406   1.932   2.731  1.1288 -4.6099 -1.4024
  295SOL    HW2  885   1.340   2.021   2.861 -0.2978  1.8368  2.0856
  296SOL     OW  886   1.779   1.555   2.230 -0.4840  0.4795  0.0282
  296SOL    HW1  887   1.841   1.497   2.169 -0.1031 -0.7612 -0.5311
  296SOL    HW2  888   1.684   1.519   2.233  0.6644  1.7520  0.8094
  297SOL     OW  889   2.864   0.618   2.366 -0.2206 -0.5844 -0.0831
  297SOL    HW1  890   2.953   0.581   2.335 -0.1842  2.2112 -0.7178
  297SOL    HW2  891   2.828   0.666   2.287  1.4829 -2.4627  2.4639
  298SOL     OW  892   1.170   2.373   2.176  0.7636  0.5975  0.1700
  298SOL    HW1  893   1.203   2.397   2.269 -2.6433 -2.7898  2.0587
  298SOL    HW2  894   1.083   2.321   2.184  0.8900  0.1225 -2.8250
  299SOL     OW  895   0.804   2.709   2.655 -0.1507 -0.2232  0.1501
  299SOL    HW1  896   0.700   2.702   2.663 -4.2639  0.8608  1.7788
  299SOL    HW2  897   0.836   2.779   2.724  0.9088  0.8007  1.3732
  300SOL     OW  898   3.044   0.567   2.834 -0.1294 -0.0676 -0.0267
  300SOL    HW1  899   3.079   0.506   2.909  0.4488  1.2167 -2.3655
  300SOL    HW2  900   3.075   0.661   2.847 -0.1921 -0.4813 -0.2381
  301SOL     OW  901   1.692   1.008   1.591 -0.6635  0.4658  0.8471
  301SOL    HW1  902   1.655   0.941   1.522 -0.6955  2.7505 -0.4353
  301SOL    HW2  903   1.651   1.101   1.578  0.6658  0.0042  0.5545
  302SOL     OW  904   2.621   1.951   2.706  0.0952 -0.0276  0.2533
  302SOL    HW1  905   2.618   1.953   2.604  1.0914 -0.7309  0.7444
  302SOL    HW2  906   2.683   1.876   2.734  0.4499  2.0213  1.0986
  303SOL     OW  907   0.055   3.101   2.320 -0.2811  0.0203 -0.4915
  303SOL    HW1  908   0.152   3.080   2.322 -3.2618  2.0992  1.8290
  303SOL    HW2  909   0.024   0.044   2.406 -0.7724  3.8394  1.9568
  304SOL     OW  910   2.793   0.713   1.546 -0.1434 -0.2750 -0.6319
  304SOL    HW1  911   2.845   0.631   1.510  1.1288 -1.6205 -0.3061
  304SOL    HW2  912   2.790   0.795   1.489 -2.8773  0.8637  0.5211
  305SOL     OW  913   3.048   0.091   1.827 -0.0683 -0.7684  0.4484
  305SOL    HW1  914   3.079   3.101   1.860 -1.6365 -2.3679  0.5192
  305SOL    HW2  915   3.037   0.093   1.726 -2.5466  0.1352 -0.1089
  306SOL     OW  916   2.968   1.308   1.503  0.1017 -0.2701  0.0812
  306SOL    HW1  917   2.967   1.313   1.605  0.6768  1.8852 -0.7046
  306SOL    HW2  918   3.003   1.216   1.465  0.2548 -1.7635  1.8174
  307SOL     OW  919   2.112   0.238   1.516 -0.6171 -0.0197  0.4185
  307SOL    HW1  920   2.036   0.267   1.573 -2.8955 -0.7430  1.8471
  307SOL    HW2  921   2.175   0.315   1.480 -0.1362  0.5937 -3.0553
  308SOL     OW  922   0.247   1.966   1.212  0.3090 -0.0897 -0.3907
  308SOL    HW1  923   0.160   1.925   1.175 -1.5312 -2.1792  0.7753
  308SOL    HW2  924   0.231   2.067   1.219  1.3128  0.9679  0.0836
  309SOL     OW  925   2.263   1.595   1.495 -0.0835 -0.0946 -0.1940
  309SOL    HW1  926   2.204   1.579   1.415 -1.2455  2.9395  0.2140
  309SOL    HW2  927   2.212   1.659   1.557  1.1092 -2.2729  0.1870
  310SOL     OW  928   2.629   1.694   3.075  0.1175  0.3410 -0.0608
  310SOL    HW1  929   2.720   1.725   0.008 -1.8741  1.1193 -0.5235
  310SOL    HW2  930   2.560   1.769   3.077 -0.2173 -0.3916  0.9106
  311SOL     OW  931   2.304   1.483   2.497  0.5438  0.2566 -0.1275
  311SOL    HW1  932   2.255   1.397   2.492 -1.7219  1.3134  0.0521
  311SOL    HW2  933   2.268   1.540   2.575  2.6521 -1.2129 -0.4535
  312SOL     OW  934   2.000   2.124   1.161  0.5653 -0.2103  0.1616
  312SOL    HW1  935   1.943   2.084   1.234  0.8426  0.0673  0.2602
  312SOL    HW2  936   2.070   2.058   1.128 -1.1769 -1.1095 -1.8110
  313SOL     OW  937   0.142   2.591   1.085  0.3124  0.1780  0.9573
  313SOL    HW1  938   0.120   2.572   0.989 -0.1214 -0.6715 -0.4938
  313SOL    HW2  939   0.070   2.553   1.148  0.6857 -0.9551  0.8849
  314SOL     OW  940   1.185   1.863   1.703 -0.5901  0.4783 -0.3350
  314SOL    HW1  941   1.133   1.869   1.616 -1.3551  1.2369  3.6298
  314SOL    HW2  942   1.234   1.952   1.724 -1.5469  0.1198  0.0330
  315SOL     OW  943   0.365   3.077   2.276 -0.7086 -0.0147  0.3888
  315SOL    HW1  944   0.405   2.985   2.268 -2.0136  2.6147 -1.4045
  315SOL    HW2  945   0.421   0.033   2.213  0.3771  0.0799 -2.4446
  316SOL     OW  946   2.918   1.834   0.819 -0.5956 -0.1362  0.5372
  316SOL    HW1  947   3.014   1.813   0.788  0.7411 -1.6659 -0.8160
  316SOL    HW2  948   2.883   1.759   0.872 -0.4039  2.6967 -0.8663
  317SOL     OW  949   1.778   0.337   0.279 -0.0011  0.3884  0.2764
  317SOL    HW1  950   1.701   0.269   0.292 -2.2221 -1.7497 -1.6550
  317SOL    HW2  951   1.748   0.432   0.299  0.7734 -0.8660 -1.1042
  318SOL     OW  952   2.858   2.538   0.214  0.1606  0.0918 -0.1905
  318SOL    HW1  953   2.864   2.619   0.146  0.3351  0.3459  2.4804
  318SOL    HW2  954   2.846   2.570   0.308  1.1222 -1.4972  0.7789
  319SOL     OW  955   1.340   1.749   0.275  0.4081  0.9341 -0.2521
  319SOL    HW1  956   1.247   1.767   0.303  0.0845 -4.7429 -0.8999
  319SOL    HW2  957   1.397   1.818   0.321 -4.3492  2.2187  1.2640
  320SOL     OW  958   0.523   2.718   2.675  0.1159  0.8202 -0.4238
  320SOL    HW1  959   0.521   2.646   2.753  1.0893  0.0710  1.6420
  320SOL    HW2  960   0.456   2.690   2.601 -4.3717 -1.7421 -1.1051
  321SOL     OW  961   0.975   0.059   0.136  0.0042  0.4190 -0.2141
  321SOL    HW1  962   0.933   3.073   0.167  1.3895 -0.6718 -1.0504
  321SOL    HW2  963   1.078   0.061   0.146 -1.0255 -2.7808 -0.9461
  322SOL     OW  964   2.341   1.105   2.096 -0.3908 -0.4763  0.1666
  322SOL    HW1  965   2.300   1.033   2.042  1.8555 -0.4096 -0.1198
  322SOL    HW2  966   2.365   1.067   2.188 -0.3630 -1.0412  2.3444
  323SOL     OW  967   2.576   0.929   0.444  0.0825 -0.0050 -0.0620
  323SOL    HW1  968   2.511   0.854   0.434  1.3857  0.6751  3.2138
  323SOL    HW2  969   2.642   0.915   0.366 -0.1532 -1.4850 -2.5157
  324SOL     OW  970   0.240   0.473   2.474  0.3536 -0.4850  0.4258
  324SOL    HW1  971   0.227   0.543   2.546  1.3425  0.0876 -1.4720
  324SOL    HW2  972   0.286   0.519   2.391  4.0530  0.0349 -0.5834
  325SOL     OW  973   1.208   3.077   2.107  0.2331  0.3223  0.2441
  325SOL    HW1  974   1.169   0.056   2.060  1.4703 -1.1448 -0.7238
  325SOL    HW2  975   1.242   0.002   2.202 -1.3436 -1.4382  1.2067
  326SOL     OW  976   2.410   2.917   1.186  0.3721 -0.3523  0.0365
  326SOL    HW1  977   2.427   2.822   1.153 -2.8310  0.3191  0.8271
  326SOL    HW2  978   2.311   2.926   1.205 -0.2056  0.8654 -1.7545
  327SOL     OW  979   1.790   0.751   3.039  0.0119 -0.2104  0.2865
  327SOL    HW1  980   1.739   0.836   3.027 -2.5020 -1.7957  1.1387
  327SOL    HW2  981   1.734   0.683   3.096 -0.9065 -0.5916  1.5956
  328SOL     OW  982   2.840   1.680   2.165  0.0648 -0.1966  0.0441
  328SOL    HW1  983   2.915   1.750   2.172  0.4335  0.8780 -0.4497
  328SOL    HW2  984   2.851   1.620   2.244 -1.3105  1.6308 -1.4811
  329SOL     OW  985   1.719   2.745   1.835 -0.7489 -0.2443 -0.7083
  329SOL    HW1  986   1.690   2.667   1.895 -1.1676  0.4550 -1.3217
  329SOL    HW2  987   1.641   2.742   1.769 -0.5175  0.3022  2.0601
  330SOL     OW  988   2.378   1.665   1.924 -0.0320 -0.8543  0.4705
  330SOL    HW1  989   2.345   1.587   1.868 -2.3611  1.0383 -1.9599
  330SOL    HW2  990   2.475   1.652   1.954  1.6988  2.1070 -2.1235
  331SOL     OW  991   2.876   2.099   0.873 -0.2974  0.0647  0.4609
  331SOL    HW1  992   2.891   1.996   0.885 -0.0303 -2.2761 -0.4089
  331SOL    HW2  993   2.958   2.161   0.893  1.8828 -0.7683 -1.5373
  332SOL     OW  994   0.481   0.057   0.445 -0.3699 -0.2191  0.4782
  332SOL    HW1  995   0.427   0.037   0.528  2.2524 -1.4991 -0.6750
  332SOL    HW2  996   0.440   0.025   0.357  0.1587 -1.7979  0.5936
  333SOL     OW  997   2.046   2.889   2.405  0.2795  0.0243  0.4023
  333SOL    HW1  998   2.118   2.832   2.362 -2.0439 -1.0191  1.9857
  333SOL    HW2  999   2.028   2.969   2.344  1.5418  1.4795  0.2434
  334SOL     OW 1000   0.821   1.477   0.830 -0.1437  0.2381 -0.0733
  334SOL    HW1 1001   0.789   1.462   0.735  1.2503  1.5966  0.0435
  334SOL    HW2 1002   0.883   1.557   0.828 -0.7296  1.0075  0.0002
  335SOL     OW 1003   3.069   2.636   2.292 -0.3959  0.1113  0.7646
  335SOL    HW1 1004   0.056   2.687   2.282  0.0204 -0.1032 -0.4237
  335SOL    HW2 1005   3.068   2.564   2.224 -0.0592  0.3202  1.2884
  336SOL     OW 1006   2.744   2.859   1.948 -0.0853  0.4303 -0.1962
  336SOL    HW1 1007   2.779   2.841   2.045 -2.3081  1.0640  3.5901
  336SOL    HW2 1008   2.671   2.926   1.947  1.8951 -2.1431 -1.3210
  337SOL     OW 1009   2.073   1.357   0.576  0.1589 -0.1692  0.4348
  337SOL    HW1 1010   2.155   1.331   0.634  0.1753 -0.8850  0.7504
  337SOL    HW2 1011   2.023   1.273   0.537 -0.2825 -0.4367  0.0581
  338SOL     OW 1012   1.070   1.759   1.085  0.4295 -0.1571  0.8928
  338SOL    HW1 1013   1.022   1.683   1.139 -3.0742 -2.0341  2.4293
  338SOL    HW2 1014   1.150   1.792   1.141  0.0871 -1.1673  0.8633
  339SOL     OW 1015   3.004   0.832   1.121  0.1012 -0.0850 -0.5627
  339SOL    HW1 1016   3.068   0.808   1.203  4.4765 -0.9731  2.5043
  339SOL    HW2 1017   2.902   0.826   1.142 -3.3789 -1.8236 -1.6327
  340SOL     OW 1018   1.541   2.916   2.077  0.6615  0.0876  0.0905
  340SOL    HW1 1019   1.462   2.863   2.111  2.0881  1.6611  0.9697
  340SOL    HW2 1020   1.624   2.889   2.127  0.8321  1.1773 -2.4782
  341SOL     OW 1021   2.296   1.256   0.677  0.4301  0.0376  0.1868
  341SOL    HW1 1022   2.318   1.317   0.756 -0.0613  0.5166  3.2199
  341SOL    HW2 1023   2.337   1.168   0.701 -1.5382  3.7028 -0.5308
  342SOL     OW 1024   0.013   1.672   0.705 -0.1738 -0.3596 -0.4825
  342SOL    HW1 1025   0.097   1.674   0.762 -1.0170 -1.0712 -0.3011
  342SOL    HW2 1026   0.021   1.727   0.613  2.6911  0.7359 -4.2668
  343SOL     OW 1027   2.489   1.083   1.468  0.6864 -0.2338 -0.3518
  343SOL    HW1 1028   2.458   0.991   1.488  2.2419 -1.0344  0.8989
  343SOL    HW2 1029   2.582   1.111   1.504  0.1427  3.4867 -0.4920
  344SOL     OW 1030   2.108   0.505   0.922 -0.0143 -0.1423  0.2623
  344SOL    HW1 1031   2.037   0.448   0.878 -2.0317  0.2781  0.2942
  344SOL    HW2 1032   2.088   0.521   1.019  1.6248  0.9446  1.6427
  345SOL     OW 1033   3.090   2.988   2.091 -0.1998  0.7723 -0.4029
  345SOL    HW1 1034   2.998   2.951   2.097  1.0737  0.8632 -0.7905
  345SOL    HW2 1035   0.028   3.024   2.178  2.7488  0.8105 -2.1415
  346SOL     OW 1036   2.936   1.456   0.118 -0.3089  0.3312  0.2630
  346SOL    HW1 1037   2.918   1.554   0.105 -0.0624 -4.1493  0.6417
  346SOL    HW2 1038   3.006   1.421   0.048  1.5749 -1.0805  0.3907
  347SOL     OW 1039   1.486   2.489   1.566 -0.3936 -0.1523  0.1769
  347SOL    HW1 1040   1.587   2.470   1.569 -1.9530 -1.4210 -1.5317
  347SOL    HW2 1041   1.454   2.496   1.467 -0.0227  2.2159 -1.4753
  348SOL     OW 1042   1.025   1.058   1.866 -0.1165 -0.6255  0.7360
  348SOL    HW1 1043   1.006   1.133   1.805  0.9878  2.3677  2.9836
  348SOL    HW2 1044   1.103   1.089   1.925  0.0370  0.2844  0.4790
  349SOL     OW 1045   2.292   1.609   2.253  0.3110 -0.1038 -0.3890
  349SOL    HW1 1046   2.301   1.567   2.347  0.5953 -1.4549 -2.0512
  349SOL    HW2 1047   2.357   1.687   2.250  0.8453  2.6714  1.7923
  350SOL     OW 1048   2.738   2.244   0.465 -0.0436  0.0923 -0.2269
  350SOL    HW1 1049   2.723   2.248   0.364  0.4404 -0.6527 -0.5396
  350SOL    HW2 1050   2.828   2.287   0.490  0.4257 -0.1888 -0.0336
  351SOL     OW 1051   0.245   0.404   1.830  0.1884 -0.1542 -0.3224
  351SOL    HW1 1052   0.233   0.330   1.895 -1.4560  3.1560  0.5958
  351SOL    HW2 1053   0.203   0.485   1.870  0.6138  0.4372  0.0490
  352SOL     OW 1054   1.222   2.436   1.604 -0.4429 -0.4235  0.2910
  352SOL    HW1 1055   1.174   2.518   1.637  0.0690 -1.4786 -0.1691
  352SOL    HW2 1056   1.321   2.448   1.621 -1.7200 -1.7996  2.3370
  353SOL     OW 1057   0.966   1.239   2.272  0.1724 -0.5046 -0.3652
  353SOL    HW1 1058   0.975   1.214   2.372  0.8001 -3.9090  2.0989
  353SOL    HW2 1059   1.050   1.283   2.231  2.5033  0.4286 -0.5478
  354SOL     OW 1060   1.324   1.631   0.617  0.4455 -0.1377 -0.4007
  354SOL    HW1 1061   1.348   1.729   0.609  1.8801 -2.1691 -1.5051
  354SOL    HW2 1062   1.228   1.614   0.581  1.1922 -1.5936  0.2649
  355SOL     OW 1063   1.922   0.353   0.806  0.1343 -0.3058 -0.0524
  355SOL    HW1 1064   1.861   0.328   0.882  0.8797  1.9870 -0.6375
  355SOL    HW2 1065   1.900   0.294   0.724  1.8448 -0.2323 -2.6304
  356SOL     OW 1066   3.073   1.337   3.041 -0.1811  0.3536 -0.0327
  356SOL    HW1 1067   0.050   1.278   3.067 -3.0385 -0.6429  1.2707
  356SOL    HW2 1068   2.994   1.275   3.018 -1.3441 -0.3194  0.6386
  357SOL     OW 1069   0.293   3.007   1.770  0.8260  0.0986 -0.8191
  357SOL    HW1 1070   0.337   3.036   1.858 -1.3859 -0.4445  0.7964
  357SOL    HW2 1071   0.198   2.967   1.788  1.5852 -2.5558 -0.5875
  358SOL     OW 1072   0.410   1.446   3.040  0.3224 -0.3640 -0.1316
  358SOL    HW1 1073   0.330   1.388   3.012 -1.1189 -0.8855 -2.6773
  358SOL    HW2 1074   0.484   1.383   3.076 -0.6565 -1.5079  1.3998
  359SOL     OW 1075   2.717   2.575   2.516  0.0698  0.1360 -0.4522
  359SOL    HW1 1076   2.687   2.547   2.612  3.0657 -0.1055  1.7983
  359SOL    HW2 1077   2.806   2.631   2.513  4.6284 -0.2713 -0.5484
  360SOL     OW 1078   1.589   1.334   1.042  0.0036 -0.2435 -0.0289
  360SOL    HW1 1079   1.633   1.360   0.952  2.7472  0.3265  1.1769
  360SOL    HW2 1080   1.565   1.424   1.082  1.5315  1.1435  0.0837
  361SOL     OW 1081   2.088   2.311   1.355 -0.0916 -0.0473  0.5504
  361SOL    HW1 1082   2.091   2.238   1.285 -1.1777  2.3508  0.3378
  361SOL    HW2 1083   2.122   2.269   1.443  1.2952  0.9384  1.0889
  362SOL     OW 1084   1.688   1.431   0.800  0.2304 -0.1841 -0.4476
  362SOL    HW1 1085   1.767   1.487   0.772 -2.3423 -1.4034 -1.1761
  362SOL    HW2 1086   1.610   1.419   0.731  0.0408 -1.7699 -0.1735
  363SOL     OW 1087   2.532   2.280   0.659 -0.1358 -0.1697  0.2574
  363SOL    HW1 1088   2.534   2.207   0.727 -0.3115 -1.4341 -1.0905
  363SOL    HW2 1089   2.614   2.286   0.596  2.1408  1.0412  0.4385
  364SOL     OW 1090   2.778   0.082   1.342 -0.3941 -0.4301  0.4201
  364SOL    HW1 1091   2.726   0.168   1.346 -0.4811  0.7447  0.3572
  364SOL    HW2 1092   2.858   0.094   1.283  0.7492 -0.0093 -0.4491
  365SOL     OW 1093   0.458   2.679   1.010 -0.1153 -0.2161 -0.0087
  365SOL    HW1 1094   0.412   2.661   1.100  2.3150 -0.2546  0.1287
  365SOL    HW2 1095   0.559   2.656   1.008 -1.9020 -1.6055 -0.4351
  366SOL     OW 1096   0.477   1.673   0.496 -0.0806  0.1486 -0.1382
  366SOL    HW1 1097   0.446   1.707   0.405 -0.4686 -0.4588  1.6693
  366SOL    HW2 1098   0.413   1.694   0.575 -1.9260  0.2047  1.0594
  367SOL     OW 1099   2.537   2.585   2.778 -0.1364  0.7800 -0.2443
  367SOL    HW1 1100   2.455   2.641   2.737 -0.8403 -0.2459 -0.2709
  367SOL    HW2 1101   2.493   2.502   2.821  0.3246 -0.0089  0.2058
  368SOL     OW 1102   2.633   1.790   0.961  0.6279  0.2761 -0.0500
  368SOL    HW1 1103   2.556   1.775   1.028 -0.6596 -2.7181  3.5394
  368SOL    HW2 1104   2.633   1.713   0.887 -2.1018 -2.2678  0.1349
  369SOL     OW 1105   0.904   1.033   0.384 -0.0569  0.5308 -0.2767
  369SOL    HW1 1106   0.907   0.962   0.460  2.2885  0.8964 -0.8720
  369SOL    HW2 1107   0.991   1.084   0.374 -0.4308 -2.6139 -0.1667
  370SOL     OW 1108   0.190   2.934   1.004  0.0044  0.0360 -0.4286
  370SOL    HW1 1109   0.148   2.869   0.940 -1.0830 -1.8128  0.4930
  370SOL    HW2 1110   0.210   2.883   1.086 -1.3728  0.5771 -3.1731
  371SOL     OW 1111   2.617   1.329   2.693 -0.0320 -0.1391  0.1030
  371SOL    HW1 1112   2.578   1.374   2.610  1.9801  2.0705  0.2321
  371SOL    HW2 1113   2.681   1.258   2.659 -0.7786  1.1946  0.0010
  372SOL     OW 1114   0.820   0.483   2.327 -0.6797 -0.5890 -0.8828
  372SOL    HW1 1115   0.795   0.522   2.241 -0.3023 -0.5142  0.7589
  372SOL    HW2 1116   0.734   0.439   2.356  1.7038 -0.7594 -0.1471
  373SOL     OW 1117   0.629   0.451   2.896 -0.3619 -0.0104  0.0880
  373SOL    HW1 1118   0.645   0.524   2.823  0.6373 -0.3908 -3.1192
  373SOL    HW2 1119   0.674   0.478   2.984  1.5580  1.3198  0.6783
  374SOL     OW 1120   1.039   2.350   0.171  0.2530 -0.6931 -0.2154
  374SOL    HW1 1121   1.093   2.334   0.085 -0.0031  1.1492 -3.9118
  374SOL    HW2 1122   0.944   2.315   0.161  0.5400 -1.5022 -0.9500
  375SOL     OW 1123   0.730   0.085   1.094 -0.0167  0.6624 -0.0036
  375SOL    HW1 1124   0.773   0.126   1.008  0.8981  0.0230  0.1228
  375SOL    HW2 1125   0.643   0.037   1.068  0.7751  0.4007  0.0873
  376SOL     OW 1126   0.388   2.426   1.919  0.3310 -1.1265 -0.3304
  376SOL    HW1 1127   0.301   2.451   1.963  0.4865 -1.1371  1.3962
  376SOL    HW2 1128   0.460   2.409   1.990 -1.0985  3.2898  0.8115
  377SOL     OW 1129   2.279   2.048   3.039 -0.1867 -0.3429 -0.5521
  377SOL    HW1 1130   2.209   2.119   3.060  2.3454 -0.6796 -2.6320
  377SOL    HW2 1131   2.263   2.009   2.948  0.2694  2.1438 -0.7074
  378SOL     OW 1132   2.150   0.270   0.573 -0.1509  0.4734  0.2486
  378SOL    HW1 1133   2.156   0.368   0.602  0.2355 -0.1174 -0.5855
  378SOL    HW2 1134   2.233   0.225   0.608 -1.1835  1.9264  1.0843
  379SOL     OW 1135   1.399   0.832   0.842  0.3698  0.1491 -0.3835
  379SOL    HW1 1136   1.376   0.931   0.829  0.1126 -0.1916 -1.0311
  379SOL    HW2 1137   1.450   0.788   0.760  0.6720 -4.5304 -1.8613
  380SOL     OW 1138   2.499   2.131   1.765  0.2459  0.2949 -0.5737
  380SOL    HW1 1139   2.511   2.027   1.759  0.6353 -0.8299 -2.0745
  380SOL    HW2 1140   2.552   2.180   1.695 -0.4212 -1.2348  0.8203
  381SOL     OW 1141   2.874   1.410   2.030 -0.2911  0.0743 -0.0380
  381SOL    HW1 1142   2.863   1.448   2.125  2.7291  2.6321 -0.0255
  381SOL    HW2 1143   2.813   1.330   2.015 -1.3920 -0.2737  2.0838
  382SOL     OW 1144   2.898   2.208   2.809 -0.1677  0.4565 -0.3993
  382SOL    HW1 1145   2.965   2.273   2.769  0.4780 -1.3544  0.4239
  382SOL    HW2 1146   2.928   2.188   2.906  0.5269  0.5359  4.3932
  383SOL     OW 1147   1.198   0.894   2.277  0.0891 -0.2099  0.3404
  383SOL    HW1 1148   1.125   0.924   2.212 -0.6570  0.8825 -0.5419
  383SOL    HW2 1149   1.159   0.837   2.355 -0.3341  0.7016  0.8559
  384SOL     OW 1150   1.119   2.095   2.416 -0.2777  0.1570  0.0614
  384SOL    HW1 1151   1.217   2.082   2.417 -0.1410  2.8614  0.9182
  384SOL    HW2 1152   1.065   2.043   2.346  0.2407  0.5764 -3.1563
  385SOL     OW 1153   2.411   2.597   0.094  0.0691  0.1067  0.4331
  385SOL    HW1 1154   2.438   2.500   0.083  1.8371  1.6330 -0.4851
  385SOL    HW2 1155   2.461   2.631   0.171 -0.8334 -1.3315 -3.3804
  386SOL     OW 1156   1.353   1.195   0.565 -0.4448 -0.1282  0.1550
  386SOL    HW1 1157   1.302   1.199   0.650  1.6620  0.1820  0.3584
  386SOL    HW2 1158   1.426   1.123   0.563 -1.1287  2.0146 -0.2691
  387SOL     OW 1159   0.102   1.625   1.727  0.1419  0.3521 -0.6918
  387SOL    HW1 1160   0.104   1.579   1.819  0.2881  1.7690  1.0575
  387SOL    HW2 1161   0.149   1.568   1.654  3.6299  1.5932  0.3355
  388SOL     OW 1162   0.718   1.199   1.360  0.2670  0.1463  0.3054
  388SOL    HW1 1163   0.802   1.170   1.415  0.4952  0.6650  2.1765
  388SOL    HW2 1164   0.710   1.164   1.265 -2.5690  0.8075 -1.7151
  389SOL     OW 1165   2.104   0.955   2.304 -0.5717 -0.2718  0.5151
  389SOL    HW1 1166   2.115   0.931   2.401  1.1858  0.6819  0.7924
  389SOL    HW2 1167   2.064   1.050   2.296 -0.1154  0.1742 -0.0773
  390SOL     OW 1168   0.999   1.989   0.245 -0.2691  0.1756  0.3135
  390SOL    HW1 1169   0.896   2.007   0.260 -1.9561  0.4627 -0.0393
  390SOL    HW2 1170   1.025   1.894   0.282 -2.6039 -3.3787 -0.2434
  391SOL     OW 1171   1.064   1.978   0.591 -0.1226  0.0233  0.3288
  391SOL    HW1 1172   1.102   1.887   0.617  2.2516 -0.1722 -0.8498
  391SOL    HW2 1173   0.969   1.968   0.558  3.5468 -1.3916  0.8683
  392SOL     OW 1174   2.722   2.433   2.033 -0.0204  0.0759 -0.0162
  392SOL    HW1 1175   2.682   2.347   2.074 -1.3483 -0.4761  2.0669
  392SOL    HW2 1176   2.822   2.424   2.034 -2.2219  0.9515  0.9262
  393SOL     OW 1177   1.572   2.228   0.035  0.7456 -0.2088 -0.5725
  393SOL    HW1 1178   1.570   2.269   0.132 -1.3349  0.6509  2.7704
  393SOL    HW2 1179   1.580   2.303   3.071 -0.2662 -0.7990  0.3281
  394SOL     OW 1180   0.385   0.290   2.198 -0.5146  0.2941 -0.6111
  394SOL    HW1 1181   0.428   0.379   2.187 -0.5611  0.6063  1.1969
  394SOL    HW2 1182   0.310   0.282   2.136  2.2560 -0.5537 -0.2940
  395SOL     OW 1183   0.068   1.128   1.170  0.8231  0.0047 -0.3984
  395SOL    HW1 1184   0.078   1.214   1.219  0.5578 -0.0331  1.4161
  395SOL    HW2 1185   0.046   1.144   1.070  0.6618 -0.7348 -0.9688
  396SOL     OW 1186   2.141   1.535   2.712  0.0249  0.5763 -0.2714
  396SOL    HW1 1187   2.142   1.436   2.690  0.2494  0.9612 -0.6646
  396SOL    HW2 1188   2.048   1.577   2.710  1.0934 -1.7659  0.3825
  397SOL     OW 1189   0.570   1.026   2.906 -0.1525  0.2037 -0.0735
  397SOL    HW1 1190   0.579   0.974   2.820  2.8657 -1.7499 -2.6619
  397SOL    HW2 1191   0.648   1.090   2.911 -2.3484 -0.5694 -0.5910
  398SOL     OW 1192   0.962   2.673   0.500  0.2638 -0.8473  0.0859
  398SOL    HW1 1193   1.047   2.713   0.544  0.6958 -0.0498  0.1437
  398SOL    HW2 1194   0.905   2.755   0.474 -0.9059  0.9572 -0.0970
  399SOL     OW 1195   1.860   2.608   2.231  0.1207 -0.3898 -0.3134
  399SOL    HW1 1196   1.907   2.577   2.317  2.4386 -1.8849 -1.0635
  399SOL    HW2 1197   1.877   2.543   2.152  0.9068  1.3375 -2.2468
  400SOL     OW 1198   0.300   1.299   1.972  0.2274  0.4134  0.4801
  400SOL    HW1 1199   0.219   1.293   2.034 -0.4541  1.8985  1.5157
  400SOL    HW2 1200   0.331   1.394   1.955 -0.3297  1.4011  1.0783
  401SOL     OW 1201   0.523   0.831   0.619  0.7538 -0.6665  0.1324
  401SOL    HW1 1202   0.495   0.745   0.670  0.0613 -0.7631 -1.3780
  401SOL    HW2 1203   0.566   0.812   0.533 -0.7718 -0.4251  2.0556
  402SOL     OW 1204   0.812   3.027   2.359 -0.0829 -0.3863 -0.2583
  402SOL    HW1 1205   0.895   3.039   2.420  1.5572  2.2510 -1.6165
  402SOL    HW2 1206   0.829   3.078   2.271  0.8150 -3.2244  1.2074
  403SOL     OW 1207   2.563   1.857   1.756  0.1353  0.5227  0.2994
  403SOL    HW1 1208   2.555   1.814   1.846 -3.1201  3.3540 -0.0492
  403SOL    HW2 1209   2.634   1.810   1.700  1.2772  0.4040 -2.5484
  404SOL     OW 1210   2.672   2.260   1.580  0.2483 -0.3301 -0.2423
  404SOL    HW1 1211   2.687   2.343   1.641 -2.5443 -1.5809 -0.4770
  404SOL    HW2 1212   2.739   2.186   1.595 -1.8615  0.9965  0.0805
  405SOL     OW 1213   1.922   0.149   2.707  0.0339 -0.4104  0.3689
  405SOL    HW1 1214   1.849   0.093   2.661 -3.0301 -1.1253 -2.4785
  405SOL    HW2 1215   2.015   0.115   2.674  1.3053 -2.1533  0.9803
  406SOL     OW 1216   1.128   1.957   0.004  0.2220  0.0658 -0.6876
  406SOL    HW1 1217   1.216   1.999   3.090 -1.6710 -0.2787 -0.9878
  406SOL    HW2 1218   1.077   1.984   0.090  0.2462  2.0517  1.0682
  407SOL     OW 1219   1.727   1.498   0.451 -0.3943 -0.7773  0.0865
  407SOL    HW1 1220   1.666   1.430   0.492  0.0982  4.0867 -2.8600
  407SOL    HW2 1221   1.777   1.557   0.513  2.9110  1.3997 -2.1148
  408SOL     OW 1222   0.098   0.602   1.510  0.0453 -0.4356  0.1251
  408SOL    HW1 1223   0.098   0.640   1.602  1.3602 -0.2253  0.8635
  408SOL    HW2 1224   0.191   0.569   1.483 -0.5248  0.2520 -1.2849
  409SOL     OW 1225   2.649   1.402   3.070  0.1754 -0.2073  0.0815
  409SOL    HW1 1226   2.597   1.355   0.037  1.8911  1.8172 -0.3861
  409SOL    HW2 1227   2.649   1.501   3.088 -1.9866 -1.8484 -2.8239
  410SOL     OW 1228   2.551   2.544   0.546  0.0111  0.3454 -0.2492
  410SOL    HW1 1229   2.490   2.607   0.592  2.1344  0.5915 -1.2511
  410SOL    HW2 1230   2.534   2.448   0.572 -2.4264 -0.8285  0.3625
  411SOL     OW 1231   0.351   0.186   0.154 -0.3548 -0.6582 -0.1273
  411SOL    HW1 1232   0.342   0.085   0.161 -0.1034  0.1319  3.0699
  411SOL    HW2 1233   0.424   0.215   0.089 -0.3426 -0.3868 -1.9151
  412SOL     OW 1234   1.482   3.041   0.437  0.0834  0.0527  0.1210
  412SOL    HW1 1235   1.397   3.007   0.395  0.4792  0.4671 -0.5906
  412SOL    HW2 1236   1.480   3.043   0.542  1.6028 -0.8487  2.0403
  413SOL     OW 1237   1.770   0.647   2.241 -0.4615  0.1145  0.1257
  413SOL    HW1 1238   1.821   0.718   2.190  3.1577  1.0704  1.2718
  413SOL    HW2 1239   1.685   0.621   2.186  0.9178 -2.7399  2.6720
  414SOL     OW 1240   0.056   0.557   0.598 -0.4335  0.1095 -0.0771
  414SOL    HW1 1241   0.070   0.650   0.557  0.3961 -2.3719  0.9201
  414SOL    HW2 1242   0.148   0.512   0.603 -0.2836  1.2585  0.1387
  415SOL     OW 1243   2.985   1.117   0.457 -0.0391 -0.1084 -0.2970
  415SOL    HW1 1244   2.972   1.122   0.355 -0.5457 -0.5999 -0.1656
  415SOL    HW2 1245   2.969   1.207   0.500 -0.7172 -4.0948 -0.3384
  416SOL     OW 1246   2.738   0.492   2.741 -0.2460 -0.2176 -0.3983
  416SOL    HW1 1247   2.664   0.480   2.674  1.0037 -0.3189  1.1974
  416SOL    HW2 1248   2.812   0.546   2.692 -0.7022  1.0264 -4.6707
  417SOL     OW 1249   2.407   0.162   0.636  0.1564 -0.0131  0.0988
  417SOL    HW1 1250   2.459   0.201   0.712 -0.0121 -2.0252  0.4943
  417SOL    HW2 1251   2.463   0.170   0.550  0.1283  1.1749  0.3225
  418SOL     OW 1252   0.695   0.012   2.794 -0.0816 -0.5127  0.6264
  418SOL    HW1 1253   0.731   0.033   2.890  1.0323  1.7569  0.4743
  418SOL    HW2 1254   0.608   3.057   2.800 -2.6552  0.5483 -0.7323
  419SOL     OW 1255   0.204   0.626   0.945  0.1027  0.6302  0.5344
  419SOL    HW1 1256   0.239   0.703   0.998 -1.2106  1.5004  1.3026
  419SOL    HW2 1257   0.231   0.532   0.978 -1.0194 -4.1554  2.6325
  420SOL     OW 1258   3.018   1.052   1.404  0.1471  0.0761  0.1088
  420SOL    HW1 1259   3.081   1.036   1.325 -0.4500  0.4808  0.4294
  420SOL    HW2 1260   2.924   1.071   1.371 -0.6039 -0.8300 -0.4806
  421SOL     OW 1261   0.882   1.974   2.968  0.1126  0.4418 -0.1329
  421SOL    HW1 1262   0.968   1.943   3.010 -1.1618 -0.5080 -2.1514
  421SOL    HW2 1263   0.861   1.917   2.884  0.2803  1.0896  2.0068
  422SOL     OW 1264   2.503   0.375   2.258 -0.0088  0.2863  0.2126
  422SOL    HW1 1265   2.573   0.368   2.187 -0.6890  0.1092  1.5769
  422SOL    HW2 1266   2.408   0.394   2.213 -5.1386  2.1154  0.5809
  423SOL     OW 1267   1.916   1.546   0.241 -0.4327 -0.3697 -0.6547
  423SOL    HW1 1268   1.939   1.614   0.172  0.3926 -3.1998  0.8346
  423SOL    HW2 1269   1.837   1.580   0.293  1.9281 -2.0058 -1.7711
  424SOL     OW 1270   1.215   1.197   2.013  0.4616  0.0456 -0.2188
  424SOL    HW1 1271   1.203   1.269   2.079 -2.1422 -2.6305 -0.8523
  424SOL    HW2 1272   1.296   1.140   2.036  1.6523 -1.7276 -1.1887
  425SOL     OW 1273   0.175   2.498   2.072 -0.0015  0.5065  0.6798
  425SOL    HW1 1274   0.193   2.586   2.125  0.9543  0.2402  1.1603
  425SOL    HW2 1275   0.110   2.515   1.992 -3.4527  0.7264 -2.0247
  426SOL     OW 1276   2.424   2.718   0.692 -0.1205  0.2866  0.2294
  426SOL    HW1 1277   2.503   2.760   0.740  0.5329  1.3076  1.1190
  426SOL    HW2 1278   2.339   2.708   0.749  0.0175 -0.9628 -0.1666
  427SOL     OW 1279   0.523   0.869   2.688  0.6847 -0.8468 -0.2317
  427SOL    HW1 1280   0.422   0.853   2.700 -0.4692 -0.1315 -1.3745
  427SOL    HW2 1281   0.574   0.789   2.651 -1.4848  1.0823  0.2165
  428SOL     OW 1282   2.813   1.486   2.827 -0.3524 -0.1179  0.5460
  428SOL    HW1 1283   2.811   1.461   2.925  1.0919 -0.8862  1.7585
  428SOL    HW2 1284   2.735   1.445   2.775  2.2220 -1.6800  0.1890
  429SOL     OW 1285   2.487   0.431   0.244  0.1851 -0.0077 -0.5306
  429SOL    HW1 1286   2.462   0.385   0.336 -3.0539  0.2148  3.7220
  429SOL    HW2 1287   2.410   0.482   0.204 -2.3373 -1.6445  1.3570
  430SOL     OW 1288   1.401   2.097   2.454 -0.3652 -0.1295  0.1255
  430SOL    HW1 1289   1.445   2.059   2.538  0.7428  0.9553  0.1332
  430SOL    HW2 1290   1.467   2.161   2.404  0.6459  3.0329  2.6036
  431SOL     OW 1291   0.236   2.097   1.681  0.0349  0.2292  0.2454
  431SOL    HW1 1292   0.171   2.032   1.633  0.2274  1.5282 -1.5782
  431SOL    HW2 1293   0.222   2.192   1.649 -0.6368 -2.6020 -1.2169
  432SOL     OW 1294   1.581   2.325   1.913 -0.3226  0.4864  0.1961
  432SOL    HW1 1295   1.623   2.255   1.978  1.8645 -0.7764  0.7417
  432SOL    HW2 1296   1.602   2.312   1.813 -2.4919 -0.2335 -1.1573
  433SOL     OW 1297   1.196   2.174   0.351  0.3949 -0.5505 -0.0528
  433SOL    HW1 1298   1.188   2.252   0.293  0.8090 -1.0460  1.3034
  433SOL    HW2 1299   1.153   2.094   0.305  0.7771  1.3678  1.5405
  434SOL     OW 1300   0.367   2.306   2.720  0.3157  0.1525 -0.0462
  434SOL    HW1 1301   0.453   2.311   2.772 -2.2390 -0.0254 -1.1544
  434SOL    HW2 1302   0.295   2.330   2.785  3.3015 -2.3937 -1.9568
  435SOL     OW 1303   0.018   0.873   0.484  0.4262  0.3001 -0.1414
  435SOL    HW1 1304   3.063   0.955   0.464 -0.2406 -2.3348  1.6185
  435SOL    HW2 1305   0.109   0.898   0.513 -0.2553  0.8130  1.1191
  436SOL     OW 1306   0.544   2.877   1.638  0.5017  0.5224  0.1111
  436SOL    HW1 1307   0.484   2.952   1.671 -1.8624  1.7984  0.9320
  436SOL    HW2 1308   0.623   2.911   1.579  1.0764  1.5462 -1.4251
  437SOL     OW 1309   0.656   0.316   0.702 -0.0320 -0.2413 -0.2320
  437SOL    HW1 1310   0.732   0.360   0.646  3.0603  0.3385 -1.2214
  437SOL    HW2 1311   0.602   0.253   0.641 -0.7705 -1.0174  1.8094
  438SOL     OW 1312   0.564   2.055   0.698 -0.1123 -0.0938  0.2328
  438SOL    HW1 1313   0.602   2.148   0.713 -1.5523 -0.3585  0.5657
  438SOL    HW2 1314   0.508   2.020   0.778 -0.9878  2.2219  1.1326
  439SOL     OW 1315   0.880   2.670   1.570 -0.3704 -0.4667  0.2284
  439SOL    HW1 1316   0.830   2.609   1.627  2.5799 -0.9923 -0.7617
  439SOL    HW2 1317   0.840   2.760   1.557  0.1700  0.2666  1.7703
  440SOL     OW 1318   1.915   2.877   1.987  0.6833 -0.0468 -0.3188
  440SOL    HW1 1319   1.849   2.830   1.933  3.1714  0.5582  0.8910
  440SOL    HW2 1320   1.884   2.863   2.084 -2.0863  0.9810  0.9199
  441SOL     OW 1321   2.755   0.431   1.801 -0.3212 -0.1608 -0.4289
  441SOL    HW1 1322   2.774   0.363   1.873  1.1692 -1.4814 -0.0368
  441SOL    HW2 1323   2.813   0.512   1.824  2.7554  1.5565  1.3518
  442SOL     OW 1324   1.892   2.345   1.029 -0.1715 -0.0327  0.5371
  442SOL    HW1 1325   1.937   2.386   0.944  0.9885  0.3394  3.4206
  442SOL    HW2 1326   1.950   2.268   1.062  1.3503 -1.8312 -0.5528
  443SOL     OW 1327   2.764   0.680   2.091 -0.2712 -0.3573  0.1778
  443SOL    HW1 1328   2.750   0.576   2.095 -1.4078  1.8851 -0.5242
  443SOL    HW2 1329   2.678   0.724   2.063 -0.1443 -1.4645 -1.6561
  444SOL     OW 1330   2.193   0.955   1.923  0.0522 -0.4664  0.0997
  444SOL    HW1 1331   2.177   0.858   1.950 -1.0636  1.0153  2.3880
  444SOL    HW2 1332   2.212   0.968   1.822  0.2816  4.1004  1.0796
  445SOL     OW 1333   3.091   2.327   1.154 -0.2536  0.2509 -0.0557
  445SOL    HW1 1334   3.007   2.362   1.193  1.4533 -0.1695 -0.3092
  445SOL    HW2 1335   3.090   2.322   1.053  0.9360  0.5192  2.8933
  446SOL     OW 1336   2.865   1.592   0.958 -0.3783  0.3148  0.2798
  446SOL    HW1 1337   2.839   1.648   1.037 -0.8980 -0.0161 -2.0911
  446SOL    HW2 1338   2.944   1.529   0.990  0.3540  0.1720  0.0539
  447SOL     OW 1339   0.489   1.092   0.741 -0.0979  0.0517  0.3196
  447SOL    HW1 1340   0.516   0.992   0.708  0.0255 -2.5006  1.4182
  447SOL    HW2 1341   0.577   1.141   0.768 -0.7734 -0.3179  2.2232
  448SOL     OW 1342   1.456   1.362   1.953  0.6389  0.2909  0.3435
  448SOL    HW1 1343   1.442   1.448   1.899 -2.7697  1.6261 -2.0987
  448SOL    HW2 1344   1.366   1.306   1.956 -2.6446 -0.4915 -1.3931
  449SOL     OW 1345   1.335   1.296   0.212  0.1337  0.1562 -0.0434
  449SOL    HW1 1346   1.433   1.307   0.239 -0.9872 -0.8101 -2.4988
  449SOL    HW2 1347   1.319   1.201   0.180  0.8237 -0.5777 -0.0374
  450SOL     OW 1348   2.925   2.102   2.020  0.4101  0.5944 -0.7094
  450SOL    HW1 1349   2.947   2.200   2.007 -1.2649 -0.3426 -1.2089
  450SOL    HW2 1350   2.957   2.039   1.947  0.2456 -0.9671  2.3984
  451SOL     OW 1351   1.659   2.876   2.524 -0.1317  0.0596  0.1844
  451SOL    HW1 1352   1.719   2.815   2.578 -1.0966  0.5594  0.0462
  451SOL    HW2 1353   1.674   2.973   2.548 -0.3120 -1.1052  0.3591
  452SOL     OW 1354   1.620   3.000   1.335 -0.0882  0.2178 -0.4755
  452SOL    HW1 1355   1.535   3.047   1.332  1.0242 -2.4152 -0.7198
  452SOL    HW2 1356   1.693   3.053   1.383  2.7369  2.6524  1.5510
  453SOL     OW 1357   1.795   0.741   0.964 -0.4830  0.4783 -0.0697
  453SOL    HW1 1358   1.886   0.757   0.934 -3.8942  5.0956  1.0499
  453SOL    HW2 1359   1.739   0.828   0.966 -1.6910  1.5804  0.4767
  454SOL     OW 1360   0.141   1.321   0.638  0.7812 -0.1836 -0.1289
  454SOL    HW1 1361   0.224   1.367   0.677 -3.5790  1.1722  1.8390
  454SOL    HW2 1362   0.057   1.380   0.634  1.4877 -0.3291  1.7019
  455SOL     OW 1363   2.717   3.074   0.316 -0.5059 -0.3534  0.2326
  455SOL    HW1 1364   2.687   3.044   0.222 -0.8771 -1.1984 -0.0397
  455SOL    HW2 1365   2.814   3.097   0.328 -2.7122 -1.1860  2.8708
  456SOL     OW 1366   2.986   2.587   1.223 -0.3138  0.0548  0.4457
  456SOL    HW1 1367   3.006   2.665   1.284  1.0920 -2.4317 -1.8811
  456SOL    HW2 1368   2.908   2.614   1.171  2.1067 -0.0030  5.3334
  457SOL     OW 1369   1.043   0.119   0.492 -0.0243  0.0852 -0.2198
  457SOL    HW1 1370   0.996   0.165   0.418  1.8657 -2.3415  3.7802
  457SOL    HW2 1371   1.126   0.179   0.517  0.0314  1.6079  1.3333
  458SOL     OW 1372   2.421   0.504   0.522 -0.0416 -0.4338 -0.1136
  458SOL    HW1 1373   2.507   0.538   0.569 -1.2873 -1.5200  1.2006
  458SOL    HW2 1374   2.354   0.488   0.600 -1.8392 -1.7904 -0.4260
  459SOL     OW 1375   2.190   0.683   2.464 -0.3395 -0.4834  0.3888
  459SOL    HW1 1376   2.170   0.585   2.444  1.5055 -0.5913 -0.7257
  459SOL    HW2 1377   2.156   0.708   2.556 -0.8299  0.8798 -1.9430
  460SOL     OW 1378   2.771   0.004   2.729  0.3210 -0.7566 -0.0147
  460SOL    HW1 1379   2.677   3.086   2.759  0.1953  0.9695 -2.6790
  460SOL    HW2 1380   2.802   3.039   2.661 -0.6393 -1.9728 -4.3142
  461SOL     OW 1381   1.023   1.657   0.589  0.1249 -0.0570  0.0008
  461SOL    HW1 1382   1.036   1.658   0.689 -2.0173 -0.0486  2.4238
  461SOL    HW2 1383   0.928   1.628   0.574  2.5301 -0.4704  2.9932
  462SOL     OW 1384   2.513   2.559   1.277  0.3468 -0.3324 -0.1227
  462SOL    HW1 1385   2.518   2.612   1.192  0.4282  1.3728  2.1078
  462SOL    HW2 1386   2.544   2.622   1.349  1.5509 -3.3398  0.7952
  463SOL     OW 1387   2.416   1.009   0.709 -0.7875 -0.5226  0.0137
  463SOL    HW1 1388   2.479   1.023   0.630 -3.4104 -2.1768  1.5792
  463SOL    HW2 1389   2.456   0.952   0.786  1.6355 -3.2368  0.1603
  464SOL     OW 1390   0.278   2.785   1.221 -0.1709  0.3239  0.1090
  464SOL    HW1 1391   0.235   2.706   1.177  0.2740  2.6407  1.5480
  464SOL    HW2 1392   0.315   2.761   1.313  1.0825 -0.5414 -0.7547
  465SOL     OW 1393   0.143   1.563   3.047 -0.1901  1.0218 -0.1463
  465SOL    HW1 1394   0.094   1.474   3.032 -2.0315  0.2969 -0.1495
  465SOL    HW2 1395   0.181   1.567   0.040  1.7462  1.9961  2.0971
  466SOL     OW 1396   1.453   0.077   2.748  0.1359 -0.2332  0.1944
  466SOL    HW1 1397   1.407   0.150   2.691 -5.2268  2.9070  2.1573
  466SOL    HW2 1398   1.486   0.119   2.835 -0.7254 -1.0333  1.2933
  467SOL     OW 1399   1.023   0.803   1.846 -0.0525 -0.3724 -0.0632
  467SOL    HW1 1400   1.115   0.776   1.880 -2.2835 -1.8637 -1.9942
  467SOL    HW2 1401   1.013   0.903   1.852  0.4681 -3.3018 -2.7913
  468SOL     OW 1402   0.646   1.248   2.451  0.2936  0.0549 -0.2603
  468SOL    HW1 1403   0.677   1.152   2.426 -1.3932 -0.9545  0.7256
  468SOL    HW2 1404   0.564   1.275   2.392  0.8620 -0.8307 -1.2897
  469SOL     OW 1405   3.044   2.202   3.062 -0.0925 -0.2868 -0.2006
  469SOL    HW1 1406   3.049   2.285   0.015 -0.8768  1.6675  0.4707
  469SOL    HW2 1407   2.991   2.127   0.007 -2.2956 -0.1751 -0.2731
  470SOL     OW 1408   2.273   1.714   2.852 -0.1851  0.0875 -0.4547
  470SOL    HW1 1409   2.216   1.651   2.794 -0.7255  4.4252 -1.2933
  470SOL    HW2 1410   2.324   1.658   2.922  0.4086  0.8517  0.2319
  471SOL     OW 1411   2.318   0.676   2.149 -0.1283 -0.6720 -0.1915
  471SOL    HW1 1412   2.295   0.718   2.237  3.8209 -0.7513 -3.2288
  471SOL    HW2 1413   2.399   0.725   2.109  0.3027 -1.5397  0.5796
  472SOL     OW 1414   0.383   2.538   0.795  0.9960 -0.1089  0.3430
  472SOL    HW1 1415   0.404   2.594   0.716 -2.7780 -1.3993  1.0750
  472SOL    HW2 1416   0.420   2.583   0.888  3.2097 -0.0863  3.9782
  473SOL     OW 1417   0.645   0.067   2.525 -0.0091 -0.1697 -0.1305
  473SOL    HW1 1418   0.694   0.013   2.453 -1.1669  1.7655 -1.2967
  473SOL    HW2 1419   0.668   0.046   2.621  0.6302  0.6030 -2.5684
  474SOL     OW 1420   1.599   0.150   2.356  0.1649 -0.4178  0.2129
  474SOL    HW1 1421   1.625   0.250   2.373 -0.2373  1.2244 -1.4342
  474SOL    HW2 1422   1.633   0.122   2.265  0.7259  1.8028 -0.8272
  475SOL     OW 1423   1.833   2.710   0.885  0.1162 -0.1341 -0.2466
  475SOL    HW1 1424   1.896   2.708   0.966 -2.2973  1.3642 -0.2675
  475SOL    HW2 1425   1.855   2.641   0.816 -1.0128  0.3261 -0.3780
  476SOL     OW 1426   3.043   0.687   0.909 -0.1348  0.3477 -0.1575
  476SOL    HW1 1427   3.029   0.762   0.977 -0.6565  0.7250 -0.2064
  476SOL    HW2 1428   0.038   0.660   0.897  0.6713  0.0096 -0.9388
  477SOL     OW 1429   1.360   2.361   0.750  0.1788  0.0015 -0.0900
  477SOL    HW1 1430   1.416   2.396   0.676 -2.6939  0.4755  1.1729
  477SOL    HW2 1431   1.294   2.291   0.715 -0.7570  0.5348 -0.2845
  478SOL     OW 1432   0.297   2.332   2.433 -0.2467  0.0157 -0.1848
  478SOL    HW1 1433   0.318   2.325   2.534 -1.4195  0.8686  2.6826
  478SOL    HW2 1434   0.370   2.291   2.371  0.3507  0.4180 -0.0619
  479SOL     OW 1435   2.387   0.458   0.915  0.0496  0.5368  0.0017
  479SOL    HW1 1436   2.288   0.452   0.936 -1.6112 -0.0725 -1.9517
  479SOL    HW2 1437   2.432   0.364   0.916 -0.0373  1.8293 -1.3396
  480SOL     OW 1438   3.060   2.875   0.131 -0.4224 -0.0750 -0.0980
  480SOL    HW1 1439   3.023   2.967   0.142  0.2896 -1.5487  0.4715
  480SOL    HW2 1440   0.047   2.890   0.082  3.8555  1.5398  0.1985
  481SOL     OW 1441   2.817   2.411   1.382 -0.2509  0.6574 -0.1454
  481SOL    HW1 1442   2.752   2.416   1.458  2.6524  2.9030  1.1298
  481SOL    HW2 1443   2.866   2.502   1.378 -0.6795 -1.4962  0.9188
  482SOL     OW 1444   1.004   2.526   2.877 -0.6221 -0.2393 -0.0633
  482SOL    HW1 1445   1.103   2.506   2.882  0.3794  0.9341  0.1674
  482SOL    HW2 1446   0.989   2.591   2.799  0.1589  0.1642  0.0532
  483SOL     OW 1447   0.691   2.235   2.469 -0.3719  0.3566  0.5282
  483SOL    HW1 1448   0.725   2.140   2.444  2.2887 -2.3766 -1.5670
  483SOL    HW2 1449   0.613   2.255   2.402 -1.6877 -1.0263 -2.7880
  484SOL     OW 1450   1.077   0.882   1.576 -0.2933  0.3529  0.4902
  484SOL    HW1 1451   1.043   0.815   1.642 -0.6604  4.3362  0.7607
  484SOL    HW2 1452   1.176   0.873   1.557  0.1333 -4.4748 -2.1155
  485SOL     OW 1453   2.200   0.931   2.982 -0.0578  0.1363  0.4054
  485SOL    HW1 1454   2.239   0.842   2.949  0.0062 -1.6709 -2.4256
  485SOL    HW2 1455   2.269   1.008   2.999 -1.3547  0.4408  1.2327
  486SOL     OW 1456   2.138   0.031   1.193  0.7791  0.0206 -0.1896
  486SOL    HW1 1457   2.147   0.003   1.294 -0.1475  0.7895  2.7409
  486SOL    HW2 1458   2.063   0.104   1.175 -2.9537  1.7109 -0.6243
  487SOL     OW 1459   0.504   2.006   1.159 -0.4013  0.1386 -0.0081
  487SOL    HW1 1460   0.517   2.101   1.128  0.2744  2.5664 -2.1454
  487SOL    HW2 1461   0.406   1.995   1.192 -2.7629  0.3340 -1.4108
  488SOL     OW 1462   2.552   0.980   0.031 -0.5323  0.5299  0.4551
  488SOL    HW1 1463   2.478   1.036   0.003  0.8717 -1.9581  3.0726
  488SOL    HW2 1464   2.628   0.981   3.064 -1.2077 -0.5813 -1.8002
  489SOL     OW 1465   1.758   0.278   1.014  0.3809 -0.0769 -0.3331
  489SOL    HW1 1466   1.801   0.251   1.100  1.1318  1.9914 -0.9983
  489SOL    HW2 1467   1.661   0.311   1.027 -0.4333 -0.4084 -0.1131
  490SOL     OW 1468   0.701   0.625   0.455 -0.2576  0.0167  0.0995
  490SOL    HW1 1469   0.637   0.562   0.413  2.5847  1.4744  1.7880
  490SOL    HW2 1470   0.724   0.700   0.384  1.1139  3.7750 -1.1266
  491SOL     OW 1471   0.601   2.312   0.757 -0.2923 -0.3437  0.1839
  491SOL    HW1 1472   0.675   2.377   0.771  0.1301 -0.1434 -0.9065
  491SOL    HW2 1473   0.519   2.335   0.816  0.9413  1.6162  0.2656
  492SOL     OW 1474   1.496   1.796   2.256 -0.0981  0.1429 -0.0787
  492SOL    HW1 1475   1.461   1.712   2.299  3.3432 -0.1052 -1.2317
  492SOL    HW2 1476   1.426   1.864   2.233 -0.3281 -1.0804 -0.8287
  493SOL     OW 1477   3.026   2.578   0.874 -0.5016  0.1551 -0.0993
  493SOL    HW1 1478   2.932   2.604   0.903 -0.3189  0.7644 -1.2617
  493SOL    HW2 1479   3.070   2.666   0.851  0.4267 -1.1004  3.2152
  494SOL     OW 1480   2.689   2.078   3.056 -0.1788  0.0209  0.4523
  494SOL    HW1 1481   2.606   2.034   3.098 -1.0872  0.7435  0.6920
  494SOL    HW2 1482   2.672   2.106   2.961 -0.8222 -0.1196 -0.4531
  495SOL     OW 1483   2.630   2.194   2.811  0.0242  0.0188 -0.5504
  495SOL    HW1 1484   2.610   2.103   2.766 -0.3772 -0.8004  0.6508
  495SOL    HW2 1485   2.732   2.202   2.812 -3.4404  0.2474 -0.0567
  496SOL     OW 1486   2.773   2.926   1.555  0.1438  0.0928 -0.0554
  496SOL    HW1 1487   2.721   2.957   1.637  1.7053  0.3849 -0.5251
  496SOL    HW2 1488   2.724   2.940   1.467  1.7992 -0.2560 -0.5604
  497SOL     OW 1489   2.848   1.197   3.025 -0.4296  0.6186  0.1239
  497SOL    HW1 1490   2.829   1.112   2.971 -2.0648 -0.9105  0.0019
  497SOL    HW2 1491   2.775   1.268   3.034  3.2179 -0.7853  0.0366
  498SOL     OW 1492   3.026   1.890   2.179 -0.1630  0.6490  0.0221
  498SOL    HW1 1493   3.009   1.973   2.125  1.7620 -1.0306  0.1989
  498SOL    HW2 1494   3.092   1.902   2.262  2.5956  1.1431 -0.7557
  499SOL     OW 1495   0.837   2.236   2.908 -0.4780  0.6709 -0.0555
  499SOL    HW1 1496   0.850   2.138   2.931  1.7002 -0.2294  1.2715
  499SOL    HW2 1497   0.918   2.270   2.859 -1.0221 -1.3527 -0.3486
  500SOL     OW 1498   1.587   0.179   2.973 -0.0737  0.3505  0.2305
  500SOL    HW1 1499   1.559   0.229   3.055  0.4339  0.0308 -0.2021
  500SOL    HW2 1500   1.688   0.163   2.964 -1.0981  1.3327 -0.2355
  501SOL     OW 1501   1.361   0.009   1.366 -0.3265 -0.0863  0.6470
  501SOL    HW1 1502   1.313   3.074   1.285 -0.9083  0.0358  1.7966
  501SOL    HW2 1503   1.349   0.106   1.379 -0.3724 -0.3540 -0.7798
  502SOL     OW 1504   2.526   0.807   2.020  0.0066  0.0186  0.5699
  502SOL    HW1 1505   2.570   0.892   2.052 -2.1015 -1.3090  1.0005
  502SOL    HW2 1506   2.525   0.815   1.917 -1.3399  0.7846  0.7771
  503SOL     OW 1507   2.238   2.191   2.415  0.3490 -0.0805  0.3204
  503SOL    HW1 1508   2.272   2.255   2.485 -0.5047  1.8327  0.6726
  503SOL    HW2 1509   2.163   2.240   2.363  0.4948  1.3663  0.5899
  504SOL     OW 1510   1.569   0.813   1.456 -0.3142  0.4992  0.0560
  504SOL    HW1 1511   1.531   0.805   1.364  1.0678  1.6091  1.1097
  504SOL    HW2 1512   1.608   0.723   1.479 -1.2909 -1.1324 -1.3221
  505SOL     OW 1513   0.825   0.627   1.824 -0.1738 -0.3891  0.5185
  505SOL    HW1 1514   0.737   0.672   1.843  0.6363  2.9562 -0.0091
  505SOL    HW2 1515   0.902   0.693   1.824 -2.2276 -2.9524 -0.8533
  506SOL     OW 1516   0.598   0.649   2.514 -0.0843 -0.0694 -0.0532
  506SOL    HW1 1517   0.574   0.548   2.500  3.1630 -2.2199 -0.2928
  506SOL    HW2 1518   0.694   0.663   2.544 -1.8983  0.5838  0.7322
  507SOL     OW 1519   0.172   2.931   3.093  0.1348  1.0379 -0.0632
  507SOL    HW1 1520   0.266   2.896   3.078  1.4255  1.6933  1.5231
  507SOL    HW2 1521   0.157   3.022   3.046  3.0395 -1.6621  0.6389
  508SOL     OW 1522   1.373   1.093   1.380  0.3952 -0.4670 -0.3699
  508SOL    HW1 1523   1.377   1.061   1.476 -1.2050  1.0429 -0.2967
  508SOL    HW2 1524   1.456   1.149   1.357 -1.7452  0.0898  0.5174
  509SOL     OW 1525   1.638   2.201   1.401  0.1346 -0.3871 -0.1520
  509SOL    HW1 1526   1.646   2.302   1.419 -1.6321  3.7625  0.4554
  509SOL    HW2 1527   1.729   2.158   1.402 -2.2399 -1.3571  0.5589
  510SOL     OW 1528   2.293   1.374   2.060 -0.6662  0.3223  0.5607
  510SOL    HW1 1529   2.325   1.443   2.123  2.3509 -2.6208  0.0426
  510SOL    HW2 1530   2.341   1.286   2.073 -0.3475 -0.3317 -1.7561
  511SOL     OW 1531   0.806   1.911   1.446  0.7296 -0.5614  0.1174
  511SOL    HW1 1532   0.740   1.872   1.373 -1.1929  1.5863  0.3469
  511SOL    HW2 1533   0.789   1.860   1.533 -0.4737 -1.8770 -2.4749
  512SOL     OW 1534   2.787   2.009   0.602 -0.9798 -1.3823  0.2184
  512SOL    HW1 1535   2.771   2.105   0.567  0.5142 -0.6064 -0.1493
  512SOL    HW2 1536   2.834   2.008   0.696  0.2434  3.0934 -0.0410
  513SOL     OW 1537   3.051   1.736   2.928  0.0944 -0.0136 -0.2785
  513SOL    HW1 1538   0.013   1.802   2.887  1.8432 -0.4201 -1.6297
  513SOL    HW2 1539   3.083   1.639   2.929  3.1943  2.1076 -0.0625
  514SOL     OW 1540   2.989   2.364   2.063  0.3978 -0.5809 -0.4622
  514SOL    HW1 1541   3.073   2.373   2.121 -1.0115 -1.2558 -3.9069
  514SOL    HW2 1542   3.011   2.412   1.977  0.1753  0.8544  0.6238
  515SOL     OW 1543   2.229   1.183   1.097  0.1145  0.3634 -0.0983
  515SOL    HW1 1544   2.139   1.148   1.065  1.1791 -2.0131  2.0503
  515SOL    HW2 1545   2.220   1.233   1.185  0.6212 -2.6471  0.1556
  516SOL     OW 1546   2.284   2.186   0.238  0.5739  0.3722 -0.6993
  516SOL    HW1 1547   2.303   2.092   0.277  1.8924 -2.7119  0.8565
  516SOL    HW2 1548   2.200   2.171   0.178  1.4897 -1.1752  1.2072
  517SOL     OW 1549   1.057   1.111   0.114 -0.1994 -0.4477 -0.1823
  517SOL    HW1 1550   1.114   1.164   0.049 -0.8320  2.0595  0.4502
  517SOL    HW2 1551   1.025   1.037   0.051  1.3688 -3.1229 -3.0883
  518SOL     OW 1552   0.054   2.917   1.830 -0.4535  0.2083  0.1007
  518SOL    HW1 1553   0.052   2.934   1.930  1.4515 -1.5944 -0.3990
  518SOL    HW2 1554   3.082   2.858   1.799 -1.8734  1.9471  0.1695
  519SOL     OW 1555   1.659   1.642   2.533  0.1276 -0.2520 -0.0943
  519SOL    HW1 1556   1.743   1.586   2.508 -0.6274  0.8739 -0.4019
  519SOL    HW2 1557   1.627   1.630   2.630 -2.7490 -0.5833 -4.3605
  520SOL     OW 1558   2.604   2.954   2.364 -0.4979  0.4170  0.3953
  520SOL    HW1 1559   2.542   2.997   2.298  2.0209 -0.8724  1.8532
  520SOL    HW2 1560   2.691   3.005   2.371  0.8309  2.6942 -0.9308
  521SOL     OW 1561   0.253   1.991   1.937  0.2403  0.4301 -0.4714
  521SOL    HW1 1562   0.232   2.073   1.991  2.0739  0.5965  2.7623
  521SOL    HW2 1563   0.252   2.010   1.838  0.7426 -1.2076 -1.2158
  522SOL     OW 1564   1.141   2.693   1.630  0.4337 -0.0572  0.2796
  522SOL    HW1 1565   1.043   2.702   1.609  1.6303 -0.4321  0.9385
  522SOL    HW2 1566   1.203   2.759   1.580  2.2693  0.4845  0.9298
  523SOL     OW 1567   0.222   2.228   1.228  0.0029 -0.2989  0.5489
  523SOL    HW1 1568   0.257   2.252   1.320  0.8188 -1.0093 -1.0009
  523SOL    HW2 1569   0.134   2.274   1.202 -0.8750  1.2514  0.6217
  524SOL     OW 1570   1.341   2.685   0.800  0.3227 -0.3034 -0.3869
  524SOL    HW1 1571   1.422   2.690   0.862 -0.4754  0.1177 -0.4105
  524SOL    HW2 1572   1.345   2.594   0.757  2.0187 -0.5503  0.7973
  525SOL     OW 1573   2.491   1.174   1.024 -1.2044  0.0132  0.4629
  525SOL    HW1 1574   2.545   1.258   1.051  0.2636  1.3489 -0.3490
  525SOL    HW2 1575   2.388   1.183   1.029 -0.8235  0.8163 -0.4622
  526SOL     OW 1576   0.980   2.345   0.757  0.8026  0.3331 -0.0893
  526SOL    HW1 1577   0.914   2.394   0.705  0.7946 -0.4569  0.9537
  526SOL    HW2 1578   1.046   2.303   0.696  1.0098 -0.6584  0.6222
  527SOL     OW 1579   2.583   2.073   0.845 -0.0067 -0.4182 -0.4722
  527SOL    HW1 1580   2.684   2.075   0.835  0.1582 -1.9520  3.7980
  527SOL    HW2 1581   2.551   1.975   0.847  2.2159 -0.7616 -2.0867
  528SOL     OW 1582   2.092   0.432   3.043  0.3613 -0.1692 -0.1190
  528SOL    HW1 1583   2.009   0.471   3.081 -2.7480  2.4660  0.9699
  528SOL    HW2 1584   2.096   0.329   3.054  1.1585 -1.7946 -1.7979
  529SOL     OW 1585   1.186   1.398   2.185 -0.1090  0.6600 -0.3317
  529SOL    HW1 1586   1.247   1.400   2.264 -1.2930 -0.9778  0.3004
  529SOL    HW2 1587   1.176   1.487   2.140 -0.2004 -1.5557  3.5547
  530SOL     OW 1588   2.421   1.004   2.360  0.0218  0.3505 -0.1619
  530SOL    HW1 1589   2.511   1.053   2.361  0.4862 -0.3153  1.5218
  530SOL    HW2 1590   2.436   0.908   2.400 -0.6130 -2.0809  0.7330
  531SOL     OW 1591   0.928   0.927   3.028 -0.5020  0.0751 -0.0588
  531SOL    HW1 1592   0.993   0.899   2.954  2.6498 -0.9488 -0.3968
  531SOL    HW2 1593   0.872   0.849   3.056 -1.2603 -0.1769 -2.5532
  532SOL     OW 1594   1.512   0.994   0.540 -0.4443 -0.3388 -0.1624
  532SOL    HW1 1595   1.503   0.899   0.573  0.1573 -0.9180  0.8999
  532SOL    HW2 1596   1.537   1.008   0.443 -0.6300 -0.9944  0.3587
  533SOL     OW 1597   0.468   0.561   2.170 -0.3406  0.2508 -0.1363
  533SOL    HW1 1598   0.398   0.608   2.112 -0.1357  0.8608  0.3563
  533SOL    HW2 1599   0.555   0.557   2.116  1.6101  0.5286 -2.9291
  534SOL     OW 1600   1.610   0.416   2.387 -0.3416 -0.2943 -0.3803
  534SOL    HW1 1601   1.682   0.485   2.380 -2.4537 -2.5597 -0.4639
  534SOL    HW2 1602   1.518   0.450   2.405  0.3751  2.2867  0.0439
  535SOL     OW 1603   0.620   0.300   0.388  0.0600  0.0402  0.3804
  535SOL    HW1 1604   0.715   0.284   0.360 -4.9959  1.5189  0.0377
  535SOL    HW2 1605   0.569   0.212   0.391 -1.4471 -2.6068 -0.3895
  536SOL     OW 1606   1.111   0.436   0.641  0.0113  0.3032 -0.4773
  536SOL    HW1 1607   1.153   0.521   0.602  0.8794 -2.5126  1.7910
  536SOL    HW2 1608   1.018   0.424   0.604  0.8682 -1.4337  0.6005
  537SOL     OW 1609   1.519   3.013   1.814  0.2357  0.1428  0.3327
  537SOL    HW1 1610   1.515   3.005   1.915 -1.1285  1.1060  4.0927
  537SOL    HW2 1611   1.523   2.914   1.776 -0.8649 -1.8695 -1.4740
  538SOL     OW 1612   0.436   2.859   3.077  0.0945  0.2512  0.2297
  538SOL    HW1 1613   0.429   2.757   3.066  0.0676 -1.9345 -0.8362
  538SOL    HW2 1614   0.481   2.897   2.997 -0.9314  1.6818  1.0858
  539SOL     OW 1615   2.938   1.601   1.806  0.2157  0.5631 -0.0481
  539SOL    HW1 1616   3.021   1.628   1.757 -3.5993 -1.2708  1.0086
  539SOL    HW2 1617   2.962   1.570   1.898 -1.3080  0.1426 -1.0711
  540SOL     OW 1618   2.655   2.155   2.007  0.0324  0.2753 -0.3254
  540SOL    HW1 1619   2.753   2.120   2.002  0.3077 -2.9005  0.4540
  540SOL    HW2 1620   2.607   2.137   1.922  1.8849 -1.2554 -0.8653
  541SOL     OW 1621   0.531   2.928   1.294  0.2428  0.1194  0.1114
  541SOL    HW1 1622   0.501   2.965   1.385 -2.7012  0.8145  0.5055
  541SOL    HW2 1623   0.450   2.903   1.243 -1.4490 -0.1595 -2.8230
  542SOL     OW 1624   2.751   0.353   2.147 -0.1870 -0.6172 -0.0126
  542SOL    HW1 1625   2.781   0.338   2.243 -0.7820  0.4327  2.4439
  542SOL    HW2 1626   2.792   0.288   2.080  0.0716  2.4993  0.7765
  543SOL     OW 1627   0.691   0.652   0.941  0.6545  0.4333  0.2307
  543SOL    HW1 1628   0.645   0.707   1.013  0.4661  0.8805 -0.2643
  543SOL    HW2 1629   0.716   0.561   0.973  1.3642 -2.3252 -0.5537
  544SOL     OW 1630   2.375   2.087   1.265  0.5892  0.3291  0.1678
  544SOL    HW1 1631   2.355   2.095   1.167  0.4833  1.3180  2.8612
  544SOL    HW2 1632   2.405   2.176   1.300 -1.3309 -0.3790 -0.0158
  545SOL     OW 1633   1.229   1.463   0.976 -0.2215 -0.2418  0.4392
  545SOL    HW1 1634   1.303   1.533   0.969  0.7408 -0.8533  2.4243
  545SOL    HW2 1635   1.184   1.452   1.064  1.9517  0.1898 -3.1799
  546SOL     OW 1636   2.867   0.252   2.648  0.2969 -0.0025 -0.0975
  546SOL    HW1 1637   2.851   0.173   2.713 -1.6149  0.1910 -2.1622
  546SOL    HW2 1638   2.877   0.346   2.692  1.8880  0.3991  0.2596
  547SOL     OW 1639   2.466   0.215   2.910 -0.2445  0.0897 -0.0957
  547SOL    HW1 1640   2.446   0.184   3.003  0.3161  2.5310 -0.4605
  547SOL    HW2 1641   2.503   0.308   2.914  0.6846  0.8761  1.5836
  548SOL     OW 1642   2.338   1.952   2.747  0.0179 -0.4478  0.1908
  548SOL    HW1 1643   2.305   1.874   2.801  1.7778  2.6399 -0.5849
  548SOL    HW2 1644   2.439   1.948   2.747 -1.7508  0.6669 -0.5314
  549SOL     OW 1645   2.201   0.524   0.673  0.0754 -0.2132 -0.0549
  549SOL    HW1 1646   2.171   0.510   0.769  2.7705  1.5974  1.1755
  549SOL    HW2 1647   2.147   0.593   0.627 -0.2558 -0.5047  0.5095
  550SOL     OW 1648   2.536   1.256   0.201 -0.2387 -0.5431 -0.2083
  550SOL    HW1 1649   2.461   1.303   0.254  0.2197 -0.9904  1.0157
  550SOL    HW2 1650   2.512   1.161   0.182  2.2674  1.5584  2.1729
  551SOL     OW 1651   1.429   2.469   1.303  0.1944 -0.3775 -0.0840
  551SOL    HW1 1652   1.350   2.530   1.277 -1.6219  4.5012 -1.5428
  551SOL    HW2 1653   1.496   2.450   1.227 -0.5812 -0.8228 -0.2923
  552SOL     OW 1654   2.927   2.375   2.432 -0.4156  0.0673  0.1279
  552SOL    HW1 1655   2.900   2.292   2.380  0.8578  0.1054 -0.3660
  552SOL    HW2 1656   2.860   2.452   2.431  0.0103  2.4834  1.0049
  553SOL     OW 1657   0.599   2.961   0.594  0.0730 -0.1756  0.5430
  553SOL    HW1 1658   0.562   3.034   0.530  0.5525  0.6140  1.1465
  553SOL    HW2 1659   0.548   2.955   0.683  0.4344 -1.4471  0.8920
  554SOL     OW 1660   1.826   2.044   1.722 -0.3075 -0.3934  0.4758
  554SOL    HW1 1661   1.725   2.020   1.721 -1.4708  0.4343 -1.5475
  554SOL    HW2 1662   1.882   1.959   1.724  0.3748 -0.8953  0.8134
  555SOL     OW 1663   1.517   2.601   1.945 -0.1451 -0.3917  0.4896
  555SOL    HW1 1664   1.521   2.500   1.934 -0.0210  0.4033  1.9851
  555SOL    HW2 1665   1.427   2.638   1.914 -2.0184  0.1907 -0.2374
  556SOL     OW 1666   1.516   0.728   0.624  0.1040  0.1677 -1.0514
  556SOL    HW1 1667   1.585   0.654   0.651  0.3760  0.9420  2.2392
  556SOL    HW2 1668   1.432   0.688   0.578 -1.0328 -0.9613 -0.0329
  557SOL     OW 1669   1.421   2.140   1.554 -0.5685 -0.5150 -0.0861
  557SOL    HW1 1670   1.492   2.168   1.488  0.0289 -2.2098  0.8475
  557SOL    HW2 1671   1.326   2.148   1.516  0.8050 -0.5755 -2.6327
  558SOL     OW 1672   3.014   1.080   2.678  0.3060 -0.0861  0.1656
  558SOL    HW1 1673   2.918   1.109   2.653  0.7324  0.4794 -2.9423
  558SOL    HW2 1674   3.052   1.033   2.598  0.5130 -0.0487  1.1301
  559SOL     OW 1675   2.527   2.667   2.342  0.1842 -0.3670 -0.1992
  559SOL    HW1 1676   2.598   2.611   2.395  0.8790  0.9157 -0.8967
  559SOL    HW2 1677   2.565   2.755   2.319 -1.2474 -5.2854 -1.2813
  560SOL     OW 1678   0.370   0.078   2.528 -0.1729 -0.1615 -0.2780
  560SOL    HW1 1679   0.323   0.051   2.437 -0.9749 -1.8787 -1.2408
  560SOL    HW2 1680   0.467   0.077   2.524  1.1573  0.7323 -1.2255
  561SOL     OW 1681   1.331   0.589   0.493  0.1681  0.0320  0.1536
  561SOL    HW1 1682   1.262   0.617   0.422  0.3732  0.4606 -0.1932
  561SOL    HW2 1683   1.335   0.489   0.484 -2.1240 -1.0927  1.4867
  562SOL     OW 1684   0.690   1.600   2.172 -0.0348 -0.1986 -0.4269
  562SOL    HW1 1685   0.788   1.634   2.194  3.1877  0.7677 -0.0923
  562SOL    HW2 1686   0.620   1.637   2.234  1.6779  1.3619 -1.4855
  563SOL     OW 1687   1.853   2.194   0.257 -0.3518  0.5033 -0.1679
  563SOL    HW1 1688   1.859   2.135   0.173 -0.0577 -0.9619  0.8255
  563SOL    HW2 1689   1.937   2.249   0.254 -0.2869 -4.1049  0.4908
  564SOL     OW 1690   3.100   2.195   0.396 -0.0192  0.4002 -0.3547
  564SOL    HW1 1691   3.057   2.114   0.349 -3.3243 -2.1607  0.5241
  564SOL    HW2 1692   0.033   2.168   0.488  0.1973  0.0821  1.3707
  565SOL     OW 1693   0.484   2.950   2.806 -0.0880 -0.4251 -0.9071
  565SOL    HW1 1694   0.388   2.966   2.779 -0.8949 -0.3336  0.0961
  565SOL    HW2 1695   0.508   2.856   2.765  0.2178  0.6084 -0.3463
  566SOL     OW 1696   1.371   2.698   3.001 -0.2546  0.6986  0.5135
  566SOL    HW1 1697   1.436   2.694   3.078 -1.6249  0.4036 -0.1231
  566SOL    HW2 1698   1.411   2.752   2.929  0.0138  1.1122 -0.4335
  567SOL     OW 1699   2.515   1.805   1.379  0.0234 -0.2147 -0.1202
  567SOL    HW1 1700   2.571   1.885   1.402  2.2502  0.6673  0.1409
  567SOL    HW2 1701   2.416   1.829   1.402 -0.2163 -0.8215 -1.7488
  568SOL     OW 1702   1.769   0.982   2.745 -0.0973 -0.4305  0.2303
  568SOL    HW1 1703   1.842   1.047   2.760 -1.4656  0.4533  2.6595
  568SOL    HW2 1704   1.797   0.880   2.744 -1.0595 -2.2424 -0.4518
  569SOL     OW 1705   2.116   2.041   2.104 -0.6141 -0.0588 -0.1702
  569SOL    HW1 1706   2.127   1.943   2.086 -2.4513 -1.4178  1.3029
  569SOL    HW2 1707   2.210   2.076   2.095 -1.9253 -1.5333  2.8427
  570SOL     OW 1708   2.933   2.721   1.769 -0.2051 -0.0918 -0.1443
  570SOL    HW1 1709   2.865   2.772   1.822 -0.3825 -1.1957  1.2025
  570SOL    HW2 1710   2.914   2.732   1.669  0.6036  1.7273  2.2861
  571SOL     OW 1711   0.087   0.811   1.334 -0.0129  0.0378  0.0556
  571SOL    HW1 1712   0.141   0.896   1.354  2.9206  1.2747 -0.0784
  571SOL    HW2 1713   0.094   0.741   1.405 -2.0574  0.7431 -1.2614
  572SOL     OW 1714   0.377   1.408   0.760 -0.0517 -0.3186 -0.4017
  572SOL    HW1 1715   0.407   1.458   0.841 -0.9406 -2.0786  4.9008
  572SOL    HW2 1716   0.456   1.399   0.697  2.6299 -0.8713 -1.2896
  573SOL     OW 1717   0.803   0.805   0.261 -0.5261 -0.0701  1.0926
  573SOL    HW1 1718   0.789   0.796   0.160 -0.0706 -1.2509 -0.6630
  573SOL    HW2 1719   0.806   0.903   0.300 -1.5520  3.9494 -0.1793
  574SOL     OW 1720   0.071   0.109   0.213 -1.0772  0.0015  0.3901
  574SOL    HW1 1721   0.158   0.143   0.176 -1.3938 -0.1042 -0.2490
  574SOL    HW2 1722   0.088   0.067   0.302  1.7816  0.6731 -2.1133
  575SOL     OW 1723   0.983   2.208   1.007 -0.0938  0.2196  0.0527
  575SOL    HW1 1724   0.959   2.251   0.918 -2.3158 -3.8915  0.6553
  575SOL    HW2 1725   1.075   2.234   1.047  0.3501  2.1941  3.5890
  576SOL     OW 1726   2.964   0.072   1.587  0.5165 -0.2018  0.2532
  576SOL    HW1 1727   2.927   0.167   1.590  2.6435 -1.5548 -0.2675
  576SOL    HW2 1728   2.889   0.011   1.547 -2.3518 -1.4523 -0.1236
  577SOL     OW 1729   2.657   1.660   1.969  0.1246  0.2911 -0.1193
  577SOL    HW1 1730   2.682   1.630   1.874 -1.1068 -2.3467 -2.0891
  577SOL    HW2 1731   2.734   1.652   2.037 -1.1963  1.2460  1.1910
  578SOL     OW 1732   1.077   2.999   2.476  0.5904 -0.7403 -0.2158
  578SOL    HW1 1733   1.163   3.042   2.444  2.5285  3.0022  0.8210
  578SOL    HW2 1734   1.095   2.916   2.524  0.7920 -0.6581 -1.1868
  579SOL     OW 1735   1.915   1.994   2.303  0.2328 -0.2766  0.3598
  579SOL    HW1 1736   1.993   2.032   2.251  0.9378 -2.3026  0.6558
  579SOL    HW2 1737   1.841   1.958   2.242  2.8395 -0.3936 -0.3084
  580SOL     OW 1738   1.756   1.045   2.049 -0.2424  0.4638 -0.1837
  580SOL    HW1 1739   1.809   0.961   2.064 -1.2929  0.9238 -2.7281
  580SOL    HW2 1740   1.695   1.055   2.131 -0.3058 -0.0790  0.4097
  581SOL     OW 1741   1.256   1.147   2.408  0.3974 -0.4062 -1.0106
  581SOL    HW1 1742   1.239   1.068   2.351  0.7594  0.0197  2.3548
  581SOL    HW2 1743   1.166   1.181   2.439 -2.4978 -0.4189 -1.1375
  582SOL     OW 1744   0.003   2.535   1.860 -0.1695 -0.4090 -0.1698
  582SOL    HW1 1745   0.025   2.472   1.781 -1.5925  0.3422 -0.8599
  582SOL    HW2 1746   3.050   2.612   1.832  1.0737  0.1963 -1.5580
  583SOL     OW 1747   1.603   1.202   1.332 -0.6593 -0.0640  0.2568
  583SOL    HW1 1748   1.599   1.230   1.235  0.3362 -0.4227  0.4170
  583SOL    HW2 1749   1.671   1.258   1.385  0.0475  1.0507  0.8866
  584SOL     OW 1750   1.099   2.117   2.692  0.1340  0.1914 -0.5330
  584SOL    HW1 1751   1.185   2.079   2.730 -3.9302  0.8499 -1.2306
  584SOL    HW2 1752   1.109   2.135   2.595  0.7943 -1.8899  2.4319
  585SOL     OW 1753   0.181   2.271   0.174  0.3379  0.3965 -0.7342
  585SOL    HW1 1754   0.121   2.351   0.156  0.4677 -0.4422 -0.9196
  585SOL    HW2 1755   0.121   2.198   0.221 -2.7937 -2.8065  1.1666
  586SOL     OW 1756   2.123   1.556   0.400 -0.3060  0.3175  0.0336
  586SOL    HW1 1757   2.039   1.571   0.342  2.7087  1.3379 -0.2858
  586SOL    HW2 1758   2.113   1.470   0.453 -2.1674 -0.5543 -2.4344
  587SOL     OW 1759   2.946   1.926   0.376  0.3294 -0.2378  0.0438
  587SOL    HW1 1760   3.018   1.864   0.414 -2.2444  1.6578 -1.1470
  587SOL    HW2 1761   2.888   1.962   0.449  1.1411  0.8449 -0.3272
  588SOL     OW 1762   2.522   0.237   0.865 -0.0880 -0.4297  0.5253
  588SOL    HW1 1763   2.622   0.234   0.844  0.6357 -1.6097 -0.4902
  588SOL    HW2 1764   2.492   0.150   0.907 -0.4133 -1.3621  0.8472
  589SOL     OW 1765   0.879   0.838   0.865  0.8443 -0.4730 -0.3412
  589SOL    HW1 1766   0.963   0.809   0.914  0.5630 -1.1251 -1.9199
  589SOL    HW2 1767   0.803   0.764   0.864 -0.5723  0.0528  0.0083
  590SOL     OW 1768   2.483   2.324   0.100  0.4629  0.3028 -0.6618
  590SOL    HW1 1769   2.409   2.256   0.130 -1.8234  0.4197 -3.7607
  590SOL    HW2 1770   2.563   2.331   0.163  1.4527 -2.1431 -0.4489
  591SOL     OW 1771   0.743   2.522   1.767 -0.6433  0.4737  0.5736
  591SOL    HW1 1772   0.830   2.464   1.775 -0.3425 -2.0254  1.4724
  591SOL    HW2 1773   0.671   2.457   1.733  0.8893  1.8833  0.4661
  592SOL     OW 1774   0.840   1.511   1.747  0.7828 -0.2181  0.1627
  592SOL    HW1 1775   0.888   1.582   1.807 -0.9102  0.9687  1.5853
  592SOL    HW2 1776   0.814   1.430   1.807  0.5791  1.1310  0.0027
  593SOL     OW 1777   1.257   1.918   1.217  0.3611 -0.4410 -0.1044
  593SOL    HW1 1778   1.355   1.925   1.243  0.1757  2.2419  0.7023
  593SOL    HW2 1779   1.206   1.905   1.305  0.8268  0.1777  2.6660
  594SOL     OW 1780   0.718   1.333   2.723  0.0635  0.1964  0.0124
  594SOL    HW1 1781   0.706   1.278   2.805 -2.3060  1.0473  0.6760
  594SOL    HW2 1782   0.668   1.287   2.645 -3.3179 -0.1001 -2.0372
  595SOL     OW 1783   1.515   0.393   1.111  0.2857 -0.1480  0.2550
  595SOL    HW1 1784   1.526   0.412   1.209 -0.7277 -1.3975  0.6055
  595SOL    HW2 1785   1.524   0.475   1.050 -2.9668  2.5167  2.0335
  596SOL     OW 1786   0.271   1.106   0.926  0.0525 -0.1442  0.0374
  596SOL    HW1 1787   0.345   1.133   0.860 -1.2973  1.6562  0.5545
  596SOL    HW2 1788   0.190   1.164   0.915  0.6476  2.5488  0.6870
  597SOL     OW 1789   0.170   2.357   2.903 -0.4433 -0.7709  0.3358
  597SOL    HW1 1790   0.152   2.269   2.949 -0.1527  2.4409  0.5873
  597SOL    HW2 1791   0.097   2.378   2.832 -3.8884 -1.6487 -1.1884
  598SOL     OW 1792   2.103   2.060   2.818 -0.4059 -0.4532  0.3203
  598SOL    HW1 1793   2.063   2.154   2.799  0.9836  0.8470  0.3045
  598SOL    HW2 1794   2.182   2.040   2.754 -1.7301 -0.5667  0.2261
  599SOL     OW 1795   1.678   0.611   0.367  0.1349 -0.1579  0.7431
  599SOL    HW1 1796   1.597   0.611   0.427  2.1754  0.6086  1.4575
  599SOL    HW2 1797   1.752   0.660   0.416 -1.9400 -0.0839 -0.8760
  600SOL     OW 1798   0.901   0.252   0.314  0.2019  0.4919  0.1524
  600SOL    HW1 1799   0.918   0.184   0.241  1.8624  0.3267  0.6139
  600SOL    HW2 1800   0.943   0.339   0.282 -1.8687  2.0728  2.2387
  601SOL     OW 1801   0.433   0.198   1.488  0.1182  0.3496  0.1033
  601SOL    HW1 1802   0.431   0.265   1.565  0.6411 -2.0425  1.2131
  601SOL    HW2 1803   0.519   0.213   1.436 -1.9355 -0.6605  3.1791
  602SOL     OW 1804   3.041   3.018   0.779  0.3692 -0.1935 -0.2641
  602SOL    HW1 1805   3.073   0.004   0.805  1.4522 -0.9341 -0.4481
  602SOL    HW2 1806   2.972   3.022   0.705  0.5755  3.6599 -2.8229
  603SOL     OW 1807   0.594   2.837   2.360  0.4316 -0.5675  0.0097
  603SOL    HW1 1808   0.667   2.911   2.369  1.4760  1.9124  0.2623
  603SOL    HW2 1809   0.628   2.747   2.373 -1.3502  4.1399 -1.3223
  604SOL     OW 1810   1.134   2.740   0.030  0.0606  0.2405 -0.3049
  604SOL    HW1 1811   1.128   2.691   0.121  3.3492  1.1629 -0.7562
  604SOL    HW2 1812   1.215   2.711   3.076  1.8095 -1.4023  0.4456
  605SOL     OW 1813   1.360   0.910   1.590 -0.0812  0.1158 -0.5011
  605SOL    HW1 1814   1.436   0.863   1.539 -0.9417  0.1101 -2.6628
  605SOL    HW2 1815   1.357   0.888   1.688 -0.9973 -1.5519 -1.0870
  606SOL     OW 1816   1.140   0.412   2.605 -0.0143  0.0913 -0.6362
  606SOL    HW1 1817   1.056   0.461   2.626 -2.0383 -3.8185 -2.8047
  606SOL    HW2 1818   1.121   0.314   2.615 -2.4882  1.0996  4.2161
  607SOL     OW 1819   0.446   1.185   1.141 -0.0205  0.3123 -0.0002
  607SOL    HW1 1820   0.535   1.142   1.106  0.2008 -2.2812 -0.9799
  607SOL    HW2 1821   0.374   1.154   1.075 -0.3060 -0.5330 -0.4218
  608SOL     OW 1822   2.849   2.136   2.304  0.2998  0.0109  0.4422
  608SOL    HW1 1823   2.852   2.155   2.208 -0.9073 -0.1971  2.4390
  608SOL    HW2 1824   2.891   2.044   2.326  0.4503 -0.2124  2.0927
  609SOL     OW 1825   2.118   0.199   0.072 -0.4352 -0.0028  0.1896
  609SOL    HW1 1826   2.096   0.097   0.074 -1.2138  0.3951 -0.2686
  609SOL    HW2 1827   2.107   0.244   0.164  1.2969  2.8523 -0.0610
  610SOL     OW 1828   0.729   2.703   1.264  0.4664  0.8345  0.2396
  610SOL    HW1 1829   0.671   2.788   1.271  0.3453 -0.7517  0.4328
  610SOL    HW2 1830   0.831   2.721   1.254  0.3188 -3.7162 -0.5156
  611SOL     OW 1831   0.762   1.389   0.573 -0.6617 -0.3214  0.3687
  611SOL    HW1 1832   0.785   1.489   0.541  2.6224  1.6269 -0.0152
  611SOL    HW2 1833   0.675   1.352   0.528 -1.7753 -0.9642  0.7093
  612SOL     OW 1834   0.850   0.125   2.152  0.3548  0.4908 -0.5182
  612SOL    HW1 1835   0.802   0.165   2.073 -0.2739 -0.6976  1.8346
  612SOL    HW2 1836   0.916   0.187   2.185 -2.8598 -0.1437 -4.0760
  613SOL     OW 1837   2.435   1.481   0.468 -0.9199  0.0924 -0.3919
  613SOL    HW1 1838   2.395   1.528   0.545  0.7548 -0.3993 -1.0500
  613SOL    HW2 1839   2.513   1.435   0.508  1.6941  0.3003  0.9899
  614SOL     OW 1840   1.909   0.439   1.761 -0.3417  0.4638 -0.5644
  614SOL    HW1 1841   1.826   0.478   1.805  1.6863  0.4348 -3.0840
  614SOL    HW2 1842   1.941   0.495   1.678 -0.1707 -1.9062  0.1274
  615SOL     OW 1843   0.889   1.938   1.008 -0.1656  0.1435  0.2885
  615SOL    HW1 1844   0.954   1.876   1.059  2.6594 -2.2576  0.1833
  615SOL    HW2 1845   0.924   2.035   1.016  0.4593 -0.4398  0.5615
  616SOL     OW 1846   1.481   1.462   2.690 -0.0344 -0.2045  0.2115
  616SOL    HW1 1847   1.573   1.468   2.736 -0.9661 -1.4451  0.0958
  616SOL    HW2 1848   1.469   1.365   2.664 -1.2336 -0.2061  1.0275
  617SOL     OW 1849   1.893   2.555   0.638  0.1416  0.1303 -0.3218
  617SOL    HW1 1850   1.826   2.574   0.567  1.4976  0.5301 -0.6006
  617SOL    HW2 1851   1.987   2.570   0.604  2.7507  0.8962 -1.0937
  618SOL     OW 1852   0.816   1.154   2.906  0.2353 -0.3854 -0.1656
  618SOL    HW1 1853   0.845   1.065   2.951  2.3457  0.4595 -2.1705
  618SOL    HW2 1854   0.879   1.229   2.941 -0.0323  3.1979  0.9166
  619SOL     OW 1855   2.714   1.395   0.567  0.2711 -0.8000  0.3979
  619SOL    HW1 1856   2.732   1.370   0.469  0.5975  0.0538  0.5332
  619SOL    HW2 1857   2.685   1.311   0.616 -2.9821 -0.1354 -0.7531
  620SOL     OW 1858   2.370   2.776   2.990 -0.3017 -0.2346 -0.9651
  620SOL    HW1 1859   2.385   2.705   3.063  0.2454 -0.1298  0.5983
  620SOL    HW2 1860   2.422   2.752   2.907 -2.2254 -0.5343 -3.3351
  621SOL     OW 1861   2.170   1.248   0.111 -0.2275 -0.8982 -0.0141
  621SOL    HW1 1862   2.229   1.256   0.190 -1.0604  0.1233  0.0733
  621SOL    HW2 1863   2.081   1.210   0.139  3.7965  3.4382 -2.4953
  622SOL     OW 1864   1.087   2.377   2.499 -0.0435 -0.2170  0.0599
  622SOL    HW1 1865   0.990   2.400   2.513  2.0551  1.4603 -0.5176
  622SOL    HW2 1866   1.103   2.290   2.457 -1.0187  1.0343 -0.4033
  623SOL     OW 1867   0.698   1.844   0.040  0.0322  0.0081  1.0495
  623SOL    HW1 1868   0.761   1.895   3.077  1.4390  0.1144  0.6861
  623SOL    HW2 1869   0.617   1.804   3.101  3.3290  0.2589  3.2948
  624SOL     OW 1870   0.211   3.000   2.686 -0.3158  0.1450 -0.3112
  624SOL    HW1 1871   0.269   3.053   2.622 -1.8177 -0.9918  0.1861
  624SOL    HW2 1872   0.166   3.066   2.751 -1.2134  0.4610  0.5585
  625SOL     OW 1873   0.737   2.026   0.262  0.3631  0.7362 -0.0820
  625SOL    HW1 1874   0.739   2.112   0.206 -0.6977 -1.5295  0.3072
  625SOL    HW2 1875   0.699   1.950   0.207  0.3497 -0.1330 -0.6044
  626SOL     OW 1876   2.418   0.142   0.066  0.1191  0.6684  0.1033
  626SOL    HW1 1877   2.319   0.130   0.069 -1.3137  0.6940 -0.1964
  626SOL    HW2 1878   2.448   0.200   0.146  1.6736  2.7540  0.4330
  627SOL     OW 1879   1.463   1.187   2.569  0.8327  0.2606 -0.5054
  627SOL    HW1 1880   1.378   1.173   2.508 -2.5589 -0.3250  0.5958
  627SOL    HW2 1881   1.538   1.134   2.540 -3.3636  1.5676  0.6629
  628SOL     OW 1882   0.678   0.947   2.234 -0.4782  0.3368 -0.8055
  628SOL    HW1 1883   0.777   0.935   2.208  0.7167  0.4158 -0.5593
  628SOL    HW2 1884   0.621   0.994   2.164  0.2769 -0.9789  4.1204
  629SOL     OW 1885   0.437   3.100   1.987 -0.4796  0.3290 -0.1233
  629SOL    HW1 1886   0.450   3.014   2.047  1.6862  0.7825  0.9878
  629SOL    HW2 1887   0.522   0.011   1.929 -2.3825  1.3246 -1.0982
  630SOL     OW 1888   2.493   0.852   1.749  0.3363  0.0861  0.1205
  630SOL    HW1 1889   2.521   0.948   1.765  1.5960  1.1456 -0.9996
  630SOL    HW2 1890   2.432   0.857   1.667 -1.0252 -0.1880 -0.5162
  631SOL     OW 1891   2.297   1.216   0.367 -0.0835  0.2911 -0.1525
  631SOL    HW1 1892   2.263   1.129   0.407  0.7980 -0.2415 -0.7543
  631SOL    HW2 1893   2.322   1.278   0.443 -1.5766 -1.3475 -0.1405
  632SOL     OW 1894   2.131   0.354   1.944  0.1853 -0.5426  0.2875
  632SOL    HW1 1895   2.210   0.322   1.887 -0.2530  0.3762 -4.3870
  632SOL    HW2 1896   2.037   0.333   1.906 -0.9555 -1.1323 -0.2944
  633SOL     OW 1897   0.780   2.985   0.235  0.2554  0.2784 -0.4693
  633SOL    HW1 1898   0.677   2.973   0.215  1.9607 -1.9447 -0.7276
  633SOL    HW2 1899   0.821   2.991   0.330 -1.8039  1.2150 -1.0626
  634SOL     OW 1900   1.456   3.055   3.071 -0.3124  0.5522 -0.0192
  634SOL    HW1 1901   1.480   0.038   3.031 -2.8791 -1.0431 -0.3417
  634SOL    HW2 1902   1.536   3.010   0.015  2.0853  0.8083  3.1235
  635SOL     OW 1903   2.703   0.456   0.093 -0.0032 -0.4668 -0.3048
  635SOL    HW1 1904   2.752   0.542   0.123 -0.7770  1.3016  1.7160
  635SOL    HW2 1905   2.638   0.429   0.168 -0.5301 -1.8991  3.0581
  636SOL     OW 1906   0.703   1.780   0.896 -0.3519  0.2743 -0.3952
  636SOL    HW1 1907   0.770   1.845   0.935  0.5915  0.5108 -0.5112
  636SOL    HW2 1908   0.718   1.779   0.794 -2.8772 -0.8106  0.3713
  637SOL     OW 1909   0.164   2.696   0.547  0.0603 -0.0215 -0.6986
  637SOL    HW1 1910   0.261   2.709   0.529  1.5719 -1.3020 -0.2882
  637SOL    HW2 1911   0.144   2.595   0.564  1.5063  0.8767  2.2563
  638SOL     OW 1912   0.111   2.873   0.357 -0.2910 -0.1377 -0.2451
  638SOL    HW1 1913   0.051   2.831   0.285 -2.5119 -1.0890 -0.1522
  638SOL    HW2 1914   0.129   2.818   0.435  1.5635  4.5287 -1.1154
  639SOL     OW 1915   1.204   1.542   0.178 -0.1182 -0.2040  0.3648
  639SOL    HW1 1916   1.255   1.452   0.190 -2.4304 -2.0450  1.1544
  639SOL    HW2 1917   1.266   1.620   0.212 -0.5877  0.0146  3.3655
  640SOL     OW 1918   1.178   2.471   0.944  0.3420  0.3231  0.2777
  640SOL    HW1 1919   1.255   2.470   0.873  2.1224 -1.7088 -0.6485
  640SOL    HW2 1920   1.088   2.424   0.913 -1.2088 -0.4658 -1.4210
  641SOL     OW 1921   2.764   2.638   0.955  0.3225  0.5840  0.4851
  641SOL    HW1 1922   2.725   2.542   0.949 -0.0457  3.0756  1.1313
  641SOL    HW2 1923   2.760   2.669   1.049 -0.2576  0.2751 -3.0733
  642SOL     OW 1924   0.980   3.060   1.670  0.0613  0.3159  0.0852
  642SOL    HW1 1925   0.938   3.030   1.760  0.4683  0.8735 -0.5561
  642SOL    HW2 1926   1.076   3.086   1.692 -1.4732  2.6493  0.6401
  643SOL     OW 1927   0.934   2.249   2.194 -0.8806 -0.2382 -0.6399
  643SOL    HW1 1928   0.880   2.172   2.161  0.4067  3.2836 -0.7395
  643SOL    HW2 1929   0.880   2.296   2.264  0.3540  1.6016 -2.3126
  644SOL     OW 1930   0.842   2.917   0.485  0.3445 -0.2572 -0.5043
  644SOL    HW1 1931   0.904   2.967   0.552 -3.0255  2.8100  1.7949
  644SOL    HW2 1932   0.749   2.916   0.530  0.0752 -2.2120  0.1027
  645SOL     OW 1933   1.421   1.579   2.412 -0.0133  0.6955  0.0146
  645SOL    HW1 1934   1.339   1.532   2.460 -3.1051 -1.7107  1.0073
  645SOL    HW2 1935   1.508   1.596   2.468  1.9776  0.4353  2.9502
  646SOL     OW 1936   0.464   1.185   0.284 -0.5227  0.1435  0.2802
  646SOL    HW1 1937   0.436   1.094   0.262  1.5764  3.6362  0.0905
  646SOL    HW2 1938   0.568   1.206   0.289  1.0465 -0.7821 -1.4338
  647SOL     OW 1939   1.494   3.075   0.740 -0.1135 -0.0090 -0.2032
  647SOL    HW1 1940   1.404   3.046   0.780 -0.4960 -1.4093 -1.1450
  647SOL    HW2 1941   1.564   3.085   0.810 -2.5490 -0.9118  0.1858
  648SOL     OW 1942   2.551   2.713   1.498  0.3859 -0.1528 -0.0175
  648SOL    HW1 1943   2.507   2.676   1.583  1.1734 -0.0650 -0.4999
  648SOL    HW2 1944   2.618   2.786   1.516  1.3184 -1.2942  1.6847
  649SOL     OW 1945   0.791   2.218   0.094 -0.0914 -0.3370 -0.2549
  649SOL    HW1 1946   0.695   2.244   0.067  0.6287  0.4712 -0.0707
  649SOL    HW2 1947   0.847   2.206   0.012  0.2392  0.1613 -0.4650
  650SOL     OW 1948   0.007   1.991   1.383  0.0489  0.2058 -0.4389
  650SOL    HW1 1949   0.041   2.073   1.430 -0.3718  0.3293  1.5903
  650SOL    HW2 1950   0.065   1.965   1.301  3.9858  1.0472  0.6079
  651SOL     OW 1951   0.096   0.065   2.883  0.5788 -0.2966  0.2264
  651SOL    HW1 1952   3.101   0.060   2.914 -1.3547 -0.1647  0.7560
  651SOL    HW2 1953   0.127   0.160   2.871  1.5640  2.5000  1.9913
  652SOL     OW 1954   2.485   1.909   0.042  0.4462  0.5938 -0.2513
  652SOL    HW1 1955   2.411   1.966   3.098 -1.0954  0.3738 -2.2143
  652SOL    HW2 1956   2.475   1.895   0.143  2.1323  2.5645  2.7890
  653SOL     OW 1957   0.322   0.375   1.028 -0.0890 -0.3251 -0.1621
  653SOL    HW1 1958   0.424   0.380   1.005  1.0089 -1.7094  0.2235
  653SOL    HW2 1959   0.300   0.340   1.122 -0.3357 -1.9964 -0.4704
  654SOL     OW 1960   1.246   0.017   0.142  0.0165  0.1579  0.1004
  654SOL    HW1 1961   1.228   3.072   0.229  1.3016  0.0339 -1.5899
  654SOL    HW2 1962   1.324   3.072   0.099 -0.2414 -2.1746 -0.0244
  655SOL     OW 1963   0.693   2.564   1.038 -0.5233 -0.1729 -0.0556
  655SOL    HW1 1964   0.667   2.471   1.066 -0.6369  2.3518  0.4782
  655SOL    HW2 1965   0.714   2.623   1.119 -2.2671  0.5421  1.2414
  656SOL     OW 1966   0.495   2.863   2.108 -0.7370 -0.4558  0.3795
  656SOL    HW1 1967   0.561   2.828   2.032  2.7937 -1.1909  0.3515
  656SOL    HW2 1968   0.541   2.846   2.196  3.2884  1.1235 -0.0812
  657SOL     OW 1969   1.674   0.771   2.515  0.0248 -0.0193  0.1718
  657SOL    HW1 1970   1.727   0.718   2.444 -1.0072 -0.8401 -2.8783
  657SOL    HW2 1971   1.699   0.749   2.612  1.6958  1.1031 -2.1723
  658SOL     OW 1972   2.399   1.732   1.107 -0.0004  0.1099  0.3718
  658SOL    HW1 1973   2.384   1.745   1.206 -0.6973  1.9875  0.9705
  658SOL    HW2 1974   2.395   1.630   1.085 -2.9556 -0.5987 -2.2886
  659SOL     OW 1975   2.771   2.730   0.046  0.5542  0.3328 -0.0473
  659SOL    HW1 1976   2.795   2.829   0.043 -1.0535 -2.1778  0.2640
  659SOL    HW2 1977   2.700   2.709   0.116  1.2124  0.9460  2.0957
  660SOL     OW 1978   1.042   0.882   2.780 -0.5941  0.0668  0.3522
  660SOL    HW1 1979   1.130   0.942   2.789  2.3719  3.4221 -0.3113
  660SOL    HW2 1980   1.017   0.870   2.681  2.0111 -1.6265 -0.9725
  661SOL     OW 1981   2.431   2.451   0.904 -0.0564  0.4089 -0.0368
  661SOL    HW1 1982   2.391   2.370   0.853  1.3037  0.2897 -1.9443
  661SOL    HW2 1983   2.528   2.442   0.903 -1.7832 -0.0916  0.0558
  662SOL     OW 1984   0.507   0.500   0.281 -0.5290 -0.4719  0.5555
  662SOL    HW1 1985   0.565   0.419   0.310 -1.2301 -0.3429 -1.1014
  662SOL    HW2 1986   0.411   0.470   0.281  0.0390 -2.5362 -1.4527
  663SOL     OW 1987   1.338   2.395   2.637 -0.3099  0.6358  0.1270
  663SOL    HW1 1988   1.369   2.435   2.550  1.4211  0.1472 -0.8419
  663SOL    HW2 1989   1.238   2.380   2.630 -0.2109  0.1126  0.1190
  664SOL     OW 1990   0.883   2.312   1.261 -0.0346 -0.2224 -0.8207
  664SOL    HW1 1991   0.928   2.399   1.294 -1.3045  0.2124 -0.5542
  664SOL    HW2 1992   0.932   2.276   1.183 -0.7831  1.8931  0.0282
  665SOL     OW 1993   1.587   1.696   1.613 -0.1011  0.4586  0.7451
  665SOL    HW1 1994   1.591   1.791   1.643  2.7948 -0.3800 -1.5855
  665SOL    HW2 1995   1.493   1.665   1.594  3.2261  0.4632  2.2219
  666SOL     OW 1996   0.565   2.474   0.151  0.2623 -0.3679 -0.2085
  666SOL    HW1 1997   0.623   2.496   0.072 -1.6221  0.5504 -2.3379
  666SOL    HW2 1998   0.514   2.382   0.146 -1.6926 -0.2139 -1.1472
  667SOL     OW 1999   1.973   1.288   1.324  0.0842 -0.2944  0.3073
  667SOL    HW1 2000   2.022   1.260   1.403  0.7529 -1.6737 -3.4547
  667SOL    HW2 2001   1.885   1.323   1.345  0.0800  0.0508  0.6547
  668SOL     OW 2002   0.206   0.172   1.962 -0.1966  0.0172 -0.0092
  668SOL    HW1 2003   0.280   0.124   2.013 -3.3396 -0.5801 -0.1314
  668SOL    HW2 2004   0.184   0.133   1.874  0.2123  0.4516  2.3111
  669SOL     OW 2005   2.082   2.342   2.272 -0.4756  0.1385 -0.1359
  669SOL    HW1 2006   2.059   2.418   2.341 -0.5072  2.6471  1.8957
  669SOL    HW2 2007   2.042   2.360   2.179  2.7442  1.0616 -0.1458
  670SOL     OW 2008   2.384   1.954   0.373 -0.1061  0.3092 -0.7261
  670SOL    HW1 2009   2.297   1.916   0.403 -1.0204  0.3230 -0.9461
  670SOL    HW2 2010   2.426   2.004   0.448  2.6049  1.3053 -1.1770
  671SOL     OW 2011   1.004   1.133   1.441 -0.2488  0.4327  0.0148
  671SOL    HW1 2012   1.026   1.139   1.343  4.0514  2.8171  0.7565
  671SOL    HW2 2013   1.046   1.048   1.482  0.3051  0.8765 -1.2962
  672SOL     OW 2014   2.570   1.376   2.179  0.1394 -0.8643  0.3453
  672SOL    HW1 2015   2.546   1.409   2.273  0.3053  0.8438 -1.7046
  672SOL    HW2 2016   2.588   1.449   2.112 -1.6560  0.6986  0.4282
  673SOL     OW 2017   2.859   1.452   2.306 -0.0412  0.4041  0.5274
  673SOL    HW1 2018   2.777   1.444   2.361 -0.0476 -0.4577 -2.7543
  673SOL    HW2 2019   2.938   1.408   2.356  1.4170 -2.1531  1.2373
  674SOL     OW 2020   0.955   2.784   2.149  0.0370  0.1962 -0.2440
  674SOL    HW1 2021   1.052   2.770   2.122 -1.7689  1.0246 -1.0756
  674SOL    HW2 2022   0.938   2.736   2.235  1.1215  2.2236 -2.9734
  675SOL     OW 2023   0.718   0.914   1.540 -0.3721 -0.1824 -0.5814
  675SOL    HW1 2024   0.749   0.818   1.527 -1.8014  1.0977 -2.7777
  675SOL    HW2 2025   0.782   0.976   1.589 -1.3273 -0.9766  0.4527
  676SOL     OW 2026   1.850   0.750   0.523  0.0958  0.2883  0.2772
  676SOL    HW1 2027   1.809   0.748   0.618 -0.8064  0.3307  0.1608
  676SOL    HW2 2028   1.944   0.713   0.523 -3.5883  0.1171  1.9286
  677SOL     OW 2029   2.815   1.763   2.787 -0.1892 -0.2891 -0.4577
  677SOL    HW1 2030   2.787   1.670   2.820  2.1802  0.6267 -2.6841
  677SOL    HW2 2031   2.890   1.803   2.845 -1.2043  0.0961 -4.1864
  678SOL     OW 2032   3.028   0.076   1.209  0.5430  0.0695 -0.1844
  678SOL    HW1 2033   3.056   0.178   1.216 -0.6214  2.8453 -1.9147
  678SOL    HW2 2034   3.054   0.028   1.291 -0.8585 -1.1585  0.8119
  679SOL     OW 2035   2.133   3.099   0.398 -1.0326 -0.0696 -0.2984
  679SOL    HW1 2036   2.191   3.062   0.322  0.4293 -1.8745  0.2226
  679SOL    HW2 2037   2.094   0.084   0.367 -1.8447  1.7081 -1.0831
  680SOL     OW 2038   0.494   2.260   2.262 -0.1652 -0.1429  0.4017
  680SOL    HW1 2039   0.491   2.156   2.247 -0.2139 -3.9482 -2.1802
  680SOL    HW2 2040   0.548   2.303   2.184  0.1637  1.9241 -0.6668
  681SOL     OW 2041   0.167   1.582   1.262 -0.9758  0.3272  0.0188
  681SOL    HW1 2042   0.212   1.536   1.183 -1.2813  0.1657 -0.6061
  681SOL    HW2 2043   0.228   1.659   1.291  1.8449 -1.6458  1.1381
  682SOL     OW 2044   0.550   2.343   1.706 -0.6302 -0.8375  0.0218
  682SOL    HW1 2045   0.595   2.269   1.756 -0.9963 -0.9813  0.5468
  682SOL    HW2 2046   0.473   2.382   1.757  0.2792  1.3649  0.5606
  683SOL     OW 2047   0.066   1.890   1.630  0.3318 -0.0184  0.6243
  683SOL    HW1 2048   0.016   1.893   1.539 -1.8825  0.4946  0.5857
  683SOL    HW2 2049   0.091   1.794   1.654  3.4516  2.3041 -1.9773
  684SOL     OW 2050   2.404   1.536   3.039 -0.2625 -0.2387  1.2556
  684SOL    HW1 2051   2.335   1.521   0.009 -0.2299  2.3361  1.5643
  684SOL    HW2 2052   2.489   1.579   3.072 -0.2873 -0.6751 -0.0857
  685SOL     OW 2053   1.633   1.042   0.284  0.2001  0.5296  0.0683
  685SOL    HW1 2054   1.717   0.989   0.298  0.2051  0.9023 -0.9714
  685SOL    HW2 2055   1.651   1.143   0.286  0.7192 -0.0388 -0.6058
  686SOL     OW 2056   0.318   0.042   0.662  0.2171  0.2056  0.0610
  686SOL    HW1 2057   0.359   3.086   0.734  2.0968  0.3979  0.3566
  686SOL    HW2 2058   0.292   0.130   0.703 -1.4055 -2.1167 -2.1651
  687SOL     OW 2059   1.001   1.222   2.542 -0.2716 -0.0337  0.2567
  687SOL    HW1 2060   1.053   1.238   2.627 -2.2668 -1.6914  0.8303
  687SOL    HW2 2061   0.914   1.169   2.568 -5.3133  0.7761  0.8431
  688SOL     OW 2062   1.321   1.644   1.596 -0.2426 -0.3339 -0.5797
  688SOL    HW1 2063   1.295   1.640   1.498  0.6334  0.7471 -0.2997
  688SOL    HW2 2064   1.264   1.716   1.640  0.6089 -2.1010 -2.7671
  689SOL     OW 2065   2.403   0.123   1.264 -0.3420  0.0214 -0.1531
  689SOL    HW1 2066   2.425   0.073   1.175  4.1853 -1.8356 -0.6289
  689SOL    HW2 2067   2.361   0.057   1.332 -1.1663 -2.5684  2.4632
  690SOL     OW 2068   3.046   1.415   1.020 -0.1243 -0.2360 -0.0833
  690SOL    HW1 2069   3.059   1.376   1.114 -0.6642  0.7480  0.6708
  690SOL    HW2 2070   3.062   1.346   0.945 -0.2681 -1.1502 -0.4333
  691SOL     OW 2071   0.409   2.284   1.034  0.1117  0.3039 -0.5930
  691SOL    HW1 2072   0.506   2.300   1.066 -0.9886 -0.9654  4.6943
  691SOL    HW2 2073   0.340   2.276   1.109  1.2339  1.6491 -1.0696
  692SOL     OW 2074   2.529   0.142   1.572 -0.1099  0.4081  0.1159
  692SOL    HW1 2075   2.605   0.201   1.542 -1.1928 -0.2758 -2.2315
  692SOL    HW2 2076   2.458   0.125   1.501  0.0224  2.5135  2.0225
  693SOL     OW 2077   0.223   1.839   2.374 -0.0263  0.5102 -0.8129
  693SOL    HW1 2078   0.167   1.758   2.412  0.2080  0.6625  1.7560
  693SOL    HW2 2079   0.164   1.922   2.366 -0.5737 -0.1424 -2.6480
  694SOL     OW 2080   1.916   1.199   1.736  0.3314 -0.3175 -0.2779
  694SOL    HW1 2081   1.827   1.236   1.779 -0.6956  0.2596  2.3535
  694SOL    HW2 2082   1.975   1.166   1.809 -2.1148  0.2888 -5.0109
  695SOL     OW 2083   0.736   0.877   1.257 -0.2984  0.2362 -0.3462
  695SOL    HW1 2084   0.731   0.906   1.355 -1.4731 -0.2821 -2.7115
  695SOL    HW2 2085   0.826   0.832   1.231  0.1722  1.7256  2.1364
  696SOL     OW 2086   1.673   3.091   0.934 -0.4156  0.5488  0.1537
  696SOL    HW1 2087   1.705   0.078   0.964 -0.4741 -0.5712  1.9386
  696SOL    HW2 2088   1.747   3.042   0.884 -0.3223  0.4985 -0.2700
  697SOL     OW 2089   1.081   0.468   1.256 -0.2425  0.3094  0.0874
  697SOL    HW1 2090   1.111   0.462   1.354 -1.5745  1.8280  1.9513
  697SOL    HW2 2091   1.108   0.388   1.195  1.1610  0.4242 -2.4748
  698SOL     OW 2092   1.379   1.006   2.112  0.3639  0.1747 -0.1483
  698SOL    HW1 2093   1.348   0.921   2.156  1.0198 -0.2332  3.4997
  698SOL    HW2 2094   1.452   1.047   2.168 -1.5120 -2.9582 -0.2684
  699SOL     OW 2095   1.816   0.730   1.222  0.0905 -0.0699  0.1617
  699SOL    HW1 2096   1.812   0.715   1.118 -0.4640  0.5834 -4.1654
  699SOL    HW2 2097   1.838   0.830   1.232 -0.8647 -0.5777 -2.0635
  700SOL     OW 2098   1.102   2.613   0.276  0.4410  0.3994 -0.2390
  700SOL    HW1 2099   1.053   2.629   0.366  1.2934 -2.3655 -1.0215
  700SOL    HW2 2100   1.085   2.518   0.242  0.5032 -2.4576 -1.6081
  701SOL     OW 2101   2.178   2.362   2.956 -0.0348 -0.3974  0.0250
  701SOL    HW1 2102   2.140   2.443   2.901 -0.7608  0.0281 -1.5773
  701SOL    HW2 2103   2.274   2.351   2.939 -4.1289  0.0763  0.8343
  702SOL     OW 2104   0.604   0.340   0.965  1.0517 -0.4133 -0.0969
  702SOL    HW1 2105   0.686   0.356   1.026 -0.8694 -1.1206 -0.4889
  702SOL    HW2 2106   0.632   0.337   0.866  3.1770 -1.3142 -4.3933
  703SOL     OW 2107   2.456   0.152   2.422 -0.5634 -0.1870 -0.4419
  703SOL    HW1 2108   2.421   0.101   2.344  1.1249  4.4345  1.7327
  703SOL    HW2 2109   2.501   0.236   2.385 -0.9125  1.9140  1.1492
  704SOL     OW 2110   2.968   2.394   0.532 -0.5173  0.6308  0.1130
  704SOL    HW1 2111   3.049   2.415   0.592 -1.7171  0.1907 -2.8789
  704SOL    HW2 2112   3.004   2.332   0.458 -0.4571 -1.2318 -0.3315
  705SOL     OW 2113   2.861   2.815   2.179  0.0707  0.6345  0.3578
  705SOL    HW1 2114   2.950   2.775   2.193 -1.7761  1.0262  0.1985
  705SOL    HW2 2115   2.833   2.860   2.269  0.7687 -0.7460  1.5184
  706SOL     OW 2116   2.086   2.932   1.388 -0.7479  0.6944 -0.1505
  706SOL    HW1 2117   1.989   2.897   1.377 -1.0736 -0.0246 -1.7929
  706SOL    HW2 2118   2.148   2.861   1.431  2.1867 -2.3408 -0.7352
  707SOL     OW 2119   0.829   2.575   2.048  0.1224 -0.2450 -0.2871
  707SOL    HW1 2120   0.887   2.524   1.985 -1.9654 -0.3615  0.8696
  707SOL    HW2 2121   0.878   2.661   2.084  2.3580  1.5433  1.5771
  708SOL     OW 2122   0.215   2.222   2.099 -0.1305  0.3428  0.3387
  708SOL    HW1 2123   0.310   2.240   2.130  0.2352  0.4048  0.3141
  708SOL    HW2 2124   0.150   2.265   2.160 -0.2083  0.2790 -0.4117
  709SOL     OW 2125   1.891   0.169   1.752 -0.1168  0.0930  0.5582
  709SOL    HW1 2126   1.897   0.267   1.777 -1.2313 -1.0671  0.4983
  709SOL    HW2 2127   1.857   0.115   1.832  0.1144  2.5304 -0.2998
  710SOL     OW 2128   1.392   0.597   2.828 -0.3093  0.3502 -0.2031
  710SOL    HW1 2129   1.447   0.513   2.842  1.6405 -1.2689 -1.5199
  710SOL    HW2 2130   1.392   0.636   2.730  0.4003  0.9650  0.1832
  711SOL     OW 2131   0.942   1.900   2.627  0.1376  0.0876  0.4731
  711SOL    HW1 2132   0.997   1.986   2.632 -0.8670 -0.2210  0.0004
  711SOL    HW2 2133   1.010   1.826   2.644 -0.2187  2.1289  1.6652
  712SOL     OW 2134   0.822   2.464   2.498  0.2392  0.6705 -0.2146
  712SOL    HW1 2135   0.794   2.525   2.574  0.2718 -0.1369  1.3726
  712SOL    HW2 2136   0.761   2.382   2.504  0.0339 -1.2792 -0.3903
  713SOL     OW 2137   1.801   1.299   2.554 -0.3784 -0.2106  0.4509
  713SOL    HW1 2138   1.800   1.306   2.657 -1.0114  2.4290 -0.0585
  713SOL    HW2 2139   1.816   1.393   2.513  1.7637 -0.2798 -0.3889
  714SOL     OW 2140   1.163   1.626   2.047 -0.1930 -0.6140 -0.1543
  714SOL    HW1 2141   1.072   1.652   2.003 -2.3941 -2.8308  0.7910
  714SOL    HW2 2142   1.239   1.650   1.981 -0.2268  2.4141 -2.0095
  715SOL     OW 2143   1.816   0.434   2.708  0.0150 -0.1914 -0.0752
  715SOL    HW1 2144   1.845   0.457   2.613 -0.9798 -1.3174  0.1354
  715SOL    HW2 2145   1.898   0.394   2.751  0.6296  0.1876  0.1949
  716SOL     OW 2146   0.036   2.229   1.508 -0.3917 -0.2010 -0.0747
  716SOL    HW1 2147   3.068   2.248   1.577  0.0413 -1.4591 -1.6883
  716SOL    HW2 2148   0.031   2.306   1.445 -0.7719 -0.7497  0.1365
  717SOL     OW 2149   2.595   1.264   0.793 -0.2071 -0.4398 -0.2701
  717SOL    HW1 2150   2.537   1.347   0.802  1.8575 -1.1693 -0.6513
  717SOL    HW2 2151   2.591   1.204   0.878 -0.6746  1.9877 -0.8071
  718SOL     OW 2152   1.336   1.981   2.152 -0.5970 -0.3813 -0.0167
  718SOL    HW1 2153   1.351   2.077   2.121  0.7555 -0.7462 -0.5338
  718SOL    HW2 2154   1.236   1.954   2.163 -0.7697 -1.7022  0.8541
  719SOL     OW 2155   2.113   0.694   2.720 -0.1275  0.2086 -0.0000
  719SOL    HW1 2156   2.015   0.681   2.735  2.9931  1.6689  1.9751
  719SOL    HW2 2157   2.172   0.672   2.797  2.0980 -0.6976  0.9840
  720SOL     OW 2158   0.811   0.470   1.122 -0.0699  0.3823 -0.1971
  720SOL    HW1 2159   0.749   0.461   1.203  0.2017 -4.9468  1.4037
  720SOL    HW2 2160   0.909   0.493   1.145 -1.6660 -0.5415  1.4432
  721SOL     OW 2161   2.843   0.947   0.617  0.1366  0.1349  0.0457
  721SOL    HW1 2162   2.901   1.008   0.561  0.4118  1.6249  1.7660
  721SOL    HW2 2163   2.769   0.903   0.566  0.4637  0.2219 -1.8159
  722SOL     OW 2164   0.004   0.122   2.581 -0.3596  0.0706  0.2980
  722SOL    HW1 2165   3.034   0.188   2.604  1.0229 -2.1113  0.5223
  722SOL    HW2 2166   0.094   0.156   2.611 -2.4255 -1.4258  0.8233
  723SOL     OW 2167   1.541   0.191   0.360 -0.5505 -0.4168  0.0878
  723SOL    HW1 2168   1.516   0.259   0.431  0.9156 -2.1009  1.7019
  723SOL    HW2 2169   1.547   0.098   0.406 -0.8209  0.3774  2.8975
  724SOL     OW 2170   0.832   1.990   2.163  0.0651 -0.1164  0.3472
  724SOL    HW1 2171   0.776   1.952   2.086 -1.2229 -0.9732  1.0409
  724SOL    HW2 2172   0.797   1.970   2.258  1.0166  1.2485  1.0988
  725SOL     OW 2173   1.539   2.928   1.082  0.0084  0.1231 -0.5940
  725SOL    HW1 2174   1.562   2.927   1.183  0.6889 -0.9430 -0.2780
  725SOL    HW2 2175   1.583   3.010   1.043 -1.7202 -1.6029  0.2697
  726SOL     OW 2176   2.098   2.660   0.107  0.2965  0.3718  0.5876
  726SOL    HW1 2177   2.084   2.597   0.188 -0.2440 -0.9477  1.2621
  726SOL    HW2 2178   2.185   2.708   0.128 -1.9388  0.0145  0.6208
  727SOL     OW 2179   1.408   1.655   0.910  0.7488  0.0726 -0.0443
  727SOL    HW1 2180   1.437   1.752   0.910 -0.6039 -0.3346 -0.2671
  727SOL    HW2 2181   1.377   1.617   0.819  0.4903  0.2568 -1.7512
  728SOL     OW 2182   2.165   2.508   1.888  0.3721  0.4416 -0.2755
  728SOL    HW1 2183   2.117   2.526   1.798 -0.5587 -0.2923  0.0928
  728SOL    HW2 2184   2.208   2.418   1.886 -2.1682  1.1214  2.8834
  729SOL     OW 2185   2.034   1.864   1.416 -0.0946 -0.0888  0.1717
  729SOL    HW1 2186   1.990   1.786   1.466  0.9802 -0.2355  1.2084
  729SOL    HW2 2187   2.054   1.842   1.320 -0.9190  2.0339  2.1461
  730SOL     OW 2188   1.472   0.751   3.020  0.3487  0.2247  0.1172
  730SOL    HW1 2189   1.437   0.697   2.947 -0.3518  0.9983  0.1648
  730SOL    HW2 2190   1.515   0.688   3.085  3.1923 -1.3846 -2.4719
  731SOL     OW 2191   0.483   0.098   0.993 -0.4087 -0.0409 -0.0513
  731SOL    HW1 2192   0.391   0.099   1.038  2.3221  0.8353  0.3164
  731SOL    HW2 2193   0.524   0.193   0.985  1.3588 -0.1474  0.6254
  732SOL     OW 2194   1.295   0.208   0.651  0.2033  0.3292 -0.2968
  732SOL    HW1 2195   1.267   0.297   0.620  1.3311 -0.2550 -0.0137
  732SOL    HW2 2196   1.283   0.197   0.752 -0.2119  0.1148  1.0128
  733SOL     OW 2197   0.918   1.568   1.235  0.1964 -0.1985 -0.1065
  733SOL    HW1 2198   0.923   1.567   1.336  0.4353 -0.1284  0.1718
  733SOL    HW2 2199   0.865   1.487   1.204  0.6063  0.4687  1.0529
  734SOL     OW 2200   2.780   2.608   2.909  0.2978  0.4902  0.1239
  734SOL    HW1 2201   2.774   2.635   3.009  0.7550 -0.5735 -3.1930
  734SOL    HW2 2202   2.687   2.606   2.863 -3.9980 -2.8035 -3.9182
  735SOL     OW 2203   0.978   2.790   1.183 -0.6033 -0.0520 -0.6904
  735SOL    HW1 2204   0.924   2.869   1.218  1.0531 -0.4246 -0.9258
  735SOL    HW2 2205   1.001   2.802   1.087 -3.0442  1.1992  2.2473
  736SOL     OW 2206   1.794   1.998   0.514  0.4445  0.1106 -0.2141
  736SOL    HW1 2207   1.842   2.083   0.552 -2.2206  1.4911  1.4362
  736SOL    HW2 2208   1.845   1.950   0.439 -2.7904 -1.2890  1.0330
  737SOL     OW 2209   3.031   1.723   1.327 -0.3914  0.4817  0.1066
  737SOL    HW1 2210   0.006   1.664   1.292 -1.4428  3.9563  1.8546
  737SOL    HW2 2211   3.026   1.822   1.293  2.1236  3.4853 -0.9694
  738SOL     OW 2212   1.974   2.296   2.694  0.2644  0.4687 -0.5123
  738SOL    HW1 2213   1.945   2.397   2.715  0.2512  2.0133  1.2400
  738SOL    HW2 2214   1.914   2.252   2.627  0.5858  2.1301 -1.7800
  739SOL     OW 2215   1.171   1.782   2.697 -0.0490 -0.2459 -0.0690
  739SOL    HW1 2216   1.212   1.878   2.697 -2.1376 -0.2155 -0.4602
  739SOL    HW2 2217   1.222   1.722   2.760 -1.1009  0.4119 -0.4976
  740SOL     OW 2218   1.297   2.988   0.953  0.2572 -0.2245  0.7122
  740SOL    HW1 2219   1.388   2.961   0.988  1.9529  1.1873 -0.8726
  740SOL    HW2 2220   1.239   2.907   0.931 -1.7991 -1.5725  0.1954
  741SOL     OW 2221   0.246   1.055   0.580  0.5245 -0.2136 -0.0087
  741SOL    HW1 2222   0.179   1.125   0.610 -0.5659  1.6749 -0.5901
  741SOL    HW2 2223   0.334   1.056   0.633  1.4884  0.6656  0.7267
  742SOL     OW 2224   1.178   1.550   2.520  0.4906 -0.1204  0.1213
  742SOL    HW1 2225   1.126   1.503   2.593  1.8453 -2.3656 -0.3035
  742SOL    HW2 2226   1.191   1.647   2.544 -1.6160 -0.0994  0.3605
  743SOL     OW 2227   0.950   0.984   2.131 -0.4036 -0.2345  0.3442
  743SOL    HW1 2228   0.939   1.073   2.188 -0.7162  3.0215  0.7321
  743SOL    HW2 2229   0.978   1.002   2.036 -0.6827 -0.3106  1.3360
  744SOL     OW 2230   2.061   2.989   1.668 -0.1661  0.1842 -0.3039
  744SOL    HW1 2231   2.012   3.071   1.635  2.3023 -2.1361  0.2766
  744SOL    HW2 2232   2.005   2.908   1.652 -0.7581  0.4179 -2.9820
  745SOL     OW 2233   2.120   1.290   1.599  0.4189 -0.5056  0.2708
  745SOL    HW1 2234   2.155   1.367   1.657 -2.3151  1.7704  1.4449
  745SOL    HW2 2235   2.026   1.262   1.636 -0.6573 -0.3975  2.1604
  746SOL     OW 2236   1.766   1.034   0.620 -0.6974 -0.0205  0.1775
  746SOL    HW1 2237   1.839   1.004   0.552  0.4246 -0.4615 -0.3226
  746SOL    HW2 2238   1.673   1.043   0.576 -0.0350 -2.4715 -0.6106
  747SOL     OW 2239   2.385   1.656   0.704 -0.1398 -0.5169  0.3584
  747SOL    HW1 2240   2.465   1.713   0.662  0.5282  2.1103  0.1060
  747SOL    HW2 2241   2.300   1.705   0.686  1.7035 -1.3836  0.4228
  748SOL     OW 2242   0.265   1.940   0.310  0.0573  0.3368  0.1558
  748SOL    HW1 2243   0.210   1.965   0.228  1.5787 -0.7294  1.0208
  748SOL    HW2 2244   0.328   1.864   0.284 -0.6967 -1.1166  0.7894
  749SOL     OW 2245   3.064   2.391   2.669 -0.1232  0.0985  0.0572
  749SOL    HW1 2246   3.022   2.391   2.578 -0.4756  0.8643  0.9458
  749SOL    HW2 2247   3.063   2.483   2.710 -0.5964  3.7035  0.4607
  750SOL     OW 2248   2.118   0.747   0.542  1.0395  0.0631  0.1432
  750SOL    HW1 2249   2.205   0.722   0.493  1.9301 -2.0210  2.5079
  750SOL    HW2 2250   2.125   0.825   0.609  3.8186  0.9351 -2.0280
  751SOL     OW 2251   2.626   3.036   0.058  0.1994 -0.4510  0.1855
  751SOL    HW1 2252   2.563   0.009   0.075 -1.5516 -0.4954  1.2800
  751SOL    HW2 2253   2.613   3.003   3.065  2.2976  1.5599  2.0059
  752SOL     OW 2254   2.650   2.834   0.792  0.2519  0.0860  0.1565
  752SOL    HW1 2255   2.698   2.886   0.723 -0.5861 -1.1776  1.7777
  752SOL    HW2 2256   2.708   2.782   0.860 -0.1811 -0.6354 -0.0248
  753SOL     OW 2257   1.581   1.135   2.229  0.4689  0.2615 -0.1043
  753SOL    HW1 2258   1.622   1.110   2.317  0.7168 -1.5337  1.1733
  753SOL    HW2 2259   1.551   1.232   2.235 -0.9670 -1.9108  0.9366
  754SOL     OW 2260   1.928   2.183   1.973 -0.2588 -0.4534  0.4716
  754SOL    HW1 2261   1.893   2.130   1.895 -0.5667  2.1591 -0.6679
  754SOL    HW2 2262   2.016   2.146   1.999 -0.4872  2.1543 -2.3582
  755SOL     OW 2263   2.529   0.869   0.912  0.0577 -0.3708 -0.1147
  755SOL    HW1 2264   2.618   0.824   0.889  2.0113 -0.8029  1.6359
  755SOL    HW2 2265   2.540   0.957   0.963 -0.2264 -1.1180  1.2100
  756SOL     OW 2266   0.922   1.384   3.074 -0.1541 -0.2087 -0.9659
  756SOL    HW1 2267   0.952   1.406   0.068 -0.6042  2.3592  1.0422
  756SOL    HW2 2268   0.913   1.462   3.010 -0.0375 -1.6476  1.0779
  757SOL     OW 2269   1.862   2.447   1.312  0.0729  0.0671 -0.4005
  757SOL    HW1 2270   1.953   2.415   1.342 -1.3885  2.6629 -1.0181
  757SOL    HW2 2271   1.869   2.426   1.209  0.9280  0.2998  1.4131
  758SOL     OW 2272   1.165   2.211   1.463 -0.0608  0.8382  0.0500
  758SOL    HW1 2273   1.175   2.216   1.364 -0.5726 -2.4971 -0.1420
  758SOL    HW2 2274   1.202   2.297   1.501  0.1394  0.3940  0.6318
  759SOL     OW 2275   2.703   1.359   1.103 -0.4877  0.1087 -0.8778
  759SOL    HW1 2276   2.649   1.423   1.158  0.6325  2.1940  0.4434
  759SOL    HW2 2277   2.785   1.410   1.083 -1.5933 -0.9782  1.7263
  760SOL     OW 2278   2.211   0.994   1.625 -0.6438  0.1016 -0.2088
  760SOL    HW1 2279   2.125   0.941   1.605 -0.8821 -0.9891 -0.1460
  760SOL    HW2 2280   2.203   1.091   1.599 -0.1229 -1.3595 -0.0863
  761SOL     OW 2281   1.862   2.968   0.250 -0.0166 -0.5171 -0.0456
  761SOL    HW1 2282   1.866   2.982   0.351  2.1623  0.9517 -0.0687
  761SOL    HW2 2283   1.947   3.006   0.205 -2.0174  0.1919  0.4485
  762SOL     OW 2284   1.870   1.936   2.907  0.4564  0.2900 -0.0272
  762SOL    HW1 2285   1.802   1.971   2.837 -0.3077  1.0345 -0.6911
  762SOL    HW2 2286   1.965   1.962   2.881 -0.2269  0.0101  1.1586
  763SOL     OW 2287   0.646   1.842   1.675 -0.8483 -0.3729 -0.4394
  763SOL    HW1 2288   0.603   1.752   1.664  1.4844  2.2233 -0.6754
  763SOL    HW2 2289   0.587   1.920   1.651 -0.7357 -0.6119 -0.1171
  764SOL     OW 2290   3.074   2.429   0.119  0.0390 -0.5223  0.4311
  764SOL    HW1 2291   2.982   2.453   0.155  0.6891 -1.4874  0.4256
  764SOL    HW2 2292   0.002   2.498   0.049  1.3730 -0.6446 -0.0805
  765SOL     OW 2293   0.679   0.222   1.324  0.4391 -0.6674  0.2489
  765SOL    HW1 2294   0.763   0.197   1.374 -2.4809 -0.8762 -1.2964
  765SOL    HW2 2295   0.685   0.183   1.227 -0.4264 -0.0584 -0.5779
  766SOL     OW 2296   3.083   1.929   1.872 -0.0656  0.2545  0.1916
  766SOL    HW1 2297   0.070   1.940   1.917 -0.2968  2.5018  0.5895
  766SOL    HW2 2298   3.099   1.913   1.773 -1.3830  1.2385  3.8083
  767SOL     OW 2299   2.728   1.012   2.115  0.5272 -0.4245 -0.3909
  767SOL    HW1 2300   2.700   1.047   2.020  0.0844  3.1444 -2.3602
  767SOL    HW2 2301   2.819   0.961   2.105  0.2489  0.8862  0.7918
  768SOL     OW 2302   0.787   0.310   2.734  0.3127  0.0177 -0.3387
  768SOL    HW1 2303   0.792   0.215   2.711  0.9466  2.6822  0.7535
  768SOL    HW2 2304   0.714   0.327   2.805  0.7706 -0.4741 -0.0682
  769SOL     OW 2305   2.452   2.697   1.046 -0.1779 -0.0703  0.5146
  769SOL    HW1 2306   2.509   2.717   0.960  1.5793 -1.6242 -0.8864
  769SOL    HW2 2307   2.378   2.631   1.025  0.4863  3.3582  0.6095
  770SOL     OW 2308   3.047   2.952   2.614  0.5851 -0.5398 -0.8584
  770SOL    HW1 2309   3.037   3.053   2.607 -1.7229 -2.2537  1.1451
  770SOL    HW2 2310   0.039   2.923   2.623 -0.5656  1.3358 -2.4825
  771SOL     OW 2311   1.687   2.176   2.120 -0.1947  0.0562 -0.2313
  771SOL    HW1 2312   1.785   2.195   2.119 -1.9327 -0.1260 -0.7498
  771SOL    HW2 2313   1.666   2.076   2.131  0.4181 -3.3727 -1.7197
  772SOL     OW 2314   1.238   0.218   3.034  0.5141 -0.1105  0.1706
  772SOL    HW1 2315   1.191   0.190   2.950  2.9693  0.1176  0.9909
  772SOL    HW2 2316   1.238   0.137   3.096  0.9505 -1.0711  0.5327
  773SOL     OW 2317   2.514   0.545   1.715  0.4098  0.7627 -0.6444
  773SOL    HW1 2318   2.601   0.506   1.753 -2.1692 -0.9698 -1.4138
  773SOL    HW2 2319   2.523   0.646   1.714 -2.1908  0.6790  1.3675
  774SOL     OW 2320   1.060   1.119   1.172 -0.0844 -0.1798 -0.2722
  774SOL    HW1 2321   1.137   1.056   1.163 -0.4275 -1.0655 -0.4091
  774SOL    HW2 2322   1.010   1.148   1.088  0.5824  0.2559  1.3003
  775SOL     OW 2323   2.238   3.029   3.001  0.1675  0.3759 -0.3864
  775SOL    HW1 2324   2.207   3.035   2.904  2.3284  0.7823  2.0436
  775SOL    HW2 2325   2.290   2.943   3.012 -1.2105 -0.5071 -1.6073
  776SOL     OW 2326   2.588   1.095   1.913 -0.3942  0.5565 -0.4234
  776SOL    HW1 2327   2.521   1.141   1.976  1.0103 -2.0607 -0.5154
  776SOL    HW2 2328   2.601   1.139   1.821 -0.2371 -4.0437  0.9240
  777SOL     OW 2329   0.190   1.183   2.359 -0.1719 -0.0138 -0.9105
  777SOL    HW1 2330   0.229   1.107   2.307 -3.1346  1.8806  2.0432
  777SOL    HW2 2331   0.265   1.257   2.370  1.0949  1.1694  0.3698
  778SOL     OW 2332   0.432   0.822   3.064 -0.2645  0.4807 -0.2183
  778SOL    HW1 2333   0.471   0.887   2.997  1.4236 -2.0630 -0.1492
  778SOL    HW2 2334   0.403   0.735   3.016 -0.0976 -0.5242 -1.3018
  779SOL     OW 2335   0.618   0.328   2.389  0.4423 -0.2669 -0.0751
  779SOL    HW1 2336   0.656   0.240   2.428  0.4772 -2.1548  1.2346
  779SOL    HW2 2337   0.543   0.306   2.322  1.0284  0.2949  0.8370
  780SOL     OW 2338   2.189   1.261   2.715  0.5004 -0.3469 -0.2621
  780SOL    HW1 2339   2.252   1.294   2.784  0.4090 -1.7481 -1.0565
  780SOL    HW2 2340   2.235   1.208   2.641 -2.6828 -3.4817 -2.2575
  781SOL     OW 2341   2.999   1.077   1.911  0.2152  0.8092 -0.3826
  781SOL    HW1 2342   3.060   1.052   1.835 -0.0611 -0.0687 -0.8680
  781SOL    HW2 2343   2.991   1.008   1.990  1.5670  0.3633  2.4840
  782SOL     OW 2344   0.541   1.551   2.764  0.1714  0.1107  0.0673
  782SOL    HW1 2345   0.625   1.497   2.760 -1.5876  2.9166  0.6306
  782SOL    HW2 2346   0.541   1.608   2.846  0.3769 -0.3637  1.3203
  783SOL     OW 2347   1.200   2.255   1.193 -0.1703 -0.6818 -0.3487
  783SOL    HW1 2348   1.234   2.349   1.176 -1.1757  0.9111 -0.8453
  783SOL    HW2 2349   1.269   2.183   1.177  0.1255  1.5593  2.0115
  784SOL     OW 2350   1.561   0.370   2.765  0.1034 -0.2290  0.1755
  784SOL    HW1 2351   1.580   0.310   2.842 -1.7987 -2.7833 -0.5963
  784SOL    HW2 2352   1.649   0.389   2.709 -0.5539  2.1678 -0.8797
  785SOL     OW 2353   0.673   3.101   1.845 -0.4724 -0.1633 -0.2837
  785SOL    HW1 2354   0.738   3.032   1.889  4.7962  0.1801 -2.1330
  785SOL    HW2 2355   0.700   0.029   1.755 -1.0487 -1.2378 -4.0074
  786SOL     OW 2356   0.412   2.119   0.458 -0.1070 -0.4872  0.0744
  786SOL    HW1 2357   0.376   2.042   0.399  0.3733 -1.8503 -0.1658
  786SOL    HW2 2358   0.476   2.089   0.534  1.3839  2.0303  0.4925
  787SOL     OW 2359   1.085   0.697   0.405 -0.5181 -0.3293 -0.0889
  787SOL    HW1 2360   1.128   0.768   0.344 -1.5167 -1.8846  1.4091
  787SOL    HW2 2361   1.008   0.737   0.457 -1.4080  1.4730 -1.9813
  788SOL     OW 2362   2.632   1.583   1.249 -0.0371  0.3444 -0.0577
  788SOL    HW1 2363   2.711   1.577   1.312 -0.6632 -1.7451  1.5569
  788SOL    HW2 2364   2.587   1.668   1.274 -1.9877 -1.7320 -1.1549
  789SOL     OW 2365   2.651   1.152   2.346  0.0100  0.2500 -0.5033
  789SOL    HW1 2366   2.726   1.115   2.290  0.7749 -0.0932 -1.2895
  789SOL    HW2 2367   2.604   1.234   2.306 -0.6500  1.2209 -0.7724
  790SOL     OW 2368   0.796   0.097   3.041 -0.8445 -0.4755 -0.1165
  790SOL    HW1 2369   0.847   0.082   0.027  2.1060 -0.4733  2.6013
  790SOL    HW2 2370   0.720   0.163   3.055  0.0474  2.7236  2.0595
  791SOL     OW 2371   3.070   0.397   3.022 -0.3126 -0.0091  0.0006
  791SOL    HW1 2372   2.976   0.378   3.012  3.7953  0.2427  1.6606
  791SOL    HW2 2373   3.093   0.401   0.019 -2.2215 -1.5129  1.2948
  792SOL     OW 2374   1.427   0.688   2.560  0.4404 -0.4087 -0.0883
  792SOL    HW1 2375   1.447   0.590   2.535  1.0297  0.1177 -3.3914
  792SOL    HW2 2376   1.511   0.743   2.532  1.9930  0.2944  1.7969
  793SOL     OW 2377   3.089   0.151   0.921  0.0181  0.0218 -0.5446
  793SOL    HW1 2378   3.060   0.251   0.901 -1.5262  2.0233 -2.3020
  793SOL    HW2 2379   0.011   0.143   1.018 -1.7863 -0.4943 -1.2781
  794SOL     OW 2380   0.272   0.658   2.007  0.0225  0.3051 -0.2385
  794SOL    HW1 2381   0.314   0.723   1.944  0.5942 -2.4997  0.2885
  794SOL    HW2 2382   0.171   0.638   1.988 -2.6882  0.1858  1.6136
  795SOL     OW 2383   0.181   1.279   0.350  0.1941 -0.3990  0.1755
  795SOL    HW1 2384   0.277   1.240   0.325  0.0450 -1.7038  0.7050
  795SOL    HW2 2385   0.165   1.268   0.449 -0.5326 -0.4352 -2.5904
  796SOL     OW 2386   0.039   0.918   0.047  0.4418 -0.2674  0.4901
  796SOL    HW1 2387   0.080   0.860   0.118  1.2830  2.2129 -2.5134
  796SOL    HW2 2388   0.101   0.997   0.035 -1.7656  0.2691 -0.0640
  797SOL     OW 2389   1.603   2.589   2.678  0.6195  0.1301  0.5198
  797SOL    HW1 2390   1.567   2.682   2.699 -0.9821  1.7414  1.1279
  797SOL    HW2 2391   1.547   2.545   2.609  0.7622 -1.1901  0.6731
  798SOL     OW 2392   0.026   0.322   1.202 -0.4055 -0.6281 -0.0112
  798SOL    HW1 2393   3.087   0.414   1.185 -0.6318  1.5057  0.4104
  798SOL    HW2 2394   0.119   0.330   1.243 -1.6300 -2.9291 -3.9396
  799SOL     OW 2395   2.103   0.648   1.972 -0.5527  0.0878  0.0138
  799SOL    HW1 2396   2.171   0.656   2.048 -0.5625 -1.5238  0.0676
  799SOL    HW2 2397   2.100   0.548   1.942 -2.1224 -0.7017 -0.2303
  800SOL     OW 2398   0.077   1.789   0.455  0.6469  0.2600  0.5845
  800SOL    HW1 2399   0.152   1.830   0.401 -0.9851 -0.7432 -0.2927
  800SOL    HW2 2400   0.033   1.708   0.407 -2.6234 -3.1617 -1.9432
  801SOL     OW 2401   1.394   1.895   0.657  0.6220 -0.1988 -0.5592
  801SOL    HW1 2402   1.387   1.925   0.757 -0.7341  5.6095 -2.1502
  801SOL    HW2 2403   1.489   1.877   0.635  0.4520  1.7578  0.9254
  802SOL     OW 2404   1.508   1.229   3.043  0.3026 -0.0077  0.2937
  802SOL    HW1 2405   1.523   1.328   3.014 -1.1525  0.6956  0.3046
  802SOL    HW2 2406   1.518   1.167   2.965 -1.3321  0.5748 -0.6620
  803SOL     OW 2407   0.518   2.070   1.637  0.0156 -0.1733  0.1355
  803SOL    HW1 2408   0.551   2.157   1.604  1.8060 -1.9249  1.2504
  803SOL    HW2 2409   0.417   2.069   1.640 -0.1559  1.4919 -0.3613
  804SOL     OW 2410   1.625   2.442   1.070  0.0470 -0.6563  0.2281
  804SOL    HW1 2411   1.726   2.413   1.063  2.2848 -0.4382  1.7776
  804SOL    HW2 2412   1.609   2.524   1.011  1.2041 -0.8512 -3.2013
  805SOL     OW 2413   2.273   2.348   2.663  0.0622  0.0493 -0.7536
  805SOL    HW1 2414   2.344   2.338   2.737 -4.0246 -1.4884  0.8206
  805SOL    HW2 2415   2.183   2.302   2.690 -3.0159 -1.7697 -2.1175
  806SOL     OW 2416   2.808   2.976   0.621  0.0031 -0.1481 -0.2970
  806SOL    HW1 2417   2.814   3.038   0.543 -1.3362  0.9590  0.3412
  806SOL    HW2 2418   2.877   2.902   0.614  0.4705 -0.0765  0.4030
  807SOL     OW 2419   0.327   1.156   2.628  0.4415 -0.5417 -0.1307
  807SOL    HW1 2420   0.335   1.142   2.529  2.9810  0.5740  1.0199
  807SOL    HW2 2421   0.355   1.249   2.646  5.3426 -0.6836 -1.3068
  808SOL     OW 2422   0.755   1.662   0.534  0.6264  0.1241 -0.2745
  808SOL    HW1 2423   0.651   1.654   0.525  2.0399 -2.1945  0.6647
  808SOL    HW2 2424   0.773   1.762   0.532 -2.2128 -3.3502 -0.4319
  809SOL     OW 2425   2.615   3.100   1.952 -0.2494  0.2328 -0.5313
  809SOL    HW1 2426   2.607   3.074   1.853  1.7030 -1.9338 -0.4216
  809SOL    HW2 2427   2.529   0.042   1.987 -0.6343  1.2591  2.1323
  810SOL     OW 2428   1.440   0.740   1.231 -0.0658  0.0855 -0.1672
  810SOL    HW1 2429   1.492   0.686   1.154 -0.4781 -2.4495 -1.7823
  810SOL    HW2 2430   1.387   0.821   1.199 -3.0242  2.4324 -1.2498
  811SOL     OW 2431   1.868   0.050   2.032 -0.1775  0.3122  0.0924
  811SOL    HW1 2432   1.901   3.053   2.034  2.4771 -1.7401  0.7185
  811SOL    HW2 2433   1.772   0.061   2.063  3.9658 -2.1234  0.5062
  812SOL     OW 2434   2.098   2.060   0.736 -0.1661  0.3716 -0.4652
  812SOL    HW1 2435   2.021   2.108   0.693 -0.1846  2.1441 -1.7904
  812SOL    HW2 2436   2.064   1.961   0.759 -0.7848 -0.2686 -2.4327
  813SOL     OW 2437   1.252   0.530   1.760  0.0172  0.5668 -0.3129
  813SOL    HW1 2438   1.191   0.472   1.811  0.8915  1.0278 -2.4121
  813SOL    HW2 2439   1.249   0.623   1.803 -2.1424  3.7950  1.5918
  814SOL     OW 2440   0.223   0.073   1.091  0.0283 -0.6995  0.2836
  814SOL    HW1 2441   0.203   3.084   1.054 -1.8904  3.1955  1.8739
  814SOL    HW2 2442   0.170   0.084   1.177  0.6002  0.5162  0.9044
  815SOL     OW 2443   0.107   0.019   0.499 -0.3555 -0.5605 -0.0580
  815SOL    HW1 2444   0.121   3.025   0.470  1.3030  0.6806 -0.1873
  815SOL    HW2 2445   0.182   0.046   0.563 -2.1675  0.1171 -1.5329
  816SOL     OW 2446   2.441   1.846   2.301 -0.0952  0.2495  0.5388
  816SOL    HW1 2447   2.422   1.871   2.205  0.4306  2.3514  2.0454
  816SOL    HW2 2448   2.374   1.895   2.363  0.1889  1.5192  2.3672
  817SOL     OW 2449   0.966   3.093   0.705  0.3709 -0.0693  0.4346
  817SOL    HW1 2450   0.991   0.050   0.628  1.0674  0.8498  0.0614
  817SOL    HW2 2451   1.044   3.036   0.741 -4.5361  0.1256 -0.1759
  818SOL     OW 2452   1.849   0.388   0.021  0.0101 -0.1004 -0.4373
  818SOL    HW1 2453   1.849   0.307   3.063 -1.7510 -0.6988  0.6571
  818SOL    HW2 2454   1.837   0.362   0.120 -0.9624  2.8935 -0.2313
  819SOL     OW 2455   2.100   3.039   0.130  0.3539  0.4661  0.5414
  819SOL    HW1 2456   2.153   2.964   0.181 -0.3568 -1.1102  1.0297
  819SOL    HW2 2457   2.127   3.033   0.028  1.3030  2.8626 -2.2681
  820SOL     OW 2458   1.992   1.117   2.857  0.3868  0.0053 -0.9882
  820SOL    HW1 2459   2.060   1.054   2.896  0.5430 -2.3886 -0.5303
  820SOL    HW2 2460   2.036   1.179   2.792  0.9923  1.1480  0.6574
  821SOL     OW 2461   2.920   0.530   1.165 -0.0759  0.1312  0.0343
  821SOL    HW1 2462   2.874   0.442   1.145  0.3080  0.5865  0.9643
  821SOL    HW2 2463   2.900   0.596   1.090  2.4794 -0.1293 -0.8163
  822SOL     OW 2464   0.914   2.686   2.393 -0.0371 -0.4278 -0.7131
  822SOL    HW1 2465   0.899   2.587   2.422  0.1214 -0.8686  1.0602
  822SOL    HW2 2466   0.880   2.744   2.472  0.5590 -0.6603  0.1461
  823SOL     OW 2467   0.378   1.536   1.884  0.3916 -0.1465 -0.2859
  823SOL    HW1 2468   0.442   1.546   1.810 -3.2919  1.0728  0.4059
  823SOL    HW2 2469   0.383   1.622   1.942  1.1681  4.1141  1.2618
  824SOL     OW 2470   1.449   2.554   2.425  0.0543  0.5070  0.0777
  824SOL    HW1 2471   1.491   2.584   2.338  0.2155  0.7618 -2.6643
  824SOL    HW2 2472   1.352   2.585   2.421  1.2211  0.7291  1.8974
  825SOL     OW 2473   1.845   0.903   0.294 -0.2918 -0.8554  0.5432
  825SOL    HW1 2474   1.929   0.907   0.237 -0.0936 -0.7684  0.2120
  825SOL    HW2 2475   1.862   0.857   0.383  1.0643 -1.2746 -0.5662
  826SOL     OW 2476   2.038   0.903   0.103  0.4245  0.1924 -0.2691
  826SOL    HW1 2477   1.959   0.848   0.071  0.8735 -0.5688  0.7821
  826SOL    HW2 2478   2.090   0.926   0.025 -0.9576  0.6688  2.1163
  827SOL     OW 2479   0.760   1.769   2.780 -0.0047  0.5663  0.5675
  827SOL    HW1 2480   0.673   1.817   2.801 -0.2806  2.3817 -2.0302
  827SOL    HW2 2481   0.812   1.820   2.706  1.3013  1.0881 -5.4790
  828SOL     OW 2482   2.298   1.280   1.357  0.1224 -0.7455  0.3207
  828SOL    HW1 2483   2.259   1.310   1.448 -1.6946  0.3827  2.8480
  828SOL    HW2 2484   2.364   1.204   1.376 -0.6946  2.3877 -0.9796
  829SOL     OW 2485   0.510   1.598   0.915 -0.1857  0.2614  0.2225
  829SOL    HW1 2486   0.597   1.649   0.909 -0.2549  0.1371 -1.7446
  829SOL    HW2 2487   0.480   1.585   1.013  1.2879  1.5817  1.6468
  830SOL     OW 2488   1.300   0.963   1.151  0.2241  0.0591  0.7975
  830SOL    HW1 2489   1.333   1.027   1.080 -0.9142 -2.0776  1.6358
  830SOL    HW2 2490   1.332   1.004   1.240 -2.2636  1.9403 -0.4331
  831SOL     OW 2491   0.103   1.954   0.109 -0.0901 -0.1670 -0.0493
  831SOL    HW1 2492   0.011   1.973   0.065  0.2483  0.8968 -3.2564
  831SOL    HW2 2493   0.169   1.924   0.034  0.6318 -3.6206 -0.8831
  832SOL     OW 2494   0.708   0.504   0.076  0.1700  0.1324  0.0349
  832SOL    HW1 2495   0.633   0.506   0.143  0.3389 -1.8460 -0.5872
  832SOL    HW2 2496   0.793   0.478   0.121 -1.4223  0.9968 -0.8385
  833SOL     OW 2497   0.729   0.519   2.060  0.0905 -0.3957  0.0325
  833SOL    HW1 2498   0.783   0.584   2.003 -0.9357  1.6150 -1.0906
  833SOL    HW2 2499   0.719   0.436   2.001  0.3514  2.3178 -0.0122
  834SOL     OW 2500   0.206   0.267   0.798  0.1311 -0.0121 -0.2248
  834SOL    HW1 2501   0.138   0.193   0.830 -1.6622 -2.0515  1.2290
  834SOL    HW2 2502   0.244   0.319   0.875 -1.5658  1.2424 -1.0510
  835SOL     OW 2503   2.766   0.075   0.915 -0.3261 -0.4764  0.2646
  835SOL    HW1 2504   2.791   0.087   0.814  1.8382 -0.5604 -2.6931
  835SOL    HW2 2505   2.808   3.097   0.956  3.7641 -1.4555 -1.1052
  836SOL     OW 2506   0.434   2.124   2.996  0.0138  0.4817  0.5642
  836SOL    HW1 2507   0.486   2.186   2.931  1.2466  0.2717 -1.8036
  836SOL    HW2 2508   0.448   2.154   3.094  2.1411 -0.1470  2.1876
  837SOL     OW 2509   1.727   1.469   2.785 -0.0985 -0.1481  0.4725
  837SOL    HW1 2510   1.792   1.550   2.774  1.1133  0.9162  0.8118
  837SOL    HW2 2511   1.741   1.411   2.869 -1.0977 -1.0676  0.4042
  838SOL     OW 2512   0.026   1.046   1.655  0.0848 -0.6599 -0.6150
  838SOL    HW1 2513   3.098   1.045   1.559  1.4415 -2.2209  0.0610
  838SOL    HW2 2514   0.112   1.105   1.663 -0.3513 -0.9948  1.3498
  839SOL     OW 2515   0.790   1.075   0.783  0.3565 -0.1275 -0.2777
  839SOL    HW1 2516   0.853   1.131   0.726 -3.0912 -1.2276 -3.0210
  839SOL    HW2 2517   0.820   0.979   0.786 -1.3434  1.8936 -1.9171
  840SOL     OW 2518   1.483   2.740   1.677  0.3008  0.4049  0.3580
  840SOL    HW1 2519   1.478   2.650   1.625  1.3688 -1.8057  0.2910
  840SOL    HW2 2520   1.438   2.811   1.617 -0.7787 -3.1018  1.1673
  841SOL     OW 2521   0.554   2.533   0.423  0.1586  0.5585  0.2287
  841SOL    HW1 2522   0.571   2.533   0.320 -1.5836  1.0422 -0.2397
  841SOL    HW2 2523   0.480   2.466   0.447  0.3783 -0.6527 -0.0933
  842SOL     OW 2524   0.452   0.620   0.768 -0.1634 -0.0472  0.0761
  842SOL    HW1 2525   0.372   0.638   0.828  2.4319  0.5529  2.3483
  842SOL    HW2 2526   0.539   0.616   0.820 -2.4889 -0.6437 -0.2993
  843SOL     OW 2527   0.935   1.622   2.274  0.8815 -0.6052  0.3781
  843SOL    HW1 2528   0.914   1.591   2.372 -1.4243  0.6989 -0.8118
  843SOL    HW2 2529   1.012   1.565   2.239 -0.0568 -0.5314  0.5803
  844SOL     OW 2530   1.181   2.271   3.064  0.2540  0.3807 -0.4917
  844SOL    HW1 2531   1.254   2.206   3.075 -0.4697 -1.0210 -1.7751
  844SOL    HW2 2532   1.205   2.349   3.009  2.2288 -3.0525  2.9255
  845SOL     OW 2533   2.296   2.531   2.463 -0.1872 -0.2783 -0.1351
  845SOL    HW1 2534   2.384   2.524   2.407  0.5592 -0.2659 -1.0232
  845SOL    HW2 2535   2.284   2.456   2.531  4.1496  0.6592  0.0098
  846SOL     OW 2536   1.803   2.078   0.004  0.0948 -0.3969  0.5788
  846SOL    HW1 2537   1.702   2.107   0.016 -3.4904 -3.6997  1.8313
  846SOL    HW2 2538   1.810   2.044   3.012 -1.2642  1.6362 -3.3336
  847SOL     OW 2539   1.769   2.779   2.850 -0.4512 -0.0388 -0.2538
  847SOL    HW1 2540   1.844   2.804   2.784  4.9832 -1.6357  1.9556
  847SOL    HW2 2541   1.815   2.768   2.939  1.6658 -1.1498 -0.8514
  848SOL     OW 2542   0.289   0.445   0.601  0.1577 -0.3459 -0.0809
  848SOL    HW1 2543   0.351   0.508   0.657  0.4839 -0.9509  1.4376
  848SOL    HW2 2544   0.269   0.359   0.651 -2.1668  0.9255 -0.9303
  849SOL     OW 2545   1.307   2.929   1.569 -0.2905  0.1220  0.4468
  849SOL    HW1 2546   1.254   2.975   1.643 -0.8279 -0.7482  0.8204
  849SOL    HW2 2547   1.344   2.996   1.506  0.0372 -3.7431  1.1181
  850SOL     OW 2548   0.422   1.729   0.225 -0.2495 -0.8357  0.4741
  850SOL    HW1 2549   0.338   1.673   0.228  2.9052  1.5503 -2.0048
  850SOL    HW2 2550   0.470   1.721   0.139  0.1350 -0.4763  0.8513
  851SOL     OW 2551   0.028   1.233   0.865 -0.3501  0.0658  0.0571
  851SOL    HW1 2552   3.066   1.156   0.861  2.1226 -0.0027  1.5327
  851SOL    HW2 2553   0.050   1.264   0.770 -3.4161 -1.3404  0.5445
  852SOL     OW 2554   1.955   2.260   1.627 -0.0894 -0.1264  0.0057
  852SOL    HW1 2555   1.906   2.192   1.687  0.7033  0.4412  1.2283
  852SOL    HW2 2556   2.062   2.257   1.638  1.4086  1.5223 -0.3921
  853SOL     OW 2557   0.197   1.564   0.250  0.3691  0.7659 -0.1067
  853SOL    HW1 2558   0.106   1.545   0.293  0.3149 -1.0596  2.3917
  853SOL    HW2 2559   0.252   1.479   0.267  2.6586 -0.5898 -0.3126
  854SOL     OW 2560   1.664   1.215   1.854 -0.0732  0.1533  0.1823
  854SOL    HW1 2561   1.691   1.134   1.909 -1.0832  0.3714 -1.2217
  854SOL    HW2 2562   1.582   1.258   1.895  1.2445  0.6811  1.1206
  855SOL     OW 2563   0.544   2.583   2.911 -0.0393  0.0100  0.1046
  855SOL    HW1 2564   0.461   2.555   2.965  0.3649  0.0199 -0.7687
  855SOL    HW2 2565   0.625   2.589   2.968 -2.8909 -0.2592  0.7583
  856SOL     OW 2566   2.907   0.653   1.804 -0.3051 -0.4619  0.0410
  856SOL    HW1 2567   3.000   0.695   1.781  3.5390 -0.3453 -0.8218
  856SOL    HW2 2568   2.847   0.680   1.729  1.9889  0.9635  0.9847
  857SOL     OW 2569   0.520   1.158   2.082  0.1652 -0.3508  0.0941
  857SOL    HW1 2570   0.441   1.197   2.033  1.1098  0.0835 -1.9711
  857SOL    HW2 2571   0.580   1.233   2.119 -0.8267  0.2385  2.1679
  858SOL     OW 2572   0.366   1.385   2.376 -0.1635  0.3304 -0.6261
  858SOL    HW1 2573   0.382   1.402   2.479  0.2227  0.1387 -1.0060
  858SOL    HW2 2574   0.368   1.463   2.319 -2.3711 -3.1481  1.7562
  859SOL     OW 2575   2.568   0.189   0.421  0.3406 -1.0606  0.2248
  859SOL    HW1 2576   2.628   0.245   0.484  1.9240  1.1649  1.2647
  859SOL    HW2 2577   2.614   0.108   0.380  0.4539  2.9480 -2.1311
  860SOL     OW 2578   1.885   2.782   3.084  0.6056  0.2242 -0.1727
  860SOL    HW1 2579   1.856   2.851   0.053 -0.3288  1.6920  1.5922
  860SOL    HW2 2580   1.948   2.715   0.019 -1.6120 -0.2683 -1.6785
  861SOL     OW 2581   0.252   0.454   0.310  0.0803 -0.2419  0.0827
  861SOL    HW1 2582   0.165   0.423   0.267  2.5540  1.5164  2.2316
  861SOL    HW2 2583   0.246   0.457   0.413  0.5068 -2.5161 -0.9409
  862SOL     OW 2584   1.377   0.243   1.959 -0.3821  0.5383 -0.5596
  862SOL    HW1 2585   1.431   0.304   1.904 -2.4936 -0.0042  0.9570
  862SOL    HW2 2586   1.280   0.227   1.922  1.0281 -1.4882 -3.1714
  863SOL     OW 2587   2.736   2.199   1.234  0.0211 -0.1201 -0.0343
  863SOL    HW1 2588   2.637   2.210   1.254 -0.8156  1.2853  0.9216
  863SOL    HW2 2589   2.782   2.278   1.280  0.3547  0.2824 -1.5883
  864SOL     OW 2590   2.236   2.769   2.260  0.3016  0.2779  0.4197
  864SOL    HW1 2591   2.201   2.744   2.168  0.9291 -0.9108  1.1562
  864SOL    HW2 2592   2.296   2.693   2.293 -0.6352 -0.1958 -1.4508
  865SOL     OW 2593   1.134   0.409   1.514 -0.0159  0.3110 -0.1938
  865SOL    HW1 2594   1.219   0.356   1.500  1.0823  2.9844 -1.0048
  865SOL    HW2 2595   1.158   0.475   1.586  0.6011 -1.0761  1.4760
  866SOL     OW 2596   2.125   2.970   0.977  0.0927 -0.3254  0.4897
  866SOL    HW1 2597   2.170   3.007   0.889 -0.1092  1.5480 -1.7554
  866SOL    HW2 2598   2.135   3.032   1.053 -1.4213 -2.6731 -2.0060
  867SOL     OW 2599   2.803   2.600   0.511 -0.1810  0.1169 -0.1202
  867SOL    HW1 2600   2.861   2.528   0.558 -0.9518 -2.0335 -0.2610
  867SOL    HW2 2601   2.706   2.585   0.533  0.3166 -1.2893 -1.5324
  868SOL     OW 2602   1.282   2.085   1.803 -0.2053  0.1872 -0.3099
  868SOL    HW1 2603   1.341   2.119   1.724 -0.5660  2.0155 -1.5283
  868SOL    HW2 2604   1.308   2.130   1.892  0.5824  0.8116 -1.6399
  869SOL     OW 2605   2.070   2.368   0.337  0.0335  0.0168 -0.2926
  869SOL    HW1 2606   2.162   2.320   0.330  2.0950  0.7062 -1.5892
  869SOL    HW2 2607   2.085   2.452   0.390 -1.8873  0.2692  3.1364
  870SOL     OW 2608   2.361   2.094   1.004  0.1709  0.7372 -0.6033
  870SOL    HW1 2609   2.319   2.168   0.952  0.7270  0.6771  1.8254
  870SOL    HW2 2610   2.454   2.075   0.972  1.1277  0.9772  2.9741
  871SOL     OW 2611   0.237   1.502   1.534  0.1673  0.0089 -0.0415
  871SOL    HW1 2612   0.258   1.595   1.494 -1.5078 -0.6642  0.6537
  871SOL    HW2 2613   0.304   1.436   1.492 -1.7206  3.4339  1.3784
  872SOL     OW 2614   0.799   1.501   2.494 -0.4835  0.2997  0.0001
  872SOL    HW1 2615   0.836   1.471   2.583 -0.4974  1.2418 -0.1585
  872SOL    HW2 2616   0.778   1.416   2.442  0.7695 -3.1017  0.9813
  873SOL     OW 2617   0.987   2.549   1.337  0.1132 -0.6668  0.1639
  873SOL    HW1 2618   0.949   2.589   1.421 -0.3518 -0.8469  1.1156
  873SOL    HW2 2619   1.026   2.625   1.280  0.8603 -1.2653  1.6766
  874SOL     OW 2620   1.448   0.893   1.864  0.0523  0.7116  0.0386
  874SOL    HW1 2621   1.445   0.962   1.943  1.6919  0.2851  1.3986
  874SOL    HW2 2622   1.542   0.862   1.834  1.7263 -1.2011 -4.5395
  875SOL     OW 2623   2.784   2.802   1.188 -0.0604 -0.8034 -0.4890
  875SOL    HW1 2624   2.737   2.853   1.264  1.8754 -2.5629  0.0389
  875SOL    HW2 2625   2.835   2.864   1.127 -0.7664  2.0433 -0.1671
  876SOL     OW 2626   0.988   1.234   0.631  0.3725  0.1911  0.1119
  876SOL    HW1 2627   1.035   1.225   0.542  1.4384 -2.8395  1.1505
  876SOL    HW2 2628   0.898   1.283   0.609 -0.6035  1.0922 -2.6878
  877SOL     OW 2629   2.800   0.294   1.101 -0.2262 -0.5429  0.2725
  877SOL    HW1 2630   2.739   0.291   1.181  0.8354  0.0363 -0.2092
  877SOL    HW2 2631   2.803   0.209   1.048  0.0130  2.6227 -1.2342
  878SOL     OW 2632   2.268   1.625   0.185  0.3469  0.4262 -0.3940
  878SOL    HW1 2633   2.356   1.668   0.211  1.8288  3.0418  0.5691
  878SOL    HW2 2634   2.217   1.581   0.263  1.2782 -1.0308 -0.2853
  879SOL     OW 2635   2.809   1.990   1.407 -0.5227  0.2923 -0.1169
  879SOL    HW1 2636   2.905   1.953   1.395  1.2256 -3.1973  1.9681
  879SOL    HW2 2637   2.783   2.059   1.340  1.2222 -0.7896  0.9131
  880SOL     OW 2638   0.237   2.318   0.830 -0.1457  0.0773  0.3925
  880SOL    HW1 2639   0.275   2.281   0.920 -0.4668 -2.8223 -0.1324
  880SOL    HW2 2640   0.288   2.405   0.810 -2.6487 -1.4290  1.2613
  881SOL     OW 2641   1.401   1.123   0.954  0.2846 -0.1944 -0.1259
  881SOL    HW1 2642   1.471   1.191   0.988  0.5303  2.0379  0.5227
  881SOL    HW2 2643   1.337   1.174   0.893 -0.0664 -0.1231  2.3225
  882SOL     OW 2644   2.728   1.110   2.596  0.1228  0.2829  0.2311
  882SOL    HW1 2645   2.687   1.140   2.509 -2.0404 -2.1821 -0.2070
  882SOL    HW2 2646   2.685   1.026   2.630  2.4140 -0.2023 -1.4493
  883SOL     OW 2647   1.146   0.043   1.137  0.3410 -0.1129 -0.1082
  883SOL    HW1 2648   1.182   3.094   1.058 -1.9323  3.8035 -0.7785
  883SOL    HW2 2649   1.188   0.139   1.137  0.1546  1.2224 -0.0125
  884SOL     OW 2650   2.915   2.997   1.044 -0.4976  0.0397 -0.2069
  884SOL    HW1 2651   2.977   3.059   1.102 -0.4311 -1.1395  1.2492
  884SOL    HW2 2652   2.970   2.989   0.959  3.3639 -1.1808  0.1464
  885SOL     OW 2653   1.765   0.998   1.198  0.0555 -0.1479  0.6467
  885SOL    HW1 2654   1.715   1.051   1.266  1.1871 -2.8860 -1.8519
  885SOL    HW2 2655   1.723   0.983   1.106  2.5826 -2.2443  0.2258
  886SOL     OW 2656   1.317   0.949   2.865  0.1875 -0.0788  0.1428
  886SOL    HW1 2657   1.405   0.995   2.852  0.0561  1.1297  1.7245
  886SOL    HW2 2658   1.339   0.868   2.920  2.3244 -1.4281  0.2438
  887SOL     OW 2659   1.497   0.492   1.381 -0.2430  0.3613  0.1221
  887SOL    HW1 2660   1.591   0.520   1.410 -0.1902 -3.4684 -1.3527
  887SOL    HW2 2661   1.435   0.569   1.359 -0.0376 -1.2062 -1.4982
  888SOL     OW 2662   2.053   1.190   1.979 -0.6555 -0.0177 -0.4886
  888SOL    HW1 2663   2.110   1.249   2.042 -0.3697  2.1281 -1.2553
  888SOL    HW2 2664   2.098   1.100   1.974 -1.6651  2.2087  0.9116
  889SOL     OW 2665   2.250   1.853   0.926 -0.1039 -0.5900  0.0567
  889SOL    HW1 2666   2.313   1.799   0.986 -1.7068 -1.6348  1.2885
  889SOL    HW2 2667   2.276   1.950   0.928  4.4641 -0.4380  1.6510
  890SOL     OW 2668   1.362   1.962   0.927  0.7960  0.6243 -0.2175
  890SOL    HW1 2669   1.391   2.055   0.943 -0.7890  0.4457  0.3270
  890SOL    HW2 2670   1.312   1.923   1.010  0.6970  0.0065  2.0822
  891SOL     OW 2671   2.625   0.512   2.476 -0.4297  0.4383  0.3188
  891SOL    HW1 2672   2.714   0.539   2.434  0.1469 -2.1142  0.4286
  891SOL    HW2 2673   2.579   0.444   2.421  1.0964 -0.0372  1.2334
  892SOL     OW 2674   1.009   0.314   2.255  0.4973  0.0092 -0.1866
  892SOL    HW1 2675   1.106   0.335   2.275  0.4558 -1.2569  1.5381
  892SOL    HW2 2676   0.944   0.386   2.298 -0.2770 -0.1204 -2.3599
  893SOL     OW 2677   1.363   0.272   1.456  0.1145  0.4975  0.3196
  893SOL    HW1 2678   1.411   0.225   1.533  0.9621  0.6037 -3.6533
  893SOL    HW2 2679   1.415   0.357   1.424  1.0081  1.8135 -1.6894
  894SOL     OW 2680   2.599   0.582   0.727  0.2377 -0.9087 -0.0013
  894SOL    HW1 2681   2.539   0.546   0.798  0.9591  0.8647 -1.1347
  894SOL    HW2 2682   2.672   0.641   0.766  0.9197 -2.6661  1.9561
  895SOL     OW 2683   1.865   2.522   2.717 -0.4380 -0.0535 -0.3986
  895SOL    HW1 2684   1.903   2.601   2.766 -0.2413  1.3810 -3.8375
  895SOL    HW2 2685   1.765   2.540   2.695  0.4630  1.4519  0.3113
  896SOL     OW 2686   1.915   2.754   1.645 -0.2555 -0.1889  0.1663
  896SOL    HW1 2687   1.847   2.760   1.722 -3.6641 -1.5026 -1.0981
  896SOL    HW2 2688   1.874   2.775   1.552  0.4487  1.1771 -2.3426
  897SOL     OW 2689   0.692   1.849   1.960  0.0443 -0.6416  0.1268
  897SOL    HW1 2690   0.600   1.828   1.993  0.3482  1.9021 -1.6805
  897SOL    HW2 2691   0.694   1.850   1.853  2.6212  2.7697 -2.3276
  898SOL     OW 2692   2.156   1.775   2.048 -0.3974  0.5519  0.1548
  898SOL    HW1 2693   2.161   1.722   2.135 -0.2699  0.9301  1.4456
  898SOL    HW2 2694   2.239   1.751   1.989  3.2866 -1.4206  2.1097
  899SOL     OW 2695   2.065   2.391   0.814  0.1594 -0.3386  0.6784
  899SOL    HW1 2696   2.004   2.376   0.733 -1.4321  1.2419 -0.4777
  899SOL    HW2 2697   2.156   2.348   0.799 -2.5316  0.7146  0.2513
  900SOL     OW 2698   1.025   0.056   2.871  0.8695  0.8628  0.9349
  900SOL    HW1 2699   1.075   3.072   2.896 -1.1531 -0.9645  2.1320
  900SOL    HW2 2700   0.943   0.062   2.934 -0.7313 -2.6366 -0.6920
  901SOL     OW 2701   1.084   1.909   2.193 -0.5497 -0.1231 -0.2934
  901SOL    HW1 2702   1.000   1.944   2.160  0.5731 -1.7479  0.8662
  901SOL    HW2 2703   1.079   1.809   2.198 -0.3352  1.4304 -2.2861
  902SOL     OW 2704   2.276   0.641   2.965 -0.5349 -0.0794 -0.3371
  902SOL    HW1 2705   2.369   0.602   2.966  0.5601 -2.4250  0.3105
  902SOL    HW2 2706   2.201   0.579   3.001 -0.7497  1.0778 -0.3114
  903SOL     OW 2707   1.941   0.853   2.093 -0.0401 -0.5412 -0.1928
  903SOL    HW1 2708   2.002   0.786   2.050 -0.6644  1.2500 -1.2444
  903SOL    HW2 2709   1.994   0.894   2.172 -1.0665 -2.4203  1.1373
  904SOL     OW 2710   1.745   0.864   1.810 -0.2918  0.1384 -0.3991
  904SOL    HW1 2711   1.732   0.914   1.715  0.6959 -0.1443 -3.7064
  904SOL    HW2 2712   1.781   0.921   1.890  1.3297  1.3805  0.2223
  905SOL     OW 2713   2.269   0.014   1.478 -0.0150 -0.0847 -0.2832
  905SOL    HW1 2714   2.205   3.036   1.480 -1.6712  2.2982 -0.5438
  905SOL    HW2 2715   2.216   0.094   1.515  0.0224 -0.4883  0.8747
  906SOL     OW 2716   2.183   1.806   0.489 -0.1584 -0.2260 -0.3531
  906SOL    HW1 2717   2.134   1.833   0.578 -0.7915  1.5811  0.2177
  906SOL    HW2 2718   2.173   1.709   0.463 -0.6393  0.7786 -0.2426
  907SOL     OW 2719   1.114   2.796   0.893  0.9959  0.2216 -0.0495
  907SOL    HW1 2720   1.199   2.744   0.866 -2.0075  1.9649  1.8079
  907SOL    HW2 2721   1.027   2.741   0.884  0.9927 -2.2767  0.7617
  908SOL     OW 2722   1.578   2.280   2.696 -0.1682  0.0663 -0.5782
  908SOL    HW1 2723   1.475   2.300   2.688 -1.0175 -0.4367  0.4655
  908SOL    HW2 2724   1.623   2.269   2.608  1.4341  2.9710 -1.6088
  909SOL     OW 2725   2.252   0.430   2.189 -0.0182 -0.2773 -0.2812
  909SOL    HW1 2726   2.277   0.531   2.194  4.4492  1.2158  0.9076
  909SOL    HW2 2727   2.203   0.391   2.111 -1.1927 -4.1188  3.7789
  910SOL     OW 2728   1.138   0.719   2.471  0.7627  0.4228 -0.0033
  910SOL    HW1 2729   1.060   0.666   2.513 -0.9739 -0.4280 -1.1552
  910SOL    HW2 2730   1.222   0.715   2.517 -1.9427  1.7598  0.1578
  911SOL     OW 2731   0.031   0.836   2.857  0.1985  0.0687 -0.3482
  911SOL    HW1 2732   0.002   0.848   2.955  0.2790 -1.6322  0.8450
  911SOL    HW2 2733   3.081   0.896   2.798  0.2322 -0.2718 -3.3429
  912SOL     OW 2734   0.120   2.443   0.596  0.2343  0.0756  0.2388
  912SOL    HW1 2735   0.172   2.416   0.511  1.1041  0.3517  0.5579
  912SOL    HW2 2736   0.170   2.406   0.676 -2.8292  1.2335 -0.9420
  913SOL     OW 2737   2.661   1.965   2.427 -0.4237  0.5651 -0.0811
  913SOL    HW1 2738   2.582   1.937   2.366  2.3250 -0.4813  0.3566
  913SOL    HW2 2739   2.708   2.051   2.392  0.5780  0.6899  0.0056
  914SOL     OW 2740   1.817   1.192   0.832  0.6656  0.5013  0.4147
  914SOL    HW1 2741   1.788   1.140   0.750 -0.3969 -0.6374 -1.1321
  914SOL    HW2 2742   1.780   1.283   0.826  0.3236  0.7447 -0.9119
  915SOL     OW 2743   0.257   2.726   2.214 -0.2462  0.9171 -0.0916
  915SOL    HW1 2744   0.336   2.761   2.156  0.3856  0.5754 -0.3517
  915SOL    HW2 2745   0.293   2.681   2.297 -0.9366 -0.8253 -0.0480
  916SOL     OW 2746   0.874   3.017   1.268  0.1330 -0.3386 -0.2883
  916SOL    HW1 2747   0.818   3.069   1.200 -1.1124  0.2296 -0.7840
  916SOL    HW2 2748   0.919   3.085   1.334 -1.1704 -0.7679  2.8071
  917SOL     OW 2749   2.393   0.767   0.107 -0.1844 -0.1591  0.5653
  917SOL    HW1 2750   2.481   0.817   0.081  1.9983  1.3273 -1.8795
  917SOL    HW2 2751   2.340   0.735   0.024  0.2322 -1.8623 -1.4359
  918SOL     OW 2752   1.643   2.428   2.938 -0.0575  0.2186 -0.2251
  918SOL    HW1 2753   1.650   2.511   2.880  0.7282 -0.4970 -1.1522
  918SOL    HW2 2754   1.632   2.350   2.874  0.5031 -0.1370 -0.4379
  919SOL     OW 2755   1.814   2.794   1.394  0.1422  0.1364 -0.2847
  919SOL    HW1 2756   1.726   2.842   1.375  1.0070  0.6676  0.4055
  919SOL    HW2 2757   1.819   2.711   1.337  1.0210  0.2669 -0.2387
  920SOL     OW 2758   1.329   0.447   2.407 -0.5760 -0.6069 -0.1991
  920SOL    HW1 2759   1.265   0.450   2.487 -0.4136 -0.9906 -1.2568
  920SOL    HW2 2760   1.315   0.366   2.352 -0.4504  1.5462  1.0736
  921SOL     OW 2761   0.245   0.921   2.722  0.2122 -0.7665 -0.4099
  921SOL    HW1 2762   0.265   1.019   2.718 -0.1879 -2.3390  1.1615
  921SOL    HW2 2763   0.158   0.900   2.767  0.7123  1.0642 -1.6452
  922SOL     OW 2764   0.009   1.925   1.098  0.7046 -0.2196 -0.8670
  922SOL    HW1 2765   3.010   1.937   1.100  0.0614 -0.1829  0.5610
  922SOL    HW2 2766   0.044   1.942   1.003  0.6533 -0.4503 -2.3671
  923SOL     OW 2767   0.411   1.766   2.014  0.2032 -0.0164  0.0951
  923SOL    HW1 2768   0.397   1.760   2.117  1.3930 -0.7494  0.0465
  923SOL    HW2 2769   0.357   1.843   1.975  1.1456  2.7390  1.9674
  924SOL     OW 2770   1.355   2.867   2.513 -0.3439  0.5487 -0.1281
  924SOL    HW1 2771   1.316   2.790   2.452 -0.5937 -0.1876 -1.2955
  924SOL    HW2 2772   1.454   2.851   2.536  0.0424  1.1897  1.2977
  925SOL     OW 2773   2.676   1.581   0.755  0.2638  0.3351  0.3521
  925SOL    HW1 2774   2.699   1.509   0.685  0.5033  2.9325  1.2268
  925SOL    HW2 2775   2.748   1.585   0.828  0.0594  0.9495 -2.0204
  926SOL     OW 2776   2.281   0.754   0.944  0.1269  0.0446  0.2454
  926SOL    HW1 2777   2.291   0.664   0.904  0.5886  2.5298  0.2482
  926SOL    HW2 2778   2.367   0.812   0.936  3.7154  0.7046  1.1193
  927SOL     OW 2779   1.898   0.243   1.322  0.1951 -0.2367 -0.4844
  927SOL    HW1 2780   1.990   0.263   1.369 -0.6962 -1.8564  2.3131
  927SOL    HW2 2781   1.829   0.201   1.385  5.8439  0.4268 -0.3809
  928SOL     OW 2782   0.127   0.753   2.276  0.0264 -0.2172 -0.2947
  928SOL    HW1 2783   0.213   0.734   2.330  0.1759 -0.1329 -2.3641
  928SOL    HW2 2784   0.132   0.713   2.180 -1.4793 -0.7750 -1.4631
  929SOL     OW 2785   2.298   0.829   1.199  0.0487  0.0756  0.0020
  929SOL    HW1 2786   2.274   0.780   1.112 -1.8629 -1.1481  0.7210
  929SOL    HW2 2787   2.376   0.894   1.185  1.8308  0.7544 -1.4325
  930SOL     OW 2788   2.405   2.397   1.675 -0.2979  0.6053  0.4608
  930SOL    HW1 2789   2.348   2.358   1.752 -4.2417  2.7206  1.2645
  930SOL    HW2 2790   2.427   2.499   1.680  1.2286 -1.2780 -0.8036
  931SOL     OW 2791   2.035   0.948   1.318 -0.0851 -0.5315 -0.4167
  931SOL    HW1 2792   2.126   0.942   1.274  3.5869 -1.3445  0.1385
  931SOL    HW2 2793   1.970   1.009   1.271 -0.2930 -1.2986  0.8898
  932SOL     OW 2794   0.335   0.802   1.812  0.0780  0.2996 -0.2419
  932SOL    HW1 2795   0.339   0.830   1.714 -2.6129 -2.3188 -2.2826
  932SOL    HW2 2796   0.313   0.884   1.871  2.6922 -1.5741  0.6774
  933SOL     OW 2797   2.232   1.805   1.719 -0.1095  0.3715 -0.1977
  933SOL    HW1 2798   2.280   1.890   1.687 -0.0413  1.6479 -1.0195
  933SOL    HW2 2799   2.292   1.758   1.782  1.1467  1.9591 -2.7618
  934SOL     OW 2800   0.940   2.330   1.689  0.1654 -0.3002  0.6770
  934SOL    HW1 2801   1.029   2.360   1.651 -0.2841 -0.5332 -1.8394
  934SOL    HW2 2802   0.891   2.292   1.605 -1.4702 -2.7457  0.7738
  935SOL     OW 2803   0.064   1.529   1.970 -0.3070 -0.6485  0.5186
  935SOL    HW1 2804   0.018   1.461   2.031  0.9975  0.3370  1.9910
  935SOL    HW2 2805   0.163   1.536   2.000  0.7221 -1.4186 -0.7735
  936SOL     OW 2806   2.716   0.804   1.149 -0.3735 -0.2434 -0.0712
  936SOL    HW1 2807   2.638   0.859   1.181  0.4633 -0.1884 -0.9798
  936SOL    HW2 2808   2.696   0.704   1.131  1.4346 -0.7834  1.0514
  937SOL     OW 2809   1.756   0.592   1.443  0.2532 -0.3735 -0.0981
  937SOL    HW1 2810   1.769   0.655   1.366 -1.4763  0.4620  0.8740
  937SOL    HW2 2811   1.850   0.563   1.466 -0.1682 -1.4208  3.5471
  938SOL     OW 2812   0.432   2.741   0.556  0.2019 -0.2822  0.4795
  938SOL    HW1 2813   0.495   2.671   0.518 -2.7149 -0.6554  0.8812
  938SOL    HW2 2814   0.485   2.823   0.584 -1.0496 -0.3192 -0.9484
  939SOL     OW 2815   2.961   1.980   2.652 -0.7131 -0.1823  0.5716
  939SOL    HW1 2816   2.892   1.907   2.672  0.3112  4.0509  0.7301
  939SOL    HW2 2817   2.944   2.065   2.701  1.9750 -2.5648 -0.1610
  940SOL     OW 2818   1.560   1.852   0.392 -0.0565  0.7675  0.2823
  940SOL    HW1 2819   1.602   1.816   0.480 -1.4478  0.6296  0.3792
  940SOL    HW2 2820   1.562   1.951   0.399  0.3627 -2.2971  0.4054
  941SOL     OW 2821   2.168   2.599   0.495  0.6337 -0.0581  0.6424
  941SOL    HW1 2822   2.141   2.699   0.481 -0.9822 -0.3392  1.4228
  941SOL    HW2 2823   2.264   2.593   0.523 -1.1335 -0.2884 -1.1582
  942SOL     OW 2824   1.825   1.857   0.881  0.0474 -0.7352  0.1784
  942SOL    HW1 2825   1.782   1.941   0.924  3.0695  0.3481 -0.2409
  942SOL    HW2 2826   1.827   1.783   0.952 -1.5947  0.7685  3.7092
  943SOL     OW 2827   2.372   0.827   1.474  0.2907  0.3093  0.4702
  943SOL    HW1 2828   2.367   0.811   1.372 -1.3549  0.2962  0.7519
  943SOL    HW2 2829   2.299   0.892   1.509 -1.5554  2.9236  2.2382
  944SOL     OW 2830   1.258   0.727   1.935  0.8007 -0.1131  0.0361
  944SOL    HW1 2831   1.270   0.693   2.031 -1.6363  1.2884  0.6748
  944SOL    HW2 2832   1.332   0.797   1.920 -0.8573  0.9077 -1.6393
  945SOL     OW 2833   2.271   2.732   1.471  0.5571 -0.6969  0.2284
  945SOL    HW1 2834   2.372   2.729   1.460  0.7361  1.3461  0.1935
  945SOL    HW2 2835   2.244   2.655   1.533  2.4367 -0.7176 -1.2529
  946SOL     OW 2836   0.512   1.283   0.527  0.1463 -0.0996  0.0311
  946SOL    HW1 2837   0.483   1.217   0.594  2.4736  1.7448 -1.4810
  946SOL    HW2 2838   0.490   1.254   0.432  0.5593  2.1813  1.0860
  947SOL     OW 2839   1.498   2.211   0.959  0.4125  0.5448  0.0106
  947SOL    HW1 2840   1.527   2.285   1.022  1.5781  1.2250 -2.1481
  947SOL    HW2 2841   1.452   2.249   0.881  0.6986  2.2895  1.7009
  948SOL     OW 2842   0.533   1.450   1.153 -0.1496  0.1797 -0.3191
  948SOL    HW1 2843   0.632   1.451   1.134 -2.9108  1.1340 -0.0724
  948SOL    HW2 2844   0.491   1.360   1.146 -0.6971  0.2413  1.5441
  949SOL     OW 2845   0.984   1.256   1.691 -0.2507  0.2246  0.1742
  949SOL    HW1 2846   1.028   1.345   1.700  1.7034 -1.4053 -0.7520
  949SOL    HW2 2847   0.984   1.227   1.595 -1.7511 -1.5582 -1.1910
  950SOL     OW 2848   0.511   0.776   1.137 -0.3608 -0.2990  0.1804
  950SOL    HW1 2849   0.587   0.820   1.191 -0.2259  2.4089  1.2828
  950SOL    HW2 2850   0.421   0.812   1.163 -0.0495  0.8671 -1.6286
  951SOL     OW 2851   0.652   2.150   1.877  0.0479  0.3310  0.8618
  951SOL    HW1 2852   0.605   2.092   1.807  1.8440 -0.0556  1.3285
  951SOL    HW2 2853   0.750   2.122   1.884 -0.5075 -0.9227  2.0453
  952SOL     OW 2854   1.106   1.682   3.063 -0.4113 -0.3387  0.0397
  952SOL    HW1 2855   1.122   1.781   3.086  0.0497 -1.8211  0.5721
  952SOL    HW2 2856   1.131   1.622   0.036 -0.2977 -1.3104 -0.5540
  953SOL     OW 2857   0.898   2.858   3.103  0.4695  0.2751  0.5653
  953SOL    HW1 2858   0.854   2.900   0.078  0.3492 -0.2370 -1.6697
  953SOL    HW2 2859   0.990   2.831   0.033  1.0909 -0.3162 -0.6903
  954SOL     OW 2860   1.643   1.295   0.178  0.2652 -0.0826 -0.3542
  954SOL    HW1 2861   1.600   1.273   0.085  0.7812  1.7107 -1.3468
  954SOL    HW2 2862   1.641   1.398   0.198  2.7071  3.7589 -0.1416
  955SOL     OW 2863   3.097   2.642   3.058  0.0680  0.3449 -0.7604
  955SOL    HW1 2864   3.058   2.728   3.095  3.4215 -0.4924 -1.6982
  955SOL    HW2 2865   0.002   2.657   2.955  1.1944 -0.0209 -3.0730
  956SOL     OW 2866   0.960   0.728   1.213  0.0878  1.0150 -0.2252
  956SOL    HW1 2867   1.011   0.761   1.131 -3.0717  0.5428  0.6443
  956SOL    HW2 2868   1.009   0.645   1.251 -1.4275 -1.7585  1.2119
  957SOL     OW 2869   1.717   1.532   1.787  0.1448 -0.2176  0.0242
  957SOL    HW1 2870   1.637   1.592   1.764 -2.3784 -2.1978 -0.7545
  957SOL    HW2 2871   1.698   1.432   1.783 -1.3395 -2.2305 -0.1824
  958SOL     OW 2872   0.662   1.783   1.251 -0.3421  0.3296 -0.1529
  958SOL    HW1 2873   0.727   1.719   1.217 -3.2289  0.6026  1.1567
  958SOL    HW2 2874   0.617   1.839   1.176  0.4646  2.8788 -1.9168
  959SOL     OW 2875   1.761   1.455   1.387  0.4917  0.4519  0.6212
  959SOL    HW1 2876   1.700   1.506   1.321  1.0143  0.7063 -1.7124
  959SOL    HW2 2877   1.816   1.524   1.441 -0.4984 -0.2792 -0.7363
  960SOL     OW 2878   0.165   1.165   0.054  0.3476 -0.4751  0.3619
  960SOL    HW1 2879   0.230   1.170   0.130 -2.6896 -1.7524  0.2357
  960SOL    HW2 2880   0.208   1.142   3.066 -0.7474  2.2464  1.5673
  961SOL     OW 2881   0.827   1.540   1.483 -0.0711  0.0103 -0.0351
  961SOL    HW1 2882   0.856   1.511   1.578 -0.1434 -0.1982  1.2834
  961SOL    HW2 2883   0.729   1.562   1.488  0.0244  0.9679  1.9427
  962SOL     OW 2884   1.193   1.247   0.804 -0.0340 -0.1410 -0.1895
  962SOL    HW1 2885   1.202   1.326   0.864  0.0521 -1.3111  1.7307
  962SOL    HW2 2886   1.107   1.241   0.754  1.3422  0.3592  1.2454
  963SOL     OW 2887   1.548   1.798   2.973  0.5069 -0.2479  0.0882
  963SOL    HW1 2888   1.637   1.823   2.930  1.5091 -0.4205  2.8308
  963SOL    HW2 2889   1.552   1.711   3.026  2.3194  3.4970  0.2696
  964SOL     OW 2890   0.381   3.004   0.223 -0.0811  0.1784 -0.4047
  964SOL    HW1 2891   0.315   2.950   0.276 -0.5503  0.8450  2.3181
  964SOL    HW2 2892   0.378   2.987   0.126 -1.1104  0.5575  0.7374
  965SOL     OW 2893   0.298   2.364   0.425  0.1714 -0.0543 -0.3459
  965SOL    HW1 2894   0.342   2.272   0.442  0.1209 -1.0455  1.4784
  965SOL    HW2 2895   0.265   2.368   0.329  0.1727 -3.6859  0.6022
  966SOL     OW 2896   0.145   1.509   2.766  0.5000  0.3880  0.1632
  966SOL    HW1 2897   0.073   1.433   2.760  0.3555 -0.9737 -1.4665
  966SOL    HW2 2898   0.151   1.555   2.858 -0.0425  1.1205 -0.3070
  967SOL     OW 2899   2.831   3.091   2.402 -0.0735 -0.0962  0.3095
  967SOL    HW1 2900   2.925   3.096   2.355  1.8477  0.1949 -0.4226
  967SOL    HW2 2901   2.790   0.076   2.420  2.2706 -2.0270  1.7590
  968SOL     OW 2902   2.041   0.249   0.327  0.2590  0.3233 -0.3481
  968SOL    HW1 2903   1.938   0.254   0.339  0.3704 -0.8140  1.9022
  968SOL    HW2 2904   2.084   0.264   0.419 -0.4722 -2.5614  0.5129
  969SOL     OW 2905   0.222   1.014   1.964 -0.8053 -0.8628 -0.3020
  969SOL    HW1 2906   0.217   1.115   1.940 -0.8285  0.7020 -1.7053
  969SOL    HW2 2907   0.254   1.001   2.062 -3.4702 -0.0962 -0.9441
  970SOL     OW 2908   2.122   1.549   1.023 -0.0188 -0.4824  0.3578
  970SOL    HW1 2909   2.160   1.502   0.941  0.8401  2.6290 -1.2787
  970SOL    HW2 2910   2.038   1.496   1.045  0.5216  2.6612 -1.9303
  971SOL     OW 2911   2.636   2.959   1.316  0.0374 -0.2154  0.1684
  971SOL    HW1 2912   2.534   2.962   1.317  3.9682 -1.5162  3.1268
  971SOL    HW2 2913   2.677   3.055   1.315  1.4871 -1.8299 -2.0677
  972SOL     OW 2914   0.800   2.919   1.511 -0.0197  0.0525 -0.3002
  972SOL    HW1 2915   0.870   2.960   1.573  0.5282 -1.3178  0.0519
  972SOL    HW2 2916   0.818   2.952   1.414 -0.7835  1.1753 -0.0602
  973SOL     OW 2917   0.495   0.240   3.001  0.6570  0.5594 -0.0576
  973SOL    HW1 2918   0.534   0.324   2.963 -0.6270 -1.1111  1.3890
  973SOL    HW2 2919   0.394   0.228   2.983  1.2080  3.9106 -2.4360
  974SOL     OW 2920   1.915   1.538   2.456  0.0750 -0.7769  0.0323
  974SOL    HW1 2921   1.869   1.543   2.364  1.2124  0.7211  1.4090
  974SOL    HW2 2922   1.951   1.633   2.480  0.0848  0.4503  1.6737
  975SOL     OW 2923   0.031   3.035   1.420 -0.3006  0.7418  0.7790
  975SOL    HW1 2924   0.131   3.047   1.434 -1.2743  2.3075 -0.8223
  975SOL    HW2 2925   3.085   3.082   1.494  0.8614  1.9092 -1.9662
  976SOL     OW 2926   0.466   1.986   2.343  0.4503  0.3162  0.0749
  976SOL    HW1 2927   0.389   1.922   2.337  1.9728 -0.1147  0.0608
  976SOL    HW2 2928   0.553   1.942   2.379  1.3118 -0.0470 -0.7582
  977SOL     OW 2929   0.793   2.504   0.625 -0.0068 -0.5711  0.5966
  977SOL    HW1 2930   0.711   2.489   0.572  2.4167  1.6907  2.5820
  977SOL    HW2 2931   0.867   2.540   0.562 -2.9855 -1.4691 -2.6051
  978SOL     OW 2932   3.060   1.357   2.456  0.2901 -0.0113 -0.1977
  978SOL    HW1 2933   0.042   1.308   2.426  1.8524 -0.4091  1.3378
  978SOL    HW2 2934   3.061   1.356   2.559 -0.5992 -1.2589 -0.7936
  979SOL     OW 2935   1.742   2.426   1.542  0.0527  0.3727 -0.7075
  979SOL    HW1 2936   1.767   2.435   1.447 -1.2822 -2.1794  1.0460
  979SOL    HW2 2937   1.812   2.364   1.582  0.4437  0.8073 -0.4926
  980SOL     OW 2938   1.125   1.241   2.771 -0.2467 -0.7062  0.0059
  980SOL    HW1 2939   1.145   1.201   2.859  1.7030 -0.2009 -1.3307
  980SOL    HW2 2940   1.087   1.336   2.784 -0.4238  2.0884  2.7113
  981SOL     OW 2941   2.357   0.099   2.002  0.1427 -0.8856 -0.4037
  981SOL    HW1 2942   2.259   0.070   1.980  2.6863  2.3082  0.7405
  981SOL    HW2 2943   2.385   0.177   1.943  1.4373  1.4764  0.9225
  982SOL     OW 2944   0.209   0.304   2.924 -0.0386 -0.5175  0.1487
  982SOL    HW1 2945   0.117   0.322   2.964  0.0031  2.0491  1.7347
  982SOL    HW2 2946   0.223   0.306   2.825 -2.1605  0.5446  1.6591
  983SOL     OW 2947   2.022   1.210   2.274  0.0647  0.7271 -0.3537
  983SOL    HW1 2948   1.980   1.233   2.365 -1.9825 -0.8340  1.2243
  983SOL    HW2 2949   1.978   1.256   2.198  4.0523 -1.4105 -1.2053
  984SOL     OW 2950   1.492   0.410   1.781  0.2389  0.0539 -0.0904
  984SOL    HW1 2951   1.404   0.457   1.768  1.8783 -0.1486 -0.9468
  984SOL    HW2 2952   1.573   0.469   1.770 -2.0866 -1.1375  0.4413
  985SOL     OW 2953   1.912   1.404   2.043 -0.3844  0.4493 -0.6076
  985SOL    HW1 2954   1.843   1.417   1.972  0.9527 -1.5189  0.0210
  985SOL    HW2 2955   1.973   1.327   2.017 -1.0291  1.8831  0.0820
  986SOL     OW 2956   2.270   0.578   1.585 -0.0741  0.3912  0.2901
  986SOL    HW1 2957   2.329   0.531   1.655 -2.5515  0.9162 -0.2361
  986SOL    HW2 2958   2.324   0.628   1.519  0.7255 -0.3106 -1.6651
  987SOL     OW 2959   2.605   0.312   1.295 -0.3305 -0.2250 -0.8330
  987SOL    HW1 2960   2.583   0.377   1.375  1.1111 -1.8436  1.8143
  987SOL    HW2 2961   2.530   0.242   1.283  1.7422  0.6288  0.4640
  988SOL     OW 2962   2.961   0.876   2.095 -0.8461 -0.3075  0.0982
  988SOL    HW1 2963   2.901   0.799   2.060 -1.2683 -1.4125  0.8285
  988SOL    HW2 2964   3.025   0.851   2.170  0.5939 -1.9504  0.9523
  989SOL     OW 2965   2.136   1.856   0.096 -0.3438  0.0831  0.0154
  989SOL    HW1 2966   2.191   1.934   0.058 -1.3904  2.0642  0.2697
  989SOL    HW2 2967   2.186   1.767   0.115 -0.1045 -1.1823  1.0015
  990SOL     OW 2968   0.951   0.453   2.918 -0.0487 -0.0764 -0.3831
  990SOL    HW1 2969   1.051   0.469   2.905 -0.2167 -0.3767 -2.2651
  990SOL    HW2 2970   0.904   0.404   2.844  0.3530  0.4363  0.3415
  991SOL     OW 2971   1.450   0.899   0.148 -0.2320 -0.1762 -0.8052
  991SOL    HW1 2972   1.527   0.964   0.177  0.1380  1.0852  1.2321
  991SOL    HW2 2973   1.465   0.863   0.055  1.0781  0.9540 -1.2738
  992SOL     OW 2974   1.918   1.265   0.250 -0.3998  0.0402  0.4285
  992SOL    HW1 2975   1.929   1.369   0.246 -0.5989  2.8812  0.7039
  992SOL    HW2 2976   1.860   1.224   0.175  0.1220  1.2216 -2.1492
  993SOL     OW 2977   3.009   0.416   0.804  0.4446 -0.3402 -0.0215
  993SOL    HW1 2978   3.062   0.467   0.734  0.0073  0.7664  0.3504
  993SOL    HW2 2979   2.991   0.486   0.877 -2.1857 -2.6707  1.6829
  994SOL     OW 2980   0.024   2.014   2.429 -0.6730 -0.6075 -0.4397
  994SOL    HW1 2981   3.071   1.996   2.511  1.1602 -0.9150 -0.2208
  994SOL    HW2 2982   0.036   2.116   2.422 -0.7073 -0.6087 -0.5568
  995SOL     OW 2983   1.799   1.360   3.015  0.0514 -0.1839 -0.3253
  995SOL    HW1 2984   1.894   1.402   3.003  0.7965  2.1912  2.8392
  995SOL    HW2 2985   1.796   1.265   3.056  0.4942 -1.0805  1.0063
  996SOL     OW 2986   2.061   1.446   2.981 -0.1224 -0.2520 -0.5696
  996SOL    HW1 2987   2.110   1.510   2.917  2.0790  1.3774  0.4100
  996SOL    HW2 2988   2.124   1.401   3.049 -0.1067 -0.9980 -0.5009
  997SOL     OW 2989   2.279   1.434   1.788 -0.0586  0.0163  0.2355
  997SOL    HW1 2990   2.360   1.410   1.730 -3.6595  1.9993 -0.8576
  997SOL    HW2 2991   2.287   1.399   1.884  0.1625 -1.2494 -1.0547
  998SOL     OW 2992   2.511   1.711   0.264  0.5119 -0.2631 -0.3730
  998SOL    HW1 2993   2.497   1.618   0.308  0.1461  2.0755  1.6660
  998SOL    HW2 2994   2.528   1.787   0.325  0.0455  0.3369 -0.7263
  999SOL     OW 2995   2.741   2.279   0.198  0.1450 -0.2137  0.2105
  999SOL    HW1 2996   2.732   2.236   0.106 -0.0769 -0.2600 -0.3922
  999SOL    HW2 2997   2.782   2.370   0.193  0.0188 -1.9266  1.2995
 1000SOL     OW 2998   1.050   0.418   1.906  0.2211  0.0905  0.1137
 1000SOL    HW1 2999   1.035   0.429   2.008  0.8737  0.1866  0.5155
 1000SOL    HW2 3000   0.978   0.469   1.860  3.1995  1.4075  2.6773
   3.10333   3.10333   3.10333
