1000 SPC/Fw water molecules t= 195.00000 step= 195000
 3000
    1SOL     OW    1   2.888   0.117   0.978 -0.3659  0.3854 -0.4974
    1SOL    HW1    2   2.790   0.118   0.944 -1.0592  1.9200  0.2463
    1SOL    HW2    3   2.939   0.189   0.923 -3.1699 -1.2989 -2.3420
    2SOL     OW    4   2.044   1.749   1.990  0.3133 -0.6466 -0.3383
    2SOL    HW1    5   2.069   1.689   2.072  1.0678 -0.3081  2.4453
    2SOL    HW2    6   1.945   1.746   1.965 -1.4757  0.2293  0.9384
    3SOL     OW    7   1.858   2.485   2.051  0.5970 -0.4672 -0.0434
    3SOL    HW1    8   1.887   2.578   2.084  1.1234 -3.7905 -0.4592
    3SOL    HW2    9   1.906   2.416   2.112  0.2334 -1.2590  0.3100
    4SOL     OW   10   1.871   2.118   2.111  0.0594 -0.0122  0.9526
    4SOL    HW1   11   1.892   2.040   2.173  1.6650 -0.0613 -1.9605
    4SOL    HW2   12   1.772   2.139   2.114  0.5639  1.8206  1.8451
    5SOL     OW   13   1.313   0.680   1.638  0.0817 -0.2201  0.3177
    5SOL    HW1   14   1.241   0.678   1.562  2.4187 -1.4092 -0.4818
    5SOL    HW2   15   1.308   0.773   1.681  0.1445 -2.2925  3.1894
    6SOL     OW   16   2.876   0.710   2.869 -0.1852 -0.0590  0.4860
    6SOL    HW1   17   2.927   0.634   2.914  1.7146  3.6241 -1.9568
    6SOL    HW2   18   2.770   0.698   2.885 -2.6616 -1.6338 -0.0976
    7SOL     OW   19   1.110   0.904   1.337 -0.3918 -0.2085  0.2277
    7SOL    HW1   20   1.184   0.948   1.391  2.1058  2.1084  0.6549
    7SOL    HW2   21   1.117   0.928   1.240 -2.3982 -0.3510  0.2176
    8SOL     OW   22   1.208   0.443   0.715 -0.4009  0.4419 -0.1877
    8SOL    HW1   23   1.250   0.405   0.804  2.3413  0.6060  0.1025
    8SOL    HW2   24   1.273   0.486   0.651 -1.7398  1.1091  1.7568
    9SOL     OW   25   1.071   0.983   2.859  0.1642  0.1390  0.0980
    9SOL    HW1   26   1.064   1.071   2.810 -0.4245 -0.5923 -0.3882
    9SOL    HW2   27   1.093   0.999   2.958  1.3206  0.8632  1.2829
   10SOL     OW   28   0.139   2.654   0.420 -0.0500  0.0094  0.2780
   10SOL    HW1   29   0.211   2.582   0.409 -0.7947 -0.9906 -0.7066
   10SOL    HW2   30   0.141   2.714   0.339 -0.6182  1.0027  0.3556
   11SOL     OW   31   0.451   1.682   3.031 -0.2343 -0.5502 -0.2131
   11SOL    HW1   32   0.476   1.608   2.958 -0.9154  0.4072 -1.4272
   11SOL    HW2   33   0.357   1.676   3.069 -0.4301  0.7400  2.5791
   12SOL     OW   34   0.540   0.184   1.479  0.2456  0.0651 -0.1621
   12SOL    HW1   35   0.599   0.108   1.512  0.8606  1.2529  2.4847
   12SOL    HW2   36   0.535   0.261   1.552 -1.8278  0.7473  4.1180
   13SOL     OW   37   0.736   2.843   0.483 -0.0717 -0.1845 -0.2999
   13SOL    HW1   38   0.815   2.855   0.419 -0.8315 -0.2527 -0.1161
   13SOL    HW2   39   0.751   2.764   0.546 -3.0294  0.4951  2.5830
   14SOL     OW   40   1.301   2.224   1.107 -0.2245  0.3436  0.8612
   14SOL    HW1   41   1.207   2.265   1.122  1.1164  1.4397  0.5416
   14SOL    HW2   42   1.303   2.123   1.103 -2.0214 -0.7197 -0.9795
   15SOL     OW   43   2.723   0.756   2.071 -0.2337 -0.2189  0.2533
   15SOL    HW1   44   2.726   0.778   1.972 -1.1526  0.8491 -2.7036
   15SOL    HW2   45   2.691   0.661   2.082  1.4411 -0.3263 -2.0142
   16SOL     OW   46   1.213   2.656   2.905  0.0241  0.0936  0.1301
   16SOL    HW1   47   1.222   2.757   2.918  0.7568  0.9050 -0.7451
   16SOL    HW2   48   1.119   2.625   2.929 -1.2350  0.4734  1.7764
   17SOL     OW   49   0.918   0.149   1.360  0.8758 -0.3511  0.7162
   17SOL    HW1   50   0.897   0.223   1.427  1.6759  0.7218  1.2061
   17SOL    HW2   51   0.975   0.198   1.289  0.3091 -0.1732  0.0151
   18SOL     OW   52   1.235   0.700   0.136 -0.2220  0.6028  0.1180
   18SOL    HW1   53   1.163   0.666   0.199  2.8585  1.5581  2.4858
   18SOL    HW2   54   1.300   0.625   0.110  0.6334  0.3459 -0.8011
   19SOL     OW   55   2.044   1.457   3.058  0.6078  0.1994 -0.0334
   19SOL    HW1   56   2.099   1.532   3.011  2.6362  1.6501 -1.5724
   19SOL    HW2   57   2.088   1.369   3.037  1.0782 -1.6400  0.6977
   20SOL     OW   58   1.881   1.565   1.722 -0.1001 -0.4646  0.4494
   20SOL    HW1   59   1.859   1.641   1.791  0.1417 -2.6164  3.2654
   20SOL    HW2   60   1.799   1.531   1.677  0.4450  1.7211  1.2974
   21SOL     OW   61   0.739   1.285   0.107 -0.2742 -0.2812 -0.1410
   21SOL    HW1   62   0.802   1.367   0.112  2.1881  0.8780  0.7140
   21SOL    HW2   63   0.722   1.243   0.018  0.3956  1.2050  1.7510
   22SOL     OW   64   2.167   0.190   1.196 -0.0543  0.2012 -0.5652
   22SOL    HW1   65   2.128   0.233   1.285 -0.1790  0.1226 -1.8471
   22SOL    HW2   66   2.102   0.199   1.118 -2.1461 -1.1309  0.9289
   23SOL     OW   67   0.284   1.093   1.522 -0.6910  0.0863 -0.5568
   23SOL    HW1   68   0.266   0.993   1.496  1.4129  1.3212 -0.6034
   23SOL    HW2   69   0.226   1.147   1.458  1.1595  0.5426 -1.2658
   24SOL     OW   70   2.538   2.476   1.237  0.4876 -0.1390 -0.0075
   24SOL    HW1   71   2.549   2.485   1.137  0.2309 -0.7392  1.5555
   24SOL    HW2   72   2.592   2.543   1.293  0.1878 -2.1310  2.0115
   25SOL     OW   73   1.986   2.606   2.520  0.4109  0.8606 -0.3930
   25SOL    HW1   74   2.050   2.554   2.456  0.5705 -3.7433 -2.2923
   25SOL    HW2   75   1.897   2.611   2.472 -1.1636  0.9540 -2.0498
   26SOL     OW   76   0.972   2.540   2.967  0.3030  0.0895 -0.6617
   26SOL    HW1   77   0.955   2.494   2.877 -0.6203 -2.3714  0.3063
   26SOL    HW2   78   0.994   2.476   3.041  1.5527  1.5131 -1.8951
   27SOL     OW   79   0.390   2.098   2.602  0.0990 -0.3037 -0.2169
   27SOL    HW1   80   0.352   1.999   2.606 -0.6049 -1.3118 -3.1953
   27SOL    HW2   81   0.311   2.158   2.596  1.9448  0.1253  1.3631
   28SOL     OW   82   0.072   1.508   1.535  0.1879  0.1166  0.3896
   28SOL    HW1   83   3.079   1.494   1.529 -2.3990  0.3259  3.8176
   28SOL    HW2   84   0.091   1.608   1.510 -0.9536  0.9909 -2.2932
   29SOL     OW   85   2.694   2.101   2.178  0.2740  0.1997  0.1042
   29SOL    HW1   86   2.719   2.012   2.228 -0.7946 -0.8615  2.0842
   29SOL    HW2   87   2.759   2.121   2.100 -1.2834 -0.5667 -3.1568
   30SOL     OW   88   1.250   2.940   0.824  0.0555 -0.3326  0.0651
   30SOL    HW1   89   1.267   2.844   0.796  1.8400  2.4011 -1.2880
   30SOL    HW2   90   1.153   2.972   0.813 -0.7549  0.1445 -2.1104
   31SOL     OW   91   2.961   2.411   1.917  0.0383 -0.1391 -0.3295
   31SOL    HW1   92   3.041   2.365   1.960  2.5943 -1.2033 -0.6811
   31SOL    HW2   93   2.967   2.385   1.815 -2.8149  0.7293 -2.2143
   32SOL     OW   94   1.365   0.947   1.752 -0.2327 -0.0829 -0.5696
   32SOL    HW1   95   1.357   0.983   1.655  0.7886  0.3221 -1.8492
   32SOL    HW2   96   1.432   1.007   1.799  1.1406 -0.9513  2.1759
   33SOL     OW   97   0.258   2.672   2.505  0.1368 -0.1819  0.0198
   33SOL    HW1   98   0.185   2.610   2.542 -1.3935  0.2760  0.9085
   33SOL    HW2   99   0.321   2.622   2.442  1.0742 -0.2386  3.3577
   34SOL     OW  100   1.981   0.018   0.764 -0.2599  0.5945  0.2508
   34SOL    HW1  101   2.013   0.080   0.838 -1.0124 -1.3263 -0.0263
   34SOL    HW2  102   1.987   3.029   0.805 -1.7807  0.1151 -3.5996
   35SOL     OW  103   2.557   0.342   0.989  0.2057  0.4573 -0.0067
   35SOL    HW1  104   2.469   0.304   0.952 -0.8767  0.5557 -4.1094
   35SOL    HW2  105   2.633   0.336   0.921  3.0945 -0.3447  0.0942
   36SOL     OW  106   2.222   2.702   2.204  0.2473 -0.6161  0.0289
   36SOL    HW1  107   2.274   2.616   2.223 -0.7797  2.0415 -2.1048
   36SOL    HW2  108   2.122   2.680   2.183 -2.7903 -1.3919 -1.1610
   37SOL     OW  109   0.949   2.566   2.219 -0.4674  0.1456 -0.5432
   37SOL    HW1  110   0.965   2.557   2.118  0.2079  0.3097  1.6093
   37SOL    HW2  111   1.026   2.526   2.275 -0.7410  3.6315  0.8542
   38SOL     OW  112   2.608   0.426   2.829  0.2600 -0.0283  0.7824
   38SOL    HW1  113   2.705   0.394   2.829 -0.6693 -1.9380  0.1730
   38SOL    HW2  114   2.580   0.502   2.884 -2.5837 -0.8278  0.0862
   39SOL     OW  115   2.268   1.697   1.833 -0.1762 -0.1813  0.3907
   39SOL    HW1  116   2.179   1.722   1.869  2.6855  0.1729 -0.5289
   39SOL    HW2  117   2.285   1.758   1.756 -0.3219 -1.0248  0.6105
   40SOL     OW  118   0.182   2.983   2.778 -0.2443 -0.4002 -0.0551
   40SOL    HW1  119   0.081   3.001   2.773 -1.4551  0.3169  2.1647
   40SOL    HW2  120   0.234   2.986   2.688  0.0077  0.5492  2.3109
   41SOL     OW  121   1.910   0.413   0.961  0.0516 -0.2252 -0.1880
   41SOL    HW1  122   1.921   0.456   1.055  2.8546 -2.1491 -0.0373
   41SOL    HW2  123   1.937   0.482   0.889 -0.4541 -0.9267  0.3799
   42SOL     OW  124   0.646   0.351   1.285 -0.1531  0.4372  0.1985
   42SOL    HW1  125   0.743   0.377   1.314 -0.1296 -2.8051 -0.9900
   42SOL    HW2  126   0.585   0.311   1.361 -1.9221  1.1590  0.1635
   43SOL     OW  127   2.604   1.100   2.169  0.1768 -0.2352  0.1484
   43SOL    HW1  128   2.579   1.063   2.076  1.6754  2.6030 -0.2052
   43SOL    HW2  129   2.674   1.040   2.205 -0.6741  1.7464 -1.6520
   44SOL     OW  130   3.035   3.002   0.361  0.4529 -0.1024 -0.2021
   44SOL    HW1  131   2.994   3.093   0.339  2.0124  0.5684  1.4272
   44SOL    HW2  132   3.083   3.003   0.446 -5.5999 -0.1556  0.0610
   45SOL     OW  133   0.001   2.635   2.015 -0.1914  0.3051  0.3706
   45SOL    HW1  134   3.038   2.566   1.997 -0.0452 -0.9698 -2.8698
   45SOL    HW2  135   3.102   2.716   1.955 -1.2007 -0.1195  1.2976
   46SOL     OW  136   2.233   2.386   1.966  0.2555 -0.3096  0.1243
   46SOL    HW1  137   2.182   2.354   1.884  1.5193  0.2397  1.0412
   46SOL    HW2  138   2.327   2.421   1.940 -0.2620 -0.0802  0.9868
   47SOL     OW  139   1.712   2.349   1.267 -0.0210  0.3602  0.3939
   47SOL    HW1  140   1.654   2.376   1.184  0.5410 -0.8964 -2.7800
   47SOL    HW2  141   1.798   2.301   1.230  2.8300  0.4253 -0.9627
   48SOL     OW  142   0.637   1.779   0.428  0.9295  0.0878  0.1716
   48SOL    HW1  143   0.688   1.863   0.401 -2.7676 -0.6100 -0.9563
   48SOL    HW2  144   0.638   1.759   0.530 -1.2600 -3.3368  2.3926
   49SOL     OW  145   2.751   0.343   2.508  0.1491  0.6513  0.0496
   49SOL    HW1  146   2.774   0.321   2.610 -1.2304 -1.0163  2.9698
   49SOL    HW2  147   2.667   0.399   2.509  1.3540  1.2797 -0.2688
   50SOL     OW  148   2.208   0.793   0.424  0.1170  0.3108 -0.0808
   50SOL    HW1  149   2.276   0.740   0.474 -0.1159 -2.2126 -0.0323
   50SOL    HW2  150   2.234   0.805   0.323 -0.1075  2.6036 -0.3166
   51SOL     OW  151   1.674   0.438   1.114  0.2642 -0.1981  0.0488
   51SOL    HW1  152   1.649   0.339   1.125  0.7627 -0.6074  0.8025
   51SOL    HW2  153   1.725   0.458   1.030 -1.5019 -0.2110  0.2718
   52SOL     OW  154   1.157   1.239   3.054 -0.1383  0.3479  0.2436
   52SOL    HW1  155   1.107   1.182   0.014  2.5024  1.9921 -1.4263
   52SOL    HW2  156   1.250   1.187   3.034  1.3704  0.5253  1.9650
   53SOL     OW  157   0.718   1.566   2.399 -0.2636 -0.2356  0.0714
   53SOL    HW1  158   0.769   1.624   2.331  2.1306  1.2398  0.3241
   53SOL    HW2  159   0.618   1.597   2.407 -0.9651 -2.3464  0.6421
   54SOL     OW  160   2.031   0.182   0.959 -0.4646 -0.2652 -0.0391
   54SOL    HW1  161   1.971   0.130   1.024 -1.0083 -2.1445  0.6067
   54SOL    HW2  162   1.988   0.272   0.942 -0.9481 -2.4105  0.6731
   55SOL     OW  163   2.492   2.951   0.663  0.4341  0.1658  0.0440
   55SOL    HW1  164   2.572   2.893   0.623  0.4414 -2.9051  0.3720
   55SOL    HW2  165   2.457   3.018   0.593 -0.6401 -0.6424 -0.4816
   56SOL     OW  166   0.655   3.062   1.594  0.4047 -0.4586 -0.3143
   56SOL    HW1  167   0.696   3.068   1.686 -2.1069  0.9037 -1.6677
   56SOL    HW2  168   0.721   3.013   1.529  1.7140 -2.1631 -1.8110
   57SOL     OW  169   1.654   1.235   0.451 -0.5431  0.3156 -0.5075
   57SOL    HW1  170   1.576   1.174   0.438 -0.1388 -0.6108 -1.4763
   57SOL    HW2  171   1.651   1.318   0.391  0.2923 -0.0294 -0.9010
   58SOL     OW  172   0.194   0.822   2.520  0.1658 -0.5878 -0.3263
   58SOL    HW1  173   0.163   0.913   2.500  1.4752 -0.0656 -0.1394
   58SOL    HW2  174   0.132   0.774   2.588 -1.4885 -0.4440  0.4825
   59SOL     OW  175   1.017   2.771   2.592 -0.0198  0.4056  0.3769
   59SOL    HW1  176   1.082   2.694   2.604  1.1070 -0.8369 -0.3837
   59SOL    HW2  177   0.928   2.727   2.614  2.4724  0.9478  2.4903
   60SOL     OW  178   2.329   2.765   0.784 -0.5789 -0.2629  0.4417
   60SOL    HW1  179   2.385   2.839   0.741  0.0196  0.6428 -0.4077
   60SOL    HW2  180   2.317   2.787   0.883 -1.1957  1.4859 -1.0176
   61SOL     OW  181   0.977   2.384   0.681  0.0894 -0.3404 -0.0429
   61SOL    HW1  182   0.908   2.410   0.613  0.7131 -0.7732 -0.2776
   61SOL    HW2  183   0.981   2.451   0.759 -3.1673 -1.2511 -1.9011
   62SOL     OW  184   2.206   2.164   2.567  0.7075 -0.7341  0.4330
   62SOL    HW1  185   2.243   2.096   2.497  0.3534  0.2725  0.7127
   62SOL    HW2  186   2.237   2.137   2.661 -0.9341 -0.9087  1.1890
   63SOL     OW  187   2.104   0.873   2.846  0.2618  0.0224 -0.2581
   63SOL    HW1  188   2.055   0.881   2.936 -0.2983  0.3192  1.8485
   63SOL    HW2  189   2.083   0.786   2.792 -0.3047  0.4623  1.6476
   64SOL     OW  190   1.120   0.600   2.971  0.2183  0.3593  0.3525
   64SOL    HW1  191   1.192   0.591   2.896  0.1976  2.8564 -0.3935
   64SOL    HW2  192   1.142   0.660   3.047 -0.9682 -0.0460  0.3481
   65SOL     OW  193   1.068   2.048   0.429  0.2818 -0.8353 -0.2148
   65SOL    HW1  194   1.092   2.102   0.511 -0.5877 -1.4477 -0.7009
   65SOL    HW2  195   1.114   2.074   0.342 -1.4580  0.5138 -0.3928
   66SOL     OW  196   0.482   1.306   1.994  0.2678  0.4018 -0.2221
   66SOL    HW1  197   0.421   1.254   2.059 -1.4328  0.7503 -1.0627
   66SOL    HW2  198   0.577   1.313   2.024 -4.2276 -0.1530 -0.4698
   67SOL     OW  199   2.283   2.872   2.417  0.5868 -0.6919  0.2600
   67SOL    HW1  200   2.201   2.906   2.466 -1.2923 -2.2345  0.0111
   67SOL    HW2  201   2.257   2.808   2.342  0.5001  1.3598  0.5908
   68SOL     OW  202   0.514   1.673   1.461  0.0752 -0.2723 -0.2839
   68SOL    HW1  203   0.480   1.578   1.489 -0.6681 -1.4127  1.4610
   68SOL    HW2  204   0.608   1.698   1.479  0.5651  4.0111 -0.4999
   69SOL     OW  205   1.069   2.375   0.059 -0.2578  0.4459 -0.1121
   69SOL    HW1  206   1.010   2.393   0.142  1.6180  0.7313  1.4909
   69SOL    HW2  207   1.166   2.394   0.087 -0.7817 -0.2795 -1.8442
   70SOL     OW  208   3.048   1.099   2.897 -0.9037  0.0454  0.0485
   70SOL    HW1  209   0.024   1.142   2.931 -1.9535  0.9619 -3.3612
   70SOL    HW2  210   3.053   1.078   2.796 -1.1925  1.1489 -1.0453
   71SOL     OW  211   2.914   1.529   2.817 -0.3518  0.3661  0.2831
   71SOL    HW1  212   2.980   1.603   2.833 -0.3395 -1.8218  0.1950
   71SOL    HW2  213   2.854   1.542   2.737  2.1857 -2.3054  3.6880
   72SOL     OW  214   2.809   2.233   0.171 -0.5223 -0.0836  0.0083
   72SOL    HW1  215   2.768   2.154   0.219 -4.6823 -3.7205 -0.6624
   72SOL    HW2  216   2.900   2.255   0.212 -0.8170  1.9215 -0.6709
   73SOL     OW  217   0.898   1.499   0.148 -0.6563  0.1536 -0.3083
   73SOL    HW1  218   0.957   1.452   0.213  0.1961  3.2037 -1.5507
   73SOL    HW2  219   0.954   1.572   0.096  1.8125  0.3511  0.8395
   74SOL     OW  220   0.141   0.984   0.030 -0.2413 -0.4626  0.1789
   74SOL    HW1  221   0.189   1.053   3.085  2.9221 -3.9459  4.0099
   74SOL    HW2  222   0.109   0.910   3.081  2.5077 -1.3347  2.1035
   75SOL     OW  223   2.115   1.442   1.776 -0.0055  0.1291 -0.1378
   75SOL    HW1  224   2.190   1.511   1.802  1.6835  1.7490 -0.6108
   75SOL    HW2  225   2.026   1.481   1.776  3.7885 -2.2672 -1.0805
   76SOL     OW  226   2.065   2.503   1.594  0.1145  0.0752 -0.3906
   76SOL    HW1  227   2.080   2.415   1.644  1.1870 -2.2634  1.4257
   76SOL    HW2  228   1.990   2.493   1.520  0.1853 -0.0447 -1.5442
   77SOL     OW  229   2.683   0.725   1.235  0.5311  0.7430  0.1310
   77SOL    HW1  230   2.700   0.716   1.336  0.7805 -0.2854 -1.4886
   77SOL    HW2  231   2.704   0.633   1.193 -1.2947  0.0644  2.5487
   78SOL     OW  232   1.765   1.060   0.090 -0.6646  0.4047  0.0128
   78SOL    HW1  233   1.827   1.129   0.039  1.7405  0.2997 -2.4764
   78SOL    HW2  234   1.798   1.034   0.181  0.0724  2.1364  0.5584
   79SOL     OW  235   0.478   1.720   1.861  0.2700 -0.3076 -0.0787
   79SOL    HW1  236   0.566   1.763   1.845 -1.5174  0.0266  1.1898
   79SOL    HW2  237   0.415   1.737   1.781  1.0630  3.3230 -0.1657
   80SOL     OW  238   1.666   1.184   1.485 -0.1994  0.5049 -0.0290
   80SOL    HW1  239   1.663   1.098   1.544  0.9637 -3.0910  0.8662
   80SOL    HW2  240   1.581   1.199   1.435  0.9534  1.7178  3.1337
   81SOL     OW  241   0.700   3.082   1.045  0.5073 -0.2285  0.0655
   81SOL    HW1  242   0.646   3.088   0.956 -0.2735 -0.4343 -2.2339
   81SOL    HW2  243   0.713   0.070   1.073 -0.7435  2.9321  1.2856
   82SOL     OW  244   1.828   2.821   1.703 -0.2779 -0.1903 -0.1752
   82SOL    HW1  245   1.837   2.812   1.601 -3.0638 -0.7039 -1.1218
   82SOL    HW2  246   1.839   2.735   1.756 -1.9184 -0.1712  1.7310
   83SOL     OW  247   0.785   2.580   1.249 -0.1359 -0.2067 -0.2042
   83SOL    HW1  248   0.699   2.628   1.217 -1.8067 -0.5256 -0.8168
   83SOL    HW2  249   0.777   2.476   1.247  0.4658 -0.6987 -0.8857
   84SOL     OW  250   0.383   1.076   2.654  0.2485  0.5138 -0.1055
   84SOL    HW1  251   0.288   1.110   2.649  1.1904  2.3158 -0.3174
   84SOL    HW2  252   0.418   1.036   2.567 -3.5204 -2.2516  2.1564
   85SOL     OW  253   0.013   2.357   1.298 -0.3211  0.2901 -0.2659
   85SOL    HW1  254   0.016   2.434   1.359 -2.4234 -0.8194 -1.1129
   85SOL    HW2  255   0.090   2.347   1.232  0.4113  0.3208 -0.6208
   86SOL     OW  256   2.741   2.352   1.465 -0.3658 -0.2882  0.4202
   86SOL    HW1  257   2.747   2.450   1.434 -0.2188  0.6121 -2.0444
   86SOL    HW2  258   2.714   2.291   1.388 -1.4115 -1.4717 -2.1067
   87SOL     OW  259   2.476   2.181   2.967  0.3706  0.5610  0.4811
   87SOL    HW1  260   2.486   2.284   2.979  0.6482  0.8892 -0.4103
   87SOL    HW2  261   2.442   2.154   3.062 -0.6223  0.3299 -0.4457
   88SOL     OW  262   0.372   1.787   1.227  0.1128  0.0595 -0.2556
   88SOL    HW1  263   0.273   1.793   1.248  0.7523  0.5351  0.7953
   88SOL    HW2  264   0.422   1.764   1.310 -0.9677 -0.0297 -1.5283
   89SOL     OW  265   1.075   0.158   1.715  0.2722 -0.1229  0.3219
   89SOL    HW1  266   1.132   0.132   1.794  2.6619 -2.0723  0.2209
   89SOL    HW2  267   1.118   0.230   1.657 -0.6629  1.8344 -0.8593
   90SOL     OW  268   2.989   1.929   1.680 -0.7297  0.3145 -0.0734
   90SOL    HW1  269   2.895   1.932   1.635 -1.5046  2.0909 -2.7719
   90SOL    HW2  270   3.042   2.014   1.674  1.5270 -3.3869  0.6086
   91SOL     OW  271   1.074   1.836   0.614 -0.0683  1.1172 -0.2683
   91SOL    HW1  272   1.082   1.883   0.526 -2.9032 -2.2900 -0.7281
   91SOL    HW2  273   1.145   1.857   0.685  2.8810 -0.7186  0.6997
   92SOL     OW  274   2.319   0.025   1.010  0.2142 -0.3823 -0.2357
   92SOL    HW1  275   2.275   0.088   1.077  1.2935 -1.7710 -2.8680
   92SOL    HW2  276   2.366   0.075   0.937 -0.4658 -2.5316  1.0966
   93SOL     OW  277   2.836   1.277   2.868 -0.2189  0.0647 -0.1948
   93SOL    HW1  278   2.912   1.210   2.884  1.1814 -1.1421  0.5195
   93SOL    HW2  279   2.883   1.364   2.836  1.7903  1.2143 -1.9837
   94SOL     OW  280   2.637   2.580   2.573 -0.0304  0.3861  0.3238
   94SOL    HW1  281   2.605   2.484   2.553  0.0198 -0.9355  0.6607
   94SOL    HW2  282   2.562   2.637   2.615  1.2364  1.6352 -0.4400
   95SOL     OW  283   1.611   0.270   1.517  0.5937 -0.0421 -0.0643
   95SOL    HW1  284   1.666   0.343   1.555 -1.6608 -0.3657 -0.3080
   95SOL    HW2  285   1.680   0.202   1.497 -2.7876  1.6367 -0.7561
   96SOL     OW  286   2.927   0.060   1.791 -0.3924 -0.0461 -0.3589
   96SOL    HW1  287   2.928   0.031   1.691  0.1683  0.3580 -0.1945
   96SOL    HW2  288   2.988   3.104   1.842  0.6578  0.4215  1.8917
   97SOL     OW  289   2.261   0.164   1.614 -0.1728 -0.8176 -0.2773
   97SOL    HW1  290   2.346   0.177   1.561 -3.1164 -1.8282  0.9547
   97SOL    HW2  291   2.245   0.243   1.674  2.0486 -0.7953  0.5457
   98SOL     OW  292   1.315   2.282   1.382  0.6436  0.3102  0.2434
   98SOL    HW1  293   1.385   2.355   1.374 -1.9948  0.4822 -2.2793
   98SOL    HW2  294   1.317   2.210   1.308  3.4246 -0.9504 -2.4054
   99SOL     OW  295   0.046   2.857   1.862  0.0519 -0.5730  0.0834
   99SOL    HW1  296   0.151   2.863   1.854 -0.0109 -1.5342 -1.4529
   99SOL    HW2  297   0.014   2.923   1.928  0.2491 -1.5195 -4.0409
  100SOL     OW  298   0.097   1.355   2.392  0.2161 -0.7830  0.0072
  100SOL    HW1  299   0.125   1.375   2.294  1.3542 -2.3101  0.5812
  100SOL    HW2  300   0.177   1.385   2.447  1.0800 -1.6584  0.0194
  101SOL     OW  301   1.957   0.712   0.511 -0.1577 -0.6451  0.1378
  101SOL    HW1  302   2.028   0.754   0.453 -1.5505  0.0821 -2.3549
  101SOL    HW2  303   1.867   0.743   0.474 -0.2841 -1.9875 -3.3975
  102SOL     OW  304   0.159   0.661   1.157  0.4770 -0.4190 -0.8700
  102SOL    HW1  305   0.141   0.590   1.085 -2.8884  0.1237 -0.6972
  102SOL    HW2  306   0.138   0.756   1.130  1.6891 -0.7046  1.5242
  103SOL     OW  307   2.538   0.834   2.551 -0.5236 -0.8819  0.5295
  103SOL    HW1  308   2.505   0.854   2.642  1.6683 -0.1531  1.7882
  103SOL    HW2  309   2.499   0.898   2.485  0.6617  1.2343  0.7632
  104SOL     OW  310   0.340   0.407   2.515 -0.0012  0.1916  0.0416
  104SOL    HW1  311   0.414   0.337   2.510 -1.2127  1.0575 -0.0037
  104SOL    HW2  312   0.318   0.411   2.616  1.1926  0.6768 -2.4796
  105SOL     OW  313   2.092   0.894   1.689 -0.0555  0.2361 -0.0400
  105SOL    HW1  314   2.086   0.860   1.589  1.4611  1.8616 -3.3263
  105SOL    HW2  315   2.087   0.998   1.693 -2.1800  3.1122  1.1917
  106SOL     OW  316   1.105   2.796   0.522 -0.2514 -0.1471  1.1003
  106SOL    HW1  317   1.049   2.861   0.580  1.2958 -0.2588  2.9788
  106SOL    HW2  318   1.140   2.720   0.574 -1.1545  2.1674 -2.3434
  107SOL     OW  319   0.343   1.789   1.645  0.1560 -0.0671  0.5038
  107SOL    HW1  320   0.248   1.779   1.601 -2.1917  1.5160 -1.1996
  107SOL    HW2  321   0.419   1.735   1.600  1.4088  1.8743 -2.0789
  108SOL     OW  322   0.337   0.057   2.379 -0.6405 -0.8966 -0.6370
  108SOL    HW1  323   0.333   3.084   2.441 -2.2459  3.1127 -0.7917
  108SOL    HW2  324   0.417   0.122   2.401  0.3859  1.8229  2.6808
  109SOL     OW  325   2.196   0.034   0.332  0.2700 -0.1221  0.1075
  109SOL    HW1  326   2.159   0.092   0.258  0.9605 -0.6101 -1.6602
  109SOL    HW2  327   2.152   0.060   0.418  1.0782 -1.5835 -0.6569
  110SOL     OW  328   0.213   2.261   2.362 -0.1468 -0.6106 -0.3878
  110SOL    HW1  329   0.250   2.314   2.284 -2.2734 -0.4666 -1.2848
  110SOL    HW2  330   0.243   2.306   2.447  0.2720  0.9331 -2.7026
  111SOL     OW  331   1.719   2.859   2.236 -0.4168 -0.1692 -0.2214
  111SOL    HW1  332   1.629   2.888   2.196 -3.0564  1.1965 -0.3501
  111SOL    HW2  333   1.779   2.941   2.252  0.0528 -0.2073  1.1806
  112SOL     OW  334   1.988   2.158   2.732  0.2545  0.2882 -0.4867
  112SOL    HW1  335   1.893   2.196   2.705 -1.3897  2.0482  2.5411
  112SOL    HW2  336   2.052   2.172   2.654 -1.3537  2.3749 -1.7224
  113SOL     OW  337   2.476   2.475   1.849 -0.3086 -0.2628  0.0050
  113SOL    HW1  338   2.563   2.508   1.893  1.5590  0.6291 -0.9016
  113SOL    HW2  339   2.501   2.403   1.782  2.9064  2.0452 -0.1103
  114SOL     OW  340   2.531   0.840   0.960 -0.0467 -0.1301  0.1194
  114SOL    HW1  341   2.608   0.791   0.913  1.5360  2.9294  3.5490
  114SOL    HW2  342   2.537   0.940   0.951 -1.0590 -0.4636  0.8726
  115SOL     OW  343   0.043   1.702   2.808 -0.4312  0.3552 -1.2038
  115SOL    HW1  344   0.091   1.652   2.886 -0.0091 -0.9355  2.3175
  115SOL    HW2  345   0.069   1.801   2.815 -2.3743 -0.3057  1.6914
  116SOL     OW  346   0.228   1.391   2.133  0.4540  0.6412  0.0094
  116SOL    HW1  347   0.225   1.473   2.069  1.0137  4.3132 -2.2085
  116SOL    HW2  348   0.194   1.305   2.084  1.0946 -1.2303 -0.0570
  117SOL     OW  349   2.761   0.378   0.801 -0.3572 -0.4533 -0.3696
  117SOL    HW1  350   2.834   0.312   0.775  0.5842  0.3780  0.2985
  117SOL    HW2  351   2.686   0.373   0.733 -0.0109  0.3358  0.3651
  118SOL     OW  352   1.029   2.080   1.914  0.0610 -0.1630 -0.6283
  118SOL    HW1  353   0.943   2.096   1.862 -3.8964 -0.7372 -2.1816
  118SOL    HW2  354   1.099   2.152   1.888  0.6759  0.2402  1.5281
  119SOL     OW  355   1.349   2.047   0.003  0.0220  0.0638  0.0120
  119SOL    HW1  356   1.401   1.994   3.039  1.4645 -0.8697  3.0399
  119SOL    HW2  357   1.258   2.073   3.071  1.1899 -2.6901  0.8919
  120SOL     OW  358   0.309   1.431   2.572 -0.3878  0.8969  0.3625
  120SOL    HW1  359   0.287   1.526   2.551 -0.4896 -1.1171  0.2437
  120SOL    HW2  360   0.392   1.404   2.517  1.3648  1.9460  0.6812
  121SOL     OW  361   2.005   2.578   1.042 -0.4373  0.0312  0.0317
  121SOL    HW1  362   2.060   2.596   0.959  2.2100  1.9827  2.0745
  121SOL    HW2  363   1.908   2.561   1.023  2.0627  0.0656  1.8310
  122SOL     OW  364   2.227   2.136   2.108  0.0469 -0.2246  0.1179
  122SOL    HW1  365   2.317   2.088   2.084  0.1235 -2.2892 -0.1986
  122SOL    HW2  366   2.208   2.218   2.049  1.4742 -2.3740  2.8274
  123SOL     OW  367   2.958   0.202   0.705 -0.0408 -0.5086  0.0429
  123SOL    HW1  368   3.028   0.247   0.644 -0.9395  0.6253  0.1460
  123SOL    HW2  369   2.965   0.100   0.695  0.2552 -0.6894 -1.8285
  124SOL     OW  370   1.788   0.344   2.508 -0.4125 -0.1628 -0.9885
  124SOL    HW1  371   1.826   0.390   2.425  1.8197 -1.1504  0.3103
  124SOL    HW2  372   1.764   0.249   2.485  0.0292  2.4848 -0.5960
  125SOL     OW  373   0.538   1.476   0.499 -0.2197 -0.5404 -0.3352
  125SOL    HW1  374   0.583   1.562   0.474 -0.6063 -2.3934  1.4893
  125SOL    HW2  375   0.573   1.405   0.437 -0.1239  1.8397  0.0268
  126SOL     OW  376   2.372   1.847   0.462  0.5272 -0.1771  0.2421
  126SOL    HW1  377   2.387   1.775   0.390 -4.9483  2.6101  2.3249
  126SOL    HW2  378   2.459   1.870   0.513 -0.2722 -0.1438  1.8339
  127SOL     OW  379   0.075   1.772   1.527 -0.0188 -0.2947 -0.2039
  127SOL    HW1  380   0.022   1.837   1.588 -0.5996  0.2532  2.2288
  127SOL    HW2  381   0.057   1.793   1.430  1.5942 -0.5348  2.2477
  128SOL     OW  382   0.878   0.494   2.900  0.3604 -0.6825 -0.7183
  128SOL    HW1  383   0.967   0.526   2.943  0.5295 -0.2746  0.4241
  128SOL    HW2  384   0.807   0.511   2.969  0.9884 -0.3112 -0.1574
  129SOL     OW  385   2.143   1.586   0.973 -0.3173  0.1576 -0.5278
  129SOL    HW1  386   2.136   1.571   1.076  0.1424  0.9437  0.6948
  129SOL    HW2  387   2.066   1.639   0.936 -0.3770  0.4543  0.6944
  130SOL     OW  388   2.232   1.604   1.469 -0.3360 -0.3074  0.4179
  130SOL    HW1  389   2.215   1.556   1.381  0.4159  2.3314 -0.4272
  130SOL    HW2  390   2.283   1.544   1.534 -0.2961  2.0590  1.8234
  131SOL     OW  391   2.898   0.923   3.045  0.2465 -0.2589  0.1246
  131SOL    HW1  392   2.966   0.993   3.010  0.1391 -0.1483  0.7659
  131SOL    HW2  393   2.881   0.852   2.971 -1.1844 -1.9348 -5.0944
  132SOL     OW  394   2.565   2.258   1.663 -0.7421  0.5822  0.1644
  132SOL    HW1  395   2.623   2.302   1.585  1.8936  2.6755 -6.6951
  132SOL    HW2  396   2.616   2.179   1.707  2.8034 -1.9939  1.7429
  133SOL     OW  397   0.674   0.982   0.956 -0.0766  0.1607 -0.2488
  133SOL    HW1  398   0.766   1.026   0.961  2.2377  1.2857  0.6715
  133SOL    HW2  399   0.688   0.880   0.947 -1.3890  0.6396  0.6872
  134SOL     OW  400   0.307   0.914   0.249  0.1091  0.2267 -0.1833
  134SOL    HW1  401   0.267   0.858   0.324  1.2761  0.0942  1.7731
  134SOL    HW2  402   0.239   0.927   0.171  1.8056  2.0790 -1.7990
  135SOL     OW  403   2.133   1.497   1.227 -0.9654  0.4606 -0.0906
  135SOL    HW1  404   2.202   1.423   1.205 -1.5897 -0.6665  1.1336
  135SOL    HW2  405   2.039   1.460   1.224  0.8294  0.5983 -0.2205
  136SOL     OW  406   2.121   0.926   0.821  0.4421 -0.0065 -0.0575
  136SOL    HW1  407   2.178   0.841   0.813 -0.8891  2.9009  2.6468
  136SOL    HW2  408   2.088   0.957   0.730 -0.4749  3.4433  2.8306
  137SOL     OW  409   2.533   1.870   0.727 -0.5767 -0.0988  0.8906
  137SOL    HW1  410   2.471   1.792   0.761  0.6038 -0.4205 -0.5386
  137SOL    HW2  411   2.632   1.844   0.732 -0.0024 -1.2553 -2.0902
  138SOL     OW  412   1.665   0.797   2.044  0.8238 -0.1707 -0.1550
  138SOL    HW1  413   1.612   0.709   2.068  1.5568 -0.0702 -1.6036
  138SOL    HW2  414   1.752   0.767   2.000 -0.6514  0.7453 -0.3643
  139SOL     OW  415   2.367   0.004   3.062  0.3911  0.3718  0.0484
  139SOL    HW1  416   2.322   3.021   3.048  0.2598  0.4275  0.4488
  139SOL    HW2  417   2.391   0.046   2.971 -1.4023 -0.7441 -2.0264
  140SOL     OW  418   1.531   2.151   2.236  0.2270 -0.2128  0.4369
  140SOL    HW1  419   1.579   2.224   2.294 -0.0612  0.9498 -2.2585
  140SOL    HW2  420   1.594   2.068   2.224  1.9642 -2.7829 -0.4649
  141SOL     OW  421   1.739   1.704   1.330 -0.2250  0.0956 -0.1408
  141SOL    HW1  422   1.828   1.715   1.386 -0.8888  0.7583  0.0181
  141SOL    HW2  423   1.665   1.671   1.392 -0.5091 -0.9629 -0.5767
  142SOL     OW  424   2.944   0.267   3.057  0.4083  0.5574 -0.1191
  142SOL    HW1  425   2.978   0.180   3.108  2.1940 -0.4727  1.3077
  142SOL    HW2  426   2.844   0.267   3.066  2.7674 -1.2277  0.0633
  143SOL     OW  427   0.134   2.357   2.921 -0.0521 -0.7227 -0.2794
  143SOL    HW1  428   0.223   2.328   2.954 -1.7564  0.7060 -1.3595
  143SOL    HW2  429   0.105   2.296   2.846  0.2814 -2.4533 -0.2859
  144SOL     OW  430   0.959   2.815   1.885  0.2541  0.3266  0.1722
  144SOL    HW1  431   0.918   2.724   1.873 -1.3591  1.0242 -2.6910
  144SOL    HW2  432   0.986   2.848   1.792  0.7897  2.3622 -3.4425
  145SOL     OW  433   2.080   1.189   0.384  0.0539  0.5827  0.5545
  145SOL    HW1  434   2.115   1.281   0.401 -0.2629 -1.0582 -3.4234
  145SOL    HW2  435   2.107   1.169   0.287 -0.5753 -0.4478 -0.3519
  146SOL     OW  436   2.641   2.891   2.858  0.1733  0.1200  0.1063
  146SOL    HW1  437   2.552   2.919   2.822 -2.7521 -0.1436  0.1356
  146SOL    HW2  438   2.707   2.970   2.867 -1.1767 -0.8526  0.2248
  147SOL     OW  439   2.872   2.526   1.112 -0.0225  0.3035 -0.1134
  147SOL    HW1  440   2.808   2.528   1.192 -2.0921 -1.0745  0.0925
  147SOL    HW2  441   2.877   2.440   1.056 -0.9287  2.5145  0.9907
  148SOL     OW  442   1.919   0.034   3.068 -0.0595 -0.3677  0.0200
  148SOL    HW1  443   1.839   0.027   0.023  0.6616 -3.2836  1.3202
  148SOL    HW2  444   1.964   3.054   3.060 -1.3305  1.5397  1.0594
  149SOL     OW  445   1.188   0.477   2.583 -0.0250 -0.3706  0.3325
  149SOL    HW1  446   1.236   0.510   2.667  3.4821 -2.8774 -0.5459
  149SOL    HW2  447   1.109   0.417   2.602 -0.3713  0.4213 -0.7558
  150SOL     OW  448   0.789   2.499   0.521 -0.2822 -0.2882  0.2042
  150SOL    HW1  449   0.700   2.465   0.483  0.7374 -2.3397  0.7238
  150SOL    HW2  450   0.784   2.575   0.586  1.6417 -1.0268 -1.2526
  151SOL     OW  451   2.931   1.695   0.209 -0.4708  0.6205  0.1160
  151SOL    HW1  452   2.932   1.647   0.118  0.3368  0.0545 -1.0560
  151SOL    HW2  453   3.009   1.763   0.220 -0.1076  1.9452 -1.1493
  152SOL     OW  454   0.198   1.343   0.907 -0.3643 -0.1081  0.1247
  152SOL    HW1  455   0.275   1.343   0.842 -1.1574 -1.0496 -0.2555
  152SOL    HW2  456   0.182   1.435   0.948 -0.5396 -2.5424 -0.5000
  153SOL     OW  457   2.422   2.748   0.254  0.0813 -0.2649 -0.3497
  153SOL    HW1  458   2.417   2.703   0.344  0.1238  0.5432 -3.3417
  153SOL    HW2  459   2.337   2.800   0.232  1.1000  2.8932  0.6583
  154SOL     OW  460   0.772   0.653   1.443  0.1890  0.0025 -0.3967
  154SOL    HW1  461   0.673   0.648   1.414  1.2714  1.4424 -2.1136
  154SOL    HW2  462   0.770   0.719   1.525 -1.3520  2.4053  3.1128
  155SOL     OW  463   0.100   1.840   1.262  0.1539  0.4695  0.5425
  155SOL    HW1  464   0.043   1.762   1.224 -2.4153  1.1492  0.7193
  155SOL    HW2  465   0.054   1.933   1.258  1.8886  1.0115 -0.8465
  156SOL     OW  466   2.101   1.921   2.828 -0.1090  0.7098  0.2585
  156SOL    HW1  467   2.106   1.924   2.933 -0.0822 -2.2821  3.3254
  156SOL    HW2  468   2.049   1.999   2.793  1.5813 -3.4905  1.8084
  157SOL     OW  469   0.902   2.706   1.005 -0.3113 -0.2173 -0.0303
  157SOL    HW1  470   0.856   2.666   1.088 -0.6853  0.1589 -0.2845
  157SOL    HW2  471   0.918   2.805   1.015  0.2288 -0.8656  1.2812
  158SOL     OW  472   2.524   0.537   2.575  0.7317 -0.4064 -0.0817
  158SOL    HW1  473   2.562   0.514   2.665  2.8760  1.7013  1.8600
  158SOL    HW2  474   2.498   0.633   2.572  2.2654 -1.5654 -0.9960
  159SOL     OW  475   0.814   0.156   2.961 -0.0613 -0.4415  0.1699
  159SOL    HW1  476   0.907   0.169   2.912 -0.7552  2.6598 -0.8844
  159SOL    HW2  477   0.753   0.229   2.934  0.5401 -3.0811 -0.1042
  160SOL     OW  478   0.798   2.063   2.952 -0.3535  0.1244 -0.3913
  160SOL    HW1  479   0.758   2.156   2.970 -0.6541 -0.6109 -1.3900
  160SOL    HW2  480   0.795   2.053   2.852  1.8842 -1.1838 -0.0962
  161SOL     OW  481   2.902   2.210   3.002  0.2080  0.0715 -0.1122
  161SOL    HW1  482   2.931   2.199   3.098  2.2901 -0.9918 -1.6961
  161SOL    HW2  483   2.877   2.305   2.983 -1.0533 -0.4488 -1.5616
  162SOL     OW  484   0.509   2.649   1.169 -0.4815 -0.4584  0.1840
  162SOL    HW1  485   0.511   2.577   1.095 -0.6805 -1.2382 -0.6552
  162SOL    HW2  486   0.468   2.613   1.254 -1.5903  1.5399  1.0315
  163SOL     OW  487   2.617   0.752   2.913  0.1387  0.8431 -0.2366
  163SOL    HW1  488   2.537   0.798   2.866 -0.5773  1.4666 -1.3669
  163SOL    HW2  489   2.587   0.712   3.004  1.6175 -0.7182 -0.1768
  164SOL     OW  490   3.043   2.330   0.876  0.3517  0.1485  0.2203
  164SOL    HW1  491   3.049   2.245   0.815  1.3207 -1.8219 -4.2040
  164SOL    HW2  492   2.946   2.331   0.906 -1.1762 -1.5767  0.7969
  165SOL     OW  493   2.778   0.275   1.363 -0.3822 -0.0548  0.7417
  165SOL    HW1  494   2.748   0.311   1.454  1.1986  2.0754 -0.1498
  165SOL    HW2  495   2.814   0.178   1.363  0.0923 -1.7321 -2.2423
  166SOL     OW  496   2.036   0.243   0.606 -0.3787  0.4690 -0.4586
  166SOL    HW1  497   2.135   0.266   0.584  1.1644 -0.7052  2.6083
  166SOL    HW2  498   2.032   0.159   0.659 -1.7106  0.8991 -1.1422
  167SOL     OW  499   0.365   0.134   1.288  0.3215  0.7416 -0.2826
  167SOL    HW1  500   0.435   0.143   1.365  1.7855 -2.0608  0.5336
  167SOL    HW2  501   0.391   0.180   1.199 -0.3541  1.2175 -2.8312
  168SOL     OW  502   2.572   2.927   2.442  0.3045  0.5941 -0.0030
  168SOL    HW1  503   2.640   2.862   2.403  0.0164  0.9905 -2.6965
  168SOL    HW2  504   2.476   2.890   2.460  1.9521 -1.2934  0.8334
  169SOL     OW  505   0.139   1.687   0.573  0.2519 -0.1185  0.1467
  169SOL    HW1  506   0.199   1.616   0.529 -0.0346  0.4648  2.6534
  169SOL    HW2  507   0.184   1.722   0.658  1.4212  0.8495  1.4832
  170SOL     OW  508   2.626   1.000   1.216  0.1137 -0.3951  0.1126
  170SOL    HW1  509   2.652   0.905   1.206  1.4070 -0.2301 -1.1700
  170SOL    HW2  510   2.600   1.023   1.311  0.7226 -2.1071 -1.8665
  171SOL     OW  511   1.080   2.398   1.480 -0.1591  0.4047 -0.3671
  171SOL    HW1  512   1.160   2.356   1.436 -1.3674  1.6952  2.4393
  171SOL    HW2  513   1.093   2.500   1.481 -0.0888 -0.4967 -1.7316
  172SOL     OW  514   0.403   2.478   1.397  0.1110 -0.6994  0.1127
  172SOL    HW1  515   0.436   2.387   1.361 -0.3609 -0.5731 -2.1944
  172SOL    HW2  516   0.321   2.519   1.350  1.0523  2.5680  2.8865
  173SOL     OW  517   1.278   2.882   0.115 -0.4742  0.1691  0.4621
  173SOL    HW1  518   1.358   2.814   0.117  0.1214 -0.4453  2.1366
  173SOL    HW2  519   1.309   2.968   0.157  1.0577 -0.5818  0.9884
  174SOL     OW  520   1.183   2.548   2.656  0.0963  0.1553 -0.0745
  174SOL    HW1  521   1.228   2.588   2.739  2.3224 -1.0337 -0.6503
  174SOL    HW2  522   1.160   2.457   2.682  2.3370  0.1827  0.8389
  175SOL     OW  523   1.573   0.256   0.117  0.3935 -0.3796  0.6264
  175SOL    HW1  524   1.657   0.301   0.158  3.4703 -0.7307 -1.2066
  175SOL    HW2  525   1.493   0.321   0.120  1.1030 -0.8182  1.3910
  176SOL     OW  526   1.313   0.049   0.216 -0.2080 -0.3706  0.0258
  176SOL    HW1  527   1.366   0.066   0.129 -0.1739 -1.4230  0.0831
  176SOL    HW2  528   1.367   0.060   0.303 -2.1120 -3.1992 -1.7003
  177SOL     OW  529   1.366   1.260   0.693  0.1885 -0.5648 -0.0652
  177SOL    HW1  530   1.392   1.163   0.711 -1.6027 -0.0487  1.8144
  177SOL    HW2  531   1.445   1.319   0.687 -0.0495  0.6086 -0.7377
  178SOL     OW  532   2.399   1.725   2.066  0.3167  0.0263 -0.1433
  178SOL    HW1  533   2.336   1.705   1.989 -2.9640  0.3436 -2.1062
  178SOL    HW2  534   2.398   1.662   2.146  1.3832  0.4824 -0.0801
  179SOL     OW  535   0.465   2.641   2.861  0.3424 -0.1589  0.5388
  179SOL    HW1  536   0.504   2.736   2.866  0.7627 -0.3247  0.8746
  179SOL    HW2  537   0.518   2.581   2.794 -0.0730  0.4061  0.3840
  180SOL     OW  538   1.775   2.021   1.688  0.5843  0.3353 -0.5991
  180SOL    HW1  539   1.843   1.986   1.755 -0.2955 -1.6157  1.2214
  180SOL    HW2  540   1.720   2.091   1.740 -1.1334  0.0346  3.2027
  181SOL     OW  541   1.329   1.438   2.623 -0.3084  0.4145 -0.2647
  181SOL    HW1  542   1.363   1.476   2.536  0.9256  0.1308 -0.3682
  181SOL    HW2  543   1.271   1.354   2.612 -4.8225 -1.3208 -0.5630
  182SOL     OW  544   0.046   0.442   2.709  0.2099  0.2107  0.0235
  182SOL    HW1  545   0.045   0.431   2.609 -1.7910  0.1264  0.0303
  182SOL    HW2  546   0.140   0.422   2.746 -1.6300 -0.9914 -2.0363
  183SOL     OW  547   1.074   0.176   2.868  0.1816  0.1859 -0.9716
  183SOL    HW1  548   1.036   0.223   2.790 -0.8357 -0.8923  4.1226
  183SOL    HW2  549   1.174   0.145   2.852  0.6749 -0.2004  0.6706
  184SOL     OW  550   1.422   0.804   1.279 -0.1262 -0.0724 -0.3713
  184SOL    HW1  551   1.448   0.869   1.206  1.9340  1.2546 -0.9170
  184SOL    HW2  552   1.386   0.720   1.237  0.0528 -0.4490  0.0629
  185SOL     OW  553   0.118   1.265   1.383 -0.1784 -0.5468 -0.0256
  185SOL    HW1  554   0.105   1.359   1.413  0.0604 -2.7943  0.0211
  185SOL    HW2  555   0.025   1.224   1.383  1.8796  1.8445 -0.6539
  186SOL     OW  556   0.313   1.829   2.681 -0.2502 -0.2348  0.3305
  186SOL    HW1  557   0.416   1.823   2.687  1.2392  1.5545  1.5641
  186SOL    HW2  558   0.274   1.756   2.621  0.8078 -0.4481 -1.8055
  187SOL     OW  559   2.704   1.348   0.365 -0.8407  0.2146  0.4089
  187SOL    HW1  560   2.719   1.321   0.266 -0.7479 -0.3568  0.6011
  187SOL    HW2  561   2.781   1.400   0.406 -0.0703 -1.1022  2.4559
  188SOL     OW  562   0.182   2.425   0.718  0.6358 -0.0750 -0.2423
  188SOL    HW1  563   0.164   2.368   0.635  0.0880  0.0673  1.0529
  188SOL    HW2  564   0.128   2.388   0.797  0.0500 -0.3115  3.2281
  189SOL     OW  565   2.682   1.027   0.062 -0.3879  0.3165 -0.2101
  189SOL    HW1  566   2.768   1.003   0.016  0.6698  0.4367  0.4464
  189SOL    HW2  567   2.631   0.952   0.108  0.9530  1.5462 -2.8499
  190SOL     OW  568   1.134   1.312   2.360 -0.0760  0.1874  0.1466
  190SOL    HW1  569   1.197   1.255   2.414 -0.5981  2.1414  1.7678
  190SOL    HW2  570   1.076   1.374   2.421 -1.3330  2.2598  2.6495
  191SOL     OW  571   2.655   0.367   1.667 -0.5665 -0.2345 -0.1318
  191SOL    HW1  572   2.616   0.282   1.721 -1.3421 -3.8292  2.7623
  191SOL    HW2  573   2.719   0.421   1.723  0.9928  0.6747 -0.6721
  192SOL     OW  574   2.232   0.383   1.807  0.0646 -0.0069 -0.8615
  192SOL    HW1  575   2.251   0.321   1.883  0.5480  1.2526  0.7068
  192SOL    HW2  576   2.304   0.452   1.796 -2.6920 -0.9893 -0.0463
  193SOL     OW  577   1.010   0.561   0.283 -0.0466 -0.0038  0.3981
  193SOL    HW1  578   1.003   0.581   0.385  0.1948  0.2967 -0.4881
  193SOL    HW2  579   0.926   0.499   0.264  0.6539 -1.8615  2.2866
  194SOL     OW  580   1.094   2.954   1.211  0.3898 -0.2745 -0.8596
  194SOL    HW1  581   1.181   2.983   1.160  0.0332 -2.5083 -1.5875
  194SOL    HW2  582   1.010   2.974   1.160  0.1228  1.1823 -0.8635
  195SOL     OW  583   2.401   0.623   0.573  0.4570 -0.0809 -0.6172
  195SOL    HW1  584   2.494   0.607   0.543 -1.3512 -0.3271 -0.0407
  195SOL    HW2  585   2.388   0.670   0.661 -0.8502  0.4968  0.9437
  196SOL     OW  586   1.626   1.955   1.954 -0.4551 -0.4916 -0.4585
  196SOL    HW1  587   1.611   2.046   1.911  1.9301 -0.6075  0.3658
  196SOL    HW2  588   1.539   1.913   1.986  1.7641  0.8185  0.6433
  197SOL     OW  589   0.029   2.988   0.624 -0.2199 -0.4838 -0.4016
  197SOL    HW1  590   0.100   3.053   0.652  0.3948 -0.7587 -2.6399
  197SOL    HW2  591   0.050   2.893   0.663 -0.0553  1.4291 -1.3426
  198SOL     OW  592   1.150   1.221   0.529 -0.2749  0.1692  0.0079
  198SOL    HW1  593   1.235   1.228   0.591  2.3096  0.6071  0.0031
  198SOL    HW2  594   1.101   1.131   0.542  0.7745 -0.3269  0.4566
  199SOL     OW  595   3.023   0.925   1.889 -0.0686  0.2645 -0.0362
  199SOL    HW1  596   3.010   0.989   1.965  0.7688  0.9487 -1.4823
  199SOL    HW2  597   3.047   0.980   1.808 -0.5959  1.4473 -1.6178
  200SOL     OW  598   2.367   1.824   2.582 -0.4996  0.4233 -0.3807
  200SOL    HW1  599   2.356   1.906   2.520 -0.1187  1.5688 -0.6145
  200SOL    HW2  600   2.359   1.856   2.680  2.0279 -0.0993  1.8130
  201SOL     OW  601   2.418   0.180   0.745  0.0713  0.3911 -0.0499
  201SOL    HW1  602   2.336   0.237   0.756 -2.9766 -3.2769 -1.0249
  201SOL    HW2  603   2.402   0.107   0.677  0.7528  1.9743  2.0797
  202SOL     OW  604   2.551   0.816   0.201 -0.4603 -0.3385 -0.3566
  202SOL    HW1  605   2.555   0.738   0.133 -0.3939 -0.0928 -1.5175
  202SOL    HW2  606   2.606   0.798   0.285 -0.8690 -0.1564  0.8402
  203SOL     OW  607   1.701   1.902   2.210  0.3548  0.4223  0.1944
  203SOL    HW1  608   1.682   1.911   2.108  1.1809 -2.2021 -3.2504
  203SOL    HW2  609   1.678   1.807   2.239  2.8824  0.3194  0.3674
  204SOL     OW  610   0.838   1.793   2.249  0.0030 -0.4973 -0.0265
  204SOL    HW1  611   0.859   1.885   2.206 -0.3322  0.2028  0.4205
  204SOL    HW2  612   0.924   1.734   2.257  0.1619 -0.0786  0.4927
  205SOL     OW  613   1.205   1.895   1.561  0.5435 -0.1890  0.0388
  205SOL    HW1  614   1.302   1.927   1.555 -2.8065 -0.4069 -0.4540
  205SOL    HW2  615   1.189   1.856   1.653  0.7755 -0.3990 -0.3252
  206SOL     OW  616   0.110   0.592   3.061  0.6704 -0.3642  0.3012
  206SOL    HW1  617   0.018   0.554   3.077  0.0981 -0.7968 -2.3803
  206SOL    HW2  618   0.105   0.674   2.999 -1.3220 -1.8985 -0.6590
  207SOL     OW  619   1.737   2.622   2.412  0.7392  0.0493  0.1029
  207SOL    HW1  620   1.640   2.642   2.438  2.3418  1.5685  0.1935
  207SOL    HW2  621   1.766   2.688   2.343  1.1935 -0.7484  2.3012
  208SOL     OW  622   0.289   2.238   1.715 -0.2069 -0.1607 -0.2092
  208SOL    HW1  623   0.339   2.201   1.629  0.8523 -1.1396 -0.4564
  208SOL    HW2  624   0.254   2.332   1.692  1.1945 -2.7723  0.1295
  209SOL     OW  625   1.563   0.679   2.690  0.3021  0.0213 -0.2875
  209SOL    HW1  626   1.588   0.777   2.716  1.8292  4.0472  0.6786
  209SOL    HW2  627   1.547   0.658   2.593  1.2185  1.9889  2.6774
  210SOL     OW  628   2.314   0.717   0.845  0.1526  0.3927 -0.1101
  210SOL    HW1  629   2.262   0.664   0.916 -2.3472 -1.3426  0.1895
  210SOL    HW2  630   2.410   0.742   0.872  2.0683  0.2048  0.4865
  211SOL     OW  631   1.015   0.580   0.589 -0.4917 -0.1910 -0.5579
  211SOL    HW1  632   0.927   0.582   0.643 -2.4958  0.9697  1.6207
  211SOL    HW2  633   1.079   0.512   0.636 -0.6435 -1.5260 -0.5387
  212SOL     OW  634   1.402   1.472   0.172 -0.6140  0.4438  0.2459
  212SOL    HW1  635   1.451   1.404   0.114 -0.2603  1.2327 -1.4303
  212SOL    HW2  636   1.379   1.553   0.118  0.2281 -1.2129  0.0792
  213SOL     OW  637   1.482   0.198   2.306 -0.7738 -0.5156 -0.0801
  213SOL    HW1  638   1.407   0.224   2.373 -0.9380  0.1065 -0.1502
  213SOL    HW2  639   1.568   0.179   2.365  1.3128 -2.6812  4.7349
  214SOL     OW  640   1.586   1.254   2.460 -0.5582  0.2956  0.4168
  214SOL    HW1  641   1.650   1.334   2.437  1.3169  1.4487 -1.1983
  214SOL    HW2  642   1.530   1.270   2.544  0.8840 -0.1801  1.5925
  215SOL     OW  643   0.675   1.540   0.860  0.2843  0.2300  0.0433
  215SOL    HW1  644   0.747   1.545   0.933  2.6155 -1.1867 -2.1490
  215SOL    HW2  645   0.578   1.550   0.896 -0.7252  1.4191  1.8248
  216SOL     OW  646   0.626   2.921   2.231  0.4488  0.0861  0.6856
  216SOL    HW1  647   0.699   2.986   2.206  1.2315 -2.2416  1.1836
  216SOL    HW2  648   0.614   2.929   2.330 -1.3483 -0.4764  0.5127
  217SOL     OW  649   2.241   0.819   0.161 -0.3746  0.3731  0.2405
  217SOL    HW1  650   2.343   0.822   0.142 -0.5948  1.4026  2.5496
  217SOL    HW2  651   2.210   0.724   0.134  0.7098  1.6917  1.2711
  218SOL     OW  652   2.077   1.935   2.200  0.2261  0.1177 -0.0211
  218SOL    HW1  653   2.086   1.858   2.136  1.0031 -4.3252 -2.8817
  218SOL    HW2  654   2.104   2.021   2.156  0.7954  1.3887  1.6520
  219SOL     OW  655   1.815   1.563   0.142 -0.1813  0.2837  0.0908
  219SOL    HW1  656   1.738   1.502   0.121  2.3495  0.9432  1.0307
  219SOL    HW2  657   1.893   1.544   0.081  1.8703  1.1408  2.1577
  220SOL     OW  658   1.408   1.685   1.143 -0.1655 -0.1995 -0.3345
  220SOL    HW1  659   1.434   1.751   1.213  2.3490  0.3655 -1.4083
  220SOL    HW2  660   1.464   1.704   1.065 -2.1414 -2.0511  2.6280
  221SOL     OW  661   0.476   0.640   2.823  0.1700  0.0310  0.5547
  221SOL    HW1  662   0.458   0.732   2.859  1.3892 -1.1810 -1.7843
  221SOL    HW2  663   0.575   0.615   2.843  0.6748 -0.1282 -0.2430
  222SOL     OW  664   0.979   1.946   1.431  0.5859  0.3332 -0.0419
  222SOL    HW1  665   0.932   2.036   1.452 -3.7729 -2.1878  0.4169
  222SOL    HW2  666   1.058   1.932   1.498 -0.6108  0.7188  1.2189
  223SOL     OW  667   1.271   0.013   2.692  0.0700 -0.1964  0.0807
  223SOL    HW1  668   1.337   0.008   2.772  0.1222  1.1945 -1.5273
  223SOL    HW2  669   1.174   3.082   2.703 -1.9834 -1.7631  0.6032
  224SOL     OW  670   2.865   1.208   0.857 -0.3233  0.2926  0.1643
  224SOL    HW1  671   2.776   1.173   0.814 -1.2529 -1.2780  1.5255
  224SOL    HW2  672   2.945   1.174   0.802 -1.6641  0.0109  0.1470
  225SOL     OW  673   1.325   0.989   1.469  0.3754  0.2584  0.1869
  225SOL    HW1  674   1.361   1.068   1.419  0.7908  2.9018 -1.2240
  225SOL    HW2  675   1.359   0.899   1.439 -2.6691 -1.7077  1.2710
  226SOL     OW  676   1.394   2.061   2.495 -0.4458 -0.7197 -0.3949
  226SOL    HW1  677   1.379   2.138   2.559 -2.2877  0.6621 -1.8433
  226SOL    HW2  678   1.385   2.090   2.400 -1.9951  1.2648  3.4762
  227SOL     OW  679   1.259   1.932   1.097 -0.1729  0.3531 -0.3573
  227SOL    HW1  680   1.334   1.921   1.166 -0.5443 -1.8454  1.0315
  227SOL    HW2  681   1.173   1.897   1.138 -1.0545  1.3600 -0.6747
  228SOL     OW  682   0.529   1.945   1.084  0.7440 -0.3897  0.0632
  228SOL    HW1  683   0.458   1.880   1.106 -1.4353  0.8290 -0.4588
  228SOL    HW2  684   0.622   1.900   1.082  1.4541 -0.2428  1.3766
  229SOL     OW  685   2.121   0.601   0.050 -0.3049 -0.1383  0.3166
  229SOL    HW1  686   2.036   0.616   3.099  0.5580 -1.9509  1.3431
  229SOL    HW2  687   2.198   0.581   3.092  0.7709 -0.9241 -1.2892
  230SOL     OW  688   0.888   0.643   2.108  0.5308 -0.2179  0.1462
  230SOL    HW1  689   0.847   0.606   2.022 -0.9582  0.8981  0.2943
  230SOL    HW2  690   0.981   0.671   2.091 -0.2307  1.2154  1.3072
  231SOL     OW  691   1.257   1.683   2.226 -0.2142 -0.4002 -0.4673
  231SOL    HW1  692   1.245   1.634   2.134 -1.7557 -0.9360 -2.6286
  231SOL    HW2  693   1.168   1.688   2.271 -1.6034  0.0030  1.3335
  232SOL     OW  694   2.221   2.123   1.057 -0.7211 -0.8513 -0.6489
  232SOL    HW1  695   2.189   2.074   0.976  1.1514 -0.2964  2.4792
  232SOL    HW2  696   2.206   2.224   1.049 -1.1311  0.5888 -2.7582
  233SOL     OW  697   1.863   2.617   2.910  0.8249 -0.6622  0.4484
  233SOL    HW1  698   1.792   2.541   2.896 -1.2479 -4.1933  0.1175
  233SOL    HW2  699   1.947   2.600   2.867 -0.0366  1.5752  1.9608
  234SOL     OW  700   1.251   2.928   2.955  0.1107 -0.0123 -0.5041
  234SOL    HW1  701   1.266   2.948   3.056 -0.1330  2.8498  2.4721
  234SOL    HW2  702   1.157   2.959   2.926  1.1893  1.6361 -0.5222
  235SOL     OW  703   2.550   0.051   0.163  0.3288 -0.2367 -0.5043
  235SOL    HW1  704   2.478   0.049   0.096 -0.8924  0.6213  2.5052
  235SOL    HW2  705   2.589   3.064   0.171  2.1833  0.8617 -1.4633
  236SOL     OW  706   2.481   2.257   2.317 -0.1791  0.3992  0.0516
  236SOL    HW1  707   2.531   2.221   2.238 -0.1716 -0.1358 -0.7675
  236SOL    HW2  708   2.527   2.251   2.408 -0.1049  0.8896 -0.3420
  237SOL     OW  709   1.361   1.337   1.882 -0.1942 -0.1437  0.1110
  237SOL    HW1  710   1.462   1.339   1.895  1.9777  1.0090 -2.1925
  237SOL    HW2  711   1.342   1.378   1.793  0.0028  0.8274  2.9590
  238SOL     OW  712   2.223   0.242   2.495 -0.1714 -0.3561 -0.4224
  238SOL    HW1  713   2.265   0.302   2.426 -2.0671 -0.3717 -1.1223
  238SOL    HW2  714   2.172   0.297   2.566  0.6633  1.3193  0.1641
  239SOL     OW  715   0.323   1.803   2.230 -0.0785  0.0243  0.3649
  239SOL    HW1  716   0.425   1.798   2.211  2.6518 -1.9461  0.1185
  239SOL    HW2  717   0.268   1.759   2.159 -0.4888  0.4925  0.3208
  240SOL     OW  718   2.625   2.894   0.937  0.3992  0.0177  0.0199
  240SOL    HW1  719   2.716   2.848   0.939 -0.9475  2.4196  1.7630
  240SOL    HW2  720   2.602   2.935   0.845 -0.4090  1.9361 -0.3130
  241SOL     OW  721   1.826   2.169   0.697 -0.1980 -0.0930 -0.1427
  241SOL    HW1  722   1.748   2.140   0.755  1.0980  1.0316 -2.0928
  241SOL    HW2  723   1.829   2.117   0.614  2.4984  1.3178  0.2943
  242SOL     OW  724   1.093   1.747   2.456 -0.3340 -0.6456 -0.1376
  242SOL    HW1  725   1.166   1.788   2.518 -0.1971  0.4708  1.2771
  242SOL    HW2  726   1.053   1.658   2.491  0.1610 -0.9133 -2.0474
  243SOL     OW  727   0.680   2.667   2.245  0.1529 -0.1826 -0.4100
  243SOL    HW1  728   0.660   2.758   2.204  0.6885 -2.3391 -0.3717
  243SOL    HW2  729   0.779   2.646   2.263  1.3405  2.9550 -1.6235
  244SOL     OW  730   2.139   0.012   2.792  0.4172  0.6832  0.2196
  244SOL    HW1  731   2.133   0.114   2.793 -1.5731  1.8734  1.2872
  244SOL    HW2  732   2.106   3.081   2.708 -0.0359  1.4124  3.0704
  245SOL     OW  733   1.350   2.460   0.294 -0.5827  0.3381 -0.3648
  245SOL    HW1  734   1.451   2.454   0.292 -0.8100  4.2264  1.2672
  245SOL    HW2  735   1.324   2.523   0.217  3.0456 -0.7148  0.5977
  246SOL     OW  736   0.836   2.830   0.178 -0.0841 -0.1589 -0.2562
  246SOL    HW1  737   0.848   2.929   0.177  0.0325  0.1322 -0.7634
  246SOL    HW2  738   0.915   2.785   0.221  2.1454  0.5167 -0.9676
  247SOL     OW  739   0.629   0.943   2.044 -0.5385  0.0267 -0.6320
  247SOL    HW1  740   0.684   0.986   1.972  1.0729 -1.3067  3.1283
  247SOL    HW2  741   0.686   0.877   2.100 -0.7213 -0.7172 -0.1728
  248SOL     OW  742   0.898   1.079   2.191  0.6342  0.1378 -0.0279
  248SOL    HW1  743   0.922   1.149   2.262 -1.5923  2.5506 -2.2238
  248SOL    HW2  744   0.802   1.037   2.198 -2.5347 -3.2079  0.2928
  249SOL     OW  745   2.162   0.471   0.298 -0.0467 -0.0849  0.8580
  249SOL    HW1  746   2.078   0.457   0.350  2.1621 -1.5405 -1.2840
  249SOL    HW2  747   2.150   0.505   0.200 -0.0627  3.0453 -1.5820
  250SOL     OW  748   0.730   3.044   0.671  0.5490 -0.0438  0.1181
  250SOL    HW1  749   0.648   3.043   0.735  0.3897  0.3463  0.5506
  250SOL    HW2  750   0.710   2.982   0.595  0.9007 -0.6631 -0.2379
  251SOL     OW  751   1.640   2.964   2.650 -0.1030 -0.1131  0.1166
  251SOL    HW1  752   1.720   2.902   2.643  3.0022  1.7124  1.1712
  251SOL    HW2  753   1.590   2.937   2.733 -1.2049  0.1124  1.5942
  252SOL     OW  754   1.765   1.511   2.082 -0.1738  0.1693 -0.0337
  252SOL    HW1  755   1.733   1.566   2.163 -0.6378  0.7232  1.5760
  252SOL    HW2  756   1.868   1.495   2.094  2.7989 -0.3736  0.0363
  253SOL     OW  757   2.425   2.810   2.014  0.4014 -0.1225  0.5050
  253SOL    HW1  758   2.523   2.796   2.043 -0.4315 -0.6859 -0.9037
  253SOL    HW2  759   2.363   2.785   2.092  1.8090 -1.0404 -2.3563
  254SOL     OW  760   0.881   1.554   1.053  0.3421  0.1886  0.2906
  254SOL    HW1  761   0.972   1.542   1.007  2.0447 -1.2960  2.3184
  254SOL    HW2  762   0.868   1.511   1.143 -0.5544  1.7875 -2.4348
  255SOL     OW  763   1.181   0.936   1.083 -0.3699  0.2113  0.0378
  255SOL    HW1  764   1.163   1.035   1.061 -0.8931 -0.2357 -1.5888
  255SOL    HW2  765   1.267   0.915   1.037  0.2415  1.2979 -1.4303
  256SOL     OW  766   1.883   2.585   1.795 -0.4657 -0.3333 -0.1444
  256SOL    HW1  767   1.873   2.525   1.881  1.4302 -0.6649  0.7893
  256SOL    HW2  768   1.935   2.540   1.724 -1.4013  0.1367  3.0235
  257SOL     OW  769   0.108   2.843   3.035 -0.2936  0.1265 -0.5414
  257SOL    HW1  770   0.153   2.916   2.984 -3.0228 -1.9510 -1.1649
  257SOL    HW2  771   0.142   2.755   3.001 -0.8151  1.5172  1.6535
  258SOL     OW  772   0.852   3.031   2.032 -0.3068 -0.0223 -0.2348
  258SOL    HW1  773   0.913   3.047   2.115 -0.2820  0.2544  1.0492
  258SOL    HW2  774   0.858   2.930   1.999 -0.5175  0.0925  0.5607
  259SOL     OW  775   1.001   3.074   2.248 -0.2056  0.2857 -0.4709
  259SOL    HW1  776   1.083   0.009   2.205  0.9505 -0.1403 -1.2069
  259SOL    HW2  777   1.020   2.977   2.283 -1.2684 -0.4716  0.0456
  260SOL     OW  778   1.693   0.499   0.742 -0.4477 -0.1684 -0.8153
  260SOL    HW1  779   1.707   0.398   0.733  1.4949  0.7765  2.2187
  260SOL    HW2  780   1.776   0.555   0.733  0.6328  0.2387 -0.7962
  261SOL     OW  781   0.308   0.423   2.778 -0.0127  0.2459  0.4867
  261SOL    HW1  782   0.303   0.353   2.851  0.9499 -0.1583  2.6519
  261SOL    HW2  783   0.392   0.478   2.788  1.7737 -0.3861 -1.9745
  262SOL     OW  784   2.739   2.566   1.896 -0.2029  0.0423 -0.2058
  262SOL    HW1  785   2.807   2.492   1.925  2.4569 -0.1954 -3.0461
  262SOL    HW2  786   2.780   2.616   1.818  0.2365 -3.0178  1.1467
  263SOL     OW  787   2.789   1.862   2.314 -0.3577  0.0293 -0.0512
  263SOL    HW1  788   2.871   1.905   2.363 -2.6476  0.3344 -0.3911
  263SOL    HW2  789   2.730   1.812   2.385 -2.8257  0.6980  1.1548
  264SOL     OW  790   0.909   1.114   0.944  0.0891  0.6209  0.1531
  264SOL    HW1  791   0.896   1.191   0.874  0.9868  0.1967 -4.0849
  264SOL    HW2  792   0.997   1.132   0.996 -2.4883  1.5969 -1.8144
  265SOL     OW  793   0.513   2.254   0.199 -0.5080 -0.5676  0.4908
  265SOL    HW1  794   0.582   2.195   0.161 -1.2251 -0.6225  2.4050
  265SOL    HW2  795   0.565   2.331   0.240 -0.2596  0.3951 -2.6775
  266SOL     OW  796   1.348   0.736   0.503 -0.4561  0.6168 -0.4842
  266SOL    HW1  797   1.337   0.633   0.488 -0.9526 -1.5292  2.0515
  266SOL    HW2  798   1.257   0.784   0.489  0.3466  1.4753 -0.8733
  267SOL     OW  799   3.002   1.206   0.117 -0.2028  0.4074  0.2281
  267SOL    HW1  800   3.083   1.266   0.100 -0.3559 -2.5010 -0.2297
  267SOL    HW2  801   3.021   1.103   0.100 -1.1034  0.4008  0.9716
  268SOL     OW  802   2.350   0.353   0.018  0.3849 -0.1391 -0.3104
  268SOL    HW1  803   2.398   0.382   0.100 -2.3150  3.2812 -0.0719
  268SOL    HW2  804   2.265   0.294   0.050 -4.3007 -1.3079  0.7192
  269SOL     OW  805   1.786   0.532   2.717 -0.5552  0.1714 -0.0983
  269SOL    HW1  806   1.780   0.453   2.647 -2.8164 -1.6563  1.1016
  269SOL    HW2  807   1.692   0.568   2.730  1.8055  0.3492 -0.6722
  270SOL     OW  808   0.702   0.654   0.035 -0.3253 -1.1405 -0.0015
  270SOL    HW1  809   0.692   0.704   0.127 -0.4926  3.5227  3.6380
  270SOL    HW2  810   0.726   0.724   3.070 -1.7657 -1.2748  0.3281
  271SOL     OW  811   3.016   1.066   0.371 -0.2932 -0.0836 -0.3530
  271SOL    HW1  812   2.991   0.975   0.327  1.2796 -1.0545  0.1553
  271SOL    HW2  813   3.000   1.144   0.312  1.9493 -0.4919  1.0896
  272SOL     OW  814   3.088   1.931   3.077  0.5755 -0.4135  0.3375
  272SOL    HW1  815   3.004   1.888   3.036  1.2178 -0.5725  0.3713
  272SOL    HW2  816   0.053   1.955   3.011  0.5906 -1.9109  0.4791
  273SOL     OW  817   2.425   0.042   0.497 -0.0891 -0.5299 -0.0662
  273SOL    HW1  818   2.520   0.071   0.475 -1.5281 -1.3056  0.0377
  273SOL    HW2  819   2.361   0.037   0.417 -0.3260  1.0656  0.0039
  274SOL     OW  820   0.555   2.406   1.023  0.0566 -0.1323 -0.2748
  274SOL    HW1  821   0.625   2.331   1.026  0.7220  0.3705 -0.3919
  274SOL    HW2  822   0.491   2.397   0.944 -0.9511  2.7779  3.1165
  275SOL     OW  823   2.397   1.298   0.421  0.8093  0.1065  0.3657
  275SOL    HW1  824   2.492   1.322   0.395  2.8596 -0.7220  1.1621
  275SOL    HW2  825   2.385   1.235   0.501  1.8680  0.5365 -1.2719
  276SOL     OW  826   2.997   1.367   2.229  0.0443  0.2768 -0.4572
  276SOL    HW1  827   3.072   1.351   2.293  0.0203  1.0345 -0.9576
  276SOL    HW2  828   2.908   1.381   2.279 -1.0782  0.9615 -1.1633
  277SOL     OW  829   2.018   2.768   1.251 -0.0588 -0.6967  0.0859
  277SOL    HW1  830   2.112   2.795   1.272  1.2449  0.4149 -0.5843
  277SOL    HW2  831   2.027   2.693   1.186 -2.0528  0.5704 -3.6898
  278SOL     OW  832   1.192   0.048   2.078  0.8827  0.2741  0.0165
  278SOL    HW1  833   1.241   3.103   2.003  0.6787  0.1230 -0.4164
  278SOL    HW2  834   1.231   0.144   2.090  1.3454  1.0920 -0.5640
  279SOL     OW  835   1.741   1.751   0.402 -0.5771 -0.5743  0.4369
  279SOL    HW1  836   1.736   1.785   0.499 -0.0966 -0.3174  0.2466
  279SOL    HW2  837   1.831   1.706   0.380  2.5745  0.5211 -0.9906
  280SOL     OW  838   0.020   1.935   0.878 -0.0480  0.1761  0.1580
  280SOL    HW1  839   0.093   1.877   0.843 -0.2650  0.2331  0.4868
  280SOL    HW2  840   3.056   1.874   0.915  1.9917  2.0584 -1.3145
  281SOL     OW  841   2.966   0.550   2.427 -0.4956  0.3481  0.3835
  281SOL    HW1  842   3.051   0.498   2.408 -0.4741 -0.3199  1.9835
  281SOL    HW2  843   2.883   0.487   2.444  0.2937 -3.4714  0.9044
  282SOL     OW  844   0.746   0.860   0.575  0.4541 -0.1575  0.0010
  282SOL    HW1  845   0.665   0.915   0.591  2.0222 -1.1991 -0.4934
  282SOL    HW2  846   0.821   0.921   0.547 -1.0876 -2.8924  0.0875
  283SOL     OW  847   1.684   2.003   0.008 -0.0012  0.2902 -0.0107
  283SOL    HW1  848   1.646   2.069   3.044 -3.9457 -2.7506 -1.6285
  283SOL    HW2  849   1.763   2.041   0.065  1.1784 -0.0970  1.8890
  284SOL     OW  850   1.368   0.477   0.074 -0.7590  0.8880 -0.2812
  284SOL    HW1  851   1.449   0.508   0.019  1.3447 -1.4854  0.1233
  284SOL    HW2  852   1.300   0.416   0.032 -0.5167 -0.0146  0.3889
  285SOL     OW  853   1.812   0.711   2.509  0.2059  0.6233  0.0000
  285SOL    HW1  854   1.771   0.691   2.417  0.9194 -1.2477 -0.7393
  285SOL    HW2  855   1.812   0.639   2.579 -0.4755  0.5956 -0.0254
  286SOL     OW  856   1.410   2.739   1.669 -0.1953 -0.2284 -0.4200
  286SOL    HW1  857   1.478   2.663   1.674 -1.2456 -4.7454 -0.4499
  286SOL    HW2  858   1.463   2.828   1.650 -1.1081  1.9788 -2.3471
  287SOL     OW  859   1.200   0.943   0.737  0.4462 -0.0427 -0.3580
  287SOL    HW1  860   1.134   0.915   0.815 -2.0310  1.1761  0.8593
  287SOL    HW2  861   1.166   0.897   0.652  0.5008 -2.0516  1.0435
  288SOL     OW  862   0.935   2.486   0.286 -0.2695  0.1664  0.0062
  288SOL    HW1  863   1.005   2.556   0.286 -3.7092 -0.8185  0.3867
  288SOL    HW2  864   0.891   2.484   0.378  1.4316  1.2528  1.4873
  289SOL     OW  865   0.427   1.455   1.790 -0.2810  0.1490  0.0732
  289SOL    HW1  866   0.458   1.554   1.811 -2.9620  1.6109  0.1459
  289SOL    HW2  867   0.469   1.393   1.864 -0.4760  0.5265  0.4594
  290SOL     OW  868   1.590   2.121   0.864  0.6336 -0.1179 -0.2188
  290SOL    HW1  869   1.559   2.026   0.898  0.5182 -0.3085 -0.0840
  290SOL    HW2  870   1.607   2.186   0.942 -1.8622 -0.5338  0.0971
  291SOL     OW  871   1.725   2.811   3.063 -0.4125 -0.3627 -0.1497
  291SOL    HW1  872   1.686   2.881   2.997 -0.0117  2.2059 -4.4387
  291SOL    HW2  873   1.764   2.732   3.007 -1.7388 -1.1753 -1.0185
  292SOL     OW  874   1.157   0.459   1.807 -0.6141 -0.4373  0.0562
  292SOL    HW1  875   1.184   0.553   1.775 -1.7491  1.1550 -1.7110
  292SOL    HW2  876   1.057   0.459   1.835 -0.4443 -3.3232  0.1315
  293SOL     OW  877   1.788   2.449   0.712 -0.6059 -0.5090 -0.1078
  293SOL    HW1  878   1.812   2.354   0.740 -0.2208 -1.3094  2.0866
  293SOL    HW2  879   1.768   2.499   0.800  0.8310 -2.5974 -0.7949
  294SOL     OW  880   0.469   0.572   2.355 -0.4917 -0.0562  0.4535
  294SOL    HW1  881   0.461   0.649   2.419  0.7436  0.3339 -2.1092
  294SOL    HW2  882   0.420   0.492   2.397  0.5425  1.3267  3.3794
  295SOL     OW  883   1.551   1.772   0.936  0.1178 -0.0504 -0.0323
  295SOL    HW1  884   1.650   1.795   0.945  1.7511  1.9206 -0.0845
  295SOL    HW2  885   1.512   1.788   0.844  1.1038  1.1745  2.0976
  296SOL     OW  886   2.175   1.929   3.079 -0.2558 -0.6397 -0.3598
  296SOL    HW1  887   2.255   1.980   0.013  1.1445  2.6265 -3.1069
  296SOL    HW2  888   2.105   1.890   0.034  2.3772  1.0376 -2.3823
  297SOL     OW  889   2.149   0.165   0.094  0.0611 -0.3492  0.1593
  297SOL    HW1  890   2.049   0.138   0.079 -1.1175  0.3040  0.9151
  297SOL    HW2  891   2.214   0.102   0.047 -1.2355 -0.2888 -1.0583
  298SOL     OW  892   1.157   2.482   2.393  0.3789  0.1681 -0.1093
  298SOL    HW1  893   1.184   2.491   2.494  0.7016 -0.4323  1.2636
  298SOL    HW2  894   1.235   2.453   2.333 -0.2412 -3.5041 -0.0655
  299SOL     OW  895   1.345   2.850   2.285  0.3178  0.1263 -0.0835
  299SOL    HW1  896   1.248   2.846   2.257  1.8681  0.0748 -0.1500
  299SOL    HW2  897   1.357   2.867   2.386  0.9537  0.5014  0.5154
  300SOL     OW  898   2.530   0.154   2.847 -0.3100  0.7756 -0.1965
  300SOL    HW1  899   2.557   0.101   2.767  1.3575  0.7468  1.1653
  300SOL    HW2  900   2.520   0.255   2.828 -1.7910  3.0643 -2.1298
  301SOL     OW  901   1.577   0.906   2.311 -0.1788  0.4462  0.1363
  301SOL    HW1  902   1.502   0.969   2.337 -0.5931  0.8267 -1.9563
  301SOL    HW2  903   1.610   0.921   2.218  0.4575 -0.1282  0.4809
  302SOL     OW  904   2.355   2.389   0.286  0.4232  0.5418 -0.4124
  302SOL    HW1  905   2.424   2.315   0.302 -0.5560  0.0736  3.5703
  302SOL    HW2  906   2.364   2.474   0.344 -0.4810  2.3494  1.6135
  303SOL     OW  907   2.727   2.704   2.344 -0.0379  0.3605 -0.0365
  303SOL    HW1  908   2.824   2.678   2.320  0.2214 -1.4111  0.0031
  303SOL    HW2  909   2.700   2.667   2.439  0.0701  0.2828  3.0686
  304SOL     OW  910   2.786   0.752   1.759 -0.3214  0.2065  0.4993
  304SOL    HW1  911   2.861   0.815   1.780 -5.0522 -1.3070 -1.0181
  304SOL    HW2  912   2.799   0.658   1.799  0.2887  3.4890 -2.6495
  305SOL     OW  913   0.762   2.066   1.809  0.1558 -0.3131 -0.0383
  305SOL    HW1  914   0.738   2.140   1.741  0.0419  0.9377  0.4213
  305SOL    HW2  915   0.702   2.059   1.893 -1.2724 -3.5225 -0.1924
  306SOL     OW  916   0.012   1.055   1.672  0.0711  0.0470  1.2335
  306SOL    HW1  917   3.059   1.110   1.609 -0.1794 -0.8916 -0.7783
  306SOL    HW2  918   0.113   1.061   1.646  1.2494 -3.4278 -0.6616
  307SOL     OW  919   1.381   0.723   1.923 -0.7170  0.2825 -0.4596
  307SOL    HW1  920   1.359   0.816   1.908  2.3888 -2.8163 -0.1552
  307SOL    HW2  921   1.474   0.705   1.885  0.9027  0.1750  1.0118
  308SOL     OW  922   3.071   1.506   0.949 -0.1591 -1.0151 -0.1782
  308SOL    HW1  923   3.099   1.485   0.853  0.4328 -0.7533  1.4846
  308SOL    HW2  924   2.970   1.517   0.956  1.5862 -1.0657 -1.2108
  309SOL     OW  925   2.471   1.458   0.772  0.0313  0.0200 -0.3586
  309SOL    HW1  926   2.375   1.428   0.765  0.4547 -0.6524  3.3172
  309SOL    HW2  927   2.493   1.481   0.870 -1.5383 -0.0414  2.3054
  310SOL     OW  928   2.872   1.832   2.960 -0.2045 -0.3283  0.1543
  310SOL    HW1  929   2.835   1.925   2.933 -0.2897  0.2430  0.6790
  310SOL    HW2  930   2.804   1.756   2.958  1.7846 -0.6112  0.2074
  311SOL     OW  931   3.027   2.736   2.781 -0.4378  0.0873 -0.4120
  311SOL    HW1  932   2.949   2.671   2.795  0.3361 -1.9203  1.3392
  311SOL    HW2  933   3.106   2.718   2.844  1.7028  0.5651  0.5005
  312SOL     OW  934   2.144   1.907   0.798  0.2480  0.7093 -0.0883
  312SOL    HW1  935   2.083   1.846   0.742  0.3171 -1.2116  0.5020
  312SOL    HW2  936   2.244   1.884   0.793  0.0618  3.1937  0.0442
  313SOL     OW  937   2.631   0.085   0.896 -0.4682 -0.3703 -0.1144
  313SOL    HW1  938   2.596   0.010   0.952 -2.3084  1.3637  1.0949
  313SOL    HW2  939   2.560   0.102   0.827  0.8642 -2.2472  1.4798
  314SOL     OW  940   1.555   1.267   0.062 -0.3068  0.4791 -0.0520
  314SOL    HW1  941   1.548   1.183   0.125  0.1448 -3.2937  1.1415
  314SOL    HW2  942   1.656   1.277   0.042 -0.7356 -0.3918 -0.4803
  315SOL     OW  943   1.455   2.700   2.078  0.1350  0.3322 -0.1341
  315SOL    HW1  944   1.437   2.758   2.159 -2.9764 -1.4927  0.1342
  315SOL    HW2  945   1.372   2.704   2.021 -2.5167  0.9544  0.6806
  316SOL     OW  946   0.004   0.975   0.617  0.1574  0.1873 -0.5032
  316SOL    HW1  947   3.089   0.997   0.519  0.7697 -0.8192  2.8159
  316SOL    HW2  948   0.014   1.064   0.672  0.9182  1.0383  1.9704
  317SOL     OW  949   0.270   3.076   0.421  0.4395  0.5552 -0.5431
  317SOL    HW1  950   0.254   0.019   0.507 -0.1818  1.0068  0.4144
  317SOL    HW2  951   0.337   2.999   0.436  0.3862 -0.8754  1.2639
  318SOL     OW  952   2.106   2.282   0.438 -0.2241 -0.6900 -0.1543
  318SOL    HW1  953   2.161   2.207   0.486 -0.1240 -0.4883  2.3968
  318SOL    HW2  954   2.157   2.323   0.360 -1.4714  1.8593  0.4502
  319SOL     OW  955   0.933   1.577   2.785 -0.3716 -0.2488  0.0580
  319SOL    HW1  956   0.941   1.491   2.839 -0.5985 -1.6957 -0.1473
  319SOL    HW2  957   0.882   1.650   2.837 -3.1910 -1.0290 -1.8558
  320SOL     OW  958   0.272   2.613   2.047 -0.2125  0.1300  0.2225
  320SOL    HW1  959   0.309   2.607   1.951 -0.3376  0.1076 -0.3897
  320SOL    HW2  960   0.173   2.635   2.042  2.5148  2.3025 -2.2305
  321SOL     OW  961   1.513   2.608   2.796 -0.6226  0.5970 -0.3561
  321SOL    HW1  962   1.581   2.533   2.795  0.6940  1.2731  0.2523
  321SOL    HW2  963   1.447   2.592   2.869 -1.2882  2.2725  1.4975
  322SOL     OW  964   3.050   1.534   2.014  0.1902  0.2335 -0.6061
  322SOL    HW1  965   3.034   1.475   2.096  1.6044 -2.2366 -1.4922
  322SOL    HW2  966   3.058   1.475   1.934 -0.8927  1.8449  0.2653
  323SOL     OW  967   2.368   1.112   0.607 -0.7307 -0.3769  0.0859
  323SOL    HW1  968   2.272   1.066   0.616 -1.7351 -1.2360 -0.4161
  323SOL    HW2  969   2.446   1.044   0.588  0.7850 -1.4903  0.9034
  324SOL     OW  970   2.793   3.095   2.893 -0.0851  0.0572  0.2489
  324SOL    HW1  971   2.749   0.059   2.949 -0.3636 -2.1076 -1.8965
  324SOL    HW2  972   2.858   3.041   2.955  0.5039  1.2317  1.5585
  325SOL     OW  973   1.294   0.207   2.505 -0.4415 -0.5354  0.0514
  325SOL    HW1  974   1.262   0.303   2.525  0.3024  0.4608 -0.9121
  325SOL    HW2  975   1.293   0.143   2.581 -2.0217 -1.5149  2.3278
  326SOL     OW  976   2.242   3.010   1.543 -0.1994  0.1226 -0.7882
  326SOL    HW1  977   2.249   0.004   1.560 -0.4114  3.3933  1.1894
  326SOL    HW2  978   2.250   2.965   1.632 -1.2414  0.3707 -1.3625
  327SOL     OW  979   1.967   0.285   2.939 -0.4622 -0.3467  0.2603
  327SOL    HW1  980   1.964   0.197   2.992 -0.9950 -2.6928 -1.1004
  327SOL    HW2  981   1.888   0.347   2.963 -0.4051 -0.0298  4.2603
  328SOL     OW  982   0.112   1.113   2.530 -0.1200  0.1515 -0.2003
  328SOL    HW1  983   0.107   1.192   2.467 -0.5681 -0.8102  2.0686
  328SOL    HW2  984   0.014   1.094   2.554 -1.8353  0.3442 -2.4484
  329SOL     OW  985   1.791   3.073   1.795 -0.2486 -0.1575  0.0732
  329SOL    HW1  986   1.811   2.977   1.768  0.6565 -0.2952 -0.2363
  329SOL    HW2  987   1.850   3.095   1.873  2.0354 -0.2441  0.4216
  330SOL     OW  988   3.042   1.641   1.204 -0.3509 -0.2382  0.6591
  330SOL    HW1  989   3.055   1.571   1.130  1.3887 -1.0059  2.0821
  330SOL    HW2  990   2.988   1.601   1.279  0.4333 -0.3420  1.5192
  331SOL     OW  991   0.580   1.765   2.111  0.4338  0.4373  0.5029
  331SOL    HW1  992   0.679   1.751   2.118 -2.3961 -1.0610  0.5630
  331SOL    HW2  993   0.552   1.752   2.013  2.9526 -0.1746 -2.7857
  332SOL     OW  994   3.090   2.814   1.608 -0.1108  0.0893  0.5073
  332SOL    HW1  995   3.102   2.821   1.708  0.6255  0.1134 -2.3323
  332SOL    HW2  996   0.042   2.887   1.565  1.2258  1.4842  2.7055
  333SOL     OW  997   2.264   2.825   1.337  0.8805  0.2685  0.2252
  333SOL    HW1  998   2.272   2.881   1.420  1.5965  0.2775  0.2059
  333SOL    HW2  999   2.302   2.729   1.349 -2.9734  2.3420 -1.8367
  334SOL     OW 1000   0.779   1.834   1.055 -0.3006  0.6107 -0.3157
  334SOL    HW1 1001   0.802   1.737   1.076 -0.4439  1.8548  0.6826
  334SOL    HW2 1002   0.810   1.861   0.960  2.3573 -2.8378 -0.2669
  335SOL     OW 1003   3.079   2.438   0.005  0.1497 -0.5869 -0.0052
  335SOL    HW1 1004   0.036   2.403   3.038  1.9232 -0.7568 -0.2536
  335SOL    HW2 1005   2.989   2.465   3.082  1.7346  0.7082  1.9498
  336SOL     OW 1006   0.369   3.013   2.137  0.1193 -0.2163 -0.2396
  336SOL    HW1 1007   0.368   3.082   2.213  2.0895  1.4219 -0.8466
  336SOL    HW2 1008   0.440   2.941   2.153  0.2279 -1.8679  2.0826
  337SOL     OW 1009   2.341   2.064   2.776  0.2031 -0.4129  0.1411
  337SOL    HW1 1010   2.272   2.014   2.832  0.2256 -1.7978  1.2424
  337SOL    HW2 1011   2.381   2.140   2.829  3.8254  1.3681  0.0973
  338SOL     OW 1012   1.156   1.552   1.216  0.7948  0.3826 -0.2579
  338SOL    HW1 1013   1.071   1.613   1.213 -1.4143  0.4536  2.8028
  338SOL    HW2 1014   1.228   1.600   1.165 -3.6778  0.6609  2.0159
  339SOL     OW 1015   0.265   0.721   1.813 -0.1977 -0.1666  0.0199
  339SOL    HW1 1016   0.319   0.643   1.847  0.3445  1.1534 -2.7325
  339SOL    HW2 1017   0.309   0.813   1.836 -0.5530  1.1689 -1.1365
  340SOL     OW 1018   1.342   2.545   0.001 -0.0346  0.0542 -0.3627
  340SOL    HW1 1019   1.394   2.463   3.077 -0.5209  0.9130  0.0988
  340SOL    HW2 1020   1.277   2.577   3.039 -1.2321 -0.8511 -1.1926
  341SOL     OW 1021   1.729   1.496   1.154  0.2605 -0.2397 -0.5865
  341SOL    HW1 1022   1.759   1.569   1.216 -0.5379 -1.0584 -1.1038
  341SOL    HW2 1023   1.636   1.455   1.170  1.0123  1.3127 -0.9395
  342SOL     OW 1024   2.844   2.595   0.598 -0.0146  0.6894 -0.0392
  342SOL    HW1 1025   2.809   2.506   0.625 -1.6185  2.4900 -0.7881
  342SOL    HW2 1026   2.905   2.587   0.518 -0.1597  3.2725 -0.5878
  343SOL     OW 1027   1.557   2.324   1.042 -0.1803  0.4930  0.0242
  343SOL    HW1 1028   1.550   2.416   1.003  1.7365 -0.2684  0.6709
  343SOL    HW2 1029   1.461   2.289   1.058 -2.0857 -1.6618 -1.0367
  344SOL     OW 1030   2.131   2.593   0.792 -0.4549  0.0416  0.1213
  344SOL    HW1 1031   2.091   2.577   0.704  2.1875  2.7325  1.1395
  344SOL    HW2 1032   2.199   2.673   0.793 -0.6146 -0.2297  3.8761
  345SOL     OW 1033   2.703   2.059   2.905  0.3203 -0.0393 -0.8962
  345SOL    HW1 1034   2.606   2.080   2.930  2.0625 -0.3460 -1.2806
  345SOL    HW2 1035   2.774   2.118   2.939 -4.1476 -3.2577 -2.2162
  346SOL     OW 1036   2.779   1.718   0.777 -0.0807  0.0453  0.3386
  346SOL    HW1 1037   2.776   1.690   0.875  0.2807 -2.8959  1.9041
  346SOL    HW2 1038   2.787   1.632   0.729 -0.4066  0.3971  1.7461
  347SOL     OW 1039   2.290   2.507   1.342  0.2075 -0.1693  0.4155
  347SOL    HW1 1040   2.267   2.443   1.413  0.1861  2.8308 -1.7163
  347SOL    HW2 1041   2.387   2.495   1.310 -3.6206  0.0825  0.4795
  348SOL     OW 1042   0.591   1.746   2.680 -0.1339 -0.3577 -0.2490
  348SOL    HW1 1043   0.632   1.775   2.591  2.1211  2.5565 -1.7864
  348SOL    HW2 1044   0.665   1.748   2.753 -2.0723  0.0640 -1.3167
  349SOL     OW 1045   2.286   1.258   1.906 -1.0272 -0.8568 -0.7396
  349SOL    HW1 1046   2.221   1.292   1.833 -0.0838  4.0178  2.0129
  349SOL    HW2 1047   2.363   1.320   1.929 -0.2861  0.0846  3.2941
  350SOL     OW 1048   0.167   2.283   1.065  0.5962 -0.0037 -0.6990
  350SOL    HW1 1049   0.072   2.299   1.027 -0.4811  2.1745 -2.1148
  350SOL    HW2 1050   0.220   2.211   1.019 -0.2352  2.2015  1.5889
  351SOL     OW 1051   0.225   0.656   2.258  0.7402  0.2170 -0.3678
  351SOL    HW1 1052   0.219   0.682   2.355  0.9320 -0.2917  1.3206
  351SOL    HW2 1053   0.321   0.624   2.231 -0.5171 -1.9616  2.0139
  352SOL     OW 1054   0.668   2.230   1.620 -0.1946  0.2157 -0.2320
  352SOL    HW1 1055   0.632   2.327   1.626 -0.4806  1.7995  1.3413
  352SOL    HW2 1056   0.592   2.167   1.601  0.2010  1.7020 -1.3744
  353SOL     OW 1057   1.437   1.628   2.446  0.2103 -0.1963  0.3900
  353SOL    HW1 1058   1.378   1.644   2.364  1.3590 -0.1891  2.2902
  353SOL    HW2 1059   1.397   1.687   2.518  0.0194 -0.8766 -1.9667
  354SOL     OW 1060   1.502   0.709   0.739  0.4041  0.1327 -0.8057
  354SOL    HW1 1061   1.559   0.629   0.739 -1.1191  1.5459  1.1932
  354SOL    HW2 1062   1.452   0.721   0.650 -1.7667 -2.0748 -0.0559
  355SOL     OW 1063   2.581   0.934   0.539  0.5460  1.0989 -0.4037
  355SOL    HW1 1064   2.598   0.843   0.496  1.0222 -0.9438  0.5229
  355SOL    HW2 1065   2.653   1.002   0.528 -0.4500  0.2909 -1.4148
  356SOL     OW 1066   2.732   1.165   2.630 -0.5184 -0.4165  0.3861
  356SOL    HW1 1067   2.769   1.202   2.719  0.1735  1.9842  1.0111
  356SOL    HW2 1068   2.634   1.138   2.638 -0.9159  0.2042  1.7155
  357SOL     OW 1069   0.808   2.654   1.510  0.0866 -0.3821  0.7537
  357SOL    HW1 1070   0.805   2.620   1.415  1.0446  0.8848  0.6970
  357SOL    HW2 1071   0.890   2.720   1.515  1.8187  0.4538 -0.7199
  358SOL     OW 1072   2.522   1.049   1.912 -0.2541 -0.1806  0.0697
  358SOL    HW1 1073   2.451   1.121   1.915 -2.3101 -1.3589  1.5920
  358SOL    HW2 1074   2.492   0.976   1.852 -1.1301 -0.5526  1.0647
  359SOL     OW 1075   2.195   2.374   2.965  0.4136 -0.1224  0.0884
  359SOL    HW1 1076   2.219   2.438   3.041 -1.5388 -0.0952 -0.8071
  359SOL    HW2 1077   2.134   2.410   2.895  3.2609 -1.7718  3.3387
  360SOL     OW 1078   2.275   0.341   0.917 -0.0802 -0.4328  0.1054
  360SOL    HW1 1079   2.290   0.422   0.979 -1.5653  1.7331  1.1357
  360SOL    HW2 1080   2.192   0.291   0.931 -0.3556  0.0544  0.9705
  361SOL     OW 1081   2.022   2.914   0.923 -0.4355 -0.2343 -0.9017
  361SOL    HW1 1082   2.088   2.859   0.982 -1.7400 -1.7314  1.4637
  361SOL    HW2 1083   1.964   2.851   0.863  1.2754 -0.4461  2.3933
  362SOL     OW 1084   1.514   0.967   0.463  0.1390  0.0995 -0.1003
  362SOL    HW1 1085   1.445   0.890   0.448  0.0284 -1.2529  2.5079
  362SOL    HW2 1086   1.518   0.988   0.563  0.9993 -2.4437  2.3174
  363SOL     OW 1087   2.406   1.491   2.246 -0.2521  0.0056  0.6251
  363SOL    HW1 1088   2.497   1.445   2.250  0.0082 -0.0056 -1.9835
  363SOL    HW2 1089   2.336   1.418   2.225  3.2671  0.2835  1.1257
  364SOL     OW 1090   1.311   0.540   1.216  0.2007 -0.7374 -0.0905
  364SOL    HW1 1091   1.371   0.535   1.136  0.1654  1.0299 -1.5207
  364SOL    HW2 1092   1.339   0.471   1.281  0.8785  0.5121 -0.2901
  365SOL     OW 1093   0.172   2.986   0.887 -0.5629  0.0375 -0.3800
  365SOL    HW1 1094   0.186   2.895   0.839 -2.1410 -2.0108  1.9113
  365SOL    HW2 1095   0.071   2.998   0.912  0.3254 -0.2036 -0.7058
  366SOL     OW 1096   2.934   1.480   0.417 -0.2254  0.6586  0.1480
  366SOL    HW1 1097   3.028   1.445   0.393 -0.9731 -0.9575  0.6548
  366SOL    HW2 1098   2.911   1.563   0.361 -0.2754 -0.6458 -0.7961
  367SOL     OW 1099   2.830   2.489   3.022  0.4439 -0.4640  0.2077
  367SOL    HW1 1100   2.808   2.554   2.945 -2.2856  0.9102 -1.3663
  367SOL    HW2 1101   2.770   2.503   3.103 -1.7953  1.1040  0.8541
  368SOL     OW 1102   0.268   2.066   0.958  0.1533 -0.0158 -0.1931
  368SOL    HW1 1103   0.355   2.017   0.952 -0.4057 -0.4237 -1.7585
  368SOL    HW2 1104   0.188   2.004   0.943  0.9747 -0.4945 -0.4115
  369SOL     OW 1105   0.471   0.185   0.346  0.6256 -0.0140  0.5631
  369SOL    HW1 1106   0.421   0.100   0.357  0.7274 -1.4086  1.4106
  369SOL    HW2 1107   0.554   0.169   0.290 -2.3615  0.9209  1.7786
  370SOL     OW 1108   0.408   1.040   1.193  0.7820 -0.0837 -0.1138
  370SOL    HW1 1109   0.342   1.092   1.130 -0.0213 -0.6926  1.1896
  370SOL    HW2 1110   0.432   1.107   1.268 -0.0269  3.3805  3.5066
  371SOL     OW 1111   1.898   2.446   0.463  0.1684 -0.5312  0.1670
  371SOL    HW1 1112   1.983   2.387   0.461  4.3782 -1.6783 -0.7214
  371SOL    HW2 1113   1.843   2.421   0.547  1.3447 -1.2965  0.8214
  372SOL     OW 1114   0.396   0.891   2.873  0.1763 -0.4593 -0.4357
  372SOL    HW1 1115   0.390   0.950   2.791  0.6897 -1.1470 -1.2212
  372SOL    HW2 1116   0.415   0.957   2.958 -0.4724 -0.2152  1.4949
  373SOL     OW 1117   2.818   1.465   0.661  0.2661  0.1314 -0.1337
  373SOL    HW1 1118   2.844   1.460   0.563 -0.7457  0.9080 -1.9200
  373SOL    HW2 1119   2.719   1.444   0.682  0.1999 -0.2052  0.0635
  374SOL     OW 1120   0.298   2.449   0.385  0.0993  0.1067 -0.3026
  374SOL    HW1 1121   0.256   2.362   0.416 -0.7233  0.9648  1.1917
  374SOL    HW2 1122   0.281   2.459   0.286  0.5630  1.2315  2.3831
  375SOL     OW 1123   0.746   0.168   0.256 -0.5566 -0.1439 -0.3680
  375SOL    HW1 1124   0.823   0.122   0.309  0.0740 -0.0944  0.0699
  375SOL    HW2 1125   0.754   0.267   0.261  1.5120  2.2858 -0.9216
  376SOL     OW 1126   0.316   2.962   1.842  0.1342 -0.5426  0.3287
  376SOL    HW1 1127   0.252   3.038   1.813  1.6254 -0.4800 -0.3172
  376SOL    HW2 1128   0.337   2.969   1.939 -2.2747  1.5217 -0.5698
  377SOL     OW 1129   0.967   2.291   2.346  0.1044 -0.0742 -0.5770
  377SOL    HW1 1130   1.013   2.202   2.351  1.1164  1.2482 -4.2900
  377SOL    HW2 1131   1.036   2.364   2.358 -2.5023 -0.5074 -2.0552
  378SOL     OW 1132   1.086   0.829   0.528 -0.4374 -0.4449 -0.1681
  378SOL    HW1 1133   1.010   0.887   0.488 -4.2132  1.4866  0.2358
  378SOL    HW2 1134   1.064   0.731   0.545 -1.1780 -0.9351  0.7308
  379SOL     OW 1135   0.799   1.780   2.891  0.6501 -0.3114  0.9660
  379SOL    HW1 1136   0.751   1.783   2.981 -1.9281 -0.8525 -0.8684
  379SOL    HW2 1137   0.886   1.833   2.888  0.0099  0.5704 -1.7021
  380SOL     OW 1138   2.701   2.049   1.804  0.7055  0.1666 -0.4113
  380SOL    HW1 1139   2.685   1.953   1.844  2.3213 -3.4448  1.7063
  380SOL    HW2 1140   2.761   2.108   1.862 -2.1868 -0.0156  0.8289
  381SOL     OW 1141   0.283   1.206   1.775 -0.2526  0.2961 -0.0251
  381SOL    HW1 1142   0.336   1.289   1.791 -2.3288 -1.4595  0.1780
  381SOL    HW2 1143   0.298   1.174   1.680 -0.4502 -0.0281  0.4121
  382SOL     OW 1144   2.463   2.454   3.050 -0.1654 -0.0640 -0.3834
  382SOL    HW1 1145   2.377   2.497   3.081  2.2605 -2.6325  0.2091
  382SOL    HW2 1146   2.547   2.492   3.092  0.5662 -2.1412  0.2680
  383SOL     OW 1147   2.466   2.011   2.060  0.0268 -0.2474 -0.1165
  383SOL    HW1 1148   2.451   1.912   2.060 -0.9432  1.3332  1.2722
  383SOL    HW2 1149   2.557   2.042   2.099  1.5453  1.2918 -0.7469
  384SOL     OW 1150   0.741   2.236   2.181  0.6224 -0.1743  0.1555
  384SOL    HW1 1151   0.808   2.257   2.255  0.4281  1.5135  1.8234
  384SOL    HW2 1152   0.705   2.329   2.154 -1.0907 -0.7407  0.8306
  385SOL     OW 1153   2.695   2.044   1.041 -0.0911 -0.4786  0.0085
  385SOL    HW1 1154   2.615   2.014   0.987 -1.8601 -0.5162  1.9426
  385SOL    HW2 1155   2.753   1.965   1.067  2.4547 -4.1361  1.4929
  386SOL     OW 1156   1.851   0.306   0.192 -0.2921  0.1675 -0.4609
  386SOL    HW1 1157   1.939   0.319   0.146  0.7840  1.9179 -1.2149
  386SOL    HW2 1158   1.852   0.370   0.274  1.7596  0.7887 -0.3803
  387SOL     OW 1159   0.546   0.855   1.688  0.2263  0.2439  0.5481
  387SOL    HW1 1160   0.529   0.756   1.667  2.2565 -0.7564  0.8915
  387SOL    HW2 1161   0.482   0.895   1.762  0.3201  1.4166  0.1528
  388SOL     OW 1162   2.965   1.098   2.116 -0.1418  0.5092  0.3448
  388SOL    HW1 1163   2.988   1.183   2.164  0.9387 -3.3103  1.2490
  388SOL    HW2 1164   2.903   1.049   2.180 -0.3010 -0.8405 -0.7490
  389SOL     OW 1165   1.536   0.657   2.408 -0.2366  0.2027 -0.0599
  389SOL    HW1 1166   1.539   0.758   2.391  0.3711 -2.8120  0.9714
  389SOL    HW2 1167   1.504   0.613   2.323 -0.9520  0.6315 -0.2086
  390SOL     OW 1168   1.765   2.311   3.066 -0.3924 -0.3624  0.0141
  390SOL    HW1 1169   1.841   2.243   3.036  0.7000  0.9550  0.3651
  390SOL    HW2 1170   1.800   2.371   0.033 -2.0261 -0.8746 -2.5970
  391SOL     OW 1171   1.812   2.498   1.465  0.1121 -0.2612  0.2703
  391SOL    HW1 1172   1.776   2.435   1.394 -2.6011  0.1577  1.3819
  391SOL    HW2 1173   1.800   2.596   1.434  1.7558  0.5262  1.1779
  392SOL     OW 1174   2.751   2.611   1.362  0.4967  0.1772 -0.2317
  392SOL    HW1 1175   2.666   2.646   1.404  1.5944 -0.9519  1.7311
  392SOL    HW2 1176   2.833   2.677   1.366  1.1151  1.0859  1.7840
  393SOL     OW 1177   1.725   1.710   2.735 -0.6099  0.0456  0.5856
  393SOL    HW1 1178   1.824   1.739   2.714  1.5971  0.3768 -0.0239
  393SOL    HW2 1179   1.715   1.616   2.709  1.9364  0.3542 -1.3601
  394SOL     OW 1180   0.120   2.845   0.216  0.2947  0.2029 -0.1944
  394SOL    HW1 1181   0.096   2.858   0.115 -1.3272 -0.1930 -2.6723
  394SOL    HW2 1182   0.092   2.935   0.260  0.5637  1.8309 -0.1732
  395SOL     OW 1183   1.437   1.199   1.321  0.1532 -0.4967 -0.1214
  395SOL    HW1 1184   1.475   1.224   1.228  2.3789  2.6881 -3.6039
  395SOL    HW2 1185   1.342   1.237   1.331 -1.7205  0.8081 -1.6217
  396SOL     OW 1186   1.904   0.620   2.966  0.2780  0.1807 -0.3809
  396SOL    HW1 1187   1.892   0.582   2.872  0.2297 -0.7321  0.9784
  396SOL    HW2 1188   1.813   0.625   3.017  1.4201 -2.2667 -1.6032
  397SOL     OW 1189   0.141   0.812   2.917 -0.0632 -0.2352  0.3183
  397SOL    HW1 1190   0.091   0.800   2.825 -0.4310 -1.0645 -0.8407
  397SOL    HW2 1191   0.244   0.828   2.910  1.1060  2.6409 -0.0640
  398SOL     OW 1192   1.055   0.017   0.107  0.2775 -0.7106 -0.1022
  398SOL    HW1 1193   1.147   3.098   0.146  0.6387 -0.2029  1.9798
  398SOL    HW2 1194   1.030   3.089   0.014 -1.7898 -2.0630 -0.1271
  399SOL     OW 1195   2.135   3.018   2.152  0.0520  0.0377 -0.4509
  399SOL    HW1 1196   2.139   2.918   2.144 -2.6548 -0.4859  0.2488
  399SOL    HW2 1197   2.077   3.059   2.079 -1.1397 -2.1236 -1.0881
  400SOL     OW 1198   3.064   1.702   2.553 -0.0641  0.7877 -0.6434
  400SOL    HW1 1199   3.097   1.672   2.646  3.8518 -1.5901 -1.6753
  400SOL    HW2 1200   2.974   1.657   2.544 -2.2667 -0.0112 -0.0626
  401SOL     OW 1201   0.684   3.102   0.029 -0.4340 -0.0199 -0.1092
  401SOL    HW1 1202   0.733   0.047   0.102  1.1060  0.2768 -0.8352
  401SOL    HW2 1203   0.705   0.027   3.044 -0.4546 -1.4030  1.0908
  402SOL     OW 1204   0.256   2.503   1.618 -0.1612 -0.1650  0.2554
  402SOL    HW1 1205   0.308   2.499   1.531  0.4935  0.9532  0.9412
  402SOL    HW2 1206   0.306   2.568   1.681 -0.2453 -0.8985 -0.6192
  403SOL     OW 1207   0.808   1.422   1.283  0.1496 -0.1394  0.5806
  403SOL    HW1 1208   0.823   1.321   1.266 -1.3022 -1.0714  0.7035
  403SOL    HW2 1209   0.831   1.439   1.381 -0.4598 -1.1652 -0.3789
  404SOL     OW 1210   2.812   2.717   1.689 -0.2093 -0.0348  0.5080
  404SOL    HW1 1211   2.759   2.700   1.602  1.2158 -1.6307 -1.9219
  404SOL    HW2 1212   2.902   2.766   1.671  2.1779 -0.4316  0.2338
  405SOL     OW 1213   2.972   0.719   2.170 -0.3336 -0.1797  0.1090
  405SOL    HW1 1214   2.898   0.696   2.103  0.1351 -0.6008 -1.4052
  405SOL    HW2 1215   2.951   0.679   2.262  0.0283  0.0835  1.0224
  406SOL     OW 1216   1.679   2.398   2.822 -0.2458  0.1556 -0.0173
  406SOL    HW1 1217   1.707   2.360   2.911  0.4412  1.9688  1.0184
  406SOL    HW2 1218   1.698   2.332   2.750  0.0581  1.2838  2.8160
  407SOL     OW 1219   1.808   1.884   0.904 -0.7648  0.2243  0.2211
  407SOL    HW1 1220   1.811   1.923   1.001 -0.6033  1.1819 -1.9893
  407SOL    HW2 1221   1.838   1.785   0.909 -0.5777 -2.3704 -0.9069
  408SOL     OW 1222   0.592   0.324   2.003 -0.0169  0.1213  0.2308
  408SOL    HW1 1223   0.515   0.262   1.976  3.0075 -1.4299  0.6080
  408SOL    HW2 1224   0.671   0.273   2.043  1.1760  1.3948  1.1322
  409SOL     OW 1225   2.521   2.177   0.370 -0.3371  0.0371  0.2463
  409SOL    HW1 1226   2.483   2.151   0.463  1.5827  0.5689 -1.2404
  409SOL    HW2 1227   2.621   2.154   0.366  0.5541  0.4349 -2.8496
  410SOL     OW 1228   2.140   1.679   0.329  0.0952 -0.1729  0.4401
  410SOL    HW1 1229   2.228   1.698   0.281 -0.2080 -1.3645 -0.0872
  410SOL    HW2 1230   2.151   1.594   0.383  3.0189 -2.6014 -3.2032
  411SOL     OW 1231   0.120   0.728   0.613  0.0178  0.1025  0.1353
  411SOL    HW1 1232   0.213   0.711   0.660  0.9556  0.2159 -0.0391
  411SOL    HW2 1233   0.094   0.826   0.625  2.3392  0.6425  0.0864
  412SOL     OW 1234   1.925   0.443   0.453  0.1620  0.3849 -0.0622
  412SOL    HW1 1235   1.962   0.373   0.523  0.9482  1.1671  0.9183
  412SOL    HW2 1236   1.946   0.539   0.482  2.7509  0.9679 -1.7672
  413SOL     OW 1237   0.904   0.687   1.195  0.5152 -0.3209 -0.1334
  413SOL    HW1 1238   0.867   0.635   1.277 -0.0276 -2.1219 -0.0166
  413SOL    HW2 1239   0.930   0.777   1.229 -0.2993  2.5210 -0.9101
  414SOL     OW 1240   0.157   1.661   3.073 -0.0200  0.7363  0.3852
  414SOL    HW1 1241   0.128   1.580   0.022 -0.5059  0.7416  0.6384
  414SOL    HW2 1242   0.089   1.738   3.085 -1.8693  1.2980  1.3224
  415SOL     OW 1243   0.351   1.988   0.124 -0.6817  0.2271  0.4890
  415SOL    HW1 1244   0.382   2.078   0.154 -1.0571 -0.4570 -2.4534
  415SOL    HW2 1245   0.363   1.978   0.025 -0.8403 -1.5602  1.6928
  416SOL     OW 1246   1.650   0.577   0.323  0.7862  0.0736  0.3035
  416SOL    HW1 1247   1.666   0.674   0.341 -1.0816 -0.1919  0.3443
  416SOL    HW2 1248   1.598   0.540   0.399  0.9060  3.1994 -0.6247
  417SOL     OW 1249   0.348   0.912   0.940  0.1351 -0.6901  0.1105
  417SOL    HW1 1250   0.266   0.894   0.992  2.3643 -1.8407  1.4757
  417SOL    HW2 1251   0.429   0.944   0.995 -0.4377 -2.0234 -0.7771
  418SOL     OW 1252   2.461   1.149   2.643  0.0729  0.6767 -0.3175
  418SOL    HW1 1253   2.392   1.216   2.668 -1.9232  1.5065  2.4121
  418SOL    HW2 1254   2.456   1.062   2.696  2.1041 -0.6803 -2.9537
  419SOL     OW 1255   0.333   0.426   0.330  0.4007 -0.0011  0.8167
  419SOL    HW1 1256   0.373   0.488   0.396 -1.7744  0.9840 -2.5950
  419SOL    HW2 1257   0.379   0.333   0.326  0.2255 -0.9319 -0.1183
  420SOL     OW 1258   0.230   1.764   0.823 -0.5600 -0.1099 -0.2384
  420SOL    HW1 1259   0.254   1.682   0.883 -0.5260 -0.6043 -0.3676
  420SOL    HW2 1260   0.316   1.823   0.809  0.9768  2.3161 -3.4537
  421SOL     OW 1261   0.280   2.027   0.502  0.1026  0.3214  0.0870
  421SOL    HW1 1262   0.378   2.028   0.526  2.2702  1.1018 -0.3901
  421SOL    HW2 1263   0.233   1.943   0.529  1.4799  1.9255 -3.0701
  422SOL     OW 1264   2.759   0.656   1.492  0.0308 -0.4351  0.1381
  422SOL    HW1 1265   2.851   0.615   1.463  0.0125  1.4535 -2.9977
  422SOL    HW2 1266   2.761   0.714   1.581 -0.3950  0.6785 -0.4993
  423SOL     OW 1267   1.863   1.639   0.948  0.3738 -0.0258  0.3296
  423SOL    HW1 1268   1.814   1.571   1.006  1.3039 -0.7398  0.3449
  423SOL    HW2 1269   1.879   1.595   0.853 -0.3024 -0.4232 -1.8827
  424SOL     OW 1270   1.842   1.069   0.347 -0.0458  0.3027  0.6208
  424SOL    HW1 1271   1.935   1.116   0.372  3.4674 -3.1701  0.0915
  424SOL    HW2 1272   1.764   1.133   0.377 -1.6305  2.9732 -0.9621
  425SOL     OW 1273   3.064   3.041   2.029 -0.3863  0.5301  0.0372
  425SOL    HW1 1274   0.012   0.012   2.058  0.3237  0.1172  0.0284
  425SOL    HW2 1275   2.985   3.018   2.087 -0.8136 -1.5574 -2.0428
  426SOL     OW 1276   2.461   2.761   3.098  0.4580  0.2726  0.4384
  426SOL    HW1 1277   2.469   2.745   0.090  0.5697  0.6309  1.2004
  426SOL    HW2 1278   2.543   2.814   3.067  0.3620 -0.4085  0.2484
  427SOL     OW 1279   0.933   0.841   2.478 -0.3712  0.2357 -0.3015
  427SOL    HW1 1280   0.945   0.809   2.577 -0.0277  1.6039  2.7569
  427SOL    HW2 1281   1.015   0.804   2.433 -0.3442 -1.1157 -1.0522
  428SOL     OW 1282   2.094   0.740   2.506  0.0256 -0.0289 -0.3442
  428SOL    HW1 1283   2.112   0.831   2.462 -1.4652 -0.6006  2.0807
  428SOL    HW2 1284   1.991   0.724   2.513  2.0593 -2.0598 -3.3768
  429SOL     OW 1285   2.587   0.349   0.575  0.7920 -0.0444  0.5020
  429SOL    HW1 1286   2.633   0.274   0.523  3.2317  0.0426 -0.2224
  429SOL    HW2 1287   2.505   0.324   0.627  1.8482 -0.2197  1.1503
  430SOL     OW 1288   1.963   1.333   2.227  0.0245  0.1143 -0.4218
  430SOL    HW1 1289   2.022   1.289   2.302  2.8430 -2.4447  0.9442
  430SOL    HW2 1290   1.973   1.279   2.140 -0.0356  0.8723  0.5172
  431SOL     OW 1291   3.083   2.071   1.314 -0.0886 -0.2712 -0.1972
  431SOL    HW1 1292   3.091   2.170   1.294 -1.2063  1.4425  0.2412
  431SOL    HW2 1293   3.008   2.054   1.383  0.8421  0.8258  1.8746
  432SOL     OW 1294   1.375   2.916   2.542  0.2437  0.2284  0.3455
  432SOL    HW1 1295   1.312   2.987   2.574  0.3226  1.3102  1.8170
  432SOL    HW2 1296   1.456   2.933   2.597 -0.2859  1.6425  1.5410
  433SOL     OW 1297   1.570   2.941   1.573 -0.1278 -0.1709  0.5591
  433SOL    HW1 1298   1.665   2.910   1.595 -2.2908  2.5459  0.5441
  433SOL    HW2 1299   1.574   2.995   1.488 -0.0675  0.0722  1.7673
  434SOL     OW 1300   2.974   2.624   2.257  0.3943 -0.2537  0.0907
  434SOL    HW1 1301   3.025   2.698   2.303  0.0088 -1.3190 -0.5246
  434SOL    HW2 1302   3.023   2.615   2.168  0.8234 -0.8164  2.2349
  435SOL     OW 1303   3.051   1.833   0.488 -0.3622 -0.7148  0.8277
  435SOL    HW1 1304   0.011   1.772   0.530  0.7463 -1.8831 -1.7431
  435SOL    HW2 1305   3.068   1.838   0.385  1.5939  1.2044 -0.6174
  436SOL     OW 1306   1.115   1.231   1.614 -0.2975 -0.0149 -0.0418
  436SOL    HW1 1307   1.111   1.133   1.598 -0.3169  1.2958  2.1832
  436SOL    HW2 1308   1.076   1.249   1.708 -1.4156 -1.6470 -2.3106
  437SOL     OW 1309   0.512   0.214   2.890  0.4557  0.5880  0.3445
  437SOL    HW1 1310   0.535   0.287   2.957 -0.1310 -1.6054 -1.5592
  437SOL    HW2 1311   0.421   0.166   2.915 -2.1573 -1.5460  2.1858
  438SOL     OW 1312   0.738   1.780   1.774 -0.2464  0.0023 -0.3918
  438SOL    HW1 1313   0.749   1.886   1.783  0.2357 -2.5875 -0.1629
  438SOL    HW2 1314   0.748   1.751   1.678  1.2370 -1.3000  2.2381
  439SOL     OW 1315   1.886   1.028   2.727 -0.8094 -0.3601  0.4434
  439SOL    HW1 1316   1.985   1.006   2.734 -2.1126 -0.3666 -2.2406
  439SOL    HW2 1317   1.856   1.025   2.631  2.4431  1.8558  1.6213
  440SOL     OW 1318   1.044   1.000   0.026  0.1202 -0.0077 -0.2506
  440SOL    HW1 1319   1.123   0.957   0.074  1.4515  0.2317  0.4069
  440SOL    HW2 1320   0.957   1.005   0.091  0.1230  0.8803  1.6450
  441SOL     OW 1321   0.444   2.879   1.629 -0.4279  0.6772  0.2414
  441SOL    HW1 1322   0.513   2.951   1.614  1.3522  0.1845 -1.9061
  441SOL    HW2 1323   0.386   2.909   1.713 -0.7616 -0.7262 -0.0685
  442SOL     OW 1324   2.282   2.396   0.857 -0.2057 -0.4746  0.0507
  442SOL    HW1 1325   2.238   2.308   0.823  1.9962 -2.6760 -3.7118
  442SOL    HW2 1326   2.224   2.481   0.854 -0.5603 -0.0421  2.7286
  443SOL     OW 1327   2.796   1.327   2.422  0.3463 -0.1026 -0.0245
  443SOL    HW1 1328   2.782   1.261   2.500  0.8061  0.3038 -0.6255
  443SOL    HW2 1329   2.717   1.330   2.355  0.7750  1.2277  0.4585
  444SOL     OW 1330   1.324   0.926   2.739 -0.1033 -0.4831  0.0346
  444SOL    HW1 1331   1.389   0.863   2.781 -1.4546  1.2120  1.8610
  444SOL    HW2 1332   1.233   0.918   2.782 -0.4598  2.4880  1.2270
  445SOL     OW 1333   2.270   2.855   1.776 -0.1082  0.0966 -0.0911
  445SOL    HW1 1334   2.319   2.848   1.864 -2.8035 -0.9449  0.4051
  445SOL    HW2 1335   2.292   2.782   1.708  1.5767  1.0285 -0.7395
  446SOL     OW 1336   2.770   1.937   0.335 -0.0498 -0.4311  0.0357
  446SOL    HW1 1337   2.848   1.872   0.343  0.2534  0.7270 -1.5428
  446SOL    HW2 1338   2.760   2.002   0.415  0.7435  2.4236  3.0494
  447SOL     OW 1339   1.214   2.668   1.513  0.3086 -0.0040  0.3895
  447SOL    HW1 1340   1.296   2.691   1.573  0.5506  0.3252  1.7564
  447SOL    HW2 1341   1.143   2.731   1.543  2.2129 -0.5559  1.8024
  448SOL     OW 1342   1.793   1.740   1.920  0.0112  0.4109  0.2779
  448SOL    HW1 1343   1.735   1.825   1.919  2.8757  1.0178 -1.3888
  448SOL    HW2 1344   1.747   1.662   1.966 -1.6190 -1.5740 -0.8954
  449SOL     OW 1345   0.163   1.996   2.333 -0.4518 -0.0751 -0.4076
  449SOL    HW1 1346   0.201   2.095   2.335  1.2730  1.7456 -0.3275
  449SOL    HW2 1347   0.230   1.930   2.292  2.5463 -2.0381  0.1396
  450SOL     OW 1348   2.830   1.581   2.532 -0.3450 -0.0575  0.6691
  450SOL    HW1 1349   2.805   1.495   2.487  1.5092  1.0417  1.0975
  450SOL    HW2 1350   2.752   1.648   2.520 -1.5273  0.8091  0.4563
  451SOL     OW 1351   2.214   0.579   1.481  0.5144 -0.2028  0.3062
  451SOL    HW1 1352   2.290   0.512   1.463 -0.6585 -1.8886  0.9512
  451SOL    HW2 1353   2.169   0.562   1.573 -0.0985  2.2149 -1.4979
  452SOL     OW 1354   1.036   1.816   1.213  0.0607  0.8046  0.2162
  452SOL    HW1 1355   1.017   1.873   1.300 -2.1488  2.2777  3.6567
  452SOL    HW2 1356   0.957   1.832   1.150 -1.0503 -0.0843  0.1253
  453SOL     OW 1357   1.163   2.178   0.666  0.1036 -0.0719 -0.0275
  453SOL    HW1 1358   1.262   2.197   0.667  2.3525 -0.7859  1.3749
  453SOL    HW2 1359   1.116   2.262   0.697  0.3643 -2.9757 -2.6871
  454SOL     OW 1360   0.207   1.233   0.548 -0.1156 -0.1739 -0.3563
  454SOL    HW1 1361   0.286   1.274   0.596 -1.2027 -0.0885 -2.7982
  454SOL    HW2 1362   0.134   1.206   0.613  0.1293  1.4681 -1.2116
  455SOL     OW 1363   0.923   1.043   0.447  1.0918 -0.3248  0.3506
  455SOL    HW1 1364   0.910   1.063   0.347 -0.4975 -0.3145 -1.2239
  455SOL    HW2 1365   0.856   1.098   0.503  0.5510  0.2551  2.9521
  456SOL     OW 1366   2.134   2.374   1.170  0.5504  0.1238  0.2465
  456SOL    HW1 1367   2.178   2.428   1.247 -1.7214 -0.9477  0.3741
  456SOL    HW2 1368   2.082   2.437   1.109 -1.2495  2.1353 -2.7364
  457SOL     OW 1369   1.521   2.880   2.873  0.0536  0.0179 -0.3709
  457SOL    HW1 1370   1.522   2.782   2.847 -1.2811  0.9682  1.5354
  457SOL    HW2 1371   1.432   2.915   2.907  0.1014 -0.2690  0.1968
  458SOL     OW 1372   2.667   0.227   3.078  0.0955  0.0191 -0.0301
  458SOL    HW1 1373   2.612   0.201   2.997  0.3346 -0.6770 -1.4088
  458SOL    HW2 1374   2.624   0.190   0.053  2.0133 -0.5981  1.1332
  459SOL     OW 1375   2.311   0.356   2.263 -0.3857 -0.0100  0.3969
  459SOL    HW1 1376   2.235   0.425   2.250  0.0614 -0.4964 -0.1934
  459SOL    HW2 1377   2.405   0.403   2.272  0.9143 -0.1777 -1.4731
  460SOL     OW 1378   0.020   0.725   2.703 -0.0735 -0.5220 -0.2342
  460SOL    HW1 1379   0.038   0.625   2.715  1.2050 -2.2672  1.6198
  460SOL    HW2 1380   3.034   0.744   2.730  1.4098  2.4273  1.6609
  461SOL     OW 1381   3.071   2.132   0.699  0.3619  0.4554  0.3441
  461SOL    HW1 1382   0.006   2.061   0.766  1.4706  0.0549  1.7876
  461SOL    HW2 1383   2.981   2.093   0.676  1.8745 -0.9141 -0.8266
  462SOL     OW 1384   0.028   0.394   1.041 -0.2423 -0.0825 -0.7876
  462SOL    HW1 1385   3.067   0.450   0.993  2.5883 -0.2382 -0.9090
  462SOL    HW2 1386   3.100   0.364   1.135 -0.8718 -0.8284  2.3795
  463SOL     OW 1387   2.239   1.221   0.168 -0.9130  0.3946  0.0142
  463SOL    HW1 1388   2.301   1.223   0.251 -1.5365  0.8412  1.1240
  463SOL    HW2 1389   2.258   1.307   0.113 -0.5781 -2.3119 -2.9416
  464SOL     OW 1390   0.824   2.992   1.384  0.3073 -0.3573 -0.3080
  464SOL    HW1 1391   0.830   3.092   1.365 -1.9269 -1.6969 -0.9652
  464SOL    HW2 1392   0.742   2.959   1.334 -2.0359 -0.8245 -3.5433
  465SOL     OW 1393   1.366   0.332   1.407 -0.5816 -0.0725  0.0046
  465SOL    HW1 1394   1.461   0.311   1.451  2.4604 -1.5213  1.9475
  465SOL    HW2 1395   1.297   0.345   1.482  2.5959  0.7229 -1.2673
  466SOL     OW 1396   1.609   2.434   1.960 -0.2023 -0.3178 -0.1378
  466SOL    HW1 1397   1.705   2.439   1.998 -0.1899 -0.1439 -2.6788
  466SOL    HW2 1398   1.555   2.493   2.015  3.2931 -2.6397 -2.8277
  467SOL     OW 1399   0.600   2.487   1.635 -0.2510  0.3324 -0.2567
  467SOL    HW1 1400   0.521   2.498   1.571 -3.2034 -1.8842  0.3412
  467SOL    HW2 1401   0.679   2.538   1.594  2.1096 -1.8202 -1.8404
  468SOL     OW 1402   2.848   1.721   2.092  0.1499 -0.3011  0.3866
  468SOL    HW1 1403   2.945   1.711   2.068  0.0188 -1.2657  2.7151
  468SOL    HW2 1404   2.824   1.765   2.180 -0.8139  0.7802 -0.2591
  469SOL     OW 1405   0.883   1.881   0.796 -0.3183 -0.0515 -0.6543
  469SOL    HW1 1406   0.870   1.981   0.816 -0.3269  0.4078  1.0574
  469SOL    HW2 1407   0.943   1.868   0.712  0.5569  0.3257 -3.4381
  470SOL     OW 1408   2.142   1.240   2.437 -0.0696  0.2663 -0.0914
  470SOL    HW1 1409   2.127   1.141   2.418 -3.2462  2.0826 -1.1609
  470SOL    HW2 1410   2.149   1.259   2.536  0.3845 -1.7232  3.4512
  471SOL     OW 1411   0.237   2.462   0.135  0.3290  0.5843 -0.4961
  471SOL    HW1 1412   0.150   2.440   0.087 -0.3262  1.7892  0.4171
  471SOL    HW2 1413   0.309   2.487   0.072  3.3678 -2.9672  3.1679
  472SOL     OW 1414   0.022   2.812   2.411  0.3160 -0.8582  0.3668
  472SOL    HW1 1415   0.120   2.809   2.444 -1.1340 -1.1020 -0.2339
  472SOL    HW2 1416   3.086   2.904   2.432  1.3595  1.5085 -0.1419
  473SOL     OW 1417   0.407   2.864   0.210  0.0505  0.0990 -0.2346
  473SOL    HW1 1418   0.311   2.833   0.212  0.2727 -0.5847 -1.2920
  473SOL    HW2 1419   0.412   2.937   0.138 -0.2493  0.8794  1.6525
  474SOL     OW 1420   1.569   2.900   0.964  0.4697 -0.1368  0.3203
  474SOL    HW1 1421   1.608   2.860   0.874 -3.2749  0.4187 -2.7237
  474SOL    HW2 1422   1.609   2.860   1.044 -2.5810  0.7349 -0.8505
  475SOL     OW 1423   1.469   0.004   1.340 -0.2321  0.3548 -0.2079
  475SOL    HW1 1424   1.417   3.076   1.259  0.0036  1.1795  2.4129
  475SOL    HW2 1425   1.411   0.066   1.395  0.1254  1.6661 -0.3940
  476SOL     OW 1426   0.529   1.193   0.921  0.1735 -0.0089  0.2291
  476SOL    HW1 1427   0.565   1.272   0.980  2.6618  2.4302  2.7907
  476SOL    HW2 1428   0.568   1.103   0.949 -2.7206  0.9584  2.3539
  477SOL     OW 1429   0.444   1.923   0.757  0.0316 -0.3398 -0.2198
  477SOL    HW1 1430   0.543   1.891   0.756  1.4700  1.3088  0.1913
  477SOL    HW2 1431   0.436   2.025   0.749  0.3550 -5.8122  0.7063
  478SOL     OW 1432   0.064   2.524   2.635  0.1359 -0.7837 -0.3480
  478SOL    HW1 1433   0.059   2.619   2.670 -1.6751 -2.0986 -0.5897
  478SOL    HW2 1434   3.087   2.498   2.585  0.0018 -3.3730  1.9182
  479SOL     OW 1435   3.022   0.576   1.439 -0.1730  0.0700  0.0173
  479SOL    HW1 1436   3.033   0.677   1.414  2.4222  2.9180  0.0937
  479SOL    HW2 1437   3.065   0.564   1.530 -1.2762  0.4907  0.8605
  480SOL     OW 1438   2.683   2.467   0.131  0.2216 -0.7005 -0.4595
  480SOL    HW1 1439   2.707   2.368   0.137 -0.3963  1.3006  0.0345
  480SOL    HW2 1440   2.701   2.510   0.225 -0.4168  2.8902  0.8225
  481SOL     OW 1441   2.352   1.966   1.735  0.0288  0.4787 -0.4688
  481SOL    HW1 1442   2.411   1.990   1.818  2.0017  1.9374 -0.9787
  481SOL    HW2 1443   2.329   2.047   1.676  2.2964  0.1257  0.1993
  482SOL     OW 1444   1.898   1.912   2.417  0.2878 -0.6268  0.3230
  482SOL    HW1 1445   1.977   1.945   2.361  0.9343 -1.3970  0.2633
  482SOL    HW2 1446   1.820   1.903   2.356  2.5054  0.7694 -0.8970
  483SOL     OW 1447   1.037   1.196   1.854 -0.3597  0.4772  0.3360
  483SOL    HW1 1448   1.091   1.109   1.864 -0.3000  0.3445 -0.4378
  483SOL    HW2 1449   1.054   1.265   1.927 -0.3173 -1.5084  2.2047
  484SOL     OW 1450   0.288   0.606   1.414  0.1941  0.1519  0.1628
  484SOL    HW1 1451   0.268   0.521   1.467  3.5646 -1.3852 -2.1550
  484SOL    HW2 1452   0.227   0.611   1.331 -3.0051  3.2557  0.3623
  485SOL     OW 1453   2.412   1.032   3.084  0.3638  0.0060  0.0978
  485SOL    HW1 1454   2.498   1.071   0.009  1.2244  1.1611  0.9395
  485SOL    HW2 1455   2.349   1.018   0.057  0.5826 -1.1196 -2.0053
  486SOL     OW 1456   1.521   0.266   2.066 -0.0043 -0.0132 -0.3790
  486SOL    HW1 1457   1.516   0.180   2.010 -1.6377  0.7580  3.0206
  486SOL    HW2 1458   1.512   0.243   2.167  1.0964 -1.1671  0.4057
  487SOL     OW 1459   0.886   2.191   1.470  0.2018  0.3908 -0.2520
  487SOL    HW1 1460   0.819   2.210   1.544 -0.0662  2.0260 -2.0758
  487SOL    HW2 1461   0.973   2.250   1.480  0.7469  1.0871  1.1091
  488SOL     OW 1462   2.364   1.397   0.001  0.1969 -0.3336  0.0665
  488SOL    HW1 1463   2.465   1.387   3.085  2.9447 -0.6794 -1.7044
  488SOL    HW2 1464   2.317   1.446   3.031 -0.0650  0.0957  0.4192
  489SOL     OW 1465   2.000   2.686   0.553 -0.1260  0.2171 -0.2767
  489SOL    HW1 1466   1.952   2.620   0.489  1.3290  3.5323  0.1060
  489SOL    HW2 1467   2.064   2.745   0.507  0.2546 -2.3991  0.5564
  490SOL     OW 1468   0.680   2.314   2.960  0.2157 -0.2452  0.0697
  490SOL    HW1 1469   0.604   2.267   2.916  2.6604 -1.8325 -3.5576
  490SOL    HW2 1470   0.650   2.385   3.026  0.3401 -0.3629 -0.2601
  491SOL     OW 1471   1.166   1.306   1.331 -0.3119  0.1342 -0.7343
  491SOL    HW1 1472   1.157   1.398   1.296  1.8082 -3.8303  0.5231
  491SOL    HW2 1473   1.157   1.295   1.431 -0.9442 -1.9406 -2.8850
  492SOL     OW 1474   1.096   0.377   2.226  0.7951 -0.2593  0.3402
  492SOL    HW1 1475   1.127   0.457   2.278 -0.4631 -1.0077  1.8739
  492SOL    HW2 1476   1.143   0.364   2.141  1.7204  4.3786  1.2599
  493SOL     OW 1477   1.986   1.855   0.579 -0.4298 -0.6563  0.1932
  493SOL    HW1 1478   2.003   1.808   0.490 -0.1824 -4.1408 -0.2501
  493SOL    HW2 1479   1.890   1.874   0.591  2.8355 -1.7435 -0.0202
  494SOL     OW 1480   0.829   1.338   0.772 -0.2244 -0.1859  0.0001
  494SOL    HW1 1481   0.793   1.272   0.698 -0.1420  0.6977  1.1144
  494SOL    HW2 1482   0.757   1.402   0.808  0.2730 -2.9392 -3.1898
  495SOL     OW 1483   2.465   2.371   0.650  0.0574 -0.3267  0.0063
  495SOL    HW1 1484   2.477   2.268   0.655 -0.2993 -1.5735  2.3185
  495SOL    HW2 1485   2.399   2.404   0.722  0.7540 -2.1316  0.0203
  496SOL     OW 1486   2.550   0.082   1.369 -0.3927  0.0188 -0.2318
  496SOL    HW1 1487   2.616   0.159   1.349  1.8237  4.2121 -4.1682
  496SOL    HW2 1488   2.454   0.107   1.339  0.3430 -0.0602  0.6012
  497SOL     OW 1489   2.406   1.017   2.376  0.0101 -0.8709  0.4205
  497SOL    HW1 1490   2.456   1.041   2.292 -1.5440  0.0985 -1.1380
  497SOL    HW2 1491   2.405   1.093   2.442  1.4161  0.5636 -1.6115
  498SOL     OW 1492   0.459   2.262   1.265 -0.1478  0.1718 -0.1454
  498SOL    HW1 1493   0.372   2.208   1.258  0.0941  1.0569  0.7737
  498SOL    HW2 1494   0.482   2.315   1.181  3.2465  0.7059  0.0874
  499SOL     OW 1495   1.245   2.725   1.897  0.1541  0.3064  0.2937
  499SOL    HW1 1496   1.225   2.820   1.929  2.6881  0.1409  1.9921
  499SOL    HW2 1497   1.300   2.733   1.812  0.5145 -0.1094  3.3338
  500SOL     OW 1498   0.707   2.011   0.113 -0.2136 -0.1221  0.1109
  500SOL    HW1 1499   0.758   2.038   0.028 -0.3332 -0.7878  2.2962
  500SOL    HW2 1500   0.696   1.907   0.110  0.3714  0.0152  0.8146
  501SOL     OW 1501   1.872   3.080   1.085 -0.2549 -0.4846  0.1966
  501SOL    HW1 1502   1.923   3.024   1.015  1.8206  1.6804  3.4234
  501SOL    HW2 1503   1.822   3.015   1.141 -2.1473  1.8943 -1.1386
  502SOL     OW 1504   2.785   0.505   1.856  0.4513 -0.2868 -0.0633
  502SOL    HW1 1505   2.856   0.438   1.826 -0.7283  0.9114  0.4291
  502SOL    HW2 1506   2.762   0.490   1.950  0.6648  0.3492 -1.9162
  503SOL     OW 1507   2.772   1.143   1.894 -0.0903 -0.2631 -0.1724
  503SOL    HW1 1508   2.682   1.102   1.902  3.8815  0.1717  1.5453
  503SOL    HW2 1509   2.827   1.138   1.977 -0.5962  2.0307 -4.8704
  504SOL     OW 1510   1.601   1.031   1.920  0.0661  0.7407 -0.0686
  504SOL    HW1 1511   1.638   0.945   1.968 -1.2573 -1.7901 -1.2486
  504SOL    HW2 1512   1.513   1.055   1.967 -0.9066 -0.0518  4.0466
  505SOL     OW 1513   0.828   0.044   1.777  0.3925 -0.3803 -0.0017
  505SOL    HW1 1514   0.840   3.086   1.855  0.3060  1.1361  1.6423
  505SOL    HW2 1515   0.911   0.102   1.783 -1.1561  0.4796 -0.9254
  506SOL     OW 1516   0.244   0.331   0.726  0.0332  0.5147  0.2906
  506SOL    HW1 1517   0.335   0.326   0.677  0.1701 -0.8367  0.2998
  506SOL    HW2 1518   0.256   0.372   0.816 -2.3873 -0.8541 -1.6407
  507SOL     OW 1519   2.539   0.578   0.009  0.4341 -0.5624 -0.9864
  507SOL    HW1 1520   2.528   0.515   0.087 -0.0677  1.4454 -3.5315
  507SOL    HW2 1521   2.456   0.573   3.055  0.3441 -1.2378 -0.8546
  508SOL     OW 1522   1.802   0.345   2.039 -0.0071 -0.3871 -0.4004
  508SOL    HW1 1523   1.711   0.299   2.052 -1.9456 -0.3473  1.3595
  508SOL    HW2 1524   1.806   0.403   1.957 -2.4420 -0.7933  2.1417
  509SOL     OW 1525   1.554   1.644   1.531 -0.3686 -0.0028  0.5585
  509SOL    HW1 1526   1.587   1.562   1.576 -0.9102 -0.4343 -0.1410
  509SOL    HW2 1527   1.456   1.651   1.517  0.1440  1.9146  0.9129
  510SOL     OW 1528   2.803   1.491   0.965 -0.0083 -0.2409  0.2950
  510SOL    HW1 1529   2.818   1.398   0.916  0.6646  2.3417 -0.0635
  510SOL    HW2 1530   2.716   1.488   1.012  1.0875  0.4110 -5.0179
  511SOL     OW 1531   1.765   1.986   1.208  0.2060  0.2852 -0.0317
  511SOL    HW1 1532   1.806   1.929   1.282 -0.5115 -1.1904  3.4318
  511SOL    HW2 1533   1.813   2.076   1.203  1.3723 -0.7955 -1.5907
  512SOL     OW 1534   0.291   1.542   0.391  0.1186 -0.3295  0.4433
  512SOL    HW1 1535   0.380   1.494   0.397  1.7142  1.7640 -1.7545
  512SOL    HW2 1536   0.309   1.640   0.347 -0.0834  3.8027 -0.3555
  513SOL     OW 1537   0.054   1.861   0.217  0.5942  0.0183 -0.4573
  513SOL    HW1 1538   0.036   1.906   0.125 -0.1298  1.3240 -1.6606
  513SOL    HW2 1539   0.151   1.836   0.214 -1.0994 -2.1907  0.1581
  514SOL     OW 1540   2.637   1.776   2.534  0.0907  0.1316  0.5976
  514SOL    HW1 1541   2.664   1.870   2.578  1.0096  1.8405  0.5020
  514SOL    HW2 1542   2.535   1.761   2.540  0.1936  0.2271 -2.0676
  515SOL     OW 1543   2.018   1.193   0.858  0.0661  0.0724 -0.4581
  515SOL    HW1 1544   1.930   1.182   0.815  0.7462  1.1776 -0.9921
  515SOL    HW2 1545   2.071   1.106   0.833 -0.0917  1.3326 -0.6878
  516SOL     OW 1546   1.885   2.761   0.179  0.3795 -0.2013 -0.6653
  516SOL    HW1 1547   1.831   2.819   0.115  1.9219  1.3762 -3.4626
  516SOL    HW2 1548   1.831   2.733   0.261  0.9952 -3.8374 -1.2236
  517SOL     OW 1549   0.695   1.894   2.458 -0.4051 -0.3769  0.0088
  517SOL    HW1 1550   0.768   1.857   2.396 -0.3526 -0.9449 -0.8924
  517SOL    HW2 1551   0.645   1.972   2.414 -0.8612 -1.0449  3.1477
  518SOL     OW 1552   0.403   0.495   1.894 -0.0418  0.6671  0.3308
  518SOL    HW1 1553   0.325   0.472   1.958 -0.6683 -0.7491  2.3045
  518SOL    HW2 1554   0.487   0.433   1.916 -0.2310 -1.1331 -1.1679
  519SOL     OW 1555   0.375   1.147   0.341 -0.4889 -0.3117 -0.0440
  519SOL    HW1 1556   0.353   1.051   0.308 -0.7645 -0.2957  0.2378
  519SOL    HW2 1557   0.311   1.183   0.411  1.1900 -0.5254 -1.1874
  520SOL     OW 1558   2.683   1.753   1.426 -0.3326  0.2464  0.7531
  520SOL    HW1 1559   2.685   1.711   1.518  0.0558 -0.0261 -0.7796
  520SOL    HW2 1560   2.713   1.853   1.435 -1.1916 -0.7503  1.6626
  521SOL     OW 1561   0.586   2.536   2.635 -0.0050 -0.2670  0.1440
  521SOL    HW1 1562   0.649   2.465   2.608 -1.9739  1.5250  0.9524
  521SOL    HW2 1563   0.536   2.581   2.558 -0.0432  1.8713  1.3814
  522SOL     OW 1564   1.970   0.127   2.007 -0.4350 -0.3978  0.1232
  522SOL    HW1 1565   2.065   0.155   1.994 -1.0281 -1.1306  1.0250
  522SOL    HW2 1566   1.918   0.212   2.019  2.4387  0.6751 -1.7287
  523SOL     OW 1567   2.015   2.061   1.892 -0.1439  0.4209  0.0824
  523SOL    HW1 1568   1.957   2.098   1.969  0.1574 -1.5441  2.8921
  523SOL    HW2 1569   2.032   1.964   1.908  0.0364 -2.6012  1.6850
  524SOL     OW 1570   0.462   2.889   0.479 -0.4694 -0.0603  0.0798
  524SOL    HW1 1571   0.436   2.875   0.383 -1.4157 -1.2564  0.3223
  524SOL    HW2 1572   0.567   2.893   0.478  0.2006  1.1787  0.3372
  525SOL     OW 1573   0.084   0.553   0.373 -0.0102  0.9755 -0.6201
  525SOL    HW1 1574   0.091   0.611   0.459 -1.4602 -0.5537  3.9615
  525SOL    HW2 1575   0.172   0.511   0.341  1.2368 -0.3276 -1.8288
  526SOL     OW 1576   0.727   2.696   0.711  0.0232 -1.0246 -0.3284
  526SOL    HW1 1577   0.784   2.704   0.796 -0.4736 -0.3672 -0.4080
  526SOL    HW2 1578   0.637   2.734   0.722  0.2500 -0.5391 -1.1961
  527SOL     OW 1579   2.324   1.693   0.830  0.3455 -0.3503  0.3893
  527SOL    HW1 1580   2.259   1.651   0.901  3.0816  0.4041  2.6695
  527SOL    HW2 1581   2.355   1.619   0.766 -0.8670  2.4458 -2.6736
  528SOL     OW 1582   3.003   3.053   2.454 -0.2803 -0.2173  0.6847
  528SOL    HW1 1583   2.920   3.104   2.423  0.1572 -1.8270  0.8463
  528SOL    HW2 1584   3.007   3.052   2.558  0.5941 -0.2494 -0.6105
  529SOL     OW 1585   0.972   1.500   2.519 -0.8786 -0.3350 -0.1391
  529SOL    HW1 1586   0.884   1.518   2.474  2.1268 -0.7042  0.5275
  529SOL    HW2 1587   0.969   1.511   2.620  0.7062 -1.9195  3.0461
  530SOL     OW 1588   1.758   1.230   2.837 -0.0861 -0.4187  0.0587
  530SOL    HW1 1589   1.652   1.227   2.831 -0.2572  2.4346 -2.4014
  530SOL    HW2 1590   1.801   1.140   2.800  0.1980 -1.9819  2.8235
  531SOL     OW 1591   0.489   1.490   2.853 -0.2941 -0.1992  0.0186
  531SOL    HW1 1592   0.526   1.564   2.792  1.5988  2.8290 -0.9482
  531SOL    HW2 1593   0.481   1.402   2.807 -2.8767  1.5888 -0.7333
  532SOL     OW 1594   1.596   1.506   0.378  0.8841  0.2310 -0.5314
  532SOL    HW1 1595   1.528   1.520   0.304  1.4983  0.7980  1.4848
  532SOL    HW2 1596   1.640   1.594   0.400  0.7430 -2.6223  0.4767
  533SOL     OW 1597   0.543   0.251   2.428 -0.3250  0.5491 -0.1628
  533SOL    HW1 1598   0.604   0.303   2.366 -1.6172 -0.1928 -0.4882
  533SOL    HW2 1599   0.591   0.232   2.514  3.2236 -1.1878  3.2639
  534SOL     OW 1600   0.592   2.529   3.076 -0.0799  0.2655  0.2848
  534SOL    HW1 1601   0.544   2.571   2.995 -0.2923  0.6381 -0.8095
  534SOL    HW2 1602   0.589   2.586   0.055 -2.1337  0.4407  2.4543
  535SOL     OW 1603   0.219   0.056   0.688  0.1958 -0.5751  0.3429
  535SOL    HW1 1604   0.231   3.106   0.773 -3.0330 -0.1913 -1.1410
  535SOL    HW2 1605   0.222   0.157   0.706 -0.1607  1.3191  1.6480
  536SOL     OW 1606   0.199   1.117   2.018 -0.9376  0.5278  0.3901
  536SOL    HW1 1607   0.208   1.158   1.922  3.3032  1.7131 -2.2314
  536SOL    HW2 1608   0.132   1.039   2.032 -1.4715 -3.5569  0.6175
  537SOL     OW 1609   1.126   3.094   1.437 -0.1473  0.0383  0.2219
  537SOL    HW1 1610   1.047   0.050   1.446  1.1647  1.0938 -1.0083
  537SOL    HW2 1611   1.118   3.025   1.354  1.0143 -4.0310 -2.3493
  538SOL     OW 1612   2.871   1.931   0.660 -0.3491 -0.3931 -0.3034
  538SOL    HW1 1613   2.949   1.894   0.607  0.3578  0.8071  3.2924
  538SOL    HW2 1614   2.830   1.861   0.727 -1.4075 -0.9365  2.1624
  539SOL     OW 1615   2.802   0.944   2.260 -0.4131 -0.3318 -0.4087
  539SOL    HW1 1616   2.838   0.908   2.347 -1.4997  0.8554 -1.8481
  539SOL    HW2 1617   2.790   0.872   2.193 -0.2735 -0.2473  3.6716
  540SOL     OW 1618   1.393   1.084   2.324  0.0325 -0.0031  0.2978
  540SOL    HW1 1619   1.447   1.156   2.375 -0.8970 -0.3926  1.1027
  540SOL    HW2 1620   1.393   1.107   2.225  0.1799 -0.6390  3.5462
  541SOL     OW 1621   0.819   0.803   1.676  0.0343  0.2028  0.3070
  541SOL    HW1 1622   0.856   0.737   1.747  0.5800 -1.1880  1.8034
  541SOL    HW2 1623   0.723   0.838   1.699  1.1006  0.4430 -1.1481
  542SOL     OW 1624   2.063   2.995   2.567  0.1066 -0.0845 -0.3949
  542SOL    HW1 1625   1.977   2.948   2.588 -1.8205 -1.7346  0.6391
  542SOL    HW2 1626   2.055   3.059   2.485  0.5960  1.9582 -0.3528
  543SOL     OW 1627   0.937   3.073   0.351 -0.3438  0.0527  0.1476
  543SOL    HW1 1628   0.994   3.062   0.432  1.0502  1.0802  2.5837
  543SOL    HW2 1629   0.987   3.079   0.257 -0.0194  1.9813 -3.7918
  544SOL     OW 1630   2.729   1.637   1.676 -0.0196  0.5243  0.4492
  544SOL    HW1 1631   2.761   1.539   1.692  0.4903 -1.5697  0.5784
  544SOL    HW2 1632   2.761   1.703   1.747  0.5882  0.4090 -1.8546
  545SOL     OW 1633   2.124   2.287   1.740  0.1218  0.3392  0.4663
  545SOL    HW1 1634   2.188   2.246   1.671  2.2839 -1.7729  2.2059
  545SOL    HW2 1635   2.079   2.213   1.788  2.3078 -0.1535  0.0835
  546SOL     OW 1636   0.292   0.075   2.930 -0.2761  0.3727  0.0934
  546SOL    HW1 1637   0.255   0.009   2.859 -1.8399 -0.4247  0.5116
  546SOL    HW2 1638   0.212   0.119   2.979 -0.7148 -1.8089 -2.7883
  547SOL     OW 1639   1.731   0.829   0.377 -0.2586  0.5118  0.4261
  547SOL    HW1 1640   1.644   0.879   0.397  0.6158 -1.2049 -2.1399
  547SOL    HW2 1641   1.801   0.896   0.343 -0.2941 -0.4921  0.9484
  548SOL     OW 1642   2.102   1.580   2.195 -0.1381  0.0021 -0.1725
  548SOL    HW1 1643   2.061   1.489   2.229 -2.1335 -1.1708 -0.8157
  548SOL    HW2 1644   2.145   1.624   2.273 -1.9283  1.8984 -1.7543
  549SOL     OW 1645   1.909   3.049   0.514  0.1850  0.3357  0.6175
  549SOL    HW1 1646   1.990   2.994   0.477  0.9198  0.0507 -1.1423
  549SOL    HW2 1647   1.922   3.087   0.609 -1.8354 -0.7246  0.6481
  550SOL     OW 1648   2.127   2.175   0.774  0.0606  0.1279  0.4088
  550SOL    HW1 1649   2.029   2.190   0.775  0.2134  0.2915 -1.4433
  550SOL    HW2 1650   2.136   2.078   0.755 -0.4595  0.4555  0.4213
  551SOL     OW 1651   1.018   2.854   1.575  0.1534 -0.2115  0.4413
  551SOL    HW1 1652   0.929   2.896   1.542 -0.0257 -1.2134 -0.8514
  551SOL    HW2 1653   1.091   2.925   1.568 -0.5177 -2.9692 -0.2346
  552SOL     OW 1654   2.728   1.997   2.652  0.3972  0.2308 -0.1918
  552SOL    HW1 1655   2.717   2.015   2.750  0.2209 -1.4918 -0.0339
  552SOL    HW2 1656   2.802   2.043   2.612 -3.2070 -0.7651  2.7757
  553SOL     OW 1657   0.363   3.100   1.031 -0.0780  0.6067 -0.0698
  553SOL    HW1 1658   0.356   3.083   1.132 -1.7863  2.0849 -0.4123
  553SOL    HW2 1659   0.283   3.058   0.986 -0.1439  1.0782 -0.8083
  554SOL     OW 1660   2.328   2.198   1.568  0.3010  0.2196  0.3045
  554SOL    HW1 1661   2.338   2.196   1.469 -3.2967  4.5998  3.5403
  554SOL    HW2 1662   2.414   2.236   1.608  0.0720 -0.4067  1.6979
  555SOL     OW 1663   1.194   2.287   1.876  0.2599  0.2251 -0.5985
  555SOL    HW1 1664   1.259   2.318   1.805  0.2648  0.1833  2.3417
  555SOL    HW2 1665   1.138   2.367   1.914 -2.1657  1.4833  1.1848
  556SOL     OW 1666   1.166   1.857   1.848  0.1156  0.0678  0.2095
  556SOL    HW1 1667   1.116   1.944   1.863  1.6201  0.8180 -1.3970
  556SOL    HW2 1668   1.240   1.839   1.915  1.2170 -2.0288  0.3098
  557SOL     OW 1669   1.970   2.350   2.250  0.2319  0.1155 -0.2425
  557SOL    HW1 1670   2.003   2.266   2.207  0.7779 -2.1229  0.4880
  557SOL    HW2 1671   2.042   2.381   2.316 -0.7436  1.3150 -1.1151
  558SOL     OW 1672   0.406   2.636   1.802  0.4418  0.0959  0.2293
  558SOL    HW1 1673   0.436   2.721   1.754  1.0272 -2.2996  0.8097
  558SOL    HW2 1674   0.487   2.579   1.814 -0.4315  0.9930  1.1643
  559SOL     OW 1675   2.264   2.850   1.038 -0.2914  0.4758 -0.0451
  559SOL    HW1 1676   2.259   2.953   1.023  0.6446 -0.6841  2.1555
  559SOL    HW2 1677   2.265   2.831   1.139 -1.4391 -0.8431 -0.9676
  560SOL     OW 1678   1.602   2.411   0.262  0.1518 -0.3801  0.3245
  560SOL    HW1 1679   1.571   2.321   0.227  0.0338  1.2703  1.6184
  560SOL    HW2 1680   1.700   2.429   0.236 -0.5709 -0.4134  1.7881
  561SOL     OW 1681   1.145   0.336   0.019  0.1956 -0.2109 -0.0699
  561SOL    HW1 1682   1.103   0.248   0.043 -0.4235  0.3339 -1.9343
  561SOL    HW2 1683   1.084   0.396   3.071  0.8671  2.4774 -0.1135
  562SOL     OW 1684   0.629   0.138   2.660  0.0863  0.1078  0.2195
  562SOL    HW1 1685   0.567   0.170   2.736  1.3209 -0.1272  0.3047
  562SOL    HW2 1686   0.718   0.102   2.692 -0.7403 -1.9710  0.7006
  563SOL     OW 1687   1.373   1.844   2.849  0.3111 -0.0170 -0.3529
  563SOL    HW1 1688   1.464   1.834   2.893 -2.1588 -1.3239 -3.8219
  563SOL    HW2 1689   1.326   1.753   2.838 -1.2470 -0.5529 -2.9858
  564SOL     OW 1690   2.414   1.091   1.078 -0.0140  0.0217  0.1143
  564SOL    HW1 1691   2.489   1.055   1.132 -0.3553 -1.5202  2.6346
  564SOL    HW2 1692   2.452   1.126   0.992  0.9051 -2.2133 -3.0524
  565SOL     OW 1693   0.983   2.983   2.963  0.3181  0.3325 -0.0902
  565SOL    HW1 1694   0.894   2.926   2.963 -3.3156 -0.0413 -0.9388
  565SOL    HW2 1695   0.983   3.058   2.893  0.8526 -1.8941  1.1765
  566SOL     OW 1696   1.693   0.110   2.466 -0.7648 -0.1970  0.9295
  566SOL    HW1 1697   1.743   0.063   2.388 -1.4655  2.3972 -3.0917
  566SOL    HW2 1698   1.664   0.039   2.535 -1.5656 -0.8413 -1.2926
  567SOL     OW 1699   2.180   1.423   0.521  0.4944 -0.5960 -0.5948
  567SOL    HW1 1700   2.197   1.407   0.621  1.4600 -0.8429 -0.2785
  567SOL    HW2 1701   2.267   1.393   0.473  0.5441 -0.1376  0.5754
  568SOL     OW 1702   1.889   2.041   0.177  0.0474 -0.2890  0.1135
  568SOL    HW1 1703   1.908   1.939   0.179 -0.2619  1.1619  1.6682
  568SOL    HW2 1704   1.980   2.087   0.151  2.6214  0.9674 -0.1145
  569SOL     OW 1705   2.161   1.213   2.985 -0.5602 -0.0441  0.0368
  569SOL    HW1 1706   2.118   1.128   3.012  0.3435  4.2772 -1.9898
  569SOL    HW2 1707   2.256   1.205   3.006 -3.3629  0.0604 -2.9728
  570SOL     OW 1708   3.104   2.553   1.549  0.5500 -0.1087 -0.0550
  570SOL    HW1 1709   3.090   2.650   1.581  3.2278  0.2898 -0.5675
  570SOL    HW2 1710   0.093   2.528   1.557  0.9200 -1.8594  0.2988
  571SOL     OW 1711   0.416   0.935   1.897  0.2240 -0.0114  0.3484
  571SOL    HW1 1712   0.501   0.944   1.952 -1.7584  3.0514 -0.6687
  571SOL    HW2 1713   0.348   1.004   1.926 -2.8496 -2.8321 -0.7993
  572SOL     OW 1714   1.066   1.527   0.810  0.2097  0.3521  0.0218
  572SOL    HW1 1715   1.007   1.459   0.763  1.5879  0.7412  3.3649
  572SOL    HW2 1716   1.060   1.620   0.763 -0.5398  3.3732 -1.6513
  573SOL     OW 1717   1.064   1.856   2.963 -0.2473 -0.2341 -0.3872
  573SOL    HW1 1718   1.042   1.954   2.991 -0.8972  0.0717  2.0625
  573SOL    HW2 1719   1.160   1.843   2.920  1.0784 -0.9224 -3.2346
  574SOL     OW 1720   1.007   3.030   0.640 -0.1962 -0.1094 -0.0666
  574SOL    HW1 1721   0.901   3.038   0.646 -2.1201  2.3786  2.8830
  574SOL    HW2 1722   1.055   0.007   0.676 -0.1386 -0.2801  0.5230
  575SOL     OW 1723   0.563   1.090   1.542 -0.4807  0.1465  0.0854
  575SOL    HW1 1724   0.472   1.088   1.498  2.6448 -0.4125  1.9348
  575SOL    HW2 1725   0.564   1.021   1.614 -0.3487 -0.8262 -2.2980
  576SOL     OW 1726   1.990   3.016   1.419 -0.2522 -0.1005 -0.5193
  576SOL    HW1 1727   2.081   2.995   1.469 -1.1871  0.0271 -0.9311
  576SOL    HW2 1728   1.963   2.940   1.359 -1.7148 -0.1418  2.7715
  577SOL     OW 1729   0.777   1.062   1.846 -0.0679  0.0943 -0.3380
  577SOL    HW1 1730   0.780   1.141   1.915 -0.7018  0.2830  0.6356
  577SOL    HW2 1731   0.858   1.064   1.783  2.2163  2.5809  0.5564
  578SOL     OW 1732   2.171   0.573   2.715 -0.7315  0.2113  0.0107
  578SOL    HW1 1733   2.117   0.485   2.704 -1.2390 -2.7487 -1.1803
  578SOL    HW2 1734   2.157   0.637   2.637  0.3319  0.2046 -1.0538
  579SOL     OW 1735   2.312   2.638   1.657 -0.2119 -0.1671  0.4395
  579SOL    HW1 1736   2.364   2.596   1.733 -4.9214 -0.0519 -0.8443
  579SOL    HW2 1737   2.223   2.595   1.637  1.0195  1.9981  4.5103
  580SOL     OW 1738   2.180   1.276   2.696  0.3069  0.2650  0.3258
  580SOL    HW1 1739   2.159   1.375   2.669 -1.0096 -0.3525  1.6974
  580SOL    HW2 1740   2.155   1.265   2.792  0.7984  0.5879  0.8129
  581SOL     OW 1741   1.385   1.099   3.010  0.1743  0.5742  0.1753
  581SOL    HW1 1742   1.466   1.156   3.033 -1.3979  1.4799  3.4622
  581SOL    HW2 1743   1.387   1.019   3.074  0.9536  1.9167 -2.1976
  582SOL     OW 1744   1.119   1.564   1.753  0.5048 -0.6535  0.2743
  582SOL    HW1 1745   1.199   1.510   1.715  1.9936 -2.3979 -2.0273
  582SOL    HW2 1746   1.132   1.665   1.765 -0.5766 -0.2086  0.7842
  583SOL     OW 1747   1.932   1.219   1.415 -0.3509  0.1468 -0.2374
  583SOL    HW1 1748   1.832   1.212   1.438  4.0396 -0.6595  0.3364
  583SOL    HW2 1749   1.943   1.230   1.315  2.5957  2.1343 -0.3889
  584SOL     OW 1750   1.581   2.595   0.566  0.3171  0.7796  0.6228
  584SOL    HW1 1751   1.501   2.533   0.574  0.1619  1.9459 -0.3871
  584SOL    HW2 1752   1.665   2.543   0.594  0.8827  0.8743 -0.2663
  585SOL     OW 1753   1.884   2.813   2.670  0.3196  0.6724  0.2733
  585SOL    HW1 1754   1.895   2.742   2.602 -0.3664  1.3018  1.4688
  585SOL    HW2 1755   1.878   2.781   2.766 -0.2320 -0.2033 -1.2322
  586SOL     OW 1756   2.749   2.306   0.971  0.2862  0.7575  0.2406
  586SOL    HW1 1757   2.657   2.348   0.964 -1.7171 -1.1659 -2.7817
  586SOL    HW2 1758   2.752   2.211   1.001  1.7686  3.5730  1.4971
  587SOL     OW 1759   1.103   1.671   0.065  0.0234 -0.5520 -0.2727
  587SOL    HW1 1760   1.077   1.722   3.089 -0.8739  0.4944 -1.7862
  587SOL    HW2 1761   1.205   1.665   0.083  1.5939 -0.3747  0.2603
  588SOL     OW 1762   0.468   0.240   1.066  0.2336 -0.2179  0.7575
  588SOL    HW1 1763   0.567   0.257   1.039  2.6905  1.4477 -1.0582
  588SOL    HW2 1764   0.439   0.149   1.031  2.1505 -1.9066  0.5770
  589SOL     OW 1765   1.148   0.293   0.353  0.2795  0.4054 -0.5659
  589SOL    HW1 1766   1.120   0.382   0.317 -1.8966 -0.0230 -0.2142
  589SOL    HW2 1767   1.214   0.245   0.290 -0.3423 -0.0869  0.6393
  590SOL     OW 1768   1.464   0.061   2.876 -0.2310  0.6448  0.3185
  590SOL    HW1 1769   1.539   0.119   2.838 -0.7964 -0.9651  1.8180
  590SOL    HW2 1770   1.494   0.023   2.967  2.1410  0.5394 -1.7157
  591SOL     OW 1771   2.972   2.359   2.369  0.2599  0.0268  0.1012
  591SOL    HW1 1772   3.010   2.292   2.300 -1.9309 -0.5911  1.5756
  591SOL    HW2 1773   2.972   2.452   2.330 -1.1229  2.2249  0.0473
  592SOL     OW 1774   2.744   1.471   1.985  0.1665 -0.7351  0.1953
  592SOL    HW1 1775   2.797   1.432   1.904  2.6975 -0.8570 -0.0004
  592SOL    HW2 1776   2.796   1.547   2.039  1.2949  0.1410  0.8525
  593SOL     OW 1777   1.678   1.407   1.645 -0.5534 -0.1499  0.5507
  593SOL    HW1 1778   1.691   1.329   1.581 -1.1064 -1.0502 -0.0139
  593SOL    HW2 1779   1.629   1.371   1.725 -0.0725 -1.8928 -1.2925
  594SOL     OW 1780   2.744   1.283   0.110  0.3588  0.1113 -0.0949
  594SOL    HW1 1781   2.842   1.270   0.129 -1.9717  0.3862 -1.0014
  594SOL    HW2 1782   2.697   1.191   0.097  1.1627 -0.3787 -1.0395
  595SOL     OW 1783   0.681   0.654   0.393  0.7892 -0.2254 -0.0972
  595SOL    HW1 1784   0.593   0.618   0.437  2.2485 -2.5968  0.4831
  595SOL    HW2 1785   0.725   0.730   0.444 -2.2795  1.1601  0.6458
  596SOL     OW 1786   0.465   1.271   1.365 -0.7473 -0.1631 -0.1283
  596SOL    HW1 1787   0.415   1.343   1.421  1.6460  0.8886  1.4203
  596SOL    HW2 1788   0.549   1.236   1.414  2.3797 -1.6601 -0.9797
  597SOL     OW 1789   1.233   1.935   0.799 -0.6847 -0.0379 -0.0781
  597SOL    HW1 1790   1.235   1.940   0.902 -0.5910  0.4128  1.0507
  597SOL    HW2 1791   1.190   2.025   0.759  0.1625  3.1035 -0.5171
  598SOL     OW 1792   2.958   0.311   1.860 -0.1875  0.0425 -0.6642
  598SOL    HW1 1793   3.013   0.316   1.946  0.9726  1.3764  1.8123
  598SOL    HW2 1794   2.942   0.211   1.838  0.9390 -0.0630  0.4339
  599SOL     OW 1795   0.184   1.254   2.724 -0.2190  0.4357  0.4823
  599SOL    HW1 1796   0.147   1.202   2.647 -0.1314  0.7567  2.3406
  599SOL    HW2 1797   0.242   1.328   2.687  1.4346  0.1380 -3.3305
  600SOL     OW 1798   0.717   0.836   2.912  0.7581 -0.0820 -0.1504
  600SOL    HW1 1799   0.656   0.910   2.877  1.6320 -0.4830  4.1747
  600SOL    HW2 1800   0.806   0.832   2.864  0.0615 -1.3933 -1.0756
  601SOL     OW 1801   0.740   0.995   1.358  0.0903  0.7601 -0.1144
  601SOL    HW1 1802   0.687   0.922   1.307 -3.3822  0.1218  1.7628
  601SOL    HW2 1803   0.678   1.033   1.431  0.8525  0.0301  2.5084
  602SOL     OW 1804   0.411   3.081   0.050  0.7216  0.2829  0.7277
  602SOL    HW1 1805   0.509   3.093   0.031 -2.2402  0.0952  1.0025
  602SOL    HW2 1806   0.354   0.007   3.080  0.0720 -0.4812 -1.5804
  603SOL     OW 1807   1.487   2.669   2.538 -0.2496 -0.2275  0.2158
  603SOL    HW1 1808   1.495   2.659   2.635  0.5364 -0.7786 -3.2250
  603SOL    HW2 1809   1.455   2.766   2.513 -0.0189  1.2858 -0.4862
  604SOL     OW 1810   0.174   2.627   2.890 -0.3241  0.2164 -0.2773
  604SOL    HW1 1811   0.150   2.527   2.876 -0.8581  0.2505 -0.8608
  604SOL    HW2 1812   0.275   2.644   2.875 -0.4085 -0.4009  1.7518
  605SOL     OW 1813   2.429   1.280   1.463  1.0472 -0.2520 -0.8543
  605SOL    HW1 1814   2.424   1.351   1.536 -2.5078 -2.3670 -1.0525
  605SOL    HW2 1815   2.347   1.219   1.477 -1.9110  1.1489  1.4120
  606SOL     OW 1816   1.012   1.188   2.691 -0.2149  0.2366  0.1734
  606SOL    HW1 1817   0.984   1.245   2.769  0.9792 -0.3355  0.5877
  606SOL    HW2 1818   0.929   1.156   2.640  1.2409  0.1873 -1.2851
  607SOL     OW 1819   0.913   0.391   0.883 -0.1075 -0.1495 -0.0096
  607SOL    HW1 1820   0.892   0.471   0.823 -3.3212 -1.2907 -0.2659
  607SOL    HW2 1821   0.977   0.412   0.958  1.7784  1.2731 -0.3721
  608SOL     OW 1822   2.910   1.514   1.423 -0.2286  0.7727  0.4302
  608SOL    HW1 1823   2.848   1.580   1.472  0.5619  2.2132  1.4055
  608SOL    HW2 1824   2.846   1.435   1.390 -2.4512 -2.8771 -3.0469
  609SOL     OW 1825   2.284   0.382   0.527 -0.4202  0.3415 -0.1813
  609SOL    HW1 1826   2.239   0.413   0.436 -3.3159  0.0195 -1.4739
  609SOL    HW2 1827   2.343   0.456   0.566 -0.5220 -0.5494  0.3456
  610SOL     OW 1828   0.218   2.635   1.277 -0.1240 -0.5373 -0.9263
  610SOL    HW1 1829   0.269   2.722   1.304  1.7490  1.1976 -3.0911
  610SOL    HW2 1830   0.164   2.646   1.194 -0.1513 -1.4724 -0.4295
  611SOL     OW 1831   1.562   1.830   0.227 -0.1241  0.1787  0.1445
  611SOL    HW1 1832   1.640   1.787   0.283  1.2806 -2.5195  0.7254
  611SOL    HW2 1833   1.592   1.898   0.158  2.0273  2.4143 -3.1414
  612SOL     OW 1834   0.369   0.193   1.984 -0.0399 -0.3581 -0.3892
  612SOL    HW1 1835   0.345   0.144   2.071  0.6315 -1.8556  1.6610
  612SOL    HW2 1836   0.312   0.157   1.907 -1.0185  1.6207 -0.7701
  613SOL     OW 1837   0.586   2.228   0.688  0.3690  0.7255 -0.0057
  613SOL    HW1 1838   0.545   2.310   0.726 -0.3491 -2.2765  0.7721
  613SOL    HW2 1839   0.548   2.201   0.599 -1.3891  0.3645  0.9962
  614SOL     OW 1840   2.237   0.213   2.039 -0.0885 -0.5793 -0.2711
  614SOL    HW1 1841   2.246   0.251   2.132  0.5507 -0.9243  1.6444
  614SOL    HW2 1842   2.304   0.135   2.028  2.3537 -2.6185  1.3783
  615SOL     OW 1843   1.487   1.509   0.648  0.6671  0.2254 -0.2016
  615SOL    HW1 1844   1.512   1.514   0.548  1.5796 -0.0638 -2.7549
  615SOL    HW2 1845   1.421   1.579   0.683 -0.1525 -2.0907  2.4795
  616SOL     OW 1846   1.851   1.487   0.709 -0.2970 -0.1732 -0.0282
  616SOL    HW1 1847   1.767   1.431   0.712  1.6348  1.3519 -2.7079
  616SOL    HW2 1848   1.877   1.510   0.612 -0.1814  1.2397  2.6326
  617SOL     OW 1849   1.627   0.574   0.031  0.1486  0.4052  0.0773
  617SOL    HW1 1850   1.639   0.670   0.006 -0.5689 -1.3372  1.5359
  617SOL    HW2 1851   1.627   0.576   0.136 -2.9893  2.0520 -1.4500
  618SOL     OW 1852   0.912   0.404   1.879 -0.0574 -0.4977 -0.8621
  618SOL    HW1 1853   0.911   0.352   1.965  0.7202  0.9700 -1.3036
  618SOL    HW2 1854   0.849   0.355   1.818  0.2989 -1.6861  1.3568
  619SOL     OW 1855   0.352   1.452   1.512  0.0028 -0.2497  0.4998
  619SOL    HW1 1856   0.248   1.469   1.500 -5.4506  1.4026  0.3698
  619SOL    HW2 1857   0.379   1.430   1.610  0.0372  2.9790 -1.2444
  620SOL     OW 1858   2.416   2.998   2.713 -0.0746  0.0539  0.0053
  620SOL    HW1 1859   2.461   3.040   2.624  2.0171  0.8530 -1.9987
  620SOL    HW2 1860   2.316   3.025   2.721 -2.7659 -0.5187  0.2869
  621SOL     OW 1861   2.398   1.794   2.939  0.0263  0.4546  0.0569
  621SOL    HW1 1862   2.311   1.805   2.989  0.3015 -0.0920  0.5148
  621SOL    HW2 1863   2.417   1.873   2.882 -1.4928 -1.7640 -1.6591
  622SOL     OW 1864   1.339   0.530   2.803 -0.0962  0.0445 -0.0623
  622SOL    HW1 1865   1.359   0.438   2.844 -1.4941 -0.1395  1.7399
  622SOL    HW2 1866   1.429   0.579   2.774 -0.5354  3.7007  1.6222
  623SOL     OW 1867   0.898   1.513   1.571 -0.3449 -1.1558 -0.5047
  623SOL    HW1 1868   0.982   1.525   1.632  2.4571  0.9522 -0.1540
  623SOL    HW2 1869   0.850   1.427   1.590 -0.5468 -0.2510 -1.0637
  624SOL     OW 1870   2.930   0.153   0.384 -0.5927 -0.0304 -0.2290
  624SOL    HW1 1871   2.972   0.143   0.291  0.0168  2.7619 -0.4290
  624SOL    HW2 1872   3.004   0.163   0.454  0.8930 -0.8403 -2.0310
  625SOL     OW 1873   0.842   2.151   0.797 -0.0385  0.3776 -0.0411
  625SOL    HW1 1874   0.748   2.159   0.751 -1.1487 -0.4561  1.4994
  625SOL    HW2 1875   0.908   2.218   0.754  0.7386 -0.9716 -1.9426
  626SOL     OW 1876   2.854   0.808   2.489 -0.1878  0.5969  0.2763
  626SOL    HW1 1877   2.912   0.721   2.469  0.4158 -0.5555 -0.7072
  626SOL    HW2 1878   2.762   0.784   2.519  1.5879 -0.4771 -0.2637
  627SOL     OW 1879   0.838   2.048   2.695  0.0581 -0.0373  0.1553
  627SOL    HW1 1880   0.928   2.029   2.664  0.2620  1.3283 -0.0972
  627SOL    HW2 1881   0.774   2.000   2.627  0.8366  1.0525 -0.2572
  628SOL     OW 1882   2.781   2.645   2.811  0.0189 -0.3865  0.1310
  628SOL    HW1 1883   2.725   2.605   2.735 -0.0461  0.0522  0.2674
  628SOL    HW2 1884   2.743   2.737   2.847 -0.3589  5.2124  0.6060
  629SOL     OW 1885   1.016   3.025   2.682 -0.3752  0.5223  0.2814
  629SOL    HW1 1886   1.038   2.928   2.650 -0.5344  1.0502 -0.1237
  629SOL    HW2 1887   0.964   3.075   2.609 -0.1868  1.7114 -1.5456
  630SOL     OW 1888   0.893   0.242   2.093  0.2661  0.2951 -0.2216
  630SOL    HW1 1889   0.956   0.301   2.147 -1.4507  1.1968 -0.1794
  630SOL    HW2 1890   0.924   0.148   2.070 -2.0647 -0.1269  0.7963
  631SOL     OW 1891   2.102   1.024   0.585  0.1888  0.8847  0.1796
  631SOL    HW1 1892   2.126   0.939   0.533 -0.7132 -2.8976  0.1609
  631SOL    HW2 1893   2.084   1.101   0.519 -1.9042  1.0753  0.0023
  632SOL     OW 1894   2.652   0.105   1.792 -0.2922 -0.0812  0.3190
  632SOL    HW1 1895   2.633   0.005   1.765 -2.0480  0.0821 -0.3303
  632SOL    HW2 1896   2.749   0.116   1.823  1.3089 -0.4909 -0.5164
  633SOL     OW 1897   1.348   1.227   0.289  0.0552  0.1283 -0.1906
  633SOL    HW1 1898   1.354   1.326   0.253  1.1882 -0.4204 -0.2375
  633SOL    HW2 1899   1.271   1.210   0.353 -1.3621 -0.5881  1.1325
  634SOL     OW 1900   2.679   2.770   2.091 -0.2098  0.6593 -0.1674
  634SOL    HW1 1901   2.687   2.694   2.019 -0.5713 -4.2846 -0.9523
  634SOL    HW2 1902   2.665   2.727   2.186  0.5510 -1.6053  0.6568
  635SOL     OW 1903   1.520   0.283   0.483 -0.3855  0.0875 -0.3983
  635SOL    HW1 1904   1.490   0.188   0.456 -0.3738 -1.7482  0.0301
  635SOL    HW2 1905   1.607   0.276   0.541  3.3712  2.9696  1.7338
  636SOL     OW 1906   0.721   1.176   0.566 -0.1496 -1.0127  0.6265
  636SOL    HW1 1907   0.688   1.219   0.474  0.8574 -1.6976 -1.4047
  636SOL    HW2 1908   0.642   1.141   0.620 -0.2239 -1.1957 -1.8468
  637SOL     OW 1909   2.412   2.048   0.086  0.1389 -0.8995 -0.9376
  637SOL    HW1 1910   2.483   1.971   0.091  0.0172 -2.1691  1.7105
  637SOL    HW2 1911   2.417   2.103   0.174 -1.3103  0.1122  3.8197
  638SOL     OW 1912   1.409   2.517   2.317 -0.1162  0.2183 -0.2046
  638SOL    HW1 1913   1.442   2.578   2.241 -1.3031  1.8195 -0.9610
  638SOL    HW2 1914   1.440   2.551   2.409 -0.7470  0.3910 -1.7790
  639SOL     OW 1915   1.453   1.838   0.683  0.6334  0.0937  0.5040
  639SOL    HW1 1916   1.431   1.792   0.593  2.2089  0.1356  1.0563
  639SOL    HW2 1917   1.367   1.875   0.726 -0.4508 -0.3892  1.7641
  640SOL     OW 1918   2.129   2.877   0.393  0.2133 -0.0802  0.0497
  640SOL    HW1 1919   2.159   2.965   0.354 -3.0027 -0.4045 -0.9682
  640SOL    HW2 1920   2.106   2.810   0.315 -2.0202  1.2338  0.3666
  641SOL     OW 1921   2.952   0.538   3.080  0.0561 -0.1871  0.2417
  641SOL    HW1 1922   2.944   0.547   0.076 -1.2979 -0.7696 -0.0210
  641SOL    HW2 1923   2.958   0.436   3.056  0.6442 -1.5166 -1.8007
  642SOL     OW 1924   0.531   0.558   1.107  1.2679  0.6588  0.3367
  642SOL    HW1 1925   0.437   0.549   1.065 -0.8838  0.0168 -0.4441
  642SOL    HW2 1926   0.547   0.477   1.169 -1.4689 -0.5738 -0.1004
  643SOL     OW 1927   0.732   1.300   2.347 -0.2194  0.1537 -0.0327
  643SOL    HW1 1928   0.645   1.266   2.311  2.6212  1.6569 -1.0219
  643SOL    HW2 1929   0.729   1.395   2.382  1.8456  0.0816 -1.8884
  644SOL     OW 1930   1.530   2.051   0.439  0.2905  0.1315  0.5783
  644SOL    HW1 1931   1.507   1.957   0.405 -2.0656 -2.2558  1.7172
  644SOL    HW2 1932   1.628   2.075   0.422 -0.0213 -1.6874  0.1416
  645SOL     OW 1933   1.485   2.178   0.197 -0.6045  0.1640 -0.2078
  645SOL    HW1 1934   1.452   2.108   0.133 -0.9318 -0.3613 -1.1684
  645SOL    HW2 1935   1.483   2.144   0.293  0.5094  0.7811  1.2656
  646SOL     OW 1936   0.144   1.946   2.859 -0.3874 -0.0665  0.1715
  646SOL    HW1 1937   0.214   1.899   2.798 -0.8369 -0.8540 -3.6710
  646SOL    HW2 1938   0.105   2.030   2.814 -0.0789 -1.1976 -1.2818
  647SOL     OW 1939   1.068   0.231   1.137  0.1875 -0.0410  0.2662
  647SOL    HW1 1940   1.166   0.215   1.150 -1.8943  0.4684  1.3345
  647SOL    HW2 1941   1.040   0.333   1.122 -1.6633  3.3861 -1.8133
  648SOL     OW 1942   1.325   0.305   0.906 -0.3473  0.3665  0.0143
  648SOL    HW1 1943   1.350   0.279   1.002  0.9905 -0.0713 -0.3050
  648SOL    HW2 1944   1.359   0.232   0.838  0.1304 -1.5257 -0.6988
  649SOL     OW 1945   1.141   1.654   0.379 -0.0099 -0.5947 -0.2592
  649SOL    HW1 1946   1.083   1.683   0.298 -1.2439  2.8250 -0.2765
  649SOL    HW2 1947   1.093   1.651   0.470  1.0581  0.6667 -0.0590
  650SOL     OW 1948   2.472   1.451   1.928 -0.0595  0.4744  0.5739
  650SOL    HW1 1949   2.571   1.445   1.934 -1.8319  1.3656  2.5525
  650SOL    HW2 1950   2.442   1.540   1.961 -0.2696  0.1989 -3.8878
  651SOL     OW 1951   1.605   2.094   2.861  0.1209 -0.2639 -0.4147
  651SOL    HW1 1952   1.517   2.140   2.835 -1.2349  1.1360 -2.0639
  651SOL    HW2 1953   1.637   2.038   2.778  0.3414 -1.8676 -2.9135
  652SOL     OW 1954   2.424   1.697   0.240 -0.1102 -0.4447 -0.2293
  652SOL    HW1 1955   2.491   1.767   0.200 -1.1075 -0.2213 -0.9319
  652SOL    HW2 1956   2.424   1.610   0.191 -2.3596  1.8000 -2.6390
  653SOL     OW 1957   0.286   0.419   0.968 -0.0530  0.4020 -0.2370
  653SOL    HW1 1958   0.343   0.349   1.014  0.5085 -0.4966  0.9779
  653SOL    HW2 1959   0.187   0.398   0.987 -2.3672  1.9998 -3.3119
  654SOL     OW 1960   2.773   0.177   2.096  0.1172  0.0997 -1.2706
  654SOL    HW1 1961   2.734   0.157   2.189  0.7729  1.5349  3.8713
  654SOL    HW2 1962   2.789   0.089   2.045 -0.7517  3.9070 -1.2609
  655SOL     OW 1963   0.446   2.459   0.778 -0.0547 -0.1505  0.0975
  655SOL    HW1 1964   0.465   2.515   0.697  2.0375 -1.5299  0.4600
  655SOL    HW2 1965   0.345   2.433   0.775 -2.7613  0.6172  1.4436
  656SOL     OW 1966   3.023   3.011   2.750  0.1503  0.0446 -0.3308
  656SOL    HW1 1967   3.024   2.912   2.758  1.3325  2.7772  1.1318
  656SOL    HW2 1968   2.941   3.052   2.792  3.7535 -1.1967  1.2376
  657SOL     OW 1969   0.180   1.228   2.989 -0.0764 -0.4581  0.1913
  657SOL    HW1 1970   0.168   1.312   3.039 -0.8845  1.2385 -2.0122
  657SOL    HW2 1971   0.183   1.245   2.887 -0.7403 -1.4056 -1.7203
  658SOL     OW 1972   2.590   1.694   1.181  0.2736  0.2835  0.8235
  658SOL    HW1 1973   2.506   1.748   1.155 -0.8418  2.9432 -1.9469
  658SOL    HW2 1974   2.613   1.711   1.280 -0.1343  0.3650 -0.4192
  659SOL     OW 1975   1.522   2.711   0.111  0.4394 -0.3672 -0.0237
  659SOL    HW1 1976   1.484   2.625   0.065 -1.6524 -1.9253  1.2528
  659SOL    HW2 1977   1.597   2.751   0.055 -0.6924  2.9779  0.8173
  660SOL     OW 1978   1.592   0.922   2.769  0.8209 -0.6148  0.2806
  660SOL    HW1 1979   1.674   0.977   2.744  1.9767 -2.7890  1.0313
  660SOL    HW2 1980   1.504   0.974   2.750 -0.8341  1.0471  2.5722
  661SOL     OW 1981   0.245   2.088   1.297  0.2034  0.3019  0.4102
  661SOL    HW1 1982   0.285   2.020   1.232  0.6472  1.6400  0.4282
  661SOL    HW2 1983   0.149   2.070   1.310  3.6369  1.6595 -0.6642
  662SOL     OW 1984   0.315   0.444   0.057  0.2690 -0.0431 -0.0778
  662SOL    HW1 1985   0.245   0.512   0.012 -1.0631  5.6329 -0.7954
  662SOL    HW2 1986   0.308   0.441   0.161  1.4025  0.7116 -2.4289
  663SOL     OW 1987   2.219   1.911   1.463 -0.0320 -0.2171 -0.2377
  663SOL    HW1 1988   2.229   1.812   1.441  2.6583  2.0910 -1.2546
  663SOL    HW2 1989   2.280   1.937   1.538  2.9732 -1.1996 -1.4738
  664SOL     OW 1990   1.146   1.212   1.073 -0.2472 -0.1124 -0.7016
  664SOL    HW1 1991   1.143   1.255   1.164  0.3931 -1.2400 -0.8680
  664SOL    HW2 1992   1.193   1.271   1.003  1.2946  0.1247  0.1856
  665SOL     OW 1993   1.948   2.718   2.129 -0.4589  0.4116 -0.4667
  665SOL    HW1 1994   1.859   2.759   2.165 -1.0703 -0.6864  0.3386
  665SOL    HW2 1995   1.979   2.769   2.046 -0.1283 -0.8952  0.9567
  666SOL     OW 1996   2.904   2.809   0.192 -0.4621 -0.0937 -0.1156
  666SOL    HW1 1997   2.921   2.715   0.226  0.0358  2.5193 -1.1900
  666SOL    HW2 1998   2.961   2.870   0.253  1.6890  0.6841  1.2534
  667SOL     OW 1999   2.814   1.096   1.610 -0.3949  0.3050  0.3383
  667SOL    HW1 2000   2.727   1.063   1.562 -2.0535 -0.3313 -0.3363
  667SOL    HW2 2001   2.804   1.079   1.710  0.7729  0.9600 -0.6058
  668SOL     OW 2002   0.443   0.723   2.581 -0.2946  0.0937  0.0019
  668SOL    HW1 2003   0.447   0.681   2.672  0.9498  0.8022 -3.2052
  668SOL    HW2 2004   0.349   0.757   2.560  0.5349 -1.4392 -1.2462
  669SOL     OW 2005   2.327   2.011   2.365  0.0285 -0.3292 -0.1871
  669SOL    HW1 2006   2.256   2.010   2.291  1.4391  1.3638 -0.5796
  669SOL    HW2 2007   2.398   2.077   2.339  4.4629 -0.5913  1.5266
  670SOL     OW 2008   2.836   1.379   1.741  0.0450 -0.1619  0.3076
  670SOL    HW1 2009   2.810   1.281   1.753 -1.3769 -2.4194  0.3121
  670SOL    HW2 2010   2.937   1.393   1.756 -0.8531 -1.1322 -2.2580
  671SOL     OW 2011   3.088   1.485   0.697  0.3205  0.5890 -0.4885
  671SOL    HW1 2012   0.022   1.557   0.636 -0.7713 -0.2954  1.6603
  671SOL    HW2 2013   2.985   1.481   0.697 -1.5534 -0.9284  2.4187
  672SOL     OW 2014   2.426   0.757   2.227  0.2201  0.1882  0.0567
  672SOL    HW1 2015   2.348   0.778   2.165 -0.1456 -1.4891 -0.3438
  672SOL    HW2 2016   2.447   0.832   2.289 -1.4331  2.5748  0.1726
  673SOL     OW 2017   2.565   0.045   2.287 -0.2201  0.0720  0.1745
  673SOL    HW1 2018   2.525   0.040   2.195  0.3866  0.5572  0.8636
  673SOL    HW2 2019   2.554   3.059   2.326 -4.4798  1.0847 -1.1203
  674SOL     OW 2020   1.532   2.479   1.429  0.0884 -0.1776  0.0594
  674SOL    HW1 2021   1.560   2.510   1.523 -0.7278  0.4803 -0.1114
  674SOL    HW2 2022   1.602   2.420   1.386 -0.3397 -1.4346  0.9541
  675SOL     OW 2023   0.801   0.636   0.738  0.1024 -0.1569 -0.1002
  675SOL    HW1 2024   0.758   0.652   0.828  0.2984 -0.7719 -2.1626
  675SOL    HW2 2025   0.765   0.712   0.680 -0.2923  2.8000 -0.0340
  676SOL     OW 2026   1.732   0.900   0.820  0.3754 -0.1995 -0.0776
  676SOL    HW1 2027   1.762   0.985   0.774 -1.8287  0.1749 -0.9236
  676SOL    HW2 2028   1.659   0.856   0.764  0.1143 -2.6270  1.5941
  677SOL     OW 2029   2.633   1.368   2.209  0.4056 -0.6173 -0.0357
  677SOL    HW1 2030   2.602   1.274   2.200 -0.4331  4.1849 -2.1108
  677SOL    HW2 2031   2.668   1.396   2.115 -1.2793 -2.4627  2.3975
  678SOL     OW 2032   2.853   1.801   1.104 -0.7576 -0.3822 -0.4004
  678SOL    HW1 2033   2.929   1.730   1.106  1.1869 -4.1333 -1.4035
  678SOL    HW2 2034   2.773   1.770   1.155 -0.5268  0.7973 -1.3467
  679SOL     OW 2035   2.144   2.820   0.135 -0.7483 -0.1461 -0.0647
  679SOL    HW1 2036   2.043   2.801   0.153 -1.9539 -0.2951  0.2284
  679SOL    HW2 2037   2.148   2.864   0.042 -1.4510  0.2602 -0.9455
  680SOL     OW 2038   0.095   2.278   1.993 -0.0501  0.3821 -0.0727
  680SOL    HW1 2039   0.191   2.267   1.962  0.6735 -0.1254 -0.0401
  680SOL    HW2 2040   0.060   2.188   2.027  1.7909 -0.4416  1.4159
  681SOL     OW 2041   0.804   1.261   1.557 -0.4310 -0.2907  0.1168
  681SOL    HW1 2042   0.722   1.205   1.568  1.4724  2.2237  2.1352
  681SOL    HW2 2043   0.890   1.210   1.543  1.5368 -0.2747 -0.0347
  682SOL     OW 2044   1.287   2.619   0.772  0.2461 -0.1769  0.0139
  682SOL    HW1 2045   1.299   2.562   0.684 -0.2998 -0.9043 -2.9722
  682SOL    HW2 2046   1.223   2.574   0.841 -1.1092 -0.6498  1.6745
  683SOL     OW 2047   2.206   1.395   0.784  0.6550  0.3335 -0.3585
  683SOL    HW1 2048   2.174   1.480   0.837 -1.8154  3.8506 -0.1350
  683SOL    HW2 2049   2.147   1.317   0.815  2.5342 -1.8658 -1.2491
  684SOL     OW 2050   0.371   2.194   1.973  0.7586  0.6988 -0.1923
  684SOL    HW1 2051   0.457   2.142   1.981  1.3156  0.0070 -0.1902
  684SOL    HW2 2052   0.344   2.189   1.870  1.4635  1.0993 -3.6299
  685SOL     OW 2053   1.592   1.782   2.969  0.0829 -0.1989 -0.7312
  685SOL    HW1 2054   1.633   1.855   3.031  1.7336  0.9341 -0.8090
  685SOL    HW2 2055   1.647   1.763   2.888 -3.5296 -0.2111  0.7354
  686SOL     OW 2056   3.054   0.859   1.415 -0.0597  0.2377  0.4866
  686SOL    HW1 2057   3.024   0.956   1.423  2.4642 -1.4270  0.1475
  686SOL    HW2 2058   0.021   0.848   1.482 -1.2984 -0.3828 -0.1882
  687SOL     OW 2059   0.849   2.381   2.756 -0.0755  0.4976 -0.0907
  687SOL    HW1 2060   0.782   2.370   2.833  0.2248  0.4100 -0.0815
  687SOL    HW2 2061   0.814   2.347   2.669  0.2546 -0.2790  1.0286
  688SOL     OW 2062   2.666   1.806   1.917  0.5929  0.0172  0.3801
  688SOL    HW1 2063   2.588   1.754   1.951 -0.1936 -0.0349 -1.5164
  688SOL    HW2 2064   2.744   1.779   1.973 -1.6496 -1.3961  0.6898
  689SOL     OW 2065   2.186   0.635   1.993 -0.0885 -0.0897  0.3086
  689SOL    HW1 2066   2.267   0.623   1.932  2.1871  0.1501  1.6907
  689SOL    HW2 2067   2.131   0.552   1.999  2.2333  1.2090 -1.3354
  690SOL     OW 2068   2.191   0.949   1.098  0.1069 -0.1949 -0.7288
  690SOL    HW1 2069   2.282   0.993   1.113 -2.6914 -0.9753 -0.0192
  690SOL    HW2 2070   2.160   0.948   1.002 -0.5260  0.2949  1.4266
  691SOL     OW 2071   0.876   1.570   1.911 -0.6280 -0.2095 -0.0763
  691SOL    HW1 2072   0.803   1.633   1.871 -1.3155 -2.1601 -0.8286
  691SOL    HW2 2073   0.968   1.577   1.863  0.5142  0.4534 -1.0505
  692SOL     OW 2074   2.061   0.257   1.445 -0.3899 -0.6607 -0.4858
  692SOL    HW1 2075   2.132   0.236   1.515  0.1671  2.2739 -2.7588
  692SOL    HW2 2076   1.982   0.191   1.453 -1.2895 -1.8174  1.5282
  693SOL     OW 2077   0.523   1.098   2.241  0.4251  0.3178  0.3402
  693SOL    HW1 2078   0.541   1.043   2.323 -0.4876  1.2474 -1.4801
  693SOL    HW2 2079   0.542   1.047   2.158 -1.4521  1.4633  4.0199
  694SOL     OW 2080   1.802   2.768   1.416 -0.0276 -0.0883  0.0333
  694SOL    HW1 2081   1.720   2.784   1.356 -0.1553  1.5065 -0.2989
  694SOL    HW2 2082   1.894   2.773   1.360  1.4431  0.1181 -1.7636
  695SOL     OW 2083   1.381   1.122   2.053 -0.5157 -0.4772  0.2662
  695SOL    HW1 2084   1.287   1.079   2.066 -1.5727  0.0607  1.3872
  695SOL    HW2 2085   1.381   1.214   2.007  1.5659  3.9743  0.8463
  696SOL     OW 2086   1.341   0.063   0.766  0.0009 -0.5200 -0.0048
  696SOL    HW1 2087   1.277   0.119   0.706 -0.0047 -1.5013  0.4646
  696SOL    HW2 2088   1.307   3.077   0.787  1.3931  0.2020  4.1685
  697SOL     OW 2089   1.134   0.203   0.635  0.4770  0.2979 -0.3001
  697SOL    HW1 2090   1.140   0.301   0.663  1.2086 -0.9869 -1.5222
  697SOL    HW2 2091   1.118   0.200   0.537  1.1014  0.3947  2.5246
  698SOL     OW 2092   1.476   1.236   2.790 -0.2205 -0.0481  0.5747
  698SOL    HW1 2093   1.419   1.314   2.754  0.8226 -1.4491  0.0038
  698SOL    HW2 2094   1.433   1.193   2.874  2.9804  1.0096  0.4788
  699SOL     OW 2095   1.457   1.405   1.129  0.3799  0.1091  0.2919
  699SOL    HW1 2096   1.451   1.503   1.166 -2.3445  1.8388  1.4972
  699SOL    HW2 2097   1.386   1.400   1.055  1.3657 -1.3326 -0.1048
  700SOL     OW 2098   1.451   0.019   0.447  0.1832  0.2312 -0.1891
  700SOL    HW1 2099   1.414   0.008   0.539  0.4151  1.4162  0.8962
  700SOL    HW2 2100   1.524   3.055   0.429  0.9542 -0.5549 -2.1191
  701SOL     OW 2101   0.059   0.203   2.055 -0.0178  0.1577 -0.5242
  701SOL    HW1 2102   0.097   0.295   2.061 -0.0664 -1.2769 -0.5855
  701SOL    HW2 2103   0.057   0.155   2.148 -0.4365  0.3348  0.3088
  702SOL     OW 2104   1.081   2.741   0.264  0.1693  0.4881 -0.6180
  702SOL    HW1 2105   1.137   2.794   0.200  0.5190  2.5507 -0.8909
  702SOL    HW2 2106   1.105   2.761   0.363  2.1255  2.2415  1.7195
  703SOL     OW 2107   2.435   2.743   2.635 -0.0316 -0.4366 -0.2856
  703SOL    HW1 2108   2.388   2.764   2.546 -2.9849  0.2079  0.6621
  703SOL    HW2 2109   2.459   2.836   2.683  0.2886  2.8373  0.2017
  704SOL     OW 2110   0.695   2.175   1.032 -0.1368 -0.3660 -0.1542
  704SOL    HW1 2111   0.760   2.158   0.955  1.8646  1.7034  4.4557
  704SOL    HW2 2112   0.614   2.107   1.034 -2.7150  0.6689  4.6544
  705SOL     OW 2113   0.014   0.654   1.871 -0.1198  0.1900 -0.6953
  705SOL    HW1 2114   3.052   0.716   1.912  0.7531 -0.3652  0.8078
  705SOL    HW2 2115   0.106   0.697   1.862  1.4804  1.0876  1.9728
  706SOL     OW 2116   1.656   2.953   0.458 -0.0676  0.4532 -0.0099
  706SOL    HW1 2117   1.672   2.861   0.413  1.2620 -1.1623 -1.1844
  706SOL    HW2 2118   1.742   2.992   0.492  0.8923 -0.5283  1.8798
  707SOL     OW 2119   1.406   1.858   2.083  0.1381 -0.1761 -0.2409
  707SOL    HW1 2120   1.375   1.795   2.155  1.3272  1.7328 -2.5820
  707SOL    HW2 2121   1.361   1.950   2.082  0.8758  1.9033 -0.5373
  708SOL     OW 2122   2.949   2.362   1.639  0.4883  0.2356 -0.6815
  708SOL    HW1 2123   2.874   2.332   1.576  1.5923  0.4849  0.3307
  708SOL    HW2 2124   3.003   2.438   1.597  0.4534 -0.0292  1.2457
  709SOL     OW 2125   1.766   0.495   1.801  0.0910  0.2173  0.4412
  709SOL    HW1 2126   1.810   0.463   1.710  1.5017  1.5131 -0.1094
  709SOL    HW2 2127   1.666   0.493   1.791  0.7672 -1.3922  0.6202
  710SOL     OW 2128   2.444   0.409   1.499 -0.2374  0.3559 -0.5707
  710SOL    HW1 2129   2.531   0.424   1.546 -2.0180  0.6605  2.8622
  710SOL    HW2 2130   2.451   0.375   1.402 -4.6248  3.4188 -1.6586
  711SOL     OW 2131   0.141   2.252   0.497  0.2468  0.2152 -0.0001
  711SOL    HW1 2132   0.211   2.174   0.477 -0.2754 -3.1989 -0.5042
  711SOL    HW2 2133   0.058   2.206   0.542 -1.1067  0.5264  1.3688
  712SOL     OW 2134   0.483   2.534   2.383 -0.5674  0.0927  0.0312
  712SOL    HW1 2135   0.439   2.478   2.310  3.6817  1.7438  1.2967
  712SOL    HW2 2136   0.574   2.559   2.345  0.6927  1.0312  1.4846
  713SOL     OW 2137   2.079   0.964   3.108  0.4261  0.2400  0.9553
  713SOL    HW1 2138   2.158   0.931   0.056 -0.5697 -1.1390  2.6599
  713SOL    HW2 2139   1.995   0.919   0.032  1.4000  0.1928 -0.4815
  714SOL     OW 2140   0.681   1.757   0.699 -0.4717 -0.3230  0.0941
  714SOL    HW1 2141   0.761   1.817   0.731  1.5948 -0.4252 -0.3483
  714SOL    HW2 2142   0.693   1.662   0.738  0.0406 -1.1875  1.6848
  715SOL     OW 2143   1.755   0.035   0.175  0.1531 -0.1200  0.1611
  715SOL    HW1 2144   1.727   3.094   0.259  0.4349 -0.1164 -0.3221
  715SOL    HW2 2145   1.769   0.134   0.183  2.6044 -2.9609 -0.8628
  716SOL     OW 2146   0.462   0.371   1.652  0.0248  0.3978 -0.3492
  716SOL    HW1 2147   0.438   0.420   1.742  0.7775  2.0931  1.3455
  716SOL    HW2 2148   0.378   0.354   1.602  2.2978 -0.5971 -2.2658
  717SOL     OW 2149   2.938   0.831   0.211 -0.0861 -0.5261  0.0421
  717SOL    HW1 2150   2.904   0.858   0.119 -0.8960  1.3302  1.2712
  717SOL    HW2 2151   2.946   0.730   0.216  0.6949 -2.0817 -3.1518
  718SOL     OW 2152   1.335   0.955   0.138  0.1093 -0.7127 -0.2688
  718SOL    HW1 2153   1.319   1.030   0.209  1.6968 -0.1939  0.1566
  718SOL    HW2 2154   1.300   0.866   0.171  4.0472 -0.2147 -2.6345
  719SOL     OW 2155   2.930   1.522   3.097  0.0454 -0.6212  0.0287
  719SOL    HW1 2156   2.866   1.453   0.029 -0.0271 -1.5327 -1.1982
  719SOL    HW2 2157   2.918   1.524   2.995 -0.9557  0.8980  0.0864
  720SOL     OW 2158   1.505   0.879   1.040  0.0170 -0.1625  0.3563
  720SOL    HW1 2159   1.602   0.912   1.043 -0.1886 -0.6453 -3.1662
  720SOL    HW2 2160   1.495   0.790   0.993  1.7608 -2.6855 -3.1860
  721SOL     OW 2161   2.728   0.735   0.413  0.3013 -0.0434 -0.1698
  721SOL    HW1 2162   2.821   0.785   0.405  1.6068  2.1763 -0.1466
  721SOL    HW2 2163   2.737   0.637   0.436  1.2986  2.9718 -1.2003
  722SOL     OW 2164   0.804   1.121   2.988  0.2527 -0.0355  0.0067
  722SOL    HW1 2165   0.745   1.091   2.911  0.0545  2.7310  0.1773
  722SOL    HW2 2166   0.876   1.055   3.015  1.7869 -0.5677  2.5264
  723SOL     OW 2167   0.489   1.000   0.690 -0.2801  0.0331  0.3212
  723SOL    HW1 2168   0.482   1.023   0.788 -3.2579 -1.3513 -0.0446
  723SOL    HW2 2169   0.402   0.960   0.657  1.4708 -0.1747 -0.9318
  724SOL     OW 2170   1.068   2.523   1.970 -0.0853  0.0395 -0.2787
  724SOL    HW1 2171   0.986   2.530   1.915 -0.1201  0.2758  2.1937
  724SOL    HW2 2172   1.124   2.604   1.942 -2.2925 -0.6470  0.2058
  725SOL     OW 2173   2.576   1.043   1.482  0.3220 -0.6536 -0.0516
  725SOL    HW1 2174   2.535   1.130   1.448  2.0215 -1.5404 -2.3638
  725SOL    HW2 2175   2.508   0.977   1.525 -0.3211 -0.9221  1.1368
  726SOL     OW 2176   1.670   2.713   0.346 -0.0111  0.7217 -0.7844
  726SOL    HW1 2177   1.642   2.658   0.430  0.6152 -1.1497 -0.9321
  726SOL    HW2 2178   1.615   2.688   0.263 -0.5480 -0.3347  0.7313
  727SOL     OW 2179   1.282   0.892   2.468 -0.2428  0.1282  0.1610
  727SOL    HW1 2180   1.265   0.926   2.563 -0.0542 -2.8074  3.1234
  727SOL    HW2 2181   1.320   0.968   2.406  2.0096  1.5566 -0.7496
  728SOL     OW 2182   1.395   2.639   1.245  0.7414 -0.1174  0.0705
  728SOL    HW1 2183   1.291   2.635   1.250 -1.4928  0.2262 -1.5873
  728SOL    HW2 2184   1.427   2.584   1.326 -0.9764 -0.9320  3.4669
  729SOL     OW 2185   1.758   0.594   1.338  0.0394 -0.4155 -0.0327
  729SOL    HW1 2186   1.730   0.520   1.270  0.6125  0.1994 -1.2602
  729SOL    HW2 2187   1.686   0.629   1.399  1.2306  0.2941 -3.3835
  730SOL     OW 2188   0.594   2.053   2.032 -0.1841 -0.4887  0.1329
  730SOL    HW1 2189   0.647   2.118   2.093 -0.1089 -0.3815  0.8730
  730SOL    HW2 2190   0.606   1.960   2.071  0.7037  1.9699 -0.4587
  731SOL     OW 2191   0.486   0.281   0.612  0.1105 -0.4135  0.1933
  731SOL    HW1 2192   0.578   0.254   0.645 -1.9558  1.9152  1.7367
  731SOL    HW2 2193   0.470   0.239   0.521  3.2270  0.4465 -1.0318
  732SOL     OW 2194   0.552   0.435   3.051  0.0773  0.4830 -0.4194
  732SOL    HW1 2195   0.599   0.526   3.060 -2.6765 -1.4758  0.5327
  732SOL    HW2 2196   0.457   0.433   3.096 -1.9292 -1.2536  1.8054
  733SOL     OW 2197   1.045   2.387   1.160  0.0339 -0.6962  0.7388
  733SOL    HW1 2198   0.952   2.357   1.194 -1.2738  0.5018  1.0336
  733SOL    HW2 2199   1.070   2.474   1.199 -3.8670 -1.9043  0.3058
  734SOL     OW 2200   3.100   2.167   2.777  0.1205 -0.9167 -0.0099
  734SOL    HW1 2201   3.040   2.177   2.693  3.3446 -1.7493 -2.4043
  734SOL    HW2 2202   3.044   2.180   2.856 -0.7824 -2.3941 -3.0580
  735SOL     OW 2203   0.927   2.961   0.971 -0.4126 -0.2923  0.9474
  735SOL    HW1 2204   0.836   2.993   0.998 -1.4271 -0.1451  3.0420
  735SOL    HW2 2205   0.974   3.043   0.934  0.3686 -0.9694 -1.5744
  736SOL     OW 2206   1.709   0.380   2.996  0.0174 -0.9146 -0.0153
  736SOL    HW1 2207   1.684   0.473   3.047 -1.6457  5.3386  1.1445
  736SOL    HW2 2208   1.653   0.304   3.028  0.5612  1.5866 -3.6315
  737SOL     OW 2209   0.043   0.302   0.549 -0.4520  0.0661 -0.4259
  737SOL    HW1 2210   0.110   0.296   0.627 -1.0289 -2.7855 -0.1126
  737SOL    HW2 2211   0.064   0.370   0.477  0.3612  1.2359 -0.3358
  738SOL     OW 2212   2.639   3.023   1.159  0.2714  0.3932  0.3908
  738SOL    HW1 2213   2.548   3.059   1.183 -0.8691  0.6086  2.0209
  738SOL    HW2 2214   2.633   2.953   1.090 -1.4632  0.5514  2.4005
  739SOL     OW 2215   1.502   2.326   3.080 -0.1842 -0.2596  0.1680
  739SOL    HW1 2216   1.601   2.328   3.085 -5.8025 -2.6059 -3.0650
  739SOL    HW2 2217   1.477   2.254   0.034  0.8224  1.5591 -2.5168
  740SOL     OW 2218   1.575   2.834   1.264  0.1671 -0.1782 -0.2992
  740SOL    HW1 2219   1.518   2.907   1.302 -2.5296  1.2470 -0.3790
  740SOL    HW2 2220   1.531   2.740   1.266 -1.0809  0.5549  0.8328
  741SOL     OW 2221   1.934   0.619   0.784 -0.1534  0.5372  0.0685
  741SOL    HW1 2222   1.934   0.673   0.699 -5.4186 -2.2752  1.7958
  741SOL    HW2 2223   1.925   0.680   0.865  0.8270 -2.3352 -1.1157
  742SOL     OW 2224   1.301   2.113   2.078  0.1618 -0.2145  0.5426
  742SOL    HW1 2225   1.387   2.159   2.118 -3.7198  1.9666  0.1867
  742SOL    HW2 2226   1.261   2.178   2.005 -1.1384  0.3355 -0.6444
  743SOL     OW 2227   2.395   0.610   1.807 -0.1118  0.1515  0.4151
  743SOL    HW1 2228   2.418   0.708   1.805 -1.9909  1.6830 -1.7134
  743SOL    HW2 2229   2.461   0.557   1.750  2.2639  0.4032  1.4681
  744SOL     OW 2230   2.418   0.292   1.237  0.0702  0.3829  0.0119
  744SOL    HW1 2231   2.469   0.316   1.154  3.1175 -0.2888  1.1354
  744SOL    HW2 2232   2.324   0.258   1.214  1.1874  0.6793 -1.7120
  745SOL     OW 2233   2.054   1.193   1.674  0.8594  0.1938  0.5837
  745SOL    HW1 2234   2.064   1.286   1.716  0.8863 -0.1065  1.5768
  745SOL    HW2 2235   2.009   1.201   1.579 -2.2648 -0.3681 -1.4292
  746SOL     OW 2236   1.271   1.389   0.914  0.0108  0.1799  0.4510
  746SOL    HW1 2237   1.201   1.455   0.876  0.3601 -0.8160  0.0969
  746SOL    HW2 2238   1.313   1.344   0.832  0.8528  1.0111 -3.2408
  747SOL     OW 2239   2.057   1.173   1.161 -0.0427  0.5520  0.2380
  747SOL    HW1 2240   2.119   1.088   1.152  3.3494 -2.3247  3.0483
  747SOL    HW2 2241   2.009   1.202   1.072 -1.8457 -0.8701 -1.0688
  748SOL     OW 2242   3.023   2.639   0.805  0.5778  0.2392  0.0916
  748SOL    HW1 2243   3.041   2.543   0.830 -1.3858 -2.9671  0.6439
  748SOL    HW2 2244   2.961   2.633   0.727 -0.3887 -1.0141 -0.4815
  749SOL     OW 2245   0.071   0.127   2.333 -0.4258 -0.0947  0.3336
  749SOL    HW1 2246   0.012   0.053   2.365  3.1183 -1.1135  2.9336
  749SOL    HW2 2247   0.173   0.100   2.334  4.2389 -1.9500 -0.3827
  750SOL     OW 2248   2.224   0.548   1.086 -0.6247  0.2793 -0.2065
  750SOL    HW1 2249   2.287   0.580   1.161 -0.3492 -0.9054  2.2237
  750SOL    HW2 2250   2.127   0.575   1.104  3.4346 -1.1124 -1.0626
  751SOL     OW 2251   2.989   0.590   0.672  0.2102  0.5090  0.2404
  751SOL    HW1 2252   2.986   0.562   0.773 -1.0683 -1.5315  0.8300
  751SOL    HW2 2253   3.084   0.626   0.652  1.0225  0.9160  2.2947
  752SOL     OW 2254   0.003   2.672   1.089 -0.0226 -0.2885 -0.0028
  752SOL    HW1 2255   3.108   2.745   1.018 -0.4308  2.8542  1.6003
  752SOL    HW2 2256   3.023   2.620   1.095  0.5720  1.2890 -0.3679
  753SOL     OW 2257   1.253   0.309   2.015 -0.6677  0.3855  0.4787
  753SOL    HW1 2258   1.226   0.358   1.928 -0.6735 -1.5757 -3.4695
  753SOL    HW2 2259   1.357   0.306   2.020  1.6668  2.8374  0.0131
  754SOL     OW 2260   1.618   2.518   1.689  0.0611 -0.1194 -0.0834
  754SOL    HW1 2261   1.709   2.555   1.683  1.2957  0.3803 -0.4195
  754SOL    HW2 2262   1.623   2.455   1.765 -2.5890  0.3505 -1.7284
  755SOL     OW 2263   2.769   1.143   0.530  0.4843 -0.1801 -0.2216
  755SOL    HW1 2264   2.717   1.201   0.465  0.3079  0.5187 -1.4790
  755SOL    HW2 2265   2.860   1.119   0.490 -0.0035  2.4534 -0.7709
  756SOL     OW 2266   1.669   1.648   2.314 -0.0416 -0.2132  0.1117
  756SOL    HW1 2267   1.721   1.573   2.361  0.5217  2.2156 -1.1938
  756SOL    HW2 2268   1.569   1.639   2.340 -2.1686 -1.9773 -0.2680
  757SOL     OW 2269   1.612   2.818   0.716  0.4923  0.6959 -0.6587
  757SOL    HW1 2270   1.613   2.881   0.638  1.0537 -1.2356  0.5457
  757SOL    HW2 2271   1.548   2.736   0.699 -1.3887 -1.1412 -0.9301
  758SOL     OW 2272   0.600   2.911   1.229  0.1224  0.0441  0.1823
  758SOL    HW1 2273   0.590   2.814   1.195 -3.7042 -1.5656 -1.9003
  758SOL    HW2 2274   0.631   2.972   1.157  0.8412  3.1969 -0.1734
  759SOL     OW 2275   0.104   0.919   1.066 -0.2599  0.0564  0.2647
  759SOL    HW1 2276   0.009   0.878   1.058 -1.9030 -0.3569  1.3168
  759SOL    HW2 2277   0.107   1.018   1.106 -0.1852  3.3722 -0.4351
  760SOL     OW 2278   2.331   1.314   1.188 -0.3614  0.9218  1.0268
  760SOL    HW1 2279   2.374   1.295   1.277  0.3650  0.8724 -1.7271
  760SOL    HW2 2280   2.297   1.228   1.145 -0.4508  0.6041 -1.3165
  761SOL     OW 2281   1.463   1.017   0.723 -0.3636 -0.5770 -0.0164
  761SOL    HW1 2282   1.520   0.997   0.809  0.7826  1.6252  1.3541
  761SOL    HW2 2283   1.381   0.957   0.714 -0.5955  1.0599 -0.1539
  762SOL     OW 2284   2.339   2.130   1.311  0.3423  0.0023  1.1095
  762SOL    HW1 2285   2.303   2.051   1.363  1.8156  3.8240  0.5583
  762SOL    HW2 2286   2.290   2.139   1.221  2.5317 -0.4178 -2.8940
  763SOL     OW 2287   1.127   1.324   2.073 -0.7142  0.2319  0.3367
  763SOL    HW1 2288   1.129   1.291   2.167 -0.3532 -0.7237 -0.8647
  763SOL    HW2 2289   1.220   1.341   2.029  3.3832  0.6564 -2.1525
  764SOL     OW 2290   3.021   1.960   2.420 -0.2535 -0.8233  0.2274
  764SOL    HW1 2291   0.004   1.990   2.380 -3.0465  1.1808 -0.9873
  764SOL    HW2 2292   3.030   1.880   2.477  0.2727 -1.6167 -2.5852
  765SOL     OW 2293   1.124   2.674   1.261 -0.4245  0.3683  0.2710
  765SOL    HW1 2294   1.145   2.684   1.361  2.5275 -1.1203 -0.2961
  765SOL    HW2 2295   1.087   2.762   1.225 -2.2798  1.5670 -1.6229
  766SOL     OW 2296   0.752   2.318   2.501 -0.4333  0.0410  0.1323
  766SOL    HW1 2297   0.841   2.302   2.456 -1.6991  1.4989  1.0672
  766SOL    HW2 2298   0.688   2.244   2.469  0.9974 -0.3687 -1.8025
  767SOL     OW 2299   1.666   0.220   2.758 -0.0565  0.3699  0.8570
  767SOL    HW1 2300   1.690   0.223   2.663 -1.1882 -0.6146 -1.0524
  767SOL    HW2 2301   1.725   0.286   2.805  0.9712  2.1602 -0.7732
  768SOL     OW 2302   1.366   2.204   2.788 -0.5733  0.4852  0.0815
  768SOL    HW1 2303   1.269   2.202   2.753 -2.0694  2.8827 -1.4593
  768SOL    HW2 2304   1.372   2.258   2.872  2.5059  1.5350 -0.8421
  769SOL     OW 2305   2.981   2.747   1.365  0.2480 -0.0453  0.1953
  769SOL    HW1 2306   3.042   2.762   1.286  1.4864  0.3019  0.3564
  769SOL    HW2 2307   3.032   2.762   1.452  0.7306 -0.8908 -3.1186
  770SOL     OW 2308   0.591   2.887   2.891  0.7555 -0.4481  0.1379
  770SOL    HW1 2309   0.534   2.962   2.933 -2.2670  0.1637 -2.4829
  770SOL    HW2 2310   0.656   2.853   2.961 -3.0467 -0.2856 -0.4037
  771SOL     OW 2311   0.754   2.737   2.654 -0.0874  0.4064  0.5689
  771SOL    HW1 2312   0.725   2.786   2.736  0.3879  0.7315 -2.9620
  771SOL    HW2 2313   0.703   2.649   2.650  0.0457  0.8917  1.4766
  772SOL     OW 2314   2.450   0.051   2.008 -0.1344  0.0600 -0.1004
  772SOL    HW1 2315   2.433   3.059   1.995 -3.8968  0.2626 -1.9050
  772SOL    HW2 2316   2.519   0.085   1.939  0.2571 -0.9512 -0.9797
  773SOL     OW 2317   0.781   2.555   1.869  0.3771  0.2432 -0.0578
  773SOL    HW1 2318   0.739   2.522   1.780 -1.1952 -1.0319  0.2754
  773SOL    HW2 2319   0.723   2.520   1.949 -1.4366  0.4754  1.6805
  774SOL     OW 2320   1.488   0.589   2.125 -0.5301 -0.2129  0.2316
  774SOL    HW1 2321   1.484   0.490   2.133 -0.1353  1.8521  0.1379
  774SOL    HW2 2322   1.441   0.626   2.044  1.8336 -1.1976  1.4015
  775SOL     OW 2323   2.173   2.947   2.986  0.0131  0.6847 -0.7427
  775SOL    HW1 2324   2.154   3.008   2.906 -2.1305 -1.5041  4.0748
  775SOL    HW2 2325   2.205   2.857   2.947  0.3649 -1.5106  0.0725
  776SOL     OW 2326   2.106   0.933   2.091  0.3567 -0.5353 -0.2519
  776SOL    HW1 2327   2.070   1.010   2.030 -1.2437  0.9308 -0.9882
  776SOL    HW2 2328   2.102   0.846   2.040  1.0758  1.8391 -0.9382
  777SOL     OW 2329   2.982   1.045   2.618  0.0361  0.1631  0.1958
  777SOL    HW1 2330   2.968   0.946   2.594 -0.3645  1.2091  0.7066
  777SOL    HW2 2331   2.899   1.099   2.597  1.5895  0.4483 -0.0708
  778SOL     OW 2332   2.145   0.567   2.264 -0.3776  0.6601 -0.2959
  778SOL    HW1 2333   2.128   0.644   2.327  0.6604  1.0642  0.7217
  778SOL    HW2 2334   2.164   0.600   2.170 -0.1867  0.9725 -1.2427
  779SOL     OW 2335   3.027   0.066   0.115  0.0997  0.1375  0.2520
  779SOL    HW1 2336   3.007   3.090   0.063  1.3965  0.3847 -0.6991
  779SOL    HW2 2337   0.021   0.065   0.129  1.8345  0.4280  0.8422
  780SOL     OW 2338   2.479   0.102   2.533  0.1091 -0.3445  0.2004
  780SOL    HW1 2339   2.401   0.162   2.515  0.2447 -0.8774  1.3473
  780SOL    HW2 2340   2.527   0.077   2.448  0.5779  3.0083  0.9381
  781SOL     OW 2341   0.135   0.080   1.824  0.2915  0.1759 -0.1220
  781SOL    HW1 2342   0.107   0.105   1.731 -1.2397  0.0087 -0.6638
  781SOL    HW2 2343   0.091   0.139   1.894  1.6189  0.5804  0.7853
  782SOL     OW 2344   2.002   2.180   3.014 -0.6150  0.3707 -0.2944
  782SOL    HW1 2345   2.090   2.231   3.037  1.9186  0.4821  0.2805
  782SOL    HW2 2346   1.996   2.168   2.917  1.6542  0.9124 -0.2955
  783SOL     OW 2347   0.777   1.746   1.490  0.1123  0.2648  0.2057
  783SOL    HW1 2348   0.842   1.817   1.455  0.0038 -2.0214 -0.7285
  783SOL    HW2 2349   0.834   1.661   1.510  0.9882 -0.2376 -0.0891
  784SOL     OW 2350   1.888   0.441   2.281  0.4346 -0.5082 -0.1385
  784SOL    HW1 2351   1.953   0.516   2.266 -2.4118 -1.1262 -0.4417
  784SOL    HW2 2352   1.867   0.403   2.188  1.2390 -1.8923  1.9477
  785SOL     OW 2353   2.930   0.582   0.956  0.2166  0.2987 -0.2082
  785SOL    HW1 2354   2.929   0.668   1.014 -0.4083 -2.2077  1.9927
  785SOL    HW2 2355   2.858   0.516   0.989 -2.7814  0.2545  0.5562
  786SOL     OW 2356   1.876   2.777   0.758  0.3631  0.1774 -0.5046
  786SOL    HW1 2357   1.776   2.784   0.731 -0.3060 -0.8266  0.4996
  786SOL    HW2 2358   1.933   2.745   0.675  1.1101 -1.4059 -1.3521
  787SOL     OW 2359   1.042   0.079   0.903  0.1051  0.0950 -0.1744
  787SOL    HW1 2360   1.059   0.140   0.822  2.6698 -0.2922  2.9765
  787SOL    HW2 2361   1.048   0.124   0.996  0.2549  1.8690  1.4571
  788SOL     OW 2362   0.171   1.182   1.135  0.1439 -0.2898  0.1771
  788SOL    HW1 2363   0.169   1.229   1.225  0.3162 -2.1698 -0.0787
  788SOL    HW2 2364   0.205   1.249   1.067  0.6709  1.7438 -0.5403
  789SOL     OW 2365   0.117   0.877   2.091 -0.5751 -0.5044 -0.5447
  789SOL    HW1 2366   0.030   0.827   2.088 -0.7742 -1.3147  0.9078
  789SOL    HW2 2367   0.185   0.815   2.136  1.3099 -2.7999  2.6374
  790SOL     OW 2368   0.976   0.332   2.681 -0.3226  0.1518 -0.2770
  790SOL    HW1 2369   0.935   0.395   2.748 -1.3576  2.5766 -0.8087
  790SOL    HW2 2370   0.926   0.326   2.593 -1.6358 -0.4270 -2.5357
  791SOL     OW 2371   2.482   0.419   0.263 -0.1605 -0.4510 -0.3254
  791SOL    HW1 2372   2.418   0.441   0.342  2.8599 -0.6983  0.2141
  791SOL    HW2 2373   2.562   0.366   0.296  1.5762  2.1107 -1.0494
  792SOL     OW 2374   1.469   0.608   0.994 -0.4525  0.4323 -1.2699
  792SOL    HW1 2375   1.440   0.585   0.902 -1.2021 -0.3985 -0.4287
  792SOL    HW2 2376   1.535   0.538   1.028  2.8810  0.2861  2.2526
  793SOL     OW 2377   0.114   3.003   1.447  0.2445 -0.7004 -0.1075
  793SOL    HW1 2378   0.193   2.951   1.410  1.1840  0.6893  0.8890
  793SOL    HW2 2379   0.123   3.105   1.434 -0.0163 -1.1242  0.4419
  794SOL     OW 2380   0.144   0.475   2.060  0.4782  0.0385 -0.2129
  794SOL    HW1 2381   0.102   0.526   1.980 -0.6373  1.8018 -0.3935
  794SOL    HW2 2382   0.156   0.531   2.142  1.7540 -1.0567 -0.7334
  795SOL     OW 2383   0.281   2.365   2.600 -0.3084 -0.0872 -0.9455
  795SOL    HW1 2384   0.369   2.412   2.611  1.9255 -1.1359 -0.3493
  795SOL    HW2 2385   0.201   2.426   2.619  0.6895  1.6051  0.8179
  796SOL     OW 2386   2.028   0.303   2.662 -0.6153 -0.1969  0.1890
  796SOL    HW1 2387   1.947   0.262   2.614 -1.0590  0.5334 -0.3226
  796SOL    HW2 2388   2.012   0.289   2.761 -0.5044  0.5982 -1.1177
  797SOL     OW 2389   2.437   2.412   2.788  0.4847 -0.3550 -0.4431
  797SOL    HW1 2390   2.493   2.454   2.861  1.9569 -0.4927  0.5456
  797SOL    HW2 2391   2.337   2.396   2.813 -0.8066 -0.2810 -0.9414
  798SOL     OW 2392   0.192   0.812   1.551  0.4873 -0.2495  0.7757
  798SOL    HW1 2393   0.229   0.726   1.505 -0.2394 -0.9892 -4.2618
  798SOL    HW2 2394   0.202   0.807   1.653 -0.0534 -0.7012 -1.2795
  799SOL     OW 2395   0.737   0.285   1.714  0.1120  0.3569 -0.0662
  799SOL    HW1 2396   0.639   0.315   1.726 -0.6679 -1.4898 -3.1344
  799SOL    HW2 2397   0.748   0.185   1.727 -1.5017  0.9888 -0.9303
  800SOL     OW 2398   2.993   2.570   0.360 -0.0151  0.7223 -0.2670
  800SOL    HW1 2399   2.980   2.478   0.320 -0.3346 -0.8853  3.5510
  800SOL    HW2 2400   3.089   2.594   0.376 -3.6642 -0.2743  0.6679
  801SOL     OW 2401   1.708   1.905   0.626 -0.2163  0.0677 -0.0922
  801SOL    HW1 2402   1.723   1.883   0.727 -0.0806 -0.3955  2.8852
  801SOL    HW2 2403   1.612   1.928   0.619 -0.6555 -0.8890 -2.3663
  802SOL     OW 2404   0.762   0.441   0.242  0.5082 -0.3647  0.3367
  802SOL    HW1 2405   0.725   0.509   0.309 -0.3239  0.3445  2.1275
  802SOL    HW2 2406   0.720   0.458   0.152 -0.7819  0.5173  0.9925
  803SOL     OW 2407   1.122   0.956   2.056  0.2300  0.1906  0.4890
  803SOL    HW1 2408   1.109   0.859   2.090  1.7717  0.1838 -0.0013
  803SOL    HW2 2409   1.048   1.015   2.091  3.0978 -0.2709  0.4658
  804SOL     OW 2410   1.926   2.209   1.214 -0.7578 -0.3025 -0.2215
  804SOL    HW1 2411   1.954   2.126   1.268  1.8344 -2.0993  1.8755
  804SOL    HW2 2412   2.010   2.265   1.199 -0.2272 -0.6379  1.3463
  805SOL     OW 2413   2.907   2.171   2.550  0.1964  0.5756  0.1390
  805SOL    HW1 2414   2.961   2.099   2.501  0.5747 -0.8470  2.2605
  805SOL    HW2 2415   2.913   2.259   2.498  0.7820  0.0603 -1.0974
  806SOL     OW 2416   0.577   2.483   0.358  0.2985  0.1670  0.0663
  806SOL    HW1 2417   0.589   2.567   0.297 -1.9487  1.2176 -1.3865
  806SOL    HW2 2418   0.479   2.454   0.350  0.7607 -1.2515 -3.0218
  807SOL     OW 2419   2.392   0.947   2.820  0.1444 -0.2903 -0.0502
  807SOL    HW1 2420   2.426   0.984   2.909 -0.5117 -0.2541  0.6815
  807SOL    HW2 2421   2.292   0.927   2.833 -1.2124 -0.0443  0.7841
  808SOL     OW 2422   1.434   2.189   0.651 -0.6889 -0.0051 -0.2634
  808SOL    HW1 2423   1.447   2.118   0.578  0.8529 -2.2568  2.7277
  808SOL    HW2 2424   1.501   2.173   0.728 -0.1191  0.5754  1.2920
  809SOL     OW 2425   0.352   0.713   0.759 -0.0870 -0.1666 -0.1162
  809SOL    HW1 2426   0.366   0.795   0.818  0.2213  0.9157 -0.3396
  809SOL    HW2 2427   0.343   0.627   0.815 -2.7224  0.1689 -1.0128
  810SOL     OW 2428   1.391   1.719   0.047  0.0806 -0.1601  0.6625
  810SOL    HW1 2429   1.440   1.719   3.065  1.6915 -1.0221 -2.3002
  810SOL    HW2 2430   1.432   1.780   0.110 -0.8006 -0.6293 -0.9380
  811SOL     OW 2431   1.320   0.012   1.628  0.2897 -0.3776 -0.3887
  811SOL    HW1 2432   1.410   3.073   1.612 -0.5027 -0.3338 -0.5541
  811SOL    HW2 2433   1.247   0.001   1.557 -1.2346 -0.0310 -1.5580
  812SOL     OW 2434   1.610   0.032   0.832 -0.1256  0.0037 -0.3244
  812SOL    HW1 2435   1.518   0.045   0.791 -0.7188 -2.2245 -0.7135
  812SOL    HW2 2436   1.604   3.054   0.889  0.9193 -0.9794  0.5189
  813SOL     OW 2437   1.513   3.073   2.187  0.7720 -0.1533  0.6621
  813SOL    HW1 2438   1.441   3.012   2.231  0.4391  1.0431  0.5611
  813SOL    HW2 2439   1.509   0.061   2.225  0.1542  1.4147 -2.1423
  814SOL     OW 2440   1.325   3.010   1.879  0.0634 -0.4594  0.1491
  814SOL    HW1 2441   1.415   3.051   1.897 -0.1303 -3.0074  1.7540
  814SOL    HW2 2442   1.303   3.041   1.782 -1.7722  2.8897  0.7334
  815SOL     OW 2443   0.191   0.025   0.175  0.6342 -0.6713  0.5495
  815SOL    HW1 2444   0.217   3.102   0.268 -1.9746 -1.0225 -2.9882
  815SOL    HW2 2445   0.273   0.025   0.114 -0.5051 -1.7527 -2.5526
  816SOL     OW 2446   2.571   1.414   2.887  0.5368 -0.2521 -0.1355
  816SOL    HW1 2447   2.534   1.397   2.793 -1.5775  1.9152 -3.1847
  816SOL    HW2 2448   2.647   1.352   2.912  1.3603  0.5375  0.7885
  817SOL     OW 2449   2.577   2.297   2.572 -0.6257 -0.0827 -0.4278
  817SOL    HW1 2450   2.498   2.312   2.630 -0.9848 -1.0036  1.2240
  817SOL    HW2 2451   2.624   2.207   2.590 -0.0314 -3.4132  1.9176
  818SOL     OW 2452   1.069   1.372   0.312  0.1283  0.0839 -0.0859
  818SOL    HW1 2453   1.085   1.310   0.389 -2.0157  1.3109 -1.6331
  818SOL    HW2 2454   1.126   1.453   0.320  0.2809 -4.3492 -1.4937
  819SOL     OW 2455   1.805   1.317   3.095  0.0321  0.2030 -0.3831
  819SOL    HW1 2456   1.780   1.298   2.998 -2.7445 -1.6894 -0.3839
  819SOL    HW2 2457   1.896   1.357   3.101 -1.8731 -1.2991 -0.8132
  820SOL     OW 2458   0.409   1.308   0.698  0.0911  0.1169 -0.2299
  820SOL    HW1 2459   0.467   1.269   0.773  1.3670  0.7899  3.5878
  820SOL    HW2 2460   0.462   1.369   0.638 -0.5526  0.2666 -2.4060
  821SOL     OW 2461   0.347   2.855   1.361 -0.0685 -0.4713 -0.5633
  821SOL    HW1 2462   0.427   2.865   1.300  1.2066 -3.0272  1.6099
  821SOL    HW2 2463   0.376   2.850   1.461  1.6441  1.8008  1.4728
  822SOL     OW 2464   1.957   1.771   2.654 -0.3133  0.0999  0.5641
  822SOL    HW1 2465   2.022   1.828   2.707  1.3809 -0.7308  3.2816
  822SOL    HW2 2466   1.930   1.814   2.565  0.5265 -0.0218 -1.4248
  823SOL     OW 2467   0.710   0.444   2.327 -0.0292  0.4370 -0.1031
  823SOL    HW1 2468   0.766   0.493   2.257 -1.5522 -0.5879 -1.1578
  823SOL    HW2 2469   0.622   0.483   2.351  1.5581 -0.2635  1.7258
  824SOL     OW 2470   2.637   2.955   1.442 -0.0416 -0.3031  0.5716
  824SOL    HW1 2471   2.602   3.051   1.429 -0.6226  0.3900  2.3442
  824SOL    HW2 2472   2.686   2.935   1.355  1.5777  0.2319  2.7877
  825SOL     OW 2473   0.219   1.673   2.493 -0.4564 -0.0305 -0.5384
  825SOL    HW1 2474   0.256   1.720   2.413 -0.1644 -2.8615 -0.5674
  825SOL    HW2 2475   0.113   1.668   2.511 -1.4614  1.4657  1.8703
  826SOL     OW 2476   1.515   3.092   0.015 -0.2596 -0.9379  0.0868
  826SOL    HW1 2477   1.534   0.080   0.051  0.1463 -1.1452  1.8887
  826SOL    HW2 2478   1.596   3.036   0.039 -0.8839  0.9767  2.4639
  827SOL     OW 2479   0.005   2.040   2.082 -0.0282  0.0755  0.0860
  827SOL    HW1 2480   0.018   1.975   2.002  0.6632  0.2403  1.4109
  827SOL    HW2 2481   0.010   1.992   2.173  1.1969  1.4681 -1.1911
  828SOL     OW 2482   0.127   0.151   1.413  0.4343 -0.0507 -0.4701
  828SOL    HW1 2483   0.212   0.135   1.361 -0.3379 -1.5922  1.7984
  828SOL    HW2 2484   0.059   0.209   1.366 -1.2695 -0.0624 -1.8714
  829SOL     OW 2485   0.990   1.585   2.161 -0.1372 -0.7064  0.0031
  829SOL    HW1 2486   1.008   1.492   2.204 -0.2120  0.1185  1.3330
  829SOL    HW2 2487   0.958   1.583   2.061  1.5966 -0.8880 -1.5315
  830SOL     OW 2488   1.010   0.986   1.577 -0.2110 -0.0666 -0.0406
  830SOL    HW1 2489   1.027   0.968   1.481 -0.2672  1.6167  2.0447
  830SOL    HW2 2490   0.935   0.926   1.607  0.2507 -1.7476 -0.2820
  831SOL     OW 2491   2.635   1.860   0.126  0.1004 -0.0669 -0.0673
  831SOL    HW1 2492   2.683   1.787   0.076 -0.3327 -1.5524  0.1662
  831SOL    HW2 2493   2.688   1.895   0.205  2.1324  1.0509  1.4762
  832SOL     OW 2494   1.092   2.256   2.666  0.5834 -0.1269 -0.0005
  832SOL    HW1 2495   1.080   2.161   2.623 -1.2566  1.4246 -3.5052
  832SOL    HW2 2496   1.007   2.301   2.700 -0.6975  1.3298  1.8692
  833SOL     OW 2497   0.229   0.383   1.547 -0.4790  0.6173  0.0052
  833SOL    HW1 2498   0.151   0.402   1.613 -1.9227  0.5213  0.7419
  833SOL    HW2 2499   0.208   0.293   1.498 -0.3252  0.1506  1.1860
  834SOL     OW 2500   2.961   0.804   1.159  0.0359 -0.0536 -0.0799
  834SOL    HW1 2501   3.021   0.813   1.242  2.6768  0.4502 -1.5372
  834SOL    HW2 2502   2.861   0.792   1.189  0.2094  0.6024  3.2891
  835SOL     OW 2503   2.798   0.478   0.498  0.1271 -0.1500 -0.2203
  835SOL    HW1 2504   2.874   0.472   0.569  3.4096 -2.7992  2.1192
  835SOL    HW2 2505   2.705   0.439   0.524  1.0940 -1.3723  1.8396
  836SOL     OW 2506   0.478   2.156   2.851 -0.6251  0.1009 -0.0001
  836SOL    HW1 2507   0.454   2.070   2.906 -0.7153  1.2742  1.6718
  836SOL    HW2 2508   0.455   2.138   2.752 -1.0857  1.0714 -0.9969
  837SOL     OW 2509   1.397   1.725   0.446 -0.2843  0.4827 -0.0310
  837SOL    HW1 2510   1.456   1.761   0.367  1.6188  1.4157 -2.4916
  837SOL    HW2 2511   1.296   1.720   0.418 -3.0092 -0.2645 -2.7299
  838SOL     OW 2512   2.138   0.957   2.367  0.2758  0.5120  0.0739
  838SOL    HW1 2513   2.240   0.957   2.379  1.5879 -0.5472 -0.7706
  838SOL    HW2 2514   2.118   0.960   2.266 -1.6635 -0.0211 -1.0339
  839SOL     OW 2515   1.255   1.191   2.590  0.0423  0.6068 -0.0920
  839SOL    HW1 2516   1.158   1.186   2.634  0.7767  0.2035  0.3193
  839SOL    HW2 2517   1.311   1.107   2.624  0.8095  1.0943 -0.9506
  840SOL     OW 2518   0.833   1.048   0.190  0.1476  0.0811  0.1115
  840SOL    HW1 2519   0.752   0.986   0.195  2.9565  1.9736  2.1001
  840SOL    HW2 2520   0.801   1.138   0.153  2.3378  1.9268 -1.7150
  841SOL     OW 2521   1.065   2.134   3.040  0.4396  0.1557 -0.3222
  841SOL    HW1 2522   1.071   2.215   3.104  0.6965 -0.9850 -0.7794
  841SOL    HW2 2523   0.982   2.130   2.982 -1.6853  0.4404 -1.0512
  842SOL     OW 2524   0.446   0.575   0.526  0.4343 -0.2394  0.0017
  842SOL    HW1 2525   0.430   0.651   0.593  1.7147  2.3090  3.5938
  842SOL    HW2 2526   0.482   0.497   0.577 -0.9080 -0.4849  3.1064
  843SOL     OW 2527   0.557   0.835   1.249 -0.2565  0.4682  0.2190
  843SOL    HW1 2528   0.491   0.909   1.231  1.8848 -1.4414  0.4257
  843SOL    HW2 2529   0.556   0.762   1.174 -1.5299 -2.4610 -2.0503
  844SOL     OW 2530   2.092   2.549   2.774  0.0730 -0.2627  0.1686
  844SOL    HW1 2531   2.161   2.602   2.821 -2.1035  0.9346 -1.8413
  844SOL    HW2 2532   2.093   2.560   2.675 -0.4402 -1.8027  2.9101
  845SOL     OW 2533   2.648   2.959   1.723 -0.1944 -0.0669  0.0928
  845SOL    HW1 2534   2.689   2.876   1.766 -0.6932  1.1707  1.1333
  845SOL    HW2 2535   2.644   2.953   1.621  3.4984  2.2957  0.9855
  846SOL     OW 2536   1.742   1.027   2.490 -0.0866  0.7150 -0.0581
  846SOL    HW1 2537   1.710   0.953   2.431  2.2820  1.3383  3.1300
  846SOL    HW2 2538   1.693   1.121   2.476 -3.3150  3.6459 -1.4572
  847SOL     OW 2539   0.010   0.443   1.677  0.0622 -0.5401 -0.4449
  847SOL    HW1 2540   0.029   0.518   1.741  0.4205 -1.6913  0.4067
  847SOL    HW2 2541   3.043   0.386   1.716 -3.3637 -1.9379  1.8710
  848SOL     OW 2542   2.659   2.905   0.187  0.3667 -0.1641  0.3118
  848SOL    HW1 2543   2.751   2.870   0.183 -1.6872  0.3070 -0.0909
  848SOL    HW2 2544   2.597   2.835   0.231 -1.4960  0.9702 -0.5707
  849SOL     OW 2545   0.530   3.009   0.838 -0.0808  0.0478 -0.0446
  849SOL    HW1 2546   0.495   2.929   0.790  2.8485 -2.2299  0.4891
  849SOL    HW2 2547   0.471   3.026   0.920  0.7763 -1.1154 -0.7395
  850SOL     OW 2548   0.567   2.118   0.447 -0.0683 -0.5134  0.1628
  850SOL    HW1 2549   0.521   2.145   0.361  3.0837  3.7386  0.7311
  850SOL    HW2 2550   0.660   2.079   0.417  0.8278  0.4032 -1.0924
  851SOL     OW 2551   2.316   0.574   2.951  0.3082  0.1636 -0.2947
  851SOL    HW1 2552   2.255   0.606   2.876 -0.8833 -1.0934  0.2719
  851SOL    HW2 2553   2.309   0.473   2.957 -0.9620 -0.8355 -0.4732
  852SOL     OW 2554   1.724   2.211   2.628 -0.2314  0.5241 -0.5548
  852SOL    HW1 2555   1.727   2.113   2.602  0.2797  1.5242  1.6479
  852SOL    HW2 2556   1.710   2.263   2.542 -2.6150  2.3902 -1.2822
  853SOL     OW 2557   3.078   2.280   0.236 -0.2391  0.1944 -0.6443
  853SOL    HW1 2558   3.082   2.340   0.155  1.3879  0.3225  0.9639
  853SOL    HW2 2559   0.056   2.273   0.286 -0.3518 -2.6879  1.3845
  854SOL     OW 2560   1.145   0.669   2.090 -0.3353 -0.0696  0.4712
  854SOL    HW1 2561   1.223   0.708   2.037 -0.7554 -3.6755  0.2601
  854SOL    HW2 2562   1.171   0.665   2.188 -1.2866 -2.3547 -2.9914
  855SOL     OW 2563   0.168   2.746   0.709 -0.2332  0.0503 -0.2049
  855SOL    HW1 2564   0.106   2.680   0.758 -1.9338  1.8343 -1.2485
  855SOL    HW2 2565   0.175   2.725   0.612  0.7154  0.1246  2.3202
  856SOL     OW 2566   0.346   2.933   2.548  0.6201  0.2712  0.7376
  856SOL    HW1 2567   0.325   2.833   2.540 -2.6208  1.5382 -0.0514
  856SOL    HW2 2568   0.445   2.950   2.553  2.1883  1.8338  1.2990
  857SOL     OW 2569   1.159   0.367   1.563 -0.0357  0.0974 -0.1329
  857SOL    HW1 2570   1.136   0.387   1.661 -2.1663 -1.6856 -2.5775
  857SOL    HW2 2571   1.095   0.415   1.505  0.1361 -3.2942  0.0810
  858SOL     OW 2572   0.018   2.158   1.661  0.2184  0.3064  0.5122
  858SOL    HW1 2573   3.072   2.244   1.662  0.8942  0.0707 -2.1268
  858SOL    HW2 2574   0.115   2.173   1.697  1.7340 -0.7420 -0.8604
  859SOL     OW 2575   2.019   2.876   1.928 -0.2223 -0.0295 -0.6841
  859SOL    HW1 2576   2.112   2.881   1.886  1.8621 -0.5738  0.2220
  859SOL    HW2 2577   1.952   2.863   1.850  1.2100 -2.3671  1.5925
  860SOL     OW 2578   1.730   0.234   0.667 -0.2104  0.5392  0.1921
  860SOL    HW1 2579   1.705   0.168   0.740 -0.4541  0.6353 -2.2485
  860SOL    HW2 2580   1.825   0.218   0.629  0.9449  1.0486 -0.7562
  861SOL     OW 2581   2.890   0.843   0.682  0.5286  0.4064  0.2464
  861SOL    HW1 2582   2.928   0.751   0.665  1.5662  1.7363 -2.1563
  861SOL    HW2 2583   2.967   0.913   0.691  1.2813  0.9421  0.8325
  862SOL     OW 2584   1.882   0.732   1.879 -0.0661  0.8831  0.0722
  862SOL    HW1 2585   1.839   0.641   1.856 -0.2237 -1.9186  0.8795
  862SOL    HW2 2586   1.942   0.772   1.809 -0.4030 -2.0903 -0.8576
  863SOL     OW 2587   0.723   0.687   0.992 -0.2661  0.5911  0.0490
  863SOL    HW1 2588   0.650   0.632   1.040  0.3272  0.5930 -0.5176
  863SOL    HW2 2589   0.809   0.705   1.046 -0.9637 -2.0892 -0.7250
  864SOL     OW 2590   2.866   2.953   2.189 -0.5838 -0.5568  0.1371
  864SOL    HW1 2591   2.788   2.899   2.150  0.5669  1.0363  1.4701
  864SOL    HW2 2592   2.878   2.954   2.288  0.2971  0.4236 -2.0470
  865SOL     OW 2593   1.183   0.668   2.362 -0.4093 -0.0373 -0.4958
  865SOL    HW1 2594   1.244   0.746   2.389  0.9042  2.8268  1.1622
  865SOL    HW2 2595   1.194   0.591   2.428  1.1217 -2.0021 -0.4200
  866SOL     OW 2596   2.404   2.619   0.501  0.4146 -0.1867 -0.3464
  866SOL    HW1 2597   2.378   2.703   0.550 -0.1965 -1.0553  2.1978
  866SOL    HW2 2598   2.442   2.548   0.565 -0.8825  0.8672 -0.8828
  867SOL     OW 2599   2.707   2.826   0.538 -0.4106 -0.2690 -0.1423
  867SOL    HW1 2600   2.745   2.732   0.559  1.0904  0.4096  0.5482
  867SOL    HW2 2601   2.767   2.866   0.473 -2.2849 -0.6060  3.8613
  868SOL     OW 2602   1.660   0.827   3.054 -0.4663  0.0292  0.9403
  868SOL    HW1 2603   1.628   0.854   2.959 -1.8522  1.0323  0.0661
  868SOL    HW2 2604   1.702   0.907   3.104  3.1187 -0.5354  1.3747
  869SOL     OW 2605   2.733   2.346   0.682  0.0946  0.4854  0.1540
  869SOL    HW1 2606   2.742   2.338   0.787  0.4464 -0.7801 -0.0554
  869SOL    HW2 2607   2.635   2.354   0.660  0.4855  0.9951 -0.0979
  870SOL     OW 2608   2.203   2.043   0.509  0.0943  0.1516  0.5213
  870SOL    HW1 2609   2.113   2.006   0.545 -1.8720 -0.8127  0.8383
  870SOL    HW2 2610   2.270   1.970   0.484  0.4054  0.2898  2.4357
  871SOL     OW 2611   0.863   1.174   1.210  0.0751  0.5091  0.2685
  871SOL    HW1 2612   0.831   1.144   1.116 -1.5309  0.7136 -1.2744
  871SOL    HW2 2613   0.812   1.115   1.282 -0.1560 -0.0413  0.7856
  872SOL     OW 2614   1.127   2.078   2.294 -0.6690  0.0179 -0.5289
  872SOL    HW1 2615   1.209   2.096   2.235  3.9497  0.0850 -0.4051
  872SOL    HW2 2616   1.048   2.056   2.232  1.9144  1.1248  2.0918
  873SOL     OW 2617   0.622   2.453   2.077 -0.0415  0.5412 -0.0706
  873SOL    HW1 2618   0.648   2.542   2.128  0.9097  3.8808  1.2521
  873SOL    HW2 2619   0.526   2.432   2.083  2.3443 -1.4587 -0.2052
  874SOL     OW 2620   0.738   0.253   1.029  0.5327 -0.4619 -0.4596
  874SOL    HW1 2621   0.813   0.298   0.979  0.0089 -1.8258  1.3657
  874SOL    HW2 2622   0.724   0.287   1.121  4.0520 -2.0118 -1.8587
  875SOL     OW 2623   3.044   0.342   1.304  0.0455 -0.4377 -0.0953
  875SOL    HW1 2624   3.054   0.436   1.347  1.5859  1.2347  2.3931
  875SOL    HW2 2625   2.957   0.306   1.339 -2.3780 -1.0263  3.7520
  876SOL     OW 2626   0.625   0.871   0.209 -0.4803 -0.0011 -0.1585
  876SOL    HW1 2627   0.628   0.803   0.284 -1.9619  0.6689  1.0092
  876SOL    HW2 2628   0.531   0.902   0.199  1.8132  0.3619  1.3728
  877SOL     OW 2629   1.122   0.662   1.451  0.0038 -0.2449 -0.1101
  877SOL    HW1 2630   1.164   0.626   1.368 -2.7396 -3.9557  1.0885
  877SOL    HW2 2631   1.073   0.749   1.435 -0.8137  0.2306 -0.9225
  878SOL     OW 2632   1.850   2.474   0.156 -0.0439  0.2107 -0.5238
  878SOL    HW1 2633   1.873   2.555   0.103  2.6114 -0.3034  2.2446
  878SOL    HW2 2634   1.905   2.476   0.240  0.8615 -0.3757  1.1993
  879SOL     OW 2635   2.720   1.346   1.302 -0.1143  0.4478  0.0570
  879SOL    HW1 2636   2.745   1.314   1.211  2.3181 -0.3922 -0.1459
  879SOL    HW2 2637   2.622   1.339   1.327  2.8429  3.4965  1.3544
  880SOL     OW 2638   1.352   2.438   0.581  0.6617  0.2271 -0.4696
  880SOL    HW1 2639   1.391   2.349   0.600 -0.2716  0.8462 -0.7493
  880SOL    HW2 2640   1.343   2.456   0.485  0.3902  0.5138  0.4496
  881SOL     OW 2641   0.803   1.999   0.365  0.1703 -0.5676 -0.4021
  881SOL    HW1 2642   0.898   2.026   0.378 -3.3956  0.1203 -2.3692
  881SOL    HW2 2643   0.779   2.017   0.267 -0.2986  3.2923  0.6807
  882SOL     OW 2644   1.976   0.598   1.160  0.0746  0.1849 -0.0360
  882SOL    HW1 2645   1.951   0.672   1.094 -1.4502  2.8781  1.2429
  882SOL    HW2 2646   1.902   0.604   1.235 -1.3200  2.1156  1.7406
  883SOL     OW 2647   1.641   0.956   1.616 -0.1301 -0.0743  0.2418
  883SOL    HW1 2648   1.609   0.871   1.571 -1.2639 -0.3629  0.7449
  883SOL    HW2 2649   1.668   0.940   1.715 -0.5637  0.6668  3.8291
  884SOL     OW 2650   2.947   0.550   0.253 -0.2439 -0.0027 -0.0101
  884SOL    HW1 2651   2.877   0.501   0.311 -0.5651  1.2345 -0.0874
  884SOL    HW2 2652   3.042   0.556   0.297  1.8249 -0.1928 -2.1724
  885SOL     OW 2653   1.211   1.628   2.819 -0.6620 -0.3385  0.9871
  885SOL    HW1 2654   1.254   1.569   2.751 -3.4608  0.2210  2.2534
  885SOL    HW2 2655   1.111   1.618   2.816 -1.4085 -0.0501 -0.7090
  886SOL     OW 2656   1.320   1.823   2.595  0.4675  0.0075  0.1668
  886SOL    HW1 2657   1.364   1.904   2.549 -0.4807  0.7989 -0.0522
  886SOL    HW2 2658   1.331   1.835   2.695  0.3713  1.1061  0.3933
  887SOL     OW 2659   1.381   0.251   1.164 -0.5823  0.6234  0.0137
  887SOL    HW1 2660   1.461   0.187   1.160 -0.0271 -1.8608 -0.5454
  887SOL    HW2 2661   1.355   0.281   1.259 -1.0646 -1.9337 -1.9761
  888SOL     OW 2662   2.478   0.758   1.523  0.2357  0.1854  0.0144
  888SOL    HW1 2663   2.557   0.699   1.523 -2.8798  2.2174 -0.5171
  888SOL    HW2 2664   2.416   0.746   1.441  1.1805  0.3823  0.2430
  889SOL     OW 2665   2.853   2.765   0.961 -0.3152  0.5424  0.1364
  889SOL    HW1 2666   2.908   2.728   0.883 -0.3969 -1.8662 -0.6137
  889SOL    HW2 2667   2.847   2.696   1.039  1.1868 -3.8262  0.8388
  890SOL     OW 2668   1.774   2.139   0.398  0.2283  0.0710  0.1245
  890SOL    HW1 2669   1.831   2.110   0.318  0.2156  1.2675 -0.6086
  890SOL    HW2 2670   1.750   2.239   0.401 -0.9432  2.2859  4.0843
  891SOL     OW 2671   0.645   1.087   2.759 -0.6179 -0.2034  0.1595
  891SOL    HW1 2672   0.551   1.094   2.722 -1.2382 -2.3914 -0.0520
  891SOL    HW2 2673   0.713   1.073   2.680  0.1849  0.5992  1.2150
  892SOL     OW 2674   2.947   3.073   1.533  0.4252 -0.4822  0.1095
  892SOL    HW1 2675   3.042   3.056   1.506 -0.0930  0.2152 -2.9058
  892SOL    HW2 2676   2.892   3.076   1.448 -0.7198 -0.0421 -0.3478
  893SOL     OW 2677   1.320   3.009   1.098 -0.5963 -0.0957 -0.3936
  893SOL    HW1 2678   1.413   2.970   1.083  2.1726 -0.3037 -0.8956
  893SOL    HW2 2679   1.270   3.021   1.008  1.0911 -1.5661 -1.9019
  894SOL     OW 2680   2.683   0.693   0.780  0.0800 -0.4032  0.5386
  894SOL    HW1 2681   2.723   0.605   0.761  1.6462 -1.2661  1.0709
  894SOL    HW2 2682   2.734   0.765   0.723 -1.7980  0.5151 -2.7460
  895SOL     OW 2683   1.778   1.431   2.410  0.6190 -0.7600 -0.3301
  895SOL    HW1 2684   1.833   1.434   2.496 -0.5754 -0.2061 -0.1990
  895SOL    HW2 2685   1.836   1.388   2.338  0.3795 -0.2114  1.6243
  896SOL     OW 2686   1.476   0.467   1.726 -0.3422  0.4039  0.0967
  896SOL    HW1 2687   1.400   0.529   1.700 -1.8305  0.3344  2.8942
  896SOL    HW2 2688   1.466   0.371   1.683 -0.9814 -1.5742 -1.2740
  897SOL     OW 2689   0.771   1.315   2.029  0.1606  0.3312  0.7065
  897SOL    HW1 2690   0.815   1.302   2.119 -0.6008 -0.0194 -1.2502
  897SOL    HW2 2691   0.818   1.391   1.980 -1.1929 -0.7495  1.8764
  898SOL     OW 2692   2.368   2.465   2.194  0.5239 -0.1019  0.4629
  898SOL    HW1 2693   2.309   2.428   2.123  2.5950  2.7069  0.6077
  898SOL    HW2 2694   2.404   2.390   2.250  2.3228 -0.0933 -1.6181
  899SOL     OW 2695   1.334   1.414   1.635  0.7556  0.0457  0.1866
  899SOL    HW1 2696   1.284   1.328   1.630  4.6030  6.0240  1.4343
  899SOL    HW2 2697   1.328   1.464   1.550  3.0504  0.8033  1.4028
  900SOL     OW 2698   1.074   1.990   2.566  0.5140 -0.2582  0.2314
  900SOL    HW1 2699   1.072   1.886   2.563 -0.4045 -1.7298 -0.1287
  900SOL    HW2 2700   1.137   2.020   2.488  1.7661  0.1882 -0.3905
  901SOL     OW 2701   0.555   2.114   2.388 -0.1524  0.6398  0.1885
  901SOL    HW1 2702   0.511   2.141   2.298 -0.9712 -0.2750 -0.4693
  901SOL    HW2 2703   0.489   2.101   2.463  1.1035  1.6425 -2.9805
  902SOL     OW 2704   1.957   1.788   0.170  0.0888  0.4210  0.1373
  902SOL    HW1 2705   1.892   1.716   0.134 -1.1788  0.6385 -1.3728
  902SOL    HW2 2706   2.027   1.745   0.229 -5.3467 -0.4135  1.4883
  903SOL     OW 2707   1.914   1.530   0.452  0.3604 -0.2877 -0.1369
  903SOL    HW1 2708   1.865   1.484   0.372  1.1291 -2.8894 -1.8068
  903SOL    HW2 2709   2.006   1.493   0.471 -1.9984  0.3623 -1.6122
  904SOL     OW 2710   0.935   0.765   2.737 -0.2514 -0.1832 -0.4164
  904SOL    HW1 2711   0.943   0.669   2.770  0.1523  1.0293 -0.2318
  904SOL    HW2 2712   1.000   0.830   2.782 -0.7382  1.6107 -2.9399
  905SOL     OW 2713   2.707   0.473   1.173  0.0611  0.3056  0.3287
  905SOL    HW1 2714   2.648   0.436   1.100  0.3739 -0.3487 -2.0085
  905SOL    HW2 2715   2.724   0.408   1.243 -0.2059 -2.1204 -4.2890
  906SOL     OW 2716   2.753   2.119   0.523  0.1090 -0.4236  0.2587
  906SOL    HW1 2717   2.800   2.049   0.585  1.0428 -0.2260 -1.0568
  906SOL    HW2 2718   2.743   2.201   0.581 -1.4420 -0.1140 -0.8611
  907SOL     OW 2719   1.333   0.462   0.472 -0.0013 -0.4817  0.5271
  907SOL    HW1 2720   1.409   0.396   0.478 -1.3375  3.4514 -1.2888
  907SOL    HW2 2721   1.257   0.416   0.424 -3.0427 -3.3185 -1.4967
  908SOL     OW 2722   1.837   0.093   1.520 -0.0614  0.2809 -0.0047
  908SOL    HW1 2723   1.893   0.026   1.468  1.2791 -0.2522  0.5960
  908SOL    HW2 2724   1.845   0.074   1.618 -1.2675 -1.4280 -2.4537
  909SOL     OW 2725   2.406   0.708   1.242  0.0613  0.2720 -0.3228
  909SOL    HW1 2726   2.503   0.680   1.246  0.3746  0.6689 -0.3984
  909SOL    HW2 2727   2.397   0.785   1.174  0.9827  0.1867  1.0695
  910SOL     OW 2728   1.040   2.819   2.318 -0.0724  0.2750 -0.6385
  910SOL    HW1 2729   1.019   2.804   2.419  0.9645  0.5507 -0.7932
  910SOL    HW2 2730   1.017   2.734   2.266  1.3008  0.8344  0.0669
  911SOL     OW 2731   2.398   0.904   1.729 -0.0419  0.4145 -0.3798
  911SOL    HW1 2732   2.440   0.841   1.663 -0.4744 -0.5709  0.7647
  911SOL    HW2 2733   2.302   0.877   1.749 -0.9437 -1.5217 -1.6635
  912SOL     OW 2734   2.753   2.007   1.488 -0.4113 -0.2402  0.1315
  912SOL    HW1 2735   2.690   2.067   1.438  2.8731 -0.7341  1.0675
  912SOL    HW2 2736   2.743   2.029   1.589 -0.5606 -0.2472  0.9185
  913SOL     OW 2737   2.606   2.133   1.298  0.1212  0.0882 -0.2547
  913SOL    HW1 2738   2.507   2.133   1.314  0.6317 -1.4808 -0.1688
  913SOL    HW2 2739   2.635   2.102   1.207  0.2672 -0.0857 -1.3801
  914SOL     OW 2740   1.976   1.658   1.478 -0.4104 -0.0426  0.4066
  914SOL    HW1 2741   2.079   1.645   1.466  3.6492 -0.5940  0.7016
  914SOL    HW2 2742   1.943   1.627   1.570 -0.3388  2.2068  0.1597
  915SOL     OW 2743   1.287   1.651   1.460 -0.3286  0.3763  0.3876
  915SOL    HW1 2744   1.255   1.743   1.488  1.0192 -2.0061 -3.7651
  915SOL    HW2 2745   1.243   1.620   1.373 -0.2531  1.4488  0.3722
  916SOL     OW 2746   2.552   2.703   1.490 -0.2471 -0.6318 -0.2151
  916SOL    HW1 2747   2.543   2.802   1.491 -0.6061 -1.8732  1.6010
  916SOL    HW2 2748   2.490   2.657   1.555 -1.6170  0.6396  1.2590
  917SOL     OW 2749   2.653   1.661   3.001  0.3726  0.1326  0.2118
  917SOL    HW1 2750   2.573   1.723   2.990 -0.2300  1.0475 -2.3920
  917SOL    HW2 2751   2.639   1.578   2.942  0.6520 -0.5481 -0.8412
  918SOL     OW 2752   1.707   2.323   2.349  0.1640  0.2894 -0.1370
  918SOL    HW1 2753   1.652   2.410   2.349 -2.9960 -0.6195 -1.2747
  918SOL    HW2 2754   1.803   2.338   2.321 -1.1363  0.7551  2.8211
  919SOL     OW 2755   1.413   2.272   1.641  0.2763  0.2696  0.3550
  919SOL    HW1 2756   1.434   2.363   1.610 -0.0607 -1.3617  0.5097
  919SOL    HW2 2757   1.366   2.223   1.571  2.0117 -0.0999  0.6603
  920SOL     OW 2758   2.890   0.328   2.756  0.0197 -0.0603 -0.1983
  920SOL    HW1 2759   2.966   0.395   2.750 -1.6814 -3.7755  1.8363
  920SOL    HW2 2760   2.927   0.238   2.783  0.4659  0.2641  3.3303
  921SOL     OW 2761   2.793   0.102   2.413 -0.2282  0.2499 -0.1016
  921SOL    HW1 2762   2.797   0.198   2.446  0.8416 -0.5602  0.5633
  921SOL    HW2 2763   2.702   0.072   2.380  0.4240  1.0464  0.1268
  922SOL     OW 2764   2.438   2.102   0.638  0.3419  0.1045  0.0887
  922SOL    HW1 2765   2.332   2.113   0.638 -0.8866 -2.6546  0.0493
  922SOL    HW2 2766   2.471   2.015   0.683  0.9907 -1.6467 -0.6115
  923SOL     OW 2767   0.402   1.775   0.291 -0.5060  0.3765 -0.2163
  923SOL    HW1 2768   0.383   1.854   0.225  0.7512 -0.9372 -0.0845
  923SOL    HW2 2769   0.495   1.788   0.339  2.8626 -0.8605  1.0951
  924SOL     OW 2770   1.349   0.289   2.949  0.4308 -0.1337  0.2247
  924SOL    HW1 2771   1.273   0.274   3.015  3.9909 -1.9864 -0.1434
  924SOL    HW2 2772   1.395   0.204   2.919 -1.3426 -0.3135 -1.3454
  925SOL     OW 2773   2.510   1.186   0.835  0.0366  0.2090  0.1155
  925SOL    HW1 2774   2.501   1.287   0.832 -1.6013  1.2023 -1.1713
  925SOL    HW2 2775   2.466   1.144   0.750 -2.9113  1.0640  1.0573
  926SOL     OW 2776   2.873   1.124   1.138  0.2164 -0.7310 -0.8132
  926SOL    HW1 2777   2.789   1.067   1.156 -0.1265  0.3132 -2.4080
  926SOL    HW2 2778   2.875   1.154   1.038  1.2880  1.4748 -0.9212
  927SOL     OW 2779   0.614   1.267   0.347  0.1624  0.5544 -1.1385
  927SOL    HW1 2780   0.513   1.237   0.350  1.2315 -1.4879 -0.0922
  927SOL    HW2 2781   0.644   1.267   0.250  1.3104  3.1636  2.4173
  928SOL     OW 2782   0.066   0.386   2.445 -0.4048  0.5006  0.0161
  928SOL    HW1 2783   0.054   0.287   2.423  0.1461  0.0975 -1.6004
  928SOL    HW2 2784   0.169   0.409   2.454  2.5304  0.6391 -1.6806
  929SOL     OW 2785   2.888   3.106   1.279  0.1275  0.0370 -0.0497
  929SOL    HW1 2786   2.928   0.027   1.191 -0.7552 -0.6139  2.0753
  929SOL    HW2 2787   2.791   3.073   1.264 -0.2710 -0.9726  2.7485
  930SOL     OW 2788   1.964   2.016   1.413 -0.2019 -0.1995  0.6396
  930SOL    HW1 2789   1.895   2.047   1.484 -3.6070 -0.7527  3.1160
  930SOL    HW2 2790   2.051   1.989   1.464  1.9019 -1.0843  2.3160
  931SOL     OW 2791   1.635   1.348   0.879 -0.7287  0.2503 -0.2164
  931SOL    HW1 2792   1.643   1.377   0.976  1.6718 -0.0874 -1.2282
  931SOL    HW2 2793   1.598   1.423   0.829 -1.9536 -0.7951 -0.0659
  932SOL     OW 2794   2.986   1.124   1.415 -0.0150  0.0043  0.2134
  932SOL    HW1 2795   2.904   1.099   1.473  3.0553 -2.0075  0.5080
  932SOL    HW2 2796   2.957   1.134   1.314 -1.1262  0.5081  0.5302
  933SOL     OW 2797   2.409   1.506   1.647  0.2242  0.8584  0.3555
  933SOL    HW1 2798   2.421   1.487   1.747  1.5526  0.2284  2.0910
  933SOL    HW2 2799   2.474   1.580   1.614 -0.2510  0.8466 -1.8885
  934SOL     OW 2800   1.634   0.168   1.082 -0.2623  0.0955 -0.0056
  934SOL    HW1 2801   1.624   0.138   0.987  3.2937 -0.2772  0.7561
  934SOL    HW2 2802   1.705   0.105   1.124  2.5007  1.0479  2.7438
  935SOL     OW 2803   0.382   1.585   1.010 -0.1104  0.1878 -0.4364
  935SOL    HW1 2804   0.454   1.525   1.042 -1.5788 -1.0601  1.8535
  935SOL    HW2 2805   0.356   1.641   1.091  1.0808 -0.5832 -2.8962
  936SOL     OW 2806   0.024   1.193   0.756  0.0479 -0.1062  0.5893
  936SOL    HW1 2807   3.082   1.271   0.718  0.4285 -2.3065  0.8781
  936SOL    HW2 2808   0.086   1.230   0.826  1.4654  0.0932 -0.0901
  937SOL     OW 2809   1.738   2.600   0.947 -0.2996 -0.0501  0.1802
  937SOL    HW1 2810   1.638   2.606   0.948  1.7465 -3.6215  1.5087
  937SOL    HW2 2811   1.768   2.669   0.883 -2.9977  0.4282  1.7221
  938SOL     OW 2812   2.550   2.500   0.919 -0.1675  0.2972 -0.1841
  938SOL    HW1 2813   2.570   2.591   0.883  2.3112 -0.9058 -0.8812
  938SOL    HW2 2814   2.459   2.461   0.899  1.0118 -0.8112 -0.6194
  939SOL     OW 2815   0.372   2.296   3.046  0.4554  0.4578  0.1708
  939SOL    HW1 2816   0.401   2.233   2.968 -0.2224 -2.2369 -3.6004
  939SOL    HW2 2817   0.428   2.296   0.025 -0.2710 -0.3746  1.1581
  940SOL     OW 2818   2.941   2.957   3.068 -0.1362 -0.5480  0.4100
  940SOL    HW1 2819   2.882   2.914   0.029 -0.9922 -0.1964 -1.4530
  940SOL    HW2 2820   3.008   2.890   3.031 -1.9177 -1.4764 -0.9971
  941SOL     OW 2821   0.797   2.757   3.018 -0.6465  0.3403 -0.1716
  941SOL    HW1 2822   0.856   2.670   3.000  1.2563 -0.1071  1.9212
  941SOL    HW2 2823   0.808   2.790   0.007 -0.8666 -1.5253 -0.3755
  942SOL     OW 2824   1.528   1.927   1.552 -0.1690 -0.2092 -0.1379
  942SOL    HW1 2825   1.617   1.966   1.582 -3.3704  1.9344  0.7242
  942SOL    HW2 2826   1.525   1.825   1.546  0.8869 -0.5283 -1.0991
  943SOL     OW 2827   2.229   1.103   1.376 -0.0405 -0.2351  0.4266
  943SOL    HW1 2828   2.137   1.150   1.356  0.8062  1.6808 -2.3860
  943SOL    HW2 2829   2.220   1.010   1.417 -1.6717  2.3491  0.5010
  944SOL     OW 2830   2.152   0.830   1.383 -0.0637 -0.1368 -0.0458
  944SOL    HW1 2831   2.137   0.841   1.282  0.9990 -0.5753 -0.3176
  944SOL    HW2 2832   2.171   0.732   1.410 -0.6957 -0.2999  1.7359
  945SOL     OW 2833   3.018   2.999   0.970 -0.1730 -0.0537 -0.4454
  945SOL    HW1 2834   2.961   2.916   0.988 -0.3960  2.3012  1.6328
  945SOL    HW2 2835   2.959   3.081   0.972 -0.1091 -3.3354 -0.2221
  946SOL     OW 2836   0.515   0.620   1.560 -0.0431 -0.0740  0.4326
  946SOL    HW1 2837   0.499   0.530   1.600 -1.8139  3.0388 -2.2603
  946SOL    HW2 2838   0.442   0.639   1.491 -0.5575  0.5797 -2.9214
  947SOL     OW 2839   0.460   2.771   0.706  0.1510  0.0780  0.2800
  947SOL    HW1 2840   0.452   2.814   0.613 -0.4750 -1.0187  1.4199
  947SOL    HW2 2841   0.369   2.738   0.740 -0.4861 -0.4198 -0.4789
  948SOL     OW 2842   3.107   1.352   1.802  0.2662  0.2209  0.0454
  948SOL    HW1 2843   0.086   1.399   1.771  1.1097 -1.8473 -2.0336
  948SOL    HW2 2844   0.019   1.252   1.801 -0.3315  0.0346 -0.4123
  949SOL     OW 2845   0.578   0.912   2.446  0.2854  0.0701 -0.0494
  949SOL    HW1 2846   0.665   0.871   2.408 -0.9673 -2.3036  0.0330
  949SOL    HW2 2847   0.539   0.843   2.512 -1.7439 -0.5373 -1.4811
  950SOL     OW 2848   1.057   0.497   1.105  0.6000 -0.0445 -0.0517
  950SOL    HW1 2849   0.998   0.576   1.138 -0.9570  1.0487  0.9179
  950SOL    HW2 2850   1.153   0.513   1.131 -0.1779 -1.5255  0.8561
  951SOL     OW 2851   0.888   2.024   2.121 -0.1447 -0.0951  0.1128
  951SOL    HW1 2852   0.955   2.037   2.044  1.9454  0.6657  0.9572
  951SOL    HW2 2853   0.826   2.107   2.134 -1.6030 -1.3590  3.0437
  952SOL     OW 2854   0.394   1.934   2.966 -0.2546  0.0867 -0.0007
  952SOL    HW1 2855   0.413   1.832   2.964  0.7174 -0.8742 -0.3574
  952SOL    HW2 2856   0.294   1.956   2.938  3.1507  2.4301  0.5107
  953SOL     OW 2857   1.849   0.004   2.258  0.5619 -0.1524  0.4030
  953SOL    HW1 2858   1.934   0.012   2.310 -0.0100 -2.8808 -1.8919
  953SOL    HW2 2859   1.857   0.062   2.176  1.4493 -0.5715  2.9397
  954SOL     OW 2860   1.781   1.147   0.721 -0.2814  0.0778 -0.3214
  954SOL    HW1 2861   1.778   1.155   0.619  2.0172  0.0935 -2.0910
  954SOL    HW2 2862   1.740   1.230   0.773 -0.1953  0.7431  2.8038
  955SOL     OW 2863   0.363   2.388   2.158  0.2812  0.0266  0.3562
  955SOL    HW1 2864   0.351   2.314   2.089  0.5348 -0.8868  0.4714
  955SOL    HW2 2865   0.330   2.483   2.127 -0.3747 -0.4324 -2.9001
  956SOL     OW 2866   1.557   0.682   1.484  0.1162  0.0965  0.4059
  956SOL    HW1 2867   1.511   0.716   1.394 -1.9449 -2.2919 -5.6151
  956SOL    HW2 2868   1.487   0.653   1.552  0.5829 -0.5331 -0.1735
  957SOL     OW 2869   2.127   1.558   2.660 -0.3285  0.3157 -0.5452
  957SOL    HW1 2870   2.170   1.553   2.567  2.5835 -2.5032 -0.4891
  957SOL    HW2 2871   2.075   1.643   2.676 -0.5511  0.4110  0.7284
  958SOL     OW 2872   1.075   2.500   0.919  0.1662 -0.1077 -0.3567
  958SOL    HW1 2873   1.024   2.584   0.939  0.9009  1.9075  1.3378
  958SOL    HW2 2874   1.080   2.442   1.002 -1.7797  1.6674 -1.6085
  959SOL     OW 2875   1.641   1.951   2.620  0.5525 -0.4347  0.5329
  959SOL    HW1 2876   1.544   1.964   2.600  1.0188  0.6736  1.1336
  959SOL    HW2 2877   1.660   1.855   2.640  1.2607  0.7531 -1.0071
  960SOL     OW 2878   0.104   0.251   3.009 -0.2288 -0.1174 -0.6027
  960SOL    HW1 2879   0.003   0.267   3.002 -2.0601  1.8987 -0.7704
  960SOL    HW2 2880   0.150   0.314   3.072 -1.0254  3.7614 -2.0166
  961SOL     OW 2881   0.771   0.825   2.256 -0.2341  0.2765  0.2266
  961SOL    HW1 2882   0.817   0.834   2.347  0.2212 -2.7898  0.2131
  961SOL    HW2 2883   0.810   0.748   2.201 -3.0258 -2.6908  0.8126
  962SOL     OW 2884   0.967   1.332   2.906 -0.4373 -0.1576  0.0668
  962SOL    HW1 2885   1.050   1.315   2.961 -1.9313 -1.1815 -1.9024
  962SOL    HW2 2886   0.887   1.275   2.938 -4.0170  0.1096 -1.4147
  963SOL     OW 2887   2.257   1.559   2.902  0.0910  0.2529  0.3204
  963SOL    HW1 2888   2.230   1.572   2.803  1.0627 -0.0240  0.6653
  963SOL    HW2 2889   2.334   1.619   2.922 -0.3996 -0.8894 -0.3750
  964SOL     OW 2890   1.467   2.601   0.972  0.8277  0.2978 -0.2872
  964SOL    HW1 2891   1.401   2.611   0.893 -0.5916 -0.4005 -1.3839
  964SOL    HW2 2892   1.434   2.641   1.060 -0.8309 -0.7406  2.8464
  965SOL     OW 2893   0.788   2.308   1.238  0.2184  0.2341 -0.3072
  965SOL    HW1 2894   0.785   2.268   1.331 -0.5670 -0.5504 -1.6195
  965SOL    HW2 2895   0.753   2.243   1.168  2.1605  0.1117  4.0327
  966SOL     OW 2896   0.064   1.424   0.070 -0.0739  0.2829  0.3484
  966SOL    HW1 2897   3.083   1.472   0.049 -0.2790 -0.9951  1.8930
  966SOL    HW2 2898   0.080   1.419   0.169 -0.7948 -1.3706 -3.0251
  967SOL     OW 2899   1.557   0.024   1.925 -1.1699  0.2215 -0.6243
  967SOL    HW1 2900   1.577   3.099   2.023 -1.5690 -1.8379 -0.0777
  967SOL    HW2 2901   1.636   0.006   1.859  0.6361 -2.1025 -0.9791
  968SOL     OW 2902   1.903   0.808   0.993 -0.4302 -0.0189 -0.2785
  968SOL    HW1 2903   1.943   0.885   1.044  1.8020  0.0879  2.2338
  968SOL    HW2 2904   1.830   0.841   0.929  0.5517 -1.4207  1.4323
  969SOL     OW 2905   0.244   1.672   1.993  0.2325  0.0279  0.3799
  969SOL    HW1 2906   0.340   1.688   1.954  2.2578 -0.3696  1.6403
  969SOL    HW2 2907   0.176   1.743   1.968  1.1699 -1.5728  2.4691
  970SOL     OW 2908   2.508   1.456   1.048 -0.0283 -0.5011  0.1161
  970SOL    HW1 2909   2.442   1.404   1.108 -1.8144 -2.9832  2.0329
  970SOL    HW2 2910   2.521   1.554   1.080 -0.5281  1.0821  2.2171
  971SOL     OW 2911   0.852   0.399   1.473  0.6868  0.4068 -0.5444
  971SOL    HW1 2912   0.833   0.501   1.475 -0.3724 -1.4301 -0.7369
  971SOL    HW2 2913   0.809   0.366   1.558 -2.5280  2.0071  0.8158
  972SOL     OW 2914   0.909   0.323   2.435  0.0085 -0.4760  0.7275
  972SOL    HW1 2915   0.987   0.322   2.370  0.5340  1.3391  0.4529
  972SOL    HW2 2916   0.830   0.382   2.395 -1.3243 -0.6568 -3.4058
  973SOL     OW 2917   0.574   1.400   1.120 -0.6948 -0.0470  0.1915
  973SOL    HW1 2918   0.505   1.368   1.187 -2.0520 -0.7533  0.2456
  973SOL    HW2 2919   0.664   1.418   1.167  0.5414 -1.3203 -1.3826
  974SOL     OW 2920   2.053   1.184   1.973  0.6527 -0.0629  0.7443
  974SOL    HW1 2921   2.151   1.205   1.979 -2.5887 -0.1902  2.2273
  974SOL    HW2 2922   2.008   1.201   1.883 -0.3252  0.9700  0.7867
  975SOL     OW 2923   2.666   0.158   0.381  0.4203  0.4912 -0.2149
  975SOL    HW1 2924   2.617   0.123   0.297 -1.3711 -0.8644  0.1933
  975SOL    HW2 2925   2.767   0.165   0.367 -1.2365 -1.6609 -0.6958
  976SOL     OW 2926   0.011   1.820   1.902  0.3111  0.0566  0.5854
  976SOL    HW1 2927   0.003   1.720   1.892  1.7403  1.0265 -0.0461
  976SOL    HW2 2928   3.068   1.870   1.822 -2.2373  1.7544 -1.3602
  977SOL     OW 2929   0.601   2.688   0.199 -0.2720 -0.3021  0.0247
  977SOL    HW1 2930   0.528   2.756   0.200  1.8528 -0.2059  2.6891
  977SOL    HW2 2931   0.692   2.737   0.199 -0.6425  1.2555  0.3068
  978SOL     OW 2932   0.709   1.716   0.035 -0.0739  0.2233 -0.2695
  978SOL    HW1 2933   0.621   1.701   3.097  0.8489  1.1298  1.0310
  978SOL    HW2 2934   0.741   1.634   0.090  0.6709  0.2736 -0.1502
  979SOL     OW 2935   1.494   1.925   1.274 -0.5608  0.0145 -0.2188
  979SOL    HW1 2936   1.485   1.956   1.370 -0.1114  0.1045 -1.6502
  979SOL    HW2 2937   1.590   1.934   1.240 -1.0690  0.0416  1.0817
  980SOL     OW 2938   0.435   1.336   2.306 -0.0622 -0.1145  0.1218
  980SOL    HW1 2939   0.443   1.235   2.296  1.9705  0.7050  0.1539
  980SOL    HW2 2940   0.385   1.384   2.227 -0.8905  1.7948 -1.6860
  981SOL     OW 2941   0.077   1.386   0.341 -0.2075  0.0426  0.2741
  981SOL    HW1 2942   0.162   1.441   0.368  0.2834  1.4504  1.2404
  981SOL    HW2 2943   0.088   1.296   0.384  0.5363  0.4132 -1.9737
  982SOL     OW 2944   2.300   2.696   2.890  0.1372 -0.3128 -0.1309
  982SOL    HW1 2945   2.361   2.689   2.806  3.4982  1.2653  2.0000
  982SOL    HW2 2946   2.368   2.715   2.964  1.0269  0.5606 -0.2143
  983SOL     OW 2947   1.864   0.427   1.561 -0.4583 -0.0857 -0.1839
  983SOL    HW1 2948   1.830   0.485   1.484  0.2355  1.4318  0.5800
  983SOL    HW2 2949   1.943   0.369   1.538 -0.9398  1.4748 -0.9419
  984SOL     OW 2950   0.850   0.055   2.468 -0.1767  0.3737 -0.0242
  984SOL    HW1 2951   0.905   0.022   2.393 -0.3624  1.1130  1.4410
  984SOL    HW2 2952   0.837   0.159   2.460  0.3163  1.0933 -2.1850
  985SOL     OW 2953   1.565   2.186   1.847 -0.0611  0.7306  0.3339
  985SOL    HW1 2954   1.577   2.279   1.890  0.7670 -0.1801 -0.9188
  985SOL    HW2 2955   1.500   2.204   1.770 -0.6888 -0.4006  0.5229
  986SOL     OW 2956   2.075   0.065   2.366  0.3002  0.3436 -0.2565
  986SOL    HW1 2957   2.121   0.003   2.295 -0.3201  0.5048 -0.0454
  986SOL    HW2 2958   2.118   0.154   2.395  3.2090  1.3168 -0.7804
  987SOL     OW 2959   2.714   0.472   2.101  0.3362  0.2054 -0.4939
  987SOL    HW1 2960   2.735   0.374   2.084  1.7355 -0.2240  1.9664
  987SOL    HW2 2961   2.663   0.488   2.190  0.1019 -0.2208  0.1734
  988SOL     OW 2962   2.553   0.538   2.309 -0.1465  0.0861  0.2753
  988SOL    HW1 2963   2.538   0.527   2.410  0.4782 -0.6130  1.5018
  988SOL    HW2 2964   2.506   0.621   2.274 -1.4336  0.3226 -0.7258
  989SOL     OW 2965   2.179   2.398   2.416  0.2393  0.2842 -0.7155
  989SOL    HW1 2966   2.268   2.425   2.371  0.5263  0.6486  0.7831
  989SOL    HW2 2967   2.194   2.321   2.480  0.1417 -2.1447 -1.8717
  990SOL     OW 2968   0.417   1.108   3.016  0.1085  0.4245  0.0077
  990SOL    HW1 2969   0.338   1.163   2.990  2.2235  0.2418  2.4563
  990SOL    HW2 2970   0.490   1.153   3.070  0.1147 -2.0020 -1.8181
  991SOL     OW 2971   0.806   1.070   2.547  0.1553  0.1392 -0.6466
  991SOL    HW1 2972   0.860   0.985   2.524  0.5167 -1.0431 -1.8806
  991SOL    HW2 2973   0.761   1.109   2.464  1.3534 -0.8688  1.6942
  992SOL     OW 2974   2.882   2.159   1.981  0.5541 -0.0240  0.2959
  992SOL    HW1 2975   2.899   2.261   1.977 -0.6154  1.5979  1.5435
  992SOL    HW2 2976   2.946   2.110   2.039  0.7433 -0.5763  1.2475
  993SOL     OW 2977   0.733   0.213   0.691 -0.3382  0.3753 -0.3014
  993SOL    HW1 2978   0.787   0.237   0.774  2.7396 -1.0552  2.2704
  993SOL    HW2 2979   0.759   0.119   0.664  0.6325 -2.1681 -0.3384
  994SOL     OW 2980   0.447   2.091   1.526 -0.0510  0.6371  0.4123
  994SOL    HW1 2981   0.426   1.994   1.547 -2.0684 -1.9579 -1.3427
  994SOL    HW2 2982   0.419   2.109   1.430  0.3723  1.5906 -2.1120
  995SOL     OW 2983   2.265   1.631   2.408  0.9925  0.5001 -0.5075
  995SOL    HW1 2984   2.319   1.600   2.329 -2.4744 -0.3731  1.2908
  995SOL    HW2 2985   2.312   1.705   2.458  1.8893  2.7065  0.5651
  996SOL     OW 2986   1.891   1.423   2.657  0.0160 -0.6621 -0.2562
  996SOL    HW1 2987   1.966   1.478   2.705  1.7411  0.3164  1.2903
  996SOL    HW2 2988   1.860   1.353   2.724  0.1468  0.8457 -2.2186
  997SOL     OW 2989   1.615   1.311   1.901  0.0930  0.0942  0.0951
  997SOL    HW1 2990   1.651   1.214   1.910  1.4145 -0.7537  2.5924
  997SOL    HW2 2991   1.669   1.376   1.956 -1.7593  1.7129  0.4237
  998SOL     OW 2992   2.426   1.890   1.018 -0.1954 -0.5875  0.2248
  998SOL    HW1 2993   2.380   1.961   1.073  0.2841  1.3819  1.8746
  998SOL    HW2 2994   2.367   1.843   0.950 -2.1123  2.0622 -1.1871
  999SOL     OW 2995   2.251   2.541   0.077  0.0197 -0.5656 -0.2248
  999SOL    HW1 2996   2.233   2.641   0.099 -0.5514 -0.3014 -0.5518
  999SOL    HW2 2997   2.285   2.488   0.161  1.5797 -1.6781  1.4431
 1000SOL     OW 2998   0.623   2.961   2.501  0.0083 -0.4015 -0.1855
 1000SOL    HW1 2999   0.671   3.054   2.492 -0.5759 -2.3122 -0.6865
 1000SOL    HW2 3000   0.656   2.897   2.574 -4.0916 -1.9122  2.8131
   3.10821   3.10821   3.10821
