1000 SPC/Fw water molecules t= 237.00000 step= 237000
 3000
    1SOL     OW    1   2.951   2.813   1.042  0.7760  0.3690  0.2702
    1SOL    HW1    2   2.900   2.897   1.021 -1.3691  0.2993 -0.9496
    1SOL    HW2    3   2.890   2.738   1.077 -2.8783 -0.4594  0.1494
    2SOL     OW    4   1.977   1.722   1.506  0.2147  0.4052 -0.0282
    2SOL    HW1    5   2.003   1.623   1.518  0.8791 -1.6008 -3.0348
    2SOL    HW2    6   1.877   1.733   1.485 -2.4948  1.6064  3.9138
    3SOL     OW    7   1.643   2.485   2.821 -0.2331  0.4900  0.2797
    3SOL    HW1    8   1.594   2.570   2.849 -1.7220 -1.5918 -0.1772
    3SOL    HW2    9   1.742   2.502   2.807 -1.1631 -0.1249  0.1010
    4SOL     OW   10   1.979   1.997   2.106  0.1624  0.4896  0.7617
    4SOL    HW1   11   1.885   1.950   2.120 -2.7911 -0.3144 -0.6157
    4SOL    HW2   12   2.049   1.937   2.142 -0.1061  0.6835 -0.4020
    5SOL     OW   13   1.340   1.172   1.532 -0.5214  0.1405 -0.3100
    5SOL    HW1   14   1.355   1.200   1.437  0.2822 -1.9753  1.7579
    5SOL    HW2   15   1.291   1.079   1.531 -2.3282 -2.1882 -2.2577
    6SOL     OW   16   2.461   3.092   0.045 -0.0498  0.6693 -0.0663
    6SOL    HW1   17   2.403   0.076   0.011 -3.1222  2.0653 -0.6399
    6SOL    HW2   18   2.404   3.005   0.050  1.3716 -0.0517  0.0197
    7SOL     OW   19   2.969   1.614   1.534 -0.6830 -0.2669  0.7591
    7SOL    HW1   20   2.952   1.556   1.619  0.0626  1.7024  0.7854
    7SOL    HW2   21   3.025   1.560   1.465  1.1109 -2.7926  2.2176
    8SOL     OW   22   0.995   0.471   0.806  0.0107 -0.5482 -0.2777
    8SOL    HW1   23   1.094   0.486   0.825  0.6661  2.8142  0.5069
    8SOL    HW2   24   0.969   0.369   0.824 -0.5972 -2.4355  1.2299
    9SOL     OW   25   1.482   0.454   2.560 -0.2832  0.0931 -0.0146
    9SOL    HW1   26   1.532   0.490   2.641 -0.4992  0.2156  0.5142
    9SOL    HW2   27   1.545   0.435   2.482 -1.3617  2.8634  0.1960
   10SOL     OW   28   0.546   2.124   0.202 -0.3398 -0.5288  0.0190
   10SOL    HW1   29   0.500   2.040   0.181  2.8917  1.2778  0.4043
   10SOL    HW2   30   0.534   2.164   0.300 -0.8963  0.3567  0.0429
   11SOL     OW   31   0.993   0.878   0.313 -0.1909  0.3261  0.0014
   11SOL    HW1   32   0.902   0.869   0.363  0.0960  2.3225 -0.6235
   11SOL    HW2   33   0.994   0.963   0.256  0.2791  1.4897  0.1890
   12SOL     OW   34   0.084   0.198   1.520  0.0231  0.7078 -0.4163
   12SOL    HW1   35   3.080   0.219   1.528  0.0093 -1.4861 -0.1273
   12SOL    HW2   36   0.140   0.275   1.544 -3.0377 -1.4854  0.0997
   13SOL     OW   37   1.281   0.134   0.130 -0.2788  0.4164 -0.1157
   13SOL    HW1   38   1.203   0.164   0.078  0.9378  0.2817  1.2518
   13SOL    HW2   39   1.251   0.104   0.220  0.5351  0.1460 -0.7503
   14SOL     OW   40   1.255   2.374   1.238  0.0476 -0.3176  0.1900
   14SOL    HW1   41   1.239   2.416   1.331 -0.2348  1.0323  0.3231
   14SOL    HW2   42   1.339   2.318   1.229 -0.1500  0.8123  2.3445
   15SOL     OW   43   2.582   1.109   1.647  0.2649  0.2476  0.0684
   15SOL    HW1   44   2.669   1.158   1.624 -2.6715  1.6728 -1.5693
   15SOL    HW2   45   2.598   1.046   1.725 -2.2668 -0.3256 -1.1218
   16SOL     OW   46   1.859   2.913   3.047 -0.0049 -0.5952 -0.3623
   16SOL    HW1   47   1.806   2.939   2.964 -1.6085  1.6618 -1.1106
   16SOL    HW2   48   1.821   2.823   3.083  0.1466 -1.0672  0.1410
   17SOL     OW   49   0.972   3.023   1.410  0.0649 -0.2361  0.3361
   17SOL    HW1   50   1.025   3.003   1.326  1.9582  1.4314  0.3848
   17SOL    HW2   51   0.952   2.936   1.459 -1.2210  0.6941 -0.3603
   18SOL     OW   52   1.472   0.708   2.977 -0.1845 -0.2976 -0.2362
   18SOL    HW1   53   1.469   0.617   3.027  0.4952  0.7068 -0.5487
   18SOL    HW2   54   1.533   0.782   3.017  0.2390  0.7712  0.7192
   19SOL     OW   55   2.038   1.903   2.998 -0.4349  0.3160  0.1282
   19SOL    HW1   56   2.031   1.805   3.017 -1.7055  2.8683 -1.8854
   19SOL    HW2   57   2.085   1.955   3.073  0.0098 -0.3348 -0.9638
   20SOL     OW   58   1.997   1.468   1.615  0.0050  0.2562  0.8581
   20SOL    HW1   59   2.092   1.430   1.636  0.5330 -1.5515  2.3716
   20SOL    HW2   60   1.943   1.389   1.575  1.3835  2.8820 -1.0912
   21SOL     OW   61   0.630   1.424   2.849  0.4062 -0.2042 -0.5493
   21SOL    HW1   62   0.717   1.440   2.804 -1.9585  0.5476  2.3062
   21SOL    HW2   63   0.637   1.334   2.893  0.2060 -1.1360 -2.6067
   22SOL     OW   64   1.878   2.796   1.442  0.7704  0.3701 -0.3337
   22SOL    HW1   65   1.869   2.808   1.544  3.3366  1.3550  0.3249
   22SOL    HW2   66   1.861   2.885   1.401  2.9197 -0.7674  4.0158
   23SOL     OW   67   3.034   0.479   1.677 -0.1764 -0.4790  0.3835
   23SOL    HW1   68   0.025   0.504   1.627  0.7718  1.9939 -0.7354
   23SOL    HW2   69   2.966   0.551   1.661 -2.4713 -0.5755 -1.3139
   24SOL     OW   70   2.168   2.619   1.019  0.0586 -0.3281 -0.5413
   24SOL    HW1   71   2.145   2.593   1.115  1.4587 -1.4904  1.4021
   24SOL    HW2   72   2.126   2.548   0.957 -0.7631 -2.0956  3.1232
   25SOL     OW   73   1.475   2.800   2.633  0.1742  0.2370  0.5395
   25SOL    HW1   74   1.540   2.751   2.571  0.9285 -1.7234 -0.5648
   25SOL    HW2   75   1.386   2.811   2.595  4.0095 -2.2848  0.5130
   26SOL     OW   76   1.834   2.771   2.762  0.4797  0.2230 -0.1478
   26SOL    HW1   77   1.896   2.787   2.682 -0.7006 -1.0317 -0.6385
   26SOL    HW2   78   1.766   2.846   2.767 -0.3526  0.9623 -0.3160
   27SOL     OW   79   0.219   1.822   2.544  0.2375 -0.0777  0.5168
   27SOL    HW1   80   0.172   1.905   2.504 -0.0662 -1.3492 -2.4666
   27SOL    HW2   81   0.156   1.742   2.536 -3.6760 -3.3887  1.7624
   28SOL     OW   82   2.797   1.249   1.583 -0.2892  0.3042 -0.5553
   28SOL    HW1   83   2.799   1.250   1.482  3.2409  1.1612  0.0332
   28SOL    HW2   84   2.856   1.318   1.624  0.8226 -0.9530  0.2508
   29SOL     OW   85   2.394   2.500   1.618  0.0808 -0.1666  0.2350
   29SOL    HW1   86   2.408   2.402   1.655 -1.5126 -0.2749  2.2574
   29SOL    HW2   87   2.478   2.561   1.631  2.4536 -0.5265  0.3310
   30SOL     OW   88   1.432   0.490   0.027 -0.0907  0.6774 -0.1395
   30SOL    HW1   89   1.373   0.558   0.072  0.4955 -0.8823  0.3737
   30SOL    HW2   90   1.484   0.434   0.092 -0.4235 -0.7622  1.1681
   31SOL     OW   91   2.605   2.677   1.657 -0.2212 -0.3217 -0.2040
   31SOL    HW1   92   2.638   2.725   1.744  2.1550  2.9963  2.8277
   31SOL    HW2   93   2.608   2.739   1.578  2.7235 -0.3623 -0.0321
   32SOL     OW   94   1.055   1.569   1.485 -0.5069  0.3763  0.0980
   32SOL    HW1   95   0.965   1.582   1.519  1.8776 -1.1464 -0.0843
   32SOL    HW2   96   1.062   1.491   1.416 -0.4658 -0.7483 -3.0539
   33SOL     OW   97   0.409   2.679   2.096  0.2651 -0.1884  0.1802
   33SOL    HW1   98   0.412   2.585   2.134 -2.8435  2.2953 -0.8220
   33SOL    HW2   99   0.314   2.717   2.092  1.9748 -0.1477  1.4324
   34SOL     OW  100   1.536   3.020   0.628 -0.2564 -0.4596 -0.6674
   34SOL    HW1  101   1.460   3.090   0.638 -2.2131  0.0389  0.5438
   34SOL    HW2  102   1.622   3.051   0.675 -1.6673  0.7578  1.0943
   35SOL     OW  103   2.066   0.018   0.878 -0.1279 -0.0663  0.0147
   35SOL    HW1  104   2.022   3.092   0.786 -1.2739 -1.2689 -2.2019
   35SOL    HW2  105   1.989   0.027   0.942  2.1703 -0.5018  0.1194
   36SOL     OW  106   1.831   2.483   2.345 -0.5507 -0.1477  0.1963
   36SOL    HW1  107   1.857   2.385   2.370 -0.3236 -1.5994 -1.0793
   36SOL    HW2  108   1.864   2.510   2.252  0.4254  3.0313  0.9523
   37SOL     OW  109   0.795   2.700   2.488 -0.3116  0.2105  0.0183
   37SOL    HW1  110   0.716   2.723   2.432 -1.6147  0.4071  1.5154
   37SOL    HW2  111   0.769   2.666   2.577  0.2346 -0.7468 -2.5112
   38SOL     OW  112   0.059   2.702   2.462 -0.3066  0.7907 -0.2936
   38SOL    HW1  113   0.120   2.618   2.474  0.7836 -0.0930 -0.0875
   38SOL    HW2  114   0.117   2.781   2.424  0.7702  0.1239 -3.6981
   39SOL     OW  115   2.582   1.274   2.079 -0.1913 -0.4497 -0.4215
   39SOL    HW1  116   2.617   1.307   1.986 -0.2228 -0.5748 -2.5299
   39SOL    HW2  117   2.480   1.281   2.080 -0.0118  1.2245 -1.4899
   40SOL     OW  118   0.342   2.895   3.067  0.3553  0.4161 -0.0746
   40SOL    HW1  119   0.381   2.808   0.002  0.1047  2.2431  0.2160
   40SOL    HW2  120   0.283   2.933   0.043  2.4767 -1.5056 -5.1116
   41SOL     OW  121   1.829   0.615   0.905  0.0813  0.0322 -0.0911
   41SOL    HW1  122   1.928   0.635   0.913 -2.7383 -2.2828 -4.2529
   41SOL    HW2  123   1.783   0.681   0.845  0.2894 -2.6784  0.2958
   42SOL     OW  124   0.538   0.377   1.103  0.8758  0.0092 -0.4524
   42SOL    HW1  125   0.602   0.444   1.069 -0.1421 -2.1102  0.5964
   42SOL    HW2  126   0.471   0.364   1.030  0.7503 -0.1933  1.6754
   43SOL     OW  127   2.628   1.316   3.009 -0.6142  0.5385  0.1720
   43SOL    HW1  128   2.567   1.236   2.990  0.4406 -2.4709  1.9820
   43SOL    HW2  129   2.649   1.358   2.920  1.1835 -2.6647  0.5730
   44SOL     OW  130   3.084   2.871   0.777 -0.3202 -0.7585 -0.0852
   44SOL    HW1  131   0.084   2.838   0.775 -1.0008 -0.4842  0.0507
   44SOL    HW2  132   3.060   2.895   0.875  1.0265  0.0986  1.6678
   45SOL     OW  133   0.113   2.737   1.474 -0.1973  0.2927 -0.2832
   45SOL    HW1  134   0.180   2.817   1.486  3.0940 -0.0005  1.3002
   45SOL    HW2  135   0.124   2.693   1.383 -1.6089 -0.1651  0.4860
   46SOL     OW  136   2.416   2.484   2.320  0.4328  0.0334 -0.1913
   46SOL    HW1  137   2.465   2.410   2.373  1.6354  1.3525 -1.3458
   46SOL    HW2  138   2.387   2.561   2.380  0.8613  0.6059 -0.5036
   47SOL     OW  139   2.176   2.019   1.127  0.3194  0.0280  0.1405
   47SOL    HW1  140   2.128   2.105   1.118 -0.1588 -1.3116  2.2261
   47SOL    HW2  141   2.114   1.939   1.101  0.3321 -1.9965  0.1504
   48SOL     OW  142   0.505   1.434   0.213 -0.0698 -0.4319  0.0522
   48SOL    HW1  143   0.607   1.450   0.199  0.4454  1.8339 -0.0115
   48SOL    HW2  144   0.489   1.346   0.260 -0.5754  1.8469 -1.0270
   49SOL     OW  145   2.862   0.279   2.563  0.4156  0.0454 -0.9911
   49SOL    HW1  146   2.765   0.304   2.571  2.9315 -0.0171  0.4354
   49SOL    HW2  147   2.904   0.325   2.482 -0.1735  2.5420  0.9014
   50SOL     OW  148   2.281   0.857   0.320  0.0421  0.4666  0.4205
   50SOL    HW1  149   2.182   0.825   0.316 -1.7361 -2.5271  3.2233
   50SOL    HW2  150   2.294   0.900   0.231 -2.9468  1.1646 -0.3683
   51SOL     OW  151   2.108   0.642   0.967 -0.2489 -0.0390 -0.4313
   51SOL    HW1  152   2.176   0.616   1.042  0.7780  2.7812  0.6222
   51SOL    HW2  153   2.153   0.625   0.881  0.2966 -1.2880  5.0308
   52SOL     OW  154   1.208   1.286   2.818  0.1531 -0.1739 -0.0733
   52SOL    HW1  155   1.267   1.359   2.784 -1.1115 -1.8243 -1.6332
   52SOL    HW2  156   1.261   1.210   2.863  1.3704  1.5043 -0.8077
   53SOL     OW  157   0.627   1.552   1.956 -0.2659  0.2915 -0.0816
   53SOL    HW1  158   0.550   1.517   2.014  0.8707  0.6238 -0.0025
   53SOL    HW2  159   0.648   1.475   1.892  3.8009 -0.5673 -0.6151
   54SOL     OW  160   2.110   0.371   1.078  0.1017 -0.1651  0.6882
   54SOL    HW1  161   2.152   0.336   0.992 -0.1258  2.3228 -2.1591
   54SOL    HW2  162   2.180   0.431   1.125 -1.3879 -0.3518 -0.6503
   55SOL     OW  163   2.460   2.305   1.092  0.2565 -0.6851  0.0879
   55SOL    HW1  164   2.430   2.209   1.112 -0.8836 -0.9884  0.9175
   55SOL    HW2  165   2.414   2.344   1.009  0.9513  1.1260 -2.3413
   56SOL     OW  166   0.972   2.974   1.777 -0.3844  0.3555  0.5259
   56SOL    HW1  167   0.989   2.995   1.874 -1.3571 -0.1929 -0.1620
   56SOL    HW2  168   1.006   3.052   1.722  1.0798  3.1459  0.8571
   57SOL     OW  169   1.609   1.527   0.018  0.2989  0.3005  0.4459
   57SOL    HW1  170   1.622   1.510   3.011  1.9001 -0.3501  1.2952
   57SOL    HW2  171   1.674   1.598   0.051  0.5813 -0.6835 -1.1192
   58SOL     OW  172   3.041   0.678   2.395 -0.5239  0.3048  0.0663
   58SOL    HW1  173   0.032   0.673   2.339  0.3399 -0.8851  0.0118
   58SOL    HW2  174   3.063   0.705   2.495  1.7968  0.6724  1.6018
   59SOL     OW  175   0.821   2.593   2.744  0.4960  0.0051  0.3337
   59SOL    HW1  176   0.914   2.631   2.729  0.4946  0.5680  0.0560
   59SOL    HW2  177   0.818   2.496   2.744 -1.9923  3.2667 -1.8010
   60SOL     OW  178   2.555   2.468   0.696 -0.5406  0.2801  0.6153
   60SOL    HW1  179   2.556   2.572   0.703 -0.7099 -0.9563  0.0481
   60SOL    HW2  180   2.553   2.441   0.597  0.5037  0.2468 -0.4589
   61SOL     OW  181   1.201   2.113   0.764  0.5357 -0.7491  0.1750
   61SOL    HW1  182   1.179   2.209   0.736 -1.6274 -0.0367  0.2874
   61SOL    HW2  183   1.160   2.042   0.708  1.0708 -1.2973 -0.8809
   62SOL     OW  184   2.317   2.083   2.554 -0.3337  0.1528  0.7066
   62SOL    HW1  185   2.284   2.107   2.643 -0.3112  2.7190 -1.3012
   62SOL    HW2  186   2.270   1.999   2.516 -1.0569 -2.8626 -1.7194
   63SOL     OW  187   2.136   2.759   2.995  1.0693 -0.0818 -0.0750
   63SOL    HW1  188   2.053   2.808   3.005  3.9589 -0.6283 -0.4283
   63SOL    HW2  189   2.171   2.775   2.902  0.0210 -1.2526  0.9044
   64SOL     OW  190   1.281   0.844   2.841 -0.0823  0.0535 -0.1764
   64SOL    HW1  191   1.318   0.766   2.893  0.3202  1.1812 -1.2214
   64SOL    HW2  192   1.323   0.831   2.744  1.0577  1.4163 -2.5677
   65SOL     OW  193   1.474   2.555   0.212  0.0579 -0.1707  0.1710
   65SOL    HW1  194   1.495   2.650   0.238  1.5632  1.8558  2.6971
   65SOL    HW2  195   1.560   2.501   0.202  0.4641  4.5001  2.7080
   66SOL     OW  196   0.384   1.330   1.756 -0.3491  0.0723  0.4073
   66SOL    HW1  197   0.350   1.229   1.755  1.0205 -1.2154 -0.1195
   66SOL    HW2  198   0.318   1.401   1.729  1.0893 -2.8711 -0.3482
   67SOL     OW  199   2.677   2.833   2.810  0.2174  0.1347  0.3679
   67SOL    HW1  200   2.595   2.782   2.785  0.8998  0.4975 -2.0875
   67SOL    HW2  201   2.705   2.884   2.724  0.3928 -0.0462  0.8189
   68SOL     OW  202   0.673   2.322   1.236 -0.1639 -0.2188  0.2754
   68SOL    HW1  203   0.706   2.240   1.282  0.4872 -1.8217  3.2217
   68SOL    HW2  204   0.755   2.385   1.236  1.1346 -0.4079  3.1764
   69SOL     OW  205   0.523   2.216   0.469  0.7298  0.6221 -0.2410
   69SOL    HW1  206   0.615   2.248   0.492  1.2006  0.9493 -3.9944
   69SOL    HW2  207   0.452   2.286   0.498 -1.5160 -0.4592  0.7096
   70SOL     OW  208   2.638   1.097   2.590 -1.2514  0.3436 -0.3019
   70SOL    HW1  209   2.735   1.074   2.584 -1.6838  0.8307 -1.0024
   70SOL    HW2  210   2.578   1.047   2.520 -1.5506 -0.6291 -3.2679
   71SOL     OW  211   0.708   1.057   2.507  0.4259 -0.1368  0.2943
   71SOL    HW1  212   0.634   1.011   2.454  2.1214  0.6562 -1.3536
   71SOL    HW2  213   0.705   1.157   2.490  2.8016  1.5067  0.5957
   72SOL     OW  214   0.241   2.150   0.431 -0.1634 -0.1199  0.0416
   72SOL    HW1  215   0.346   2.155   0.443 -0.1870 -1.5210 -0.1598
   72SOL    HW2  216   0.230   2.203   0.341 -1.4899 -0.9323  1.7150
   73SOL     OW  217   1.008   1.299   0.389 -0.6028 -0.0639 -0.1560
   73SOL    HW1  218   0.938   1.366   0.358  0.7652 -0.3543  0.7135
   73SOL    HW2  219   1.087   1.347   0.439  0.6132 -0.3491 -2.0547
   74SOL     OW  220   2.639   0.011   0.237 -0.0156  0.2341  0.2246
   74SOL    HW1  221   2.576   0.012   0.161 -2.0274  1.5044  1.0890
   74SOL    HW2  222   2.626   0.092   0.296  0.1621  1.5177  0.1766
   75SOL     OW  223   2.328   1.700   2.042  0.4377 -0.0185 -0.6020
   75SOL    HW1  224   2.248   1.645   2.013 -0.6495 -0.1402  1.0041
   75SOL    HW2  225   2.381   1.721   1.956 -0.9748  2.8417  1.3863
   76SOL     OW  226   1.998   2.532   1.616  0.3558  0.1221  0.6347
   76SOL    HW1  227   1.909   2.534   1.563  1.2605 -0.5804  1.2294
   76SOL    HW2  228   2.056   2.611   1.581  0.1994  1.2480  0.5249
   77SOL     OW  229   2.459   0.547   1.370  0.2422  0.2189 -0.0134
   77SOL    HW1  230   2.486   0.461   1.412 -0.8962 -0.8594  0.9497
   77SOL    HW2  231   2.456   0.622   1.440 -2.6479  0.9107  1.2984
   78SOL     OW  232   1.873   0.937   2.830 -0.1391 -0.1840 -0.1699
   78SOL    HW1  233   1.918   0.914   2.917  4.1302  0.9680 -0.0136
   78SOL    HW2  234   1.859   0.851   2.782 -3.0600  0.9092  0.1657
   79SOL     OW  235   0.293   1.555   2.203 -0.1994 -0.1849  0.1494
   79SOL    HW1  236   0.324   1.653   2.187  0.2660 -0.0125 -1.2627
   79SOL    HW2  237   0.337   1.492   2.137 -1.1263  1.0094  0.3271
   80SOL     OW  238   1.548   0.918   1.284 -0.2804  0.3665 -0.3267
   80SOL    HW1  239   1.556   0.925   1.182 -1.6430 -0.8527 -0.1910
   80SOL    HW2  240   1.466   0.867   1.315  0.0299 -1.8630 -0.0244
   81SOL     OW  241   1.090   0.410   1.277  0.0872  0.6766 -0.2266
   81SOL    HW1  242   0.992   0.383   1.259 -1.5480  0.1187 -0.7655
   81SOL    HW2  243   1.117   0.475   1.204 -0.8039 -0.9864 -2.2598
   82SOL     OW  244   1.393   2.283   1.928 -0.4887  0.1666  0.0385
   82SOL    HW1  245   1.341   2.194   1.938  3.7345 -1.5392  1.9575
   82SOL    HW2  246   1.483   2.271   1.883  1.2802 -0.6745  2.1432
   83SOL     OW  247   0.664   0.031   0.801 -0.2848 -0.2021  0.1251
   83SOL    HW1  248   0.730   0.028   0.878  1.1864 -2.5010  1.8484
   83SOL    HW2  249   0.680   0.113   0.750 -0.6373  0.7362  4.5119
   84SOL     OW  250   0.109   0.816   3.010 -0.4088  0.5815 -0.1161
   84SOL    HW1  251   0.203   0.853   2.996  0.0610 -0.4824 -0.9844
   84SOL    HW2  252   0.039   0.874   2.969 -2.1213 -1.8557  1.3905
   85SOL     OW  253   2.868   2.619   1.670 -0.2486  0.5695 -0.1374
   85SOL    HW1  254   2.912   2.705   1.643 -0.5066 -1.3767  0.0234
   85SOL    HW2  255   2.768   2.635   1.650 -1.8554 -1.1826  0.4912
   86SOL     OW  256   2.965   2.831   1.528  0.0365 -0.5447 -0.6451
   86SOL    HW1  257   2.954   2.911   1.593  0.5412 -1.4907 -1.6036
   86SOL    HW2  258   3.060   2.825   1.493 -1.2237  0.1513 -1.9370
   87SOL     OW  259   3.054   2.886   3.072  0.6963 -0.4165 -0.4500
   87SOL    HW1  260   3.068   2.925   2.980  1.3240  1.0203  2.3327
   87SOL    HW2  261   2.957   2.860   3.088 -2.0519  0.8069 -0.5105
   88SOL     OW  262   0.323   2.003   1.255  0.3078 -0.0658  1.0787
   88SOL    HW1  263   0.370   2.095   1.263 -0.0956 -2.6837 -0.6093
   88SOL    HW2  264   0.275   1.999   1.163  0.8535  2.5335 -3.4933
   89SOL     OW  265   1.138   0.690   1.802 -0.2390 -0.0054  0.2781
   89SOL    HW1  266   1.102   0.594   1.798 -1.1498  2.5414 -2.6130
   89SOL    HW2  267   1.218   0.699   1.867 -2.0523  1.5462  0.1347
   90SOL     OW  268   2.864   1.606   1.910  0.3438 -0.1177 -0.7268
   90SOL    HW1  269   2.833   1.601   2.004  0.3861 -1.1719 -0.6308
   90SOL    HW2  270   2.891   1.697   1.881 -0.2801 -3.3394 -1.8334
   91SOL     OW  271   1.360   1.806   0.671  0.0327 -0.5198 -0.1840
   91SOL    HW1  272   1.424   1.873   0.720 -0.9758  0.6354  1.3637
   91SOL    HW2  273   1.271   1.796   0.720  1.4000 -1.5041  0.6848
   92SOL     OW  274   2.333   0.541   1.125 -0.4047 -0.1279  0.2682
   92SOL    HW1  275   2.389   0.574   1.045 -0.4717  0.8262 -1.2837
   92SOL    HW2  276   2.389   0.531   1.213 -1.2916  0.2703  0.3761
   93SOL     OW  277   2.591   1.544   0.055 -0.0885  0.5911 -0.3394
   93SOL    HW1  278   2.593   1.469   3.084 -0.2445  2.4896  0.4303
   93SOL    HW2  279   2.593   1.521   0.155  2.2338  1.0378  4.0352
   94SOL     OW  280   2.488   2.316   2.521  0.2640 -0.4126  0.0546
   94SOL    HW1  281   2.445   2.229   2.530 -0.0058  0.9765 -1.9954
   94SOL    HW2  282   2.588   2.300   2.509  0.6532  0.2896 -1.4781
   95SOL     OW  283   1.865   0.475   1.153  0.5108 -0.1216  0.4943
   95SOL    HW1  284   1.820   0.535   1.082 -1.7131 -0.3399 -0.1841
   95SOL    HW2  285   1.947   0.432   1.114 -1.7863  1.8239  0.3706
   96SOL     OW  286   2.722   0.091   1.701  0.4079 -0.2071 -0.4445
   96SOL    HW1  287   2.703   0.071   1.800  1.3177 -2.1920  1.7508
   96SOL    HW2  288   2.654   0.043   1.645 -1.5543 -0.2257 -0.4218
   97SOL     OW  289   2.043   2.992   1.208  0.1434  0.3536 -0.2863
   97SOL    HW1  290   2.037   2.941   1.121 -0.2009  3.3227 -2.3045
   97SOL    HW2  291   2.018   3.091   1.183 -1.4754  1.8410  0.8835
   98SOL     OW  292   1.511   2.398   1.490  0.4145  0.3496  0.3512
   98SOL    HW1  293   1.603   2.446   1.483  0.8512  3.8119 -0.1450
   98SOL    HW2  294   1.523   2.304   1.468 -0.7344  1.5912  0.2159
   99SOL     OW  295   2.648   2.839   1.938 -0.2780 -0.4221 -0.0814
   99SOL    HW1  296   2.578   2.774   1.976  2.5339  1.0862 -1.1461
   99SOL    HW2  297   2.735   2.817   1.988  1.7357 -4.2306  1.0022
  100SOL     OW  298   0.258   0.845   2.681  0.0365  0.2320  0.1407
  100SOL    HW1  299   0.283   0.880   2.775  0.7500 -1.3510  0.1255
  100SOL    HW2  300   0.310   0.763   2.669 -2.1569  1.8446 -1.0315
  101SOL     OW  301   1.936   0.886   3.079  0.3914  0.3828 -0.1859
  101SOL    HW1  302   1.935   0.918   0.087  1.1259 -0.9505 -0.1813
  101SOL    HW2  303   2.007   0.819   3.071 -5.8654 -0.1529  1.1809
  102SOL     OW  304   0.171   0.545   1.577  0.2065 -0.0936  0.9108
  102SOL    HW1  305   0.228   0.611   1.631  4.6188  0.4702  2.7335
  102SOL    HW2  306   0.218   0.453   1.574  0.8102 -3.3610  0.4729
  103SOL     OW  307   3.041   0.972   2.256 -0.1275  0.0931 -0.2380
  103SOL    HW1  308   2.982   0.894   2.289  1.2383 -4.0944  0.6928
  103SOL    HW2  309   3.011   1.060   2.300  0.3971  0.2968  0.8861
  104SOL     OW  310   0.289   0.227   2.721  0.3791  0.5635  0.0255
  104SOL    HW1  311   0.385   0.239   2.698  1.9473  0.8967 -1.8724
  104SOL    HW2  312   0.238   0.225   2.634 -1.1127 -0.6161 -0.8591
  105SOL     OW  313   2.129   1.998   1.411 -0.1230  0.8214  0.1044
  105SOL    HW1  314   2.080   1.911   1.422  1.6301 -1.3731 -2.4340
  105SOL    HW2  315   2.159   2.015   1.311  0.5433  1.3294 -0.4369
  106SOL     OW  316   1.793   0.387   0.494 -0.0405  0.1357  0.1279
  106SOL    HW1  317   1.828   0.375   0.402  0.3482  2.1060  0.6103
  106SOL    HW2  318   1.868   0.388   0.564  0.2108 -1.3004 -1.0438
  107SOL     OW  319   0.267   1.927   1.660  0.2661 -0.2313 -0.1854
  107SOL    HW1  320   0.264   2.005   1.722  1.0331  1.6814 -2.6780
  107SOL    HW2  321   0.217   1.950   1.577  1.2430 -0.5170  1.6274
  108SOL     OW  322   2.877   2.797   2.051 -0.3430 -0.2143 -0.6214
  108SOL    HW1  323   2.956   2.792   1.986  1.8560  1.5064  1.9187
  108SOL    HW2  324   2.893   2.864   2.127  2.0194  0.3329 -1.0494
  109SOL     OW  325   1.537   0.247   0.414 -0.2946  0.5124 -0.6714
  109SOL    HW1  326   1.626   0.271   0.461  1.4337  0.5331  1.5024
  109SOL    HW2  327   1.479   0.181   0.474  0.5757 -0.0820  0.4377
  110SOL     OW  328   0.319   2.095   2.324  0.1596 -0.1160 -0.3005
  110SOL    HW1  329   0.369   2.177   2.365  1.0571  0.8945  0.4256
  110SOL    HW2  330   0.374   2.009   2.347  0.6307 -1.8121 -0.4677
  111SOL     OW  331   1.594   2.460   2.124 -0.1291  0.6219  0.3161
  111SOL    HW1  332   1.670   2.411   2.168  0.2050 -1.8066  1.3741
  111SOL    HW2  333   1.523   2.398   2.095  0.7728 -1.2957 -3.0970
  112SOL     OW  334   1.698   2.680   2.473  1.0281  0.1094 -0.3464
  112SOL    HW1  335   1.725   2.670   2.571 -0.0227  0.3170 -1.7894
  112SOL    HW2  336   1.732   2.597   2.420 -1.6880 -0.8951  0.5162
  113SOL     OW  337   1.845   2.466   1.833  0.4322  0.1754 -0.4206
  113SOL    HW1  338   1.901   2.502   1.760  0.1151 -2.1280  3.1027
  113SOL    HW2  339   1.902   2.471   1.916  0.6217 -2.9449  1.7950
  114SOL     OW  340   2.894   0.743   0.860 -0.3336  0.3650  0.2770
  114SOL    HW1  341   2.838   0.827   0.852 -2.0153 -0.6624 -0.7765
  114SOL    HW2  342   2.846   0.668   0.814 -0.1700  2.4877  0.5911
  115SOL     OW  343   0.343   0.933   2.962  0.5365 -0.7811  0.3463
  115SOL    HW1  344   0.362   1.023   3.002 -0.3157  2.8889 -1.3955
  115SOL    HW2  345   0.425   0.875   2.982 -0.1159 -1.3680  0.3263
  116SOL     OW  346   0.095   1.365   2.278 -0.0936  0.1542 -0.0547
  116SOL    HW1  347   0.089   1.284   2.219  1.2382  0.8085  2.9376
  116SOL    HW2  348   0.169   1.427   2.249 -0.3245  0.8605  2.4238
  117SOL     OW  349   2.499   3.093   0.697 -0.1060 -0.4893  0.1652
  117SOL    HW1  350   2.576   0.037   0.747 -1.9486 -0.1687 -0.7177
  117SOL    HW2  351   2.523   3.046   0.609  1.5721  0.0626 -0.9077
  118SOL     OW  352   1.374   1.938   1.503  0.1232  0.1047 -0.4208
  118SOL    HW1  353   1.355   1.839   1.504  0.9156 -0.4898 -0.8950
  118SOL    HW2  354   1.468   1.953   1.542  0.8571  1.8250 -1.9099
  119SOL     OW  355   0.810   2.326   2.753 -0.1013  0.0826  0.1573
  119SOL    HW1  356   0.903   2.294   2.790  0.9414 -1.3410  1.5045
  119SOL    HW2  357   0.734   2.279   2.800 -0.6239  0.5080 -0.4147
  120SOL     OW  358   0.575   0.797   2.975  0.1251 -0.4667 -0.1751
  120SOL    HW1  359   0.541   0.702   2.946 -0.2750 -3.1015 -3.1626
  120SOL    HW2  360   0.651   0.828   2.915  1.4073 -0.1943  2.5114
  121SOL     OW  361   1.651   2.535   1.129 -0.3207 -0.2705  0.1190
  121SOL    HW1  362   1.703   2.609   1.084 -2.1819 -1.6867 -0.4813
  121SOL    HW2  363   1.602   2.481   1.063  1.4863  1.3883  0.6106
  122SOL     OW  364   2.372   2.263   1.727 -0.0189  0.3597 -0.2596
  122SOL    HW1  365   2.452   2.233   1.788  0.5446  2.0470  0.3046
  122SOL    HW2  366   2.355   2.194   1.652  0.3302 -1.7005 -2.5576
  123SOL     OW  367   0.209   2.828   0.450 -0.0938  0.1400 -0.0131
  123SOL    HW1  368   0.289   2.777   0.418 -0.8795  1.2626 -0.2366
  123SOL    HW2  369   0.135   2.826   0.382  0.6407 -0.3911 -0.9944
  124SOL     OW  370   2.219   1.210   2.612 -0.0620  0.3529 -0.1393
  124SOL    HW1  371   2.248   1.307   2.622 -0.7364  1.6832  0.4508
  124SOL    HW2  372   2.138   1.181   2.665  2.2821  1.7641  0.5703
  125SOL     OW  373   0.545   0.972   0.608 -0.4163 -0.4185  0.1874
  125SOL    HW1  374   0.593   0.940   0.695 -2.5032  1.1303  0.3095
  125SOL    HW2  375   0.534   1.075   0.609  0.2565 -2.2337 -0.9423
  126SOL     OW  376   2.808   1.957   0.903 -0.4855 -0.6746  0.2431
  126SOL    HW1  377   2.886   1.982   0.842  0.9352  2.4984 -2.5585
  126SOL    HW2  378   2.812   2.002   0.992  0.0588 -1.8370 -1.3533
  127SOL     OW  379   0.065   2.303   1.961  0.3330  0.3892  0.0578
  127SOL    HW1  380   0.126   2.264   1.886 -0.8288  0.5142 -1.5135
  127SOL    HW2  381   3.072   2.260   1.967  1.1134  1.0573 -0.5173
  128SOL     OW  382   0.883   0.732   0.008  0.0486 -0.0367  0.2256
  128SOL    HW1  383   0.923   0.641   0.030 -0.4682  0.7230 -2.1220
  128SOL    HW2  384   0.818   0.750   0.085  0.5308  1.1220  1.6026
  129SOL     OW  385   2.495   0.961   1.128 -0.2869 -0.5442 -0.4654
  129SOL    HW1  386   2.481   0.951   1.029  0.7845  0.4166  0.6988
  129SOL    HW2  387   2.593   0.937   1.154 -0.8524  0.6389 -1.7601
  130SOL     OW  388   2.335   1.178   1.525 -0.2943 -1.3253  0.1728
  130SOL    HW1  389   2.423   1.160   1.580  3.7857  0.7494  3.2714
  130SOL    HW2  390   2.362   1.178   1.423  0.1451 -2.5413 -0.3479
  131SOL     OW  391   2.674   3.089   2.990 -0.5302  0.2624  0.3394
  131SOL    HW1  392   2.741   3.016   3.028  1.9667 -2.9654  2.1030
  131SOL    HW2  393   2.582   3.078   3.034  0.9066  0.9455  1.7525
  132SOL     OW  394   2.872   2.345   1.730 -0.3215 -0.3436  0.0488
  132SOL    HW1  395   2.865   2.445   1.719 -0.5926 -0.0251 -0.5726
  132SOL    HW2  396   2.854   2.321   1.826 -0.2001 -1.8411 -0.5178
  133SOL     OW  397   0.944   0.829   1.349  0.0026 -0.3482 -0.1700
  133SOL    HW1  398   0.927   0.757   1.284  0.0827  0.7359  0.7741
  133SOL    HW2  399   0.901   0.913   1.321 -0.8217 -2.8677  1.4319
  134SOL     OW  400   0.130   1.314   0.386 -0.1431  0.8131  0.4403
  134SOL    HW1  401   0.106   1.322   0.283 -2.2535 -1.2122 -0.9236
  134SOL    HW2  402   0.231   1.286   0.398 -0.0843 -0.4027  1.4203
  135SOL     OW  403   2.140   0.976   1.603  0.0529 -0.2141  0.3048
  135SOL    HW1  404   2.189   1.051   1.556 -0.4278 -3.4217 -1.8512
  135SOL    HW2  405   2.038   1.000   1.613 -4.0311  2.0379 -0.5208
  136SOL     OW  406   2.764   0.863   0.534 -0.0716 -0.2332 -0.6986
  136SOL    HW1  407   2.686   0.879   0.467  0.6732 -0.5940  0.0761
  136SOL    HW2  408   2.739   0.898   0.627 -1.0227  0.1776  3.6616
  137SOL     OW  409   2.541   1.360   1.375  0.0692  0.0045 -0.0425
  137SOL    HW1  410   2.630   1.322   1.349 -1.4563  1.0264 -0.1430
  137SOL    HW2  411   2.470   1.318   1.319  1.7089  2.5851 -2.1684
  138SOL     OW  412   1.787   0.633   1.590 -0.1839  0.3427  0.2154
  138SOL    HW1  413   1.842   0.643   1.673  1.6462 -2.1049  0.5281
  138SOL    HW2  414   1.848   0.623   1.510  0.7594  3.0835 -1.3984
  139SOL     OW  415   1.896   0.087   3.087  0.2344  0.1925 -0.8542
  139SOL    HW1  416   1.880   3.082   3.075 -0.6245  0.4170 -4.0009
  139SOL    HW2  417   1.950   0.110   0.075  1.8085 -0.6814  0.7105
  140SOL     OW  418   1.486   1.864   1.873  0.1644 -0.7074  0.5095
  140SOL    HW1  419   1.418   1.932   1.900  1.4695 -1.4023  0.4902
  140SOL    HW2  420   1.575   1.880   1.933  5.0788 -0.3214 -0.2485
  141SOL     OW  421   1.971   1.970   0.782 -0.7011  0.1896  0.0186
  141SOL    HW1  422   2.043   1.900   0.792  1.8509  2.9196 -0.7162
  141SOL    HW2  423   2.020   2.057   0.796 -0.2596 -1.6878 -1.6986
  142SOL     OW  424   0.128   0.973   0.187 -0.0736 -0.5213 -0.0911
  142SOL    HW1  425   0.113   0.913   0.107 -1.0478  0.7552 -1.5829
  142SOL    HW2  426   0.043   1.002   0.234 -1.8012  0.2121  0.5369
  143SOL     OW  427   0.394   2.111   2.737  0.2336 -0.4746  0.1831
  143SOL    HW1  428   0.310   2.163   2.764  0.8562 -3.6922 -0.3709
  143SOL    HW2  429   0.384   2.012   2.757  2.4149  1.9130  0.0640
  144SOL     OW  430   1.132   0.084   1.612 -0.5207  0.0342  0.0122
  144SOL    HW1  431   1.059   0.067   1.545  0.3139 -1.5135 -0.2868
  144SOL    HW2  432   1.181   0.172   1.584 -0.8501 -0.2290 -1.0861
  145SOL     OW  433   2.379   1.207   0.476 -0.3733  0.1723  0.3270
  145SOL    HW1  434   2.382   1.228   0.377  1.3375 -0.6098 -0.0911
  145SOL    HW2  435   2.403   1.291   0.528  0.5370 -0.7677  0.7104
  146SOL     OW  436   2.411   2.593   0.295  0.0431  0.1738 -0.7113
  146SOL    HW1  437   2.439   2.604   0.198  0.8595  1.9063  2.1397
  146SOL    HW2  438   2.330   2.533   0.299 -0.9126  0.7438  0.8694
  147SOL     OW  439   2.024   2.639   1.278  0.8132  0.0187  0.0583
  147SOL    HW1  440   2.116   2.658   1.316 -0.6470  1.7844  1.2181
  147SOL    HW2  441   1.953   2.687   1.330  1.2614  2.7217 -1.8187
  148SOL     OW  442   1.488   2.878   2.264 -0.2175 -0.4808  0.1477
  148SOL    HW1  443   1.544   2.941   2.318  0.1967 -0.0385  2.5601
  148SOL    HW2  444   1.502   2.895   2.165  0.7208 -1.9880  2.3386
  149SOL     OW  445   1.229   0.594   2.651 -0.1873  0.3869 -0.8736
  149SOL    HW1  446   1.314   0.546   2.618  1.8611 -2.7810 -0.6980
  149SOL    HW2  447   1.216   0.686   2.609  0.7677 -0.7637  1.7585
  150SOL     OW  448   0.657   2.483   0.158  0.3781  0.4017 -0.2245
  150SOL    HW1  449   0.729   2.472   0.084  1.6805 -0.0546  1.6908
  150SOL    HW2  450   0.700   2.464   0.252 -1.4133  3.5278  1.3875
  151SOL     OW  451   0.114   1.573   0.130 -0.0069 -0.9071 -0.0864
  151SOL    HW1  452   0.054   1.637   0.074 -0.3065 -2.9979 -0.8581
  151SOL    HW2  453   0.054   1.496   0.166 -1.4055 -3.0541  1.4624
  152SOL     OW  454   0.010   0.286   0.540 -0.3075 -0.2054 -0.2329
  152SOL    HW1  455   0.048   0.313   0.632 -2.6890 -0.7806  1.8715
  152SOL    HW2  456   3.069   0.190   0.534 -0.2071  0.9694  0.3189
  153SOL     OW  457   2.301   3.001   0.962  0.2926 -0.1477  0.1529
  153SOL    HW1  458   2.210   3.039   0.931 -1.0945  2.2487  0.2246
  153SOL    HW2  459   2.360   2.992   0.884 -0.0113 -2.5801 -0.4139
  154SOL     OW  460   1.036   0.464   1.731 -0.2136 -0.0878 -0.0023
  154SOL    HW1  461   0.970   0.415   1.785 -1.1690  0.7965  0.0109
  154SOL    HW2  462   1.069   0.417   1.646 -1.0981  2.2707  1.1852
  155SOL     OW  463   2.761   1.459   0.982  0.1231  0.3098 -0.1148
  155SOL    HW1  464   2.682   1.518   1.012 -2.1279 -0.6986  0.8362
  155SOL    HW2  465   2.833   1.520   0.946 -0.0818 -0.3751  0.4686
  156SOL     OW  466   2.571   2.032   0.175  0.1308  0.6065  0.3336
  156SOL    HW1  467   2.550   1.980   0.091  0.1699  0.1135 -0.1896
  156SOL    HW2  468   2.656   1.997   0.219  1.2687 -0.0628  1.7711
  157SOL     OW  469   1.058   2.875   0.691 -0.5713 -0.4312  0.1354
  157SOL    HW1  470   1.008   2.788   0.692 -0.2083  0.3279 -0.2661
  157SOL    HW2  471   1.153   2.867   0.654 -3.2444 -2.2052 -2.3445
  158SOL     OW  472   2.124   0.360   2.555 -0.5122 -0.3406  0.2081
  158SOL    HW1  473   2.178   0.433   2.606  1.3521 -2.1767  1.0941
  158SOL    HW2  474   2.187   0.333   2.478 -0.6621  0.5941  3.1490
  159SOL     OW  475   0.327   0.061   0.161  0.0150 -0.5756  0.1304
  159SOL    HW1  476   0.240   0.041   0.106  1.8131 -1.8689  0.8049
  159SOL    HW2  477   0.307   0.075   0.257  1.5456  2.8207 -1.8212
  160SOL     OW  478   1.207   2.124   3.076 -0.3460  0.1617 -0.6703
  160SOL    HW1  479   1.204   2.036   3.031 -0.8873 -0.3361  0.3101
  160SOL    HW2  480   1.121   2.134   0.038 -0.0264  1.3759 -1.9675
  161SOL     OW  481   2.735   1.811   2.403 -0.1013  0.3284  0.1111
  161SOL    HW1  482   2.747   1.910   2.410 -1.3560 -1.6622 -0.7244
  161SOL    HW2  483   2.647   1.774   2.441  0.4961  0.2587  0.5886
  162SOL     OW  484   0.148   2.736   1.199  0.2538 -0.4853 -0.5671
  162SOL    HW1  485   0.248   2.745   1.187 -1.3718  0.9780  2.3280
  162SOL    HW2  486   0.095   2.827   1.207 -1.3510  0.2244 -1.6163
  163SOL     OW  487   2.165   0.364   2.837  0.7695  0.3515 -0.6375
  163SOL    HW1  488   2.119   0.310   2.764 -0.3946 -0.6727  3.0154
  163SOL    HW2  489   2.217   0.440   2.802 -2.6013 -2.7970  0.0537
  164SOL     OW  490   2.987   1.605   0.931 -0.0269 -0.2168 -0.5984
  164SOL    HW1  491   2.979   1.556   0.841  1.9420 -2.6019  0.1418
  164SOL    HW2  492   3.087   1.630   0.941  2.9263 -2.1807  1.7189
  165SOL     OW  493   2.891   0.113   2.054 -0.2144 -0.2488  0.8559
  165SOL    HW1  494   2.817   0.061   2.004 -0.2286 -1.2203  1.5139
  165SOL    HW2  495   2.865   0.209   2.059  0.8773 -1.0247 -0.5559
  166SOL     OW  496   2.069   0.690   0.649  0.2610 -0.0157 -0.2610
  166SOL    HW1  497   2.077   0.758   0.724 -0.8856  1.7135 -0.1437
  166SOL    HW2  498   2.165   0.651   0.646 -0.6383  1.1725  0.2854
  167SOL     OW  499   0.408   0.370   0.466 -0.1977 -0.5677 -0.1447
  167SOL    HW1  500   0.368   0.461   0.449  2.2593  1.3047 -3.1008
  167SOL    HW2  501   0.425   0.350   0.562  0.0206  0.9476  2.0179
  168SOL     OW  502   1.955   2.764   2.069 -0.5554  0.2753 -0.1076
  168SOL    HW1  503   1.983   2.670   2.086 -2.6265  2.4157  0.1334
  168SOL    HW2  504   1.910   2.798   2.157  2.6665  0.4185 -0.0418
  169SOL     OW  505   0.948   0.924   0.772 -0.0691 -0.2461  0.1447
  169SOL    HW1  506   0.972   0.984   0.691 -1.3237 -0.9628 -3.2266
  169SOL    HW2  507   0.852   0.888   0.773 -0.5203 -2.6606 -0.5830
  170SOL     OW  508   2.842   0.699   1.605  0.0088  0.0268 -0.1938
  170SOL    HW1  509   2.806   0.666   1.517 -0.3636 -1.5307  3.7478
  170SOL    HW2  510   2.775   0.688   1.678  1.8253  2.0051 -2.7202
  171SOL     OW  511   0.942   2.791   1.572  0.4034  0.1710  0.2512
  171SOL    HW1  512   1.024   2.730   1.572 -2.2926 -3.3502 -0.3972
  171SOL    HW2  513   0.944   2.854   1.647 -1.0899 -2.4652  1.2287
  172SOL     OW  514   0.108   2.552   1.679  0.2241 -0.0806  0.1567
  172SOL    HW1  515   0.063   2.462   1.665 -0.0713 -0.9694  0.3961
  172SOL    HW2  516   0.096   2.610   1.593  0.5496  1.8302 -1.3652
  173SOL     OW  517   1.249   0.356   2.923 -0.1863 -0.3498 -0.3977
  173SOL    HW1  518   1.260   0.428   2.850  2.5199  0.5349  0.0571
  173SOL    HW2  519   1.291   0.384   3.011 -0.7646  1.5284 -0.2901
  174SOL     OW  520   1.755   0.037   2.432  0.0602 -0.4294 -0.2476
  174SOL    HW1  521   1.693   0.068   2.510  1.7040 -0.0858 -0.4607
  174SOL    HW2  522   1.854   0.046   2.458 -2.1984  2.4817  1.0551
  175SOL     OW  523   1.773   2.671   0.035 -0.2848 -0.5492  0.3109
  175SOL    HW1  524   1.825   2.665   0.123 -0.9896  1.3011  0.1722
  175SOL    HW2  525   1.730   2.584   0.004 -0.6065  1.0319 -1.1619
  176SOL     OW  526   1.787   0.409   2.827  0.3370 -0.4319 -0.3847
  176SOL    HW1  527   1.841   0.480   2.877  0.1784  0.0533 -1.7418
  176SOL    HW2  528   1.808   0.418   2.727  1.0020  1.5337  1.2475
  177SOL     OW  529   0.820   1.501   0.332 -0.1865 -0.4777 -0.2109
  177SOL    HW1  530   0.752   1.552   0.391 -0.9080 -0.2677  0.1218
  177SOL    HW2  531   0.814   1.519   0.230 -2.0526 -1.2586 -0.5077
  178SOL     OW  532   3.000   2.189   2.410 -0.1296  0.1560 -0.3273
  178SOL    HW1  533   2.996   2.281   2.377  1.3710 -1.6906 -0.1602
  178SOL    HW2  534   0.001   2.170   2.444  0.4922  2.3086  1.4162
  179SOL     OW  535   0.479   2.556   2.513 -0.1224  0.0783 -0.0340
  179SOL    HW1  536   0.494   2.595   2.605  1.9417 -2.1696 -0.3319
  179SOL    HW2  537   0.532   2.601   2.435  1.0122  0.5081 -0.5912
  180SOL     OW  538   1.992   1.820   1.075  0.6205 -0.4753  0.0031
  180SOL    HW1  539   2.050   1.738   1.077 -1.3631  1.7648 -1.3323
  180SOL    HW2  540   1.913   1.806   1.138  1.2827 -0.1716 -0.3630
  181SOL     OW  541   1.771   0.896   2.269 -0.3900 -0.4180  0.5450
  181SOL    HW1  542   1.739   0.952   2.190 -0.1788 -1.3592 -1.1274
  181SOL    HW2  543   1.821   0.956   2.335 -2.6458  0.0095  0.3171
  182SOL     OW  544   2.681   2.858   2.338  0.1016  0.2780 -0.4080
  182SOL    HW1  545   2.673   2.764   2.299 -1.1614 -0.6600 -0.9919
  182SOL    HW2  546   2.761   2.902   2.295 -2.7809  1.5616  0.5316
  183SOL     OW  547   1.395   0.813   2.603  0.0246 -0.4697 -0.0632
  183SOL    HW1  548   1.420   0.828   2.503 -2.1588 -1.9569  0.6420
  183SOL    HW2  549   1.469   0.761   2.655  0.8747  1.6668  4.1066
  184SOL     OW  550   0.954   0.745   1.622 -0.2602 -0.1688 -0.1314
  184SOL    HW1  551   1.034   0.714   1.676  0.0787  0.7704 -0.5862
  184SOL    HW2  552   0.978   0.753   1.521 -1.6000  1.6604 -3.5320
  185SOL     OW  553   2.114   0.914   0.825 -0.2128 -0.0156 -0.0676
  185SOL    HW1  554   2.066   0.913   0.916 -2.7106 -2.0039  0.0647
  185SOL    HW2  555   2.127   1.007   0.789 -1.4648  0.0978 -0.2106
  186SOL     OW  556   0.330   1.852   2.799  0.2724 -0.1877 -0.3412
  186SOL    HW1  557   0.388   1.773   2.811 -1.3657  3.1841  0.4682
  186SOL    HW2  558   0.286   1.841   2.710  2.4544  0.4114  0.2306
  187SOL     OW  559   2.623   1.452   0.315  0.0272  0.0234 -0.5372
  187SOL    HW1  560   2.656   1.545   0.350  2.5951  2.6276  0.7594
  187SOL    HW2  561   2.665   1.374   0.362 -3.2477  2.7777 -0.9206
  188SOL     OW  562   0.055   1.776   0.621  0.2703 -0.3672 -0.3202
  188SOL    HW1  563   3.085   1.854   0.615  0.2630 -0.0926  2.9137
  188SOL    HW2  564   0.088   1.777   0.719 -1.2748  0.1585  0.5145
  189SOL     OW  565   2.412   0.632   0.406 -0.1997 -0.7843  0.0597
  189SOL    HW1  566   2.384   0.711   0.351  1.7095  0.3972 -0.0678
  189SOL    HW2  567   2.501   0.596   0.366 -0.8591  1.1155  2.0998
  190SOL     OW  568   1.368   1.375   2.090 -0.2229  0.0705  1.1748
  190SOL    HW1  569   1.378   1.471   2.052 -1.0435  0.4076  0.5021
  190SOL    HW2  570   1.306   1.329   2.027  3.0733  0.7008 -0.3704
  191SOL     OW  571   2.355   0.181   1.873 -0.3500 -0.0841  0.5639
  191SOL    HW1  572   2.307   0.168   1.783 -1.1376  0.6699  1.0176
  191SOL    HW2  573   2.292   0.179   1.947 -0.4087 -1.6143  0.2040
  192SOL     OW  574   1.882   1.059   1.626  0.3526  0.2443 -0.5476
  192SOL    HW1  575   1.876   1.154   1.589  3.0165 -0.3552 -0.4593
  192SOL    HW2  576   1.793   1.013   1.608  2.0594  1.8928  2.5636
  193SOL     OW  577   0.767   0.632   0.740 -0.1620 -0.1922 -0.1420
  193SOL    HW1  578   0.734   0.600   0.650 -1.5226  1.2906  0.0848
  193SOL    HW2  579   0.850   0.578   0.766 -0.0073 -0.9284 -1.3864
  194SOL     OW  580   1.126   2.954   1.191  0.4374  0.4890  0.0664
  194SOL    HW1  581   1.132   2.964   1.091  1.3830 -1.7402 -0.0484
  194SOL    HW2  582   1.212   2.911   1.232 -1.8231 -0.6579 -0.7100
  195SOL     OW  583   2.322   0.609   0.688 -0.2722  0.0470 -0.4054
  195SOL    HW1  584   2.355   0.538   0.752 -0.9457  1.3534  0.7363
  195SOL    HW2  585   2.361   0.601   0.593  1.8157  1.6948 -1.4015
  196SOL     OW  586   0.973   1.970   1.370  0.8419  0.6022 -0.0600
  196SOL    HW1  587   1.026   2.037   1.321 -0.7012 -4.3299  0.0063
  196SOL    HW2  588   0.991   1.956   1.467 -3.6251 -5.0494 -1.3031
  197SOL     OW  589   0.436   2.687   0.361 -0.0536 -0.0301  0.0783
  197SOL    HW1  590   0.521   2.698   0.421  3.3928  0.9934  0.0383
  197SOL    HW2  591   0.464   2.699   0.262 -2.9107 -0.0571 -0.7288
  198SOL     OW  592   0.679   0.884   0.837 -0.3207 -0.0871 -0.3193
  198SOL    HW1  593   0.637   0.892   0.930  1.8483  1.8010  1.0137
  198SOL    HW2  594   0.691   0.785   0.810  1.9695  0.5731  0.0946
  199SOL     OW  595   0.113   3.084   1.709  0.4745 -0.0638 -0.6182
  199SOL    HW1  596   0.134   0.064   1.646 -2.6500  1.1755  0.9504
  199SOL    HW2  597   0.161   2.995   1.698 -2.6231 -0.5978  1.9385
  200SOL     OW  598   2.307   1.759   2.716  0.0350  0.4682  0.0368
  200SOL    HW1  599   2.282   1.662   2.705  0.1530  2.1894 -0.2114
  200SOL    HW2  600   2.249   1.804   2.644  1.0016 -0.2834  1.8803
  201SOL     OW  601   2.734   2.523   1.321 -0.4600 -0.0594 -0.2027
  201SOL    HW1  602   2.650   2.569   1.286 -1.2945  2.8297  1.9553
  201SOL    HW2  603   2.817   2.561   1.278  0.9932  1.0470  1.1652
  202SOL     OW  604   2.583   0.246   0.366  0.5533 -0.2812  0.1092
  202SOL    HW1  605   2.607   0.339   0.334 -1.9000 -1.8432 -0.4601
  202SOL    HW2  606   2.609   0.236   0.463 -1.0213  3.1826 -3.1694
  203SOL     OW  607   1.264   2.063   2.261  0.2806 -1.0267 -0.1093
  203SOL    HW1  608   1.283   1.970   2.298 -0.8599 -0.0307 -1.7680
  203SOL    HW2  609   1.200   2.107   2.328  1.9525 -0.9483  0.6898
  204SOL     OW  610   1.017   1.427   1.771 -0.2097 -0.4287 -0.4875
  204SOL    HW1  611   0.940   1.470   1.726  0.9483 -1.0796 -2.1634
  204SOL    HW2  612   1.040   1.343   1.720  0.9537  1.1890 -0.8748
  205SOL     OW  613   1.128   2.000   1.660  0.2938  0.3877 -0.1896
  205SOL    HW1  614   1.212   1.979   1.614 -1.0302  0.7776  1.2480
  205SOL    HW2  615   1.105   1.942   1.743  0.1541  1.4085 -0.3629
  206SOL     OW  616   0.126   0.473   2.804  0.3326 -0.0789  0.2204
  206SOL    HW1  617   0.202   0.418   2.779 -0.6246  0.4721  0.4522
  206SOL    HW2  618   0.036   0.421   2.793 -1.0410  0.7129 -0.0143
  207SOL     OW  619   1.570   2.918   1.999  0.2181  0.0904 -0.6660
  207SOL    HW1  620   1.500   2.912   1.923 -1.9096  2.5368  2.9730
  207SOL    HW2  621   1.641   2.844   2.003  1.2265  0.9676  0.0137
  208SOL     OW  622   0.812   2.348   1.693  0.0164 -0.2536  0.0591
  208SOL    HW1  623   0.842   2.364   1.789 -1.5546  3.4905  1.1839
  208SOL    HW2  624   0.786   2.441   1.659 -1.5755  1.3330  2.6720
  209SOL     OW  625   2.034   1.152   2.797 -0.1160 -0.4616  0.2955
  209SOL    HW1  626   1.959   1.084   2.778 -0.4689 -0.4056  0.5465
  209SOL    HW2  627   1.997   1.236   2.835  0.0991 -1.8308  0.2992
  210SOL     OW  628   2.910   0.323   1.154  0.3436  0.4603  0.2971
  210SOL    HW1  629   2.881   0.338   1.057  1.1199  1.3134 -3.1897
  210SOL    HW2  630   2.926   0.417   1.194  0.0820  2.2019 -0.0543
  211SOL     OW  631   0.882   1.080   1.258 -0.4699  0.0483 -0.1776
  211SOL    HW1  632   0.896   1.061   1.156 -2.2789 -0.9159  0.3731
  211SOL    HW2  633   0.781   1.081   1.274  0.2368 -0.5948 -2.4604
  212SOL     OW  634   1.056   2.024   0.953 -0.2732  0.2900  0.0252
  212SOL    HW1  635   1.067   1.923   0.939 -2.1069 -1.6501 -0.0384
  212SOL    HW2  636   1.129   2.078   0.905  2.6502 -1.3398  0.1830
  213SOL     OW  637   1.727   0.150   1.746 -0.4893 -0.5687 -0.3073
  213SOL    HW1  638   1.727   0.222   1.673 -0.4682  1.7131 -0.4440
  213SOL    HW2  639   1.821   0.137   1.777 -2.5213 -1.3065  2.2576
  214SOL     OW  640   1.614   1.965   2.431  0.2577  0.5316 -0.1024
  214SOL    HW1  641   1.580   2.036   2.370 -0.1416 -3.1122  0.4162
  214SOL    HW2  642   1.650   2.006   2.521  0.9911  0.4574  1.0338
  215SOL     OW  643   3.016   1.882   1.172 -0.7409 -0.5193 -0.3489
  215SOL    HW1  644   2.957   1.961   1.201 -2.7475 -0.1575  1.9828
  215SOL    HW2  645   2.958   1.799   1.180  1.7200  1.4506  2.3509
  216SOL     OW  646   0.714   0.034   2.223 -0.1688  0.2650  0.7952
  216SOL    HW1  647   0.820   0.050   2.227 -0.4158  1.5071 -2.6471
  216SOL    HW2  648   0.666   0.038   2.313 -1.8969 -1.0430 -1.5523
  217SOL     OW  649   2.400   0.367   0.146  0.4280  0.3560  0.1207
  217SOL    HW1  650   2.344   0.387   0.229 -1.3227  1.6215  2.0382
  217SOL    HW2  651   2.493   0.406   0.159 -2.7281 -0.0315  0.0621
  218SOL     OW  652   1.696   1.710   2.317  0.2148  0.2522  0.1775
  218SOL    HW1  653   1.695   1.621   2.372 -0.1247 -1.1074  3.1225
  218SOL    HW2  654   1.675   1.794   2.371  0.9196 -3.2443 -1.8355
  219SOL     OW  655   1.595   1.237   0.343  0.0289  0.3656  0.1915
  219SOL    HW1  656   1.650   1.317   0.369  0.0917  0.4499 -0.1745
  219SOL    HW2  657   1.596   1.226   0.240  0.4786 -1.0841  1.5635
  220SOL     OW  658   1.559   1.912   1.052 -0.4829 -0.1485  0.0585
  220SOL    HW1  659   1.489   1.933   1.123  0.8962  2.4913  1.2618
  220SOL    HW2  660   1.535   1.959   0.964 -1.5020  1.3857 -1.5301
  221SOL     OW  661   0.069   0.544   3.059  0.4034  0.4679  0.2582
  221SOL    HW1  662   0.081   0.646   3.052 -1.7729 -1.3049  0.1631
  221SOL    HW2  663   0.089   0.506   2.964 -2.1483  1.1301 -0.7362
  222SOL     OW  664   1.180   2.687   1.600 -0.1046 -0.1071  0.1285
  222SOL    HW1  665   1.202   2.591   1.562  0.6787  0.9327  1.1317
  222SOL    HW2  666   1.245   2.756   1.561  1.8868  1.0518 -1.2316
  223SOL     OW  667   1.346   0.110   2.820 -0.0035 -0.2094  0.4584
  223SOL    HW1  668   1.265   0.172   2.835 -1.4937 -0.1539  0.6185
  223SOL    HW2  669   1.428   0.149   2.866 -2.3293 -0.9885 -0.3981
  224SOL     OW  670   2.740   0.954   1.242 -0.0230 -0.2823 -0.8332
  224SOL    HW1  671   2.825   0.909   1.219 -2.6789  1.9160  1.2949
  224SOL    HW2  672   2.689   0.910   1.320  1.6986 -3.5604 -0.9619
  225SOL     OW  673   0.956   1.305   1.380 -0.1389 -0.3010  0.2964
  225SOL    HW1  674   0.886   1.379   1.375  1.9767  1.1308  1.2557
  225SOL    HW2  675   0.935   1.221   1.328  0.5536 -0.0833  1.7969
  226SOL     OW  676   1.507   2.711   2.883  0.1560  0.7239  1.2919
  226SOL    HW1  677   1.421   2.684   2.934  1.7663  0.7114 -1.7589
  226SOL    HW2  678   1.485   2.740   2.788  0.0110  2.0103  0.1559
  227SOL     OW  679   0.567   1.627   1.042  0.1581  0.2547 -0.4253
  227SOL    HW1  680   0.567   1.526   1.054 -0.3120  0.0506 -1.8395
  227SOL    HW2  681   0.562   1.671   1.134 -0.0975 -1.3007  1.7100
  228SOL     OW  682   0.414   2.716   1.245 -0.3419  0.0335  0.3586
  228SOL    HW1  683   0.462   2.702   1.330 -2.5141  1.0366 -1.4178
  228SOL    HW2  684   0.430   2.813   1.219  1.0106 -0.0312  0.3496
  229SOL     OW  685   2.444   1.275   0.208 -0.5973 -0.0445 -0.1283
  229SOL    HW1  686   2.529   1.330   0.239  1.2766  0.0329 -1.5433
  229SOL    HW2  687   2.479   1.211   0.135  0.5333 -0.0539  0.0076
  230SOL     OW  688   1.020   1.080   1.945 -0.4981  0.2759 -0.5544
  230SOL    HW1  689   0.975   1.056   1.857  0.5846  1.2611 -1.7814
  230SOL    HW2  690   1.029   0.994   2.000 -4.2460 -0.4529 -1.9188
  231SOL     OW  691   1.596   1.937   1.636 -0.3985 -0.1581 -0.3208
  231SOL    HW1  692   1.675   2.000   1.659  0.9444  1.0072 -1.0410
  231SOL    HW2  693   1.542   1.906   1.717 -0.1197  1.1824  0.1587
  232SOL     OW  694   1.857   2.382   0.681 -0.5844 -0.7421 -0.5208
  232SOL    HW1  695   1.870   2.483   0.669 -2.4124  1.2027  1.2435
  232SOL    HW2  696   1.897   2.324   0.609  0.8359  0.3518  1.4183
  233SOL     OW  697   1.337   2.340   2.962 -0.5853 -0.1115 -0.1629
  233SOL    HW1  698   1.329   2.308   2.867  2.3764  1.3921 -0.5605
  233SOL    HW2  699   1.298   2.276   3.029 -0.9835  1.8003  2.9842
  234SOL     OW  700   0.916   2.941   2.432  0.5321 -0.1189  0.0927
  234SOL    HW1  701   0.871   2.849   2.450 -2.2870 -0.7323  0.1964
  234SOL    HW2  702   0.908   2.999   2.519 -1.2322  0.7103  3.3380
  235SOL     OW  703   2.920   2.415   0.172 -0.1259  0.0173  0.7605
  235SOL    HW1  704   2.867   2.441   0.254  3.1099  1.3891 -3.1296
  235SOL    HW2  705   2.936   2.317   0.182 -1.8543  3.8712  0.4795
  236SOL     OW  706   2.208   2.290   2.305 -0.3144 -0.0353 -0.8014
  236SOL    HW1  707   2.284   2.232   2.351  1.2606 -2.8977  0.8788
  236SOL    HW2  708   2.235   2.384   2.293 -1.5548 -0.4935 -0.0003
  237SOL     OW  709   1.691   1.147   1.300 -0.4091  0.1353  0.1355
  237SOL    HW1  710   1.634   1.061   1.313  0.2949  0.9726 -1.1257
  237SOL    HW2  711   1.663   1.195   1.211 -0.6314 -2.2451 -3.2063
  238SOL     OW  712   1.997   0.257   2.302 -0.0783 -0.3662  0.2663
  238SOL    HW1  713   1.996   0.359   2.288  0.6285  1.7104 -2.0472
  238SOL    HW2  714   1.911   0.224   2.256 -0.4551  1.3145  1.2696
  239SOL     OW  715   0.657   1.365   1.750 -0.4866 -0.5803 -0.2417
  239SOL    HW1  716   0.555   1.371   1.738  2.1719  1.1789 -0.4297
  239SOL    HW2  717   0.697   1.271   1.744  1.8553  0.3031 -2.1419
  240SOL     OW  718   3.078   2.207   0.473 -0.5794  0.5389  0.1204
  240SOL    HW1  719   3.061   2.306   0.503  0.3156  2.5489  0.6717
  240SOL    HW2  720   0.085   2.182   0.469  1.6238 -1.7956  0.5673
  241SOL     OW  721   1.773   1.965   0.500  0.5565 -0.1691  0.3610
  241SOL    HW1  722   1.822   1.920   0.571  0.4234 -0.3211 -1.8621
  241SOL    HW2  723   1.674   1.934   0.502  0.9309  0.8851  0.8566
  242SOL     OW  724   1.405   1.488   0.231 -0.0913 -0.2291  0.0478
  242SOL    HW1  725   1.459   1.503   0.316  0.2374  1.9266 -0.8161
  242SOL    HW2  726   1.463   1.462   0.150 -0.3128 -2.7675 -0.3942
  243SOL     OW  727   0.703   2.883   2.104 -0.2423 -0.0348  0.3419
  243SOL    HW1  728   0.732   2.970   2.144  0.0251 -0.8233 -3.0829
  243SOL    HW2  729   0.633   2.906   2.031  0.3464 -0.4259  1.0189
  244SOL     OW  730   1.662   2.994   2.890  0.0061 -0.2740 -0.2795
  244SOL    HW1  731   1.619   3.085   2.912 -2.2644  1.9452 -1.5728
  244SOL    HW2  732   1.600   2.910   2.882 -0.8610 -4.4647 -0.5823
  245SOL     OW  733   1.340   2.930   0.112  0.0041  0.0785  0.2111
  245SOL    HW1  734   1.429   2.888   0.147  1.3142  1.5681  0.0107
  245SOL    HW2  735   1.350   3.033   0.116 -0.0045  0.9919 -2.4119
  246SOL     OW  736   1.007   0.191   2.788  0.0467  0.0026 -0.4081
  246SOL    HW1  737   1.023   0.263   2.714  2.0297 -0.1414 -1.9288
  246SOL    HW2  738   0.963   0.114   2.745 -1.2954  2.3241 -2.6960
  247SOL     OW  739   0.169   0.658   1.978  0.5569 -0.1727 -0.2569
  247SOL    HW1  740   0.199   0.683   2.073  2.1836 -0.5962  0.1040
  247SOL    HW2  741   0.112   0.573   1.984  0.5277 -0.7926  1.1719
  248SOL     OW  742   0.744   0.835   2.001 -0.0450 -0.4236  0.4418
  248SOL    HW1  743   0.724   0.769   2.075  2.4444  0.8630  0.8401
  248SOL    HW2  744   0.844   0.857   2.014  1.1536 -0.7033  2.4374
  249SOL     OW  745   2.190   0.466   0.311 -0.1461 -0.2321 -0.1549
  249SOL    HW1  746   2.208   0.376   0.347 -1.4767  0.8757 -0.0332
  249SOL    HW2  747   2.254   0.534   0.351 -0.8108  0.7372 -2.2748
  250SOL     OW  748   0.726   0.292   0.708  0.1282 -0.0031  0.3581
  250SOL    HW1  749   0.771   0.304   0.614  0.0448  0.1064 -0.4886
  250SOL    HW2  750   0.633   0.324   0.719  0.5375  0.0249 -1.1683
  251SOL     OW  751   1.027   0.399   2.608  0.5207  1.0292 -0.3441
  251SOL    HW1  752   1.091   0.476   2.627  1.2528 -0.1315 -0.3034
  251SOL    HW2  753   1.048   0.342   2.526  0.0556 -0.8076 -1.4138
  252SOL     OW  754   1.742   1.851   2.043  0.5507  0.2306  0.3980
  252SOL    HW1  755   1.790   1.809   1.964  1.7971  0.8226 -0.2352
  252SOL    HW2  756   1.725   1.793   2.128 -1.4283  2.2576  2.0275
  253SOL     OW  757   1.686   2.679   1.975 -0.2348  0.5403  0.4363
  253SOL    HW1  758   1.665   2.578   1.981  0.9618 -1.5058  0.0177
  253SOL    HW2  759   1.789   2.690   1.976  1.9289  0.8646  0.2285
  254SOL     OW  760   0.806   1.963   1.818  0.3063  0.1290 -0.1642
  254SOL    HW1  761   0.798   1.997   1.914 -1.9176  1.1672  0.4954
  254SOL    HW2  762   0.897   1.984   1.777 -0.3322  0.2601 -0.1402
  255SOL     OW  763   1.102   0.596   0.587  0.5581 -0.2439  0.1412
  255SOL    HW1  764   1.031   0.576   0.658 -0.4660  1.3793  1.4210
  255SOL    HW2  765   1.060   0.615   0.495  1.2125  2.0372 -2.8583
  256SOL     OW  766   2.018   1.936   1.727 -0.8241 -0.7021 -0.1584
  256SOL    HW1  767   2.028   1.875   1.649  2.6606  2.2657 -0.9697
  256SOL    HW2  768   1.933   1.993   1.714 -2.2787 -0.1095 -0.7258
  257SOL     OW  769   0.468   2.247   2.507  0.2087  0.5516  0.2692
  257SOL    HW1  770   0.461   2.343   2.534 -1.7496  1.9909  1.7274
  257SOL    HW2  771   0.468   2.197   2.595 -0.3140  0.4275 -1.5591
  258SOL     OW  772   0.836   0.441   2.289 -0.1285 -0.5880  0.2961
  258SOL    HW1  773   0.912   0.393   2.338 -1.4104  1.7147  1.2559
  258SOL    HW2  774   0.754   0.377   2.298  1.0321 -0.1442 -0.5032
  259SOL     OW  775   1.157   0.806   2.342  0.1195  0.4498  0.3079
  259SOL    HW1  776   1.100   0.781   2.420 -0.9743 -0.5873  0.3808
  259SOL    HW2  777   1.187   0.722   2.295 -1.8635 -1.7879  0.2587
  260SOL     OW  778   1.394   0.658   0.667  0.0664 -0.6107 -0.4705
  260SOL    HW1  779   1.305   0.616   0.641  0.9100  0.0197  0.7817
  260SOL    HW2  780   1.406   0.680   0.766 -0.5245  2.7500 -0.0764
  261SOL     OW  781   0.437   2.896   2.807  0.1054 -0.3188 -0.0290
  261SOL    HW1  782   0.384   2.924   2.890 -1.1336  1.0790  0.6116
  261SOL    HW2  783   0.451   2.793   2.811  2.7647  0.5832  1.2802
  262SOL     OW  784   2.312   3.081   2.841  0.0212  0.2488 -0.0136
  262SOL    HW1  785   2.414   3.084   2.820  0.0216  0.6793  0.8878
  262SOL    HW2  786   2.290   0.068   2.898 -0.7803  1.3251  2.2112
  263SOL     OW  787   0.030   2.119   0.028 -0.4782  0.3250 -0.7409
  263SOL    HW1  788   3.050   2.120   0.097  0.4907 -0.1384  0.1910
  263SOL    HW2  789   0.076   2.026   0.013  0.4346 -1.7663 -0.8758
  264SOL     OW  790   0.620   1.066   1.327  0.2735 -0.0626 -0.1282
  264SOL    HW1  791   0.554   1.126   1.370  1.4762  1.6265  0.3281
  264SOL    HW2  792   0.579   1.026   1.244  1.0871  1.2728  0.2285
  265SOL     OW  793   0.395   1.239   0.407  0.3827 -0.4526 -0.2340
  265SOL    HW1  794   0.395   1.144   0.367 -0.7850 -1.0787 -2.2552
  265SOL    HW2  795   0.464   1.241   0.484  1.1430 -0.6809 -0.5426
  266SOL     OW  796   1.706   1.578   0.563 -0.1688  0.0783  0.1882
  266SOL    HW1  797   1.753   1.653   0.607  1.7433  0.5301  0.3140
  266SOL    HW2  798   1.748   1.567   0.470 -0.8138 -0.6335 -2.0721
  267SOL     OW  799   2.717   0.502   0.047  0.2536  0.7377  0.0016
  267SOL    HW1  800   2.708   0.429   3.072 -2.7874  0.4734  2.1998
  267SOL    HW2  801   2.752   0.586   0.004 -0.7938  0.0003  2.6033
  268SOL     OW  802   3.036   2.954   2.823 -0.1765  0.0124 -0.0380
  268SOL    HW1  803   3.060   2.869   2.770 -0.7694 -0.1525  2.5061
  268SOL    HW2  804   2.986   3.027   2.765  2.1808 -0.9246  0.0697
  269SOL     OW  805   1.992   0.071   2.574  0.2821 -0.1776  0.1091
  269SOL    HW1  806   1.963   0.106   2.669  1.1002 -1.0499 -1.3424
  269SOL    HW2  807   1.998   0.153   2.515  0.0888  1.2054  1.2759
  270SOL     OW  808   0.960   1.050   2.542 -0.0573  0.5147  0.1004
  270SOL    HW1  809   0.871   1.044   2.498  1.7550 -1.5929  0.3920
  270SOL    HW2  810   0.949   1.099   2.633  0.9701 -0.0505 -1.3350
  271SOL     OW  811   2.689   0.992   0.252  0.3791  0.7121 -0.3355
  271SOL    HW1  812   2.592   1.011   0.226  1.6423  0.3533  2.8054
  271SOL    HW2  813   2.756   1.011   0.177 -1.6035 -0.3386  0.3569
  272SOL     OW  814   2.882   1.678   2.593 -0.4902  0.3463 -0.3785
  272SOL    HW1  815   2.816   1.700   2.519  2.7619  0.7367 -0.4117
  272SOL    HW2  816   2.917   1.769   2.627 -0.1994  1.3252  1.3083
  273SOL     OW  817   2.167   0.741   3.043  0.6472 -0.1080  0.1720
  273SOL    HW1  818   2.246   0.732   2.982 -0.6292 -0.6233 -2.3461
  273SOL    HW2  819   2.099   0.667   3.029  0.2760  0.2896 -0.3961
  274SOL     OW  820   0.142   2.563   0.948 -0.2982  0.4638  0.2503
  274SOL    HW1  821   0.171   2.619   0.867  0.4896 -1.3797 -0.2787
  274SOL    HW2  822   0.142   2.617   1.034  0.7765  2.1471 -0.6256
  275SOL     OW  823   2.085   1.534   0.578 -0.3467  0.3087 -0.5008
  275SOL    HW1  824   2.185   1.523   0.564  1.3616  0.2497  0.4173
  275SOL    HW2  825   2.070   1.589   0.663  0.3542  1.1976 -0.8585
  276SOL     OW  826   0.229   1.270   2.780  0.2023 -0.2152  0.2672
  276SOL    HW1  827   0.326   1.251   2.774  0.7470 -1.8365 -0.4142
  276SOL    HW2  828   0.182   1.283   2.690 -1.0721  3.0281 -0.6100
  277SOL     OW  829   1.737   2.551   1.526  0.0719 -0.0701  0.4275
  277SOL    HW1  830   1.676   2.588   1.602 -0.5037  0.1456  0.9400
  277SOL    HW2  831   1.743   2.623   1.456 -0.3418  2.2315  0.6284
  278SOL     OW  832   1.585   0.501   1.946 -0.5382 -0.4478  0.4097
  278SOL    HW1  833   1.489   0.495   1.916  3.3561  2.9748  1.6844
  278SOL    HW2  834   1.600   0.587   1.996  0.0779  1.1051 -2.8743
  279SOL     OW  835   2.068   1.777   0.223 -0.3756 -0.1964 -0.5542
  279SOL    HW1  836   2.121   1.806   0.305  0.5597  1.2915 -0.1933
  279SOL    HW2  837   1.989   1.841   0.208 -1.3965 -1.6344  1.6331
  280SOL     OW  838   0.429   1.757   0.836 -0.4371  0.1540 -0.0426
  280SOL    HW1  839   0.450   1.705   0.750 -1.5723  1.9026 -1.7536
  280SOL    HW2  840   0.474   1.718   0.921  0.8002  1.6760  0.8813
  281SOL     OW  841   2.923   0.020   2.600  0.7549  0.2374  0.1267
  281SOL    HW1  842   2.888   0.112   2.613 -1.7540  1.3275  1.0590
  281SOL    HW2  843   3.009   0.015   2.548  1.8996  2.2541 -1.1988
  282SOL     OW  844   0.210   0.892   0.997 -0.3529  0.3480 -0.2668
  282SOL    HW1  845   0.124   0.860   0.948 -0.7121  1.6788  0.9268
  282SOL    HW2  846   0.196   0.960   1.073  0.3508  3.0335  2.9562
  283SOL     OW  847   1.911   2.196   0.141  0.1651 -0.6435  0.6679
  283SOL    HW1  848   1.991   2.147   0.108 -1.2271  1.1193  0.4936
  283SOL    HW2  849   1.871   2.248   0.065 -0.7927 -2.1986 -0.2036
  284SOL     OW  850   1.451   1.611   0.501 -0.0141 -0.4797  0.6584
  284SOL    HW1  851   1.420   1.679   0.570  1.2446  0.0940 -1.3380
  284SOL    HW2  852   1.540   1.569   0.531 -1.6051 -1.6826  0.8423
  285SOL     OW  853   2.554   0.062   2.755  0.5238 -0.6786 -0.7442
  285SOL    HW1  854   2.608   0.041   2.840 -0.7726  2.3902 -3.3623
  285SOL    HW2  855   2.602   0.008   2.683 -0.0152 -0.6662  0.2886
  286SOL     OW  856   1.297   2.964   1.556 -0.0458 -0.2154 -0.1514
  286SOL    HW1  857   1.342   2.954   1.463  1.8902  2.9205  0.2824
  286SOL    HW2  858   1.239   3.049   1.555 -1.1222  1.3855  1.7462
  287SOL     OW  859   0.860   1.046   1.010 -0.2424 -0.7759  0.4317
  287SOL    HW1  860   0.915   1.029   0.924  1.8930 -1.3474 -1.2035
  287SOL    HW2  861   0.761   1.060   0.997  0.7515  1.4642  0.0037
  288SOL     OW  862   1.579   0.232   2.931 -0.0013  0.1142  0.0108
  288SOL    HW1  863   1.661   0.284   2.898  2.3094 -3.0850 -0.5103
  288SOL    HW2  864   1.583   0.224   3.033  0.2777  2.9191  3.5541
  289SOL     OW  865   0.126   1.537   2.744  0.1231  0.4032 -0.3414
  289SOL    HW1  866   0.117   1.557   2.644  0.6107  0.0622 -1.3564
  289SOL    HW2  867   0.198   1.468   2.765 -0.4424 -1.1533 -3.2673
  290SOL     OW  868   1.583   2.273   0.716  0.1185 -0.0291  0.0336
  290SOL    HW1  869   1.503   2.308   0.661  0.8378 -1.6339  1.8423
  290SOL    HW2  870   1.670   2.294   0.672 -3.1435 -0.4749  1.9326
  291SOL     OW  871   2.250   2.083   2.820  0.1473 -0.1761  0.2239
  291SOL    HW1  872   2.149   2.085   2.838 -0.8359  0.4339 -0.6455
  291SOL    HW2  873   2.283   1.989   2.835 -0.6990  0.3123 -1.1178
  292SOL     OW  874   1.035   0.846   2.077 -0.0401  0.4147  0.0264
  292SOL    HW1  875   1.092   0.838   2.162 -1.4081 -2.9545  3.1373
  292SOL    HW2  876   1.063   0.780   2.006 -3.1001  2.2393  0.6115
  293SOL     OW  877   2.016   2.845   0.985 -0.0827  0.5708 -0.3514
  293SOL    HW1  878   2.029   2.883   0.893  0.5413 -4.6420  3.0882
  293SOL    HW2  879   2.085   2.764   0.999  0.2095 -0.8859 -0.8858
  294SOL     OW  880   0.326   0.503   2.444 -0.3884  0.3496  0.0062
  294SOL    HW1  881   0.342   0.535   2.538 -0.6483  0.1830 -1.7820
  294SOL    HW2  882   0.408   0.468   2.401 -0.5012 -0.3473  0.0038
  295SOL     OW  883   1.519   1.910   0.437  0.6085 -0.3705 -0.1440
  295SOL    HW1  884   1.447   1.857   0.487  0.5853  0.7693  1.1258
  295SOL    HW2  885   1.503   1.897   0.339  1.7630 -1.1421  3.5734
  296SOL     OW  886   2.426   1.921   3.072 -0.3072 -0.3235  0.5452
  296SOL    HW1  887   2.462   1.933   2.976  2.4648  1.1322  1.5996
  296SOL    HW2  888   2.385   1.826   3.090  1.1201 -1.2274  2.5515
  297SOL     OW  889   2.089   0.383   0.036  0.1537 -0.0544 -0.9008
  297SOL    HW1  890   2.146   0.303   0.018 -0.3275 -0.0952  0.4866
  297SOL    HW2  891   2.129   0.442   0.105 -1.3047 -2.8441  2.2982
  298SOL     OW  892   1.200   2.453   2.316 -0.1087 -0.0982 -0.1001
  298SOL    HW1  893   1.207   2.367   2.368 -1.6428  1.7596  1.1137
  298SOL    HW2  894   1.288   2.506   2.292 -0.2615  2.2037 -0.4479
  299SOL     OW  895   1.232   2.864   2.369  0.0286  0.1268 -0.1924
  299SOL    HW1  896   1.318   2.854   2.316  0.9865  1.6771 -0.3055
  299SOL    HW2  897   1.153   2.851   2.306  0.5183 -2.0999 -0.2948
  300SOL     OW  898   2.307   0.210   3.023  0.6738  0.0239  0.3758
  300SOL    HW1  899   2.364   0.279   3.068  0.6999 -4.0151  1.4180
  300SOL    HW2  900   2.234   0.256   2.968 -1.3720  0.7374 -1.4110
  301SOL     OW  901   1.395   1.498   1.339 -0.4520  0.2066 -0.3354
  301SOL    HW1  902   1.362   1.404   1.331  1.1926  0.9253 -0.2061
  301SOL    HW2  903   1.411   1.539   1.244  0.3315  1.5440 -3.0927
  302SOL     OW  904   2.536   2.393   0.411  0.1725 -0.5215  0.0694
  302SOL    HW1  905   2.637   2.395   0.409  0.5256  0.3303  0.2102
  302SOL    HW2  906   2.507   2.476   0.370  0.4859 -0.9025  1.3916
  303SOL     OW  907   2.703   2.596   2.288 -0.0508 -0.3733  0.0649
  303SOL    HW1  908   2.803   2.584   2.313  0.2494  0.1343  2.4924
  303SOL    HW2  909   2.673   2.516   2.228  1.2129 -0.9053  0.9371
  304SOL     OW  910   3.014   0.482   1.938  0.5327 -0.3354  0.0666
  304SOL    HW1  911   3.026   0.489   1.836 -0.2648 -0.6289 -0.7201
  304SOL    HW2  912   2.941   0.547   1.972 -1.4524  1.0065 -1.5746
  305SOL     OW  913   0.630   1.734   1.759  0.4369  0.2780 -0.1674
  305SOL    HW1  914   0.634   1.666   1.834  1.5891  0.3687 -0.2963
  305SOL    HW2  915   0.700   1.802   1.770  1.3095 -0.0918  0.5845
  306SOL     OW  916   2.883   0.889   1.975 -0.3831 -0.2175  0.2592
  306SOL    HW1  917   2.926   0.947   2.045  0.3438  0.7171  0.8336
  306SOL    HW2  918   2.799   0.931   1.941  1.4279  1.8373 -0.2423
  307SOL     OW  919   1.648   1.297   1.901  0.8465 -0.1340 -0.2256
  307SOL    HW1  920   1.601   1.388   1.880 -0.3030  3.6955 -1.6790
  307SOL    HW2  921   1.626   1.235   1.821  0.6355  1.5293  0.4982
  308SOL     OW  922   2.566   1.617   1.088 -0.2186  0.2222  0.4451
  308SOL    HW1  923   2.495   1.597   1.158  0.5723  1.7696  0.6381
  308SOL    HW2  924   2.554   1.712   1.050  2.9201 -3.1520 -0.5039
  309SOL     OW  925   2.364   1.582   1.266 -0.3607 -0.2240  0.2593
  309SOL    HW1  926   2.357   1.658   1.337  1.7249  1.9750  0.2459
  309SOL    HW2  927   2.420   1.510   1.315  1.3015  0.2112 -2.4857
  310SOL     OW  928   2.741   1.460   2.736 -0.1174 -0.0646  0.3494
  310SOL    HW1  929   2.681   1.438   2.659  1.8606 -2.1980  0.3440
  310SOL    HW2  930   2.791   1.550   2.722 -1.9085  0.5715  0.6400
  311SOL     OW  931   3.048   1.775   3.070 -0.0436  0.3571  0.1968
  311SOL    HW1  932   2.961   1.842   3.073 -3.0218  3.0375  0.4237
  311SOL    HW2  933   3.039   1.700   2.997 -2.0709 -2.1963  2.8258
  312SOL     OW  934   2.164   1.479   0.871  0.2893  0.0449  0.4228
  312SOL    HW1  935   2.109   1.392   0.861 -0.6084  1.6887  0.0468
  312SOL    HW2  936   2.153   1.521   0.964 -2.3940  0.7966  0.9502
  313SOL     OW  937   2.518   2.651   1.230 -0.0422  0.2849  0.0429
  313SOL    HW1  938   2.488   2.746   1.213  2.5810 -0.2867 -0.0377
  313SOL    HW2  939   2.439   2.587   1.252  1.9159 -0.3791  1.1256
  314SOL     OW  940   1.033   1.786   0.420  0.0565 -0.1088  0.5658
  314SOL    HW1  941   1.069   1.691   0.438  1.7461 -0.8818 -1.4035
  314SOL    HW2  942   0.981   1.821   0.502  0.8135 -0.1031  1.3121
  315SOL     OW  943   0.965   2.578   2.302  0.4484  0.5984 -0.5473
  315SOL    HW1  944   1.042   2.520   2.329 -3.2159  1.9409  1.5717
  315SOL    HW2  945   0.926   2.618   2.385  0.0463 -0.5527 -1.7603
  316SOL     OW  946   0.042   0.919   0.564 -0.0073  0.0256  0.2310
  316SOL    HW1  947   0.142   0.904   0.541  1.5884 -3.2736  0.4100
  316SOL    HW2  948   3.081   0.895   0.483  0.2451  0.5562  1.1272
  317SOL     OW  949   0.897   0.218   0.503  0.6982 -0.0597 -0.3358
  317SOL    HW1  950   0.820   0.248   0.439 -2.5170 -0.2901 -1.1817
  317SOL    HW2  951   0.913   0.116   0.488  0.0936 -1.8734  0.1709
  318SOL     OW  952   2.801   2.463   0.402  0.5206 -0.0489 -0.8704
  318SOL    HW1  953   2.877   2.431   0.464 -1.3315  0.5578 -0.9614
  318SOL    HW2  954   2.796   2.567   0.408  2.0400 -1.0904  0.1575
  319SOL     OW  955   0.656   1.312   2.446  0.0933 -0.7402  0.4336
  319SOL    HW1  956   0.576   1.313   2.509  1.7947 -1.3238  0.0272
  319SOL    HW2  957   0.710   1.398   2.452 -1.2389  1.1753 -1.7218
  320SOL     OW  958   0.749   2.605   1.649  0.2235 -0.0460 -0.3790
  320SOL    HW1  959   0.820   2.676   1.634  1.5937 -2.4580 -0.8990
  320SOL    HW2  960   0.670   2.616   1.585 -0.2000  1.0328  0.4579
  321SOL     OW  961   1.301   2.383   0.292  0.0235 -0.4775  0.5521
  321SOL    HW1  962   1.327   2.289   0.318  1.4214  1.1061 -1.8016
  321SOL    HW2  963   1.382   2.438   0.264 -3.8666 -0.6921 -0.6266
  322SOL     OW  964   2.697   1.042   2.184 -0.4383  0.0161  0.1417
  322SOL    HW1  965   2.649   1.117   2.132 -0.5349  0.9977 -1.3440
  322SOL    HW2  966   2.776   1.074   2.233 -1.3883 -1.7565 -4.0219
  323SOL     OW  967   2.473   0.945   0.594 -0.0465 -0.3457 -0.0864
  323SOL    HW1  968   2.430   0.873   0.538  1.4687  1.0565  0.2262
  323SOL    HW2  969   2.453   1.040   0.568 -0.9785 -2.6563 -0.2298
  324SOL     OW  970   0.408   2.514   2.965  0.2508  0.0558  0.0705
  324SOL    HW1  971   0.319   2.562   2.942  1.0171 -0.0076  0.6022
  324SOL    HW2  972   0.405   2.472   3.058  2.3106  1.1116 -2.6029
  325SOL     OW  973   1.649   0.406   2.364 -0.8269 -0.4862 -0.5237
  325SOL    HW1  974   1.650   0.500   2.316  0.2904  0.1350 -1.6700
  325SOL    HW2  975   1.674   0.331   2.297 -0.3940 -2.9945 -0.3346
  326SOL     OW  976   2.246   2.723   1.576  0.2955  0.4504 -0.8513
  326SOL    HW1  977   2.321   2.653   1.597 -0.3377 -1.4148  0.7092
  326SOL    HW2  978   2.261   2.781   1.491 -1.6747 -3.4427  2.6524
  327SOL     OW  979   1.937   0.566   2.995 -0.2799 -0.4534 -0.1255
  327SOL    HW1  980   1.853   0.577   3.056 -1.1068  2.1507 -2.7524
  327SOL    HW2  981   1.990   0.478   3.014  0.4206 -1.8897 -1.8279
  328SOL     OW  982   2.881   1.170   2.330 -0.7269 -0.3120  0.5429
  328SOL    HW1  983   2.854   1.266   2.308  0.5726 -1.2072 -1.0384
  328SOL    HW2  984   2.891   1.160   2.431 -1.9888  0.0121  0.2183
  329SOL     OW  985   1.364   0.231   2.074  0.5582  0.1139 -0.4566
  329SOL    HW1  986   1.295   0.177   2.029  0.9613  0.2104  2.8989
  329SOL    HW2  987   1.459   0.203   2.045  0.3658  3.0792  1.0369
  330SOL     OW  988   2.852   1.862   1.567 -0.1973  0.2476  0.4892
  330SOL    HW1  989   2.782   1.887   1.498  0.5691 -0.9146  1.5608
  330SOL    HW2  990   2.902   1.769   1.554  2.2454 -0.3749 -1.1485
  331SOL     OW  991   0.436   1.394   2.031 -0.2777  0.4477  0.1016
  331SOL    HW1  992   0.422   1.357   1.939 -0.0238  0.2566 -0.2707
  331SOL    HW2  993   0.512   1.341   2.074 -1.6766  0.0597  0.0271
  332SOL     OW  994   0.407   0.049   1.431  0.5537 -0.0943  0.5317
  332SOL    HW1  995   0.468   0.083   1.355  0.1546  1.5416 -0.5833
  332SOL    HW2  996   0.350   0.125   1.465  1.6809 -0.6706 -0.9555
  333SOL     OW  997   2.267   2.844   1.816 -0.0457 -0.0108  0.2690
  333SOL    HW1  998   2.346   2.909   1.801  1.9674 -0.7509  1.6853
  333SOL    HW2  999   2.238   2.804   1.731  2.2016 -3.2461  1.2097
  334SOL     OW 1000   0.832   1.678   1.013  0.0980 -0.1809  0.2494
  334SOL    HW1 1001   0.731   1.660   1.016 -0.0501  0.0892  1.0479
  334SOL    HW2 1002   0.847   1.763   0.965 -2.2193 -0.2142 -1.4154
  335SOL     OW 1003   0.566   2.268   2.881 -0.2832  0.4836  0.0194
  335SOL    HW1 1004   0.510   2.342   2.922 -1.1692  0.0758  2.0063
  335SOL    HW2 1005   0.506   2.198   2.836  1.0567 -2.7592 -0.9260
  336SOL     OW 1006   0.095   0.089   1.961 -0.0627  0.2945 -0.4319
  336SOL    HW1 1007   0.116   0.050   1.868  0.3779 -3.9047  1.4370
  336SOL    HW2 1008   3.088   0.088   1.982 -2.0256 -0.8335  2.6432
  337SOL     OW 1009   2.548   2.288   0.082  0.4311 -0.4610 -0.0462
  337SOL    HW1 1010   2.465   2.330   0.129 -2.4731 -2.5508  1.1829
  337SOL    HW2 1011   2.572   2.197   0.127  3.1128 -1.5894  0.8520
  338SOL     OW 1012   1.113   2.126   1.192 -0.5314 -0.0943  0.2151
  338SOL    HW1 1013   1.145   2.221   1.187  4.1022 -2.4643 -0.4268
  338SOL    HW2 1014   1.091   2.090   1.097  1.6700  0.3465  1.2396
  339SOL     OW 1015   0.065   0.392   2.155 -0.1982  0.0055 -0.0081
  339SOL    HW1 1016   0.002   0.415   2.079 -2.9102 -0.1344 -0.2551
  339SOL    HW2 1017   0.145   0.339   2.128 -2.4572  3.9506 -0.4933
  340SOL     OW 1018   1.542   2.606   0.559 -0.0598  0.7286 -0.0718
  340SOL    HW1 1019   1.488   2.691   0.553 -0.7048 -1.9922  1.0857
  340SOL    HW2 1020   1.485   2.524   0.546 -0.0115 -2.4831 -0.6998
  341SOL     OW 1021   1.584   1.311   1.060 -0.0396 -0.2132 -0.8623
  341SOL    HW1 1022   1.590   1.274   0.971  1.0896 -1.2677  0.7761
  341SOL    HW2 1023   1.549   1.408   1.055  1.2836  0.4375  0.5337
  342SOL     OW 1024   0.297   1.368   0.684  0.2907  0.1664  0.0604
  342SOL    HW1 1025   0.285   1.446   0.623  0.3680  0.7888 -1.8990
  342SOL    HW2 1026   0.230   1.296   0.653 -2.7949 -0.2538  0.0386
  343SOL     OW 1027   1.491   0.240   1.136 -0.3377 -0.0410 -0.2547
  343SOL    HW1 1028   1.495   0.330   1.087 -0.6002 -0.6248 -1.9857
  343SOL    HW2 1029   1.393   0.209   1.149  1.1346  0.2056  1.2042
  344SOL     OW 1030   1.876   2.405   1.234  0.2239 -0.6239  0.1877
  344SOL    HW1 1031   1.913   2.499   1.252 -1.9642 -0.4896  0.3238
  344SOL    HW2 1032   1.782   2.413   1.192 -2.6307  2.1333  0.0500
  345SOL     OW 1033   2.935   2.341   2.760  0.1191  0.2504  0.2488
  345SOL    HW1 1034   2.903   2.435   2.734 -1.0901 -0.3475 -0.1663
  345SOL    HW2 1035   3.014   2.338   2.822 -2.0056 -1.2816 -1.1536
  346SOL     OW 1036   0.199   1.474   0.944  0.1508  0.6182  0.3679
  346SOL    HW1 1037   0.192   1.560   0.889 -1.7487 -1.4432 -1.4498
  346SOL    HW2 1038   0.246   1.394   0.900  1.5863 -1.2774 -1.8720
  347SOL     OW 1039   1.768   2.647   0.705 -0.3192 -0.0008 -0.2586
  347SOL    HW1 1040   1.673   2.624   0.673  3.1383  0.3931 -0.4310
  347SOL    HW2 1041   1.757   2.665   0.806 -0.0555 -0.2959  1.9953
  348SOL     OW 1042   1.275   1.337   2.492  0.2770 -0.1358  0.1658
  348SOL    HW1 1043   1.274   1.233   2.486 -0.7598 -0.9403  0.2182
  348SOL    HW2 1044   1.182   1.364   2.502  0.8931 -3.1992 -2.9868
  349SOL     OW 1045   2.315   1.308   2.182 -0.2944 -0.0114 -0.5746
  349SOL    HW1 1046   2.246   1.333   2.113  2.6156 -0.9882 -1.9458
  349SOL    HW2 1047   2.283   1.224   2.240  0.0775 -3.2361 -0.7736
  350SOL     OW 1048   0.077   2.415   1.304 -0.2600  0.3323 -0.3095
  350SOL    HW1 1049   0.071   2.375   1.398  1.1036 -0.3114  0.5264
  350SOL    HW2 1050   0.140   2.364   1.243 -1.4429  0.8832  0.7414
  351SOL     OW 1051   0.556   0.260   2.682  0.1928  0.2239  0.7477
  351SOL    HW1 1052   0.558   0.260   2.783 -0.0150  1.3765  0.2154
  351SOL    HW2 1053   0.608   0.341   2.652  4.2161 -1.7431 -1.4873
  352SOL     OW 1054   0.795   2.721   1.339  0.0312  0.1710  0.5153
  352SOL    HW1 1055   0.859   2.758   1.410  1.2799  0.0894  0.2527
  352SOL    HW2 1056   0.698   2.697   1.369 -1.6402 -1.8519 -1.8412
  353SOL     OW 1057   1.024   0.789   2.568  0.1693  0.3162  0.2706
  353SOL    HW1 1058   1.021   0.890   2.541 -0.2699  0.4382 -2.8033
  353SOL    HW2 1059   1.018   0.778   2.668  2.5962 -0.9700  1.0352
  354SOL     OW 1060   1.377   1.169   0.573 -0.2387  0.2578 -0.2681
  354SOL    HW1 1061   1.322   1.104   0.525 -1.5464  0.2820  2.0900
  354SOL    HW2 1062   1.467   1.184   0.530  3.4469 -1.3002 -1.8127
  355SOL     OW 1063   2.529   0.431   0.807 -0.4806 -0.7983  0.1473
  355SOL    HW1 1064   2.557   0.376   0.891 -0.8966 -1.9396  0.8833
  355SOL    HW2 1065   2.488   0.363   0.742 -2.0573 -0.5444 -2.5030
  356SOL     OW 1066   2.927   1.083   2.572 -0.2056  0.0014  0.8892
  356SOL    HW1 1067   2.957   1.159   2.634  2.1902 -1.1239  1.7765
  356SOL    HW2 1068   3.008   1.026   2.553  2.0290  1.2395  0.8792
  357SOL     OW 1069   0.520   2.929   1.901 -0.0740 -0.2179 -0.5995
  357SOL    HW1 1070   0.581   2.955   1.821 -0.1879 -0.1035 -2.2264
  357SOL    HW2 1071   0.451   2.857   1.880 -1.3991 -1.3338 -1.1343
  358SOL     OW 1072   2.928   1.257   2.761  0.1571 -0.2726 -0.4024
  358SOL    HW1 1073   2.851   1.322   2.747  0.3599  0.4405  2.4467
  358SOL    HW2 1074   3.018   1.297   2.734  0.0287  0.6437  1.2072
  359SOL     OW 1075   2.414   2.691   2.842  0.1731 -0.8949 -0.4206
  359SOL    HW1 1076   2.347   2.761   2.806 -1.1333  0.7380 -0.0552
  359SOL    HW2 1077   2.412   2.606   2.789  0.5973  3.8503 -0.6454
  360SOL     OW 1078   1.791   1.044   0.917 -0.0691  0.1370 -0.7087
  360SOL    HW1 1079   1.829   1.143   0.926  0.8437  3.1812  3.2612
  360SOL    HW2 1080   1.844   0.980   0.976  1.3974  2.2101  0.2197
  361SOL     OW 1081   1.747   2.729   0.966 -0.0344  0.0814  0.0193
  361SOL    HW1 1082   1.675   2.797   0.948 -0.0372 -0.1581 -3.5268
  361SOL    HW2 1083   1.835   2.774   0.994 -1.4188  0.1121  0.8366
  362SOL     OW 1084   1.343   1.149   0.916  0.0794  0.6626  0.3244
  362SOL    HW1 1085   1.349   1.175   0.819 -0.2533 -0.3977 -0.8989
  362SOL    HW2 1086   1.267   1.198   0.962  0.2295 -0.0436 -0.8886
  363SOL     OW 1087   0.125   2.126   2.527  0.1448  0.0284 -0.5681
  363SOL    HW1 1088   0.159   2.200   2.589  0.8201 -0.3484  1.1608
  363SOL    HW2 1089   0.180   2.114   2.438 -1.8994 -0.1655 -3.5018
  364SOL     OW 1090   1.400   0.618   1.461 -0.2474  0.0940  0.0266
  364SOL    HW1 1091   1.389   0.570   1.552 -0.5259 -1.9876  1.7298
  364SOL    HW2 1092   1.491   0.653   1.447  0.2950 -1.5396 -1.4137
  365SOL     OW 1093   0.022   2.962   1.218  0.0648 -0.6320 -1.0461
  365SOL    HW1 1094   0.017   3.065   1.237  0.0449  1.4114 -0.4076
  365SOL    HW2 1095   3.036   2.925   1.170  2.1553  0.0697  1.6431
  366SOL     OW 1096   2.941   1.369   0.257  0.7037 -0.2079  0.4604
  366SOL    HW1 1097   2.954   1.451   0.309 -0.7271 -1.2498 -1.9260
  366SOL    HW2 1098   2.882   1.305   0.306  0.5065  1.4935 -2.5299
  367SOL     OW 1099   2.939   1.947   2.615 -0.1019  0.1491  0.1846
  367SOL    HW1 1100   2.860   2.004   2.643  0.6204 -4.2762  0.1990
  367SOL    HW2 1101   3.018   2.001   2.596 -0.6498  0.5521 -1.5001
  368SOL     OW 1102   2.812   2.059   1.173  0.1280  0.0098  0.1094
  368SOL    HW1 1103   2.800   2.161   1.189 -1.0974 -0.5632  0.6490
  368SOL    HW2 1104   2.758   2.001   1.243  0.7296  0.4484  1.8473
  369SOL     OW 1105   0.665   0.265   0.366 -0.2222 -0.1073  0.2254
  369SOL    HW1 1106   0.690   0.263   0.269  0.0898  0.6678 -2.1334
  369SOL    HW2 1107   0.569   0.313   0.373 -1.0556  0.0907 -0.3499
  370SOL     OW 1108   0.611   0.722   1.472  0.3429  0.3250  0.1061
  370SOL    HW1 1109   0.687   0.748   1.410  1.5401 -0.6734  1.7108
  370SOL    HW2 1110   0.639   0.641   1.531 -0.1952 -1.4117  1.1401
  371SOL     OW 1111   2.418   1.796   0.403  0.6257 -0.3518 -0.1678
  371SOL    HW1 1112   2.460   1.856   0.329 -0.1458 -1.1334 -1.3835
  371SOL    HW2 1113   2.326   1.828   0.431 -0.6328  1.9957  0.3682
  372SOL     OW 1114   0.162   1.036   2.527 -0.2223 -0.1390 -0.6739
  372SOL    HW1 1115   0.186   0.963   2.590 -1.4013 -1.3132 -1.0796
  372SOL    HW2 1116   0.185   1.012   2.429 -0.3320  0.2843 -1.9453
  373SOL     OW 1117   2.657   1.216   0.637  0.3736  0.0260  0.5126
  373SOL    HW1 1118   2.736   1.240   0.698 -0.1379 -3.0482 -1.1817
  373SOL    HW2 1119   2.570   1.255   0.676  1.3757 -0.7586 -0.2784
  374SOL     OW 1120   0.441   2.336   0.081  0.1182 -0.1720  0.2456
  374SOL    HW1 1121   0.463   2.244   0.110 -1.2208  2.8726  0.0825
  374SOL    HW2 1122   0.524   2.394   0.093 -1.1811 -0.7598 -0.7118
  375SOL     OW 1123   0.711   0.218   0.091 -0.4156 -0.5566 -0.0350
  375SOL    HW1 1124   0.711   0.243   3.086  1.8290 -1.2019  3.2928
  375SOL    HW2 1125   0.667   0.125   0.093  2.0638 -0.3997 -1.2382
  376SOL     OW 1126   0.284   3.014   2.103  0.4500  0.2248  0.2122
  376SOL    HW1 1127   0.218   3.083   2.074  2.9560  0.0219  1.2785
  376SOL    HW2 1128   0.377   3.041   2.077  0.0951 -0.0840  2.1643
  377SOL     OW 1129   0.537   1.856   2.140  0.2380 -0.0722 -0.3302
  377SOL    HW1 1130   0.497   1.868   2.233  1.0244 -2.2385 -1.7180
  377SOL    HW2 1131   0.636   1.827   2.146  1.8448 -2.1445 -0.0437
  378SOL     OW 1132   1.332   0.906   0.513  0.2112 -0.0011  0.4744
  378SOL    HW1 1133   1.338   0.882   0.417  1.1135 -1.7867  3.8753
  378SOL    HW2 1134   1.365   0.826   0.564 -1.9125  0.1881 -1.1733
  379SOL     OW 1135   1.166   1.403   0.137  0.2613  0.0003 -0.4733
  379SOL    HW1 1136   1.104   1.341   0.189 -1.5118  1.7986 -0.5306
  379SOL    HW2 1137   1.256   1.426   0.179 -1.9542  2.5722 -1.4224
  380SOL     OW 1138   2.832   2.223   1.992 -0.0726 -0.2137 -0.1922
  380SOL    HW1 1139   2.891   2.162   2.049  2.7047 -1.4538  1.4012
  380SOL    HW2 1140   2.783   2.282   2.055  2.5476 -2.8546  0.9366
  381SOL     OW 1141   0.346   0.681   1.756 -0.5294 -0.2720  0.0530
  381SOL    HW1 1142   0.395   0.770   1.742  0.4826 -2.3686  2.3117
  381SOL    HW2 1143   0.291   0.674   1.843 -1.4606  2.3524 -0.1477
  382SOL     OW 1144   2.729   2.180   2.921  0.1325 -0.3029 -0.2689
  382SOL    HW1 1145   2.806   2.220   2.862 -0.7284  2.3051 -1.5230
  382SOL    HW2 1146   2.696   2.243   2.994  1.8793  1.1184  0.3763
  383SOL     OW 1147   2.138   1.801   2.214 -0.2169 -0.1081  0.3887
  383SOL    HW1 1148   2.229   1.773   2.180 -1.8000 -0.2333 -1.2361
  383SOL    HW2 1149   2.063   1.736   2.187 -0.3077 -0.1824 -2.8511
  384SOL     OW 1150   0.642   2.217   2.295 -0.7378  0.1651 -0.7360
  384SOL    HW1 1151   0.608   2.285   2.231 -3.0560 -4.2359  1.9088
  384SOL    HW2 1152   0.585   2.202   2.376  1.0482 -3.7876  1.1161
  385SOL     OW 1153   2.635   2.220   0.793  0.1412  0.9040  0.1207
  385SOL    HW1 1154   2.711   2.228   0.857 -1.1659 -3.1352 -1.4523
  385SOL    HW2 1155   2.591   2.306   0.769 -0.6787  1.2611 -2.5304
  386SOL     OW 1156   1.671   0.866   0.014  0.0770 -0.2446 -0.5546
  386SOL    HW1 1157   1.661   0.851   0.114  0.2543  0.5086 -0.1011
  386SOL    HW2 1158   1.767   0.885   3.079 -1.9760 -0.5712  2.0554
  387SOL     OW 1159   0.475   0.918   1.637  0.2752 -0.3038 -0.2528
  387SOL    HW1 1160   0.505   0.856   1.566 -0.8627  0.3054 -1.0935
  387SOL    HW2 1161   0.542   0.993   1.650 -1.5708  0.8568 -1.1755
  388SOL     OW 1162   2.920   0.927   1.490  0.3197 -0.7264  0.4459
  388SOL    HW1 1163   2.912   0.840   1.544 -0.0876 -0.0183  2.4422
  388SOL    HW2 1164   2.882   1.006   1.543  2.4063 -0.4711  1.3077
  389SOL     OW 1165   1.835   1.081   2.478  0.1141 -0.4498  0.1620
  389SOL    HW1 1166   1.752   1.105   2.528 -1.2697  1.0259 -3.7793
  389SOL    HW2 1167   1.870   1.169   2.441 -1.9689  0.1893 -0.9918
  390SOL     OW 1168   2.163   2.123   0.513  0.4480  0.2895  0.2004
  390SOL    HW1 1169   2.156   2.136   0.617  0.7162  1.9757  1.0392
  390SOL    HW2 1170   2.262   2.127   0.485  2.5811  0.4638  0.1617
  391SOL     OW 1171   1.322   2.696   0.876  0.2306 -0.0213  0.1729
  391SOL    HW1 1172   1.313   2.736   0.782  0.0660  0.6127  0.0368
  391SOL    HW2 1173   1.356   2.602   0.876  2.4931  1.2342  0.9999
  392SOL     OW 1174   2.564   3.051   1.502 -0.2543 -0.1866 -0.4768
  392SOL    HW1 1175   2.604   2.959   1.489 -0.6116  0.3057  1.9377
  392SOL    HW2 1176   2.546   0.002   1.418  0.0006 -1.2027  0.8262
  393SOL     OW 1177   1.920   2.091   2.825  0.0642 -0.0813  0.2945
  393SOL    HW1 1178   1.919   2.176   2.879 -0.8559 -2.5218 -0.1351
  393SOL    HW2 1179   1.971   2.024   2.880  0.3847 -0.8413 -1.8016
  394SOL     OW 1180   0.550   2.631   2.768 -0.3158 -0.1763  0.3286
  394SOL    HW1 1181   0.503   2.599   2.855 -1.9767  2.2047  1.7985
  394SOL    HW2 1182   0.653   2.614   2.770  0.7851  0.6784  2.0249
  395SOL     OW 1183   0.580   1.136   1.004 -0.2608 -0.2549 -0.1986
  395SOL    HW1 1184   0.501   1.121   0.941 -0.9600  1.9115 -1.5244
  395SOL    HW2 1185   0.546   1.210   1.065 -2.6003  0.6484 -0.9378
  396SOL     OW 1186   1.963   1.306   2.355 -0.0511 -0.0115  0.1478
  396SOL    HW1 1187   2.002   1.261   2.271  0.6284 -1.3459 -3.0773
  396SOL    HW2 1188   2.032   1.374   2.391  0.4211  1.3026  1.9400
  397SOL     OW 1189   2.896   0.791   2.794 -0.0714 -0.0639 -0.3487
  397SOL    HW1 1190   2.821   0.756   2.728  0.4359 -1.5447 -0.7668
  397SOL    HW2 1191   2.988   0.781   2.756 -1.2770  2.5834  0.9302
  398SOL     OW 1192   1.349   0.441   0.354 -0.0963 -0.1752  0.4482
  398SOL    HW1 1193   1.430   0.387   0.377 -0.2144  2.2733 -0.5687
  398SOL    HW2 1194   1.264   0.391   0.393  0.1579 -0.5981 -1.0102
  399SOL     OW 1195   1.910   2.896   1.711  0.3457 -0.2457 -0.6947
  399SOL    HW1 1196   1.823   2.941   1.734 -1.2658 -0.7912  2.6289
  399SOL    HW2 1197   1.970   2.881   1.794 -1.8552 -1.7059  3.5820
  400SOL     OW 1198   3.070   2.521   2.096  0.1280 -0.3904  0.2215
  400SOL    HW1 1199   0.004   2.441   2.038 -0.6027 -0.4291 -2.4653
  400SOL    HW2 1200   0.055   2.584   2.115  0.8513 -0.6525  1.4250
  401SOL     OW 1201   0.569   3.062   0.131 -0.3649  0.0860 -0.3423
  401SOL    HW1 1202   0.478   3.088   0.167 -0.6392 -1.6549  1.8494
  401SOL    HW2 1203   0.552   2.994   0.060  0.0540  1.3391  0.0312
  402SOL     OW 1204   0.386   2.501   1.582 -0.3979  0.0585  0.1250
  402SOL    HW1 1205   0.429   2.410   1.592 -3.4323  1.2600 -0.1340
  402SOL    HW2 1206   0.285   2.497   1.574 -1.5809  0.5074  0.4782
  403SOL     OW 1207   0.278   1.067   1.733 -0.2707 -0.0730 -0.0158
  403SOL    HW1 1208   0.191   1.014   1.735  2.2932 -1.2843  0.4345
  403SOL    HW2 1209   0.356   1.008   1.703  0.6555 -0.6976 -2.3558
  404SOL     OW 1210   2.840   2.516   1.957 -0.0594 -0.2009  0.2824
  404SOL    HW1 1211   2.907   2.547   2.026 -0.1251 -0.1047  2.1099
  404SOL    HW2 1212   2.829   2.589   1.890 -0.6292  0.3598  1.8004
  405SOL     OW 1213   2.569   0.280   2.587 -0.1873  0.0591 -0.0333
  405SOL    HW1 1214   2.533   0.203   2.646 -1.5297 -2.4786  0.1998
  405SOL    HW2 1215   2.584   0.243   2.494  3.0592 -0.9129  1.9556
  406SOL     OW 1216   1.916   2.607   0.256 -0.2436  0.3831  0.4883
  406SOL    HW1 1217   1.976   2.527   0.241  0.7589 -0.7404 -0.9755
  406SOL    HW2 1218   1.843   2.593   0.326 -2.2826  0.7576  1.3212
  407SOL     OW 1219   2.009   1.524   0.325 -0.0967  0.0715  0.0467
  407SOL    HW1 1220   2.026   1.516   0.427  0.6127 -0.1265 -2.4077
  407SOL    HW2 1221   2.057   1.608   0.288 -1.7945  0.5056  1.5423
  408SOL     OW 1222   0.457   0.450   2.171 -0.2306 -0.1958 -0.0562
  408SOL    HW1 1223   0.410   0.399   2.094 -3.0927 -1.3655 -0.3223
  408SOL    HW2 1224   0.526   0.394   2.224 -0.3301 -0.2710  1.5539
  409SOL     OW 1225   2.902   1.609   0.413  0.1304  0.2798 -0.3968
  409SOL    HW1 1226   2.810   1.639   0.393  2.0409 -0.1915  1.2843
  409SOL    HW2 1227   2.963   1.678   0.374  0.7321  3.5041  1.3568
  410SOL     OW 1228   2.116   1.578   1.150 -0.1481 -0.0281  0.0074
  410SOL    HW1 1229   2.192   1.580   1.216 -1.7391  0.3178  1.1753
  410SOL    HW2 1230   2.040   1.524   1.191 -1.5416  1.6816  0.5135
  411SOL     OW 1231   3.042   0.463   0.359 -0.0616  0.2269  0.1287
  411SOL    HW1 1232   3.001   0.418   0.275  0.5991  0.0888  0.4661
  411SOL    HW2 1233   3.064   0.395   0.432  0.0033  1.3753 -1.6115
  412SOL     OW 1234   1.757   0.566   0.092 -0.7609 -0.0599 -0.0983
  412SOL    HW1 1235   1.680   0.626   0.116  0.1754 -2.7346 -2.4246
  412SOL    HW2 1236   1.790   0.504   0.167 -0.7013 -1.4683  1.9081
  413SOL     OW 1237   1.190   0.327   1.528 -0.3670  0.2584  0.2161
  413SOL    HW1 1238   1.275   0.366   1.570 -0.6578  0.2973  0.9541
  413SOL    HW2 1239   1.175   0.356   1.429 -2.1743 -0.5185  0.1357
  414SOL     OW 1240   0.389   0.977   0.249  0.0021 -0.6315 -0.2105
  414SOL    HW1 1241   0.417   1.050   0.185 -0.2214  0.8165 -1.7872
  414SOL    HW2 1242   0.287   0.965   0.251 -0.9086 -1.2875 -2.0233
  415SOL     OW 1243   0.216   1.557   0.525  0.0816 -0.5469 -0.1686
  415SOL    HW1 1244   0.152   1.634   0.538 -0.1538 -2.2964  0.0094
  415SOL    HW2 1245   0.175   1.476   0.476  0.5484  0.0107  2.3522
  416SOL     OW 1246   1.921   0.900   0.265 -0.5637 -0.5504 -0.2323
  416SOL    HW1 1247   1.841   0.934   0.315  0.7141  0.9079 -0.3083
  416SOL    HW2 1248   1.965   0.809   0.293 -0.5098  2.6541 -0.1209
  417SOL     OW 1249   2.934   0.084   0.453  0.3910 -0.3296  0.0524
  417SOL    HW1 1250   2.967   3.085   0.468 -0.4061  0.7059  0.3007
  417SOL    HW2 1251   2.935   0.110   0.355  3.0475 -0.9528 -0.6716
  418SOL     OW 1252   2.485   1.066   0.046  0.8751 -0.3453  0.2677
  418SOL    HW1 1253   2.538   0.981   0.009  2.0530 -4.1943 -1.3202
  418SOL    HW2 1254   2.389   1.041   0.052  1.5911  2.0363 -2.8525
  419SOL     OW 1255   0.631   0.478   0.161  0.1815  0.2814 -0.3581
  419SOL    HW1 1256   0.529   0.482   0.161 -1.9395 -1.4666  0.9810
  419SOL    HW2 1257   0.673   0.398   0.122  1.4825  1.5279  3.9286
  420SOL     OW 1258   0.544   1.254   0.616 -0.1458 -0.2436  0.0623
  420SOL    HW1 1259   0.636   1.269   0.657  0.6151 -2.1184 -0.3943
  420SOL    HW2 1260   0.470   1.297   0.675 -0.0627  0.4660  3.2677
  421SOL     OW 1261   0.405   1.899   0.112  0.1252 -0.2820  0.0255
  421SOL    HW1 1262   0.390   1.824   0.178  1.0729  1.9116  1.4486
  421SOL    HW2 1263   0.323   1.941   0.073  1.5308  0.0570  2.0782
  422SOL     OW 1264   2.495   0.377   1.736  0.0598  0.0149  0.3498
  422SOL    HW1 1265   2.476   0.297   1.797  0.9016  1.9841  1.4140
  422SOL    HW2 1266   2.500   0.350   1.638 -0.1153  1.6927  0.7820
  423SOL     OW 1267   2.166   1.847   0.475  0.2691  0.7190 -0.1605
  423SOL    HW1 1268   2.126   1.815   0.564 -2.2544 -0.4709 -0.6063
  423SOL    HW2 1269   2.150   1.950   0.469 -0.7626  0.1475 -1.3652
  424SOL     OW 1270   1.902   1.355   2.909  0.1497 -0.1467 -0.2692
  424SOL    HW1 1271   1.938   1.423   2.971 -2.6463 -1.5452 -1.2025
  424SOL    HW2 1272   1.816   1.389   2.867  0.3446  1.2754  1.1135
  425SOL     OW 1273   0.243   2.893   2.368 -0.0775 -0.2981  0.4997
  425SOL    HW1 1274   0.323   2.918   2.427  1.1684  0.3059 -0.0883
  425SOL    HW2 1275   0.268   2.906   2.268  5.3448 -1.7868  0.2771
  426SOL     OW 1276   2.224   2.850   2.721 -0.9425 -0.2329 -0.0696
  426SOL    HW1 1277   2.275   2.928   2.758  2.0007 -2.1378 -2.2994
  426SOL    HW2 1278   2.154   2.891   2.659 -0.0065 -0.3693  2.1734
  427SOL     OW 1279   0.575   1.037   2.071  0.1140  0.2681  0.0502
  427SOL    HW1 1280   0.640   0.984   2.017 -3.0850 -0.8437  0.4921
  427SOL    HW2 1281   0.612   1.128   2.099  4.6676 -1.7449  0.7344
  428SOL     OW 1282   2.365   1.555   2.274 -0.2655  0.0085 -0.0122
  428SOL    HW1 1283   2.372   1.458   2.248 -0.5475 -2.1753  1.3814
  428SOL    HW2 1284   2.343   1.605   2.190 -0.8250 -1.1683  2.6004
  429SOL     OW 1285   2.419   0.258   0.650  1.1011 -0.5877 -0.4037
  429SOL    HW1 1286   2.381   0.260   0.551 -2.0203 -1.4734 -1.7054
  429SOL    HW2 1287   2.444   0.160   0.671  0.2828  2.1437 -0.6567
  430SOL     OW 1288   1.714   1.470   2.433 -0.1029 -0.1421 -0.0709
  430SOL    HW1 1289   1.806   1.429   2.438  3.2056  0.2934 -0.6869
  430SOL    HW2 1290   1.661   1.433   2.356  0.9592  1.2463  0.7476
  431SOL     OW 1291   2.942   2.071   1.719  0.4506 -0.3215  0.5224
  431SOL    HW1 1292   2.920   1.999   1.646  0.8343 -0.7956 -0.8461
  431SOL    HW2 1293   2.902   2.159   1.693 -0.8944 -1.5727  1.9559
  432SOL     OW 1294   0.780   2.634   1.956 -0.4220 -0.2263 -0.1253
  432SOL    HW1 1295   0.704   2.626   1.886  1.3339 -0.6761  2.3802
  432SOL    HW2 1296   0.765   2.723   2.007 -1.2020 -0.2875  0.3678
  433SOL     OW 1297   1.549   2.898   0.919  0.4106  0.0489  0.0998
  433SOL    HW1 1298   1.566   2.894   0.823  0.1105 -0.5168  2.8373
  433SOL    HW2 1299   1.475   2.834   0.951  0.7163 -0.4116 -2.1189
  434SOL     OW 1300   0.565   2.286   1.860  0.3880 -0.1899 -0.0013
  434SOL    HW1 1301   0.635   2.288   1.791 -0.5288 -0.5229  1.2266
  434SOL    HW2 1302   0.530   2.191   1.886 -0.9738  0.2232  0.3477
  435SOL     OW 1303   0.467   1.681   0.567  0.1160 -0.4660 -0.1526
  435SOL    HW1 1304   0.506   1.698   0.477  0.5038 -0.1620  1.1805
  435SOL    HW2 1305   0.381   1.621   0.568 -2.5238  0.8540  0.5827
  436SOL     OW 1306   0.180   1.480   1.709  0.0642 -0.1451  0.6550
  436SOL    HW1 1307   0.159   1.569   1.746 -1.7320 -2.4068 -0.8601
  436SOL    HW2 1308   0.130   1.454   1.628 -1.9136 -0.9435 -1.2673
  437SOL     OW 1309   1.245   0.620   0.182  0.7181  0.3855 -0.0474
  437SOL    HW1 1310   1.280   0.553   0.250 -1.3815  3.5717 -0.0486
  437SOL    HW2 1311   1.235   0.716   0.220  0.7882  1.9822  1.1125
  438SOL     OW 1312   0.498   1.781   1.280  0.2259  0.3495 -0.1266
  438SOL    HW1 1313   0.421   1.841   1.255 -3.3412  0.2692  0.1624
  438SOL    HW2 1314   0.491   1.752   1.378  0.4104 -0.8928  0.9055
  439SOL     OW 1315   1.533   1.688   2.606 -0.0251  0.1443  0.1484
  439SOL    HW1 1316   1.626   1.723   2.587  0.4924  1.8451  2.0627
  439SOL    HW2 1317   1.492   1.624   2.537  1.2359  1.3486  1.7364
  440SOL     OW 1318   1.535   0.459   0.981 -0.0474  0.4824 -0.0721
  440SOL    HW1 1319   1.510   0.557   0.976  2.7762  0.3206 -0.9740
  440SOL    HW2 1320   1.629   0.440   0.945 -0.6016  0.6181  0.7432
  441SOL     OW 1321   0.552   2.662   1.460 -0.0975  0.1887 -0.5687
  441SOL    HW1 1322   0.484   2.597   1.504 -0.5410 -1.0358  2.1587
  441SOL    HW2 1323   0.560   2.753   1.508  1.2968  0.4787 -2.5120
  442SOL     OW 1324   2.329   2.392   0.850  0.7240 -0.4689  0.2236
  442SOL    HW1 1325   2.407   2.429   0.789  0.1356 -2.3887 -1.9242
  442SOL    HW2 1326   2.238   2.415   0.815 -0.5690  2.5643 -0.1260
  443SOL     OW 1327   2.802   0.641   2.258  0.9543  0.3172  0.0385
  443SOL    HW1 1328   2.719   0.631   2.316  1.9373  0.8432  1.5392
  443SOL    HW2 1329   2.879   0.646   2.322 -0.5873  0.1502  0.6149
  444SOL     OW 1330   1.470   0.772   2.331 -0.1296  0.3387 -0.4714
  444SOL    HW1 1331   1.548   0.720   2.291  0.5887 -2.2851  0.3477
  444SOL    HW2 1332   1.383   0.721   2.327  1.7877 -1.4144  1.3302
  445SOL     OW 1333   2.711   2.343   1.118  0.4906 -0.7762 -0.2706
  445SOL    HW1 1334   2.718   2.389   1.206 -0.0147  0.6531 -3.4162
  445SOL    HW2 1335   2.611   2.318   1.102 -0.8361 -0.5932  0.7106
  446SOL     OW 1336   0.111   1.185   0.614  0.2628  0.6229  0.1911
  446SOL    HW1 1337   0.077   1.095   0.587 -2.3647 -1.2974 -1.3926
  446SOL    HW2 1338   0.096   1.250   0.539  0.1694 -1.3908 -2.0696
  447SOL     OW 1339   0.635   2.110   0.778  0.2209 -0.0831 -0.4396
  447SOL    HW1 1340   0.611   2.182   0.844 -0.1920 -2.0723  1.5225
  447SOL    HW2 1341   0.552   2.071   0.728 -2.0734  0.2427 -1.7180
  448SOL     OW 1342   1.610   1.486   1.517  0.4534 -0.1047  0.0258
  448SOL    HW1 1343   1.596   1.485   1.618  0.4607  0.6903 -0.1315
  448SOL    HW2 1344   1.522   1.481   1.464  1.2013 -0.9962  0.8791
  449SOL     OW 1345   0.562   1.691   2.828  0.0593 -0.0683  0.0684
  449SOL    HW1 1346   0.574   1.591   2.858 -0.4791  1.7658  1.0066
  449SOL    HW2 1347   0.595   1.749   2.905  0.4243  0.4722  2.2744
  450SOL     OW 1348   2.547   2.211   1.920 -0.5408  0.2471 -0.3193
  450SOL    HW1 1349   2.475   2.204   1.989 -0.0769  0.1684  0.3973
  450SOL    HW2 1350   2.627   2.153   1.945  0.5778  0.2003  0.0058
  451SOL     OW 1351   2.300   0.510   1.871 -0.0252 -0.0659  0.1764
  451SOL    HW1 1352   2.372   0.457   1.816 -0.8497 -2.9686  0.8938
  451SOL    HW2 1353   2.299   0.604   1.840 -0.0148 -1.4196  1.5587
  452SOL     OW 1354   0.859   2.594   1.111  0.0214 -0.3650  0.1075
  452SOL    HW1 1355   0.824   2.637   1.200  0.2587  0.5623  1.3953
  452SOL    HW2 1356   0.962   2.608   1.109 -1.3695 -0.9049 -1.7379
  453SOL     OW 1357   0.949   1.407   0.970  0.0443  0.4357 -0.1906
  453SOL    HW1 1358   0.897   1.377   0.887 -2.1127 -1.8768 -1.3928
  453SOL    HW2 1359   0.921   1.495   1.005 -2.4241 -1.1958 -2.1498
  454SOL     OW 1360   2.810   1.207   0.896 -0.2467 -0.4123 -0.3037
  454SOL    HW1 1361   2.915   1.200   0.881 -0.2273  0.7454  0.2369
  454SOL    HW2 1362   2.783   1.292   0.942 -1.5992 -2.4244  1.3398
  455SOL     OW 1363   0.253   0.160   0.413 -0.5681 -0.0239 -0.2881
  455SOL    HW1 1364   0.157   0.184   0.433  1.8172 -0.7320 -3.7122
  455SOL    HW2 1365   0.310   0.242   0.410  1.5535 -0.7310  0.9562
  456SOL     OW 1366   2.173   2.472   0.367 -0.4554  0.1127  0.5305
  456SOL    HW1 1367   2.160   2.564   0.397 -0.4298 -3.3896  0.2864
  456SOL    HW2 1368   2.099   2.414   0.401  0.1134 -1.3855 -0.9309
  457SOL     OW 1369   1.136   2.755   0.100  0.2927  0.4722  0.0694
  457SOL    HW1 1370   1.207   2.824   0.081 -1.4490  0.4486  0.7442
  457SOL    HW2 1371   1.154   2.671   0.046 -0.8742 -1.0557 -1.0353
  458SOL     OW 1372   2.780   2.847   0.241 -0.0854  0.7944  0.4470
  458SOL    HW1 1373   2.770   2.815   0.143 -0.7538  1.9564  3.3495
  458SOL    HW2 1374   2.770   2.950   0.242 -2.1365  0.7794  0.6680
  459SOL     OW 1375   2.490   0.558   2.075 -0.4096  0.3845 -0.1073
  459SOL    HW1 1376   2.428   0.567   2.154  3.7418 -0.6043 -0.2481
  459SOL    HW2 1377   2.440   0.536   1.990 -1.9133 -1.0985 -1.9293
  460SOL     OW 1378   2.970   0.404   0.101  0.1275 -0.4721  0.1708
  460SOL    HW1 1379   3.053   0.453   0.067  0.9297 -1.0294  1.1835
  460SOL    HW2 1380   2.881   0.452   0.083 -0.3392  0.1470  0.4711
  461SOL     OW 1381   0.107   1.986   1.458  1.1114 -0.1031  0.0351
  461SOL    HW1 1382   0.016   1.932   1.451 -3.3100 -0.7091  0.2085
  461SOL    HW2 1383   0.160   1.988   1.373  0.4681 -1.2990 -2.0751
  462SOL     OW 1384   2.774   3.007   0.990 -0.2865 -0.1501  0.3825
  462SOL    HW1 1385   2.775   3.086   0.929 -2.2553 -0.2801  1.7764
  462SOL    HW2 1386   2.729   3.040   1.075  0.9030  1.0556 -1.2775
  463SOL     OW 1387   2.898   1.082   0.099  0.1023 -0.9946  0.1392
  463SOL    HW1 1388   2.929   1.171   0.141 -0.0995  3.7657 -1.5171
  463SOL    HW2 1389   2.925   1.072   0.001 -0.3632 -0.3363  0.4667
  464SOL     OW 1390   0.533   2.584   1.041 -0.3386  0.2244  0.0708
  464SOL    HW1 1391   0.480   2.611   1.125  0.0648  0.6517  3.6722
  464SOL    HW2 1392   0.632   2.595   1.063 -0.7228  1.0611  1.1471
  465SOL     OW 1393   0.881   0.612   1.177  0.2458  0.1886  0.9022
  465SOL    HW1 1394   0.981   0.603   1.142  3.8426 -1.8021  0.5405
  465SOL    HW2 1395   0.808   0.620   1.103  1.0500  0.5755  0.6621
  466SOL     OW 1396   1.429   2.620   2.270  0.2252  0.8132  0.2829
  466SOL    HW1 1397   1.500   2.563   2.222 -0.3915 -1.3637  1.4331
  466SOL    HW2 1398   1.439   2.720   2.255 -3.9740  0.6960  1.0720
  467SOL     OW 1399   0.954   0.249   1.891  0.2674 -0.1759 -0.2187
  467SOL    HW1 1400   0.955   0.315   1.965 -3.9813 -2.1280 -2.4007
  467SOL    HW2 1401   1.048   0.201   1.883  0.3923 -1.6662  0.9767
  468SOL     OW 1402   0.248   0.907   2.294  0.1519 -0.2661  0.6496
  468SOL    HW1 1403   0.218   0.973   2.221  0.9037 -2.3759  1.4770
  468SOL    HW2 1404   0.223   0.810   2.271 -2.0989 -1.6839  0.7375
  469SOL     OW 1405   0.790   2.288   0.620  0.0439 -0.5719  0.3281
  469SOL    HW1 1406   0.824   2.366   0.677 -0.6821 -0.5083  1.2120
  469SOL    HW2 1407   0.752   2.216   0.679  1.8848 -1.5586 -2.7361
  470SOL     OW 1408   2.611   1.888   2.051 -0.4147 -0.2078 -0.9106
  470SOL    HW1 1409   2.535   1.829   2.078 -1.0139 -0.1962 -1.0910
  470SOL    HW2 1410   2.683   1.841   1.992  2.7419  0.8573 -0.2496
  471SOL     OW 1411   1.140   2.991   2.844 -0.5662 -0.1934 -0.2168
  471SOL    HW1 1412   1.107   2.991   2.942 -0.9067  1.2839  2.0380
  471SOL    HW2 1413   1.211   3.063   2.824  2.1322  1.7933 -0.3296
  472SOL     OW 1414   0.374   2.700   1.834  0.1748  0.3450 -0.2858
  472SOL    HW1 1415   0.394   2.677   1.933  2.3147 -0.5048  1.9283
  472SOL    HW2 1416   0.364   2.615   1.780  1.3253  0.4372  0.6330
  473SOL     OW 1417   0.935   3.064   2.659 -0.4992 -0.1270 -0.0599
  473SOL    HW1 1418   1.014   3.026   2.711  1.3197 -1.1151  1.9570
  473SOL    HW2 1419   0.846   3.043   2.702  0.1068 -2.4193  2.7726
  474SOL     OW 1420   1.837   0.111   0.963 -0.0724  0.4179  0.6843
  474SOL    HW1 1421   1.856   0.118   1.064 -0.8756 -1.1228  2.4901
  474SOL    HW2 1422   1.798   0.203   0.935  2.0505  0.6156 -0.2022
  475SOL     OW 1423   1.726   0.295   1.301 -0.4044  0.2888  0.0449
  475SOL    HW1 1424   1.647   0.253   1.251 -2.9691  0.0527  0.5618
  475SOL    HW2 1425   1.779   0.362   1.242  0.7187  1.6413  2.2484
  476SOL     OW 1426   0.348   1.081   0.854 -0.0240 -0.1876 -0.3020
  476SOL    HW1 1427   0.282   1.019   0.903  1.2688  1.4711 -0.9584
  476SOL    HW2 1428   0.293   1.137   0.786 -0.3525  1.3655 -1.9633
  477SOL     OW 1429   1.127   2.397   0.702 -0.4373  0.4950 -0.0414
  477SOL    HW1 1430   1.103   2.426   0.607  0.8765 -0.6023  1.8256
  477SOL    HW2 1431   1.131   2.478   0.761  0.9248 -0.0897 -2.4256
  478SOL     OW 1432   3.002   2.459   2.345 -0.3945  0.0866 -0.6615
  478SOL    HW1 1433   3.076   2.490   2.410  0.7402  0.8062 -2.8154
  478SOL    HW2 1434   3.018   2.493   2.250 -0.1283 -0.7493  2.1775
  479SOL     OW 1435   2.648   0.559   1.104  0.9759  0.0838  0.4570
  479SOL    HW1 1436   2.744   0.581   1.089  1.4628 -1.1242  3.7070
  479SOL    HW2 1437   2.585   0.610   1.049  0.8764 -0.9185 -0.5908
  480SOL     OW 1438   0.044   2.581   0.046  0.0888  0.3295 -0.2143
  480SOL    HW1 1439   3.085   2.500   0.086 -0.9017 -0.2751  1.8230
  480SOL    HW2 1440   0.029   2.670   0.097 -0.2256  2.3370 -0.1636
  481SOL     OW 1441   2.336   2.019   1.579 -0.0253 -0.5540  0.3115
  481SOL    HW1 1442   2.311   1.996   1.678  0.8851  3.5814  2.7937
  481SOL    HW2 1443   2.248   2.055   1.531 -0.8666  1.2132 -0.9134
  482SOL     OW 1444   1.487   2.285   2.710 -0.2616  0.1681  0.2179
  482SOL    HW1 1445   1.530   2.356   2.766 -0.3092 -2.1890  0.4316
  482SOL    HW2 1446   1.474   2.318   2.614 -0.2105  2.0559  1.3672
  483SOL     OW 1447   0.820   1.546   1.618 -0.1662 -0.6208 -0.4719
  483SOL    HW1 1448   0.778   1.629   1.574 -0.3039 -0.0398 -0.6171
  483SOL    HW2 1449   0.746   1.484   1.651  1.0563 -0.9705 -3.8236
  484SOL     OW 1450   0.454   0.461   1.356  0.0028  0.4417 -0.1399
  484SOL    HW1 1451   0.510   0.547   1.351 -0.3698 -0.8837 -1.3933
  484SOL    HW2 1452   0.481   0.385   1.286  1.4002 -0.7373  0.8403
  485SOL     OW 1453   2.276   1.174   2.937 -0.1301  0.4382 -0.0056
  485SOL    HW1 1454   2.196   1.166   2.875 -0.5197 -0.1144 -1.5194
  485SOL    HW2 1455   2.356   1.115   2.902 -0.0987 -1.8200  0.7363
  486SOL     OW 1456   1.609   3.030   1.651 -0.0344  0.2515  0.3318
  486SOL    HW1 1457   1.639   0.023   1.693 -0.3007  1.0860 -2.2206
  486SOL    HW2 1458   1.510   3.019   1.668  0.0086  0.0971 -2.2896
  487SOL     OW 1459   0.417   2.219   1.589  0.6541  0.2756 -0.5816
  487SOL    HW1 1460   0.492   2.154   1.610  0.4757  1.4000  1.1564
  487SOL    HW2 1461   0.404   2.230   1.488 -0.6304 -0.3244 -2.4934
  488SOL     OW 1462   2.407   2.355   2.924  0.0673 -0.0364 -0.2721
  488SOL    HW1 1463   2.347   2.275   2.942 -1.9549 -0.7852 -0.4012
  488SOL    HW2 1464   2.480   2.352   2.994  1.2654  0.6410  0.0309
  489SOL     OW 1465   2.010   3.033   0.637 -0.5100  0.1741 -0.0060
  489SOL    HW1 1466   1.976   2.936   0.628  0.4701 -1.8066  0.1337
  489SOL    HW2 1467   2.058   3.067   0.554 -0.4702  0.7024 -1.7373
  490SOL     OW 1468   1.054   2.223   2.841  0.5407  0.1486 -0.1637
  490SOL    HW1 1469   1.118   2.180   2.778 -1.5123  0.3110 -0.2990
  490SOL    HW2 1470   1.100   2.244   2.930  0.4544 -1.3110  2.5686
  491SOL     OW 1471   0.530   1.459   1.416 -0.4121  0.8113 -0.1014
  491SOL    HW1 1472   0.496   1.535   1.472  0.0986  4.2351  0.8692
  491SOL    HW2 1473   0.624   1.476   1.388  0.9522 -0.7328 -0.1065
  492SOL     OW 1474   1.229   1.244   1.896  0.1848 -0.1687  0.2670
  492SOL    HW1 1475   1.142   1.191   1.905  1.8546  1.4739 -0.6745
  492SOL    HW2 1476   1.253   1.250   1.799  0.2681  4.9090 -1.0631
  493SOL     OW 1477   2.566   1.851   1.001  0.1196  0.2514 -0.4709
  493SOL    HW1 1478   2.528   1.930   1.052  1.4917  1.1553 -1.4977
  493SOL    HW2 1479   2.663   1.865   0.967  0.8214 -1.7787 -1.9923
  494SOL     OW 1480   0.125   2.002   1.041 -0.3021  0.0578  0.0935
  494SOL    HW1 1481   0.076   2.054   0.968 -0.5481 -0.5027  0.4055
  494SOL    HW2 1482   0.064   1.948   1.106  1.5265 -0.1194  0.1959
  495SOL     OW 1483   2.266   2.736   0.772  0.1626  0.1066  0.3806
  495SOL    HW1 1484   2.364   2.723   0.754 -0.4348 -0.3026  2.1282
  495SOL    HW2 1485   2.240   2.703   0.867  0.7583  1.0532  1.0538
  496SOL     OW 1486   2.336   0.143   1.357 -0.1211 -0.3479 -0.2114
  496SOL    HW1 1487   2.289   0.060   1.323  0.0799  1.4005 -0.5198
  496SOL    HW2 1488   2.315   0.157   1.456 -0.2236 -0.1986 -1.5336
  497SOL     OW 1489   2.313   0.840   2.661 -0.1173  0.1832 -0.3862
  497SOL    HW1 1490   2.233   0.861   2.604 -0.2756  4.2337 -0.7312
  497SOL    HW2 1491   2.373   0.916   2.675  1.4725 -2.5985  0.2682
  498SOL     OW 1492   0.036   2.302   1.588  0.7025  0.1560  0.4507
  498SOL    HW1 1493   0.059   2.205   1.592  1.3538  0.5580 -0.6195
  498SOL    HW2 1494   3.036   2.315   1.620 -1.3568  1.3746  1.4952
  499SOL     OW 1495   0.886   2.136   2.076  0.2262 -0.0957 -0.3824
  499SOL    HW1 1496   0.829   2.170   2.154 -0.0706 -1.2727 -2.2524
  499SOL    HW2 1497   0.933   2.216   2.032 -2.3554 -1.1267  0.1476
  500SOL     OW 1498   1.159   2.021   0.456  0.1517  0.7390 -0.5857
  500SOL    HW1 1499   1.095   2.099   0.429 -4.3580  0.6316  2.5843
  500SOL    HW2 1500   1.124   1.936   0.423 -0.5411 -0.0469  2.6058
  501SOL     OW 1501   1.730   3.039   1.380  0.5980 -0.1135  0.2811
  501SOL    HW1 1502   1.691   3.052   1.288  0.5855 -1.4668  0.1455
  501SOL    HW2 1503   1.656   3.020   1.447 -1.5734  0.4740  2.8096
  502SOL     OW 1504   2.655   0.601   1.787 -0.3851  0.7572 -0.2774
  502SOL    HW1 1505   2.705   0.597   1.880  0.6583 -1.6297  2.9123
  502SOL    HW2 1506   2.589   0.517   1.788  1.1293  0.8456 -0.4670
  503SOL     OW 1507   2.716   1.384   2.276 -0.0903 -0.0044 -0.4010
  503SOL    HW1 1508   2.727   1.484   2.250  2.4678  0.3256  0.4568
  503SOL    HW2 1509   2.670   1.339   2.196  1.5882  3.2000  0.4014
  504SOL     OW 1510   1.666   0.915   1.563 -0.5433 -0.1978 -0.5062
  504SOL    HW1 1511   1.716   0.837   1.606 -0.0398 -1.2998 -0.6740
  504SOL    HW2 1512   1.626   0.891   1.472  0.7874 -0.2732  1.6572
  505SOL     OW 1513   0.533   2.923   1.559 -0.2302  0.1615  0.3101
  505SOL    HW1 1514   0.610   2.948   1.622  1.8004 -0.9215  1.4632
  505SOL    HW2 1515   0.477   3.000   1.508 -2.4338 -0.6718 -0.9705
  506SOL     OW 1516   2.991   0.140   0.195  0.3565  0.1015  0.1281
  506SOL    HW1 1517   2.942   0.226   0.168 -0.4123  0.0568 -0.3691
  506SOL    HW2 1518   3.064   0.126   0.124 -0.0178  0.3907  1.8087
  507SOL     OW 1519   2.797   2.554   3.045  0.1547  0.3471  0.1156
  507SOL    HW1 1520   2.811   2.524   2.946 -2.2284 -1.1891  0.0517
  507SOL    HW2 1521   2.837   2.489   0.016 -2.6557  0.9072  0.5361
  508SOL     OW 1522   1.280   0.444   1.921 -0.1535 -0.0683 -0.6198
  508SOL    HW1 1523   1.177   0.443   1.937 -2.1402  0.2927  2.8233
  508SOL    HW2 1524   1.330   0.387   1.989 -1.4106  2.3120 -0.2193
  509SOL     OW 1525   1.771   1.798   1.210 -0.4005  0.3764 -0.0289
  509SOL    HW1 1526   1.749   1.773   1.304  2.2632 -1.6569 -0.2956
  509SOL    HW2 1527   1.689   1.825   1.152  0.4186  0.1971  1.1128
  510SOL     OW 1528   2.577   0.897   1.463  0.5558 -0.2254  0.4012
  510SOL    HW1 1529   2.523   0.825   1.510  1.9985  1.2119 -1.2943
  510SOL    HW2 1530   2.578   0.976   1.525  0.4544 -1.8465  0.5876
  511SOL     OW 1531   1.366   1.972   1.241  0.5851  0.5202 -0.3531
  511SOL    HW1 1532   1.281   2.012   1.206  2.3385  1.3626  0.1686
  511SOL    HW2 1533   1.360   1.959   1.342 -0.2215  0.0780  2.9009
  512SOL     OW 1534   3.016   1.553   0.666 -0.0618  0.2300  0.4473
  512SOL    HW1 1535   2.962   1.556   0.581 -0.2052 -0.6439  1.1272
  512SOL    HW2 1536   3.073   1.635   0.664 -0.2233 -2.6872  1.4457
  513SOL     OW 1537   0.119   1.310   0.122  0.4043 -0.7822  0.5385
  513SOL    HW1 1538   0.175   1.388   0.090  0.0653 -0.4776  2.2604
  513SOL    HW2 1539   0.075   1.256   0.042 -1.1071  2.7046  1.7105
  514SOL     OW 1540   2.316   2.099   2.091 -0.3595 -0.7035 -0.1378
  514SOL    HW1 1541   2.401   2.073   2.144  1.1135 -0.5303  0.8601
  514SOL    HW2 1542   2.254   2.171   2.134  0.5601  1.2243  1.7962
  515SOL     OW 1543   2.160   1.142   0.646  0.3769  0.8967 -0.0458
  515SOL    HW1 1544   2.078   1.123   0.587  0.4952 -1.5138 -1.4699
  515SOL    HW2 1545   2.239   1.167   0.585  1.5437  0.4073 -3.4027
  516SOL     OW 1546   2.331   2.858   0.054 -0.6117 -0.2679 -0.0367
  516SOL    HW1 1547   2.255   2.833   3.084  1.2954 -2.7371  1.8357
  516SOL    HW2 1548   2.405   2.789   0.050 -1.6083  0.4716  0.8060
  517SOL     OW 1549   0.897   1.417   2.741  0.7311 -0.0242  0.7240
  517SOL    HW1 1550   0.913   1.315   2.753  0.0668 -1.9607  0.3825
  517SOL    HW2 1551   0.918   1.442   2.644  0.2479 -0.8720  1.3371
  518SOL     OW 1552   0.292   0.253   2.020 -0.1805  0.5750  0.1006
  518SOL    HW1 1553   0.360   0.195   2.071  1.1958 -1.0906  1.2687
  518SOL    HW2 1554   0.212   0.195   1.983 -2.2536  2.0107  2.2022
  519SOL     OW 1555   1.054   1.114   0.181 -0.1837 -0.0344 -0.0841
  519SOL    HW1 1556   1.150   1.123   0.159 -1.3341 -0.6629  0.5710
  519SOL    HW2 1557   1.033   1.165   0.267 -1.2231  0.8812  0.6555
  520SOL     OW 1558   2.656   2.382   2.128 -0.1753  0.0822 -0.1658
  520SOL    HW1 1559   2.570   2.341   2.130  2.0411 -0.3332  1.5754
  520SOL    HW2 1560   2.683   2.422   2.040 -1.4708  0.8607  0.7656
  521SOL     OW 1561   0.499   1.983   1.871 -0.0711 -0.7411  0.7864
  521SOL    HW1 1562   0.517   1.934   1.956  0.1054  2.4151 -1.4276
  521SOL    HW2 1563   0.504   1.922   1.788  0.2645  0.1051 -2.0816
  522SOL     OW 1564   1.359   2.878   1.834 -0.2314  0.3598  0.2050
  522SOL    HW1 1565   1.291   2.818   1.876 -1.7512 -1.6375 -0.4176
  522SOL    HW2 1566   1.319   2.918   1.750 -1.6661  0.5794  0.6022
  523SOL     OW 1567   1.868   2.194   1.436  0.1110  0.6809 -0.0490
  523SOL    HW1 1568   1.952   2.149   1.426 -3.2967 -0.2760 -0.0440
  523SOL    HW2 1569   1.868   2.283   1.393 -1.5127 -2.6370  0.9163
  524SOL     OW 1570   0.752   2.458   0.410 -0.0903  0.0682  0.7731
  524SOL    HW1 1571   0.764   2.540   0.471  1.7364 -0.4968 -4.3042
  524SOL    HW2 1572   0.760   2.374   0.464  0.0041  0.4103 -1.8728
  525SOL     OW 1573   2.771   0.251   0.591 -0.0833 -0.0527 -0.0859
  525SOL    HW1 1574   2.829   0.315   0.648 -1.1751  2.1514  2.2927
  525SOL    HW2 1575   2.829   0.187   0.544 -1.3180  0.9744  2.1383
  526SOL     OW 1576   0.978   3.035   0.487  0.0420 -0.2313  0.0202
  526SOL    HW1 1577   0.911   2.981   0.431 -0.1954 -0.4540 -1.0753
  526SOL    HW2 1578   1.003   2.985   0.571  0.9250 -1.8336  1.4946
  527SOL     OW 1579   1.789   1.529   0.980 -0.5248 -0.5732 -0.4446
  527SOL    HW1 1580   1.849   1.461   0.939  1.7881 -1.9197  0.5681
  527SOL    HW2 1581   1.729   1.489   1.047 -0.0633 -1.5414 -0.6884
  528SOL     OW 1582   2.600   2.619   2.564 -0.0431 -0.0835 -0.2234
  528SOL    HW1 1583   2.646   2.622   2.474 -3.1957  1.6887  4.0991
  528SOL    HW2 1584   2.499   2.648   2.560 -2.7940 -0.0283  1.5348
  529SOL     OW 1585   0.986   1.481   2.502  0.4436 -0.4953 -0.9357
  529SOL    HW1 1586   0.912   1.552   2.479 -2.1586 -0.3111  1.5184
  529SOL    HW2 1587   1.023   1.433   2.421  1.8058 -0.2007 -0.1426
  530SOL     OW 1588   1.615   1.096   2.946 -0.3351  0.0595 -0.4212
  530SOL    HW1 1589   1.643   1.017   3.009  5.1421  0.1269  0.6169
  530SOL    HW2 1590   1.670   1.095   2.865  0.4790  0.7775  1.3337
  531SOL     OW 1591   0.312   0.853   0.494  0.4606 -0.6456  0.6478
  531SOL    HW1 1592   0.381   0.866   0.565 -2.7085  2.1829 -1.0302
  531SOL    HW2 1593   0.334   0.888   0.399 -1.6113  0.4104 -1.2343
  532SOL     OW 1594   1.776   1.375   0.760  0.5378 -0.3346  0.1673
  532SOL    HW1 1595   1.788   1.294   0.701  1.7286 -1.0888  2.9121
  532SOL    HW2 1596   1.754   1.456   0.702  0.3132  0.3688  1.0206
  533SOL     OW 1597   0.579   0.339   2.400  0.0679  0.4380  0.1672
  533SOL    HW1 1598   0.553   0.240   2.415  2.7752  0.2846 -0.2110
  533SOL    HW2 1599   0.645   0.364   2.474  0.6406 -0.4405  2.4055
  534SOL     OW 1600   0.699   2.983   2.829  0.6764  0.2931  0.2000
  534SOL    HW1 1601   0.718   2.915   2.900  0.6583  2.0951 -0.7929
  534SOL    HW2 1602   0.598   2.982   2.811  0.1053  1.6639  1.8527
  535SOL     OW 1603   0.404   0.298   0.036  0.6904 -0.5436  0.2145
  535SOL    HW1 1604   0.349   0.381   0.065  0.5924  1.1363 -0.7071
  535SOL    HW2 1605   0.389   0.225   0.103  1.2352  0.0717  1.4686
  536SOL     OW 1606   0.506   0.894   2.401 -0.2231 -0.2724 -0.0876
  536SOL    HW1 1607   0.411   0.909   2.373 -0.2104 -0.8239  1.3629
  536SOL    HW2 1608   0.557   0.866   2.322  0.0763 -1.2603  0.4600
  537SOL     OW 1609   1.223   0.117   1.155  0.1399  0.1402  0.1289
  537SOL    HW1 1610   1.196   0.015   1.175 -0.1035 -4.3588 -2.7831
  537SOL    HW2 1611   1.155   0.176   1.196 -1.6740 -1.9334 -1.2552
  538SOL     OW 1612   0.843   1.797   0.193 -0.7554 -0.1679  0.0337
  538SOL    HW1 1613   0.898   1.795   0.276  0.8179  1.3397 -2.2932
  538SOL    HW2 1614   0.889   1.743   0.125  1.9320 -2.4638  0.8801
  539SOL     OW 1615   2.639   1.342   1.824 -0.1012 -0.2214 -0.1535
  539SOL    HW1 1616   2.725   1.339   1.763  2.7462  0.5683  2.2614
  539SOL    HW2 1617   2.573   1.417   1.804  1.6007  0.0828 -0.5199
  540SOL     OW 1618   1.878   1.719   1.812 -0.4626  0.8205  0.4539
  540SOL    HW1 1619   1.908   1.643   1.747 -1.5722 -1.0554  0.2346
  540SOL    HW2 1620   1.925   1.803   1.788  0.8537 -0.3306  2.3907
  541SOL     OW 1621   0.687   1.103   1.611 -0.1906  0.1800 -0.2955
  541SOL    HW1 1622   0.740   1.027   1.652  0.4235 -1.6413  0.9613
  541SOL    HW2 1623   0.729   1.124   1.524  0.1575  0.4133  3.3867
  542SOL     OW 1624   1.697   0.636   2.217  0.5033  0.1789 -0.2982
  542SOL    HW1 1625   1.735   0.731   2.222  0.4541 -2.1032  1.8366
  542SOL    HW2 1626   1.771   0.567   2.211 -0.0461 -0.9205 -0.4436
  543SOL     OW 1627   0.982   0.574   0.338 -0.0857 -0.3452  0.2870
  543SOL    HW1 1628   1.008   0.672   0.312 -2.3929  0.3840 -0.7439
  543SOL    HW2 1629   1.006   0.507   0.265  1.1155 -0.5298 -0.8790
  544SOL     OW 1630   2.537   2.091   2.230 -0.0361 -0.2017 -0.1736
  544SOL    HW1 1631   2.580   2.024   2.167 -0.6426 -0.0564 -2.2187
  544SOL    HW2 1632   2.595   2.111   2.313 -0.5520  0.0514 -0.2636
  545SOL     OW 1633   1.814   2.107   1.695 -0.0507  0.5525  0.5890
  545SOL    HW1 1634   1.839   2.153   1.609  0.2547 -1.9537  0.0988
  545SOL    HW2 1635   1.794   2.171   1.776  1.1225 -0.1446  2.6749
  546SOL     OW 1636   0.095   0.102   2.870 -0.0628 -0.3951  0.4670
  546SOL    HW1 1637   0.181   0.140   2.829 -0.3805  0.4310  1.2871
  546SOL    HW2 1638   0.085   0.001   2.859  0.1953 -2.9499  0.9715
  547SOL     OW 1639   2.253   0.967   0.062 -0.0567  0.3879 -0.1748
  547SOL    HW1 1640   2.190   1.048   0.058  1.2492  0.3838 -2.8195
  547SOL    HW2 1641   2.230   0.884   0.008  0.6316 -0.2345 -0.7517
  548SOL     OW 1642   2.182   1.872   2.479  0.4284  0.5641  0.0771
  548SOL    HW1 1643   2.181   1.834   2.384 -1.0848 -0.0177 -0.2617
  548SOL    HW2 1644   2.097   1.925   2.492  4.2278  0.2507 -1.4417
  549SOL     OW 1645   2.195   0.246   0.854 -0.2977 -0.6745 -0.6107
  549SOL    HW1 1646   2.137   0.162   0.869  0.6963  0.5827 -0.0407
  549SOL    HW2 1647   2.267   0.235   0.781  0.0040  0.0196 -0.2719
  550SOL     OW 1648   2.390   1.918   0.816 -0.0972 -0.3731 -0.8892
  550SOL    HW1 1649   2.420   1.948   0.726 -1.9188 -0.3781  0.3302
  550SOL    HW2 1650   2.461   1.895   0.888  1.0427  0.1718  1.1661
  551SOL     OW 1651   1.201   0.098   1.894 -0.4779  0.2006 -0.1798
  551SOL    HW1 1652   1.179   0.017   1.949  1.0482  1.0856 -1.7008
  551SOL    HW2 1653   1.188   0.081   1.796  0.1964 -0.6971  3.1390
  552SOL     OW 1654   0.214   2.499   2.493 -0.2922  0.6698  0.1497
  552SOL    HW1 1655   0.185   2.431   2.424 -0.8163  1.7186 -1.1590
  552SOL    HW2 1656   0.310   2.527   2.488  1.4376 -0.1002 -0.6482
  553SOL     OW 1657   0.737   2.946   0.356  0.1838  0.0107  0.0019
  553SOL    HW1 1658   0.685   2.966   0.268  0.3110 -2.5686 -0.6208
  553SOL    HW2 1659   0.681   2.987   0.432 -1.4174 -1.2442 -0.3860
  554SOL     OW 1660   2.105   2.308   1.756 -0.4674 -0.5906  0.4971
  554SOL    HW1 1661   2.206   2.302   1.749 -0.3313  0.5010  0.6282
  554SOL    HW2 1662   2.073   2.400   1.727 -2.0623 -0.3155  1.5182
  555SOL     OW 1663   1.272   2.032   1.977 -0.0977 -0.4665 -0.3330
  555SOL    HW1 1664   1.258   2.043   2.076 -0.3494  0.1943  1.0226
  555SOL    HW2 1665   1.207   1.971   1.933  3.1150  0.1380  1.7577
  556SOL     OW 1666   1.478   1.587   1.064  0.1091 -0.1713 -0.0151
  556SOL    HW1 1667   1.536   1.665   1.029 -0.1762 -0.1940  1.7488
  556SOL    HW2 1668   1.381   1.589   1.028 -0.8581  1.5761 -1.9150
  557SOL     OW 1669   1.978   2.238   1.979  0.5852  0.4041 -0.1553
  557SOL    HW1 1670   1.984   2.136   2.012 -0.8836  0.1734  0.7645
  557SOL    HW2 1671   2.018   2.252   1.887 -0.6475 -1.2669 -0.2604
  558SOL     OW 1672   0.499   0.312   1.790 -0.1878  0.2953 -0.5271
  558SOL    HW1 1673   0.421   0.304   1.856 -1.2764  0.7461  0.6970
  558SOL    HW2 1674   0.532   0.408   1.795 -1.3162  0.8916  0.2994
  559SOL     OW 1675   2.227   2.871   1.346 -0.2773  0.0688 -0.1896
  559SOL    HW1 1676   2.313   2.870   1.283  0.6471  1.0671 -2.3180
  559SOL    HW2 1677   2.154   2.910   1.292  3.2083 -3.5263  1.3158
  560SOL     OW 1678   0.963   2.225   0.413  0.2738 -0.0586  0.4461
  560SOL    HW1 1679   0.901   2.222   0.492  0.1745 -1.0454  1.5844
  560SOL    HW2 1680   1.007   2.318   0.410 -1.4553  1.6576 -2.9356
  561SOL     OW 1681   1.027   0.493   0.049  0.0582  0.1122 -0.6786
  561SOL    HW1 1682   1.123   0.521   0.075  2.7654  1.9916 -2.1785
  561SOL    HW2 1683   1.014   0.393   0.040  2.5380  0.8022  0.0442
  562SOL     OW 1684   0.733   0.463   2.593  0.0132 -0.3178 -0.1124
  562SOL    HW1 1685   0.835   0.450   2.603  0.3388 -1.6315  3.0078
  562SOL    HW2 1686   0.715   0.563   2.579 -0.6888  2.2016 -2.6336
  563SOL     OW 1687   1.672   2.099   2.670 -0.3961  0.0656  0.3575
  563SOL    HW1 1688   1.748   2.105   2.740  2.9648  1.1817 -0.0511
  563SOL    HW2 1689   1.594   2.166   2.683  0.0899 -0.6157  0.5874
  564SOL     OW 1690   2.727   0.961   0.838 -0.1411 -0.0363 -0.3340
  564SOL    HW1 1691   2.627   0.959   0.856  0.6534  0.9633 -1.0247
  564SOL    HW2 1692   2.764   1.054   0.858  2.2132 -0.1174 -2.2110
  565SOL     OW 1693   1.580   0.136   2.615  0.4717  0.0455 -0.3843
  565SOL    HW1 1694   1.524   0.113   2.696 -2.1614 -2.4707 -0.6656
  565SOL    HW2 1695   1.553   0.230   2.598  0.9056 -0.0279  0.8979
  566SOL     OW 1696   1.758   0.182   2.197 -0.2753  0.3863  0.1477
  566SOL    HW1 1697   1.760   0.101   2.258  0.7286  2.2822  0.3904
  566SOL    HW2 1698   1.715   0.152   2.110  1.4053  0.6851 -0.0900
  567SOL     OW 1699   2.435   1.453   0.759  0.0153  0.3557 -0.2557
  567SOL    HW1 1700   2.335   1.467   0.781 -0.8487  2.5413  0.9215
  567SOL    HW2 1701   2.494   1.471   0.842  1.4950  1.8070  2.3800
  568SOL     OW 1702   1.823   1.947   0.225  0.5185  0.1065 -0.6572
  568SOL    HW1 1703   1.838   2.042   0.194  1.5493 -2.1877 -1.0546
  568SOL    HW2 1704   1.805   1.936   0.324  2.0920  0.5860 -1.0403
  569SOL     OW 1705   2.323   1.438   2.937 -0.0428  0.1641  0.1028
  569SOL    HW1 1706   2.267   1.498   3.003 -0.4269 -0.5614  3.0120
  569SOL    HW2 1707   2.316   1.337   2.961 -0.0184 -1.9396  0.0194
  570SOL     OW 1708   2.943   3.018   1.727 -0.4912 -0.1777  0.1020
  570SOL    HW1 1709   2.862   3.080   1.740 -0.2103 -1.8402 -1.1236
  570SOL    HW2 1710   3.026   3.079   1.707  3.5578  3.2120 -1.9915
  571SOL     OW 1711   0.166   0.297   2.489 -0.0123  0.2896 -0.5333
  571SOL    HW1 1712   0.077   0.319   2.444 -1.7658  0.5382  0.0656
  571SOL    HW2 1713   0.241   0.366   2.470  4.2441  3.7422 -0.9020
  572SOL     OW 1714   0.717   1.576   0.643  0.2755 -0.1403 -0.1850
  572SOL    HW1 1715   0.618   1.600   0.634  2.3831 -2.1290  0.1380
  572SOL    HW2 1716   0.785   1.654   0.651  1.0755  1.4084  1.4419
  573SOL     OW 1717   0.767   2.830   3.046  0.0839 -0.2804  0.6068
  573SOL    HW1 1718   0.787   2.730   3.039 -1.4708  2.1276 -1.3715
  573SOL    HW2 1719   0.850   2.882   3.062 -0.2912  0.3182 -0.1587
  574SOL     OW 1720   0.941   0.217   0.852  0.3886  0.6351  0.0200
  574SOL    HW1 1721   0.916   0.137   0.916  0.2292 -1.6374  1.1210
  574SOL    HW2 1722   0.857   0.248   0.809  1.7506 -0.6402  0.3319
  575SOL     OW 1723   0.040   1.162   1.561  0.3098 -0.2488  0.2827
  575SOL    HW1 1724   0.009   1.068   1.540 -1.1604  3.4393  1.1156
  575SOL    HW2 1725   0.038   1.166   1.661 -0.4589  1.4688 -2.7486
  576SOL     OW 1726   2.027   0.374   1.553  0.0184 -0.4055 -0.2190
  576SOL    HW1 1727   1.974   0.296   1.522  2.2571  0.9963 -1.2636
  576SOL    HW2 1728   2.008   0.451   1.490  0.9295 -0.4248  0.4241
  577SOL     OW 1729   0.042   1.165   2.102  0.2485  0.0200  0.0074
  577SOL    HW1 1730   0.000   1.093   2.161  0.2496  2.1523  0.4722
  577SOL    HW2 1731   0.132   1.130   2.072 -0.1261  1.6424  0.7118
  578SOL     OW 1732   1.804   2.860   2.283 -0.1292 -0.2087  0.7637
  578SOL    HW1 1733   1.780   2.949   2.326  0.3216 -1.7043 -1.0312
  578SOL    HW2 1734   1.751   2.783   2.329 -1.0356  1.1580  2.0988
  579SOL     OW 1735   2.261   2.014   1.838 -0.6941 -0.4116  0.1084
  579SOL    HW1 1736   2.280   2.065   1.923  0.7580 -0.9217 -0.3252
  579SOL    HW2 1737   2.162   2.001   1.821  1.3646 -0.0553  0.9355
  580SOL     OW 1738   1.930   1.625   2.204  0.9294  0.1216 -0.0478
  580SOL    HW1 1739   1.841   1.658   2.240 -0.7625  1.0329  1.4737
  580SOL    HW2 1740   1.918   1.547   2.139 -0.8568 -1.4936 -0.4433
  581SOL     OW 1741   1.334   1.092   2.929 -0.4880  0.2479 -0.1434
  581SOL    HW1 1742   1.314   1.001   2.900  1.6754  2.5680  2.3861
  581SOL    HW2 1743   1.438   1.104   2.924  1.1172  0.8816 -2.4811
  582SOL     OW 1744   0.737   2.115   1.361 -0.3270 -0.0207 -0.4025
  582SOL    HW1 1745   0.693   2.100   1.451  2.2822 -0.1707 -2.1326
  582SOL    HW2 1746   0.814   2.050   1.343  0.7044  0.9881 -4.2213
  583SOL     OW 1747   1.368   1.244   1.262  0.3932  0.5692  0.1898
  583SOL    HW1 1748   1.306   1.164   1.243 -0.7669 -0.4684 -1.3994
  583SOL    HW2 1749   1.415   1.284   1.176  1.5515  0.6794 -0.1367
  584SOL     OW 1750   1.370   2.370   0.585 -0.0789 -0.6721  0.0526
  584SOL    HW1 1751   1.370   2.298   0.515 -1.8723  1.4724 -0.1310
  584SOL    HW2 1752   1.278   2.383   0.619 -1.0412 -3.3755 -0.1732
  585SOL     OW 1753   2.481   2.603   0.025 -0.1436  0.4118 -0.2743
  585SOL    HW1 1754   2.573   2.564   0.017 -0.2979 -3.0335  0.3733
  585SOL    HW2 1755   2.444   2.638   3.031  0.8415  0.1793  0.9153
  586SOL     OW 1756   2.725   1.813   0.649  0.3400 -0.2325 -0.4572
  586SOL    HW1 1757   2.729   1.801   0.751 -3.2581  0.4678  0.8262
  586SOL    HW2 1758   2.661   1.889   0.622 -2.5860  0.8317 -0.6411
  587SOL     OW 1759   1.056   1.699   0.049  0.5895  0.0206  0.6535
  587SOL    HW1 1760   1.041   1.619   3.081  2.0985 -0.3529 -1.8561
  587SOL    HW2 1761   1.142   1.679   0.093 -0.4994  0.2469 -1.4857
  588SOL     OW 1762   0.460   0.346   0.724 -0.4278 -0.1734 -0.2365
  588SOL    HW1 1763   0.410   0.264   0.751 -0.9698  2.2107 -1.2742
  588SOL    HW2 1764   0.428   0.415   0.792 -0.1097  0.0270  1.4813
  589SOL     OW 1765   1.145   0.319   0.506  0.6052  0.5160 -0.0929
  589SOL    HW1 1766   1.052   0.274   0.513 -2.1391 -1.4660 -0.5053
  589SOL    HW2 1767   1.138   0.415   0.533  2.3962 -1.5640  0.7369
  590SOL     OW 1768   2.249   2.332   0.162  0.4842  0.0733 -0.1788
  590SOL    HW1 1769   2.207   2.380   0.242 -0.6124  2.1468 -0.5677
  590SOL    HW2 1770   2.220   2.390   0.083 -1.0754  2.3188  0.4144
  591SOL     OW 1771   0.159   2.775   2.046 -0.2977  0.3159  0.5939
  591SOL    HW1 1772   0.214   2.861   2.035  0.6987 -1.7052  0.5262
  591SOL    HW2 1773   0.102   2.752   1.969  2.6885  2.3987  2.1138
  592SOL     OW 1774   3.055   1.604   2.208 -0.5239  0.3427  0.2152
  592SOL    HW1 1775   3.058   1.499   2.206  0.1156  0.1561  2.9734
  592SOL    HW2 1776   0.037   1.652   2.161  0.9081  1.0264 -1.7870
  593SOL     OW 1777   1.895   1.440   1.258 -0.2372 -0.4319 -0.1862
  593SOL    HW1 1778   1.871   1.381   1.338 -1.3161  0.0732 -0.3669
  593SOL    HW2 1779   1.853   1.532   1.266  1.1267 -0.2941 -1.4311
  594SOL     OW 1780   0.380   1.174   0.034  0.1977 -0.4988 -0.1675
  594SOL    HW1 1781   0.390   1.267   3.089 -2.7223  2.5433 -2.9073
  594SOL    HW2 1782   0.283   1.152   0.057  2.6377 -0.4842 -0.0034
  595SOL     OW 1783   1.163   1.307   1.052  0.4013  0.4873 -0.2872
  595SOL    HW1 1784   1.175   1.241   1.132 -1.6159 -1.8549  0.8604
  595SOL    HW2 1785   1.064   1.323   1.032 -2.2580  1.0970  1.1569
  596SOL     OW 1786   2.781   1.252   1.311 -0.0848  0.1277 -0.8246
  596SOL    HW1 1787   2.760   1.168   1.261  2.2694 -0.6270 -2.6025
  596SOL    HW2 1788   2.836   1.319   1.262 -2.1873  0.2851 -0.4224
  597SOL     OW 1789   1.069   2.292   1.625  0.5094  0.7031 -0.8549
  597SOL    HW1 1790   0.971   2.309   1.644  0.1245 -2.1342 -0.9131
  597SOL    HW2 1791   1.081   2.189   1.629  1.9578 -2.1211  0.3311
  598SOL     OW 1792   2.230   2.584   1.912 -0.8791 -0.0515 -0.5100
  598SOL    HW1 1793   2.256   2.515   1.845  0.9701 -0.7041  2.1395
  598SOL    HW2 1794   2.271   2.676   1.903 -1.1682 -1.3442  0.8430
  599SOL     OW 1795   0.907   1.017   3.041  0.0543  0.0851  0.0949
  599SOL    HW1 1796   0.970   1.051   0.023  2.0740  2.7363  1.9943
  599SOL    HW2 1797   0.875   0.927   3.059 -0.6555  1.7182  0.5907
  600SOL     OW 1798   1.018   0.821   2.831 -0.2649 -0.5795 -0.4885
  600SOL    HW1 1799   0.989   0.802   2.924 -1.3694 -0.8393 -2.5042
  600SOL    HW2 1800   1.120   0.846   2.834  0.5145 -0.4193 -1.1627
  601SOL     OW 1801   0.754   0.541   1.622 -0.3922  0.8954  0.4789
  601SOL    HW1 1802   0.833   0.610   1.617  0.4145  2.3322 -0.1202
  601SOL    HW2 1803   0.722   0.530   1.717  0.4346  1.1369  0.1586
  602SOL     OW 1804   0.372   2.416   0.638  0.0994  0.3608  0.2504
  602SOL    HW1 1805   0.324   2.352   0.700 -1.7843  2.1591 -2.7492
  602SOL    HW2 1806   0.310   2.453   0.565 -3.1718  1.1188 -0.1223
  603SOL     OW 1807   0.933   2.394   1.941 -0.8263  0.0038  0.0923
  603SOL    HW1 1808   0.900   2.490   1.936  0.5586 -0.2895  0.4328
  603SOL    HW2 1809   1.021   2.401   1.994  0.3635 -0.4942  1.6520
  604SOL     OW 1810   0.189   1.900   3.044 -0.5912  0.5074  0.1452
  604SOL    HW1 1811   0.251   1.875   2.969 -3.3076  2.7721  1.4541
  604SOL    HW2 1812   0.096   1.850   3.044 -3.2485 -1.6925 -2.0691
  605SOL     OW 1813   2.181   1.477   1.948  0.2510 -0.4533  0.0117
  605SOL    HW1 1814   2.082   1.482   1.965  1.5182  3.7870 -0.6650
  605SOL    HW2 1815   2.193   1.430   1.861 -2.5632  0.1478  3.4938
  606SOL     OW 1816   0.953   1.166   2.787 -0.3925 -0.0612  0.4940
  606SOL    HW1 1817   0.911   1.116   2.860  0.3217 -0.5341 -0.2538
  606SOL    HW2 1818   1.044   1.199   2.813 -2.5444 -0.2532  0.9220
  607SOL     OW 1819   1.170   1.061   1.267  0.3367  0.1749 -0.2060
  607SOL    HW1 1820   1.204   0.968   1.283 -0.0000  0.4730  0.6114
  607SOL    HW2 1821   1.070   1.052   1.248 -2.1172 -3.4792 -1.2576
  608SOL     OW 1822   2.975   1.862   1.890 -0.3745 -0.0197  0.2513
  608SOL    HW1 1823   2.973   1.955   1.844  1.6648  2.5300 -1.9170
  608SOL    HW2 1824   2.984   1.873   1.990 -1.3813 -1.1764  0.8038
  609SOL     OW 1825   2.293   0.232   0.411 -0.1909  0.2852  0.5807
  609SOL    HW1 1826   2.375   0.213   0.351  0.5360  0.2193  0.5467
  609SOL    HW2 1827   2.230   0.156   0.412  0.6854  0.8737  2.4154
  610SOL     OW 1828   2.978   2.581   1.215 -0.4077 -0.6698 -0.3844
  610SOL    HW1 1829   3.033   2.663   1.194 -2.6096 -1.0973 -2.0220
  610SOL    HW2 1830   3.037   2.497   1.232 -1.0730  0.8130 -1.4757
  611SOL     OW 1831   1.723   2.224   0.405  0.3278 -0.1778  0.4763
  611SOL    HW1 1832   1.691   2.219   0.311  2.5818  2.1538  0.0648
  611SOL    HW2 1833   1.736   2.132   0.445 -0.6913  0.2656 -1.3360
  612SOL     OW 1834   0.729   2.999   1.726  0.8001  0.1148 -0.0174
  612SOL    HW1 1835   0.829   2.973   1.740  1.8519 -1.4858 -1.0710
  612SOL    HW2 1836   0.716   3.094   1.754 -1.4961 -1.6754  0.7523
  613SOL     OW 1837   2.988   1.983   0.611  0.1400 -0.0961  0.1461
  613SOL    HW1 1838   3.022   2.057   0.549  0.9591  0.2382 -1.3978
  613SOL    HW2 1839   2.895   1.949   0.575  0.8561 -0.2968 -0.6738
  614SOL     OW 1840   2.059   0.356   1.831  0.9549  0.2555  0.1406
  614SOL    HW1 1841   2.146   0.415   1.849  0.4579  0.6601 -0.6194
  614SOL    HW2 1842   2.029   0.377   1.736  0.2361 -0.0203 -0.0843
  615SOL     OW 1843   1.198   1.595   0.987 -0.5934 -0.2749 -0.2728
  615SOL    HW1 1844   1.129   1.653   1.037  3.1608 -0.0537  0.7715
  615SOL    HW2 1845   1.188   1.498   1.021  1.5734  0.3509 -0.5040
  616SOL     OW 1846   1.782   1.712   0.055 -0.3568 -0.2492 -0.5804
  616SOL    HW1 1847   1.772   1.792   0.115  0.9731 -0.6001 -0.6445
  616SOL    HW2 1848   1.767   1.745   3.053 -1.5393  2.8037 -1.5164
  617SOL     OW 1849   1.886   0.331   0.221  0.4559  0.4222 -0.0433
  617SOL    HW1 1850   1.949   0.345   0.143  1.8684  0.4647 -1.7222
  617SOL    HW2 1851   1.863   0.233   0.243  1.4114 -0.3607 -0.8543
  618SOL     OW 1852   0.629   0.718   2.579  0.6195 -0.7533  0.3496
  618SOL    HW1 1853   0.568   0.766   2.516  0.1816  1.9193  0.5450
  618SOL    HW2 1854   0.670   0.783   2.647 -0.5603 -3.9823 -0.6608
  619SOL     OW 1855   2.832   1.686   1.221  0.0857 -0.4796 -0.0502
  619SOL    HW1 1856   2.888   1.600   1.238 -0.1473  0.4041 -3.0742
  619SOL    HW2 1857   2.804   1.700   1.129  1.6548 -2.6822  1.2439
  620SOL     OW 1858   1.988   2.889   2.553 -0.0235 -0.2315  0.7253
  620SOL    HW1 1859   1.998   2.991   2.562 -3.2847 -0.9412  3.5366
  620SOL    HW2 1860   2.058   2.853   2.489 -2.2377  0.7965  0.5746
  621SOL     OW 1861   2.749   1.709   2.971  0.1436 -0.1944  0.5707
  621SOL    HW1 1862   2.832   1.658   2.938 -0.8936 -0.7720 -0.4067
  621SOL    HW2 1863   2.697   1.654   3.039 -0.6211 -0.1608  1.7831
  622SOL     OW 1864   1.604   0.095   1.979 -0.0291 -0.3213  0.2027
  622SOL    HW1 1865   1.599   3.086   1.980 -0.2094 -0.7526  0.0226
  622SOL    HW2 1866   1.665   0.130   1.899 -0.7885  0.5801 -3.2768
  623SOL     OW 1867   0.608   2.309   0.968  0.2313 -0.1668  0.2208
  623SOL    HW1 1868   0.635   2.285   1.061 -1.2993 -0.9579  2.1200
  623SOL    HW2 1869   0.529   2.374   0.962 -1.4628 -4.7387  1.6210
  624SOL     OW 1870   0.098   0.015   0.036  0.0621 -0.1237 -0.2774
  624SOL    HW1 1871   0.046   3.020   0.047  3.9333 -0.2814  1.0070
  624SOL    HW2 1872   0.103   0.054   3.035  0.4196  1.5439 -1.4046
  625SOL     OW 1873   0.897   1.866   0.625 -0.3504  0.0789 -0.7065
  625SOL    HW1 1874   0.858   1.902   0.709 -2.0231  0.0410 -1.7185
  625SOL    HW2 1875   0.825   1.878   0.555  0.3851  0.8180 -0.0085
  626SOL     OW 1876   2.725   0.276   2.962 -0.3841  0.1157 -0.5308
  626SOL    HW1 1877   2.822   0.284   2.924  0.6636  1.2918  0.9888
  626SOL    HW2 1878   2.699   0.179   2.983 -0.1602 -1.8792 -2.9625
  627SOL     OW 1879   1.329   1.855   2.718  0.1455  0.2128 -0.5819
  627SOL    HW1 1880   1.403   1.794   2.679  1.7021  0.6346 -1.4535
  627SOL    HW2 1881   1.237   1.828   2.682  1.4024  1.8760 -2.3695
  628SOL     OW 1882   0.159   2.634   2.901  0.8267 -0.2846  0.0165
  628SOL    HW1 1883   0.100   2.641   2.817 -0.0398 -1.5664  2.3182
  628SOL    HW2 1884   0.099   2.632   2.986  0.5885 -0.6573  2.3719
  629SOL     OW 1885   0.499   2.935   2.510 -0.2327 -0.4188  0.1490
  629SOL    HW1 1886   0.473   2.911   2.603 -1.7478  0.9265 -0.7841
  629SOL    HW2 1887   0.539   2.861   2.454  1.4291 -2.1065 -2.1301
  630SOL     OW 1888   1.374   1.010   1.920  0.4071 -0.1237  0.1582
  630SOL    HW1 1889   1.444   1.041   1.856 -3.5196  1.0668 -0.1498
  630SOL    HW2 1890   1.316   1.098   1.935  1.2430  2.1814  1.6673
  631SOL     OW 1891   2.032   1.191   0.056 -0.1940 -0.3693  0.0212
  631SOL    HW1 1892   1.982   1.181   3.061  0.6025  0.7083 -1.1544
  631SOL    HW2 1893   2.092   1.275   0.047 -2.0983  0.5239 -1.4811
  632SOL     OW 1894   2.721   0.409   2.148  0.6031 -0.1528  0.3143
  632SOL    HW1 1895   2.783   0.477   2.193  1.1304 -1.1085  0.8566
  632SOL    HW2 1896   2.636   0.450   2.115  0.8560 -0.5374 -1.6149
  633SOL     OW 1897   0.769   1.462   0.068 -0.3925 -0.6322  0.4315
  633SOL    HW1 1898   0.784   1.539   0.005  0.7614 -2.1915 -2.3417
  633SOL    HW2 1899   0.747   1.385   0.013  0.0089  2.5847  1.1133
  634SOL     OW 1900   2.331   2.668   2.495 -0.3951  0.4977 -0.3464
  634SOL    HW1 1901   2.255   2.614   2.538  1.1605 -0.7546  0.6739
  634SOL    HW2 1902   2.307   2.766   2.493  0.9267  1.8179 -0.2328
  635SOL     OW 1903   2.051   0.695   0.390  0.1949  0.1381 -0.1293
  635SOL    HW1 1904   2.043   0.718   0.491  0.8309  0.6710  2.7950
  635SOL    HW2 1905   2.064   0.594   0.371 -1.5195 -0.8539 -0.6140
  636SOL     OW 1906   0.843   1.355   0.718  0.3159  0.3813  0.5012
  636SOL    HW1 1907   0.839   1.278   0.647 -2.3924  2.2787 -1.2550
  636SOL    HW2 1908   0.784   1.439   0.693 -0.7505  4.2873 -1.7804
  637SOL     OW 1909   2.958   2.154   0.236 -0.2328  0.3173 -0.0099
  637SOL    HW1 1910   2.882   2.088   0.223 -0.7150  1.2247  2.1960
  637SOL    HW2 1911   2.980   2.164   0.334  0.8769 -1.2334 -0.3974
  638SOL     OW 1912   1.203   2.650   2.538  0.1161  0.0728 -0.2926
  638SOL    HW1 1913   1.203   2.740   2.485  0.8897  2.8031 -2.7444
  638SOL    HW2 1914   1.224   2.572   2.477 -0.9810 -0.4957 -0.6912
  639SOL     OW 1915   1.413   1.987   0.075 -0.0478 -0.2568 -0.5330
  639SOL    HW1 1916   1.336   2.054   0.060 -1.5608  1.3185  0.5122
  639SOL    HW2 1917   1.382   1.898   0.114 -2.1366  0.4778 -0.2059
  640SOL     OW 1918   1.763   3.052   0.741 -0.1956 -0.1072  0.1546
  640SOL    HW1 1919   1.767   0.007   0.831 -0.1672 -1.6844 -2.8678
  640SOL    HW2 1920   1.850   3.064   0.689 -0.6884 -1.3090  1.0868
  641SOL     OW 1921   3.029   2.887   0.485  0.0370 -0.2393 -0.4131
  641SOL    HW1 1922   3.058   2.905   0.581 -0.0565 -0.9507 -0.7910
  641SOL    HW2 1923   2.961   2.812   0.487 -0.8175  0.7653  1.1108
  642SOL     OW 1924   0.719   0.287   1.501  0.0814 -0.6217  0.3599
  642SOL    HW1 1925   0.629   0.254   1.536  1.8754  1.2036  0.9225
  642SOL    HW2 1926   0.730   0.377   1.538  3.0033  0.8144  1.8829
  643SOL     OW 1927   0.679   1.269   2.159 -0.0487  0.2014  0.4253
  643SOL    HW1 1928   0.689   1.276   2.256  1.5855  1.2331 -3.1120
  643SOL    HW2 1929   0.775   1.290   2.123  1.3892 -0.0840  1.2657
  644SOL     OW 1930   0.967   2.478   0.118  0.3604 -0.2703 -0.2147
  644SOL    HW1 1931   0.987   2.542   0.195  0.6742  1.1764  1.7732
  644SOL    HW2 1932   0.993   2.377   0.131  0.0590 -0.2574 -0.2189
  645SOL     OW 1933   1.588   2.174   0.168 -0.5675  0.5861  0.2230
  645SOL    HW1 1934   1.611   2.241   0.101 -0.8342 -3.1900  0.9982
  645SOL    HW2 1935   1.530   2.098   0.132 -1.1753  0.3067 -0.5802
  646SOL     OW 1936   0.357   1.432   3.057 -0.6883 -0.3661  0.3750
  646SOL    HW1 1937   0.298   1.513   3.035  0.4931  2.1262 -1.1441
  646SOL    HW2 1938   0.422   1.452   0.044 -0.7354  0.4661  1.0148
  647SOL     OW 1939   0.873   0.023   1.026  0.0045  0.5950 -0.2754
  647SOL    HW1 1940   0.897   3.016   1.012  2.2318 -2.5636  0.9798
  647SOL    HW2 1941   0.839   0.040   1.115  1.2598  0.1618 -0.5111
  648SOL     OW 1942   1.731   0.365   1.558  0.0868  0.0644  0.5231
  648SOL    HW1 1943   1.732   0.328   1.463  0.4242  1.3667 -2.7165
  648SOL    HW2 1944   1.765   0.460   1.563  1.4794  0.5060 -0.0787
  649SOL     OW 1945   1.183   1.882   2.970  0.0028  0.2479  0.1545
  649SOL    HW1 1946   1.217   1.845   2.881  0.5762  0.0900  1.0686
  649SOL    HW2 1947   1.173   1.803   3.030 -0.6652  0.6577 -0.9294
  650SOL     OW 1948   2.803   1.647   2.173  0.2051 -0.3703  0.0825
  650SOL    HW1 1949   2.759   1.722   2.229  0.1029  2.1583 -0.6468
  650SOL    HW2 1950   2.902   1.644   2.204 -1.2326  0.4366  0.3605
  651SOL     OW 1951   1.210   2.573   2.977  0.1793  0.8130  0.6539
  651SOL    HW1 1952   1.245   2.480   2.967 -1.0016  0.8154  2.7083
  651SOL    HW2 1953   1.162   2.606   2.893  0.6919  1.1453  0.7407
  652SOL     OW 1954   2.831   1.938   3.063 -0.7915 -0.4787 -0.2078
  652SOL    HW1 1955   2.783   1.857   3.019  0.2150 -4.4283 -1.6361
  652SOL    HW2 1956   2.789   2.027   3.018 -2.4582  1.8973 -1.4927
  653SOL     OW 1957   0.274   0.082   1.073 -0.0921 -0.3066  0.1791
  653SOL    HW1 1958   0.315   3.090   1.110 -0.5353 -0.5767  1.2742
  653SOL    HW2 1959   0.182   0.097   1.120  0.3070 -2.4357  1.4824
  654SOL     OW 1960   2.327   0.298   2.347 -0.1704  0.7304  0.6849
  654SOL    HW1 1961   2.429   0.291   2.335  2.3866 -0.9812 -3.4016
  654SOL    HW2 1962   2.288   0.217   2.391  0.8999 -1.1039 -1.5858
  655SOL     OW 1963   0.529   2.914   0.913 -0.3238  0.4421 -0.4648
  655SOL    HW1 1964   0.551   3.007   0.876 -0.3175  2.6041  0.0742
  655SOL    HW2 1965   0.605   2.849   0.897 -5.4286 -0.8912 -2.2917
  656SOL     OW 1966   2.912   2.994   2.231 -0.0314  0.0183  0.3175
  656SOL    HW1 1967   2.917   3.079   2.177  0.9321 -3.1115  0.2214
  656SOL    HW2 1968   2.994   2.992   2.292 -1.5010 -0.5076  0.1975
  657SOL     OW 1969   2.714   0.695   2.620 -0.1299 -0.1476 -0.2316
  657SOL    HW1 1970   2.682   0.735   2.532 -0.3887  0.9607 -1.3728
  657SOL    HW2 1971   2.640   0.649   2.668 -1.3053 -0.4234  0.0319
  658SOL     OW 1972   2.227   2.126   0.778 -0.0096 -0.1949  0.3962
  658SOL    HW1 1973   2.277   2.063   0.838  1.2115  0.2532  0.0749
  658SOL    HW2 1974   2.250   2.227   0.801  1.2987  1.9579  0.6714
  659SOL     OW 1975   1.993   2.906   0.218 -0.4160 -0.0207  0.4731
  659SOL    HW1 1976   1.985   2.810   0.241 -0.6520  2.6520  0.2484
  659SOL    HW2 1977   1.946   2.910   0.126  1.9668  0.8004 -0.0019
  660SOL     OW 1978   1.619   1.139   2.619  0.3830 -0.1653  0.4742
  660SOL    HW1 1979   1.563   1.076   2.558  0.0811 -3.1933 -2.9456
  660SOL    HW2 1980   1.576   1.232   2.613  1.5449  1.8928 -0.3228
  661SOL     OW 1981   2.340   2.484   1.352  0.0791 -0.5346 -0.2861
  661SOL    HW1 1982   2.385   2.405   1.304  0.0475  1.2626 -2.3388
  661SOL    HW2 1983   2.346   2.477   1.456  1.0104  0.8924  1.0506
  662SOL     OW 1984   0.725   0.899   0.398 -0.4267  0.1295  0.0550
  662SOL    HW1 1985   0.680   0.844   0.323 -2.3083  1.6451 -1.2974
  662SOL    HW2 1986   0.657   0.914   0.475 -2.9922 -1.4069 -0.3322
  663SOL     OW 1987   1.982   2.292   0.450 -0.1997  0.4883  0.2453
  663SOL    HW1 1988   2.052   2.217   0.464  3.5063 -2.8156  0.7073
  663SOL    HW2 1989   1.912   2.267   0.378 -0.8099  2.3344 -0.6125
  664SOL     OW 1990   0.794   1.760   1.379 -0.1523  0.2880 -0.0482
  664SOL    HW1 1991   0.699   1.783   1.362 -0.6236  1.8609  0.1327
  664SOL    HW2 1992   0.862   1.836   1.367  1.1289 -0.4222 -1.4248
  665SOL     OW 1993   1.760   2.252   2.176  0.1500 -0.3196  0.0387
  665SOL    HW1 1994   1.806   2.241   2.266 -0.1162  2.2307 -2.5160
  665SOL    HW2 1995   1.830   2.234   2.104 -1.5711 -3.5141  1.4196
  666SOL     OW 1996   0.202   2.279   0.206  0.0502 -0.0385  0.1629
  666SOL    HW1 1997   0.274   2.327   0.157 -0.8186 -0.5971 -1.0605
  666SOL    HW2 1998   0.131   2.242   0.144  0.7837 -0.3949 -0.4723
  667SOL     OW 1999   2.496   1.547   1.720 -0.5919  0.1841 -0.3542
  667SOL    HW1 2000   2.459   1.639   1.750  2.2750 -1.4087 -0.9982
  667SOL    HW2 2001   2.544   1.553   1.633  0.9981 -0.3959 -0.5487
  668SOL     OW 2002   0.417   0.608   2.686 -0.6563  0.0707  0.1944
  668SOL    HW1 2003   0.499   0.634   2.632  1.4106  1.0336 -3.5212
  668SOL    HW2 2004   0.441   0.583   2.778  1.5762  1.4945 -2.3982
  669SOL     OW 2005   1.927   2.330   2.972 -0.3653  0.0646 -0.3646
  669SOL    HW1 2006   1.881   2.406   2.923  0.9792 -1.9318  0.3156
  669SOL    HW2 2007   2.025   2.362   2.988  0.8690 -0.6531 -2.1015
  670SOL     OW 2008   2.531   1.859   2.824 -0.3501 -0.0732 -0.0918
  670SOL    HW1 2009   2.439   1.829   2.797  0.8093  0.7454 -0.4425
  670SOL    HW2 2010   2.595   1.784   2.862  2.8960 -0.8029  1.5175
  671SOL     OW 2011   0.212   1.344   1.186 -0.2482  0.2662  0.3891
  671SOL    HW1 2012   0.197   1.404   1.107  0.1667 -2.1804  0.4921
  671SOL    HW2 2013   0.169   1.252   1.169 -0.5995 -0.4586 -0.4294
  672SOL     OW 2014   2.520   0.982   2.389 -0.0423 -0.6856  0.4361
  672SOL    HW1 2015   2.579   1.006   2.309  1.3315 -2.5077 -0.6364
  672SOL    HW2 2016   2.427   1.025   2.377 -1.5803 -0.4971 -1.0018
  673SOL     OW 2017   2.443   2.640   2.088  0.3120 -0.1869 -0.5179
  673SOL    HW1 2018   2.474   2.575   2.155  1.6184  1.6080 -1.0989
  673SOL    HW2 2019   2.354   2.614   2.050  0.0000 -0.0538  2.2885
  674SOL     OW 2020   1.180   2.436   2.030 -0.6018 -0.6571 -0.2030
  674SOL    HW1 2021   1.261   2.395   1.991 -3.3039  0.6606  4.0612
  674SOL    HW2 2022   1.182   2.437   2.135 -0.8687  1.3349  0.9901
  675SOL     OW 2023   0.447   0.727   1.029 -0.0462 -0.5117  0.3433
  675SOL    HW1 2024   0.437   0.753   1.124  0.6218 -1.5504 -3.2008
  675SOL    HW2 2025   0.379   0.775   0.969  0.0604 -0.3775 -1.1963
  676SOL     OW 2026   1.836   1.165   0.598 -0.2227  0.3414  0.0984
  676SOL    HW1 2027   1.772   1.097   0.550 -0.9034 -2.6774 -0.9692
  676SOL    HW2 2028   1.911   1.202   0.540 -1.2376 -1.6359  0.1690
  677SOL     OW 2029   0.020   1.623   2.479 -0.1990  0.0914 -0.0451
  677SOL    HW1 2030   3.092   1.592   2.387 -0.6476 -1.9731 -0.2586
  677SOL    HW2 2031   3.029   1.661   2.522 -0.4905 -2.1047 -2.2736
  678SOL     OW 2032   2.674   1.880   1.339 -0.3935  0.4359 -0.0175
  678SOL    HW1 2033   2.725   1.792   1.309 -1.8566 -1.8145  0.4434
  678SOL    HW2 2034   2.577   1.859   1.355 -1.3019 -0.1692  1.5585
  679SOL     OW 2035   1.921   2.797   0.545  0.6220  0.4387  0.2437
  679SOL    HW1 2036   2.012   2.760   0.554 -1.3495 -2.6800  0.9568
  679SOL    HW2 2037   1.856   2.739   0.599  1.9352  1.7199 -1.8935
  680SOL     OW 2038   0.497   2.404   2.111  0.3019  0.5561  0.0995
  680SOL    HW1 2039   0.575   2.446   2.156 -2.1402  1.3507  0.4973
  680SOL    HW2 2040   0.521   2.368   2.022 -0.1175 -2.9391  1.6206
  681SOL     OW 2041   2.940   1.418   1.730 -0.1546  0.3564  0.4051
  681SOL    HW1 2042   3.007   1.357   1.770 -1.4015 -0.8727 -0.1335
  681SOL    HW2 2043   2.909   1.484   1.803 -2.6545 -1.3500 -0.3607
  682SOL     OW 2044   0.809   1.939   0.890 -0.0951 -0.7384 -0.0135
  682SOL    HW1 2045   0.723   1.989   0.868  2.9451 -1.0617 -0.5937
  682SOL    HW2 2046   0.882   2.006   0.919  0.9289 -2.0789  1.3446
  683SOL     OW 2047   2.111   1.270   1.116 -0.0323  0.2932 -0.1536
  683SOL    HW1 2048   2.062   1.227   1.041  0.4647 -0.7985  1.3518
  683SOL    HW2 2049   2.039   1.319   1.166 -0.2843 -1.2548  0.3816
  684SOL     OW 2050   2.996   1.585   2.903  0.0237 -0.0326 -0.1321
  684SOL    HW1 2051   3.045   1.545   2.822  0.4003 -1.2625 -3.0736
  684SOL    HW2 2052   2.950   1.511   2.962 -0.7501 -2.2544 -1.2404
  685SOL     OW 2053   1.552   1.253   0.064  0.4077 -0.2071 -0.6758
  685SOL    HW1 2054   1.553   1.200   3.077 -0.3012 -2.2490  0.9527
  685SOL    HW2 2055   1.571   1.346   0.038 -0.1664 -1.4139 -0.9214
  686SOL     OW 2056   0.157   0.673   1.335 -0.4957  0.3515  0.4024
  686SOL    HW1 2057   0.243   0.717   1.297  0.4925 -2.9776 -1.6979
  686SOL    HW2 2058   0.170   0.602   1.406 -0.5522 -1.8192  0.6665
  687SOL     OW 2059   1.263   2.144   2.691  0.4288  0.0154 -0.1660
  687SOL    HW1 2060   1.276   2.045   2.692 -0.9947 -0.7897 -0.7891
  687SOL    HW2 2061   1.349   2.195   2.713 -1.5172  0.6629 -3.3016
  688SOL     OW 2062   0.461   1.729   1.572  0.1301  0.0848  0.0494
  688SOL    HW1 2063   0.384   1.787   1.591  0.0689 -0.2254  1.2389
  688SOL    HW2 2064   0.529   1.723   1.647  2.1618 -2.2890  0.5233
  689SOL     OW 2065   1.541   1.117   1.709  0.0273 -0.3795 -0.4638
  689SOL    HW1 2066   1.472   1.133   1.639  0.8459 -1.1822 -0.0954
  689SOL    HW2 2067   1.603   1.044   1.670 -3.7681  0.1869  1.2122
  690SOL     OW 2068   2.302   0.804   1.270  0.0296 -0.0210 -0.4276
  690SOL    HW1 2069   2.361   0.724   1.282  1.0722  0.1963 -1.9779
  690SOL    HW2 2070   2.345   0.880   1.226 -2.0118 -2.2159  3.4392
  691SOL     OW 2071   0.682   2.116   1.632 -0.0167 -0.1707 -0.2671
  691SOL    HW1 2072   0.713   2.046   1.699 -2.0960  1.3311  1.4798
  691SOL    HW2 2073   0.735   2.204   1.645 -0.7075  0.0404 -1.2139
  692SOL     OW 2074   1.994   0.149   1.196 -0.5969  0.4474  0.2639
  692SOL    HW1 2075   2.042   0.236   1.178 -0.7105  0.1164  1.3853
  692SOL    HW2 2076   1.978   0.135   1.298  1.4362  0.8543  2.8389
  693SOL     OW 2077   0.286   1.039   2.058  0.0315  0.5631 -0.2741
  693SOL    HW1 2078   0.383   1.045   2.075 -1.9175  0.8889 -1.4318
  693SOL    HW2 2079   0.265   1.044   1.960  1.2463  1.2900 -0.5532
  694SOL     OW 2080   1.923   0.138   1.451  0.2907  0.1263  0.1591
  694SOL    HW1 2081   1.919   0.059   1.506 -1.2373  2.6013 -3.8640
  694SOL    HW2 2082   1.839   0.142   1.395  1.7347 -0.1331 -3.9767
  695SOL     OW 2083   1.289   1.407   1.642  0.3037  0.2669  0.3821
  695SOL    HW1 2084   1.195   1.441   1.626  0.7763  0.4106  1.0301
  695SOL    HW2 2085   1.314   1.327   1.582  1.5958 -1.8916  4.0400
  696SOL     OW 2086   1.569   2.812   0.215 -0.4189  0.5298 -0.5832
  696SOL    HW1 2087   1.621   2.851   0.293 -1.3332  0.3366  0.0899
  696SOL    HW2 2088   1.632   2.771   0.142  2.5568 -1.6217  1.4205
  697SOL     OW 2089   0.739   0.523   0.475  0.2434 -0.7903  0.1378
  697SOL    HW1 2090   0.691   0.464   0.406  1.7435 -0.6025 -2.7636
  697SOL    HW2 2091   0.827   0.555   0.433  1.6288  0.8042  0.3702
  698SOL     OW 2092   1.408   1.547   2.383 -0.2070 -0.2919  0.0600
  698SOL    HW1 2093   1.336   1.482   2.418  0.5988 -1.6756  1.2383
  698SOL    HW2 2094   1.448   1.514   2.294 -1.7038 -0.0805 -0.5460
  699SOL     OW 2095   1.545   0.976   1.006 -0.3371 -0.2922  0.0260
  699SOL    HW1 2096   1.639   1.012   0.978  0.8464 -0.6347 -1.3941
  699SOL    HW2 2097   1.470   1.021   0.960  2.3798 -2.2387 -1.1208
  700SOL     OW 2098   1.321   2.841   0.615 -0.5005 -0.0962 -0.8100
  700SOL    HW1 2099   1.310   2.821   0.516 -3.2093  0.0859  0.2492
  700SOL    HW2 2100   1.392   2.911   0.630  1.8123  1.1110  1.5977
  701SOL     OW 2101   2.274   0.095   2.510  0.3505 -0.2049  0.0899
  701SOL    HW1 2102   2.364   0.066   2.541 -1.4247 -1.4333 -0.0362
  701SOL    HW2 2103   2.207   0.096   2.586 -1.9922  0.5109  3.1729
  702SOL     OW 2104   1.025   0.224   3.085 -0.3841  0.3187 -0.2624
  702SOL    HW1 2105   1.068   0.251   2.999 -1.3589  0.4553  0.1061
  702SOL    HW2 2106   0.960   0.143   3.074 -0.2084  2.8435  1.3578
  703SOL     OW 2107   2.425   2.879   2.220  0.2986  0.4005  0.2556
  703SOL    HW1 2108   2.382   2.807   2.165  0.4893 -3.0971 -1.3380
  703SOL    HW2 2109   2.510   2.849   2.260 -1.4446 -0.3547 -1.8538
  704SOL     OW 2110   0.210   2.310   1.088  0.1244 -0.2139  0.0843
  704SOL    HW1 2111   0.175   2.235   1.026  1.3108 -1.9221 -2.2023
  704SOL    HW2 2112   0.197   2.396   1.035 -2.1857  1.1442  1.8375
  705SOL     OW 2113   2.606   0.228   2.331 -0.0073  0.5016  0.1080
  705SOL    HW1 2114   2.660   0.283   2.267  0.8516  0.4206 -0.7752
  705SOL    HW2 2115   2.568   0.146   2.277  0.0281 -0.3544  1.0978
  706SOL     OW 2116   1.792   0.081   0.278 -0.0980 -0.2308 -0.2247
  706SOL    HW1 2117   1.808   3.076   0.280 -0.4027  2.0494 -2.5096
  706SOL    HW2 2118   1.697   0.112   0.250 -2.4881  1.2128  1.6000
  707SOL     OW 2119   1.085   1.859   1.874 -0.5909  0.0694 -0.2658
  707SOL    HW1 2120   1.019   1.833   1.946 -0.0974  0.7908 -0.4095
  707SOL    HW2 2121   1.139   1.774   1.845  0.0632 -0.8945  2.9300
  708SOL     OW 2122   3.076   2.774   1.836  0.2024 -0.5745  0.5124
  708SOL    HW1 2123   3.056   2.688   1.780  1.0101  2.1030 -2.1353
  708SOL    HW2 2124   3.040   2.862   1.800  0.8216 -0.6998  0.0178
  709SOL     OW 2125   1.958   0.099   1.838 -0.6518  0.8953 -0.2026
  709SOL    HW1 2126   2.011   0.186   1.854 -1.8626 -2.8883  0.9696
  709SOL    HW2 2127   2.015   0.015   1.856  0.2336 -0.9317 -1.5362
  710SOL     OW 2128   2.081   0.749   2.315  0.3237 -0.2539  0.2398
  710SOL    HW1 2129   2.067   0.817   2.235  0.3770  1.3995 -1.1712
  710SOL    HW2 2130   2.059   0.795   2.404  0.3372  0.4436 -0.0523
  711SOL     OW 2131   0.993   2.185   0.133 -0.2482 -0.1181  0.0745
  711SOL    HW1 2132   0.969   2.167   0.230 -1.0876 -0.1806 -0.3585
  711SOL    HW2 2133   0.911   2.208   0.073 -0.7652 -0.7382 -0.5580
  712SOL     OW 2134   0.746   2.481   2.174 -0.2378 -0.2894  0.0489
  712SOL    HW1 2135   0.813   2.492   2.251 -0.9337  0.2770  0.2138
  712SOL    HW2 2136   0.779   2.531   2.095 -0.4226  0.1466  0.9307
  713SOL     OW 2137   1.734   1.504   0.291 -0.6220  0.0832  0.6412
  713SOL    HW1 2138   1.695   1.515   0.196  0.8604  0.0663 -0.3373
  713SOL    HW2 2139   1.837   1.495   0.291  0.4093 -3.0682 -2.0582
  714SOL     OW 2140   0.511   1.389   1.160 -0.5120  0.3230  0.3215
  714SOL    HW1 2141   0.420   1.346   1.154  2.7794 -1.1292 -0.3909
  714SOL    HW2 2142   0.526   1.423   1.253  0.5196 -3.7628 -4.4593
  715SOL     OW 2143   1.916   0.161   2.805 -0.6269  0.2608 -0.5826
  715SOL    HW1 2144   1.872   0.249   2.822  0.0794 -0.1035 -0.6260
  715SOL    HW2 2145   1.893   0.103   2.887  0.3423  2.0031  1.9920
  716SOL     OW 2146   2.633   0.014   1.953 -0.3290  0.1903 -0.6180
  716SOL    HW1 2147   2.568   0.046   2.030 -0.0434 -1.0316  1.1457
  716SOL    HW2 2148   2.640   3.005   1.950  0.9030 -0.2391 -1.8843
  717SOL     OW 2149   0.005   0.895   0.826 -0.1552 -0.6918 -0.5616
  717SOL    HW1 2150   0.020   0.911   0.728 -0.5775  0.6428  3.8964
  717SOL    HW2 2151   3.023   0.833   0.841  0.9284  0.9819 -2.4886
  718SOL     OW 2152   1.219   1.054   2.457  0.1268 -0.2230 -0.7627
  718SOL    HW1 2153   1.134   1.063   2.514 -1.2529  0.0019  1.0345
  718SOL    HW2 2154   1.198   0.974   2.391 -0.4319 -1.6526 -0.5561
  719SOL     OW 2155   2.889   1.408   3.081  0.4322  0.0856  0.1793
  719SOL    HW1 2156   2.911   1.407   0.086 -1.3346  3.0319 -1.8997
  719SOL    HW2 2157   2.802   1.361   3.055 -0.8201  0.8124  1.0082
  720SOL     OW 2158   1.135   0.820   0.940  0.4124 -0.1540  0.5167
  720SOL    HW1 2159   1.221   0.862   0.908  0.3413  0.7898  1.5721
  720SOL    HW2 2160   1.055   0.851   0.881 -0.9583  3.8597  2.0267
  721SOL     OW 2161   2.621   0.513   0.308  0.4291  0.0120  0.6940
  721SOL    HW1 2162   2.663   0.513   0.211  0.5301 -3.0415 -0.4571
  721SOL    HW2 2163   2.687   0.558   0.373 -0.9456  2.2874  0.3568
  722SOL     OW 2164   1.880   0.689   2.723 -0.3025  0.4672 -0.4276
  722SOL    HW1 2165   1.906   0.653   2.815  0.3776 -1.1936  1.6010
  722SOL    HW2 2166   1.881   0.613   2.651 -1.7686 -2.1883 -0.4752
  723SOL     OW 2167   2.816   0.615   0.494  0.5620 -0.4028  0.5496
  723SOL    HW1 2168   2.911   0.598   0.462  1.2357 -2.5450  1.7200
  723SOL    HW2 2169   2.798   0.716   0.505 -2.9882  0.9905 -1.1605
  724SOL     OW 2170   0.945   1.335   2.044  0.0204 -0.4918 -0.1689
  724SOL    HW1 2171   0.965   1.236   2.026  0.3760  0.1929  2.0692
  724SOL    HW2 2172   0.939   1.383   1.956 -1.7979 -2.7415 -1.2379
  725SOL     OW 2173   2.075   0.946   2.106 -0.7147  0.3256 -0.0236
  725SOL    HW1 2174   2.164   0.952   2.057  0.2633  0.9634  1.1127
  725SOL    HW2 2175   1.994   0.956   2.045  3.5297  1.4186  1.4753
  726SOL     OW 2176   1.687   2.909   0.427  0.2126 -0.0889 -0.5008
  726SOL    HW1 2177   1.773   2.866   0.460 -0.5393  0.9479  2.7204
  726SOL    HW2 2178   1.644   2.964   0.500  0.9391 -2.2356 -2.3323
  727SOL     OW 2179   1.555   1.301   2.248 -0.2265 -0.0824 -0.3513
  727SOL    HW1 2180   1.570   1.200   2.258  1.2678  0.0226  1.8191
  727SOL    HW2 2181   1.484   1.328   2.173 -1.2188 -1.2802 -2.7432
  728SOL     OW 2182   1.492   2.674   1.304  0.4380 -0.1643  0.6274
  728SOL    HW1 2183   1.497   2.615   1.389  0.7802  0.5670  3.2705
  728SOL    HW2 2184   1.561   2.640   1.239  2.4483 -1.9987  3.4048
  729SOL     OW 2185   1.955   0.882   1.089  0.1955  0.0401  0.1177
  729SOL    HW1 2186   1.951   0.915   1.187 -0.4251 -1.7415 -0.1187
  729SOL    HW2 2187   2.029   0.817   1.072 -1.1910  1.1054 -0.2099
  730SOL     OW 2188   0.278   1.533   2.466 -0.1148  0.1134  0.1548
  730SOL    HW1 2189   0.178   1.554   2.480 -1.9572 -0.3925 -0.3580
  730SOL    HW2 2190   0.295   1.543   2.366  2.2408 -1.2059  4.7255
  731SOL     OW 2191   0.304   0.132   0.801 -0.3867 -0.0348 -0.1025
  731SOL    HW1 2192   0.320   0.045   0.748  0.5953  2.2117 -0.0603
  731SOL    HW2 2193   0.302   0.116   0.900  0.8064  1.2315 -1.8661
  732SOL     OW 2194   1.270   0.863   0.247  0.0070  0.1087  0.5807
  732SOL    HW1 2195   1.310   0.930   0.186 -0.4696 -1.0967 -0.3572
  732SOL    HW2 2196   1.171   0.888   0.271 -1.9517  1.1345  0.8104
  733SOL     OW 2197   0.401   1.994   0.702  0.8097 -0.2077  0.5112
  733SOL    HW1 2198   0.427   1.921   0.770 -0.6840 -1.3997  0.6576
  733SOL    HW2 2199   0.385   1.948   0.611  0.7131 -0.8076 -0.9755
  734SOL     OW 2200   0.048   2.347   2.949  0.2048 -0.3304 -0.3455
  734SOL    HW1 2201   0.077   2.416   3.021  0.0638 -1.4276 -0.7619
  734SOL    HW2 2202   0.055   2.255   2.990  0.4853 -2.0044  0.4557
  735SOL     OW 2203   1.249   0.810   1.334  0.1023  0.2047  0.0144
  735SOL    HW1 2204   1.212   0.760   1.252 -1.5521  0.3389 -0.3971
  735SOL    HW2 2205   1.289   0.738   1.396  0.7063  2.1711 -0.9955
  736SOL     OW 2206   2.169   2.465   3.024  0.3266 -0.2954  0.0985
  736SOL    HW1 2207   2.123   2.560   3.029 -3.3805 -0.0315  0.1903
  736SOL    HW2 2208   2.253   2.470   2.963  0.6214 -1.5942  1.9854
  737SOL     OW 2209   2.694   0.127   0.830  0.0089  0.4651  0.3276
  737SOL    HW1 2210   2.706   0.187   0.747 -0.9218  0.7260 -1.1556
  737SOL    HW2 2211   2.673   0.194   0.902  3.1882 -0.0431 -0.8503
  738SOL     OW 2212   2.397   0.169   1.083  0.0349 -0.0149  0.3896
  738SOL    HW1 2213   2.372   0.202   1.178 -0.8744 -1.6806  1.3222
  738SOL    HW2 2214   2.312   0.125   1.045 -0.3421 -0.4085 -1.4321
  739SOL     OW 2215   1.745   2.505   0.417  0.3008 -0.5018  0.5082
  739SOL    HW1 2216   1.754   2.404   0.436  0.5139  1.0347 -0.3875
  739SOL    HW2 2217   1.669   2.536   0.474  2.5269 -0.5778 -0.4724
  740SOL     OW 2218   1.756   0.314   0.829  0.1101  0.2673  0.2348
  740SOL    HW1 2219   1.845   0.350   0.793  1.0270  0.9449  2.1347
  740SOL    HW2 2220   1.683   0.306   0.756  0.4311 -3.1577 -1.1604
  741SOL     OW 2221   2.434   0.932   0.872  0.0403  0.6495 -0.2659
  741SOL    HW1 2222   2.335   0.947   0.896  0.7722  2.2011  0.8496
  741SOL    HW2 2223   2.442   0.935   0.770 -2.4136 -0.6131  1.2284
  742SOL     OW 2224   0.934   1.877   2.084 -0.6849  0.0733  0.0089
  742SOL    HW1 2225   0.997   1.846   2.158  1.6278  2.6556  2.2635
  742SOL    HW2 2226   0.898   1.969   2.103 -0.7062 -0.4053 -2.3223
  743SOL     OW 2227   1.910   0.713   1.827 -0.5883 -0.1007 -0.5983
  743SOL    HW1 2228   2.004   0.751   1.828 -1.1684 -1.5516 -1.5284
  743SOL    HW2 2229   1.907   0.634   1.895 -2.0913 -2.3545  1.0669
  744SOL     OW 2230   2.035   0.837   1.377  0.2755 -0.1651 -0.2465
  744SOL    HW1 2231   2.116   0.825   1.317  1.2399  1.9388  2.8955
  744SOL    HW2 2232   2.070   0.891   1.454 -0.0367 -2.2778 -2.6764
  745SOL     OW 2233   1.806   1.299   1.504  0.4974 -0.1736  0.2739
  745SOL    HW1 2234   1.740   1.373   1.527  1.8775  0.4751 -1.1659
  745SOL    HW2 2235   1.760   1.244   1.433  0.6490  4.0100 -1.3768
  746SOL     OW 2236   2.174   1.753   0.739  0.0542 -0.2176  0.1604
  746SOL    HW1 2237   2.162   1.672   0.799 -2.7151  0.7999 -0.3625
  746SOL    HW2 2238   2.259   1.796   0.760 -0.9600 -1.4144 -3.4018
  747SOL     OW 2239   1.999   1.256   0.863 -0.3622 -0.0183 -0.0251
  747SOL    HW1 2240   1.906   1.285   0.835  2.8603 -1.9439  1.6013
  747SOL    HW2 2241   2.057   1.216   0.787 -1.1197 -0.4647 -1.4919
  748SOL     OW 2242   0.277   2.222   0.802  0.1855  0.1418  0.2408
  748SOL    HW1 2243   0.174   2.196   0.809 -2.5434 -0.8760 -2.0652
  748SOL    HW2 2244   0.324   2.149   0.755 -1.5840  0.3932  1.0228
  749SOL     OW 2245   2.470   0.045   2.175 -0.2125 -0.1622 -0.3050
  749SOL    HW1 2246   2.453   3.040   2.186  2.3011  3.3797  1.4451
  749SOL    HW2 2247   2.382   0.100   2.166 -0.3846 -2.2572 -1.5766
  750SOL     OW 2248   2.477   0.667   0.938 -0.1276 -0.0690 -0.0903
  750SOL    HW1 2249   2.487   0.614   0.852 -1.0085  1.4546 -0.4834
  750SOL    HW2 2250   2.471   0.767   0.911  1.3903  1.4802  4.0036
  751SOL     OW 2251   2.563   2.947   0.476  0.3858 -0.2076 -0.1043
  751SOL    HW1 2252   2.518   2.860   0.450 -4.0889 -1.9109 -2.0615
  751SOL    HW2 2253   2.597   2.996   0.391  2.1419  0.7725  2.2456
  752SOL     OW 2254   0.212   2.731   0.723  0.1957  0.2104 -0.0683
  752SOL    HW1 2255   0.314   2.733   0.738 -0.4615  0.0514 -1.1754
  752SOL    HW2 2256   0.191   2.762   0.627  2.0534  1.4309 -2.0565
  753SOL     OW 2257   1.854   0.475   1.986  0.5503  0.3118  0.0033
  753SOL    HW1 2258   1.757   0.457   1.953  1.3763  0.8264 -0.2825
  753SOL    HW2 2259   1.917   0.424   1.931 -1.9203  1.9101  3.8592
  754SOL     OW 2260   1.599   2.357   1.793  0.1627  0.5238  0.5597
  754SOL    HW1 2261   1.689   2.402   1.805 -0.4516  0.2897  0.3732
  754SOL    HW2 2262   1.561   2.394   1.708 -2.2791 -0.2309  0.7424
  755SOL     OW 2263   2.792   0.521   0.745 -0.2975 -0.1159  0.9987
  755SOL    HW1 2264   2.806   0.559   0.652  0.4422  1.1723  1.3918
  755SOL    HW2 2265   2.697   0.487   0.754 -0.4409 -1.4924  0.1924
  756SOL     OW 2266   0.868   1.633   2.943 -0.0566 -0.0405  0.0373
  756SOL    HW1 2267   0.937   1.565   2.917  0.5778 -1.0493  0.0927
  756SOL    HW2 2268   0.917   1.724   2.946  4.7079 -2.7815 -2.6741
  757SOL     OW 2269   1.223   0.144   0.846 -0.2520 -0.6201  0.0788
  757SOL    HW1 2270   1.233   0.070   0.914 -0.8584 -2.0549 -0.9779
  757SOL    HW2 2271   1.124   0.174   0.845  0.4856  3.0929 -0.2413
  758SOL     OW 2272   0.821   0.128   1.284 -0.2771 -0.2250 -0.1591
  758SOL    HW1 2273   0.802   0.196   1.357 -1.0450  0.7488 -1.3420
  758SOL    HW2 2274   0.870   0.049   1.326 -1.3080 -4.2825  3.6555
  759SOL     OW 2275   0.329   0.498   0.915 -0.1082  0.2880 -0.4121
  759SOL    HW1 2276   0.381   0.577   0.950  1.0120  0.2489  3.3262
  759SOL    HW2 2277   0.258   0.468   0.979  2.1558  0.2667 -0.1445
  760SOL     OW 2278   2.358   1.168   1.238  0.6027  0.1657  0.3210
  760SOL    HW1 2279   2.421   1.105   1.182 -1.9379 -1.2511 -0.4827
  760SOL    HW2 2280   2.266   1.182   1.193  1.4983  0.4667 -0.3759
  761SOL     OW 2281   1.624   0.650   0.518  0.3693  0.3053 -0.1203
  761SOL    HW1 2282   1.548   0.627   0.581  1.5531  0.3415 -2.5399
  761SOL    HW2 2283   1.694   0.576   0.517 -0.3512 -2.1031  2.0474
  762SOL     OW 2284   2.052   2.408   0.863 -0.4203  0.0450  0.3184
  762SOL    HW1 2285   1.977   2.403   0.793 -0.3543 -1.0018  0.9840
  762SOL    HW2 2286   2.036   2.343   0.937  1.0674  2.8330  0.0905
  763SOL     OW 2287   1.513   1.505   1.780  0.1546 -0.1669  0.2774
  763SOL    HW1 2288   1.473   1.554   1.864 -1.9372 -1.5006  2.5909
  763SOL    HW2 2289   1.426   1.474   1.732 -1.6826 -0.6882  2.0379
  764SOL     OW 2290   2.723   2.113   2.437  0.5277 -0.0832  0.5665
  764SOL    HW1 2291   2.816   2.142   2.439  0.0475 -1.7121  1.6792
  764SOL    HW2 2292   2.689   2.097   2.532  0.3403 -0.1767  3.7696
  765SOL     OW 2293   0.826   2.445   0.873 -0.2999  0.1477  0.3020
  765SOL    HW1 2294   0.741   2.402   0.908  0.8840  0.4315  3.0475
  765SOL    HW2 2295   0.862   2.495   0.949  0.8212  0.3094 -3.6843
  766SOL     OW 2296   0.430   1.851   2.394  0.0929  0.3253  0.0353
  766SOL    HW1 2297   0.350   1.831   2.454  0.9618 -1.5623  0.4398
  766SOL    HW2 2298   0.514   1.821   2.437  0.3980 -0.1673  0.2706
  767SOL     OW 2299   2.020   0.906   2.537 -0.6866  0.2092 -0.6174
  767SOL    HW1 2300   1.966   0.991   2.519 -0.5600  1.2691 -1.6912
  767SOL    HW2 2301   1.975   0.848   2.612  0.9310  1.2758  2.0110
  768SOL     OW 2302   1.080   2.728   2.788  0.7007  0.3366 -0.8013
  768SOL    HW1 2303   1.134   2.717   2.702  1.7133 -0.2305  1.3269
  768SOL    HW2 2304   1.087   2.822   2.817  0.2609 -3.8366  0.2329
  769SOL     OW 2305   2.942   2.600   0.800 -0.1713 -0.0205  0.5469
  769SOL    HW1 2306   2.872   2.668   0.813  0.5859 -0.7902 -0.4797
  769SOL    HW2 2307   3.037   2.633   0.821 -0.4613  0.6974 -0.8905
  770SOL     OW 2308   0.560   2.735   0.107  0.5960 -0.2798 -0.4253
  770SOL    HW1 2309   0.586   2.639   0.113 -1.0429  2.3345 -2.2223
  770SOL    HW2 2310   0.632   2.785   0.054  1.9387 -1.7606 -1.0189
  771SOL     OW 2311   1.132   2.234   2.459  0.4317  1.0672  0.1478
  771SOL    HW1 2312   1.195   2.216   2.542 -1.8071 -1.0224  2.5010
  771SOL    HW2 2313   1.038   2.268   2.485 -0.9101  1.1522  0.7662
  772SOL     OW 2314   2.192   0.118   2.122 -0.0172 -0.4974  0.2067
  772SOL    HW1 2315   2.133   0.163   2.187  1.8705  1.1440 -2.5372
  772SOL    HW2 2316   2.146   0.053   2.061 -0.0398  2.7685  1.0449
  773SOL     OW 2317   1.057   3.006   2.051 -0.6228  0.1848  0.1117
  773SOL    HW1 2318   1.043   2.911   2.082  0.7535 -1.5366  0.9432
  773SOL    HW2 2319   1.049   3.070   2.129 -0.7961 -0.0454 -0.7016
  774SOL     OW 2320   1.350   0.759   1.958 -0.2660  0.7749 -0.3081
  774SOL    HW1 2321   1.340   0.856   1.935 -0.0776 -0.4201  0.6508
  774SOL    HW2 2322   1.448   0.742   1.949 -2.0219 -0.2908  1.1384
  775SOL     OW 2323   2.134   3.043   0.408  0.7141  0.1604  0.1235
  775SOL    HW1 2324   2.217   2.987   0.417 -3.8801  2.2851  0.7746
  775SOL    HW2 2325   2.089   3.014   0.319  0.7566  0.2854 -2.1945
  776SOL     OW 2326   2.381   1.226   1.871 -0.3109 -0.2287  0.2233
  776SOL    HW1 2327   2.467   1.230   1.819  1.4940  0.5007 -0.9349
  776SOL    HW2 2328   2.322   1.296   1.827 -1.8493  3.7050 -1.3050
  777SOL     OW 2329   0.078   1.275   2.563 -0.2648  0.1009 -0.2040
  777SOL    HW1 2330   0.108   1.180   2.544 -1.1050 -0.2154  1.7659
  777SOL    HW2 2331   0.068   1.322   2.474  0.8679 -2.1794  0.0666
  778SOL     OW 2332   2.267   1.095   2.364 -0.2788  0.3529  0.7437
  778SOL    HW1 2333   2.198   1.034   2.315 -1.1482  0.6146  3.5419
  778SOL    HW2 2334   2.242   1.120   2.463 -0.1041  3.0288 -1.5453
  779SOL     OW 2335   2.988   0.301   2.822 -0.1656 -0.1004  0.2231
  779SOL    HW1 2336   3.036   0.214   2.847  0.6036 -0.6648  0.9592
  779SOL    HW2 2337   2.953   0.293   2.730  1.7210 -0.1953 -0.8749
  780SOL     OW 2338   2.235   2.938   2.424  0.0229  0.3242 -0.7922
  780SOL    HW1 2339   2.235   3.027   2.470 -1.8808 -0.1808  2.1341
  780SOL    HW2 2340   2.282   2.948   2.335 -0.7586  3.3907  0.9754
  781SOL     OW 2341   0.052   0.869   1.788 -0.3998 -0.3097 -0.1300
  781SOL    HW1 2342   3.066   0.870   1.853 -0.7635 -1.4585 -1.3881
  781SOL    HW2 2343   0.103   0.782   1.805  0.5984 -0.1867 -3.0837
  782SOL     OW 2344   2.204   2.068   0.055 -0.6665  0.1017  0.4153
  782SOL    HW1 2345   2.295   2.035   0.016 -0.2008 -2.4355 -1.7595
  782SOL    HW2 2346   2.219   2.153   0.112 -0.3603 -1.8739  1.7739
  783SOL     OW 2347   0.399   2.266   1.291  0.3409  0.5279 -0.2692
  783SOL    HW1 2348   0.335   2.297   1.219  0.3912  0.9592 -0.4209
  783SOL    HW2 2349   0.495   2.286   1.258 -1.4987 -1.8889  1.5029
  784SOL     OW 2350   2.552   0.716   2.368  0.1925 -0.3991  0.1778
  784SOL    HW1 2351   2.482   0.647   2.345  1.3518 -0.4039 -0.7206
  784SOL    HW2 2352   2.517   0.815   2.351 -0.4191  1.7840  1.2076
  785SOL     OW 2353   0.066   0.195   1.202 -0.6694  0.1452 -0.2744
  785SOL    HW1 2354   3.062   0.224   1.207 -1.3737  0.9802  0.5564
  785SOL    HW2 2355   0.123   0.204   1.290 -0.1606 -0.2488  0.9442
  786SOL     OW 2356   1.292   2.763   0.364 -0.0571  0.1763  0.0015
  786SOL    HW1 2357   1.215   2.699   0.347  0.4460  1.6227 -0.7137
  786SOL    HW2 2358   1.323   2.822   0.287  3.3051  2.7558  0.4177
  787SOL     OW 2359   1.352   0.140   0.594  0.8773  0.0973 -0.3901
  787SOL    HW1 2360   1.282   0.192   0.541  0.5058 -1.2071 -3.1426
  787SOL    HW2 2361   1.318   0.132   0.691 -0.5916 -2.6688  1.1803
  788SOL     OW 2362   2.970   1.453   1.240 -0.3503 -0.2669 -0.2706
  788SOL    HW1 2363   2.986   1.449   1.139  0.0882  0.2784 -0.2008
  788SOL    HW2 2364   3.039   1.399   1.294  1.7977 -0.0840  1.2850
  789SOL     OW 2365   2.805   0.642   1.991  0.4865  0.0599 -0.2533
  789SOL    HW1 2366   2.835   0.737   1.974  0.0971  1.9521 -0.3105
  789SOL    HW2 2367   2.802   0.631   2.091  0.0474 -0.4970  1.1993
  790SOL     OW 2368   0.800   0.403   2.944  0.0724 -0.0934 -0.2934
  790SOL    HW1 2369   0.845   0.326   2.890  1.0466 -1.8587  0.1504
  790SOL    HW2 2370   0.868   0.458   3.002  0.6801  2.7091 -0.0123
  791SOL     OW 2371   2.774   2.816   3.058 -0.3614 -0.4696 -0.5449
  791SOL    HW1 2372   2.728   2.839   2.968  0.2663  2.2075  0.9730
  791SOL    HW2 2373   2.804   2.716   3.055  1.9697 -1.4389 -1.8668
  792SOL     OW 2374   1.628   0.793   1.892  0.3929 -0.4451 -0.0690
  792SOL    HW1 2375   1.657   0.868   1.947 -1.1933 -0.3310  1.0754
  792SOL    HW2 2376   1.705   0.751   1.840  0.8832 -0.8300  0.0553
  793SOL     OW 2377   2.784   0.602   1.367 -0.0344  0.0001 -0.3536
  793SOL    HW1 2378   2.689   0.595   1.328  1.7103 -0.9825  0.3539
  793SOL    HW2 2379   2.848   0.607   1.289  1.9046  1.2378 -1.0224
  794SOL     OW 2380   3.020   0.400   2.384 -0.0229 -0.2302 -0.5389
  794SOL    HW1 2381   3.035   0.498   2.408 -2.7574 -0.4678 -1.2257
  794SOL    HW2 2382   3.051   0.385   2.291  0.1192 -0.5391  0.2721
  795SOL     OW 2383   0.636   1.844   3.053  0.7559 -0.0417 -0.4372
  795SOL    HW1 2384   0.549   1.868   0.004 -1.3347  0.2080  0.6971
  795SOL    HW2 2385   0.712   1.820   0.018  0.1087  1.9130 -0.2736
  796SOL     OW 2386   2.402   0.709   2.889 -0.0398  0.1908  0.3948
  796SOL    HW1 2387   2.351   0.760   2.820 -0.9758  1.2216  1.1500
  796SOL    HW2 2388   2.430   0.615   2.861  1.3498  1.2689 -2.4577
  797SOL     OW 2389   2.659   2.044   2.684 -1.0180  0.1405 -0.2863
  797SOL    HW1 2390   2.605   1.963   2.715 -1.6552  1.6476  0.0088
  797SOL    HW2 2391   2.652   2.119   2.750 -0.4065  0.8015 -1.4044
  798SOL     OW 2392   2.777   0.196   1.360  0.3966 -0.1156  0.2008
  798SOL    HW1 2393   2.832   0.214   1.447 -1.4677 -1.1541 -0.4534
  798SOL    HW2 2394   2.831   0.209   1.274  0.1443  1.1893 -0.9429
  799SOL     OW 2395   0.350   0.322   1.558 -0.0246  0.0517  0.1807
  799SOL    HW1 2396   0.391   0.359   1.472  1.8343  0.0220  0.2307
  799SOL    HW2 2397   0.418   0.294   1.625 -0.1903 -0.4769 -2.6457
  800SOL     OW 2398   0.359   1.660   0.232 -0.5416 -0.5415 -0.0576
  800SOL    HW1 2399   0.260   1.668   0.217  1.1717  0.4623 -1.5767
  800SOL    HW2 2400   0.385   1.560   0.229 -2.4495 -0.7652  1.4932
  801SOL     OW 2401   1.793   1.746   0.770 -0.3888  0.3157 -0.1821
  801SOL    HW1 2402   1.836   1.833   0.798  0.7422 -3.4019  0.4553
  801SOL    HW2 2403   1.793   1.681   0.847 -1.9316  0.0528 -3.7405
  802SOL     OW 2404   1.313   1.096   0.125  0.2772  0.6904 -0.0020
  802SOL    HW1 2405   1.281   1.080   0.026  0.8962 -0.5884 -2.3888
  802SOL    HW2 2406   1.399   1.150   0.128 -0.7153  3.4193  1.9691
  803SOL     OW 2407   1.201   1.633   1.780  0.1020 -0.1915 -0.7158
  803SOL    HW1 2408   1.254   1.620   1.693  1.6286 -0.0453 -2.4705
  803SOL    HW2 2409   1.122   1.571   1.793  1.1425  0.7253 -2.0067
  804SOL     OW 2410   1.643   2.289   0.978 -0.2988 -0.3095  0.5494
  804SOL    HW1 2411   1.702   2.206   1.007  0.9621 -2.5728 -0.3898
  804SOL    HW2 2412   1.629   2.285   0.879 -0.3631  1.0927  2.5932
  805SOL     OW 2413   0.207   2.362   2.235  0.0092  0.0715 -0.2827
  805SOL    HW1 2414   0.138   2.337   2.166 -1.2926 -0.6055  1.1226
  805SOL    HW2 2415   0.296   2.344   2.197 -0.6351 -1.8013 -1.0720
  806SOL     OW 2416   0.929   0.050   0.180  0.0097 -0.2370 -0.5113
  806SOL    HW1 2417   0.961   0.147   0.168  1.2948  1.3080 -2.0724
  806SOL    HW2 2418   0.856   0.039   0.251  0.8296  0.1399 -1.2702
  807SOL     OW 2419   2.503   1.038   2.820 -0.3450  0.4371  0.0905
  807SOL    HW1 2420   2.562   0.990   2.887 -1.5952 -0.9190  0.3718
  807SOL    HW2 2421   2.558   1.062   2.734 -0.5819  1.1471 -2.0108
  808SOL     OW 2422   1.444   2.045   0.838 -0.0994  0.0069 -0.1533
  808SOL    HW1 2423   1.507   2.113   0.795 -0.6979 -0.6875 -0.7125
  808SOL    HW2 2424   1.348   2.079   0.822  1.0489 -1.0107  0.9609
  809SOL     OW 2425   0.301   3.051   0.586  0.3212 -0.2148  0.0238
  809SOL    HW1 2426   0.245   2.975   0.542 -0.0620 -0.6846 -0.7821
  809SOL    HW2 2427   0.299   0.037   0.521  0.1030  2.0366  0.4600
  810SOL     OW 2428   1.123   1.785   0.808  0.8003 -0.0315 -0.1789
  810SOL    HW1 2429   1.134   1.685   0.835 -0.9624 -0.7794 -0.5693
  810SOL    HW2 2430   1.056   1.789   0.729 -0.8673 -0.1327 -0.4588
  811SOL     OW 2431   1.390   2.915   1.300  0.0138  0.5447  0.3517
  811SOL    HW1 2432   1.428   2.818   1.303 -0.2455  1.3608 -0.3211
  811SOL    HW2 2433   1.448   2.972   1.241  0.5814  0.4274  1.3033
  812SOL     OW 2434   1.209   0.020   0.365  0.1058  0.4034  0.3218
  812SOL    HW1 2435   1.113   3.092   0.395  0.5241 -1.4411 -0.2664
  812SOL    HW2 2436   1.269   0.026   0.445  2.7109  1.7613 -0.7056
  813SOL     OW 2437   0.993   0.049   2.252  0.2260 -0.1774  0.5829
  813SOL    HW1 2438   1.043   0.125   2.298 -0.9657 -2.8651 -1.4427
  813SOL    HW2 2439   0.966   3.073   2.320  3.6637  0.2032 -2.7882
  814SOL     OW 2440   0.808   2.837   0.926 -0.0424 -0.5571  0.2282
  814SOL    HW1 2441   0.825   2.768   0.997 -3.6866  3.2694  3.4071
  814SOL    HW2 2442   0.821   2.804   0.828 -1.3004 -0.4864  0.9898
  815SOL     OW 2443   0.251   2.496   0.409  0.1187  0.2387  0.6724
  815SOL    HW1 2444   0.203   2.481   0.318 -1.6662  0.4463  1.8530
  815SOL    HW2 2445   0.330   2.561   0.390 -1.0202  0.5375  1.3248
  816SOL     OW 2446   2.306   1.479   2.652  0.3320  0.5483 -0.2832
  816SOL    HW1 2447   2.304   1.479   2.751  1.5041 -1.1062  4.8916
  816SOL    HW2 2448   2.404   1.463   2.614  1.0297 -0.1389 -0.6461
  817SOL     OW 2449   1.907   2.520   2.772 -0.1792 -0.3938  0.0400
  817SOL    HW1 2450   1.958   2.506   2.684 -1.6797  1.8929 -0.6902
  817SOL    HW2 2451   1.869   2.617   2.783 -3.0456  1.9699  0.6812
  818SOL     OW 2452   1.255   1.416   0.514 -0.1710 -0.3466  0.5621
  818SOL    HW1 2453   1.289   1.334   0.556  1.2964  1.2171  0.6627
  818SOL    HW2 2454   1.338   1.472   0.498  2.4685  0.4638 -1.2845
  819SOL     OW 2455   1.508   1.960   2.914 -0.1423 -0.3999  0.1389
  819SOL    HW1 2456   1.468   1.983   3.001 -1.0561  1.3653 -3.2427
  819SOL    HW2 2457   1.437   1.919   2.851 -2.3338 -1.6127 -0.7669
  820SOL     OW 2458   0.670   0.763   0.171 -0.0139  0.6560  0.3058
  820SOL    HW1 2459   0.628   0.805   0.084 -3.7118  0.7011 -2.3854
  820SOL    HW2 2460   0.649   0.661   0.173 -2.1419 -0.5845 -3.2149
  821SOL     OW 2461   0.558   0.128   1.226  0.1090  0.0853  0.1137
  821SOL    HW1 2462   0.527   0.213   1.184 -1.6960  0.8946 -1.0214
  821SOL    HW2 2463   0.661   0.131   1.244  2.6127  1.4454  1.4363
  822SOL     OW 2464   1.940   2.222   2.381  0.1080 -0.1665  0.2552
  822SOL    HW1 2465   2.032   2.244   2.342  1.3065  1.0256 -0.3728
  822SOL    HW2 2466   1.932   2.129   2.417  3.0074  0.4703  1.4828
  823SOL     OW 2467   1.016   0.496   2.075  0.3754 -0.8543 -0.4587
  823SOL    HW1 2468   1.102   0.541   2.110  2.5804  1.9121 -1.1266
  823SOL    HW2 2469   0.943   0.487   2.146  0.1205 -1.9695  2.0167
  824SOL     OW 2470   2.226   0.150   1.636 -0.1965 -0.0607 -0.0808
  824SOL    HW1 2471   2.166   0.229   1.631  1.2665 -3.8047 -0.4968
  824SOL    HW2 2472   2.182   0.064   1.607 -1.0401  0.9039 -1.0295
  825SOL     OW 2473   0.662   1.192   3.028 -0.5969  0.1777 -0.1970
  825SOL    HW1 2474   0.755   1.156   3.053 -0.6727  5.2926 -1.4350
  825SOL    HW2 2475   0.581   1.158   3.078  1.9706  0.6835 -1.4604
  826SOL     OW 2476   1.853   0.494   2.553 -0.1045 -0.0952 -0.0213
  826SOL    HW1 2477   1.932   0.430   2.541  0.4931  1.1077  2.1774
  826SOL    HW2 2478   1.789   0.486   2.476  3.1850  0.4295  0.1815
  827SOL     OW 2479   0.862   2.247   2.472  0.8912  0.0063  0.3915
  827SOL    HW1 2480   0.783   2.264   2.410  0.1057  1.4482  0.8203
  827SOL    HW2 2481   0.842   2.283   2.566  0.2679 -1.4686  0.2074
  828SOL     OW 2482   2.516   0.317   1.468 -0.1921 -0.1646  0.1517
  828SOL    HW1 2483   2.600   0.259   1.461 -0.1667 -0.7795  0.8485
  828SOL    HW2 2484   2.440   0.264   1.426  1.7530 -1.2659  1.7614
  829SOL     OW 2485   1.318   1.670   1.520 -0.6099 -0.5256  0.3957
  829SOL    HW1 2486   1.379   1.620   1.450  1.7712 -0.9625 -0.5488
  829SOL    HW2 2487   1.219   1.649   1.507 -1.2799 -0.7631  2.8064
  830SOL     OW 2488   0.857   0.945   1.756  0.5360  0.2716 -0.2533
  830SOL    HW1 2489   0.901   0.878   1.690 -2.2320 -2.5732 -0.4081
  830SOL    HW2 2490   0.802   0.888   1.821 -0.5604 -2.7531 -3.5302
  831SOL     OW 2491   3.016   1.807   0.260  0.4686 -0.1222  0.0971
  831SOL    HW1 2492   3.027   1.816   0.162 -1.1142 -0.9166  0.3119
  831SOL    HW2 2493   0.009   1.829   0.305 -1.6249  1.0171 -1.4590
  832SOL     OW 2494   0.981   2.709   0.320  0.4986 -0.8609  0.5806
  832SOL    HW1 2495   0.893   2.758   0.353 -3.6662  0.4156  2.7706
  832SOL    HW2 2496   1.010   2.735   0.223  1.6317 -1.2470 -1.9916
  833SOL     OW 2497   2.913   0.253   1.586  0.5386 -0.8111  0.2418
  833SOL    HW1 2498   2.855   0.196   1.647 -1.7922  0.5314 -1.5536
  833SOL    HW2 2499   2.938   0.337   1.637  0.0143  0.0568  2.7550
  834SOL     OW 2500   3.083   1.165   0.879  0.2201  0.5960 -0.1891
  834SOL    HW1 2501   0.040   1.220   0.807  0.8191 -0.4307 -1.4081
  834SOL    HW2 2502   3.070   1.068   0.849 -0.5958 -1.0798 -1.5354
  835SOL     OW 2503   2.439   2.913   1.185 -0.1194 -0.3345  0.4650
  835SOL    HW1 2504   2.393   2.918   1.093 -2.2810 -1.5567  0.7817
  835SOL    HW2 2505   2.499   2.995   1.196  0.8239  0.9556 -1.6821
  836SOL     OW 2506   1.095   1.750   2.653  0.5567  0.0764 -0.1388
  836SOL    HW1 2507   1.023   1.822   2.638  1.4010 -0.8766  0.5973
  836SOL    HW2 2508   1.068   1.657   2.613 -3.4925 -2.1880 -3.0379
  837SOL     OW 2509   1.760   1.812   2.873  0.7816  0.4425  0.1708
  837SOL    HW1 2510   1.669   1.854   2.890  4.0105  1.8307 -0.3640
  837SOL    HW2 2511   1.826   1.881   2.861 -2.6450 -3.4513  1.3919
  838SOL     OW 2512   0.176   0.628   2.265 -0.1254  0.0306 -0.4319
  838SOL    HW1 2513   0.246   0.601   2.335  0.4890  0.1260 -3.3790
  838SOL    HW2 2514   0.135   0.543   2.226  0.3815 -0.9482 -1.1420
  839SOL     OW 2515   0.762   0.885   2.758  0.2341 -0.6029  0.4410
  839SOL    HW1 2516   0.778   0.960   2.691 -0.2920 -1.5384 -0.2672
  839SOL    HW2 2517   0.856   0.853   2.786  0.4372  2.3854  0.8132
  840SOL     OW 2518   1.581   0.717   0.249 -0.3813 -0.2358  0.2512
  840SOL    HW1 2519   1.603   0.696   0.349 -0.5721  1.1154  0.5221
  840SOL    HW2 2520   1.480   0.703   0.230  0.3725  0.3127  1.5617
  841SOL     OW 2521   0.664   2.711   0.566 -0.5664 -0.3713 -0.6797
  841SOL    HW1 2522   0.591   2.686   0.636 -1.6866  0.2607  2.1794
  841SOL    HW2 2523   0.661   2.812   0.554 -0.3947  2.3195 -0.5492
  842SOL     OW 2524   0.188   0.574   0.370  0.3155  0.5070 -0.6887
  842SOL    HW1 2525   0.098   0.531   0.358  1.3917 -1.3986  0.7596
  842SOL    HW2 2526   0.192   0.671   0.403  1.1838  1.2540  1.8170
  843SOL     OW 2527   0.406   0.809   1.273  0.1025 -0.3077 -0.0180
  843SOL    HW1 2528   0.468   0.796   1.354  1.4600  1.1759 -2.9788
  843SOL    HW2 2529   0.342   0.885   1.284 -1.4852 -1.8435 -0.1402
  844SOL     OW 2530   2.090   2.493   2.556  0.4121 -0.5092  0.2159
  844SOL    HW1 2531   2.162   2.474   2.625 -1.2047 -1.4239 -1.3989
  844SOL    HW2 2532   2.085   2.424   2.485  1.4855  3.1781 -3.1458
  845SOL     OW 2533   2.096   3.035   1.561  0.4139 -0.1631  0.5997
  845SOL    HW1 2534   2.019   2.978   1.595 -2.0248  2.5169 -2.1055
  845SOL    HW2 2535   2.150   2.983   1.489  2.3395 -0.9725 -0.4470
  846SOL     OW 2536   2.487   1.704   2.453 -0.2296  0.5915 -0.3266
  846SOL    HW1 2537   2.438   1.642   2.384  1.3110 -0.0732 -2.0745
  846SOL    HW2 2538   2.420   1.761   2.501  0.9885 -0.2236  2.9981
  847SOL     OW 2539   2.092   3.011   1.972 -0.2156 -0.0554  0.2738
  847SOL    HW1 2540   2.014   2.946   2.003 -1.8922 -1.3019 -1.8548
  847SOL    HW2 2541   2.171   2.962   1.927 -0.8080  1.2655  0.5080
  848SOL     OW 2542   0.046   2.837   0.226 -0.0111  0.0166  0.1724
  848SOL    HW1 2543   3.085   2.854   0.139  0.2384  0.0251 -2.9531
  848SOL    HW2 2544   3.087   2.844   0.311 -1.1187  1.5059  0.5566
  849SOL     OW 2545   0.451   2.985   1.175 -0.2974  0.4197  0.1190
  849SOL    HW1 2546   0.490   3.066   1.220 -1.1746  1.3952  2.6086
  849SOL    HW2 2547   0.487   2.979   1.078  0.4960  0.8711  0.5873
  850SOL     OW 2548   0.140   1.767   0.867 -0.5667 -0.5520 -0.5514
  850SOL    HW1 2549   0.132   1.851   0.933  1.8993  1.0724  1.9643
  850SOL    HW2 2550   0.241   1.764   0.842  2.0711  0.2443 -0.0889
  851SOL     OW 2551   2.573   0.856   3.018  0.0763  0.2494  0.5725
  851SOL    HW1 2552   2.502   0.796   2.975 -2.7093 -0.0112 -0.8049
  851SOL    HW2 2553   2.658   0.800   3.024  0.7471  1.3646  2.4370
  852SOL     OW 2554   1.950   1.980   2.556 -0.1739 -0.1536 -0.2809
  852SOL    HW1 2555   1.887   1.902   2.576 -1.0785  0.2489  0.6745
  852SOL    HW2 2556   1.948   2.046   2.630 -1.4038 -0.1705 -0.7814
  853SOL     OW 2557   0.611   1.713   0.330  0.3874  0.2163 -0.5341
  853SOL    HW1 2558   0.517   1.697   0.297  2.2063  0.1704  1.4924
  853SOL    HW2 2559   0.674   1.746   0.255  0.0098  1.2174 -0.6347
  854SOL     OW 2560   1.650   1.064   2.062  0.1177 -0.0011 -0.4935
  854SOL    HW1 2561   1.548   1.052   2.064 -3.0224 -2.3197  1.1549
  854SOL    HW2 2562   1.677   1.164   2.057 -0.3953  0.3543 -1.2297
  855SOL     OW 2563   0.740   2.209   3.091 -0.3622 -0.3748  0.3942
  855SOL    HW1 2564   0.675   2.193   0.070 -0.5268  0.1253 -2.0431
  855SOL    HW2 2565   0.691   2.240   3.008 -1.4158 -0.5250  0.8230
  856SOL     OW 2566   0.509   0.080   2.056  0.5135 -0.0009 -0.1430
  856SOL    HW1 2567   0.533   0.022   1.972 -1.4034  0.2794 -0.2963
  856SOL    HW2 2568   0.583   0.078   2.122 -1.0804 -1.1497 -0.6710
  857SOL     OW 2569   0.700   0.139   1.814 -0.1475 -0.3645 -0.3413
  857SOL    HW1 2570   0.790   0.182   1.831  1.3488  2.3982  0.1442
  857SOL    HW2 2571   0.627   0.210   1.813  0.4081  1.5029  1.9017
  858SOL     OW 2572   0.208   2.047   2.089 -0.2910  0.1763  0.5570
  858SOL    HW1 2573   0.255   2.065   2.176 -0.6633  0.1733  1.4175
  858SOL    HW2 2574   0.243   2.101   2.012  0.8055 -0.2950  3.0319
  859SOL     OW 2575   2.008   2.228   1.076 -0.1254  0.0370  0.3185
  859SOL    HW1 2576   1.975   2.290   1.147  3.3007 -1.7853 -3.7210
  859SOL    HW2 2577   1.933   2.165   1.044 -1.0140  1.4305 -1.4235
  860SOL     OW 2578   1.998   0.416   0.654 -0.1611 -0.0635  0.3020
  860SOL    HW1 2579   2.073   0.361   0.694 -1.4678 -3.2071  0.6596
  860SOL    HW2 2580   2.024   0.515   0.653  2.0549  0.5864 -0.1069
  861SOL     OW 2581   0.118   0.448   1.085  0.0200 -0.4371  0.1861
  861SOL    HW1 2582   0.080   0.520   1.150 -0.8389  1.1581  2.0440
  861SOL    HW2 2583   0.069   0.359   1.103 -2.0151 -1.2033  1.9664
  862SOL     OW 2584   2.242   0.775   1.771  0.7956 -0.0195  0.2651
  862SOL    HW1 2585   2.255   0.829   1.860  1.2153  0.0531  1.0234
  862SOL    HW2 2586   2.239   0.840   1.693  1.7971 -0.4865 -0.1475
  863SOL     OW 2587   0.400   1.196   1.461  0.3411  0.3621 -0.0323
  863SOL    HW1 2588   0.339   1.208   1.542 -0.8341  2.3290 -1.3817
  863SOL    HW2 2589   0.438   1.281   1.421 -1.6263 -0.8551 -1.0396
  864SOL     OW 2590   2.437   3.030   1.758 -0.1470  0.1711  0.1442
  864SOL    HW1 2591   2.477   3.051   1.663  0.0797  0.1514  0.7553
  864SOL    HW2 2592   2.474   3.090   1.831 -0.7610 -0.9688 -1.3425
  865SOL     OW 2593   1.337   0.359   2.313 -0.5356 -0.3753  0.2144
  865SOL    HW1 2594   1.362   0.299   2.235  1.8131 -0.0140  1.7045
  865SOL    HW2 2595   1.400   0.348   2.390  0.4934  2.7862  3.7341
  866SOL     OW 2596   2.172   2.723   0.517 -0.5284 -0.0925  0.3265
  866SOL    HW1 2597   2.217   2.722   0.608  1.2472  0.0602  3.4890
  866SOL    HW2 2598   2.223   2.789   0.459  2.5553 -0.2348  0.7611
  867SOL     OW 2599   2.541   2.742   0.765 -0.1085 -0.6534 -0.3304
  867SOL    HW1 2600   2.583   2.824   0.727  1.5545  0.3884  0.5305
  867SOL    HW2 2601   2.600   2.714   0.841 -0.2503 -1.6028 -0.3360
  868SOL     OW 2602   1.653   1.487   2.856 -0.0041  0.1783 -0.6450
  868SOL    HW1 2603   1.599   1.445   2.779 -0.5221 -2.7155 -0.3258
  868SOL    HW2 2604   1.679   1.581   2.834 -0.8774  0.1517 -2.7028
  869SOL     OW 2605   2.550   2.019   0.614 -0.6366  0.5165  0.2255
  869SOL    HW1 2606   2.582   2.092   0.679  0.7737 -2.1055 -0.6732
  869SOL    HW2 2607   2.508   2.063   0.532  0.5983 -0.5080  2.0349
  870SOL     OW 2608   2.777   1.911   0.303  0.0401  0.4238  1.1057
  870SOL    HW1 2609   2.866   1.880   0.264 -0.0754 -1.6070  0.3691
  870SOL    HW2 2610   2.723   1.836   0.350 -0.6593 -1.4747  0.6553
  871SOL     OW 2611   0.249   1.028   1.312  0.0208  0.1855 -0.2742
  871SOL    HW1 2612   0.309   1.095   1.366  0.6256  0.2677 -1.0328
  871SOL    HW2 2613   0.153   1.032   1.334  2.3166  0.8787  0.9990
  872SOL     OW 2614   0.768   1.611   2.432  0.1116  0.3185 -0.0559
  872SOL    HW1 2615   0.748   1.639   2.334  1.5213  1.2026 -0.3489
  872SOL    HW2 2616   0.705   1.662   2.497 -0.0860  1.0017  1.5422
  873SOL     OW 2617   0.276   2.886   1.665 -0.0894  0.2479 -0.2803
  873SOL    HW1 2618   0.254   2.807   1.725  0.3524  1.6186 -2.0739
  873SOL    HW2 2619   0.372   2.897   1.649 -0.5198 -1.1068 -0.7426
  874SOL     OW 2620   1.248   0.605   2.175  0.5118  0.2127  0.2658
  874SOL    HW1 2621   1.301   0.646   2.095  0.9508  1.0467 -0.4606
  874SOL    HW2 2622   1.290   0.522   2.215 -0.3528  1.1093 -1.2255
  875SOL     OW 2623   2.612   0.014   1.215  0.0302  0.4206  0.5614
  875SOL    HW1 2624   2.686   0.063   1.264 -1.5052  0.0759  1.0958
  875SOL    HW2 2625   2.571   0.081   1.150  1.9361 -0.4879  0.3656
  876SOL     OW 2626   0.853   1.125   0.531  0.0188 -0.0449  0.3692
  876SOL    HW1 2627   0.817   1.041   0.485 -0.8913 -0.6827  0.5049
  876SOL    HW2 2628   0.922   1.175   0.470  1.4993  2.0231 -2.5232
  877SOL     OW 2629   1.191   0.950   1.566  0.6203  0.2689  0.3314
  877SOL    HW1 2630   1.189   0.877   1.636  1.0471 -0.7332 -0.1360
  877SOL    HW2 2631   1.181   0.903   1.476  3.4864  3.3528 -1.6493
  878SOL     OW 2632   2.433   2.136   0.418  0.2444  0.1429 -0.2323
  878SOL    HW1 2633   2.442   2.098   0.324  1.7379  0.3106 -1.6659
  878SOL    HW2 2634   2.483   2.224   0.425 -0.8244 -3.9811  0.9007
  879SOL     OW 2635   2.671   1.883   1.760 -0.3086  0.0968 -0.2082
  879SOL    HW1 2636   2.726   1.848   1.685 -1.7031  0.5630  1.2198
  879SOL    HW2 2637   2.690   1.980   1.777 -1.0951 -2.2664 -1.5798
  880SOL     OW 2638   1.127   2.613   1.109  0.1865  0.1345 -0.2527
  880SOL    HW1 2639   1.193   2.658   1.046  2.0307  1.6379  2.2738
  880SOL    HW2 2640   1.167   2.527   1.147  0.4695 -1.0165  0.9720
  881SOL     OW 2641   0.676   1.923   0.485  0.3561  0.1898 -0.1227
  881SOL    HW1 2642   0.641   1.845   0.429  1.8110  0.0559 -0.0032
  881SOL    HW2 2643   0.624   2.011   0.456 -2.5984  0.9523 -0.7339
  882SOL     OW 2644   2.015   1.141   0.380  0.4341 -0.2666 -0.0112
  882SOL    HW1 2645   2.004   1.203   0.301  2.5439  1.2324 -1.9831
  882SOL    HW2 2646   2.000   1.043   0.363 -1.1558  1.6976 -1.0133
  883SOL     OW 2647   1.496   0.727   0.910 -0.4677 -0.3991  0.4439
  883SOL    HW1 2648   1.482   0.811   0.966  1.0211  0.7186 -0.9563
  883SOL    HW2 2649   1.568   0.741   0.839  1.4272 -1.3521 -1.1929
  884SOL     OW 2650   2.792   2.720   0.463 -0.2684  0.3091 -0.3666
  884SOL    HW1 2651   2.787   2.774   0.374 -0.9608 -0.6728 -0.2852
  884SOL    HW2 2652   2.772   2.780   0.538 -0.7347  0.6393 -3.4550
  885SOL     OW 2653   1.104   1.380   2.261 -0.6358  0.0975 -1.0702
  885SOL    HW1 2654   1.049   1.375   2.179  2.6863 -2.1528  0.0643
  885SOL    HW2 2655   1.179   1.314   2.265 -2.5515 -0.7091 -0.2632
  886SOL     OW 2656   1.134   1.762   2.250  0.0288  0.5583 -0.2250
  886SOL    HW1 2657   1.108   1.666   2.273  0.0930 -1.4556 -2.0212
  886SOL    HW2 2658   1.230   1.785   2.277 -2.1434  1.1773  3.6323
  887SOL     OW 2659   1.137   0.588   1.072 -0.2063 -0.0893 -0.0295
  887SOL    HW1 2660   1.171   0.511   1.014 -0.9081  2.8879 -2.0121
  887SOL    HW2 2661   1.119   0.672   1.013  0.3574 -0.1810 -2.3016
  888SOL     OW 2662   2.517   0.864   2.061  0.2601 -0.4942  0.3813
  888SOL    HW1 2663   2.526   0.764   2.071  1.7941  2.7128 -1.1875
  888SOL    HW2 2664   2.565   0.918   2.133 -2.3796 -0.8015  0.2244
  889SOL     OW 2665   3.085   2.138   0.853  0.0938  0.0126 -0.1769
  889SOL    HW1 2666   3.054   2.087   0.772  3.3212 -0.3908 -1.4226
  889SOL    HW2 2667   3.021   2.216   0.886 -1.1934  1.7945  1.0661
  890SOL     OW 2668   1.384   2.160   0.426  0.3531  0.2177  0.2400
  890SOL    HW1 2669   1.469   2.107   0.435  0.1237  0.0839  3.0727
  890SOL    HW2 2670   1.302   2.095   0.435 -1.5659 -1.8080  0.9667
  891SOL     OW 2671   2.823   0.720   3.049  0.6452  0.1492  0.3564
  891SOL    HW1 2672   2.887   0.746   0.028  2.3855 -1.9437 -1.2546
  891SOL    HW2 2673   2.861   0.739   2.957  0.8062  2.8826  4.0083
  892SOL     OW 2674   2.902   2.335   0.944 -0.1602 -0.1096  0.2568
  892SOL    HW1 2675   2.941   2.426   0.919 -1.0480 -0.9044 -0.6465
  892SOL    HW2 2676   2.827   2.341   1.017 -0.6447 -0.7094  1.8910
  893SOL     OW 2677   1.251   0.402   0.924 -0.6474 -0.3478 -0.3988
  893SOL    HW1 2678   1.239   0.305   0.920  1.9522  0.2629 -0.7619
  893SOL    HW2 2679   1.352   0.419   0.916  0.7999  0.3546 -0.2363
  894SOL     OW 2680   2.965   0.347   0.866 -0.3476  0.1622  0.0896
  894SOL    HW1 2681   3.063   0.347   0.844 -3.2642  1.2069 -0.3027
  894SOL    HW2 2682   2.922   0.430   0.837  4.5572 -2.1917 -0.2917
  895SOL     OW 2683   1.993   1.523   2.642  0.3008 -0.3238 -0.7533
  895SOL    HW1 2684   2.070   1.520   2.574  0.4578  0.6137 -1.8701
  895SOL    HW2 2685   2.004   1.463   2.722 -2.3538 -1.9744  0.4037
  896SOL     OW 2686   1.950   0.588   1.384  0.0966  0.0635 -0.0639
  896SOL    HW1 2687   1.991   0.681   1.374 -1.2945 -1.4030  1.2448
  896SOL    HW2 2688   1.897   0.567   1.297 -2.5935  1.0916  0.5129
  897SOL     OW 2689   0.077   1.390   1.441 -0.0967 -0.2293 -0.2240
  897SOL    HW1 2690   0.058   1.299   1.484  3.9995 -4.9226 -0.2012
  897SOL    HW2 2691   0.145   1.368   1.368  0.3047 -0.9523 -0.5994
  898SOL     OW 2692   2.007   2.489   2.063 -0.1340 -0.2533 -0.2411
  898SOL    HW1 2693   2.099   2.525   2.027  2.3554  2.7184 -0.9418
  898SOL    HW2 2694   2.003   2.386   2.059  1.3002 -0.3349  0.2654
  899SOL     OW 2695   1.048   1.733   1.186  0.1593  0.5885  0.3510
  899SOL    HW1 2696   1.042   1.810   1.252  2.6230 -0.7842  0.0472
  899SOL    HW2 2697   0.956   1.711   1.152  0.1423  4.1756  0.6481
  900SOL     OW 2698   1.492   2.423   2.466 -0.0378 -0.3455 -0.0460
  900SOL    HW1 2699   1.539   2.354   2.410 -0.2040  1.3282  0.4703
  900SOL    HW2 2700   1.488   2.511   2.416 -0.9502 -2.3107  1.4328
  901SOL     OW 2701   0.751   1.698   2.157 -0.5917  0.2612  0.0777
  901SOL    HW1 2702   0.725   1.643   2.078 -3.1065  0.1676  1.7397
  901SOL    HW2 2703   0.815   1.770   2.126 -2.2944 -0.0330 -1.3252
  902SOL     OW 2704   2.197   1.409   0.156  0.0059  0.0498 -0.3048
  902SOL    HW1 2705   2.276   1.356   0.199  1.2355 -1.0092  1.5803
  902SOL    HW2 2706   2.124   1.436   0.228 -1.8086 -0.6897 -0.5277
  903SOL     OW 2707   1.998   1.558   3.084 -0.2312 -0.2581 -0.2573
  903SOL    HW1 2708   2.053   1.497   0.048  0.5052  0.6996  1.2211
  903SOL    HW2 2709   1.934   1.616   0.044 -1.5034 -0.4538 -0.4430
  904SOL     OW 2710   1.492   1.027   2.401 -0.1778  0.4200  0.5800
  904SOL    HW1 2711   1.497   0.932   2.364  1.0096 -2.2773 -2.0216
  904SOL    HW2 2712   1.398   1.057   2.432 -1.7798  2.5400 -0.9959
  905SOL     OW 2713   2.610   0.305   1.031  0.4487  0.2855 -0.1430
  905SOL    HW1 2714   2.528   0.245   1.049 -0.3012  1.2487 -0.7024
  905SOL    HW2 2715   2.621   0.376   1.104 -0.1228  0.2623  1.1618
  906SOL     OW 2716   0.144   1.890   0.390  0.3954 -0.1158  0.5625
  906SOL    HW1 2717   0.178   1.981   0.407 -1.6153 -0.5866  2.4434
  906SOL    HW2 2718   0.151   1.833   0.476  0.7582 -2.6527 -0.9092
  907SOL     OW 2719   1.549   0.210   0.143 -0.1993  0.7130 -0.4709
  907SOL    HW1 2720   1.455   0.179   0.120  1.8407 -0.8620  0.3596
  907SOL    HW2 2721   1.551   0.220   0.241 -0.7141  2.1770 -3.9112
  908SOL     OW 2722   1.566   2.663   1.724 -0.2216 -0.1213 -0.0505
  908SOL    HW1 2723   1.600   2.622   1.807 -3.3865  0.7827 -1.7035
  908SOL    HW2 2724   1.513   2.745   1.756 -1.2500 -0.5410  0.1762
  909SOL     OW 2725   2.652   0.902   1.836  0.3866 -0.1323 -0.1191
  909SOL    HW1 2726   2.661   0.822   1.775  1.5711 -0.8039 -0.4848
  909SOL    HW2 2727   2.602   0.886   1.928 -1.0101  1.0679 -1.1100
  910SOL     OW 2728   1.272   0.035   2.486  0.6162 -0.5635 -0.3044
  910SOL    HW1 2729   1.333   0.027   2.565 -2.2021  0.6060 -1.1028
  910SOL    HW2 2730   1.284   3.051   2.423  1.7932 -2.0389  1.0126
  911SOL     OW 2731   2.614   1.370   2.517 -0.1244  0.9210  0.8627
  911SOL    HW1 2732   2.623   1.269   2.541 -0.2563 -2.6137  0.6370
  911SOL    HW2 2733   2.628   1.390   2.418  0.6660 -1.8894  0.5111
  912SOL     OW 2734   2.469   2.213   1.407 -0.2705 -0.3968 -0.0072
  912SOL    HW1 2735   2.550   2.256   1.451 -0.3812 -0.7829 -2.4981
  912SOL    HW2 2736   2.433   2.137   1.464 -1.2779  0.4997 -0.3891
  913SOL     OW 2737   2.691   2.350   1.525  0.2657 -0.0010  0.6039
  913SOL    HW1 2738   2.744   2.357   1.613 -1.7229  1.1901 -1.8041
  913SOL    HW2 2739   2.725   2.427   1.468 -0.2327  0.6257  2.2262
  914SOL     OW 2740   2.442   2.059   1.154 -0.2942 -0.0231 -0.0073
  914SOL    HW1 2741   2.456   2.080   1.250  0.9610  0.8025 -4.0838
  914SOL    HW2 2742   2.344   2.036   1.142  2.0241 -0.3921  1.6058
  915SOL     OW 2743   1.236   2.456   1.492  0.2132  0.5374  0.2756
  915SOL    HW1 2744   1.166   2.393   1.534  1.7417 -2.0990  0.1574
  915SOL    HW2 2745   1.333   2.430   1.511 -3.8641  1.9991 -0.1905
  916SOL     OW 2746   2.668   2.637   0.989  0.0784  0.8301  0.6052
  916SOL    HW1 2747   2.612   2.634   1.074 -0.9871 -3.5876  2.0273
  916SOL    HW2 2748   2.713   2.548   0.973  0.3685 -0.2576 -1.5293
  917SOL     OW 2749   2.947   1.017   2.920  0.1408 -0.3314  0.4506
  917SOL    HW1 2750   2.917   0.929   2.877 -0.0367 -0.3198 -1.1032
  917SOL    HW2 2751   2.916   1.090   2.854  0.0611  1.6308 -2.0033
  918SOL     OW 2752   1.807   1.753   2.626 -0.4388 -0.5793 -0.2143
  918SOL    HW1 2753   1.782   1.775   2.722 -0.7578 -1.1135 -1.2613
  918SOL    HW2 2754   1.876   1.678   2.611  0.1088  1.7665 -0.5928
  919SOL     OW 2755   1.622   2.054   1.356 -0.0605  0.0446  0.1612
  919SOL    HW1 2756   1.603   1.967   1.406  2.8663  0.1383  1.7306
  919SOL    HW2 2757   1.704   2.102   1.394 -2.3218  1.6846 -1.1105
  920SOL     OW 2758   0.574   0.168   2.923  0.0967  0.1162 -0.3270
  920SOL    HW1 2759   0.609   0.071   2.918  1.8081  0.2918  2.3421
  920SOL    HW2 2760   0.497   0.175   2.992 -0.6048 -0.2961  0.1612
  921SOL     OW 2761   2.687   2.992   2.585 -0.5914  0.0265  0.0391
  921SOL    HW1 2762   2.670   2.948   2.498  0.7263  2.0972  1.8431
  921SOL    HW2 2763   2.780   3.045   2.587  3.1846  2.2358 -1.5501
  922SOL     OW 2764   2.434   1.777   1.445 -0.2226 -0.5952  0.0292
  922SOL    HW1 2765   2.502   1.719   1.490 -0.4084  0.4879 -0.5257
  922SOL    HW2 2766   2.400   1.859   1.496 -2.1519  2.5076 -0.9728
  923SOL     OW 2767   0.857   2.032   2.884 -0.2662 -0.2571 -0.5479
  923SOL    HW1 2768   0.792   2.039   2.964  1.0968 -0.3215  1.6980
  923SOL    HW2 2769   0.924   2.109   2.890  0.5684 -2.7201 -2.1244
  924SOL     OW 2770   1.581   0.661   2.729 -0.4506  0.0937  0.1325
  924SOL    HW1 2771   1.549   0.671   2.821 -1.7932 -0.5293 -1.1892
  924SOL    HW2 2772   1.679   0.681   2.715  0.0771  3.6472 -0.5041
  925SOL     OW 2773   2.970   0.918   0.338 -0.0324  0.0702  0.0815
  925SOL    HW1 2774   2.945   0.962   0.253  1.2038 -2.4041  1.7421
  925SOL    HW2 2775   2.890   0.878   0.387  2.5251  0.5391  1.2350
  926SOL     OW 2776   0.137   0.360   0.765  0.5961 -0.1966 -0.0850
  926SOL    HW1 2777   0.193   0.278   0.782  1.7535 -0.5428 -0.7240
  926SOL    HW2 2778   0.193   0.440   0.802  1.1605  1.3914  2.0042
  927SOL     OW 2779   1.047   1.536   0.667 -0.1834  0.2594  0.1828
  927SOL    HW1 2780   1.122   1.485   0.621  1.9024 -0.7976 -0.4966
  927SOL    HW2 2781   0.977   1.476   0.705  2.5674  1.3713 -1.0480
  928SOL     OW 2782   0.060   0.002   2.423 -1.0112  0.1309  0.6782
  928SOL    HW1 2783   0.130   3.026   2.401  0.7972  2.7192  1.8685
  928SOL    HW2 2784   0.106   0.096   2.434  3.4928 -0.7962 -0.9518
  929SOL     OW 2785   2.465   0.712   1.635  0.3526 -0.3838  0.5420
  929SOL    HW1 2786   2.378   0.729   1.686 -4.2475 -0.5501  0.9870
  929SOL    HW2 2787   2.534   0.658   1.688  2.4661 -1.3696 -0.7998
  930SOL     OW 2788   1.804   2.049   1.030 -0.0112 -0.0820  0.0474
  930SOL    HW1 2789   1.869   1.987   0.985  2.0082 -1.0595 -2.3653
  930SOL    HW2 2790   1.731   2.004   1.080 -1.2318  2.5394  2.0385
  931SOL     OW 2791   1.711   0.814   0.751  0.0811 -0.1633 -0.3528
  931SOL    HW1 2792   1.696   0.817   0.651 -0.9318 -1.0486  0.9769
  931SOL    HW2 2793   1.726   0.904   0.796  0.3559 -0.3964 -1.5060
  932SOL     OW 2794   3.023   0.837   1.279 -0.1202  0.1790  0.8200
  932SOL    HW1 2795   2.985   0.869   1.371 -2.1261  1.6020  1.3125
  932SOL    HW2 2796   0.010   0.772   1.297  3.7964 -2.1362 -2.1633
  933SOL     OW 2797   2.421   1.784   1.791 -1.0654 -0.2543  0.3180
  933SOL    HW1 2798   2.515   1.828   1.784  2.2482 -1.2054 -0.2567
  933SOL    HW2 2799   2.354   1.857   1.822  1.4492  1.4661 -0.0373
  934SOL     OW 2800   1.595   3.075   1.134  0.8352 -0.0221  0.3043
  934SOL    HW1 2801   1.552   0.072   1.122 -0.4441  1.3957 -0.1887
  934SOL    HW2 2802   1.615   3.025   1.047 -1.2017  1.5868 -2.0881
  935SOL     OW 2803   0.029   1.132   1.144 -0.9073 -0.3726 -0.1087
  935SOL    HW1 2804   3.060   1.080   1.200  1.1823  1.7112 -0.0245
  935SOL    HW2 2805   0.000   1.152   1.048  1.3826 -0.8725 -2.3242
  936SOL     OW 2806   2.937   0.635   1.105 -0.0907  0.3293  0.3394
  936SOL    HW1 2807   2.962   0.722   1.153  1.7373  1.7675 -0.3598
  936SOL    HW2 2808   2.922   0.653   1.005  1.9233 -3.5189  1.0492
  937SOL     OW 2809   1.186   2.933   0.917  0.2591  0.2216 -0.1981
  937SOL    HW1 2810   1.128   2.921   0.838  2.9878  0.2412 -0.7754
  937SOL    HW2 2811   1.239   2.847   0.919 -0.9664 -1.7414  0.2371
  938SOL     OW 2812   3.026   2.462   0.560  0.6605 -0.3408 -0.7299
  938SOL    HW1 2813   2.993   2.509   0.647 -0.9532  0.5327  0.8618
  938SOL    HW2 2814   0.023   2.499   0.536  2.6560  0.6898  0.3900
  939SOL     OW 2815   0.632   1.798   2.604 -0.1915  0.1544 -0.0856
  939SOL    HW1 2816   0.724   1.840   2.604  0.8337 -0.8952  0.9634
  939SOL    HW2 2817   0.597   1.769   2.693  1.1744  0.9602 -1.2394
  940SOL     OW 2818   2.805   2.603   2.741  0.0377 -0.2976  0.1819
  940SOL    HW1 2819   2.720   2.577   2.684 -0.8592  0.5121 -0.7632
  940SOL    HW2 2820   2.783   2.692   2.784  0.1925  2.4712  0.5709
  941SOL     OW 2821   1.019   2.978   3.083 -0.1298  0.5452 -0.0339
  941SOL    HW1 2822   1.004   3.033   0.075  0.1833 -2.7552  2.5999
  941SOL    HW2 2823   1.062   2.887   0.020  1.3528 -2.2308 -2.1186
  942SOL     OW 2824   1.697   1.741   1.474 -0.3196  0.4205 -0.7045
  942SOL    HW1 2825   1.655   1.648   1.477 -2.1664 -0.1010 -0.5222
  942SOL    HW2 2826   1.654   1.804   1.543  2.2143 -1.9509 -1.0529
  943SOL     OW 2827   2.266   1.392   1.680 -0.3238  0.2486  0.0048
  943SOL    HW1 2828   2.302   1.317   1.624 -0.1688  0.2973 -1.4287
  943SOL    HW2 2829   2.337   1.461   1.700  0.1336  2.0352  2.7856
  944SOL     OW 2830   1.900   1.050   1.920 -0.0260  0.4040 -0.2387
  944SOL    HW1 2831   1.910   1.056   1.819 -0.7245 -1.1284 -2.5049
  944SOL    HW2 2832   1.801   1.057   1.938  1.4313 -1.0218 -2.7803
  945SOL     OW 2833   2.699   2.818   1.432  0.8010  0.4561 -0.3006
  945SOL    HW1 2834   2.683   2.769   1.348  1.2317 -0.1980  1.7988
  945SOL    HW2 2835   2.796   2.810   1.462 -0.5531  0.4582 -0.7613
  946SOL     OW 2836   1.052   1.204   1.609 -0.2840  0.1067 -0.2467
  946SOL    HW1 2837   1.019   1.251   1.524  1.8375 -1.1718  1.0829
  946SOL    HW2 2838   1.095   1.115   1.596 -0.2679 -0.1764 -0.0161
  947SOL     OW 2839   0.496   2.620   0.758  0.3323  0.2378  0.5267
  947SOL    HW1 2840   0.474   2.610   0.858 -2.6150 -1.0180  1.2764
  947SOL    HW2 2841   0.447   2.546   0.709  0.3731 -1.3020  0.9217
  948SOL     OW 2842   0.041   1.267   1.842  0.5842  0.3717 -0.0886
  948SOL    HW1 2843   0.035   1.221   1.934  1.4004 -1.5103  1.8041
  948SOL    HW2 2844   0.124   1.323   1.834 -2.6424  0.6180  2.5913
  949SOL     OW 2845   0.664   0.630   2.168 -0.9170  0.1550  0.0444
  949SOL    HW1 2846   0.748   0.579   2.197  2.4860 -3.5248 -1.7116
  949SOL    HW2 2847   0.579   0.575   2.164 -2.0206  2.6761  4.7564
  950SOL     OW 2848   0.674   0.596   1.005  0.1409 -0.3276 -0.4990
  950SOL    HW1 2849   0.579   0.640   1.018 -1.1350  0.0693  0.7528
  950SOL    HW2 2850   0.708   0.595   0.909  2.2170  1.4052  1.2012
  951SOL     OW 2851   1.394   1.634   1.972 -0.1137  0.1709 -0.3820
  951SOL    HW1 2852   1.456   1.715   1.959 -1.5607  1.7532 -0.2433
  951SOL    HW2 2853   1.297   1.662   1.955 -0.2259 -0.6915 -1.0411
  952SOL     OW 2854   1.066   1.439   2.992 -0.0382  0.8650  0.3082
  952SOL    HW1 2855   1.104   1.436   3.085  0.5038  1.3337  1.3798
  952SOL    HW2 2856   1.107   1.371   2.928  1.1462  0.5772  0.7795
  953SOL     OW 2857   1.072   2.740   2.122  1.0343  0.2508 -0.5041
  953SOL    HW1 2858   1.020   2.680   2.185 -0.1398  2.0972 -0.4468
  953SOL    HW2 2859   1.107   2.691   2.043  2.1706  1.2132  0.9560
  954SOL     OW 2860   2.346   1.557   0.531  1.2996  0.1273 -0.3113
  954SOL    HW1 2861   2.387   1.531   0.618 -0.5233 -2.5152 -1.5720
  954SOL    HW2 2862   2.378   1.640   0.477 -0.4600  1.1842 -2.9587
  955SOL     OW 2863   0.198   2.312   2.728 -0.2175  0.2313 -0.5131
  955SOL    HW1 2864   0.199   2.376   2.651  1.3833  0.2816 -1.1394
  955SOL    HW2 2865   0.156   2.353   2.812  1.3581  0.8158 -0.7017
  956SOL     OW 2866   0.785   1.501   1.326  0.4890  0.1931 -0.1748
  956SOL    HW1 2867   0.766   1.472   1.232  1.4671 -0.9186  2.9076
  956SOL    HW2 2868   0.797   1.601   1.334  0.1546 -1.4502 -1.2894
  957SOL     OW 2869   2.108   1.541   2.401 -0.3057  0.7802  0.2131
  957SOL    HW1 2870   2.043   1.580   2.332 -1.4280  2.4291 -0.0279
  957SOL    HW2 2871   2.204   1.550   2.371 -1.4417 -0.4703 -1.4502
  958SOL     OW 2872   1.377   2.437   0.952  0.0953  0.0911 -0.2808
  958SOL    HW1 2873   1.417   2.356   0.908 -0.1707  3.0143  0.9869
  958SOL    HW2 2874   1.341   2.417   1.045  0.4813  1.6113  1.4320
  959SOL     OW 2875   1.377   1.817   2.345 -0.9750 -0.3435 -0.3731
  959SOL    HW1 2876   1.372   1.723   2.383  0.9366  2.1969 -1.6415
  959SOL    HW2 2877   1.463   1.863   2.380 -2.0890  1.2546  1.0613
  960SOL     OW 2878   0.035   0.698   2.642  0.1304  0.2967 -0.3837
  960SOL    HW1 2879   0.107   0.766   2.644 -0.9475 -1.3678 -1.0431
  960SOL    HW2 2880   0.076   0.618   2.691  0.8302 -0.9099 -0.5167
  961SOL     OW 2881   0.578   0.571   1.862  0.0404 -0.3426 -0.3125
  961SOL    HW1 2882   0.637   0.641   1.912  3.6992 -0.6797  2.3843
  961SOL    HW2 2883   0.493   0.607   1.826  4.0515 -0.2499  1.3922
  962SOL     OW 2884   1.309   1.778   0.237 -0.0028 -0.4963  0.5588
  962SOL    HW1 2885   1.249   1.787   0.321 -3.1576 -0.1141  2.3300
  962SOL    HW2 2886   1.360   1.690   0.238 -0.7542  1.9279 -1.3476
  963SOL     OW 2887   1.623   2.433   3.090 -0.2318 -0.1091 -0.1713
  963SOL    HW1 2888   1.643   2.408   2.992  0.0005  1.3795 -0.8098
  963SOL    HW2 2889   1.524   2.425   0.004  0.5995  1.4851 -1.3826
  964SOL     OW 2890   1.085   2.487   0.452 -0.6976 -0.4307  0.0132
  964SOL    HW1 2891   1.174   2.468   0.403  1.0753  1.3031  1.0716
  964SOL    HW2 2892   1.048   2.578   0.429 -0.4493 -1.0402  0.1710
  965SOL     OW 2893   0.899   2.646   0.700 -0.3501  0.2526 -0.4481
  965SOL    HW1 2894   0.816   2.656   0.643  1.4349 -0.4603  0.6240
  965SOL    HW2 2895   0.888   2.566   0.768 -1.6090 -1.9869  0.9235
  966SOL     OW 2896   0.064   1.172   3.008 -0.7410  0.4376  0.1894
  966SOL    HW1 2897   0.131   1.203   2.939 -2.1380  2.1782 -0.2908
  966SOL    HW2 2898   3.082   1.134   2.956 -0.3855 -0.5121 -2.8534
  967SOL     OW 2899   1.160   2.661   1.873  0.1201 -0.1515 -0.0558
  967SOL    HW1 2900   1.180   2.571   1.906  1.0436 -0.1710 -2.1375
  967SOL    HW2 2901   1.158   2.662   1.772  1.1511  2.8073 -1.3790
  968SOL     OW 2902   1.689   0.999   0.427 -0.8272  0.1463 -0.3645
  968SOL    HW1 2903   1.619   0.925   0.408  0.5209 -3.3409 -0.6379
  968SOL    HW2 2904   1.668   1.090   0.382  1.9630 -1.0336  0.2295
  969SOL     OW 2905   0.190   1.771   2.058 -0.2707 -0.3185  0.0723
  969SOL    HW1 2906   0.173   1.763   1.960  0.0624  0.1506  0.8828
  969SOL    HW2 2907   0.218   1.869   2.076  1.4396  2.7206 -0.6487
  970SOL     OW 2908   2.641   1.581   1.514  0.4149  0.2856  0.2155
  970SOL    HW1 2909   2.619   1.499   1.459 -1.2189  1.8402 -0.6408
  970SOL    HW2 2910   2.739   1.601   1.500 -2.2957 -1.9171  0.0769
  971SOL     OW 2911   1.418   0.412   1.695  0.0572  0.5517 -0.2648
  971SOL    HW1 2912   1.514   0.390   1.702 -3.7352  2.3896  1.7704
  971SOL    HW2 2913   1.376   0.402   1.786  0.1959  1.5474 -1.9866
  972SOL     OW 2914   0.599   0.095   2.475 -0.5256 -0.4987 -0.3457
  972SOL    HW1 2915   0.559   0.003   2.499 -0.4968 -1.3513 -2.6295
  972SOL    HW2 2916   0.610   0.162   2.551 -2.3551 -0.0078 -0.9024
  973SOL     OW 2917   2.762   1.218   0.383 -0.1703 -0.5942  0.7082
  973SOL    HW1 2918   2.725   1.132   0.338 -0.8659 -0.2083  2.6006
  973SOL    HW2 2919   2.730   1.221   0.479 -0.8128 -1.7956 -0.9951
  974SOL     OW 2920   2.018   1.229   2.087  0.2613  0.4817 -0.0733
  974SOL    HW1 2921   2.006   1.130   2.059  0.1350 -0.9948  0.2792
  974SOL    HW2 2922   1.972   1.288   2.020  0.4530 -1.4309 -0.9558
  975SOL     OW 2923   2.805   2.849   0.748  0.0911  0.2517  0.1503
  975SOL    HW1 2924   2.903   2.859   0.726  2.7585  1.4778 -1.6561
  975SOL    HW2 2925   2.787   2.917   0.826  0.8874 -0.7781  0.4382
  976SOL     OW 2926   0.118   1.734   1.777 -0.2547  0.2529  0.2650
  976SOL    HW1 2927   0.164   1.789   1.700  3.4376  1.8385 -5.5381
  976SOL    HW2 2928   0.032   1.777   1.817 -0.3019  3.2246  4.3855
  977SOL     OW 2929   0.801   2.563   3.025 -0.2221  1.0318  0.2524
  977SOL    HW1 2930   0.820   2.580   2.925 -2.4927 -0.7185  0.9152
  977SOL    HW2 2931   0.877   2.520   3.072 -1.1771 -1.4314 -1.7126
  978SOL     OW 2932   0.885   1.927   2.626  0.3916 -0.0837  0.3152
  978SOL    HW1 2933   0.881   1.942   2.728  0.5945 -0.9253 -2.3891
  978SOL    HW2 2934   0.891   2.007   2.563 -1.9465  0.8644 -1.8410
  979SOL     OW 2935   1.492   2.235   1.212 -0.3109  0.0125 -0.3792
  979SOL    HW1 2936   1.521   2.155   1.274 -1.5996 -1.1673  0.6698
  979SOL    HW2 2937   1.537   2.234   1.123 -0.1168  1.3036 -0.4615
  980SOL     OW 2938   0.439   1.361   2.599 -0.1358  0.2464 -0.0753
  980SOL    HW1 2939   0.383   1.444   2.573  0.4877  1.6970  1.6732
  980SOL    HW2 2940   0.487   1.369   2.686 -1.2174 -0.6904 -1.7934
  981SOL     OW 2941   2.540   0.486   2.778  0.8192 -0.3719 -0.2556
  981SOL    HW1 2942   2.563   0.450   2.688 -1.6043 -0.0139  2.9864
  981SOL    HW2 2943   2.609   0.447   2.844 -0.1510  2.2384 -0.1995
  982SOL     OW 2944   3.040   2.712   2.707 -0.1021  0.1306  0.1229
  982SOL    HW1 2945   3.083   2.719   2.610  0.4510 -1.5866 -4.6674
  982SOL    HW2 2946   2.949   2.670   2.701 -0.9552 -1.6527 -0.5413
  983SOL     OW 2947   2.301   0.988   1.954  0.3741 -0.3025 -0.3536
  983SOL    HW1 2948   2.326   1.085   1.930  1.3221  2.5780 -1.7422
  983SOL    HW2 2949   2.379   0.935   1.993  1.7219  1.4639  0.4860
  984SOL     OW 2950   1.124   0.223   2.389  0.0742 -0.3343  0.2846
  984SOL    HW1 2951   1.202   0.294   2.371  4.7362  0.0690 -5.8057
  984SOL    HW2 2952   1.166   0.139   2.428 -3.2288  1.1795  0.5871
  985SOL     OW 2953   1.504   2.191   2.300  0.2694  0.4969  0.4458
  985SOL    HW1 2954   1.418   2.147   2.281  1.1813 -0.0516  1.3202
  985SOL    HW2 2955   1.574   2.182   2.225 -1.5513  1.2829  0.6375
  986SOL     OW 2956   1.978   0.511   2.229 -0.0691 -0.2670  0.0503
  986SOL    HW1 2957   2.028   0.594   2.247 -1.3495 -0.7772 -2.3508
  986SOL    HW2 2958   1.939   0.504   2.130 -0.2568  1.2857 -1.4668
  987SOL     OW 2959   2.316   0.582   2.262 -0.0405  0.2717  0.9278
  987SOL    HW1 2960   2.232   0.637   2.283  0.1840  0.8038  1.3348
  987SOL    HW2 2961   2.300   0.486   2.282  0.6629 -0.2353 -1.1615
  988SOL     OW 2962   2.291   0.557   2.655  0.3100 -0.2294  0.6054
  988SOL    HW1 2963   2.382   0.524   2.691  0.9036 -1.9887 -0.4069
  988SOL    HW2 2964   2.290   0.658   2.635 -0.7612  1.8978 -0.5896
  989SOL     OW 2965   2.333   2.461   2.704  0.3913 -0.2121  0.3152
  989SOL    HW1 2966   2.366   2.417   2.787 -0.8090  2.3862  1.7767
  989SOL    HW2 2967   2.392   2.435   2.623  1.3882  1.5031 -1.1866
  990SOL     OW 2968   0.291   0.519   0.127 -0.2138  0.1256  0.0415
  990SOL    HW1 2969   0.251   0.536   0.221  0.8910  0.2591 -0.4242
  990SOL    HW2 2970   0.216   0.521   0.055 -0.0458 -0.0422 -0.7520
  991SOL     OW 2971   0.511   0.526   2.933 -0.0326 -0.6697  0.4485
  991SOL    HW1 2972   0.457   0.454   2.976  1.2226  0.9310  3.3830
  991SOL    HW2 2973   0.609   0.501   2.926 -0.0701  2.6955 -1.8084
  992SOL     OW 2974   3.032   2.047   2.121  0.1973  0.0079  0.1089
  992SOL    HW1 2975   3.011   2.048   2.223 -0.3653 -0.1214  2.6422
  992SOL    HW2 2976   0.039   2.044   2.105 -0.7959  0.4881  0.4573
  993SOL     OW 2977   0.596   2.977   0.581  0.1801 -0.1248 -0.1769
  993SOL    HW1 2978   0.497   2.995   0.583  0.2703  0.3316 -1.3943
  993SOL    HW2 2979   0.638   3.003   0.669 -2.1013  0.0685 -5.7971
  994SOL     OW 2980   0.290   2.147   1.837 -0.4349  0.4860  0.0413
  994SOL    HW1 2981   0.371   2.088   1.865 -3.2534 -0.2145 -1.2250
  994SOL    HW2 2982   0.319   2.217   1.770 -2.5097  0.9075  0.2282
  995SOL     OW 2983   2.304   1.687   0.032 -0.4689 -0.2519 -0.1181
  995SOL    HW1 2984   2.233   1.681   0.099 -0.1239 -0.1874 -1.8130
  995SOL    HW2 2985   2.378   1.620   0.044  1.3767  0.5527  2.0949
  996SOL     OW 2986   1.502   1.381   2.638  0.1651 -0.0281  0.0373
  996SOL    HW1 2987   1.415   1.362   2.589 -1.2257  0.7718  1.2530
  996SOL    HW2 2988   1.578   1.413   2.582  0.1234 -1.1157 -1.4114
  997SOL     OW 2989   1.878   1.479   1.972 -0.0401  0.0824 -0.1750
  997SOL    HW1 2990   1.851   1.575   1.967  0.8961  0.1905  0.6539
  997SOL    HW2 2991   1.810   1.413   1.934  0.5354 -0.7452  0.9980
  998SOL     OW 2992   2.649   1.698   0.414  0.3810 -0.0656 -0.4864
  998SOL    HW1 2993   2.680   1.719   0.511 -1.3434  0.3304  0.7159
  998SOL    HW2 2994   2.551   1.726   0.412  1.6791  0.1899  4.9240
  999SOL     OW 2995   2.337   2.855   0.325 -0.1956  0.7609  0.4603
  999SOL    HW1 2996   2.378   2.759   0.331  0.7644 -2.9045 -2.4425
  999SOL    HW2 2997   2.301   2.869   0.229 -0.9595 -0.9045 -1.9349
 1000SOL     OW 2998   0.587   2.737   2.330 -0.1736  0.0044 -0.4760
 1000SOL    HW1 2999   0.509   2.700   2.281 -2.9862 -0.8068  0.7669
 1000SOL    HW2 3000   0.648   2.772   2.255 -0.8483 -0.7177 -0.3947
   3.09460   3.09460   3.09460
