1000 SPC/Fw water molecules t= 221.00000 step= 221000
 3000
    1SOL     OW    1   3.087   2.959   0.837 -0.7134  0.1644  0.5125
    1SOL    HW1    2   0.053   2.902   0.907  1.8492 -4.0452  0.2007
    1SOL    HW2    3   0.019   3.055   0.846 -1.4246 -1.8381 -1.9206
    2SOL     OW    4   1.862   1.699   1.837  0.0545 -0.5612  0.3343
    2SOL    HW1    5   1.853   1.758   1.919 -0.8824 -0.9288 -1.9751
    2SOL    HW2    6   1.805   1.615   1.840  2.1905  0.1792  1.9411
    3SOL     OW    7   1.582   2.315   2.439 -0.0190 -0.1382 -0.1332
    3SOL    HW1    8   1.502   2.312   2.506 -1.4134  1.7497  2.7751
    3SOL    HW2    9   1.652   2.254   2.476 -0.4800 -0.1932  0.2798
    4SOL     OW   10   2.002   2.017   2.247  0.1476 -0.0331 -0.2047
    4SOL    HW1   11   1.961   2.103   2.289 -2.1262 -0.5945  1.4758
    4SOL    HW2   12   2.025   1.937   2.307  0.7562 -2.8838  0.5682
    5SOL     OW   13   1.347   0.699   1.504  0.3461 -0.2861  0.3992
    5SOL    HW1   14   1.394   0.771   1.447  1.5302  0.2343 -0.9667
    5SOL    HW2   15   1.320   0.735   1.601 -0.0354  1.3872 -2.7778
    6SOL     OW   16   2.852   0.397   3.088 -0.1188  0.4754 -0.4125
    6SOL    HW1   17   2.911   0.314   0.014  0.7523  0.3050 -1.7362
    6SOL    HW2   18   2.837   0.412   2.987  0.2047  1.5367 -0.5676
    7SOL     OW   19   0.292   1.674   1.393 -0.4198 -0.5769  0.4130
    7SOL    HW1   20   0.306   1.576   1.378  1.3950 -2.2470 -2.0909
    7SOL    HW2   21   0.343   1.732   1.327  1.8815 -0.9371  0.3608
    8SOL     OW   22   1.087   0.442   0.928 -0.1304  0.2071 -0.6176
    8SOL    HW1   23   1.175   0.421   0.967 -1.8190  3.5637 -0.6068
    8SOL    HW2   24   1.032   0.495   0.998 -0.5890  2.6253  1.5561
    9SOL     OW   25   1.340   0.543   2.472  0.8734  0.3612  0.4221
    9SOL    HW1   26   1.395   0.627   2.461 -2.2781 -2.6178  1.3102
    9SOL    HW2   27   1.370   0.460   2.415  1.5846 -3.2388 -2.5976
   10SOL     OW   28   0.715   2.498   0.000  0.2085 -0.8102  0.2281
   10SOL    HW1   29   0.805   2.459   3.053  0.7225  0.3171 -1.6756
   10SOL    HW2   30   0.739   2.592   0.038  3.4745  4.4342  1.1996
   11SOL     OW   31   0.744   1.210   2.995  0.1501  0.1036 -0.6030
   11SOL    HW1   32   0.807   1.168   2.929 -0.3425 -2.8021 -1.1905
   11SOL    HW2   33   0.679   1.141   3.007  0.3877 -1.2191 -0.6742
   12SOL     OW   34   0.091   0.373   1.705 -0.2444  0.2735 -0.0298
   12SOL    HW1   35   0.154   0.424   1.647  0.8806  0.2578 -0.7537
   12SOL    HW2   36   0.143   0.292   1.739  0.0350 -0.9980  0.5269
   13SOL     OW   37   1.147   0.077   0.374  0.1845  0.1957 -0.1875
   13SOL    HW1   38   1.160   0.110   0.278 -2.1880  1.3130 -1.0857
   13SOL    HW2   39   1.198   0.137   0.437 -0.9550  2.4709  2.2859
   14SOL     OW   40   1.175   2.585   1.212  0.5037  0.0429  0.3624
   14SOL    HW1   41   1.178   2.572   1.109 -0.8308 -1.5985 -1.8326
   14SOL    HW2   42   1.233   2.520   1.261 -0.0577  3.0191  1.0799
   15SOL     OW   43   2.739   1.388   1.909 -0.4712 -0.7491  0.8533
   15SOL    HW1   44   2.677   1.311   1.880 -2.0144 -0.2447 -0.9344
   15SOL    HW2   45   2.810   1.351   1.971 -3.1140  1.4149 -1.5336
   16SOL     OW   46   1.764   3.071   3.091 -0.1645 -0.3992 -0.4680
   16SOL    HW1   47   1.740   0.009   0.091 -1.1418  0.9513  0.6729
   16SOL    HW2   48   1.839   3.009   0.016 -1.0396 -0.6454  0.7993
   17SOL     OW   49   0.776   3.030   1.296  0.2804  0.2383 -0.3372
   17SOL    HW1   50   0.692   3.063   1.253 -0.1430  0.4494  0.3672
   17SOL    HW2   51   0.793   2.928   1.276 -0.8746 -1.2259 -1.7869
   18SOL     OW   52   1.218   0.574   0.123 -0.1804 -0.3870 -0.2170
   18SOL    HW1   53   1.286   0.534   0.187  1.5193  0.3345 -0.1205
   18SOL    HW2   54   1.194   0.669   0.152 -1.0129  1.4531 -0.2995
   19SOL     OW   55   2.208   1.956   0.072  0.4089 -0.5893 -0.1995
   19SOL    HW1   56   2.242   2.052   0.064  0.1350  1.1598 -0.6779
   19SOL    HW2   57   2.132   1.961   0.148 -2.2052 -0.5407  3.3318
   20SOL     OW   58   1.998   1.656   1.612  0.2677  0.3054 -0.1592
   20SOL    HW1   59   1.946   1.712   1.549 -0.2024  0.3724  0.4794
   20SOL    HW2   60   1.963   1.673   1.708  0.6747  0.6352  1.2280
   21SOL     OW   61   0.894   1.075   2.832 -0.5011  0.2777 -0.0351
   21SOL    HW1   62   0.898   0.978   2.854 -0.5168  0.7120  0.7346
   21SOL    HW2   63   0.889   1.087   2.735 -1.3509  0.4930 -0.6925
   22SOL     OW   64   2.052   0.000   1.268  0.1921  0.1305  0.3094
   22SOL    HW1   65   1.950   3.076   1.248 -3.7251 -1.8397 -0.2224
   22SOL    HW2   66   2.118   3.055   1.204 -1.7363 -1.3609  0.7002
   23SOL     OW   67   3.013   0.558   1.695  0.3020 -0.0103 -0.3114
   23SOL    HW1   68   3.052   0.633   1.641 -3.1356 -0.0192  0.2980
   23SOL    HW2   69   3.077   0.476   1.698  4.7892 -0.4291  0.5168
   24SOL     OW   70   2.263   2.546   1.179 -0.5420 -0.2922 -0.2236
   24SOL    HW1   71   2.364   2.543   1.182 -1.5515  0.2163  2.3530
   24SOL    HW2   72   2.222   2.635   1.194  0.8151 -1.1621 -1.4994
   25SOL     OW   73   1.865   2.876   2.450 -0.0853 -0.2003  0.1115
   25SOL    HW1   74   1.878   2.784   2.496 -0.4088 -1.4595  1.7346
   25SOL    HW2   75   1.788   2.860   2.382 -3.4644 -2.4867 -0.9869
   26SOL     OW   76   1.504   2.760   0.257  0.4026 -0.3648  0.1986
   26SOL    HW1   77   1.570   2.687   0.287  1.0049 -3.8309 -0.1174
   26SOL    HW2   78   1.415   2.727   0.274  4.1285  1.3374 -0.8493
   27SOL     OW   79   0.346   1.677   2.579 -0.1345  0.2045 -0.3934
   27SOL    HW1   80   0.275   1.724   2.521  0.2320 -1.4229  0.6058
   27SOL    HW2   81   0.433   1.738   2.587  1.2804 -0.7044  2.8891
   28SOL     OW   82   2.931   1.154   1.505  0.2092  0.4245 -0.0008
   28SOL    HW1   83   2.946   1.204   1.418  0.3852  1.2857  3.8080
   28SOL    HW2   84   2.981   1.200   1.578 -1.3845  1.5141  1.6269
   29SOL     OW   85   2.790   2.532   2.090  0.1682  0.1289 -0.1897
   29SOL    HW1   86   2.874   2.480   2.114 -0.2876  0.4512 -2.7266
   29SOL    HW2   87   2.797   2.562   1.988  0.9861 -0.9712 -2.1147
   30SOL     OW   88   1.610   0.153   0.249 -0.5339  0.0711 -0.0216
   30SOL    HW1   89   1.525   0.118   0.202  2.0028  1.4573  1.2468
   30SOL    HW2   90   1.652   0.232   0.193  3.5472  1.5769  1.7019
   31SOL     OW   91   2.833   2.628   1.845 -0.1664  0.2503 -0.8125
   31SOL    HW1   92   2.931   2.637   1.872 -1.0752 -2.2829 -0.4013
   31SOL    HW2   93   2.805   2.710   1.796  1.0793  1.2987 -1.3721
   32SOL     OW   94   1.024   1.361   1.479 -0.2807  0.0131 -0.0631
   32SOL    HW1   95   0.926   1.368   1.507 -0.0655 -0.7525  2.9785
   32SOL    HW2   96   1.033   1.302   1.397 -1.7683 -0.8040 -0.2453
   33SOL     OW   97   0.212   2.645   2.677 -0.5388  0.1942 -0.2218
   33SOL    HW1   98   0.273   2.611   2.603 -1.4160 -0.6224 -1.7294
   33SOL    HW2   99   0.128   2.589   2.675  1.6576 -1.4801 -0.3909
   34SOL     OW  100   1.739   3.024   0.848 -0.8532 -0.4348  0.5106
   34SOL    HW1  101   1.697   2.937   0.818  0.0926 -1.0902  0.1221
   34SOL    HW2  102   1.840   3.014   0.861  3.1614 -1.1032  0.1944
   35SOL     OW  103   2.057   3.082   0.886 -0.1914 -0.0669  1.0577
   35SOL    HW1  104   2.065   3.028   0.796  0.6149  0.4293 -2.1036
   35SOL    HW2  105   2.139   0.048   0.893 -0.5081  0.8481 -3.8182
   36SOL     OW  106   1.933   2.774   2.151  0.3679  0.0998 -0.5692
   36SOL    HW1  107   2.020   2.729   2.142 -2.0203 -0.5209 -0.9246
   36SOL    HW2  108   1.865   2.704   2.187 -0.4013 -0.5211  3.7015
   37SOL     OW  109   1.171   2.901   2.229 -0.3680  0.5517  0.1764
   37SOL    HW1  110   1.100   2.907   2.157  0.8987 -2.5947 -0.8393
   37SOL    HW2  111   1.146   2.832   2.303 -2.5017 -1.1450 -0.1874
   38SOL     OW  112   2.880   3.023   2.762 -0.4435  0.0509  0.3419
   38SOL    HW1  113   2.878   2.924   2.737  2.1974 -0.2184 -1.2471
   38SOL    HW2  114   2.959   3.051   2.829  4.7441  0.3449  2.4730
   39SOL     OW  115   2.385   1.339   1.971 -0.7222 -0.3478  0.1990
   39SOL    HW1  116   2.456   1.408   2.002  0.2527  1.8333  0.0550
   39SOL    HW2  117   2.290   1.367   1.986  3.8044  0.5415  0.0458
   40SOL     OW  118   0.275   2.864   2.799 -0.2136  0.2042 -0.2963
   40SOL    HW1  119   0.371   2.894   2.787  0.6338  0.6904  2.4580
   40SOL    HW2  120   0.259   2.773   2.754  1.9555  1.7855 -1.0033
   41SOL     OW  121   1.614   0.623   0.865  0.2492  0.2428  0.4069
   41SOL    HW1  122   1.538   0.686   0.846  1.1149 -0.3178  3.6509
   41SOL    HW2  123   1.683   0.621   0.791  0.7798  2.2506  1.7452
   42SOL     OW  124   0.459   0.918   1.385  0.1502  0.4713  0.1621
   42SOL    HW1  125   0.507   0.983   1.321 -0.5616 -1.3536  2.0431
   42SOL    HW2  126   0.414   0.848   1.328  1.0491  1.3351  0.5777
   43SOL     OW  127   2.705   1.511   2.628  0.2685 -0.0313 -0.0584
   43SOL    HW1  128   2.638   1.440   2.659 -1.0467  1.4258  1.5907
   43SOL    HW2  129   2.690   1.598   2.680  1.0634 -0.3685  1.7208
   44SOL     OW  130   0.002   2.629   0.428  0.2653 -0.1522  0.2588
   44SOL    HW1  131   0.021   2.725   0.456 -0.0691  0.9319  2.1602
   44SOL    HW2  132   0.041   2.566   0.496  0.9626  0.7157 -2.1999
   45SOL     OW  133   0.419   2.595   1.671  0.0146 -0.6025 -0.7243
   45SOL    HW1  134   0.349   2.546   1.721  0.4154  3.2631  1.0349
   45SOL    HW2  135   0.466   2.662   1.733  0.6573 -1.0869  1.0265
   46SOL     OW  136   2.383   2.392   2.381 -0.3922  0.0390  0.0135
   46SOL    HW1  137   2.433   2.316   2.428 -1.2189  1.3039  0.2879
   46SOL    HW2  138   2.434   2.415   2.296  1.4987 -1.1830  2.1946
   47SOL     OW  139   2.234   2.044   1.499 -0.6635  0.1006  0.1153
   47SOL    HW1  140   2.234   2.132   1.448 -1.0721 -1.1879  0.3045
   47SOL    HW2  141   2.143   2.002   1.500  3.8575  2.2992 -0.3791
   48SOL     OW  142   0.645   1.538   0.103 -0.3713  0.0291 -0.9671
   48SOL    HW1  143   0.710   1.458   0.101 -2.7218  0.3882  0.0402
   48SOL    HW2  144   0.549   1.512   0.105  0.6456 -1.1534  1.1145
   49SOL     OW  145   2.777   0.506   2.818 -0.2127  0.0867 -0.4022
   49SOL    HW1  146   2.822   0.481   2.731 -0.3111 -1.0379  0.8278
   49SOL    HW2  147   2.680   0.476   2.817  0.3016 -0.4591  1.5749
   50SOL     OW  148   2.221   0.850   0.323 -0.0400  0.0498  0.0297
   50SOL    HW1  149   2.122   0.849   0.297 -2.4868 -2.0726  0.0127
   50SOL    HW2  150   2.258   0.765   0.285  0.2798  1.4912  1.0248
   51SOL     OW  151   1.947   0.698   1.026 -0.6406 -0.0000  0.2803
   51SOL    HW1  152   2.014   0.683   0.948 -1.8511  0.6296 -2.1672
   51SOL    HW2  153   1.878   0.618   1.032  0.0200 -2.4133 -0.1276
   52SOL     OW  154   1.155   1.318   2.778  0.0259 -0.2737 -0.1324
   52SOL    HW1  155   1.156   1.375   2.862  2.1323  2.4526 -1.5968
   52SOL    HW2  156   1.170   1.218   2.794 -0.2090 -0.0863 -0.1771
   53SOL     OW  157   0.906   1.572   1.953  0.9502 -0.0450 -0.1447
   53SOL    HW1  158   0.915   1.481   2.002  1.5732  1.4528 -0.3513
   53SOL    HW2  159   0.814   1.583   1.910 -1.6952  0.5719 -1.2210
   54SOL     OW  160   1.910   0.273   0.851  0.6242  0.1414  0.1221
   54SOL    HW1  161   1.933   0.187   0.905 -0.8353  1.1492 -3.3078
   54SOL    HW2  162   1.975   0.298   0.776 -1.1528  0.6720  1.8995
   55SOL     OW  163   2.403   2.266   1.208  0.2066 -0.2248 -0.1777
   55SOL    HW1  164   2.412   2.285   1.110  0.5586  0.3944 -1.8226
   55SOL    HW2  165   2.363   2.170   1.220 -0.4373 -1.6299  0.1553
   56SOL     OW  166   0.973   2.799   1.607 -0.3075  0.1149  0.0935
   56SOL    HW1  167   1.009   2.810   1.512 -0.3725  1.2647 -0.9922
   56SOL    HW2  168   1.033   2.847   1.675 -1.3553 -2.5478  0.1649
   57SOL     OW  169   1.713   1.506   0.357 -0.3275  0.4174  0.6508
   57SOL    HW1  170   1.782   1.449   0.405  0.4647  3.1697 -0.4812
   57SOL    HW2  171   1.712   1.604   0.387  0.2371  0.5213 -0.8329
   58SOL     OW  172   2.953   0.613   2.418  0.1778  0.1249 -0.5266
   58SOL    HW1  173   3.006   0.622   2.335  1.4703 -0.2506 -1.1180
   58SOL    HW2  174   2.987   0.684   2.487 -0.5666  1.5367  0.0439
   59SOL     OW  175   1.133   2.743   2.451  0.2272  0.1883  0.1414
   59SOL    HW1  176   1.233   2.730   2.471  0.5323 -0.1331 -0.1049
   59SOL    HW2  177   1.097   2.655   2.419 -1.8023 -0.0807 -0.0748
   60SOL     OW  178   2.569   2.458   0.857  0.2196  0.6695 -0.4254
   60SOL    HW1  179   2.493   2.393   0.880 -0.3387 -1.5402 -1.7869
   60SOL    HW2  180   2.536   2.500   0.775  1.0291 -1.7392 -2.0916
   61SOL     OW  181   1.444   2.298   0.784  0.2978 -0.0026 -0.2893
   61SOL    HW1  182   1.370   2.337   0.841 -1.5743  0.1258 -1.2588
   61SOL    HW2  183   1.523   2.260   0.838 -1.8635  1.6054 -1.1838
   62SOL     OW  184   2.416   1.946   2.595 -0.3374  0.0502  0.4147
   62SOL    HW1  185   2.314   1.955   2.600 -2.8577 -0.0163 -1.2588
   62SOL    HW2  186   2.447   1.939   2.492  0.8529 -0.1313 -1.9661
   63SOL     OW  187   2.339   0.276   2.918  0.2206 -0.4964  0.1028
   63SOL    HW1  188   2.396   0.320   2.846 -1.0899 -2.5291  0.5432
   63SOL    HW2  189   2.379   0.184   2.941 -0.0961  0.5983 -0.3617
   64SOL     OW  190   1.113   0.838   2.621  0.2700  0.3361 -0.1971
   64SOL    HW1  191   1.062   0.895   2.553  0.6293 -0.5931 -1.4475
   64SOL    HW2  192   1.065   0.834   2.709 -0.5631  0.2248 -3.6367
   65SOL     OW  193   1.296   1.991   0.330 -0.3277  0.3343  0.1698
   65SOL    HW1  194   1.276   2.017   0.423 -0.2599  0.1798 -0.1927
   65SOL    HW2  195   1.290   2.074   0.272  1.5529 -1.9939 -1.2590
   66SOL     OW  196   0.281   1.242   1.726  0.0785 -0.1291 -0.1549
   66SOL    HW1  197   0.256   1.217   1.824 -1.2030  2.5161  1.0747
   66SOL    HW2  198   0.380   1.271   1.724  0.9049 -0.9662 -0.6637
   67SOL     OW  199   2.469   0.015   2.549 -0.1713 -0.5551  0.4212
   67SOL    HW1  200   2.552   0.077   2.562  0.4944 -2.3258 -1.0827
   67SOL    HW2  201   2.447   0.006   2.450  0.1955  1.3954 -1.4945
   68SOL     OW  202   0.458   2.376   1.042 -0.1410 -0.1284 -0.3295
   68SOL    HW1  203   0.511   2.380   1.130 -1.0910  1.1469  1.5365
   68SOL    HW2  204   0.374   2.321   1.055  0.0353  1.0874 -0.3149
   69SOL     OW  205   0.896   2.598   0.321 -0.2020  0.0937 -0.1145
   69SOL    HW1  206   0.867   2.614   0.226 -0.7131 -0.4275  0.2961
   69SOL    HW2  207   0.930   2.686   0.367  0.5638 -0.1754  2.3536
   70SOL     OW  208   2.849   0.978   2.901 -0.0643  0.3243  0.7246
   70SOL    HW1  209   2.939   0.996   2.945 -1.9196 -2.9698  0.5470
   70SOL    HW2  210   2.855   0.971   2.797 -1.3059  1.1186 -2.4188
   71SOL     OW  211   0.112   1.188   2.504  0.0349 -0.9929 -0.3782
   71SOL    HW1  212   0.189   1.244   2.536  0.4910  0.2044  0.3350
   71SOL    HW2  213   0.038   1.175   2.573 -0.3602 -1.7560  1.1960
   72SOL     OW  214   2.825   2.388   0.503  0.0385 -0.0582  0.5389
   72SOL    HW1  215   2.750   2.324   0.488  1.1288 -0.9541 -0.0151
   72SOL    HW2  216   2.797   2.487   0.497  1.3778 -0.7178  0.9911
   73SOL     OW  217   0.795   1.317   0.146 -0.4092 -0.1339  0.0174
   73SOL    HW1  218   0.881   1.356   0.178 -0.5274  1.2542  0.9027
   73SOL    HW2  219   0.807   1.273   0.051  0.5511 -3.7833 -1.3644
   74SOL     OW  220   0.051   0.116   0.217  0.4413  0.0100  0.1718
   74SOL    HW1  221   3.073   0.094   0.144 -0.0563  0.2743 -1.6303
   74SOL    HW2  222   0.130   0.163   0.169  3.2858  0.3584 -0.5042
   75SOL     OW  223   2.376   1.490   2.272  0.0674 -0.3064  0.2066
   75SOL    HW1  224   2.447   1.501   2.199 -1.0330 -1.9085 -0.2813
   75SOL    HW2  225   2.303   1.563   2.256  1.1136 -0.4038 -3.5925
   76SOL     OW  226   2.234   2.745   1.520  0.6930 -0.2195  0.4269
   76SOL    HW1  227   2.333   2.764   1.507 -1.8391 -0.3290 -0.2355
   76SOL    HW2  228   2.184   2.744   1.430  3.8499  0.4586 -1.7618
   77SOL     OW  229   2.687   0.526   1.247 -0.1149  0.2606 -0.0693
   77SOL    HW1  230   2.688   0.499   1.147  0.0696 -0.2791 -1.1076
   77SOL    HW2  231   2.627   0.607   1.271 -0.2955  3.0524  1.7049
   78SOL     OW  232   1.680   1.203   0.015  0.2501 -0.0709 -0.0409
   78SOL    HW1  233   1.679   1.290   3.060 -1.0817  0.3571 -0.4456
   78SOL    HW2  234   1.753   1.202   0.087 -0.2371 -1.4021 -0.2370
   79SOL     OW  235   0.724   1.858   1.956 -0.2609  0.2008 -0.3201
   79SOL    HW1  236   0.767   1.913   1.880 -0.4545  0.2349 -0.9565
   79SOL    HW2  237   0.703   1.763   1.923  2.2972  0.2650  0.2452
   80SOL     OW  238   1.412   1.008   0.840  0.2072 -0.2010  0.0076
   80SOL    HW1  239   1.408   1.094   0.782 -1.6642  2.6244  0.6213
   80SOL    HW2  240   1.499   1.012   0.904  3.6778  1.4760  3.0884
   81SOL     OW  241   0.481   0.389   1.163  0.2831  0.2539  0.2420
   81SOL    HW1  242   0.390   0.385   1.113  0.6678  2.2263  2.0071
   81SOL    HW2  243   0.560   0.364   1.099 -3.1364  0.3711  0.0563
   82SOL     OW  244   1.463   2.362   1.653  0.0572  0.6968 -0.1510
   82SOL    HW1  245   1.480   2.279   1.716  0.4154 -2.3758  2.1709
   82SOL    HW2  246   1.438   2.329   1.557 -0.7602 -1.0377 -3.9610
   83SOL     OW  247   0.629   2.856   1.086  0.7945  0.3901 -0.5811
   83SOL    HW1  248   0.614   2.957   1.100 -1.4854 -0.4031 -2.0518
   83SOL    HW2  249   0.588   2.832   0.995  0.5386  2.2725 -0.9862
   84SOL     OW  250   0.303   0.823   3.087  0.2395  0.0436  0.3619
   84SOL    HW1  251   0.241   0.861   3.014 -0.2392 -0.7758  1.7496
   84SOL    HW2  252   0.356   0.748   3.045 -2.0934  0.7517 -1.0809
   85SOL     OW  253   2.933   2.384   1.563 -0.0710  0.5740 -0.1250
   85SOL    HW1  254   2.896   2.440   1.488  1.5902  0.2843  0.2943
   85SOL    HW2  255   2.859   2.354   1.626 -0.9755  0.0594 -1.2206
   86SOL     OW  256   0.018   2.579   1.635 -0.3370 -0.1118  0.1757
   86SOL    HW1  257   3.060   2.494   1.604 -0.2201 -0.8999 -0.4789
   86SOL    HW2  258   0.037   2.645   1.562 -0.7921 -1.1584  0.7040
   87SOL     OW  259   2.940   2.675   2.878  0.1478  0.3147 -0.3948
   87SOL    HW1  260   2.947   2.700   2.779 -0.5973  0.2761 -2.7083
   87SOL    HW2  261   2.857   2.721   2.920  1.3252 -1.3316  0.0738
   88SOL     OW  262   0.076   1.968   1.244 -0.2051 -0.1834  0.0025
   88SOL    HW1  263   0.041   2.015   1.161  0.9729  0.0399  1.9223
   88SOL    HW2  264   0.178   1.973   1.249 -0.1110 -1.5693 -0.0077
   89SOL     OW  265   1.048   0.619   1.656 -0.0882 -0.0069 -0.0210
   89SOL    HW1  266   0.951   0.641   1.626 -2.7082  1.4053  0.4209
   89SOL    HW2  267   1.055   0.522   1.695  1.5705  0.9350 -0.1860
   90SOL     OW  268   3.069   1.582   1.783 -0.3168 -0.0564  0.3942
   90SOL    HW1  269   2.990   1.545   1.838  1.2462  1.8026  0.8650
   90SOL    HW2  270   3.048   1.680   1.770 -0.8514 -1.1754 -3.7909
   91SOL     OW  271   1.121   1.773   0.595 -0.2240 -0.0513  0.0489
   91SOL    HW1  272   1.093   1.760   0.696  0.6573 -0.6929  3.2324
   91SOL    HW2  273   1.205   1.719   0.573 -1.0959 -1.2384 -0.8336
   92SOL     OW  274   2.345   0.409   0.944  0.3976 -0.1087 -0.2603
   92SOL    HW1  275   2.438   0.382   0.948 -2.4643  0.0418  0.0417
   92SOL    HW2  276   2.312   0.467   1.019  0.0061 -0.8287 -1.2891
   93SOL     OW  277   2.516   1.554   3.025 -0.0410  0.0101 -0.0852
   93SOL    HW1  278   2.451   1.502   2.967 -0.2863  0.0517  3.0535
   93SOL    HW2  279   2.481   1.648   3.053  0.2682  2.2665  0.8828
   94SOL     OW  280   2.516   2.249   2.576  0.0638  0.2979  0.0596
   94SOL    HW1  281   2.497   2.149   2.596 -3.4088 -0.8001 -0.8906
   94SOL    HW2  282   2.617   2.267   2.558 -0.3723  0.7460 -0.0302
   95SOL     OW  283   1.758   0.454   1.013  0.1214 -0.4819 -0.5339
   95SOL    HW1  284   1.705   0.520   0.955 -2.8946 -1.7336  2.1932
   95SOL    HW2  285   1.825   0.393   0.963  2.2420 -0.9316  1.0018
   96SOL     OW  286   2.935   3.067   1.832  0.0748 -0.8314  0.2070
   96SOL    HW1  287   2.953   3.032   1.924 -0.6811  1.4084 -2.3655
   96SOL    HW2  288   2.956   0.078   1.835  3.0391  0.0491  1.7307
   97SOL     OW  289   2.142   0.261   1.262  0.3489 -0.1642  0.2867
   97SOL    HW1  290   2.110   0.161   1.265 -2.3551 -2.7073  0.1077
   97SOL    HW2  291   2.221   0.268   1.321 -2.3422 -2.6932 -1.2154
   98SOL     OW  292   1.463   2.212   1.409 -0.1002 -0.1986  0.1062
   98SOL    HW1  293   1.526   2.255   1.337 -2.1419  0.4370  2.4413
   98SOL    HW2  294   1.510   2.130   1.455  3.3727  1.5203 -0.5937
   99SOL     OW  295   3.076   2.636   1.913  0.8467  0.4761  0.6131
   99SOL    HW1  296   0.004   2.631   1.814 -0.1563  0.6154 -0.2714
   99SOL    HW2  297   0.043   2.585   1.970 -0.9510 -1.8082 -3.0349
  100SOL     OW  298   0.223   0.794   2.615 -0.0722 -0.3102 -0.1421
  100SOL    HW1  299   0.221   0.703   2.652 -0.0335  1.5147  2.7733
  100SOL    HW2  300   0.314   0.819   2.569 -0.0906 -1.2068 -2.6632
  101SOL     OW  301   1.714   0.926   0.058 -0.9553  0.2543 -0.3569
  101SOL    HW1  302   1.797   0.908   0.120  5.1261 -1.2499  3.8654
  101SOL    HW2  303   1.693   1.023   0.050 -1.3406  1.2675  1.0239
  102SOL     OW  304   0.208   0.545   1.307 -0.6308 -0.7255 -0.0278
  102SOL    HW1  305   0.247   0.497   1.389  3.5575  0.3662  0.4826
  102SOL    HW2  306   0.270   0.626   1.288  1.9682 -0.4256  2.6426
  103SOL     OW  307   2.596   0.851   1.999  0.4854  0.5832  0.4429
  103SOL    HW1  308   2.658   0.836   2.075  0.5373  1.3543 -1.8922
  103SOL    HW2  309   2.533   0.929   2.023  2.5999  0.3250  0.0526
  104SOL     OW  310   0.432   0.133   2.696 -0.5111 -0.0030 -1.1167
  104SOL    HW1  311   0.399   0.110   2.602 -0.4620 -1.3882  0.5139
  104SOL    HW2  312   0.483   0.057   2.741  0.7852 -2.9797 -0.0200
  105SOL     OW  313   2.218   1.630   1.775 -0.3821  0.4194 -0.0788
  105SOL    HW1  314   2.126   1.650   1.735  1.3662  0.0850  0.1562
  105SOL    HW2  315   2.221   1.547   1.837 -1.4676 -0.3320 -0.2785
  106SOL     OW  316   1.348   0.260   0.467 -0.0320  0.2258  0.1017
  106SOL    HW1  317   1.403   0.189   0.523  0.2730 -0.0365  1.0441
  106SOL    HW2  318   1.330   0.338   0.525 -2.0599 -1.6276 -1.2317
  107SOL     OW  319   0.049   1.809   1.470  0.1301  0.2336  0.5857
  107SOL    HW1  320   0.126   1.751   1.500 -0.8594  0.9311  2.5507
  107SOL    HW2  321   0.083   1.861   1.387 -0.4748 -1.9269  1.0585
  108SOL     OW  322   0.053   2.611   2.342  0.4076  0.1355  0.2855
  108SOL    HW1  323   0.123   2.575   2.407 -0.7494 -1.3702  0.5943
  108SOL    HW2  324   0.050   2.714   2.344 -1.1540  0.9762 -1.3270
  109SOL     OW  325   1.797   0.299   0.122  0.7776  0.1298  0.4794
  109SOL    HW1  326   1.775   0.390   0.160 -0.7524  0.5581  0.2599
  109SOL    HW2  327   1.793   0.304   0.021  1.7419 -0.6690  3.5481
  110SOL     OW  328   0.351   2.271   2.491 -0.2137  0.0157 -0.1857
  110SOL    HW1  329   0.450   2.274   2.484 -1.8187  1.8194 -0.5588
  110SOL    HW2  330   0.316   2.233   2.580 -1.2224 -0.8359 -4.3958
  111SOL     OW  331   1.460   2.593   2.007 -0.0429  0.0696  0.7131
  111SOL    HW1  332   1.560   2.561   1.999 -0.3417  1.7916  1.7410
  111SOL    HW2  333   1.430   2.631   1.920 -0.6031 -0.1150  0.5593
  112SOL     OW  334   1.883   2.624   2.575  0.0199 -0.7286  0.4911
  112SOL    HW1  335   1.787   2.599   2.604  0.5227  3.8355 -1.5348
  112SOL    HW2  336   1.948   2.598   2.646 -2.0943 -0.0374 -2.9576
  113SOL     OW  337   1.926   2.566   1.777  0.3437 -0.1338  0.3138
  113SOL    HW1  338   1.892   2.657   1.746  1.3926  2.4326 -3.5826
  113SOL    HW2  339   2.006   2.539   1.720 -3.1267 -0.3052 -0.9665
  114SOL     OW  340   2.797   0.715   0.508 -0.3327 -0.5988 -0.1775
  114SOL    HW1  341   2.708   0.710   0.460  0.7302  0.1355 -1.9663
  114SOL    HW2  342   2.788   0.780   0.585 -0.8942  0.1388  2.0416
  115SOL     OW  343   0.189   0.971   2.847  0.3821 -0.1654  0.3689
  115SOL    HW1  344   0.235   1.052   2.802 -2.3638  0.3262  1.4011
  115SOL    HW2  345   0.179   0.897   2.782  1.8596 -0.1038  3.1838
  116SOL     OW  346   0.244   1.295   2.005  0.0946  0.0768 -0.3756
  116SOL    HW1  347   0.263   1.374   1.947 -2.7279 -0.9751  0.7529
  116SOL    HW2  348   0.279   1.313   2.101 -0.9079 -0.4458  2.7863
  117SOL     OW  349   2.553   0.160   0.780 -0.9687 -0.0079 -0.1628
  117SOL    HW1  350   2.619   0.089   0.738  1.5855 -0.6092 -3.0149
  117SOL    HW2  351   2.478   0.192   0.717  0.0644 -0.9035 -0.3048
  118SOL     OW  352   1.282   1.813   1.725  0.3353  0.1501  0.3589
  118SOL    HW1  353   1.360   1.744   1.731  1.3235  0.3121 -1.2203
  118SOL    HW2  354   1.212   1.792   1.793  4.2621  0.7783  0.6673
  119SOL     OW  355   1.104   2.254   0.150  0.0976 -0.2013  0.1477
  119SOL    HW1  356   1.179   2.308   0.190 -1.7328 -1.3519 -1.1420
  119SOL    HW2  357   1.068   2.200   0.227  0.9519 -0.0831  0.3420
  120SOL     OW  358   0.551   0.972   2.774 -0.0037 -0.1532  0.2450
  120SOL    HW1  359   0.548   0.982   2.674 -1.1003 -2.2287 -0.2795
  120SOL    HW2  360   0.622   0.907   2.807 -1.3450 -0.6227  2.4174
  121SOL     OW  361   2.122   2.774   1.263  0.1326  0.1757 -0.2428
  121SOL    HW1  362   2.051   2.744   1.195 -1.2694  0.5308  0.6586
  121SOL    HW2  363   2.125   2.875   1.270 -0.8439 -0.2940 -0.3609
  122SOL     OW  364   2.489   2.199   2.085  0.0033 -0.2123  0.0958
  122SOL    HW1  365   2.423   2.142   2.139  0.3412  0.3359 -2.4714
  122SOL    HW2  366   2.476   2.303   2.096 -1.5514  0.8095  1.4451
  123SOL     OW  367   0.280   3.004   0.508  0.2944 -0.1537 -0.7186
  123SOL    HW1  368   0.313   3.090   0.556 -0.5163  2.0381  1.5169
  123SOL    HW2  369   0.182   2.988   0.537 -4.4258 -1.9135 -3.7068
  124SOL     OW  370   1.957   0.542   2.391 -0.1974 -0.5798 -0.8344
  124SOL    HW1  371   1.961   0.644   2.406  1.0422 -0.3851  1.2471
  124SOL    HW2  372   2.015   0.509   2.315 -1.7727  4.2640  0.3662
  125SOL     OW  373   0.340   1.456   0.699  0.1374 -0.1311 -0.3997
  125SOL    HW1  374   0.376   1.463   0.601 -1.7359 -1.4049 -1.4470
  125SOL    HW2  375   0.276   1.540   0.716 -1.8944  1.4587  1.0312
  126SOL     OW  376   2.247   1.633   1.016 -0.1872 -0.0552  1.1103
  126SOL    HW1  377   2.345   1.652   1.043 -0.2752  3.2929 -0.5989
  126SOL    HW2  378   2.184   1.703   1.055  1.8547  3.8147 -0.5759
  127SOL     OW  379   0.194   2.195   1.669  0.3951 -0.2273  0.5497
  127SOL    HW1  380   0.125   2.190   1.596  2.8325  0.3623  2.1409
  127SOL    HW2  381   0.216   2.294   1.688  1.7449 -1.8301  2.1806
  128SOL     OW  382   0.786   0.644   2.436 -0.1830  0.4152 -0.1703
  128SOL    HW1  383   0.740   0.633   2.526  2.6233  1.4403  2.2673
  128SOL    HW2  384   0.886   0.632   2.451 -1.7406  0.7696 -2.4402
  129SOL     OW  385   2.444   1.266   1.087  0.5759 -0.3192  0.3753
  129SOL    HW1  386   2.529   1.225   1.118 -1.0385  2.6797 -1.0623
  129SOL    HW2  387   2.472   1.308   0.996  1.2848 -0.6533 -0.2164
  130SOL     OW  388   2.628   1.415   1.549  0.0838 -0.8377  0.1680
  130SOL    HW1  389   2.635   1.313   1.557  0.8199  0.2133 -3.2849
  130SOL    HW2  390   2.570   1.453   1.625  0.8095  0.0567  1.5873
  131SOL     OW  391   2.632   0.511   0.081  0.0641 -0.0233  0.3997
  131SOL    HW1  392   2.615   0.525   0.180  1.8766 -3.2949 -2.4001
  131SOL    HW2  393   2.724   0.470   0.064 -0.1604  1.3825  0.2630
  132SOL     OW  394   2.733   2.242   1.988  0.4756  0.5792  0.2988
  132SOL    HW1  395   2.643   2.227   2.034  1.1801 -0.0800  1.8475
  132SOL    HW2  396   2.803   2.274   2.056  1.2571  1.8364 -0.2330
  133SOL     OW  397   0.412   1.152   1.067  0.1286  0.3127 -0.3622
  133SOL    HW1  398   0.356   1.205   1.001 -0.7790 -3.0663 -0.2367
  133SOL    HW2  399   0.499   1.197   1.095  2.4838  0.3034 -0.8859
  134SOL     OW  400   0.240   1.217   0.029  0.3932 -0.2735 -0.1727
  134SOL    HW1  401   0.140   1.203   0.024 -0.9061 -0.3906  0.1033
  134SOL    HW2  402   0.273   1.241   3.028  0.5880 -1.3390  3.0264
  135SOL     OW  403   2.092   1.396   1.527  0.4302 -0.1923  0.6312
  135SOL    HW1  404   2.143   1.373   1.614  1.0100 -0.7690 -1.5523
  135SOL    HW2  405   2.037   1.480   1.548 -0.7371  0.8701 -1.5965
  136SOL     OW  406   2.716   0.875   0.721 -0.3963 -0.7036 -0.1994
  136SOL    HW1  407   2.656   0.889   0.642 -0.7511 -0.8704  0.8673
  136SOL    HW2  408   2.660   0.840   0.802 -1.0529 -1.3578  2.6834
  137SOL     OW  409   2.524   1.630   1.065  0.5949 -0.0704 -0.2938
  137SOL    HW1  410   2.536   1.713   1.128 -1.8764 -0.5300 -0.9504
  137SOL    HW2  411   2.498   1.546   1.120 -1.0354  0.5145  0.5854
  138SOL     OW  412   1.722   0.843   1.192  0.0689  0.1399  0.2054
  138SOL    HW1  413   1.818   0.883   1.196 -1.5594 -1.9381  1.2574
  138SOL    HW2  414   1.716   0.748   1.229 -1.2653 -1.1473  1.4406
  139SOL     OW  415   2.116   0.053   3.021 -0.4100  0.4066 -0.2514
  139SOL    HW1  416   2.069   0.142   3.003 -1.2548 -2.0484  0.9905
  139SOL    HW2  417   2.215   0.053   3.031  0.2488 -1.1132  3.2631
  140SOL     OW  418   1.555   1.539   2.118  0.6441 -0.1799 -0.2557
  140SOL    HW1  419   1.641   1.585   2.153  1.3080 -0.5001 -1.7490
  140SOL    HW2  420   1.564   1.519   2.020  2.0326  1.5711 -0.8520
  141SOL     OW  421   2.058   1.858   1.036 -0.1731 -0.2226  0.4451
  141SOL    HW1  422   2.066   1.957   1.052 -1.5727  1.2069  1.5038
  141SOL    HW2  423   2.017   1.800   1.111 -0.2571 -1.5998  0.8733
  142SOL     OW  424   3.075   0.768   0.079 -0.1443  0.0207  0.1146
  142SOL    HW1  425   0.018   0.672   0.063  1.2932  0.2920 -0.4147
  142SOL    HW2  426   3.043   0.767   0.174 -0.5177 -4.5609  0.6805
  143SOL     OW  427   0.270   2.105   2.701  0.6524 -0.2668  0.3143
  143SOL    HW1  428   0.319   2.041   2.770  0.9507  0.4767 -0.4057
  143SOL    HW2  429   0.170   2.074   2.693 -0.1689  3.8266 -1.3119
  144SOL     OW  430   1.011   0.103   1.730 -0.3541 -0.2207 -0.5846
  144SOL    HW1  431   0.963   0.107   1.636  0.2724  0.5525 -2.0956
  144SOL    HW2  432   1.035   0.011   1.758 -0.6511 -0.2810 -1.0155
  145SOL     OW  433   2.503   1.198   0.559 -0.1734 -0.7038 -0.2519
  145SOL    HW1  434   2.572   1.249   0.505 -0.4438  3.2703 -1.7586
  145SOL    HW2  435   2.414   1.226   0.529 -0.5877 -1.8129 -0.3009
  146SOL     OW  436   2.493   2.564   0.012  0.3041  0.7929 -0.2204
  146SOL    HW1  437   2.531   2.546   3.012 -1.0094  0.8142  1.1620
  146SOL    HW2  438   2.410   2.622   3.089  0.0245 -0.2100 -0.1885
  147SOL     OW  439   2.525   2.935   1.259  0.4651 -0.3929  0.1231
  147SOL    HW1  440   2.589   2.955   1.330  0.1656 -2.9175 -2.2858
  147SOL    HW2  441   2.569   2.947   1.163  1.9368 -1.3648  0.2763
  148SOL     OW  442   1.718   0.078   2.381  0.2573 -0.3383 -0.0751
  148SOL    HW1  443   1.640   0.118   2.433 -0.2496  0.2686 -2.8758
  148SOL    HW2  444   1.773   0.022   2.442  0.2101  1.0527  1.0488
  149SOL     OW  445   1.056   0.564   2.431  0.3495 -0.0489  0.0003
  149SOL    HW1  446   1.153   0.560   2.464  0.5220  1.8360 -0.8165
  149SOL    HW2  447   1.055   0.603   2.338 -1.1436 -1.6505 -1.4005
  150SOL     OW  448   0.959   2.832   0.450  0.6251  0.8100  0.6556
  150SOL    HW1  449   0.881   2.887   0.481 -1.1245 -0.6474 -1.2110
  150SOL    HW2  450   1.011   2.788   0.527 -1.0319  2.2916  0.5365
  151SOL     OW  451   3.056   1.475   0.163 -0.0705 -0.5338  0.8170
  151SOL    HW1  452   2.975   1.533   0.142  0.2448  3.0099 -0.8454
  151SOL    HW2  453   0.018   1.456   0.080  1.7948  0.0136 -0.1786
  152SOL     OW  454   0.077   0.964   0.530  0.2799 -0.1472 -0.6668
  152SOL    HW1  455   0.151   1.031   0.513  1.6033 -2.9029  0.9067
  152SOL    HW2  456   0.037   0.919   0.445  1.5410 -2.3081  0.9414
  153SOL     OW  457   2.341   3.052   0.652 -0.3499  0.3977 -0.2408
  153SOL    HW1  458   2.349   0.055   0.614  0.0852  0.7876 -1.5154
  153SOL    HW2  459   2.277   3.039   0.730  1.5481  0.5981  1.7664
  154SOL     OW  460   0.771   0.649   1.620  0.1378  0.1254 -0.2764
  154SOL    HW1  461   0.720   0.561   1.608 -1.2235 -0.9856  3.0289
  154SOL    HW2  462   0.713   0.731   1.620 -0.7689  2.9922  0.3651
  155SOL     OW  463   3.033   1.750   0.885  0.3363 -0.4606 -0.4771
  155SOL    HW1  464   2.982   1.678   0.838  1.8099  0.8139  1.7212
  155SOL    HW2  465   2.962   1.816   0.916 -2.8109 -2.2575 -1.0993
  156SOL     OW  466   2.348   2.121   0.311 -0.2627  0.4702  0.2106
  156SOL    HW1  467   2.378   2.022   0.318  1.1123 -0.2567  1.4522
  156SOL    HW2  468   2.327   2.148   0.213  2.6953  0.4980 -1.5167
  157SOL     OW  469   1.003   2.893   0.895 -0.2824  0.1516 -0.2402
  157SOL    HW1  470   0.936   2.850   0.838  3.0305  0.8375  4.0153
  157SOL    HW2  471   1.082   2.926   0.837  0.3148 -0.6156  1.4696
  158SOL     OW  472   2.518   0.414   2.737 -0.1814  0.2077  0.0984
  158SOL    HW1  473   2.451   0.487   2.751  1.1644 -0.4685  0.8310
  158SOL    HW2  474   2.541   0.403   2.641  0.7234 -0.2079  0.7020
  159SOL     OW  475   0.571   0.170   3.079 -0.0173 -0.2025  0.6768
  159SOL    HW1  476   0.540   0.106   0.055  0.9484 -0.5607 -1.3391
  159SOL    HW2  477   0.487   0.213   3.037 -0.4842 -2.3743  2.7529
  160SOL     OW  478   1.295   1.792   0.153  0.3152 -0.1318 -0.4182
  160SOL    HW1  479   1.323   1.823   0.063  0.4255 -1.6745  2.8480
  160SOL    HW2  480   1.314   1.860   0.227 -1.6181  0.6592  0.3544
  161SOL     OW  481   2.842   2.004   2.651  0.1224 -0.0646  0.2872
  161SOL    HW1  482   2.929   2.029   2.609 -2.3478  0.5767  2.7281
  161SOL    HW2  483   2.829   2.049   2.742 -1.9433  1.1959 -1.1022
  162SOL     OW  484   0.217   2.867   0.949 -0.2761  0.1446  0.7193
  162SOL    HW1  485   0.254   2.788   1.005 -0.5939 -0.4542  1.1449
  162SOL    HW2  486   0.265   2.859   0.860 -2.1306 -0.6744 -0.7775
  163SOL     OW  487   2.051   0.321   2.891 -0.8026 -0.1684 -0.2432
  163SOL    HW1  488   2.155   0.315   2.878 -0.1577  1.4328 -1.1747
  163SOL    HW2  489   1.999   0.296   2.809 -0.8815 -0.3317 -1.0572
  164SOL     OW  490   2.837   1.968   0.824 -0.6235  0.0696  0.4726
  164SOL    HW1  491   2.757   1.900   0.803 -3.3535 -0.2748  1.2644
  164SOL    HW2  492   2.803   2.048   0.872  1.9606  0.1743 -0.3205
  165SOL     OW  493   2.641   0.084   1.756 -0.6240 -0.4354  0.0893
  165SOL    HW1  494   2.728   0.086   1.702 -0.8147  0.5497  1.6608
  165SOL    HW2  495   2.573   0.023   1.718  1.8977  0.7494  1.9393
  166SOL     OW  496   2.214   0.443   0.726 -0.2726 -0.5556  0.4094
  166SOL    HW1  497   2.173   0.381   0.654  1.4665  1.4968 -1.2101
  166SOL    HW2  498   2.238   0.402   0.816 -0.3517 -1.3164 -2.2064
  167SOL     OW  499   0.682   0.297   0.984 -0.5425 -0.1645 -0.1527
  167SOL    HW1  500   0.753   0.271   1.051 -0.0498  0.9516 -1.9805
  167SOL    HW2  501   0.719   0.377   0.934  2.6309 -2.4730 -0.4595
  168SOL     OW  502   1.978   3.005   1.871  0.2214  0.0460  0.7579
  168SOL    HW1  503   1.949   3.030   1.967  1.1530  2.1058 -1.0650
  168SOL    HW2  504   2.076   3.005   1.857 -2.3584  1.8393  0.2851
  169SOL     OW  505   0.265   1.271   0.883  0.1163 -0.0867 -0.1922
  169SOL    HW1  506   0.299   1.344   0.819  0.2809  0.8347  1.8359
  169SOL    HW2  507   0.180   1.229   0.848  2.6122 -1.9527  0.1629
  170SOL     OW  508   2.551   0.761   1.271  0.4313 -0.2154  0.4129
  170SOL    HW1  509   2.482   0.787   1.201  0.7392  0.0587 -0.1003
  170SOL    HW2  510   2.513   0.773   1.364  0.5787  0.9127  3.5155
  171SOL     OW  511   0.856   2.533   1.618 -0.4374 -0.5665  0.7018
  171SOL    HW1  512   0.927   2.471   1.580 -1.9059 -0.4109 -2.4048
  171SOL    HW2  513   0.894   2.623   1.615 -0.6454 -2.5213  0.7506
  172SOL     OW  514   0.212   2.613   1.249  0.5667 -0.3653  0.0331
  172SOL    HW1  515   0.216   2.530   1.308 -0.6969  1.6953  1.3607
  172SOL    HW2  516   0.190   2.696   1.304  0.6734  3.7079  0.2133
  173SOL     OW  517   1.413   0.069   0.044  0.0837  0.0120  0.1386
  173SOL    HW1  518   1.314   0.087   0.072 -0.3282 -2.6561  1.4084
  173SOL    HW2  519   1.449   0.158   0.010 -2.7031  0.1106 -3.9509
  174SOL     OW  520   1.483   0.173   2.808 -0.9065  0.0751 -0.6468
  174SOL    HW1  521   1.396   0.209   2.844  0.3062 -1.8799 -1.3458
  174SOL    HW2  522   1.482   0.177   2.706  0.8317 -0.9306  1.3287
  175SOL     OW  523   1.784   2.502   2.916 -0.1638  0.2164 -0.2993
  175SOL    HW1  524   1.742   2.529   2.831  2.0698 -1.7276 -0.1555
  175SOL    HW2  525   1.839   2.581   2.946  1.3977  0.5499 -0.6380
  176SOL     OW  526   1.733   0.204   2.942  0.1911  0.0310  0.0506
  176SOL    HW1  527   1.753   0.119   2.993 -0.0189 -0.8090  0.0509
  176SOL    HW2  528   1.642   0.199   2.898  0.5000 -0.1586 -3.8312
  177SOL     OW  529   0.804   1.509   0.546  0.3838  0.2841 -0.5116
  177SOL    HW1  530   0.861   1.554   0.478 -1.6764 -1.3683  2.3265
  177SOL    HW2  531   0.802   1.571   0.626  0.7932 -0.5009 -1.1719
  178SOL     OW  532   0.001   1.650   2.526 -0.1951  0.0135 -0.1383
  178SOL    HW1  533   0.057   1.643   2.439  1.4126 -0.4535  0.2301
  178SOL    HW2  534   2.992   1.645   2.500  0.1704  1.4973 -2.8326
  179SOL     OW  535   0.713   2.480   2.688  0.3565  0.0926  0.2105
  179SOL    HW1  536   0.808   2.516   2.664  1.1657  1.2721  2.6123
  179SOL    HW2  537   0.660   2.559   2.717  0.8786  0.8850 -3.1837
  180SOL     OW  538   1.981   1.968   1.507 -0.4757 -0.3717  0.1278
  180SOL    HW1  539   1.965   1.977   1.608 -0.9408 -0.5985 -0.8784
  180SOL    HW2  540   1.925   1.892   1.471  0.1684  0.5520 -0.4852
  181SOL     OW  541   1.473   1.106   2.231  0.3033 -0.2614  0.4431
  181SOL    HW1  542   1.539   1.044   2.192 -1.4572 -0.5436 -0.0798
  181SOL    HW2  543   1.461   1.101   2.333 -1.9663  1.5375 -0.9616
  182SOL     OW  544   2.982   0.147   2.631 -0.2705  0.1323  0.3981
  182SOL    HW1  545   2.942   0.068   2.682  0.2822 -0.1976  2.4283
  182SOL    HW2  546   3.057   0.125   2.567 -0.9996 -1.1192  0.5993
  183SOL     OW  547   1.366   0.577   2.735  0.2126  0.5986 -0.2646
  183SOL    HW1  548   1.327   0.561   2.644  1.5098  0.0169  0.5157
  183SOL    HW2  549   1.468   0.575   2.727 -0.5397 -0.4057 -0.4763
  184SOL     OW  550   0.624   1.101   1.263  0.2822 -0.0529  0.0675
  184SOL    HW1  551   0.695   1.136   1.325 -0.8803  1.4204 -0.4789
  184SOL    HW2  552   0.656   1.117   1.163 -0.9819 -1.1326 -1.9387
  185SOL     OW  553   2.481   1.047   1.337 -0.2122  0.1309 -0.3703
  185SOL    HW1  554   2.488   0.954   1.376 -1.2337 -1.3717 -3.0884
  185SOL    HW2  555   2.566   1.084   1.300 -0.4068  0.1571  3.0155
  186SOL     OW  556   0.629   1.561   2.425 -0.3770  0.2400 -0.1357
  186SOL    HW1  557   0.725   1.583   2.408 -0.1388 -1.2139  2.1260
  186SOL    HW2  558   0.564   1.637   2.409 -3.2771 -0.2049  0.2930
  187SOL     OW  559   2.314   1.358   0.351 -0.2092 -0.2953 -0.2376
  187SOL    HW1  560   2.229   1.346   0.292 -0.5766 -0.1632 -3.2709
  187SOL    HW2  561   2.401   1.364   0.294  0.8284 -1.5198  0.9580
  188SOL     OW  562   0.086   1.919   0.449 -0.2390  0.0722  0.4481
  188SOL    HW1  563   0.017   1.968   0.500 -0.6625 -1.0132 -0.9553
  188SOL    HW2  564   0.176   1.967   0.456  0.2372 -1.0589 -1.1457
  189SOL     OW  565   2.608   0.443   0.581 -0.0746 -0.5777  0.0975
  189SOL    HW1  566   2.672   0.467   0.510 -4.9379 -0.9585  0.9893
  189SOL    HW2  567   2.627   0.347   0.611 -0.0797  3.3362 -1.9880
  190SOL     OW  568   1.218   1.282   2.345  0.4078  0.3550 -0.2686
  190SOL    HW1  569   1.246   1.315   2.247 -0.3672 -1.5237 -4.1449
  190SOL    HW2  570   1.147   1.210   2.334 -1.0531 -1.9711  0.7465
  191SOL     OW  571   2.241   0.237   1.932 -0.0505  0.7490 -0.4666
  191SOL    HW1  572   2.322   0.297   1.956  3.1131 -1.1892  2.2968
  191SOL    HW2  573   2.233   0.216   1.832  0.5801 -3.2914 -2.3714
  192SOL     OW  574   1.737   0.767   1.510 -0.1323  0.7122 -0.7425
  192SOL    HW1  575   1.680   0.787   1.593  0.3465  0.3757 -0.6414
  192SOL    HW2  576   1.702   0.682   1.464 -0.1175 -0.5891  0.3333
  193SOL     OW  577   0.749   0.518   0.847  0.0222  0.0111 -0.1862
  193SOL    HW1  578   0.708   0.585   0.782  1.2096 -0.2819  0.2480
  193SOL    HW2  579   0.843   0.539   0.874  0.8855 -3.2487 -1.6318
  194SOL     OW  580   1.351   2.670   0.793 -0.3049 -0.8003 -0.4612
  194SOL    HW1  581   1.391   2.670   0.700  2.7470 -1.2255  2.5537
  194SOL    HW2  582   1.407   2.722   0.867  2.7384  0.3121  2.9365
  195SOL     OW  583   2.401   0.617   0.662  0.1760  0.0790 -0.0160
  195SOL    HW1  584   2.477   0.556   0.623  0.2565  1.0295 -2.1261
  195SOL    HW2  585   2.315   0.559   0.669  0.4444 -0.8405 -1.0368
  196SOL     OW  586   1.127   1.724   1.476  0.8205 -0.5239  0.4672
  196SOL    HW1  587   1.102   1.794   1.406 -1.9584 -1.6182 -0.9814
  196SOL    HW2  588   1.213   1.743   1.525 -1.1120  0.5482 -0.1340
  197SOL     OW  589   0.214   2.850   0.283  0.1444  0.2868  0.3472
  197SOL    HW1  590   0.224   2.912   0.365 -1.3298  1.8107  2.3239
  197SOL    HW2  591   0.269   2.756   0.291  1.7150 -1.5936  0.9966
  198SOL     OW  592   0.846   1.255   0.577  0.2636  0.2175 -0.7965
  198SOL    HW1  593   0.750   1.228   0.564 -1.4213 -0.5328 -0.6295
  198SOL    HW2  594   0.848   1.356   0.579  0.1255 -1.7928  0.9361
  199SOL     OW  595   0.260   2.935   1.595  0.0575 -0.2463  0.2375
  199SOL    HW1  596   0.361   2.940   1.571 -2.3388 -0.6554  0.5138
  199SOL    HW2  597   0.230   3.021   1.647  2.5131 -0.0911  1.1622
  200SOL     OW  598   2.136   1.969   2.685  0.1164  0.1767  0.7207
  200SOL    HW1  599   2.131   1.948   2.787 -1.1649 -1.5714 -0.4030
  200SOL    HW2  600   2.069   2.036   2.660 -0.0441 -1.6724  0.8375
  201SOL     OW  601   2.596   2.961   0.985  0.2096  0.6762 -0.4207
  201SOL    HW1  602   2.515   2.941   0.924 -0.2061 -1.9741  1.1546
  201SOL    HW2  603   2.679   2.922   0.940 -0.5430  0.4913  0.1315
  202SOL     OW  604   2.959   0.392   0.305  0.2467 -0.0666 -0.3448
  202SOL    HW1  605   2.923   0.428   0.215  4.1616  1.0448 -0.3670
  202SOL    HW2  606   2.889   0.330   0.343 -0.3899  2.4824 -0.3967
  203SOL     OW  607   1.218   1.449   2.131  0.3242  0.0368 -0.0755
  203SOL    HW1  608   1.243   1.459   2.035  0.3243 -0.0159  0.8219
  203SOL    HW2  609   1.242   1.532   2.185  0.3878  1.7371  0.7741
  204SOL     OW  610   0.953   1.385   2.137  0.1605  0.3365 -0.0039
  204SOL    HW1  611   1.053   1.415   2.123  1.2480  4.1103  1.0612
  204SOL    HW2  612   0.952   1.288   2.171 -0.3705 -0.7172  0.5040
  205SOL     OW  613   1.284   2.054   1.616  0.0683 -0.1956  0.1407
  205SOL    HW1  614   1.289   1.967   1.657 -0.4013  0.1820 -1.2375
  205SOL    HW2  615   1.222   2.052   1.536 -0.1131 -0.8642  0.9365
  206SOL     OW  616   0.170   0.192   2.807  0.0256 -0.1547  0.1307
  206SOL    HW1  617   0.264   0.151   2.807  0.6184 -0.3161  1.3131
  206SOL    HW2  618   0.140   0.233   2.722 -0.9352 -0.9943  2.2869
  207SOL     OW  619   1.916   3.064   2.129  0.4103 -0.0376 -0.2028
  207SOL    HW1  620   1.832   0.012   2.176  1.3416  3.4213  1.6433
  207SOL    HW2  621   1.919   2.967   2.157 -2.5096 -0.7013  3.2387
  208SOL     OW  622   0.645   2.216   1.849 -0.0776  0.0005  0.3541
  208SOL    HW1  623   0.612   2.127   1.810  1.9543 -0.8002  0.6015
  208SOL    HW2  624   0.634   2.296   1.785 -0.6656  0.1771  2.6074
  209SOL     OW  625   1.853   1.106   2.749  0.0153  0.7596 -0.2214
  209SOL    HW1  626   1.794   1.117   2.666 -1.1423  0.2529  2.4553
  209SOL    HW2  627   1.815   1.026   2.801  0.2703  0.4362 -2.1337
  210SOL     OW  628   2.886   0.523   0.741 -0.0290  0.2114 -0.1645
  210SOL    HW1  629   2.869   0.594   0.674  1.4005 -1.3170  2.7592
  210SOL    HW2  630   2.846   0.536   0.830 -0.1795 -2.2144 -2.2856
  211SOL     OW  631   0.669   1.226   1.020 -0.2667  0.0038 -0.0973
  211SOL    HW1  632   0.610   1.284   0.963  1.5325 -1.9407  1.2629
  211SOL    HW2  633   0.750   1.197   0.962  1.5305  0.1942 -3.6960
  212SOL     OW  634   1.315   1.589   0.474 -0.1294 -0.3608  0.1092
  212SOL    HW1  635   1.384   1.514   0.473  0.7541  1.6359 -3.3031
  212SOL    HW2  636   1.247   1.572   0.398 -3.3794  0.6837  0.5057
  213SOL     OW  637   1.483   3.088   1.668 -0.1713 -0.1301  0.4344
  213SOL    HW1  638   1.576   0.035   1.646  0.3379 -0.9554  0.7835
  213SOL    HW2  639   1.408   0.056   1.626  0.5155 -1.3662 -1.1598
  214SOL     OW  640   1.498   1.504   2.408  0.0382 -0.5214  0.1967
  214SOL    HW1  641   1.407   1.522   2.444  0.2389 -1.0859 -0.0595
  214SOL    HW2  642   1.506   1.501   2.303 -2.1836  0.3177 -2.9433
  215SOL     OW  643   0.282   1.907   1.028 -0.0817 -0.0225 -0.0515
  215SOL    HW1  644   0.294   1.809   1.042 -1.9334  1.4323 -0.8571
  215SOL    HW2  645   0.261   1.924   0.929 -0.3313  0.3967 -2.0091
  216SOL     OW  646   0.702   2.933   2.185  0.1900  0.3742 -0.4393
  216SOL    HW1  647   0.643   3.005   2.143 -0.0207  4.2935  0.8301
  216SOL    HW2  648   0.761   2.968   2.263 -2.4890  0.9622 -1.2944
  217SOL     OW  649   2.381   0.412   0.066 -0.2699  0.5595  0.5046
  217SOL    HW1  650   2.354   0.366   3.068  0.9543 -2.4275 -3.2380
  217SOL    HW2  651   2.479   0.446   0.061  1.6952 -2.3530 -1.5654
  218SOL     OW  652   2.184   1.678   2.180  0.1961 -0.1872 -0.4344
  218SOL    HW1  653   2.146   1.723   2.264  0.8361 -0.6260 -0.3249
  218SOL    HW2  654   2.173   1.746   2.101 -0.6778  2.3216 -0.2204
  219SOL     OW  655   1.518   1.118   0.323 -0.4920  0.3718 -0.2742
  219SOL    HW1  656   1.496   1.209   0.358 -0.1988 -1.8864  2.3958
  219SOL    HW2  657   1.603   1.123   0.259  3.9008 -0.1236 -3.1086
  220SOL     OW  658   1.324   1.777   0.972 -0.2752 -0.5751  0.5718
  220SOL    HW1  659   1.379   1.864   0.967  2.2505 -2.0682  0.2273
  220SOL    HW2  660   1.279   1.753   1.060  0.2320  0.4324  0.4537
  221SOL     OW  661   0.345   0.349   2.979 -0.6325  0.1026  0.2642
  221SOL    HW1  662   0.399   0.437   2.966  0.2820  4.3698 -1.0665
  221SOL    HW2  663   0.286   0.331   2.895 -0.2822  0.5288 -0.8640
  222SOL     OW  664   1.063   2.437   1.473 -0.6286  0.0867 -0.2240
  222SOL    HW1  665   1.024   2.366   1.410  2.7285 -0.5027  2.3810
  222SOL    HW2  666   1.145   2.477   1.430 -1.2856  1.8074  0.6982
  223SOL     OW  667   1.467   2.771   2.790 -0.1777  0.2324  0.0498
  223SOL    HW1  668   1.504   2.864   2.808  0.4204  0.8634  0.5009
  223SOL    HW2  669   1.454   2.719   2.877 -1.1350 -1.7018 -0.6165
  224SOL     OW  670   2.513   1.467   1.304 -0.2583  0.2361  0.3773
  224SOL    HW1  671   2.570   1.448   1.379 -0.9460  0.7960  0.8963
  224SOL    HW2  672   2.537   1.415   1.222  1.0982  0.0322  0.4492
  225SOL     OW  673   0.836   1.129   1.458 -0.5114  0.0732  0.6357
  225SOL    HW1  674   0.825   1.089   1.557 -0.2620 -1.1138  2.7953
  225SOL    HW2  675   0.934   1.121   1.439  0.9368  0.4435  0.9944
  226SOL     OW  676   1.645   2.576   2.700  0.4591 -0.4239 -0.1030
  226SOL    HW1  677   1.589   2.640   2.753 -1.1371 -2.0803 -2.0534
  226SOL    HW2  678   1.582   2.495   2.686 -1.9743 -3.4187 -3.3838
  227SOL     OW  679   0.782   2.126   0.996  0.3013  0.4517 -0.0148
  227SOL    HW1  680   0.700   2.092   0.948 -0.6792  1.4585 -1.1423
  227SOL    HW2  681   0.768   2.222   1.036  0.7038  1.1132  0.0958
  228SOL     OW  682   0.215   2.258   1.118 -0.2997  0.0884  0.1490
  228SOL    HW1  683   0.197   2.299   1.212 -1.1270  2.0787 -1.3201
  228SOL    HW2  684   0.143   2.195   1.088  0.2692  1.3758  2.5855
  229SOL     OW  685   2.100   1.304   0.190  0.1564 -0.0194  0.5981
  229SOL    HW1  686   2.064   1.388   0.146 -1.3068  1.4310  1.1482
  229SOL    HW2  687   2.165   1.255   0.123  0.7942 -1.7568 -0.9534
  230SOL     OW  688   0.979   1.116   2.215 -0.0357 -0.0156  0.0899
  230SOL    HW1  689   0.888   1.087   2.178  1.1979  0.9987 -0.9358
  230SOL    HW2  690   1.050   1.093   2.146  0.7237 -0.8887 -0.8907
  231SOL     OW  691   1.662   1.898   1.722 -0.1891  0.4218 -0.1704
  231SOL    HW1  692   1.750   1.923   1.765  1.6363 -0.4672 -0.0899
  231SOL    HW2  693   1.654   1.799   1.731 -1.1768  4.5935  0.0040
  232SOL     OW  694   1.953   2.354   1.255  0.6564  0.3127  0.0572
  232SOL    HW1  695   1.924   2.293   1.335 -0.1490 -1.8936  2.9603
  232SOL    HW2  696   1.899   2.443   1.258 -2.6497  3.8357 -1.2115
  233SOL     OW  697   1.767   2.507   2.349 -0.0475  0.2878  0.1666
  233SOL    HW1  698   1.822   2.564   2.417 -0.9872  2.8703  1.2547
  233SOL    HW2  699   1.681   2.468   2.389  0.1354 -0.2245  2.7533
  234SOL     OW  700   1.204   2.935   2.787  0.6302  0.7582 -0.7013
  234SOL    HW1  701   1.278   2.873   2.759 -0.2166  0.9287  1.1643
  234SOL    HW2  702   1.144   2.972   2.714 -1.9496  0.4848 -0.2145
  235SOL     OW  703   2.730   2.773   3.053 -0.2188 -0.5208  0.0333
  235SOL    HW1  704   2.783   2.742   0.044  1.4426 -0.2730  0.1258
  235SOL    HW2  705   2.641   2.723   3.045 -1.5157  0.6163 -0.6116
  236SOL     OW  706   2.126   2.431   2.454 -0.1081  0.3097  0.1586
  236SOL    HW1  707   2.224   2.398   2.445 -0.6897  1.5252  0.7661
  236SOL    HW2  708   2.119   2.513   2.512  0.0826 -0.0421  1.1396
  237SOL     OW  709   1.565   1.158   1.445  0.2185  0.4391 -0.0562
  237SOL    HW1  710   1.507   1.076   1.448 -2.5857 -2.6876 -0.8429
  237SOL    HW2  711   1.507   1.241   1.431  2.6407 -0.3847  0.3539
  238SOL     OW  712   2.459   0.070   2.294  0.5640 -0.3791  0.1530
  238SOL    HW1  713   2.556   0.074   2.262  0.5301 -0.9347 -2.0299
  238SOL    HW2  714   2.405   0.045   2.213 -1.3633  1.9899 -0.5586
  239SOL     OW  715   0.655   1.606   1.868 -0.4307 -0.3129 -0.3086
  239SOL    HW1  716   0.616   1.558   1.791  2.3696 -0.2897 -1.8458
  239SOL    HW2  717   0.581   1.606   1.939 -0.3230  1.5124  2.0889
  240SOL     OW  718   3.050   2.302   0.628  0.0028 -0.2601  0.4694
  240SOL    HW1  719   3.050   2.380   0.693  0.8102 -1.3798 -0.7621
  240SOL    HW2  720   2.974   2.316   0.559 -0.6890 -0.0579  0.0956
  241SOL     OW  721   1.809   2.070   0.928 -0.0065 -0.2480 -0.1190
  241SOL    HW1  722   1.904   2.041   0.923 -1.2585 -1.2962  0.3508
  241SOL    HW2  723   1.755   2.037   0.847 -3.7672 -0.7565 -2.1413
  242SOL     OW  724   1.281   1.596   2.916 -0.0998  0.3486 -0.0922
  242SOL    HW1  725   1.375   1.546   2.923  1.9074 -2.8990  1.8281
  242SOL    HW2  726   1.300   1.695   2.901  0.8348 -0.5406 -0.1866
  243SOL     OW  727   0.967   2.801   2.060  0.0908 -0.0067 -0.3060
  243SOL    HW1  728   0.870   2.816   2.077  2.2485 -0.6799 -0.3303
  243SOL    HW2  729   0.991   2.707   2.080 -4.1870  1.9420  1.9528
  244SOL     OW  730   1.934   3.068   2.624  0.7989  0.3254  0.3320
  244SOL    HW1  731   1.927   2.992   2.556 -1.8033  0.1604  1.3807
  244SOL    HW2  732   2.006   0.042   2.598  0.8029  0.1965  2.8184
  245SOL     OW  733   1.319   2.959   0.465 -0.4136 -0.4679  0.2563
  245SOL    HW1  734   1.399   3.025   0.466  0.9404  3.0020  1.3629
  245SOL    HW2  735   1.231   3.002   0.428  0.8054 -1.3913  0.6969
  246SOL     OW  736   1.236   2.924   3.063  0.1802 -0.1647 -0.1556
  246SOL    HW1  737   1.212   2.934   2.964 -0.7493 -0.7729  2.3683
  246SOL    HW2  738   1.324   2.974   3.079 -0.1161  1.2674 -0.8875
  247SOL     OW  739   3.073   0.611   1.940 -0.2124 -0.3967  0.2303
  247SOL    HW1  740   2.995   0.583   1.999 -0.0470 -0.2716 -1.7006
  247SOL    HW2  741   3.044   0.594   1.843 -0.5784 -2.0899 -2.7492
  248SOL     OW  742   0.764   0.965   2.065 -0.2855  0.5639 -0.2074
  248SOL    HW1  743   0.666   0.942   2.074 -0.2845  1.6802  1.3641
  248SOL    HW2  744   0.819   0.886   2.041 -1.0660  5.2156 -1.5137
  249SOL     OW  745   2.281   0.622   0.212  0.6340  0.4169 -0.3564
  249SOL    HW1  746   2.188   0.582   0.233  2.2000  1.9063  1.6744
  249SOL    HW2  747   2.339   0.554   0.168  1.2509 -1.5258  0.9892
  250SOL     OW  748   0.595   0.030   0.244 -0.0712  0.0727 -0.5312
  250SOL    HW1  749   0.565   3.032   0.274 -0.7347  0.4912 -2.1586
  250SOL    HW2  750   0.682   0.049   0.293  0.0870 -1.8125 -1.2509
  251SOL     OW  751   1.123   0.145   2.635  0.0789  0.4451 -0.5962
  251SOL    HW1  752   1.072   0.069   2.684 -0.1339 -2.0740 -0.3699
  251SOL    HW2  753   1.222   0.133   2.632 -0.1238 -0.2183 -0.5969
  252SOL     OW  754   1.761   1.710   2.229 -0.1718  0.1616 -0.0906
  252SOL    HW1  755   1.766   1.786   2.164 -0.1946  0.7977  0.3416
  252SOL    HW2  756   1.807   1.730   2.317  1.3467  1.4889  0.1432
  253SOL     OW  757   2.184   2.300   2.081  0.0527 -0.5700 -0.0700
  253SOL    HW1  758   2.229   2.232   2.145  0.9732 -1.0019  5.8248
  253SOL    HW2  759   2.235   2.315   1.994 -0.4390 -2.2514  0.5852
  254SOL     OW  760   1.068   2.167   1.749  0.3079  0.2787  0.1200
  254SOL    HW1  761   1.145   2.128   1.693 -0.4558  1.4752  1.5585
  254SOL    HW2  762   1.051   2.265   1.736 -0.5341 -0.3356  1.6758
  255SOL     OW  763   0.864   1.151   0.851  0.6411  0.2537  0.5463
  255SOL    HW1  764   0.951   1.148   0.899 -2.0768  1.6176  0.5371
  255SOL    HW2  765   0.871   1.196   0.761 -2.4898  1.7481  1.5527
  256SOL     OW  766   1.826   1.935   2.060  0.3892 -0.3461 -0.1535
  256SOL    HW1  767   1.790   2.011   2.000  1.7736  2.1271 -0.3668
  256SOL    HW2  768   1.893   1.979   2.123  1.6136 -0.8691  0.9796
  257SOL     OW  769   0.588   2.265   2.832  0.2940  0.1731 -0.2769
  257SOL    HW1  770   0.629   2.352   2.797  0.9155  0.2255  2.6668
  257SOL    HW2  771   0.496   2.279   2.857  2.4422  1.2697 -2.1021
  258SOL     OW  772   0.682   0.281   2.105 -0.1007  0.5629  0.2823
  258SOL    HW1  773   0.736   0.359   2.132 -1.5551 -3.1636  1.2215
  258SOL    HW2  774   0.742   0.207   2.071 -0.1197  0.1454  0.5401
  259SOL     OW  775   0.857   0.444   2.215  0.4921 -0.3420  0.1191
  259SOL    HW1  776   0.816   0.512   2.284 -0.0413  1.1675  0.3682
  259SOL    HW2  777   0.947   0.490   2.189 -1.2264  3.5370 -2.5144
  260SOL     OW  778   1.352   0.733   0.810  0.1620 -0.5441  0.0247
  260SOL    HW1  779   1.327   0.833   0.788  0.0342  2.2870  0.7412
  260SOL    HW2  780   1.276   0.673   0.776  1.9685 -0.4272  2.0725
  261SOL     OW  781   0.743   0.026   2.752  0.4164 -0.2091 -0.3245
  261SOL    HW1  782   0.841   3.089   2.772  1.1355 -2.6692 -2.6131
  261SOL    HW2  783   0.735   0.083   2.665 -0.5924  2.9016 -0.5893
  262SOL     OW  784   2.421   2.985   2.786  0.3924 -0.7378 -0.5767
  262SOL    HW1  785   2.435   3.021   2.882 -1.7266 -1.9338  2.4503
  262SOL    HW2  786   2.416   3.056   2.715 -2.0155  0.6410 -0.4759
  263SOL     OW  787   0.397   1.971   2.442  0.0598  0.0888  0.0186
  263SOL    HW1  788   0.319   1.999   2.497  2.0553 -3.0535 -1.5866
  263SOL    HW2  789   0.466   1.941   2.513  1.1309  0.0722  0.7397
  264SOL     OW  790   0.623   1.440   1.187  0.2692 -0.3692  0.2251
  264SOL    HW1  791   0.627   1.536   1.157 -0.9314  0.4025 -1.9214
  264SOL    HW2  792   0.656   1.381   1.113  0.8363  1.7568  0.6072
  265SOL     OW  793   0.465   1.795   3.040 -0.0488  0.3689 -0.5666
  265SOL    HW1  794   0.435   1.706   3.001 -0.6226 -1.0205  0.2719
  265SOL    HW2  795   0.565   1.791   3.076  0.5718 -0.1596 -1.0837
  266SOL     OW  796   1.182   1.215   0.412 -0.0181 -0.2975  0.4898
  266SOL    HW1  797   1.240   1.278   0.470 -0.1604  0.9900 -0.2794
  266SOL    HW2  798   1.120   1.162   0.475  0.1414  1.1453 -0.9009
  267SOL     OW  799   2.407   1.033   0.252 -0.2073 -0.2316 -0.5499
  267SOL    HW1  800   2.469   0.982   0.186 -0.4054  0.1043 -0.7168
  267SOL    HW2  801   2.328   0.972   0.284 -1.1581 -2.2494 -0.2021
  268SOL     OW  802   2.660   0.124   2.876  0.1137  0.1592 -0.4168
  268SOL    HW1  803   2.650   0.218   2.845  1.0870 -0.5777  0.8594
  268SOL    HW2  804   2.720   0.072   2.806  1.7578 -0.0882 -1.7496
  269SOL     OW  805   1.671   0.593   2.690 -0.3596  0.0248  0.3401
  269SOL    HW1  806   1.699   0.517   2.625 -3.3779 -1.3809 -1.9533
  269SOL    HW2  807   1.700   0.689   2.660 -1.9848  6.1350 -0.7423
  270SOL     OW  808   0.792   1.221   2.609 -0.3457 -0.1525 -0.4540
  270SOL    HW1  809   0.701   1.259   2.596  1.9875 -2.1239 -0.3326
  270SOL    HW2  810   0.860   1.294   2.630  0.4611  0.3329  0.8790
  271SOL     OW  811   2.580   1.250   0.254 -0.7030 -0.2406 -0.4933
  271SOL    HW1  812   2.532   1.165   0.276  0.4633  1.1216 -1.6116
  271SOL    HW2  813   2.644   1.269   0.333  1.1843  0.2687  1.5927
  272SOL     OW  814   2.732   1.764   2.728 -0.4767  0.3372  0.2525
  272SOL    HW1  815   2.652   1.812   2.766  0.7943  0.4642 -0.4735
  272SOL    HW2  816   2.794   1.826   2.678 -0.5441  1.7781  0.3525
  273SOL     OW  817   2.015   0.583   0.238 -0.0583 -0.1286 -0.0705
  273SOL    HW1  818   1.982   0.542   0.319  2.7611  2.0974 -4.2695
  273SOL    HW2  819   1.965   0.558   0.151  0.1643  2.1898  0.6891
  274SOL     OW  820   0.374   2.677   1.063 -0.1345  0.3045  0.2821
  274SOL    HW1  821   0.441   2.607   1.037  0.2811  0.6367  0.7569
  274SOL    HW2  822   0.310   2.648   1.136  0.2828 -0.7120  0.5261
  275SOL     OW  823   2.400   1.700   0.781 -0.1351  0.4977 -0.5958
  275SOL    HW1  824   2.451   1.621   0.821 -1.9572 -3.0778  1.0330
  275SOL    HW2  825   2.305   1.707   0.825 -2.3320  2.9993  0.7119
  276SOL     OW  826   0.251   1.055   2.286  0.1093  0.1279 -0.1146
  276SOL    HW1  827   0.198   1.075   2.372 -1.0984 -0.2774  2.1857
  276SOL    HW2  828   0.194   1.071   2.207 -0.0217 -0.0614  3.7912
  277SOL     OW  829   1.637   2.318   1.211 -0.0588 -0.1840 -0.3197
  277SOL    HW1  830   1.695   2.399   1.217 -1.3255 -0.6756  0.4767
  277SOL    HW2  831   1.693   2.235   1.185  3.0851 -2.7830  1.4089
  278SOL     OW  832   1.122   0.368   1.744 -0.0669  0.0600  0.0011
  278SOL    HW1  833   1.091   0.270   1.767  1.4864  0.3552 -3.1037
  278SOL    HW2  834   1.164   0.372   1.651 -1.1048  0.8693  0.7259
  279SOL     OW  835   1.768   1.730   0.515 -0.4403 -0.6815 -0.6169
  279SOL    HW1  836   1.676   1.719   0.560  0.0299 -0.1440  1.7487
  279SOL    HW2  837   1.820   1.818   0.545  1.9074  0.6106  2.5082
  280SOL     OW  838   0.585   1.996   0.852  0.1784  0.0027  0.5860
  280SOL    HW1  839   0.652   2.010   0.774  2.0580 -1.7271 -0.2605
  280SOL    HW2  840   0.492   1.981   0.818  1.0126 -0.6029 -0.3676
  281SOL     OW  841   2.930   0.418   2.617  0.1440 -0.2926  0.3567
  281SOL    HW1  842   2.955   0.477   2.540 -2.5225 -1.8403 -1.8101
  281SOL    HW2  843   2.950   0.323   2.609 -0.9610  0.3319 -1.0515
  282SOL     OW  844   0.418   0.998   0.786 -0.2963 -0.5691 -0.0650
  282SOL    HW1  845   0.368   0.927   0.728 -0.8477 -3.3768 -0.7018
  282SOL    HW2  846   0.390   1.011   0.880  0.9573  0.6983 -0.8211
  283SOL     OW  847   2.023   1.925   0.262 -0.2403 -0.2041  0.7525
  283SOL    HW1  848   2.042   1.992   0.337  1.2774 -0.9206 -0.1997
  283SOL    HW2  849   1.921   1.921   0.251 -2.8037 -0.4617 -0.9347
  284SOL     OW  850   1.246   1.086   0.178 -0.6481 -0.0966  0.0909
  284SOL    HW1  851   1.238   1.135   0.270 -2.3179 -0.4286  2.3273
  284SOL    HW2  852   1.307   1.138   0.116  0.5189 -1.8373  0.6735
  285SOL     OW  853   2.299   0.597   2.791  0.1122  0.3486 -0.3325
  285SOL    HW1  854   2.262   0.640   2.874 -1.5140 -0.6628  1.8866
  285SOL    HW2  855   2.222   0.556   2.734 -1.0569  1.2641  1.8748
  286SOL     OW  856   1.480   2.676   1.424  0.0498 -0.2317  0.2396
  286SOL    HW1  857   1.518   2.742   1.493  1.0714 -0.9704 -0.3942
  286SOL    HW2  858   1.440   2.717   1.343  2.2039 -1.8125 -2.0472
  287SOL     OW  859   1.061   1.215   1.021  0.6843 -0.4710  0.2862
  287SOL    HW1  860   1.158   1.252   1.021 -0.1792  1.4683  0.5792
  287SOL    HW2  861   1.037   1.176   1.115 -0.2976 -1.2555  0.2852
  288SOL     OW  862   1.550   3.000   2.892  0.4304 -0.4257  0.2224
  288SOL    HW1  863   1.618   3.021   2.968  2.5322  0.2237  0.2265
  288SOL    HW2  864   1.530   3.083   2.834  1.3432 -0.5339 -1.0364
  289SOL     OW  865   0.272   1.535   1.879  0.2361 -0.0554 -0.3893
  289SOL    HW1  866   0.325   1.570   1.801 -1.6885  2.0514  0.0423
  289SOL    HW2  867   0.178   1.534   1.850 -0.7191 -0.8252 -1.0154
  290SOL     OW  868   1.854   2.340   0.988 -0.3041 -0.3106  0.1307
  290SOL    HW1  869   1.890   2.344   1.079 -3.2337  0.3937 -5.3642
  290SOL    HW2  870   1.859   2.243   0.956 -0.1534  0.3481 -1.1465
  291SOL     OW  871   2.166   2.348   2.924  0.2560 -0.0413 -0.0666
  291SOL    HW1  872   2.138   2.439   2.969 -1.9840 -0.3857 -0.5128
  291SOL    HW2  873   2.251   2.350   2.869 -0.7483  0.0131 -2.7829
  292SOL     OW  874   0.885   0.740   1.988 -0.6337  0.2724 -0.3991
  292SOL    HW1  875   0.955   0.696   2.045 -0.6976  1.0528 -0.4204
  292SOL    HW2  876   0.934   0.774   1.908 -0.5173  1.5035 -4.4158
  293SOL     OW  877   1.936   2.741   0.807  0.0609 -0.0195  0.2168
  293SOL    HW1  878   1.880   2.742   0.722 -1.5762  1.3357  0.3390
  293SOL    HW2  879   2.027   2.701   0.786 -0.7384 -0.7374 -2.3289
  294SOL     OW  880   0.374   0.491   2.498  0.0355 -0.1866 -0.3838
  294SOL    HW1  881   0.417   0.548   2.568 -4.5807 -1.9356 -0.8370
  294SOL    HW2  882   0.443   0.438   2.446  0.7803 -1.4446 -0.7794
  295SOL     OW  883   1.522   1.699   0.601  0.8238 -0.2244  0.1995
  295SOL    HW1  884   1.519   1.700   0.701  0.7638  2.6510 -1.1204
  295SOL    HW2  885   1.437   1.660   0.560 -0.3916  1.5487  2.9413
  296SOL     OW  886   2.429   1.864   0.389  0.2077 -0.2503 -0.0212
  296SOL    HW1  887   2.523   1.869   0.345  2.4811  0.7683 -1.1337
  296SOL    HW2  888   2.414   1.772   0.433 -0.0586 -3.4939  0.2774
  297SOL     OW  889   1.983   0.095   0.183  0.2997  0.2319  0.4625
  297SOL    HW1  890   1.918   0.172   0.155  0.1086  0.8184 -1.0469
  297SOL    HW2  891   2.014   0.041   0.098 -0.3065 -2.8551  1.1380
  298SOL     OW  892   1.131   2.295   2.273 -0.7373  0.8331  0.2993
  298SOL    HW1  893   1.065   2.216   2.250 -1.6052 -3.2688  1.0653
  298SOL    HW2  894   1.175   2.328   2.187 -1.1473 -0.6272 -0.2769
  299SOL     OW  895   1.422   2.778   2.513 -0.4319 -0.0451  0.6709
  299SOL    HW1  896   1.428   2.755   2.611 -0.3915  2.9368 -0.6540
  299SOL    HW2  897   1.516   2.773   2.464  1.0470 -2.9286  0.8498
  300SOL     OW  898   2.181   0.084   2.553 -0.9054  0.2825  0.2607
  300SOL    HW1  899   2.140   0.134   2.475  1.7207 -0.6614 -0.2720
  300SOL    HW2  900   2.275   0.114   2.565 -1.1865 -0.9735 -0.2608
  301SOL     OW  901   1.401   1.233   1.821  0.4673 -0.4104 -0.3850
  301SOL    HW1  902   1.432   1.142   1.855  0.8015  0.9471 -0.1134
  301SOL    HW2  903   1.360   1.221   1.728  2.4574  1.7497 -0.4035
  302SOL     OW  904   2.604   2.384   0.176  0.0425  0.0692  0.1396
  302SOL    HW1  905   2.703   2.401   0.177  1.0958 -1.2763  0.4587
  302SOL    HW2  906   2.557   2.446   0.105  0.0923 -1.7425 -3.7612
  303SOL     OW  907   2.795   2.346   2.550  0.0391 -0.3823  0.0211
  303SOL    HW1  908   2.826   2.438   2.522 -2.6398  0.0026 -0.2394
  303SOL    HW2  909   2.825   2.279   2.480  2.9796  0.6174  2.8589
  304SOL     OW  910   2.788   0.457   1.848  0.2703 -0.4160 -0.2697
  304SOL    HW1  911   2.811   0.539   1.790  0.5446 -1.2486  0.0848
  304SOL    HW2  912   2.814   0.482   1.942  1.3818 -1.1291 -2.5262
  305SOL     OW  913   0.918   1.935   1.758 -0.2775 -0.1735  0.0015
  305SOL    HW1  914   0.991   1.865   1.746 -0.1032 -0.7751 -1.9381
  305SOL    HW2  915   0.962   2.025   1.776  0.0223  2.3893 -1.4504
  306SOL     OW  916   2.662   0.873   1.742  0.1729  0.0589  0.2901
  306SOL    HW1  917   2.631   0.804   1.673  1.1425 -0.9505  0.6839
  306SOL    HW2  918   2.651   0.851   1.840 -1.1568  0.5505  0.0289
  307SOL     OW  919   1.513   1.014   1.905  0.1305 -0.7525 -0.0028
  307SOL    HW1  920   1.575   1.009   1.988  0.9093  0.1867 -1.6873
  307SOL    HW2  921   1.541   0.954   1.831 -1.7243  0.3349 -0.3791
  308SOL     OW  922   2.764   1.600   0.884 -0.5381  0.2243 -0.2935
  308SOL    HW1  923   2.721   1.528   0.933  1.0371 -0.4286 -0.2054
  308SOL    HW2  924   2.703   1.678   0.875  0.8166  0.0494 -2.2065
  309SOL     OW  925   2.276   1.582   1.385  0.4441 -0.3637  0.2701
  309SOL    HW1  926   2.358   1.536   1.354 -2.2868 -0.3111  1.3354
  309SOL    HW2  927   2.236   1.529   1.459  1.5275  2.1301 -4.1507
  310SOL     OW  928   2.756   1.907   2.404 -0.2864 -0.1853 -0.0807
  310SOL    HW1  929   2.802   1.821   2.384 -0.5181  0.4908  1.5317
  310SOL    HW2  930   2.777   1.950   2.497 -0.3854  1.2075  2.4248
  311SOL     OW  931   0.079   2.278   0.035  0.6482  0.2556  0.1073
  311SOL    HW1  932   0.077   2.337   0.119  1.1511  0.8380 -0.5661
  311SOL    HW2  933   0.062   2.182   0.052 -1.8574  0.8009 -1.7173
  312SOL     OW  934   2.201   1.392   1.107  0.0754 -0.0140 -0.0837
  312SOL    HW1  935   2.201   1.488   1.067  2.4061 -1.7842 -2.6296
  312SOL    HW2  936   2.299   1.358   1.110  0.6652 -1.6470  0.3416
  313SOL     OW  937   2.748   0.119   1.046  0.1171  0.1265  0.1680
  313SOL    HW1  938   2.685   0.191   1.008 -0.1514 -0.8823 -0.1439
  313SOL    HW2  939   2.712   0.031   1.015  0.9781  1.8394  0.5673
  314SOL     OW  940   1.369   1.514   0.152 -0.0832 -0.4537  0.6395
  314SOL    HW1  941   1.389   1.481   0.055  0.7106 -2.5832 -2.2655
  314SOL    HW2  942   1.339   1.614   0.154  0.2513  1.1362 -1.4471
  315SOL     OW  943   1.262   2.411   2.069  0.3407 -0.2289 -0.7271
  315SOL    HW1  944   1.333   2.476   2.048 -0.7533 -2.4034  2.9614
  315SOL    HW2  945   1.298   2.318   2.060  1.9098  1.2078  3.4266
  316SOL     OW  946   2.851   1.072   0.381 -0.3996 -0.2579 -0.1055
  316SOL    HW1  947   2.827   1.068   0.282  0.8755 -0.0725 -4.8086
  316SOL    HW2  948   2.884   0.980   0.413  1.5237 -1.9193  0.3942
  317SOL     OW  949   0.850   0.160   0.314 -0.0222 -0.4510 -0.5420
  317SOL    HW1  950   0.908   0.082   0.330 -1.9051  3.6009  0.4569
  317SOL    HW2  951   0.873   0.235   0.380 -0.9058  0.3788 -1.1694
  318SOL     OW  952   2.809   2.653   0.471 -0.1551  0.1004 -0.3698
  318SOL    HW1  953   2.767   2.729   0.419  2.3316 -0.0551 -0.1167
  318SOL    HW2  954   2.910   2.648   0.455  3.1087 -0.8943 -0.1003
  319SOL     OW  955   0.550   1.385   2.600  0.2463  0.2980 -0.2485
  319SOL    HW1  956   0.579   1.409   2.695  1.3035 -2.1667 -0.4809
  319SOL    HW2  957   0.584   1.453   2.533  0.1331  0.6208  0.6391
  320SOL     OW  958   0.619   2.410   1.680  0.5219  0.4223  0.2836
  320SOL    HW1  959   0.707   2.448   1.644  1.9837  0.8703 -0.2982
  320SOL    HW2  960   0.539   2.477   1.675 -0.0633 -0.5112 -1.3088
  321SOL     OW  961   1.456   2.305   2.979 -0.2186 -0.2498 -1.0329
  321SOL    HW1  962   1.456   2.378   3.050 -0.3677  0.4269  1.4962
  321SOL    HW2  963   1.370   2.251   2.979  0.0500  1.3696  1.0295
  322SOL     OW  964   2.775   1.336   2.209  0.0306 -0.2690  0.0587
  322SOL    HW1  965   2.699   1.275   2.244 -0.1825  1.4084 -0.2113
  322SOL    HW2  966   2.865   1.298   2.214 -3.7990  0.1384 -4.7866
  323SOL     OW  967   2.237   0.849   0.602 -0.4632  0.1056  0.3721
  323SOL    HW1  968   2.313   0.790   0.629  0.6649  0.2505  0.3758
  323SOL    HW2  969   2.229   0.851   0.502  1.3544 -1.5899 -0.1948
  324SOL     OW  970   0.223   2.640   0.027  0.0210  0.1288  0.0011
  324SOL    HW1  971   0.313   2.630   3.065 -0.5956 -1.0959  0.0888
  324SOL    HW2  972   0.156   2.692   3.059  2.0430 -0.5416 -2.1050
  325SOL     OW  973   1.418   0.340   2.300 -0.5839  0.0258 -0.3144
  325SOL    HW1  974   1.506   0.392   2.271  1.8675  0.2101 -3.6671
  325SOL    HW2  975   1.376   0.307   2.208  1.0037  0.1659 -0.2744
  326SOL     OW  976   2.528   2.703   1.532 -0.1516  0.4080 -0.7774
  326SOL    HW1  977   2.598   2.765   1.580  2.7766  2.2578 -0.1922
  326SOL    HW2  978   2.499   2.624   1.594 -0.4098  0.0526  0.7962
  327SOL     OW  979   1.959   0.528   3.047 -0.3445  0.1494  0.5152
  327SOL    HW1  980   1.858   0.537   3.021  2.9861  1.1591 -2.6741
  327SOL    HW2  981   2.002   0.451   3.003  0.3065 -0.0426 -0.1113
  328SOL     OW  982   2.775   0.793   2.226 -0.1449  0.0540  0.5857
  328SOL    HW1  983   2.856   0.847   2.245  0.6793 -0.9206  2.2951
  328SOL    HW2  984   2.726   0.771   2.312  1.0696  0.6125  1.6190
  329SOL     OW  985   1.553   0.116   1.939  0.1804 -0.1581 -0.1717
  329SOL    HW1  986   1.577   0.051   2.018  0.5680 -1.1910  0.2023
  329SOL    HW2  987   1.514   0.064   1.860 -0.4534  2.4593  0.1061
  330SOL     OW  988   2.828   1.878   1.408  0.3819  0.1294 -0.0448
  330SOL    HW1  989   2.928   1.886   1.392  0.8582  1.0254 -0.1514
  330SOL    HW2  990   2.790   1.786   1.427 -0.4814  0.6389 -0.2806
  331SOL     OW  991   0.557   1.363   2.087  0.8096  0.2807 -0.1232
  331SOL    HW1  992   0.479   1.325   2.139 -1.0993  0.8436 -0.1297
  331SOL    HW2  993   0.556   1.464   2.094  3.1466  0.6969 -1.0209
  332SOL     OW  994   0.095   2.775   1.462  0.0877 -0.2039  0.4320
  332SOL    HW1  995   0.142   2.843   1.522 -3.1584  0.9283  0.7476
  332SOL    HW2  996   0.018   2.823   1.414 -2.1295  2.9516 -0.7235
  333SOL     OW  997   2.446   2.684   2.019 -0.4999  0.2106 -0.1391
  333SOL    HW1  998   2.524   2.747   2.045  0.3931 -0.4196  2.8584
  333SOL    HW2  999   2.447   2.658   1.921 -0.1558 -0.2341 -0.5322
  334SOL     OW 1000   1.031   2.066   0.882 -0.5841  0.2729 -0.6552
  334SOL    HW1 1001   0.946   2.091   0.929 -1.0772 -0.7407  1.9428
  334SOL    HW2 1002   1.112   2.092   0.937 -1.3288  0.6474  1.9021
  335SOL     OW 1003   0.793   2.187   2.963  0.2851 -0.6458 -0.5088
  335SOL    HW1 1004   0.709   2.213   2.912 -1.2885 -0.0414 -1.4732
  335SOL    HW2 1005   0.841   2.272   2.993  0.8777  1.5666  2.7776
  336SOL     OW 1006   0.141   0.253   2.069  0.0613 -0.1779  0.1154
  336SOL    HW1 1007   0.183   0.336   2.021 -0.1339  0.9583  1.6636
  336SOL    HW2 1008   0.180   0.162   2.044  0.5852 -2.9671 -0.5220
  337SOL     OW 1009   2.787   2.040   3.021 -0.3379  0.5953 -0.2199
  337SOL    HW1 1010   2.746   2.081   0.011  1.6763 -0.3140 -0.2552
  337SOL    HW2 1011   2.877   2.000   3.049  1.1658  0.8805 -0.9277
  338SOL     OW 1012   1.075   1.913   1.311  0.6020  0.5524 -0.0084
  338SOL    HW1 1013   1.135   1.994   1.325 -0.0222 -1.4043  1.4649
  338SOL    HW2 1014   0.990   1.941   1.267 -2.1933  0.9586  0.8273
  339SOL     OW 1015   3.080   0.277   2.286 -0.3203 -0.3317  0.2131
  339SOL    HW1 1016   2.989   0.328   2.294  0.0396  3.3248 -1.1290
  339SOL    HW2 1017   0.037   0.294   2.197 -0.6054  1.4686  0.1047
  340SOL     OW 1018   1.636   2.567   0.393  0.1442 -0.2957 -0.0012
  340SOL    HW1 1019   1.715   2.540   0.332  0.8764 -0.6182 -2.2188
  340SOL    HW2 1020   1.592   2.493   0.445  1.0157  1.6963 -0.5757
  341SOL     OW 1021   1.735   1.518   1.177 -0.7976  0.6569  0.3036
  341SOL    HW1 1022   1.736   1.436   1.242  0.7245 -1.5326 -1.0642
  341SOL    HW2 1023   1.772   1.493   1.081  1.6229 -0.5649 -1.8792
  342SOL     OW 1024   0.179   1.672   0.494 -0.3182 -0.1717 -0.1476
  342SOL    HW1 1025   0.146   1.765   0.469  0.8082  2.2598  0.7074
  342SOL    HW2 1026   0.255   1.645   0.432 -2.1061 -0.4583  0.3339
  343SOL     OW 1027   1.344   2.452   1.358 -0.3093  0.1894 -0.6356
  343SOL    HW1 1028   1.386   2.363   1.389  0.5842 -1.7730  0.8327
  343SOL    HW2 1029   1.394   2.533   1.396  0.7102  1.1882  0.4113
  344SOL     OW 1030   2.359   2.855   0.905 -0.2484 -0.5113 -0.1542
  344SOL    HW1 1031   2.290   2.808   0.848 -1.0537  0.9391  1.1641
  344SOL    HW2 1032   2.337   2.867   1.001  1.1996  1.4777  0.1181
  345SOL     OW 1033   2.747   2.387   2.831 -0.0972  0.2120 -0.1173
  345SOL    HW1 1034   2.758   2.347   2.740  2.1367  0.3619  0.8013
  345SOL    HW2 1035   2.831   2.367   2.879 -0.9206  1.3680 -0.7267
  346SOL     OW 1036   0.316   1.969   0.760 -0.3201  0.2886 -1.0298
  346SOL    HW1 1037   0.278   1.895   0.712  1.6915 -0.1077  3.0327
  346SOL    HW2 1038   0.280   2.060   0.738  2.4398 -1.2164  0.7381
  347SOL     OW 1039   1.788   2.558   1.215  0.2377  0.4078  0.0831
  347SOL    HW1 1040   1.788   2.616   1.300  1.9800 -0.9967  0.1696
  347SOL    HW2 1041   1.798   2.622   1.134  2.5156  0.8526  0.8341
  348SOL     OW 1042   1.295   1.628   2.582  0.0717 -0.2174  0.2629
  348SOL    HW1 1043   1.261   1.578   2.664 -1.0991  1.4933 -1.4118
  348SOL    HW2 1044   1.217   1.667   2.528  0.7676  0.2790  0.6858
  349SOL     OW 1045   2.272   0.731   2.281 -0.0852  0.8289  0.2740
  349SOL    HW1 1046   2.304   0.717   2.380  0.8809  2.0538  1.5316
  349SOL    HW2 1047   2.273   0.828   2.267  0.3298 -1.4214  2.8046
  350SOL     OW 1048   2.855   2.555   1.361 -0.0028  0.4999  0.7156
  350SOL    HW1 1049   2.868   2.655   1.355  0.5133  3.0884  0.4803
  350SOL    HW2 1050   2.802   2.520   1.284  0.1984 -1.2336  1.9367
  351SOL     OW 1051   0.555   0.373   2.744  0.0488  0.5052  0.1833
  351SOL    HW1 1052   0.496   0.290   2.730 -1.1374  0.9294 -0.5367
  351SOL    HW2 1053   0.650   0.343   2.774  0.1895 -0.5183  1.6069
  352SOL     OW 1054   0.587   2.389   1.279 -0.1384  0.0300  0.2022
  352SOL    HW1 1055   0.595   2.310   1.344 -1.4687 -2.4037  1.6550
  352SOL    HW2 1056   0.571   2.471   1.338  0.4410 -2.2636  1.1289
  353SOL     OW 1057   0.921   1.031   2.476  0.3021 -0.6699 -0.2913
  353SOL    HW1 1058   0.877   1.111   2.523 -0.7577  0.7944 -0.5647
  353SOL    HW2 1059   0.924   1.041   2.375  2.6542 -1.9588 -1.0654
  354SOL     OW 1060   1.473   0.919   0.485 -0.5799  0.1342  0.2500
  354SOL    HW1 1061   1.380   0.888   0.511  2.4676 -0.9783  1.4038
  354SOL    HW2 1062   1.474   0.982   0.399  0.6590  1.9976 -1.1490
  355SOL     OW 1063   2.737   0.202   0.398  0.0378 -0.0166  0.0386
  355SOL    HW1 1064   2.646   0.172   0.369  2.9487  0.9694  0.7796
  355SOL    HW2 1065   2.801   0.126   0.416 -1.1489  2.1035 -1.4530
  356SOL     OW 1066   2.836   0.963   2.632 -0.3362  0.6055  0.5157
  356SOL    HW1 1067   2.908   0.898   2.594  1.7641  0.1963  1.5124
  356SOL    HW2 1068   2.825   1.040   2.563  2.4138  2.2261 -1.2356
  357SOL     OW 1069   0.699   2.786   1.634  0.1210  0.2303 -0.7075
  357SOL    HW1 1070   0.795   2.813   1.616 -1.1843 -1.8841  2.1102
  357SOL    HW2 1071   0.677   2.706   1.582  3.1749  3.0964  3.5271
  358SOL     OW 1072   2.386   1.283   2.416 -0.0429  0.0068  0.3144
  358SOL    HW1 1073   2.382   1.370   2.364  0.7124  1.4919  1.0866
  358SOL    HW2 1074   2.310   1.281   2.485 -1.8744 -0.5680  0.0454
  359SOL     OW 1075   2.530   2.574   2.842 -0.4237 -0.6548  0.5686
  359SOL    HW1 1076   2.543   2.658   2.778  0.6271  3.9905  1.3684
  359SOL    HW2 1077   2.612   2.508   2.829  0.9113 -0.1389 -2.3063
  360SOL     OW 1078   2.059   0.695   0.757  0.3105 -0.2246  0.1438
  360SOL    HW1 1079   2.110   0.608   0.766  1.1205  0.8311 -1.4597
  360SOL    HW2 1080   2.121   0.768   0.723  3.5576  0.2225 -3.0451
  361SOL     OW 1081   1.885   2.792   1.089 -0.2561 -0.0073 -0.0894
  361SOL    HW1 1082   1.788   2.822   1.102 -1.7711 -1.7719 -0.2417
  361SOL    HW2 1083   1.905   2.773   0.986  0.9712  1.5000 -1.2383
  362SOL     OW 1084   1.490   1.200   0.651  0.8788 -0.7912  0.7404
  362SOL    HW1 1085   1.488   1.139   0.570 -1.7347  1.5413  1.3622
  362SOL    HW2 1086   1.535   1.289   0.627 -0.8229 -0.4814 -0.5172
  363SOL     OW 1087   2.852   1.635   2.412 -0.1683 -0.3480  0.5962
  363SOL    HW1 1088   2.827   1.636   2.316  0.8747  1.2376  2.1885
  363SOL    HW2 1089   2.802   1.565   2.466 -0.4360 -2.9996  0.6677
  364SOL     OW 1090   1.168   0.611   1.330  0.3008 -0.8650  0.2625
  364SOL    HW1 1091   1.218   0.647   1.413  0.7490 -0.8602 -0.6629
  364SOL    HW2 1092   1.216   0.640   1.245 -4.1372  0.5055 -1.3793
  365SOL     OW 1093   3.051   2.973   1.196  0.2205  0.3582  0.0821
  365SOL    HW1 1094   0.052   2.947   1.221 -1.3635 -0.8413 -0.2418
  365SOL    HW2 1095   3.055   3.054   1.131  0.6995 -0.1069 -0.2072
  366SOL     OW 1096   2.747   1.359   0.504  0.2152 -0.1685  0.0899
  366SOL    HW1 1097   2.776   1.459   0.498  1.3224  0.2702 -1.0314
  366SOL    HW2 1098   2.811   1.289   0.475 -1.6930  1.6195 -0.4117
  367SOL     OW 1099   3.050   1.865   2.982 -0.2059 -0.0258  0.1640
  367SOL    HW1 1100   0.028   1.886   3.055 -1.3915  1.9253  6.2128
  367SOL    HW2 1101   3.021   1.768   2.993 -0.2786 -3.5172  0.0093
  368SOL     OW 1102   2.918   2.341   1.057  0.3580 -0.1601  0.3995
  368SOL    HW1 1103   2.828   2.378   1.082  0.2955  0.3010  1.2329
  368SOL    HW2 1104   2.990   2.407   1.081  2.9778 -2.2683 -0.7990
  369SOL     OW 1105   0.436   0.240   0.328 -0.3311 -0.3977 -0.5031
  369SOL    HW1 1106   0.417   0.238   0.429  1.0450 -2.0529 -1.8730
  369SOL    HW2 1107   0.498   0.167   0.300  0.4013  3.4285  0.8368
  370SOL     OW 1108   0.222   1.015   1.516 -0.2450 -0.1213  0.1550
  370SOL    HW1 1109   0.226   1.113   1.549  0.4948  2.0711 -0.5905
  370SOL    HW2 1110   0.299   1.001   1.447 -1.4661 -0.6310  0.3997
  371SOL     OW 1111   2.080   2.137   0.822 -0.7872  0.1686  0.0316
  371SOL    HW1 1112   2.088   2.166   0.922  0.2686 -1.9524  0.3171
  371SOL    HW2 1113   2.158   2.073   0.807  1.4905  1.9861  4.3715
  372SOL     OW 1114   3.059   0.841   2.522 -0.5499 -0.5566 -0.3583
  372SOL    HW1 1115   0.062   0.829   2.555 -1.7699  1.8275 -0.8083
  372SOL    HW2 1116   3.059   0.869   2.424  1.3462 -1.1773 -1.1685
  373SOL     OW 1117   2.925   1.591   0.619  0.2617 -0.0299 -0.0035
  373SOL    HW1 1118   2.886   1.645   0.539  1.1458 -2.3025 -1.1243
  373SOL    HW2 1119   2.859   1.605   0.698 -0.9487  0.8790 -0.4055
  374SOL     OW 1120   0.576   2.217   0.096 -0.9620 -0.0266 -0.5770
  374SOL    HW1 1121   0.585   2.313   0.065  1.4096 -1.9999  0.8032
  374SOL    HW2 1122   0.669   2.179   0.098 -2.4934  2.4376 -0.8487
  375SOL     OW 1123   0.681   0.430   0.083  0.3053  0.2445 -0.3385
  375SOL    HW1 1124   0.775   0.437   0.045 -0.8429 -1.6998  0.2730
  375SOL    HW2 1125   0.641   0.346   0.040  1.4715 -1.9490  0.3251
  376SOL     OW 1126   0.218   0.007   1.991  0.1809 -0.2101 -0.2030
  376SOL    HW1 1127   0.213   3.017   1.932 -0.9191  0.3766 -2.0878
  376SOL    HW2 1128   0.217   3.068   2.090  1.9298  0.6473  1.2745
  377SOL     OW 1129   0.733   1.852   2.209 -0.8194  0.0159  0.2486
  377SOL    HW1 1130   0.797   1.924   2.242  3.3994 -1.2516 -0.0661
  377SOL    HW2 1131   0.723   1.869   2.109  0.4944  0.1396  0.9441
  378SOL     OW 1132   1.017   1.055   0.533 -0.0158 -0.3964  0.2857
  378SOL    HW1 1133   0.943   1.124   0.551 -1.9848 -2.6593  2.3891
  378SOL    HW2 1134   0.977   0.970   0.484 -0.6305 -0.6499 -2.0584
  379SOL     OW 1135   1.005   1.549   2.982  0.2291  0.4266  0.3174
  379SOL    HW1 1136   1.007   1.455   3.013  1.2797  0.1118  0.9334
  379SOL    HW2 1137   1.098   1.581   2.958 -1.8132 -0.9594 -2.3796
  380SOL     OW 1138   0.059   2.065   1.870 -0.3254  0.6782  0.1929
  380SOL    HW1 1139   3.055   2.062   1.832  1.0601  1.5769 -1.4727
  380SOL    HW2 1140   0.111   2.109   1.793 -2.1389  1.4071  2.7185
  381SOL     OW 1141   3.038   0.951   1.894  0.6655 -0.0033 -0.2262
  381SOL    HW1 1142   0.029   0.933   1.836  0.1947 -2.5634 -1.8030
  381SOL    HW2 1143   2.998   0.859   1.915 -1.4987 -0.7803  3.7473
  382SOL     OW 1144   2.580   2.164   2.912  0.3106  0.1773  0.0666
  382SOL    HW1 1145   2.601   2.259   2.891 -1.2113 -2.9664 -0.0672
  382SOL    HW2 1146   2.670   2.117   2.946  0.0432  1.1316  0.4649
  383SOL     OW 1147   2.274   2.079   2.210 -0.3289 -0.2273 -0.0991
  383SOL    HW1 1148   2.352   2.045   2.270  2.8800 -0.9715  0.0278
  383SOL    HW2 1149   2.183   2.058   2.240  2.6263 -1.5117 -1.2799
  384SOL     OW 1150   0.864   2.347   1.947 -0.2120  0.6386  0.1422
  384SOL    HW1 1151   0.840   2.268   1.888  1.7410 -1.6859 -1.8939
  384SOL    HW2 1152   0.783   2.413   1.967 -1.7079  2.1022  0.3034
  385SOL     OW 1153   2.499   2.013   1.013 -0.2868 -0.3901 -0.0855
  385SOL    HW1 1154   2.564   2.080   0.968  0.7250 -1.8210 -0.6023
  385SOL    HW2 1155   2.550   1.959   1.086  0.0536  0.1856 -1.0710
  386SOL     OW 1156   1.750   0.890   2.885 -0.2636  0.2293 -0.0335
  386SOL    HW1 1157   1.754   0.890   2.990  2.6925 -0.7820  1.6321
  386SOL    HW2 1158   1.653   0.877   2.860  1.3095 -0.3345  0.9971
  387SOL     OW 1159   0.194   0.933   1.767  0.0901  0.1473 -0.8044
  387SOL    HW1 1160   0.197   0.956   1.665  0.9565 -0.8198  0.9234
  387SOL    HW2 1161   0.268   0.978   1.824 -0.5390  0.9188  1.0540
  388SOL     OW 1162   2.708   1.146   1.662 -0.4161  0.8584  0.0747
  388SOL    HW1 1163   2.709   1.045   1.685 -0.9880 -2.1821 -1.4698
  388SOL    HW2 1164   2.792   1.173   1.616 -0.3770 -2.7424  1.4017
  389SOL     OW 1165   1.728   0.891   2.559  0.0490 -0.1111  0.2293
  389SOL    HW1 1166   1.818   0.875   2.518  1.9537  0.3284 -0.8601
  389SOL    HW2 1167   1.712   0.994   2.555  1.3731 -1.3685  2.7975
  390SOL     OW 1168   1.989   2.359   0.669  0.0073  0.1662 -0.8583
  390SOL    HW1 1169   2.017   2.287   0.740  1.6852  0.0384  0.2133
  390SOL    HW2 1170   1.896   2.388   0.684  1.8386 -0.9431 -1.8745
  391SOL     OW 1171   1.631   2.784   0.775 -0.1870  0.2144  0.2636
  391SOL    HW1 1172   1.609   2.771   0.682 -0.0751  3.2835  1.0707
  391SOL    HW2 1173   1.640   2.700   0.832  0.4604 -0.2023 -1.6842
  392SOL     OW 1174   2.789   2.895   1.680 -0.0049 -0.0075  0.1084
  392SOL    HW1 1175   2.738   2.964   1.620 -2.0291  2.5380  0.0459
  392SOL    HW2 1176   2.835   2.953   1.749 -1.4600  0.3777 -0.5265
  393SOL     OW 1177   1.820   1.743   2.942 -0.2952 -0.3595  0.0207
  393SOL    HW1 1178   1.751   1.777   3.006 -2.2209 -1.3216  0.2643
  393SOL    HW2 1179   1.913   1.787   2.948  0.4947 -2.3973  0.0333
  394SOL     OW 1180   0.612   2.695   2.826  0.5008 -0.2877  0.0186
  394SOL    HW1 1181   0.590   2.790   2.800 -1.1754 -0.6646 -0.7008
  394SOL    HW2 1182   0.541   2.664   2.893  2.7426 -1.1668  0.9362
  395SOL     OW 1183   0.946   1.493   1.040 -0.5778  0.3546  0.3321
  395SOL    HW1 1184   0.930   1.531   0.942 -0.6508  0.5749 -2.5290
  395SOL    HW2 1185   0.977   1.395   1.038 -1.5007  0.3938 -0.1096
  396SOL     OW 1186   1.943   0.708   2.840  0.0080  0.3225 -0.2711
  396SOL    HW1 1187   1.883   0.787   2.867  0.4708 -0.6425 -1.7706
  396SOL    HW2 1188   1.972   0.661   2.924 -0.6280 -3.6844 -0.8058
  397SOL     OW 1189   0.114   0.578   2.774  0.6850  0.2200  0.1979
  397SOL    HW1 1190   0.052   0.522   2.721  2.3796  1.0265  4.2078
  397SOL    HW2 1191   0.062   0.625   2.847  1.3276 -2.9845 -0.5310
  398SOL     OW 1192   0.926   0.671   0.549  0.5518  0.5348 -0.3872
  398SOL    HW1 1193   0.875   0.759   0.538 -1.0393  2.7652  1.1887
  398SOL    HW2 1194   0.899   0.607   0.475  1.2396 -0.2651  0.5239
  399SOL     OW 1195   1.900   0.157   1.754  0.4747 -0.1500  0.2689
  399SOL    HW1 1196   1.828   0.137   1.684 -2.7759  1.6951 -2.1268
  399SOL    HW2 1197   1.902   0.078   1.814 -0.7629  4.7116 -2.7785
  400SOL     OW 1198   3.089   2.048   2.471 -0.1786 -0.4699 -0.1467
  400SOL    HW1 1199   0.043   1.967   2.505 -2.3647 -1.0552 -1.3980
  400SOL    HW2 1200   3.082   2.047   2.368  0.7566  1.0178  3.0361
  401SOL     OW 1201   0.845   0.162   0.028  0.4324  1.2558  0.1651
  401SOL    HW1 1202   0.741   0.169   0.011  1.0395  2.7241  2.7652
  401SOL    HW2 1203   0.860   0.162   0.130  1.4418  1.6618  0.0284
  402SOL     OW 1204   0.238   2.363   1.368  0.6831 -0.0447 -0.2002
  402SOL    HW1 1205   0.332   2.341   1.403 -0.6636  2.9833 -3.0326
  402SOL    HW2 1206   0.168   2.321   1.428  1.9869  4.0128 -2.0784
  403SOL     OW 1207   0.030   1.043   1.225  0.4389 -0.9550  0.0186
  403SOL    HW1 1208   3.065   1.125   1.243 -0.8839  0.6532  0.0463
  403SOL    HW2 1209   3.067   0.967   1.266  3.2596  0.2534 -2.0474
  404SOL     OW 1210   0.153   2.508   2.094  0.3194  0.6884 -0.5061
  404SOL    HW1 1211   0.118   2.417   2.084  0.8289  0.6084 -1.0845
  404SOL    HW2 1212   0.146   2.544   2.187  1.0064 -3.1824 -3.1266
  405SOL     OW 1213   2.832   0.357   2.313  0.1619 -0.9742 -0.0049
  405SOL    HW1 1214   2.784   0.274   2.288  0.4713  4.5205  1.5487
  405SOL    HW2 1215   2.776   0.411   2.381  1.2403 -1.1016 -1.3182
  406SOL     OW 1216   2.034   2.348   0.243  0.1556  0.2928 -0.6756
  406SOL    HW1 1217   1.990   2.288   0.174 -0.4945  0.6539  2.1726
  406SOL    HW2 1218   2.057   2.294   0.328  2.1400 -1.0248  2.5109
  407SOL     OW 1219   2.108   1.581   0.708 -0.3104 -0.1567  0.3175
  407SOL    HW1 1220   2.141   1.490   0.734 -1.9406 -2.0014 -0.0640
  407SOL    HW2 1221   2.056   1.573   0.624  0.4820  0.3800  0.4779
  408SOL     OW 1222   0.549   0.248   2.351  0.4739  0.4648  0.1338
  408SOL    HW1 1223   0.462   0.191   2.351  0.9508 -2.3876  0.5112
  408SOL    HW2 1224   0.581   0.265   2.255  0.6140  3.7004 -1.0358
  409SOL     OW 1225   2.639   1.831   0.696  0.8857  0.3308 -0.0142
  409SOL    HW1 1226   2.550   1.786   0.732 -1.4120 -0.4235 -1.2667
  409SOL    HW2 1227   2.640   1.823   0.597 -0.6440  1.8791  0.4612
  410SOL     OW 1228   2.060   1.279   1.290  0.3105  0.5888 -0.3381
  410SOL    HW1 1229   2.111   1.328   1.218  1.2403 -3.1500  2.7213
  410SOL    HW2 1230   2.082   1.320   1.383 -0.2327  0.5859  1.2619
  411SOL     OW 1231   3.055   0.788   0.348  0.3071 -0.0599  0.1478
  411SOL    HW1 1232   0.040   0.726   0.360 -0.7260  1.4098 -0.7166
  411SOL    HW2 1233   2.975   0.745   0.386  0.4566  0.5338  0.7038
  412SOL     OW 1234   1.703   0.539   0.204 -0.2490 -0.0172 -0.1745
  412SOL    HW1 1235   1.640   0.586   0.144  1.8585 -3.1656  1.1777
  412SOL    HW2 1236   1.665   0.546   0.299 -1.2394  1.5974 -0.1269
  413SOL     OW 1237   0.566   0.856   1.648  0.5865  0.3240 -0.1783
  413SOL    HW1 1238   0.504   0.903   1.715 -3.2049 -0.0587  1.6928
  413SOL    HW2 1239   0.531   0.853   1.551 -0.2031  1.4265 -0.2680
  414SOL     OW 1240   0.029   1.232   2.772  1.2912 -0.4051 -0.4211
  414SOL    HW1 1241   3.036   1.260   2.721 -0.1331 -0.2028 -0.8020
  414SOL    HW2 1242   0.013   1.191   2.865 -1.7217  2.1236  1.8672
  415SOL     OW 1243   0.370   1.569   2.947  0.4135 -0.2816  0.0725
  415SOL    HW1 1244   0.424   1.477   2.941  2.3861  1.0538 -0.4838
  415SOL    HW2 1245   0.309   1.579   2.866  0.2006  2.8020  0.6802
  416SOL     OW 1246   1.259   0.826   0.231  0.0835 -0.0270  0.6778
  416SOL    HW1 1247   1.257   0.807   0.330 -2.3762  1.3398  0.3193
  416SOL    HW2 1248   1.260   0.925   0.216 -0.8340 -2.1563  0.4378
  417SOL     OW 1249   0.469   0.684   0.959  0.1127 -0.1038  0.5391
  417SOL    HW1 1250   0.515   0.714   0.870  1.3884  1.3671  1.0804
  417SOL    HW2 1251   0.401   0.610   0.940  2.0861 -0.5763 -1.5693
  418SOL     OW 1252   2.230   0.953   2.941 -0.7075 -0.3287  0.1653
  418SOL    HW1 1253   2.179   0.866   2.954 -2.5018 -0.8775  1.2726
  418SOL    HW2 1254   2.330   0.943   2.964  1.2943 -1.7358 -2.4210
  419SOL     OW 1255   0.554   0.509   0.304 -0.1382  0.2978  0.4451
  419SOL    HW1 1256   0.513   0.438   0.365  0.0634 -0.0642 -0.1357
  419SOL    HW2 1257   0.621   0.474   0.236 -0.6971  0.2065 -0.8606
  420SOL     OW 1258   0.326   1.640   0.970  0.4627 -0.2444  0.3769
  420SOL    HW1 1259   0.282   1.576   1.036 -0.6588 -0.2825 -0.9044
  420SOL    HW2 1260   0.275   1.654   0.883  1.4574  0.7545 -0.9430
  421SOL     OW 1261   0.377   2.008   0.108  0.2107  0.1104 -0.1905
  421SOL    HW1 1262   0.441   2.088   0.114  0.0476 -0.1971  2.5108
  421SOL    HW2 1263   0.418   1.928   0.062 -4.7092 -1.0167 -2.3320
  422SOL     OW 1264   2.315   0.346   1.483  0.2102  0.3857  0.4085
  422SOL    HW1 1265   2.360   0.421   1.524 -3.4851 -2.9195 -1.8620
  422SOL    HW2 1266   2.228   0.325   1.528  4.1112  3.0480 -1.0168
  423SOL     OW 1267   2.025   1.266   0.955  0.0470 -0.4281 -0.4711
  423SOL    HW1 1268   2.088   1.330   1.001 -1.7220  0.3761 -2.1972
  423SOL    HW2 1269   2.068   1.176   0.948 -4.0566  0.5095  2.9559
  424SOL     OW 1270   2.000   1.539   0.044 -0.9644 -0.3844 -0.6349
  424SOL    HW1 1271   2.010   1.557   3.036 -0.7004 -0.2382  1.0362
  424SOL    HW2 1272   2.034   1.619   0.095  0.6547 -1.9468 -0.5778
  425SOL     OW 1273   0.258   3.001   2.239  0.1489 -0.2245  0.0124
  425SOL    HW1 1274   0.329   2.930   2.213  0.4577  0.3771  1.6928
  425SOL    HW2 1275   0.190   2.956   2.304 -1.1301 -1.2134  0.8732
  426SOL     OW 1276   2.554   2.766   2.677 -0.1068 -0.5080  0.3962
  426SOL    HW1 1277   2.512   2.856   2.679  0.7575 -0.6612 -1.8837
  426SOL    HW2 1278   2.515   2.710   2.603 -3.2458 -2.6578 -0.1085
  427SOL     OW 1279   0.501   0.903   2.100 -0.1881 -0.4654 -0.4983
  427SOL    HW1 1280   0.465   0.801   2.096 -0.1452 -1.5130 -3.1288
  427SOL    HW2 1281   0.471   0.958   2.183 -1.7022 -0.8068  0.8173
  428SOL     OW 1282   1.934   1.009   2.221 -0.0066  0.4279  0.2183
  428SOL    HW1 1283   1.967   0.978   2.130  3.0452  0.1044 -0.1963
  428SOL    HW2 1284   1.979   1.095   2.242  1.5362  0.4253 -2.5743
  429SOL     OW 1285   2.368   0.248   0.593  0.1213  0.1794  0.5507
  429SOL    HW1 1286   2.412   0.273   0.510 -0.5992  3.3507  1.3799
  429SOL    HW2 1287   2.331   0.331   0.636  2.3579 -2.8755 -0.1893
  430SOL     OW 1288   1.689   1.281   2.141  0.2433  0.0691  0.5852
  430SOL    HW1 1289   1.603   1.234   2.176  2.0215 -1.3837  0.2844
  430SOL    HW2 1290   1.672   1.350   2.069  0.6054 -4.3478  1.8989
  431SOL     OW 1291   2.705   2.098   1.547  0.3450  0.2831 -0.3108
  431SOL    HW1 1292   2.750   2.024   1.497  0.1927  0.7259 -0.2682
  431SOL    HW2 1293   2.662   2.166   1.483 -0.9656  1.1825 -2.6015
  432SOL     OW 1294   1.100   2.570   1.830 -0.1564 -0.1500 -0.3478
  432SOL    HW1 1295   1.050   2.624   1.762  0.9530 -1.8522  0.2726
  432SOL    HW2 1296   1.047   2.554   1.917 -0.8556 -1.6399  1.3163
  433SOL     OW 1297   1.625   2.911   1.166 -0.3367 -0.1595  0.5309
  433SOL    HW1 1298   1.627   2.995   1.110  1.3708  1.6136  1.0091
  433SOL    HW2 1299   1.544   2.852   1.145  0.6152 -3.1971  1.3642
  434SOL     OW 1300   0.562   2.303   2.099  0.2059 -0.4846 -0.3358
  434SOL    HW1 1301   0.588   2.255   2.008  0.5109 -1.4038 -3.1791
  434SOL    HW2 1302   0.478   2.260   2.137 -0.6173 -1.8083  0.7749
  435SOL     OW 1303   0.319   1.491   0.100  0.0221 -0.0040  0.1440
  435SOL    HW1 1304   0.339   1.519   0.007 -0.7382  1.6259  1.3788
  435SOL    HW2 1305   0.301   1.391   0.102 -1.2354  0.5746 -1.5962
  436SOL     OW 1306   0.571   1.253   1.847  0.5413 -0.0709 -0.2610
  436SOL    HW1 1307   0.569   1.313   1.765 -0.1197  1.6811  2.4865
  436SOL    HW2 1308   0.568   1.303   1.940 -0.8081  2.3735  1.8519
  437SOL     OW 1309   1.151   0.561   2.948  0.3626  0.0460  0.5286
  437SOL    HW1 1310   1.190   0.580   3.038  0.3123  1.9331 -4.6063
  437SOL    HW2 1311   1.223   0.591   2.879  1.5462  0.3175  3.7204
  438SOL     OW 1312   0.516   1.926   1.504 -0.6114  0.2269 -0.2098
  438SOL    HW1 1313   0.489   1.889   1.415 -0.4822 -0.8826 -0.4467
  438SOL    HW2 1314   0.607   1.890   1.532  0.9745  1.9016 -0.3603
  439SOL     OW 1315   2.091   1.859   2.928  0.3600 -0.2061 -0.2072
  439SOL    HW1 1316   2.143   1.889   3.011 -0.9783  0.0139  3.3422
  439SOL    HW2 1317   2.126   1.771   2.893 -0.5940 -1.1830 -0.3893
  440SOL     OW 1318   1.381   0.491   0.612 -0.2293  0.5075 -0.6408
  440SOL    HW1 1319   1.399   0.434   0.696  0.9742 -1.4979  0.3709
  440SOL    HW2 1320   1.316   0.567   0.629 -0.2655  0.7925  2.2528
  441SOL     OW 1321   0.512   2.609   1.419 -0.2797  0.1078  0.1779
  441SOL    HW1 1322   0.460   2.603   1.509 -3.3470  0.4834  1.1171
  441SOL    HW2 1323   0.471   2.687   1.368  1.2437  0.1685  2.8925
  442SOL     OW 1324   2.348   2.298   0.897 -0.0358  0.4192 -0.6464
  442SOL    HW1 1325   2.259   2.343   0.911 -2.4001  0.2171 -3.3699
  442SOL    HW2 1326   2.342   2.217   0.832  2.4203 -2.9416 -1.9894
  443SOL     OW 1327   2.375   0.733   2.572 -0.4839 -0.3313 -0.1738
  443SOL    HW1 1328   2.370   0.834   2.585 -2.6261 -0.4925 -1.9813
  443SOL    HW2 1329   2.343   0.685   2.654  0.5754 -5.0934 -1.0620
  444SOL     OW 1330   1.534   0.743   2.420  0.2169 -0.0512 -0.0869
  444SOL    HW1 1331   1.606   0.794   2.478  1.3693 -2.7431  0.7443
  444SOL    HW2 1332   1.569   0.735   2.323 -2.3610  1.1304 -1.3032
  445SOL     OW 1333   2.736   2.397   1.763 -0.6172 -0.4098 -0.3195
  445SOL    HW1 1334   2.745   2.340   1.842 -1.4293  2.0376  0.6835
  445SOL    HW2 1335   2.793   2.481   1.783  0.7805  0.6742  0.7909
  446SOL     OW 1336   0.116   1.396   0.381  0.3789 -0.2641  0.3529
  446SOL    HW1 1337   0.157   1.487   0.404 -0.6499 -0.9304 -0.2620
  446SOL    HW2 1338   0.043   1.403   0.310 -1.6100 -0.8186  0.8953
  447SOL     OW 1339   0.937   2.441   0.803 -0.1217  0.3156  0.5600
  447SOL    HW1 1340   0.931   2.491   0.891  2.5138  3.5817  0.9275
  447SOL    HW2 1341   0.854   2.387   0.777  0.1328 -1.8334 -0.3692
  448SOL     OW 1342   1.751   1.507   1.499 -0.3382 -0.2538 -0.8092
  448SOL    HW1 1343   1.827   1.495   1.568  1.8661  0.0440  1.6831
  448SOL    HW2 1344   1.754   1.438   1.427  0.6695  2.2872  0.0500
  449SOL     OW 1345   0.808   1.830   2.667  0.1316 -0.2692  0.0872
  449SOL    HW1 1346   0.819   1.863   2.761 -1.9678 -0.2200 -2.7256
  449SOL    HW2 1347   0.826   1.728   2.662  1.4589 -1.7174  2.3210
  450SOL     OW 1348   0.005   2.000   2.211 -0.2350  0.1158 -0.1751
  450SOL    HW1 1349   0.029   1.907   2.177  1.4236  0.6871 -1.0765
  450SOL    HW2 1350   0.041   2.073   2.150 -2.5160 -2.7684 -1.0006
  451SOL     OW 1351   1.834   0.472   1.613  0.7671  0.6332 -0.0990
  451SOL    HW1 1352   1.848   0.412   1.533  0.1674  2.4089 -0.4169
  451SOL    HW2 1353   1.873   0.563   1.587  0.5227  0.5620  0.7722
  452SOL     OW 1354   1.004   2.768   1.322 -0.0670  0.3377  0.3196
  452SOL    HW1 1355   1.055   2.683   1.297  2.3975  1.6219 -0.1426
  452SOL    HW2 1356   0.905   2.739   1.334 -0.1684 -0.6202 -0.8100
  453SOL     OW 1357   1.059   1.797   0.850  0.2471  0.3318 -0.2520
  453SOL    HW1 1358   1.148   1.772   0.900  1.6388 -1.1627 -1.9633
  453SOL    HW2 1359   1.034   1.894   0.868  0.1898 -2.1799  0.6495
  454SOL     OW 1360   0.055   1.133   0.760 -0.1257 -0.3625 -0.5619
  454SOL    HW1 1361   0.073   1.052   0.703  0.8378 -2.3756 -1.5645
  454SOL    HW2 1362   0.060   1.214   0.700 -0.0016  0.1216  1.4672
  455SOL     OW 1363   0.612   1.078   0.547  0.3411 -0.0453  0.1080
  455SOL    HW1 1364   0.598   1.135   0.466  0.0773 -2.2916 -0.2311
  455SOL    HW2 1365   0.540   1.084   0.619 -2.7062 -1.6244  0.3637
  456SOL     OW 1366   2.118   2.476   0.945  0.0578  1.0369  0.1191
  456SOL    HW1 1367   2.150   2.493   1.041 -3.2418  1.5071 -1.4001
  456SOL    HW2 1368   2.018   2.460   0.938 -0.3347  1.5725 -2.7218
  457SOL     OW 1369   1.433   2.476   0.126  0.1959  0.1169 -0.1577
  457SOL    HW1 1370   1.385   2.526   0.198  1.1027  1.0726  1.1433
  457SOL    HW2 1371   1.533   2.479   0.140  0.4087  1.1180  1.8697
  458SOL     OW 1372   2.941   0.140   3.088 -0.2546 -0.2039  0.3681
  458SOL    HW1 1373   2.864   0.084   0.028 -0.2870 -0.2776 -0.9247
  458SOL    HW2 1374   3.001   0.096   3.015 -0.8695 -0.9991  0.9419
  459SOL     OW 1375   2.144   0.188   1.654  0.5829 -0.3249  0.3567
  459SOL    HW1 1376   2.178   0.097   1.622 -0.3063 -1.9220  0.3173
  459SOL    HW2 1377   2.054   0.179   1.696  4.9691 -0.2446 -2.1278
  460SOL     OW 1378   0.070   0.519   0.014  0.0716  0.1114  0.0371
  460SOL    HW1 1379   0.151   0.473   3.065  1.8296  3.2073 -0.2900
  460SOL    HW2 1380   3.081   0.483   3.057  0.6568  0.8234 -1.0047
  461SOL     OW 1381   3.085   2.113   1.010  0.0182  0.2308  0.0580
  461SOL    HW1 1382   3.016   2.058   0.960  1.0277  0.9881  3.1467
  461SOL    HW2 1383   3.038   2.199   1.039 -3.5306  1.3775  0.2513
  462SOL     OW 1384   0.074   0.165   0.854  0.0497 -0.5649  0.1293
  462SOL    HW1 1385   0.171   0.197   0.863 -0.1138  3.1231  1.3573
  462SOL    HW2 1386   0.012   0.178   0.937 -0.2779  1.0756  1.3739
  463SOL     OW 1387   2.355   1.392   2.881  0.3359 -0.3030 -0.4674
  463SOL    HW1 1388   2.319   1.328   2.951 -1.7811 -1.8669  0.7818
  463SOL    HW2 1389   2.418   1.353   2.807  0.3476 -0.3081 -0.2257
  464SOL     OW 1390   0.730   2.738   1.311  0.0132 -0.1714 -0.1171
  464SOL    HW1 1391   0.677   2.778   1.233  1.4773  0.1067 -2.9813
  464SOL    HW2 1392   0.668   2.694   1.375 -2.1601 -0.1634 -0.4305
  465SOL     OW 1393   0.937   0.583   1.093 -0.4697  0.3045 -0.1772
  465SOL    HW1 1394   0.936   0.529   1.181 -3.1824 -0.5422  1.9699
  465SOL    HW2 1395   0.860   0.650   1.092 -0.7084  3.8999  0.1704
  466SOL     OW 1396   1.591   2.268   2.163  0.7617  0.1088 -0.3825
  466SOL    HW1 1397   1.663   2.323   2.128  0.2393  0.7486 -0.4923
  466SOL    HW2 1398   1.592   2.279   2.268 -0.3259  0.6192 -0.4017
  467SOL     OW 1399   0.888   0.099   1.995  0.2152 -0.1448  0.0511
  467SOL    HW1 1400   0.943   0.096   2.078 -0.7953 -0.2518  0.8373
  467SOL    HW2 1401   0.940   0.091   1.909  0.0796  1.4957  0.5850
  468SOL     OW 1402   3.018   1.244   2.273 -0.0564  0.2059  0.3777
  468SOL    HW1 1403   3.079   1.198   2.200 -0.2708 -2.3880 -0.6527
  468SOL    HW2 1404   3.064   1.263   2.362 -2.3246  2.3539 -2.7911
  469SOL     OW 1405   1.168   2.460   0.468 -0.5547  0.0714 -0.2262
  469SOL    HW1 1406   1.077   2.426   0.443  0.3031 -0.6045  2.1467
  469SOL    HW2 1407   1.165   2.546   0.517 -0.3544 -2.1484 -0.2245
  470SOL     OW 1408   2.089   1.211   2.319  0.4211 -0.2224 -0.0549
  470SOL    HW1 1409   2.109   1.298   2.270 -1.6841 -2.4423  1.5477
  470SOL    HW2 1410   2.090   1.227   2.417  1.3551  0.9277 -2.4220
  471SOL     OW 1411   0.963   2.397   3.050  0.1797 -0.9677  0.4756
  471SOL    HW1 1412   1.028   2.362   0.027 -0.4822 -1.1474  1.2485
  471SOL    HW2 1413   1.015   2.460   2.989 -0.9492 -0.8663 -1.5992
  472SOL     OW 1414   0.408   2.551   2.063 -0.3346  0.4154 -0.3299
  472SOL    HW1 1415   0.454   2.465   2.087  0.0360  1.2421 -1.0444
  472SOL    HW2 1416   0.302   2.537   2.067  0.1404 -1.9517  1.3768
  473SOL     OW 1417   1.021   0.064   2.929  0.6543 -0.2328  0.8788
  473SOL    HW1 1418   1.083   3.083   2.965 -0.8358  0.0025 -1.8485
  473SOL    HW2 1419   0.949   0.092   3.001  1.7385 -1.2975 -0.6053
  474SOL     OW 1420   1.685   0.215   0.710 -0.3203 -0.1204  0.1928
  474SOL    HW1 1421   1.723   0.238   0.614 -0.2703  1.6126 -2.0778
  474SOL    HW2 1422   1.757   0.232   0.781 -0.9574  0.2763 -0.9510
  475SOL     OW 1423   1.586   0.344   1.387  0.5536 -0.0800  0.2172
  475SOL    HW1 1424   1.485   0.340   1.385  1.4801 -0.2404 -0.1336
  475SOL    HW2 1425   1.631   0.301   1.309 -2.7895  0.3727 -2.3734
  476SOL     OW 1426   0.224   0.941   1.092  0.7222  0.2010 -0.0243
  476SOL    HW1 1427   0.143   0.987   1.134  0.9853 -0.7399  2.6149
  476SOL    HW2 1428   0.302   1.004   1.091 -1.2290 -1.8147  0.9266
  477SOL     OW 1429   1.135   2.055   0.594  0.1573  0.6147  0.0036
  477SOL    HW1 1430   1.122   1.953   0.595 -3.8433  0.3915 -0.6974
  477SOL    HW2 1431   1.146   2.098   0.688  1.0548  0.0005  0.0179
  478SOL     OW 1432   0.348   2.537   2.441  1.0148 -0.0087  0.3246
  478SOL    HW1 1433   0.367   2.434   2.456 -2.5380  1.1516 -1.6109
  478SOL    HW2 1434   0.413   2.567   2.372  0.9007 -0.2417 -3.2890
  479SOL     OW 1435   3.022   0.332   1.266 -0.2705 -0.4532  0.4002
  479SOL    HW1 1436   2.923   0.323   1.263  1.9546 -1.3599 -2.5350
  479SOL    HW2 1437   3.044   0.430   1.287 -1.9437  0.4001 -0.6668
  480SOL     OW 1438   2.897   2.406   0.220 -0.2736 -0.0327 -0.5385
  480SOL    HW1 1439   2.880   2.399   0.321 -2.1611 -1.5295  2.0122
  480SOL    HW2 1440   2.925   2.498   0.191  0.6966 -0.1331  0.8577
  481SOL     OW 1441   2.521   2.012   1.876 -0.4227  0.6552 -0.5190
  481SOL    HW1 1442   2.492   2.074   1.802  1.0455 -0.5202  2.1579
  481SOL    HW2 1443   2.537   2.067   1.960  0.4591  0.4948 -0.2252
  482SOL     OW 1444   1.404   1.863   2.449  0.0826 -0.4904  0.1490
  482SOL    HW1 1445   1.388   1.782   2.513 -1.0313 -0.4121 -0.1282
  482SOL    HW2 1446   1.364   1.949   2.485 -4.1064  0.9111  2.6003
  483SOL     OW 1447   0.868   1.617   1.452  0.0304 -0.2139 -0.3756
  483SOL    HW1 1448   0.966   1.618   1.479 -1.3045 -0.4730 -1.9990
  483SOL    HW2 1449   0.832   1.524   1.444  0.8658 -0.2128  1.9339
  484SOL     OW 1450   0.313   0.457   1.556  0.6439 -0.3938 -0.2436
  484SOL    HW1 1451   0.385   0.407   1.507 -0.4406 -0.7021 -1.7140
  484SOL    HW2 1452   0.344   0.505   1.642  0.1947  0.1570  0.3669
  485SOL     OW 1453   2.283   1.172   0.042  0.1994  0.5277  0.0273
  485SOL    HW1 1454   2.261   1.117   3.054  0.7343 -3.5094  0.6698
  485SOL    HW2 1455   2.316   1.104   0.112 -1.6620 -0.6962 -1.0634
  486SOL     OW 1456   1.333   0.149   1.515 -0.7051  0.3123 -0.2173
  486SOL    HW1 1457   1.299   0.138   1.420  0.0673 -0.4504 -0.2616
  486SOL    HW2 1458   1.363   0.245   1.536 -2.7797 -0.5603  0.3383
  487SOL     OW 1459   0.543   2.196   1.469  0.2876 -0.0536  0.0549
  487SOL    HW1 1460   0.531   2.261   1.546 -2.9100  1.5256 -1.0504
  487SOL    HW2 1461   0.519   2.099   1.495 -0.5877 -0.3323 -0.2095
  488SOL     OW 1462   2.510   1.914   2.840  0.3378  0.3400  0.7925
  488SOL    HW1 1463   2.474   1.926   2.745  3.0968 -2.1172 -1.4414
  488SOL    HW2 1464   2.525   2.004   2.883 -0.9938 -1.3301 -2.1273
  489SOL     OW 1465   2.041   2.978   0.633 -0.1223 -0.2915 -0.2309
  489SOL    HW1 1466   1.967   2.915   0.632  4.4535  0.3314  1.7041
  489SOL    HW2 1467   2.115   2.960   0.566  0.1638  0.7754  1.2468
  490SOL     OW 1468   1.231   2.138   3.024  0.0190  0.5720  0.1311
  490SOL    HW1 1469   1.184   2.086   2.951 -1.3559 -1.1755  0.7677
  490SOL    HW2 1470   1.175   2.155   0.013  4.3148  4.4589 -0.6118
  491SOL     OW 1471   0.551   1.456   1.655  0.1094  0.6693 -0.2640
  491SOL    HW1 1472   0.493   1.542   1.638  0.3261 -1.2874 -2.5141
  491SOL    HW2 1473   0.615   1.439   1.574  0.1832 -1.3530  0.2182
  492SOL     OW 1474   1.149   0.934   1.907  0.1581 -0.0681 -0.2150
  492SOL    HW1 1475   1.120   0.966   1.813  0.8882 -2.1028  1.7544
  492SOL    HW2 1476   1.179   1.013   1.964  0.3730  2.0108  0.5169
  493SOL     OW 1477   2.122   1.844   0.749  0.2978 -0.4057  0.4924
  493SOL    HW1 1478   2.117   1.832   0.849  0.8081 -0.8739 -2.3192
  493SOL    HW2 1479   2.107   1.752   0.706  0.0191 -0.9075 -1.9200
  494SOL     OW 1480   0.581   1.728   0.916  0.5918  0.0642  0.2043
  494SOL    HW1 1481   0.488   1.699   0.941 -1.0292  1.8190 -0.8257
  494SOL    HW2 1482   0.575   1.821   0.880 -3.2953 -2.5871  1.0398
  495SOL     OW 1483   2.240   2.651   0.770 -0.1063  0.0943  0.8058
  495SOL    HW1 1484   2.324   2.609   0.723  1.2990 -1.6404  1.0406
  495SOL    HW2 1485   2.201   2.587   0.841  0.5498 -0.4245 -1.1344
  496SOL     OW 1486   2.659   3.059   1.460  0.6013 -0.0519  0.7178
  496SOL    HW1 1487   2.728   0.045   1.467 -1.9249 -2.2341 -0.0969
  496SOL    HW2 1488   2.566   0.005   1.476 -0.6146 -0.8110 -0.5324
  497SOL     OW 1489   2.305   1.003   2.579 -0.8982  0.2952  0.0311
  497SOL    HW1 1490   2.296   1.075   2.507 -0.4195 -1.7804 -1.3219
  497SOL    HW2 1491   2.255   1.024   2.659  2.6181 -0.2648 -1.2859
  498SOL     OW 1492   0.025   2.202   1.475  0.6407 -0.1334 -0.1717
  498SOL    HW1 1493   3.088   2.128   1.413 -0.9496  1.6050 -2.3286
  498SOL    HW2 1494   3.039   2.267   1.501 -1.5899  3.4821  0.5536
  499SOL     OW 1495   1.009   2.527   2.095  0.3708 -0.1120 -0.6079
  499SOL    HW1 1496   0.966   2.440   2.067 -1.0568 -0.2033  2.7070
  499SOL    HW2 1497   1.109   2.513   2.098 -3.5058 -0.0219  1.3183
  500SOL     OW 1498   0.984   2.142   0.395 -0.2443  0.3413 -0.0701
  500SOL    HW1 1499   0.918   2.213   0.413 -0.4198 -0.9829  1.2237
  500SOL    HW2 1500   1.018   2.098   0.485 -0.4445  0.3423  4.0280
  501SOL     OW 1501   1.787   2.978   1.374  0.1777 -0.2062 -0.1126
  501SOL    HW1 1502   1.725   2.954   1.296 -0.1792  0.5179  1.0406
  501SOL    HW2 1503   1.820   2.892   1.421 -0.4835 -2.1476 -0.7597
  502SOL     OW 1504   2.415   0.548   1.663 -0.1322  0.1863 -0.0031
  502SOL    HW1 1505   2.343   0.572   1.728  3.9589  0.2810 -0.4545
  502SOL    HW2 1506   2.471   0.470   1.695 -2.0585 -0.3011  1.4760
  503SOL     OW 1507   2.602   1.141   2.285 -0.4028  0.4791  1.2233
  503SOL    HW1 1508   2.529   1.177   2.349 -1.8908  0.2223 -2.5473
  503SOL    HW2 1509   2.553   1.113   2.204 -1.0518 -4.0187  2.3242
  504SOL     OW 1510   1.482   0.877   1.335  0.4580 -0.2915  0.4293
  504SOL    HW1 1511   1.574   0.863   1.288  1.2607  0.2760  0.8241
  504SOL    HW2 1512   1.437   0.965   1.303 -2.8369  4.0984 -0.1741
  505SOL     OW 1513   0.499   2.983   1.526  0.0181  0.0599  0.7644
  505SOL    HW1 1514   0.579   2.930   1.557  0.8516  0.0063  2.2640
  505SOL    HW2 1515   0.483   2.970   1.425  0.7302 -0.9172 -2.0590
  506SOL     OW 1516   0.283   0.210   0.113 -0.5631 -0.2340 -0.0156
  506SOL    HW1 1517   0.287   0.268   0.026 -1.1579 -0.2707 -1.6307
  506SOL    HW2 1518   0.345   0.237   0.192 -1.9518 -0.0431  2.0702
  507SOL     OW 1519   2.602   2.948   0.236  0.1299  0.0760 -0.2973
  507SOL    HW1 1520   2.681   2.926   0.297  0.4821 -0.1390  1.3477
  507SOL    HW2 1521   2.638   2.987   0.148  0.5627 -1.5522 -0.8262
  508SOL     OW 1522   1.239   0.467   1.966  0.5664  0.4044  0.1140
  508SOL    HW1 1523   1.188   0.435   1.880 -0.0695 -0.6661 -0.7264
  508SOL    HW2 1524   1.299   0.547   1.954  0.8178  1.0401 -1.2145
  509SOL     OW 1525   1.671   1.799   1.223 -0.2226  0.4034  0.0382
  509SOL    HW1 1526   1.577   1.833   1.191 -1.4916  1.2608  0.2272
  509SOL    HW2 1527   1.687   1.698   1.207 -1.1553 -0.9817  0.4843
  510SOL     OW 1528   2.415   1.149   1.575 -0.5208 -0.9672  0.2616
  510SOL    HW1 1529   2.489   1.129   1.641 -0.6660  2.7892  0.6883
  510SOL    HW2 1530   2.443   1.132   1.475 -1.3762  0.9586  2.9632
  511SOL     OW 1531   1.450   1.960   1.235  0.4013 -0.4139 -0.2736
  511SOL    HW1 1532   1.496   1.960   1.326  1.3100 -0.7531 -0.5530
  511SOL    HW2 1533   1.349   1.941   1.249 -0.5109 -1.3018 -1.4991
  512SOL     OW 1534   3.081   1.365   0.609  0.1059  0.4918  0.7965
  512SOL    HW1 1535   0.030   1.348   0.514 -0.7574 -0.5718  0.7496
  512SOL    HW2 1536   3.019   1.449   0.611 -1.6032  2.1989 -0.2954
  513SOL     OW 1537   0.028   1.432   3.002 -0.4600  0.3116 -0.3793
  513SOL    HW1 1538   0.099   1.452   2.929  0.7532  1.7461  1.1436
  513SOL    HW2 1539   3.028   1.440   2.962  2.6861 -1.6363  0.9478
  514SOL     OW 1540   2.866   2.176   2.350 -0.2003 -0.2010  0.8106
  514SOL    HW1 1541   2.937   2.130   2.405  1.4149  1.3512  0.5538
  514SOL    HW2 1542   2.804   2.114   2.299 -1.1586 -2.1916  0.1036
  515SOL     OW 1543   2.160   1.062   0.760 -0.2509  0.5123 -0.8301
  515SOL    HW1 1544   2.191   1.056   0.861  0.4910  0.0346 -0.3881
  515SOL    HW2 1545   2.194   0.978   0.709  0.0165 -0.4293 -0.7425
  516SOL     OW 1546   2.335   2.930   0.151 -0.2121  0.2118  0.0291
  516SOL    HW1 1547   2.432   2.917   0.184  1.5938 -1.1462  1.1361
  516SOL    HW2 1548   2.309   2.859   0.084 -0.9668  2.0792  1.2770
  517SOL     OW 1549   1.096   1.916   2.592  0.2585  0.1681  0.7698
  517SOL    HW1 1550   1.004   1.957   2.613 -0.6985  0.4400 -2.4024
  517SOL    HW2 1551   1.093   1.839   2.524  0.2964  0.3434 -0.9011
  518SOL     OW 1552   0.299   0.082   2.457  0.1404 -0.0839  0.0627
  518SOL    HW1 1553   0.279   0.019   2.380  0.9340  0.2894 -1.9799
  518SOL    HW2 1554   0.238   0.162   2.448 -0.5389 -1.5479 -0.6947
  519SOL     OW 1555   0.666   1.444   2.832  0.2866 -1.0596  0.1762
  519SOL    HW1 1556   0.750   1.508   2.824  4.0816 -1.0225  2.3280
  519SOL    HW2 1557   0.683   1.384   2.908 -3.0425  4.2832 -1.8712
  520SOL     OW 1558   2.958   2.321   2.124 -0.3396 -0.5947  0.8006
  520SOL    HW1 1559   2.914   2.310   2.213 -1.0959  0.8605 -0.6155
  520SOL    HW2 1560   3.047   2.265   2.114  1.9157  2.6545  1.3479
  521SOL     OW 1561   0.750   2.169   2.246 -0.2522 -0.0243  0.1447
  521SOL    HW1 1562   0.735   2.157   2.347  3.2804 -0.8943  0.3467
  521SOL    HW2 1563   0.679   2.221   2.199  3.5890  1.3473  1.6604
  522SOL     OW 1564   1.815   2.838   1.693 -0.9068 -0.2568  0.0473
  522SOL    HW1 1565   1.866   2.893   1.764  2.6791  3.4142 -0.0256
  522SOL    HW2 1566   1.714   2.837   1.702  0.5065  0.6098 -0.9377
  523SOL     OW 1567   1.968   1.984   1.782  1.0122  0.3283  0.6577
  523SOL    HW1 1568   2.018   1.935   1.863  1.5904 -3.8255  2.2565
  523SOL    HW2 1569   1.931   2.075   1.812  2.1365  1.8972 -0.5499
  524SOL     OW 1570   0.429   2.620   0.320  0.1655 -0.3602 -0.0321
  524SOL    HW1 1571   0.453   2.583   0.412  3.8018  0.3170 -0.2392
  524SOL    HW2 1572   0.402   2.547   0.258 -0.9954  2.2871  2.0598
  525SOL     OW 1573   0.150   0.624   0.394 -0.2867 -0.3607 -0.1308
  525SOL    HW1 1574   0.134   0.525   0.371 -2.7167 -3.4665 -2.4996
  525SOL    HW2 1575   0.216   0.632   0.475 -0.2164 -0.7770  0.8495
  526SOL     OW 1576   0.711   2.981   0.524  0.3626 -0.4119 -0.7349
  526SOL    HW1 1577   0.634   2.938   0.469 -2.0877 -1.1710 -1.7352
  526SOL    HW2 1578   0.681   3.045   0.598  0.7284  0.5237 -0.3821
  527SOL     OW 1579   1.991   1.633   1.212 -0.5796  0.5876  0.5195
  527SOL    HW1 1580   1.913   1.587   1.251  2.1177 -2.1795 -1.1736
  527SOL    HW2 1581   2.082   1.615   1.255  0.2942  1.2905 -0.2140
  528SOL     OW 1582   2.882   2.580   2.430  0.2391  0.2638  0.0872
  528SOL    HW1 1583   2.824   2.637   2.369 -1.0906  3.8980 -1.8492
  528SOL    HW2 1584   2.973   2.576   2.383  1.0621  0.0889  1.3627
  529SOL     OW 1585   1.282   1.706   2.211  0.1067  0.2004 -0.3554
  529SOL    HW1 1586   1.234   1.784   2.169 -1.2375 -0.0773 -0.3464
  529SOL    HW2 1587   1.383   1.704   2.182  4.3305  0.2776  1.2699
  530SOL     OW 1588   1.360   1.204   3.051 -0.3131 -0.2198  0.0122
  530SOL    HW1 1589   1.458   1.221   3.054  0.1978 -1.9903 -0.8536
  530SOL    HW2 1590   1.338   1.157   2.961  4.9294  1.4095 -1.0257
  531SOL     OW 1591   0.502   1.059   3.033 -0.1816 -0.0579 -0.8540
  531SOL    HW1 1592   0.452   0.999   0.006 -1.7388  0.5893  0.6379
  531SOL    HW2 1593   0.506   1.020   2.937  4.7908 -3.1445  0.1092
  532SOL     OW 1594   1.841   1.350   0.547  0.3916  0.2174 -0.1254
  532SOL    HW1 1595   1.843   1.257   0.592 -0.6237  0.3826  0.6813
  532SOL    HW2 1596   1.928   1.402   0.539 -0.1834 -2.0283 -0.3575
  533SOL     OW 1597   0.746   0.187   2.539  0.0866  0.0377  0.0388
  533SOL    HW1 1598   0.675   0.221   2.479  0.2673 -1.2203  2.1351
  533SOL    HW2 1599   0.824   0.248   2.530  0.4740 -2.9964  0.9344
  534SOL     OW 1600   1.101   2.585   2.884  0.0720 -0.1782  0.2119
  534SOL    HW1 1601   1.018   2.638   2.909  0.1688 -1.4307 -0.6542
  534SOL    HW2 1602   1.183   2.630   2.924  0.7806  1.0778  1.6744
  535SOL     OW 1603   0.340   3.030   0.127  1.0727 -0.3683  0.5047
  535SOL    HW1 1604   0.265   2.974   0.168  0.6735 -1.4687  1.2943
  535SOL    HW2 1605   0.302   0.031   0.104  0.1886 -0.1410  0.7013
  536SOL     OW 1606   3.013   0.888   2.230  0.0504 -0.0425 -0.6323
  536SOL    HW1 1607   3.067   0.963   2.179  1.9208 -2.1273  3.6989
  536SOL    HW2 1608   3.057   0.794   2.225 -0.1057  0.5504  0.4495
  537SOL     OW 1609   1.164   0.151   1.288  0.5044 -0.1139 -0.3835
  537SOL    HW1 1610   1.194   0.098   1.208 -2.5941 -1.3047  0.1517
  537SOL    HW2 1611   1.189   0.246   1.269  0.8570 -2.6230 -0.4918
  538SOL     OW 1612   0.376   1.576   0.342  0.2365 -0.1007  0.2613
  538SOL    HW1 1613   0.357   1.542   0.248  1.3633  1.5782 -0.9864
  538SOL    HW2 1614   0.443   1.514   0.393  1.7530 -0.9886 -1.7924
  539SOL     OW 1615   2.398   1.076   2.056  0.0719  0.5226  0.2905
  539SOL    HW1 1616   2.348   1.025   1.983 -1.0414  1.6153  0.0696
  539SOL    HW2 1617   2.392   1.178   2.041 -1.0399  1.3939 -0.2724
  540SOL     OW 1618   2.141   1.442   1.999 -0.3941  0.0330 -0.5976
  540SOL    HW1 1619   2.067   1.368   2.001  0.2952  1.4256 -0.8231
  540SOL    HW2 1620   2.103   1.524   2.040 -0.1566 -1.5974 -1.9461
  541SOL     OW 1621   0.716   1.387   1.440 -0.4611 -0.0963  0.0769
  541SOL    HW1 1622   0.740   1.291   1.452  1.6083  2.3798  0.9345
  541SOL    HW2 1623   0.655   1.407   1.363  1.7352 -0.2444  3.5263
  542SOL     OW 1624   1.660   0.445   2.241  0.5014  0.5088 -0.2693
  542SOL    HW1 1625   1.689   0.387   2.321  0.3766  1.5602 -0.1316
  542SOL    HW2 1626   1.674   0.394   2.154 -0.3448  1.0620 -0.3445
  543SOL     OW 1627   0.919   0.346   0.502 -0.6321  0.0927  0.6721
  543SOL    HW1 1628   0.925   0.305   0.600  1.1744 -6.1400  2.4586
  543SOL    HW2 1629   1.011   0.374   0.463  1.4862  1.4361  1.8606
  544SOL     OW 1630   2.496   1.932   2.340 -0.1045 -0.1611  0.0305
  544SOL    HW1 1631   2.477   1.871   2.260  2.4796 -0.9831 -1.4118
  544SOL    HW2 1632   2.599   1.927   2.353 -0.2059 -0.1116 -0.8882
  545SOL     OW 1633   1.813   2.182   1.890  0.1373 -0.5258 -0.6164
  545SOL    HW1 1634   1.852   2.235   1.970  0.2070  2.1654  1.1730
  545SOL    HW2 1635   1.756   2.241   1.828  1.6369 -4.1853 -0.5778
  546SOL     OW 1636   0.570   2.938   3.084 -0.1745  0.1097  0.4586
  546SOL    HW1 1637   0.655   2.937   0.044 -0.4948 -1.4380 -2.1787
  546SOL    HW2 1638   0.490   2.976   0.042  0.5383 -1.2805 -0.6143
  547SOL     OW 1639   1.944   0.860   0.222 -0.0254 -0.0071  0.2520
  547SOL    HW1 1640   1.957   0.755   0.230  0.8889 -2.0683  0.9426
  547SOL    HW2 1641   1.905   0.898   0.310 -0.4243 -2.1219  0.9063
  548SOL     OW 1642   2.147   1.833   2.434 -0.3470 -0.2769 -0.0103
  548SOL    HW1 1643   2.141   1.882   2.521 -0.7003  0.4993 -1.5320
  548SOL    HW2 1644   2.184   1.744   2.461  0.5668  0.8121  1.9258
  549SOL     OW 1645   2.047   0.290   0.586  0.2676  0.0167  0.3964
  549SOL    HW1 1646   2.011   0.199   0.562  2.7959  0.5765  1.3176
  549SOL    HW2 1647   1.988   0.365   0.547 -0.6228 -1.1584  2.0349
  550SOL     OW 1648   2.539   2.169   0.637 -0.2722  0.0307 -0.2129
  550SOL    HW1 1649   2.452   2.128   0.674  0.4302  2.5080  1.3562
  550SOL    HW2 1650   2.521   2.261   0.595  0.1262  1.4033 -0.4735
  551SOL     OW 1651   0.947   0.096   1.432 -0.2236  0.1873 -0.3945
  551SOL    HW1 1652   1.025   0.120   1.372 -0.8759  1.3178 -0.3358
  551SOL    HW2 1653   0.890   0.020   1.389  0.8333 -1.5607  0.7959
  552SOL     OW 1654   3.077   2.489   2.668 -0.5553  0.3737 -0.2734
  552SOL    HW1 1655   2.981   2.498   2.641  4.3908 -1.5792 -0.2444
  552SOL    HW2 1656   0.035   2.417   2.612  1.1251 -3.6933 -0.9865
  553SOL     OW 1657   0.529   2.883   0.367 -0.8889 -0.2632  0.4644
  553SOL    HW1 1658   0.444   2.911   0.411 -0.7443 -0.7344 -1.6030
  553SOL    HW2 1659   0.528   2.785   0.345  1.5560 -0.0733  0.4692
  554SOL     OW 1660   2.269   2.365   1.835 -0.5220  0.2657  0.6645
  554SOL    HW1 1661   2.322   2.308   1.770 -1.9594  0.1195  2.6781
  554SOL    HW2 1662   2.185   2.400   1.787 -2.1000  1.8418 -1.7386
  555SOL     OW 1663   1.493   2.088   1.789 -0.4654  0.0235 -0.8051
  555SOL    HW1 1664   1.401   2.069   1.744 -3.6997  1.0900 -1.4761
  555SOL    HW2 1665   1.558   2.011   1.780  0.8817 -0.3224  1.9498
  556SOL     OW 1666   1.257   1.466   1.253 -0.1419 -0.0284 -0.3500
  556SOL    HW1 1667   1.203   1.549   1.220 -0.1414 -1.1416 -2.0932
  556SOL    HW2 1668   1.265   1.472   1.352  0.8758  0.4044  1.0698
  557SOL     OW 1669   1.905   2.327   2.103  0.2093 -0.3610 -0.2554
  557SOL    HW1 1670   2.006   2.334   2.076 -0.5570  0.0081  1.4874
  557SOL    HW2 1671   1.896   2.312   2.204 -1.7696  1.0110  1.2782
  558SOL     OW 1672   0.628   0.009   1.936  0.5087 -0.6823 -0.3142
  558SOL    HW1 1673   0.567   0.075   1.881  1.8906  3.3348 -2.3080
  558SOL    HW2 1674   0.721   0.045   1.958 -2.2062  0.5461 -1.6837
  559SOL     OW 1675   2.273   2.990   1.150 -0.1913 -0.6807  0.3732
  559SOL    HW1 1676   2.367   2.976   1.190  2.4511 -2.3739  0.6301
  559SOL    HW2 1677   2.270   3.060   1.077  1.7262 -1.5044  1.9521
  560SOL     OW 1678   0.800   2.323   0.404 -0.3605 -0.2394 -0.6264
  560SOL    HW1 1679   0.817   2.405   0.352  0.3689 -0.8478  4.0875
  560SOL    HW2 1680   0.704   2.295   0.398  2.5189  0.5274  2.1298
  561SOL     OW 1681   1.062   0.381   0.215 -0.4069 -0.4377 -0.0273
  561SOL    HW1 1682   1.110   0.457   0.163  2.9071  1.4159  0.0396
  561SOL    HW2 1683   0.960   0.386   0.214 -0.8747 -0.1786  1.2261
  562SOL     OW 1684   0.805   0.350   2.837  0.2390  0.0992  0.3378
  562SOL    HW1 1685   0.789   0.254   2.873  1.3293 -0.1569 -2.4245
  562SOL    HW2 1686   0.860   0.354   2.748  1.3419 -0.1686 -4.3786
  563SOL     OW 1687   1.494   1.963   2.774  0.5979  0.0274  0.0017
  563SOL    HW1 1688   1.573   2.023   2.803 -4.0985  0.8489  1.1381
  563SOL    HW2 1689   1.421   2.012   2.720 -2.2374  2.0787  1.0547
  564SOL     OW 1690   2.883   1.082   0.812 -0.5984  0.1258 -0.8313
  564SOL    HW1 1691   2.861   0.994   0.767 -1.2268  0.6442  0.2490
  564SOL    HW2 1692   2.984   1.098   0.798  0.9815  0.6816 -0.7726
  565SOL     OW 1693   1.260   0.304   2.861 -0.2261  0.1504 -0.3983
  565SOL    HW1 1694   1.182   0.277   2.799 -1.0607 -2.4684  0.4062
  565SOL    HW2 1695   1.241   0.396   2.901 -2.4250  0.0843  0.6521
  566SOL     OW 1696   1.332   0.241   2.064 -0.2136  0.0160  0.3322
  566SOL    HW1 1697   1.294   0.329   2.027 -1.2063  0.9993  2.3491
  566SOL    HW2 1698   1.400   0.195   1.997  0.3335 -2.3717 -2.8684
  567SOL     OW 1699   2.461   1.406   0.834  0.2597  0.3997  0.4016
  567SOL    HW1 1700   2.385   1.390   0.769 -1.6090  1.1682 -0.7468
  567SOL    HW2 1701   2.551   1.369   0.799  0.4981  0.5297 -1.7763
  568SOL     OW 1702   1.933   1.960   0.585 -1.0907  0.0146 -0.7834
  568SOL    HW1 1703   1.968   2.040   0.532 -1.8601  1.6138 -1.2660
  568SOL    HW2 1704   2.006   1.933   0.650  1.2871 -0.2480 -2.8496
  569SOL     OW 1705   2.104   1.533   2.886 -0.1128  0.0685  0.2287
  569SOL    HW1 1706   2.031   1.464   2.873 -0.7089  0.5219 -0.4407
  569SOL    HW2 1707   2.195   1.494   2.871 -1.5142  1.2279  0.8427
  570SOL     OW 1708   0.244   2.848   1.866  0.1379 -0.2985 -0.1352
  570SOL    HW1 1709   0.321   2.790   1.902 -0.1399  1.0322  1.0855
  570SOL    HW2 1710   0.254   2.860   1.768  0.7196 -1.8594  2.4621
  571SOL     OW 1711   0.146   0.292   2.517 -0.0686 -0.0444  0.3996
  571SOL    HW1 1712   0.073   0.301   2.441 -0.2452 -1.2609 -0.2206
  571SOL    HW2 1713   0.214   0.369   2.516  1.9893 -0.9602  0.7701
  572SOL     OW 1714   0.836   1.628   0.824 -0.0060  0.3010  0.3569
  572SOL    HW1 1715   0.747   1.671   0.852 -0.9824 -1.1929 -0.3595
  572SOL    HW2 1716   0.914   1.691   0.839 -1.4381  0.8207  0.0091
  573SOL     OW 1717   1.359   2.261   0.285 -0.0806 -0.0582 -0.2473
  573SOL    HW1 1718   1.384   2.305   0.197 -1.2696 -1.6972 -2.1697
  573SOL    HW2 1719   1.431   2.273   0.360  3.0265 -0.6691 -0.4722
  574SOL     OW 1720   0.878   0.063   0.900 -0.2085  0.3357 -0.3315
  574SOL    HW1 1721   0.865   0.112   0.990  1.4023 -0.1836 -0.2299
  574SOL    HW2 1722   0.918   3.065   0.915 -0.0600 -0.1426 -1.2150
  575SOL     OW 1723   2.970   0.881   1.397 -0.2372 -0.1000  0.5499
  575SOL    HW1 1724   2.885   0.846   1.354 -0.7361  0.1316 -0.0327
  575SOL    HW2 1725   2.955   0.970   1.435  2.7543 -0.6419 -2.1239
  576SOL     OW 1726   1.716   0.103   1.553  0.3937 -0.1119  0.3157
  576SOL    HW1 1727   1.701   0.186   1.498  0.0809 -1.9518  2.6763
  576SOL    HW2 1728   1.737   0.025   1.492  0.9416  0.4955  2.4429
  577SOL     OW 1729   0.086   1.094   2.092 -0.0628  0.4420  0.2546
  577SOL    HW1 1730   0.064   1.047   2.002 -0.0944  0.6161  0.1623
  577SOL    HW2 1731   0.145   1.173   2.068  0.6874 -2.2421  0.7876
  578SOL     OW 1732   1.858   0.224   2.705 -0.3656  0.5758  0.6704
  578SOL    HW1 1733   1.799   0.212   2.789 -0.1688 -0.8371  1.8320
  578SOL    HW2 1734   1.873   0.136   2.657 -1.9129  0.3984  0.2755
  579SOL     OW 1735   2.182   1.864   1.932 -0.0870 -0.3672  0.4862
  579SOL    HW1 1736   2.210   1.778   1.883  0.1691  0.7136  2.3897
  579SOL    HW2 1737   2.264   1.919   1.967  6.0460 -0.3458  3.1237
  580SOL     OW 1738   1.902   1.345   2.891 -0.3440 -0.3399 -0.1653
  580SOL    HW1 1739   1.827   1.405   2.857  1.6751 -1.0410  1.2022
  580SOL    HW2 1740   1.922   1.260   2.833  0.6202 -1.2914  1.4616
  581SOL     OW 1741   1.324   1.064   2.824  0.5286 -0.3940  0.3693
  581SOL    HW1 1742   1.351   0.968   2.843 -0.3698 -1.3206 -0.4709
  581SOL    HW2 1743   1.381   1.117   2.761  1.7920  1.4025  0.0091
  582SOL     OW 1744   0.824   2.153   1.482  0.0649 -0.0812 -0.5861
  582SOL    HW1 1745   0.846   2.078   1.547  0.9752 -1.2395  0.1228
  582SOL    HW2 1746   0.727   2.144   1.453  3.7017 -0.4010 -1.1903
  583SOL     OW 1747   1.339   1.100   1.222 -0.2800 -0.3099  1.1934
  583SOL    HW1 1748   1.313   1.036   1.144  1.0911  0.2555 -3.1680
  583SOL    HW2 1749   1.360   1.193   1.175 -1.9084  4.9346 -2.2999
  584SOL     OW 1750   1.732   2.417   0.715 -0.3797 -0.5000  0.0509
  584SOL    HW1 1751   1.634   2.408   0.678 -2.6561 -1.0876 -1.0237
  584SOL    HW2 1752   1.735   2.483   0.795  1.8797  1.5133  2.2251
  585SOL     OW 1753   2.301   2.769   3.023 -0.2576  0.8472  0.4800
  585SOL    HW1 1754   2.294   2.759   2.919 -0.3164  0.6407  0.7133
  585SOL    HW2 1755   2.235   2.697   3.059 -0.0572  1.2336  0.1144
  586SOL     OW 1756   2.709   2.185   0.918 -0.2844  0.3406 -0.6612
  586SOL    HW1 1757   2.674   2.235   0.838  2.6561 -1.7780  1.9559
  586SOL    HW2 1758   2.790   2.241   0.962  2.7556 -0.7869  1.1847
  587SOL     OW 1759   1.032   1.723   0.141 -0.0954  1.1498 -0.1335
  587SOL    HW1 1760   1.134   1.743   0.153 -3.4991  2.1756 -0.0890
  587SOL    HW2 1761   1.010   1.674   0.057 -0.5199  0.6728  1.5607
  588SOL     OW 1762   0.578   0.058   1.120 -0.4697 -1.4467  0.2907
  588SOL    HW1 1763   0.501   0.074   1.180  0.9393 -1.3226  0.4097
  588SOL    HW2 1764   0.577   0.120   1.037 -0.8664 -0.9883 -0.6624
  589SOL     OW 1765   1.120   0.584   0.703 -0.6664  0.2889 -0.0805
  589SOL    HW1 1766   1.098   0.533   0.783  2.5346  0.5015 -1.7709
  589SOL    HW2 1767   1.042   0.621   0.648  0.4870  0.0643  1.0357
  590SOL     OW 1768   2.078   2.557   0.003 -0.3300  0.0897  0.0281
  590SOL    HW1 1769   2.055   2.498   0.079 -2.7235  1.2761 -0.8094
  590SOL    HW2 1770   2.008   2.634   3.080  2.0322  0.8348 -0.6018
  591SOL     OW 1771   0.620   2.350   2.452 -0.0418  0.1769 -0.4543
  591SOL    HW1 1772   0.655   2.384   2.542  0.7704  0.7955  0.3611
  591SOL    HW2 1773   0.659   2.401   2.372  0.9726 -2.8877 -0.8231
  592SOL     OW 1774   2.738   1.592   2.162  0.3329  0.5403 -0.6191
  592SOL    HW1 1775   2.751   1.494   2.185 -0.1233  2.9408  0.1647
  592SOL    HW2 1776   2.784   1.624   2.077 -0.3337 -1.1095 -1.3490
  593SOL     OW 1777   1.793   1.284   1.344 -0.8695 -0.1235 -0.7260
  593SOL    HW1 1778   1.892   1.256   1.337  1.2882 -0.7240  0.0442
  593SOL    HW2 1779   1.737   1.226   1.409  1.0514 -0.1175 -0.0793
  594SOL     OW 1780   2.604   1.122   2.864  0.2975 -0.6402  0.0314
  594SOL    HW1 1781   2.586   1.189   2.938 -0.5216  1.6001 -0.0821
  594SOL    HW2 1782   2.704   1.088   2.857  2.0970 -1.3857 -0.4744
  595SOL     OW 1783   0.781   0.895   0.477  0.6039 -0.1703  0.3302
  595SOL    HW1 1784   0.716   0.971   0.503 -0.4158  2.4864  0.6039
  595SOL    HW2 1785   0.775   0.885   0.375  1.3445 -0.5123  1.3422
  596SOL     OW 1786   2.987   1.281   1.262 -0.0454  0.5860 -0.5781
  596SOL    HW1 1787   2.958   1.291   1.166  0.9935  0.5057  0.2004
  596SOL    HW2 1788   3.010   1.376   1.294 -0.4275 -0.8011 -0.8217
  597SOL     OW 1789   0.977   2.254   1.293  0.5022 -0.2233 -0.4790
  597SOL    HW1 1790   0.918   2.304   1.228 -0.0699  0.3723 -0.5011
  597SOL    HW2 1791   0.927   2.204   1.364  2.3266  0.1631 -2.1022
  598SOL     OW 1792   2.497   2.523   1.770  0.2067  0.0207 -0.5591
  598SOL    HW1 1793   2.424   2.468   1.824 -1.1981 -1.0312 -0.3913
  598SOL    HW2 1794   2.581   2.464   1.768  0.7439  2.1380 -0.4061
  599SOL     OW 1795   0.425   1.302   2.934 -0.3161  0.0688  0.1459
  599SOL    HW1 1796   0.467   1.315   2.842  0.0984  0.3663  1.9601
  599SOL    HW2 1797   0.452   1.215   2.978 -0.8650  1.4973  0.6551
  600SOL     OW 1798   0.694   0.726   0.004 -0.2342 -0.1642 -0.2302
  600SOL    HW1 1799   0.750   0.636   0.014  2.1324 -1.9181 -0.3796
  600SOL    HW2 1800   0.643   0.750   0.088  0.4584 -2.0400 -1.6529
  601SOL     OW 1801   0.402   0.585   1.781  0.3017  0.6330  0.6037
  601SOL    HW1 1802   0.419   0.685   1.798 -0.3749  2.9498  1.6409
  601SOL    HW2 1803   0.488   0.532   1.793 -2.5660  0.5570 -2.2240
  602SOL     OW 1804   0.267   2.339   0.418  0.4804  0.3248  1.1661
  602SOL    HW1 1805   0.246   2.393   0.501 -1.1294 -1.9083  0.5583
  602SOL    HW2 1806   0.234   2.390   0.334  1.3726 -0.0116 -1.6049
  603SOL     OW 1807   1.415   2.828   2.137 -0.3060 -0.1843 -0.0750
  603SOL    HW1 1808   1.326   2.836   2.187  1.5443  3.7292  0.5645
  603SOL    HW2 1809   1.423   2.740   2.084 -0.5649 -0.4031 -0.6284
  604SOL     OW 1810   0.307   2.294   2.901 -0.4829  0.3204  0.8019
  604SOL    HW1 1811   0.292   2.222   2.830  0.1293 -1.6286 -0.0559
  604SOL    HW2 1812   0.230   2.307   2.963 -0.5273  0.7157  0.7817
  605SOL     OW 1813   2.068   1.127   1.762  0.0539  0.2351  0.2435
  605SOL    HW1 1814   2.025   1.098   1.672  0.4132  1.5760  0.4377
  605SOL    HW2 1815   2.140   1.198   1.748 -0.1834  2.9077  2.7957
  606SOL     OW 1816   0.746   0.768   2.834 -0.5311 -0.0158  0.4686
  606SOL    HW1 1817   0.714   0.753   2.928 -0.2048  1.7492  1.0632
  606SOL    HW2 1818   0.845   0.788   2.838  2.3465  0.0067 -2.3539
  607SOL     OW 1819   0.798   0.864   1.297  0.3509  0.0012  0.1524
  607SOL    HW1 1820   0.777   0.827   1.203  0.1130  0.3907 -1.4152
  607SOL    HW2 1821   0.732   0.936   1.328 -1.4007  1.9165  0.4082
  608SOL     OW 1822   2.878   2.076   1.784  0.4270 -0.4839  0.7446
  608SOL    HW1 1823   2.832   2.122   1.861  1.0444 -1.6940  0.4084
  608SOL    HW2 1824   2.843   2.112   1.698 -2.0668  0.3856  0.1629
  609SOL     OW 1825   2.229   0.230   0.260  0.1134 -0.6745  0.3636
  609SOL    HW1 1826   2.272   0.289   0.190  0.5254  0.7616  2.0781
  609SOL    HW2 1827   2.144   0.188   0.223  0.2968 -0.2963 -0.9162
  610SOL     OW 1828   2.900   2.838   1.377  0.1429 -0.3605  0.5981
  610SOL    HW1 1829   2.934   2.920   1.323 -3.4186  0.0808  0.6379
  610SOL    HW2 1830   2.857   2.870   1.464  0.8791 -0.7310 -1.8718
  611SOL     OW 1831   1.774   2.180   0.136 -0.3833 -0.0353  0.0870
  611SOL    HW1 1832   1.740   2.085   0.148  1.5459 -0.0916  0.3347
  611SOL    HW2 1833   1.789   2.196   0.038  2.6494 -0.8181  0.0619
  612SOL     OW 1834   0.508   0.128   1.693 -0.1236  0.1575 -0.4413
  612SOL    HW1 1835   0.520   0.031   1.662 -2.8540  1.8291  2.3324
  612SOL    HW2 1836   0.564   0.183   1.631  0.4027  2.5463  2.2915
  613SOL     OW 1837   2.982   2.042   0.606  0.3397 -0.0270  0.1311
  613SOL    HW1 1838   2.991   2.139   0.629 -2.3158  0.9824  0.7599
  613SOL    HW2 1839   2.952   1.987   0.691 -3.9477  0.7453 -1.7851
  614SOL     OW 1840   1.598   0.451   1.749 -0.4792  0.1728  0.6095
  614SOL    HW1 1841   1.667   0.474   1.677 -1.4125 -2.5008  1.7266
  614SOL    HW2 1842   1.650   0.403   1.823 -1.0366  1.7189 -1.5583
  615SOL     OW 1843   1.603   1.427   0.662  0.0292 -0.6587 -0.6576
  615SOL    HW1 1844   1.693   1.413   0.610 -0.0825 -0.1309  0.2562
  615SOL    HW2 1845   1.584   1.521   0.695 -1.6754 -2.0281 -0.7938
  616SOL     OW 1846   1.992   1.568   0.452 -0.3485 -0.3209  0.4168
  616SOL    HW1 1847   1.915   1.631   0.463  1.2185  1.6766  0.6849
  616SOL    HW2 1848   2.049   1.596   0.374  0.5540 -0.3489  0.3520
  617SOL     OW 1849   1.523   0.705   0.113 -0.6763 -0.1978  0.5571
  617SOL    HW1 1850   1.430   0.726   0.151  4.2529  2.3444  2.7824
  617SOL    HW2 1851   1.587   0.786   0.110  0.6327  1.0200  1.4268
  618SOL     OW 1852   0.420   0.652   2.115 -0.0801  0.1340  0.0931
  618SOL    HW1 1853   0.395   0.698   2.205  0.5013 -1.0278  3.5526
  618SOL    HW2 1854   0.355   0.571   2.086 -0.0725 -2.1216  0.8938
  619SOL     OW 1855   3.010   1.553   1.378 -0.1073  0.4237  0.0752
  619SOL    HW1 1856   3.068   1.614   1.438  1.2339 -0.3194 -2.0759
  619SOL    HW2 1857   3.013   1.575   1.279 -0.7101 -1.8570 -1.3450
  620SOL     OW 1858   2.213   2.810   2.769  0.1001  0.0407 -0.3582
  620SOL    HW1 1859   2.300   2.868   2.781  0.0654  0.4244  0.8525
  620SOL    HW2 1860   2.131   2.869   2.771 -1.5974  2.2411  2.9506
  621SOL     OW 1861   2.861   1.650   0.088 -0.1372 -0.4130 -0.7510
  621SOL    HW1 1862   2.772   1.691   0.057 -1.9545  0.4040 -0.0705
  621SOL    HW2 1863   2.901   1.712   0.158  1.4810  1.3627 -1.0593
  622SOL     OW 1864   1.500   0.179   2.522  0.3062  0.2219  0.0490
  622SOL    HW1 1865   1.449   0.088   2.529  1.1459 -2.1446 -0.3468
  622SOL    HW2 1866   1.464   0.232   2.443 -2.6873  1.6186 -2.6522
  623SOL     OW 1867   0.804   2.389   1.128 -0.2088 -0.7990  0.0199
  623SOL    HW1 1868   0.719   2.392   1.182  0.3221 -0.5582  0.2537
  623SOL    HW2 1869   0.835   2.483   1.100  0.9916  1.4645  1.8872
  624SOL     OW 1870   0.067   2.801   2.980 -0.5508  0.0757 -0.5177
  624SOL    HW1 1871   3.089   2.756   2.923  0.6538  1.2796 -1.4199
  624SOL    HW2 1872   0.148   2.828   2.922 -0.0309  2.0040 -1.3035
  625SOL     OW 1873   0.762   2.026   0.656 -0.1556  0.0732 -0.3731
  625SOL    HW1 1874   0.855   2.041   0.689 -3.8115  1.4767  0.1336
  625SOL    HW2 1875   0.767   1.958   0.579 -2.2647 -1.6666 -2.2349
  626SOL     OW 1876   2.991   0.668   2.913 -1.0776  0.5360  0.5190
  626SOL    HW1 1877   3.005   0.722   2.996  2.7416  0.9196 -1.0658
  626SOL    HW2 1878   2.895   0.640   2.908  0.2735  1.5650  1.9750
  627SOL     OW 1879   1.371   1.843   2.975 -1.2249 -0.1661  0.2686
  627SOL    HW1 1880   1.430   1.878   2.895 -1.6652 -0.6073  0.7642
  627SOL    HW2 1881   1.274   1.869   2.965 -0.7817 -0.6688 -1.0228
  628SOL     OW 1882   3.027   2.291   2.902  0.4951 -0.1497  0.4894
  628SOL    HW1 1883   3.089   2.290   2.985 -1.1446 -1.1199 -1.9589
  628SOL    HW2 1884   3.029   2.390   2.875  0.4558  3.5746 -0.3585
  629SOL     OW 1885   0.981   2.917   2.606  0.3791 -0.2802 -0.1856
  629SOL    HW1 1886   1.042   2.861   2.552 -1.5903  3.7795  0.3561
  629SOL    HW2 1887   0.906   2.946   2.547 -1.8707  0.2341  1.6485
  630SOL     OW 1888   1.263   0.749   1.748  0.2293  0.4953  0.6950
  630SOL    HW1 1889   1.185   0.696   1.708  1.1627 -1.5632  0.7305
  630SOL    HW2 1890   1.235   0.824   1.813 -0.5974  0.0288 -0.0323
  631SOL     OW 1891   1.781   0.981   0.426  0.3179  0.8109 -0.6127
  631SOL    HW1 1892   1.802   1.031   0.511  2.1378  0.2214 -1.2386
  631SOL    HW2 1893   1.689   0.935   0.427 -1.6557  1.6271 -0.8903
  632SOL     OW 1894   2.545   0.331   1.740  0.4945  0.1660 -0.6198
  632SOL    HW1 1895   2.635   0.369   1.770  0.2721  1.0395  0.2232
  632SOL    HW2 1896   2.553   0.232   1.727 -0.9080  2.0278  1.1300
  633SOL     OW 1897   1.062   1.409   0.233 -0.2779  0.3330 -0.2891
  633SOL    HW1 1898   1.022   1.490   0.286 -1.1082  1.7648 -0.6385
  633SOL    HW2 1899   1.098   1.344   0.308  3.5853  0.7158 -0.5520
  634SOL     OW 1900   2.437   2.665   2.437  0.4475  0.6223 -0.1134
  634SOL    HW1 1901   2.408   2.574   2.405 -0.9031  0.2141 -1.5884
  634SOL    HW2 1902   2.356   2.725   2.435 -0.3154 -0.6744 -0.2026
  635SOL     OW 1903   1.873   0.514   0.475  0.0527  0.3672  0.0138
  635SOL    HW1 1904   1.793   0.448   0.459 -0.6017 -1.4816  1.1519
  635SOL    HW2 1905   1.847   0.590   0.541  1.6704 -0.8624  1.3872
  636SOL     OW 1906   0.561   1.452   0.883 -0.8480  0.0754 -0.1326
  636SOL    HW1 1907   0.479   1.452   0.825  0.4686 -1.3893  1.5401
  636SOL    HW2 1908   0.581   1.549   0.900 -1.7617  1.0982 -1.0708
  637SOL     OW 1909   2.685   2.124   0.186  0.0391 -0.6150  0.8735
  637SOL    HW1 1910   2.700   2.124   0.289  0.0336 -1.8889  0.1727
  637SOL    HW2 1911   2.651   2.213   0.153  1.9996 -1.7157 -0.7297
  638SOL     OW 1912   1.639   2.748   2.322  0.5732  0.5148 -0.3249
  638SOL    HW1 1913   1.568   2.759   2.245 -5.4129 -0.1956 -1.0735
  638SOL    HW2 1914   1.693   2.666   2.301  0.4970  1.4267 -0.9384
  639SOL     OW 1915   1.556   1.910   0.447 -0.0552  0.2042 -0.3109
  639SOL    HW1 1916   1.480   1.944   0.388  0.7347 -0.2576  1.9076
  639SOL    HW2 1917   1.534   1.822   0.502  2.0302  0.2262  2.0170
  640SOL     OW 1918   1.922   0.075   0.460 -0.1970  0.1111  0.1555
  640SOL    HW1 1919   1.980   0.015   0.525  1.4183  0.0880 -0.8194
  640SOL    HW2 1920   1.952   0.058   0.364 -0.6979 -0.7146 -0.1093
  641SOL     OW 1921   2.980   0.054   0.456 -0.5667 -0.2369 -0.1684
  641SOL    HW1 1922   3.000   0.117   0.535 -0.3364 -0.2195 -1.2836
  641SOL    HW2 1923   3.042   0.079   0.375  1.4108  1.0310 -1.3391
  642SOL     OW 1924   0.516   0.310   1.429  0.1098  0.2124 -0.3475
  642SOL    HW1 1925   0.609   0.315   1.474 -2.2493 -0.0070  0.6114
  642SOL    HW2 1926   0.531   0.321   1.327 -0.7778  2.5328  0.6002
  643SOL     OW 1927   0.681   1.266   2.309  0.3284 -0.1731 -0.1354
  643SOL    HW1 1928   0.710   1.340   2.376  0.1294 -0.0788  1.5052
  643SOL    HW2 1929   0.659   1.307   2.214 -0.1165 -0.7284 -3.1394
  644SOL     OW 1930   1.449   2.405   0.525  0.0071  0.0133  0.7026
  644SOL    HW1 1931   1.349   2.401   0.501  0.7582  1.3192  0.5711
  644SOL    HW2 1932   1.459   2.373   0.623 -1.2736  0.9993  2.9472
  645SOL     OW 1933   1.734   1.926   0.231  0.4312  0.1040 -0.0860
  645SOL    HW1 1934   1.666   1.883   0.167 -0.7332 -0.7071  0.8075
  645SOL    HW2 1935   1.704   1.911   0.324  0.6179  1.0866 -0.8577
  646SOL     OW 1936   0.157   1.495   2.770  0.2812  0.7259  0.1871
  646SOL    HW1 1937   0.108   1.409   2.737 -1.4099 -1.1151 -0.4805
  646SOL    HW2 1938   0.141   1.581   2.719 -0.6748 -1.1979  1.8001
  647SOL     OW 1939   0.855   0.192   1.151 -0.0690 -0.1697  0.0735
  647SOL    HW1 1940   0.821   0.122   1.214 -0.2901  3.4958  0.9135
  647SOL    HW2 1941   0.898   0.267   1.198  1.6849  1.8751 -4.4833
  648SOL     OW 1942   1.327   0.694   1.142  0.0549 -0.4765  0.3629
  648SOL    HW1 1943   1.283   0.778   1.096 -1.0009 -0.7744 -1.8905
  648SOL    HW2 1944   1.428   0.710   1.157 -0.0634 -0.6787  0.3702
  649SOL     OW 1945   0.998   1.631   0.402 -0.1368  0.5035 -0.1836
  649SOL    HW1 1946   0.996   1.676   0.310 -2.2294 -0.5402  1.6227
  649SOL    HW2 1947   1.027   1.698   0.475  2.5240  1.7352 -1.5534
  650SOL     OW 1948   2.505   1.588   2.015 -0.3915 -0.8191  0.1799
  650SOL    HW1 1949   2.520   1.587   1.915 -0.7577  2.4699  2.1993
  650SOL    HW2 1950   2.597   1.581   2.061 -1.0528 -1.5898  1.5161
  651SOL     OW 1951   1.447   2.394   2.681  0.2943  0.2664 -0.7494
  651SOL    HW1 1952   1.407   2.351   2.766 -1.8506 -1.7582  0.8099
  651SOL    HW2 1953   1.373   2.394   2.608 -0.0568  1.1241 -1.3150
  652SOL     OW 1954   2.651   1.836   0.221 -0.2653 -0.3918  0.3994
  652SOL    HW1 1955   2.581   1.818   0.153 -1.5280 -0.0501 -1.1721
  652SOL    HW2 1956   2.698   1.921   0.191  0.2872  0.9278 -1.0098
  653SOL     OW 1957   0.350   0.152   0.909  0.5905 -0.2816  0.2096
  653SOL    HW1 1958   0.287   0.146   0.992  1.4902 -2.2526 -0.2997
  653SOL    HW2 1959   0.407   0.232   0.912 -1.8610 -2.1972 -1.3748
  654SOL     OW 1960   2.730   0.096   2.257  0.2049 -0.3679  0.4415
  654SOL    HW1 1961   2.745   0.013   2.316  1.1598 -2.2819  0.9345
  654SOL    HW2 1962   2.711   0.069   2.159  0.3363 -2.0992 -3.1926
  655SOL     OW 1963   0.589   2.907   0.816 -0.4872 -0.2095  0.4511
  655SOL    HW1 1964   0.489   2.894   0.792  2.6438  1.2025 -2.0244
  655SOL    HW2 1965   0.624   2.996   0.775  0.7136  1.5389 -1.3568
  656SOL     OW 1966   0.027   2.893   2.400  0.1998 -0.2790  0.0291
  656SOL    HW1 1967   3.087   2.973   2.347  1.4559 -1.1940 -2.5363
  656SOL    HW2 1968   0.070   2.922   2.488 -1.8745  0.2879  0.8961
  657SOL     OW 1969   2.601   0.884   0.135  0.2180  0.0005 -0.0544
  657SOL    HW1 1970   2.585   0.863   0.034  1.4559 -0.3323  1.8806
  657SOL    HW2 1971   2.683   0.951   0.141  1.3399  2.1128 -0.9686
  658SOL     OW 1972   2.296   2.011   1.179  0.5118  0.1376  0.1553
  658SOL    HW1 1973   2.308   1.953   1.263  1.0055  1.3735  1.6263
  658SOL    HW2 1974   2.370   1.989   1.110 -0.8360 -0.7410  0.7092
  659SOL     OW 1975   1.942   2.587   0.306 -0.0599  0.1944 -0.0442
  659SOL    HW1 1976   2.006   2.617   0.379  0.9462 -0.0717  1.6071
  659SOL    HW2 1977   1.963   2.488   0.289  0.4813 -2.6576 -1.7923
  660SOL     OW 1978   1.676   1.148   2.544  0.1452  0.2552 -0.5219
  660SOL    HW1 1979   1.710   1.235   2.508 -1.1631  1.0416  1.5393
  660SOL    HW2 1980   1.571   1.136   2.527 -3.9359  1.3484  2.2948
  661SOL     OW 1981   2.576   2.296   1.394 -0.7533  0.0811  0.9400
  661SOL    HW1 1982   2.517   2.275   1.315  0.0718 -0.7042  1.1235
  661SOL    HW2 1983   2.626   2.381   1.382 -1.2768 -2.7529  1.8622
  662SOL     OW 1984   0.552   0.779   0.222 -0.3878 -0.4150 -0.5377
  662SOL    HW1 1985   0.462   0.827   0.238 -2.6398  2.7282  1.7704
  662SOL    HW2 1986   0.544   0.686   0.259 -0.2799  0.3151 -2.5954
  663SOL     OW 1987   2.094   2.144   1.085  0.3378 -0.5042 -0.1700
  663SOL    HW1 1988   2.066   2.229   1.140 -1.8639  2.5964  1.3833
  663SOL    HW2 1989   2.175   2.096   1.131 -0.8340  1.0313  0.0874
  664SOL     OW 1990   0.822   1.680   1.188  0.0921  0.2522  0.3834
  664SOL    HW1 1991   0.848   1.604   1.127 -1.2456  0.3608  1.7134
  664SOL    HW2 1992   0.859   1.662   1.279  1.1338 -1.4989 -0.3022
  665SOL     OW 1993   1.721   2.517   1.983 -0.2074 -0.8267 -0.2324
  665SOL    HW1 1994   1.762   2.572   1.910 -0.3524  0.9771 -0.7683
  665SOL    HW2 1995   1.791   2.454   2.027  0.2982  0.8651 -1.4710
  666SOL     OW 1996   2.939   2.661   0.088 -0.1591 -0.6338  0.4094
  666SOL    HW1 1997   2.997   2.739   0.122  0.2847  0.1119 -0.1009
  666SOL    HW2 1998   2.956   2.637   3.081 -0.5316 -4.4741 -0.0429
  667SOL     OW 1999   2.818   1.644   1.906  0.0278  0.4077 -0.2124
  667SOL    HW1 2000   2.760   1.694   1.841 -2.6017 -0.9521  0.7736
  667SOL    HW2 2001   2.800   1.545   1.904 -0.8458 -1.3178  1.3658
  668SOL     OW 2002   0.478   0.829   2.533  0.9133  0.0297 -0.4314
  668SOL    HW1 2003   0.532   0.909   2.498  0.2094  2.1638 -1.4251
  668SOL    HW2 2004   0.539   0.755   2.572 -2.3529  1.5295  0.7132
  669SOL     OW 2005   1.897   2.279   2.978  0.1652  0.2055 -0.1526
  669SOL    HW1 2006   1.996   2.292   2.945  1.5113  0.0992  0.8595
  669SOL    HW2 2007   1.846   2.365   2.950  0.9302  1.1061 -1.6826
  670SOL     OW 2008   2.249   1.609   2.535 -0.2529  0.6415  0.8791
  670SOL    HW1 2009   2.305   1.671   2.590 -1.0815  1.3439  1.6744
  670SOL    HW2 2010   2.304   1.540   2.481 -0.5167  0.5862 -1.6436
  671SOL     OW 2011   0.174   1.660   0.761  0.3346 -0.1313  0.1231
  671SOL    HW1 2012   0.160   1.654   0.658  1.2324 -1.2166 -2.7030
  671SOL    HW2 2013   0.087   1.694   0.800  2.3347  0.0572 -1.4408
  672SOL     OW 2014   2.400   0.644   2.047 -0.4467 -0.0943 -0.3160
  672SOL    HW1 2015   2.343   0.678   2.122 -1.1708 -0.4886  1.3345
  672SOL    HW2 2016   2.466   0.719   2.015  0.8114  1.7761  0.8289
  673SOL     OW 2017   2.526   2.468   2.151 -0.5362  0.0793  0.1254
  673SOL    HW1 2018   2.620   2.497   2.123 -0.0243  2.6112  1.5219
  673SOL    HW2 2019   2.459   2.529   2.110 -1.6887  0.4319  0.5373
  674SOL     OW 2020   1.353   2.607   1.739  0.1554 -0.2190 -0.3460
  674SOL    HW1 2021   1.387   2.519   1.705 -2.6922  0.1241 -2.2955
  674SOL    HW2 2022   1.250   2.597   1.761 -2.9156  1.5687 -0.8594
  675SOL     OW 2023   0.691   0.931   0.826  0.2229 -0.0621 -0.2855
  675SOL    HW1 2024   0.602   0.979   0.812 -0.0849 -3.0713  2.1016
  675SOL    HW2 2025   0.769   1.001   0.817  0.8445  2.1755 -1.9444
  676SOL     OW 2026   1.886   1.106   0.677 -0.5787 -0.1750  0.0373
  676SOL    HW1 2027   1.813   1.032   0.692 -2.6090 -0.3401 -1.4771
  676SOL    HW2 2028   1.974   1.076   0.722  0.0617 -0.9385  1.7326
  677SOL     OW 2029   2.896   1.289   2.637 -0.2068  0.3721 -0.6207
  677SOL    HW1 2030   2.824   1.364   2.643 -0.6338  1.0159  1.2546
  677SOL    HW2 2031   2.868   1.220   2.569 -1.9562  3.5935  3.0666
  678SOL     OW 2032   2.613   1.873   1.208  0.0380  0.5849  0.5968
  678SOL    HW1 2033   2.701   1.867   1.260  0.6481  1.7367  1.7486
  678SOL    HW2 2034   2.541   1.873   1.278  1.6411 -1.2978  0.3909
  679SOL     OW 2035   2.088   2.611   0.557  0.0238 -0.3095 -0.0273
  679SOL    HW1 2036   2.153   2.662   0.622  0.3350 -1.1668  1.9044
  679SOL    HW2 2037   2.066   2.520   0.596 -1.5898  0.1157  1.3781
  680SOL     OW 2038   0.102   2.211   2.077  0.2733  0.1608 -0.7676
  680SOL    HW1 2039   0.083   2.154   1.992  1.9674 -0.3779 -1.3772
  680SOL    HW2 2040   0.190   2.185   2.113 -1.0812  3.2562 -1.5455
  681SOL     OW 2041   3.082   1.301   1.707  0.3807 -0.7378  0.1322
  681SOL    HW1 2042   0.082   1.262   1.727 -0.5524  0.8832  1.4862
  681SOL    HW2 2043   3.083   1.402   1.728  1.9518  1.9361  2.7424
  682SOL     OW 2044   1.239   2.451   0.907  0.3998 -0.0351 -0.2966
  682SOL    HW1 2045   1.155   2.411   0.866 -0.1798  0.0471  0.0824
  682SOL    HW2 2046   1.275   2.532   0.855  1.0751  0.5474 -0.1463
  683SOL     OW 2047   2.222   1.073   1.246  0.5491 -0.4760 -0.4876
  683SOL    HW1 2048   2.164   1.154   1.274 -0.7381  1.5045 -0.0702
  683SOL    HW2 2049   2.312   1.071   1.288 -0.9311 -1.4379 -0.5153
  684SOL     OW 2050   0.540   1.844   2.639 -0.3386  0.6774 -0.7284
  684SOL    HW1 2051   0.643   1.830   2.647  1.9083 -0.5065 -2.7906
  684SOL    HW2 2052   0.511   1.895   2.724 -0.1964  0.7051 -1.7611
  685SOL     OW 2053   1.543   1.491   2.989 -0.7248 -0.2942  1.1341
  685SOL    HW1 2054   1.602   1.515   2.907  0.2160  2.6232 -0.8207
  685SOL    HW2 2055   1.593   1.510   3.073 -1.8112  0.9822 -4.1954
  686SOL     OW 2056   2.941   0.743   1.087 -0.0457 -0.3940 -0.7191
  686SOL    HW1 2057   2.962   0.690   1.173  0.5426  1.9076  0.9707
  686SOL    HW2 2058   3.016   0.738   1.017  3.8365  0.9362 -1.5869
  687SOL     OW 2059   1.052   2.220   2.623  0.0667  0.4879 -0.5900
  687SOL    HW1 2060   1.021   2.315   2.656  0.5639  1.2653  1.8755
  687SOL    HW2 2061   0.978   2.160   2.588  1.4469 -0.6358 -0.2636
  688SOL     OW 2062   0.212   1.837   1.778  0.3737  0.0915 -1.1187
  688SOL    HW1 2063   0.279   1.912   1.761  2.0670  2.2534  0.7860
  688SOL    HW2 2064   0.128   1.867   1.819  2.0617  1.9516  1.4552
  689SOL     OW 2065   1.638   0.818   1.763 -0.2437  0.1233  0.0757
  689SOL    HW1 2066   1.578   0.740   1.797 -2.2971 -0.0108  4.3810
  689SOL    HW2 2067   1.724   0.824   1.813 -0.4241  0.2363 -1.8294
  690SOL     OW 2068   2.369   0.821   1.089 -0.0088  0.3048  0.4062
  690SOL    HW1 2069   2.294   0.753   1.104 -0.4513 -0.6734 -1.0934
  690SOL    HW2 2070   2.332   0.912   1.050  1.0371  0.6656 -0.4581
  691SOL     OW 2071   0.744   1.839   1.578 -0.4853 -0.1261 -0.3876
  691SOL    HW1 2072   0.772   1.754   1.533  2.9086  2.0967  2.9570
  691SOL    HW2 2073   0.816   1.874   1.647  0.7515  0.5988  0.2011
  692SOL     OW 2074   1.912   0.328   1.380 -0.0335  0.0427  0.0961
  692SOL    HW1 2075   1.838   0.287   1.321 -3.2561  2.0171  0.9234
  692SOL    HW2 2076   1.999   0.314   1.327  1.8307 -0.4245 -0.7102
  693SOL     OW 2077   0.297   0.769   2.325 -0.5714  0.0971 -0.3186
  693SOL    HW1 2078   0.362   0.753   2.404 -0.8759  2.8652  2.6244
  693SOL    HW2 2079   0.262   0.864   2.334  4.8688 -0.8730 -1.7216
  694SOL     OW 2080   1.716   0.234   1.175  0.0226 -0.4796 -0.8098
  694SOL    HW1 2081   1.724   0.317   1.118  1.7145 -0.1815  0.7684
  694SOL    HW2 2082   1.653   0.169   1.134  2.0077 -0.0367 -0.1809
  695SOL     OW 2083   1.228   1.232   1.583 -0.4954  0.1878 -0.4918
  695SOL    HW1 2084   1.173   1.297   1.524  1.1686 -2.8997 -1.7234
  695SOL    HW2 2085   1.167   1.156   1.618 -2.7044 -1.1636 -0.5323
  696SOL     OW 2086   1.680   2.969   0.284  0.2793  0.5751  0.6942
  696SOL    HW1 2087   1.605   2.904   0.266 -1.3516 -2.0805  0.8132
  696SOL    HW2 2088   1.641   3.050   0.332 -4.4922  1.3752 -1.7035
  697SOL     OW 2089   0.631   0.339   0.590 -0.2573 -0.0185  0.2240
  697SOL    HW1 2090   0.652   0.411   0.660 -0.1645  1.6828  1.9642
  697SOL    HW2 2091   0.709   0.325   0.527 -0.8418  0.1493 -0.8654
  698SOL     OW 2092   1.398   1.146   2.495  0.4531  0.2525 -0.6809
  698SOL    HW1 2093   1.331   1.204   2.442 -2.9954 -2.0945 -1.7429
  698SOL    HW2 2094   1.365   1.052   2.503  1.0644 -0.6605 -2.8537
  699SOL     OW 2095   1.296   1.318   1.030  0.1092  0.0043  0.2827
  699SOL    HW1 2096   1.293   1.387   1.104 -0.6283  2.6586 -0.1598
  699SOL    HW2 2097   1.382   1.327   0.976  2.0346  2.5707  0.0279
  700SOL     OW 2098   1.528   0.065   0.530  0.4286 -0.1936 -0.0170
  700SOL    HW1 2099   1.555   0.099   0.438 -1.2020 -1.0210 -0.6438
  700SOL    HW2 2100   1.595   0.088   0.601 -1.8772  1.7915 -1.7312
  701SOL     OW 2101   2.811   2.957   2.402 -0.1832  0.3523  0.3983
  701SOL    HW1 2102   2.777   2.871   2.361 -0.0609  1.6505  0.4701
  701SOL    HW2 2103   2.837   2.937   2.499  2.1955  1.0006  2.4674
  702SOL     OW 2104   1.158   0.147   0.102  0.0204  0.2261  0.3629
  702SOL    HW1 2105   1.141   0.245   0.134 -1.1369  0.3376 -1.5308
  702SOL    HW2 2106   1.115   0.133   0.012 -2.1248 -0.2764 -0.6662
  703SOL     OW 2107   2.253   2.842   2.493 -0.5768 -0.3642  0.1720
  703SOL    HW1 2108   2.207   2.905   2.438  1.5898 -1.1334 -0.6439
  703SOL    HW2 2109   2.205   2.832   2.580  0.9219 -0.3221 -3.6166
  704SOL     OW 2110   0.455   2.345   0.774 -0.4032 -0.3410  0.0307
  704SOL    HW1 2111   0.360   2.312   0.754 -0.9563 -1.4506 -1.2081
  704SOL    HW2 2112   0.472   2.340   0.876 -0.2792 -0.8065 -1.3021
  705SOL     OW 2113   2.591   0.017   2.015 -0.3422 -0.0517 -0.4561
  705SOL    HW1 2114   2.630   0.039   1.924 -0.1674 -0.5495  0.3559
  705SOL    HW2 2115   2.490   0.025   2.022  1.4336 -1.2260 -0.1540
  706SOL     OW 2116   1.753   0.268   0.455 -0.0587 -0.4563  0.2450
  706SOL    HW1 2117   1.821   0.192   0.450  1.9900 -3.6659  0.3696
  706SOL    HW2 2118   1.691   0.273   0.374 -1.3772  1.6231  1.4333
  707SOL     OW 2119   1.193   1.955   2.084  0.2224 -0.6230  0.4403
  707SOL    HW1 2120   1.260   2.032   2.071  2.4772  0.3366  2.6954
  707SOL    HW2 2121   1.109   1.994   2.128 -0.2318  1.6442  1.1102
  708SOL     OW 2122   0.211   2.453   1.766  0.8428  0.2957 -0.4043
  708SOL    HW1 2123   0.196   2.468   1.864 -0.3618 -4.2543 -0.5591
  708SOL    HW2 2124   0.135   2.504   1.713  2.4160  1.0031 -0.4461
  709SOL     OW 2125   1.696   0.334   1.974  0.0401  0.1484  0.3856
  709SOL    HW1 2126   1.781   0.279   1.978 -1.3054  0.2516  1.1001
  709SOL    HW2 2127   1.617   0.267   1.961 -1.2035 -2.1615 -0.9614
  710SOL     OW 2128   1.965   0.490   1.849 -0.3831  0.7916 -0.5159
  710SOL    HW1 2129   1.914   0.476   1.761  2.4018 -0.1715 -1.9090
  710SOL    HW2 2130   1.949   0.415   1.914  2.4235 -1.0417  1.5867
  711SOL     OW 2131   0.747   1.819   0.465  0.2771 -0.0515 -0.0713
  711SOL    HW1 2132   0.650   1.800   0.428 -2.9907 -0.8960 -0.9839
  711SOL    HW2 2133   0.817   1.816   0.387 -1.1655  1.0603 -2.6499
  712SOL     OW 2134   0.679   2.593   2.033 -0.8070  0.2381 -0.2552
  712SOL    HW1 2135   0.581   2.565   2.037  0.7655 -0.4387 -0.1171
  712SOL    HW2 2136   0.690   2.671   1.964 -3.3734  1.5887 -1.4058
  713SOL     OW 2137   1.817   1.193   0.241  0.7387  0.5344  0.6913
  713SOL    HW1 2138   1.805   1.122   0.312 -1.3421  2.6578 -0.8009
  713SOL    HW2 2139   1.911   1.233   0.240  1.7273  0.3385  1.0164
  714SOL     OW 2140   0.826   1.949   1.207  0.0214  0.4175  0.0344
  714SOL    HW1 2141   0.813   1.851   1.179  0.8514 -1.1331 -2.7611
  714SOL    HW2 2142   0.801   2.019   1.138 -0.4286  3.0106  0.0014
  715SOL     OW 2143   2.009   2.964   2.850  0.0158  0.3078  0.3279
  715SOL    HW1 2144   2.034   3.028   2.924 -0.3932 -0.1585  0.1764
  715SOL    HW2 2145   1.973   3.017   2.770  3.7864  1.5352  1.8533
  716SOL     OW 2146   2.951   2.858   2.049  0.8003  0.5788 -0.0345
  716SOL    HW1 2147   3.009   2.787   2.007  0.0490  1.3582  0.9320
  716SOL    HW2 2148   2.999   2.897   2.132  1.3389 -1.8952 -1.6332
  717SOL     OW 2149   0.352   1.068   0.231  0.2347 -0.3442 -0.4345
  717SOL    HW1 2150   0.317   0.974   0.250  1.9254 -0.9458 -1.2170
  717SOL    HW2 2151   0.297   1.122   0.160 -2.3503  1.3507 -2.0446
  718SOL     OW 2152   1.310   0.876   2.460 -0.7219 -0.5241  0.0717
  718SOL    HW1 2153   1.245   0.858   2.539  0.9624 -0.1581  0.4998
  718SOL    HW2 2154   1.382   0.805   2.446 -0.3735 -0.2455 -1.0975
  719SOL     OW 2155   2.646   1.338   0.011  0.4249  0.4912  0.2229
  719SOL    HW1 2156   2.607   1.296   0.092  0.9601  1.2093 -0.3805
  719SOL    HW2 2157   2.605   1.425   3.079 -1.6513 -4.6900  0.4197
  720SOL     OW 2158   1.028   0.823   0.988  0.0668  0.2226  0.0075
  720SOL    HW1 2159   1.064   0.726   0.999 -0.8148  0.5440  0.6767
  720SOL    HW2 2160   0.930   0.836   1.012  1.2499 -0.7838  0.7003
  721SOL     OW 2161   2.561   0.663   0.319 -0.7567 -0.7664 -0.2876
  721SOL    HW1 2162   2.466   0.644   0.346  0.6579  1.5048 -1.2589
  721SOL    HW2 2163   2.564   0.718   0.230 -0.3802 -0.4712  0.5820
  722SOL     OW 2164   1.487   0.808   2.911  0.5395 -0.2492 -0.7536
  722SOL    HW1 2165   1.485   0.769   3.007 -0.4418 -2.2595  0.0984
  722SOL    HW2 2166   1.455   0.741   2.844  0.2103  1.2993  2.2194
  723SOL     OW 2167   0.268   1.181   0.472 -0.2102 -0.0199 -0.1533
  723SOL    HW1 2168   0.225   1.272   0.455  1.7135  0.9309  0.6091
  723SOL    HW2 2169   0.296   1.142   0.383 -2.0756 -0.0099  0.9840
  724SOL     OW 2170   0.478   1.613   2.078 -0.0193 -0.0016  0.3439
  724SOL    HW1 2171   0.389   1.597   2.038  1.2449 -3.0818 -0.5652
  724SOL    HW2 2172   0.476   1.671   2.162 -0.1770  0.4691  2.3493
  725SOL     OW 2173   2.031   0.692   1.621 -0.0764 -0.9717 -0.4805
  725SOL    HW1 2174   2.016   0.790   1.604 -1.1626 -1.8262 -2.1969
  725SOL    HW2 2175   2.084   0.663   1.703 -1.0414 -1.3154 -2.7584
  726SOL     OW 2176   1.829   2.753   0.552  0.2800  0.4095 -0.4576
  726SOL    HW1 2177   1.758   2.800   0.492 -3.1523 -0.9019 -1.3183
  726SOL    HW2 2178   1.851   2.660   0.512 -0.8517 -1.5006  0.6024
  727SOL     OW 2179   1.258   1.127   2.067 -0.4809  0.0046  0.4563
  727SOL    HW1 2180   1.346   1.124   2.119  0.0955 -2.1735 -0.2548
  727SOL    HW2 2181   1.266   1.200   1.994  1.6543 -1.7072  1.0767
  728SOL     OW 2182   1.463   2.491   1.083 -0.0226 -0.1919 -0.0301
  728SOL    HW1 2183   1.381   2.450   1.046  3.1518 -1.4827  1.2272
  728SOL    HW2 2184   1.529   2.421   1.120  2.7873 -0.0305  0.4147
  729SOL     OW 2185   1.994   0.922   1.257 -0.0448 -0.3777  0.0544
  729SOL    HW1 2186   2.073   0.980   1.238  1.8063  0.8667 -1.8396
  729SOL    HW2 2187   2.004   0.830   1.209  0.2366 -2.2564 -1.8741
  730SOL     OW 2188   0.506   1.762   2.316 -0.7528 -0.0957 -0.2784
  730SOL    HW1 2189   0.601   1.784   2.282 -2.1828 -1.7987  1.2836
  730SOL    HW2 2190   0.457   1.840   2.353  1.6579  0.0037  0.4136
  731SOL     OW 2191   0.316   0.595   0.602  0.1854  0.2529 -0.2474
  731SOL    HW1 2192   0.296   0.498   0.630  0.3034 -2.9796  0.7768
  731SOL    HW2 2193   0.406   0.631   0.630  0.1651  1.1724 -0.8082
  732SOL     OW 2194   0.870   0.925   0.221 -0.1418 -0.4307 -0.6973
  732SOL    HW1 2195   0.794   0.935   0.158 -1.7692  2.0290 -0.3538
  732SOL    HW2 2196   0.945   0.972   0.178 -1.2204 -1.4945  0.0685
  733SOL     OW 2197   0.711   2.301   0.715  0.4108 -1.0061 -0.3124
  733SOL    HW1 2198   0.701   2.217   0.661 -1.7993 -1.5358  0.7821
  733SOL    HW2 2199   0.618   2.322   0.753  1.8735 -1.4728 -2.0655
  734SOL     OW 2200   0.004   2.048   2.794 -0.7754 -0.5714 -0.6186
  734SOL    HW1 2201   3.070   2.146   2.823  0.9835  3.4268 -0.1174
  734SOL    HW2 2202   3.072   1.976   2.868 -0.8937  3.2859 -1.8398
  735SOL     OW 2203   0.944   0.414   1.308  0.1326 -0.3653 -0.2999
  735SOL    HW1 2204   0.890   0.408   1.395  0.8832 -0.2003  2.1872
  735SOL    HW2 2205   1.038   0.446   1.328 -1.7074  0.1068  0.6289
  736SOL     OW 2206   1.906   2.749   2.975 -0.3097 -0.1448 -0.4645
  736SOL    HW1 2207   1.869   2.792   3.061  2.8839 -0.2471  0.3271
  736SOL    HW2 2208   1.949   2.825   2.915  0.9978  4.1764 -2.2804
  737SOL     OW 2209   0.226   0.355   0.665  0.1582 -0.2261  0.4483
  737SOL    HW1 2210   0.182   0.326   0.576  2.0308 -0.6635  1.4538
  737SOL    HW2 2211   0.156   0.402   0.725  0.0344  1.6921  0.8626
  738SOL     OW 2212   2.318   0.081   0.951  0.0349 -0.2483  0.2662
  738SOL    HW1 2213   2.292   0.169   0.992 -1.0749 -1.2104 -1.3122
  738SOL    HW2 2214   2.414   0.071   0.928 -2.3695  0.8943 -1.1517
  739SOL     OW 2215   1.702   2.446   0.148  0.4304  0.3504 -0.1375
  739SOL    HW1 2216   1.702   2.348   0.178 -2.3907 -1.5382  1.8948
  739SOL    HW2 2217   1.757   2.465   0.067 -0.0170 -0.4326  0.9167
  740SOL     OW 2218   1.431   0.277   0.764 -0.1256  0.8338  0.0874
  740SOL    HW1 2219   1.357   0.202   0.759 -0.0698 -0.0830  0.2060
  740SOL    HW2 2220   1.525   0.234   0.754 -0.5856 -2.0250  0.5609
  741SOL     OW 2221   2.512   0.754   0.871  0.3444 -0.2977  0.1270
  741SOL    HW1 2222   2.460   0.771   0.956  3.6818  0.6739 -0.7937
  741SOL    HW2 2223   2.452   0.717   0.797  0.4226 -0.1110 -2.8279
  742SOL     OW 2224   0.975   2.124   2.128 -0.1196  0.0834 -0.2082
  742SOL    HW1 2225   0.879   2.140   2.164 -1.0549  1.4303 -2.6435
  742SOL    HW2 2226   0.980   2.160   2.032 -0.1230  0.1329 -1.7812
  743SOL     OW 2227   1.850   0.732   1.941 -0.5206 -0.2017  0.5324
  743SOL    HW1 2228   1.883   0.647   1.893 -0.0299  1.4199  0.4646
  743SOL    HW2 2229   1.806   0.708   2.026 -0.9520  0.6615  1.4160
  744SOL     OW 2230   2.190   0.622   1.139  0.1264  0.2862  0.3634
  744SOL    HW1 2231   2.094   0.621   1.106 -0.6148  0.0394 -0.8950
  744SOL    HW2 2232   2.181   0.594   1.235 -1.1670 -2.0726 -3.6660
  745SOL     OW 2233   1.756   1.121   1.640  0.5037  0.2269  0.3269
  745SOL    HW1 2234   1.816   1.039   1.616  2.6056  3.1294 -0.7798
  745SOL    HW2 2235   1.669   1.125   1.588 -0.6668  0.4523  2.3360
  746SOL     OW 2236   1.552   1.341   0.932 -0.0326  0.1065 -0.4862
  746SOL    HW1 2237   1.546   1.345   0.832  0.1098  2.3945 -0.6531
  746SOL    HW2 2238   1.638   1.307   0.970 -1.8567  3.1481 -0.2197
  747SOL     OW 2239   1.762   1.231   1.041 -0.4902  0.2666 -0.1382
  747SOL    HW1 2240   1.854   1.251   1.000 -1.1537 -0.5232 -2.1182
  747SOL    HW2 2241   1.765   1.239   1.140 -0.6436  0.3150 -2.2203
  748SOL     OW 2242   0.222   2.224   0.663 -0.4419 -0.4889 -0.5920
  748SOL    HW1 2243   0.133   2.258   0.696  4.3044 -0.1401  1.4011
  748SOL    HW2 2244   0.223   2.234   0.562  0.2939  3.1385 -2.7668
  749SOL     OW 2245   2.692   2.732   2.319 -0.0870  0.7804 -0.4728
  749SOL    HW1 2246   2.617   2.674   2.361 -1.0168  0.4762 -1.3222
  749SOL    HW2 2247   2.664   2.784   2.235 -0.7850 -0.2636 -0.4655
  750SOL     OW 2248   2.628   0.355   0.969 -0.3857  0.4773  0.2020
  750SOL    HW1 2249   2.591   0.314   0.877 -1.3348 -1.5029 -0.7257
  750SOL    HW2 2250   2.694   0.429   0.952 -1.3536 -0.4265 -4.2205
  751SOL     OW 2251   2.474   0.083   0.352 -0.3582 -0.4859  0.2919
  751SOL    HW1 2252   2.496   3.091   0.302 -1.0667  0.2528 -0.3747
  751SOL    HW2 2253   2.395   0.129   0.311 -0.1120  0.1565  1.0278
  752SOL     OW 2254   0.355   2.823   0.712 -0.0846  0.2697  0.3156
  752SOL    HW1 2255   0.404   2.734   0.683  2.7900  0.2731 -2.8741
  752SOL    HW2 2256   0.307   2.868   0.632 -0.9977  0.4720 -1.4861
  753SOL     OW 2257   1.457   0.634   1.895  0.0476 -0.3678 -0.1589
  753SOL    HW1 2258   1.388   0.679   1.833  1.0032 -1.8888 -0.5341
  753SOL    HW2 2259   1.495   0.551   1.847  1.0515  0.3084 -4.3174
  754SOL     OW 2260   1.748   2.367   1.656  0.4261 -0.0247 -0.1972
  754SOL    HW1 2261   1.818   2.427   1.697 -3.1945  0.0529  1.0641
  754SOL    HW2 2262   1.656   2.412   1.654 -1.4672 -0.5920  1.3565
  755SOL     OW 2263   0.109   0.306   0.415 -0.4086 -0.0075 -0.4070
  755SOL    HW1 2264   0.040   0.352   0.360  0.3657 -2.0218  2.8180
  755SOL    HW2 2265   0.142   0.221   0.368 -0.7095  0.3171  3.4773
  756SOL     OW 2266   1.525   1.693   2.727  0.4576 -0.4225  0.0728
  756SOL    HW1 2267   1.456   1.661   2.659 -1.3054 -0.1734 -0.6787
  756SOL    HW2 2268   1.535   1.795   2.730 -2.1454  1.4831 -0.9944
  757SOL     OW 2269   1.295   0.019   1.058 -0.2048  0.7269  0.3688
  757SOL    HW1 2270   1.272   3.019   1.091  1.9974  0.2476 -1.4241
  757SOL    HW2 2271   1.241   0.034   0.971 -0.8837 -1.1019 -1.4714
  758SOL     OW 2272   0.379   0.131   1.283 -0.3945 -0.4557  0.0378
  758SOL    HW1 2273   0.283   0.135   1.309 -0.9345  1.3973  2.8523
  758SOL    HW2 2274   0.425   0.192   1.347 -1.3955 -0.9628 -3.0397
  759SOL     OW 2275   0.357   0.750   1.195 -0.5206 -0.5161  1.0746
  759SOL    HW1 2276   0.410   0.697   1.125  2.0225 -0.1316 -2.2684
  759SOL    HW2 2277   0.299   0.823   1.153  1.3068 -1.0974  1.9737
  760SOL     OW 2278   2.269   1.055   1.001  0.0456  0.1600  0.3921
  760SOL    HW1 2279   2.340   1.121   0.967  1.4248 -0.8832  0.8397
  760SOL    HW2 2280   2.259   1.070   1.102  2.6242  0.6172 -0.4438
  761SOL     OW 2281   1.218   0.853   0.522 -0.3798  0.0544 -0.4364
  761SOL    HW1 2282   1.145   0.780   0.540 -1.5586  0.3982 -2.7506
  761SOL    HW2 2283   1.170   0.944   0.536 -1.0945  0.3768 -0.3285
  762SOL     OW 2284   2.203   2.326   1.388  0.1800  0.0492  0.0690
  762SOL    HW1 2285   2.102   2.320   1.371  0.4039  1.6597  0.2510
  762SOL    HW2 2286   2.249   2.364   1.307 -0.6367 -1.6240  0.1986
  763SOL     OW 2287   1.600   1.408   1.872 -0.2622  0.0768 -0.1556
  763SOL    HW1 2288   1.685   1.389   1.821  1.9028 -0.6673  0.8051
  763SOL    HW2 2289   1.528   1.340   1.847 -0.9859  0.6005  2.1772
  764SOL     OW 2290   0.100   1.864   2.637 -0.7782  0.0651 -0.2011
  764SOL    HW1 2291   0.047   1.781   2.610  0.9653  2.5993  0.9338
  764SOL    HW2 2292   0.055   1.923   2.708 -2.6272  2.1651  1.8128
  765SOL     OW 2293   0.853   2.645   1.018  0.0328 -0.0163  0.3890
  765SOL    HW1 2294   0.921   2.691   1.073 -0.5890 -2.4834 -0.1633
  765SOL    HW2 2295   0.825   2.708   0.940  1.8142  1.7941 -1.7900
  766SOL     OW 2296   0.809   2.090   2.525  0.0039 -0.0399 -0.2945
  766SOL    HW1 2297   0.792   1.991   2.559 -1.1126 -1.8716  2.0922
  766SOL    HW2 2298   0.729   2.146   2.540  0.6960  0.4494  0.0982
  767SOL     OW 2299   1.767   0.393   2.521  0.2330 -0.4626 -0.0338
  767SOL    HW1 2300   1.835   0.451   2.470 -1.0211  2.7667 -4.1480
  767SOL    HW2 2301   1.803   0.322   2.585  0.6281  0.0891 -2.5901
  768SOL     OW 2302   0.977   2.482   2.651  0.2502  0.4025  0.0155
  768SOL    HW1 2303   1.009   2.515   2.555 -2.8726  1.7045  0.9339
  768SOL    HW2 2304   1.030   2.519   2.728 -1.6798 -0.7259  1.6151
  769SOL     OW 2305   0.006   2.538   1.083 -0.2185 -0.6585  0.6901
  769SOL    HW1 2306   3.066   2.637   1.086 -2.3483  1.0100 -2.8780
  769SOL    HW2 2307   0.084   2.523   1.147 -2.3277 -0.3710  0.4740
  770SOL     OW 2308   0.903   2.775   2.888  0.0589 -0.0432 -0.3886
  770SOL    HW1 2309   0.804   2.750   2.882  0.1571 -1.4442  1.7458
  770SOL    HW2 2310   0.937   2.836   2.813 -0.8643  0.0725  3.1699
  771SOL     OW 2311   1.023   2.503   2.388 -0.1448  0.0898  0.5712
  771SOL    HW1 2312   1.072   2.421   2.345  1.2540 -1.9427 -0.7739
  771SOL    HW2 2313   0.926   2.502   2.351 -0.6140  0.8108  1.9230
  772SOL     OW 2314   2.339   0.021   2.068 -0.0525  0.1634  0.4563
  772SOL    HW1 2315   2.270   0.099   2.060  0.9471  2.7638 -1.4782
  772SOL    HW2 2316   2.301   3.027   2.031 -2.0934  2.0750  2.2114
  773SOL     OW 2317   1.095   2.917   1.847  0.1817 -0.4999 -0.0577
  773SOL    HW1 2318   1.190   2.896   1.864 -0.7243  1.1761  0.6093
  773SOL    HW2 2319   1.032   2.885   1.920 -1.3198  1.7666 -1.0881
  774SOL     OW 2320   1.619   0.686   2.146  0.2934  0.0222 -0.7471
  774SOL    HW1 2321   1.565   0.675   2.063  4.1840 -1.1454  1.5299
  774SOL    HW2 2322   1.642   0.594   2.188  1.1661 -2.3456 -0.5419
  775SOL     OW 2323   2.133   2.930   0.377  0.4054 -0.2927 -0.3595
  775SOL    HW1 2324   2.211   2.949   0.315  2.1917 -5.0733 -2.4410
  775SOL    HW2 2325   2.041   2.914   0.333  0.4815 -0.8994 -2.6301
  776SOL     OW 2326   2.259   0.890   1.902 -1.1111  0.0118 -0.4823
  776SOL    HW1 2327   2.173   0.905   1.954 -0.0530 -0.6196  0.4051
  776SOL    HW2 2328   2.244   0.822   1.826  1.3780  0.4320 -3.2329
  777SOL     OW 2329   2.831   1.127   2.422  0.1057  0.0842  0.0024
  777SOL    HW1 2330   2.905   1.144   2.357  4.4269  1.4603  0.7443
  777SOL    HW2 2331   2.740   1.113   2.378  1.6991  1.3936  0.1972
  778SOL     OW 2332   2.453   0.387   2.010  0.2084 -0.3184  0.3831
  778SOL    HW1 2333   2.442   0.487   2.040 -1.9854  2.8541  0.6809
  778SOL    HW2 2334   2.513   0.369   1.930 -2.1688  0.6910 -0.7498
  779SOL     OW 2335   0.008   3.084   2.928 -0.0102  0.0420  0.2420
  779SOL    HW1 2336   0.062   0.065   2.881 -0.4251  2.0967 -0.1191
  779SOL    HW2 2337   0.054   2.995   2.949 -0.4509 -0.7106 -0.3165
  780SOL     OW 2338   2.005   0.167   2.336 -0.1172  0.1473 -0.2545
  780SOL    HW1 2339   1.931   0.099   2.345  0.3625 -0.2608 -0.5233
  780SOL    HW2 2340   2.010   0.184   2.239  1.3457 -1.3455  3.6102
  781SOL     OW 2341   0.056   0.764   1.599 -0.6938 -0.0635 -0.1084
  781SOL    HW1 2342   0.050   0.830   1.522  0.3655  0.5324  0.4559
  781SOL    HW2 2343   0.096   0.810   1.680 -1.9887  0.7224  0.7043
  782SOL     OW 2344   2.077   2.159   0.462 -0.3796  0.2334 -0.1351
  782SOL    HW1 2345   2.175   2.143   0.434 -1.6902 -0.2440 -1.1256
  782SOL    HW2 2346   2.064   2.239   0.527  0.2400  3.1555  0.4987
  783SOL     OW 2347   0.475   1.879   1.232 -0.2484 -0.3611 -0.1367
  783SOL    HW1 2348   0.431   1.907   1.147 -0.2984 -0.1371  2.1544
  783SOL    HW2 2349   0.578   1.879   1.225  2.1495  1.7167 -0.3437
  784SOL     OW 2350   2.170   0.469   2.217  0.7854 -0.1122  0.9272
  784SOL    HW1 2351   2.252   0.417   2.250 -1.7544  1.0149  0.3086
  784SOL    HW2 2352   2.181   0.571   2.217  0.7089  0.9695  1.5611
  785SOL     OW 2353   0.225   0.385   1.040  0.4679 -0.6443  0.1025
  785SOL    HW1 2354   0.155   0.429   0.977  1.1037  3.1983 -0.9677
  785SOL    HW2 2355   0.203   0.394   1.139 -1.4540  0.1070  1.3845
  786SOL     OW 2356   1.877   2.853   0.152 -0.2393 -0.2958 -0.1791
  786SOL    HW1 2357   1.792   2.910   0.169 -0.1419 -0.3464 -2.2736
  786SOL    HW2 2358   1.883   2.766   0.201 -0.7071  3.1655 -0.8047
  787SOL     OW 2359   1.249   0.099   0.733  0.7517 -0.4182  0.2624
  787SOL    HW1 2360   1.248   3.090   0.736 -0.7314 -0.4358  0.5301
  787SOL    HW2 2361   1.155   0.140   0.712 -0.6774  0.3679 -2.2057
  788SOL     OW 2362   3.069   1.594   1.121  0.0735  0.1322 -0.0596
  788SOL    HW1 2363   3.054   1.662   1.048 -1.1667 -2.9925  1.3227
  788SOL    HW2 2364   0.066   1.541   1.118 -0.1268 -1.3974  1.4932
  789SOL     OW 2365   2.843   0.544   2.116  0.1165 -0.0355 -0.4787
  789SOL    HW1 2366   2.836   0.467   2.189 -1.9117 -0.9665  2.0574
  789SOL    HW2 2367   2.798   0.629   2.149  1.4701 -1.3572 -1.8146
  790SOL     OW 2368   0.908   0.493   3.031  0.4618 -0.5763  0.0585
  790SOL    HW1 2369   0.857   0.441   2.960 -0.1944  2.9396  0.0539
  790SOL    HW2 2370   1.006   0.511   3.009 -4.4224 -1.0148 -0.4898
  791SOL     OW 2371   2.441   0.029   3.005  0.1815  0.1534  0.2706
  791SOL    HW1 2372   2.536   0.064   2.998 -0.2074 -2.5691 -0.6190
  791SOL    HW2 2373   2.428   3.070   3.090  1.1322 -1.4347  0.2599
  792SOL     OW 2374   1.035   0.849   1.436 -0.0260  0.6427 -0.2928
  792SOL    HW1 2375   1.080   0.773   1.387  1.4603  0.1797  0.2345
  792SOL    HW2 2376   0.937   0.853   1.412  0.1947 -2.5862 -0.0169
  793SOL     OW 2377   2.834   0.143   1.522  0.5369 -0.2628  0.3974
  793SOL    HW1 2378   2.890   0.193   1.589  0.9335  0.8365  0.5889
  793SOL    HW2 2379   2.801   0.216   1.447 -2.1790  3.5773 -2.8686
  794SOL     OW 2380   3.012   0.008   2.260  0.2780 -0.7354  0.0261
  794SOL    HW1 2381   2.918   3.087   2.295  0.8782 -1.5108 -0.5676
  794SOL    HW2 2382   3.046   0.104   2.262  0.1998 -1.9348 -2.3370
  795SOL     OW 2383   0.448   1.987   2.869  0.7228  0.0804 -0.1204
  795SOL    HW1 2384   0.482   2.079   2.893 -0.4637 -2.0489  0.0569
  795SOL    HW2 2385   0.447   1.919   2.943 -0.2651 -0.1789 -1.3476
  796SOL     OW 2386   2.082   0.557   2.656  0.2284  0.1402 -1.1318
  796SOL    HW1 2387   2.039   0.533   2.567  0.7929  1.1833 -0.0814
  796SOL    HW2 2388   2.009   0.589   2.718 -0.5431 -2.1564 -3.3634
  797SOL     OW 2389   2.290   2.210   0.035  0.1733 -0.0578 -0.2879
  797SOL    HW1 2390   2.388   2.241   0.025 -0.0162  2.1934  1.5575
  797SOL    HW2 2391   2.224   2.245   3.055 -2.8965 -0.4600 -0.2409
  798SOL     OW 2392   3.042   0.624   1.305 -0.3071 -0.3621 -0.1849
  798SOL    HW1 2393   3.039   0.710   1.360  1.1953 -0.1382 -1.2143
  798SOL    HW2 2394   0.046   0.586   1.309  1.0698  0.5186 -1.2248
  799SOL     OW 2395   0.242   0.115   1.748  0.0793 -0.2027 -0.4165
  799SOL    HW1 2396   0.340   0.130   1.732  0.0181  1.2271 -0.9656
  799SOL    HW2 2397   0.226   0.099   1.847 -0.2567 -2.8902 -2.0172
  800SOL     OW 2398   0.107   1.965   0.092 -0.4953  0.0480  0.1343
  800SOL    HW1 2399   0.079   1.885   0.145  2.1344 -0.2419 -0.8378
  800SOL    HW2 2400   0.210   1.975   0.094 -1.8273 -1.9747  1.4298
  801SOL     OW 2401   1.528   1.639   0.862  0.1674  0.3141  0.2853
  801SOL    HW1 2402   1.451   1.700   0.890  0.8235  1.5587 -2.5293
  801SOL    HW2 2403   1.527   1.558   0.925 -0.0423 -1.9420  2.0569
  802SOL     OW 2404   0.837   0.627   0.283  0.4958  0.2225  0.8155
  802SOL    HW1 2405   0.734   0.618   0.278 -1.8079 -1.1357 -2.4373
  802SOL    HW2 2406   0.867   0.720   0.253  2.3958 -2.4388  0.6769
  803SOL     OW 2407   1.193   1.485   1.849 -0.0180 -0.0046  0.4761
  803SOL    HW1 2408   1.143   1.578   1.846 -1.6574 -0.0900  2.1617
  803SOL    HW2 2409   1.186   1.440   1.763  3.0646  0.3988 -1.0665
  804SOL     OW 2410   1.784   2.078   1.197 -0.2918  0.2428  0.0316
  804SOL    HW1 2411   1.766   1.978   1.208  0.2311 -3.2007 -1.2394
  804SOL    HW2 2412   1.808   2.090   1.100  0.2634  1.3234  0.1199
  805SOL     OW 2413   0.085   2.301   2.487 -0.5977 -0.1590  0.1983
  805SOL    HW1 2414   0.038   2.213   2.504  0.7262  2.5956  0.5919
  805SOL    HW2 2415   0.186   2.293   2.473 -0.1107  2.3317 -3.6267
  806SOL     OW 2416   1.111   2.841   0.185 -0.4303  0.4771 -0.1806
  806SOL    HW1 2417   1.148   2.887   0.103  1.2128 -1.2377  1.3130
  806SOL    HW2 2418   1.074   2.907   0.254  0.2336  1.2215 -1.0484
  807SOL     OW 2419   2.480   0.869   2.974 -0.0885 -0.2951  0.5189
  807SOL    HW1 2420   2.508   0.948   2.914  1.2933  2.8016  1.4531
  807SOL    HW2 2421   2.533   0.790   2.943  1.3589 -1.0915 -1.5178
  808SOL     OW 2422   1.484   2.004   0.924  0.3645  0.6276  0.5957
  808SOL    HW1 2423   1.582   2.008   0.949  3.2276  1.3444 -1.7962
  808SOL    HW2 2424   1.465   2.024   0.825  0.2256 -0.0599  2.7707
  809SOL     OW 2425   0.373   0.121   0.631  0.0680 -0.1128 -0.1938
  809SOL    HW1 2426   0.323   0.210   0.658  0.0969  2.3038 -1.1152
  809SOL    HW2 2427   0.448   0.102   0.696  1.5915 -1.1225 -0.6038
  810SOL     OW 2428   1.490   1.377   0.369 -0.0592  0.6599 -0.3416
  810SOL    HW1 2429   1.434   1.404   0.283  0.2682 -1.2167 -1.8652
  810SOL    HW2 2430   1.585   1.425   0.374  3.3289 -0.3860 -1.3539
  811SOL     OW 2431   1.412   2.767   1.070 -0.4976  0.0736 -0.0443
  811SOL    HW1 2432   1.440   2.668   1.075 -2.4188  0.7042  0.9281
  811SOL    HW2 2433   1.313   2.784   1.098  0.5981 -0.3638 -1.9764
  812SOL     OW 2434   0.993   0.251   0.744  0.1186 -0.0874  0.3728
  812SOL    HW1 2435   1.034   0.312   0.814 -0.4248  0.8136 -1.3089
  812SOL    HW2 2436   0.924   0.189   0.785 -0.3204 -1.7621  0.0523
  813SOL     OW 2437   1.281   0.053   2.280  0.3673  0.1106  0.3448
  813SOL    HW1 2438   1.252   3.056   2.242  0.7350  1.8633  0.5383
  813SOL    HW2 2439   1.304   0.111   2.203 -0.1591 -1.4158 -0.2402
  814SOL     OW 2440   1.147   2.900   1.143  0.3917  0.1483  0.0172
  814SOL    HW1 2441   1.108   2.857   1.227 -1.1740 -0.5992  1.8974
  814SOL    HW2 2442   1.074   2.896   1.068 -2.8680 -0.9408 -2.4988
  815SOL     OW 2443   0.112   2.498   0.218 -0.1295  0.0467 -0.6092
  815SOL    HW1 2444   0.138   2.561   0.140 -0.2153 -0.4910  0.9449
  815SOL    HW2 2445   0.038   2.541   0.275 -0.8844 -2.0738  0.1191
  816SOL     OW 2446   2.122   1.126   2.761  0.1607 -0.2416  0.3824
  816SOL    HW1 2447   2.148   1.076   2.846  2.5150 -0.7292  0.2939
  816SOL    HW2 2448   2.019   1.112   2.745 -0.3231  1.4274  1.1747
  817SOL     OW 2449   1.921   2.248   2.373 -0.2129  0.6059 -0.0678
  817SOL    HW1 2450   1.851   2.256   2.442  1.4183 -0.6082 -2.4494
  817SOL    HW2 2451   2.007   2.288   2.412  3.0739  0.1689  0.4079
  818SOL     OW 2452   1.074   1.002   3.064  0.6068 -0.0020 -0.3191
  818SOL    HW1 2453   1.071   1.089   3.022  1.5901 -3.6980  2.9832
  818SOL    HW2 2454   1.133   1.003   0.052 -3.0258  1.4091 -0.9937
  819SOL     OW 2455   1.721   1.553   0.076 -0.6439 -0.2551 -0.3812
  819SOL    HW1 2456   1.812   1.550   0.036 -2.6031  0.0976  1.8157
  819SOL    HW2 2457   1.731   1.507   0.168  2.0035 -0.0617 -1.8729
  820SOL     OW 2458   0.448   0.836   0.516  0.7019 -0.4363 -0.5314
  820SOL    HW1 2459   0.519   0.911   0.509 -0.5157 -1.1714  1.6739
  820SOL    HW2 2460   0.411   0.809   0.423 -1.3084  0.7063 -0.3692
  821SOL     OW 2461   0.438   2.844   1.295  0.0086  0.5227  0.5579
  821SOL    HW1 2462   0.351   2.893   1.275 -3.5436 -0.7398 -1.3342
  821SOL    HW2 2463   0.499   2.848   1.215 -1.1983  0.7745  1.7130
  822SOL     OW 2464   2.005   2.222   2.654  0.1758  0.2951 -0.6753
  822SOL    HW1 2465   2.034   2.315   2.691 -0.0508  1.1344  0.0932
  822SOL    HW2 2466   1.902   2.217   2.634 -1.1698  2.2102 -2.4804
  823SOL     OW 2467   0.624   0.601   1.958 -0.5114  0.0534  0.4296
  823SOL    HW1 2468   0.698   0.664   1.987 -2.0629  2.0821  0.0200
  823SOL    HW2 2469   0.559   0.603   2.034  0.6656 -0.6472 -3.0655
  824SOL     OW 2470   2.429   0.097   1.526 -0.5614 -0.2114 -0.2837
  824SOL    HW1 2471   2.415   0.197   1.508 -1.4799 -1.4281 -0.4873
  824SOL    HW2 2472   2.346   0.044   1.515 -1.4492  1.1606  3.4621
  825SOL     OW 2473   0.310   1.378   2.519  0.2719 -0.5219  0.5132
  825SOL    HW1 2474   0.289   1.470   2.548 -1.0411  3.1774 -1.0201
  825SOL    HW2 2475   0.409   1.359   2.550  0.1189  0.5223 -1.0454
  826SOL     OW 2476   1.708   0.501   2.955 -0.0990  0.5888 -0.1657
  826SOL    HW1 2477   1.700   0.557   2.869  0.1456  1.3896  1.8684
  826SOL    HW2 2478   1.671   0.411   2.929  0.5688 -0.1827 -0.6037
  827SOL     OW 2479   0.755   2.475   2.265 -0.3518 -0.0589 -0.6096
  827SOL    HW1 2480   0.739   2.541   2.185 -0.7580 -0.1896 -0.0843
  827SOL    HW2 2481   0.756   2.377   2.235  0.8233  0.0444  0.1846
  828SOL     OW 2482   3.035   3.038   1.566 -0.1350  0.0166  0.1030
  828SOL    HW1 2483   3.027   3.013   1.661 -0.0272 -0.9552 -1.7473
  828SOL    HW2 2484   2.947   3.078   1.529 -0.1950 -1.0071 -0.4608
  829SOL     OW 2485   1.534   1.621   1.698  0.1569  0.1684  0.1365
  829SOL    HW1 2486   1.519   1.542   1.757 -0.1216 -0.0463  0.7701
  829SOL    HW2 2487   1.606   1.601   1.630  0.7107  0.5973  0.6213
  830SOL     OW 2488   0.758   1.040   1.714  0.4972 -0.5244 -0.2310
  830SOL    HW1 2489   0.692   0.969   1.687 -0.1586  0.4594  2.1399
  830SOL    HW2 2490   0.718   1.096   1.792  3.4302 -1.3009  0.7206
  831SOL     OW 2491   2.812   1.707   0.417  0.7938 -0.5515  0.5927
  831SOL    HW1 2492   2.725   1.739   0.376 -1.3570  3.2035 -1.2436
  831SOL    HW2 2493   2.887   1.756   0.370  2.7799  1.5889  1.1441
  832SOL     OW 2494   1.267   2.634   0.290 -0.2546 -0.3994  0.7391
  832SOL    HW1 2495   1.201   2.689   0.236 -0.4542 -0.8147  0.4268
  832SOL    HW2 2496   1.230   2.551   0.342  1.0706 -2.2738 -0.2653
  833SOL     OW 2497   2.954   0.254   1.762 -0.6431  0.1576 -0.0050
  833SOL    HW1 2498   3.053   0.286   1.758 -1.7804  1.7091  1.2236
  833SOL    HW2 2499   2.898   0.335   1.784 -0.4606  0.3723 -0.7484
  834SOL     OW 2500   0.086   0.746   0.942 -0.5123  0.0523 -0.4036
  834SOL    HW1 2501   0.135   0.810   0.997  1.0129  2.7125 -0.8476
  834SOL    HW2 2502   0.125   0.758   0.847  1.7643 -1.6462 -2.1485
  835SOL     OW 2503   2.762   3.065   0.708  0.3968 -0.4467  0.0599
  835SOL    HW1 2504   2.846   0.032   0.723  1.8005 -0.0508  3.0295
  835SOL    HW2 2505   2.770   2.976   0.763  1.2627 -0.2557  1.8343
  836SOL     OW 2506   1.135   1.893   2.880  0.3303 -0.2531  0.3915
  836SOL    HW1 2507   1.065   1.837   2.923 -1.7521  2.8225  0.1997
  836SOL    HW2 2508   1.107   1.893   2.777 -0.8264  0.0447 -2.6988
  837SOL     OW 2509   1.605   1.803   0.046 -0.6975  0.2144  0.3119
  837SOL    HW1 2510   1.643   1.710   0.068  0.7010 -0.7561 -0.9534
  837SOL    HW2 2511   1.529   1.800   3.072  0.5125  2.2142 -0.6872
  838SOL     OW 2512   2.638   0.744   2.461  0.3740  0.9229 -0.5837
  838SOL    HW1 2513   2.700   0.795   2.521  0.6554  1.1741 -0.6453
  838SOL    HW2 2514   2.548   0.743   2.505  2.5228 -2.1090 -1.2014
  839SOL     OW 2515   0.606   1.021   2.419 -0.4501 -0.3680  0.4206
  839SOL    HW1 2516   0.620   1.115   2.387  0.2718 -0.9295 -1.1099
  839SOL    HW2 2517   0.695   0.972   2.422  1.5083  1.2633 -0.4272
  840SOL     OW 2518   0.995   0.809   2.882  0.3771 -0.2261  0.2251
  840SOL    HW1 2519   1.026   0.877   2.953 -0.6130  1.7244  3.4756
  840SOL    HW2 2520   1.033   0.718   2.907 -0.0310  0.7366  1.6076
  841SOL     OW 2521   0.746   2.552   0.565  0.3807  0.1717 -0.8896
  841SOL    HW1 2522   0.812   2.549   0.488 -1.4468  2.1289  2.0606
  841SOL    HW2 2523   0.746   2.468   0.624 -1.5888 -2.3775  1.6955
  842SOL     OW 2524   0.599   0.714   0.696  0.2145  0.5989 -0.1327
  842SOL    HW1 2525   0.670   0.778   0.731  0.1146  1.2314 -0.6378
  842SOL    HW2 2526   0.565   0.744   0.603 -0.0248  0.1597 -0.7070
  843SOL     OW 2527   0.251   1.213   1.292  0.1824  0.4428  0.0562
  843SOL    HW1 2528   0.323   1.176   1.229 -1.9081 -0.7152  1.8328
  843SOL    HW2 2529   0.171   1.148   1.296  1.6137  0.4628  1.5109
  844SOL     OW 2530   2.138   2.565   2.690  0.3323 -0.6689  0.4140
  844SOL    HW1 2531   2.160   2.656   2.732  0.0694  0.5072 -1.0949
  844SOL    HW2 2532   2.214   2.494   2.709 -2.5483  0.9046 -0.0304
  845SOL     OW 2533   2.176   3.035   1.512 -0.5793  0.3959  0.0101
  845SOL    HW1 2534   2.122   3.062   1.436  2.1463 -1.3238 -0.1506
  845SOL    HW2 2535   2.157   2.938   1.534 -1.1589  0.2991  0.9627
  846SOL     OW 2536   1.969   0.806   2.431 -0.2738 -0.0691  0.0264
  846SOL    HW1 2537   1.938   0.889   2.381 -3.9740 -0.0877  0.4025
  846SOL    HW2 2538   2.065   0.818   2.465  0.6016 -0.6036 -1.4434
  847SOL     OW 2539   2.259   2.888   1.955  0.8143 -0.1107  0.4557
  847SOL    HW1 2540   2.161   2.850   1.964 -1.4872  1.3798 -0.8828
  847SOL    HW2 2541   2.328   2.832   2.004  3.2521  1.9946  0.0525
  848SOL     OW 2542   3.074   2.887   0.177 -0.5491  0.1967 -0.6794
  848SOL    HW1 2543   0.073   2.884   0.231  1.2457  1.7236  2.0175
  848SOL    HW2 2544   0.013   2.881   0.081  2.0654  2.1565  0.5658
  849SOL     OW 2545   0.217   2.981   1.202  1.1175 -0.1720  1.0221
  849SOL    HW1 2546   0.225   2.953   1.103 -0.6572  0.3006 -0.4338
  849SOL    HW2 2547   0.247   3.073   1.218 -0.6688 -4.2503  0.0522
  850SOL     OW 2548   0.363   2.011   0.462  0.4658 -0.8263  0.3010
  850SOL    HW1 2549   0.426   2.087   0.478 -1.8982 -0.5177  0.0069
  850SOL    HW2 2550   0.419   1.937   0.421  0.9354 -2.2012 -0.5448
  851SOL     OW 2551   2.199   0.671   3.016 -0.6055 -0.0012 -0.6458
  851SOL    HW1 2552   2.122   0.610   3.036 -0.1367 -1.2688  1.2999
  851SOL    HW2 2553   2.252   0.673   0.011  0.1143 -0.1388 -0.8245
  852SOL     OW 2554   1.751   2.173   2.593 -0.3108  0.0299 -0.3105
  852SOL    HW1 2555   1.743   2.077   2.567  0.1813 -1.3658 -0.5164
  852SOL    HW2 2556   1.718   2.186   2.689  0.1854 -0.9986  1.9289
  853SOL     OW 2557   0.487   1.818   0.305 -0.2508  0.5267  0.1138
  853SOL    HW1 2558   0.435   1.869   0.236  3.6925 -1.2031  2.7862
  853SOL    HW2 2559   0.452   1.726   0.324 -0.3900 -0.8427 -2.8658
  854SOL     OW 2560   1.660   0.950   2.132 -0.4929 -0.5838 -0.0202
  854SOL    HW1 2561   1.645   0.850   2.153 -1.3620 -0.4406 -0.4247
  854SOL    HW2 2562   1.759   0.981   2.137  3.8785  0.7124 -1.0457
  855SOL     OW 2563   0.442   2.553   2.982  0.1876 -1.6793  0.1883
  855SOL    HW1 2564   0.527   2.532   3.031 -1.9886 -0.7313  0.4200
  855SOL    HW2 2565   0.395   2.470   2.954 -0.9105  1.0920  1.2377
  856SOL     OW 2566   0.420   2.805   2.195  0.0794 -0.1173 -0.1403
  856SOL    HW1 2567   0.418   2.719   2.140 -1.5648 -0.8294 -1.3481
  856SOL    HW2 2568   0.512   2.843   2.214  1.3891  5.0778  3.0661
  857SOL     OW 2569   0.716   0.388   1.798 -0.2188 -0.0110  0.1687
  857SOL    HW1 2570   0.724   0.489   1.806 -2.7673  0.3101  3.1080
  857SOL    HW2 2571   0.725   0.347   1.888 -1.9359 -1.2474  0.3674
  858SOL     OW 2572   0.437   1.956   1.997  0.3053  0.0339  0.2459
  858SOL    HW1 2573   0.522   1.908   2.013 -0.7915 -0.5704  1.0101
  858SOL    HW2 2574   0.427   1.959   1.896 -0.2170 -0.9650  0.7308
  859SOL     OW 2575   2.114   2.496   1.578  0.3287 -0.1479 -0.6368
  859SOL    HW1 2576   2.173   2.434   1.521 -0.8049  0.0343 -0.7744
  859SOL    HW2 2577   2.156   2.587   1.577  0.1282 -0.5690 -1.5219
  860SOL     OW 2578   1.545   0.617   0.414  0.3653 -0.0498 -0.2672
  860SOL    HW1 2579   1.497   0.574   0.495 -0.2229 -2.3599  1.6349
  860SOL    HW2 2580   1.569   0.714   0.441 -0.6999  1.4974  1.8167
  861SOL     OW 2581   0.056   0.490   0.849  0.4551 -0.2360 -0.5258
  861SOL    HW1 2582   0.079   0.579   0.899 -0.6807  2.5189 -2.4253
  861SOL    HW2 2583   3.059   0.507   0.802  1.5644  0.6423  0.0641
  862SOL     OW 2584   1.945   0.955   1.530  0.1532 -0.2309 -0.2336
  862SOL    HW1 2585   1.867   0.888   1.516  0.4025 -0.0129 -0.1937
  862SOL    HW2 2586   1.999   0.967   1.445  1.2294 -2.0268  1.2447
  863SOL     OW 2587   0.401   1.422   1.357  0.1798  0.4751 -0.4615
  863SOL    HW1 2588   0.343   1.333   1.362 -3.0747  1.8545  2.1824
  863SOL    HW2 2589   0.479   1.412   1.293 -1.3172 -1.0631 -0.6152
  864SOL     OW 2590   2.684   2.860   2.075  0.3473  0.0575 -0.5060
  864SOL    HW1 2591   2.784   2.832   2.056 -1.9649  1.0811  0.4184
  864SOL    HW2 2592   2.681   2.965   2.056 -1.2184  3.8077 -0.8431
  865SOL     OW 2593   1.084   0.594   2.137 -0.7401 -0.0519  0.1924
  865SOL    HW1 2594   1.136   0.670   2.178 -2.5182 -0.9945 -0.2737
  865SOL    HW2 2595   1.141   0.539   2.071 -1.9302  4.7137 -2.2883
  866SOL     OW 2596   2.499   2.853   0.583 -0.5142 -0.6568 -0.2222
  866SOL    HW1 2597   2.436   2.921   0.630 -1.5533 -0.4092  1.1404
  866SOL    HW2 2598   2.552   2.886   0.506 -1.5341 -0.2395  0.3270
  867SOL     OW 2599   2.808   2.863   0.860 -0.2356 -0.2935 -0.0382
  867SOL    HW1 2600   2.783   2.766   0.830 -2.0291  2.5155  0.6022
  867SOL    HW2 2601   2.912   2.883   0.856  1.7689  2.9333  1.4537
  868SOL     OW 2602   1.742   1.534   2.800 -0.3219  0.8530 -0.1083
  868SOL    HW1 2603   1.775   1.623   2.842  1.2059 -1.5718 -0.1866
  868SOL    HW2 2604   1.669   1.561   2.732 -0.5844  0.6178 -1.2541
  869SOL     OW 2605   2.769   2.629   0.754 -0.4062  0.4326 -0.4774
  869SOL    HW1 2606   2.787   2.631   0.652 -2.0733 -2.5284 -0.6116
  869SOL    HW2 2607   2.700   2.561   0.779  2.0826 -2.0291  4.1178
  870SOL     OW 2608   2.732   2.117   0.462  0.2049  0.6629  0.3733
  870SOL    HW1 2609   2.654   2.121   0.524  1.9708 -1.9868 -1.4195
  870SOL    HW2 2610   2.806   2.072   0.515 -0.2678 -0.3750 -1.8961
  871SOL     OW 2611   0.187   1.432   1.134  0.1837 -0.0232  0.1964
  871SOL    HW1 2612   0.193   1.382   1.221 -1.0981 -0.6487 -1.4756
  871SOL    HW2 2613   0.183   1.373   1.053  2.8527 -4.7141  2.2038
  872SOL     OW 2614   1.099   1.722   2.415  0.6894 -0.1290 -0.5642
  872SOL    HW1 2615   1.011   1.674   2.393 -1.9020 -0.0460 -0.0653
  872SOL    HW2 2616   1.174   1.720   2.345  0.8390  0.4446  3.4177
  873SOL     OW 2617   0.578   2.788   1.866  0.7579  0.1385 -0.4256
  873SOL    HW1 2618   0.591   2.869   1.925 -1.1761  2.4066 -1.9588
  873SOL    HW2 2619   0.619   2.802   1.775 -1.3014 -0.2351  1.0422
  874SOL     OW 2620   0.759   0.280   1.542 -0.3186  0.4328  0.1188
  874SOL    HW1 2621   0.767   0.302   1.642 -0.7672 -0.2914  1.3951
  874SOL    HW2 2622   0.798   0.188   1.516 -3.3828  0.6557 -4.0506
  875SOL     OW 2623   3.024   0.127   1.082 -0.4462  0.3198  0.2060
  875SOL    HW1 2624   3.019   0.189   1.162  0.6524 -2.1976  1.4251
  875SOL    HW2 2625   2.931   0.108   1.045  0.3508  0.3261 -0.0288
  876SOL     OW 2626   0.582   1.204   0.306 -0.2051 -0.4748  0.0887
  876SOL    HW1 2627   0.504   1.149   0.268  1.0679  0.0711  2.7766
  876SOL    HW2 2628   0.635   1.256   0.231  3.4639  1.5058 -0.4737
  877SOL     OW 2629   1.047   1.000   1.665  0.3982 -0.8452  0.4107
  877SOL    HW1 2630   1.046   0.924   1.597 -0.0229  0.3884 -0.6218
  877SOL    HW2 2631   0.953   1.012   1.696  3.1788 -0.8018 -2.0440
  878SOL     OW 2632   2.464   2.341   0.426 -0.5869 -0.4009 -0.7431
  878SOL    HW1 2633   2.437   2.245   0.414  2.0396  2.3316 -1.1387
  878SOL    HW2 2634   2.486   2.388   0.337  0.4583 -2.5164  3.4453
  879SOL     OW 2635   2.601   1.798   1.718  0.2395  0.2920 -0.2625
  879SOL    HW1 2636   2.626   1.825   1.623 -0.5858  0.5266  1.0361
  879SOL    HW2 2637   2.584   1.880   1.775  0.7784  2.2095 -2.0819
  880SOL     OW 2638   1.070   2.649   0.690  0.0096 -0.0251  0.8443
  880SOL    HW1 2639   1.010   2.578   0.731 -0.5505 -0.6858  0.7688
  880SOL    HW2 2640   1.146   2.678   0.745 -3.1283 -0.1546 -4.0706
  881SOL     OW 2641   0.529   2.279   0.356 -0.2616 -0.2711  0.6285
  881SOL    HW1 2642   0.529   2.247   0.261 -0.6948 -0.9468  1.6164
  881SOL    HW2 2643   0.438   2.312   0.388  0.4404  0.8517 -2.2036
  882SOL     OW 2644   1.807   0.665   0.688 -0.2237  0.4286  0.3163
  882SOL    HW1 2645   1.783   0.763   0.699  1.7486 -0.1102 -1.9218
  882SOL    HW2 2646   1.903   0.650   0.714 -2.2520  0.8375  0.1941
  883SOL     OW 2647   1.267   0.927   1.033  0.0840 -0.1267  0.0907
  883SOL    HW1 2648   1.166   0.921   1.014 -4.2648  1.6895  1.4528
  883SOL    HW2 2649   1.325   0.956   0.954  2.0851 -0.8563  0.4836
  884SOL     OW 2650   2.852   2.908   0.346 -0.5858 -0.0563 -0.4401
  884SOL    HW1 2651   2.933   2.881   0.291  3.8410  2.9809  2.0300
  884SOL    HW2 2652   2.880   2.990   0.395 -2.0066 -1.5113 -0.4308
  885SOL     OW 2653   1.010   1.393   2.564 -0.3667  0.2320 -0.6525
  885SOL    HW1 2654   1.086   1.372   2.635  2.5624  2.4486  0.6104
  885SOL    HW2 2655   1.045   1.362   2.474  1.1628  0.0334 -1.1213
  886SOL     OW 2656   1.324   2.080   2.590  1.0015  0.3509  0.6364
  886SOL    HW1 2657   1.235   2.032   2.593  0.1104  1.6828 -0.9820
  886SOL    HW2 2658   1.318   2.181   2.570  2.6610  1.8848  0.0638
  887SOL     OW 2659   1.239   0.386   1.192 -0.5869  0.0107  0.1552
  887SOL    HW1 2660   1.296   0.410   1.107 -0.2994  2.2040 -0.6669
  887SOL    HW2 2661   1.223   0.469   1.248 -1.4056 -2.0641  0.1707
  888SOL     OW 2662   2.196   0.620   1.838  0.0610  0.9831  0.2601
  888SOL    HW1 2663   2.239   0.654   1.923 -1.5607 -0.1406 -2.5294
  888SOL    HW2 2664   2.121   0.550   1.856  0.5276 -1.8520  2.0396
  889SOL     OW 2665   0.161   2.555   0.654  0.4832 -0.3335 -0.3441
  889SOL    HW1 2666   0.239   2.597   0.707  2.6410  1.0440 -0.5359
  889SOL    HW2 2667   0.074   2.569   0.709 -0.9656  0.1511 -1.3908
  890SOL     OW 2668   1.685   2.023   0.673  0.2789  0.1612 -0.8077
  890SOL    HW1 2669   1.784   2.018   0.647  3.2394 -1.2468 -1.1305
  890SOL    HW2 2670   1.632   2.018   0.587  0.7433  0.7215 -0.6064
  891SOL     OW 2671   0.001   1.012   3.045  0.2134  0.1326 -0.2486
  891SOL    HW1 2672   0.065   0.997   2.963  1.3309 -3.4350 -0.0222
  891SOL    HW2 2673   0.017   0.930   0.013  1.4186 -0.1006  0.8526
  892SOL     OW 2674   2.700   2.499   1.110  0.5406 -0.0352 -0.0383
  892SOL    HW1 2675   2.664   2.478   1.018  1.0493  0.3556  1.1981
  892SOL    HW2 2676   2.637   2.562   1.159  0.4772 -1.0240 -0.9857
  893SOL     OW 2677   1.366   0.459   0.975  0.4466  0.4091 -0.2011
  893SOL    HW1 2678   1.440   0.399   0.941  0.6868 -0.0581  0.2381
  893SOL    HW2 2679   1.385   0.558   0.949 -0.0464  0.7194 -1.4437
  894SOL     OW 2680   2.734   0.605   0.960 -0.0701  0.4009  0.1226
  894SOL    HW1 2681   2.660   0.664   0.925 -0.7939  1.4472 -0.4971
  894SOL    HW2 2682   2.806   0.662   1.005  1.8999  0.4349  0.8768
  895SOL     OW 2683   1.725   1.360   2.408  0.0210 -0.0130 -0.3753
  895SOL    HW1 2684   1.634   1.406   2.420 -3.0859 -1.1741 -0.8335
  895SOL    HW2 2685   1.737   1.330   2.314 -0.0995  1.2646  0.6128
  896SOL     OW 2686   1.611   0.595   1.362  0.7566 -0.4484  0.3337
  896SOL    HW1 2687   1.519   0.624   1.323  0.6406  0.0800 -0.3861
  896SOL    HW2 2688   1.607   0.500   1.388  0.6370  1.4378 -0.5001
  897SOL     OW 2689   0.367   1.654   1.652  0.4913  0.1927 -0.5380
  897SOL    HW1 2690   0.312   1.721   1.705 -0.0813 -1.8990  0.2919
  897SOL    HW2 2691   0.336   1.651   1.562  2.3826 -0.4984  2.3025
  898SOL     OW 2692   2.152   2.564   2.195  0.1328 -0.0001  0.6297
  898SOL    HW1 2693   2.170   2.482   2.135 -1.4534  0.2389 -0.1340
  898SOL    HW2 2694   2.127   2.528   2.287 -0.8333 -0.1763 -2.5735
  899SOL     OW 2695   1.123   1.690   1.138 -0.3410  0.2884 -0.1718
  899SOL    HW1 2696   1.047   1.634   1.099 -0.7201 -1.9683 -0.4419
  899SOL    HW2 2697   1.087   1.748   1.213 -0.6846  1.3951  1.5333
  900SOL     OW 2698   1.276   2.351   2.490 -0.3402 -0.1088  0.3346
  900SOL    HW1 2699   1.202   2.337   2.563 -1.3458 -1.0003  0.5221
  900SOL    HW2 2700   1.240   2.322   2.397 -0.1800  2.0647 -0.7706
  901SOL     OW 2701   0.860   1.609   2.288 -0.2089 -0.9565  0.0190
  901SOL    HW1 2702   0.908   1.536   2.236 -0.2374  1.7540 -2.8209
  901SOL    HW2 2703   0.821   1.682   2.221 -1.7663  2.2605 -2.3618
  902SOL     OW 2704   2.387   1.641   0.505 -0.5928  0.3924  0.0232
  902SOL    HW1 2705   2.397   1.537   0.483  2.3742 -1.9469 -3.1889
  902SOL    HW2 2706   2.370   1.653   0.605 -0.5978  0.2913 -0.7883
  903SOL     OW 2707   2.157   1.694   0.253  0.3531 -0.6477  0.0329
  903SOL    HW1 2708   2.253   1.687   0.286  5.2853 -0.7946 -0.0100
  903SOL    HW2 2709   2.125   1.795   0.245 -0.1491  4.7910  1.3465
  904SOL     OW 2710   1.187   0.816   2.218  0.4255 -0.1902 -0.1555
  904SOL    HW1 2711   1.188   0.882   2.146 -2.6391 -1.7255 -0.1458
  904SOL    HW2 2712   1.238   0.849   2.301  1.0012 -1.6793 -0.4107
  905SOL     OW 2713   2.945   0.222   0.678 -0.0540  0.4078 -0.5116
  905SOL    HW1 2714   2.899   0.301   0.719  1.1147 -0.4737  1.2836
  905SOL    HW2 2715   3.033   0.199   0.727  0.0542 -1.1644 -1.9842
  906SOL     OW 2716   3.048   1.756   0.273 -0.4644  0.4289 -0.6727
  906SOL    HW1 2717   0.011   1.676   0.251 -1.0842  1.4848  0.4905
  906SOL    HW2 2718   0.000   1.823   0.335  0.6079 -0.6428 -0.9684
  907SOL     OW 2719   1.390   0.438   0.277  0.7013  0.5436 -0.4697
  907SOL    HW1 2720   1.459   0.507   0.308 -0.1255 -0.7630 -0.6758
  907SOL    HW2 2721   1.367   0.373   0.354 -2.2693 -0.9165  2.3331
  908SOL     OW 2722   1.881   2.688   1.464  0.3109 -0.0165 -0.6943
  908SOL    HW1 2723   1.950   2.620   1.499  0.5578 -1.8608 -1.2743
  908SOL    HW2 2724   1.835   2.747   1.541  0.2523  1.5566  1.3913
  909SOL     OW 2725   2.486   0.768   1.532 -0.2847  0.4182 -0.3273
  909SOL    HW1 2726   2.447   0.678   1.565 -1.0754 -2.6867  0.8306
  909SOL    HW2 2727   2.465   0.842   1.600 -0.9320 -1.1018  1.1690
  910SOL     OW 2728   1.351   3.049   2.514  0.5541  0.5467  0.5526
  910SOL    HW1 2729   1.364   2.948   2.524  1.5486 -1.8634 -0.7432
  910SOL    HW2 2730   1.315   3.071   2.417 -3.1265 -0.2680 -2.6631
  911SOL     OW 2731   2.246   1.003   2.267  0.2648 -1.1373 -0.1465
  911SOL    HW1 2732   2.309   1.032   2.189  1.3581 -0.5010 -1.0933
  911SOL    HW2 2733   2.174   1.069   2.290 -0.4745  0.1529 -0.8677
  912SOL     OW 2734   2.411   2.223   1.665  0.6169  0.1548 -0.1180
  912SOL    HW1 2735   2.480   2.255   1.602 -0.9301 -1.1057  1.1304
  912SOL    HW2 2736   2.361   2.141   1.633 -1.8938  1.1839 -0.4015
  913SOL     OW 2737   2.518   2.635   1.261  0.3004 -0.5835 -0.4794
  913SOL    HW1 2738   2.507   2.668   1.362 -2.1529  0.5729 -0.3693
  913SOL    HW2 2739   2.506   2.717   1.200 -1.9371  2.7030 -1.9390
  914SOL     OW 2740   2.368   1.849   1.381 -0.2169 -0.2977 -0.1272
  914SOL    HW1 2741   2.351   1.751   1.400  0.2820  0.5065  1.2825
  914SOL    HW2 2742   2.313   1.910   1.440  1.4045 -1.2521 -1.2867
  915SOL     OW 2743   1.224   2.134   1.341  0.1296  0.1709 -0.6619
  915SOL    HW1 2744   1.166   2.219   1.338  1.1452  1.5738  0.6121
  915SOL    HW2 2745   1.315   2.152   1.387  1.9030  0.5439  0.8003
  916SOL     OW 2746   2.963   2.752   1.089 -0.1215 -0.1317 -0.7700
  916SOL    HW1 2747   2.990   2.848   1.114  1.3762  1.2465 -0.2372
  916SOL    HW2 2748   2.867   2.742   1.109  0.0845  0.5042  0.8344
  917SOL     OW 2749   2.517   1.299   2.665 -0.1728  0.3193  0.2812
  917SOL    HW1 2750   2.548   1.212   2.706  0.5815 -0.4956  0.1765
  917SOL    HW2 2751   2.458   1.286   2.586  1.0516  0.3812  0.7981
  918SOL     OW 2752   1.705   1.919   2.520 -0.5171  0.2616  0.4154
  918SOL    HW1 2753   1.613   1.900   2.478 -3.1789  1.9453  0.9228
  918SOL    HW2 2754   1.763   1.831   2.533  1.0553 -0.6013  0.6025
  919SOL     OW 2755   1.591   1.995   1.484 -0.2148 -0.0157  0.2974
  919SOL    HW1 2756   1.620   1.955   1.574 -1.4322 -1.7214 -2.3017
  919SOL    HW2 2757   1.671   2.038   1.440  3.1380 -2.4094  1.2468
  920SOL     OW 2758   0.536   2.973   2.817 -0.4046  0.3411  0.3274
  920SOL    HW1 2759   0.622   3.024   2.788 -1.2581 -3.8731 -1.6738
  920SOL    HW2 2760   0.555   2.959   2.918  0.1402  2.1591 -0.7381
  921SOL     OW 2761   2.710   0.182   2.575 -0.0585 -0.2166 -0.2973
  921SOL    HW1 2762   2.809   0.162   2.565  1.2337  2.1078 -1.1643
  921SOL    HW2 2763   2.703   0.280   2.548  0.2599  0.9864 -1.6567
  922SOL     OW 2764   2.482   1.564   1.731 -0.1138  0.5407  0.4272
  922SOL    HW1 2765   2.536   1.646   1.711 -1.8078 -1.2694  1.2130
  922SOL    HW2 2766   2.381   1.590   1.748 -1.6468  1.1003 -1.4567
  923SOL     OW 2767   0.883   1.949   0.216  0.3453  0.9003  0.0045
  923SOL    HW1 2768   0.914   2.036   0.257  1.2699  0.7599 -0.3542
  923SOL    HW2 2769   0.959   1.901   0.172  1.1850  0.9029  1.9686
  924SOL     OW 2770   1.515   0.357   0.045  0.1965  0.1143 -0.1514
  924SOL    HW1 2771   1.455   0.379   0.125  0.4691  4.0052 -1.5043
  924SOL    HW2 2772   1.579   0.431   0.014  1.8596  1.9191 -0.9200
  925SOL     OW 2773   2.524   0.910   0.535 -0.0152 -0.1264  0.3488
  925SOL    HW1 2774   2.498   1.012   0.540 -0.0100  3.9490  3.1238
  925SOL    HW2 2775   2.541   0.875   0.439 -1.7989  0.1473 -3.4919
  926SOL     OW 2776   0.178   0.783   0.714  0.1398 -0.2369  0.9879
  926SOL    HW1 2777   0.230   0.707   0.669 -0.9277 -0.4997  1.3919
  926SOL    HW2 2778   0.157   0.857   0.645 -0.2708 -0.4944  2.3005
  927SOL     OW 2779   0.560   1.422   0.472 -0.1460 -0.3562 -0.2155
  927SOL    HW1 2780   0.574   1.335   0.415  2.7903 -1.9957 -0.2421
  927SOL    HW2 2781   0.647   1.453   0.515  1.1511  0.5779  0.8820
  928SOL     OW 2782   0.148   3.018   2.622 -0.2202 -0.0429 -0.4382
  928SOL    HW1 2783   0.183   2.966   2.703  0.5991 -1.1354  0.6134
  928SOL    HW2 2784   0.213   3.083   2.575 -1.2736  0.3744  0.4655
  929SOL     OW 2785   2.755   0.275   1.301  0.0270 -0.3078 -0.2042
  929SOL    HW1 2786   2.708   0.226   1.224 -0.5630 -0.4313 -0.2072
  929SOL    HW2 2787   2.714   0.373   1.310 -2.7552 -0.8214  0.8195
  930SOL     OW 2788   1.851   2.219   1.461 -0.1721  0.2518 -0.1047
  930SOL    HW1 2789   1.817   2.272   1.541 -1.2653 -1.4428 -1.8351
  930SOL    HW2 2790   1.899   2.132   1.484 -2.6936  0.8226 -2.2089
  931SOL     OW 2791   1.634   1.006   0.994  0.5829  0.0946 -0.2312
  931SOL    HW1 2792   1.664   0.939   1.066  1.3599 -2.9461  4.0296
  931SOL    HW2 2793   1.681   1.097   1.009 -2.5638  2.1669 -0.6304
  932SOL     OW 2794   2.770   0.903   1.184 -0.9344 -0.3245  0.0911
  932SOL    HW1 2795   2.687   0.852   1.215  0.6926  0.1023 -1.9897
  932SOL    HW2 2796   2.831   0.840   1.137 -2.6521  0.1309  0.6858
  933SOL     OW 2797   2.445   1.836   2.082 -0.5587  0.0658  0.3183
  933SOL    HW1 2798   2.469   1.737   2.065  1.2221 -1.4601  0.8249
  933SOL    HW2 2799   2.482   1.894   2.006  0.2088 -0.7708 -0.6944
  934SOL     OW 2800   1.563   0.052   1.017 -0.8576  0.8426  0.3144
  934SOL    HW1 2801   1.462   0.034   1.010 -2.6707 -0.7087 -2.7429
  934SOL    HW2 2802   1.604   0.019   0.927 -0.0895  2.0472 -1.1469
  935SOL     OW 2803   2.688   1.159   1.151  0.2639 -0.9725  0.2260
  935SOL    HW1 2804   2.738   1.077   1.182 -0.2709  0.8208 -1.6130
  935SOL    HW2 2805   2.757   1.227   1.121  0.6117  0.7056  0.5316
  936SOL     OW 2806   2.875   1.342   1.041  0.3611  0.5099  0.5205
  936SOL    HW1 2807   2.886   1.437   1.004 -1.9491  1.8052  1.6352
  936SOL    HW2 2808   2.866   1.276   0.965  0.2657 -0.1619  1.0124
  937SOL     OW 2809   1.471   2.718   0.556  0.2819  0.2495  0.1124
  937SOL    HW1 2810   1.423   2.797   0.516  0.3332 -1.6309  0.4752
  937SOL    HW2 2811   1.515   2.664   0.481 -0.5275  0.0915  1.4128
  938SOL     OW 2812   3.041   2.525   0.817  0.0774  0.0300  0.4223
  938SOL    HW1 2813   2.944   2.551   0.816  0.3150  1.6145  0.0316
  938SOL    HW2 2814   3.082   2.529   0.909 -0.5605 -1.0583  1.8357
  939SOL     OW 2815   0.807   1.923   2.906 -0.4316 -0.3007 -0.5173
  939SOL    HW1 2816   0.780   1.882   2.998 -1.5445  0.7787  5.0087
  939SOL    HW2 2817   0.842   2.019   2.916 -0.0255  2.0954 -0.1475
  940SOL     OW 2818   2.836   2.796   2.629 -0.4692  0.1368  0.5776
  940SOL    HW1 2819   2.864   2.731   2.557  0.6816  0.9554 -1.7730
  940SOL    HW2 2820   2.736   2.780   2.642  0.7434  0.4319  0.9345
  941SOL     OW 2821   1.388   2.657   3.025 -0.4429  0.3125  0.0806
  941SOL    HW1 2822   1.343   2.745   3.054 -3.1714  1.7061  1.1940
  941SOL    HW2 2823   1.387   2.586   0.005  0.2168 -1.8013 -1.5825
  942SOL     OW 2824   1.811   1.761   1.448  0.4301 -0.9551  0.1304
  942SOL    HW1 2825   1.787   1.662   1.433  0.2576 -1.3641 -1.4737
  942SOL    HW2 2826   1.760   1.817   1.374 -0.7070 -0.1621 -0.7536
  943SOL     OW 2827   2.268   1.315   1.722  0.5277 -0.5495  0.4655
  943SOL    HW1 2828   2.320   1.261   1.651  1.4825  2.1561  0.7071
  943SOL    HW2 2829   2.335   1.341   1.794  0.7187  0.7587  0.2837
  944SOL     OW 2830   1.968   0.975   1.966 -0.2331 -0.4873  0.0870
  944SOL    HW1 2831   2.004   1.013   1.880 -2.4724  1.3842  0.9927
  944SOL    HW2 2832   1.907   0.894   1.944 -0.4408  2.6516 -1.7933
  945SOL     OW 2833   0.119   0.142   1.352  0.2122  0.4923  0.5318
  945SOL    HW1 2834   0.057   0.221   1.323 -0.0392  2.5635 -0.3243
  945SOL    HW2 2835   0.094   0.097   1.436 -2.8453  2.9899 -2.4607
  946SOL     OW 2836   0.435   1.017   1.877 -0.4554 -0.1941 -0.2999
  946SOL    HW1 2837   0.473   1.113   1.892 -0.8981  0.3131  0.6915
  946SOL    HW2 2838   0.455   0.961   1.962 -1.4985 -2.1555  2.2867
  947SOL     OW 2839   0.476   2.565   0.598 -0.0432  0.1349  0.1537
  947SOL    HW1 2840   0.574   2.596   0.581  1.2748  1.3873 -0.1742
  947SOL    HW2 2841   0.477   2.474   0.645 -0.5840 -0.8647 -0.2298
  948SOL     OW 2842   2.942   1.217   1.938  0.0900  0.2350 -0.4468
  948SOL    HW1 2843   2.975   1.246   1.845 -0.7859  0.1276 -1.0472
  948SOL    HW2 2844   2.944   1.116   1.951  3.1096 -0.3090  0.5820
  949SOL     OW 2845   0.053   0.674   2.235  0.9503  0.0796  0.7540
  949SOL    HW1 2846   0.133   0.700   2.293 -0.6469  1.0728  0.5460
  949SOL    HW2 2847   0.083   0.640   2.149 -2.1309 -0.1471  2.2008
  950SOL     OW 2848   0.712   0.792   1.054  0.4575 -0.2159 -0.0038
  950SOL    HW1 2849   0.705   0.830   0.955 -0.8204  3.0056  3.0787
  950SOL    HW2 2850   0.616   0.754   1.078 -0.5869 -3.4478  3.0840
  951SOL     OW 2851   1.097   1.781   1.906 -0.5828  0.5739 -0.5417
  951SOL    HW1 2852   1.132   1.852   1.975  0.9099 -1.2110 -2.2316
  951SOL    HW2 2853   1.029   1.715   1.943  2.3095  1.3342 -0.0069
  952SOL     OW 2854   0.883   1.572   2.727  0.0824  0.5061  0.2668
  952SOL    HW1 2855   0.935   1.577   2.816  0.4758 -0.6176  0.0054
  952SOL    HW2 2856   0.924   1.503   2.661  1.6483 -2.0016 -2.0503
  953SOL     OW 2857   1.583   3.036   2.136  0.0814  1.1276 -0.2195
  953SOL    HW1 2858   1.524   2.947   2.133 -0.2339 -1.4991 -0.8393
  953SOL    HW2 2859   1.589   3.068   2.230 -1.5307 -1.1236 -3.2545
  954SOL     OW 2860   2.241   1.295   0.659  0.1446  0.2965  0.5919
  954SOL    HW1 2861   2.245   1.285   0.558  0.6555  1.2353  0.2478
  954SOL    HW2 2862   2.218   1.205   0.704 -1.1701  1.9506 -0.9350
  955SOL     OW 2863   0.352   2.153   2.199 -0.4755  0.6685  0.4141
  955SOL    HW1 2864   0.377   2.125   2.295 -1.1401 -0.8541 -0.2545
  955SOL    HW2 2865   0.375   2.084   2.129 -1.1624  1.7726  1.7892
  956SOL     OW 2866   1.061   1.108   1.313 -0.2699 -0.5174  0.0188
  956SOL    HW1 2867   1.035   1.014   1.324 -1.5893  4.2053 -0.8854
  956SOL    HW2 2868   1.161   1.123   1.292 -0.5275  0.0497 -1.6670
  957SOL     OW 2869   2.182   1.302   2.566  0.0279  0.1973  0.6773
  957SOL    HW1 2870   2.101   1.362   2.561  3.3036 -2.2701 -0.6571
  957SOL    HW2 2871   2.167   1.233   2.638  2.2321 -2.8675 -0.7597
  958SOL     OW 2872   1.698   2.545   0.937 -0.2939  0.2270  0.0478
  958SOL    HW1 2873   1.616   2.530   0.994  0.8890 -0.0248  2.6438
  958SOL    HW2 2874   1.757   2.462   0.946 -0.4355 -2.4003 -2.8479
  959SOL     OW 2875   1.847   1.691   2.505  0.3244  0.1422 -0.3462
  959SOL    HW1 2876   1.936   1.726   2.539  2.9610  2.6098  2.2503
  959SOL    HW2 2877   1.849   1.589   2.486 -0.4873 -0.3267 -0.9595
  960SOL     OW 2878   0.470   0.604   2.955  0.1513  0.7048 -0.4276
  960SOL    HW1 2879   0.566   0.600   2.998  0.3897 -0.3977  5.6159
  960SOL    HW2 2880   0.462   0.561   2.862 -0.0413 -0.8963 -2.0135
  961SOL     OW 2881   0.229   0.477   1.951 -0.0916  0.3149  0.2937
  961SOL    HW1 2882   0.142   0.532   1.940  1.3107  1.2974  0.4652
  961SOL    HW2 2883   0.290   0.505   1.869 -0.3382  0.0442  0.1542
  962SOL     OW 2884   1.106   1.310   0.001  0.0536  0.0469 -0.1593
  962SOL    HW1 2885   1.197   1.268   0.003 -3.3279  1.4971  0.5214
  962SOL    HW2 2886   1.095   1.361   0.091  1.5795  0.9553  0.8941
  963SOL     OW 2887   1.662   2.167   2.856 -0.0830  0.3598 -0.2508
  963SOL    HW1 2888   1.752   2.168   2.905  0.8608  1.2279  3.2195
  963SOL    HW2 2889   1.595   2.219   2.917 -2.4032  2.0788  2.5441
  964SOL     OW 2890   1.238   2.925   0.733  0.0362 -0.8098 -0.5690
  964SOL    HW1 2891   1.247   2.915   0.633 -1.6573  1.5100  0.6588
  964SOL    HW2 2892   1.303   2.855   0.771 -1.4277  1.3951 -2.2878
  965SOL     OW 2893   0.810   2.789   0.745 -1.1275 -0.3269  0.0761
  965SOL    HW1 2894   0.791   2.721   0.670  0.1444 -2.2047  0.1799
  965SOL    HW2 2895   0.720   2.831   0.780  1.4634  2.0268 -0.1548
  966SOL     OW 2896   2.840   1.466   2.905  0.0211  0.4460 -0.1985
  966SOL    HW1 2897   2.782   1.533   2.852  0.2284 -0.0479  0.9913
  966SOL    HW2 2898   2.792   1.424   2.986 -0.8205 -0.9017 -1.8507
  967SOL     OW 2899   1.533   2.802   1.682  0.2192  0.2123  0.1783
  967SOL    HW1 2900   1.458   2.752   1.733  0.1274  0.3327 -0.2921
  967SOL    HW2 2901   1.505   2.900   1.668  0.9617  3.7624 -0.4274
  968SOL     OW 2902   1.682   0.919   0.730  0.1780  0.3312 -0.0406
  968SOL    HW1 2903   1.607   0.955   0.668  0.5355  0.8667 -1.5948
  968SOL    HW2 2904   1.680   0.956   0.827  1.1966  1.8008  0.3821
  969SOL     OW 2905   0.170   1.794   2.101 -0.0106 -0.1969  0.1305
  969SOL    HW1 2906   0.157   1.768   2.007  1.9537 -2.2498  1.0099
  969SOL    HW2 2907   0.262   1.817   2.131 -0.1311  0.0425  1.9134
  970SOL     OW 2908   2.749   1.633   1.436 -0.0931 -0.3182 -0.5736
  970SOL    HW1 2909   2.844   1.592   1.420 -0.4775  1.4859  0.7776
  970SOL    HW2 2910   2.690   1.558   1.471  3.8614  0.1814  1.0928
  971SOL     OW 2911   1.380   0.413   1.583 -0.1016  0.1007  0.4286
  971SOL    HW1 2912   1.345   0.502   1.543 -1.9948 -0.3523 -0.7530
  971SOL    HW2 2913   1.469   0.427   1.630  0.9867  0.0046 -2.3094
  972SOL     OW 2914   0.958   0.345   2.609  0.2154 -0.0641  0.0958
  972SOL    HW1 2915   1.026   0.266   2.602 -0.3306 -1.9269 -0.2054
  972SOL    HW2 2916   0.977   0.418   2.545  0.2654  0.4527  0.6638
  973SOL     OW 2917   2.718   1.315   0.780  0.0412  0.4005 -0.8960
  973SOL    HW1 2918   2.733   1.322   0.684 -1.3890 -1.3704  0.8360
  973SOL    HW2 2919   2.745   1.222   0.809  0.4556  1.3328  0.4759
  974SOL     OW 2920   1.918   1.267   1.994 -0.1186 -0.2751 -0.1900
  974SOL    HW1 2921   1.835   1.246   2.054 -0.7957  0.2319  0.2364
  974SOL    HW2 2922   1.955   1.186   1.945  1.2321 -3.7763 -0.5308
  975SOL     OW 2923   0.030   2.920   0.575 -0.3291  0.6791 -0.0346
  975SOL    HW1 2924   0.030   2.929   0.680 -1.9458  1.3784  0.8098
  975SOL    HW2 2925   3.053   2.985   0.533 -1.8031 -0.5057  0.4328
  976SOL     OW 2926   2.999   1.844   1.700 -0.2559 -0.2978  0.2320
  976SOL    HW1 2927   3.060   1.858   1.619  3.1690  3.6718  2.6694
  976SOL    HW2 2928   2.955   1.930   1.737  3.3856 -0.1850  1.9031
  977SOL     OW 2929   0.882   2.734   0.079 -0.2768 -0.0376  0.4916
  977SOL    HW1 2930   0.964   2.782   0.111 -1.1384 -2.7261 -1.0247
  977SOL    HW2 2931   0.873   2.756   3.074 -1.7260 -0.4578  1.1866
  978SOL     OW 2932   0.720   1.791   0.059 -0.3464 -0.5764  0.2696
  978SOL    HW1 2933   0.672   1.705   0.089  1.9102  2.3601  0.0778
  978SOL    HW2 2934   0.747   1.844   0.140 -0.8917 -0.7755  0.9100
  979SOL     OW 2935   1.250   2.095   1.037  0.1277  0.0352  0.5990
  979SOL    HW1 2936   1.348   2.063   1.031  1.9722 -0.2126 -1.0110
  979SOL    HW2 2937   1.213   2.124   1.128 -1.1358 -0.7314 -0.0446
  980SOL     OW 2938   0.362   1.302   2.260  0.0100  0.7724 -0.4997
  980SOL    HW1 2939   0.335   1.355   2.345 -3.1635  1.8668 -1.4124
  980SOL    HW2 2940   0.363   1.204   2.288 -0.2804 -1.0207  3.0389
  981SOL     OW 2941   2.789   1.080   0.104  0.6036  0.1282 -0.1880
  981SOL    HW1 2942   2.807   1.028   0.020 -0.7596  0.1493  2.1973
  981SOL    HW2 2943   2.750   1.173   0.084 -0.8352 -2.2718 -1.6468
  982SOL     OW 2944   2.710   3.027   0.001  0.4233  0.0954 -0.1844
  982SOL    HW1 2945   2.703   2.933   3.080 -0.3531 -0.7351  1.0386
  982SOL    HW2 2946   2.715   3.076   3.004  0.0398  0.4174 -1.3246
  983SOL     OW 2947   2.080   0.574   1.375 -0.4564 -0.1847  0.1135
  983SOL    HW1 2948   2.079   0.603   1.471  1.1085 -0.3020 -0.9119
  983SOL    HW2 2949   2.043   0.477   1.363 -1.3944 -0.3835  2.0064
  984SOL     OW 2950   0.998   0.194   2.263 -0.4805  0.1886  1.2041
  984SOL    HW1 2951   0.940   0.275   2.281  1.8662 -1.2107 -1.5268
  984SOL    HW2 2952   1.096   0.202   2.295  1.1023  2.5801 -1.7115
  985SOL     OW 2953   1.375   2.180   2.017 -0.2977  0.1310  0.1067
  985SOL    HW1 2954   1.416   2.138   1.935  2.6993  0.3749 -2.4583
  985SOL    HW2 2955   1.456   2.196   2.078  1.9003 -0.2784 -0.2060
  986SOL     OW 2956   2.026   0.296   2.063 -0.4002 -0.0692  0.2076
  986SOL    HW1 2957   2.077   0.369   2.113  0.5668  0.6684 -0.4648
  986SOL    HW2 2958   2.100   0.244   2.007  3.5541 -2.1043  1.5159
  987SOL     OW 2959   2.420   0.345   2.275 -0.5270 -0.2362  0.2959
  987SOL    HW1 2960   2.437   0.245   2.281  0.7743  1.1322  0.1419
  987SOL    HW2 2961   2.438   0.369   2.175 -1.1355 -0.9557 -0.2317
  988SOL     OW 2962   2.590   0.455   2.479  0.2278  0.0598  0.1803
  988SOL    HW1 2963   2.613   0.557   2.491  1.2173 -1.2838 -1.6660
  988SOL    HW2 2964   2.513   0.448   2.411 -2.6433  0.2481  1.8324
  989SOL     OW 2965   2.345   2.415   2.701  0.6111 -0.0789 -0.1224
  989SOL    HW1 2966   2.393   2.486   2.756 -1.1917 -1.4012  1.4451
  989SOL    HW2 2967   2.409   2.364   2.640 -2.7980 -0.5055 -0.3155
  990SOL     OW 2968   0.278   0.806   0.250 -0.0625 -0.8791  0.2902
  990SOL    HW1 2969   0.205   0.740   0.273  0.9546  1.0558  0.6464
  990SOL    HW2 2970   0.287   0.811   0.147 -0.4531  0.3518 -0.8110
  991SOL     OW 2971   0.599   0.612   2.650 -0.5710  0.2390 -0.1487
  991SOL    HW1 2972   0.570   0.521   2.681 -0.3655  2.8466  1.3199
  991SOL    HW2 2973   0.669   0.656   2.713  0.1955 -1.3956 -0.0676
  992SOL     OW 2974   0.068   1.602   2.274  0.1014 -0.1950 -0.2591
  992SOL    HW1 2975   0.083   1.667   2.195 -1.2804  2.5127 -0.3703
  992SOL    HW2 2976   0.001   1.529   2.262  0.9243  2.5859 -1.9236
  993SOL     OW 2977   0.661   0.073   0.716 -0.0325 -0.3244 -0.3811
  993SOL    HW1 2978   0.654   0.154   0.661 -1.5374 -2.6159  4.4761
  993SOL    HW2 2979   0.718   0.092   0.796 -0.2191 -2.1536  1.1806
  994SOL     OW 2980   0.391   2.011   1.727 -0.6961  0.0999 -0.0462
  994SOL    HW1 2981   0.313   2.067   1.695 -0.7059  0.1481  0.1722
  994SOL    HW2 2982   0.450   1.971   1.655  0.7329  0.8818 -1.1183
  995SOL     OW 2983   2.456   1.816   0.001  0.3080  0.4418 -0.4539
  995SOL    HW1 2984   2.486   1.828   2.998  1.9847 -2.1501 -2.2796
  995SOL    HW2 2985   2.373   1.866   0.035  0.9788  0.6350  0.8817
  996SOL     OW 2986   1.929   1.423   2.548  0.3971  0.1085 -0.1034
  996SOL    HW1 2987   1.901   1.447   2.642 -1.1104  2.4233 -1.2501
  996SOL    HW2 2988   1.851   1.401   2.487 -1.9620 -1.0085  1.1374
  997SOL     OW 2989   1.837   1.362   1.755  0.1892 -0.4322 -0.4379
  997SOL    HW1 2990   1.894   1.340   1.839  1.0770  0.8705 -0.6797
  997SOL    HW2 2991   1.806   1.279   1.708 -0.5563 -0.0102  2.8353
  998SOL     OW 2992   2.319   2.028   0.776  0.2980  0.1284 -0.0361
  998SOL    HW1 2993   2.395   2.009   0.844 -1.5864  2.1364  0.2273
  998SOL    HW2 2994   2.275   1.938   0.750  0.2858 -2.5970 -0.5651
  999SOL     OW 2995   2.465   2.567   0.654 -0.2416  0.2948  0.2065
  999SOL    HW1 2996   2.486   2.666   0.629  0.7892  0.8842  1.7764
  999SOL    HW2 2997   2.459   2.508   0.564  0.4871 -1.0514 -3.2097
 1000SOL     OW 2998   0.857   3.056   2.403  0.0724 -0.0701 -0.3514
 1000SOL    HW1 2999   0.797   0.026   2.457  2.7323  0.6387 -2.0788
 1000SOL    HW2 3000   0.907   0.015   2.331  1.9085 -0.4643  0.5041
   3.09251   3.09251   3.09251
