1000 SPC/Fw water molecules t= 488.00000 step= 488000
 3000
    1SOL     OW    1   2.708   2.964   1.395  0.2644 -0.1380 -0.0856
    1SOL    HW1    2   2.734   3.054   1.356 -1.0294  2.1157  1.3193
    1SOL    HW2    3   2.671   2.974   1.490 -2.4501 -0.0365 -0.3401
    2SOL     OW    4   2.998   2.743   3.056  0.2234  0.6541 -0.0564
    2SOL    HW1    5   2.912   2.765   3.000 -0.7064  2.6938  0.0364
    2SOL    HW2    6   2.995   2.641   3.072  1.2094 -0.6035  1.7666
    3SOL     OW    7   0.925   2.021   0.124 -0.4869  0.3233 -0.0943
    3SOL    HW1    8   0.829   2.032   0.168 -3.1659  0.3762  2.4690
    3SOL    HW2    9   1.004   2.043   0.188  0.4802 -0.2737  2.3020
    4SOL     OW   10   1.320   2.758   2.221  0.0565  0.1209 -0.6194
    4SOL    HW1   11   1.220   2.776   2.194 -2.4928 -3.0961 -0.5450
    4SOL    HW2   12   1.334   2.778   2.320 -1.9955  1.5219  0.3623
    5SOL     OW   13   1.939   0.267   3.031  0.0039  0.1239 -1.4197
    5SOL    HW1   14   1.953   0.173   2.989  0.6643 -2.8587 -3.2920
    5SOL    HW2   15   1.957   0.255   0.026  0.4005  0.5728 -0.2769
    6SOL     OW   16   0.020   1.511   0.887 -0.5181 -0.2048 -0.3349
    6SOL    HW1   17   3.107   1.528   0.987  0.3310 -1.0877  1.5836
    6SOL    HW2   18   0.114   1.486   0.868 -2.4892  2.1807 -1.1544
    7SOL     OW   19   0.995   1.923   0.504 -0.2547  0.0214  0.2505
    7SOL    HW1   20   1.006   1.861   0.421 -1.0779 -3.7522 -4.3717
    7SOL    HW2   21   1.059   1.887   0.577 -0.5298  3.6604  0.1008
    8SOL     OW   22   0.540   0.711   0.423 -0.0567  0.6110 -0.5526
    8SOL    HW1   23   0.612   0.648   0.387  1.6332 -2.3973 -1.8062
    8SOL    HW2   24   0.446   0.686   0.388 -0.4089 -1.3597 -0.3143
    9SOL     OW   25   0.248   2.550   1.656  0.2044  0.0283 -0.5211
    9SOL    HW1   26   0.320   2.617   1.679 -0.1003 -0.5471  2.2906
    9SOL    HW2   27   0.229   2.567   1.560 -1.8873 -0.2461  1.5607
   10SOL     OW   28   1.476   1.769   0.291 -0.5051  0.3856 -0.1593
   10SOL    HW1   29   1.498   1.796   0.197 -0.7734 -1.0047  0.2750
   10SOL    HW2   30   1.444   1.854   0.341 -0.9851  1.4525  1.9720
   11SOL     OW   31   1.925   0.521   1.536 -0.4393 -0.0982 -0.3037
   11SOL    HW1   32   1.844   0.565   1.574  0.0684  1.8146  1.0066
   11SOL    HW2   33   1.902   0.433   1.500  1.4444  1.9324  2.9603
   12SOL     OW   34   0.358   0.750   2.098  0.1830 -0.0332 -0.2027
   12SOL    HW1   35   0.457   0.759   2.118 -0.0053 -1.3915  0.8844
   12SOL    HW2   36   0.331   0.655   2.100 -0.3472  0.1953  2.4013
   13SOL     OW   37   2.078   0.209   0.408  0.4775 -0.1275  0.0703
   13SOL    HW1   38   2.025   0.121   0.414  0.1064 -0.0034  0.9137
   13SOL    HW2   39   2.064   0.268   0.494 -0.4651 -0.4939 -0.5227
   14SOL     OW   40   2.456   2.200   0.111 -0.1984  0.0553 -0.0578
   14SOL    HW1   41   2.386   2.262   0.147 -0.0244  1.3936 -1.7360
   14SOL    HW2   42   2.421   2.152   0.026 -3.7410 -0.6357  0.8466
   15SOL     OW   43   2.437   3.071   2.689  0.2038 -0.8406  0.2613
   15SOL    HW1   44   2.506   3.012   2.737 -1.3567  0.7051  3.2962
   15SOL    HW2   45   2.396   0.031   2.756 -0.9745  1.4190  1.5050
   16SOL     OW   46   2.984   0.492   0.986 -0.0753 -0.0753  0.2317
   16SOL    HW1   47   3.069   0.482   0.931 -0.1934  1.1146 -1.5476
   16SOL    HW2   48   2.905   0.516   0.926  1.2592 -0.6511 -2.2568
   17SOL     OW   49   0.691   0.327   1.097  0.1993  0.4427  0.6943
   17SOL    HW1   50   0.720   0.341   0.999  2.9223  1.3035 -1.8210
   17SOL    HW2   51   0.606   0.270   1.101  0.0434  0.8796 -1.1887
   18SOL     OW   52   2.976   0.246   0.650  0.1650  0.5232 -0.6594
   18SOL    HW1   53   2.973   0.145   0.648  0.6353  0.8224  1.2945
   18SOL    HW2   54   3.053   0.275   0.711 -2.1889 -1.3251  0.5920
   19SOL     OW   55   1.893   1.864   0.871  0.0283 -0.3842 -0.1213
   19SOL    HW1   56   1.975   1.930   0.861  0.4141  2.8066  2.5988
   19SOL    HW2   57   1.878   1.798   0.793 -0.1826  0.6511 -0.9024
   20SOL     OW   58   2.093   1.665   2.296  0.2711  0.2651 -0.3326
   20SOL    HW1   59   1.996   1.621   2.290 -0.5999  0.0872 -1.3782
   20SOL    HW2   60   2.081   1.758   2.331  0.6504 -0.0214 -0.3013
   21SOL     OW   61   1.280   0.260   0.337 -0.4242  0.1127  0.1346
   21SOL    HW1   62   1.248   0.176   0.287 -0.1589 -1.5336 -1.0826
   21SOL    HW2   63   1.375   0.250   0.368 -0.7032  2.7837 -0.9544
   22SOL     OW   64   2.446   0.962   3.041  0.0175 -0.1799 -0.1589
   22SOL    HW1   65   2.537   0.917   3.058 -2.0749 -0.2882  0.3835
   22SOL    HW2   66   2.434   0.970   2.938 -0.4031  2.3640 -1.2003
   23SOL     OW   67   0.258   0.087   2.474 -0.6022  0.4956 -0.0429
   23SOL    HW1   68   0.274   0.026   2.390  1.5503 -1.2752  0.8351
   23SOL    HW2   69   0.348   0.127   2.506  1.0041 -0.7190 -1.2696
   24SOL     OW   70   2.185   2.389   1.022 -0.1706  0.5900 -0.4823
   24SOL    HW1   71   2.236   2.432   1.097  0.6360 -1.2767  0.8398
   24SOL    HW2   72   2.176   2.291   1.037 -0.0167  3.6342  0.0125
   25SOL     OW   73   1.540   0.405   0.086 -0.3310 -0.1244  0.6026
   25SOL    HW1   74   1.575   0.314   0.100 -1.2895 -1.9892  2.5548
   25SOL    HW2   75   1.606   0.469   0.044 -0.5952 -1.9377 -1.7900
   26SOL     OW   76   1.067   2.771   2.837 -0.2189  1.2332  0.3301
   26SOL    HW1   77   0.991   2.829   2.876 -3.4837 -0.1081  1.8538
   26SOL    HW2   78   1.099   2.700   2.907 -1.3146  0.6659  0.2181
   27SOL     OW   79   0.955   0.719   1.352 -0.0245 -0.6382 -0.0683
   27SOL    HW1   80   0.935   0.686   1.257  1.2044  2.6758  0.3468
   27SOL    HW2   81   0.872   0.718   1.412 -0.5546 -0.9858 -1.3681
   28SOL     OW   82   0.743   2.000   1.403  0.0201  0.2494 -0.4742
   28SOL    HW1   83   0.787   1.987   1.311  0.3319 -0.0584 -0.2266
   28SOL    HW2   84   0.794   1.947   1.470  0.3696  4.3057  1.7897
   29SOL     OW   85   2.707   0.487   0.927  0.5298  0.5164  0.1983
   29SOL    HW1   86   2.664   0.449   1.013 -0.7721 -0.1290  0.7189
   29SOL    HW2   87   2.707   0.587   0.939 -0.5742 -1.6532  0.9976
   30SOL     OW   88   1.493   0.132   1.719 -0.2866  0.3599 -0.2054
   30SOL    HW1   89   1.498   0.038   1.762  2.5556 -0.0609  0.2419
   30SOL    HW2   90   1.398   0.157   1.690 -1.8498 -0.0607 -0.9372
   31SOL     OW   91   1.082   0.188   1.303  0.0392 -0.6057 -0.1372
   31SOL    HW1   92   1.185   0.189   1.289  2.6831  1.2439  1.6156
   31SOL    HW2   93   1.043   0.105   1.261 -2.5419 -0.0198 -0.5501
   32SOL     OW   94   2.373   1.039   2.117 -0.2129 -0.8378 -0.3418
   32SOL    HW1   95   2.442   1.115   2.104  0.1661  0.7019  0.3966
   32SOL    HW2   96   2.309   1.029   2.040  0.9485  0.2718 -1.7779
   33SOL     OW   97   2.349   2.695   2.745 -0.5289  0.4311  0.0499
   33SOL    HW1   98   2.284   2.641   2.688  0.7519  0.9422 -0.3735
   33SOL    HW2   99   2.441   2.656   2.734 -3.7203  0.3142 -2.7649
   34SOL     OW  100   2.102   0.992   3.024  0.7861  0.0264 -0.3274
   34SOL    HW1  101   2.112   0.990   0.020  0.4169  3.0223  2.1655
   34SOL    HW2  102   2.132   0.913   2.976 -0.8814  2.4638  0.8576
   35SOL     OW  103   2.975   1.177   1.182  0.5031  0.0522  0.5469
   35SOL    HW1  104   3.048   1.175   1.106 -0.6496 -2.6348 -2.6050
   35SOL    HW2  105   2.929   1.087   1.176 -3.3101  0.7897 -0.1276
   36SOL     OW  106   2.414   2.387   2.833  0.3508  0.4893 -0.9286
   36SOL    HW1  107   2.314   2.401   2.836 -1.6497 -2.1257 -2.9190
   36SOL    HW2  108   2.451   2.403   2.736  0.9180 -1.1298 -2.9023
   37SOL     OW  109   1.809   0.035   2.101  0.0386  0.0106 -0.2864
   37SOL    HW1  110   1.819   0.081   2.009  0.5418  0.3224 -0.2560
   37SOL    HW2  111   1.897   0.033   2.152  1.7253  1.9631 -3.4771
   38SOL     OW  112   1.186   1.608   2.218  0.2524  0.1518 -0.2356
   38SOL    HW1  113   1.173   1.711   2.198 -0.5350  0.7633  1.3843
   38SOL    HW2  114   1.256   1.564   2.158  1.8615 -1.0343  0.7271
   39SOL     OW  115   1.723   0.291   1.666 -0.4821 -0.2171 -0.1416
   39SOL    HW1  116   1.715   0.391   1.663  1.0564  0.9080  2.8626
   39SOL    HW2  117   1.634   0.249   1.680 -0.0299  0.7553 -2.3882
   40SOL     OW  118   0.796   2.287   0.468  0.0092  0.2003  0.2285
   40SOL    HW1  119   0.787   2.183   0.460  0.4557 -1.2171  1.7629
   40SOL    HW2  120   0.807   2.314   0.563 -1.2468  1.3216 -3.5852
   41SOL     OW  121   2.289   2.267   1.321 -0.7859  0.3044  0.6616
   41SOL    HW1  122   2.315   2.362   1.293  2.2903 -0.4138  1.1227
   41SOL    HW2  123   2.361   2.205   1.279 -0.4587 -0.5585  0.7544
   42SOL     OW  124   2.622   2.961   0.307 -0.4056  0.3100  0.0998
   42SOL    HW1  125   2.680   3.047   0.318  1.6426  3.0491 -1.8135
   42SOL    HW2  126   2.617   2.922   0.402  2.2274  2.3751 -2.9196
   43SOL     OW  127   1.000   1.851   1.978  0.3589  0.6242  0.0170
   43SOL    HW1  128   0.950   1.769   2.019 -0.6738 -0.4891 -0.7983
   43SOL    HW2  129   1.079   1.885   2.035  0.0275 -0.6688 -2.1947
   44SOL     OW  130   1.752   3.037   1.157  0.0872  0.0290  0.3676
   44SOL    HW1  131   1.796   3.073   1.075  1.7684 -0.5640  1.6431
   44SOL    HW2  132   1.797   3.076   1.242 -0.2376 -0.7674  0.6268
   45SOL     OW  133   0.223   2.268   2.523  0.1544  0.1187 -0.5773
   45SOL    HW1  134   0.314   2.220   2.541  1.3806 -0.5262 -0.5221
   45SOL    HW2  135   0.158   2.245   2.594  0.9265  0.8543  1.3931
   46SOL     OW  136   0.766   2.447   1.875 -0.1262  0.7864  0.2005
   46SOL    HW1  137   0.680   2.469   1.924  0.5393  0.4526 -1.8496
   46SOL    HW2  138   0.837   2.515   1.897 -1.5149 -2.8494  0.8620
   47SOL     OW  139   0.344   1.921   0.471  0.2299  0.5452 -0.1558
   47SOL    HW1  140   0.394   1.918   0.558 -1.5401 -0.3375 -2.7533
   47SOL    HW2  141   0.401   1.873   0.404 -2.4736  0.2279  1.9925
   48SOL     OW  142   0.775   2.782   1.534 -0.3327 -0.2907  0.5079
   48SOL    HW1  143   0.710   2.754   1.460 -2.8727 -0.2146  1.4587
   48SOL    HW2  144   0.731   2.857   1.588 -0.8070 -0.3382 -0.1707
   49SOL     OW  145   0.428   2.685   0.141  0.2635  0.6118 -0.8740
   49SOL    HW1  146   0.363   2.754   0.103 -0.6513 -0.0557 -0.5747
   49SOL    HW2  147   0.485   2.726   0.220  0.3569 -0.7762  0.2259
   50SOL     OW  148   1.673   1.030   0.668 -0.4999 -0.0393  0.0183
   50SOL    HW1  149   1.612   1.000   0.744  1.6531  0.7953 -0.7383
   50SOL    HW2  150   1.767   0.996   0.681  1.6855 -0.1149 -1.3559
   51SOL     OW  151   1.797   2.957   0.848  0.5681  0.5780 -0.3548
   51SOL    HW1  152   1.746   2.897   0.905  2.9851 -0.4632 -2.1295
   51SOL    HW2  153   1.738   2.990   0.767 -2.5408  1.6222 -1.7522
   52SOL     OW  154   0.648   1.659   1.133 -0.3962 -0.9632  0.2692
   52SOL    HW1  155   0.664   1.601   1.052 -0.3102  1.3807  0.8335
   52SOL    HW2  156   0.552   1.674   1.152  3.4832 -2.1088 -0.1229
   53SOL     OW  157   0.098   0.989   2.701  0.4862  0.3663  0.4649
   53SOL    HW1  158   0.072   1.048   2.778 -0.5438  1.1275  1.9221
   53SOL    HW2  159   0.074   0.897   2.731  0.5777 -1.3177  1.8235
   54SOL     OW  160   2.092   2.135   2.837 -0.3536 -0.7270  0.4734
   54SOL    HW1  161   1.996   2.150   2.859 -1.1995  1.4493  2.6756
   54SOL    HW2  162   2.127   2.061   2.896  0.9070  0.8015  0.0791
   55SOL     OW  163   2.613   2.313   1.272 -0.3269 -0.0231  1.1203
   55SOL    HW1  164   2.664   2.386   1.220  0.8729  1.5420  0.0556
   55SOL    HW2  165   2.643   2.300   1.366 -2.0450 -0.2209  0.5907
   56SOL     OW  166   1.721   1.048   1.546  0.5852 -0.1842 -0.7742
   56SOL    HW1  167   1.787   1.100   1.607 -0.3694  0.1573  1.6698
   56SOL    HW2  168   1.707   1.092   1.456 -2.8797  1.4965 -1.1278
   57SOL     OW  169   2.154   2.076   0.858  0.1091  0.2623 -0.0538
   57SOL    HW1  170   2.154   2.092   0.960 -0.6783 -1.8235 -0.1568
   57SOL    HW2  171   2.197   2.151   0.803 -0.7794  3.0532 -0.5685
   58SOL     OW  172   1.986   0.315   2.199  0.0014  0.0722  0.3771
   58SOL    HW1  173   1.896   0.336   2.237  0.9326 -0.0386 -2.1041
   58SOL    HW2  174   2.018   0.395   2.143 -1.9728 -1.5230  1.6916
   59SOL     OW  175   1.533   0.094   2.533  0.1542 -0.1266 -0.3355
   59SOL    HW1  176   1.541   0.086   2.634  0.0117 -3.1208  1.5869
   59SOL    HW2  177   1.489   0.012   2.492  0.0044 -0.9538 -1.0754
   60SOL     OW  178   1.677   1.971   0.088 -0.6143  0.4146  0.8414
   60SOL    HW1  179   1.592   1.931   0.049 -0.0528 -1.5024 -1.7610
   60SOL    HW2  180   1.687   2.067   0.064  3.0561 -2.4924  0.8310
   61SOL     OW  181   0.513   2.043   3.045 -0.4684  0.3211 -0.1769
   61SOL    HW1  182   0.545   1.951   3.019 -3.9165  0.4081 -0.5964
   61SOL    HW2  183   0.416   2.058   3.025  0.6016 -1.5868 -2.5904
   62SOL     OW  184   1.404   2.449   1.343  0.2029  0.2181 -0.7112
   62SOL    HW1  185   1.320   2.465   1.289  2.0941  0.3541 -2.4617
   62SOL    HW2  186   1.398   2.376   1.415  2.3938  1.1355 -1.0143
   63SOL     OW  187   0.740   2.026   0.448 -0.1638 -0.7010 -0.3116
   63SOL    HW1  188   0.691   2.004   0.361 -2.7149 -1.6915  1.3354
   63SOL    HW2  189   0.808   1.956   0.475  0.8810 -0.0837  2.8266
   64SOL     OW  190   1.744   1.719   2.533  0.4664  0.0901 -0.0732
   64SOL    HW1  191   1.804   1.682   2.603 -1.6185  1.3333  0.2966
   64SOL    HW2  192   1.795   1.782   2.474 -0.8630 -1.9352  0.1984
   65SOL     OW  193   1.878   2.112   1.071  0.1607  0.1114 -0.4417
   65SOL    HW1  194   1.828   2.028   1.038 -2.2650  0.3766  1.8268
   65SOL    HW2  195   1.824   2.156   1.146  1.1149 -1.2172 -0.8408
   66SOL     OW  196   2.739   0.359   0.649  0.0040  0.2132  0.0762
   66SOL    HW1  197   2.827   0.316   0.643 -1.1930  4.8543  2.2195
   66SOL    HW2  198   2.723   0.408   0.737  0.1853  0.8913  0.5423
   67SOL     OW  199   2.080   2.699   1.230 -0.1159 -0.4791 -0.5559
   67SOL    HW1  200   1.978   2.714   1.239 -2.0306  0.2374  1.6129
   67SOL    HW2  201   2.117   2.782   1.182  0.0056 -0.9258  2.1764
   68SOL     OW  202   2.545   2.496   1.564 -0.3656  0.2131 -0.2911
   68SOL    HW1  203   2.445   2.510   1.569 -0.1591 -1.9323  0.4275
   68SOL    HW2  204   2.582   2.477   1.657  1.3907  1.7906  0.6160
   69SOL     OW  205   2.762   2.688   2.906 -0.9252  0.3083  0.2947
   69SOL    HW1  206   2.716   2.754   2.842 -1.6432 -0.3255 -1.3615
   69SOL    HW2  207   2.700   2.657   2.976  3.5297 -0.7158 -0.1319
   70SOL     OW  208   1.185   1.892   2.204  0.2461  0.3122  0.1498
   70SOL    HW1  209   1.124   1.966   2.229  2.1050 -2.7417  0.0997
   70SOL    HW2  210   1.272   1.898   2.264  1.3449  0.5099  0.8496
   71SOL     OW  211   1.008   2.002   1.759  0.0266  0.1137  0.0656
   71SOL    HW1  212   0.986   1.946   1.843  0.1673  3.6862  0.9783
   71SOL    HW2  213   0.960   2.092   1.768  1.8867 -0.8335  1.3381
   72SOL     OW  214   2.548   1.191   1.363 -0.1150  0.3130 -0.0341
   72SOL    HW1  215   2.628   1.187   1.425 -0.2541  1.4941  0.6238
   72SOL    HW2  216   2.529   1.282   1.331  1.2384 -1.0349  2.2664
   73SOL     OW  217   0.697   2.149   2.534  0.3294  0.2958 -0.6670
   73SOL    HW1  218   0.659   2.177   2.447 -0.3324 -1.2479 -0.0899
   73SOL    HW2  219   0.767   2.221   2.558  0.5150 -1.4289 -2.4271
   74SOL     OW  220   0.862   0.051   2.497  0.1518  0.8087 -0.2051
   74SOL    HW1  221   0.817   3.076   2.534 -1.5921  0.5660  1.4584
   74SOL    HW2  222   0.951   0.021   2.460  0.3057  0.4489 -1.0578
   75SOL     OW  223   0.798   0.010   0.780 -0.0752  0.0707  0.4462
   75SOL    HW1  224   0.831   3.027   0.812 -1.1635 -0.9788 -1.9749
   75SOL    HW2  225   0.875   0.081   0.774  1.2449 -1.1636 -1.3408
   76SOL     OW  226   0.534   1.005   2.544 -0.9823 -0.2301  0.1783
   76SOL    HW1  227   0.577   0.960   2.625  1.2528 -1.6847 -2.1136
   76SOL    HW2  228   0.446   1.048   2.570 -2.0322  1.8287 -0.3859
   77SOL     OW  229   0.539   2.737   0.536 -0.4075 -0.1532  0.0598
   77SOL    HW1  230   0.545   2.707   0.444  0.7997  0.9674  1.3694
   77SOL    HW2  231   0.630   2.783   0.560  1.4226 -1.4660  0.2895
   78SOL     OW  232   2.608   1.095   2.611 -0.0866  0.0137 -0.1116
   78SOL    HW1  233   2.573   1.158   2.544  0.8729 -0.9821 -0.3714
   78SOL    HW2  234   2.623   0.999   2.576 -0.2522  0.7730  0.2037
   79SOL     OW  235   1.045   1.320   2.402 -0.1034  0.3389 -0.1280
   79SOL    HW1  236   1.035   1.417   2.373 -0.4312 -0.4686 -0.2077
   79SOL    HW2  237   1.002   1.294   2.490  1.5912  1.4121 -1.7333
   80SOL     OW  238   2.113   0.920   1.474 -0.0678  0.0959 -0.2426
   80SOL    HW1  239   2.072   0.994   1.419 -0.9881 -1.8468 -1.1129
   80SOL    HW2  240   2.210   0.946   1.503  0.0560 -0.0830  0.3491
   81SOL     OW  241   2.440   0.962   2.763  0.8236  0.4159  0.1572
   81SOL    HW1  242   2.344   0.983   2.744  2.1544 -0.8502 -0.7582
   81SOL    HW2  243   2.499   1.009   2.691  0.5419 -2.9249  1.8380
   82SOL     OW  244   2.395   2.014   1.590 -0.6793 -0.1344  0.7725
   82SOL    HW1  245   2.413   1.968   1.501 -0.2376 -0.3740  1.1399
   82SOL    HW2  246   2.345   1.950   1.650 -0.7503 -2.0439  0.4998
   83SOL     OW  247   1.730   2.844   0.313 -0.1643  0.7958  0.1192
   83SOL    HW1  248   1.654   2.897   0.358 -1.0564  1.4627 -0.6544
   83SOL    HW2  249   1.726   2.851   0.211 -1.3945  1.9836  0.6931
   84SOL     OW  250   0.814   0.735   0.574  0.4326  0.1914 -0.1289
   84SOL    HW1  251   0.894   0.688   0.618  1.3722 -1.7762  0.2284
   84SOL    HW2  252   0.739   0.757   0.640  0.1113 -0.6893  0.9490
   85SOL     OW  253   2.135   1.643   1.204 -0.4742  0.2949  0.3494
   85SOL    HW1  254   2.143   1.560   1.147 -2.2149  1.3007  1.7801
   85SOL    HW2  255   2.209   1.716   1.197 -0.9253 -0.8352  0.8708
   86SOL     OW  256   0.505   0.685   1.088 -0.2096  0.1499  0.5579
   86SOL    HW1  257   0.420   0.740   1.078  0.1400 -2.6208  2.6978
   86SOL    HW2  258   0.549   0.696   1.177 -0.2017 -0.0229 -2.0136
   87SOL     OW  259   0.004   2.021   2.378 -0.6728  0.2107 -0.0295
   87SOL    HW1  260   3.094   1.922   2.351  0.2410 -2.1068  2.0549
   87SOL    HW2  261   0.029   2.025   2.480  0.6262  0.5943  2.7063
   88SOL     OW  262   0.362   2.939   0.018  0.1653  0.3912 -0.3056
   88SOL    HW1  263   0.456   2.915   3.086 -0.7989  0.1513 -0.6026
   88SOL    HW2  264   0.313   3.006   3.067  0.3286  0.4928 -2.7489
   89SOL     OW  265   1.499   0.639   1.244  0.0204 -0.1924 -0.2109
   89SOL    HW1  266   1.584   0.683   1.280 -1.1186  1.0222 -2.4093
   89SOL    HW2  267   1.467   0.559   1.299  0.9158  0.8763 -1.2650
   90SOL     OW  268   2.817   1.007   1.929 -0.2526  0.0681 -0.3398
   90SOL    HW1  269   2.741   1.020   1.861 -0.4548  1.0791  1.8502
   90SOL    HW2  270   2.896   0.959   1.880 -0.3703 -0.7765 -0.5637
   91SOL     OW  271   1.661   2.689   0.983  0.0119 -0.0382  0.0527
   91SOL    HW1  272   1.691   2.621   0.916 -1.8667  1.6718 -1.6698
   91SOL    HW2  273   1.726   2.699   1.059  0.1043 -0.6391  0.3508
   92SOL     OW  274   1.858   2.166   0.604 -0.1701  0.0262  0.1456
   92SOL    HW1  275   1.938   2.174   0.543 -1.1230  0.8216  1.6366
   92SOL    HW2  276   1.768   2.169   0.556  2.3963  0.0684  0.3012
   93SOL     OW  277   0.419   1.350   0.189 -0.0917 -0.3030 -0.5101
   93SOL    HW1  278   0.472   1.400   0.258 -2.6476 -1.6811  0.5582
   93SOL    HW2  279   0.459   1.256   0.190 -1.5976  2.2517  0.3818
   94SOL     OW  280   0.912   2.338   1.001  0.0075 -0.0897  0.1006
   94SOL    HW1  281   0.966   2.253   1.000 -0.0784 -1.3993 -0.0816
   94SOL    HW2  282   0.818   2.320   1.040 -0.9959  0.8299 -1.6863
   95SOL     OW  283   0.353   0.944   0.239 -0.3768  0.2774  0.4996
   95SOL    HW1  284   0.304   0.990   0.312  1.8282 -2.5937 -2.1361
   95SOL    HW2  285   0.451   0.971   0.240 -1.6200 -1.3458 -0.3365
   96SOL     OW  286   0.997   2.603   1.882 -0.4877 -0.1680 -0.2303
   96SOL    HW1  287   1.078   2.663   1.866  2.9522  2.1032  2.6190
   96SOL    HW2  288   1.024   2.519   1.940  1.0985  0.1143  0.2223
   97SOL     OW  289   2.523   1.129   0.601 -0.1984 -0.0808 -0.2649
   97SOL    HW1  290   2.425   1.145   0.621  2.3042  2.2545 -0.4967
   97SOL    HW2  291   2.569   1.204   0.549  0.4278  0.4939 -1.9813
   98SOL     OW  292   0.219   1.845   1.855 -0.2666 -0.4788  0.1955
   98SOL    HW1  293   0.161   1.802   1.783  1.6222  4.3306 -0.5518
   98SOL    HW2  294   0.262   1.781   1.918 -0.2463  2.9791  1.9246
   99SOL     OW  295   0.242   0.465   1.886  0.5356  0.3627  0.0628
   99SOL    HW1  296   0.287   0.505   1.806 -0.9847 -0.1823 -0.1660
   99SOL    HW2  297   0.272   0.374   1.912 -0.5200 -0.1366 -0.9389
  100SOL     OW  298   2.188   0.744   2.586  0.0028 -0.0094 -0.3179
  100SOL    HW1  299   2.183   0.686   2.667  1.5894  2.6182  1.9837
  100SOL    HW2  300   2.231   0.835   2.606  1.7251  3.4912  0.6135
  101SOL     OW  301   1.037   0.464   2.013 -0.7775  0.1689  0.0194
  101SOL    HW1  302   1.128   0.442   2.051 -0.7589  1.3873  0.5580
  101SOL    HW2  303   0.985   0.382   1.994  2.2819  0.9544  1.3335
  102SOL     OW  304   0.380   0.606   1.696 -0.7491  0.1900  0.5439
  102SOL    HW1  305   0.365   0.619   1.596  1.2893  0.4653 -1.0749
  102SOL    HW2  306   0.346   0.686   1.751  2.7016  2.9071 -2.2608
  103SOL     OW  307   0.481   0.729   3.017  0.4193 -0.8681 -0.1522
  103SOL    HW1  308   0.475   0.654   3.088  0.0487  0.6729  1.0302
  103SOL    HW2  309   0.576   0.760   3.015 -1.3251  0.7061 -0.4866
  104SOL     OW  310   0.402   2.729   1.897  0.3877  0.1297  0.1663
  104SOL    HW1  311   0.314   2.765   1.935  0.9099  0.0723 -1.9036
  104SOL    HW2  312   0.422   2.633   1.929 -0.9591 -0.0420  0.4994
  105SOL     OW  313   2.413   2.610   2.002 -0.0046 -0.1638 -0.3401
  105SOL    HW1  314   2.490   2.664   2.041 -1.5053  0.3354  0.5054
  105SOL    HW2  315   2.340   2.666   1.972  2.5989 -1.2636  0.1080
  106SOL     OW  316   0.407   2.899   0.719 -0.0744 -0.0003 -0.6534
  106SOL    HW1  317   0.458   2.977   0.756  1.2784 -1.5725  0.3174
  106SOL    HW2  318   0.469   2.836   0.668  4.0663 -0.8503  0.9476
  107SOL     OW  319   3.078   1.518   1.159  0.2909  0.4856 -0.1008
  107SOL    HW1  320   3.093   1.442   1.229 -3.3599 -2.3963  0.7629
  107SOL    HW2  321   2.982   1.546   1.176  0.9552  0.2125  0.9694
  108SOL     OW  322   0.439   2.227   0.995 -0.1173 -0.5273  0.2104
  108SOL    HW1  323   0.444   2.284   0.908 -0.1375  0.6074 -0.3947
  108SOL    HW2  324   0.393   2.274   1.071 -0.6792  1.8098 -1.1675
  109SOL     OW  325   1.242   3.008   0.509  0.1269  0.5640 -0.3107
  109SOL    HW1  326   1.199   3.063   0.587 -0.9940  1.1089  1.0389
  109SOL    HW2  327   1.335   3.044   0.482 -1.4529  1.0250  0.7883
  110SOL     OW  328   1.417   1.977   0.478  0.5332  0.0449 -0.1920
  110SOL    HW1  329   1.501   2.036   0.465  1.4172  2.6777 -0.6982
  110SOL    HW2  330   1.340   2.041   0.505  0.3067  1.0247 -0.0338
  111SOL     OW  331   1.820   2.682   2.054 -0.1271  0.0374  0.1948
  111SOL    HW1  332   1.887   2.622   2.102  0.3000  1.4270 -2.8228
  111SOL    HW2  333   1.769   2.748   2.112  0.2127  2.5571 -0.4440
  112SOL     OW  334   1.821   2.654   2.814 -0.4629 -0.7849 -0.8851
  112SOL    HW1  335   1.831   2.594   2.737  1.1846  1.8331  1.5154
  112SOL    HW2  336   1.910   2.686   2.854 -0.6816 -0.6115  0.5319
  113SOL     OW  337   2.372   1.999   2.224 -0.2952 -0.3584 -0.0475
  113SOL    HW1  338   2.421   2.035   2.306 -0.7083 -1.5009  1.5462
  113SOL    HW2  339   2.425   1.989   2.136  1.8730 -1.7317  0.9032
  114SOL     OW  340   3.087   1.209   1.605  0.1649 -0.8536 -0.4002
  114SOL    HW1  341   0.016   1.114   1.624  0.9197  0.1002  3.1961
  114SOL    HW2  342   2.997   1.209   1.652  2.4599  0.7146 -0.9169
  115SOL     OW  343   0.096   0.793   0.005  0.4118 -0.4048  0.9228
  115SOL    HW1  344   0.083   0.805   0.105  0.6485 -0.3428 -2.8814
  115SOL    HW2  345   0.174   0.850   3.071  0.6209  3.2172  1.8852
  116SOL     OW  346   2.850   0.409   0.121 -0.2275 -0.1136  0.1081
  116SOL    HW1  347   2.841   0.429   0.023  0.3226 -0.8071 -1.0737
  116SOL    HW2  348   2.838   0.307   0.134  0.3170  0.9435  0.1117
  117SOL     OW  349   2.831   2.838   0.753  0.2624  0.2059  0.6034
  117SOL    HW1  350   2.852   2.757   0.693 -0.6447 -0.5151 -1.4922
  117SOL    HW2  351   2.776   2.809   0.836 -0.7127  0.8512  0.8534
  118SOL     OW  352   1.038   2.390   2.043 -0.2049 -0.0170  0.5491
  118SOL    HW1  353   1.123   2.344   2.030 -1.0890  0.7399  1.2761
  118SOL    HW2  354   0.957   2.324   2.057 -0.8333 -0.1155  0.0088
  119SOL     OW  355   0.843   2.527   3.094 -0.1626  0.9527  0.1319
  119SOL    HW1  356   0.749   2.495   0.012  0.3586 -0.0624  0.4553
  119SOL    HW2  357   0.910   2.447   3.101  1.9436 -2.6014  0.0776
  120SOL     OW  358   1.385   0.935   0.135 -0.6116  0.2463 -0.1898
  120SOL    HW1  359   1.470   0.909   0.186 -1.0283  2.8644 -1.9061
  120SOL    HW2  360   1.400   0.915   0.036  0.1205  0.1669  0.5255
  121SOL     OW  361   1.334   1.187   1.140 -0.2583  0.2078  0.2204
  121SOL    HW1  362   1.386   1.108   1.165 -0.7365  3.5975  0.0712
  121SOL    HW2  363   1.353   1.219   1.041 -3.0774  2.8836 -1.1321
  122SOL     OW  364   1.934   1.297   2.184  0.4700 -0.4221  0.3802
  122SOL    HW1  365   1.867   1.243   2.132  2.2700 -1.4851 -3.0244
  122SOL    HW2  366   2.010   1.237   2.216 -0.2848 -3.0608  2.3118
  123SOL     OW  367   0.184   0.743   0.534  0.1770  0.1402 -0.2943
  123SOL    HW1  368   0.248   0.821   0.518  0.2162  1.5433 -0.6440
  123SOL    HW2  369   0.142   0.749   0.629  0.6297 -0.1037 -1.1392
  124SOL     OW  370   0.831   0.228   2.812  0.0467 -0.2611 -0.1201
  124SOL    HW1  371   0.799   0.222   2.713 -0.7018 -0.0220 -3.2860
  124SOL    HW2  372   0.858   0.326   2.831 -0.0080 -0.9458 -0.2655
  125SOL     OW  373   0.411   2.713   2.886 -0.1949 -0.2410 -0.6324
  125SOL    HW1  374   0.431   2.622   2.851 -1.3243  0.9963  1.0610
  125SOL    HW2  375   0.311   2.736   2.895 -0.0993 -1.6461  0.3644
  126SOL     OW  376   0.815   1.356   2.646 -0.1665  0.1590 -0.2874
  126SOL    HW1  377   0.815   1.448   2.604 -0.4045 -0.7236 -0.1453
  126SOL    HW2  378   0.900   1.348   2.705 -1.0888  0.3825 -1.9140
  127SOL     OW  379   1.117   2.970   1.013  0.2767  0.8841  0.0297
  127SOL    HW1  380   1.071   2.987   1.101 -0.0201  1.7380 -1.7465
  127SOL    HW2  381   1.150   3.056   0.971 -2.0651  0.3858 -1.6478
  128SOL     OW  382   1.610   2.295   0.182  0.1277  0.3985  0.5935
  128SOL    HW1  383   1.545   2.250   0.119 -1.6726 -0.0643 -0.3603
  128SOL    HW2  384   1.701   2.310   0.138 -1.2517  2.0107 -1.0693
  129SOL     OW  385   1.894   1.727   1.310 -0.1368  0.1633 -0.5074
  129SOL    HW1  386   1.974   1.680   1.265  0.3030 -1.4559 -1.2070
  129SOL    HW2  387   1.827   1.762   1.244  1.8881 -0.6658 -0.0145
  130SOL     OW  388   2.039   1.876   1.487 -1.0941  0.0929 -0.0875
  130SOL    HW1  389   2.007   1.814   1.417  0.9309  1.7835  0.6768
  130SOL    HW2  390   2.055   1.973   1.447  1.8150 -0.3230  0.7445
  131SOL     OW  391   0.896   2.864   1.901 -0.3365 -0.3784  0.4711
  131SOL    HW1  392   0.909   2.764   1.918 -0.2362  1.6848  1.6584
  131SOL    HW2  393   0.798   2.893   1.916 -2.8003  1.9019  0.6404
  132SOL     OW  394   2.633   1.607   0.681 -0.1567  0.0957  0.0438
  132SOL    HW1  395   2.580   1.687   0.711  0.9296  0.5880 -0.5714
  132SOL    HW2  396   2.731   1.617   0.718  3.1113 -0.5201 -1.9082
  133SOL     OW  397   0.679   1.575   1.690 -0.0387 -0.0093 -0.0147
  133SOL    HW1  398   0.590   1.526   1.707  1.4056 -1.3907 -1.1484
  133SOL    HW2  399   0.688   1.667   1.731  1.6170  0.1799  0.8266
  134SOL     OW  400   0.229   1.014   0.875 -0.0886  0.6843  0.1537
  134SOL    HW1  401   0.328   1.030   0.866  0.4046 -0.5508 -0.9698
  134SOL    HW2  402   0.203   0.921   0.829  2.6826 -0.0626 -2.4889
  135SOL     OW  403   1.963   1.910   0.077 -0.6099 -0.2419  0.0114
  135SOL    HW1  404   1.992   1.839   0.149 -0.7493 -3.1246  4.3087
  135SOL    HW2  405   1.870   1.942   0.085  3.9374 -0.9406 -0.9976
  136SOL     OW  406   2.803   1.543   1.289 -0.2622 -0.3138  0.3117
  136SOL    HW1  407   2.857   1.459   1.312  0.8752 -0.2199  0.3670
  136SOL    HW2  408   2.804   1.611   1.369  1.2912  1.3737 -0.2473
  137SOL     OW  409   2.669   1.295   2.775  0.5000  0.1030  0.0296
  137SOL    HW1  410   2.649   1.205   2.729 -0.0196  1.2844 -1.7557
  137SOL    HW2  411   2.642   1.292   2.867 -0.5665 -1.2047 -3.1305
  138SOL     OW  412   3.089   0.242   1.062  0.2928 -0.1367  0.4200
  138SOL    HW1  413   3.038   0.161   1.028  1.5024 -0.6326  4.1978
  138SOL    HW2  414   3.034   0.325   1.055  2.7104 -2.8046 -1.0494
  139SOL     OW  415   1.840   2.278   0.012  0.3408 -0.4426 -0.3857
  139SOL    HW1  416   1.779   2.354   3.085  1.7687  4.9126  0.4818
  139SOL    HW2  417   1.848   2.201   3.054 -3.0335  3.2190  0.6007
  140SOL     OW  418   0.802   1.682   0.779  0.0995  0.5326 -0.5175
  140SOL    HW1  419   0.744   1.614   0.828 -0.0971  1.6598  3.2729
  140SOL    HW2  420   0.796   1.770   0.824  2.0014 -3.9691 -0.3805
  141SOL     OW  421   1.366   1.566   0.965  0.2503 -0.2102 -0.9042
  141SOL    HW1  422   1.361   1.485   0.899 -1.4410 -0.8461 -4.5470
  141SOL    HW2  423   1.443   1.559   1.030  0.0449 -2.2899 -0.6101
  142SOL     OW  424   0.971   0.945   1.059  0.3561  0.4940  0.2634
  142SOL    HW1  425   0.914   0.983   0.982  0.1925  0.1211 -0.0352
  142SOL    HW2  426   0.941   0.852   1.087  0.3683 -1.9032 -0.2429
  143SOL     OW  427   0.180   0.144   2.745  0.2064 -0.4829 -0.0117
  143SOL    HW1  428   0.209   0.110   2.650 -2.0724 -0.1102  1.0950
  143SOL    HW2  429   0.224   0.231   2.763  0.9188 -0.5949  0.0356
  144SOL     OW  430   2.354   0.170   0.484  0.9868  0.2796 -0.1916
  144SOL    HW1  431   2.419   0.250   0.487 -0.4803  1.4270  0.9419
  144SOL    HW2  432   2.259   0.196   0.456 -1.9862  0.3284  0.6091
  145SOL     OW  433   1.932   3.108   2.922  0.3328 -0.6620 -0.0699
  145SOL    HW1  434   1.961   3.103   2.822 -0.2356 -0.6238  0.9870
  145SOL    HW2  435   1.998   3.056   2.980 -1.8960  0.0266  0.2031
  146SOL     OW  436   2.863   2.742   0.314 -0.3272 -0.4958  0.0992
  146SOL    HW1  437   2.863   2.813   0.236 -0.1986  2.0179 -0.5791
  146SOL    HW2  438   2.849   2.646   0.284  0.3263  2.3582  2.2564
  147SOL     OW  439   1.763   1.192   0.236  0.2215 -0.6759  0.1821
  147SOL    HW1  440   1.695   1.204   0.308  0.6502  0.7689  0.9226
  147SOL    HW2  441   1.733   1.147   0.152  2.0500  2.8973 -0.1140
  148SOL     OW  442   0.916   3.019   0.399 -0.5045 -0.2883  0.2116
  148SOL    HW1  443   0.851   2.990   0.326  1.8056 -1.7837  1.9337
  148SOL    HW2  444   0.968   3.105   0.377 -0.3129  2.2200  1.5510
  149SOL     OW  445   1.402   0.515   2.415 -0.6144  0.3445  0.9840
  149SOL    HW1  446   1.345   0.586   2.370 -1.0478  2.6879  1.3977
  149SOL    HW2  447   1.354   0.473   2.488  1.2013  0.3420 -1.9452
  150SOL     OW  448   1.313   2.857   2.740  0.1961  0.1874 -0.0771
  150SOL    HW1  449   1.401   2.837   2.786 -4.9303  1.8777  2.7395
  150SOL    HW2  450   1.235   2.808   2.784 -0.0671  0.5949  0.4489
  151SOL     OW  451   0.250   1.201   2.987 -0.0009 -0.0024  0.4129
  151SOL    HW1  452   0.322   1.269   2.971 -1.6919  1.4705 -2.8194
  151SOL    HW2  453   0.275   1.102   2.969  2.1029 -1.0225 -0.6520
  152SOL     OW  454   0.558   0.141   1.414 -0.0826 -0.8188 -0.6363
  152SOL    HW1  455   0.491   0.218   1.430 -2.1209  0.5779 -1.8869
  152SOL    HW2  456   0.650   0.158   1.456  1.9892 -0.9782  0.1208
  153SOL     OW  457   2.515   3.023   1.604  0.0486 -0.5262 -0.0571
  153SOL    HW1  458   2.460   3.106   1.575 -0.5256 -2.3069  0.0538
  153SOL    HW2  459   2.449   2.954   1.636 -0.4476  2.7745  2.8246
  154SOL     OW  460   2.433   0.258   1.948 -0.2144 -0.7806 -0.2012
  154SOL    HW1  461   2.340   0.249   1.901  0.3293  0.0021  0.1635
  154SOL    HW2  462   2.427   0.304   2.041 -0.2068  1.2645  2.8318
  155SOL     OW  463   0.585   1.094   0.193  0.0007 -0.4501  0.1800
  155SOL    HW1  464   0.646   1.075   0.273  2.0215  0.2038 -4.2375
  155SOL    HW2  465   0.639   1.143   0.119 -0.1236  1.5342  0.6032
  156SOL     OW  466   2.003   1.291   0.161  0.5310 -0.5737 -0.5997
  156SOL    HW1  467   2.082   1.236   0.192 -2.8394 -0.0136  2.5660
  156SOL    HW2  468   1.914   1.241   0.186  1.3404 -1.8182  0.9471
  157SOL     OW  469   1.108   2.121   2.923  0.5995  0.4398  0.0289
  157SOL    HW1  470   1.161   2.120   2.838 -1.2707 -1.3942  0.3059
  157SOL    HW2  471   1.001   2.109   2.905 -4.0971  1.3628 -1.7343
  158SOL     OW  472   1.801   0.694   1.769  0.2632  0.0070  0.2104
  158SOL    HW1  473   1.786   0.594   1.775 -0.3696  1.4911  1.6482
  158SOL    HW2  474   1.725   0.748   1.721  1.2618 -0.2900 -0.3234
  159SOL     OW  475   0.193   0.113   0.525  0.2602  0.1646  0.2980
  159SOL    HW1  476   0.152   0.057   0.594  1.1834  0.3241 -1.5352
  159SOL    HW2  477   0.293   0.106   0.511  1.2894 -2.4813  0.6551
  160SOL     OW  478   2.456   1.586   1.704  0.7571  0.0810 -0.1138
  160SOL    HW1  479   2.514   1.548   1.778  0.4472  1.0484 -0.3979
  160SOL    HW2  480   2.363   1.556   1.723  2.7102 -0.5990  0.7184
  161SOL     OW  481   0.186   3.078   0.218  0.5376 -0.1487 -0.0833
  161SOL    HW1  482   0.195   3.010   0.291 -0.3750  1.6412 -2.1107
  161SOL    HW2  483   0.269   0.027   0.201 -1.8528  0.6056 -1.3297
  162SOL     OW  484   0.116   0.354   2.381  0.5334  0.5109  0.4866
  162SOL    HW1  485   0.024   0.385   2.413 -0.1863  0.3891 -0.6155
  162SOL    HW2  486   0.142   0.267   2.428  0.0603 -0.6531 -1.0907
  163SOL     OW  487   3.074   2.881   2.581  0.2154 -0.0482  0.7203
  163SOL    HW1  488   3.093   2.784   2.608  2.5243  1.4672 -2.6508
  163SOL    HW2  489   2.983   2.910   2.618  1.8364 -0.1863  0.6709
  164SOL     OW  490   2.502   2.061   0.363  0.2428 -0.1829 -0.0582
  164SOL    HW1  491   2.471   2.108   0.279 -0.8953 -0.7593  1.3390
  164SOL    HW2  492   2.419   2.026   0.409  0.9297 -0.3458 -0.9408
  165SOL     OW  493   1.131   0.802   1.548 -0.1810  0.2302  0.2297
  165SOL    HW1  494   1.232   0.807   1.532  1.3328  0.9225  0.7791
  165SOL    HW2  495   1.082   0.771   1.462  3.8831 -0.9913 -0.5724
  166SOL     OW  496   2.988   0.059   0.385 -0.2049 -0.2248 -0.1942
  166SOL    HW1  497   3.018   3.073   0.407 -0.4475  1.3237  0.6831
  166SOL    HW2  498   3.071   0.118   0.390 -3.1297  2.7126  0.5194
  167SOL     OW  499   2.033   0.669   0.902 -0.2385  0.1403  0.0921
  167SOL    HW1  500   2.108   0.651   0.971  1.7945  1.9167 -1.8113
  167SOL    HW2  501   1.952   0.618   0.925  1.2865  2.7805  0.2124
  168SOL     OW  502   1.110   0.354   2.351 -0.0018  0.4741  0.0151
  168SOL    HW1  503   1.181   0.280   2.328 -1.7355 -0.5421  1.2109
  168SOL    HW2  504   1.129   0.384   2.446 -0.1723  0.0371 -1.2613
  169SOL     OW  505   1.256   1.940   1.363  0.2789 -0.7740 -0.0698
  169SOL    HW1  506   1.194   1.872   1.316  2.0755  0.1813 -2.3492
  169SOL    HW2  507   1.208   2.003   1.434 -1.2452  2.9175  4.8778
  170SOL     OW  508   3.032   2.973   1.577 -0.0131  0.1844  0.1702
  170SOL    HW1  509   3.049   2.878   1.541  0.0421 -1.3693  1.1758
  170SOL    HW2  510   3.022   3.039   1.498 -0.8509  2.2415  1.5399
  171SOL     OW  511   2.908   0.479   2.368 -0.2503 -0.4205  0.7231
  171SOL    HW1  512   2.912   0.390   2.420 -0.2366 -1.6857  2.6682
  171SOL    HW2  513   2.810   0.506   2.346  0.6046 -1.9241  0.2725
  172SOL     OW  514   1.385   3.058   1.501 -0.2099  0.0499 -0.3216
  172SOL    HW1  515   1.349   3.030   1.590 -1.2731 -0.9564 -3.6844
  172SOL    HW2  516   1.482   3.082   1.513 -1.2412 -0.2661  0.3224
  173SOL     OW  517   2.815   2.268   2.881  0.4126 -0.1397  0.4291
  173SOL    HW1  518   2.726   2.283   2.930 -0.8493  1.0274 -0.3238
  173SOL    HW2  519   2.825   2.338   2.808  3.4149  1.1114 -2.8786
  174SOL     OW  520   1.849   0.957   0.298 -0.3132  0.4715  0.1742
  174SOL    HW1  521   1.948   0.958   0.268  1.0216 -1.9844 -0.7772
  174SOL    HW2  522   1.804   1.051   0.300  0.3561  0.4565 -0.3801
  175SOL     OW  523   0.858   1.507   1.288 -0.2308 -0.2551  0.4061
  175SOL    HW1  524   0.791   1.576   1.253  0.0646  1.0652  0.0641
  175SOL    HW2  525   0.926   1.545   1.355  2.1235  2.9597  1.1835
  176SOL     OW  526   0.167   3.072   0.782  0.3708 -0.3942 -0.1133
  176SOL    HW1  527   0.254   3.029   0.742 -1.6803 -0.8742 -0.7257
  176SOL    HW2  528   0.104   2.999   0.800  0.6165  1.9700 -2.1094
  177SOL     OW  529   2.842   1.279   0.104  0.0631  0.5188 -0.0894
  177SOL    HW1  530   2.865   1.285   0.206 -0.4314 -0.5218 -2.0408
  177SOL    HW2  531   2.908   1.325   0.044 -0.2282  0.6346 -1.5716
  178SOL     OW  532   2.822   2.650   2.322 -0.1377 -0.6256 -0.5404
  178SOL    HW1  533   2.876   2.658   2.236  0.6389 -2.2991  2.2609
  178SOL    HW2  534   2.792   2.558   2.351 -0.3711  1.3751  0.5050
  179SOL     OW  535   2.329   3.022   0.387 -0.1303 -0.3126 -0.5597
  179SOL    HW1  536   2.399   2.986   0.318 -0.2415  0.8589 -1.3409
  179SOL    HW2  537   2.358   0.010   0.423  1.3682  0.9034 -0.4137
  180SOL     OW  538   2.022   0.614   0.651 -0.1092  0.5030  0.0144
  180SOL    HW1  539   2.018   0.660   0.742  0.1410  0.2137 -0.7423
  180SOL    HW2  540   1.958   0.656   0.585 -1.0453  0.3005 -0.5301
  181SOL     OW  541   2.648   0.196   2.831 -0.0920 -0.0170  0.0193
  181SOL    HW1  542   2.732   0.254   2.843  0.7989  1.4695  2.1029
  181SOL    HW2  543   2.584   0.236   2.757 -3.2450 -0.4396 -1.4340
  182SOL     OW  544   2.720   1.905   2.455  0.8007 -0.0691  0.2573
  182SOL    HW1  545   2.644   1.857   2.500 -0.0211 -0.5586  1.0348
  182SOL    HW2  546   2.680   1.984   2.407 -0.2314  0.4749  1.8577
  183SOL     OW  547   0.125   0.987   1.660  0.5109 -0.0136  0.1437
  183SOL    HW1  548   0.175   1.036   1.585 -2.6637 -0.6384  1.8592
  183SOL    HW2  549   0.187   0.923   1.710 -0.6333 -0.0989  0.0316
  184SOL     OW  550   0.220   1.271   1.211 -0.0577  0.5485 -0.1025
  184SOL    HW1  551   0.162   1.281   1.128 -1.4224 -1.2854 -1.3775
  184SOL    HW2  552   0.229   1.171   1.243  1.2172 -1.6147  2.5709
  185SOL     OW  553   3.067   2.584   1.209 -0.4911  0.2851 -0.1463
  185SOL    HW1  554   3.056   2.562   1.111 -0.5471  0.4319  1.5005
  185SOL    HW2  555   3.019   2.670   1.240 -1.2917 -1.0010 -1.5403
  186SOL     OW  556   1.544   2.738   2.836 -0.1767 -0.3670 -0.2836
  186SOL    HW1  557   1.634   2.712   2.797 -2.0682  0.1839 -0.4625
  186SOL    HW2  558   1.504   2.663   2.892  0.4844  1.5858 -1.4621
  187SOL     OW  559   0.190   1.277   0.665 -0.2717  0.2601  0.0984
  187SOL    HW1  560   0.092   1.290   0.637 -2.1056  0.1347  0.2128
  187SOL    HW2  561   0.210   1.337   0.745  0.7041 -2.9627 -1.0657
  188SOL     OW  562   1.806   1.903   0.344  0.0537 -0.1022 -0.2735
  188SOL    HW1  563   1.769   1.808   0.343  1.8236 -0.2707 -2.3145
  188SOL    HW2  564   1.759   1.954   0.269 -0.4944 -0.5728 -0.6115
  189SOL     OW  565   0.122   1.821   2.879  0.0547 -0.1552 -0.0964
  189SOL    HW1  566   0.093   1.836   2.782  2.5726 -0.7184  1.5345
  189SOL    HW2  567   0.039   1.805   2.939 -0.3058  1.7905 -2.1631
  190SOL     OW  568   2.643   0.563   2.324 -0.4325 -0.0263  0.3361
  190SOL    HW1  569   2.643   0.657   2.283 -1.5429  0.2023  3.7210
  190SOL    HW2  570   2.550   0.519   2.316 -0.5484 -2.3802  0.6212
  191SOL     OW  571   0.604   1.200   2.185 -0.4614  0.1241 -0.2894
  191SOL    HW1  572   0.511   1.238   2.192 -1.3603 -1.6641  1.6739
  191SOL    HW2  573   0.645   1.194   2.278  0.1093 -0.5717 -0.2582
  192SOL     OW  574   1.923   1.203   1.791  0.1497  0.0929 -0.1560
  192SOL    HW1  575   1.889   1.196   1.890  0.2049  1.0625  4.7305
  192SOL    HW2  576   2.022   1.202   1.788 -3.5504 -0.9842 -2.7333
  193SOL     OW  577   0.526   0.015   0.769 -0.3089 -0.1081  0.1895
  193SOL    HW1  578   0.511   0.113   0.749  0.3102 -2.3089 -0.3172
  193SOL    HW2  579   0.627   0.001   0.769 -0.3760 -1.2488 -0.2255
  194SOL     OW  580   1.522   1.896   1.363  0.6231 -0.5392  0.1827
  194SOL    HW1  581   1.548   1.911   1.266 -1.2622  2.1106 -0.6871
  194SOL    HW2  582   1.421   1.909   1.378  0.9373 -0.4698  2.3005
  195SOL     OW  583   1.823   0.539   1.020  0.3527  0.3614 -0.1643
  195SOL    HW1  584   1.881   0.452   1.027  1.4614 -4.2579  3.1179
  195SOL    HW2  585   1.766   0.534   0.932  0.6037 -0.3800  0.4782
  196SOL     OW  586   1.228   1.751   1.776  0.0110 -0.1729  0.5410
  196SOL    HW1  587   1.321   1.759   1.815 -0.7727 -3.3075  0.5258
  196SOL    HW2  588   1.150   1.789   1.831 -0.3099  3.3688  2.2868
  197SOL     OW  589   2.876   2.985   2.736 -0.2843 -0.0212  0.3841
  197SOL    HW1  590   2.925   3.071   2.723  2.0363 -2.1012 -0.1023
  197SOL    HW2  591   2.830   2.987   2.832  0.1669  0.6622  0.4702
  198SOL     OW  592   0.070   0.744   0.765 -0.0570 -0.4768  0.4059
  198SOL    HW1  593   0.085   0.656   0.813  1.1356 -3.2360 -0.1465
  198SOL    HW2  594   3.079   0.744   0.742 -1.0798 -1.0185  0.4929
  199SOL     OW  595   0.521   1.966   0.976  0.5280 -0.1894 -1.1254
  199SOL    HW1  596   0.471   2.054   0.991  0.4947 -2.0647  0.5714
  199SOL    HW2  597   0.617   1.979   0.976  1.0120 -0.3962  0.9079
  200SOL     OW  598   2.564   1.742   0.015 -0.4530  0.0418 -0.0894
  200SOL    HW1  599   2.502   1.794   3.066  0.4766 -0.7914  0.3016
  200SOL    HW2  600   2.643   1.701   3.076 -1.5907 -0.9718 -1.0724
  201SOL     OW  601   1.235   2.617   1.569 -0.1411 -0.4881  0.3930
  201SOL    HW1  602   1.252   2.668   1.480 -0.5979 -0.4050  1.6280
  201SOL    HW2  603   1.138   2.591   1.572  1.1488  2.5584 -2.9879
  202SOL     OW  604   0.982   2.742   0.080 -0.0407 -0.0818  0.3581
  202SOL    HW1  605   0.925   2.655   0.075 -0.8236  0.0026 -2.0328
  202SOL    HW2  606   1.006   2.766   0.178  1.1767  0.1351 -0.1030
  203SOL     OW  607   1.372   0.030   3.097  0.5875 -0.3336 -0.4790
  203SOL    HW1  608   1.381   0.069   3.005  1.3613 -1.7422 -1.5458
  203SOL    HW2  609   1.293   0.082   0.034  0.5077  2.5603 -1.4460
  204SOL     OW  610   0.560   1.553   1.435  0.1485 -0.2715  0.4494
  204SOL    HW1  611   0.596   1.466   1.391 -1.4324 -0.4677 -0.5751
  204SOL    HW2  612   0.616   1.573   1.517 -1.0455 -1.9566 -0.7093
  205SOL     OW  613   1.809   1.095   1.993 -0.4402 -0.2039 -0.0039
  205SOL    HW1  614   1.807   0.992   2.011 -0.7805 -1.9769 -1.9372
  205SOL    HW2  615   1.717   1.136   1.990  0.7882 -0.4317 -0.0789
  206SOL     OW  616   0.124   2.048   0.088  0.2346  0.4667  0.2526
  206SOL    HW1  617   0.176   2.055   3.108  2.4566 -0.1397  0.3449
  206SOL    HW2  618   0.041   1.988   0.084 -0.8712 -0.7375  1.5379
  207SOL     OW  619   0.404   1.999   2.027 -0.1810  0.6365 -0.2619
  207SOL    HW1  620   0.471   2.016   1.955  1.8430  0.5266  2.8956
  207SOL    HW2  621   0.322   1.955   1.989 -1.8434 -3.8362  2.0970
  208SOL     OW  622   0.327   2.517   1.000 -0.5632 -0.0552  0.1311
  208SOL    HW1  623   0.312   2.462   0.918  3.1340  2.7622  3.8027
  208SOL    HW2  624   0.327   2.617   0.969  0.4869  1.9699  1.1751
  209SOL     OW  625   1.026   2.813   2.196  0.3534 -0.5610  0.2493
  209SOL    HW1  626   0.944   2.815   2.263 -1.6698  0.1961  1.4939
  209SOL    HW2  627   0.995   2.842   2.101  0.6014  0.3191 -0.1091
  210SOL     OW  628   2.570   1.106   1.828  0.0270 -0.5796  0.0413
  210SOL    HW1  629   2.558   1.125   1.733  2.5148 -0.8168  3.5719
  210SOL    HW2  630   2.552   1.012   1.850  1.0454 -0.8896  1.8358
  211SOL     OW  631   1.117   3.042   1.884  0.2277 -0.0319  0.0534
  211SOL    HW1  632   1.114   3.077   1.790 -1.5094  1.7660  0.4730
  211SOL    HW2  633   1.033   2.983   1.899  1.3914  2.3517  0.2730
  212SOL     OW  634   2.141   2.680   2.000 -0.3514 -0.2309  0.3341
  212SOL    HW1  635   2.113   2.683   1.900 -0.0201 -2.9696 -2.9062
  212SOL    HW2  636   2.100   2.605   2.053  2.9234  1.4129 -0.2134
  213SOL     OW  637   2.993   0.166   1.732  0.3170 -0.0156 -0.6496
  213SOL    HW1  638   3.071   0.103   1.724 -2.1560  0.7481 -0.7507
  213SOL    HW2  639   2.988   0.206   1.826 -0.2310  2.2196 -0.5510
  214SOL     OW  640   1.068   2.105   0.984 -0.0730  0.0843  0.5744
  214SOL    HW1  641   1.153   2.120   1.042  3.1886  2.3940  0.4845
  214SOL    HW2  642   1.100   2.089   0.891 -1.6321 -0.7507  0.7227
  215SOL     OW  643   2.611   2.024   0.658  0.3437  0.1496 -0.0945
  215SOL    HW1  644   2.703   1.982   0.656 -1.9252 -1.7789 -0.8022
  215SOL    HW2  645   2.579   2.039   0.563  0.2006 -1.4547 -0.6460
  216SOL     OW  646   3.031   0.905   1.825 -0.0971  0.0002 -0.1100
  216SOL    HW1  647   3.103   0.950   1.767 -0.0358 -0.3696 -0.6599
  216SOL    HW2  648   3.029   0.807   1.808  1.1924 -0.9576 -1.3757
  217SOL     OW  649   2.394   0.155   1.578 -0.0527 -0.4060  0.1609
  217SOL    HW1  650   2.326   0.194   1.515  0.2623  1.5087  0.4493
  217SOL    HW2  651   2.459   0.226   1.601  0.8496 -0.5840 -0.0704
  218SOL     OW  652   1.775   2.508   1.568  0.1704 -0.6392  0.0584
  218SOL    HW1  653   1.681   2.532   1.527 -3.2521  0.8225 -4.1517
  218SOL    HW2  654   1.772   2.498   1.669 -1.3870 -0.8300  0.1349
  219SOL     OW  655   2.051   2.465   0.007 -0.7409 -1.0757  0.3182
  219SOL    HW1  656   2.135   2.424   0.049 -0.3471 -0.6383 -1.2276
  219SOL    HW2  657   1.963   2.425   0.044 -0.5762 -2.4971  0.0278
  220SOL     OW  658   1.494   3.025   0.391 -0.0579  0.2612  0.0035
  220SOL    HW1  659   1.517   0.013   0.369  0.1540 -0.3436 -1.2147
  220SOL    HW2  660   1.440   2.979   0.317  0.5473  1.9867  0.1269
  221SOL     OW  661   3.107   2.036   1.591  0.6694 -0.2562 -0.2543
  221SOL    HW1  662   0.075   2.100   1.594  1.0690  0.4591  0.3892
  221SOL    HW2  663   3.022   2.081   1.629 -2.8590  0.9175  1.7194
  222SOL     OW  664   1.802   2.764   1.235  0.0686 -0.4731  0.1586
  222SOL    HW1  665   1.767   2.859   1.223  1.1151  0.5302 -0.9363
  222SOL    HW2  666   1.753   2.705   1.309 -1.2614 -3.3444  2.1172
  223SOL     OW  667   1.451   0.450   1.443  0.3166 -0.5736 -0.3572
  223SOL    HW1  668   1.350   0.452   1.450  2.4628  2.1675  3.5094
  223SOL    HW2  669   1.490   0.440   1.533 -1.8087  2.3076 -3.1517
  224SOL     OW  670   0.058   2.365   1.345  0.0174 -0.1551  0.7760
  224SOL    HW1  671   0.026   2.438   1.279 -1.0439 -1.1279 -0.4737
  224SOL    HW2  672   0.006   2.361   1.430 -0.2456 -0.3245 -0.1603
  225SOL     OW  673   2.473   2.105   1.171 -0.2326  0.2662 -0.0868
  225SOL    HW1  674   2.532   2.176   1.217  0.1561  1.2501  0.1970
  225SOL    HW2  675   2.470   2.118   1.067 -0.0875  0.6016 -2.4171
  226SOL     OW  676   1.475   2.180   3.074  0.1998 -0.2528  0.2665
  226SOL    HW1  677   1.389   2.132   3.086  0.1915  1.1886  0.3192
  226SOL    HW2  678   1.481   2.222   2.976  1.6028 -0.3495 -0.9756
  227SOL     OW  679   2.003   1.218   0.742  0.0593  0.2701  0.6390
  227SOL    HW1  680   1.965   1.265   0.821  0.3492  0.3642 -0.6994
  227SOL    HW2  681   1.952   1.128   0.727  0.9780 -4.2876 -0.5902
  228SOL     OW  682   1.609   0.833   0.220 -0.0606  0.7880 -0.2410
  228SOL    HW1  683   1.603   0.737   0.262 -3.0493 -1.2452  1.1198
  228SOL    HW2  684   1.696   0.877   0.247 -0.6648  2.9276 -0.8336
  229SOL     OW  685   2.808   0.868   2.183  0.6437 -0.2205 -0.3778
  229SOL    HW1  686   2.875   0.804   2.141 -1.4395  0.3402 -0.9610
  229SOL    HW2  687   2.773   0.926   2.104  0.3983  0.8689 -4.6868
  230SOL     OW  688   0.356   1.020   1.162 -0.2089 -0.3267  0.2238
  230SOL    HW1  689   0.444   1.050   1.125 -1.9461  0.3542 -0.0244
  230SOL    HW2  690   0.304   0.976   1.086 -0.8370  1.1708 -0.3572
  231SOL     OW  691   2.200   0.635   2.832  0.3147 -0.3589  0.4567
  231SOL    HW1  692   2.155   0.569   2.894 -2.1037  0.3441 -0.2534
  231SOL    HW2  693   2.298   0.643   2.852 -1.9275  2.8338 -0.4063
  232SOL     OW  694   0.115   1.754   1.158  0.0309 -0.5791 -0.1357
  232SOL    HW1  695   0.071   1.661   1.148  1.6132 -2.2354  0.5078
  232SOL    HW2  696   0.080   1.805   1.236 -1.1816 -1.4591 -1.9836
  233SOL     OW  697   1.705   2.961   2.662 -0.2210  0.3038 -0.5090
  233SOL    HW1  698   1.804   2.976   2.684  2.1176  1.5153 -1.8561
  233SOL    HW2  699   1.648   2.991   2.739 -3.5406 -0.8289  0.1347
  234SOL     OW  700   1.621   2.623   1.365 -0.9005  0.2668  0.6542
  234SOL    HW1  701   1.572   2.713   1.357  1.9148 -0.2296  0.0793
  234SOL    HW2  702   1.568   2.542   1.346 -1.5991  1.3546  0.0794
  235SOL     OW  703   0.853   1.350   1.605  0.4248 -0.2235 -0.1922
  235SOL    HW1  704   0.852   1.450   1.589  0.5635 -1.6983  1.6127
  235SOL    HW2  705   0.930   1.306   1.558  0.1131 -0.4427  0.6409
  236SOL     OW  706   0.554   2.494   2.783 -0.5403 -0.2451 -0.1617
  236SOL    HW1  707   0.655   2.526   2.773  1.7193  2.4842  0.1286
  236SOL    HW2  708   0.553   2.407   2.838  1.7143 -1.1817 -0.9054
  237SOL     OW  709   0.662   2.992   1.711 -0.3019  0.9917  0.1875
  237SOL    HW1  710   0.624   2.943   1.791  2.4030  1.3425 -0.0391
  237SOL    HW2  711   0.595   3.023   1.640 -1.1224  2.2036 -1.2204
  238SOL     OW  712   0.970   0.863   0.370 -0.3434 -0.7010  0.0800
  238SOL    HW1  713   0.988   0.803   0.286 -1.9898 -1.9787 -2.9197
  238SOL    HW2  714   0.928   0.813   0.447  1.5120 -0.9143 -1.7405
  239SOL     OW  715   2.619   0.766   2.831 -0.4990 -0.8230  0.3790
  239SOL    HW1  716   2.549   0.837   2.816  0.2095 -0.0188  1.3185
  239SOL    HW2  717   2.700   0.815   2.867  2.2439 -1.5489 -1.7623
  240SOL     OW  718   2.807   2.131   0.992  0.7069  0.0995  0.1057
  240SOL    HW1  719   2.834   2.064   1.060 -0.3506 -0.6210  2.1975
  240SOL    HW2  720   2.709   2.140   0.976  0.7660  0.1831  1.5550
  241SOL     OW  721   1.184   1.830   0.690 -0.1333  0.1479  0.1673
  241SOL    HW1  722   1.266   1.782   0.662  0.6031  3.3556  1.8211
  241SOL    HW2  723   1.166   1.822   0.792  0.4261 -2.9877  1.9276
  242SOL     OW  724   0.776   0.382   0.821 -0.2935 -0.0327 -0.0819
  242SOL    HW1  725   0.722   0.466   0.845 -0.9713  0.0951  1.2709
  242SOL    HW2  726   0.715   0.311   0.777 -2.0815  1.4071  0.2902
  243SOL     OW  727   0.327   0.432   1.167  0.4289  0.2935 -0.2302
  243SOL    HW1  728   0.347   0.453   1.070 -0.5469 -0.0981  0.8654
  243SOL    HW2  729   0.379   0.348   1.198  1.0542 -1.4766 -0.5882
  244SOL     OW  730   0.810   0.154   0.492 -0.6516 -1.1754 -0.0843
  244SOL    HW1  731   0.890   0.215   0.518  2.9684 -1.6590  1.6433
  244SOL    HW2  732   0.822   0.071   0.546  0.5791  1.0248 -0.1491
  245SOL     OW  733   2.297   1.229   0.222 -0.1229 -0.0542  0.0971
  245SOL    HW1  734   2.384   1.179   0.214 -2.0051  2.3850  0.6097
  245SOL    HW2  735   2.312   1.321   0.264 -1.5278 -3.2494  0.1038
  246SOL     OW  736   0.457   2.966   1.520 -0.3111 -0.1771 -0.1294
  246SOL    HW1  737   0.480   2.878   1.557  3.7821  0.0330  0.0710
  246SOL    HW2  738   0.393   2.958   1.442  0.7166  0.0515  0.9924
  247SOL     OW  739   0.865   0.232   1.933  0.0428 -0.3559 -0.2827
  247SOL    HW1  740   0.810   0.317   1.929  1.5966 -2.8365  0.3606
  247SOL    HW2  741   0.854   0.176   1.848 -0.1653 -0.3984  0.7194
  248SOL     OW  742   0.380   1.654   1.979  0.2398 -0.1514 -0.5222
  248SOL    HW1  743   0.461   1.687   2.031 -1.4234 -1.9714  1.6905
  248SOL    HW2  744   0.412   1.602   1.891  0.6176  0.6283 -0.0663
  249SOL     OW  745   1.004   2.352   0.325 -0.0885  0.3770 -0.3247
  249SOL    HW1  746   0.929   2.307   0.383  1.0905  0.3178  2.9057
  249SOL    HW2  747   1.001   2.454   0.331  0.7794 -1.6585 -2.5014
  250SOL     OW  748   0.587   3.031   2.244 -0.0963 -0.5543 -0.6465
  250SOL    HW1  749   0.485   3.043   2.253 -1.7515  1.0873  1.1935
  250SOL    HW2  750   0.630   0.013   2.239  0.8379 -2.7128  0.6055
  251SOL     OW  751   2.825   2.124   1.628 -0.0634 -0.0177 -0.4041
  251SOL    HW1  752   2.870   2.143   1.714  1.3064  2.6990  0.4838
  251SOL    HW2  753   2.721   2.155   1.632 -3.9531  1.3405 -0.5228
  252SOL     OW  754   1.257   0.291   1.901  0.0542  0.1901 -0.3628
  252SOL    HW1  755   1.259   0.212   1.964  3.9605 -0.0798  1.4470
  252SOL    HW2  756   1.251   0.265   1.802  2.2646  1.0041 -1.5595
  253SOL     OW  757   2.430   1.750   2.362  0.0388  0.9328 -0.5279
  253SOL    HW1  758   2.473   1.696   2.284  1.2985 -1.2131  1.3015
  253SOL    HW2  759   2.371   1.823   2.320  1.9380  0.9522  0.0516
  254SOL     OW  760   0.707   1.479   0.932  0.0711  0.3040  0.6344
  254SOL    HW1  761   0.651   1.398   0.953  1.4179 -1.6234 -1.3874
  254SOL    HW2  762   0.803   1.448   0.950  1.5941 -2.3610  0.2431
  255SOL     OW  763   0.041   2.449   1.795 -0.3473 -0.1325  0.0034
  255SOL    HW1  764   3.097   2.390   1.730  0.6460 -1.9775 -0.9917
  255SOL    HW2  765   0.122   2.486   1.752 -0.6679 -0.0980  1.2705
  256SOL     OW  766   0.476   2.955   0.273 -0.7252  0.3206  0.5043
  256SOL    HW1  767   0.577   2.952   0.272 -1.3686  3.8619 -1.2421
  256SOL    HW2  768   0.441   2.965   0.179  2.8297  0.8145  2.6589
  257SOL     OW  769   1.001   2.502   2.287 -0.1662  1.1528 -0.5240
  257SOL    HW1  770   1.067   2.578   2.306 -0.1428  1.6106  3.0202
  257SOL    HW2  771   1.010   2.451   2.195 -1.4754 -3.9819 -1.1763
  258SOL     OW  772   1.785   2.031   2.222 -0.4155  0.3097  0.1354
  258SOL    HW1  773   1.699   1.980   2.218  2.0010 -1.6865  2.1263
  258SOL    HW2  774   1.837   2.023   2.135 -0.3742  0.4682  1.0073
  259SOL     OW  775   0.498   0.587   2.354 -0.0514  0.3075  0.1232
  259SOL    HW1  776   0.418   0.555   2.303  1.0284  0.3697  3.3992
  259SOL    HW2  777   0.537   0.666   2.300 -0.6327  1.2730  0.2929
  260SOL     OW  778   2.717   0.857   3.088  0.2637 -0.2712  0.0323
  260SOL    HW1  779   2.739   0.868   0.079  2.6848 -0.8746 -0.8545
  260SOL    HW2  780   2.804   0.851   3.038  2.3090 -1.6830  0.8371
  261SOL     OW  781   1.055   1.187   0.730  0.4578 -0.1694  0.3191
  261SOL    HW1  782   0.999   1.237   0.661 -0.4382 -2.0464  0.0689
  261SOL    HW2  783   1.106   1.256   0.787  2.7286 -0.2623  2.2898
  262SOL     OW  784   1.979   2.560   2.603  0.6448  0.7201  0.1565
  262SOL    HW1  785   2.054   2.589   2.540 -1.5163 -1.2364 -1.3495
  262SOL    HW2  786   2.014   2.514   2.685 -1.0195  0.0313 -1.8396
  263SOL     OW  787   0.689   2.721   1.001 -0.4972  0.1590 -0.7120
  263SOL    HW1  788   0.780   2.689   1.032 -0.7807  1.6699 -2.2776
  263SOL    HW2  789   0.626   2.728   1.080  0.6279 -1.9472 -2.8429
  264SOL     OW  790   2.979   1.842   0.915  0.4263  0.7662 -0.2245
  264SOL    HW1  791   2.936   1.753   0.885 -1.8083 -2.2762  1.8533
  264SOL    HW2  792   3.085   1.838   0.915  1.7532 -0.0697 -2.7987
  265SOL     OW  793   1.841   1.405   2.576 -0.8071  0.5133  0.0236
  265SOL    HW1  794   1.916   1.332   2.576 -0.3006  1.1082  1.0438
  265SOL    HW2  795   1.868   1.484   2.634  0.9826  0.7271  1.7123
  266SOL     OW  796   1.582   1.860   2.146  0.2970  0.0824  0.1841
  266SOL    HW1  797   1.639   1.782   2.126 -1.2847  1.1200 -3.3007
  266SOL    HW2  798   1.502   1.838   2.202  0.4058  2.1447 -3.3215
  267SOL     OW  799   2.383   0.556   2.474 -0.7869  0.3600 -0.2032
  267SOL    HW1  800   2.352   0.630   2.537  2.4676 -1.5868 -2.3092
  267SOL    HW2  801   2.304   0.500   2.441  0.4848 -0.6950  1.1993
  268SOL     OW  802   1.122   1.055   2.939  0.3387 -0.1994 -0.0365
  268SOL    HW1  803   1.068   1.143   2.925 -1.3165  0.5659  0.9703
  268SOL    HW2  804   1.157   1.023   2.853 -0.8880 -0.9663 -2.0799
  269SOL     OW  805   2.946   1.889   2.063  0.4562 -0.4381  1.0305
  269SOL    HW1  806   2.963   1.844   2.153  1.3135 -0.2373 -1.7212
  269SOL    HW2  807   2.846   1.877   2.035 -0.1803 -2.6028 -1.6374
  270SOL     OW  808   3.024   1.490   0.055  0.5555 -0.1413  0.0006
  270SOL    HW1  809   3.036   1.586   0.047  1.0566 -2.0882 -0.2341
  270SOL    HW2  810   0.001   1.455   0.105 -1.3812 -0.6948 -0.0380
  271SOL     OW  811   0.630   0.267   0.343  0.1731  0.1540  0.1511
  271SOL    HW1  812   0.700   0.212   0.390 -2.9030  0.2662 -0.4684
  271SOL    HW2  813   0.662   0.366   0.346 -1.6228  1.0536 -0.3190
  272SOL     OW  814   3.067   2.919   0.429  0.3084  0.0953 -0.2373
  272SOL    HW1  815   0.046   2.892   0.478 -0.3840 -1.3312 -1.3312
  272SOL    HW2  816   3.022   2.844   0.375  0.8057  0.7847 -1.8937
  273SOL     OW  817   0.107   2.777   2.073  0.5615  0.2381  0.2248
  273SOL    HW1  818   0.173   2.745   2.145 -0.4627 -1.0467 -1.5305
  273SOL    HW2  819   0.020   2.726   2.086 -2.5128 -0.9325  2.7373
  274SOL     OW  820   0.341   0.299   1.478 -0.8096 -0.1268  0.3689
  274SOL    HW1  821   0.244   0.271   1.469  0.4973 -1.0513  1.4520
  274SOL    HW2  822   0.354   0.398   1.498  2.7940  0.6363  0.3361
  275SOL     OW  823   1.081   1.752   1.233 -0.0373  0.0093  0.5821
  275SOL    HW1  824   1.002   1.806   1.203  0.7132  0.4452  4.1821
  275SOL    HW2  825   1.050   1.705   1.319  1.5146  0.0144 -1.5498
  276SOL     OW  826   0.180   1.484   1.960 -0.6610  0.0740 -0.0887
  276SOL    HW1  827   0.265   1.544   1.968  1.0348  3.2564  1.6951
  276SOL    HW2  828   0.204   1.384   1.953 -0.0881  0.1188 -0.4000
  277SOL     OW  829   1.282   2.293   2.064 -0.4263 -0.2046  0.5457
  277SOL    HW1  830   1.304   2.393   2.054 -2.1369  1.5189 -0.0463
  277SOL    HW2  831   1.371   2.245   2.083  0.2120 -0.2747  1.1111
  278SOL     OW  832   1.946   3.029   2.401 -0.5379  0.2472  0.0216
  278SOL    HW1  833   1.944   2.927   2.391 -1.1650 -0.2703 -2.3993
  278SOL    HW2  834   2.007   3.069   2.332  1.9580 -0.0602  1.4446
  279SOL     OW  835   1.395   1.531   3.105  0.2773 -0.9105  0.7264
  279SOL    HW1  836   1.456   1.488   0.068  0.3102 -1.7423 -1.1429
  279SOL    HW2  837   1.451   1.591   3.043  1.7494  1.5240  0.7890
  280SOL     OW  838   1.178   0.703   0.963 -0.3636  0.0083  0.5706
  280SOL    HW1  839   1.206   0.799   0.937  1.7829 -0.3829  2.1334
  280SOL    HW2  840   1.087   0.710   1.011 -2.7000  0.2396  0.9062
  281SOL     OW  841   3.097   0.430   2.022 -0.2869 -0.0550 -0.4516
  281SOL    HW1  842   0.065   0.449   1.953 -0.4057  1.7949 -3.2508
  281SOL    HW2  843   3.075   0.510   2.086 -0.6058  2.8428  0.9636
  282SOL     OW  844   0.206   2.856   0.515 -0.0972 -0.0958 -0.8241
  282SOL    HW1  845   0.270   2.821   0.584 -0.6200 -0.6500 -2.7216
  282SOL    HW2  846   0.254   2.867   0.425 -0.0481  1.3125 -0.1263
  283SOL     OW  847   1.353   2.242   1.525  0.5044  0.5211 -0.7171
  283SOL    HW1  848   1.259   2.210   1.496 -0.7538  0.4993  2.2499
  283SOL    HW2  849   1.354   2.249   1.626 -0.1251  2.9885 -2.1187
  284SOL     OW  850   2.040   2.573   1.485 -0.3679  0.1684  0.1695
  284SOL    HW1  851   2.036   2.615   1.394  0.5173  0.0275 -0.4803
  284SOL    HW2  852   1.947   2.536   1.502  3.3736  1.7549 -1.3683
  285SOL     OW  853   0.842   1.868   1.176 -0.0328  0.0101  0.5790
  285SOL    HW1  854   0.774   1.791   1.174 -3.3538  0.0552 -2.5895
  285SOL    HW2  855   0.820   1.921   1.092 -1.2496  2.1336 -1.1554
  286SOL     OW  856   2.970   2.638   2.091 -0.0633 -0.4543  0.2919
  286SOL    HW1  857   2.941   2.665   1.992 -0.3563 -0.0302 -1.2601
  286SOL    HW2  858   3.000   2.542   2.096 -2.9212  0.5199  3.3784
  287SOL     OW  859   0.472   1.259   0.625  0.2329 -1.2578 -0.5348
  287SOL    HW1  860   0.487   1.358   0.593  0.6452  2.0170 -1.8440
  287SOL    HW2  861   0.372   1.239   0.622  1.2759 -1.2479 -0.0227
  288SOL     OW  862   1.290   2.187   2.645 -0.1153 -0.3717 -0.0328
  288SOL    HW1  863   1.221   2.225   2.581 -0.8364  3.1559  0.8558
  288SOL    HW2  864   1.296   2.086   2.653  1.4188 -0.9792  0.2987
  289SOL     OW  865   2.088   1.224   2.499 -0.1615  0.2114  0.1774
  289SOL    HW1  866   2.150   1.299   2.504  1.8189  2.1950  3.6940
  289SOL    HW2  867   2.075   1.191   2.402  0.3098 -0.2142  0.8926
  290SOL     OW  868   1.748   1.892   0.598 -0.1177  0.5145 -0.3889
  290SOL    HW1  869   1.781   1.890   0.501  2.6132  2.6911 -0.1832
  290SOL    HW2  870   1.764   1.987   0.632  2.2542  2.4782  0.1165
  291SOL     OW  871   1.371   0.900   2.974  0.7575 -0.0997 -0.4641
  291SOL    HW1  872   1.328   0.919   2.886 -1.4411 -0.4936 -1.3373
  291SOL    HW2  873   1.391   0.802   2.992  0.3978  0.6894  0.0119
  292SOL     OW  874   2.013   1.712   0.618 -0.3237 -0.2040  0.2990
  292SOL    HW1  875   2.067   1.638   0.575  2.0047  1.2349  2.5637
  292SOL    HW2  876   2.055   1.806   0.610 -1.1198  1.8218 -1.1858
  293SOL     OW  877   1.740   0.216   1.061 -0.2348  0.1863  0.5346
  293SOL    HW1  878   1.828   0.232   1.111  2.3045  0.8343 -0.9112
  293SOL    HW2  879   1.660   0.241   1.118  0.8330 -1.3840  0.6349
  294SOL     OW  880   2.556   1.089   0.240 -0.0569  0.2156  0.7759
  294SOL    HW1  881   2.565   1.028   0.323  1.1126 -2.6342 -1.5013
  294SOL    HW2  882   2.645   1.116   0.197  1.1477  0.0887  1.7003
  295SOL     OW  883   2.107   1.773   2.641  0.2271  0.0655 -0.2647
  295SOL    HW1  884   2.129   1.834   2.564 -0.1365  0.1081 -1.0417
  295SOL    HW2  885   2.191   1.738   2.686 -3.2025 -0.4092  3.1126
  296SOL     OW  886   1.185   1.760   0.969 -0.2285 -0.4031  0.0441
  296SOL    HW1  887   1.257   1.690   0.957 -1.7056  1.0687 -0.6759
  296SOL    HW2  888   1.138   1.751   1.060 -0.2118  1.3971 -1.5324
  297SOL     OW  889   0.478   0.713   2.752 -0.2539  0.0676  0.5292
  297SOL    HW1  890   0.397   0.732   2.693 -3.0081  1.0631  0.1397
  297SOL    HW2  891   0.456   0.728   2.848  0.0005 -2.8114  1.3576
  298SOL     OW  892   1.636   2.847   1.718  0.2619 -0.6294  0.5751
  298SOL    HW1  893   1.714   2.820   1.780 -2.6777  1.3550 -0.5200
  298SOL    HW2  894   1.584   2.766   1.682 -0.6637  0.3732 -0.3621
  299SOL     OW  895   1.151   0.485   2.589 -0.0520  0.1245 -0.5191
  299SOL    HW1  896   1.063   0.533   2.602 -1.0768 -1.3090  0.9816
  299SOL    HW2  897   1.189   0.444   2.676 -0.5132  1.2761 -1.5501
  300SOL     OW  898   1.973   1.394   3.031  0.0591 -0.0779  0.1869
  300SOL    HW1  899   1.992   1.356   0.021  2.0496 -0.0552  1.1328
  300SOL    HW2  900   1.957   1.318   2.962  0.8579 -1.4746  0.6561
  301SOL     OW  901   2.210   0.374   2.354 -0.2463 -0.1894 -0.1992
  301SOL    HW1  902   2.230   0.285   2.404 -3.6185 -1.2350  0.2833
  301SOL    HW2  903   2.130   0.361   2.295  1.1715  3.9947 -0.4101
  302SOL     OW  904   2.485   1.709   2.625 -0.1487  0.6692  0.2165
  302SOL    HW1  905   2.548   1.627   2.614  2.7789 -4.0370 -0.0806
  302SOL    HW2  906   2.446   1.721   2.533  0.7853 -0.8684  2.4131
  303SOL     OW  907   0.175   2.427   2.283 -0.0684  0.4712 -0.7614
  303SOL    HW1  908   0.088   2.418   2.224 -2.2637  0.6690 -1.3296
  303SOL    HW2  909   0.161   2.401   2.383  0.8424 -1.8015  2.7976
  304SOL     OW  910   0.045   1.204   0.972 -0.1025 -0.0243  0.3062
  304SOL    HW1  911   0.010   1.264   0.897  2.9275 -0.5907 -0.1925
  304SOL    HW2  912   0.114   1.134   0.931  1.9051 -1.6998 -3.6268
  305SOL     OW  913   2.986   0.214   2.118  0.7837  0.0313  0.0359
  305SOL    HW1  914   3.021   0.293   2.064  0.5487 -0.8741 -2.7480
  305SOL    HW2  915   3.061   0.158   2.156 -0.8020 -1.5367 -1.0351
  306SOL     OW  916   1.427   1.667   0.639  0.3982 -0.1418  0.0146
  306SOL    HW1  917   1.523   1.673   0.679 -1.6624  0.8811  0.1080
  306SOL    HW2  918   1.415   1.730   0.561  1.0161 -0.0698  1.2020
  307SOL     OW  919   2.867   2.763   1.297  0.0617  0.3227 -0.1012
  307SOL    HW1  920   2.898   2.807   1.206  2.0515 -0.7632  1.5299
  307SOL    HW2  921   2.817   2.831   1.355 -2.8000 -0.0306  1.7381
  308SOL     OW  922   2.872   1.870   2.671 -0.3639 -0.2384  0.6456
  308SOL    HW1  923   2.884   1.767   2.668 -0.7592 -1.7111 -3.1461
  308SOL    HW2  924   2.828   1.897   2.586 -3.1518 -0.3792 -2.4556
  309SOL     OW  925   0.235   2.072   2.950  0.0918 -0.0252  0.1094
  309SOL    HW1  926   0.201   1.980   2.906 -2.5008 -0.4424  0.8090
  309SOL    HW2  927   0.246   2.140   2.877  0.9334 -1.1946 -0.6438
  310SOL     OW  928   2.225   0.542   0.074 -0.1197  0.0830 -0.1906
  310SOL    HW1  929   2.259   0.637   0.090 -0.5219  0.9568  1.4857
  310SOL    HW2  930   2.282   0.471   0.125  1.7612 -0.9871  3.7264
  311SOL     OW  931   1.998   1.172   2.864  0.1078 -0.5887  0.0938
  311SOL    HW1  932   1.958   1.107   2.797  0.6817  0.1778 -2.3483
  311SOL    HW2  933   2.036   1.114   2.943 -1.8808 -1.2525  0.4965
  312SOL     OW  934   1.124   1.273   2.152 -0.1845 -0.1758  0.3499
  312SOL    HW1  935   1.066   1.282   2.235  0.6905 -0.2470 -1.3961
  312SOL    HW2  936   1.091   1.196   2.089 -1.1255 -2.2111  2.2553
  313SOL     OW  937   0.596   0.165   0.069 -0.7138  0.1514 -0.2170
  313SOL    HW1  938   0.515   0.204   0.026 -0.4094 -0.4690 -0.6721
  313SOL    HW2  939   0.623   0.202   0.160  0.1523 -2.6225 -1.9950
  314SOL     OW  940   0.493   1.832   1.381 -0.0937  0.0873  0.1289
  314SOL    HW1  941   0.521   1.736   1.392  0.6624 -1.4346  2.9556
  314SOL    HW2  942   0.577   1.889   1.393 -1.4004 -0.5471 -2.6615
  315SOL     OW  943   1.589   2.109   1.507 -0.4440 -0.4395 -0.3144
  315SOL    HW1  944   1.557   2.028   1.451 -0.9073 -1.3766  0.3160
  315SOL    HW2  945   1.505   2.166   1.517 -2.6932  1.9095 -1.5678
  316SOL     OW  946   0.601   2.303   0.274  0.1540 -0.0375  0.2870
  316SOL    HW1  947   0.596   2.201   0.257  1.2306  1.2347 -0.5248
  316SOL    HW2  948   0.676   2.324   0.339  0.3776 -0.3850 -0.0480
  317SOL     OW  949   2.731   0.298   1.121  0.2609 -0.8608  0.1614
  317SOL    HW1  950   2.737   0.234   1.199  0.0079  1.7910 -2.4437
  317SOL    HW2  951   2.714   0.257   1.031  3.1313  2.7603 -2.4954
  318SOL     OW  952   1.018   2.618   0.363 -0.3808  0.2670  0.6937
  318SOL    HW1  953   1.028   2.598   0.461 -1.1452  1.9185 -0.9653
  318SOL    HW2  954   1.064   2.707   0.333  0.2851  1.9662 -0.9619
  319SOL     OW  955   1.240   0.268   2.899  0.1157 -0.2084  0.3828
  319SOL    HW1  956   1.192   0.182   2.877 -0.7173 -0.1040  2.0455
  319SOL    HW2  957   1.245   0.297   2.998 -0.9612  1.5838  1.6465
  320SOL     OW  958   2.311   1.816   1.754 -0.1473 -0.4840 -0.5060
  320SOL    HW1  959   2.210   1.817   1.760  0.9437 -1.7355 -1.8526
  320SOL    HW2  960   2.346   1.727   1.719 -0.5046  0.3945 -0.5111
  321SOL     OW  961   0.018   3.007   0.020 -0.2346 -0.2809  0.3295
  321SOL    HW1  962   0.087   3.036   0.090  0.4777 -0.0807 -0.4727
  321SOL    HW2  963   0.006   2.906   0.014  1.0605 -0.4773  1.1388
  322SOL     OW  964   2.362   0.860   1.232 -0.3053  0.1820 -0.0026
  322SOL    HW1  965   2.377   0.901   1.326 -1.2257 -1.1044 -2.2011
  322SOL    HW2  966   2.305   0.923   1.175  3.6614  0.4716  0.5418
  323SOL     OW  967   1.964   1.542   0.267 -0.2944  0.5336 -0.0461
  323SOL    HW1  968   1.868   1.568   0.276  1.0946  0.2631 -0.4272
  323SOL    HW2  969   1.982   1.447   0.237  1.6036  1.5007  0.8186
  324SOL     OW  970   0.063   0.272   1.484  0.0196 -0.2748  0.2161
  324SOL    HW1  971   0.046   0.359   1.438 -0.0214 -1.1303  0.3160
  324SOL    HW2  972   0.017   0.272   1.574 -2.1687 -0.9155 -5.5254
  325SOL     OW  973   2.717   2.836   1.009 -0.1364 -0.3254  0.1444
  325SOL    HW1  974   2.648   2.785   1.061  0.8534 -0.6434 -0.0902
  325SOL    HW2  975   2.691   2.936   0.993  2.0563  0.5626 -3.1740
  326SOL     OW  976   1.626   2.999   0.640  0.4651  0.5309 -0.1558
  326SOL    HW1  977   1.583   3.034   0.553  1.5096  0.0972 -1.2815
  326SOL    HW2  978   1.659   2.903   0.631  1.8635  0.8912  1.0556
  327SOL     OW  979   2.285   2.587   0.359  0.1416  0.0477  0.9815
  327SOL    HW1  980   2.217   2.645   0.405  0.8859 -2.5311  1.3463
  327SOL    HW2  981   2.293   2.621   0.263  1.7127 -0.6578 -0.1594
  328SOL     OW  982   2.866   2.428   1.869 -0.3894  0.3254 -0.6674
  328SOL    HW1  983   2.879   2.337   1.905 -1.1915  2.8350  0.6973
  328SOL    HW2  984   2.941   2.475   1.818 -0.8636 -2.6931 -1.1137
  329SOL     OW  985   0.152   2.169   0.719 -0.1990 -0.1231  0.0462
  329SOL    HW1  986   0.106   2.170   0.810 -0.2353  0.6059 -1.4328
  329SOL    HW2  987   0.243   2.124   0.739  0.3925  0.4401 -1.7703
  330SOL     OW  988   2.203   1.010   1.911 -0.0373  0.4115 -0.1222
  330SOL    HW1  989   2.212   1.101   1.865 -0.0849 -0.6919 -1.5677
  330SOL    HW2  990   2.117   0.971   1.874  1.9251 -4.9679  1.9214
  331SOL     OW  991   2.229   1.881   0.702 -0.0492 -0.5334  0.6441
  331SOL    HW1  992   2.323   1.847   0.715  1.5003  2.1128  1.7658
  331SOL    HW2  993   2.214   1.952   0.775 -1.0867 -3.2591 -0.1382
  332SOL     OW  994   0.211   2.659   1.400  0.5426  0.3140 -0.3167
  332SOL    HW1  995   0.114   2.653   1.364 -0.0917  0.9655  1.7768
  332SOL    HW2  996   0.251   2.750   1.388  0.1151  0.0329  0.5142
  333SOL     OW  997   3.064   1.531   1.803  0.7011  0.1769 -0.4372
  333SOL    HW1  998   0.047   1.505   1.849  4.3639 -1.2741  1.6441
  333SOL    HW2  999   3.068   1.616   1.752  1.0260 -0.5308  0.7175
  334SOL     OW 1000   0.334   0.575   1.413  0.7200  0.4085 -0.3144
  334SOL    HW1 1001   0.250   0.629   1.434  0.8098 -3.0219 -0.3146
  334SOL    HW2 1002   0.326   0.530   1.320 -2.1245  3.6863 -0.8772
  335SOL     OW 1003   2.770   1.588   1.829 -0.3393  0.0542  0.2411
  335SOL    HW1 1004   2.706   1.506   1.840  1.7415 -2.5764  0.4460
  335SOL    HW2 1005   2.864   1.550   1.839  0.8267  0.0591 -0.7451
  336SOL     OW 1006   1.678   3.069   3.013 -0.0693 -0.4198 -0.9281
  336SOL    HW1 1007   1.674   2.968   3.046  2.6034 -5.6695  0.9331
  336SOL    HW2 1008   1.773   3.097   2.999 -0.1160 -0.1943  0.1461
  337SOL     OW 1009   0.778   0.419   1.350  0.0341  0.1468 -0.0279
  337SOL    HW1 1010   0.779   0.371   1.257 -0.9108 -0.3842 -1.6549
  337SOL    HW2 1011   0.699   0.490   1.345 -1.4674  0.6950  0.1793
  338SOL     OW 1012   1.531   2.320   0.946  0.2565  0.0432 -0.4800
  338SOL    HW1 1013   1.613   2.287   0.889  3.0783 -0.2586 -0.9644
  338SOL    HW2 1014   1.545   2.317   1.049  0.5266 -0.0720  2.5038
  339SOL     OW 1015   0.396   1.717   1.162  0.2313  0.4842 -0.3438
  339SOL    HW1 1016   0.296   1.695   1.174 -1.9398  2.1791  1.0212
  339SOL    HW2 1017   0.419   1.799   1.220  0.3397  1.4632  1.3881
  340SOL     OW 1018   0.306   3.049   2.252 -0.8088  0.6589  0.0235
  340SOL    HW1 1019   0.246   3.075   2.175  1.2241 -0.1253 -0.6054
  340SOL    HW2 1020   0.274   2.967   2.302 -0.4476  2.2621 -2.1362
  341SOL     OW 1021   2.383   1.462   0.713 -0.1165  0.5874 -0.4133
  341SOL    HW1 1022   2.302   1.500   0.659 -1.7117  2.7252 -1.7644
  341SOL    HW2 1023   2.469   1.477   0.667  0.1250 -1.4678 -0.2758
  342SOL     OW 1024   1.636   2.171   0.438  0.0141 -0.1644 -0.2305
  342SOL    HW1 1025   1.614   2.192   0.338  1.4848  1.3983 -3.3098
  342SOL    HW2 1026   1.619   2.252   0.503  1.1911  0.3620 -0.5586
  343SOL     OW 1027   1.882   0.175   0.808 -0.2700  0.1253 -0.4030
  343SOL    HW1 1028   1.827   0.179   0.897  1.2115  1.6050 -1.6463
  343SOL    HW2 1029   1.969   0.121   0.813 -1.5077 -0.9782 -2.7620
  344SOL     OW 1030   2.452   0.317   3.022  0.0880  0.1056  0.1186
  344SOL    HW1 1031   2.439   0.415   2.993  0.9468  0.4781 -0.0167
  344SOL    HW2 1032   2.531   0.275   2.972  1.9006  1.3115  1.2877
  345SOL     OW 1033   1.327   0.076   1.278 -0.2380 -0.7044 -0.1475
  345SOL    HW1 1034   1.349   0.011   1.204  1.8177  0.2584  3.0277
  345SOL    HW2 1035   1.347   0.030   1.365 -0.8522  2.1140  1.4305
  346SOL     OW 1036   2.238   2.250   1.737 -0.2820  0.0490 -0.5322
  346SOL    HW1 1037   2.163   2.299   1.787  1.1606  0.6290  0.0284
  346SOL    HW2 1038   2.203   2.167   1.692 -1.8442  2.3314  0.7010
  347SOL     OW 1039   2.624   2.952   0.586  0.5928 -0.0395  0.4299
  347SOL    HW1 1040   2.720   2.939   0.616 -2.0594  1.1834 -1.7615
  347SOL    HW2 1041   2.603   3.051   0.603  0.5308  0.3639  0.8799
  348SOL     OW 1042   0.645   1.052   1.084 -0.4470  0.3251 -0.0024
  348SOL    HW1 1043   0.733   1.046   1.033  3.5020 -2.4286  0.5662
  348SOL    HW2 1044   0.661   1.084   1.182  0.1793  1.7819  3.9365
  349SOL     OW 1045   2.272   0.079   0.160 -0.0018 -0.1233  0.0751
  349SOL    HW1 1046   2.273   0.175   0.187  0.2913 -0.5834  1.5750
  349SOL    HW2 1047   2.273   0.020   0.242  0.2807 -0.0852  2.0077
  350SOL     OW 1048   2.393   2.006   3.044 -0.9080  0.0700  0.4127
  350SOL    HW1 1049   2.298   1.976   3.058 -2.0872  0.6372  1.3209
  350SOL    HW2 1050   2.420   1.978   2.948 -0.5254 -2.3858 -2.1831
  351SOL     OW 1051   0.972   0.500   0.656  0.2869  0.0293  0.0076
  351SOL    HW1 1052   1.055   0.476   0.711  1.6889  0.4942  2.9311
  351SOL    HW2 1053   0.889   0.464   0.708  1.5321  0.4631 -2.3279
  352SOL     OW 1054   2.069   2.401   2.833  0.0618  0.8180  0.2689
  352SOL    HW1 1055   2.091   2.302   2.834 -2.4816  1.1584 -0.5886
  352SOL    HW2 1056   2.072   2.431   2.935  2.1794 -1.2911  3.4158
  353SOL     OW 1057   0.697   0.542   0.023  0.1509 -0.4061 -0.3065
  353SOL    HW1 1058   0.704   0.644   0.004  1.2554  2.9051  0.0367
  353SOL    HW2 1059   0.593   0.516   0.044 -1.8185  0.0596 -0.4985
  354SOL     OW 1060   0.859   1.854   2.861 -0.1250  0.0126  0.1807
  354SOL    HW1 1061   0.778   1.812   2.914 -1.0321  0.8581 -1.2884
  354SOL    HW2 1062   0.946   1.804   2.867 -0.5738  0.3168  0.2737
  355SOL     OW 1063   2.870   2.730   1.816 -0.8628  0.4824  0.2635
  355SOL    HW1 1064   2.849   2.691   1.726 -0.0853 -1.3351  0.5063
  355SOL    HW2 1065   2.864   2.830   1.815  2.6830 -1.9301  0.6555
  356SOL     OW 1066   2.915   0.759   0.730  0.0573 -0.3310 -0.1302
  356SOL    HW1 1067   2.851   0.837   0.755 -1.7055 -0.1738  1.8324
  356SOL    HW2 1068   2.882   0.708   0.650  0.3688  0.8727  2.4451
  357SOL     OW 1069   2.413   0.371   1.201 -0.0296 -0.2812 -0.3291
  357SOL    HW1 1070   2.441   0.468   1.224  3.4261  2.7812  2.0370
  357SOL    HW2 1071   2.349   0.335   1.270  0.8388  2.1735  1.2115
  358SOL     OW 1072   1.236   2.754   1.334 -0.5306 -0.3374  0.1493
  358SOL    HW1 1073   1.188   2.725   1.248  1.8509  1.4486  2.6174
  358SOL    HW2 1074   1.330   2.784   1.315 -0.5245 -0.7543  0.8433
  359SOL     OW 1075   0.034   2.225   2.716 -0.4026  0.4028  0.3302
  359SOL    HW1 1076   3.105   2.132   2.698  1.4023  2.0131 -1.5721
  359SOL    HW2 1077   0.039   2.245   2.815  2.4869 -0.9069  1.0893
  360SOL     OW 1078   0.499   1.009   1.581  0.0930 -0.8862  0.4345
  360SOL    HW1 1079   0.457   1.033   1.669  4.1032  0.2363 -1.3936
  360SOL    HW2 1080   0.565   0.933   1.593 -0.1487  0.7453 -0.3267
  361SOL     OW 1081   2.418   2.793   0.681 -0.0284 -0.5234  0.1371
  361SOL    HW1 1082   2.333   2.833   0.637 -1.5729  0.5106  0.4873
  361SOL    HW2 1083   2.503   2.841   0.644  1.7105  1.9871 -0.7470
  362SOL     OW 1084   2.978   2.875   1.075 -0.5176  0.3501  0.3220
  362SOL    HW1 1085   3.059   2.858   1.012  1.5023 -0.7396 -2.1123
  362SOL    HW2 1086   2.889   2.888   1.025 -0.8408 -0.7602  0.9119
  363SOL     OW 1087   0.876   1.554   0.513 -0.0070 -0.6304  0.6149
  363SOL    HW1 1088   0.891   1.448   0.516 -1.6987 -2.3121 -0.7932
  363SOL    HW2 1089   0.827   1.593   0.591 -0.2296  1.5352  1.8771
  364SOL     OW 1090   0.646   1.337   1.279 -0.0195  0.0808  0.0372
  364SOL    HW1 1091   0.655   1.256   1.335  1.6414 -0.5194 -0.2115
  364SOL    HW2 1092   0.736   1.380   1.254  1.7411  1.4118 -1.3782
  365SOL     OW 1093   2.613   1.608   0.394  0.2746  0.0583 -0.5345
  365SOL    HW1 1094   2.645   1.610   0.492  0.1932  0.7289  0.8106
  365SOL    HW2 1095   2.625   1.693   0.343  1.6912 -0.1269  3.3492
  366SOL     OW 1096   2.719   1.651   1.060  0.2294  0.4968  0.3477
  366SOL    HW1 1097   2.740   1.614   1.154 -3.3161  2.6910 -1.1404
  366SOL    HW2 1098   2.664   1.738   1.073 -0.8829  1.7328 -2.9886
  367SOL     OW 1099   2.109   2.100   2.193  0.2444 -0.2796  0.0279
  367SOL    HW1 1100   2.049   2.071   2.114  0.7588  0.7090 -2.2690
  367SOL    HW2 1101   2.208   2.065   2.180 -0.9966 -0.7784 -3.2590
  368SOL     OW 1102   2.728   1.040   1.194  0.3262 -0.2162  0.0113
  368SOL    HW1 1103   2.642   1.063   1.242 -0.7017  2.5437 -2.3401
  368SOL    HW2 1104   2.754   0.942   1.208  0.3508 -0.7787  0.2575
  369SOL     OW 1105   2.159   2.748   0.181 -0.1882  0.4156 -0.3412
  369SOL    HW1 1106   2.085   2.781   0.244 -0.4660  2.8333  0.0814
  369SOL    HW2 1107   2.164   2.810   0.102 -2.5164  0.7385  0.3838
  370SOL     OW 1108   2.808   2.584   1.505  0.6330  0.2359 -0.6927
  370SOL    HW1 1109   2.719   2.537   1.529  0.0098 -0.3118 -0.5509
  370SOL    HW2 1110   2.804   2.650   1.436  1.2097 -3.5233  1.7750
  371SOL     OW 1111   0.821   1.597   2.561 -0.3131 -0.7899 -0.3300
  371SOL    HW1 1112   0.917   1.593   2.522  2.1676  0.9929 -2.5262
  371SOL    HW2 1113   0.796   1.693   2.592 -2.0018  0.7610  0.6676
  372SOL     OW 1114   0.897   1.283   0.522 -0.5987 -0.3649  0.7446
  372SOL    HW1 1115   0.843   1.202   0.550  0.2977  2.4094 -1.2273
  372SOL    HW2 1116   0.947   1.273   0.432  0.1449 -1.3683 -0.9549
  373SOL     OW 1117   1.452   2.696   0.081 -0.3331 -0.6201 -0.1110
  373SOL    HW1 1118   1.492   2.638   0.157  1.1687  0.5111 -1.1178
  373SOL    HW2 1119   1.424   2.637   0.007  2.0741  1.1490  2.3754
  374SOL     OW 1120   0.320   1.750   3.105  0.1977 -0.0827  0.0416
  374SOL    HW1 1121   0.219   1.750   3.082 -1.8527 -3.9719 -1.4811
  374SOL    HW2 1122   0.372   1.662   3.089 -2.1848 -2.0384 -0.3905
  375SOL     OW 1123   0.922   1.628   2.106 -0.4466  0.3291 -0.2823
  375SOL    HW1 1124   0.985   1.592   2.176  4.8634  0.8039  4.8085
  375SOL    HW2 1125   0.837   1.575   2.089 -0.8080  1.1379 -0.6097
  376SOL     OW 1126   0.626   2.407   1.627  0.0430  0.4447  0.2766
  376SOL    HW1 1127   0.564   2.352   1.686 -0.5926 -1.2943 -2.8637
  376SOL    HW2 1128   0.707   2.438   1.675 -1.6572  1.5291 -0.2566
  377SOL     OW 1129   2.427   1.482   2.032 -0.0867  0.0745  0.1406
  377SOL    HW1 1130   2.327   1.494   2.052  0.6889  0.1568 -0.2261
  377SOL    HW2 1131   2.465   1.401   2.076 -0.3853  0.4050  0.4855
  378SOL     OW 1132   0.893   2.933   2.966 -0.0696  0.0737 -0.0429
  378SOL    HW1 1133   0.822   3.006   2.971 -0.5119  0.7015  0.2251
  378SOL    HW2 1134   0.913   2.883   3.055  1.5429 -1.1925  0.7336
  379SOL     OW 1135   1.674   0.647   0.823  0.1798  0.1614 -0.0913
  379SOL    HW1 1136   1.577   0.645   0.857 -2.5289 -0.0981  1.8172
  379SOL    HW2 1137   1.675   0.683   0.729  1.3661 -0.0552 -0.9640
  380SOL     OW 1138   2.811   1.700   1.501 -0.6637 -0.5462  0.1109
  380SOL    HW1 1139   2.830   1.675   1.595 -0.8087  0.0709 -1.9447
  380SOL    HW2 1140   2.779   1.792   1.491  0.2478 -1.4326  0.4758
  381SOL     OW 1141   1.621   1.806   1.653 -0.0910 -0.2637  0.7592
  381SOL    HW1 1142   1.556   1.794   1.727  1.1907 -0.8046 -2.5168
  381SOL    HW2 1143   1.576   1.855   1.579  0.5865  0.1142  1.0987
  382SOL     OW 1144   0.126   0.575   2.967 -0.4164  0.1389  0.0648
  382SOL    HW1 1145   0.071   0.489   2.985 -0.2157 -3.2294 -0.4211
  382SOL    HW2 1146   0.111   0.655   3.035 -1.7374  2.7784  2.2425
  383SOL     OW 1147   1.610   1.262   2.611 -0.3481 -0.7538 -0.2823
  383SOL    HW1 1148   1.554   1.301   2.688 -0.1657 -0.7158  0.0303
  383SOL    HW2 1149   1.699   1.317   2.592  1.0147 -0.2011  1.4462
  384SOL     OW 1150   1.143   2.432   1.179 -0.7285 -0.0651 -0.0824
  384SOL    HW1 1151   1.175   2.502   1.112 -0.5684 -1.2774  2.9951
  384SOL    HW2 1152   1.170   2.338   1.156  1.6140  2.1440  4.0477
  385SOL     OW 1153   1.728   2.528   0.788 -0.0293 -0.1555 -0.0237
  385SOL    HW1 1154   1.824   2.567   0.772  0.6092 -0.4884  1.3968
  385SOL    HW2 1155   1.738   2.434   0.827  1.3491  1.4248  0.1746
  386SOL     OW 1156   2.145   2.133   1.128  0.0817 -0.5200 -0.0456
  386SOL    HW1 1157   2.041   2.126   1.128 -0.2925 -2.0147 -0.2389
  386SOL    HW2 1158   2.185   2.170   1.217  1.9707  1.4888 -0.6717
  387SOL     OW 1159   0.401   2.094   1.334 -0.5394  0.1349  0.5405
  387SOL    HW1 1160   0.465   2.168   1.348 -0.3673 -2.1061 -1.5329
  387SOL    HW2 1161   0.445   2.002   1.341  1.3277  1.6121  1.0332
  388SOL     OW 1162   3.073   0.647   1.732 -0.0306 -0.3771 -0.0717
  388SOL    HW1 1163   3.001   0.632   1.806 -1.9611 -0.6132  0.6544
  388SOL    HW2 1164   0.018   0.565   1.706 -0.8482  2.2162  1.2075
  389SOL     OW 1165   1.893   1.330   0.953  0.4642 -0.4805  0.6813
  389SOL    HW1 1166   1.924   1.425   0.935  1.8695 -0.0052 -2.0044
  389SOL    HW2 1167   1.798   1.325   0.989  1.1502 -1.6089 -0.3707
  390SOL     OW 1168   0.832   2.221   2.120  0.1387  0.2750  0.1093
  390SOL    HW1 1169   0.755   2.256   2.181  0.6073  0.7452  4.1052
  390SOL    HW2 1170   0.811   2.121   2.095 -0.0911 -1.0781  1.1286
  391SOL     OW 1171   1.010   1.896   2.505 -0.0410 -0.3574  0.5175
  391SOL    HW1 1172   0.919   1.891   2.559  0.9101  1.0049 -0.9925
  391SOL    HW2 1173   1.004   1.963   2.429  1.5496 -0.0117 -2.5889
  392SOL     OW 1174   3.057   2.981   2.210  0.3619  0.2518  0.1527
  392SOL    HW1 1175   3.104   2.912   2.146  1.6802 -2.1757 -1.4536
  392SOL    HW2 1176   3.046   2.946   2.309  0.3201 -2.0988 -1.1965
  393SOL     OW 1177   1.968   2.788   0.402  0.1048 -0.0075 -1.4775
  393SOL    HW1 1178   1.883   2.822   0.359  4.1905  2.3256  1.9174
  393SOL    HW2 1179   1.950   2.692   0.431  0.7959  0.9897 -1.7939
  394SOL     OW 1180   0.654   0.674   2.555 -0.1913 -0.1077  0.2337
  394SOL    HW1 1181   0.593   0.697   2.636  0.2439 -1.8885  0.9244
  394SOL    HW2 1182   0.593   0.647   2.480 -0.6582 -0.9938  2.4779
  395SOL     OW 1183   0.726   1.098   1.357  0.0860 -0.0792  0.5974
  395SOL    HW1 1184   0.704   1.014   1.409 -0.4817  0.0562  0.7176
  395SOL    HW2 1185   0.810   1.144   1.390 -0.8983 -0.5112 -1.7162
  396SOL     OW 1186   1.732   1.648   2.074 -0.0797 -0.1472  0.1262
  396SOL    HW1 1187   1.691   1.562   2.034 -1.4597 -2.0996 -0.3483
  396SOL    HW2 1188   1.799   1.621   2.150  0.4035  1.1999  0.1342
  397SOL     OW 1189   0.884   0.550   2.656  0.1596  0.2825 -0.2896
  397SOL    HW1 1190   0.866   0.521   2.753  1.3914 -0.0786  0.3331
  397SOL    HW2 1191   0.798   0.567   2.611  0.0453 -3.1238  0.7756
  398SOL     OW 1192   0.399   1.878   2.541 -0.0922 -0.5418  0.0653
  398SOL    HW1 1193   0.409   1.972   2.580  1.6671  2.5471 -0.0021
  398SOL    HW2 1194   0.394   1.892   2.438  0.6834  2.7761  0.3738
  399SOL     OW 1195   0.169   1.629   2.210 -0.4378 -0.3128  0.0706
  399SOL    HW1 1196   0.169   1.589   2.116  2.1957 -0.9852 -0.1033
  399SOL    HW2 1197   0.242   1.586   2.267 -0.4597  2.7412 -2.4837
  400SOL     OW 1198   2.757   0.243   1.575  0.2076  0.3035  0.1592
  400SOL    HW1 1199   2.679   0.288   1.629 -2.1802  3.2121 -1.0331
  400SOL    HW2 1200   2.818   0.195   1.640 -0.2020 -0.2455 -0.0167
  401SOL     OW 1201   0.667   1.621   0.260 -0.3111 -0.5490 -1.1857
  401SOL    HW1 1202   0.760   1.662   0.270  0.1726  1.9213  1.2654
  401SOL    HW2 1203   0.630   1.580   0.346 -0.0940 -2.6599  1.8562
  402SOL     OW 1204   3.088   2.378   2.082  0.1968  0.5636 -0.3202
  402SOL    HW1 1205   3.102   2.385   1.980  0.6801 -0.3873 -0.1308
  402SOL    HW2 1206   3.095   2.277   2.104 -0.3326  1.0478  1.5305
  403SOL     OW 1207   0.289   1.225   2.010 -0.5493 -0.3317 -0.0258
  403SOL    HW1 1208   0.209   1.171   2.041 -0.4218 -1.2321 -0.8367
  403SOL    HW2 1209   0.333   1.284   2.083  0.3568  0.5226  0.1836
  404SOL     OW 1210   1.791   2.180   1.355  0.1546 -0.3720  0.1144
  404SOL    HW1 1211   1.718   2.151   1.420  0.9047  0.8271  0.3639
  404SOL    HW2 1212   1.884   2.146   1.371 -1.1614 -0.2013  2.0262
  405SOL     OW 1213   2.824   2.482   2.714  0.0881  0.1616  0.1976
  405SOL    HW1 1214   2.839   2.551   2.784 -0.1768  1.1958 -0.0010
  405SOL    HW2 1215   2.903   2.478   2.648 -1.7624  1.8375 -0.0647
  406SOL     OW 1216   0.679   1.215   2.846  0.3562 -0.0472  0.6216
  406SOL    HW1 1217   0.704   1.117   2.832  2.0101 -0.6050  1.1754
  406SOL    HW2 1218   0.720   1.267   2.767 -0.9197 -1.2816 -0.1423
  407SOL     OW 1219   2.280   2.822   2.999  0.4433 -0.1811 -0.1756
  407SOL    HW1 1220   2.302   2.789   2.907  0.3648  1.1649  2.1342
  407SOL    HW2 1221   2.362   2.857   3.052  0.2868  0.0770 -0.2255
  408SOL     OW 1222   2.620   2.610   0.013 -0.0051 -0.1781  1.2134
  408SOL    HW1 1223   2.682   2.575   0.087 -1.3272 -0.7972 -1.5559
  408SOL    HW2 1224   2.575   2.536   3.072  1.3402  0.7172  0.1523
  409SOL     OW 1225   2.286   1.218   0.700  0.2108  0.1050  0.5445
  409SOL    HW1 1226   2.323   1.310   0.718 -1.5646  1.7193 -0.6727
  409SOL    HW2 1227   2.186   1.212   0.720 -1.7468  0.1345  2.6421
  410SOL     OW 1228   2.859   1.615   0.837  0.7861  0.3799 -0.8123
  410SOL    HW1 1229   2.812   1.615   0.925  1.4807 -0.9104  0.0028
  410SOL    HW2 1230   2.946   1.563   0.843  1.8272 -0.5749  1.1658
  411SOL     OW 1231   0.287   1.474   0.846 -0.2313  0.1320  0.1226
  411SOL    HW1 1232   0.322   1.561   0.804  1.4856  3.5264 -0.0867
  411SOL    HW2 1233   0.344   1.446   0.928 -1.7828  3.2679 -0.5536
  412SOL     OW 1234   2.320   2.327   0.791  0.1174 -0.8366  0.1076
  412SOL    HW1 1235   2.353   2.395   0.719 -0.2993  0.9786 -1.0666
  412SOL    HW2 1236   2.270   2.366   0.870 -1.3994 -0.3108 -0.0507
  413SOL     OW 1237   1.563   1.214   2.008  0.4212 -0.0303 -0.0652
  413SOL    HW1 1238   1.512   1.149   1.946 -1.6994 -1.1636 -1.2339
  413SOL    HW2 1239   1.519   1.226   2.100 -0.8124  0.5904  1.6105
  414SOL     OW 1240   2.885   2.925   0.139 -0.5369 -0.1308  0.5387
  414SOL    HW1 1241   2.804   2.969   0.100  1.5776  2.5159  1.3821
  414SOL    HW2 1242   2.973   2.953   0.083  1.2746  0.5500 -0.5099
  415SOL     OW 1243   1.098   2.124   1.524  0.1627 -0.0265  0.0844
  415SOL    HW1 1244   1.030   2.193   1.490 -0.9935 -0.6103  1.2383
  415SOL    HW2 1245   1.060   2.072   1.602  3.1954  0.2694 -0.2024
  416SOL     OW 1246   3.035   2.446   2.536  0.3118  0.0623 -0.0777
  416SOL    HW1 1247   3.069   2.534   2.577 -1.7120 -0.1579 -0.0249
  416SOL    HW2 1248   3.084   2.363   2.576 -0.9671  1.1900  1.4235
  417SOL     OW 1249   2.767   0.577   1.283 -0.5076 -0.0596 -0.1292
  417SOL    HW1 1250   2.762   0.502   1.212  0.7818 -0.2373 -2.5829
  417SOL    HW2 1251   2.820   0.542   1.366  3.7554 -0.1808  0.4256
  418SOL     OW 1252   2.835   0.151   0.176 -0.1406  0.1911 -0.1636
  418SOL    HW1 1253   2.894   0.114   0.248 -1.6355 -0.5230 -2.8005
  418SOL    HW2 1254   2.738   0.148   0.202 -0.3782 -0.6533  2.1712
  419SOL     OW 1255   0.019   1.609   1.430 -0.2143  0.0073  0.0750
  419SOL    HW1 1256   3.065   1.531   1.447 -0.7944  1.4137 -1.0187
  419SOL    HW2 1257   0.104   1.576   1.382  1.1905 -1.1809 -1.2536
  420SOL     OW 1258   0.387   1.505   3.064  0.2366  0.3712 -0.1467
  420SOL    HW1 1259   0.410   1.442   0.032  0.2652  1.5679 -0.6558
  420SOL    HW2 1260   0.413   1.465   2.972  0.0443  2.2016  0.6962
  421SOL     OW 1261   2.246   2.622   2.482  0.3778  0.0387  0.1456
  421SOL    HW1 1262   2.318   2.693   2.483 -1.2101 -0.4929  0.5789
  421SOL    HW2 1263   2.265   2.538   2.426  2.8183 -0.7878  0.8228
  422SOL     OW 1264   0.267   0.771   2.590  0.1137 -0.4580  0.6420
  422SOL    HW1 1265   0.262   0.699   2.520 -0.3277 -3.5405 -1.3153
  422SOL    HW2 1266   0.206   0.855   2.578  1.3962  1.5469  1.6248
  423SOL     OW 1267   1.195   2.134   0.563 -0.5181 -0.2765 -0.6141
  423SOL    HW1 1268   1.191   2.172   0.660  1.9998  1.2200 -0.6493
  423SOL    HW2 1269   1.107   2.083   0.539 -2.8022  0.2823  3.1427
  424SOL     OW 1270   0.863   1.825   1.571 -0.2116  0.1260  0.2263
  424SOL    HW1 1271   0.926   1.873   1.635  0.1702 -0.9965  0.2400
  424SOL    HW2 1272   0.769   1.831   1.615  1.2384 -0.6564 -0.9455
  425SOL     OW 1273   2.544   2.438   2.580 -0.6959  0.1324  1.0461
  425SOL    HW1 1274   2.555   2.398   2.485  1.0196 -1.3197  0.0386
  425SOL    HW2 1275   2.637   2.468   2.616  1.9773  2.2557 -2.7964
  426SOL     OW 1276   1.452   0.667   0.983  0.1209 -0.0364  0.3674
  426SOL    HW1 1277   1.479   0.638   1.079 -1.5974 -0.3285 -1.3859
  426SOL    HW2 1278   1.349   0.666   0.968  0.8714 -1.7055  0.9209
  427SOL     OW 1279   3.103   1.512   2.564  0.0133  0.2910 -0.1738
  427SOL    HW1 1280   3.025   1.521   2.629 -1.6360 -2.1591  1.3134
  427SOL    HW2 1281   3.073   1.508   2.467  0.1874 -0.5714 -0.8960
  428SOL     OW 1282   1.190   1.355   0.004 -0.2035  0.0078 -0.5035
  428SOL    HW1 1283   1.113   1.390   3.053 -2.9234 -0.1179 -2.8051
  428SOL    HW2 1284   1.263   1.424   0.017 -0.1728 -1.1516  0.6927
  429SOL     OW 1285   2.918   2.653   0.587 -0.2276  0.3150  0.3449
  429SOL    HW1 1286   2.855   2.573   0.597 -0.0665 -1.4182  0.8491
  429SOL    HW2 1287   2.900   2.689   0.494 -0.8885  0.3498 -0.9685
  430SOL     OW 1288   0.380   2.284   2.195  0.1804 -0.5349  0.4436
  430SOL    HW1 1289   0.294   2.336   2.217  0.7908  1.4966  1.0425
  430SOL    HW2 1290   0.356   2.203   2.136  1.5064  1.6755  1.1560
  431SOL     OW 1291   3.104   1.082   0.326 -0.0615  0.0241 -0.4547
  431SOL    HW1 1292   0.041   1.121   0.245 -1.0200  1.2074 -2.5182
  431SOL    HW2 1293   3.089   0.981   0.320 -1.1052 -1.7038 -1.7818
  432SOL     OW 1294   1.713   2.548   2.434 -0.0905  0.7382  0.1984
  432SOL    HW1 1295   1.659   2.633   2.441 -0.6451 -1.3833 -0.6678
  432SOL    HW2 1296   1.808   2.565   2.468  0.1662  0.2750 -0.3961
  433SOL     OW 1297   1.064   2.614   0.686 -0.6782  0.5132  0.2682
  433SOL    HW1 1298   1.131   2.688   0.654  1.0542  1.0207 -0.9417
  433SOL    HW2 1299   1.039   2.621   0.784 -2.3114 -2.3081  2.0258
  434SOL     OW 1300   1.399   1.897   2.357  0.3689 -0.1330 -0.1589
  434SOL    HW1 1301   1.460   1.957   2.404 -1.4775 -2.5284 -2.9569
  434SOL    HW2 1302   1.414   1.799   2.391 -0.8830 -1.3859  0.9078
  435SOL     OW 1303   2.312   0.785   0.114 -0.6796 -0.2506  0.5023
  435SOL    HW1 1304   2.366   0.844   0.050 -1.2551  0.3641 -2.6247
  435SOL    HW2 1305   2.337   0.814   0.207  2.3863  2.1090 -0.5401
  436SOL     OW 1306   0.329   2.659   2.282 -0.2900 -0.4005  0.3369
  436SOL    HW1 1307   0.265   2.580   2.286  1.5085  1.4054 -2.2288
  436SOL    HW2 1308   0.415   2.638   2.335  0.7757 -0.4791 -1.2675
  437SOL     OW 1309   2.177   2.987   1.534 -0.0254  0.4613  0.5886
  437SOL    HW1 1310   2.222   2.900   1.566  2.2088  1.1954 -0.8027
  437SOL    HW2 1311   2.202   3.014   1.436 -1.5514  2.3959 -1.8934
  438SOL     OW 1312   0.117   1.771   0.639 -0.2809  0.0955 -0.2467
  438SOL    HW1 1313   0.142   1.793   0.734 -0.3444  2.9930 -0.8681
  438SOL    HW2 1314   0.182   1.826   0.580  0.9280 -0.9405  0.0438
  439SOL     OW 1315   0.081   3.064   1.164 -0.2471  0.0691 -0.2147
  439SOL    HW1 1316   0.146   0.004   1.100  2.6656 -0.9147 -1.5705
  439SOL    HW2 1317   0.014   3.018   1.107  0.3928  0.8338  0.8559
  440SOL     OW 1318   2.633   2.819   2.381 -0.6374 -0.6692  0.4626
  440SOL    HW1 1319   2.712   2.760   2.356  2.4222  1.2929  0.0800
  440SOL    HW2 1320   2.640   2.910   2.339  1.3521  3.9429 -0.1645
  441SOL     OW 1321   0.327   0.639   0.271  0.2000  0.3965  0.0940
  441SOL    HW1 1322   0.303   0.738   0.257 -0.2635 -1.2476  0.1790
  441SOL    HW2 1323   0.236   0.589   0.283  1.8123 -1.9825  1.0647
  442SOL     OW 1324   1.548   2.299   2.341 -0.3371 -0.0403 -0.2874
  442SOL    HW1 1325   1.532   2.216   2.394 -0.9250 -0.0622  0.1484
  442SOL    HW2 1326   1.612   2.363   2.384 -0.7841  1.3709  0.5931
  443SOL     OW 1327   0.609   2.841   3.032  0.3225  0.2102  0.0706
  443SOL    HW1 1328   0.534   2.784   2.989  0.8675 -0.8006 -1.3667
  443SOL    HW2 1329   0.693   2.836   2.976 -0.2050 -0.1651  0.8369
  444SOL     OW 1330   1.473   1.774   2.690 -0.3595  0.5996 -0.9532
  444SOL    HW1 1331   1.394   1.840   2.685 -3.1268  0.6034 -1.9330
  444SOL    HW2 1332   1.485   1.723   2.602 -0.9170 -0.5928  2.5588
  445SOL     OW 1333   0.469   0.194   1.108  0.0827  0.0342 -0.8550
  445SOL    HW1 1334   0.392   0.207   1.043 -0.0981  1.1860 -0.3038
  445SOL    HW2 1335   0.449   0.124   1.177  1.6708  5.0033  2.4585
  446SOL     OW 1336   1.662   0.821   1.091 -0.4692 -0.1813 -0.0195
  446SOL    HW1 1337   1.619   0.745   1.040 -0.3882 -1.9305  0.0251
  446SOL    HW2 1338   1.767   0.808   1.089  3.5753  0.0917 -0.3657
  447SOL     OW 1339   3.105   0.797   0.298  0.0887 -0.8071 -0.1521
  447SOL    HW1 1340   3.055   0.706   0.283 -0.1635 -1.4545  0.8205
  447SOL    HW2 1341   0.065   0.779   0.374 -0.3451 -0.4307 -0.1266
  448SOL     OW 1342   2.252   1.887   1.203  0.0319 -0.3587 -0.2508
  448SOL    HW1 1343   2.302   1.891   1.289 -2.2863 -0.4249 -2.5714
  448SOL    HW2 1344   2.231   1.985   1.170  0.5936  2.0906  0.1589
  449SOL     OW 1345   1.030   1.333   2.815 -0.1026  0.1190 -0.2838
  449SOL    HW1 1346   1.121   1.355   2.776 -0.0442  0.5174  1.3374
  449SOL    HW2 1347   1.007   1.399   2.889  1.1421  0.4570  2.5152
  450SOL     OW 1348   2.376   2.894   2.464  0.0903 -0.0392 -0.0570
  450SOL    HW1 1349   2.462   2.840   2.437  1.6386  0.1393 -0.7035
  450SOL    HW2 1350   2.383   2.923   2.562  0.2664 -0.8019  0.5183
  451SOL     OW 1351   2.620   0.833   2.532  0.1684  0.1500 -0.3409
  451SOL    HW1 1352   2.593   0.749   2.586 -1.2494 -0.6715  1.7105
  451SOL    HW2 1353   2.555   0.853   2.455  0.3164 -0.4758 -1.2178
  452SOL     OW 1354   1.709   1.226   1.320  0.2422  0.0016  0.3510
  452SOL    HW1 1355   1.706   1.263   1.222 -0.3097 -0.6922 -1.5337
  452SOL    HW2 1356   1.658   1.287   1.383  3.9238 -1.6645 -2.3518
  453SOL     OW 1357   1.811   0.414   1.911 -0.0070 -0.0385 -0.1636
  453SOL    HW1 1358   1.854   0.323   1.899 -1.3254 -1.1664  0.1021
  453SOL    HW2 1359   1.719   0.398   1.951 -0.2181 -2.0464 -1.6129
  454SOL     OW 1360   2.953   0.844   2.968  0.4440 -0.2249 -0.8165
  454SOL    HW1 1361   2.990   0.811   2.881 -0.8687 -0.1003  0.8575
  454SOL    HW2 1362   3.027   0.854   3.036 -2.7525  1.8075 -0.3463
  455SOL     OW 1363   2.530   1.583   1.440 -0.8302 -0.5321 -0.2277
  455SOL    HW1 1364   2.485   1.597   1.530  2.3919  1.2549  1.3912
  455SOL    HW2 1365   2.631   1.582   1.449 -2.4565  1.9486  0.3471
  456SOL     OW 1366   1.886   2.848   1.832  0.0685 -0.6671 -0.1409
  456SOL    HW1 1367   1.884   2.809   1.925 -2.8555 -0.9770 -0.2096
  456SOL    HW2 1368   1.932   2.942   1.835  1.9165  0.6199  0.8306
  457SOL     OW 1369   1.267   2.758   0.620 -0.2960  0.5334 -0.2350
  457SOL    HW1 1370   1.353   2.765   0.674 -2.4263 -0.0074 -1.5726
  457SOL    HW2 1371   1.255   2.849   0.575 -0.2023  1.6372  0.1228
  458SOL     OW 1372   2.967   3.071   0.677 -0.1884 -0.1056  0.0676
  458SOL    HW1 1373   2.926   2.983   0.715 -1.3033 -1.4796  1.7127
  458SOL    HW2 1374   3.021   3.054   0.592  0.5155  0.0184  0.0168
  459SOL     OW 1375   1.967   1.327   0.510  0.2581  0.2663 -0.1807
  459SOL    HW1 1376   1.963   1.258   0.437  2.6442  1.3131  0.3537
  459SOL    HW2 1377   1.989   1.288   0.602 -2.3762 -0.8934  0.1161
  460SOL     OW 1378   0.728   2.552   2.306  0.3257 -0.0556  0.6060
  460SOL    HW1 1379   0.722   2.651   2.308 -2.0720  0.8198  0.2367
  460SOL    HW2 1380   0.824   2.521   2.309 -1.5635 -0.1126  0.3471
  461SOL     OW 1381   0.644   1.758   2.972 -0.5051  0.4292 -0.5927
  461SOL    HW1 1382   0.557   1.742   2.923  1.2213  0.9312  0.3335
  461SOL    HW2 1383   0.687   1.675   3.016  0.3163 -0.2258 -1.0537
  462SOL     OW 1384   2.085   2.247   0.458  0.3994 -0.1583 -0.5405
  462SOL    HW1 1385   2.174   2.209   0.487  0.6541 -0.9914  1.5796
  462SOL    HW2 1386   2.042   2.197   0.379  0.0743  1.9902 -2.5824
  463SOL     OW 1387   2.794   0.615   0.550 -0.4688  0.6073  0.3942
  463SOL    HW1 1388   2.785   0.523   0.592 -1.0410  0.3545 -1.0620
  463SOL    HW2 1389   2.704   0.655   0.523 -0.3103 -0.2659  1.1629
  464SOL     OW 1390   0.453   1.789   0.270 -0.2228  0.6643 -0.5924
  464SOL    HW1 1391   0.408   1.788   0.181 -0.8217  0.3436  1.7646
  464SOL    HW2 1392   0.523   1.714   0.280  0.2604 -0.2516  1.0417
  465SOL     OW 1393   2.244   0.203   1.347  1.0817 -0.1407  0.3814
  465SOL    HW1 1394   2.264   0.108   1.321 -0.9444  0.3036 -1.8348
  465SOL    HW2 1395   2.145   0.216   1.334  0.7595 -0.7763  0.9812
  466SOL     OW 1396   2.511   0.117   0.734 -0.5570  0.2304  0.0496
  466SOL    HW1 1397   2.459   0.149   0.654 -5.0350 -0.7217  0.7472
  466SOL    HW2 1398   2.480   0.168   0.816  0.4586 -3.2804 -0.8260
  467SOL     OW 1399   0.288   0.487   2.209  0.3189 -0.7767 -0.4825
  467SOL    HW1 1400   0.207   0.453   2.263 -0.5304  1.2597 -1.2588
  467SOL    HW2 1401   0.337   0.407   2.174 -1.6475 -2.1328 -0.2404
  468SOL     OW 1402   2.764   2.986   2.113  1.0827  0.1714  0.1778
  468SOL    HW1 1403   2.741   3.085   2.088  0.9372  0.4479 -0.7802
  468SOL    HW2 1404   2.856   2.981   2.151  2.3058 -2.2761  0.6853
  469SOL     OW 1405   1.085   0.025   1.618  0.3058  0.1042  0.3087
  469SOL    HW1 1406   0.986   0.018   1.640  0.5877 -1.6247  0.6937
  469SOL    HW2 1407   1.105   3.087   1.531 -1.3329 -0.1677 -2.8498
  470SOL     OW 1408   2.499   0.797   1.624 -0.3193  0.1532  0.5621
  470SOL    HW1 1409   2.595   0.766   1.611 -3.2954  0.7075 -0.8993
  470SOL    HW2 1410   2.473   0.821   1.717  0.8926  0.9325 -1.5584
  471SOL     OW 1411   2.877   1.577   2.767  0.7270 -0.4096 -0.2640
  471SOL    HW1 1412   2.825   1.585   2.856 -2.6132 -2.0710  0.5890
  471SOL    HW2 1413   2.934   1.492   2.767  0.1378  1.1153 -0.9679
  472SOL     OW 1414   0.670   2.094   0.708  0.2302  0.1250 -0.2344
  472SOL    HW1 1415   0.671   2.045   0.619  0.6359 -2.3161 -0.7407
  472SOL    HW2 1416   0.685   2.192   0.706  1.6721 -1.9540 -1.1928
  473SOL     OW 1417   1.506   2.145   2.097 -0.2671 -0.3621 -0.5021
  473SOL    HW1 1418   1.512   2.045   2.093 -2.5062  1.6936 -1.5189
  473SOL    HW2 1419   1.522   2.186   2.187 -0.1522 -2.3987  0.7432
  474SOL     OW 1420   0.542   2.847   2.678  0.1713  0.3876 -0.1314
  474SOL    HW1 1421   0.499   2.793   2.754  0.2159  0.0122  1.2876
  474SOL    HW2 1422   0.526   2.950   2.697  1.1599  1.0483 -2.1907
  475SOL     OW 1423   0.762   1.866   2.602  0.7125  0.3918  0.1067
  475SOL    HW1 1424   0.782   1.869   2.705  0.5472  1.8762  1.6811
  475SOL    HW2 1425   0.717   1.952   2.571  1.5195  2.0842  1.4594
  476SOL     OW 1426   0.708   0.681   0.911  0.4565  1.0315 -0.2506
  476SOL    HW1 1427   0.660   0.696   1.003 -2.2650  0.0957 -0.2657
  476SOL    HW2 1428   0.653   0.718   0.839  1.7553 -1.8116 -0.3484
  477SOL     OW 1429   2.067   2.141   1.425 -0.7194 -0.2592  0.1939
  477SOL    HW1 1430   2.158   2.191   1.417  1.0486 -1.1147 -2.0338
  477SOL    HW2 1431   2.013   2.186   1.498 -3.1753  0.9842 -0.0603
  478SOL     OW 1432   0.286   0.400   2.815  0.1532 -0.0520  0.1454
  478SOL    HW1 1433   0.245   0.478   2.864  1.5146 -4.1896 -3.0295
  478SOL    HW2 1434   0.331   0.436   2.728  2.2489  1.0801  0.1068
  479SOL     OW 1435   1.168   0.442   1.467  0.3338  0.1933 -0.2909
  479SOL    HW1 1436   1.095   0.471   1.530  2.3338  0.5913 -0.7502
  479SOL    HW2 1437   1.131   0.440   1.372  1.1337 -0.2813 -0.2463
  480SOL     OW 1438   2.729   2.288   0.336  0.0799  0.4159 -0.0586
  480SOL    HW1 1439   2.640   2.237   0.343  3.0433 -2.1141  0.1239
  480SOL    HW2 1440   2.800   2.214   0.340 -0.4346 -2.8919  0.4103
  481SOL     OW 1441   0.117   0.716   1.504  0.0787 -0.0749 -0.4680
  481SOL    HW1 1442   0.098   0.808   1.467  1.0450 -4.1213 -0.0215
  481SOL    HW2 1443   0.070   0.711   1.594  1.7635  0.4570 -2.7092
  482SOL     OW 1444   0.960   3.047   1.220  0.6913 -0.2574  0.3692
  482SOL    HW1 1445   0.864   3.078   1.212 -2.6842 -3.2855  2.5546
  482SOL    HW2 1446   0.968   2.968   1.282 -0.2724  0.9353 -0.4206
  483SOL     OW 1447   3.014   1.417   2.309 -0.5109  0.4311 -0.4606
  483SOL    HW1 1448   3.012   1.318   2.342  0.4460 -3.3614 -0.7365
  483SOL    HW2 1449   2.922   1.459   2.306  1.8958 -3.1725 -0.7085
  484SOL     OW 1450   1.828   1.793   1.868  0.0894  0.0204 -0.1060
  484SOL    HW1 1451   1.786   1.728   1.936 -2.2866  0.1834  1.5889
  484SOL    HW2 1452   1.769   1.814   1.785  1.6279  2.1418  1.2458
  485SOL     OW 1453   0.182   2.872   2.418  0.0742  0.2567 -0.4819
  485SOL    HW1 1454   0.110   2.880   2.492 -1.3667 -0.6893 -1.4226
  485SOL    HW2 1455   0.213   2.779   2.406  0.7744  2.4597  2.0112
  486SOL     OW 1456   1.022   0.189   0.788  0.4370  0.1254 -0.0799
  486SOL    HW1 1457   1.108   0.154   0.829 -1.0939  1.5992 -1.0265
  486SOL    HW2 1458   1.004   0.281   0.829 -0.2948 -0.5279  1.9285
  487SOL     OW 1459   1.345   0.314   1.008  0.5874 -0.0477  0.2670
  487SOL    HW1 1460   1.432   0.305   0.955 -0.8202 -1.5253  0.3082
  487SOL    HW2 1461   1.362   0.291   1.101  0.9247  1.7926 -2.2312
  488SOL     OW 1462   2.386   1.028   0.866 -0.4656  0.0096  0.4445
  488SOL    HW1 1463   2.338   1.091   0.798 -0.7131  2.9708 -3.2928
  488SOL    HW2 1464   2.430   1.088   0.938 -1.8265  0.5769  1.1137
  489SOL     OW 1465   1.426   0.837   1.436 -0.6148  0.3580  0.1152
  489SOL    HW1 1466   1.472   0.909   1.378 -0.5038 -0.6307  0.7023
  489SOL    HW2 1467   1.417   0.748   1.385  0.9622 -2.0470 -0.0179
  490SOL     OW 1468   0.883   0.481   2.924 -0.0154  0.0233  0.3408
  490SOL    HW1 1469   0.975   0.511   2.963  3.7384 -1.3933  1.2767
  490SOL    HW2 1470   0.806   0.508   2.981  1.8292 -0.8700  0.7177
  491SOL     OW 1471   0.777   2.869   0.604 -0.1924 -0.4852 -0.0440
  491SOL    HW1 1472   0.828   2.919   0.535 -4.9973 -2.8827  2.9918
  491SOL    HW2 1473   0.825   2.866   0.697  0.8442  0.4123  1.4816
  492SOL     OW 1474   1.223   1.539   1.597 -0.5595  0.4431  0.4476
  492SOL    HW1 1475   1.210   1.607   1.675  0.3671  0.9465  2.6118
  492SOL    HW2 1476   1.306   1.554   1.535  2.6123 -1.9440  1.8715
  493SOL     OW 1477   0.717   1.520   3.103  0.0401 -0.4709  0.0566
  493SOL    HW1 1478   0.703   1.416   3.097  2.4420 -1.6435 -0.0830
  493SOL    HW2 1479   0.705   1.547   0.091 -0.7500 -0.5787 -0.0018
  494SOL     OW 1480   1.934   2.670   0.689 -0.9565 -0.1193  0.0945
  494SOL    HW1 1481   1.945   2.595   0.623 -0.6816  0.4914  0.2045
  494SOL    HW2 1482   2.005   2.670   0.761 -0.2848  1.2920 -1.3246
  495SOL     OW 1483   0.351   1.538   2.399 -0.0105 -0.1103  0.0967
  495SOL    HW1 1484   0.445   1.583   2.398  0.7966  1.4969  1.0246
  495SOL    HW2 1485   0.332   1.497   2.491  3.2536 -0.4857  0.0109
  496SOL     OW 1486   0.284   2.498   2.639 -0.7514  0.4212  0.9365
  496SOL    HW1 1487   0.361   2.541   2.592  1.7288 -0.5518  2.3029
  496SOL    HW2 1488   0.259   2.412   2.586  0.6267  0.4336  0.8883
  497SOL     OW 1489   1.723   1.440   0.528  0.4047 -0.0155  0.1661
  497SOL    HW1 1490   1.657   1.362   0.516 -0.5872 -0.4477 -2.0380
  497SOL    HW2 1491   1.820   1.413   0.527 -1.0995 -1.5494 -2.0175
  498SOL     OW 1492   2.809   2.493   0.177  0.0349  0.4532  0.1915
  498SOL    HW1 1493   2.868   2.471   0.096 -0.7432 -0.3231 -0.8631
  498SOL    HW2 1494   2.788   2.407   0.234  0.9076 -0.5859 -0.5601
  499SOL     OW 1495   2.123   2.654   0.898 -0.6618 -0.3099 -0.1997
  499SOL    HW1 1496   2.120   2.574   0.959  0.0029  0.1933  3.4716
  499SOL    HW2 1497   2.198   2.715   0.911 -1.5787 -2.3258 -0.3455
  500SOL     OW 1498   0.502   0.217   2.579  0.6273  0.3069  0.4788
  500SOL    HW1 1499   0.459   0.312   2.574 -1.5264  0.9224 -0.3667
  500SOL    HW2 1500   0.594   0.228   2.537 -0.4851  1.4561 -0.2061
  501SOL     OW 1501   2.038   2.636   1.758  0.5229 -0.2754 -0.3095
  501SOL    HW1 1502   2.053   2.615   1.657  2.0316  0.6539  0.7670
  501SOL    HW2 1503   1.967   2.708   1.766 -0.2354  2.6279  0.1615
  502SOL     OW 1504   3.082   0.043   2.519  0.0159  0.4766 -0.3113
  502SOL    HW1 1505   3.080   3.058   2.557  0.5297  2.1997  0.0282
  502SOL    HW2 1506   0.068   0.058   2.474  2.8818 -0.1452  0.2014
  503SOL     OW 1507   2.036   2.771   2.350 -0.1029  0.6866 -0.1102
  503SOL    HW1 1508   2.008   2.694   2.286 -2.0697  1.0391  0.6095
  503SOL    HW2 1509   2.111   2.741   2.410 -2.8012  0.2635 -0.2382
  504SOL     OW 1510   2.169   0.261   1.841  0.2774 -0.3791  0.4454
  504SOL    HW1 1511   2.131   0.166   1.816  0.9941  0.0085 -0.8877
  504SOL    HW2 1512   2.139   0.330   1.769 -0.1259 -1.3186 -1.4652
  505SOL     OW 1513   2.408   1.422   1.270  0.3472  0.3835  0.0902
  505SOL    HW1 1514   2.443   1.501   1.328 -1.9350 -0.8577  0.8382
  505SOL    HW2 1515   2.421   1.441   1.170 -0.6774 -1.1903 -0.4046
  506SOL     OW 1516   0.032   1.773   1.671  0.1474  0.6096 -0.3322
  506SOL    HW1 1517   0.029   1.714   1.588 -0.4225 -1.8043  0.1865
  506SOL    HW2 1518   0.012   1.864   1.636  0.5692 -2.7336 -1.3698
  507SOL     OW 1519   0.549   2.309   1.358 -0.3455 -0.4775 -0.0784
  507SOL    HW1 1520   0.586   2.349   1.447  1.2956 -0.9326 -1.0094
  507SOL    HW2 1521   0.462   2.353   1.319 -2.0264 -0.3005 -2.7663
  508SOL     OW 1522   0.662   0.608   1.728  0.7045  0.4347  0.0776
  508SOL    HW1 1523   0.687   0.568   1.820  1.4984  0.7584 -0.0465
  508SOL    HW2 1524   0.556   0.612   1.718 -0.7623 -1.3695 -1.4288
  509SOL     OW 1525   1.742   2.507   1.850 -0.1484 -0.5743  0.3784
  509SOL    HW1 1526   1.645   2.514   1.840  2.0109 -0.5335 -1.4001
  509SOL    HW2 1527   1.777   2.567   1.923 -2.1101 -1.6259 -2.6772
  510SOL     OW 1528   2.479   1.337   2.470  0.1137  0.4853  0.1081
  510SOL    HW1 1529   2.384   1.373   2.448 -0.7423  0.5892 -2.5243
  510SOL    HW2 1530   2.529   1.409   2.518 -1.2131 -0.0991 -0.6059
  511SOL     OW 1531   0.972   1.393   1.025  0.3319  0.0574  0.1014
  511SOL    HW1 1532   1.002   1.313   1.081 -0.1835  1.2161  0.3195
  511SOL    HW2 1533   0.972   1.470   1.094 -0.8570  0.5823  1.0179
  512SOL     OW 1534   2.989   1.774   0.500 -0.4955  0.4724 -0.0763
  512SOL    HW1 1535   2.922   1.835   0.539  0.2575 -2.3550  1.1397
  512SOL    HW2 1536   3.078   1.769   0.550  0.1611 -2.5563 -1.6843
  513SOL     OW 1537   1.029   2.087   2.323 -0.0975 -0.4777  0.1682
  513SOL    HW1 1538   0.983   2.148   2.254 -2.0702  2.5739 -1.0677
  513SOL    HW2 1539   1.069   2.151   2.394  0.4332  1.2689  2.1642
  514SOL     OW 1540   0.167   2.159   1.194 -0.4070 -0.3072 -0.1502
  514SOL    HW1 1541   0.140   2.255   1.220 -0.6413 -0.8712  0.0193
  514SOL    HW2 1542   0.235   2.123   1.260  0.4650  0.2356  0.7375
  515SOL     OW 1543   2.009   0.906   1.749  0.1853  0.4552  0.3474
  515SOL    HW1 1544   1.921   0.857   1.762 -0.9264 -0.5302 -1.1500
  515SOL    HW2 1545   2.031   0.918   1.651  0.0342 -2.1939 -1.1287
  516SOL     OW 1546   2.388   0.342   0.182 -0.1715  0.6031  0.1143
  516SOL    HW1 1547   2.410   0.319   0.080  0.7216  1.3393 -1.4084
  516SOL    HW2 1548   2.453   0.409   0.231  0.9157  1.1925  0.4427
  517SOL     OW 1549   1.129   1.726   2.849 -0.4399  0.0950 -0.6006
  517SOL    HW1 1550   1.110   1.738   2.950 -1.3608  1.2640  2.8208
  517SOL    HW2 1551   1.123   1.629   2.824 -1.5917 -0.4995  0.3774
  518SOL     OW 1552   1.668   3.016   1.500 -0.4073 -0.0069 -0.6076
  518SOL    HW1 1553   1.673   2.956   1.585  0.9334  0.0786 -2.3247
  518SOL    HW2 1554   1.756   3.038   1.452  0.9068 -1.1598  2.5258
  519SOL     OW 1555   2.148   2.941   1.078  0.0481  0.3240  0.4044
  519SOL    HW1 1556   2.218   2.878   1.039  0.9714 -2.4052  2.5303
  519SOL    HW2 1557   2.118   2.997   1.003 -2.3872 -2.8408  0.4905
  520SOL     OW 1558   2.706   1.816   1.966 -0.9788  0.1258 -0.1785
  520SOL    HW1 1559   2.705   1.727   1.913  1.6478 -0.2511 -1.1270
  520SOL    HW2 1560   2.640   1.887   1.934 -1.8938 -0.0363 -0.5539
  521SOL     OW 1561   2.951   0.558   0.316 -0.7201 -0.8664 -0.3974
  521SOL    HW1 1562   2.917   0.506   0.240  0.9544  2.8313  3.3237
  521SOL    HW2 1563   2.876   0.585   0.378  2.7018 -1.4252  1.2154
  522SOL     OW 1564   0.874   0.751   2.416  0.2473  0.5263 -0.3093
  522SOL    HW1 1565   0.784   0.740   2.464 -0.4474  1.1050  1.1281
  522SOL    HW2 1566   0.886   0.851   2.388  1.4982 -1.3511  1.7464
  523SOL     OW 1567   0.196   2.412   0.587  0.0486  0.1233 -0.2170
  523SOL    HW1 1568   0.162   2.324   0.624 -0.2322 -0.7298 -0.0314
  523SOL    HW2 1569   0.241   2.397   0.494 -2.2084  0.2668 -4.1819
  524SOL     OW 1570   1.996   2.708   3.036  0.0642 -0.1504 -0.2060
  524SOL    HW1 1571   2.079   2.764   3.036 -0.9603  1.0729  2.2273
  524SOL    HW2 1572   2.024   2.609   3.062 -0.7714 -1.4359  1.7251
  525SOL     OW 1573   2.503   0.380   1.702 -0.8141 -0.4880 -0.4185
  525SOL    HW1 1574   2.462   0.350   1.789  0.4614 -1.1334 -1.5317
  525SOL    HW2 1575   2.453   0.459   1.662  2.4412  3.9119 -1.9007
  526SOL     OW 1576   1.096   0.175   0.534  0.5066 -0.2350  0.4595
  526SOL    HW1 1577   1.072   0.185   0.633 -2.1753 -0.0118  1.8689
  526SOL    HW2 1578   1.186   0.212   0.502  1.9638  1.2530 -2.2529
  527SOL     OW 1579   2.181   2.875   0.559  0.8621  0.2683  0.1046
  527SOL    HW1 1580   2.096   2.840   0.516 -0.7137  0.3800 -1.5300
  527SOL    HW2 1581   2.238   2.931   0.496  1.1593 -3.3090  1.1078
  528SOL     OW 1582   1.919   0.965   2.710 -0.1550  0.5304  0.0215
  528SOL    HW1 1583   1.907   0.869   2.751  0.8399 -1.9583  3.6341
  528SOL    HW2 1584   1.893   0.973   2.613  1.0834  0.4393  0.5377
  529SOL     OW 1585   1.855   1.528   2.274  0.2534 -0.3231 -0.2545
  529SOL    HW1 1586   1.803   1.507   2.362 -1.0695 -1.2047 -0.0843
  529SOL    HW2 1587   1.879   1.439   2.232  2.9545 -1.1336  1.4106
  530SOL     OW 1588   2.554   2.905   0.047  0.3507 -0.1655 -0.1452
  530SOL    HW1 1589   2.560   2.942   0.140 -0.1777 -0.2735  0.0644
  530SOL    HW2 1590   2.560   2.804   0.050 -0.6464  1.3586  0.3367
  531SOL     OW 1591   1.853   1.625   3.004  0.9246 -0.0427 -0.2347
  531SOL    HW1 1592   1.890   1.535   3.034  1.8736  0.9848  1.1855
  531SOL    HW2 1593   1.905   1.704   3.048  0.5822  0.3081  2.9554
  532SOL     OW 1594   1.504   0.276   1.243  0.5539  0.7063 -0.0438
  532SOL    HW1 1595   1.477   0.179   1.237 -0.3112  3.3006  2.2649
  532SOL    HW2 1596   1.480   0.326   1.326 -1.8572  1.8776  1.7342
  533SOL     OW 1597   0.733   0.822   3.073  0.1995 -0.3292  0.2889
  533SOL    HW1 1598   0.807   0.821   0.039  2.0594 -1.6178 -0.7673
  533SOL    HW2 1599   0.749   0.883   2.994 -0.1677  0.2747  0.3521
  534SOL     OW 1600   1.420   0.595   2.963  0.3049 -0.1566 -0.3912
  534SOL    HW1 1601   1.465   0.553   2.885 -1.7933 -0.0207 -0.4842
  534SOL    HW2 1602   1.455   0.566   3.055 -2.2416  0.6603  1.4622
  535SOL     OW 1603   0.847   2.140   2.911 -0.1522 -0.1722  0.4433
  535SOL    HW1 1604   0.760   2.196   2.907 -0.2041  3.2376  0.6892
  535SOL    HW2 1605   0.827   2.044   2.940 -1.9990 -1.0642 -0.5332
  536SOL     OW 1606   0.735   2.909   0.173 -0.7220 -0.0778  0.1726
  536SOL    HW1 1607   0.690   2.911   0.081 -0.3842  0.2268  0.2106
  536SOL    HW2 1608   0.731   2.819   0.217  0.1481  0.8486  2.3809
  537SOL     OW 1609   1.952   0.278   0.180 -0.1706  0.2195  0.3937
  537SOL    HW1 1610   1.992   0.236   0.260 -3.8953  0.5285 -1.7639
  537SOL    HW2 1611   1.972   0.378   0.194  2.3587  3.1062  0.9229
  538SOL     OW 1612   2.602   2.331   3.031  0.8993 -0.0546  0.1273
  538SOL    HW1 1613   2.524   2.350   2.965 -1.4210 -0.1109  0.2433
  538SOL    HW2 1614   2.567   2.266   3.097 -1.5008 -1.1723 -0.6714
  539SOL     OW 1615   2.616   1.312   3.062  0.4250  0.4708  0.6555
  539SOL    HW1 1616   2.684   1.259   0.004 -0.5528  1.0421  0.2510
  539SOL    HW2 1617   2.520   1.274   3.076 -3.2951 -0.6595  0.9804
  540SOL     OW 1618   0.620   2.879   1.946  0.7125 -0.1036  0.1199
  540SOL    HW1 1619   0.550   2.806   1.945  0.3436  1.0277 -0.7762
  540SOL    HW2 1620   0.603   2.936   2.031 -1.7649  2.4047  0.2312
  541SOL     OW 1621   2.233   0.161   2.514 -0.1568  0.1457 -0.6981
  541SOL    HW1 1622   2.306   0.117   2.570 -1.5439  1.3782 -1.2090
  541SOL    HW2 1623   2.204   0.090   2.444  0.6290  1.3754 -1.8838
  542SOL     OW 1624   0.445   0.511   0.080  0.1903 -0.3572  0.2085
  542SOL    HW1 1625   0.394   0.433   0.043  1.8808  0.8536  1.6364
  542SOL    HW2 1626   0.392   0.555   0.157 -1.3798 -1.2126  0.1949
  543SOL     OW 1627   0.508   1.037   0.807  0.1711  0.3378  1.0248
  543SOL    HW1 1628   0.567   1.056   0.884  0.0128  1.9921 -1.5151
  543SOL    HW2 1629   0.499   1.124   0.759  0.7388  0.0406  0.5162
  544SOL     OW 1630   2.497   0.630   1.203  0.2009 -0.0716  0.3239
  544SOL    HW1 1631   2.582   0.626   1.264  3.5236 -1.8722 -0.4758
  544SOL    HW2 1632   2.458   0.725   1.212  0.5139  4.1599  0.0038
  545SOL     OW 1633   1.045   1.787   0.023 -0.3485  0.1475 -0.5030
  545SOL    HW1 1634   1.006   1.875   0.058  1.1468  0.8154  0.9254
  545SOL    HW2 1635   1.125   1.764   0.077 -0.4653  1.4598  0.9376
  546SOL     OW 1636   2.280   2.503   1.603 -0.2403 -0.4586 -0.4314
  546SOL    HW1 1637   2.284   2.413   1.660 -0.4558 -1.0836  1.2979
  546SOL    HW2 1638   2.196   2.502   1.542  1.7377  0.2223 -1.2797
  547SOL     OW 1639   1.374   2.536   1.957  0.1738 -0.1434  0.0471
  547SOL    HW1 1640   1.422   2.541   2.046 -0.1797 -1.7436 -2.7824
  547SOL    HW2 1641   1.312   2.613   1.931 -1.5611  0.5581 -0.6782
  548SOL     OW 1642   1.599   0.755   2.721  0.7274 -0.5328  0.3108
  548SOL    HW1 1643   1.650   0.753   2.803 -1.6853  0.7070 -2.4521
  548SOL    HW2 1644   1.548   0.669   2.698  1.5725 -0.3809 -0.3056
  549SOL     OW 1645   2.261   0.835   0.409  0.2995  0.1822  0.6896
  549SOL    HW1 1646   2.236   0.737   0.415 -1.4069 -2.6680  0.1825
  549SOL    HW2 1647   2.262   0.875   0.504 -1.0898 -1.0007  2.6930
  550SOL     OW 1648   2.368   1.510   0.311 -0.1654  0.0952 -0.0140
  550SOL    HW1 1649   2.442   1.558   0.361 -3.6369 -0.5563  1.1110
  550SOL    HW2 1650   2.346   1.544   0.219  0.7656  0.3335  0.1608
  551SOL     OW 1651   1.798   0.271   1.400 -0.0146 -0.3074  0.7036
  551SOL    HW1 1652   1.753   0.259   1.486 -1.1197  1.1252 -2.9041
  551SOL    HW2 1653   1.763   0.352   1.349 -1.8277 -0.0746 -0.4072
  552SOL     OW 1654   1.557   0.126   2.801 -0.1665  0.3129  0.1145
  552SOL    HW1 1655   1.623   0.201   2.798 -1.8351 -3.6431 -0.0646
  552SOL    HW2 1656   1.575   0.058   2.877 -0.5153 -2.2712 -1.0710
  553SOL     OW 1657   0.519   2.494   1.965  0.0893  0.3365  0.0428
  553SOL    HW1 1658   0.482   2.475   2.060  0.5385 -0.6883 -2.8875
  553SOL    HW2 1659   0.477   2.432   1.894  0.3486  1.7047 -1.6571
  554SOL     OW 1660   0.271   2.921   1.339 -0.5490  0.4933 -0.7599
  554SOL    HW1 1661   0.198   2.971   1.292  1.5824  0.5725  0.9267
  554SOL    HW2 1662   0.339   2.875   1.279  1.6132 -3.0946 -1.2391
  555SOL     OW 1663   2.558   1.668   2.154  0.3868 -0.3529  0.4590
  555SOL    HW1 1664   2.612   1.734   2.095  1.7202 -0.3122  1.1447
  555SOL    HW2 1665   2.507   1.601   2.098  1.8652  1.0806  0.5817
  556SOL     OW 1666   1.143   0.565   3.034 -0.4153  0.1059 -0.1999
  556SOL    HW1 1667   1.236   0.600   3.004 -2.0844 -0.7636 -2.7318
  556SOL    HW2 1668   1.167   0.476   3.076 -1.8774 -1.2619 -0.9714
  557SOL     OW 1669   0.400   1.877   2.268  0.6573  0.9441  0.5863
  557SOL    HW1 1670   0.419   1.947   2.196 -1.9881  2.3578  1.3603
  557SOL    HW2 1671   0.334   1.811   2.225  1.0940 -1.1500 -1.3696
  558SOL     OW 1672   1.875   0.653   2.784  0.5323 -0.5054 -0.2885
  558SOL    HW1 1673   1.872   0.587   2.706  1.6274 -0.1959 -1.0592
  558SOL    HW2 1674   1.917   0.612   2.866  0.2111 -0.5918 -0.3455
  559SOL     OW 1675   2.058   1.788   1.738 -0.1098  0.2981 -0.0160
  559SOL    HW1 1676   2.040   1.822   1.642 -0.0103  0.6595 -0.7272
  559SOL    HW2 1677   1.984   1.803   1.800  1.7329 -1.1975 -1.0339
  560SOL     OW 1678   1.733   0.845   2.040  0.3923 -0.0670  0.6793
  560SOL    HW1 1679   1.631   0.875   2.043  0.4033 -0.1035 -0.9012
  560SOL    HW2 1680   1.739   0.749   2.014  2.0261  0.6839 -0.2055
  561SOL     OW 1681   3.021   0.122   2.803  0.5683 -0.4338  0.0857
  561SOL    HW1 1682   2.999   0.137   2.900  0.7360 -1.4841 -1.2107
  561SOL    HW2 1683   0.014   0.134   2.793 -1.0723  5.2656 -1.5223
  562SOL     OW 1684   1.017   1.631   1.473  0.0208 -0.4932 -0.1096
  562SOL    HW1 1685   1.090   1.586   1.531  1.0870 -0.1143  0.7314
  562SOL    HW2 1686   0.954   1.699   1.515 -2.1062 -0.4858  1.0285
  563SOL     OW 1687   1.186   0.045   0.213  0.3676  0.5477 -0.2267
  563SOL    HW1 1688   1.228   3.062   0.209  0.3866 -2.4083 -0.1356
  563SOL    HW2 1689   1.093   0.044   0.173 -2.0104  1.6723  1.4241
  564SOL     OW 1690   0.042   2.606   0.734 -0.0724  0.1394  0.4015
  564SOL    HW1 1691   0.110   2.546   0.685  0.5786  3.2541  0.1710
  564SOL    HW2 1692   3.072   2.623   0.669  1.2349  0.8546  1.6724
  565SOL     OW 1693   0.661   2.311   1.117  0.1722  0.0943  0.5096
  565SOL    HW1 1694   0.576   2.292   1.059 -1.9222 -2.0832  0.0073
  565SOL    HW2 1695   0.629   2.308   1.214 -1.6049 -1.4022  1.2381
  566SOL     OW 1696   1.106   3.023   2.337 -0.6217  0.0148  0.0213
  566SOL    HW1 1697   1.097   0.004   2.286  0.0142  2.8861  0.7707
  566SOL    HW2 1698   1.055   2.946   2.287  2.0133 -1.7091 -0.6676
  567SOL     OW 1699   2.183   0.120   0.893 -0.1124  0.3152  0.0029
  567SOL    HW1 1700   2.266   0.183   0.888 -0.8605  1.0630 -0.6083
  567SOL    HW2 1701   2.181   0.055   0.814 -0.5600 -3.0356  1.7513
  568SOL     OW 1702   1.664   1.650   0.719  0.0728 -0.6857 -0.2689
  568SOL    HW1 1703   1.695   1.740   0.677  1.1455  0.0105 -2.1220
  568SOL    HW2 1704   1.724   1.576   0.689 -1.7491  0.4913  1.0560
  569SOL     OW 1705   2.133   0.688   2.314  0.3327 -0.3809 -0.0001
  569SOL    HW1 1706   2.100   0.593   2.318  0.6203 -0.7215 -0.2515
  569SOL    HW2 1707   2.189   0.712   2.400 -1.3614  1.4473  3.0157
  570SOL     OW 1708   0.110   0.005   2.051 -0.3266  0.0683 -0.3527
  570SOL    HW1 1709   0.051   3.086   2.126  2.2656 -0.5193 -2.7681
  570SOL    HW2 1710   0.064   0.020   1.959 -0.5675  0.2318  0.9470
  571SOL     OW 1711   0.501   2.711   1.629 -0.0480 -0.1995  0.5284
  571SOL    HW1 1712   0.495   2.730   1.726 -1.9848 -0.0829  0.4315
  571SOL    HW2 1713   0.560   2.636   1.599 -1.2559 -0.5724 -0.6777
  572SOL     OW 1714   0.206   2.191   1.530 -0.7753 -0.4532  0.0265
  572SOL    HW1 1715   0.168   2.268   1.476  0.4664  0.6152 -3.4471
  572SOL    HW2 1716   0.284   2.149   1.475  0.3645  2.3970 -0.3011
  573SOL     OW 1717   1.278   0.951   2.729  0.1433  1.0049  0.1296
  573SOL    HW1 1718   1.354   0.969   2.668 -2.2530  0.1644 -1.1387
  573SOL    HW2 1719   1.216   0.889   2.681 -0.6271  2.3706  0.7205
  574SOL     OW 1720   2.590   2.339   2.335 -0.2946 -0.3567 -0.1706
  574SOL    HW1 1721   2.690   2.342   2.320  0.6712 -0.1454 -1.3587
  574SOL    HW2 1722   2.534   2.339   2.247 -1.8901  0.2872 -0.5677
  575SOL     OW 1723   1.234   0.089   0.903  0.4128  0.2788 -0.0682
  575SOL    HW1 1724   1.315   0.033   0.879 -2.0267 -0.3263  0.9453
  575SOL    HW2 1725   1.259   0.174   0.948  1.1111 -0.7039 -3.0819
  576SOL     OW 1726   1.010   0.408   1.124 -0.1794  0.2753  0.1152
  576SOL    HW1 1727   1.052   0.394   1.031 -0.8603  0.9018 -2.0708
  576SOL    HW2 1728   1.024   0.330   1.194 -0.6479 -2.2542  2.8123
  577SOL     OW 1729   2.136   1.747   0.277 -0.0517  0.6005 -0.0982
  577SOL    HW1 1730   2.209   1.704   0.218 -2.5710 -0.3865  0.7639
  577SOL    HW2 1731   2.069   1.683   0.317 -1.2556  1.6282  0.0190
  578SOL     OW 1732   2.197   0.593   1.115 -0.7920  0.0693 -0.0557
  578SOL    HW1 1733   2.294   0.607   1.100  0.5002 -1.1099 -1.0409
  578SOL    HW2 1734   2.173   0.643   1.204 -1.4184  0.5018 -2.4311
  579SOL     OW 1735   1.802   1.000   2.459 -0.5011 -0.2818  0.0122
  579SOL    HW1 1736   1.841   0.972   2.367 -2.3264  0.1674  1.3534
  579SOL    HW2 1737   1.709   1.039   2.449  4.0611 -1.7676  0.4352
  580SOL     OW 1738   1.293   1.261   1.874  0.2202 -0.1971 -0.2152
  580SOL    HW1 1739   1.273   1.230   1.779  0.1486  2.7665 -1.5451
  580SOL    HW2 1740   1.222   1.324   1.911 -0.3454 -1.4072  2.6417
  581SOL     OW 1741   0.225   0.755   1.140 -0.4371  0.4328  0.6487
  581SOL    HW1 1742   0.124   0.758   1.143  1.5386  2.2330  2.0222
  581SOL    HW2 1743   0.258   0.660   1.153  1.1519  0.0412  0.1514
  582SOL     OW 1744   2.877   0.621   1.923  0.3902  0.1954  1.0798
  582SOL    HW1 1745   2.816   0.541   1.911  0.9742  3.2460 -0.6009
  582SOL    HW2 1746   2.923   0.629   2.012 -4.2656 -3.7935 -1.9061
  583SOL     OW 1747   3.075   0.587   2.539  0.3306 -0.1065  0.2059
  583SOL    HW1 1748   0.003   0.667   2.489 -0.3167 -0.3300  0.1695
  583SOL    HW2 1749   3.006   0.545   2.482  1.4487 -0.4883  3.6920
  584SOL     OW 1750   1.936   2.484   0.473 -0.0281 -0.0617  0.1738
  584SOL    HW1 1751   1.980   2.397   0.493  0.4887 -0.1932 -1.4628
  584SOL    HW2 1752   1.892   2.487   0.379 -0.2437 -2.2850 -0.1478
  585SOL     OW 1753   0.041   2.315   0.147 -0.1838  0.4722  0.0479
  585SOL    HW1 1754   0.036   2.228   0.100 -3.7487  2.4161  1.5513
  585SOL    HW2 1755   0.068   2.309   0.245  0.9496 -1.2564  2.1645
  586SOL     OW 1756   1.849   2.010   2.532  0.1906  0.2220  0.2363
  586SOL    HW1 1757   1.828   2.087   2.467  0.4619  0.3927 -0.9473
  586SOL    HW2 1758   1.946   2.004   2.555 -1.0490 -0.2301 -1.7858
  587SOL     OW 1759   2.295   1.567   2.759  0.3186  0.2065 -0.3261
  587SOL    HW1 1760   2.383   1.600   2.734  0.8020  0.2251  0.2935
  587SOL    HW2 1761   2.292   1.468   2.791  2.5651 -2.8411 -1.5935
  588SOL     OW 1762   3.054   0.050   1.372 -0.1311 -0.0716 -0.2488
  588SOL    HW1 1763   3.101   0.002   1.296  0.3301  1.5200  2.0727
  588SOL    HW2 1764   0.001   0.133   1.401 -2.6929 -0.3142  0.1578
  589SOL     OW 1765   0.562   0.268   0.683  0.0504 -0.4515 -0.1980
  589SOL    HW1 1766   0.569   0.230   0.590 -2.3999  3.4773  0.3359
  589SOL    HW2 1767   0.511   0.357   0.682 -1.2361  2.6853 -1.8089
  590SOL     OW 1768   2.537   2.147   0.888 -0.5074  0.6185  0.2719
  590SOL    HW1 1769   2.478   2.220   0.853  1.4943 -2.5115  0.2731
  590SOL    HW2 1770   2.562   2.093   0.803 -0.5334  0.2075 -1.1896
  591SOL     OW 1771   0.936   2.648   1.037 -0.0327 -0.0283 -0.3759
  591SOL    HW1 1772   0.912   2.556   1.000 -4.1470  0.0712  0.2414
  591SOL    HW2 1773   1.027   2.652   1.084 -0.8131  0.8522  0.3711
  592SOL     OW 1774   1.070   1.195   1.198  0.4166  0.2719 -0.9012
  592SOL    HW1 1775   1.174   1.204   1.197  0.6776 -0.3386  0.8742
  592SOL    HW2 1776   1.049   1.098   1.166 -0.6815 -1.8740 -2.0918
  593SOL     OW 1777   0.903   2.524   1.340 -0.0684 -0.1706  0.3262
  593SOL    HW1 1778   0.946   2.546   1.431 -2.0886 -1.3535  0.9885
  593SOL    HW2 1779   0.971   2.484   1.277 -2.0151  0.2925  1.4177
  594SOL     OW 1780   0.970   1.516   3.010 -0.3321 -0.4625 -0.3460
  594SOL    HW1 1781   1.017   1.593   3.056  1.7236 -0.0894 -0.0072
  594SOL    HW2 1782   0.879   1.497   3.056  1.1108 -1.9266 -2.3950
  595SOL     OW 1783   1.557   1.343   1.485 -0.0179 -0.2724  0.2190
  595SOL    HW1 1784   1.614   1.342   1.569 -0.3141  0.2370 -0.5093
  595SOL    HW2 1785   1.502   1.430   1.482  1.3318  1.4531  0.4502
  596SOL     OW 1786   2.816   1.208   2.091  0.2749  0.1280  0.6190
  596SOL    HW1 1787   2.901   1.214   2.149  0.9116 -0.8728 -1.6191
  596SOL    HW2 1788   2.822   1.130   2.028  2.0358 -0.9787 -0.4719
  597SOL     OW 1789   1.479   2.554   1.724 -0.3926 -0.4680 -0.1637
  597SOL    HW1 1790   1.403   2.578   1.662  1.8925  1.8776  1.1661
  597SOL    HW2 1791   1.434   2.539   1.814 -0.0410 -0.7669  0.2868
  598SOL     OW 1792   2.349   1.254   1.563 -0.2855  0.4574 -0.0975
  598SOL    HW1 1793   2.427   1.247   1.505 -1.0367 -1.0497 -1.4700
  598SOL    HW2 1794   2.287   1.318   1.517 -0.2370 -1.1345  1.8474
  599SOL     OW 1795   0.859   2.566   2.819 -0.6912  0.2092  0.2782
  599SOL    HW1 1796   0.954   2.601   2.796  2.8564  1.2569 -1.1935
  599SOL    HW2 1797   0.850   2.558   2.924  2.4752 -1.8912  1.5756
  600SOL     OW 1798   2.885   2.076   0.367 -0.0299 -0.3696  0.3143
  600SOL    HW1 1799   2.843   1.988   0.374  2.0323  1.5076 -0.5551
  600SOL    HW2 1800   2.952   2.089   0.443  2.0474  0.6706 -0.7561
  601SOL     OW 1801   0.607   0.673   1.378  0.3807 -0.8988  0.2938
  601SOL    HW1 1802   0.661   0.734   1.441  0.3637 -2.5529  0.2070
  601SOL    HW2 1803   0.520   0.630   1.414 -0.6236 -1.0264 -1.0781
  602SOL     OW 1804   0.707   0.051   1.212  0.0266 -0.2347  0.3870
  602SOL    HW1 1805   0.648   0.057   1.294  0.6165 -1.2223 -0.6288
  602SOL    HW2 1806   0.741   0.149   1.184  1.7911  0.9437  0.3876
  603SOL     OW 1807   0.222   0.040   3.003 -0.2560  0.1222 -0.1956
  603SOL    HW1 1808   0.217   0.044   2.903 -2.3687  0.7151  0.8474
  603SOL    HW2 1809   0.132   0.004   3.039  0.0272  2.2597 -2.2102
  604SOL     OW 1810   1.418   2.962   1.806 -0.0895  0.1098  0.0409
  604SOL    HW1 1811   1.424   2.953   1.910 -0.7080 -0.1018  0.4380
  604SOL    HW2 1812   1.499   2.920   1.761  1.0299  2.3614 -2.2650
  605SOL     OW 1813   1.575   1.457   1.899 -0.0752  0.7896  0.5402
  605SOL    HW1 1814   1.618   1.438   1.809 -0.1694  1.0628 -1.0809
  605SOL    HW2 1815   1.556   1.368   1.945 -1.6840  0.6187  3.5348
  606SOL     OW 1816   2.127   3.010   0.004 -0.3295 -0.0131 -0.1556
  606SOL    HW1 1817   2.179   3.084   0.053  0.4593  1.7941 -2.3746
  606SOL    HW2 1818   2.189   2.953   3.052  0.6881 -0.5833 -1.1215
  607SOL     OW 1819   0.687   0.192   2.195 -0.4912 -0.5927  0.2677
  607SOL    HW1 1820   0.712   0.199   2.295  1.8098  1.8576  2.4153
  607SOL    HW2 1821   0.774   0.178   2.147 -3.6123 -0.1849  2.0986
  608SOL     OW 1822   3.097   2.110   2.128  0.0470  0.1671 -0.0991
  608SOL    HW1 1823   0.009   2.103   2.228  0.6261  2.0331  2.2260
  608SOL    HW2 1824   3.052   2.024   2.094  1.4629 -0.6658  0.1048
  609SOL     OW 1825   1.000   1.188   0.072  0.1762  0.1253  0.2867
  609SOL    HW1 1826   1.011   1.086   0.055  2.7893 -0.5565 -2.1736
  609SOL    HW2 1827   1.086   1.239   0.052  0.9488  1.5172 -2.3351
  610SOL     OW 1828   0.317   2.791   0.970 -0.2362  0.2685 -0.0221
  610SOL    HW1 1829   0.354   2.818   0.881 -0.7282 -1.7676  3.6339
  610SOL    HW2 1830   0.384   2.814   1.045  2.7441 -0.2052 -0.9191
  611SOL     OW 1831   0.965   1.718   0.328 -0.0311  0.0179 -0.1932
  611SOL    HW1 1832   1.037   1.686   0.263  1.7332 -1.0034 -0.2105
  611SOL    HW2 1833   0.938   1.641   0.385 -0.1808  0.6499 -0.9512
  612SOL     OW 1834   2.237   1.966   0.427  0.6773 -0.0936 -0.3716
  612SOL    HW1 1835   2.189   1.899   0.365 -0.9074  0.2528  0.0513
  612SOL    HW2 1836   2.232   1.937   0.528  2.2508 -0.4212  2.9822
  613SOL     OW 1837   1.698   1.608   0.305 -0.0567 -0.4167  0.1693
  613SOL    HW1 1838   1.605   1.648   0.301 -0.3096  0.9578  0.5725
  613SOL    HW2 1839   1.704   1.539   0.378 -0.7906  0.9091 -0.4034
  614SOL     OW 1840   3.008   0.395   2.781 -0.4382 -0.5397 -0.1922
  614SOL    HW1 1841   3.010   0.425   2.679  0.7442  0.5153 -1.1380
  614SOL    HW2 1842   3.001   0.296   2.786  1.5097  4.4473  1.1064
  615SOL     OW 1843   0.520   1.484   0.465  0.1126  0.5111 -0.4032
  615SOL    HW1 1844   0.417   1.464   0.455 -1.1339 -2.6414 -1.1488
  615SOL    HW2 1845   0.541   1.570   0.521  1.7641  1.3231  0.3970
  616SOL     OW 1846   1.527   0.998   2.553  0.0747  0.3612  0.0747
  616SOL    HW1 1847   1.561   1.087   2.589 -0.4290  0.6561 -0.9261
  616SOL    HW2 1848   1.573   0.920   2.603  0.9066 -1.1492  1.3876
  617SOL     OW 1849   1.578   0.709   0.576  0.3228  0.0815 -0.2868
  617SOL    HW1 1850   1.502   0.769   0.565  1.2562 -0.5740  1.8322
  617SOL    HW2 1851   1.563   0.631   0.513 -0.3469 -0.5546 -1.1869
  618SOL     OW 1852   3.041   1.758   2.282  0.7415 -0.2116  0.4162
  618SOL    HW1 1853   0.024   1.712   2.284 -0.4378  0.4595  2.0593
  618SOL    HW2 1854   2.981   1.706   2.340  0.3900  0.1619  0.1801
  619SOL     OW 1855   2.510   1.834   0.809 -0.0113 -0.0188 -0.1309
  619SOL    HW1 1856   2.514   1.862   0.906  1.2365  0.0120 -2.5404
  619SOL    HW2 1857   2.554   1.903   0.749 -1.4890  3.0517 -1.3551
  620SOL     OW 1858   2.541   0.082   1.127  0.1480 -0.0556  0.7927
  620SOL    HW1 1859   2.549   0.019   1.209  2.9609  0.2427 -0.9910
  620SOL    HW2 1860   2.521   0.179   1.155 -0.4713 -0.7522 -1.4659
  621SOL     OW 1861   0.168   1.871   0.930  0.2510  0.2232  0.3582
  621SOL    HW1 1862   0.174   1.830   1.026  2.4999 -1.4150  0.2304
  621SOL    HW2 1863   0.194   1.969   0.927  1.4947 -2.5145  0.6993
  622SOL     OW 1864   0.630   1.868   1.704  0.2524  0.6334  0.1987
  622SOL    HW1 1865   0.540   1.836   1.668 -0.1421  2.0892  0.0875
  622SOL    HW2 1866   0.606   1.944   1.767 -3.3446 -0.1862  0.8286
  623SOL     OW 1867   2.340   3.087   2.265 -0.1774  0.1701  0.1512
  623SOL    HW1 1868   2.334   3.001   2.314  2.3285  1.6881  3.2568
  623SOL    HW2 1869   2.439   0.013   2.267  1.4626  2.0964 -0.3324
  624SOL     OW 1870   0.609   2.015   0.218 -0.1670  0.4021 -0.6200
  624SOL    HW1 1871   0.551   1.945   0.263 -0.1060 -3.6165  1.2237
  624SOL    HW2 1872   0.582   2.028   0.123  1.9127  1.3143 -0.5773
  625SOL     OW 1873   0.762   1.957   2.087 -0.2791 -0.1090 -0.0508
  625SOL    HW1 1874   0.862   1.928   2.073  0.0928 -2.4871  2.0591
  625SOL    HW2 1875   0.702   1.882   2.121  0.5688 -1.6617  1.1477
  626SOL     OW 1876   0.348   2.334   0.358 -0.6974 -0.3633 -0.2051
  626SOL    HW1 1877   0.447   2.335   0.331  0.5668 -0.6591 -2.0971
  626SOL    HW2 1878   0.302   2.243   0.360  2.0315  1.1598  1.7216
  627SOL     OW 1879   1.494   1.646   2.430  0.2908  0.3141  0.3842
  627SOL    HW1 1880   1.592   1.679   2.431  0.5491 -2.5307 -2.0404
  627SOL    HW2 1881   1.497   1.545   2.413 -1.3702 -0.2139  0.8814
  628SOL     OW 1882   1.155   2.139   0.268 -0.4196  0.0385 -0.0347
  628SOL    HW1 1883   1.108   2.225   0.288  2.2442 -0.7741 -3.2652
  628SOL    HW2 1884   1.191   2.105   0.355 -2.7593  1.8274 -0.9274
  629SOL     OW 1885   0.832   0.617   2.177 -0.2657 -0.0674 -0.7054
  629SOL    HW1 1886   0.850   0.654   2.271 -3.2322 -0.2990  1.7834
  629SOL    HW2 1887   0.908   0.563   2.137  0.3254  0.3961  0.4482
  630SOL     OW 1888   2.359   2.763   1.628  0.2377 -0.1463 -0.4586
  630SOL    HW1 1889   2.407   2.789   1.717  0.2278  1.7450 -0.3397
  630SOL    HW2 1890   2.342   2.664   1.619 -2.5381 -1.9231  0.9664
  631SOL     OW 1891   1.511   0.955   0.862 -0.0640  0.3164 -0.1510
  631SOL    HW1 1892   1.409   0.938   0.873 -1.9311  4.1489  0.9588
  631SOL    HW2 1893   1.559   0.910   0.938 -1.7704  2.3928  2.0782
  632SOL     OW 1894   2.396   0.413   2.178  0.1015 -0.3785  0.4984
  632SOL    HW1 1895   2.327   0.396   2.249  0.8076  0.1528 -0.7478
  632SOL    HW2 1896   2.360   0.496   2.136 -0.4486 -3.1846 -1.8120
  633SOL     OW 1897   1.657   1.122   0.014 -0.0493  0.1465 -1.1727
  633SOL    HW1 1898   1.561   1.155   3.102 -4.4921 -0.2180 -0.0715
  633SOL    HW2 1899   1.711   1.117   3.039  0.7217  3.0223  2.1857
  634SOL     OW 1900   0.188   2.101   0.344  0.1634 -0.3688  0.3405
  634SOL    HW1 1901   0.228   2.022   0.390 -2.5834  2.3976 -0.9409
  634SOL    HW2 1902   0.160   2.087   0.247  0.1711  1.4039 -1.9742
  635SOL     OW 1903   2.754   1.471   2.270 -0.2078 -0.5455  0.0754
  635SOL    HW1 1904   2.767   1.388   2.211  0.9540 -2.0452 -0.8700
  635SOL    HW2 1905   2.694   1.543   2.228  0.6809  0.1968  0.0372
  636SOL     OW 1906   0.161   1.762   2.565  0.5711  0.1467  0.4748
  636SOL    HW1 1907   0.152   1.662   2.543 -0.6947  1.1379 -2.0974
  636SOL    HW2 1908   0.257   1.801   2.548 -1.1788  0.5029  0.6869
  637SOL     OW 1909   3.086   2.107   0.528  0.1775 -0.5571 -0.8765
  637SOL    HW1 1910   0.029   2.107   0.449 -3.0849  0.6710  5.7143
  637SOL    HW2 1911   0.029   2.156   0.604 -0.6576 -0.0355 -2.4335
  638SOL     OW 1912   2.445   2.509   0.577  0.1591  0.0006  0.2409
  638SOL    HW1 1913   2.437   2.602   0.617  0.4293 -0.8429 -0.4142
  638SOL    HW2 1914   2.398   2.509   0.485 -0.6964  1.1742 -1.8876
  639SOL     OW 1915   0.968   0.733   0.113 -0.0496  0.0284 -0.8423
  639SOL    HW1 1916   1.042   0.800   0.092  0.7178 -2.1232 -1.8955
  639SOL    HW2 1917   0.992   0.637   0.081 -2.3272 -2.9972  0.2706
  640SOL     OW 1918   2.492   2.221   1.862 -0.2185 -0.4405 -0.1230
  640SOL    HW1 1919   2.533   2.312   1.849  3.3525 -2.0413  0.4362
  640SOL    HW2 1920   2.407   2.225   1.805 -1.1959 -1.0450 -3.0952
  641SOL     OW 1921   2.450   2.829   1.387  0.0472 -0.2262  0.4207
  641SOL    HW1 1922   2.542   2.862   1.397  0.0103 -2.3840 -0.5980
  641SOL    HW2 1923   2.416   2.793   1.479 -0.2918  2.7904  0.4960
  642SOL     OW 1924   0.967   0.998   1.621  0.6309 -0.7681  0.6714
  642SOL    HW1 1925   1.048   0.935   1.598  0.3170 -1.0040  0.5327
  642SOL    HW2 1926   0.979   1.093   1.581 -1.2782 -0.3665 -2.1494
  643SOL     OW 1927   0.702   1.454   2.065 -0.2759  0.1835  0.3423
  643SOL    HW1 1928   0.692   1.364   2.120  0.6401 -4.0080  2.6465
  643SOL    HW2 1929   0.667   1.436   1.972  1.2958 -0.2929 -2.3212
  644SOL     OW 1930   1.037   0.132   2.185  0.5477  0.4615 -0.1676
  644SOL    HW1 1931   1.028   0.218   2.236  1.4783  0.0148 -0.1599
  644SOL    HW2 1932   1.098   0.153   2.108  0.2869  1.5336  0.6843
  645SOL     OW 1933   1.956   1.161   1.387  0.4311  0.2545 -0.3222
  645SOL    HW1 1934   1.862   1.183   1.373  5.0843 -1.6131  0.9418
  645SOL    HW2 1935   2.018   1.234   1.371 -1.7027  0.3798  1.1352
  646SOL     OW 1936   1.793   2.535   0.257  0.0147  0.0182  0.1576
  646SOL    HW1 1937   1.819   2.634   0.232  3.1873  2.1957 -0.0896
  646SOL    HW2 1938   1.690   2.523   0.269 -1.4829  1.7341  2.8914
  647SOL     OW 1939   1.482   2.710   0.755  0.2220  0.4164  1.1583
  647SOL    HW1 1940   1.522   2.697   0.848 -2.1652  0.6581 -1.5186
  647SOL    HW2 1941   1.558   2.716   0.687  0.5991  4.0226  0.8403
  648SOL     OW 1942   0.367   2.484   1.265  0.0468 -0.4015  0.1997
  648SOL    HW1 1943   0.307   2.547   1.323  1.4621 -1.2086  1.5938
  648SOL    HW2 1944   0.344   2.502   1.165  2.5095  0.9667 -0.1447
  649SOL     OW 1945   1.160   2.607   3.032  0.4438 -0.4681 -0.2906
  649SOL    HW1 1946   1.143   2.506   3.056  0.4644  2.0837  1.6187
  649SOL    HW2 1947   1.121   2.669   3.108 -0.6141 -1.5882  0.7747
  650SOL     OW 1948   2.777   1.551   3.024  0.2232 -0.0210 -0.1439
  650SOL    HW1 1949   2.719   1.470   3.043 -0.9584 -5.3477  0.2708
  650SOL    HW2 1950   2.863   1.545   3.084  3.7988  0.7090  2.1984
  651SOL     OW 1951   2.522   2.103   2.420 -0.6322  0.4965 -0.6599
  651SOL    HW1 1952   2.565   2.189   2.385  2.5356  0.7299 -0.7372
  651SOL    HW2 1953   2.459   2.121   2.493 -0.0784 -1.7785 -0.9501
  652SOL     OW 1954   2.713   2.462   0.567 -0.3608  0.0787 -0.4025
  652SOL    HW1 1955   2.612   2.469   0.569  2.1657  0.5917 -1.0330
  652SOL    HW2 1956   2.746   2.447   0.474 -0.6791 -0.7971  3.3354
  653SOL     OW 1957   2.464   1.862   1.378 -0.1466 -0.3991  0.4823
  653SOL    HW1 1958   2.555   1.899   1.401  2.7038 -4.2822 -1.8874
  653SOL    HW2 1959   2.476   1.771   1.335 -0.6284 -0.2386 -1.1467
  654SOL     OW 1960   1.040   1.112   0.354  0.0069 -0.5706 -0.1036
  654SOL    HW1 1961   1.012   1.013   0.359  0.2694 -3.1577 -0.8408
  654SOL    HW2 1962   1.051   1.138   0.254  1.1464  0.7774 -2.4118
  655SOL     OW 1963   1.346   1.426   0.717 -0.2170 -0.1255 -0.1476
  655SOL    HW1 1964   1.246   1.441   0.718 -2.4015  1.5928  0.4350
  655SOL    HW2 1965   1.379   1.503   0.659 -1.7437  0.7508 -1.1842
  656SOL     OW 1966   1.555   2.533   2.153  0.5928 -0.0847  0.4157
  656SOL    HW1 1967   1.630   2.595   2.151 -0.1151 -1.7646 -1.7940
  656SOL    HW2 1968   1.537   2.489   2.241 -2.2702  0.0580  1.1804
  657SOL     OW 1969   2.179   1.515   0.542 -0.1195 -0.0320  0.0856
  657SOL    HW1 1970   2.101   1.461   0.513  2.1894  1.1001 -1.4648
  657SOL    HW2 1971   2.236   1.536   0.461 -2.9535 -0.9140 -1.4040
  658SOL     OW 1972   2.085   0.006   1.776 -0.6512  0.6674  0.0195
  658SOL    HW1 1973   2.108   3.054   1.856 -2.3600 -2.0184  1.9669
  658SOL    HW2 1974   2.125   3.075   1.688  1.0893  0.4640 -0.1255
  659SOL     OW 1975   3.063   1.519   0.441  0.0513  0.5839  0.5575
  659SOL    HW1 1976   0.030   1.537   0.373  1.1178 -0.5083 -3.5069
  659SOL    HW2 1977   3.003   1.599   0.449  0.2639  3.0745  0.2222
  660SOL     OW 1978   1.153   0.449   0.865 -0.3634  0.2740 -0.0040
  660SOL    HW1 1979   1.138   0.543   0.891 -0.0108 -2.5934 -2.2882
  660SOL    HW2 1980   1.238   0.409   0.904  0.5588  0.1510  2.0687
  661SOL     OW 1981   1.724   0.554   3.078  0.1592 -0.5899  0.0373
  661SOL    HW1 1982   1.727   0.655   3.060  2.5004  2.0299 -1.5587
  661SOL    HW2 1983   1.817   0.522   3.053  0.7466 -1.2520  0.4562
  662SOL     OW 1984   0.440   0.091   0.447  0.0376  0.0567  0.3235
  662SOL    HW1 1985   0.451   0.005   0.399  1.2372  1.9483  0.9314
  662SOL    HW2 1986   0.490   0.159   0.397  1.0856 -0.2813  2.1046
  663SOL     OW 1987   1.426   2.524   2.960  0.1712  0.1214 -0.3873
  663SOL    HW1 1988   1.330   2.547   2.975 -1.3185 -1.3022 -0.8970
  663SOL    HW2 1989   1.435   2.431   2.918 -0.9751  0.2281  2.0787
  664SOL     OW 1990   0.668   2.648   1.277 -0.8815 -0.5722  0.9795
  664SOL    HW1 1991   0.590   2.583   1.269  0.2725  0.1757 -1.3782
  664SOL    HW2 1992   0.751   2.600   1.316  0.3093  1.2044  0.4953
  665SOL     OW 1993   1.486   3.064   1.082  0.3203  0.1544 -0.4474
  665SOL    HW1 1994   1.476   3.069   0.983  0.5042 -1.6126  0.6715
  665SOL    HW2 1995   1.584   3.057   1.104 -1.5064 -0.1455 -0.2174
  666SOL     OW 1996   0.856   2.316   2.691  0.3747 -0.3737  0.2012
  666SOL    HW1 1997   0.852   2.409   2.733 -1.9328 -2.1646 -0.7753
  666SOL    HW2 1998   0.864   2.243   2.760 -0.6364  0.6937 -0.6508
  667SOL     OW 1999   2.895   0.478   1.477  0.0288 -0.5522 -0.4063
  667SOL    HW1 2000   2.874   0.378   1.497 -0.9789 -1.5790  0.0625
  667SOL    HW2 2001   2.983   0.476   1.428  0.1607 -0.9756  1.0617
  668SOL     OW 2002   0.890   0.493   1.606 -0.5619 -0.4667  0.3088
  668SOL    HW1 2003   0.864   0.457   1.518 -1.6589 -0.3194 -0.0698
  668SOL    HW2 2004   0.811   0.537   1.655 -3.4459 -1.1668  0.0226
  669SOL     OW 2005   1.490   2.853   1.295 -0.0653 -0.1999  0.2192
  669SOL    HW1 2006   1.522   2.907   1.376 -0.2716  1.9071  1.9925
  669SOL    HW2 2007   1.499   2.912   1.210  0.4393 -0.5663 -1.9409
  670SOL     OW 2008   1.697   2.487   3.013 -0.3926 -0.3463 -0.0583
  670SOL    HW1 2009   1.606   2.529   3.003 -3.5007  1.0165 -3.0467
  670SOL    HW2 2010   1.763   2.541   2.960 -0.6308 -0.6487  1.0263
  671SOL     OW 2011   0.461   1.374   2.844  0.1465  0.0192 -0.1042
  671SOL    HW1 2012   0.429   1.414   2.758  0.8055  1.4778  0.8598
  671SOL    HW2 2013   0.531   1.305   2.822 -0.5584 -1.1136 -2.0134
  672SOL     OW 2014   2.476   0.546   2.882  0.1365  0.0554 -0.4700
  672SOL    HW1 2015   2.541   0.628   2.894  4.9550 -1.6606 -0.2034
  672SOL    HW2 2016   2.505   0.489   2.800  1.3044 -0.9604 -1.1610
  673SOL     OW 2017   0.031   1.963   1.333 -0.4559  0.3684  0.0005
  673SOL    HW1 2018   3.100   1.985   1.422 -1.5489  3.0447  0.1059
  673SOL    HW2 2019   0.075   2.043   1.281 -0.2239  1.7314 -4.0213
  674SOL     OW 2020   1.568   2.107   1.790  0.4647 -0.3801  0.4687
  674SOL    HW1 2021   1.477   2.134   1.822  2.0189 -0.6705 -1.6149
  674SOL    HW2 2022   1.580   2.121   1.686  2.1826  1.4956 -1.3194
  675SOL     OW 2023   1.341   1.469   1.234 -0.0383 -0.1655  0.5431
  675SOL    HW1 2024   1.289   1.506   1.159  0.9756 -2.0741  0.4803
  675SOL    HW2 2025   1.328   1.373   1.248 -2.4930  0.8286 -0.0820
  676SOL     OW 2026   2.488   0.773   0.822 -0.2745  0.3720  0.3184
  676SOL    HW1 2027   2.428   0.851   0.843  0.1900 -0.5441  2.0245
  676SOL    HW2 2028   2.580   0.790   0.858 -1.3777 -1.1713 -0.4640
  677SOL     OW 2029   2.520   0.382   0.487 -0.2205 -0.0256 -0.2532
  677SOL    HW1 2030   2.604   0.355   0.539  0.1417  0.3472 -2.1538
  677SOL    HW2 2031   2.539   0.451   0.413 -2.1072 -1.3206  0.2540
  678SOL     OW 2032   2.527   1.200   1.029  0.1783  0.0074 -0.0270
  678SOL    HW1 2033   2.558   1.293   1.013 -0.1184 -1.9601  0.5233
  678SOL    HW2 2034   2.600   1.168   1.094 -1.3747  0.8928  4.0294
  679SOL     OW 2035   2.590   0.507   0.242 -0.3339 -0.0435  0.6329
  679SOL    HW1 2036   2.566   0.595   0.198 -1.9579  2.0985 -2.2602
  679SOL    HW2 2037   2.678   0.462   0.206 -1.2480 -2.8684 -1.8688
  680SOL     OW 2038   0.612   1.698   2.139  0.5078  0.2344  0.5129
  680SOL    HW1 2039   0.649   1.604   2.128  2.1477 -0.0945 -1.6663
  680SOL    HW2 2040   0.603   1.723   2.236 -0.1042  0.1030 -1.0621
  681SOL     OW 2041   2.569   2.213   1.552  0.4384 -0.5053 -0.1801
  681SOL    HW1 2042   2.523   2.299   1.563  1.7196 -2.4530 -1.1111
  681SOL    HW2 2043   2.514   2.134   1.582  4.3691  0.9903 -2.3404
  682SOL     OW 2044   0.573   1.675   2.472  0.0355 -0.7421 -0.0870
  682SOL    HW1 2045   0.665   1.651   2.500 -1.3401 -0.7714 -1.4388
  682SOL    HW2 2046   0.534   1.756   2.522  0.9151 -1.2809 -0.1805
  683SOL     OW 2047   2.704   1.958   1.423  0.4287  0.3305 -0.4146
  683SOL    HW1 2048   2.763   1.966   1.337  1.5109 -0.3672 -1.8677
  683SOL    HW2 2049   2.735   2.012   1.500 -2.7719 -2.0910 -1.5754
  684SOL     OW 2050   2.600   1.380   1.848 -0.2973 -0.2654 -0.3089
  684SOL    HW1 2051   2.524   1.412   1.905  0.7443 -0.3266 -0.9058
  684SOL    HW2 2052   2.588   1.280   1.847 -2.0905 -0.2623  0.4976
  685SOL     OW 2053   0.826   1.051   0.873  0.1954  0.3436 -0.2782
  685SOL    HW1 2054   0.907   1.103   0.848  1.1619 -1.6757 -0.5545
  685SOL    HW2 2055   0.771   1.045   0.789 -1.0200  0.4659  1.1494
  686SOL     OW 2056   0.569   3.094   2.731  0.0085  0.2470 -0.0576
  686SOL    HW1 2057   0.631   0.017   2.807 -0.6788 -1.5732  1.6400
  686SOL    HW2 2058   0.546   0.054   2.660 -0.0380 -2.5265 -1.1455
  687SOL     OW 2059   0.628   2.078   1.883  0.0291  0.5539 -0.1248
  687SOL    HW1 2060   0.690   2.160   1.865  4.7603  1.9543 -0.5623
  687SOL    HW2 2061   0.659   2.026   1.968  1.1790 -2.1830  1.7056
  688SOL     OW 2062   2.169   0.489   1.649  0.3533 -0.2912 -0.4235
  688SOL    HW1 2063   2.076   0.513   1.616 -1.1480  0.2901 -1.4094
  688SOL    HW2 2064   2.237   0.509   1.579 -3.9491 -1.6655  2.4143
  689SOL     OW 2065   1.956   0.923   0.821  0.4689  0.4556 -0.5351
  689SOL    HW1 2066   1.980   0.970   0.907  0.2319 -0.4335  1.2943
  689SOL    HW2 2067   1.966   0.823   0.837 -4.7303 -2.5032 -0.4995
  690SOL     OW 2068   2.875   0.824   1.269 -0.2701  0.7502  0.6522
  690SOL    HW1 2069   2.967   0.802   1.230 -2.0366 -2.1751  0.0003
  690SOL    HW2 2070   2.832   0.735   1.302  0.7209 -0.5210  1.0831
  691SOL     OW 2071   0.054   1.071   2.040  0.1831  0.1071  0.0619
  691SOL    HW1 2072   0.017   1.171   2.042 -0.8408  1.8570 -2.0200
  691SOL    HW2 2073   0.007   1.010   1.972 -0.8793  0.5532  2.6689
  692SOL     OW 2074   0.713   1.086   1.948  0.0190  0.5478  0.1810
  692SOL    HW1 2075   0.690   1.116   2.043 -2.5194 -0.3077 -0.6212
  692SOL    HW2 2076   0.770   1.001   1.946 -0.6540  0.3862 -1.0181
  693SOL     OW 2077   0.450   1.041   1.861  0.6186 -0.0768  0.1804
  693SOL    HW1 2078   0.546   1.031   1.878 -2.9733 -1.6871 -0.8848
  693SOL    HW2 2079   0.405   1.111   1.917 -1.1572 -1.0299  0.1807
  694SOL     OW 2080   1.381   1.971   0.895 -0.4620  0.1034  0.5842
  694SOL    HW1 2081   1.445   1.924   0.831 -0.0883  1.0840 -1.1217
  694SOL    HW2 2082   1.298   1.919   0.917 -0.7657  0.1470  1.7202
  695SOL     OW 2083   3.062   0.738   1.060 -0.5995 -0.4046  0.2268
  695SOL    HW1 2084   3.090   0.778   0.975 -1.5421  1.3353  1.4328
  695SOL    HW2 2085   3.019   0.645   1.045 -0.3289 -1.4609 -0.5622
  696SOL     OW 2086   0.793   2.360   0.736 -0.0194 -0.2283 -0.1222
  696SOL    HW1 2087   0.739   2.449   0.745 -0.8332  0.1387  3.4384
  696SOL    HW2 2088   0.844   2.342   0.823 -0.6694 -1.0247 -0.5060
  697SOL     OW 2089   1.595   0.811   1.630  0.5545  0.4675  0.8111
  697SOL    HW1 2090   1.646   0.899   1.619 -0.3517  1.2932  2.1899
  697SOL    HW2 2091   1.510   0.806   1.569 -2.7383  0.4916 -0.4230
  698SOL     OW 2092   1.785   1.621   1.528  0.5595 -0.2772  0.0610
  698SOL    HW1 2093   1.725   1.687   1.575 -0.7959 -0.2061  0.5030
  698SOL    HW2 2094   1.830   1.665   1.448  0.6582  2.6101  0.1316
  699SOL     OW 2095   0.368   0.443   2.553  0.7572  0.3583  0.0348
  699SOL    HW1 2096   0.283   0.413   2.505 -1.2433 -0.4816 -0.0089
  699SOL    HW2 2097   0.427   0.492   2.489 -1.8801 -1.2416 -0.2669
  700SOL     OW 2098   1.580   2.368   0.606 -0.0227  0.4728 -0.1575
  700SOL    HW1 2099   1.641   2.445   0.636  0.0641 -1.8771 -1.4120
  700SOL    HW2 2100   1.480   2.387   0.600 -3.2068  1.7955 -0.5124
  701SOL     OW 2101   3.068   1.311   2.066 -0.5762 -0.7265  0.3444
  701SOL    HW1 2102   3.063   1.358   2.157 -0.5781  1.1102 -1.7516
  701SOL    HW2 2103   3.089   1.377   1.988 -1.0357  4.0995 -0.1916
  702SOL     OW 2104   0.722   0.042   2.954  0.6738  0.0224 -0.6448
  702SOL    HW1 2105   0.753   0.119   2.896  0.7292 -2.8074 -0.4616
  702SOL    HW2 2106   0.665   0.077   3.031 -1.3597 -1.1113 -2.7364
  703SOL     OW 2107   1.528   0.474   2.760 -0.0356  0.2215  0.0721
  703SOL    HW1 2108   1.599   0.417   2.806 -0.6460  0.5387 -0.5838
  703SOL    HW2 2109   1.456   0.417   2.709  0.1102  1.2143 -2.9241
  704SOL     OW 2110   2.790   1.332   0.986 -0.1770  0.2370  0.1701
  704SOL    HW1 2111   2.745   1.420   1.002 -1.0340 -1.2183 -1.5119
  704SOL    HW2 2112   2.841   1.288   1.062  0.0523  0.1432  0.1568
  705SOL     OW 2113   2.482   1.962   1.941 -0.7541  0.0887 -0.4865
  705SOL    HW1 2114   2.502   2.054   1.908  0.1515 -3.1602  1.2881
  705SOL    HW2 2115   2.416   1.912   1.887  0.9353 -2.6155 -1.0968
  706SOL     OW 2116   3.017   2.498   0.939 -0.3496  0.1566 -0.5014
  706SOL    HW1 2117   3.084   2.555   0.888  0.7497 -2.9086 -0.2925
  706SOL    HW2 2118   2.971   2.432   0.876 -0.3569 -1.9917  1.6042
  707SOL     OW 2119   1.132   2.851   0.299  0.6552 -0.2011  0.5847
  707SOL    HW1 2120   1.226   2.861   0.266  0.4267 -2.9139  1.7325
  707SOL    HW2 2121   1.102   2.919   0.366 -1.3039 -1.4119  0.2590
  708SOL     OW 2122   0.863   2.265   1.484 -0.4231 -0.6233 -0.0074
  708SOL    HW1 2123   0.858   2.350   1.426  1.6008 -0.5520  0.3819
  708SOL    HW2 2124   0.794   2.196   1.448  2.5810  1.6263 -1.3645
  709SOL     OW 2125   2.080   0.275   2.733 -0.5245 -0.0689  0.3836
  709SOL    HW1 2126   2.006   0.344   2.720 -0.5621  0.6156 -1.2355
  709SOL    HW2 2127   2.115   0.258   2.639 -1.6537  1.4120  0.6790
  710SOL     OW 2128   1.047   2.755   2.570 -0.1757 -0.1610 -0.0075
  710SOL    HW1 2129   1.131   2.764   2.510 -1.2952  2.2074 -0.4167
  710SOL    HW2 2130   1.065   2.775   2.666 -3.1499  0.4879 -1.9254
  711SOL     OW 2131   1.069   2.302   2.537  0.6016  0.1607 -0.4488
  711SOL    HW1 2132   1.074   2.391   2.490  0.0731 -1.2594 -2.3191
  711SOL    HW2 2133   0.983   2.303   2.600 -1.2487 -0.4261  0.1378
  712SOL     OW 2134   1.223   1.923   2.667  0.8915 -0.1896  0.1568
  712SOL    HW1 2135   1.146   1.921   2.594 -1.3483 -0.2111 -2.0204
  712SOL    HW2 2136   1.205   1.854   2.742  1.9773  2.8703 -0.3232
  713SOL     OW 2137   0.941   0.890   1.868  0.2718  0.4355  0.4366
  713SOL    HW1 2138   0.938   0.952   1.784  0.2811  1.3094  1.1645
  713SOL    HW2 2139   0.969   0.791   1.845 -2.1856 -3.3280 -1.5293
  714SOL     OW 2140   1.564   2.012   1.082  0.0353 -0.2298 -0.4604
  714SOL    HW1 2141   1.549   2.108   1.118 -1.5570  0.2166  1.0052
  714SOL    HW2 2142   1.482   1.999   1.028  1.0218  2.5968  2.5488
  715SOL     OW 2143   0.159   0.392   0.561 -0.5562  0.0106  0.1733
  715SOL    HW1 2144   0.164   0.293   0.536 -1.1364 -0.8251  0.7312
  715SOL    HW2 2145   0.137   0.445   0.476  2.0124 -0.0198 -1.6037
  716SOL     OW 2146   0.739   2.659   0.289  0.2223 -0.1541  0.4132
  716SOL    HW1 2147   0.808   2.615   0.350 -0.5434 -1.3406  1.4051
  716SOL    HW2 2148   0.732   2.617   0.196  1.0669 -0.5385 -1.6569
  717SOL     OW 2149   0.078   0.226   0.196  0.4937 -0.1552 -0.2028
  717SOL    HW1 2150   0.102   0.130   0.213 -0.0280  0.6668 -1.2394
  717SOL    HW2 2151   0.018   0.236   0.108  0.3430 -1.9705 -1.6741
  718SOL     OW 2152   1.569   2.280   1.214  0.4003  0.7052 -0.1801
  718SOL    HW1 2153   1.554   2.370   1.268  0.9638  2.0855  1.5176
  718SOL    HW2 2154   1.652   2.225   1.244  1.6231  1.1282 -0.1677
  719SOL     OW 2155   2.853   2.328   0.796 -0.2117 -1.0957  0.5275
  719SOL    HW1 2156   2.823   2.239   0.835 -1.1040 -1.6474  0.7179
  719SOL    HW2 2157   2.789   2.365   0.726  3.9036 -1.9371 -1.4880
  720SOL     OW 2158   1.097   1.489   0.789 -0.4802  0.2765  0.1055
  720SOL    HW1 2159   1.045   1.572   0.758 -0.5098  5.1037 -1.2710
  720SOL    HW2 2160   1.058   1.442   0.872  1.8049  0.0480  3.4148
  721SOL     OW 2161   0.922   0.666   1.084  0.5160  0.1307 -0.5072
  721SOL    HW1 2162   0.849   0.661   1.017 -3.6703  1.2683 -0.0762
  721SOL    HW2 2163   0.963   0.576   1.105 -0.5250 -0.0677 -0.3524
  722SOL     OW 2164   1.056   1.241   1.474 -0.0789 -0.2964  0.1080
  722SOL    HW1 2165   1.144   1.227   1.532 -0.4789  1.6067 -0.4899
  722SOL    HW2 2166   1.067   1.255   1.371  1.8608 -1.7568 -5.1536
  723SOL     OW 2167   0.832   0.080   1.712  0.0528  0.1097  0.1347
  723SOL    HW1 2168   0.823   0.127   1.625  0.1288 -0.5008  0.9864
  723SOL    HW2 2169   0.761   0.004   1.721  0.0401  0.2846  0.1364
  724SOL     OW 2170   1.925   2.018   1.993 -0.8088 -0.1724  0.3413
  724SOL    HW1 2171   1.890   1.929   1.954 -1.6658 -2.9059 -0.6957
  724SOL    HW2 2172   1.891   2.100   1.943 -1.3010 -0.6307 -0.5323
  725SOL     OW 2173   1.025   2.914   1.453  0.4478  0.3081 -0.3312
  725SOL    HW1 2174   1.112   2.862   1.434  2.2397 -0.2289 -2.5739
  725SOL    HW2 2175   0.957   2.855   1.501  1.6895 -2.2947  0.2347
  726SOL     OW 2176   1.561   0.587   0.317  0.3755  0.1154  0.2883
  726SOL    HW1 2177   1.463   0.620   0.328 -0.0252  0.4210  0.5465
  726SOL    HW2 2178   1.565   0.502   0.257 -2.8483 -1.3825 -2.3865
  727SOL     OW 2179   1.296   2.218   0.810 -0.1869  0.7746 -0.2801
  727SOL    HW1 2180   1.361   2.293   0.836 -0.7331  0.3134 -2.9098
  727SOL    HW2 2181   1.340   2.127   0.834 -0.8276 -3.0946 -1.8753
  728SOL     OW 2182   1.777   0.180   2.453  0.8478 -0.3302  0.1041
  728SOL    HW1 2183   1.689   0.158   2.500  0.7758  0.5382  1.3127
  728SOL    HW2 2184   1.836   0.095   2.443  1.8132 -3.9129  0.5764
  729SOL     OW 2185   2.473   1.492   0.994  0.1118 -0.3185  0.1226
  729SOL    HW1 2186   2.448   1.475   0.897 -2.1628 -2.5892 -0.7304
  729SOL    HW2 2187   2.531   1.575   1.002  1.3839  1.6929  3.3927
  730SOL     OW 2188   2.186   1.022   2.664 -0.1223 -0.3884  0.1895
  730SOL    HW1 2189   2.181   1.097   2.596 -1.0569  0.5821  0.4107
  730SOL    HW2 2190   2.092   0.993   2.690  1.0333 -1.2504  0.4292
  731SOL     OW 2191   0.352   0.070   1.659 -0.4066 -0.8143  0.2394
  731SOL    HW1 2192   0.369   0.153   1.599 -1.7607  1.1630 -2.0669
  731SOL    HW2 2193   0.368   3.097   1.607 -0.6314  2.6777  0.8674
  732SOL     OW 2194   1.810   0.512   1.284 -0.0523 -0.3787 -0.1499
  732SOL    HW1 2195   1.801   0.594   1.344  1.3096 -0.0267  1.0790
  732SOL    HW2 2196   1.814   0.531   1.185 -1.6644  0.6293 -0.9701
  733SOL     OW 2197   0.646   1.306   1.796  0.0779  0.2013  0.6033
  733SOL    HW1 2198   0.727   1.334   1.736  0.4088  2.6298 -1.8272
  733SOL    HW2 2199   0.670   1.229   1.856 -2.0133  2.6997 -1.6502
  734SOL     OW 2200   2.636   1.838   0.257 -0.2601  0.0761 -0.0906
  734SOL    HW1 2201   2.598   1.813   0.169  2.3257  4.4655  1.2144
  734SOL    HW2 2202   2.601   1.927   0.286 -3.1070 -0.4374 -1.0704
  735SOL     OW 2203   0.703   0.960   0.393 -0.3959 -1.0230 -0.0449
  735SOL    HW1 2204   0.640   0.885   0.411 -1.3134  0.3417 -1.0678
  735SOL    HW2 2205   0.788   0.914   0.353 -0.6297 -3.3828 -1.7052
  736SOL     OW 2206   1.744   2.816   0.025  0.5723 -0.2280 -0.7630
  736SOL    HW1 2207   1.828   2.786   3.088  1.3389 -2.7245  0.7994
  736SOL    HW2 2208   1.662   2.789   3.085  1.3169  2.1714 -2.1173
  737SOL     OW 2209   1.294   2.159   1.196 -0.5189  0.3405 -0.4416
  737SOL    HW1 2210   1.288   2.077   1.255 -0.4600 -0.8851 -0.2598
  737SOL    HW2 2211   1.385   2.196   1.207 -1.7312  0.0243  0.3249
  738SOL     OW 2212   1.989   3.087   2.673 -0.0506 -0.3615  0.3284
  738SOL    HW1 2213   2.007   0.077   2.670  2.6783 -0.5549 -0.7246
  738SOL    HW2 2214   1.982   3.050   2.579  2.3180 -0.6443  0.3118
  739SOL     OW 2215   1.758   2.369   2.669 -0.1444  0.0490 -0.4069
  739SOL    HW1 2216   1.827   2.320   2.615  0.4420  1.1429  1.1598
  739SOL    HW2 2217   1.695   2.422   2.606  1.1863 -1.8937 -1.8354
  740SOL     OW 2218   1.805   2.303   2.218  0.1485 -0.2453  0.1123
  740SOL    HW1 2219   1.711   2.322   2.190  1.2638 -0.2997  0.3090
  740SOL    HW2 2220   1.813   2.200   2.225  1.1423 -2.8520  0.2869
  741SOL     OW 2221   2.315   2.074   2.632 -0.0182  0.4880  0.1093
  741SOL    HW1 2222   2.226   2.095   2.677 -0.8994  1.7932  1.6238
  741SOL    HW2 2223   2.387   2.062   2.701  1.0464 -1.1383 -0.0112
  742SOL     OW 2224   1.219   1.487   2.702  0.6334 -0.1348 -0.1611
  742SOL    HW1 2225   1.312   1.463   2.740  0.1908  0.3063 -0.3666
  742SOL    HW2 2226   1.230   1.532   2.614  2.5859 -0.5379  0.3840
  743SOL     OW 2227   1.482   1.402   2.811 -0.1528 -0.2555  0.8145
  743SOL    HW1 2228   1.461   1.321   2.860 -3.2270  1.1775 -3.6210
  743SOL    HW2 2229   1.489   1.488   2.866 -0.6809  3.1824 -2.3338
  744SOL     OW 2230   2.287   3.035   1.285 -0.1026 -0.2863 -0.1087
  744SOL    HW1 2231   2.353   2.971   1.321 -0.7472  3.0735 -2.2851
  744SOL    HW2 2232   2.227   2.990   1.220  0.7846  2.6009 -0.4936
  745SOL     OW 2233   2.743   0.940   0.789  0.2933 -0.2097  0.0546
  745SOL    HW1 2234   2.652   0.987   0.771 -2.9579 -0.2429  1.7022
  745SOL    HW2 2235   2.809   1.020   0.786 -0.7853  2.1170 -1.8360
  746SOL     OW 2236   2.515   1.857   1.068  0.3745  0.2072  0.0513
  746SOL    HW1 2237   2.421   1.824   1.058 -0.9008 -0.5226 -0.6849
  746SOL    HW2 2238   2.517   1.933   1.134 -0.6873  1.1300  0.7460
  747SOL     OW 2239   1.691   0.153   0.191  0.2097 -0.5005 -0.0732
  747SOL    HW1 2240   1.785   0.185   0.209  0.8023 -0.3177  2.4809
  747SOL    HW2 2241   1.697   0.096   0.109 -1.4289  1.7911  1.3723
  748SOL     OW 2242   0.717   1.257   0.024 -0.2137  0.0637 -0.0936
  748SOL    HW1 2243   0.689   1.238   3.035  0.7967 -3.7574  2.9043
  748SOL    HW2 2244   0.816   1.232   0.043  1.1954  0.1619 -0.7033
  749SOL     OW 2245   3.005   0.676   2.176  0.4312  0.2765 -0.2072
  749SOL    HW1 2246   2.952   0.609   2.236 -0.1831  1.3039 -1.3899
  749SOL    HW2 2247   3.065   0.737   2.232  0.9793 -0.5010  1.0081
  750SOL     OW 2248   1.011   0.641   1.808  0.1120 -0.2099  0.3329
  750SOL    HW1 2249   1.026   0.578   1.887 -2.9899  0.6379  1.3545
  750SOL    HW2 2250   0.979   0.598   1.718 -0.8708 -2.2044 -2.7882
  751SOL     OW 2251   2.429   2.364   2.121 -0.1858  0.4035  0.4116
  751SOL    HW1 2252   2.437   2.288   2.051  0.4097 -2.9447 -1.1922
  751SOL    HW2 2253   2.412   2.454   2.080  1.5210 -1.5061  1.8216
  752SOL     OW 2254   1.977   1.566   0.855  0.7517 -0.2103  0.0111
  752SOL    HW1 2255   2.064   1.545   0.915  3.4362  0.0583  1.7336
  752SOL    HW2 2256   2.000   1.624   0.773  1.0135  0.2963 -2.5185
  753SOL     OW 2257   1.034   1.000   2.084  0.1528  0.2440 -0.5085
  753SOL    HW1 2258   0.980   0.954   2.006 -1.4320  1.9759  1.7467
  753SOL    HW2 2259   1.106   0.938   2.121 -1.5626 -0.8225  0.7608
  754SOL     OW 2260   0.635   2.560   0.754 -0.0072  0.4456  0.3417
  754SOL    HW1 2261   0.641   2.617   0.670 -1.6951  1.6629 -1.9961
  754SOL    HW2 2262   0.644   2.618   0.839 -0.9875 -0.3342  1.2952
  755SOL     OW 2263   2.669   3.105   0.908  0.6176 -0.1064 -0.0674
  755SOL    HW1 2264   2.619   0.025   0.825  0.4016  2.0446 -0.6291
  755SOL    HW2 2265   2.607   0.026   0.984 -0.5921 -3.0295 -1.3136
  756SOL     OW 2266   2.136   1.962   2.444  0.3737  0.0174 -0.3511
  756SOL    HW1 2267   2.203   2.020   2.491 -0.6790 -1.5619  0.4277
  756SOL    HW2 2268   2.107   2.014   2.359 -0.7094  0.8935 -0.5673
  757SOL     OW 2269   2.867   3.013   1.810  0.5725  0.8117 -0.4548
  757SOL    HW1 2270   2.926   3.048   1.735  1.8683 -0.8053  0.7561
  757SOL    HW2 2271   2.781   3.064   1.820  2.1594 -1.7102  0.6431
  758SOL     OW 2272   0.416   2.385   0.775  0.1105 -0.1105 -0.3273
  758SOL    HW1 2273   0.361   2.406   0.692  2.1250  2.0389  0.2500
  758SOL    HW2 2274   0.495   2.448   0.765 -0.7533 -0.2286 -2.2616
  759SOL     OW 2275   2.007   1.096   1.047 -1.0162  0.5315  0.6738
  759SOL    HW1 2276   1.972   1.184   1.010  0.1480  0.1249 -2.9870
  759SOL    HW2 2277   2.102   1.102   1.077  0.1281  2.3228 -2.1453
  760SOL     OW 2278   1.564   0.529   1.691  0.0738 -0.4759 -0.0375
  760SOL    HW1 2279   1.520   0.517   1.785  1.5828  2.1370  3.2303
  760SOL    HW2 2280   1.562   0.630   1.676  0.8552  1.9477  1.5915
  761SOL     OW 2281   2.021   0.354   1.035 -0.2506 -1.0345  0.2371
  761SOL    HW1 2282   2.085   0.428   1.067  0.2887  0.6444 -0.0073
  761SOL    HW2 2283   2.074   0.285   0.988 -1.6414  0.0173  0.3708
  762SOL     OW 2284   1.786   0.154   0.560 -0.1509 -0.7484  0.0445
  762SOL    HW1 2285   1.855   0.097   0.514 -1.1711  0.1407 -1.1036
  762SOL    HW2 2286   1.793   0.156   0.662  0.0872  2.5036 -1.0991
  763SOL     OW 2287   0.830   0.174   1.460  0.5265 -0.2365 -0.1597
  763SOL    HW1 2288   0.835   0.271   1.441  0.2938 -0.6874  1.5053
  763SOL    HW2 2289   0.915   0.131   1.433 -0.1464 -0.1395  1.4704
  764SOL     OW 2290   2.190   2.351   2.291  0.6006  0.0499 -0.0514
  764SOL    HW1 2291   2.169   2.255   2.259 -0.6404 -0.9254  3.5182
  764SOL    HW2 2292   2.278   2.376   2.248  2.9319  0.0602  2.9731
  765SOL     OW 2293   2.989   1.191   2.447  0.1096  0.1991 -0.0182
  765SOL    HW1 2294   2.948   1.096   2.443  1.8419  0.9788  0.0278
  765SOL    HW2 2295   2.965   1.232   2.540  0.0629  3.5192 -0.0555
  766SOL     OW 2296   0.011   0.737   2.765 -0.4362  0.2674  0.1576
  766SOL    HW1 2297   0.063   0.674   2.828 -0.0595 -0.4970  0.8006
  766SOL    HW2 2298   3.081   0.671   2.695 -2.9222 -1.3286 -2.2240
  767SOL     OW 2299   0.398   2.342   1.788 -0.5515  0.0370  0.3007
  767SOL    HW1 2300   0.368   2.243   1.801  0.2224 -2.9071 -0.9686
  767SOL    HW2 2301   0.327   2.402   1.742  0.1127  0.7222  0.1513
  768SOL     OW 2302   1.134   0.947   0.067 -0.2484  0.1817  0.0585
  768SOL    HW1 2303   1.228   0.947   0.106 -0.2823 -0.8528  0.5261
  768SOL    HW2 2304   1.132   0.974   3.076 -2.6964 -0.4503 -1.1568
  769SOL     OW 2305   1.520   2.525   0.306 -0.5444 -0.3256  0.5508
  769SOL    HW1 2306   1.522   2.438   0.259 -1.0488  0.9599 -0.3277
  769SOL    HW2 2307   1.471   2.521   0.396 -0.2012 -0.0061  3.2673
  770SOL     OW 2308   1.288   0.037   2.077  0.2676 -0.1496  0.4592
  770SOL    HW1 2309   1.359   3.072   2.075 -1.2178 -2.9519 -3.1128
  770SOL    HW2 2310   1.212   3.107   2.022 -0.9748 -1.3220 -0.1055
  771SOL     OW 2311   0.893   2.884   0.870  0.2217  0.4160  0.1916
  771SOL    HW1 2312   0.988   2.891   0.909 -0.6845 -0.8286  0.8399
  771SOL    HW2 2313   0.821   2.847   0.935  0.2229 -0.1275 -0.3284
  772SOL     OW 2314   2.785   0.842   0.237 -0.1248 -0.3468 -0.3786
  772SOL    HW1 2315   2.871   0.809   0.275  0.4976  0.5769  1.8281
  772SOL    HW2 2316   2.715   0.855   0.310  2.2915 -0.1884 -2.3775
  773SOL     OW 2317   2.161   0.679   1.840 -0.2132  0.3760  0.0173
  773SOL    HW1 2318   2.167   0.602   1.779 -1.5290  2.2823  0.2661
  773SOL    HW2 2319   2.107   0.760   1.801 -2.0848  1.5084 -0.3325
  774SOL     OW 2320   0.439   0.513   0.667  0.1760  0.4714 -0.1080
  774SOL    HW1 2321   0.351   0.495   0.627  0.9723  2.9255 -0.0810
  774SOL    HW2 2322   0.494   0.594   0.635  0.1196  0.7994  0.3285
  775SOL     OW 2323   1.571   0.304   0.825  0.0186  0.2294  0.5362
  775SOL    HW1 2324   1.647   0.276   0.884  2.4147  3.7404  0.5960
  775SOL    HW2 2325   1.591   0.391   0.773 -1.9092 -0.7873  1.4725
  776SOL     OW 2326   2.075   0.064   2.203  0.0927 -0.2983 -0.0277
  776SOL    HW1 2327   2.178   0.072   2.204  6.0411  5.9878  0.4805
  776SOL    HW2 2328   2.038   0.159   2.208  0.3711 -0.4746 -2.9829
  777SOL     OW 2329   1.220   1.670   0.188 -0.5686  0.4723  0.2515
  777SOL    HW1 2330   1.280   1.704   0.259  0.6416 -1.6446 -0.5159
  777SOL    HW2 2331   1.281   1.637   0.115 -3.2197  1.0549 -0.3913
  778SOL     OW 2332   0.582   2.471   0.069 -0.0446  0.3408 -0.3586
  778SOL    HW1 2333   0.567   2.407   0.149  1.1585 -1.1256  0.6566
  778SOL    HW2 2334   0.523   2.557   0.085 -2.0461  0.7843  1.6759
  779SOL     OW 2335   0.165   1.565   0.250 -0.0998  0.6698  0.1325
  779SOL    HW1 2336   0.226   1.556   0.170  1.5121 -0.6164 -2.9140
  779SOL    HW2 2337   0.220   1.563   0.333  0.2590 -2.3322  0.9571
  780SOL     OW 2338   1.627   0.196   2.229  0.0668 -0.0202 -0.2755
  780SOL    HW1 2339   1.677   0.133   2.165 -0.5394 -0.8443  3.3298
  780SOL    HW2 2340   1.672   0.186   2.322  0.1093 -0.6553 -1.9676
  781SOL     OW 2341   1.761   1.819   1.094 -0.4050  0.6160 -0.2410
  781SOL    HW1 2342   1.682   1.887   1.089  0.0188 -0.4635  0.7718
  781SOL    HW2 2343   1.816   1.830   1.005 -1.2611 -1.0583 -1.8744
  782SOL     OW 2344   1.976   2.515   2.206 -0.2586  0.7332  0.8918
  782SOL    HW1 2345   1.902   2.451   2.226 -0.0260  0.2200 -0.4221
  782SOL    HW2 2346   2.055   2.458   2.229  0.1715 -2.9855  0.6397
  783SOL     OW 2347   1.445   0.479   1.926 -0.1301  0.2704 -0.0605
  783SOL    HW1 2348   1.489   0.476   2.017  2.2332  1.6067 -1.8909
  783SOL    HW2 2349   1.372   0.405   1.910 -3.9658 -1.9112 -4.3577
  784SOL     OW 2350   1.461   0.920   1.998  0.2032  0.1300 -0.1868
  784SOL    HW1 2351   1.386   0.980   2.037 -0.1679 -1.1011  1.0935
  784SOL    HW2 2352   1.437   0.880   1.904  1.6810 -0.8577  0.2241
  785SOL     OW 2353   1.830   0.737   0.500  0.1738  0.0167  0.2186
  785SOL    HW1 2354   1.843   0.822   0.447 -0.1160 -1.7554  0.3204
  785SOL    HW2 2355   1.732   0.730   0.541  0.6905  0.9996  0.1592
  786SOL     OW 2356   3.040   1.329   0.650 -0.1507  0.4943  0.3513
  786SOL    HW1 2357   3.030   1.406   0.581 -0.4304  3.3546  1.5774
  786SOL    HW2 2358   2.948   1.300   0.688 -1.7901  0.2232  2.5579
  787SOL     OW 2359   1.423   1.846   0.020  0.0081  0.3705 -0.0342
  787SOL    HW1 2360   1.461   1.806   3.043 -0.3668  2.1286  2.0023
  787SOL    HW2 2361   1.350   1.918   0.015  1.0910  1.2928 -0.1822
  788SOL     OW 2362   2.265   1.196   1.134  0.3473  0.0929  0.1978
  788SOL    HW1 2363   2.282   1.272   1.200 -3.7427 -2.4341  0.0908
  788SOL    HW2 2364   2.353   1.162   1.098 -0.4874  2.0830 -1.9183
  789SOL     OW 2365   2.840   1.667   2.448 -0.2449  0.1100 -0.0832
  789SOL    HW1 2366   2.788   1.752   2.438  0.8277 -2.6754  1.9363
  789SOL    HW2 2367   2.793   1.586   2.406  2.3203 -1.8017  1.3387
  790SOL     OW 2368   0.805   2.910   2.574 -0.0930 -0.3408  0.1460
  790SOL    HW1 2369   0.731   2.888   2.634  1.1703  0.8778 -2.4452
  790SOL    HW2 2370   0.885   2.846   2.591  0.8255  2.1370  2.8627
  791SOL     OW 2371   0.148   2.693   2.960  0.2532  0.4513  0.5112
  791SOL    HW1 2372   0.187   2.618   3.011 -0.5024  1.5041 -1.7606
  791SOL    HW2 2373   0.052   2.715   2.994 -1.6459 -0.9786  1.9471
  792SOL     OW 2374   1.315   0.205   2.296  0.2598  0.1890 -0.1060
  792SOL    HW1 2375   1.403   0.217   2.340 -1.6082 -2.0533 -1.9124
  792SOL    HW2 2376   1.322   0.135   2.223  0.5534  1.1828 -0.9697
  793SOL     OW 2377   2.611   0.171   2.532 -0.4045 -0.3069  0.2119
  793SOL    HW1 2378   2.576   0.094   2.593 -0.1820 -0.1442  0.7883
  793SOL    HW2 2379   2.581   0.163   2.434  0.0355 -0.0952  0.0925
  794SOL     OW 2380   0.468   0.321   2.114 -0.4491  0.1157 -0.0320
  794SOL    HW1 2381   0.542   0.266   2.144 -2.0559  1.1448  1.8024
  794SOL    HW2 2382   0.427   0.278   2.031  2.2706  1.3706 -0.7600
  795SOL     OW 2383   2.930   1.293   0.356 -0.5679 -0.0673 -0.5501
  795SOL    HW1 2384   2.995   1.216   0.362  1.8454 -0.0989 -0.0361
  795SOL    HW2 2385   2.978   1.382   0.379  0.4079  0.1688  1.6738
  796SOL     OW 2386   2.664   2.131   2.699  0.2967  0.4454 -0.8987
  796SOL    HW1 2387   2.730   2.139   2.623 -1.0692 -0.1878  0.8488
  796SOL    HW2 2388   2.695   2.185   2.780 -0.4661  0.8398 -0.0250
  797SOL     OW 2389   3.040   1.804   0.000  0.2906 -0.2277 -0.3921
  797SOL    HW1 2390   2.960   1.836   3.055 -0.4569  2.6349  0.3951
  797SOL    HW2 2391   3.001   1.784   0.089  1.5745  2.4306  0.0594
  798SOL     OW 2392   0.298   0.832   1.828 -0.8111 -0.0840 -0.1322
  798SOL    HW1 2393   0.272   0.809   1.920  0.2714  3.2655 -1.0249
  798SOL    HW2 2394   0.362   0.908   1.834 -0.9074 -0.0152  1.5224
  799SOL     OW 2395   2.877   0.946   2.432 -0.3661 -0.2175 -0.4421
  799SOL    HW1 2396   2.807   0.934   2.506 -1.2890  0.2391 -0.4042
  799SOL    HW2 2397   2.840   0.909   2.343 -1.0309 -0.1710 -0.2619
  800SOL     OW 2398   2.879   1.977   0.678  0.3639  0.0942  0.2126
  800SOL    HW1 2399   2.955   2.039   0.648  3.7886  3.0798 -0.9739
  800SOL    HW2 2400   2.909   1.922   0.756 -1.8906  0.3117  2.7297
  801SOL     OW 2401   1.221   0.953   0.860  0.1070 -0.6313 -0.1692
  801SOL    HW1 2402   1.154   1.001   0.919 -2.2246 -0.4109  0.1524
  801SOL    HW2 2403   1.184   0.932   0.765 -1.7907 -3.3337  0.2794
  802SOL     OW 2404   1.789   2.251   0.860  0.7384  0.0595  0.1077
  802SOL    HW1 2405   1.840   2.208   0.934 -2.4116 -1.2191 -2.3086
  802SOL    HW2 2406   1.823   2.221   0.771  1.9266  1.4058  2.2984
  803SOL     OW 2407   0.254   1.492   0.520 -0.2171 -0.3057 -0.0688
  803SOL    HW1 2408   0.214   1.405   0.565  0.0643 -2.6395 -1.3184
  803SOL    HW2 2409   0.208   1.573   0.563  3.5639 -0.6255  5.3338
  804SOL     OW 2410   1.323   2.456   0.510 -0.3619  0.0193  0.1450
  804SOL    HW1 2411   1.272   2.376   0.470  0.8991  0.5883 -0.1542
  804SOL    HW2 2412   1.272   2.486   0.589 -0.0934  0.0608 -0.3387
  805SOL     OW 2413   1.554   2.055   2.490 -0.4302  0.5841 -0.1506
  805SOL    HW1 2414   1.504   2.064   2.578 -0.1678 -1.5034 -0.5351
  805SOL    HW2 2415   1.647   2.014   2.500  3.2979  2.6302 -1.8356
  806SOL     OW 2416   1.929   0.035   1.371  0.7033  0.4428 -0.4676
  806SOL    HW1 2417   1.979   0.001   1.452  0.3010 -2.8206  0.8617
  806SOL    HW2 2418   1.905   0.135   1.371 -2.4185  0.4851  0.1798
  807SOL     OW 2419   1.972   3.076   0.460  0.1804  0.0304 -0.0047
  807SOL    HW1 2420   1.994   2.985   0.428 -0.1814  0.5549  3.9909
  807SOL    HW2 2421   1.998   3.080   0.558  0.3393  1.2792 -0.5106
  808SOL     OW 2422   0.411   1.774   2.821  0.8974 -0.3455 -0.4311
  808SOL    HW1 2423   0.382   1.764   2.725  1.4685  1.2736 -0.3459
  808SOL    HW2 2424   0.331   1.766   2.882 -1.2127 -0.7208 -0.0132
  809SOL     OW 2425   0.005   1.205   2.883  0.3834  0.4312 -0.4879
  809SOL    HW1 2426   0.104   1.214   2.887 -0.5404  1.1998 -2.4362
  809SOL    HW2 2427   3.065   1.238   2.973 -1.4744  2.0504  4.0009
  810SOL     OW 2428   2.797   0.481   2.961  0.6828  0.5959  0.0162
  810SOL    HW1 2429   2.742   0.545   2.904 -3.4704  1.2713  2.6567
  810SOL    HW2 2430   2.871   0.437   2.905  1.3568  0.4884 -1.6641
  811SOL     OW 2431   2.074   2.392   1.882 -0.1448 -0.0852  0.1277
  811SOL    HW1 2432   2.054   2.489   1.854  0.8849 -0.3885  1.3969
  811SOL    HW2 2433   1.992   2.334   1.873  1.4087  0.1683  0.7913
  812SOL     OW 2434   1.100   0.519   0.374 -0.0671 -0.1186 -0.2328
  812SOL    HW1 2435   1.069   0.515   0.474  0.0689 -1.4148  0.2656
  812SOL    HW2 2436   1.131   0.430   0.341  0.6644  1.7228  0.2045
  813SOL     OW 2437   2.029   0.515   2.040 -0.2795 -0.5932 -0.3646
  813SOL    HW1 2438   1.946   0.483   1.988  0.3505 -0.0695 -0.7226
  813SOL    HW2 2439   2.092   0.585   2.000  0.5531  1.9810 -1.5709
  814SOL     OW 2440   1.936   0.865   1.176  0.3476 -0.1349  0.1779
  814SOL    HW1 2441   2.017   0.819   1.216 -1.2134 -0.0909  1.6790
  814SOL    HW2 2442   1.953   0.957   1.135  1.1949 -1.6256  2.8257
  815SOL     OW 2443   0.713   1.104   0.610 -0.2491  0.2222 -0.3425
  815SOL    HW1 2444   0.617   1.136   0.600  0.7395  0.1690  0.4041
  815SOL    HW2 2445   0.734   1.041   0.531  0.7348  1.0959 -1.6873
  816SOL     OW 2446   2.226   2.359   0.191 -0.1642 -0.3060 -0.1165
  816SOL    HW1 2447   2.155   2.287   0.202 -1.3372  0.0613  0.1865
  816SOL    HW2 2448   2.219   2.434   0.262 -3.1391  5.4642  0.6194
  817SOL     OW 2449   2.748   2.530   1.143 -0.1160 -0.6467 -0.5886
  817SOL    HW1 2450   2.811   2.495   1.072  2.0544 -0.4513 -1.6963
  817SOL    HW2 2451   2.797   2.589   1.209 -1.6096 -0.0402  0.1094
  818SOL     OW 2452   1.667   0.820   3.050  0.1541 -0.4053 -0.2501
  818SOL    HW1 2453   1.588   0.854   2.997 -0.5074  1.2610  2.5715
  818SOL    HW2 2454   1.655   0.838   0.039 -0.4726  1.2890 -2.4808
  819SOL     OW 2455   0.554   0.781   0.696 -0.4893  0.2794 -0.0761
  819SOL    HW1 2456   0.546   0.873   0.737 -1.3792 -1.0647  0.2903
  819SOL    HW2 2457   0.541   0.778   0.592  0.2053  0.8504 -0.2805
  820SOL     OW 2458   2.119   0.687   1.366  0.2652  0.4174 -0.2237
  820SOL    HW1 2459   2.114   0.781   1.405  2.9136 -1.5005 -1.2263
  820SOL    HW2 2460   2.048   0.627   1.407  0.6186  1.8769 -1.4480
  821SOL     OW 2461   2.924   0.045   0.930 -0.3173  0.0570  0.4208
  821SOL    HW1 2462   2.955   0.039   0.833 -1.1886 -1.3648 -0.5234
  821SOL    HW2 2463   2.830   0.008   0.939 -0.5891 -1.5075 -1.6691
  822SOL     OW 2464   0.636   2.282   2.288 -0.3533  0.4128 -0.0038
  822SOL    HW1 2465   0.655   2.380   2.302  0.0026 -0.0315  1.0839
  822SOL    HW2 2466   0.545   2.262   2.254  0.1137  0.6754  1.7932
  823SOL     OW 2467   2.715   1.158   1.579  0.1345  0.4520 -0.0119
  823SOL    HW1 2468   2.761   1.071   1.560 -2.5582 -0.7182  1.5250
  823SOL    HW2 2469   2.764   1.225   1.637  2.6222 -0.0609 -1.3423
  824SOL     OW 2470   0.513   2.671   2.468  0.3376 -0.1069  0.1865
  824SOL    HW1 2471   0.514   2.742   2.543  3.1852  1.2756  0.5408
  824SOL    HW2 2472   0.606   2.644   2.437  0.8292 -0.9120 -0.7577
  825SOL     OW 2473   1.566   1.661   2.939  0.6281 -0.4275  0.0369
  825SOL    HW1 2474   1.553   1.679   2.838  1.4716  1.5788  0.9364
  825SOL    HW2 2475   1.663   1.675   2.968 -0.3984 -1.0131  2.2819
  826SOL     OW 2476   1.033   2.352   0.037  0.1826 -0.1607 -0.4823
  826SOL    HW1 2477   1.022   2.368   0.136 -2.4937 -0.9130  0.4995
  826SOL    HW2 2478   1.063   2.258   0.009 -2.5181 -0.5896  0.3301
  827SOL     OW 2479   0.187   1.382   1.662  0.0539  0.0337  0.7540
  827SOL    HW1 2480   0.212   1.426   1.578  1.0671 -0.2107  1.9117
  827SOL    HW2 2481   0.127   1.300   1.638  0.0221 -0.8787 -0.1070
  828SOL     OW 2482   0.280   1.512   1.398  0.9476  0.7876  0.1700
  828SOL    HW1 2483   0.263   1.444   1.329 -2.0943 -2.6376  1.7557
  828SOL    HW2 2484   0.379   1.528   1.411  0.5328 -3.9900  0.8443
  829SOL     OW 2485   3.016   2.488   3.094  0.5899 -0.1828 -0.1051
  829SOL    HW1 2486   3.063   2.434   0.054 -0.8790 -1.7598 -1.4849
  829SOL    HW2 2487   2.973   2.421   3.030  2.4527 -2.7900  0.4958
  830SOL     OW 2488   1.326   0.705   0.417  0.1643  0.5800 -0.1756
  830SOL    HW1 2489   1.294   0.789   0.373  2.4163  0.7271  0.3765
  830SOL    HW2 2490   1.260   0.629   0.417  0.3951 -1.7616 -0.0021
  831SOL     OW 2491   3.022   2.184   3.029  0.0394  0.0755  0.0662
  831SOL    HW1 2492   3.026   2.086   3.025  0.5612  0.8309 -2.9600
  831SOL    HW2 2493   2.932   2.219   2.989 -1.1052  1.0950 -0.5660
  832SOL     OW 2494   1.689   2.743   0.580 -0.0761 -0.0129  0.2258
  832SOL    HW1 2495   1.697   2.718   0.482 -0.4435  1.5606 -1.7164
  832SOL    HW2 2496   1.771   2.719   0.633 -1.5574  1.7122 -2.9875
  833SOL     OW 2497   0.360   1.315   2.247  0.0943  0.2909 -0.2355
  833SOL    HW1 2498   0.345   1.407   2.287  1.6928 -2.4995  2.2240
  833SOL    HW2 2499   0.287   1.254   2.285  0.0328  1.8176 -2.5179
  834SOL     OW 2500   2.284   0.573   0.513 -0.0208  0.0525 -0.4501
  834SOL    HW1 2501   2.192   0.578   0.556  0.3019  2.2874 -1.6032
  834SOL    HW2 2502   2.326   0.482   0.527  2.0427  0.7944 -3.3594
  835SOL     OW 2503   2.275   0.676   2.082 -0.1885  0.1545  0.1098
  835SOL    HW1 2504   2.226   0.696   1.994 -0.7720  1.4235 -0.1979
  835SOL    HW2 2505   2.217   0.686   2.165  1.0168  0.7882 -0.3005
  836SOL     OW 2506   0.826   1.936   0.899 -0.4355 -0.5857  0.3613
  836SOL    HW1 2507   0.784   1.991   0.823  2.6250 -0.6714 -3.8204
  836SOL    HW2 2508   0.917   1.975   0.923  0.4150  0.3956 -1.2242
  837SOL     OW 2509   2.206   1.250   1.786 -0.3220 -0.1489 -0.4231
  837SOL    HW1 2510   2.265   1.255   1.703 -0.1277 -2.1439 -0.8883
  837SOL    HW2 2511   2.197   1.343   1.821 -2.4488  0.7328  3.6300
  838SOL     OW 2512   0.170   1.165   2.373  0.0710 -0.2399  0.0029
  838SOL    HW1 2513   0.176   1.074   2.327 -2.8634 -0.2591 -1.4257
  838SOL    HW2 2514   0.072   1.189   2.388  1.4021 -1.6749 -2.6412
  839SOL     OW 2515   2.980   0.111   3.069  0.4269 -0.1699 -0.5810
  839SOL    HW1 2516   3.036   0.031   3.086  0.7888  1.5149 -2.1619
  839SOL    HW2 2517   2.912   0.119   0.039 -3.4078  0.2261  0.0276
  840SOL     OW 2518   2.944   1.309   2.701  0.1944 -0.1732  0.3865
  840SOL    HW1 2519   3.010   1.265   2.767 -0.6797  3.6205  1.2522
  840SOL    HW2 2520   2.846   1.295   2.722  1.7398 -1.0264 -0.1813
  841SOL     OW 2521   0.435   2.155   2.641  0.5075 -0.4456  0.2027
  841SOL    HW1 2522   0.415   2.206   2.728 -1.3328 -0.6217 -1.6472
  841SOL    HW2 2523   0.535   2.166   2.616 -0.0324  1.3626  0.7138
  842SOL     OW 2524   0.544   3.031   1.020  0.0503  0.4394 -0.3354
  842SOL    HW1 2525   0.598   3.097   1.077 -0.8710 -2.1333  1.3161
  842SOL    HW2 2526   0.523   3.067   0.930 -2.6742  2.0856 -1.7761
  843SOL     OW 2527   2.863   1.318   1.773  0.6076 -0.7136  0.3123
  843SOL    HW1 2528   2.946   1.377   1.788 -1.2930  2.0421  1.8301
  843SOL    HW2 2529   2.776   1.355   1.817  0.1237 -0.0858  0.2812
  844SOL     OW 2530   1.970   2.308   2.476  0.6269  0.2079  0.3510
  844SOL    HW1 2531   1.950   2.406   2.493 -0.0668  1.5486 -0.3715
  844SOL    HW2 2532   2.053   2.295   2.421 -0.3691 -0.1697 -2.0061
  845SOL     OW 2533   1.612   2.814   2.458  0.4516 -0.5785 -0.5265
  845SOL    HW1 2534   1.518   2.845   2.437 -2.6854  3.3538 -2.0113
  845SOL    HW2 2535   1.645   2.873   2.536  2.0169 -0.5340 -1.4067
  846SOL     OW 2536   2.302   1.642   0.087  0.0001  0.1818  0.2381
  846SOL    HW1 2537   2.256   1.596   0.010  0.2485 -1.4458  0.2021
  846SOL    HW2 2538   2.395   1.676   0.065 -0.7215 -0.5613 -1.0069
  847SOL     OW 2539   2.317   0.174   2.835 -0.3103 -0.3584 -0.2681
  847SOL    HW1 2540   2.223   0.196   2.806  2.6844 -1.0992 -3.2146
  847SOL    HW2 2541   2.346   0.215   2.924  0.8850  1.5304  0.3163
  848SOL     OW 2542   1.969   0.536   0.268  0.3916 -0.5202 -0.1062
  848SOL    HW1 2543   1.936   0.604   0.336  2.1242 -2.0980 -1.5032
  848SOL    HW2 2544   2.038   0.577   0.204  0.7135 -0.0853  1.4013
  849SOL     OW 2545   1.048   0.058   2.841 -0.0639  0.4356  0.0289
  849SOL    HW1 2546   0.999   3.086   2.879  0.3334 -0.7120 -1.0547
  849SOL    HW2 2547   0.986   0.130   2.806  2.2608 -1.3270  0.8132
  850SOL     OW 2548   0.101   0.472   0.302 -0.0385  0.3883  0.0796
  850SOL    HW1 2549   0.101   0.382   0.258 -1.4269  0.4703  1.6739
  850SOL    HW2 2550   0.009   0.512   0.299  0.4429 -0.0979 -0.6819
  851SOL     OW 2551   0.285   1.009   1.420  0.1443  0.1299 -0.2193
  851SOL    HW1 2552   0.313   1.025   1.322  0.7564  0.5340  1.2424
  851SOL    HW2 2553   0.363   1.036   1.484  1.5664  1.3059 -0.2954
  852SOL     OW 2554   1.226   0.798   2.130 -0.2042 -0.3451 -0.8328
  852SOL    HW1 2555   1.237   0.777   2.032  0.8104 -0.8871  2.4202
  852SOL    HW2 2556   1.191   0.719   2.182 -3.1152 -0.8204 -0.3825
  853SOL     OW 2557   2.238   1.318   2.843  0.7128  0.0959 -0.1526
  853SOL    HW1 2558   2.310   1.287   2.910  2.5805 -0.3219  2.5384
  853SOL    HW2 2559   2.152   1.262   2.855  1.7569 -1.3836  0.8229
  854SOL     OW 2560   1.299   1.253   1.594 -0.1833 -0.3004 -0.3488
  854SOL    HW1 2561   1.400   1.246   1.582  1.0821  0.5662  1.6952
  854SOL    HW2 2562   1.261   1.348   1.604 -2.3822 -0.4827 -1.2423
  855SOL     OW 2563   0.232   2.109   1.792 -0.3790 -0.0469 -0.2102
  855SOL    HW1 2564   0.202   2.125   1.699  2.1896  0.8329 -0.5634
  855SOL    HW2 2565   0.233   2.008   1.809 -0.4713  1.8187  2.1438
  856SOL     OW 2566   1.075   1.035   2.452 -0.2498 -0.6429 -0.6885
  856SOL    HW1 2567   1.165   0.995   2.422 -0.1016 -0.9397  2.2994
  856SOL    HW2 2568   1.064   1.134   2.419 -0.5456 -0.5295 -1.1400
  857SOL     OW 2569   0.934   0.921   2.648  0.0676 -0.1208 -0.3475
  857SOL    HW1 2570   0.987   0.980   2.587  0.3951  1.4681  0.7959
  857SOL    HW2 2571   0.940   0.823   2.620 -1.1018  0.1391  0.1667
  858SOL     OW 2572   0.313   0.171   1.928  0.2839  0.2099 -0.1035
  858SOL    HW1 2573   0.349   0.119   1.848  0.1264  0.9103  2.0863
  858SOL    HW2 2574   0.240   0.119   1.967  2.3031 -1.4002 -1.1116
  859SOL     OW 2575   2.420   0.297   0.915 -0.0122 -0.4102  0.1208
  859SOL    HW1 2576   2.465   0.378   0.876 -2.4870 -1.2494  2.7565
  859SOL    HW2 2577   2.404   0.313   1.015 -1.3658  0.3516 -1.4732
  860SOL     OW 2578   0.744   0.833   1.564 -0.5506  0.4501  0.0040
  860SOL    HW1 2579   0.734   0.761   1.635 -1.4283  0.5878 -1.3312
  860SOL    HW2 2580   0.826   0.887   1.581  0.0938 -2.7967  0.3957
  861SOL     OW 2581   1.532   0.997   1.236 -0.1798 -0.3365 -0.3881
  861SOL    HW1 2582   1.554   0.919   1.174 -0.0685  0.8178 -0.8344
  861SOL    HW2 2583   1.612   1.056   1.253  0.0835 -4.1580  0.1433
  862SOL     OW 2584   0.768   2.836   2.315 -0.3148  0.5885 -0.0376
  862SOL    HW1 2585   0.792   2.864   2.410 -1.2951  0.4575  0.8596
  862SOL    HW2 2586   0.694   2.902   2.290 -2.7768  0.9858 -0.2416
  863SOL     OW 2587   2.778   0.106   1.333  0.4219 -0.1763  0.6606
  863SOL    HW1 2588   2.730   0.164   1.406 -1.8695  0.3423 -0.5009
  863SOL    HW2 2589   2.879   0.093   1.347 -1.3524  1.6985 -1.1530
  864SOL     OW 2590   2.653   2.848   2.662  0.0306 -0.1093  0.4122
  864SOL    HW1 2591   2.738   2.906   2.676  0.5767 -0.5368 -1.5522
  864SOL    HW2 2592   2.644   2.824   2.561  1.3058 -0.1443 -0.9473
  865SOL     OW 2593   1.381   1.192   2.227 -0.0177 -0.3958 -0.1160
  865SOL    HW1 2594   1.367   1.108   2.280  0.3214  0.2730 -0.3025
  865SOL    HW2 2595   1.290   1.236   2.212  1.4191  0.7128  0.5761
  866SOL     OW 2596   2.344   2.792   0.924 -0.5579 -0.1011 -0.2436
  866SOL    HW1 2597   2.422   2.754   0.980  1.4981 -0.5704 -3.4699
  866SOL    HW2 2598   2.372   2.792   0.824  2.6888  1.0427 -2.1590
  867SOL     OW 2599   2.523   2.708   1.145 -0.3376  0.2014  0.0728
  867SOL    HW1 2600   2.493   2.743   1.231  0.0362 -1.2315 -0.2495
  867SOL    HW2 2601   2.578   2.620   1.156  0.9074  0.8915  1.7185
  868SOL     OW 2602   2.992   1.348   1.372 -0.0577 -0.2354 -0.6058
  868SOL    HW1 2603   2.994   1.306   1.466 -0.3534  0.9524  2.4884
  868SOL    HW2 2604   2.984   1.280   1.296 -1.1968 -1.2479 -1.8135
  869SOL     OW 2605   2.139   1.468   2.093 -0.1038  0.1585  0.2888
  869SOL    HW1 2606   2.123   1.554   2.142  0.6019  0.2122  0.2654
  869SOL    HW2 2607   2.074   1.397   2.125  0.3570 -0.6371 -0.8588
  870SOL     OW 2608   1.466   1.237   0.900 -0.1542  0.2315 -0.2616
  870SOL    HW1 2609   1.490   1.142   0.886  2.0341  4.0583  2.1856
  870SOL    HW2 2610   1.433   1.280   0.810  3.1870 -0.3363  0.8800
  871SOL     OW 2611   2.170   1.536   1.828 -0.1469  0.1945 -0.9515
  871SOL    HW1 2612   2.100   1.600   1.789  2.6747 -1.7885  0.2536
  871SOL    HW2 2613   2.153   1.516   1.924  3.9130 -1.0785 -0.8736
  872SOL     OW 2614   1.484   1.374   2.402 -0.8896  0.0308  0.1060
  872SOL    HW1 2615   1.530   1.334   2.480 -1.7548  0.5532 -1.5353
  872SOL    HW2 2616   1.460   1.309   2.330 -0.4772  1.5949 -0.1430
  873SOL     OW 2617   1.436   1.591   1.447 -0.1903 -0.2030  0.1948
  873SOL    HW1 2618   1.407   1.555   1.357  0.5659 -0.7924  1.2850
  873SOL    HW2 2619   1.474   1.685   1.437  1.2338 -2.1459 -0.7755
  874SOL     OW 2620   1.650   1.323   1.075  0.4400  0.3048  0.0693
  874SOL    HW1 2621   1.650   1.420   1.050  1.4107  1.6229  3.6213
  874SOL    HW2 2622   1.580   1.276   1.017 -2.8507 -1.9176 -0.9891
  875SOL     OW 2623   2.536   0.414   2.651  0.2030 -0.1034 -0.2119
  875SOL    HW1 2624   2.469   0.461   2.595  1.0082 -0.1830 -0.3207
  875SOL    HW2 2625   2.573   0.335   2.597  0.5801 -1.0307  0.8117
  876SOL     OW 2626   1.096   0.945   0.613 -0.0931  0.2667 -0.1232
  876SOL    HW1 2627   1.092   0.928   0.510 -0.4317 -0.1671 -0.6023
  876SOL    HW2 2628   1.068   1.041   0.629  0.9543 -1.9246  0.7397
  877SOL     OW 2629   2.064   3.027   0.766  0.9456  0.2978 -0.3255
  877SOL    HW1 2630   2.114   2.959   0.713  1.4637  0.1198  2.1102
  877SOL    HW2 2631   1.981   2.987   0.816 -1.6721 -0.8859  0.0796
  878SOL     OW 2632   2.921   1.783   0.226  0.0755  0.2427  0.1445
  878SOL    HW1 2633   2.949   1.775   0.322  0.1546 -1.6582  1.2423
  878SOL    HW2 2634   2.821   1.799   0.226 -1.1004 -1.8292 -1.5549
  879SOL     OW 2635   2.923   2.130   1.873  0.2689 -0.3278 -0.2728
  879SOL    HW1 2636   2.875   2.043   1.877  0.3718  1.2151 -1.1859
  879SOL    HW2 2637   3.020   2.126   1.903 -1.7610 -0.8523  2.2203
  880SOL     OW 2638   0.374   1.722   0.824  0.3425 -0.1584 -0.0143
  880SOL    HW1 2639   0.293   1.774   0.856 -0.6073 -1.5896 -0.3454
  880SOL    HW2 2640   0.433   1.709   0.904 -0.4602 -0.1263  1.4854
  881SOL     OW 2641   1.349   0.302   2.647  0.1686 -0.2402 -0.0509
  881SOL    HW1 2642   1.305   0.258   2.729  3.6185 -0.5449  1.4994
  881SOL    HW2 2643   1.426   0.252   2.613 -1.3906  5.3821  2.6072
  882SOL     OW 2644   2.599   0.918   0.450 -0.1391  0.0014 -0.2607
  882SOL    HW1 2645   2.576   0.996   0.513 -0.6748  1.7458 -2.5336
  882SOL    HW2 2646   2.557   0.832   0.486  0.3892  2.2776  1.6135
  883SOL     OW 2647   1.742   0.735   2.471  0.8486 -0.6098 -0.4011
  883SOL    HW1 2648   1.698   0.726   2.561  2.2822  2.2887 -0.9653
  883SOL    HW2 2649   1.790   0.825   2.473 -0.6727 -1.2027  0.8712
  884SOL     OW 2650   0.097   0.019   1.731 -0.6687 -0.4363  0.5293
  884SOL    HW1 2651   0.060   3.043   1.684 -1.7149 -1.3084  1.5043
  884SOL    HW2 2652   0.198   0.027   1.722  2.9998  2.2194  1.3715
  885SOL     OW 2653   1.934   0.893   2.231  0.0589 -0.0500  0.0465
  885SOL    HW1 2654   1.887   0.869   2.141  2.2660  1.1378 -1.1900
  885SOL    HW2 2655   1.967   0.810   2.277 -1.8703  1.2556  1.7759
  886SOL     OW 2656   1.749   0.317   2.822  0.2184 -0.1005 -0.1670
  886SOL    HW1 2657   1.784   0.372   2.747 -2.4578  0.8381 -0.3058
  886SOL    HW2 2658   1.821   0.302   2.892 -1.2766  0.7116 -0.3443
  887SOL     OW 2659   1.245   0.243   1.622 -0.3927  0.2214 -0.7761
  887SOL    HW1 2660   1.218   0.312   1.553  0.5774  0.2400  0.5397
  887SOL    HW2 2661   1.177   0.163   1.617 -2.2344  1.8591 -0.2986
  888SOL     OW 2662   2.362   0.593   1.479  0.5556 -0.1403 -0.4933
  888SOL    HW1 2663   2.423   0.661   1.522 -0.6202 -2.9225 -2.4056
  888SOL    HW2 2664   2.302   0.640   1.408 -1.3725  2.5332 -3.2683
  889SOL     OW 2665   1.500   0.022   0.826 -0.3643  0.0186 -0.5441
  889SOL    HW1 2666   1.551   3.073   0.759 -0.0724 -0.4750  0.1734
  889SOL    HW2 2667   1.522   0.122   0.813  1.2053  1.7737  1.6975
  890SOL     OW 2668   1.183   2.707   1.066 -0.4986  0.3374  0.2210
  890SOL    HW1 2669   1.239   2.657   0.994 -0.9142 -1.8935 -1.1220
  890SOL    HW2 2670   1.170   2.804   1.036 -0.5396 -1.7055  1.0443
  891SOL     OW 2671   0.149   1.234   0.153  0.8656  0.1014 -0.1480
  891SOL    HW1 2672   0.192   1.197   0.070  0.8097 -0.5691 -2.2946
  891SOL    HW2 2673   0.204   1.298   0.206  0.1109 -1.6012  0.3251
  892SOL     OW 2674   2.229   1.481   2.462 -0.4236 -0.4011 -0.6265
  892SOL    HW1 2675   2.197   1.553   2.396  0.1081  1.6838 -0.1891
  892SOL    HW2 2676   2.228   1.517   2.556  1.8526  2.4234  0.6176
  893SOL     OW 2677   2.315   2.522   1.214  0.0034  0.0743 -0.1877
  893SOL    HW1 2678   2.244   2.594   1.240 -0.7553  1.3074 -1.5252
  893SOL    HW2 2679   2.407   2.559   1.194  0.9416  0.6283 -0.4911
  894SOL     OW 2680   0.380   0.519   0.925 -0.5841 -0.5061 -0.9539
  894SOL    HW1 2681   0.452   0.559   0.989  1.3809  1.0049 -2.0823
  894SOL    HW2 2682   0.405   0.528   0.825 -3.2426  1.2044 -0.5812
  895SOL     OW 2683   2.840   2.161   2.485 -0.4946  0.0191  0.0280
  895SOL    HW1 2684   2.889   2.087   2.442 -5.3888  1.1566 -0.3676
  895SOL    HW2 2685   2.846   2.244   2.422  0.4482  0.2990 -2.8712
  896SOL     OW 2686   1.333   2.919   2.453 -0.6243  0.0395  0.3498
  896SOL    HW1 2687   1.331   2.916   2.556  0.7301  0.7792  1.5992
  896SOL    HW2 2688   1.256   2.979   2.415 -1.8765 -1.0041  1.5117
  897SOL     OW 2689   0.388   1.813   1.635  0.1500 -0.1626  0.2246
  897SOL    HW1 2690   0.298   1.806   1.682 -3.8894  1.2647  0.2434
  897SOL    HW2 2691   0.375   1.818   1.533  0.2178 -0.0821  0.9595
  898SOL     OW 2692   0.872   2.226   1.770 -0.1222 -0.3744  0.5841
  898SOL    HW1 2693   0.870   2.252   1.669  1.5632  1.2336 -1.7394
  898SOL    HW2 2694   0.848   2.307   1.824 -2.8791  1.4343  0.7938
  899SOL     OW 2695   1.851   0.118   1.856 -0.1079  0.0647  0.0471
  899SOL    HW1 2696   1.924   0.067   1.807 -0.7846  0.1357  1.1360
  899SOL    HW2 2697   1.800   0.184   1.792 -1.2353  2.8695 -1.7433
  900SOL     OW 2698   1.606   1.199   0.463  0.4991 -0.0063  0.9201
  900SOL    HW1 2699   1.634   1.132   0.533  0.0493 -0.3275 -3.1102
  900SOL    HW2 2700   1.508   1.188   0.435 -1.9721  1.0579 -3.2807
  901SOL     OW 2701   1.340   0.958   2.342 -0.5436 -0.5467  0.0239
  901SOL    HW1 2702   1.420   0.945   2.403 -0.7710  0.0327  3.1902
  901SOL    HW2 2703   1.324   0.888   2.270 -0.6936 -0.3886 -0.6242
  902SOL     OW 2704   0.051   2.134   0.965 -0.5047  0.0754  0.8236
  902SOL    HW1 2705   3.065   2.165   0.970 -1.6018 -1.4191  0.8671
  902SOL    HW2 2706   0.092   2.126   1.058  0.2658 -1.2446  0.8778
  903SOL     OW 2707   2.551   1.287   2.175  0.0557  0.0736  0.1598
  903SOL    HW1 2708   2.643   1.248   2.147  0.2443 -1.4681  0.0406
  903SOL    HW2 2709   2.542   1.304   2.277 -0.3773 -3.0502  1.1825
  904SOL     OW 2710   1.260   2.053   0.021 -0.4344  0.0140 -0.2915
  904SOL    HW1 2711   1.187   2.070   3.062  1.0641  1.5471 -0.8276
  904SOL    HW2 2712   1.230   2.084   0.115 -0.5244  0.6795 -1.7573
  905SOL     OW 2713   2.164   2.951   1.993  0.4006  0.1663 -0.4364
  905SOL    HW1 2714   2.160   2.851   2.016 -2.4072 -1.4087  1.2577
  905SOL    HW2 2715   2.164   3.003   2.081  0.5562 -0.6566 -0.1029
  906SOL     OW 2716   1.357   2.935   0.149  0.3522 -0.7436 -0.4437
  906SOL    HW1 2717   1.366   3.006   0.075 -0.4412  1.7792 -2.6804
  906SOL    HW2 2718   1.383   2.840   0.118  0.7367 -0.1097 -1.5653
  907SOL     OW 2719   0.060   2.832   0.896  0.2310 -0.5062 -0.3574
  907SOL    HW1 2720   0.163   2.820   0.920  1.6296 -0.2313 -1.5671
  907SOL    HW2 2721   0.032   2.748   0.849 -0.7900  0.5587  0.7811
  908SOL     OW 2722   0.957   2.577   1.625  0.3350  0.1065 -0.2669
  908SOL    HW1 2723   0.899   2.658   1.616 -0.9550 -0.7398  0.8362
  908SOL    HW2 2724   0.984   2.564   1.725  2.5905  0.7235  2.6801
  909SOL     OW 2725   1.723   0.778   1.371  0.4871 -0.6728 -0.3758
  909SOL    HW1 2726   1.774   0.831   1.303  1.3114 -2.3164 -1.1435
  909SOL    HW2 2727   1.713   0.839   1.454  1.5733  1.2169  2.0468
  910SOL     OW 2728   0.736   0.576   0.317  0.1180 -0.2258 -0.7299
  910SOL    HW1 2729   0.756   0.560   0.216  2.6637  0.8164 -1.1337
  910SOL    HW2 2730   0.823   0.600   0.357 -0.9752  0.5849  0.1187
  911SOL     OW 2731   0.375   0.257   3.048  0.4257 -0.0387  0.0511
  911SOL    HW1 2732   0.319   0.175   3.045  6.2597 -0.2618 -0.9794
  911SOL    HW2 2733   0.354   0.322   2.973  1.6283 -0.0682  1.1057
  912SOL     OW 2734   0.005   1.963   2.659 -0.1280 -0.0819 -0.1012
  912SOL    HW1 2735   3.019   1.932   2.665  2.8088  2.1266 -0.1626
  912SOL    HW2 2736   0.069   1.897   2.615 -1.4057 -1.6950  0.2758
  913SOL     OW 2737   2.582   0.156   0.233 -0.1033 -0.3380  0.1823
  913SOL    HW1 2738   2.592   0.152   0.332  1.0047 -0.6172 -5.0928
  913SOL    HW2 2739   2.511   0.222   0.201 -0.0995  0.9418  0.2449
  914SOL     OW 2740   1.354   1.568   2.014 -0.4107 -0.1495  0.1786
  914SOL    HW1 2741   1.447   1.529   1.992 -2.7840  0.5624  0.1401
  914SOL    HW2 2742   1.289   1.553   1.935 -1.4013 -2.0272  1.6755
  915SOL     OW 2743   2.870   2.364   2.330 -0.3653 -0.1706  0.0956
  915SOL    HW1 2744   2.910   2.368   2.236 -0.0153  0.0115 -2.7206
  915SOL    HW2 2745   2.935   2.405   2.401  0.1056 -0.5899  1.0348
  916SOL     OW 2746   0.016   0.825   2.391  0.1423 -0.0320 -0.5454
  916SOL    HW1 2747   0.078   0.886   2.336  0.7830 -0.4535 -1.4517
  916SOL    HW2 2748   3.040   0.875   2.416  0.1475 -0.9111  4.2982
  917SOL     OW 2749   1.534   0.215   0.412 -0.1466 -0.2414 -0.3159
  917SOL    HW1 2750   1.600   0.205   0.484 -0.6894 -1.0204 -1.2067
  917SOL    HW2 2751   1.589   0.211   0.327 -2.5444  0.3577  3.5748
  918SOL     OW 2752   1.702   2.910   2.199  0.6941 -0.2307 -0.4024
  918SOL    HW1 2753   1.668   2.892   2.288  2.6815  1.0057 -1.1153
  918SOL    HW2 2754   1.734   3.007   2.194  1.3818  2.7678  0.8883
  919SOL     OW 2755   1.792   2.217   1.842  0.0834 -0.0374  0.4197
  919SOL    HW1 2756   1.778   2.311   1.876  0.6451  0.3177  3.2939
  919SOL    HW2 2757   1.705   2.159   1.839 -0.8540  1.5865 -3.5518
  920SOL     OW 2758   0.333   0.935   3.066 -0.7851  0.0876  0.4227
  920SOL    HW1 2759   0.369   0.951   0.053  1.2850  1.6759  2.6713
  920SOL    HW2 2760   0.391   0.859   3.032 -0.1656  1.0973 -0.1203
  921SOL     OW 2761   2.439   0.854   2.329 -0.0480 -0.0285 -0.0437
  921SOL    HW1 2762   2.388   0.764   2.319 -0.1730 -1.2621 -2.6211
  921SOL    HW2 2763   2.412   0.907   2.244 -1.4581  0.7714 -1.2469
  922SOL     OW 2764   1.065   1.630   2.454  0.1696 -0.4298  0.5375
  922SOL    HW1 2765   1.063   1.729   2.485 -1.2383  0.2117 -1.4768
  922SOL    HW2 2766   1.109   1.622   2.361 -2.5664 -0.0200 -1.3938
  923SOL     OW 2767   0.727   1.189   2.441  0.0961 -0.1853  0.2419
  923SOL    HW1 2768   0.668   1.115   2.483  0.6334  1.2791  0.0596
  923SOL    HW2 2769   0.775   1.252   2.514  2.0589  2.3297  0.9319
  924SOL     OW 2770   0.316   2.344   2.884  0.6200  0.1484 -0.1860
  924SOL    HW1 2771   0.282   2.362   2.980 -0.4400  1.7203  3.0688
  924SOL    HW2 2772   0.288   2.420   2.819 -2.4426 -2.1002 -2.3587
  925SOL     OW 2773   1.653   1.584   1.013  0.0298 -0.2458 -0.0086
  925SOL    HW1 2774   1.707   1.659   1.056 -1.2396  2.3699  0.4813
  925SOL    HW2 2775   1.648   1.597   0.915 -0.2830  0.1051  0.7544
  926SOL     OW 2776   1.862   0.434   2.584 -0.0282 -0.0722 -0.4628
  926SOL    HW1 2777   1.826   0.349   2.544 -0.7115  1.6336  0.0079
  926SOL    HW2 2778   1.849   0.508   2.514  4.5503  0.3749 -1.6266
  927SOL     OW 2779   2.597   2.485   1.831  0.5142 -0.1024 -0.1867
  927SOL    HW1 2780   2.694   2.488   1.860 -1.1342 -0.2846 -0.1739
  927SOL    HW2 2781   2.542   2.561   1.874  1.1622  4.0118  1.4273
  928SOL     OW 2782   0.705   0.935   2.789 -0.1503 -0.2180  0.7718
  928SOL    HW1 2783   0.641   0.858   2.773 -1.1531 -0.0666 -0.3818
  928SOL    HW2 2784   0.787   0.932   2.726 -0.3431  0.5406 -0.5467
  929SOL     OW 2785   0.218   0.112   1.004 -0.0071 -0.2397  0.4179
  929SOL    HW1 2786   0.204   0.057   0.921 -0.0218  0.1344  3.7033
  929SOL    HW2 2787   0.128   0.158   1.023 -2.0205  0.0697  0.1197
  930SOL     OW 2788   2.727   0.148   2.042 -0.2527 -0.0402  0.4088
  930SOL    HW1 2789   2.719   0.108   1.948 -0.9780  2.2980  0.3065
  930SOL    HW2 2790   2.823   0.183   2.056  0.5544  0.7582 -0.8030
  931SOL     OW 2791   2.366   1.207   3.059 -0.1234 -0.0318  0.2347
  931SOL    HW1 2792   2.329   1.223   0.043  1.3872  2.0351 -2.3725
  931SOL    HW2 2793   2.397   1.110   3.051  0.0759 -0.7967 -0.9322
  932SOL     OW 2794   2.808   1.216   0.736  0.6033 -0.4170 -0.0657
  932SOL    HW1 2795   2.791   1.238   0.836 -0.9995  1.2273  3.6517
  932SOL    HW2 2796   2.725   1.240   0.679  0.7849  0.2925 -0.1012
  933SOL     OW 2797   2.989   2.365   1.583  0.4198  0.2311 -0.5920
  933SOL    HW1 2798   2.913   2.302   1.606 -0.0915  0.0173  2.2881
  933SOL    HW2 2799   2.951   2.457   1.568  1.3638 -0.7467 -2.0444
  934SOL     OW 2800   0.489   2.834   1.173  0.0888 -0.2799  0.1589
  934SOL    HW1 2801   0.550   2.771   1.225  1.9643 -1.0133  0.8735
  934SOL    HW2 2802   0.536   2.911   1.128  2.1957  0.5566  4.0210
  935SOL     OW 2803   2.556   0.170   2.269 -0.0036  0.7936 -0.6555
  935SOL    HW1 2804   2.513   0.256   2.246  1.0211 -1.6106 -0.7233
  935SOL    HW2 2805   2.621   0.145   2.197 -0.0611 -1.8179 -0.9981
  936SOL     OW 2806   2.779   0.697   1.613 -0.3981 -0.0889 -0.2667
  936SOL    HW1 2807   2.796   0.680   1.711  0.4737 -4.6437 -0.2658
  936SOL    HW2 2808   2.798   0.607   1.569 -0.3043  0.3001  1.0977
  937SOL     OW 2809   1.731   1.407   1.686 -0.2336 -0.3234 -0.0205
  937SOL    HW1 2810   1.762   1.470   1.616 -1.4814 -1.5085  1.5866
  937SOL    HW2 2811   1.810   1.350   1.725  4.0024 -3.1469  0.4127
  938SOL     OW 2812   0.611   2.286   2.979 -0.3212 -0.5966 -0.3832
  938SOL    HW1 2813   0.589   2.354   3.052  1.5614  3.5584  0.2943
  938SOL    HW2 2814   0.564   2.196   2.980 -0.2104  1.4294 -1.0716
  939SOL     OW 2815   1.994   0.535   3.011 -0.3969 -0.0082 -0.3491
  939SOL    HW1 2816   2.066   0.558   3.077 -2.1025 -1.9396  1.9220
  939SOL    HW2 2817   1.974   0.434   3.018  1.4901 -1.5742 -2.3435
  940SOL     OW 2818   1.330   2.534   0.918 -0.4042 -0.0822 -0.1019
  940SOL    HW1 2819   1.401   2.470   0.943  0.5795  0.6146  1.0744
  940SOL    HW2 2820   1.357   2.590   0.835  1.7423  0.4374  0.8457
  941SOL     OW 2821   1.293   2.208   1.798  0.5992 -0.2718 -0.1681
  941SOL    HW1 2822   1.291   2.215   1.900  0.8653  1.2738  0.4839
  941SOL    HW2 2823   1.200   2.179   1.763 -0.4396  0.5230  2.0587
  942SOL     OW 2824   2.827   1.907   2.950  0.7462  0.6726 -0.2420
  942SOL    HW1 2825   2.844   1.901   2.846  1.4690 -0.1798 -0.2710
  942SOL    HW2 2826   2.742   1.961   2.970 -1.0712  2.9054 -0.5567
  943SOL     OW 2827   2.436   2.869   1.854  0.0717  0.1797  0.3272
  943SOL    HW1 2828   2.387   2.942   1.905 -0.2682 -1.4422 -3.2908
  943SOL    HW2 2829   2.511   2.827   1.903  0.6172  0.9266  1.3028
  944SOL     OW 2830   1.822   2.153   2.885 -0.5132  0.0648  0.1133
  944SOL    HW1 2831   1.764   2.068   2.881 -0.2441  1.3329  0.9342
  944SOL    HW2 2832   1.786   2.221   2.824  0.8200  1.2584 -0.2358
  945SOL     OW 2833   2.904   1.929   1.171  0.4549  0.2194 -0.3385
  945SOL    HW1 2834   2.985   1.935   1.228 -3.1617  2.3096 -2.2934
  945SOL    HW2 2835   2.930   1.868   1.092  2.4709  0.0793 -0.1681
  946SOL     OW 2836   1.407   1.188   2.967  0.1910 -0.6980 -0.5196
  946SOL    HW1 2837   1.402   1.088   2.944  1.8973  1.1488  1.5125
  946SOL    HW2 2838   1.313   1.219   3.003 -3.2012  0.2048  0.7258
  947SOL     OW 2839   0.189   0.937   2.214 -0.0738  0.1710  0.2448
  947SOL    HW1 2840   0.133   0.985   2.141 -0.5952 -1.3856  1.4335
  947SOL    HW2 2841   0.260   0.879   2.165  0.7203 -0.6205  0.9072
  948SOL     OW 2842   0.222   1.018   0.492 -0.4100  0.0611  0.5295
  948SOL    HW1 2843   0.199   1.056   0.583  2.8084 -0.4718 -0.7333
  948SOL    HW2 2844   0.163   1.061   0.424  0.8843 -0.3327  0.1294
  949SOL     OW 2845   0.752   0.281   2.495 -0.1543 -0.5727 -0.4965
  949SOL    HW1 2846   0.810   0.349   2.447  1.5920 -1.4044 -2.5156
  949SOL    HW2 2847   0.802   0.190   2.495  4.9898  0.1476  0.0731
  950SOL     OW 2848   3.105   0.532   1.340 -0.0202 -0.4163  0.3423
  950SOL    HW1 2849   0.009   0.620   1.392 -3.2258 -0.9006  2.2857
  950SOL    HW2 2850   0.023   0.528   1.245 -0.4710  1.7371 -0.6608
  951SOL     OW 2851   0.308   1.136   2.617  0.3744  0.1496  0.0404
  951SOL    HW1 2852   0.270   1.182   2.535 -1.0858 -1.4670  0.0371
  951SOL    HW2 2853   0.231   1.069   2.641  1.9715  0.2860 -0.1701
  952SOL     OW 2854   1.935   2.265   1.618  0.2640  0.4009  0.6827
  952SOL    HW1 2855   1.880   2.247   1.701 -0.1812 -0.4987  1.1933
  952SOL    HW2 2856   1.889   2.347   1.575 -0.6835 -1.2350 -0.1248
  953SOL     OW 2857   0.254   2.490   0.025  0.5429 -0.2250 -0.2402
  953SOL    HW1 2858   0.323   2.511   0.099  2.6419 -0.5758  4.1156
  953SOL    HW2 2859   0.180   2.428   0.060 -2.4661 -1.5514 -0.0369
  954SOL     OW 2860   2.770   0.758   0.986  0.1515  0.3549 -0.0065
  954SOL    HW1 2861   2.841   0.774   1.054 -1.0611  0.2697  1.4679
  954SOL    HW2 2862   2.774   0.818   0.902 -1.5511  1.8357 -0.8605
  955SOL     OW 2863   1.571   1.404   0.157  0.0139 -0.2926 -0.1655
  955SOL    HW1 2864   1.628   1.319   0.156 -1.9613 -0.6308  0.3785
  955SOL    HW2 2865   1.617   1.481   0.203  2.2018 -1.7929 -1.9828
  956SOL     OW 2866   1.140   0.614   2.308  0.4224  0.8613  0.2351
  956SOL    HW1 2867   1.079   0.665   2.371 -2.1994  3.5924  0.4734
  956SOL    HW2 2868   1.128   0.510   2.320 -1.1385 -0.1776 -1.5356
  957SOL     OW 2869   0.717   0.470   1.979 -0.2254 -0.1863  0.9860
  957SOL    HW1 2870   0.631   0.435   2.022 -0.5164 -0.0470 -3.2414
  957SOL    HW2 2871   0.763   0.536   2.041 -0.5035 -0.0128 -1.9225
  958SOL     OW 2872   0.388   2.038   0.762 -0.2468  0.1659 -0.0734
  958SOL    HW1 2873   0.413   1.979   0.841  1.8087  0.7128 -1.8619
  958SOL    HW2 2874   0.473   2.081   0.731 -3.5038 -3.4356 -0.4142
  959SOL     OW 2875   2.448   0.854   1.882 -0.0400 -0.3665 -0.5393
  959SOL    HW1 2876   2.361   0.903   1.882  0.8085  0.4359 -1.9192
  959SOL    HW2 2877   2.451   0.792   1.962 -1.4275  0.1194 -1.7441
  960SOL     OW 2878   0.255   1.437   2.641  0.3896 -0.4476  0.1078
  960SOL    HW1 2879   0.256   1.378   2.725 -0.4534 -0.5459  2.1379
  960SOL    HW2 2880   0.157   1.448   2.604 -0.2864 -0.4220 -0.9354
  961SOL     OW 2881   0.549   1.718   0.612 -0.1721  0.5049  0.2275
  961SOL    HW1 2882   0.642   1.733   0.655  1.3969 -1.5470  2.6748
  961SOL    HW2 2883   0.481   1.728   0.693  1.2285 -2.2423 -0.2995
  962SOL     OW 2884   0.457   1.385   1.065 -0.1436  0.3914 -0.5761
  962SOL    HW1 2885   0.388   1.331   1.111  0.7289 -0.6989 -2.4066
  962SOL    HW2 2886   0.541   1.395   1.120 -2.6542  0.4510  0.4171
  963SOL     OW 2887   1.482   2.287   2.820  0.1479 -0.3140 -0.3824
  963SOL    HW1 2888   1.413   2.253   2.754  3.6052 -2.8843  0.3486
  963SOL    HW2 2889   1.576   2.306   2.782  0.7414 -1.1767 -0.7106
  964SOL     OW 2890   0.056   2.648   2.676  0.1372 -0.0850 -0.0451
  964SOL    HW1 2891   0.056   2.675   2.777  0.1745  2.6269  0.6656
  964SOL    HW2 2892   0.140   2.590   2.668  3.2449 -1.6087  0.1017
  965SOL     OW 2893   2.502   1.908   2.805 -0.3537 -0.5966  0.3753
  965SOL    HW1 2894   2.483   1.830   2.740  0.7942  0.9638  0.0931
  965SOL    HW2 2895   2.574   1.976   2.773 -1.0209  0.9837  1.5212
  966SOL     OW 2896   2.668   1.501   2.613 -0.7528 -0.0363  0.3023
  966SOL    HW1 2897   2.756   1.555   2.619  0.8119 -2.3231 -0.4030
  966SOL    HW2 2898   2.674   1.418   2.670 -0.7069  0.7151  1.0700
  967SOL     OW 2899   2.032   0.334   0.641 -0.5596 -0.0120  0.0414
  967SOL    HW1 2900   1.959   0.304   0.702 -1.1811  0.0282 -3.0079
  967SOL    HW2 2901   2.075   0.420   0.676  1.9123  2.4952 -0.2079
  968SOL     OW 2902   2.740   0.137   0.474  0.5889  0.0326 -0.5342
  968SOL    HW1 2903   2.745   0.212   0.541  1.5408  0.8288  0.0950
  968SOL    HW2 2904   2.833   0.094   0.447 -0.3516 -0.9500 -0.2627
  969SOL     OW 2905   0.618   0.769   2.193 -0.1642  1.0802 -0.0149
  969SOL    HW1 2906   0.710   0.725   2.176  1.4608  2.3946  2.5158
  969SOL    HW2 2907   0.634   0.870   2.219  1.5643  0.9978 -0.8994
  970SOL     OW 2908   1.889   1.634   2.742 -0.0432 -0.3108  0.2195
  970SOL    HW1 2909   1.873   1.613   2.838  0.5079  0.9192 -2.5970
  970SOL    HW2 2910   1.951   1.720   2.735 -1.2510  2.1087 -2.1136
  971SOL     OW 2911   2.617   0.038   1.822 -0.1523  0.1345 -0.0303
  971SOL    HW1 2912   2.555   0.111   1.864  0.5761  1.1298  1.2609
  971SOL    HW2 2913   2.569   3.092   1.747  1.0276 -0.2759  2.0120
  972SOL     OW 2914   0.117   0.470   0.827  0.3856  0.0612  0.2314
  972SOL    HW1 2915   0.205   0.463   0.874 -0.8036  1.2292 -1.1411
  972SOL    HW2 2916   0.124   0.446   0.728  1.7647  1.5228  0.3539
  973SOL     OW 2917   2.911   0.251   2.505 -0.1575  0.0610  0.6171
  973SOL    HW1 2918   2.975   0.172   2.482 -0.2321 -0.9464 -1.5780
  973SOL    HW2 2919   2.822   0.213   2.530  1.4332 -0.8594  0.0463
  974SOL     OW 2920   2.900   0.964   1.563 -0.6639 -0.5828  0.9321
  974SOL    HW1 2921   2.965   0.960   1.483  1.4864  1.8779  1.3106
  974SOL    HW2 2922   2.870   0.868   1.582 -0.9696 -2.0060 -0.1412
  975SOL     OW 2923   1.452   2.935   2.082  0.2740  0.5612 -0.6524
  975SOL    HW1 2924   1.553   2.937   2.119  2.7790 -1.6243  2.0645
  975SOL    HW2 2925   1.401   2.854   2.121 -1.8464 -4.0152  1.7192
  976SOL     OW 2926   2.079   1.428   1.442 -0.0389 -0.1467 -0.2789
  976SOL    HW1 2927   2.122   1.477   1.368 -0.2875 -1.1794  2.6420
  976SOL    HW2 2928   2.023   1.485   1.504 -0.8511 -2.6700  0.8286
  977SOL     OW 2929   2.704   3.034   2.947  0.0029  0.3171 -0.0336
  977SOL    HW1 2930   2.660   2.996   3.029 -0.8995  1.0347  0.5708
  977SOL    HW2 2931   2.661   0.010   2.909  0.7084  1.4801 -0.7409
  978SOL     OW 2932   2.128   1.119   2.247  0.0552  0.1000  0.5026
  978SOL    HW1 2933   2.219   1.107   2.215 -3.9629 -0.7707  0.3851
  978SOL    HW2 2934   2.074   1.032   2.240  1.6066 -1.7629 -1.2229
  979SOL     OW 2935   0.820   0.992   2.257  0.6754 -0.2323 -0.2040
  979SOL    HW1 2936   0.893   0.999   2.188  0.1686 -2.1886 -1.2883
  979SOL    HW2 2937   0.809   1.071   2.322  0.3626 -0.3162 -1.7105
  980SOL     OW 2938   1.698   1.942   2.764 -0.0599 -0.9592  0.9707
  980SOL    HW1 2939   1.645   1.863   2.735  1.1799  2.9401 -0.8365
  980SOL    HW2 2940   1.760   1.977   2.689  0.8553  0.1654  2.1120
  981SOL     OW 2941   1.294   0.716   1.861  0.3129 -0.0586  0.2790
  981SOL    HW1 2942   1.213   0.702   1.805 -0.8352 -0.6110  2.8751
  981SOL    HW2 2943   1.345   0.632   1.868 -1.5728  3.8061 -0.9524
  982SOL     OW 2944   0.960   0.047   0.062 -0.2698 -0.1376 -0.8856
  982SOL    HW1 2945   1.029   0.063   3.097  0.6768 -0.9751 -1.3097
  982SOL    HW2 2946   0.870   0.072   0.022  3.0552  0.6680  0.1740
  983SOL     OW 2947   2.140   1.030   0.254 -0.3519  1.0519 -0.1024
  983SOL    HW1 2948   2.203   1.101   0.216 -0.5440 -1.7435 -1.4396
  983SOL    HW2 2949   2.188   0.967   0.321 -0.7690 -0.6553 -0.0435
  984SOL     OW 2950   1.295   0.306   0.056 -0.0473 -0.4610  0.3597
  984SOL    HW1 2951   1.391   0.344   0.056  0.5887 -0.2702  0.5649
  984SOL    HW2 2952   1.269   0.280   0.151  0.4980 -1.9935  4.3068
  985SOL     OW 2953   1.249   2.742   1.803  0.4838  0.7391 -0.7334
  985SOL    HW1 2954   1.286   2.833   1.779 -0.9600 -1.1754 -0.8744
  985SOL    HW2 2955   1.244   2.686   1.719 -0.2425  0.3303  0.9097
  986SOL     OW 2956   2.665   2.765   2.001 -0.2750 -0.3514  0.6606
  986SOL    HW1 2957   2.690   2.839   2.071  2.1531  0.0047  2.5127
  986SOL    HW2 2958   2.746   2.730   1.946  1.0531 -1.8069  0.0334
  987SOL     OW 2959   2.194   1.445   0.989 -0.2250  0.3484 -0.2971
  987SOL    HW1 2960   2.293   1.452   0.965  1.6586  0.8456 -0.4878
  987SOL    HW2 2961   2.168   1.349   1.014  0.7130 -1.8530  1.6651
  988SOL     OW 2962   2.364   0.983   1.489  0.1126 -0.5933  0.0364
  988SOL    HW1 2963   2.431   0.927   1.544  0.5461 -1.6986 -0.7039
  988SOL    HW2 2964   2.378   1.086   1.480  0.0788  2.4497 -3.6090
  989SOL     OW 2965   2.005   2.154   0.210  0.5111 -0.2142  0.2012
  989SOL    HW1 2966   1.936   2.203   0.143 -0.8553  1.7314  0.8922
  989SOL    HW2 2967   1.993   2.057   0.191 -1.8193  0.2694 -3.1569
  990SOL     OW 2968   1.544   0.438   2.190 -0.1712  0.5237  0.8802
  990SOL    HW1 2969   1.476   0.463   2.261  1.0086 -3.5150  1.6853
  990SOL    HW2 2970   1.571   0.341   2.194 -0.2037 -0.9673 -0.9520
  991SOL     OW 2971   1.352   1.132   0.365  0.0031  0.1425  0.7845
  991SOL    HW1 2972   1.261   1.183   0.374  1.7971  1.8867  2.0611
  991SOL    HW2 2973   1.370   1.083   0.277  4.7873 -1.7983 -2.1599
  992SOL     OW 2974   0.026   0.915   1.350 -0.4609  0.8892  0.1142
  992SOL    HW1 2975   0.130   0.921   1.346  0.8749  0.9809 -1.8565
  992SOL    HW2 2976   3.105   0.988   1.286  0.9234 -1.2759  1.2996
  993SOL     OW 2977   2.713   0.397   1.910  0.1812 -0.1969 -0.2274
  993SOL    HW1 2978   2.717   0.310   1.964 -0.9180  0.4186  0.7882
  993SOL    HW2 2979   2.615   0.410   1.877 -2.8548 -0.4730 -0.6774
  994SOL     OW 2980   1.483   1.865   1.860  0.3876 -0.0567  0.2261
  994SOL    HW1 2981   1.495   1.829   1.951  2.6024  0.5962 -0.7164
  994SOL    HW2 2982   1.516   1.964   1.863  1.8569 -1.3934 -2.0653
  995SOL     OW 2983   2.138   1.905   2.997  0.0821  0.4374  0.2566
  995SOL    HW1 2984   2.062   1.916   3.066 -1.0759 -2.7573 -0.2629
  995SOL    HW2 2985   2.152   1.806   2.975  1.0344 -1.6031 -0.4464
  996SOL     OW 2986   2.150   1.614   2.968 -0.1030 -0.0870  0.2809
  996SOL    HW1 2987   2.089   1.536   2.989 -1.5916  1.0907 -2.7842
  996SOL    HW2 2988   2.209   1.605   2.890  0.8657  0.5098 -1.8482
  997SOL     OW 2989   1.789   0.530   2.285  0.0241 -0.0967  0.3098
  997SOL    HW1 2990   1.707   0.507   2.234  2.4666 -0.3215 -0.7734
  997SOL    HW2 2991   1.773   0.609   2.348 -0.4713  0.5902 -0.7673
  998SOL     OW 2992   2.523   0.684   0.573  0.1983  0.1575 -0.0999
  998SOL    HW1 2993   2.500   0.712   0.668  0.7292  3.6788 -0.7083
  998SOL    HW2 2994   2.441   0.647   0.530  0.9502  1.8349  1.3465
  999SOL     OW 2995   2.670   1.320   0.461  0.2277 -0.4659  0.1654
  999SOL    HW1 2996   2.631   1.401   0.412  0.4048  0.0848  0.1270
  999SOL    HW2 2997   2.752   1.287   0.417 -1.8683  2.6953 -2.6913
 1000SOL     OW 2998   0.431   1.466   1.780 -0.5076  0.0526 -0.1741
 1000SOL    HW1 2999   0.505   1.394   1.796 -0.6967 -0.4975 -1.6771
 1000SOL    HW2 3000   0.351   1.431   1.728  0.9227 -0.4858 -1.6969
   3.10842   3.10842   3.10842
