1000 SPC/Fw water molecules t= 401.00000 step= 401000
 3000
    1SOL     OW    1   0.015   2.885   1.801  1.0417 -0.4315  0.5438
    1SOL    HW1    2   0.049   2.967   1.853  0.3385 -2.7085  2.2066
    1SOL    HW2    3   0.087   2.838   1.752  0.0721  2.6948  0.1214
    2SOL     OW    4   2.440   2.495   0.398  0.6047 -0.1934  0.3636
    2SOL    HW1    5   2.485   2.498   0.310 -0.3350 -0.9709 -0.2521
    2SOL    HW2    6   2.417   2.592   0.420  0.8928  0.2518 -1.0049
    3SOL     OW    7   1.391   2.685   0.147 -0.2521  0.0737  0.3638
    3SOL    HW1    8   1.438   2.746   0.212  2.0688 -0.4277  0.3755
    3SOL    HW2    9   1.292   2.674   0.162  1.3797 -1.1231 -0.6656
    4SOL     OW   10   1.092   3.077   2.353  0.6821  0.5912 -0.1402
    4SOL    HW1   11   1.130   2.982   2.358 -1.5946  1.2563 -1.0313
    4SOL    HW2   12   1.066   0.008   2.257  1.5378  1.7427 -0.6171
    5SOL     OW   13   2.196   2.887   1.559 -0.0644  0.3195 -0.3182
    5SOL    HW1   14   2.187   2.845   1.654 -1.6527  0.8209  0.4525
    5SOL    HW2   15   2.288   2.881   1.515 -1.1507  0.0501  0.7922
    6SOL     OW   16   2.446   1.955   0.571 -0.5868 -0.4941 -0.6322
    6SOL    HW1   17   2.376   1.972   0.642  1.8664  0.5244 -2.2240
    6SOL    HW2   18   2.483   1.857   0.581  0.3078 -1.8688  0.7670
    7SOL     OW   19   2.298   1.291   0.847 -0.1922 -0.8216 -0.3993
    7SOL    HW1   20   2.391   1.250   0.861 -1.7950  1.4531 -1.2215
    7SOL    HW2   21   2.295   1.345   0.757 -0.3632  1.4909 -1.0226
    8SOL     OW   22   0.399   1.469   0.904  1.0589  0.0820 -0.0518
    8SOL    HW1   23   0.478   1.510   0.954  2.9146 -0.9052 -0.9489
    8SOL    HW2   24   0.437   1.425   0.816 -0.7604 -0.9174 -1.5253
    9SOL     OW   25   0.182   2.729   1.638  0.0467  0.2689  0.3384
    9SOL    HW1   26   0.247   2.806   1.612 -1.3506 -1.4811 -0.8161
    9SOL    HW2   27   0.124   2.698   1.562 -0.3252 -0.4628  1.8379
   10SOL     OW   28   1.190   2.463   0.372  0.4436  0.2135 -0.8881
   10SOL    HW1   29   1.208   2.374   0.420 -0.0583 -2.4552  0.7812
   10SOL    HW2   30   1.218   2.544   0.430  0.0333  0.2057  0.4279
   11SOL     OW   31   1.612   2.037   0.953  0.3747 -0.7036  0.5834
   11SOL    HW1   32   1.699   2.033   0.898  0.1183  0.0399 -3.5088
   11SOL    HW2   33   1.628   2.047   1.053 -1.7177 -0.9010 -1.7422
   12SOL     OW   34   2.690   0.393   2.067  0.2145  0.0589  0.2398
   12SOL    HW1   35   2.753   0.447   2.122 -1.4682  1.1488  1.9889
   12SOL    HW2   36   2.631   0.338   2.129  1.9193  2.8339 -0.2379
   13SOL     OW   37   2.682   2.894   0.304 -0.0766 -0.0193  0.2244
   13SOL    HW1   38   2.735   2.809   0.335 -1.0974 -3.1745 -0.7754
   13SOL    HW2   39   2.589   2.863   0.273  2.2576  0.0453 -0.3851
   14SOL     OW   40   1.813   1.399   2.994  0.3371 -0.3838 -0.6147
   14SOL    HW1   41   1.757   1.318   2.963 -0.0960  2.0706  0.0932
   14SOL    HW2   42   1.820   1.418   3.095  2.4416  0.3184 -2.2828
   15SOL     OW   43   2.801   2.434   1.805  0.1090 -0.0250  0.2939
   15SOL    HW1   44   2.803   2.334   1.810  1.2796  0.3985  0.2329
   15SOL    HW2   45   2.892   2.472   1.814 -3.0149 -0.0273 -2.7770
   16SOL     OW   46   2.737   2.997   0.686  0.1843  0.6118  0.3656
   16SOL    HW1   47   2.724   3.012   0.786  2.6278 -0.1970  0.6395
   16SOL    HW2   48   2.694   2.911   0.647  1.3701  0.0783 -0.4168
   17SOL     OW   49   1.036   0.099   0.859  0.1385 -0.7625 -0.1171
   17SOL    HW1   50   0.955   0.065   0.808 -2.5296 -1.9336  3.5023
   17SOL    HW2   51   1.007   0.165   0.932  2.7078 -1.9627 -3.2302
   18SOL     OW   52   1.639   3.077   1.015 -0.0436 -0.5602 -0.0681
   18SOL    HW1   53   1.731   3.065   0.977 -1.9879 -0.3563  2.0313
   18SOL    HW2   54   1.622   0.079   1.043  2.3479 -1.2181  0.0110
   19SOL     OW   55   2.376   1.427   0.358 -0.1462  0.1635  0.3838
   19SOL    HW1   56   2.339   1.413   0.264 -1.6637  1.3644  1.4425
   19SOL    HW2   57   2.463   1.478   0.358  4.3141  0.2374 -1.1532
   20SOL     OW   58   2.292   1.457   2.331 -0.1536  0.1018 -0.1654
   20SOL    HW1   59   2.348   1.448   2.414  0.2210 -2.2681 -0.3422
   20SOL    HW2   60   2.285   1.553   2.305 -0.3369 -1.8209  2.4592
   21SOL     OW   61   1.488   2.902   0.289 -0.0580 -0.3032  0.1171
   21SOL    HW1   62   1.555   2.862   0.357 -0.8622  0.3641 -0.7203
   21SOL    HW2   63   1.438   2.984   0.325  0.7170  1.2744 -0.8818
   22SOL     OW   64   2.879   0.813   0.976 -0.3120  0.2648 -0.3545
   22SOL    HW1   65   2.896   0.804   1.079  1.3439  0.1709 -0.5216
   22SOL    HW2   66   2.806   0.883   0.956 -2.6859  0.4129  1.6643
   23SOL     OW   67   0.561   2.897   1.809  0.4226 -0.0807 -0.1879
   23SOL    HW1   68   0.646   2.953   1.788  2.9794  1.3078 -0.0098
   23SOL    HW2   69   0.477   2.955   1.823 -2.7605  4.2400 -2.5657
   24SOL     OW   70   2.286   2.486   0.734  0.0903  0.3179  0.2192
   24SOL    HW1   71   2.372   2.453   0.696 -2.2769  1.6600 -0.9938
   24SOL    HW2   72   2.248   2.414   0.794  3.8573  1.7839  1.6920
   25SOL     OW   73   1.839   0.078   2.685 -0.6063  0.1524 -0.2308
   25SOL    HW1   74   1.907   0.105   2.756 -0.5871 -1.7096  0.9686
   25SOL    HW2   75   1.752   0.124   2.699 -1.2248  0.9051 -0.2907
   26SOL     OW   76   1.442   2.379   2.922 -0.1946  0.1383  0.3253
   26SOL    HW1   77   1.415   2.476   2.939  0.2860 -2.9938 -1.7087
   26SOL    HW2   78   1.361   2.321   2.959 -4.1305 -1.3237  1.9500
   27SOL     OW   79   1.457   0.533   1.093 -0.4015  0.0067 -0.0994
   27SOL    HW1   80   1.367   0.509   1.126  0.9816 -2.6501  0.3477
   27SOL    HW2   81   1.459   0.613   1.023 -0.3737  0.9151 -0.1953
   28SOL     OW   82   0.877   1.441   0.485  0.1531  0.0819 -0.2761
   28SOL    HW1   83   0.830   1.395   0.409 -0.3926  0.8525 -2.2767
   28SOL    HW2   84   0.948   1.382   0.530  4.5993  0.3997  0.7544
   29SOL     OW   85   2.645   0.315   1.447  0.0827  1.1592  0.3215
   29SOL    HW1   86   2.619   0.229   1.495 -0.4153 -0.1776  1.0133
   29SOL    HW2   87   2.615   0.398   1.500 -2.0014 -0.7998  0.4617
   30SOL     OW   88   1.092   2.652   1.299  0.0406  0.3442  0.0016
   30SOL    HW1   89   1.072   2.625   1.397 -1.5189  1.5541  2.0446
   30SOL    HW2   90   1.159   2.585   1.252  1.5086 -0.0464  1.4825
   31SOL     OW   91   1.712   2.867   1.608  0.2247  1.2764 -0.4040
   31SOL    HW1   92   1.752   2.936   1.667 -0.0569 -2.7236  0.9248
   31SOL    HW2   93   1.786   2.806   1.578  0.6847  3.7653 -1.3292
   32SOL     OW   94   1.664   1.834   2.582  0.0191  0.5511  0.3763
   32SOL    HW1   95   1.638   1.840   2.485 -0.6367  1.4236  0.4414
   32SOL    HW2   96   1.704   1.739   2.596 -3.3070  0.4638  1.0617
   33SOL     OW   97   2.456   0.693   2.508 -0.1517  0.4446 -0.0403
   33SOL    HW1   98   2.377   0.719   2.454 -1.3523  1.3806  0.1292
   33SOL    HW2   99   2.468   0.595   2.498  1.5122 -0.7123 -3.2731
   34SOL     OW  100   1.833   0.480   0.447 -0.4758 -0.9338 -1.0405
   34SOL    HW1  101   1.840   0.520   0.542 -0.9082  0.4934 -1.8195
   34SOL    HW2  102   1.737   0.474   0.416  1.4695 -0.6089 -1.6270
   35SOL     OW  103   3.096   2.155   2.136 -0.1721 -0.1255 -0.0384
   35SOL    HW1  104   2.997   2.132   2.140  0.4950  1.7967  2.2161
   35SOL    HW2  105   0.036   2.167   2.231 -0.3663  1.7319  0.7799
   36SOL     OW  106   2.487   1.677   2.996  0.8483 -0.1770  0.2259
   36SOL    HW1  107   2.507   1.610   2.923  1.3970  2.6000  0.3964
   36SOL    HW2  108   2.444   1.766   2.960  0.1524 -1.9868 -1.4739
   37SOL     OW  109   1.926   0.210   1.546 -0.0611 -0.3003 -0.1383
   37SOL    HW1  110   1.930   0.272   1.632 -0.7362  1.3399  0.9369
   37SOL    HW2  111   2.007   0.145   1.538  0.7393 -0.2026  2.8654
   38SOL     OW  112   0.131   0.547   2.568  0.2621  0.2054  0.0164
   38SOL    HW1  113   0.173   0.546   2.474  1.0341  2.3036 -0.1358
   38SOL    HW2  114   0.203   0.578   2.637  1.4168 -1.8025  0.5940
   39SOL     OW  115   1.933   1.329   1.510  0.0915  0.2078 -0.4563
   39SOL    HW1  116   1.862   1.260   1.482 -0.9214 -1.4878  0.9562
   39SOL    HW2  117   1.951   1.399   1.434  0.0504  2.3468  0.2061
   40SOL     OW  118   0.984   2.016   0.841 -0.0640 -0.2778  0.3617
   40SOL    HW1  119   0.942   2.035   0.926  1.4375 -0.6768 -2.0394
   40SOL    HW2  120   1.078   1.975   0.851  0.2806 -1.2120 -1.1626
   41SOL     OW  121   1.911   2.177   1.122  0.2100  0.0525 -0.3900
   41SOL    HW1  122   1.987   2.112   1.123  1.8336  0.3177  1.5295
   41SOL    HW2  123   1.824   2.138   1.163  0.7486  0.8138  0.2309
   42SOL     OW  124   2.712   0.601   1.263 -0.1975 -0.4817  0.3906
   42SOL    HW1  125   2.711   0.514   1.208 -0.0536  3.9487  0.9329
   42SOL    HW2  126   2.787   0.661   1.230  0.1505  1.1490  1.3765
   43SOL     OW  127   0.594   1.791   2.973  0.7158 -0.1375 -0.1725
   43SOL    HW1  128   0.494   1.817   2.984 -0.8074  0.2833 -2.8330
   43SOL    HW2  129   0.628   1.709   3.021  1.7503 -0.3101 -1.1157
   44SOL     OW  130   1.413   2.496   1.455 -0.0579 -0.1972  0.1166
   44SOL    HW1  131   1.435   2.569   1.524 -0.1255  1.8727  1.8994
   44SOL    HW2  132   1.428   2.533   1.366  1.1224 -0.4000 -0.2063
   45SOL     OW  133   0.939   2.915   2.517 -0.0286 -0.0998 -0.0521
   45SOL    HW1  134   1.015   2.972   2.493 -2.9210 -2.0876  0.0839
   45SOL    HW2  135   0.923   2.843   2.445  1.0048  1.1948  1.1165
   46SOL     OW  136   0.938   2.391   2.270 -0.0494  0.0836  0.1945
   46SOL    HW1  137   0.986   2.311   2.232 -0.3252  3.9608  2.3170
   46SOL    HW2  138   0.930   2.473   2.208  0.1989 -3.2913  0.5356
   47SOL     OW  139   0.960   2.281   1.042  0.5329  0.1294  0.2921
   47SOL    HW1  140   0.876   2.339   1.046 -1.7592 -1.0484 -1.0156
   47SOL    HW2  141   0.942   2.182   1.049  1.0513  1.6729 -0.0225
   48SOL     OW  142   0.742   2.403   1.365  0.1219  0.1592 -0.8223
   48SOL    HW1  143   0.753   2.454   1.278  1.5874  3.2571  0.6063
   48SOL    HW2  144   0.697   2.312   1.350 -0.3846  0.2871 -1.9758
   49SOL     OW  145   2.355   0.027   0.094 -0.2677 -0.2841 -0.3506
   49SOL    HW1  146   2.385   0.116   0.141  2.6077 -1.7443  0.4648
   49SOL    HW2  147   2.366   0.036   3.091  1.4374 -0.2873  1.5925
   50SOL     OW  148   1.617   0.813   0.378 -0.0314  0.4986  0.6112
   50SOL    HW1  149   1.681   0.785   0.304  1.0220  1.1889  1.6182
   50SOL    HW2  150   1.643   0.901   0.422  1.0026  0.0790 -0.9441
   51SOL     OW  151   1.964   0.688   0.911 -0.0177  0.0085  0.6669
   51SOL    HW1  152   1.894   0.684   0.985 -0.1410  0.3800 -2.4612
   51SOL    HW2  153   2.059   0.692   0.949 -1.3239 -2.8002  3.5053
   52SOL     OW  154   0.555   1.596   0.231  0.0807  0.1072  0.2785
   52SOL    HW1  155   0.576   1.596   0.133  1.9691 -2.0510 -0.5459
   52SOL    HW2  156   0.535   1.502   0.263  2.0208  0.0284 -1.9359
   53SOL     OW  157   0.275   1.210   2.955  0.4786 -0.1609  0.1762
   53SOL    HW1  158   0.194   1.189   2.898  0.2432 -0.6609  0.3104
   53SOL    HW2  159   0.344   1.136   2.949 -1.6060  1.1016  2.1155
   54SOL     OW  160   2.057   1.339   2.237  1.0103 -0.0208  0.1253
   54SOL    HW1  161   2.133   1.376   2.298 -1.7635 -0.3976  0.5005
   54SOL    HW2  162   2.054   1.396   2.150 -3.6397  0.4736 -0.5114
   55SOL     OW  163   2.617   2.221   0.826  0.0301  0.2266  0.0625
   55SOL    HW1  164   2.584   2.292   0.754  1.3255  0.5260 -1.6877
   55SOL    HW2  165   2.544   2.191   0.895  2.5419 -1.7021  1.5030
   56SOL     OW  166   1.920   2.922   1.318  0.2371 -0.3825 -0.1246
   56SOL    HW1  167   1.892   2.883   1.410  1.0366  0.9781  0.9601
   56SOL    HW2  168   1.871   2.874   1.246 -1.1032  1.3293  0.3633
   57SOL     OW  169   1.622   1.360   0.319  0.0256 -0.1553 -0.4759
   57SOL    HW1  170   1.569   1.274   0.344 -1.4385  0.5264 -0.1117
   57SOL    HW2  171   1.604   1.447   0.374  0.1184  1.8501  0.7639
   58SOL     OW  172   2.328   0.212   1.508 -0.5841  0.0343  0.5389
   58SOL    HW1  173   2.252   0.148   1.520  0.0604 -0.4702 -1.0951
   58SOL    HW2  174   2.392   0.210   1.589  0.9978 -0.8683 -1.4096
   59SOL     OW  175   1.217   2.543   2.676 -0.3015  0.1018  0.4882
   59SOL    HW1  176   1.297   2.563   2.615 -3.3850 -1.3904 -0.4059
   59SOL    HW2  177   1.158   2.628   2.678  1.8149  1.4599 -4.3672
   60SOL     OW  178   0.025   2.548   2.660  0.2051  0.2920  0.2323
   60SOL    HW1  179   0.057   2.539   2.758 -0.4897  0.7707  1.5670
   60SOL    HW2  180   3.052   2.621   2.651  1.7651  1.5916  1.6554
   61SOL     OW  181   0.745   2.437   1.094 -0.1532  0.8897  0.0222
   61SOL    HW1  182   0.780   2.525   1.051 -0.2311 -0.4328 -3.0018
   61SOL    HW2  183   0.649   2.417   1.053 -1.3208  0.7131  0.5314
   62SOL     OW  184   1.520   1.771   2.086 -0.2755  0.4241 -0.2896
   62SOL    HW1  185   1.568   1.857   2.091 -1.2184  0.9622 -1.5731
   62SOL    HW2  186   1.547   1.709   2.014 -0.7834  3.1784  0.0116
   63SOL     OW  187   1.937   1.646   0.329 -0.3572 -0.2107 -0.1837
   63SOL    HW1  188   2.036   1.641   0.358  1.1125 -2.0857  1.8664
   63SOL    HW2  189   1.908   1.746   0.326 -1.4943  1.1436  0.3865
   64SOL     OW  190   1.772   1.095   0.206 -0.1426 -0.5521  0.2986
   64SOL    HW1  191   1.757   1.101   0.306 -3.6826  0.8301  0.1628
   64SOL    HW2  192   1.691   1.132   0.156  0.0362  0.1925 -0.8915
   65SOL     OW  193   1.923   2.160   2.096 -0.3829 -0.5007  0.7511
   65SOL    HW1  194   1.893   2.107   2.175  2.2504  0.9961 -0.7039
   65SOL    HW2  195   1.844   2.178   2.036 -1.3943 -0.0279  0.2733
   66SOL     OW  196   0.273   1.117   1.491 -0.0802 -0.0810  0.5982
   66SOL    HW1  197   0.302   1.044   1.423  1.8474  1.8091  0.6475
   66SOL    HW2  198   0.325   1.206   1.479 -0.2327  0.9844 -0.8657
   67SOL     OW  199   2.027   2.767   0.258  0.0044 -0.0700  0.5282
   67SOL    HW1  200   2.115   2.818   0.257 -0.2122 -1.0293  0.4759
   67SOL    HW2  201   1.999   2.749   0.158  0.3806  1.3004 -0.3753
   68SOL     OW  202   1.832   2.448   1.224 -0.3004  0.2229  0.1322
   68SOL    HW1  203   1.930   2.463   1.194  2.1409 -1.5041 -0.2168
   68SOL    HW2  204   1.781   2.536   1.211  0.0064 -0.0887  1.2649
   69SOL     OW  205   2.864   1.957   2.973 -0.2541 -0.0019  0.2017
   69SOL    HW1  206   2.772   1.934   2.936 -0.4568  0.7102 -0.9753
   69SOL    HW2  207   2.864   2.017   3.055  1.4185  2.2250  0.5699
   70SOL     OW  208   0.040   0.961   2.075 -0.4257 -0.2627  0.2674
   70SOL    HW1  209   0.099   1.044   2.068  1.8694 -0.3714  2.9401
   70SOL    HW2  210   3.042   0.979   2.106  1.2626 -0.1675  0.9481
   71SOL     OW  211   0.878   1.076   2.380 -0.2570  0.5504  0.0530
   71SOL    HW1  212   0.799   1.104   2.320 -0.8266 -4.2063  0.0781
   71SOL    HW2  213   0.851   0.988   2.421 -0.7342  0.6820  0.0820
   72SOL     OW  214   2.567   1.327   1.999  0.0859 -0.3702 -0.0870
   72SOL    HW1  215   2.516   1.346   1.912 -0.3209 -1.6322  0.9867
   72SOL    HW2  216   2.601   1.230   2.002 -2.0019 -0.4093 -1.0255
   73SOL     OW  217   1.178   1.953   2.881 -0.5439 -0.1481 -0.5936
   73SOL    HW1  218   1.096   2.013   2.904 -0.6187  1.9252 -0.3689
   73SOL    HW2  219   1.259   1.981   2.945  0.8879  1.1721  1.5384
   74SOL     OW  220   2.050   2.910   2.441  0.0175  0.0947 -0.1289
   74SOL    HW1  221   1.958   2.901   2.484  2.3978  0.0850 -3.4524
   74SOL    HW2  222   2.106   2.989   2.475 -2.0965  0.6536  0.1795
   75SOL     OW  223   1.634   2.489   0.786 -0.3682 -0.2017 -0.0749
   75SOL    HW1  224   1.552   2.514   0.840  0.7315 -0.3164  0.0723
   75SOL    HW2  225   1.718   2.472   0.848 -0.5005  0.2185  0.4857
   76SOL     OW  226   2.733   1.782   2.774 -0.2961  0.2863 -0.0798
   76SOL    HW1  227   2.688   1.691   2.789 -2.1307 -0.7753  0.5409
   76SOL    HW2  228   2.836   1.774   2.765  1.9793  1.0182 -1.2836
   77SOL     OW  229   3.092   2.449   1.500 -0.6339 -0.3971 -0.1262
   77SOL    HW1  230   3.096   2.369   1.436  0.8680  1.1025 -1.1798
   77SOL    HW2  231   3.050   2.414   1.586 -1.6550  1.3104 -0.1527
   78SOL     OW  232   2.552   1.133   0.300 -0.4025 -0.3190 -0.4010
   78SOL    HW1  233   2.559   1.159   0.204 -0.1953 -2.0873  1.9278
   78SOL    HW2  234   2.453   1.151   0.326  0.9436 -1.7303 -0.2195
   79SOL     OW  235   0.335   1.683   2.753 -0.1309 -0.2803 -0.5026
   79SOL    HW1  236   0.417   1.663   2.693 -0.9476 -0.2168  2.1689
   79SOL    HW2  237   0.250   1.656   2.709  1.5670  0.0588  0.3396
   80SOL     OW  238   1.843   1.592   2.220  0.0829 -0.1533  0.1111
   80SOL    HW1  239   1.853   1.554   2.125  1.0185  2.1196 -0.8974
   80SOL    HW2  240   1.815   1.516   2.280 -1.0176  1.6055  2.1928
   81SOL     OW  241   2.254   1.057   2.150  0.6835 -0.7340 -0.3121
   81SOL    HW1  242   2.172   1.053   2.087  0.1734 -0.5905  5.5956
   81SOL    HW2  243   2.274   1.157   2.171 -0.2959  4.0502 -1.4938
   82SOL     OW  244   1.343   1.384   1.982 -0.6715  0.4449  0.2429
   82SOL    HW1  245   1.265   1.445   1.958 -2.5505  0.9929  0.4034
   82SOL    HW2  246   1.391   1.345   1.898  0.3980  1.2337  0.0831
   83SOL     OW  247   3.038   0.356   3.071  0.1271 -0.4361 -0.0877
   83SOL    HW1  248   3.091   0.336   0.061 -2.0051 -2.2154  0.3500
   83SOL    HW2  249   2.940   0.363   3.091  3.7450 -0.7581 -0.6833
   84SOL     OW  250   0.025   0.699   0.232 -0.1157  0.1131 -0.5358
   84SOL    HW1  251   3.019   0.697   0.233  1.2882 -2.4518  0.7437
   84SOL    HW2  252   0.055   0.772   0.293 -3.0202  2.1202 -1.1708
   85SOL     OW  253   2.178   2.022   1.666 -0.0794  0.5482  0.3891
   85SOL    HW1  254   2.248   1.992   1.740  1.6040 -1.4346  1.5848
   85SOL    HW2  255   2.138   2.113   1.691 -0.1310  1.1447 -0.1600
   86SOL     OW  256   0.379   0.320   1.072  0.1533 -0.1905 -0.3921
   86SOL    HW1  257   0.399   0.393   1.007 -1.8050  0.0290 -2.6874
   86SOL    HW2  258   0.458   0.313   1.139  2.0369  0.0391 -0.9760
   87SOL     OW  259   2.893   1.892   1.952  0.4935  0.3432 -0.3060
   87SOL    HW1  260   2.985   1.850   1.935  0.1283  1.2422  2.2539
   87SOL    HW2  261   2.895   1.968   2.023  1.3864 -1.4855 -2.9435
   88SOL     OW  262   0.345   2.190   0.054 -0.4904  0.6163 -0.5146
   88SOL    HW1  263   0.414   2.169   0.128  1.3065  0.2999 -2.6879
   88SOL    HW2  264   0.356   2.121   3.072  0.6103  1.0335 -0.4647
   89SOL     OW  265   1.366   0.766   0.262 -0.3195 -0.2647  0.3951
   89SOL    HW1  266   1.339   0.840   0.196  0.3732  0.6105 -4.6725
   89SOL    HW2  267   1.459   0.784   0.303 -1.4066 -2.8004 -0.2056
   90SOL     OW  268   0.123   1.535   2.399 -0.2186  0.0762  0.5218
   90SOL    HW1  269   0.069   1.614   2.369  0.3449 -2.0051 -2.1299
   90SOL    HW2  270   0.193   1.519   2.329 -0.6511  1.6463  1.1386
   91SOL     OW  271   2.060   3.091   1.158 -0.1181 -0.2608  0.5219
   91SOL    HW1  272   2.015   3.031   1.228  1.0604  0.5801 -0.3817
   91SOL    HW2  273   1.993   0.051   1.099 -1.7564 -1.1961  1.2915
   92SOL     OW  274   2.385   1.304   1.409  0.1112 -0.1885  0.3773
   92SOL    HW1  275   2.431   1.254   1.332  0.5302  0.8868  0.9481
   92SOL    HW2  276   2.438   1.291   1.498 -1.9323 -0.1164  1.5659
   93SOL     OW  277   0.021   1.114   0.220 -0.0343  0.5526 -0.0319
   93SOL    HW1  278   0.048   1.031   0.275  0.9414 -0.0747  0.7447
   93SOL    HW2  279   0.105   1.173   0.205 -1.0540  0.0870 -1.2678
   94SOL     OW  280   1.400   2.270   2.051 -0.3958  0.1477 -0.2791
   94SOL    HW1  281   1.414   2.185   2.110  0.6219 -0.8626 -0.5874
   94SOL    HW2  282   1.498   2.311   2.049  0.4003  2.2124  0.2075
   95SOL     OW  283   0.352   0.670   1.161 -0.3186  0.3111  0.2705
   95SOL    HW1  284   0.433   0.611   1.179 -1.1489 -2.6617  1.9071
   95SOL    HW2  285   0.337   0.706   1.067 -1.3703 -2.3127 -0.5083
   96SOL     OW  286   2.894   3.010   1.659  0.5417  0.3450 -0.4564
   96SOL    HW1  287   2.961   2.966   1.719  2.0613  0.4565 -2.0722
   96SOL    HW2  288   2.833   2.938   1.622  0.0133  0.0300  1.5977
   97SOL     OW  289   2.559   0.533   1.617  0.1395 -0.3565 -0.0699
   97SOL    HW1  290   2.637   0.597   1.597  0.5803 -0.3669  1.1045
   97SOL    HW2  291   2.538   0.527   1.714  0.8613  2.5873 -3.7467
   98SOL     OW  292   2.261   2.559   1.343 -0.1347 -0.1480 -0.1224
   98SOL    HW1  293   2.198   2.499   1.287 -0.6995 -2.0624 -1.3307
   98SOL    HW2  294   2.280   2.653   1.306 -0.7513 -0.5462  0.1524
   99SOL     OW  295   0.479   0.165   1.795 -0.0297 -0.0453 -0.0426
   99SOL    HW1  296   0.407   0.190   1.723  2.2928  0.1607  0.4087
   99SOL    HW2  297   0.547   0.238   1.802 -2.3508  0.1897  0.5235
  100SOL     OW  298   2.145   0.131   2.242 -0.3086  0.1775 -0.4480
  100SOL    HW1  299   2.163   0.046   2.187  2.8805 -3.2120  0.2758
  100SOL    HW2  300   2.051   0.161   2.231  1.1310 -3.4388 -1.6442
  101SOL     OW  301   0.099   0.082   2.479 -0.2058  0.2710  0.1487
  101SOL    HW1  302   0.122   3.076   2.464  2.1487 -1.6516  0.3877
  101SOL    HW2  303   0.186   0.129   2.511  2.0336 -1.9997 -0.6262
  102SOL     OW  304   0.672   0.358   1.752 -0.1280 -0.5267 -0.0089
  102SOL    HW1  305   0.701   0.356   1.658 -1.3821  0.4365  3.6605
  102SOL    HW2  306   0.737   0.404   1.815 -0.0815 -0.8045 -0.2543
  103SOL     OW  307   0.957   0.789   2.770  0.6567 -0.3742 -0.0673
  103SOL    HW1  308   1.060   0.771   2.768  2.7202  0.4890  0.7221
  103SOL    HW2  309   0.945   0.889   2.799  0.6006  3.1523  1.8121
  104SOL     OW  310   0.046   0.503   2.218  0.4294  0.1202  0.3528
  104SOL    HW1  311   0.138   0.528   2.252  4.2125 -1.0114  1.1126
  104SOL    HW2  312   0.010   0.560   2.142 -2.3967 -0.2152 -0.3707
  105SOL     OW  313   2.428   2.009   1.204  0.3590 -0.1207 -0.0495
  105SOL    HW1  314   2.435   2.045   1.299  1.3594  1.6976 -1.6283
  105SOL    HW2  315   2.417   1.906   1.193  1.0778  2.7633  0.2856
  106SOL     OW  316   1.833   0.202   0.453 -0.2882  0.2320 -0.2652
  106SOL    HW1  317   1.883   0.129   0.504 -0.4293  0.7750  2.7541
  106SOL    HW2  318   1.871   0.297   0.469 -3.2592 -0.8210  0.4982
  107SOL     OW  319   2.001   2.169   0.780 -0.1391 -0.0802 -0.0998
  107SOL    HW1  320   1.976   2.196   0.685  2.2212 -2.0049 -3.4762
  107SOL    HW2  321   1.954   2.086   0.815 -1.0167  0.2049  0.0864
  108SOL     OW  322   0.184   2.416   1.130  0.0894 -0.1667  0.0545
  108SOL    HW1  323   0.082   2.417   1.141 -0.9926  1.2532 -1.1909
  108SOL    HW2  324   0.217   2.347   1.068 -1.9874  0.9236 -0.9948
  109SOL     OW  325   1.830   2.383   0.929  0.1527  0.3372 -0.0797
  109SOL    HW1  326   1.877   2.307   0.874  0.9750 -3.1960  0.7120
  109SOL    HW2  327   1.816   2.359   1.026 -2.2631 -0.4571  0.2045
  110SOL     OW  328   1.556   1.480   1.611  0.4961 -0.4864 -0.3141
  110SOL    HW1  329   1.537   1.383   1.592  2.4130 -1.0019 -1.9691
  110SOL    HW2  330   1.464   1.528   1.618 -1.2694 -0.2164 -0.0508
  111SOL     OW  331   1.694   2.190   1.887  0.1554 -0.2437  0.6307
  111SOL    HW1  332   1.704   2.206   1.785  0.1281 -0.0662 -0.5773
  111SOL    HW2  333   1.691   2.276   1.935 -0.1081  0.8465 -0.5571
  112SOL     OW  334   1.865   2.147   2.843 -0.5564  0.1113 -0.8739
  112SOL    HW1  335   1.795   2.215   2.879  1.7559  0.2585 -0.4496
  112SOL    HW2  336   1.956   2.197   2.842  0.1485  1.0068 -1.1595
  113SOL     OW  337   1.973   1.851   1.668  0.1894 -0.6894 -0.6143
  113SOL    HW1  338   2.061   1.904   1.676 -1.1677  1.2312  2.8352
  113SOL    HW2  339   1.939   1.838   1.764 -2.7120 -0.2205  0.8487
  114SOL     OW  340   3.049   1.482   1.662  0.5500  0.0400 -0.4422
  114SOL    HW1  341   3.065   1.408   1.733 -1.1591 -1.0828  2.3791
  114SOL    HW2  342   0.034   1.481   1.599 -0.6315 -0.7155 -0.9802
  115SOL     OW  343   0.039   0.904   0.412 -0.2097 -0.3810  0.3109
  115SOL    HW1  344   3.091   0.900   0.501 -0.7023 -0.0798  0.2003
  115SOL    HW2  345   0.137   0.925   0.426 -2.1574  2.4684  0.5744
  116SOL     OW  346   2.663   1.272   2.845 -0.0774 -0.2071 -0.0957
  116SOL    HW1  347   2.642   1.231   2.757 -0.9707  1.5990 -1.3099
  116SOL    HW2  348   2.653   1.206   2.922  1.9168  2.6723 -1.2785
  117SOL     OW  349   2.854   2.545   0.094 -0.0048  0.1396 -0.4335
  117SOL    HW1  350   2.792   2.468   0.118  0.3648 -0.0494 -1.6463
  117SOL    HW2  351   2.851   2.568   3.094  0.0977  1.7846  1.3573
  118SOL     OW  352   0.724   1.991   2.825 -0.5803  0.4887  0.6619
  118SOL    HW1  353   0.698   2.089   2.815  2.3080 -0.4638 -1.2335
  118SOL    HW2  354   0.645   1.931   2.851 -1.2387 -1.2567  0.2187
  119SOL     OW  355   0.537   2.503   0.656  0.0365  0.2770  0.5184
  119SOL    HW1  356   0.617   2.441   0.636  1.1718 -0.8856  0.7454
  119SOL    HW2  357   0.469   2.447   0.710  2.1498 -1.7461  0.6967
  120SOL     OW  358   1.240   0.591   0.480  0.0258  0.2985 -0.3336
  120SOL    HW1  359   1.242   0.652   0.395  0.5375  2.0457  0.4285
  120SOL    HW2  360   1.229   0.494   0.452  0.1673 -0.4436  0.4892
  121SOL     OW  361   1.427   2.613   0.925 -0.3479 -0.6970  0.7230
  121SOL    HW1  362   1.422   2.716   0.920 -0.8459 -0.1631  0.4556
  121SOL    HW2  363   1.365   2.574   0.852  0.4346 -2.2422 -0.9264
  122SOL     OW  364   2.501   1.806   2.199 -0.2908  0.4887 -0.0965
  122SOL    HW1  365   2.542   1.784   2.108  0.0993 -2.9029 -2.7742
  122SOL    HW2  366   2.422   1.750   2.224 -1.0832  0.8315  1.5739
  123SOL     OW  367   0.874   1.708   0.791  0.4990  0.5592  0.3166
  123SOL    HW1  368   0.953   1.769   0.769  1.6374 -1.2422 -2.1641
  123SOL    HW2  369   0.811   1.748   0.861 -0.8249 -0.6236  3.6871
  124SOL     OW  370   3.031   0.608   2.946 -0.1364 -0.3043  0.1658
  124SOL    HW1  371   3.033   0.518   2.994 -0.8508  0.8580 -2.7045
  124SOL    HW2  372   3.034   0.591   2.848 -0.8297  1.5392  2.0817
  125SOL     OW  373   0.436   0.508   0.011  0.3504 -0.3203 -0.2856
  125SOL    HW1  374   0.345   0.559   3.089 -2.1330  1.8593 -2.3274
  125SOL    HW2  375   0.418   0.406   0.009  0.3238 -0.0077 -2.1176
  126SOL     OW  376   0.051   1.784   0.590 -0.2054  0.4058  0.1936
  126SOL    HW1  377   0.084   1.739   0.505  2.0666 -0.9592 -1.7915
  126SOL    HW2  378   3.049   1.791   0.596  1.1767 -0.9660  1.8759
  127SOL     OW  379   1.033   2.436   1.754  0.2494 -0.2483  0.8066
  127SOL    HW1  380   0.956   2.497   1.785 -0.3101  2.2890  0.5311
  127SOL    HW2  381   1.026   2.413   1.652 -1.0081 -0.4360  1.8970
  128SOL     OW  382   1.303   1.658   0.160 -0.5641 -0.0008  0.0699
  128SOL    HW1  383   1.223   1.716   0.142 -1.3150 -1.4559  2.4869
  128SOL    HW2  384   1.337   1.620   0.068 -0.5750 -1.2604 -2.4454
  129SOL     OW  385   1.864   2.036   1.483 -0.2870  0.1701 -0.4763
  129SOL    HW1  386   1.772   2.011   1.444  1.0096  0.2187 -0.0267
  129SOL    HW2  387   1.886   1.977   1.568 -1.8243  0.3495  3.0578
  130SOL     OW  388   1.715   2.230   1.603 -0.2114  0.8696 -0.9394
  130SOL    HW1  389   1.770   2.147   1.586  1.6314 -0.0128  0.2644
  130SOL    HW2  390   1.678   2.267   1.519  0.0869 -2.1867 -1.0295
  131SOL     OW  391   2.864   2.256   2.353  0.7235  0.4604 -0.3529
  131SOL    HW1  392   2.852   2.156   2.375  1.2966 -0.9443 -0.0328
  131SOL    HW2  393   2.930   2.307   2.414 -0.1370  1.8951 -0.4753
  132SOL     OW  394   3.019   1.933   0.830  0.8142 -0.2257  0.3267
  132SOL    HW1  395   3.010   1.846   0.871 -0.1678  1.6981 -2.8054
  132SOL    HW2  396   3.030   2.004   0.900  0.0469 -1.6040 -2.2048
  133SOL     OW  397   0.864   0.438   1.951  0.1912  0.2394  0.4244
  133SOL    HW1  398   0.942   0.403   1.895  1.0350  1.1668  0.7866
  133SOL    HW2  399   0.899   0.517   2.001  0.2945 -2.4751  0.0193
  134SOL     OW  400   2.892   1.767   0.163 -0.1026  0.0881 -0.1125
  134SOL    HW1  401   2.940   1.854   0.189 -1.5396 -0.7292 -0.2024
  134SOL    HW2  402   2.791   1.776   0.144  1.6370 -0.3623  3.8932
  135SOL     OW  403   1.596   0.915   2.521 -0.4621 -0.1827  0.3123
  135SOL    HW1  404   1.566   1.011   2.540 -0.2743 -2.3447  2.0306
  135SOL    HW2  405   1.515   0.860   2.502 -0.2272 -1.4386 -4.1334
  136SOL     OW  406   2.622   1.827   1.015 -0.1680  0.1223  0.1394
  136SOL    HW1  407   2.692   1.779   0.955  0.8114 -0.6431 -1.2782
  136SOL    HW2  408   2.665   1.901   1.071  2.4476 -0.2810  0.1172
  137SOL     OW  409   2.804   1.671   0.864  0.1295  0.3709  0.2888
  137SOL    HW1  410   2.888   1.666   0.917  1.3600 -1.4494  0.0417
  137SOL    HW2  411   2.823   1.695   0.766  1.2533 -0.1282 -1.3101
  138SOL     OW  412   2.868   0.554   0.880 -0.0547 -0.7797  0.3918
  138SOL    HW1  413   2.938   0.486   0.904  0.5267  2.4809  0.4974
  138SOL    HW2  414   2.894   0.644   0.915  1.9297  2.8545 -3.1026
  139SOL     OW  415   3.003   2.802   3.027 -0.1366 -0.5598  0.0731
  139SOL    HW1  416   3.051   2.827   2.943  2.1900 -1.8674 -0.5738
  139SOL    HW2  417   3.027   2.867   0.005 -0.3388 -3.2087 -1.4279
  140SOL     OW  418   0.744   1.506   1.470 -0.3351 -0.3427 -0.4908
  140SOL    HW1  419   0.773   1.410   1.448  2.0518  0.7266  0.6290
  140SOL    HW2  420   0.723   1.519   1.569  2.5698 -1.1010  0.7101
  141SOL     OW  421   1.219   1.858   0.907 -0.0104 -0.3906 -0.6880
  141SOL    HW1  422   1.175   1.783   0.961  2.9596 -0.0410  0.9145
  141SOL    HW2  423   1.320   1.843   0.887 -1.7727  0.3825 -0.5467
  142SOL     OW  424   0.956   0.741   0.890  0.4712  0.2621  0.2646
  142SOL    HW1  425   0.992   0.649   0.913  0.8421 -0.1151 -3.2564
  142SOL    HW2  426   0.876   0.733   0.824 -2.6769 -0.2404 -0.3719
  143SOL     OW  427   0.637   1.256   2.485  0.2526 -0.1192 -0.8474
  143SOL    HW1  428   0.705   1.319   2.437 -0.2553  3.3543 -0.6371
  143SOL    HW2  429   0.544   1.304   2.494 -1.8496  1.4882  0.5086
  144SOL     OW  430   2.401   0.008   0.758 -0.0462  0.3480 -0.4169
  144SOL    HW1  431   2.430   0.097   0.801  2.7594  0.8996  2.6131
  144SOL    HW2  432   2.452   3.028   0.800 -0.8709 -0.6442 -0.3859
  145SOL     OW  433   2.240   0.237   2.668  0.0871 -0.3901  0.9183
  145SOL    HW1  434   2.186   0.198   2.741  1.0808  1.7775  1.8893
  145SOL    HW2  435   2.338   0.259   2.701  1.2505 -0.9623  0.8464
  146SOL     OW  436   2.995   2.832   0.454 -0.2598 -0.1583  0.2740
  146SOL    HW1  437   3.063   2.890   0.403  0.9153  1.1002 -0.1181
  146SOL    HW2  438   3.017   2.835   0.554  1.9639 -1.6772 -1.7260
  147SOL     OW  439   1.001   1.220   2.613  0.0019  0.2742  0.5237
  147SOL    HW1  440   0.963   1.175   2.528 -0.2900 -1.8782  0.6299
  147SOL    HW2  441   1.003   1.322   2.606 -1.5672 -0.6908  2.5147
  148SOL     OW  442   1.587   0.220   2.716  0.4046  0.4870 -0.7367
  148SOL    HW1  443   1.528   0.197   2.801 -0.4533  2.1541  1.5063
  148SOL    HW2  444   1.530   0.234   2.632 -0.7657 -1.2549  0.3986
  149SOL     OW  445   1.603   0.192   1.829 -0.0377 -0.1535 -0.4508
  149SOL    HW1  446   1.540   0.128   1.864  0.3205 -1.3989 -1.3442
  149SOL    HW2  447   1.641   0.253   1.903  3.7344  0.5690  0.6898
  150SOL     OW  448   2.337   2.700   0.034 -1.0020  0.2008 -0.2126
  150SOL    HW1  449   2.405   2.656   3.066  0.7449 -0.6812  0.8906
  150SOL    HW2  450   2.237   2.676   0.026 -1.4788 -0.8421  2.3450
  151SOL     OW  451   0.620   1.543   3.067 -0.3464 -0.1819  0.6583
  151SOL    HW1  452   0.537   1.520   3.010 -0.4803  0.2359  2.2243
  151SOL    HW2  453   0.692   1.477   3.038 -2.9949 -1.9748  1.6660
  152SOL     OW  454   0.301   2.959   1.577  0.2354  0.3388 -0.0408
  152SOL    HW1  455   0.297   3.011   1.492  0.5757  2.7334  0.8395
  152SOL    HW2  456   0.283   3.023   1.653 -3.8095 -0.9566  1.5786
  153SOL     OW  457   2.610   2.885   1.706 -0.0562  0.4833  0.0138
  153SOL    HW1  458   2.612   2.795   1.757 -0.8305 -0.2649  0.3885
  153SOL    HW2  459   2.658   2.960   1.757 -0.0507  2.0113  2.4390
  154SOL     OW  460   2.501   3.043   2.630 -0.2624  0.0182 -0.6292
  154SOL    HW1  461   2.430   3.046   2.556 -2.8289 -4.0109 -0.5829
  154SOL    HW2  462   2.594   3.035   2.594 -1.3021  0.7089  0.7271
  155SOL     OW  463   2.973   1.064   0.634  0.3218  0.2049 -0.2127
  155SOL    HW1  464   3.058   1.095   0.588 -2.3443 -2.5733  0.0821
  155SOL    HW2  465   2.916   1.144   0.654 -0.6348 -2.1776  0.0926
  156SOL     OW  466   0.061   1.595   0.367  0.0833 -0.2150 -0.0705
  156SOL    HW1  467   0.111   1.654   0.293  0.6875  1.1482  0.0000
  156SOL    HW2  468   3.095   1.531   0.319  2.3115  2.1446 -0.0293
  157SOL     OW  469   0.794   0.392   0.503 -0.1713 -0.1784 -0.5045
  157SOL    HW1  470   0.857   0.424   0.578 -4.3263 -1.7726 -0.2095
  157SOL    HW2  471   0.838   0.385   0.408 -0.0215  1.4704 -0.6931
  158SOL     OW  472   1.784   1.155   1.002  0.1188  0.2851  0.0530
  158SOL    HW1  473   1.755   1.087   1.073 -0.2606  0.2435 -0.7731
  158SOL    HW2  474   1.780   1.242   1.049 -3.2516 -1.8674 -2.7582
  159SOL     OW  475   0.063   0.257   0.190  0.1117  0.3219  0.3707
  159SOL    HW1  476   0.093   0.335   0.250 -1.6365  0.3110 -2.2763
  159SOL    HW2  477   0.064   0.163   0.231 -1.4976  1.4660 -0.4847
  160SOL     OW  478   2.092   2.261   1.764 -0.0695  0.0367  0.2609
  160SOL    HW1  479   2.089   2.303   1.856  2.9956  0.2695  0.8786
  160SOL    HW2  480   2.099   2.329   1.685 -1.0617  1.4960  0.0008
  161SOL     OW  481   0.197   0.859   2.931 -0.2739 -0.7027 -0.0761
  161SOL    HW1  482   0.187   0.785   3.002  0.1194 -1.8162  1.5413
  161SOL    HW2  483   0.110   0.899   2.898 -2.7103  1.1842 -1.2525
  162SOL     OW  484   0.787   3.067   1.775 -0.1985  0.5146  0.8062
  162SOL    HW1  485   0.886   3.046   1.779  1.1678  0.2807 -1.7940
  162SOL    HW2  486   0.772   0.032   1.858 -1.1062 -2.2682 -1.7937
  163SOL     OW  487   2.723   2.940   2.469  0.3474  0.2631 -0.0375
  163SOL    HW1  488   2.761   2.976   2.385 -1.2101 -1.7888 -0.0636
  163SOL    HW2  489   2.650   2.867   2.462 -2.1172  0.5833 -1.2865
  164SOL     OW  490   2.208   1.935   0.427  0.9543 -0.5108  0.2219
  164SOL    HW1  491   2.209   1.847   0.378 -2.1813 -0.6260 -1.5730
  164SOL    HW2  492   2.300   1.953   0.469  0.4504  0.4502 -1.0016
  165SOL     OW  493   0.330   0.008   1.367 -0.2927  0.4008  0.0372
  165SOL    HW1  494   0.313   0.104   1.332  0.5232  0.5729 -0.6186
  165SOL    HW2  495   0.313   3.033   1.296  1.2488  2.6469  2.4776
  166SOL     OW  496   2.039   0.858   0.648 -0.2736  0.1831  0.4246
  166SOL    HW1  497   2.059   0.927   0.720 -0.3746  1.6670  1.4829
  166SOL    HW2  498   1.984   0.778   0.692 -1.7597 -1.7598  1.2715
  167SOL     OW  499   2.181   0.879   2.945  0.3940 -0.3014 -0.8509
  167SOL    HW1  500   2.212   0.829   2.857  0.7355 -0.9553 -0.1854
  167SOL    HW2  501   2.112   0.815   2.988 -1.2694 -1.8666  2.7043
  168SOL     OW  502   1.657   0.015   2.462  0.1033  0.9599  0.0203
  168SOL    HW1  503   1.628   3.022   2.500 -0.1544 -0.4839 -0.9075
  168SOL    HW2  504   1.748   0.044   2.496  0.2001  2.4547  1.8685
  169SOL     OW  505   0.666   1.791   0.927  0.1915 -0.1006  0.0358
  169SOL    HW1  506   0.608   1.809   0.841 -1.2940  0.4850 -1.3588
  169SOL    HW2  507   0.618   1.825   1.013  0.4495  2.3429  2.8091
  170SOL     OW  508   0.045   0.915   1.316  0.2187  0.5677  0.2453
  170SOL    HW1  509   0.089   0.985   1.255  1.0307 -0.3669  2.3464
  170SOL    HW2  510   0.013   0.963   1.400  0.9595 -2.3611  1.6200
  171SOL     OW  511   2.641   1.580   2.429 -0.0728  0.0928 -0.3565
  171SOL    HW1  512   2.637   1.575   2.326 -1.6459  1.2648  0.0652
  171SOL    HW2  513   2.649   1.679   2.455 -0.3178  0.5554 -1.4712
  172SOL     OW  514   0.651   1.760   1.395  0.0594 -0.4230 -0.3854
  172SOL    HW1  515   0.579   1.787   1.467 -1.6243 -0.0320  0.3986
  172SOL    HW2  516   0.691   1.674   1.431 -0.0844 -4.2579  2.2246
  173SOL     OW  517   1.956   1.680   3.047 -0.4476  0.2342  0.0536
  173SOL    HW1  518   1.896   1.607   3.078 -2.0334  0.0795  0.1546
  173SOL    HW2  519   1.914   1.770   3.068  2.6544 -0.9288  0.7588
  174SOL     OW  520   1.462   0.834   2.856  0.1902 -0.5272 -0.3056
  174SOL    HW1  521   1.529   0.847   2.787 -1.4940 -2.1477 -1.2064
  174SOL    HW2  522   1.496   0.790   2.937 -0.5678  1.0036  2.2437
  175SOL     OW  523   1.007   1.578   1.105 -0.1680  0.0433 -0.2700
  175SOL    HW1  524   0.978   1.670   1.142 -1.2957  3.1428 -1.8558
  175SOL    HW2  525   1.016   1.511   1.182  0.3939 -1.4238  1.6126
  176SOL     OW  526   1.402   0.161   0.265 -0.1287 -0.1576 -0.2328
  176SOL    HW1  527   1.373   0.087   0.327 -1.0388  1.6571  0.9016
  176SOL    HW2  528   1.449   0.130   0.178  0.7415  0.5684 -0.5093
  177SOL     OW  529   0.299   0.975   0.496  0.6092  0.2332 -0.0324
  177SOL    HW1  530   0.388   0.947   0.451 -0.8999  0.1179  0.4565
  177SOL    HW2  531   0.309   0.995   0.598  1.9942 -0.6407  1.5566
  178SOL     OW  532   3.073   2.303   2.552 -0.2347  0.3018 -0.6157
  178SOL    HW1  533   3.049   2.229   2.616  2.5946 -0.6433 -0.0390
  178SOL    HW2  534   3.088   2.391   2.596  1.5930  0.5530 -0.0754
  179SOL     OW  535   2.528   2.741   2.539 -0.0384 -0.0060  0.0050
  179SOL    HW1  536   2.428   2.751   2.522 -0.6333  0.7621  0.2435
  179SOL    HW2  537   2.566   2.656   2.499 -0.0980 -0.6092 -0.4065
  180SOL     OW  538   2.274   0.861   1.186 -0.6480  0.6009 -0.0723
  180SOL    HW1  539   2.307   0.767   1.206  2.3502  1.9446  1.4826
  180SOL    HW2  540   2.275   0.869   1.086 -0.8863  0.5836  0.5654
  181SOL     OW  541   2.175   0.443   2.512  0.0831 -0.8900 -0.2406
  181SOL    HW1  542   2.187   0.369   2.579 -1.0296  0.7431  3.1661
  181SOL    HW2  543   2.228   0.423   2.428 -1.4884  1.1981  1.4780
  182SOL     OW  544   2.777   2.356   2.130  0.4191  0.7446 -0.0471
  182SOL    HW1  545   2.777   2.455   2.120 -2.0097 -1.3934 -0.2875
  182SOL    HW2  546   2.801   2.322   2.226 -0.3992  0.8829  1.4592
  183SOL     OW  547   2.096   0.845   1.893 -0.0877  0.1141  0.3960
  183SOL    HW1  548   2.195   0.833   1.892 -0.1602 -0.4292  1.9826
  183SOL    HW2  549   2.054   0.819   1.803  1.5306  1.2831  0.5158
  184SOL     OW  550   0.208   1.837   0.986 -0.7132 -0.1308 -0.0403
  184SOL    HW1  551   0.247   1.879   0.899 -0.5949  1.4109 -1.6132
  184SOL    HW2  552   0.192   1.742   0.948 -2.1824  0.0476 -0.5871
  185SOL     OW  553   3.003   0.134   0.792  0.0457  0.5527 -0.2698
  185SOL    HW1  554   2.931   0.061   0.794 -1.4479  0.1553 -4.4222
  185SOL    HW2  555   2.997   0.201   0.866 -0.9609 -1.3212 -2.1961
  186SOL     OW  556   2.152   2.496   2.440 -0.3663 -0.3423  0.1177
  186SOL    HW1  557   2.057   2.476   2.468  1.6790 -0.5623  0.1651
  186SOL    HW2  558   2.177   2.590   2.472  1.8174  0.1643 -1.0175
  187SOL     OW  559   0.462   1.460   0.552  0.3127  0.0632  0.3513
  187SOL    HW1  560   0.465   1.385   0.623 -1.5625 -0.0893 -0.1474
  187SOL    HW2  561   0.534   1.528   0.567 -2.8225  1.4576  0.2153
  188SOL     OW  562   2.135   1.319   1.054 -1.2016  0.0870  0.0302
  188SOL    HW1  563   2.126   1.226   1.098 -3.1349 -0.2067 -1.0787
  188SOL    HW2  564   2.203   1.315   0.979  2.2560 -2.6534  1.6459
  189SOL     OW  565   3.038   1.326   2.753  0.0029 -0.3317 -0.5481
  189SOL    HW1  566   3.047   1.248   2.822  3.2615  0.5740 -0.9275
  189SOL    HW2  567   2.979   1.287   2.678 -3.1767  0.5008  1.0832
  190SOL     OW  568   2.318   0.339   2.301  0.3380 -0.6943 -0.5150
  190SOL    HW1  569   2.250   0.264   2.283 -1.2153 -0.9217 -1.1566
  190SOL    HW2  570   2.417   0.309   2.287  2.6473 -0.5309  2.7496
  191SOL     OW  571   1.235   0.214   2.131 -0.3678 -0.0665 -0.0191
  191SOL    HW1  572   1.242   0.260   2.039 -0.0735  2.4491  0.8481
  191SOL    HW2  573   1.139   0.190   2.155  2.1647 -1.1624  1.7454
  192SOL     OW  574   1.089   1.559   1.563  0.0806 -0.7807 -0.2847
  192SOL    HW1  575   1.176   1.595   1.604  0.4830 -0.2218  0.7755
  192SOL    HW2  576   1.006   1.588   1.611 -0.2334 -1.0270  0.2402
  193SOL     OW  577   1.321   2.950   0.682  0.1604  0.2266  0.0491
  193SOL    HW1  578   1.262   2.931   0.764 -1.6533 -4.0295  0.2464
  193SOL    HW2  579   1.302   2.881   0.612  0.5571  0.8373 -1.2065
  194SOL     OW  580   0.539   1.861   1.962  0.1351 -0.5237  0.0144
  194SOL    HW1  581   0.526   1.959   1.992  0.0937  0.8128  1.1554
  194SOL    HW2  582   0.527   1.861   1.863  1.4526  4.2569 -0.1564
  195SOL     OW  583   1.596   0.538   0.784 -0.7706  0.2457  0.2427
  195SOL    HW1  584   1.566   0.557   0.688  1.3740  1.1195  0.3009
  195SOL    HW2  585   1.557   0.604   0.853  2.0373  0.7302  0.3568
  196SOL     OW  586   1.062   1.475   1.896 -0.7949 -0.0871  0.1122
  196SOL    HW1  587   1.009   1.497   1.982 -1.8300 -0.2115  1.6711
  196SOL    HW2  588   1.099   1.563   1.856  0.9682 -0.4559 -0.6756
  197SOL     OW  589   0.199   0.435   1.828  0.2333 -0.1096 -0.1940
  197SOL    HW1  590   0.201   0.387   1.918 -3.3744 -2.0866  0.3308
  197SOL    HW2  591   0.286   0.472   1.798 -2.4380 -1.0731 -1.9784
  198SOL     OW  592   0.534   0.941   0.945 -0.0659 -0.3639  0.2336
  198SOL    HW1  593   0.461   0.869   0.947  1.6635  0.1937 -0.8166
  198SOL    HW2  594   0.566   0.950   0.848 -0.7429 -0.7556 -0.9893
  199SOL     OW  595   0.100   2.669   1.383  0.0995  0.1683 -0.5143
  199SOL    HW1  596   0.188   2.645   1.342 -0.8458 -0.5883  2.9032
  199SOL    HW2  597   0.048   2.583   1.406 -0.6685 -1.1756 -3.1234
  200SOL     OW  598   1.530   1.463   2.757 -0.9677  0.2262  0.2999
  200SOL    HW1  599   1.558   1.374   2.804 -4.3545 -1.9368  2.4379
  200SOL    HW2  600   1.429   1.463   2.763  0.0624 -0.1364 -1.1550
  201SOL     OW  601   0.472   2.438   1.687 -0.2360  0.1527 -0.3805
  201SOL    HW1  602   0.550   2.496   1.655 -1.3367  0.2438  2.1173
  201SOL    HW2  603   0.459   2.346   1.644  0.3731 -1.3809  2.3961
  202SOL     OW  604   1.260   2.873   2.915 -0.2584  0.5919 -0.5192
  202SOL    HW1  605   1.193   2.841   2.844 -2.6886  0.8905 -0.7553
  202SOL    HW2  606   1.203   2.904   2.997  0.1370  3.2739  1.0558
  203SOL     OW  607   1.666   0.508   2.407  0.2224 -0.3955  0.0833
  203SOL    HW1  608   1.586   0.463   2.450 -0.6835  0.5630  1.5317
  203SOL    HW2  609   1.743   0.448   2.400  0.8888 -0.3068  1.2837
  204SOL     OW  610   0.657   1.076   1.564 -0.4536  0.0668  0.0079
  204SOL    HW1  611   0.707   1.122   1.635 -3.2548  0.5727 -2.9369
  204SOL    HW2  612   0.658   0.976   1.576  1.2898 -0.5551  0.0121
  205SOL     OW  613   2.231   0.958   2.551  0.4441 -0.1733 -0.5479
  205SOL    HW1  614   2.151   0.918   2.508 -2.0296  3.0278  0.7580
  205SOL    HW2  615   2.291   1.000   2.483 -2.3637 -0.6701 -0.3215
  206SOL     OW  616   0.393   2.045   2.928  0.1880 -0.0749  0.7457
  206SOL    HW1  617   0.300   2.063   2.885 -0.9390 -1.1876  0.3359
  206SOL    HW2  618   0.457   2.117   2.894 -0.5877 -1.4699 -1.1057
  207SOL     OW  619   0.818   2.954   2.085 -0.0106 -0.0859 -0.4561
  207SOL    HW1  620   0.723   2.950   2.051 -0.5058  1.7127 -0.6477
  207SOL    HW2  621   0.825   2.989   2.180 -0.6379  0.2279 -0.7285
  208SOL     OW  622   0.677   2.573   1.577 -0.1294 -0.0842  0.7520
  208SOL    HW1  623   0.622   2.640   1.525 -0.8055 -2.8468  1.2855
  208SOL    HW2  624   0.723   2.513   1.504  1.1668 -0.5768 -0.1010
  209SOL     OW  625   1.113   2.744   0.172  0.4326 -0.1840 -0.1509
  209SOL    HW1  626   1.122   2.768   0.272 -0.3831  1.7639  0.4894
  209SOL    HW2  627   1.102   2.823   0.109  1.2614  1.0086 -1.0997
  210SOL     OW  628   2.811   1.562   1.730  0.5333  0.4876 -0.1134
  210SOL    HW1  629   2.744   1.503   1.672 -0.9911 -1.2235  2.8049
  210SOL    HW2  630   2.907   1.532   1.713  0.8302  1.8048  1.1439
  211SOL     OW  631   1.285   0.342   1.462  0.1134  0.0632  0.1965
  211SOL    HW1  632   1.235   0.430   1.469  0.3867  0.6167 -2.7805
  211SOL    HW2  633   1.386   0.348   1.485  3.7988  0.3250  2.6445
  212SOL     OW  634   1.127   1.979   1.658 -0.5109 -0.9094 -0.4405
  212SOL    HW1  635   1.059   2.018   1.721 -2.7035  0.7173  0.4769
  212SOL    HW2  636   1.204   2.046   1.655 -0.5963 -1.4144  1.9133
  213SOL     OW  637   2.508   0.196   1.706  0.2414 -0.0107  0.2331
  213SOL    HW1  638   2.441   0.208   1.781 -1.2395 -1.0645  0.6058
  213SOL    HW2  639   2.578   0.130   1.745  0.2289  0.4639  0.6506
  214SOL     OW  640   0.796   1.952   1.651  0.1532 -0.0722  0.1511
  214SOL    HW1  641   0.782   2.006   1.737 -0.1349  1.8547  0.8374
  214SOL    HW2  642   0.839   2.008   1.576 -2.5296 -0.4725 -0.5342
  215SOL     OW  643   2.771   2.076   1.164  0.3198  0.0750  0.2807
  215SOL    HW1  644   2.706   2.154   1.183 -0.8096  0.2269 -0.3431
  215SOL    HW2  645   2.760   2.008   1.237  1.9628  2.6308 -1.1229
  216SOL     OW  646   0.044   0.980   1.580 -0.6031  0.4088  0.3992
  216SOL    HW1  647   0.126   1.039   1.571  0.2642  0.5487  0.6029
  216SOL    HW2  648   0.073   0.884   1.603  1.0778  0.3346  2.8100
  217SOL     OW  649   2.686   0.336   1.185 -0.0839  0.4939  0.4739
  217SOL    HW1  650   2.756   0.262   1.173 -0.3380 -0.4612  1.0748
  217SOL    HW2  651   2.668   0.355   1.287 -1.2870 -0.0547 -1.0459
  218SOL     OW  652   1.345   2.190   1.147 -0.0502  0.9139  0.2355
  218SOL    HW1  653   1.439   2.157   1.165  0.4862 -1.0532 -0.1524
  218SOL    HW2  654   1.336   2.191   1.044  1.3240  0.6323 -0.9944
  219SOL     OW  655   1.566   2.300   0.184 -0.0999  0.5160  0.0668
  219SOL    HW1  656   1.663   2.310   0.157 -0.2792 -2.3865 -0.6368
  219SOL    HW2  657   1.534   2.376   0.239 -1.1372  1.3040 -1.1095
  220SOL     OW  658   1.815   2.333   0.088  0.2385 -0.5733  0.1610
  220SOL    HW1  659   1.841   2.427   0.115  0.3400  0.1914 -0.3798
  220SOL    HW2  660   1.896   2.277   0.072 -2.0453  0.8223 -1.3118
  221SOL     OW  661   3.027   2.126   1.051 -0.8192  0.1949 -0.0319
  221SOL    HW1  662   0.014   2.074   1.085  1.7782 -1.4449  0.1635
  221SOL    HW2  663   2.945   2.078   1.095  0.6931 -0.2580 -1.2821
  222SOL     OW  664   1.119   2.268   0.819 -1.1838 -0.0124  0.3134
  222SOL    HW1  665   1.209   2.223   0.853  1.1590 -0.5855 -2.0529
  222SOL    HW2  666   1.036   2.253   0.874  2.5923 -0.3925 -0.9080
  223SOL     OW  667   0.886   2.763   2.305  0.6625  0.0362  0.3684
  223SOL    HW1  668   0.954   2.694   2.319 -3.1471  1.0383 -1.5565
  223SOL    HW2  669   0.860   2.748   2.207  1.9826 -0.9001 -3.2254
  224SOL     OW  670   2.757   1.344   1.142  0.4210 -0.1135  0.3929
  224SOL    HW1  671   2.686   1.415   1.125  2.3964  2.0767  1.1073
  224SOL    HW2  672   2.824   1.399   1.191 -1.8625  0.1194 -2.3844
  225SOL     OW  673   2.366   1.745   0.952  0.2472  0.2681  0.0162
  225SOL    HW1  674   2.462   1.777   0.976 -0.5999 -1.5622 -0.3873
  225SOL    HW2  675   2.366   1.698   0.865  0.5929  3.3061  2.5054
  226SOL     OW  676   1.322   2.627   0.551  0.0080  0.4746  0.2127
  226SOL    HW1  677   1.422   2.648   0.550 -2.7268  1.5209 -2.5709
  226SOL    HW2  678   1.289   2.576   0.631 -0.4354  2.3714 -1.9641
  227SOL     OW  679   1.279   1.064   1.358  0.3207  0.1198 -0.1544
  227SOL    HW1  680   1.221   1.089   1.280  0.2385  0.6937  1.8554
  227SOL    HW2  681   1.369   1.110   1.349 -1.3129 -0.6567 -0.6012
  228SOL     OW  682   1.276   0.628   2.131 -0.3718  0.2884 -0.3169
  228SOL    HW1  683   1.309   0.696   2.063  0.6299 -1.1362 -0.5146
  228SOL    HW2  684   1.339   0.548   2.133  1.3631  4.0366  0.8878
  229SOL     OW  685   2.662   0.998   2.724  0.0351 -0.4433  0.2953
  229SOL    HW1  686   2.708   0.930   2.777  0.2342  2.6437  0.6152
  229SOL    HW2  687   2.565   1.012   2.757 -1.1027  0.0551  1.1391
  230SOL     OW  688   1.180   1.200   0.736  0.5222  0.1327 -0.2266
  230SOL    HW1  689   1.257   1.145   0.773  1.6060 -3.0514  3.4712
  230SOL    HW2  690   1.170   1.280   0.795 -0.5644 -1.3118 -0.0211
  231SOL     OW  691   2.478   2.915   2.208  0.8957 -0.4287 -0.3522
  231SOL    HW1  692   2.489   2.817   2.215 -3.2473  4.3143  1.1396
  231SOL    HW2  693   2.381   2.934   2.171 -0.8919 -0.5548 -1.3011
  232SOL     OW  694   0.506   2.098   0.248 -0.3085 -0.1490  0.3280
  232SOL    HW1  695   0.559   2.016   0.219 -0.6765  1.7827  0.4770
  232SOL    HW2  696   0.551   2.157   0.316 -0.1910  2.1242  0.1256
  233SOL     OW  697   1.521   2.303   2.413 -0.2522 -0.2775 -0.1939
  233SOL    HW1  698   1.487   2.286   2.505  1.8993 -2.5803  0.8134
  233SOL    HW2  699   1.621   2.302   2.417 -0.6035  0.8337 -1.3171
  234SOL     OW  700   1.064   1.242   1.749  0.0823 -0.3546 -0.0480
  234SOL    HW1  701   1.070   1.335   1.787  2.8338 -1.0340 -0.0250
  234SOL    HW2  702   0.966   1.224   1.723  0.0768 -1.6610 -2.0318
  235SOL     OW  703   0.561   1.817   1.648 -0.0533 -0.1072 -0.3882
  235SOL    HW1  704   0.652   1.858   1.632  0.0547 -2.8990  1.6395
  235SOL    HW2  705   0.491   1.887   1.668  0.4429 -1.0591 -4.7622
  236SOL     OW  706   1.848   2.897   2.652 -0.1843  0.6470  0.2168
  236SOL    HW1  707   1.759   2.851   2.644 -1.0774 -1.6446 -0.6380
  236SOL    HW2  708   1.836   2.995   2.669  1.5342  0.4450  1.5304
  237SOL     OW  709   1.476   0.053   0.795 -0.3971 -0.0602 -0.2513
  237SOL    HW1  710   1.422   3.065   0.775 -0.1236  2.8206  0.8061
  237SOL    HW2  711   1.539   0.036   0.878  0.5703  0.9916  0.1278
  238SOL     OW  712   1.230   0.865   2.723  0.6084 -0.2933  0.2044
  238SOL    HW1  713   1.250   0.839   2.629  0.2301  1.2269  2.1791
  238SOL    HW2  714   1.302   0.844   2.796  0.8603 -3.4655  2.7053
  239SOL     OW  715   0.756   0.140   1.995 -0.6228 -0.1368  0.0333
  239SOL    HW1  716   0.661   0.132   2.031 -1.0671 -2.0514 -0.0842
  239SOL    HW2  717   0.783   0.234   1.970 -0.5632 -1.0257  0.0584
  240SOL     OW  718   2.089   2.690   0.709  0.4710  0.1207  0.1867
  240SOL    HW1  719   2.183   2.653   0.696  0.1050  0.4613  0.0968
  240SOL    HW2  720   2.030   2.618   0.742  0.5014 -2.4090  0.9774
  241SOL     OW  721   1.286   1.446   1.289  0.7302  0.1046 -0.7327
  241SOL    HW1  722   1.182   1.446   1.307 -3.0078  0.7038 -0.7815
  241SOL    HW2  723   1.316   1.541   1.272 -1.1003  0.8634  2.2304
  242SOL     OW  724   0.314   0.786   0.905  0.2211  0.0601  0.5399
  242SOL    HW1  725   0.218   0.827   0.904  0.5591  1.8774  0.8892
  242SOL    HW2  726   0.319   0.716   0.833 -1.2471  0.3223 -0.0160
  243SOL     OW  727   0.427   0.650   1.504  0.0314 -0.1181 -0.0044
  243SOL    HW1  728   0.372   0.722   1.456  0.0075  0.8937  0.2730
  243SOL    HW2  729   0.481   0.592   1.438 -1.0174 -0.5334  0.8132
  244SOL     OW  730   1.200   0.617   2.955  0.1689 -0.2889 -0.4456
  244SOL    HW1  731   1.100   0.607   2.989 -0.3172 -1.0843  2.5576
  244SOL    HW2  732   1.264   0.607   3.031 -2.0125 -1.1220 -1.3218
  245SOL     OW  733   2.138   0.277   3.069 -0.0259 -0.1159  0.2085
  245SOL    HW1  734   2.097   0.234   0.054  0.0945  0.7309 -0.3296
  245SOL    HW2  735   2.184   0.363   3.084 -5.0611 -1.9878 -0.9140
  246SOL     OW  736   0.410   0.976   1.834 -0.2177  0.0762 -0.1563
  246SOL    HW1  737   0.377   0.880   1.839 -1.2934  0.1665  0.4466
  246SOL    HW2  738   0.488   0.978   1.767  0.0883 -2.3478  1.4287
  247SOL     OW  739   0.615   3.079   2.257 -0.1995 -0.8448 -0.0330
  247SOL    HW1  740   0.563   0.030   2.182 -3.7258  0.6196  1.0362
  247SOL    HW2  741   0.647   0.046   2.327  0.6737 -1.4630 -3.0924
  248SOL     OW  742   0.341   1.510   2.252 -0.2506 -0.2569 -0.4197
  248SOL    HW1  743   0.368   1.460   2.169  1.2808  4.8784  0.1120
  248SOL    HW2  744   0.400   1.590   2.263  0.1500 -1.9170 -1.5603
  249SOL     OW  745   0.273   0.098   2.822  0.0658 -0.3632  0.2023
  249SOL    HW1  746   0.331   0.184   2.837 -1.8877  1.3076  0.2374
  249SOL    HW2  747   0.325   0.025   2.775  0.1900 -1.7486  0.7014
  250SOL     OW  748   0.080   2.922   2.804 -0.3636 -0.2490  0.8734
  250SOL    HW1  749   0.069   3.016   2.836 -1.2816 -0.3957 -1.5831
  250SOL    HW2  750   0.043   2.902   2.713  2.8488 -0.2385  0.7339
  251SOL     OW  751   0.149   1.498   0.989  0.4528 -0.3045 -0.4219
  251SOL    HW1  752   0.100   1.448   0.913  1.1207 -4.1454  2.2755
  251SOL    HW2  753   0.251   1.508   0.958  2.8612 -1.0997 -2.4170
  252SOL     OW  754   1.414   2.853   2.092  0.5447 -0.0390  0.3227
  252SOL    HW1  755   1.419   2.947   2.055  1.0466 -0.6047  0.8792
  252SOL    HW2  756   1.493   2.831   2.155  0.5230 -4.2165  0.4312
  253SOL     OW  757   2.248   1.978   2.699  0.3453 -0.7469 -0.2044
  253SOL    HW1  758   2.235   2.005   2.604  0.4804 -0.2375  0.8501
  253SOL    HW2  759   2.199   1.897   2.725 -1.3728  1.8301 -3.1883
  254SOL     OW  760   0.363   1.402   1.992  0.1546 -0.0026  0.0280
  254SOL    HW1  761   0.345   1.328   1.920 -3.2822 -3.3522 -2.6476
  254SOL    HW2  762   0.461   1.420   2.002 -1.0634  1.4788 -0.1868
  255SOL     OW  763   1.140   0.134   1.523  0.2721  0.2143  0.1104
  255SOL    HW1  764   1.179   0.050   1.563 -1.4862 -1.1103 -1.7193
  255SOL    HW2  765   1.203   0.214   1.508  0.2587 -2.6604 -0.4161
  256SOL     OW  766   2.777   2.365   1.341 -0.0275 -0.1494 -0.1084
  256SOL    HW1  767   2.745   2.437   1.409 -4.1530 -0.2708  2.5094
  256SOL    HW2  768   2.699   2.335   1.276 -0.0570  1.4764 -2.5380
  257SOL     OW  769   0.469   2.594   0.147 -0.0846 -0.7110  0.0805
  257SOL    HW1  770   0.471   2.532   0.227  1.9323 -0.8000 -0.6008
  257SOL    HW2  771   0.386   2.654   0.150  2.0627  1.7625 -1.9024
  258SOL     OW  772   0.861   1.924   2.204 -0.1051 -0.1535  0.0676
  258SOL    HW1  773   0.941   1.909   2.138  0.1403 -0.2542 -1.7664
  258SOL    HW2  774   0.831   2.020   2.200 -1.0449 -2.8018  1.6506
  259SOL     OW  775   0.990   1.715   2.678  0.2094 -0.0417 -0.6153
  259SOL    HW1  776   0.981   1.813   2.648 -0.8548 -0.1903 -1.8157
  259SOL    HW2  777   1.066   1.714   2.755  2.8939  0.0101 -0.3773
  260SOL     OW  778   2.420   0.581   2.216 -0.2001 -0.4424 -0.1939
  260SOL    HW1  779   2.350   0.658   2.211  0.2458  2.8105  1.2288
  260SOL    HW2  780   2.383   0.488   2.225 -1.6467  0.1310 -0.6008
  261SOL     OW  781   1.190   0.916   0.900  0.2155  0.3107  0.2064
  261SOL    HW1  782   1.108   0.862   0.919  0.7530 -0.3700 -0.8114
  261SOL    HW2  783   1.204   0.981   0.975 -1.7878  1.7462  0.9721
  262SOL     OW  784   1.868   2.451   2.497  0.4274 -0.3756 -0.3460
  262SOL    HW1  785   1.856   2.347   2.479 -0.7494 -0.5234 -0.9053
  262SOL    HW2  786   1.832   2.473   2.590  1.7831 -0.7865  1.2194
  263SOL     OW  787   0.385   2.169   0.534  0.6236  0.3219 -0.4006
  263SOL    HW1  788   0.459   2.103   0.530 -2.3748  2.2872  0.6765
  263SOL    HW2  789   0.296   2.128   0.515  0.3184 -2.8954  0.1323
  264SOL     OW  790   0.251   2.335   0.727 -0.1549 -0.0279 -0.4706
  264SOL    HW1  791   0.212   2.279   0.802  1.1843  0.5308 -1.0859
  264SOL    HW2  792   0.306   2.277   0.663  0.9317  1.8748 -0.6305
  265SOL     OW  793   0.474   1.348   0.291 -0.5027  0.5128  0.2270
  265SOL    HW1  794   0.465   1.390   0.383  0.9884  2.0569 -1.5609
  265SOL    HW2  795   0.570   1.317   0.283 -0.6037  1.2144  1.1597
  266SOL     OW  796   0.770   1.746   2.375 -0.8614  0.7810  0.2138
  266SOL    HW1  797   0.755   1.792   2.466 -0.8292 -0.4916 -0.9858
  266SOL    HW2  798   0.812   1.812   2.308 -1.5591 -0.8941  0.2057
  267SOL     OW  799   1.478   0.466   2.586  0.2977  0.3297 -0.5039
  267SOL    HW1  800   1.383   0.490   2.614 -2.3580 -0.1810 -1.4135
  267SOL    HW2  801   1.542   0.498   2.658  2.7062  1.7463 -2.1136
  268SOL     OW  802   0.434   0.996   2.961  0.1263 -0.0799  0.1723
  268SOL    HW1  803   0.340   0.962   2.949  1.1210  1.3181  0.1872
  268SOL    HW2  804   0.454   1.015   3.061 -0.3294  1.0693  0.9929
  269SOL     OW  805   2.533   2.298   2.322  0.2006  0.6728 -0.0472
  269SOL    HW1  806   2.533   2.205   2.364  1.2919  0.4882 -0.2651
  269SOL    HW2  807   2.519   2.296   2.223  1.2153  1.9737  1.0920
  270SOL     OW  808   1.670   1.652   2.948  0.1808  0.4008  0.0354
  270SOL    HW1  809   1.653   1.652   2.842  0.7523 -0.2517 -2.8244
  270SOL    HW2  810   1.724   1.574   2.979 -1.6804  0.1207  1.0523
  271SOL     OW  811   0.359   0.244   0.080  0.1898 -0.4662  0.0826
  271SOL    HW1  812   0.430   0.178   0.104 -1.5802  1.3844 -0.1862
  271SOL    HW2  813   0.272   0.230   0.121  0.2138  2.2129  1.1864
  272SOL     OW  814   2.679   0.541   0.432 -0.0341  0.9293 -0.1104
  272SOL    HW1  815   2.760   0.540   0.498 -3.0570  0.4601 -0.6398
  272SOL    HW2  816   2.601   0.595   0.470  0.1557  0.7804 -0.7813
  273SOL     OW  817   0.561   2.676   1.954  0.5114 -0.5528  0.6187
  273SOL    HW1  818   0.548   2.770   1.912  0.1950 -0.6700 -0.2619
  273SOL    HW2  819   0.467   2.631   1.964 -1.3681  1.1134 -1.0916
  274SOL     OW  820   0.075   0.728   1.661 -0.2273  0.0232 -0.7447
  274SOL    HW1  821   3.089   0.740   1.725 -1.4426  0.5595  4.3945
  274SOL    HW2  822   0.092   0.631   1.645  1.9903  1.6023  1.4184
  275SOL     OW  823   0.706   1.606   0.608 -0.6875  0.1708  0.0581
  275SOL    HW1  824   0.761   1.542   0.551 -0.0082  2.9804  1.5990
  275SOL    HW2  825   0.768   1.648   0.676 -1.0106 -0.2401 -1.1907
  276SOL     OW  826   0.573   0.828   2.122  0.2977  0.2128 -0.0064
  276SOL    HW1  827   0.534   0.919   2.103  1.1969 -1.0644 -0.2573
  276SOL    HW2  828   0.575   0.817   2.225 -1.9466 -1.9756  0.6152
  277SOL     OW  829   1.271   2.462   1.908 -0.2227  0.6208  0.3217
  277SOL    HW1  830   1.186   2.447   1.856  0.5907 -0.0045 -1.1719
  277SOL    HW2  831   1.307   2.383   1.959 -0.9512 -0.4199  0.5750
  278SOL     OW  832   1.757   2.724   1.908  0.7884 -0.9225 -0.2236
  278SOL    HW1  833   1.675   2.670   1.912 -0.0507 -0.1548 -0.6390
  278SOL    HW2  834   1.736   2.821   1.924 -0.5881  0.8800 -0.3518
  279SOL     OW  835   1.253   1.434   0.325  0.4197 -0.4860  0.1687
  279SOL    HW1  836   1.259   1.522   0.275  0.0404 -1.8858 -0.3760
  279SOL    HW2  837   1.340   1.377   0.315  0.6196 -0.3916 -0.6771
  280SOL     OW  838   1.024   1.358   0.182  0.6023  0.3901 -0.3543
  280SOL    HW1  839   0.997   1.408   0.096  0.0922 -0.5208  0.4438
  280SOL    HW2  840   1.110   1.390   0.227  0.4540  0.4203  0.0438
  281SOL     OW  841   0.250   0.272   1.314  0.6083  0.0132  0.3476
  281SOL    HW1  842   0.179   0.336   1.361 -0.5866 -0.2640  1.9378
  281SOL    HW2  843   0.312   0.324   1.254 -0.2937  1.6097  0.7154
  282SOL     OW  844   0.110   2.525   0.608  0.1965 -0.0084  0.2329
  282SOL    HW1  845   0.080   2.500   0.516  2.2635  0.1075  0.7746
  282SOL    HW2  846   0.174   2.454   0.640  2.6736 -0.9789 -2.1788
  283SOL     OW  847   1.419   2.086   2.249  0.1936  0.5021 -0.1099
  283SOL    HW1  848   1.461   2.167   2.282 -0.1891 -1.7905  0.1599
  283SOL    HW2  849   1.399   2.023   2.330 -2.4113 -2.6545  0.6148
  284SOL     OW  850   2.497   2.946   0.971 -0.4758  0.5366 -0.0425
  284SOL    HW1  851   2.420   2.995   1.024  0.6704 -1.3188  0.0513
  284SOL    HW2  852   2.449   2.864   0.931 -3.1814 -1.9645 -0.0201
  285SOL     OW  853   0.509   2.333   2.566  0.1679  0.3568 -0.6483
  285SOL    HW1  854   0.456   2.403   2.514 -0.6207 -0.5555 -1.4584
  285SOL    HW2  855   0.592   2.303   2.512  1.4882  0.4640 -0.6078
  286SOL     OW  856   3.012   2.914   0.722  0.6527  0.0425 -0.1631
  286SOL    HW1  857   2.916   2.951   0.702  1.1155 -0.3768 -0.0273
  286SOL    HW2  858   3.030   2.911   0.824  0.9095  1.1225 -0.6375
  287SOL     OW  859   0.763   1.206   0.715 -0.5395 -0.1093 -0.5454
  287SOL    HW1  860   0.825   1.169   0.642  0.3844 -0.4405 -0.1295
  287SOL    HW2  861   0.808   1.284   0.766  2.3010  0.7221 -0.4908
  288SOL     OW  862   2.335   2.232   2.790  0.0547 -0.4340  0.0602
  288SOL    HW1  863   2.318   2.136   2.767  1.4053  0.4500  2.0475
  288SOL    HW2  864   2.367   2.278   2.704 -0.2457 -1.6379 -1.1149
  289SOL     OW  865   0.108   1.932   2.935  0.3951  0.0290 -0.0826
  289SOL    HW1  866   0.067   1.848   2.983 -2.3166  1.9946  2.3794
  289SOL    HW2  867   0.121   1.907   2.836  2.5355  0.8914 -1.4950
  290SOL     OW  868   1.359   1.737   1.296  0.1016  0.1218 -0.0011
  290SOL    HW1  869   1.449   1.701   1.259  2.4580 -2.0864  1.6809
  290SOL    HW2  870   1.336   1.832   1.259 -2.2571  0.1216  1.3599
  291SOL     OW  871   1.361   1.279   3.058 -0.6937  0.0069 -0.3819
  291SOL    HW1  872   1.375   1.382   3.037  0.6364  0.7167 -1.6732
  291SOL    HW2  873   1.263   1.261   3.035 -0.7145 -1.4101  1.2496
  292SOL     OW  874   0.876   1.664   0.297 -0.1974 -0.2096  0.0579
  292SOL    HW1  875   0.892   1.576   0.347  1.1979 -4.2039  0.2898
  292SOL    HW2  876   0.772   1.680   0.285 -3.0227  1.1566 -0.1648
  293SOL     OW  877   1.464   2.873   0.976 -0.0046  0.3481  0.1721
  293SOL    HW1  878   1.381   2.888   1.036 -0.2419 -0.0645 -0.4056
  293SOL    HW2  879   1.540   2.934   1.012  0.2311  2.0388  1.4547
  294SOL     OW  880   2.033   1.277   2.891 -0.1539 -0.5632 -0.0305
  294SOL    HW1  881   2.005   1.203   2.827  0.8643  0.3242  1.9397
  294SOL    HW2  882   1.957   1.344   2.914 -3.2417 -0.2621  1.9006
  295SOL     OW  883   1.880   1.934   0.014 -0.0934  0.2490 -0.2209
  295SOL    HW1  884   1.781   1.940   0.004 -0.9034 -1.3639 -1.3783
  295SOL    HW2  885   1.930   2.025   0.012  0.5104 -0.1713  0.6449
  296SOL     OW  886   1.618   0.635   1.968  0.0746  0.0389 -0.4857
  296SOL    HW1  887   1.676   0.615   1.893 -1.3583 -1.0377  0.8858
  296SOL    HW2  888   1.673   0.630   2.060 -0.0746  2.4498 -0.2062
  297SOL     OW  889   3.076   0.702   2.010 -0.1594  0.2033 -0.4735
  297SOL    HW1  890   2.979   0.709   1.994 -2.9111  0.6223  0.3144
  297SOL    HW2  891   0.024   0.794   2.002 -0.4677  2.8045  1.9875
  298SOL     OW  892   0.897   1.703   1.716  1.0854  0.0206  0.4905
  298SOL    HW1  893   0.990   1.708   1.756 -4.3354  1.0590  0.5544
  298SOL    HW2  894   0.865   1.794   1.682 -2.3124 -1.6512  0.1391
  299SOL     OW  895   1.187   0.084   2.591 -0.2234 -0.2068 -0.1291
  299SOL    HW1  896   1.276   0.139   2.585  0.5207  0.5968  1.7404
  299SOL    HW2  897   1.157   0.046   2.500 -3.0744  0.8167  0.0418
  300SOL     OW  898   2.911   1.078   0.044 -0.4596  0.7935  0.1123
  300SOL    HW1  899   2.829   1.116   0.092 -0.3139 -0.7253 -0.4594
  300SOL    HW2  900   2.992   1.064   0.110  0.0062  0.7930  0.6974
  301SOL     OW  901   1.792   0.746   2.539 -0.5699 -0.2103  0.2994
  301SOL    HW1  902   1.764   0.647   2.528  1.0061  1.1845 -0.2935
  301SOL    HW2  903   1.711   0.809   2.531  1.4367  2.9033 -0.8120
  302SOL     OW  904   2.421   1.739   2.604 -0.2846 -0.3726  0.1481
  302SOL    HW1  905   2.386   1.830   2.609 -0.7055  0.5822 -0.4683
  302SOL    HW2  906   2.503   1.730   2.661 -1.2684  2.8236 -1.1101
  303SOL     OW  907   0.554   2.271   2.836 -0.2930 -0.3498  0.3377
  303SOL    HW1  908   0.528   2.298   2.740  0.3569 -2.9084 -1.9550
  303SOL    HW2  909   0.491   2.315   2.903 -0.3647 -0.1961 -0.5073
  304SOL     OW  910   0.151   1.466   1.500  0.0643  0.0560 -0.1201
  304SOL    HW1  911   0.103   1.462   1.412 -0.7499 -0.5880 -0.3587
  304SOL    HW2  912   0.252   1.455   1.485 -0.5946  0.7173  0.3002
  305SOL     OW  913   2.497   0.518   1.891 -0.1373  0.0844  0.1192
  305SOL    HW1  914   2.405   0.477   1.891  0.4112  0.5400 -0.0670
  305SOL    HW2  915   2.564   0.476   1.957 -0.5495  0.7606 -0.6376
  306SOL     OW  916   2.216   1.422   1.646  0.1186  0.0186 -0.0768
  306SOL    HW1  917   2.206   1.522   1.616 -0.7665  3.5871 -1.9135
  306SOL    HW2  918   2.248   1.365   1.571 -2.1219  2.5349  0.4177
  307SOL     OW  919   2.721   3.085   0.958  0.1890  0.0469 -0.1142
  307SOL    HW1  920   2.637   3.025   0.973  2.2195 -1.0916  2.4752
  307SOL    HW2  921   2.771   0.013   1.043  0.1617 -0.5060 -0.5563
  308SOL     OW  922   0.129   1.750   1.633 -0.7802 -0.1102 -0.4445
  308SOL    HW1  923   0.096   1.761   1.728 -2.2587 -0.6454  0.6761
  308SOL    HW2  924   0.138   1.650   1.599  0.4949 -3.3433 -0.5313
  309SOL     OW  925   2.398   2.345   1.797 -0.1180  0.2679 -0.1663
  309SOL    HW1  926   2.384   2.444   1.775 -0.1147  0.4998 -1.0632
  309SOL    HW2  927   2.312   2.300   1.825 -0.4351 -0.0552  0.5953
  310SOL     OW  928   2.266   1.320   2.773  0.9906  0.0293 -0.4709
  310SOL    HW1  929   2.271   1.401   2.719  0.5121 -1.8025  1.1739
  310SOL    HW2  930   2.169   1.303   2.796  1.8330  1.0805  1.9332
  311SOL     OW  931   1.592   1.228   2.890 -0.6757  0.6376 -0.6935
  311SOL    HW1  932   1.523   1.247   2.960  1.8370  0.2879  0.2237
  311SOL    HW2  933   1.589   1.128   2.851  2.4210 -3.1749  0.3049
  312SOL     OW  934   1.110   2.069   2.347  0.1802  0.2142 -0.7213
  312SOL    HW1  935   1.096   1.967   2.339  1.6679  2.7018  0.7824
  312SOL    HW2  936   1.153   2.084   2.435 -1.2276  2.9012 -3.1670
  313SOL     OW  937   0.206   0.122   0.776 -0.3727  0.3072 -0.7967
  313SOL    HW1  938   0.117   0.125   0.734  0.9285  1.7928  1.6702
  313SOL    HW2  939   0.196   0.121   0.878 -1.5190  0.7384 -0.2170
  314SOL     OW  940   0.583   2.058   1.162  0.2587  0.2618 -0.0598
  314SOL    HW1  941   0.573   2.120   1.242 -1.0749 -2.2576 -1.4663
  314SOL    HW2  942   0.552   1.964   1.180  0.6588  0.4732  0.2709
  315SOL     OW  943   0.529   2.118   2.074  0.2923  0.0911 -0.3371
  315SOL    HW1  944   0.428   2.109   2.094  0.3221 -0.2074 -0.6566
  315SOL    HW2  945   0.553   2.186   2.004  1.0396  0.2488  0.8845
  316SOL     OW  946   0.313   2.569   0.874 -0.4545  0.2205 -0.1651
  316SOL    HW1  947   0.229   2.626   0.880 -0.9585  0.9478  1.6108
  316SOL    HW2  948   0.289   2.481   0.827 -1.8289 -0.5460  3.9944
  317SOL     OW  949   2.494   0.040   1.342  0.7820  0.1329  0.0544
  317SOL    HW1  950   2.439   0.096   1.407 -1.7028 -2.6368 -1.9733
  317SOL    HW2  951   2.457   0.043   1.248  2.7063 -0.6750  0.2200
  318SOL     OW  952   2.236   2.368   0.210  0.5878 -0.1074 -0.4682
  318SOL    HW1  953   2.218   2.268   0.191  0.7316 -3.0421  0.3465
  318SOL    HW2  954   2.338   2.390   0.198 -0.3605 -0.5860  0.1320
  319SOL     OW  955   1.271   1.437   2.772 -0.1000 -0.2035 -0.1676
  319SOL    HW1  956   1.208   1.488   2.713  0.0731  1.6463  2.9900
  319SOL    HW2  957   1.246   1.336   2.778  0.4077 -1.4995  1.0543
  320SOL     OW  958   0.365   2.478   2.351 -0.0490 -1.0613 -0.2520
  320SOL    HW1  959   0.315   2.392   2.340  1.8755  1.1814 -0.3538
  320SOL    HW2  960   0.357   2.537   2.269  2.3103 -0.9076  0.6843
  321SOL     OW  961   0.858   2.316   0.022 -0.1294  0.1824 -0.1788
  321SOL    HW1  962   0.931   2.376   0.059  1.5898 -0.2018 -2.0693
  321SOL    HW2  963   0.822   2.343   3.023  2.3057 -1.0102 -1.5462
  322SOL     OW  964   2.562   0.232   2.249  0.0774  0.3425 -0.6891
  322SOL    HW1  965   2.578   0.142   2.199  0.0625 -1.6480 -1.3751
  322SOL    HW2  966   2.615   0.234   2.338  1.2056 -1.3705  0.9575
  323SOL     OW  967   2.860   1.182   0.936  0.0720  0.7645  0.5557
  323SOL    HW1  968   2.836   1.224   1.023 -1.0867 -0.7282 -1.6678
  323SOL    HW2  969   2.793   1.108   0.918  1.2070  1.6517 -1.0281
  324SOL     OW  970   0.297   0.723   1.889 -0.2774  0.4657  0.2639
  324SOL    HW1  971   0.367   0.654   1.854  1.4583 -1.1507  0.6577
  324SOL    HW2  972   0.199   0.700   1.860 -2.2875 -3.0650 -3.8767
  325SOL     OW  973   0.502   0.128   2.064  0.2068 -0.8306  0.3074
  325SOL    HW1  974   0.486   0.145   1.963 -1.0349  2.2157 -2.0708
  325SOL    HW2  975   0.424   0.160   2.123 -0.8119  0.4135 -0.7113
  326SOL     OW  976   2.100   2.539   0.066 -0.2542  0.3615  0.3933
  326SOL    HW1  977   2.025   2.567   0.126  2.5454  2.1573 -1.7522
  326SOL    HW2  978   2.165   2.472   0.110  0.6361 -1.2758  1.6881
  327SOL     OW  979   2.263   1.450   0.640  0.1639  0.3275  0.3013
  327SOL    HW1  980   2.260   1.554   0.654  0.8237 -0.2146  0.2728
  327SOL    HW2  981   2.310   1.427   0.552 -1.1833  1.5242 -0.0053
  328SOL     OW  982   3.034   1.957   2.591  0.1408  0.1402 -0.2638
  328SOL    HW1  983   2.999   1.906   2.674 -1.5167 -0.4236  1.0661
  328SOL    HW2  984   0.037   1.966   2.607  3.3095 -3.3675 -0.9427
  329SOL     OW  985   0.428   2.193   1.589  0.2668 -0.3457 -0.0165
  329SOL    HW1  986   0.348   2.204   1.523 -0.2512  0.0057 -2.4973
  329SOL    HW2  987   0.399   2.128   1.665 -0.1629 -1.5600 -0.2179
  330SOL     OW  988   2.482   1.242   2.631  0.2329 -0.0361  0.1765
  330SOL    HW1  989   2.415   1.233   2.706 -0.6182 -1.2468 -0.5431
  330SOL    HW2  990   2.454   1.177   2.556 -0.0667 -1.3459 -0.2424
  331SOL     OW  991   2.365   2.718   0.880  0.2149  0.0442  0.4183
  331SOL    HW1  992   2.272   2.701   0.916 -0.5209  2.0040 -1.8993
  331SOL    HW2  993   2.370   2.670   0.787 -2.0053 -0.8460  2.0113
  332SOL     OW  994   0.471   2.929   0.789 -0.6152 -0.0979 -0.4415
  332SOL    HW1  995   0.373   2.909   0.809 -0.2140  0.5681 -1.1940
  332SOL    HW2  996   0.536   2.848   0.803  1.1474 -0.4905  0.3442
  333SOL     OW  997   2.371   2.379   2.542 -0.4697 -0.3418  0.3614
  333SOL    HW1  998   2.289   2.431   2.524 -1.2907 -1.9795  0.8439
  333SOL    HW2  999   2.431   2.369   2.458 -2.5640 -0.8752 -1.1622
  334SOL     OW 1000   0.487   1.270   0.735 -0.4706 -0.0152 -0.6262
  334SOL    HW1 1001   0.407   1.208   0.729  0.2524  0.7433  1.0735
  334SOL    HW2 1002   0.575   1.217   0.758 -0.6992  0.9892  2.6670
  335SOL     OW 1003   2.847   1.991   2.400 -0.0457  0.9146 -0.2239
  335SOL    HW1 1004   2.913   1.967   2.475  1.8171  0.9152  0.6749
  335SOL    HW2 1005   2.755   1.964   2.431 -0.5450 -1.1387 -0.1813
  336SOL     OW 1006   2.217   2.765   2.072  0.1405 -0.1073 -0.4874
  336SOL    HW1 1007   2.250   2.676   2.109 -1.8524  0.2265 -0.4613
  336SOL    HW2 1008   2.216   2.751   1.971 -1.4699  1.4552 -0.6076
  337SOL     OW 1009   0.909   0.969   1.001  0.4408 -0.3181 -0.6455
  337SOL    HW1 1010   0.909   0.869   0.976 -2.8424  1.0884  2.2259
  337SOL    HW2 1011   0.849   1.020   0.937 -0.3993 -0.1566 -0.1671
  338SOL     OW 1012   1.228   1.952   1.172 -0.0518 -0.0186  0.1880
  338SOL    HW1 1013   1.208   1.939   1.074  1.2529  1.1112  0.9218
  338SOL    HW2 1014   1.260   2.048   1.188  1.4184  1.0188  1.2118
  339SOL     OW 1015   0.128   1.841   1.373 -0.0214 -0.0668  0.1842
  339SOL    HW1 1016   0.126   1.792   1.466 -2.2342  0.4989  1.3822
  339SOL    HW2 1017   0.211   1.819   1.316 -0.3852  0.7826  0.1138
  340SOL     OW 1018   1.126   2.715   1.596 -0.7067 -0.3468 -0.5092
  340SOL    HW1 1019   1.157   2.813   1.595  3.4366 -1.1322  0.3851
  340SOL    HW2 1020   1.032   2.706   1.634 -0.4045  1.9268  0.7178
  341SOL     OW 1021   1.613   1.606   1.071  0.0981  0.4140  0.0759
  341SOL    HW1 1022   1.580   1.670   0.996  0.5919  2.1085 -2.2673
  341SOL    HW2 1023   1.703   1.626   1.104 -2.7108 -2.9299 -2.1534
  342SOL     OW 1024   2.598   1.559   1.112 -0.6463 -0.9116 -0.2222
  342SOL    HW1 1025   2.633   1.655   1.109  1.0480 -0.1699  2.5038
  342SOL    HW2 1026   2.573   1.526   1.013 -1.7301  0.8937 -1.8268
  343SOL     OW 1027   2.429   0.595   1.232  0.7491 -0.1966  0.3551
  343SOL    HW1 1028   2.531   0.608   1.244 -1.4863 -2.2228  1.3640
  343SOL    HW2 1029   2.394   0.542   1.314 -0.4702  0.6727  1.0984
  344SOL     OW 1030   2.206   0.239   0.754  0.0108  0.2187  0.2739
  344SOL    HW1 1031   2.307   0.252   0.769 -2.6447 -1.0723 -0.9319
  344SOL    HW2 1032   2.194   0.239   0.653 -2.1759  0.0361  0.5601
  345SOL     OW 1033   0.930   2.568   2.061 -0.2578  0.2037  0.2299
  345SOL    HW1 1034   1.013   2.627   2.048 -2.9408 -1.0812 -2.2391
  345SOL    HW2 1035   0.890   2.565   1.969  1.3503 -0.3759  0.2889
  346SOL     OW 1036   2.878   2.308   0.887 -0.1853 -0.1203  0.1276
  346SOL    HW1 1037   2.924   2.234   0.935  0.1901 -0.2584 -1.7982
  346SOL    HW2 1038   2.782   2.284   0.874 -0.0105  0.3741  1.2977
  347SOL     OW 1039   2.123   0.044   1.445 -0.1096  0.0817  0.9264
  347SOL    HW1 1040   2.133   3.043   1.476  1.5236 -0.4940  2.3156
  347SOL    HW2 1041   2.100   0.055   1.345 -1.2102  0.3688 -2.4761
  348SOL     OW 1042   0.995   1.040   1.233 -0.4486 -0.5260 -0.7754
  348SOL    HW1 1043   0.970   1.010   1.139  1.5185  0.1013 -2.1582
  348SOL    HW2 1044   0.995   0.961   1.297  0.7304 -1.5691  0.6046
  349SOL     OW 1045   2.251   0.371   1.899  0.4496  0.2635  0.4757
  349SOL    HW1 1046   2.161   0.385   1.948 -1.2393  0.7445  0.9274
  349SOL    HW2 1047   2.303   0.296   1.941  0.1788  1.3180  2.7994
  350SOL     OW 1048   2.170   2.358   0.490  0.1344  0.3816 -0.1219
  350SOL    HW1 1049   2.222   2.410   0.559  1.5620 -0.5352  1.0435
  350SOL    HW2 1050   2.203   2.373   0.396  2.3864  0.9223  1.4671
  351SOL     OW 1051   1.224   0.496   2.729  0.1614  0.0598  0.2278
  351SOL    HW1 1052   1.222   0.399   2.749 -1.2846  1.3647 -0.6936
  351SOL    HW2 1053   1.223   0.556   2.814  2.7085 -1.5507  1.6941
  352SOL     OW 1054   2.106   2.356   2.026 -0.5517  0.4865 -0.0678
  352SOL    HW1 1055   2.038   2.286   2.050  3.3156 -0.7106 -2.1375
  352SOL    HW2 1056   2.062   2.439   1.983 -2.4133  0.6246  1.0927
  353SOL     OW 1057   0.331   0.887   2.526 -0.2068 -0.2739 -0.0283
  353SOL    HW1 1058   0.262   0.899   2.451  0.4830  0.0128  0.0297
  353SOL    HW2 1059   0.416   0.845   2.487 -1.3688  0.3903 -0.2028
  354SOL     OW 1060   0.580   2.823   2.667  0.6022 -0.9855  0.0272
  354SOL    HW1 1061   0.613   2.758   2.595  0.1628 -0.2265 -1.5847
  354SOL    HW2 1062   0.547   2.770   2.747  0.1437 -2.8622  1.8666
  355SOL     OW 1063   2.141   2.728   1.048  0.2282 -0.1651  0.0402
  355SOL    HW1 1064   2.184   2.779   1.121 -1.1581 -0.3746 -2.6916
  355SOL    HW2 1065   2.049   2.765   1.023 -0.5408  0.5251 -1.0663
  356SOL     OW 1066   2.480   0.710   0.540  0.8454  0.0990  0.6277
  356SOL    HW1 1067   2.429   0.798   0.561  0.6429  0.3410  1.4062
  356SOL    HW2 1068   2.420   0.624   0.563 -2.8531 -1.3261 -1.9365
  357SOL     OW 1069   0.326   3.034   1.858 -0.4958 -0.1830 -0.6860
  357SOL    HW1 1070   0.380   0.025   1.832 -1.8840  2.5166 -0.1631
  357SOL    HW2 1071   0.236   3.049   1.914 -3.7782  0.8353  4.0152
  358SOL     OW 1072   2.932   1.500   1.284  0.1331  0.6919  0.3027
  358SOL    HW1 1073   3.020   1.454   1.272  2.0024  1.1476  0.5738
  358SOL    HW2 1074   2.935   1.602   1.257 -2.2146 -0.7304  1.2160
  359SOL     OW 1075   2.448   0.054   2.899 -0.3696  0.6616  0.8675
  359SOL    HW1 1076   2.454   0.029   2.800 -0.4545 -0.2852 -0.7300
  359SOL    HW2 1077   2.541   0.074   2.937  0.3486  2.6877  1.0259
  360SOL     OW 1078   1.157   0.579   1.445 -0.2279 -0.1173  0.2214
  360SOL    HW1 1079   1.063   0.581   1.416  0.2510  0.7846  0.6087
  360SOL    HW2 1080   1.213   0.640   1.387 -0.1353  0.3443 -0.8811
  361SOL     OW 1081   2.731   2.534   1.542 -0.3238  0.2608  0.1912
  361SOL    HW1 1082   2.760   2.508   1.641 -1.9358 -1.2629  0.5249
  361SOL    HW2 1083   2.628   2.547   1.537  2.4178 -0.5246 -0.9263
  362SOL     OW 1084   1.239   0.168   0.680  0.4948  0.1587  0.0274
  362SOL    HW1 1085   1.331   0.131   0.707 -1.9241 -1.9011  0.2505
  362SOL    HW2 1086   1.174   0.160   0.757  0.3456  2.8993  0.3055
  363SOL     OW 1087   1.925   1.610   0.810 -0.3588 -0.3673  0.2450
  363SOL    HW1 1088   1.929   1.595   0.915  0.6082  2.3166  1.6051
  363SOL    HW2 1089   1.835   1.578   0.778 -1.8691  1.0007  0.3088
  364SOL     OW 1090   0.605   0.805   1.653  0.6791  0.1454 -0.1661
  364SOL    HW1 1091   0.617   0.755   1.741 -1.7407  0.6607 -2.1701
  364SOL    HW2 1092   0.550   0.743   1.589  0.7429 -0.0538  0.7569
  365SOL     OW 1093   3.062   0.341   0.980 -0.1873  0.4662  0.2267
  365SOL    HW1 1094   0.048   0.288   1.004  0.4055 -0.2510 -0.3637
  365SOL    HW2 1095   3.049   0.414   1.046 -0.4820 -1.8591 -2.0376
  366SOL     OW 1096   2.754   0.962   0.392  0.1041 -0.5605  0.1555
  366SOL    HW1 1097   2.695   1.020   0.333 -3.2144 -0.6863  0.4865
  366SOL    HW2 1098   2.833   1.013   0.423 -1.4915  0.7739 -4.7045
  367SOL     OW 1099   2.275   2.041   2.425 -0.1116  0.2647 -0.1670
  367SOL    HW1 1100   2.230   2.109   2.363 -0.6797  1.9497 -3.0616
  367SOL    HW2 1101   2.375   2.034   2.404  0.6834  1.5508 -2.3683
  368SOL     OW 1102   2.383   2.144   0.948 -0.1163 -0.4456  0.3227
  368SOL    HW1 1103   2.380   2.091   1.032 -1.3078  1.8358 -0.2005
  368SOL    HW2 1104   2.372   2.083   0.866 -0.5421 -0.9332 -1.4351
  369SOL     OW 1105   2.095   0.085   2.870  0.0743  0.0711  0.1016
  369SOL    HW1 1106   2.107   0.162   2.931 -0.6653 -0.4575 -2.2057
  369SOL    HW2 1107   2.130   0.001   2.906 -0.6713  3.2440 -0.5997
  370SOL     OW 1108   0.781   0.485   1.116  0.8700 -0.0452  0.2889
  370SOL    HW1 1109   0.720   0.436   1.049  1.5505 -1.6606 -0.0190
  370SOL    HW2 1110   0.757   0.583   1.120  1.0473 -1.7534 -0.4865
  371SOL     OW 1111   0.259   1.712   0.201 -0.6536  0.0661 -0.4403
  371SOL    HW1 1112   0.268   1.745   0.105 -0.9259  0.9725 -0.3369
  371SOL    HW2 1113   0.351   1.681   0.228 -0.2239 -0.8866 -1.2554
  372SOL     OW 1114   0.552   0.771   2.400  0.3720  0.0222  0.3819
  372SOL    HW1 1115   0.550   0.669   2.385  3.0316  1.0948  1.2600
  372SOL    HW2 1116   0.647   0.800   2.434  0.9418 -0.8395  1.7731
  373SOL     OW 1117   1.052   2.764   2.738 -0.2590 -0.1058  0.2726
  373SOL    HW1 1118   0.992   2.769   2.820 -2.3923  2.2324  0.6721
  373SOL    HW2 1119   1.008   2.811   2.659 -0.7555 -0.7857 -1.5086
  374SOL     OW 1120   0.951   1.879   0.452  0.2574 -0.6445 -0.2017
  374SOL    HW1 1121   0.996   1.837   0.531  1.9588  1.8061 -1.1760
  374SOL    HW2 1122   0.907   1.802   0.400  1.1518 -0.8579 -1.8021
  375SOL     OW 1123   0.702   0.720   1.918 -0.4779 -0.0804  0.1654
  375SOL    HW1 1124   0.675   0.763   2.007  0.9516 -1.6521  3.1587
  375SOL    HW2 1125   0.738   0.631   1.944 -0.9214  0.1809 -0.5273
  376SOL     OW 1126   3.059   2.496   1.783  0.2687 -0.6986  0.1344
  376SOL    HW1 1127   0.025   2.551   1.728 -0.3240  0.3016 -0.0262
  376SOL    HW2 1128   0.006   2.450   1.865  1.7761  0.8185 -4.1169
  377SOL     OW 1129   2.571   1.558   2.756 -0.0833 -0.2133 -0.4765
  377SOL    HW1 1130   2.546   1.517   2.665  1.2231 -0.2196  0.9410
  377SOL    HW2 1131   2.658   1.523   2.799 -0.1667 -0.6392  1.6954
  378SOL     OW 1132   2.209   2.971   3.010  0.2481 -0.1753  0.2800
  378SOL    HW1 1133   2.130   2.911   3.032  0.6457  1.8038  0.5501
  378SOL    HW2 1134   2.250   3.005   0.002 -1.3530 -2.0414  0.3828
  379SOL     OW 1135   1.857   0.523   0.725 -0.5818 -0.2656 -0.1115
  379SOL    HW1 1136   1.908   0.585   0.790  0.8824 -2.9400 -3.5450
  379SOL    HW2 1137   1.764   0.502   0.757 -1.0311  0.4211 -0.7464
  380SOL     OW 1138   2.617   1.986   1.743 -0.0553 -0.0521  0.2822
  380SOL    HW1 1139   2.541   1.966   1.803  3.8953  0.8047 -0.8143
  380SOL    HW2 1140   2.655   1.894   1.706  1.4828 -0.6138 -1.2483
  381SOL     OW 1141   2.424   1.260   2.210  0.6864  0.9323  0.3923
  381SOL    HW1 1142   2.484   1.301   2.140  0.0121  1.1311 -1.0695
  381SOL    HW2 1143   2.370   1.331   2.251  0.1469  1.2999 -2.2921
  382SOL     OW 1144   2.963   2.767   2.665  0.2201  0.0326 -0.6227
  382SOL    HW1 1145   2.866   2.751   2.692  0.4701 -0.8551  0.4707
  382SOL    HW2 1146   2.982   2.867   2.646  0.1952  2.7330  0.1265
  383SOL     OW 1147   1.004   1.467   3.016 -0.0046  0.6813  0.2307
  383SOL    HW1 1148   0.925   1.418   2.973  0.8505  2.0621  1.0908
  383SOL    HW2 1149   1.028   1.556   2.971  1.6131  0.9913 -0.1026
  384SOL     OW 1150   1.465   1.892   1.676  0.5869  0.0571 -0.0059
  384SOL    HW1 1151   1.409   1.959   1.733 -0.5428 -1.3048 -1.0183
  384SOL    HW2 1152   1.543   1.871   1.732 -3.5611  1.2608  0.6278
  385SOL     OW 1153   1.678   2.886   0.506 -0.5127 -0.1379 -0.0956
  385SOL    HW1 1154   1.668   2.989   0.525  0.4090  0.6352 -0.6554
  385SOL    HW2 1155   1.777   2.854   0.494  1.7817  0.5946  1.1955
  386SOL     OW 1156   2.025   1.416   0.482  0.5492 -0.6211 -0.1819
  386SOL    HW1 1157   2.093   1.452   0.552  0.2849  0.2919  0.4224
  386SOL    HW2 1158   2.000   1.486   0.411 -1.3754  0.6008 -0.6449
  387SOL     OW 1159   2.895   2.144   1.509 -0.2229  0.1048 -0.0204
  387SOL    HW1 1160   2.852   2.153   1.602  1.1157 -0.0916 -0.1860
  387SOL    HW2 1161   2.862   2.211   1.440 -1.9879 -0.3575 -3.2498
  388SOL     OW 1162   2.956   1.123   1.711 -0.0079  0.1663  0.7486
  388SOL    HW1 1163   2.996   1.193   1.771  0.8565 -0.1062 -0.3316
  388SOL    HW2 1164   3.024   1.073   1.654 -1.9753  0.3470  0.3005
  389SOL     OW 1165   1.758   0.508   0.121  0.2874  0.0493  0.1481
  389SOL    HW1 1166   1.713   0.439   0.186  2.1433 -3.7233  1.1510
  389SOL    HW2 1167   1.799   0.592   0.168  0.8803 -2.2026 -1.0917
  390SOL     OW 1168   1.080   1.722   2.964  0.4917  0.2213 -0.0720
  390SOL    HW1 1169   1.049   1.745   3.058  2.6143  1.2032 -1.8949
  390SOL    HW2 1170   1.128   1.808   2.931 -0.3249  0.4829  0.5166
  391SOL     OW 1171   1.440   2.066   0.116  0.1184  0.1864 -0.3840
  391SOL    HW1 1172   1.493   2.155   0.120  2.7911 -0.3595 -1.1739
  391SOL    HW2 1173   1.426   2.029   0.020 -0.7558 -0.5820 -1.5613
  392SOL     OW 1174   0.065   2.391   2.004  0.2006 -0.7103  0.2147
  392SOL    HW1 1175   0.125   2.463   2.047  1.8279  2.9436 -0.6430
  392SOL    HW2 1176   0.026   2.326   2.074 -0.1873 -1.1172 -1.9629
  393SOL     OW 1177   1.472   2.039   0.382  0.7575 -0.5882 -0.3510
  393SOL    HW1 1178   1.568   2.058   0.407 -2.2324  0.0595  0.1442
  393SOL    HW2 1179   1.457   2.043   0.281 -0.4095 -0.1547  1.2340
  394SOL     OW 1180   0.523   0.470   2.339  0.7805  0.0331  0.8807
  394SOL    HW1 1181   0.607   0.479   2.277  0.5803 -0.1612 -3.4038
  394SOL    HW2 1182   0.556   0.450   2.433 -0.1474 -2.3502 -0.0873
  395SOL     OW 1183   0.604   1.318   1.219  0.1351  0.1119 -0.2722
  395SOL    HW1 1184   0.700   1.295   1.244 -2.2070  0.3936 -3.7046
  395SOL    HW2 1185   0.599   1.402   1.161 -0.1629 -0.9300 -2.1215
  396SOL     OW 1186   1.907   1.112   2.137 -0.5801 -0.5410 -0.0999
  396SOL    HW1 1187   1.846   1.044   2.184  1.5814  0.6946  1.8759
  396SOL    HW2 1188   1.945   1.186   2.203  0.2597  0.8765  1.5547
  397SOL     OW 1189   0.664   0.646   3.037 -0.0273  0.1962 -0.0205
  397SOL    HW1 1190   0.618   0.668   2.953  0.9400 -1.4831  3.2919
  397SOL    HW2 1191   0.600   0.588   3.092  1.7794  0.0567  2.2694
  398SOL     OW 1192   1.199   2.264   3.063 -0.1127  0.0527 -0.0236
  398SOL    HW1 1193   1.185   2.186   0.028 -1.1291  3.3217  2.2068
  398SOL    HW2 1194   1.148   2.343   0.005 -0.3167  0.0848 -1.6667
  399SOL     OW 1195   1.799   2.007   2.283 -0.3307 -0.0625 -0.0665
  399SOL    HW1 1196   1.831   1.914   2.310 -1.4133  0.3566 -2.0504
  399SOL    HW2 1197   1.730   1.992   2.209 -1.2906 -1.1957  1.8321
  400SOL     OW 1198   2.159   1.511   1.369  0.3411 -0.2450 -0.6799
  400SOL    HW1 1199   2.166   1.523   1.270 -0.1406 -2.3978 -0.4118
  400SOL    HW2 1200   2.234   1.454   1.405  1.9180 -0.9915  1.5257
  401SOL     OW 1201   1.195   1.400   0.957 -0.5881 -0.0783  0.0828
  401SOL    HW1 1202   1.144   1.468   1.019 -0.4748  1.7805  2.7362
  401SOL    HW2 1203   1.277   1.449   0.919  1.6541 -0.3367 -1.5424
  402SOL     OW 1204   0.179   2.922   2.426  0.0639 -0.0588  0.3864
  402SOL    HW1 1205   0.140   2.825   2.422 -2.2812 -2.4301 -0.6985
  402SOL    HW2 1206   0.278   2.923   2.412  0.6701 -0.8337  0.2013
  403SOL     OW 1207   2.685   1.776   1.594 -0.0378 -0.3059  0.3499
  403SOL    HW1 1208   2.750   1.713   1.636  2.7109 -1.6291  3.5767
  403SOL    HW2 1209   2.627   1.733   1.528 -0.7272  0.6267  0.4537
  404SOL     OW 1210   2.126   2.045   1.209 -0.1900 -0.0300  0.2927
  404SOL    HW1 1211   2.219   2.014   1.234 -2.5815 -1.8771  0.5870
  404SOL    HW2 1212   2.104   2.128   1.265 -0.6052 -0.1434  1.9124
  405SOL     OW 1213   2.452   0.340   2.811 -0.7628  0.0862  0.1216
  405SOL    HW1 1214   2.478   0.273   2.888  1.4897 -0.7111  0.2224
  405SOL    HW2 1215   2.535   0.386   2.775 -1.6596  0.0714 -1.8293
  406SOL     OW 1216   0.806   1.422   2.363 -0.5700  0.1108 -0.0364
  406SOL    HW1 1217   0.758   1.512   2.366 -1.3835  0.5984 -0.3989
  406SOL    HW2 1218   0.892   1.420   2.421  2.7849 -0.5454  0.2546
  407SOL     OW 1219   1.820   2.602   0.173  0.3336 -0.0247 -0.2194
  407SOL    HW1 1220   1.863   2.679   0.225 -1.5564  0.7325  3.6223
  407SOL    HW2 1221   1.740   2.573   0.227 -1.1542  0.4669 -0.7609
  408SOL     OW 1222   0.197   2.987   0.646  0.0451 -0.3723 -0.3087
  408SOL    HW1 1223   0.225   3.079   0.687  1.0225  2.4595  0.8682
  408SOL    HW2 1224   0.107   2.963   0.682 -1.5897 -2.3839  0.2911
  409SOL     OW 1225   2.275   1.976   0.781 -0.2698 -0.3562  0.1682
  409SOL    HW1 1226   2.257   1.885   0.821 -0.3833  0.6354  2.0859
  409SOL    HW2 1227   2.187   2.025   0.771 -0.4874  0.5042  2.4410
  410SOL     OW 1228   2.546   2.095   2.943 -0.1883  0.5268 -0.2901
  410SOL    HW1 1229   2.627   2.115   2.890 -0.3153  0.5967 -0.1776
  410SOL    HW2 1230   2.475   2.164   2.914  1.6220 -1.3357 -0.8220
  411SOL     OW 1231   0.084   3.084   0.326  0.2052 -0.3146 -0.1388
  411SOL    HW1 1232   0.186   3.071   0.333  0.2838 -1.4227  1.3355
  411SOL    HW2 1233   0.052   0.038   0.405  1.0407 -0.8811 -0.4377
  412SOL     OW 1234   1.588   2.553   0.306 -0.0116  0.9723 -0.1485
  412SOL    HW1 1235   1.507   2.595   0.263 -0.5144 -1.9938  1.4358
  412SOL    HW2 1236   1.619   2.588   0.400  0.8569 -1.1029 -1.5712
  413SOL     OW 1237   2.015   0.417   2.022 -0.0521 -0.0588 -0.5019
  413SOL    HW1 1238   2.008   0.520   2.019 -2.8628  1.2779  0.5684
  413SOL    HW2 1239   1.980   0.384   2.113 -0.6205  0.7532  2.4693
  414SOL     OW 1240   0.056   0.432   0.558 -0.0652 -0.2329  0.5232
  414SOL    HW1 1241   0.137   0.399   0.608 -1.9314  1.5081 -2.1622
  414SOL    HW2 1242   0.084   0.447   0.460 -0.1185  0.8338 -1.0724
  415SOL     OW 1243   0.338   1.607   1.226 -0.3164  0.2641  0.6669
  415SOL    HW1 1244   0.297   1.547   1.154 -1.4011 -0.1755 -0.1409
  415SOL    HW2 1245   0.382   1.546   1.297  2.7175 -0.3366  0.8010
  416SOL     OW 1246   3.083   3.003   0.079 -0.0651 -0.4883  0.1902
  416SOL    HW1 1247   0.002   3.073   0.002 -0.6903  0.7348  3.0172
  416SOL    HW2 1248   0.042   3.023   0.164 -1.7589  0.6422  1.4762
  417SOL     OW 1249   2.316   3.080   1.100 -0.2843  0.2489  0.0498
  417SOL    HW1 1250   2.217   3.083   1.112 -0.0740  0.8331 -2.2393
  417SOL    HW2 1251   2.356   0.080   1.079 -1.3567 -0.7482 -0.7421
  418SOL     OW 1252   0.635   0.421   2.575  0.3629 -0.0439  0.5070
  418SOL    HW1 1253   0.721   0.460   2.613  0.5279 -1.2876 -1.4087
  418SOL    HW2 1254   0.568   0.410   2.648 -0.7562 -0.9322  0.4295
  419SOL     OW 1255   0.294   1.050   0.764 -0.5983 -0.0553  0.6360
  419SOL    HW1 1256   0.356   1.040   0.844  0.4350 -5.3508 -1.3245
  419SOL    HW2 1257   0.204   1.084   0.795  1.2149 -1.4924 -1.2248
  420SOL     OW 1258   1.889   1.943   0.889 -0.2209  0.0242 -0.2343
  420SOL    HW1 1259   1.838   1.898   0.816  2.6324 -0.8085  3.1780
  420SOL    HW2 1260   1.968   1.892   0.918 -1.0566 -0.3696 -0.1577
  421SOL     OW 1261   1.896   1.937   2.663  0.0725  0.0215  0.1351
  421SOL    HW1 1262   1.868   2.010   2.725 -1.8328 -0.3278 -3.2709
  421SOL    HW2 1263   1.822   1.900   2.609 -0.4483  1.1693  3.1654
  422SOL     OW 1264   2.766   0.414   3.079  0.2806 -0.4023 -0.2204
  422SOL    HW1 1265   2.738   0.469   2.996 -3.5182  0.4994  0.0311
  422SOL    HW2 1266   2.696   0.423   0.056  0.0851 -2.7948  0.6810
  423SOL     OW 1267   1.497   1.795   0.886  0.4017 -0.0620  0.5998
  423SOL    HW1 1268   1.542   1.876   0.935  1.2436 -1.3436  1.9375
  423SOL    HW2 1269   1.549   1.772   0.798  1.5337  0.6119 -0.4157
  424SOL     OW 1270   0.484   1.558   1.641 -0.1679  0.0405  0.4177
  424SOL    HW1 1271   0.552   1.506   1.692 -0.1735 -0.2996 -2.3065
  424SOL    HW2 1272   0.504   1.660   1.645 -1.1667 -2.2872 -0.1698
  425SOL     OW 1273   2.643   2.672   1.859  0.1525 -0.2113  0.0772
  425SOL    HW1 1274   2.667   2.574   1.850  2.0213  0.7908 -3.0279
  425SOL    HW2 1275   2.617   2.700   1.955 -0.9462 -0.3954  0.8174
  426SOL     OW 1276   1.927   2.756   0.504  0.5822 -0.0497  0.6938
  426SOL    HW1 1277   1.999   2.750   0.573 -1.5120 -1.0518 -0.5537
  426SOL    HW2 1278   1.968   2.755   0.412  0.7782 -1.5971  0.0643
  427SOL     OW 1279   0.306   0.697   2.718 -0.2276 -0.1084 -0.0778
  427SOL    HW1 1280   0.306   0.769   2.646  0.9189  0.6089  1.2073
  427SOL    HW2 1281   0.268   0.739   2.803  1.0559  0.4984 -2.6291
  428SOL     OW 1282   2.041   1.094   0.228 -0.3651  0.6814 -0.1897
  428SOL    HW1 1283   1.940   1.093   0.219  0.1620  2.0227 -0.4041
  428SOL    HW2 1284   2.080   1.100   0.138  1.4143 -0.2017  2.1551
  429SOL     OW 1285   2.864   0.196   0.252 -0.6745  0.3113 -0.3638
  429SOL    HW1 1286   2.848   0.143   0.337  1.4324 -1.4912  0.2353
  429SOL    HW2 1287   2.960   0.197   0.230 -0.1652  2.5176 -2.9944
  430SOL     OW 1288   1.000   2.930   1.895  0.2235  0.3456 -0.2553
  430SOL    HW1 1289   0.928   2.918   1.965 -0.4889  0.6718 -3.7114
  430SOL    HW2 1290   1.020   2.837   1.860 -1.7588  0.8766 -2.2267
  431SOL     OW 1291   2.995   1.758   1.250 -0.0034  0.2885 -0.5610
  431SOL    HW1 1292   2.928   1.817   1.296  2.5483  1.9553  0.7201
  431SOL    HW2 1293   3.083   1.780   1.298 -0.0329 -0.0847 -1.7671
  432SOL     OW 1294   2.166   2.761   1.797 -0.1275  0.5231  0.1479
  432SOL    HW1 1295   2.261   2.721   1.785  1.4740 -0.7973 -1.7388
  432SOL    HW2 1296   2.100   2.687   1.822  2.2756  1.9291 -0.2426
  433SOL     OW 1297   1.060   1.788   0.126 -0.4686 -0.1607  0.1131
  433SOL    HW1 1298   0.986   1.750   0.183 -0.7565  2.0885  0.5932
  433SOL    HW2 1299   1.085   1.884   0.156  2.0791 -1.5973  2.9713
  434SOL     OW 1300   0.159   2.249   2.347  0.1471  0.4886  0.1198
  434SOL    HW1 1301   0.219   2.191   2.402  0.6589  1.0956 -1.9787
  434SOL    HW2 1302   0.069   2.267   2.401  0.6594 -0.1129  0.8536
  435SOL     OW 1303   0.302   0.633   0.697 -0.0495 -0.3464  0.0539
  435SOL    HW1 1304   0.278   0.532   0.703  1.1209 -0.9475 -2.0308
  435SOL    HW2 1305   0.234   0.683   0.639 -0.7754  1.3113  0.0669
  436SOL     OW 1306   0.315   2.592   1.847  0.2274 -0.1903 -0.3336
  436SOL    HW1 1307   0.347   2.510   1.796  1.7131  1.4268  0.2717
  436SOL    HW2 1308   0.262   2.652   1.784  2.4949  0.2422 -2.0632
  437SOL     OW 1309   1.048   1.899   1.421 -0.0574  0.4192  0.3847
  437SOL    HW1 1310   1.105   1.912   1.505 -0.0794  1.8323 -0.1745
  437SOL    HW2 1311   1.104   1.909   1.336  2.3136  1.5489 -0.7303
  438SOL     OW 1312   3.024   2.264   0.664  0.3057  0.5602  0.2484
  438SOL    HW1 1313   3.000   2.169   0.632  1.7248  0.2425 -1.8466
  438SOL    HW2 1314   2.998   2.292   0.759  2.6485 -0.5563 -0.2704
  439SOL     OW 1315   0.158   0.124   1.074  0.0677  0.5439 -0.4106
  439SOL    HW1 1316   0.106   0.093   1.153 -1.0210 -2.7728 -0.7918
  439SOL    HW2 1317   0.240   0.181   1.105  2.1910  2.6839  3.1600
  440SOL     OW 1318   2.793   2.622   2.169  0.5304 -0.0863 -0.1246
  440SOL    HW1 1319   2.840   2.681   2.098  2.1687  2.2854 -0.0785
  440SOL    HW2 1320   2.835   2.634   2.260  1.9005  1.4101 -1.9740
  441SOL     OW 1321   2.864   0.555   1.693  0.0801  0.3450 -0.5309
  441SOL    HW1 1322   2.849   0.458   1.713  1.0681 -0.0795 -2.9139
  441SOL    HW2 1323   2.829   0.607   1.773  0.0806 -0.8574 -1.7705
  442SOL     OW 1324   1.703   2.360   2.953 -0.3324  0.4080 -0.1922
  442SOL    HW1 1325   1.740   2.347   3.049  2.1829 -0.5609  3.4741
  442SOL    HW2 1326   1.599   2.360   2.945 -0.3168 -0.1599  0.7615
  443SOL     OW 1327   0.506   1.014   0.123 -0.0164 -0.1625 -0.5830
  443SOL    HW1 1328   0.586   1.060   0.166 -0.3181 -1.6556 -0.5684
  443SOL    HW2 1329   0.471   0.934   0.176  0.8789 -3.6939 -0.2245
  444SOL     OW 1330   1.530   1.638   2.356 -0.5891  0.6431 -0.5198
  444SOL    HW1 1331   1.606   1.571   2.377  0.6166 -2.6064 -1.2972
  444SOL    HW2 1332   1.544   1.679   2.263  0.9649  4.8689 -3.1510
  445SOL     OW 1333   0.094   2.739   0.906  0.1962  0.3275  0.2404
  445SOL    HW1 1334   0.035   2.738   0.991 -0.2948  0.6920  0.7244
  445SOL    HW2 1335   0.039   2.704   0.829 -2.2393 -0.6272  2.4030
  446SOL     OW 1336   2.137   1.175   1.441 -0.3348 -0.0221 -1.0474
  446SOL    HW1 1337   2.057   1.228   1.475  2.6759 -0.0560 -2.6801
  446SOL    HW2 1338   2.213   1.233   1.403  2.0575 -1.3206 -2.8926
  447SOL     OW 1339   0.182   0.616   3.095  0.6985  0.2824 -0.1538
  447SOL    HW1 1340   0.149   0.664   0.082 -1.1015 -1.1317 -0.0390
  447SOL    HW2 1341   0.129   0.536   3.063  1.0426 -2.3408 -0.9349
  448SOL     OW 1342   1.344   2.114   1.790  0.0991 -0.2788 -0.4105
  448SOL    HW1 1343   1.354   2.202   1.737  0.3652  1.8398 -0.5871
  448SOL    HW2 1344   1.343   2.143   1.888 -1.2662 -1.3421  2.5649
  449SOL     OW 1345   1.212   1.512   0.578  0.1866 -0.0278 -0.9268
  449SOL    HW1 1346   1.278   1.463   0.639 -0.9167 -1.0647  2.0507
  449SOL    HW2 1347   1.217   1.474   0.483 -0.1138 -0.6770 -0.8272
  450SOL     OW 1348   2.350   1.940   1.853  0.1441 -0.1808  0.0282
  450SOL    HW1 1349   2.328   2.002   1.929 -1.8104 -1.0903 -3.0999
  450SOL    HW2 1350   2.348   1.842   1.875  0.4667  1.3218 -2.0867
  451SOL     OW 1351   2.820   1.471   2.868 -0.0754 -0.3473  0.0566
  451SOL    HW1 1352   2.908   1.462   2.811  1.5323 -0.8489  0.4543
  451SOL    HW2 1353   2.761   1.389   2.859 -0.1530 -0.5278  0.0229
  452SOL     OW 1354   1.442   1.074   1.065  0.3492  0.0242 -0.1114
  452SOL    HW1 1355   1.354   1.118   1.094  1.2359 -1.5902  0.4473
  452SOL    HW2 1356   1.520   1.106   1.122 -1.0707 -0.4220  0.7450
  453SOL     OW 1357   2.073   1.056   1.110 -0.3411 -0.2518 -0.8440
  453SOL    HW1 1358   2.137   0.980   1.139  3.4778 -0.8858  1.5959
  453SOL    HW2 1359   1.986   1.037   1.159  0.1236  2.2969  1.9179
  454SOL     OW 1360   3.021   0.811   0.649 -0.0459  0.0020  0.4065
  454SOL    HW1 1361   2.959   0.747   0.602  1.7950 -0.4499  0.6831
  454SOL    HW2 1362   2.992   0.908   0.641  0.6308 -0.3184 -0.5672
  455SOL     OW 1363   2.593   2.567   1.040  0.0146 -0.2108 -0.3107
  455SOL    HW1 1364   2.672   2.616   0.989  2.3611 -0.7005 -0.9549
  455SOL    HW2 1365   2.504   2.597   1.004  2.0800 -0.0623  1.7779
  456SOL     OW 1366   0.522   2.759   1.087  0.9189 -0.6417 -0.0533
  456SOL    HW1 1367   0.557   2.735   0.995 -0.3642 -0.5196  1.8350
  456SOL    HW2 1368   0.488   2.855   1.096  3.1359  0.8447  1.5286
  457SOL     OW 1369   1.887   3.093   0.913  0.2039  0.3070 -0.1891
  457SOL    HW1 1370   1.874   0.089   0.880 -0.2040  1.0887  1.9934
  457SOL    HW2 1371   1.952   3.045   0.852 -1.8622 -1.0131 -0.1432
  458SOL     OW 1372   2.719   0.259   0.880  0.1427  0.0935 -0.1645
  458SOL    HW1 1373   2.705   0.170   0.930  1.1021  1.7729 -0.3100
  458SOL    HW2 1374   2.727   0.329   0.953  0.5898 -2.5015 -1.0755
  459SOL     OW 1375   1.976   0.706   3.029  0.2579  0.0148 -0.2771
  459SOL    HW1 1376   1.931   0.668   2.947 -0.6573  1.5551  1.8539
  459SOL    HW2 1377   2.032   0.631   3.075  1.8881 -2.3345  2.0856
  460SOL     OW 1378   2.988   2.295   2.881 -0.1929 -0.1860  0.3894
  460SOL    HW1 1379   2.960   2.391   2.909  1.8750  2.3730  2.1061
  460SOL    HW2 1380   3.033   2.245   2.957 -2.0821  0.1391  1.8365
  461SOL     OW 1381   0.628   1.780   0.411  0.5057 -0.1925  0.2336
  461SOL    HW1 1382   0.663   1.721   0.486  0.5247  1.6279  1.3099
  461SOL    HW2 1383   0.583   1.722   0.338  1.6871 -1.1116 -0.5299
  462SOL     OW 1384   2.522   2.411   0.636 -0.1915  0.4010  0.1715
  462SOL    HW1 1385   2.621   2.438   0.618 -0.3900 -0.3201 -1.7732
  462SOL    HW2 1386   2.475   2.411   0.550  1.1474 -0.7587  0.4982
  463SOL     OW 1387   2.896   0.540   0.597 -0.2548 -0.0574 -0.3064
  463SOL    HW1 1388   2.867   0.551   0.693 -0.0969 -0.4971  0.7223
  463SOL    HW2 1389   2.996   0.517   0.587 -0.6863  0.0805  0.4043
  464SOL     OW 1390   1.193   2.839   0.435 -0.1149 -0.1485  0.2728
  464SOL    HW1 1391   1.103   2.867   0.478 -3.2572  2.4600  0.2597
  464SOL    HW2 1392   1.229   2.750   0.474  2.5974 -0.0073  0.9199
  465SOL     OW 1393   2.317   0.948   0.593 -0.1337  0.4063  0.8090
  465SOL    HW1 1394   2.231   0.899   0.613 -4.3863  0.0905  3.3802
  465SOL    HW2 1395   2.294   1.028   0.531 -0.8382  4.1821 -1.3771
  466SOL     OW 1396   2.430   2.876   0.203 -0.0627 -0.5546 -0.1531
  466SOL    HW1 1397   2.427   2.958   0.139  0.6237 -0.6453 -1.9876
  466SOL    HW2 1398   2.385   2.793   0.155 -2.3856 -2.7044  0.6994
  467SOL     OW 1399   1.150   0.590   1.713 -0.0523 -0.3147  0.0797
  467SOL    HW1 1400   1.182   0.680   1.748 -1.2845  3.0877 -1.1967
  467SOL    HW2 1401   1.161   0.575   1.616  0.8818  0.5414  1.9832
  468SOL     OW 1402   0.279   0.580   2.334  0.0440  0.1672 -0.0168
  468SOL    HW1 1403   0.371   0.534   2.318 -1.5037 -0.1455 -0.7594
  468SOL    HW2 1404   0.272   0.665   2.279 -0.2610  0.3203  0.4620
  469SOL     OW 1405   0.769   3.012   2.718 -0.0324  0.0820  0.1034
  469SOL    HW1 1406   0.692   2.942   2.707 -1.7790 -2.6044 -0.0828
  469SOL    HW2 1407   0.839   2.996   2.644 -0.4615  0.4065  0.4897
  470SOL     OW 1408   1.962   1.397   2.585  0.8402 -0.0773  0.3748
  470SOL    HW1 1409   2.036   1.467   2.612  0.0960  3.1284  0.4930
  470SOL    HW2 1410   1.952   1.311   2.647 -0.8960 -1.3913  1.0706
  471SOL     OW 1411   2.861   1.174   2.579  0.3467  0.8762 -0.3534
  471SOL    HW1 1412   2.802   1.235   2.524 -2.0915  2.4571  0.6408
  471SOL    HW2 1413   2.808   1.115   2.643 -1.1842  0.2630 -0.1844
  472SOL     OW 1414   0.486   2.393   0.382  0.5897  0.3290 -0.1097
  472SOL    HW1 1415   0.498   2.477   0.440 -0.3415  0.6490  2.2775
  472SOL    HW2 1416   0.452   2.307   0.432 -3.0160 -0.3475 -0.8105
  473SOL     OW 1417   0.667   0.175   2.884 -0.1515  0.4248  0.4834
  473SOL    HW1 1418   0.704   0.106   2.822 -0.2495  1.4377  3.1574
  473SOL    HW2 1419   0.631   0.126   2.963  0.7621 -2.3515 -1.4984
  474SOL     OW 1420   1.683   0.267   2.098 -0.0647 -0.2533 -0.2354
  474SOL    HW1 1421   1.665   0.174   2.138 -0.1684 -0.3330  4.4397
  474SOL    HW2 1422   1.606   0.329   2.107  1.3926  0.3733  0.1416
  475SOL     OW 1423   0.761   2.919   0.182 -0.1165  0.1097  0.0228
  475SOL    HW1 1424   0.773   2.990   0.258  1.3150  3.1155  2.9053
  475SOL    HW2 1425   0.832   2.922   0.110  1.7804  1.3681  2.7239
  476SOL     OW 1426   0.338   1.196   1.012  0.0398  0.0030 -0.1793
  476SOL    HW1 1427   0.422   1.197   1.068 -2.4900  0.0603 -2.1064
  476SOL    HW2 1428   0.307   1.283   0.969  0.0342  1.7929 -1.5408
  477SOL     OW 1429   1.623   2.097   1.230 -0.3119  0.1349  0.0080
  477SOL    HW1 1430   1.640   2.192   1.261 -0.7856  0.2592  1.4244
  477SOL    HW2 1431   1.619   2.039   1.311  0.3194  1.8641 -3.6502
  478SOL     OW 1432   0.915   1.406   2.111 -0.3839 -0.0187 -0.2462
  478SOL    HW1 1433   0.909   1.315   2.062  0.7521  1.3499  0.3316
  478SOL    HW2 1434   0.891   1.399   2.211  1.2376  0.8060  4.4129
  479SOL     OW 1435   0.486   3.061   1.077  0.5120 -0.3329 -0.0762
  479SOL    HW1 1436   0.389   3.020   1.093 -2.1077  0.3671 -0.0226
  479SOL    HW2 1437   0.484   0.017   0.990 -1.8663  1.0911  0.3866
  480SOL     OW 1438   2.506   2.427   0.134 -0.2672 -0.1741  0.2839
  480SOL    HW1 1439   2.579   2.354   0.136 -1.3101 -1.4173  1.6874
  480SOL    HW2 1440   2.483   2.444   0.034 -1.4696  1.9360 -0.0379
  481SOL     OW 1441   2.904   0.119   1.113 -0.2029  0.7489 -0.2526
  481SOL    HW1 1442   2.968   0.185   1.070  1.2264  1.6820 -2.2757
  481SOL    HW2 1443   2.953   0.060   1.183  1.1691 -2.6487  1.6460
  482SOL     OW 1444   1.629   2.410   2.045  0.1012 -0.3732  0.2558
  482SOL    HW1 1445   1.641   2.463   2.129 -0.8699 -2.7544 -1.3184
  482SOL    HW2 1446   1.597   2.471   1.964 -1.5496 -1.3543 -1.0658
  483SOL     OW 1447   0.560   1.592   2.617  0.0724  0.0601  0.5181
  483SOL    HW1 1448   0.651   1.594   2.661  0.8525 -0.7782 -1.9529
  483SOL    HW2 1449   0.559   1.513   2.552 -0.5963  2.7718 -2.3657
  484SOL     OW 1450   1.112   1.572   2.235 -0.5113  0.4961  0.1815
  484SOL    HW1 1451   1.184   1.543   2.298 -1.2340  2.3847 -0.5222
  484SOL    HW2 1452   1.046   1.499   2.205  0.4757  1.6106 -1.2362
  485SOL     OW 1453   2.690   0.141   3.019 -0.1799  0.1893 -0.0408
  485SOL    HW1 1454   2.732   0.224   3.060 -1.1071 -0.1556 -0.6449
  485SOL    HW2 1455   2.704   0.054   3.075 -1.6007  2.9465 -0.6711
  486SOL     OW 1456   1.624   0.048   0.549 -0.7640 -0.4777  0.0889
  486SOL    HW1 1457   1.671   0.132   0.518 -0.0506  0.4683 -1.0589
  486SOL    HW2 1458   1.575   0.058   0.634  0.8024 -3.4646 -1.7928
  487SOL     OW 1459   1.240   2.523   0.780  0.5633 -0.4270 -0.3610
  487SOL    HW1 1460   1.208   2.426   0.803 -0.0565 -1.1044 -1.0885
  487SOL    HW2 1461   1.161   2.587   0.783  2.7652 -0.8352 -0.1860
  488SOL     OW 1462   2.246   1.162   0.414 -0.0714 -0.4333  0.0929
  488SOL    HW1 1463   2.279   1.256   0.423 -1.4529 -2.1270  0.9182
  488SOL    HW2 1464   2.152   1.168   0.369 -1.6061  1.2546 -0.6327
  489SOL     OW 1465   1.229   2.872   1.163  0.0677  0.2343 -0.3867
  489SOL    HW1 1466   1.193   2.787   1.207 -0.3386  1.7607  0.9887
  489SOL    HW2 1467   1.240   2.949   1.235 -2.4349  0.6791  1.1824
  490SOL     OW 1468   0.756   1.064   0.218  0.3166  0.2757  0.3991
  490SOL    HW1 1469   0.802   1.027   0.300  1.8287 -0.6346 -2.7860
  490SOL    HW2 1470   0.781   1.001   0.140 -0.6294  1.2811  1.5230
  491SOL     OW 1471   1.307   3.075   0.423  1.0581 -0.0258 -0.9368
  491SOL    HW1 1472   1.329   3.085   0.525  0.4367  0.1406  4.6248
  491SOL    HW2 1473   1.253   2.985   0.410 -1.5354 -0.3789  0.5326
  492SOL     OW 1474   1.320   1.265   2.247  0.5163 -0.4387 -0.1989
  492SOL    HW1 1475   1.312   1.288   2.152  2.8992 -1.9783  1.2105
  492SOL    HW2 1476   1.254   1.192   2.271 -0.2565  1.8492 -0.4742
  493SOL     OW 1477   0.222   2.445   0.297  0.2273 -0.5270  0.2168
  493SOL    HW1 1478   0.153   2.372   0.332 -2.9004 -3.4189  0.3474
  493SOL    HW2 1479   0.317   2.410   0.309  2.3236 -2.0933 -0.9928
  494SOL     OW 1480   2.210   1.661   0.337 -0.4050  0.1706  0.7357
  494SOL    HW1 1481   2.282   1.596   0.365  1.4508  0.4229  2.1266
  494SOL    HW2 1482   2.203   1.671   0.236 -5.1457 -1.1078 -0.6357
  495SOL     OW 1483   2.780   0.805   2.877  0.1034  0.0590 -0.0202
  495SOL    HW1 1484   2.878   0.817   2.847 -0.3075 -1.0068  0.6471
  495SOL    HW2 1485   2.765   0.835   2.974  1.5979  0.1882  4.0775
  496SOL     OW 1486   3.039   2.930   2.112  0.2669  0.5570 -0.2091
  496SOL    HW1 1487   0.041   2.927   2.108 -1.3669 -0.1824  0.6855
  496SOL    HW2 1488   3.002   2.868   2.038  2.3763 -1.6897 -1.5398
  497SOL     OW 1489   2.674   0.992   0.923  0.3936 -0.0862  0.3547
  497SOL    HW1 1490   2.618   0.977   1.006 -0.0219  1.1525 -2.3038
  497SOL    HW2 1491   2.632   0.956   0.839  2.1057 -0.8095  1.9571
  498SOL     OW 1492   0.446   2.393   3.039 -0.3306  0.4053 -0.2333
  498SOL    HW1 1493   0.399   2.312   3.084 -0.2176 -1.5092 -1.3779
  498SOL    HW2 1494   0.449   2.468   0.018 -0.3354  1.1698  2.5997
  499SOL     OW 1495   0.757   2.353   0.620 -0.1819  0.3336  0.8465
  499SOL    HW1 1496   0.785   2.415   0.543 -1.6070  1.1762 -1.7162
  499SOL    HW2 1497   0.805   2.262   0.614 -1.0886 -0.4907  2.1589
  500SOL     OW 1498   0.989   0.244   2.396  0.0987  0.0055 -0.2536
  500SOL    HW1 1499   0.894   0.211   2.396  0.4753 -1.4868  1.8896
  500SOL    HW2 1500   1.056   0.167   2.404 -0.3012 -2.4554 -0.4115
  501SOL     OW 1501   0.889   0.126   1.420 -0.0087 -0.7658  0.0123
  501SOL    HW1 1502   0.855   0.034   1.436  0.7942  4.4248 -0.3386
  501SOL    HW2 1503   0.985   0.132   1.454 -3.0757 -0.5371  0.6051
  502SOL     OW 1504   0.177   0.298   2.089  0.3296  0.4049 -0.1078
  502SOL    HW1 1505   0.248   0.292   2.159 -1.3287  2.1566 -3.2007
  502SOL    HW2 1506   0.106   0.366   2.126 -0.0843 -0.7132  0.6267
  503SOL     OW 1507   1.925   1.796   2.371 -0.4550  0.0454 -0.9275
  503SOL    HW1 1508   1.957   1.789   2.465 -1.1242 -1.4964  0.2767
  503SOL    HW2 1509   1.911   1.703   2.332  1.1308  1.1492  0.5524
  504SOL     OW 1510   1.918   0.390   1.731 -0.7481 -0.2070 -0.2505
  504SOL    HW1 1511   1.941   0.399   1.833  0.4480 -0.1101  0.8994
  504SOL    HW2 1512   1.981   0.443   1.670  1.2570  2.0632 -0.0659
  505SOL     OW 1513   2.777   0.911   1.730 -0.4459 -0.1054  0.3813
  505SOL    HW1 1514   2.854   0.982   1.715  2.5644 -0.6127  0.7684
  505SOL    HW2 1515   2.733   0.874   1.645  0.3350 -1.8112  1.2859
  506SOL     OW 1516   0.418   1.387   2.490 -0.5232 -0.2404  0.2202
  506SOL    HW1 1517   0.347   1.329   2.534 -0.1289  0.3696 -2.2077
  506SOL    HW2 1518   0.372   1.447   2.426 -1.5037 -0.6101  1.0640
  507SOL     OW 1519   0.434   2.881   2.342  0.4932 -0.0607 -0.0396
  507SOL    HW1 1520   0.495   2.963   2.319  2.0039  1.0411 -0.7296
  507SOL    HW2 1521   0.494   2.805   2.377  2.2755  0.6924 -0.1684
  508SOL     OW 1522   1.351   0.758   1.366  0.1463  0.4724  0.1602
  508SOL    HW1 1523   1.370   0.844   1.319 -0.7691 -4.2712  1.0826
  508SOL    HW2 1524   1.421   0.744   1.434 -0.5726 -0.6026 -1.2884
  509SOL     OW 1525   0.871   1.792   1.229 -0.2780 -0.6696 -0.2218
  509SOL    HW1 1526   0.939   1.805   1.300 -2.9730 -3.8799 -1.6736
  509SOL    HW2 1527   0.784   1.762   1.272  0.7488 -3.6972  0.6771
  510SOL     OW 1528   2.677   0.846   2.507 -0.0041  0.4316 -0.2051
  510SOL    HW1 1529   2.665   0.926   2.569 -1.6237  0.6503 -0.0003
  510SOL    HW2 1530   2.595   0.786   2.516  1.8462  2.1212 -1.6700
  511SOL     OW 1531   0.511   1.798   1.165  0.2152  0.3150  0.0314
  511SOL    HW1 1532   0.435   1.730   1.169 -1.3452  3.1153  2.8088
  511SOL    HW2 1533   0.573   1.781   1.243  0.0609  1.3820 -0.6185
  512SOL     OW 1534   2.592   2.301   1.147  0.1559 -0.1679 -0.0937
  512SOL    HW1 1535   2.507   2.253   1.127  2.5379  1.2698 -0.5290
  512SOL    HW2 1536   2.592   2.393   1.102  0.4429  1.7937 -1.9781
  513SOL     OW 1537   0.405   1.448   2.928  0.3728 -0.6375 -0.0378
  513SOL    HW1 1538   0.362   1.355   2.918 -0.3872 -2.0218 -0.9558
  513SOL    HW2 1539   0.407   1.495   2.844 -1.5363 -0.4470 -0.1894
  514SOL     OW 1540   0.132   2.586   2.918  0.2203 -0.6778 -0.5166
  514SOL    HW1 1541   0.090   2.577   3.009  0.8496 -1.4426  0.1619
  514SOL    HW2 1542   0.191   2.670   2.916 -1.3425  3.0197 -0.2677
  515SOL     OW 1543   1.721   0.963   2.260  0.1772 -0.4586 -0.7983
  515SOL    HW1 1544   1.689   1.061   2.245  0.8569  0.8722 -1.2000
  515SOL    HW2 1545   1.699   0.936   2.356  0.5090 -0.9001 -2.6514
  516SOL     OW 1546   2.255   2.093   0.204 -0.6500 -0.3798 -0.0710
  516SOL    HW1 1547   2.235   2.059   0.301  0.6659  0.1543 -1.2812
  516SOL    HW2 1548   2.332   2.044   0.161 -1.9214 -0.1324  0.6345
  517SOL     OW 1549   1.375   1.155   0.362  0.4883 -0.2807  0.8445
  517SOL    HW1 1550   1.430   1.111   0.435  0.2169 -0.9435  0.8165
  517SOL    HW2 1551   1.270   1.139   0.366 -1.8976  1.2217  0.5271
  518SOL     OW 1552   2.272   2.529   2.186  0.3358  0.3650 -0.3829
  518SOL    HW1 1553   2.263   2.512   2.286 -1.6336  1.5141  1.4009
  518SOL    HW2 1554   2.205   2.468   2.136 -1.7082 -1.8102 -1.5367
  519SOL     OW 1555   1.616   2.335   1.349  0.8472 -0.8946  0.1416
  519SOL    HW1 1556   1.696   2.384   1.312 -0.1703 -0.5655 -0.2715
  519SOL    HW2 1557   1.545   2.403   1.380  0.4277  5.0160 -1.6400
  520SOL     OW 1558   2.627   2.430   2.735  0.2331  0.3335  0.2345
  520SOL    HW1 1559   2.672   2.473   2.655 -1.9879 -2.3191 -0.0937
  520SOL    HW2 1560   2.539   2.397   2.692  0.4200 -0.2662 -0.4202
  521SOL     OW 1561   0.211   1.200   2.183 -1.0579 -0.0125  0.2350
  521SOL    HW1 1562   0.241   1.278   2.240  1.2204 -2.5528 -0.8037
  521SOL    HW2 1563   0.117   1.222   2.151  0.7995 -1.0915 -4.0353
  522SOL     OW 1564   1.293   0.314   1.822 -0.2193 -0.0427 -0.8073
  522SOL    HW1 1565   1.327   0.346   1.727  1.2082  2.8929 -1.6016
  522SOL    HW2 1566   1.196   0.294   1.829  2.0140 -0.8171  1.6682
  523SOL     OW 1567   0.514   2.402   0.948  0.4645 -0.4060 -0.1037
  523SOL    HW1 1568   0.491   2.306   0.924  0.4506 -1.7219 -0.0453
  523SOL    HW2 1569   0.436   2.470   0.939 -1.2968 -0.2596 -0.4866
  524SOL     OW 1570   1.597   2.648   0.554  0.4209  0.5020  0.8322
  524SOL    HW1 1571   1.606   2.748   0.531 -0.3035 -2.2424 -1.3343
  524SOL    HW2 1572   1.639   2.614   0.635 -0.0647  0.8215 -0.8644
  525SOL     OW 1573   2.149   0.915   1.449 -0.2122  0.0752 -0.3841
  525SOL    HW1 1574   2.143   1.018   1.459 -1.5718  1.3259 -0.0121
  525SOL    HW2 1575   2.195   0.894   1.360  1.1771 -1.0700 -1.0378
  526SOL     OW 1576   1.048   2.710   0.778 -0.0219  0.0802 -0.5139
  526SOL    HW1 1577   0.989   2.744   0.706 -1.9416 -4.2983  1.0952
  526SOL    HW2 1578   1.080   2.786   0.840  0.7366  0.4843  1.1961
  527SOL     OW 1579   2.775   2.283   0.413 -0.6355 -0.1734 -0.3346
  527SOL    HW1 1580   2.783   2.366   0.470  1.2830 -1.0345 -0.5536
  527SOL    HW2 1581   2.746   2.204   0.473 -0.2285 -1.0242 -1.2125
  528SOL     OW 1582   2.131   0.636   0.371  0.4833  0.2047 -0.6638
  528SOL    HW1 1583   2.101   0.734   0.364  0.0340  1.2507  0.3326
  528SOL    HW2 1584   2.046   0.580   0.386  2.0511 -0.5546 -2.2126
  529SOL     OW 1585   1.503   1.165   2.581  0.8583  0.4321 -0.0242
  529SOL    HW1 1586   1.540   1.248   2.618 -0.2648  0.8918 -0.3927
  529SOL    HW2 1587   1.408   1.149   2.613 -1.1725 -0.5051 -3.1107
  530SOL     OW 1588   2.388   0.659   3.023 -0.2888  0.4758  0.1859
  530SOL    HW1 1589   2.351   0.657   2.928  0.5654 -2.1709 -1.1440
  530SOL    HW2 1590   2.482   0.689   3.027 -1.2497  0.6246  1.8847
  531SOL     OW 1591   1.124   1.204   2.979  0.1135 -0.6082  0.5793
  531SOL    HW1 1592   1.080   1.290   3.009 -1.5265 -1.7525  2.3925
  531SOL    HW2 1593   1.062   1.144   2.927  1.4008  0.2624 -1.3488
  532SOL     OW 1594   1.688   0.291   0.868 -0.1620  0.3996 -0.3883
  532SOL    HW1 1595   1.789   0.314   0.867 -0.7454  0.4053 -2.5482
  532SOL    HW2 1596   1.630   0.371   0.834 -0.9485  1.3517 -0.4704
  533SOL     OW 1597   1.010   0.927   2.035 -0.2711 -0.3228 -0.0743
  533SOL    HW1 1598   1.005   0.943   2.137  0.5724  0.8640 -3.2483
  533SOL    HW2 1599   1.093   0.976   2.002  0.1424 -0.6622  2.6391
  534SOL     OW 1600   1.915   0.397   2.483  0.0375  0.1844 -0.0433
  534SOL    HW1 1601   2.010   0.427   2.498  1.9124 -1.6093 -1.5145
  534SOL    HW2 1602   1.864   0.379   2.570 -0.2173  0.8931  2.3256
  535SOL     OW 1603   0.413   0.480   0.306 -0.2350  0.1294 -0.3144
  535SOL    HW1 1604   0.452   0.480   0.212 -0.0717 -0.8172 -1.5312
  535SOL    HW2 1605   0.443   0.391   0.352  0.4157  0.9698 -1.2144
  536SOL     OW 1606   1.000   3.096   0.534  0.3999 -0.6120 -0.2568
  536SOL    HW1 1607   1.097   0.024   0.552 -4.4785 -1.5334 -0.5995
  536SOL    HW2 1608   0.944   3.087   0.617 -2.0471  2.7541 -1.2943
  537SOL     OW 1609   1.495   1.167   0.824  0.2046  0.2138  0.0444
  537SOL    HW1 1610   1.503   1.121   0.919  0.4441  0.4585  3.2911
  537SOL    HW2 1611   1.588   1.197   0.794  2.2941  1.4648  1.8658
  538SOL     OW 1612   2.932   2.103   0.104 -0.4019 -0.4645  0.2532
  538SOL    HW1 1613   2.964   2.063   0.188  2.2795 -0.8657  0.6661
  538SOL    HW2 1614   3.008   2.112   0.035  2.0298 -1.7143 -0.2993
  539SOL     OW 1615   2.606   1.756   0.136 -0.4430 -0.2560 -0.0895
  539SOL    HW1 1616   2.577   1.711   0.053  0.1292  2.0840  0.3709
  539SOL    HW2 1617   2.578   1.854   0.135  0.7926 -2.1579 -1.1823
  540SOL     OW 1618   0.506   2.764   1.447 -0.0352 -0.4195  0.4612
  540SOL    HW1 1619   0.469   2.779   1.354  0.5220  0.5369  0.4318
  540SOL    HW2 1620   0.446   2.799   1.518  1.5021 -0.3281 -0.8809
  541SOL     OW 1621   2.195   3.034   2.079  0.0850 -0.2066  0.1501
  541SOL    HW1 1622   2.202   2.933   2.093 -1.5124  0.2451 -2.5731
  541SOL    HW2 1623   2.134   3.052   1.999 -2.9199  0.0506  2.9318
  542SOL     OW 1624   2.729   0.216   2.500  0.2883 -0.0058 -0.1526
  542SOL    HW1 1625   2.734   0.177   2.594 -1.0755  1.4644  1.0385
  542SOL    HW2 1626   2.822   0.216   2.458  1.1605  0.7021 -1.0055
  543SOL     OW 1627   0.540   0.550   0.907 -0.2060 -0.1927 -0.7279
  543SOL    HW1 1628   0.459   0.574   0.849 -0.4003 -2.6615  0.0594
  543SOL    HW2 1629   0.625   0.581   0.863 -1.8231 -0.4920  3.7809
  544SOL     OW 1630   2.975   2.853   1.029 -0.4954 -0.3483 -0.7414
  544SOL    HW1 1631   2.965   2.849   1.132 -0.9512  0.1924  2.2828
  544SOL    HW2 1632   2.887   2.840   0.978  1.7633 -1.1285 -1.3441
  545SOL     OW 1633   1.366   2.148   0.874  0.9127 -0.2689  0.0258
  545SOL    HW1 1634   1.346   2.146   0.773  0.9153  0.0943 -1.3102
  545SOL    HW2 1635   1.454   2.099   0.888 -0.0137 -1.2727 -1.7198
  546SOL     OW 1636   1.984   3.001   1.868 -0.1512 -0.3535  0.4040
  546SOL    HW1 1637   1.933   3.048   1.794  0.0376 -0.1402 -0.6657
  546SOL    HW2 1638   2.022   2.914   1.828  0.0631 -1.3448 -1.5435
  547SOL     OW 1639   0.385   0.257   2.269 -0.1296  0.0821 -0.1651
  547SOL    HW1 1640   0.356   0.210   2.352  0.4314  0.8619 -1.1732
  547SOL    HW2 1641   0.447   0.330   2.289 -0.1276 -2.1032 -2.0894
  548SOL     OW 1642   2.027   1.744   2.802  0.2162  0.2580  0.3594
  548SOL    HW1 1643   2.002   1.717   2.898 -0.9756 -0.2101  0.6215
  548SOL    HW2 1644   1.978   1.827   2.766 -0.5551  1.8043  3.0056
  549SOL     OW 1645   0.024   0.833   0.894 -0.2388 -0.2785 -0.2436
  549SOL    HW1 1646   3.096   0.830   0.796 -1.1104  0.9646  0.9395
  549SOL    HW2 1647   3.039   0.817   0.952 -0.9807 -2.2248  0.8091
  550SOL     OW 1648   1.767   1.861   0.662 -0.1072  0.1033 -0.0697
  550SOL    HW1 1649   1.773   1.770   0.618 -0.0843  2.3079  2.2291
  550SOL    HW2 1650   1.766   1.932   0.593  0.2980  0.2868  0.7422
  551SOL     OW 1651   0.951   0.239   1.176 -0.0745 -0.4236 -0.1944
  551SOL    HW1 1652   0.873   0.291   1.141 -1.2131 -0.3853  1.4695
  551SOL    HW2 1653   0.930   0.188   1.262  0.2289 -0.8062 -0.8935
  552SOL     OW 1654   2.525   2.652   2.154  0.6188 -0.3053  0.2651
  552SOL    HW1 1655   2.625   2.644   2.162 -0.4068 -1.9071 -1.5913
  552SOL    HW2 1656   2.467   2.573   2.182  1.1067 -0.9102 -2.2132
  553SOL     OW 1657   2.957   3.020   2.610 -0.3519  0.0693  0.4303
  553SOL    HW1 1658   3.008   0.005   2.571 -1.6557 -1.1417  1.4047
  553SOL    HW2 1659   2.884   2.986   2.546  0.4192  0.4845  0.7756
  554SOL     OW 1660   0.910   2.804   1.173  0.4033 -0.7974 -0.1051
  554SOL    HW1 1661   0.851   2.833   1.254 -1.3622 -2.7223  1.8986
  554SOL    HW2 1662   0.998   2.765   1.205  1.8192 -3.4080 -0.7527
  555SOL     OW 1663   2.389   2.614   1.746 -0.2982  0.2321  0.0959
  555SOL    HW1 1664   2.388   2.595   1.645 -0.3302  0.2064 -0.5767
  555SOL    HW2 1665   2.488   2.622   1.770 -1.9743 -0.2701 -0.4129
  556SOL     OW 1666   1.170   0.207   2.816  0.0309  0.7360 -0.3382
  556SOL    HW1 1667   1.152   0.138   2.740  0.1596 -2.3232 -1.9399
  556SOL    HW2 1668   1.250   0.187   2.877 -0.3140  2.8475  1.5688
  557SOL     OW 1669   3.082   1.766   2.290  0.0852 -0.4631 -0.3683
  557SOL    HW1 1670   3.019   1.820   2.350 -3.4374  0.2758 -0.1043
  557SOL    HW2 1671   0.064   1.810   2.247 -2.4135  0.0083 -2.2781
  558SOL     OW 1672   2.442   1.058   2.406 -0.4714 -0.7868 -0.2717
  558SOL    HW1 1673   2.521   0.993   2.407  0.3450 -1.6361  1.3880
  558SOL    HW2 1674   2.430   1.104   2.315 -1.5810  1.4064  1.8531
  559SOL     OW 1675   2.543   2.307   2.031  0.0854  0.3386  0.0373
  559SOL    HW1 1676   2.641   2.330   2.046  1.4036 -1.6485  0.3766
  559SOL    HW2 1677   2.516   2.310   1.932 -2.0338 -2.0501  0.5483
  560SOL     OW 1678   2.880   0.523   2.252  0.3930 -0.3914 -0.4240
  560SOL    HW1 1679   2.858   0.625   2.262 -0.8254  0.7509  0.5415
  560SOL    HW2 1680   2.984   0.507   2.247  0.9634 -0.6574 -0.4127
  561SOL     OW 1681   0.528   0.671   0.458  0.2996  0.2335  0.7783
  561SOL    HW1 1682   0.495   0.603   0.391  1.1618  2.7703 -0.3495
  561SOL    HW2 1683   0.481   0.666   0.546  0.2349 -1.6916  1.4396
  562SOL     OW 1684   1.023   1.430   1.325  0.0727  0.2869 -0.2681
  562SOL    HW1 1685   1.050   1.473   1.414  1.3981  0.1245 -0.1217
  562SOL    HW2 1686   0.948   1.359   1.338 -2.9661 -1.9924 -0.8715
  563SOL     OW 1687   1.425   2.646   2.974 -0.0498 -0.3350 -0.4555
  563SOL    HW1 1688   1.424   2.636   3.079  1.7163 -0.6880  0.1990
  563SOL    HW2 1689   1.348   2.703   2.945  1.9206  0.7981 -1.8480
  564SOL     OW 1690   0.245   2.195   0.970  0.5321  0.5894 -0.7797
  564SOL    HW1 1691   0.211   2.152   1.056 -0.6031  0.8095 -1.0445
  564SOL    HW2 1692   0.338   2.159   0.949 -0.2213 -0.2634 -1.6420
  565SOL     OW 1693   0.716   2.183   2.234 -0.5447 -0.6075  0.3160
  565SOL    HW1 1694   0.648   2.131   2.174  2.2816 -2.5815  0.2251
  565SOL    HW2 1695   0.739   2.268   2.185 -1.5098  0.8313  0.5938
  566SOL     OW 1696   1.090   2.587   2.408  0.2533  0.4822  0.2588
  566SOL    HW1 1697   1.147   2.569   2.491  1.5248 -1.4259  1.4479
  566SOL    HW2 1698   1.024   2.506   2.401  1.6665 -0.3181  2.5279
  567SOL     OW 1699   2.178   2.292   0.920 -0.2576 -0.0246  0.0685
  567SOL    HW1 1700   2.257   2.233   0.928 -0.6283 -1.4587 -4.0916
  567SOL    HW2 1701   2.099   2.244   0.872 -4.3448  1.9561  0.0952
  568SOL     OW 1702   1.997   0.868   0.374 -0.0980  0.1320 -0.2063
  568SOL    HW1 1703   2.017   0.959   0.335  0.6057 -1.2832  0.4545
  568SOL    HW2 1704   2.016   0.872   0.477  1.0651  1.6067  5.1283
  569SOL     OW 1705   0.066   1.554   2.679 -0.6103  0.2916 -0.3452
  569SOL    HW1 1706   0.086   1.571   2.580  1.4437 -3.5848 -0.1268
  569SOL    HW2 1707   0.033   1.460   2.698  1.9815 -2.0351 -2.0012
  570SOL     OW 1708   3.088   0.030   1.283 -0.4540 -0.1767 -0.1027
  570SOL    HW1 1709   3.064   0.084   1.367 -0.8932 -0.3622 -1.8006
  570SOL    HW2 1710   3.085   3.033   1.310 -3.0836  2.9953  3.0619
  571SOL     OW 1711   0.136   0.453   1.481 -0.4469  0.1095  0.1457
  571SOL    HW1 1712   0.141   0.541   1.431 -1.3009 -1.5130 -1.1884
  571SOL    HW2 1713   0.039   0.418   1.481  1.9346  0.5293 -1.5889
  572SOL     OW 1714   2.943   2.535   0.769  0.2411 -0.6319  0.3617
  572SOL    HW1 1715   2.914   2.454   0.822 -0.2153  1.8389 -0.9825
  572SOL    HW2 1716   3.029   2.519   0.719 -3.0963  0.0148 -1.0428
  573SOL     OW 1717   0.802   0.869   0.002 -0.2368 -1.0743  0.0888
  573SOL    HW1 1718   0.755   0.777   3.088  1.4663 -2.3865  0.7571
  573SOL    HW2 1719   0.788   0.930   3.017 -0.3390  0.0150 -0.4062
  574SOL     OW 1720   2.871   2.558   2.917  0.3289  0.1945 -0.1135
  574SOL    HW1 1721   2.812   2.593   2.842  4.0681 -1.1081  1.0419
  574SOL    HW2 1722   2.934   2.634   2.949  1.6411  1.8688  2.4380
  575SOL     OW 1723   1.131   2.352   1.250 -0.6931  0.5064  0.4034
  575SOL    HW1 1724   1.076   2.348   1.162 -0.1449  0.9381 -3.3206
  575SOL    HW2 1725   1.216   2.289   1.247  3.2948 -1.1232  0.4605
  576SOL     OW 1726   0.247   2.936   1.166  0.1245 -0.0031  0.3028
  576SOL    HW1 1727   0.247   2.837   1.172 -1.4044  2.6197 -2.4144
  576SOL    HW2 1728   0.176   2.970   1.095 -1.3412  0.1035  0.8221
  577SOL     OW 1729   2.218   1.591   1.110  0.1157  0.0793 -0.1761
  577SOL    HW1 1730   2.182   1.511   1.063  0.6766  3.7299  1.3977
  577SOL    HW2 1731   2.283   1.641   1.049  0.9867 -1.8614 -0.7538
  578SOL     OW 1732   1.660   0.308   0.274  0.3721 -0.1743 -0.3990
  578SOL    HW1 1733   1.558   0.289   0.296  0.8795  0.0734  4.5598
  578SOL    HW2 1734   1.722   0.279   0.348 -0.9411 -0.9763  0.4304
  579SOL     OW 1735   2.678   1.331   2.491 -0.6292  0.0240  0.0222
  579SOL    HW1 1736   2.674   1.430   2.473  0.0693  1.4901 -0.9558
  579SOL    HW2 1737   2.597   1.293   2.546 -2.6853 -1.6914  0.4416
  580SOL     OW 1738   1.802   0.940   1.588  0.6692  0.0635 -0.3232
  580SOL    HW1 1739   1.879   0.897   1.633  0.9969  1.8718 -1.9227
  580SOL    HW2 1740   1.756   0.871   1.533 -2.6403 -0.3860 -0.4944
  581SOL     OW 1741   0.826   1.231   1.373  0.0261  0.1866 -0.0648
  581SOL    HW1 1742   0.761   1.175   1.432  1.3596  0.1918  0.5895
  581SOL    HW2 1743   0.904   1.177   1.333 -1.5306 -2.0045  0.9503
  582SOL     OW 1744   0.067   0.045   1.915 -0.1674  0.7468  0.0170
  582SOL    HW1 1745   0.064   0.067   2.013  4.4713 -2.0171 -0.4962
  582SOL    HW2 1746   0.045   0.127   1.858 -0.6469 -0.4163  1.8456
  583SOL     OW 1747   2.151   0.543   1.674  0.1467  0.6344 -0.0901
  583SOL    HW1 1748   2.181   0.497   1.756  0.8490  1.2847  1.8318
  583SOL    HW2 1749   2.223   0.540   1.601 -0.8122 -0.1687  2.0928
  584SOL     OW 1750   1.442   1.972   2.699  0.1398  0.5856  0.1526
  584SOL    HW1 1751   1.523   1.929   2.666 -0.9919  1.0176  0.4387
  584SOL    HW2 1752   1.374   1.958   2.626 -0.9912  0.2402  1.6785
  585SOL     OW 1753   0.349   3.070   0.340 -0.0659 -0.3729  0.0874
  585SOL    HW1 1754   0.358   3.006   0.418  2.1406 -0.2698 -1.5314
  585SOL    HW2 1755   0.383   3.027   0.252  1.4710 -1.3024  1.5935
  586SOL     OW 1756   1.830   2.190   2.486 -0.1378 -0.4741  0.6531
  586SOL    HW1 1757   1.868   2.150   2.570  1.8249 -1.2356 -0.1866
  586SOL    HW2 1758   1.802   2.119   2.420 -0.9532 -1.4685 -0.6157
  587SOL     OW 1759   2.679   2.090   0.577 -0.1232 -0.0244 -0.7854
  587SOL    HW1 1760   2.597   2.036   0.562  3.2975 -0.4066  3.7917
  587SOL    HW2 1761   2.659   2.145   0.659 -1.6785 -2.4032  1.2509
  588SOL     OW 1762   2.437   0.230   1.141  0.3754  0.0713 -0.4458
  588SOL    HW1 1763   2.525   0.276   1.157 -2.0483 -0.9486  1.8160
  588SOL    HW2 1764   2.373   0.302   1.116  2.9157 -0.2156  0.1928
  589SOL     OW 1765   0.734   0.721   0.728 -0.1637 -0.5710  0.4994
  589SOL    HW1 1766   0.680   0.806   0.733 -0.1918  2.5273  0.0872
  589SOL    HW2 1767   0.741   0.692   0.631 -1.9081 -0.2105  2.0486
  590SOL     OW 1768   2.527   1.696   0.628 -0.0064 -0.2390  0.7301
  590SOL    HW1 1769   2.543   1.659   0.533  0.9611 -0.1074 -0.0672
  590SOL    HW2 1770   2.567   1.635   0.694 -1.3141  1.1640 -0.7231
  591SOL     OW 1771   0.299   2.654   1.210  0.4294  0.0292  0.5299
  591SOL    HW1 1772   0.389   2.668   1.167 -1.1299 -2.1281  1.9536
  591SOL    HW2 1773   0.262   2.564   1.188  0.8465 -0.8576 -1.0504
  592SOL     OW 1774   1.015   0.877   1.460 -0.3305 -0.2472 -0.3974
  592SOL    HW1 1775   0.967   0.868   1.548 -0.7337 -0.4429 -0.1531
  592SOL    HW2 1776   1.116   0.865   1.470  1.8488  0.1760 -0.6578
  593SOL     OW 1777   0.646   1.513   1.025  0.7935 -0.5683 -0.1040
  593SOL    HW1 1778   0.707   1.471   0.955  1.3506  1.1095  0.2421
  593SOL    HW2 1779   0.649   1.613   1.025  1.2805  0.6113  1.3960
  594SOL     OW 1780   0.983   2.133   0.347 -1.2948  0.1616  0.3662
  594SOL    HW1 1781   0.894   2.174   0.322  0.9779  2.3484 -1.8570
  594SOL    HW2 1782   0.969   2.035   0.378  0.1048 -1.8138  2.9059
  595SOL     OW 1783   1.534   0.222   1.094  0.0854  0.0252 -0.0984
  595SOL    HW1 1784   1.430   0.222   1.100 -3.7368  0.1255  1.0622
  595SOL    HW2 1785   1.564   0.255   1.001  1.9655 -0.4494 -1.6983
  596SOL     OW 1786   3.048   1.684   0.998  0.8259 -0.1466  0.2431
  596SOL    HW1 1787   3.012   1.691   1.093  2.4084 -1.3536  2.9492
  596SOL    HW2 1788   0.034   1.628   1.005 -1.8517  1.8769 -1.5298
  597SOL     OW 1789   0.215   2.267   2.807 -0.0335  0.7130  0.5423
  597SOL    HW1 1790   0.114   2.262   2.804  0.2498 -0.2065 -1.8613
  597SOL    HW2 1791   0.246   2.341   2.867 -0.4492 -0.7417  1.1272
  598SOL     OW 1792   2.845   2.070   2.131 -0.5821  0.4943  0.7251
  598SOL    HW1 1793   2.842   2.018   2.221  0.9169 -1.3907  0.3677
  598SOL    HW2 1794   2.801   2.157   2.139 -0.8627 -3.2393  0.6229
  599SOL     OW 1795   0.941   0.531   0.002 -0.0062 -0.2174 -0.1743
  599SOL    HW1 1796   0.857   0.581   3.080 -0.3809 -0.0787  1.9529
  599SOL    HW2 1797   0.933   0.446   3.042  0.1774 -2.1932  1.0411
  600SOL     OW 1798   0.723   2.671   0.261  0.1385 -0.2688  0.0360
  600SOL    HW1 1799   0.751   2.755   0.210  0.7007 -1.0222 -0.2069
  600SOL    HW2 1800   0.630   2.665   0.296  0.2494 -0.1800 -2.6366
  601SOL     OW 1801   0.353   0.913   1.324 -0.2042 -0.3144  0.3431
  601SOL    HW1 1802   0.426   0.970   1.285 -0.5743  1.7609 -0.1194
  601SOL    HW2 1803   0.324   0.842   1.255 -1.2217 -0.7273 -1.7141
  602SOL     OW 1804   0.635   2.711   0.802 -0.6266 -0.2489  0.5220
  602SOL    HW1 1805   0.595   2.633   0.756  0.0600  1.9281  5.1921
  602SOL    HW2 1806   0.718   2.684   0.859 -0.2037 -1.0761 -0.2309
  603SOL     OW 1807   1.009   0.057   2.102 -0.2098 -0.1161  0.0100
  603SOL    HW1 1808   1.012   3.066   2.050 -1.1506  1.4348 -0.3262
  603SOL    HW2 1809   0.934   0.107   2.066 -0.4842  0.2326  0.1017
  604SOL     OW 1810   0.790   2.623   1.818 -0.2517  0.4741  0.1430
  604SOL    HW1 1811   0.767   2.623   1.715 -0.0203 -0.2137 -1.2989
  604SOL    HW2 1812   0.707   2.650   1.872  0.5780 -1.0609 -0.0381
  605SOL     OW 1813   1.967   0.669   2.076  0.7457 -0.3550  0.1721
  605SOL    HW1 1814   1.999   0.754   2.025 -0.4154  0.8748  0.0067
  605SOL    HW2 1815   1.893   0.686   2.144  0.8169 -0.0064  0.1192
  606SOL     OW 1816   2.315   2.882   2.758  0.4784 -0.0884  0.1013
  606SOL    HW1 1817   2.303   2.923   2.849  1.7233  0.4096  1.4863
  606SOL    HW2 1818   2.400   2.921   2.722  0.2596 -1.2498 -0.5804
  607SOL     OW 1819   0.777   0.767   1.415 -0.7938  0.0090  0.2505
  607SOL    HW1 1820   0.714   0.779   1.492  1.3923 -0.4595  2.5200
  607SOL    HW2 1821   0.858   0.826   1.431  2.0145 -2.7273 -0.8755
  608SOL     OW 1822   0.214   1.934   2.682 -0.0481  0.0014  0.0852
  608SOL    HW1 1823   0.252   2.007   2.620  0.8551  2.3689  1.0027
  608SOL    HW2 1824   0.283   1.867   2.714 -0.4194 -0.8774  1.4836
  609SOL     OW 1825   1.492   1.071   0.115 -0.2772  0.2333 -0.1295
  609SOL    HW1 1826   1.454   1.089   0.205  1.0862 -1.9297 -0.9342
  609SOL    HW2 1827   1.450   1.138   0.045 -0.0110 -1.4188 -3.6541
  610SOL     OW 1828   0.565   0.480   1.318 -0.8937 -0.6115 -0.0788
  610SOL    HW1 1829   0.556   0.381   1.343 -0.8829  0.2363  1.0818
  610SOL    HW2 1830   0.653   0.487   1.263 -1.0045  0.8859  1.5095
  611SOL     OW 1831   1.478   0.737   0.924 -0.0664 -0.5747  0.4057
  611SOL    HW1 1832   1.435   0.758   0.835 -1.2950 -0.0601 -0.6624
  611SOL    HW2 1833   1.453   0.806   0.994  1.4136 -1.6756 -0.5203
  612SOL     OW 1834   1.674   0.916   0.012  0.3835  0.4049 -0.4022
  612SOL    HW1 1835   1.584   0.963   0.034  0.7094 -0.0066 -3.2432
  612SOL    HW2 1836   1.732   0.919   0.094  2.4051  1.1396  0.8478
  613SOL     OW 1837   2.267   0.526   0.559 -0.1525 -0.8817 -0.4158
  613SOL    HW1 1838   2.221   0.574   0.481  1.5578 -1.6319  0.9181
  613SOL    HW2 1839   2.278   0.431   0.526 -1.1395 -0.1262  2.3547
  614SOL     OW 1840   2.880   3.059   2.268  0.0681 -0.4776 -0.3707
  614SOL    HW1 1841   2.941   3.003   2.206  0.2450 -0.6166 -0.9887
  614SOL    HW2 1842   2.929   0.045   2.302  2.5940  2.6483 -0.4808
  615SOL     OW 1843   0.886   2.028   1.105 -0.5697 -0.1823 -0.2736
  615SOL    HW1 1844   0.888   1.955   1.177  1.2612 -0.8062  0.7340
  615SOL    HW2 1845   0.791   2.060   1.089  3.2574  1.3229 -1.7333
  616SOL     OW 1846   1.745   1.582   2.608  0.1858 -0.0532  0.3531
  616SOL    HW1 1847   1.814   1.521   2.578 -0.6445  0.6238  1.2078
  616SOL    HW2 1848   1.671   1.534   2.661  0.8672 -0.9060  0.5650
  617SOL     OW 1849   1.420   0.181   2.940  0.0947 -0.3117  0.4887
  617SOL    HW1 1850   1.373   0.238   3.006 -0.8541 -0.7926  0.8239
  617SOL    HW2 1851   1.445   0.092   2.986 -2.2203 -2.2452  1.7095
  618SOL     OW 1852   1.163   2.039   2.621  0.1142  0.5403  0.4085
  618SOL    HW1 1853   1.185   1.982   2.703  0.2490  0.8975  2.1066
  618SOL    HW2 1854   1.142   2.133   2.652 -1.2052 -1.8206  0.6336
  619SOL     OW 1855   2.586   1.496   0.855  0.2307  0.2678  0.8182
  619SOL    HW1 1856   2.679   1.528   0.855  0.6463 -0.7823  1.2474
  619SOL    HW2 1857   2.576   1.397   0.832  2.1559  2.2069  0.1415
  620SOL     OW 1858   1.982   2.737   2.244 -0.2885 -0.4103 -0.2419
  620SOL    HW1 1859   2.008   2.793   2.326 -0.8970  0.6261 -0.9266
  620SOL    HW2 1860   2.053   2.739   2.173 -0.9905  1.2030 -0.1572
  621SOL     OW 1861   2.900   1.319   0.697  0.4471 -0.4751  0.0615
  621SOL    HW1 1862   2.866   1.285   0.787 -2.4504  2.6985  0.0636
  621SOL    HW2 1863   2.999   1.346   0.709  0.6560 -0.4886 -1.0525
  622SOL     OW 1864   1.358   1.861   2.439  0.0722  0.4978 -0.2499
  622SOL    HW1 1865   1.259   1.846   2.413  1.3310 -1.5525 -2.1647
  622SOL    HW2 1866   1.419   1.780   2.410 -0.8904 -2.4904 -0.2175
  623SOL     OW 1867   0.626   2.702   2.419 -0.1386 -0.2484 -0.7566
  623SOL    HW1 1868   0.711   2.719   2.366 -0.7307 -1.1853  0.3403
  623SOL    HW2 1869   0.615   2.601   2.429 -0.0124 -1.0955 -2.5017
  624SOL     OW 1870   0.678   2.628   3.019 -0.0926  0.3173  0.0867
  624SOL    HW1 1871   0.724   2.560   2.962  0.3651  0.2090  2.9409
  624SOL    HW2 1872   0.652   2.593   0.013  2.3519 -0.1805  0.5961
  625SOL     OW 1873   0.267   2.101   2.079 -0.5138 -0.5855  0.3801
  625SOL    HW1 1874   0.249   2.129   1.984  1.0439 -1.2333  0.7355
  625SOL    HW2 1875   0.174   2.093   2.127 -1.8918  0.0444  2.8116
  626SOL     OW 1876   0.059   0.088   2.993  0.3042 -0.0471 -0.4813
  626SOL    HW1 1877   0.007   0.170   3.007  0.8687  0.4031 -4.4401
  626SOL    HW2 1878   0.139   0.100   2.933 -0.8181 -1.8441 -1.9197
  627SOL     OW 1879   2.218   1.632   0.052  0.2422 -0.6063  0.0564
  627SOL    HW1 1880   2.299   1.626   3.084  0.3038 -1.4061  0.8595
  627SOL    HW2 1881   2.129   1.661   0.007 -1.2413  0.1973 -0.2761
  628SOL     OW 1882   1.610   1.850   0.041 -0.3756  0.8084  0.1325
  628SOL    HW1 1883   1.635   1.767   3.081  2.3628 -2.5646 -1.3397
  628SOL    HW2 1884   1.571   1.824   0.127  1.3132  3.4041 -4.1297
  629SOL     OW 1885   0.281   0.213   1.618  0.5552  0.2110  0.5746
  629SOL    HW1 1886   0.219   0.280   1.657 -0.7523  1.6044 -0.0563
  629SOL    HW2 1887   0.257   0.200   1.520  0.3152  0.4840 -0.7511
  630SOL     OW 1888   2.349   0.911   1.624  0.3694  0.4147  0.1964
  630SOL    HW1 1889   2.259   0.904   1.569 -4.6771  2.5164  1.1678
  630SOL    HW2 1890   2.338   0.859   1.711 -1.7533  2.0338  1.3299
  631SOL     OW 1891   2.022   0.030   0.545  0.7314  1.1858  0.4189
  631SOL    HW1 1892   2.087   0.045   0.470  1.7589  1.1474  0.0172
  631SOL    HW2 1893   2.064   3.066   0.619  1.6699  1.0915  0.2544
  632SOL     OW 1894   2.828   0.720   1.916 -0.1420  0.0275  0.0892
  632SOL    HW1 1895   2.822   0.794   1.844  0.0821  1.9496 -0.6394
  632SOL    HW2 1896   2.763   0.732   1.995 -1.5420  3.7116 -0.0804
  633SOL     OW 1897   0.841   0.519   2.733 -0.0457  0.3129 -0.2681
  633SOL    HW1 1898   0.900   0.445   2.764 -2.0609 -0.1124  0.3899
  633SOL    HW2 1899   0.868   0.607   2.776 -0.1919 -1.5460 -0.5061
  634SOL     OW 1900   0.480   2.753   2.891  0.4872  0.1556  0.7035
  634SOL    HW1 1901   0.538   2.687   2.942 -3.4620 -2.7000 -0.3797
  634SOL    HW2 1902   0.387   2.758   2.939 -0.8279 -1.8819  2.6611
  635SOL     OW 1903   0.074   1.380   1.218  0.2918  0.2238 -0.4264
  635SOL    HW1 1904   0.098   1.432   1.134  0.8013 -0.5018 -1.0075
  635SOL    HW2 1905   0.071   1.281   1.209 -1.5189  3.1816 -0.5829
  636SOL     OW 1906   0.142   1.487   3.074 -0.2081  0.1766 -0.5061
  636SOL    HW1 1907   0.121   1.404   0.029 -0.4646 -0.8199  1.3007
  636SOL    HW2 1908   0.216   1.473   3.007 -0.5134 -2.2888  1.2164
  637SOL     OW 1909   0.249   2.747   0.199 -0.4285 -0.1698  0.7124
  637SOL    HW1 1910   0.180   2.702   0.142  3.0295  0.8662  0.7072
  637SOL    HW2 1911   0.236   2.737   0.298  1.9347 -0.9485 -2.1543
  638SOL     OW 1912   2.768   2.510   0.568  0.4037  0.3002  0.1778
  638SOL    HW1 1913   2.789   2.576   0.491  1.2088 -1.1824 -2.1063
  638SOL    HW2 1914   2.826   2.519   0.654  2.3763  0.9121 -0.8463
  639SOL     OW 1915   1.096   1.126   0.314 -0.3901 -0.3269 -0.2568
  639SOL    HW1 1916   1.055   1.209   0.272  1.5267 -2.5849 -0.7661
  639SOL    HW2 1917   1.069   1.048   0.257 -1.4931 -0.5010 -2.8649
  640SOL     OW 1918   1.888   2.467   1.650  0.2128 -0.0826  0.1284
  640SOL    HW1 1919   1.813   2.398   1.663 -0.6448  1.2607  1.5378
  640SOL    HW2 1920   1.941   2.446   1.568  0.4864  0.2041  0.4535
  641SOL     OW 1921   3.070   0.154   0.530  0.1892 -0.3737  0.0177
  641SOL    HW1 1922   3.017   0.125   0.615 -0.6310  1.4919 -0.1764
  641SOL    HW2 1923   3.094   0.251   0.538  1.9543 -3.2025  1.8911
  642SOL     OW 1924   1.217   0.845   1.755  0.5613 -0.0021 -0.1650
  642SOL    HW1 1925   1.274   0.829   1.842  3.2336 -0.1187 -0.2531
  642SOL    HW2 1926   1.243   0.938   1.718  1.8373  2.1011 -0.6034
  643SOL     OW 1927   0.818   1.906   2.579 -0.7175  0.3836 -0.6683
  643SOL    HW1 1928   0.846   1.993   2.536 -2.8148 -1.6489  0.7068
  643SOL    HW2 1929   0.770   1.924   2.670  0.9361  1.9820  1.1780
  644SOL     OW 1930   1.131   2.290   2.761 -0.0494 -0.1397 -0.2480
  644SOL    HW1 1931   1.137   2.255   2.856 -2.1854 -0.7204 -0.9711
  644SOL    HW2 1932   1.183   2.378   2.755  1.9064  0.3690  3.0060
  645SOL     OW 1933   1.476   1.244   1.752 -0.0070  0.2432 -0.0701
  645SOL    HW1 1934   1.566   1.202   1.759 -4.0048  3.3520 -0.5962
  645SOL    HW2 1935   1.411   1.178   1.710  0.9018 -2.7056  1.4817
  646SOL     OW 1936   0.820   2.877   2.971  0.2568 -0.4623  0.0102
  646SOL    HW1 1937   0.741   2.815   2.986 -2.4181 -0.6631 -0.6191
  646SOL    HW2 1938   0.796   2.945   2.897 -0.8113  0.2271 -2.0874
  647SOL     OW 1939   0.765   3.088   0.404 -0.2410 -0.0073  0.0091
  647SOL    HW1 1940   0.705   3.024   0.461  0.6520 -1.2452  5.5151
  647SOL    HW2 1941   0.861   3.088   0.440 -0.3430 -0.0975  0.2498
  648SOL     OW 1942   2.789   2.785   1.422 -0.0912 -0.9766 -0.5570
  648SOL    HW1 1943   2.733   2.777   1.338 -1.2304  2.0302  0.6610
  648SOL    HW2 1944   2.792   2.697   1.471 -0.8383  1.5526 -2.2018
  649SOL     OW 1945   0.768   2.423   2.869  0.3321  0.2909 -0.4674
  649SOL    HW1 1946   0.833   2.394   2.792 -0.8672 -0.5969 -0.3434
  649SOL    HW2 1947   0.678   2.382   2.852  0.9090  0.5306 -1.8784
  650SOL     OW 1948   2.328   2.122   2.062 -0.4384 -0.0463 -0.0828
  650SOL    HW1 1949   2.292   2.127   2.155 -2.0760 -1.6882  0.3591
  650SOL    HW2 1950   2.378   2.205   2.042  0.8869  0.7233 -0.9113
  651SOL     OW 1951   2.940   2.632   2.411  0.0523  0.7571  0.2717
  651SOL    HW1 1952   3.040   2.624   2.385  3.5854  1.1579 -2.3655
  651SOL    HW2 1953   2.927   2.705   2.479  0.4139  3.2540 -0.9080
  652SOL     OW 1954   2.946   1.994   0.574  0.6544  0.7757 -0.4492
  652SOL    HW1 1955   2.965   1.976   0.674 -3.3523 -2.4106  1.5683
  652SOL    HW2 1956   2.847   2.024   0.575 -0.8093  1.4882 -1.4074
  653SOL     OW 1957   2.557   0.913   1.159  0.5542  0.1945  0.4869
  653SOL    HW1 1958   2.563   0.900   1.261  2.2224 -1.4468  0.1524
  653SOL    HW2 1959   2.474   0.864   1.122 -3.5716 -2.0892  0.0483
  654SOL     OW 1960   0.920   0.317   2.915  0.6712 -0.0312 -0.3796
  654SOL    HW1 1961   0.996   0.266   2.876 -2.0485  0.9627 -0.9257
  654SOL    HW2 1962   0.824   0.274   2.898  0.5217 -2.8042  1.1254
  655SOL     OW 1963   0.835   0.376   1.507 -0.3873 -0.3429  0.0380
  655SOL    HW1 1964   0.880   0.454   1.454 -0.1375  0.8862 -0.6484
  655SOL    HW2 1965   0.861   0.290   1.455  2.1668  0.5991  1.2681
  656SOL     OW 1966   0.271   2.579   2.116 -0.3765 -0.1805 -0.0501
  656SOL    HW1 1967   0.323   2.557   2.032  1.1061  3.1325  0.1184
  656SOL    HW2 1968   0.256   2.679   2.119 -0.3241  0.6697  0.8711
  657SOL     OW 1969   2.289   0.492   0.101 -0.0864 -0.1495 -0.1431
  657SOL    HW1 1970   2.289   0.552   0.186 -0.5414  1.2679 -0.3660
  657SOL    HW2 1971   2.327   0.550   0.028  1.5243  1.6740 -0.8252
  658SOL     OW 1972   2.079   1.827   1.061 -0.0012  0.7746  0.0733
  658SOL    HW1 1973   2.101   1.904   1.120 -0.1010  0.7843 -0.1634
  658SOL    HW2 1974   2.150   1.755   1.066 -1.2430  0.0747  2.2631
  659SOL     OW 1975   2.765   2.204   2.773 -0.1179 -0.4360 -0.0541
  659SOL    HW1 1976   2.720   2.290   2.773  2.2098 -0.2132 -2.3143
  659SOL    HW2 1977   2.859   2.218   2.815  2.2545 -0.4185  0.1737
  660SOL     OW 1978   1.072   0.127   0.068  0.0177  0.1468  0.4426
  660SOL    HW1 1979   1.145   0.192   0.047 -2.1813  1.0199  0.6172
  660SOL    HW2 1980   0.994   0.175   0.112 -0.7689 -0.9015 -0.8320
  661SOL     OW 1981   2.189   0.004   0.310  0.0616  0.1855 -0.0952
  661SOL    HW1 1982   2.120   0.037   0.242 -2.2670  1.5224 -0.8831
  661SOL    HW2 1983   2.277   3.079   0.261 -0.7857 -1.6285 -1.1246
  662SOL     OW 1984   0.525   0.082   0.840  0.4812 -0.0506 -0.7006
  662SOL    HW1 1985   0.472   0.163   0.821  1.1709 -3.8725  1.2717
  662SOL    HW2 1986   0.498   3.089   0.790  1.6271  1.2376  2.2248
  663SOL     OW 1987   1.339   0.414   2.299 -0.5297 -0.3187  0.0587
  663SOL    HW1 1988   1.314   0.347   2.226 -1.4107  2.7489 -2.0932
  663SOL    HW2 1989   1.254   0.452   2.353 -1.3850  3.2819  2.4692
  664SOL     OW 1990   0.739   2.932   1.387  0.2166  0.6953 -0.4184
  664SOL    HW1 1991   0.669   2.861   1.370 -2.2953  1.0805 -0.7861
  664SOL    HW2 1992   0.689   3.011   1.435 -3.6217  0.6061 -0.3792
  665SOL     OW 1993   1.021   2.171   1.903  0.0891 -0.2304  0.0549
  665SOL    HW1 1994   1.017   2.265   1.864 -0.7703 -1.0513 -1.9710
  665SOL    HW2 1995   1.064   2.168   1.999 -0.9182 -1.9204  0.9183
  666SOL     OW 1996   0.402   3.023   2.625 -1.1418 -0.0072  0.0785
  666SOL    HW1 1997   0.477   2.955   2.630  2.3049 -0.0755  0.6760
  666SOL    HW2 1998   0.311   2.981   2.621  2.1697  1.0466  3.7614
  667SOL     OW 1999   1.653   1.663   1.410 -0.0844 -0.0969 -0.4821
  667SOL    HW1 2000   1.623   1.608   1.492 -2.4616  1.1974  2.0765
  667SOL    HW2 2001   1.752   1.648   1.391  1.0084 -0.0693 -3.0530
  668SOL     OW 2002   1.708   0.538   1.665 -0.3783 -0.6320 -0.9174
  668SOL    HW1 2003   1.780   0.473   1.694 -2.5958  2.1210  0.3388
  668SOL    HW2 2004   1.625   0.491   1.637  1.3779 -1.3124  0.5249
  669SOL     OW 2005   2.466   2.482   1.515 -0.0185 -0.3617  0.0372
  669SOL    HW1 2006   2.473   2.383   1.526  1.7167  1.4802 -0.9672
  669SOL    HW2 2007   2.398   2.509   1.442 -2.0328  0.4762 -1.1777
  670SOL     OW 2008   1.451   2.245   2.678 -0.5331  0.3182 -0.1294
  670SOL    HW1 2009   1.439   2.152   2.708 -0.6704  0.6790 -2.1662
  670SOL    HW2 2010   1.432   2.312   2.749  0.2314 -0.1752 -1.9815
  671SOL     OW 2011   0.990   1.148   0.557 -1.0991 -0.1828 -0.0712
  671SOL    HW1 2012   1.064   1.173   0.625  0.3435 -0.7790  2.4660
  671SOL    HW2 2013   1.033   1.133   0.468  0.4823 -0.8351  2.1922
  672SOL     OW 2014   0.005   1.090   2.513  0.0431  0.0599  0.1853
  672SOL    HW1 2015   3.007   1.105   2.541 -1.1529  0.8038  0.5911
  672SOL    HW2 2016   0.025   0.989   2.515  2.3256 -1.8473  0.3716
  673SOL     OW 2017   2.840   1.910   1.400 -0.1513  0.4188 -0.6990
  673SOL    HW1 2018   2.844   2.003   1.434 -0.2024 -3.1051 -3.3474
  673SOL    HW2 2019   2.786   1.854   1.466 -3.8670  0.9209 -1.1571
  674SOL     OW 2020   0.592   2.301   1.899  0.1204  0.2868  0.1242
  674SOL    HW1 2021   0.528   2.341   1.827 -1.9293  2.1158 -3.4313
  674SOL    HW2 2022   0.627   2.380   1.954 -0.1560  3.2999  0.6229
  675SOL     OW 2023   0.894   0.857   1.702 -0.3237  0.1758 -0.0767
  675SOL    HW1 2024   0.819   0.822   1.759  0.7937  1.2781 -0.9021
  675SOL    HW2 2025   0.968   0.890   1.770  3.1121  0.0432  0.8066
  676SOL     OW 2026   2.271   0.430   1.063 -0.3834 -0.4292  0.4622
  676SOL    HW1 2027   2.263   0.452   0.961 -0.0144  1.5880 -0.1861
  676SOL    HW2 2028   2.348   0.483   1.106 -0.1526 -0.3040  0.9317
  677SOL     OW 2029   2.454   1.249   3.051 -0.2297 -0.7094 -0.3490
  677SOL    HW1 2030   2.389   1.273   0.030  0.3995 -1.3336 -0.8789
  677SOL    HW2 2031   2.426   1.278   2.962  0.5239 -0.4095  2.3393
  678SOL     OW 2032   2.900   0.796   1.235  0.3521 -0.0850  0.5558
  678SOL    HW1 2033   2.993   0.824   1.245 -2.1429 -2.6489  0.5638
  678SOL    HW2 2034   2.836   0.864   1.281 -0.9938  1.1272  0.2961
  679SOL     OW 2035   2.420   0.278   0.175 -0.1057 -0.6543  0.1551
  679SOL    HW1 2036   2.509   0.319   0.203  1.1552  0.3101 -0.4386
  679SOL    HW2 2037   2.359   0.351   0.133 -1.1631 -0.8591  0.3538
  680SOL     OW 2038   0.013   1.719   1.912  0.2589  0.4356 -0.3372
  680SOL    HW1 2039   0.112   1.707   1.917 -3.2022 -1.6726 -1.5288
  680SOL    HW2 2040   3.061   1.629   1.920 -0.6710 -2.3585 -1.3051
  681SOL     OW 2041   2.011   2.258   1.398 -0.0654  0.5283 -0.1936
  681SOL    HW1 2042   1.960   2.173   1.420  1.3173  1.1367 -1.9005
  681SOL    HW2 2043   1.968   2.298   1.316 -0.7061  3.0167  3.2731
  682SOL     OW 2044   0.312   1.785   3.031 -0.3136  0.0179  0.1630
  682SOL    HW1 2045   0.285   1.869   2.981 -0.9589  0.0520  2.3562
  682SOL    HW2 2046   0.292   1.701   2.977 -1.0261 -0.5360 -0.1200
  683SOL     OW 2047   0.075   2.142   1.566 -0.0763 -0.2000 -0.4441
  683SOL    HW1 2048   0.126   2.193   1.490  0.5036  1.2147 -1.9415
  683SOL    HW2 2049   3.085   2.106   1.534  0.8184 -1.7211  0.7123
  684SOL     OW 2050   2.751   1.215   2.247  0.1159 -0.2472 -0.1678
  684SOL    HW1 2051   2.719   1.280   2.178  0.7724 -0.3077 -0.1975
  684SOL    HW2 2052   2.718   1.244   2.340  0.5834 -2.5941 -0.0216
  685SOL     OW 2053   1.504   1.007   0.602  0.6962 -0.6348 -0.3905
  685SOL    HW1 2054   1.494   1.056   0.693 -0.7786  0.1539  1.7761
  685SOL    HW2 2055   1.474   0.911   0.612  0.9769  1.5500 -2.4776
  686SOL     OW 2056   0.525   0.393   0.561  0.0184 -0.4310  0.8036
  686SOL    HW1 2057   0.614   0.428   0.526 -2.2868  0.4830  3.0573
  686SOL    HW2 2058   0.502   0.307   0.514 -1.3736  0.4967  2.6747
  687SOL     OW 2059   0.950   2.064   2.957 -0.5109  0.0659 -0.0319
  687SOL    HW1 2060   0.909   2.120   3.035 -3.0133  1.2998  1.8544
  687SOL    HW2 2061   0.867   2.022   2.913 -1.6790 -0.8349  1.2935
  688SOL     OW 2062   1.740   1.143   1.451 -0.0028  0.1828  0.3217
  688SOL    HW1 2063   1.654   1.193   1.469 -0.2130  0.9118  1.3668
  688SOL    HW2 2064   1.767   1.074   1.527 -0.3856 -1.4351  0.3800
  689SOL     OW 2065   1.951   0.291   0.828  0.1263  0.0349  0.2737
  689SOL    HW1 2066   2.033   0.242   0.791 -0.7792  0.7574  1.6646
  689SOL    HW2 2067   1.946   0.380   0.783  0.8846  0.1317 -1.0859
  690SOL     OW 2068   0.079   1.359   0.768 -0.1678 -0.1620 -0.0044
  690SOL    HW1 2069   0.113   1.264   0.777  3.0652 -3.1441  0.3634
  690SOL    HW2 2070   0.116   1.404   0.688 -1.8489  0.4712  2.3769
  691SOL     OW 2071   0.234   2.217   1.361 -0.7204 -0.3496  0.3806
  691SOL    HW1 2072   0.227   2.132   1.312  1.2502  0.5493  2.6120
  691SOL    HW2 2073   0.270   2.298   1.309  0.0275 -1.7990  1.1219
  692SOL     OW 2074   1.836   0.329   1.323  0.1250  0.0412 -0.3072
  692SOL    HW1 2075   1.879   0.283   1.403 -1.7780  2.0171  0.9272
  692SOL    HW2 2076   1.904   0.344   1.244  2.7334  1.1426  1.0724
  693SOL     OW 2077   0.536   1.718   2.213  0.1345  0.1453  0.1807
  693SOL    HW1 2078   0.515   1.789   2.145 -1.7597 -0.5496 -1.6386
  693SOL    HW2 2079   0.624   1.733   2.257 -0.6693 -1.9318 -3.3063
  694SOL     OW 2080   1.885   1.393   1.162 -0.4732  0.1646  0.0281
  694SOL    HW1 2081   1.902   1.494   1.137 -0.9461  2.2725 -1.5523
  694SOL    HW2 2082   1.971   1.342   1.148  1.4447  0.6383 -0.5834
  695SOL     OW 2083   1.328   0.808   0.690 -0.0949 -0.7861  0.1220
  695SOL    HW1 2084   1.273   0.740   0.640  1.4858 -0.5920  0.5463
  695SOL    HW2 2085   1.277   0.855   0.764 -1.8973 -2.0974  0.9266
  696SOL     OW 2086   0.485   0.197   0.379 -0.1276  0.1551 -0.4119
  696SOL    HW1 2087   0.424   0.116   0.369 -3.0890  2.2766  2.6407
  696SOL    HW2 2088   0.562   0.199   0.310  3.1382  0.4094  0.6307
  697SOL     OW 2089   1.883   0.732   1.210  0.0496  0.0446 -0.4723
  697SOL    HW1 2090   1.813   0.662   1.232  0.1441 -1.7241 -3.0943
  697SOL    HW2 2091   1.950   0.736   1.286  2.6683 -1.0588  0.4709
  698SOL     OW 2092   1.609   1.195   2.223  0.2355  0.0334 -0.0038
  698SOL    HW1 2093   1.517   1.181   2.271 -0.2021  0.5412 -0.4184
  698SOL    HW2 2094   1.610   1.279   2.170  3.0810  1.8175  1.8158
  699SOL     OW 2095   2.758   0.325   1.796 -0.2388  0.2855 -0.2613
  699SOL    HW1 2096   2.736   0.351   1.892 -0.3871  0.8455  0.2286
  699SOL    HW2 2097   2.668   0.305   1.750 -0.8066  0.7050  1.6930
  700SOL     OW 2098   1.618   2.257   0.663 -0.4346 -0.0925 -0.0722
  700SOL    HW1 2099   1.610   2.344   0.716 -0.8974  0.4139  1.8479
  700SOL    HW2 2100   1.533   2.198   0.672 -1.0297 -1.9557 -0.4284
  701SOL     OW 2101   2.554   2.036   2.386 -0.5385 -0.3875  0.2445
  701SOL    HW1 2102   2.547   1.949   2.329 -0.3804  0.0760 -1.4853
  701SOL    HW2 2103   2.605   2.017   2.477  1.4700 -0.4937  1.0441
  702SOL     OW 2104   0.630   2.893   0.550 -0.2516  0.4207 -0.1259
  702SOL    HW1 2105   0.583   2.922   0.632  0.4473 -0.9804 -2.8121
  702SOL    HW2 2106   0.570   2.821   0.507 -0.5873 -0.9591 -1.6157
  703SOL     OW 2107   1.819   2.933   2.100  0.1205  0.5645 -0.3467
  703SOL    HW1 2108   1.876   2.949   2.016 -0.5235 -2.4209 -0.0626
  703SOL    HW2 2109   1.860   2.860   2.156  2.5448  2.4345 -3.0097
  704SOL     OW 2110   2.727   2.281   0.151  0.0128 -0.2758 -0.4934
  704SOL    HW1 2111   2.732   2.278   0.251 -0.0626 -1.6837 -2.5524
  704SOL    HW2 2112   2.808   2.238   0.112 -2.8512  0.3416  1.7505
  705SOL     OW 2113   2.708   2.498   2.460 -0.1798 -0.0255 -0.3645
  705SOL    HW1 2114   2.799   2.540   2.435  2.1418 -0.7645 -1.1445
  705SOL    HW2 2115   2.701   2.408   2.416 -0.0550  0.3387  1.3004
  706SOL     OW 2116   2.542   0.213   0.471 -0.1097 -0.1393 -0.0628
  706SOL    HW1 2117   2.576   0.285   0.404  1.2014  0.5155  0.3402
  706SOL    HW2 2118   2.610   0.145   0.490 -2.8285  1.1700  1.2287
  707SOL     OW 2119   1.122   0.494   2.451  0.2650 -0.1768 -0.0405
  707SOL    HW1 2120   1.083   0.403   2.434  1.9416  1.4234 -0.3224
  707SOL    HW2 2121   1.162   0.501   2.545  0.8736 -0.8044  0.5707
  708SOL     OW 2122   0.315   1.939   1.727  0.3797  0.1323  0.0906
  708SOL    HW1 2123   0.265   1.867   1.675 -1.8348  0.3772  0.5057
  708SOL    HW2 2124   0.254   2.013   1.759 -1.4869 -0.2449  0.1578
  709SOL     OW 2125   1.266   2.974   1.570  0.2000 -0.2145  0.3070
  709SOL    HW1 2126   1.361   2.988   1.538 -3.6374  0.0803  1.1229
  709SOL    HW2 2127   1.264   2.990   1.673  0.1831 -0.3866  0.4148
  710SOL     OW 2128   1.432   2.569   2.537  0.4251 -0.3164 -0.0411
  710SOL    HW1 2129   1.465   2.495   2.474  2.0693  0.1802  0.8554
  710SOL    HW2 2130   1.498   2.585   2.617 -0.1225  1.7235  2.2985
  711SOL     OW 2131   0.904   2.349   2.625  0.1325  0.3712  0.5210
  711SOL    HW1 2132   0.888   2.268   2.563 -1.4334 -0.4327 -1.9559
  711SOL    HW2 2133   0.986   2.328   2.683  2.3319  1.1876  0.1671
  712SOL     OW 2134   1.167   2.031   0.183  0.1547  0.1107  0.3330
  712SOL    HW1 2135   1.123   2.084   0.260  1.7262 -1.1923  0.6304
  712SOL    HW2 2136   1.269   2.039   0.189 -0.4229  0.3587  0.0444
  713SOL     OW 2137   2.286   1.269   1.852 -0.3799  0.6735 -0.5150
  713SOL    HW1 2138   2.244   1.345   1.790  0.0765  0.7692 -0.1787
  713SOL    HW2 2139   2.211   1.198   1.874 -2.2242 -0.4874  1.3701
  714SOL     OW 2140   0.835   1.128   2.013  0.1110  0.5628  0.7642
  714SOL    HW1 2141   0.757   1.112   2.081 -2.2212 -0.0003  1.4238
  714SOL    HW2 2142   0.897   1.047   2.011 -0.4475 -0.3293 -0.6847
  715SOL     OW 2143   2.659   0.369   0.231 -0.1783 -0.2237 -0.3230
  715SOL    HW1 2144   2.736   0.301   0.218  2.4137 -1.4926 -2.3538
  715SOL    HW2 2145   2.683   0.440   0.301 -1.1738  0.1602 -1.1747
  716SOL     OW 2146   3.022   2.876   1.324 -0.3145  0.4778  0.2231
  716SOL    HW1 2147   3.092   2.803   1.345 -0.2217  1.0261 -0.9572
  716SOL    HW2 2148   2.935   2.855   1.372  1.6097  1.8916 -0.5319
  717SOL     OW 2149   2.310   0.876   0.918  0.2439 -0.0394  0.4006
  717SOL    HW1 2150   2.241   0.946   0.880 -1.5993  0.5418 -0.2462
  717SOL    HW2 2151   2.311   0.796   0.854 -0.0108  1.7372  2.1634
  718SOL     OW 2152   1.470   1.257   1.393  0.2651  0.0971  0.2947
  718SOL    HW1 2153   1.394   1.324   1.391 -1.1672 -1.5719  1.9580
  718SOL    HW2 2154   1.535   1.293   1.324 -1.2598  0.3849  1.9187
  719SOL     OW 2155   2.696   2.715   2.753 -0.4809  0.0042 -0.0967
  719SOL    HW1 2156   2.666   2.742   2.845  0.6796 -1.4277  1.4515
  719SOL    HW2 2157   2.629   2.736   2.678  1.2022  0.7221  0.5854
  720SOL     OW 2158   1.046   0.479   0.977 -0.3233  0.0024 -0.1963
  720SOL    HW1 2159   0.975   0.462   1.047  0.6938  0.7498 -1.8761
  720SOL    HW2 2160   1.134   0.451   1.021 -1.6782  0.9542  3.3097
  721SOL     OW 2161   2.318   0.588   0.819  0.1831 -0.5109 -0.5180
  721SOL    HW1 2162   2.419   0.590   0.819  0.7910 -2.4647  3.1530
  721SOL    HW2 2163   2.283   0.553   0.729 -0.3435 -0.4742  0.2566
  722SOL     OW 2164   0.779   2.117   1.853 -0.0201  0.2133 -0.1070
  722SOL    HW1 2165   0.707   2.189   1.875 -1.3686  1.1211 -0.9116
  722SOL    HW2 2166   0.876   2.145   1.882 -1.8097  2.4254 -3.7891
  723SOL     OW 2167   1.298   3.081   1.307  0.1254  0.3011  0.0914
  723SOL    HW1 2168   1.221   0.041   1.329  1.7061 -3.2558 -1.8306
  723SOL    HW2 2169   1.384   0.009   1.354  0.9353  0.6191  1.6319
  724SOL     OW 2170   1.616   1.942   1.457 -0.1451  0.3165 -0.0762
  724SOL    HW1 2171   1.548   1.964   1.531 -0.1200  1.1032  2.4412
  724SOL    HW2 2172   1.609   1.844   1.423 -0.6791 -1.2382 -0.9595
  725SOL     OW 2173   1.420   2.547   1.193 -0.0722  0.2427 -0.4429
  725SOL    HW1 2174   1.423   2.443   1.201  0.0215 -3.3700  1.4315
  725SOL    HW2 2175   1.418   2.585   1.098 -0.2428  1.5601 -1.4684
  726SOL     OW 2176   1.526   0.026   0.064  0.0504  0.0794  0.4891
  726SOL    HW1 2177   1.468   3.039   0.082 -0.0375  1.7920  1.7311
  726SOL    HW2 2178   1.616   0.008   0.105  0.0084  2.0775  0.5665
  727SOL     OW 2179   1.668   1.608   0.449 -0.1299  0.1561  0.8779
  727SOL    HW1 2180   1.625   1.686   0.399 -2.1016  0.3468  3.0238
  727SOL    HW2 2181   1.760   1.583   0.410 -1.8390  0.3090  0.0848
  728SOL     OW 2182   1.977   2.582   1.867 -0.3309  0.2363 -0.4925
  728SOL    HW1 2183   1.957   2.534   1.781 -1.1758 -1.9800  0.4085
  728SOL    HW2 2184   1.899   2.649   1.890 -1.6170  0.0804 -0.1084
  729SOL     OW 2185   2.146   2.434   1.546 -0.0613  0.4182 -0.0365
  729SOL    HW1 2186   2.099   2.360   1.493 -0.4870 -0.9128 -0.9264
  729SOL    HW2 2187   2.212   2.476   1.485  1.2481 -0.8260  3.1816
  730SOL     OW 2188   1.259   1.144   2.656 -0.5512  0.0375 -0.0491
  730SOL    HW1 2189   1.216   1.061   2.706 -2.3752 -2.6371  4.6139
  730SOL    HW2 2190   1.195   1.196   2.597 -0.0547  0.3989 -2.5266
  731SOL     OW 2191   0.564   0.196   1.294 -0.2148  0.2251 -0.3274
  731SOL    HW1 2192   0.591   0.146   1.212 -0.4951  2.1272 -0.6790
  731SOL    HW2 2193   0.572   0.142   1.379  1.5278  2.1658  0.3576
  732SOL     OW 2194   1.159   2.944   0.899  0.1550  0.4915  0.4324
  732SOL    HW1 2195   1.159   2.911   0.997 -1.7701  1.8414 -2.8141
  732SOL    HW2 2196   1.141   3.045   0.888  1.3801  2.6196  0.8197
  733SOL     OW 2197   1.193   1.166   1.084 -0.0166  0.3287  0.1073
  733SOL    HW1 2198   1.201   1.252   1.032  0.0996  1.2776  0.9269
  733SOL    HW2 2199   1.101   1.160   1.126 -2.4369  1.5322  1.7257
  734SOL     OW 2200   2.517   2.022   0.123 -0.0606  0.3504 -0.0601
  734SOL    HW1 2201   2.538   2.041   0.024  0.3033 -0.4936  0.1239
  734SOL    HW2 2202   2.592   2.058   0.185 -1.2735 -1.2102  1.3010
  735SOL     OW 2203   0.737   0.203   0.992 -0.2024  0.1392 -0.3292
  735SOL    HW1 2204   0.796   0.124   1.013  0.5730  0.6131 -0.2642
  735SOL    HW2 2205   0.645   0.174   0.955  0.6675  0.3483  1.9220
  736SOL     OW 2206   1.814   2.489   2.759 -0.0011 -0.3962  0.0029
  736SOL    HW1 2207   1.911   2.507   2.781 -2.8627 -2.8271  0.4582
  736SOL    HW2 2208   1.764   2.445   2.841 -2.0464 -0.0617 -1.5570
  737SOL     OW 2209   0.846   2.657   0.964 -0.0164  0.3820 -0.2597
  737SOL    HW1 2210   0.922   2.653   0.898  0.2770 -2.9084  1.2912
  737SOL    HW2 2211   0.866   2.720   1.043  0.4938  2.5504 -0.9196
  738SOL     OW 2212   1.633   0.002   2.189 -0.1047 -0.1578 -0.5084
  738SOL    HW1 2213   1.627   0.004   2.291  2.0879 -1.4592  0.9346
  738SOL    HW2 2214   1.694   3.019   2.166 -1.1231 -0.5822  0.8454
  739SOL     OW 2215   1.141   2.224   2.138 -0.8140 -0.3016 -0.4427
  739SOL    HW1 2216   1.233   2.246   2.097 -0.8861 -0.1107 -1.0003
  739SOL    HW2 2217   1.148   2.165   2.223 -2.3415 -2.6309  1.9236
  740SOL     OW 2218   1.331   2.294   1.617  0.5233  0.3011  0.1264
  740SOL    HW1 2219   1.248   2.349   1.633  0.0787  1.1601  0.6378
  740SOL    HW2 2220   1.379   2.332   1.530  1.2348 -0.6481 -1.4462
  741SOL     OW 2221   2.680   1.270   0.078  0.1343 -0.5238 -0.9102
  741SOL    HW1 2222   2.744   1.344   0.108  2.5865  0.7149  1.1030
  741SOL    HW2 2223   2.601   1.309   0.028  0.6304 -2.3502  1.4243
  742SOL     OW 2224   0.624   1.526   2.037 -0.0612  0.3013  0.2429
  742SOL    HW1 2225   0.596   1.601   2.101 -2.6182 -1.9337 -1.4658
  742SOL    HW2 2226   0.714   1.486   2.059 -1.2057  1.1450  0.5422
  743SOL     OW 2227   0.035   0.810   2.540 -0.4423 -0.3779 -0.1372
  743SOL    HW1 2228   0.085   0.724   2.537  0.6963  3.2217  1.0198
  743SOL    HW2 2229   3.062   0.812   2.470  0.7308  0.0756  0.6520
  744SOL     OW 2230   2.340   2.103   1.446 -0.0133 -0.4670  0.3315
  744SOL    HW1 2231   2.263   2.074   1.507  0.8003 -2.1307  1.5801
  744SOL    HW2 2232   2.414   2.138   1.499  0.1188  1.6771 -0.7281
  745SOL     OW 2233   2.382   1.721   1.330 -0.5037  1.0361  0.7517
  745SOL    HW1 2234   2.324   1.647   1.292  2.3637 -0.0089 -0.8538
  745SOL    HW2 2235   2.471   1.682   1.357  1.4538  0.3404  1.8857
  746SOL     OW 2236   2.589   0.954   0.667  0.3677  0.1350 -0.0554
  746SOL    HW1 2237   2.506   0.991   0.623  2.4990 -2.6052  1.1056
  746SOL    HW2 2238   2.623   0.877   0.610 -3.7773  1.3094  0.5364
  747SOL     OW 2239   1.738   2.076   0.493  0.4391 -0.1945 -0.0807
  747SOL    HW1 2240   1.827   2.124   0.467 -1.3416  0.8700  0.2846
  747SOL    HW2 2241   1.684   2.144   0.543  3.5587  0.1663  0.8181
  748SOL     OW 2242   1.138   2.238   0.542  0.3693 -0.7379 -0.3418
  748SOL    HW1 2243   1.064   2.206   0.481  0.8307  1.2566 -1.4177
  748SOL    HW2 2244   1.095   2.259   0.630  2.3308  1.6406 -2.1140
  749SOL     OW 2245   2.948   0.236   2.336 -0.2245 -0.1216 -0.6798
  749SOL    HW1 2246   2.937   0.323   2.283 -0.0987  0.0960 -1.2886
  749SOL    HW2 2247   3.043   0.226   2.375  1.9952 -0.9091  0.4780
  750SOL     OW 2248   1.596   0.155   1.340 -0.3193 -0.3248 -0.4532
  750SOL    HW1 2249   1.678   0.217   1.349  1.2662 -0.2832 -1.2572
  750SOL    HW2 2250   1.567   0.169   1.244  1.5958  0.1566 -1.5521
  751SOL     OW 2251   1.577   2.640   2.749  0.4529  0.3074  0.4120
  751SOL    HW1 2252   1.521   2.626   2.832 -0.5726  2.8381 -0.8591
  751SOL    HW2 2253   1.668   2.592   2.753 -1.2728  0.8345  2.9162
  752SOL     OW 2254   1.886   1.906   0.319  0.2159  0.3664  0.3196
  752SOL    HW1 2255   1.829   1.975   0.365 -1.3530  1.0322  0.9612
  752SOL    HW2 2256   1.893   1.929   0.220  1.1917 -1.3720 -2.1917
  753SOL     OW 2257   1.741   0.677   2.221 -0.0135 -0.5049  0.1635
  753SOL    HW1 2258   1.733   0.776   2.242  5.2346 -0.9181  1.8528
  753SOL    HW2 2259   1.700   0.619   2.298  0.7413 -0.8805  0.5149
  754SOL     OW 2260   0.223   2.762   0.500 -0.0135 -0.0421 -0.2790
  754SOL    HW1 2261   0.158   2.690   0.540 -1.5954 -1.3098 -1.8749
  754SOL    HW2 2262   0.219   2.842   0.558  0.0122 -0.2916 -0.2951
  755SOL     OW 2263   2.016   0.359   1.132 -0.1697 -0.7638  0.2298
  755SOL    HW1 2264   2.111   0.397   1.107 -1.1771  0.0061  1.3482
  755SOL    HW2 2265   1.975   0.324   1.047 -0.6141 -1.4666  0.8723
  756SOL     OW 2266   1.078   1.487   2.541 -0.0063  0.1868  0.8136
  756SOL    HW1 2267   1.050   1.576   2.574  0.1515 -2.3542 -0.5558
  756SOL    HW2 2268   1.167   1.492   2.497 -3.6768  0.5191 -0.7699
  757SOL     OW 2269   2.621   2.790   1.201 -0.1131 -0.3395 -0.1565
  757SOL    HW1 2270   2.624   2.706   1.144 -2.4846 -0.1940 -0.3105
  757SOL    HW2 2271   2.578   2.864   1.145  0.3552  1.3119  0.3380
  758SOL     OW 2272   0.611   0.031   1.540  0.3090 -0.1247 -0.2567
  758SOL    HW1 2273   0.523   3.087   1.563  0.4350 -0.7889  0.8488
  758SOL    HW2 2274   0.671   0.022   1.617 -1.7435  0.4032 -2.3952
  759SOL     OW 2275   2.560   1.229   0.824  0.1643 -0.0759  0.0270
  759SOL    HW1 2276   2.574   1.216   0.721 -0.1761  0.9214  0.4910
  759SOL    HW2 2277   2.606   1.152   0.870  0.3020 -1.1101 -0.3613
  760SOL     OW 2278   2.078   0.620   1.397 -0.4228 -0.0977 -0.2238
  760SOL    HW1 2279   2.022   0.543   1.361  1.6756 -0.0792  0.0567
  760SOL    HW2 2280   2.175   0.595   1.421 -0.4661 -1.2772 -2.4098
  761SOL     OW 2281   2.007   0.051   0.099 -0.4071  0.3597 -0.3387
  761SOL    HW1 2282   1.909   0.042   0.113  2.0743 -1.5450 -0.2077
  761SOL    HW2 2283   2.043   3.090   0.022  0.2085 -0.6432 -0.0456
  762SOL     OW 2284   2.022   2.172   0.053  0.4194  0.4334 -0.2003
  762SOL    HW1 2285   2.109   2.139   0.100  3.7763  1.2538  2.4929
  762SOL    HW2 2286   2.033   2.165   3.047 -0.1907  0.0183 -0.4880
  763SOL     OW 2287   0.524   1.057   1.193  0.6581  0.3638  0.0473
  763SOL    HW1 2288   0.537   1.007   1.102 -1.0094  0.3620 -2.1980
  763SOL    HW2 2289   0.566   1.152   1.194  0.8466 -1.8267 -1.4358
  764SOL     OW 2290   2.453   2.516   2.945 -0.0478  0.0150  0.2206
  764SOL    HW1 2291   2.550   2.498   2.913  1.3323  1.1090  1.3604
  764SOL    HW2 2292   2.387   2.457   2.892  1.7560  2.2296 -0.8931
  765SOL     OW 2293   0.894   0.614   2.351  0.3294  0.0166 -0.2756
  765SOL    HW1 2294   0.957   0.544   2.394 -0.1588  1.0508  0.3612
  765SOL    HW2 2295   0.914   0.621   2.248  1.8565 -2.9986 -1.2751
  766SOL     OW 2296   0.164   1.288   2.535  0.2071 -0.3354  0.0557
  766SOL    HW1 2297   0.107   1.203   2.525 -0.8420 -0.6292 -1.5657
  766SOL    HW2 2298   0.122   1.363   2.481 -0.2064 -0.4119  0.2740
  767SOL     OW 2299   2.964   1.575   2.121 -0.1040 -0.0639 -0.1908
  767SOL    HW1 2300   3.023   1.651   2.152 -0.6608  1.9930 -0.8909
  767SOL    HW2 2301   2.864   1.588   2.127 -0.6785  1.3842 -0.2776
  768SOL     OW 2302   0.918   1.084   2.839  0.0998 -0.9671  0.1985
  768SOL    HW1 2303   0.816   1.073   2.842 -0.9255 -0.9370 -0.6889
  768SOL    HW2 2304   0.949   1.134   2.758  1.4224 -1.2448 -1.7194
  769SOL     OW 2305   1.984   2.824   3.027 -0.2593  0.2613  0.1007
  769SOL    HW1 2306   2.009   2.813   2.926  1.1152  0.5221 -2.3772
  769SOL    HW2 2307   1.885   2.799   3.049 -0.7219 -0.3536  0.2620
  770SOL     OW 2308   2.779   0.487   2.509  0.2431  0.1223  0.4435
  770SOL    HW1 2309   2.786   0.520   2.415  1.6870  0.1027  1.8927
  770SOL    HW2 2310   2.756   0.387   2.514  0.5921  0.8035  0.4430
  771SOL     OW 2311   0.892   2.116   1.447  0.1774  0.3145 -0.4071
  771SOL    HW1 2312   0.936   2.032   1.422  1.4648  1.4060  1.7705
  771SOL    HW2 2313   0.952   2.194   1.418  0.7791 -1.9462  0.5917
  772SOL     OW 2314   0.519   0.560   2.797 -0.5028 -0.1680  0.1629
  772SOL    HW1 2315   0.613   0.578   2.758 -1.0898  0.4667 -1.1585
  772SOL    HW2 2316   0.454   0.624   2.743  0.1542  0.6123  1.2484
  773SOL     OW 2317   2.448   1.228   1.656 -0.3785  0.4639  0.7550
  773SOL    HW1 2318   2.385   1.235   1.735  1.9497  2.8890 -0.9374
  773SOL    HW2 2319   2.444   1.133   1.615  0.4494 -0.9028  0.3727
  774SOL     OW 2320   0.920   0.652   0.492  0.6419 -0.1457  0.6436
  774SOL    HW1 2321   0.961   0.627   0.406  0.0201  1.7211  0.0228
  774SOL    HW2 2322   0.971   0.612   0.565 -3.1257 -1.0123 -1.1866
  775SOL     OW 2323   2.044   2.545   2.878  0.3002  0.3989  0.2874
  775SOL    HW1 2324   2.059   2.638   2.840  1.1126 -1.2440 -1.1278
  775SOL    HW2 2325   2.068   2.556   2.977 -0.9188 -0.6710 -0.6810
  776SOL     OW 2326   2.369   0.139   2.004  0.5756  0.2390  0.9464
  776SOL    HW1 2327   2.291   0.071   1.998 -0.8581 -2.6054  1.1275
  776SOL    HW2 2328   2.428   0.112   2.083 -2.1225 -1.4197  1.7003
  777SOL     OW 2329   0.332   1.114   2.663 -0.2155  0.0179 -0.0985
  777SOL    HW1 2330   0.339   1.030   2.602  0.0325  1.9958 -0.0912
  777SOL    HW2 2331   0.262   1.181   2.628 -0.9383 -0.5162  0.6972
  778SOL     OW 2332   0.737   0.191   0.208 -0.3430 -0.0213  0.3017
  778SOL    HW1 2333   0.793   0.276   0.217 -0.1510  1.1058 -1.7523
  778SOL    HW2 2334   0.769   0.125   0.276  0.6044  2.4897  1.6257
  779SOL     OW 2335   3.058   1.106   2.896 -0.3631  0.1222 -0.2587
  779SOL    HW1 2336   3.013   1.090   2.989 -2.0054  0.2686  2.7579
  779SOL    HW2 2337   3.054   1.026   2.835 -0.6063  0.9057  0.2928
  780SOL     OW 2338   2.083   0.694   2.452 -0.1787 -0.0617 -0.0904
  780SOL    HW1 2339   2.122   0.608   2.493  0.4032  0.3101 -0.9412
  780SOL    HW2 2340   1.982   0.682   2.433 -3.2012 -0.8764  0.9726
  781SOL     OW 2341   2.231   1.512   2.003  0.2720  0.9866 -0.5770
  781SOL    HW1 2342   2.254   1.416   1.975  1.2078 -1.5511 -1.2565
  781SOL    HW2 2343   2.294   1.586   1.965  0.9131  0.5463 -1.0746
  782SOL     OW 2344   1.077   1.804   2.394  0.3129 -0.6294  0.4504
  782SOL    HW1 2345   1.066   1.723   2.327  0.5706 -1.9258 -1.0708
  782SOL    HW2 2346   0.986   1.847   2.417  2.2240  0.4027  0.4056
  783SOL     OW 2347   0.774   3.030   1.010 -0.1921 -0.0546 -0.2335
  783SOL    HW1 2348   0.815   2.960   1.074  0.8470  2.1986 -0.0294
  783SOL    HW2 2349   0.675   3.048   1.039 -4.4737  0.7813  1.4773
  784SOL     OW 2350   1.352   0.533   0.081 -0.0992  0.1471  0.0043
  784SOL    HW1 2351   1.445   0.562   0.046  0.4391 -1.1813 -0.1511
  784SOL    HW2 2352   1.335   0.585   0.165 -0.5163 -0.1689 -0.4978
  785SOL     OW 2353   1.288   0.287   0.045 -0.1983 -0.4832 -0.2225
  785SOL    HW1 2354   1.311   0.389   0.046 -0.4380 -0.7580 -1.3499
  785SOL    HW2 2355   1.324   0.242   0.133 -0.1835 -1.3525  1.7320
  786SOL     OW 2356   0.191   1.450   0.549  0.2980  0.0162  0.6108
  786SOL    HW1 2357   0.281   1.494   0.568  0.2234  0.7916  0.4258
  786SOL    HW2 2358   0.135   1.511   0.488  0.6048  0.6822 -0.0013
  787SOL     OW 2359   1.825   1.478   0.143 -0.1912  0.0241 -0.1847
  787SOL    HW1 2360   1.875   1.542   0.206 -0.0178 -1.3095 -0.9152
  787SOL    HW2 2361   1.747   1.438   0.196 -0.5124 -2.2646 -0.6020
  788SOL     OW 2362   1.855   1.690   1.152 -0.1509 -0.3071  0.3408
  788SOL    HW1 2363   1.884   1.694   1.246 -1.2045 -0.4553 -2.2240
  788SOL    HW2 2364   1.913   1.757   1.099 -0.4003  1.9332 -2.4546
  789SOL     OW 2365   3.050   1.305   2.127 -0.3652 -0.6055 -0.2434
  789SOL    HW1 2366   3.037   1.408   2.122  1.2756  0.0645 -1.2061
  789SOL    HW2 2367   2.990   1.264   2.197  1.9956  0.2561 -3.3763
  790SOL     OW 2368   0.576   0.046   0.005 -0.0716 -0.1068  0.0484
  790SOL    HW1 2369   0.564   3.046   0.041 -1.9424  0.1032  0.2287
  790SOL    HW2 2370   0.635   0.103   0.070 -0.0080  2.3889  1.2887
  791SOL     OW 2371   0.702   0.154   2.454 -0.0334  0.8395  0.1099
  791SOL    HW1 2372   0.693   0.250   2.484 -0.6025 -1.1376 -1.2359
  791SOL    HW2 2373   0.683   0.093   2.534 -0.2886  0.4401  0.8065
  792SOL     OW 2374   1.913   0.280   2.228  0.2626  0.7313  0.0286
  792SOL    HW1 2375   1.904   0.316   2.325 -0.0698 -0.5708  0.0199
  792SOL    HW2 2376   1.824   0.272   2.173 -0.4695 -3.0758  0.4407
  793SOL     OW 2377   3.032   0.513   1.176  0.1865  0.0651  0.5194
  793SOL    HW1 2378   3.002   0.455   1.253  0.3961 -0.8961 -0.8375
  793SOL    HW2 2379   0.009   0.569   1.207 -0.6317 -1.5917 -4.5372
  794SOL     OW 2380   0.441   0.531   1.749 -0.6224 -0.1861 -0.0375
  794SOL    HW1 2381   0.518   0.465   1.763 -1.2024 -0.5854  0.0232
  794SOL    HW2 2382   0.432   0.572   1.653 -2.3987  0.7349 -0.5562
  795SOL     OW 2383   2.979   1.357   0.244 -0.0620  0.0180 -0.1409
  795SOL    HW1 2384   2.944   1.394   0.157 -1.5181 -0.0637  0.1126
  795SOL    HW2 2385   3.021   1.267   0.220 -1.5656  1.8596  0.4926
  796SOL     OW 2386   2.819   2.659   0.357 -0.6238 -0.1506  0.3880
  796SOL    HW1 2387   2.895   2.725   0.384  0.1542 -0.4982  1.7451
  796SOL    HW2 2388   2.836   2.619   0.264 -0.8048 -2.8613  2.0894
  797SOL     OW 2389   1.798   2.561   2.274  0.0121 -0.1931 -0.5484
  797SOL    HW1 2390   1.804   2.540   2.375 -0.8540  0.4874 -0.9382
  797SOL    HW2 2391   1.868   2.637   2.257  1.1590  1.0415  2.2297
  798SOL     OW 2392   0.045   1.092   0.873  0.0702 -0.6520 -0.4755
  798SOL    HW1 2393   0.041   0.989   0.876 -0.3899 -0.0603 -0.5677
  798SOL    HW2 2394   3.044   1.122   0.871  0.6705 -0.2652 -2.4662
  799SOL     OW 2395   2.691   0.524   2.851  0.2390 -0.0988  0.3677
  799SOL    HW1 2396   2.751   0.504   2.770 -0.5421  0.2616  0.0789
  799SOL    HW2 2397   2.694   0.623   2.870  1.6890 -0.7255 -1.0731
  800SOL     OW 2398   3.057   2.001   0.318  0.4828  0.0955 -0.6484
  800SOL    HW1 2399   0.062   2.010   0.313 -1.8348  2.5039  1.7436
  800SOL    HW2 2400   3.024   2.003   0.413  1.1924  1.0240  0.6588
  801SOL     OW 2401   1.606   1.361   1.173 -0.0529 -0.3065  0.1388
  801SOL    HW1 2402   1.704   1.357   1.205  0.7006  1.9652 -0.3027
  801SOL    HW2 2403   1.589   1.448   1.125  2.9134 -0.9369  2.0634
  802SOL     OW 2404   1.144   1.726   1.821  0.4029  0.2502  0.4457
  802SOL    HW1 2405   1.185   1.743   1.912 -0.1638 -0.4702 -0.5205
  802SOL    HW2 2406   1.161   1.809   1.767  0.0558 -0.8629  1.1790
  803SOL     OW 2407   0.229   1.932   0.724 -0.1112 -0.9890  0.1486
  803SOL    HW1 2408   0.182   1.861   0.671  2.0091 -1.5276  1.2804
  803SOL    HW2 2409   0.163   1.991   0.771  1.3174 -0.3924 -0.4895
  804SOL     OW 2410   1.028   2.380   1.476 -0.1381  0.5528  0.1543
  804SOL    HW1 2411   1.077   2.379   1.386 -0.0732  1.9863 -0.5848
  804SOL    HW2 2412   0.926   2.379   1.455 -0.6116 -0.5392  0.1894
  805SOL     OW 2413   2.254   1.373   0.127  0.1499  0.0929  0.0441
  805SOL    HW1 2414   2.217   1.463   0.089  0.2978  0.9271 -0.3708
  805SOL    HW2 2415   2.186   1.295   0.110 -3.1213 -2.2709  0.3037
  806SOL     OW 2416   1.581   2.797   1.318 -0.1821 -0.4167  0.6835
  806SOL    HW1 2417   1.480   2.802   1.305  0.3079 -0.9958  0.3724
  806SOL    HW2 2418   1.614   2.853   1.394 -0.4824 -1.3222  0.7808
  807SOL     OW 2419   2.307   0.659   2.758 -0.3460  0.0778  0.1065
  807SOL    HW1 2420   2.347   0.704   2.674  0.7964  0.5796 -1.8947
  807SOL    HW2 2421   2.315   0.557   2.752 -0.8237 -0.2408  2.2019
  808SOL     OW 2422   0.113   1.191   0.536 -0.3116  0.3015 -0.0433
  808SOL    HW1 2423   0.188   1.115   0.534  1.3564 -2.5749 -1.6093
  808SOL    HW2 2424   0.154   1.284   0.527  2.8471 -0.2055 -0.3450
  809SOL     OW 2425   2.911   0.843   2.386  0.0704 -0.1829 -0.0264
  809SOL    HW1 2426   2.913   0.893   2.297 -0.6438  1.5207  1.2200
  809SOL    HW2 2427   2.820   0.853   2.436 -2.3723 -1.4329  2.1049
  810SOL     OW 2428   1.692   0.729   1.465  0.4165  0.4371  0.3544
  810SOL    HW1 2429   1.704   0.661   1.537  0.9186 -2.3080 -1.9619
  810SOL    HW2 2430   1.666   0.687   1.376 -1.8931  0.3931 -1.4606
  811SOL     OW 2431   1.931   2.731   1.553  0.1302 -0.4412 -0.1787
  811SOL    HW1 2432   1.929   2.650   1.615  0.1046  1.5425  3.0780
  811SOL    HW2 2433   2.025   2.750   1.528 -2.3695 -3.5418  0.5349
  812SOL     OW 2434   1.723   2.690   3.046  0.1351  0.9722 -0.3995
  812SOL    HW1 2435   1.748   2.639   0.033 -0.8111 -0.8473  0.6664
  812SOL    HW2 2436   1.623   2.670   3.023 -1.8777  0.2764  0.2756
  813SOL     OW 2437   2.054   1.123   1.917 -0.2286 -0.2040 -0.5226
  813SOL    HW1 2438   2.004   1.155   2.003 -0.7020  0.5951  0.2836
  813SOL    HW2 2439   2.029   1.028   1.881  0.2965 -3.1656 -2.1095
  814SOL     OW 2440   1.497   1.059   1.990  0.0532 -0.4757  0.0885
  814SOL    HW1 2441   1.559   1.047   1.910 -0.7259  1.1764  0.5540
  814SOL    HW2 2442   1.542   1.096   2.074 -1.4436 -2.1106  1.0967
  815SOL     OW 2443   0.548   0.934   0.403  0.0297 -0.8704  0.1812
  815SOL    HW1 2444   0.647   0.947   0.370  4.1911  0.9475  1.4683
  815SOL    HW2 2445   0.536   0.832   0.409  1.9457 -1.5715  1.4465
  816SOL     OW 2446   2.205   1.576   2.661  0.5826 -0.4813 -0.1698
  816SOL    HW1 2447   2.131   1.624   2.708 -0.5403 -2.6341 -4.7979
  816SOL    HW2 2448   2.282   1.633   2.622  0.7089 -2.1105 -2.0391
  817SOL     OW 2449   0.477   2.688   0.477  0.4169 -0.1239  0.4122
  817SOL    HW1 2450   0.486   2.624   0.552 -1.9382 -0.2891 -1.1011
  817SOL    HW2 2451   0.381   2.721   0.468 -0.2500 -0.4699  1.7432
  818SOL     OW 2452   1.782   0.394   2.734 -0.3654 -0.5161  0.4893
  818SOL    HW1 2453   1.829   0.383   2.825 -3.9221 -1.5974  1.6251
  818SOL    HW2 2454   1.702   0.330   2.732  1.0555 -1.8632  2.3169
  819SOL     OW 2455   1.527   0.592   0.519  0.3637 -0.0323  0.1315
  819SOL    HW1 2456   1.426   0.585   0.505 -2.8201  1.1604 -0.7243
  819SOL    HW2 2457   1.564   0.672   0.471 -2.4686 -1.5521  2.4744
  820SOL     OW 2458   1.727   1.044   0.470 -0.4648 -0.6489  0.5494
  820SOL    HW1 2459   1.650   1.025   0.541 -2.8315  0.8581  3.3109
  820SOL    HW2 2460   1.819   1.064   0.509 -2.9554 -0.3450  0.9026
  821SOL     OW 2461   2.398   2.764   0.461  0.8654  1.0170  0.1902
  821SOL    HW1 2462   2.334   2.820   0.517  1.8125  1.0781 -0.9009
  821SOL    HW2 2463   2.416   2.806   0.371 -0.4546 -3.0954  2.2152
  822SOL     OW 2464   0.247   2.853   2.099  1.0085 -0.0031  0.4108
  822SOL    HW1 2465   0.287   2.875   2.187 -1.2882  1.8707 -0.1037
  822SOL    HW2 2466   0.316   2.862   2.027 -1.0891 -1.0116  0.4030
  823SOL     OW 2467   2.553   2.218   1.620  0.0303  0.1095  0.7897
  823SOL    HW1 2468   2.524   2.277   1.700  0.6916 -1.0507  3.4209
  823SOL    HW2 2469   2.596   2.131   1.654 -0.0475 -0.6899  2.6201
  824SOL     OW 2470   1.234   2.817   2.316 -0.0279  0.2379 -0.3146
  824SOL    HW1 2471   1.209   2.729   2.354  1.5815  0.0299 -0.8836
  824SOL    HW2 2472   1.309   2.807   2.254  1.1930  2.9952  2.4853
  825SOL     OW 2473   1.654   1.510   0.726 -0.3959  0.7085 -0.0205
  825SOL    HW1 2474   1.688   1.417   0.741  0.4835  1.0501  0.7283
  825SOL    HW2 2475   1.647   1.537   0.626 -1.4322  3.2831 -3.6494
  826SOL     OW 2476   1.837   0.751   0.191 -0.7051 -0.4500  0.8174
  826SOL    HW1 2477   1.898   0.795   0.258 -1.8904 -1.1619 -1.1073
  826SOL    HW2 2478   1.883   0.760   0.100 -0.0485  0.7226 -1.7503
  827SOL     OW 2479   0.408   1.420   1.396  0.4158 -0.4003 -0.0980
  827SOL    HW1 2480   0.447   1.453   1.486 -2.2852  1.3500  0.4785
  827SOL    HW2 2481   0.476   1.385   1.332 -1.4025  1.1830 -0.5404
  828SOL     OW 2482   1.960   1.523   1.952  0.5565 -0.0302 -0.0933
  828SOL    HW1 2483   1.901   1.511   1.871  1.9565  0.4463  1.3482
  828SOL    HW2 2484   2.060   1.519   1.934  0.5546  0.2901  0.3886
  829SOL     OW 2485   0.234   1.992   0.285  0.8809  0.5112  0.5804
  829SOL    HW1 2486   0.324   2.033   0.258 -1.4897 -0.8676 -1.0589
  829SOL    HW2 2487   0.238   1.888   0.275  0.8927 -1.9363  0.0164
  830SOL     OW 2488   1.001   0.471   0.705 -0.2851  0.0855  0.0398
  830SOL    HW1 2489   1.085   0.472   0.652 -0.1729 -1.0281 -0.8895
  830SOL    HW2 2490   1.019   0.444   0.806 -0.8169 -1.8843  3.2877
  831SOL     OW 2491   2.860   1.478   0.043  0.1278 -0.4947  0.3001
  831SOL    HW1 2492   2.854   1.460   3.038 -0.9530 -1.2121 -1.1707
  831SOL    HW2 2493   2.869   1.576   0.070  2.2456  0.6306 -0.3899
  832SOL     OW 2494   1.035   2.964   0.001 -0.2647  0.2191 -0.6821
  832SOL    HW1 2495   0.965   2.925   3.032 -1.4921 -3.6498  0.7415
  832SOL    HW2 2496   1.026   3.069   0.005 -0.1233 -0.0218 -0.0365
  833SOL     OW 2497   0.990   0.653   2.113 -0.4431  0.7241  0.3421
  833SOL    HW1 2498   1.085   0.633   2.115 -4.6484 -0.5169  0.9140
  833SOL    HW2 2499   0.974   0.723   2.039 -1.3753  0.3721 -0.5168
  834SOL     OW 2500   0.128   0.661   1.318  0.1334  0.0336  0.4098
  834SOL    HW1 2501   0.089   0.753   1.337  1.3188  1.8895  0.7725
  834SOL    HW2 2502   0.205   0.671   1.253  3.9623 -1.6872 -0.5849
  835SOL     OW 2503   2.931   0.346   1.389 -0.1532 -0.5219  0.3104
  835SOL    HW1 2504   2.832   0.344   1.383 -0.8604 -1.0939  0.8141
  835SOL    HW2 2505   2.966   0.267   1.447 -0.1514  1.1554  0.0051
  836SOL     OW 2506   0.605   2.024   0.539 -0.2407 -0.1086  0.5934
  836SOL    HW1 2507   0.617   1.934   0.482  2.2373 -3.2179 -1.5755
  836SOL    HW2 2508   0.696   2.071   0.538  0.4071 -0.2663  1.9220
  837SOL     OW 2509   2.070   1.902   2.146 -0.7372 -0.4011  0.8150
  837SOL    HW1 2510   2.096   1.998   2.139 -0.2344 -0.5517 -1.5209
  837SOL    HW2 2511   2.016   1.876   2.227 -1.4646  0.0468 -0.2770
  838SOL     OW 2512   0.025   1.296   1.849 -0.4290  0.1756  0.3489
  838SOL    HW1 2513   0.122   1.268   1.846  1.5180 -0.9923 -0.9941
  838SOL    HW2 2514   0.007   1.325   1.939  1.2939 -0.1264 -2.0018
  839SOL     OW 2515   0.306   0.370   0.707 -0.1335 -0.1766 -0.0317
  839SOL    HW1 2516   0.258   0.283   0.739 -3.3173 -0.0261 -0.3270
  839SOL    HW2 2517   0.391   0.363   0.648 -1.1281  2.2904  1.3936
  840SOL     OW 2518   2.776   0.084   2.731  0.3392  0.0442 -0.5394
  840SOL    HW1 2519   2.832   0.002   2.708 -1.5064  0.2480 -2.4638
  840SOL    HW2 2520   2.752   0.081   2.828  0.3829 -0.6006 -0.7884
  841SOL     OW 2521   0.486   2.907   0.147 -0.2545 -0.4120 -0.0109
  841SOL    HW1 2522   0.411   2.835   0.136 -2.8437 -1.0841  1.4042
  841SOL    HW2 2523   0.575   2.868   0.174  0.3194 -1.0315  0.7471
  842SOL     OW 2524   0.798   0.027   0.734 -0.6390 -0.3376  0.2967
  842SOL    HW1 2525   0.709   0.075   0.722 -0.5258  0.8253 -1.0168
  842SOL    HW2 2526   0.787   3.056   0.808  0.8160  0.1415 -0.3430
  843SOL     OW 2527   3.041   0.849   2.807  0.4128 -0.2550 -0.0566
  843SOL    HW1 2528   3.066   0.823   2.713 -0.9347 -0.6242  3.8063
  843SOL    HW2 2529   3.039   0.770   2.871 -0.1210  2.2946 -0.3314
  844SOL     OW 2530   0.881   2.139   2.461  0.5031  0.2080 -0.3312
  844SOL    HW1 2531   0.813   2.160   2.390 -0.7063  0.9031  2.1527
  844SOL    HW2 2532   0.969   2.106   2.418 -0.1178 -1.2024 -0.3040
  845SOL     OW 2533   2.251   2.747   2.535  0.0520  0.1151  0.2111
  845SOL    HW1 2534   2.269   2.786   2.630 -0.2377 -1.4677  1.1676
  845SOL    HW2 2535   2.187   2.806   2.479 -1.8307 -0.2908  1.0373
  846SOL     OW 2536   1.743   1.405   2.377  0.2068 -0.0399 -0.1031
  846SOL    HW1 2537   1.826   1.371   2.426  1.3928  0.2012  1.4187
  846SOL    HW2 2538   1.678   1.329   2.360  1.9142 -0.9484  0.6728
  847SOL     OW 2539   2.591   2.808   2.997 -0.0161 -0.3204 -0.1859
  847SOL    HW1 2540   2.494   2.808   3.023 -2.3493 -0.9166 -1.3224
  847SOL    HW2 2541   2.640   2.878   3.054  0.6478  0.7029 -0.6070
  848SOL     OW 2542   0.155   0.465   0.317  0.6770 -0.1603  0.2600
  848SOL    HW1 2543   0.118   0.557   0.285 -0.1135  1.8726 -1.8839
  848SOL    HW2 2544   0.256   0.453   0.315 -1.5347 -1.2228 -1.2204
  849SOL     OW 2545   1.402   0.039   2.023  0.2714 -0.0927 -0.2272
  849SOL    HW1 2546   1.479   0.017   2.084  2.4336  1.7901 -0.8030
  849SOL    HW2 2547   1.333   0.104   2.069 -0.1582  2.0506  0.1497
  850SOL     OW 2548   0.617   0.977   0.691  0.1973 -0.7159 -0.4342
  850SOL    HW1 2549   0.598   0.961   0.594 -2.1699  0.0395  1.9745
  850SOL    HW2 2550   0.677   1.065   0.708  0.6271  0.1608  0.6119
  851SOL     OW 2551   0.236   1.243   0.160 -0.8497  0.2102  0.5418
  851SOL    HW1 2552   0.328   1.283   0.191  2.7318  0.1291 -2.5477
  851SOL    HW2 2553   0.243   1.208   0.064  0.4153 -0.8192  1.7972
  852SOL     OW 2554   1.409   0.806   1.946  0.2707 -0.2379 -0.0658
  852SOL    HW1 2555   1.436   0.908   1.955 -0.1387 -1.4037  0.1773
  852SOL    HW2 2556   1.489   0.741   1.955 -0.2440  0.8207  3.0958
  853SOL     OW 2557   2.839   1.442   0.446 -0.1819  0.4004 -0.4537
  853SOL    HW1 2558   2.874   1.397   0.531 -0.8697 -1.2370 -0.5030
  853SOL    HW2 2559   2.887   1.407   0.364  0.9184 -0.5807  2.2364
  854SOL     OW 2560   1.149   1.045   2.314 -0.1391 -0.5325  0.4400
  854SOL    HW1 2561   1.056   1.052   2.349  1.9411 -1.0553 -0.1081
  854SOL    HW2 2562   1.181   0.952   2.300 -3.0250  3.0891  0.0917
  855SOL     OW 2563   0.242   2.823   3.000  0.1841 -0.0446  0.2276
  855SOL    HW1 2564   0.214   2.876   3.085 -1.6970 -1.1145  0.5320
  855SOL    HW2 2565   0.207   2.870   2.917 -1.1626 -1.3437  2.0900
  856SOL     OW 2566   1.159   0.763   2.322 -0.2822 -0.3886  0.5120
  856SOL    HW1 2567   1.222   0.717   2.256  1.4936  1.3298  0.1143
  856SOL    HW2 2568   1.088   0.698   2.362  0.9623 -0.4908  0.0723
  857SOL     OW 2569   1.355   0.744   2.503  0.0263 -0.2330  0.1721
  857SOL    HW1 2570   1.395   0.655   2.469 -0.3425 -0.2591  1.8080
  857SOL    HW2 2571   1.267   0.758   2.461  0.1430 -2.3513  0.7729
  858SOL     OW 2572   2.852   0.972   2.142  0.5199 -0.2162 -0.4324
  858SOL    HW1 2573   2.834   1.064   2.181 -0.7906  2.6672 -0.5662
  858SOL    HW2 2574   2.774   0.963   2.077 -2.1298  1.4174 -0.0579
  859SOL     OW 2575   2.483   0.285   0.736 -0.1761  0.2241 -0.0675
  859SOL    HW1 2576   2.571   0.296   0.788 -1.9219  0.7309 -0.3953
  859SOL    HW2 2577   2.502   0.269   0.636 -0.2369 -1.6032 -3.0481
  860SOL     OW 2578   1.742   0.003   0.237 -0.7194  0.6239 -0.2337
  860SOL    HW1 2579   1.753   0.085   0.298  1.0765 -1.9338  2.1369
  860SOL    HW2 2580   1.745   3.016   0.298 -1.5798 -2.7896 -1.1352
  861SOL     OW 2581   1.225   0.338   1.158 -0.0129  0.1289 -0.1010
  861SOL    HW1 2582   1.250   0.344   1.257 -0.9057  0.3578  0.6831
  861SOL    HW2 2583   1.140   0.286   1.143 -1.0806  0.2194  0.9279
  862SOL     OW 2584   1.421   0.183   2.482 -0.1113  0.1615 -0.1548
  862SOL    HW1 2585   1.497   0.120   2.461 -1.3075  0.3990 -2.5827
  862SOL    HW2 2586   1.429   0.269   2.434  0.1035 -0.6692  0.2543
  863SOL     OW 2587   2.737   2.700   0.872  0.2131 -0.6120  0.3715
  863SOL    HW1 2588   2.693   2.740   0.784 -1.5408 -0.1690 -0.2470
  863SOL    HW2 2589   2.818   2.639   0.852  0.0665 -0.0662 -2.3674
  864SOL     OW 2590   2.649   0.010   2.106  0.1981  0.5596  0.4368
  864SOL    HW1 2591   2.597   3.020   2.101 -0.7403  0.6161  1.4573
  864SOL    HW2 2592   2.742   0.002   2.148  0.8658  1.9656 -1.9259
  865SOL     OW 2593   1.227   1.064   1.966  0.4797  0.5719 -0.2171
  865SOL    HW1 2594   1.225   1.136   1.893 -2.1292  1.7111 -2.4233
  865SOL    HW2 2595   1.320   1.043   2.000 -0.7036 -0.2526 -0.3703
  866SOL     OW 2596   1.898   2.837   1.035  0.4637 -0.5525 -0.0112
  866SOL    HW1 2597   1.818   2.769   1.045 -2.4673 -1.4818 -0.0946
  866SOL    HW2 2598   1.884   2.906   0.962  0.5728 -1.0528  0.0136
  867SOL     OW 2599   2.271   2.989   0.531 -0.2196  0.5479 -1.0047
  867SOL    HW1 2600   2.327   3.052   0.595  0.5688 -0.2970  1.2550
  867SOL    HW2 2601   2.242   3.040   0.451  3.5913 -0.5763  0.6798
  868SOL     OW 2602   0.178   2.159   1.831 -0.0398 -0.5496 -0.6387
  868SOL    HW1 2603   0.129   2.218   1.897  0.2575  0.5971 -0.0802
  868SOL    HW2 2604   0.137   2.168   1.739  0.8192  0.9175  2.8641
  869SOL     OW 2605   2.168   2.248   2.291 -0.4204 -0.2952  0.2444
  869SOL    HW1 2606   2.096   2.256   2.215  0.1749 -0.7617 -0.3826
  869SOL    HW2 2607   2.158   2.318   2.367  1.8271  0.2900 -0.1508
  870SOL     OW 2608   1.400   1.436   0.773  0.0291 -0.2659 -0.2180
  870SOL    HW1 2609   1.488   1.484   0.760 -1.2172  1.0592  0.0864
  870SOL    HW2 2610   1.412   1.337   0.778 -0.4551  4.7819 -1.4805
  871SOL     OW 2611   2.680   1.714   1.904  0.4066 -0.2127  0.0410
  871SOL    HW1 2612   2.744   1.791   1.909 -0.7484 -2.0942  0.8353
  871SOL    HW2 2613   2.720   1.643   1.843  0.4240 -0.1407  1.5932
  872SOL     OW 2614   0.769   1.630   2.796  0.0763 -0.1215 -0.1446
  872SOL    HW1 2615   0.848   1.670   2.748  0.0349 -0.2236 -0.9647
  872SOL    HW2 2616   0.714   1.702   2.838 -1.6711  2.3475 -2.3923
  873SOL     OW 2617   0.779   1.228   1.779  0.7348  0.3804 -0.6382
  873SOL    HW1 2618   0.769   1.331   1.787 -1.2674  1.7121  0.2214
  873SOL    HW2 2619   0.798   1.179   1.864  0.9470 -1.5594  1.3567
  874SOL     OW 2620   1.714   1.108   1.779 -0.4285 -0.6141 -0.2941
  874SOL    HW1 2621   1.742   1.046   1.703 -0.8906 -0.8285 -3.1215
  874SOL    HW2 2622   1.791   1.169   1.807 -0.1237  2.6215 -1.4725
  875SOL     OW 2623   2.747   2.976   0.042  0.2719 -0.0466  0.6464
  875SOL    HW1 2624   2.844   2.965   0.013 -0.4783  1.7039 -2.8088
  875SOL    HW2 2625   2.734   2.947   0.140  0.9358 -0.1537  2.6087
  876SOL     OW 2626   0.747   1.339   0.243 -0.0304 -0.7344  0.2238
  876SOL    HW1 2627   0.731   1.240   0.236  2.1383  2.4452  0.7342
  876SOL    HW2 2628   0.839   1.365   0.205  0.5730  1.5760  1.4850
  877SOL     OW 2629   2.621   2.751   0.629 -0.3346 -0.1585  0.0831
  877SOL    HW1 2630   2.538   2.782   0.581  2.5093  0.8178 -0.5213
  877SOL    HW2 2631   2.638   2.655   0.602  0.3350  1.3296 -3.7227
  878SOL     OW 2632   2.147   1.717   0.688  0.0005  0.4243 -0.0506
  878SOL    HW1 2633   2.103   1.754   0.605  1.6119 -1.7286  0.1210
  878SOL    HW2 2634   2.071   1.678   0.746  1.7106  0.7379 -0.6903
  879SOL     OW 2635   2.620   1.589   1.391  0.2769  0.2906 -0.1458
  879SOL    HW1 2636   2.633   1.510   1.456  3.0389  1.5245 -0.0014
  879SOL    HW2 2637   2.623   1.565   1.293 -1.0672  1.7297  0.5033
  880SOL     OW 2638   0.483   2.122   0.919  0.5760  0.1052  0.4965
  880SOL    HW1 2639   0.518   2.088   1.008 -0.2342  1.7516  1.1180
  880SOL    HW2 2640   0.514   2.068   0.840  0.1398 -0.7188 -0.4464
  881SOL     OW 2641   0.710   0.743   1.132  0.0484  0.0127  0.7678
  881SOL    HW1 2642   0.713   0.773   1.230 -0.7795 -1.0183 -0.9511
  881SOL    HW2 2643   0.678   0.818   1.070 -2.0857 -1.6197 -1.4274
  882SOL     OW 2644   2.549   1.173   1.233 -0.3292 -0.3900 -0.3366
  882SOL    HW1 2645   2.553   1.079   1.188 -0.0192 -0.4691  0.6550
  882SOL    HW2 2646   2.645   1.218   1.225  1.2558  1.4523 -1.4671
  883SOL     OW 2647   1.536   0.326   1.589  0.1171  0.1205 -0.6495
  883SOL    HW1 2648   1.555   0.275   1.677  0.7267 -1.5042  2.7555
  883SOL    HW2 2649   1.563   0.266   1.512 -0.0544 -0.6358  0.1783
  884SOL     OW 2650   0.000   0.258   1.777  0.1564  0.2126  0.0716
  884SOL    HW1 2651   0.043   0.345   1.798  0.1021 -1.6276 -0.6742
  884SOL    HW2 2652   2.997   0.265   1.804  0.2682  0.3122 -0.2148
  885SOL     OW 2653   1.385   1.547   2.999 -0.1656  0.2675 -0.7255
  885SOL    HW1 2654   1.318   1.533   2.924 -0.4562 -2.1930  0.8668
  885SOL    HW2 2655   1.474   1.565   2.955 -2.7670 -1.8421 -1.7494
  886SOL     OW 2656   1.892   0.383   2.996 -0.2720 -0.0060  0.2911
  886SOL    HW1 2657   1.839   0.425   3.073 -1.1138 -0.8246  1.6522
  886SOL    HW2 2658   1.970   0.331   3.034  0.6784 -2.6775 -2.1602
  887SOL     OW 2659   1.525   3.024   1.497 -0.3379 -0.2575  0.0216
  887SOL    HW1 2660   1.566   3.095   1.433  1.2108 -0.1725 -1.2949
  887SOL    HW2 2661   1.605   2.992   1.553  2.0476 -0.5780 -1.4608
  888SOL     OW 2662   1.921   1.811   1.935 -0.4300 -0.0141 -0.2315
  888SOL    HW1 2663   1.922   1.711   1.963  0.6414 -1.5146  2.1517
  888SOL    HW2 2664   1.985   1.862   2.003  1.1696 -0.0653 -0.1578
  889SOL     OW 2665   2.014   2.130   0.485  0.2752  0.4392  0.0707
  889SOL    HW1 2666   2.085   2.061   0.463  2.6189  1.2546  0.6737
  889SOL    HW2 2667   2.056   2.225   0.500  1.4392  0.5378  0.6226
  890SOL     OW 2668   1.357   2.111   0.605  0.5339 -0.5776 -0.3427
  890SOL    HW1 2669   1.273   2.172   0.585 -1.2272 -0.8103  2.2718
  890SOL    HW2 2670   1.399   2.079   0.517 -0.5023 -0.1666 -0.8881
  891SOL     OW 2671   2.677   0.803   0.059 -0.3690 -0.0573 -0.5578
  891SOL    HW1 2672   2.709   0.745   0.136 -1.4114 -1.6767 -0.9039
  891SOL    HW2 2673   2.595   0.859   0.083  0.6870  0.6785  0.9137
  892SOL     OW 2674   1.913   0.631   2.769 -0.0187  0.6650  0.5598
  892SOL    HW1 2675   1.860   0.543   2.758  1.3799 -0.2283  0.1845
  892SOL    HW2 2676   1.900   0.685   2.684  0.2282 -0.4521  2.7417
  893SOL     OW 2677   1.460   2.725   1.615  0.2169 -0.4024  0.0249
  893SOL    HW1 2678   1.401   2.792   1.566 -2.1756 -3.7474 -2.6528
  893SOL    HW2 2679   1.559   2.750   1.621  1.1877 -1.6949  1.5528
  894SOL     OW 2680   2.766   0.030   0.452 -0.3279 -0.1264 -0.3707
  894SOL    HW1 2681   2.744   3.046   0.390  0.7599  1.1987 -4.0451
  894SOL    HW2 2682   2.765   3.091   0.547 -0.3543 -1.0256 -0.9461
  895SOL     OW 2683   2.086   2.277   2.901 -0.2149  0.1343 -0.3885
  895SOL    HW1 2684   2.180   2.267   2.872 -1.2357 -1.1316 -1.9113
  895SOL    HW2 2685   2.049   2.372   2.899 -1.7998  0.4433  0.7698
  896SOL     OW 2686   2.208   0.035   2.503  0.5447  0.1616  0.2556
  896SOL    HW1 2687   2.239   0.101   2.576  3.4230  3.1352 -1.2378
  896SOL    HW2 2688   2.178   0.096   2.428 -0.9549  2.9395  0.0913
  897SOL     OW 2689   0.293   1.695   1.932 -0.2073  0.0645 -0.3496
  897SOL    HW1 2690   0.325   1.601   1.946 -1.3348  0.5110 -0.7439
  897SOL    HW2 2691   0.368   1.742   1.881  2.0883  0.7578  2.7408
  898SOL     OW 2692   2.410   1.670   1.861  0.1976  0.6255  0.0375
  898SOL    HW1 2693   2.386   1.668   1.759  1.4834  0.2210 -2.0999
  898SOL    HW2 2694   2.510   1.686   1.874  1.8495 -0.2478 -1.1296
  899SOL     OW 2695   1.675   2.674   1.107 -0.3418 -0.2915 -0.0958
  899SOL    HW1 2696   1.613   2.692   1.029  0.3785 -2.0309 -0.3302
  899SOL    HW2 2697   1.630   2.714   1.190  0.0921 -0.8188  0.5527
  900SOL     OW 2698   1.030   0.896   0.146 -0.5190 -0.8448 -0.1082
  900SOL    HW1 2699   1.093   0.902   0.066  0.9432 -1.4443 -2.5140
  900SOL    HW2 2700   0.933   0.874   0.113 -0.2655 -0.0447 -0.1263
  901SOL     OW 2701   1.313   1.481   2.390 -0.3036 -0.3637 -0.1974
  901SOL    HW1 2702   1.328   1.388   2.348 -2.9369 -1.8393 -1.3692
  901SOL    HW2 2703   1.400   1.538   2.394  2.1509  1.1375  0.8779
  902SOL     OW 2704   0.052   2.556   0.093  0.2718  1.2888  0.0772
  902SOL    HW1 2705   0.101   2.511   0.172  0.1784  0.9002 -0.4001
  902SOL    HW2 2706   3.044   2.537   0.094 -0.8928  1.3830 -0.7937
  903SOL     OW 2707   2.365   0.775   1.861  0.4990  1.0027  0.2455
  903SOL    HW1 2708   2.390   0.678   1.882 -0.1692 -2.3625 -1.0501
  903SOL    HW2 2709   2.422   0.838   1.914 -1.0264 -3.2887 -0.3456
  904SOL     OW 2710   1.580   0.652   3.081 -0.2425 -0.1911 -0.2164
  904SOL    HW1 2711   1.601   0.750   3.085 -2.1119 -2.3411 -0.8329
  904SOL    HW2 2712   1.654   0.598   0.034  0.2354 -2.1227  0.8398
  905SOL     OW 2713   2.096   2.472   1.146 -0.3104 -0.3527  0.6372
  905SOL    HW1 2714   2.109   2.571   1.113 -2.5247  1.8854  2.0797
  905SOL    HW2 2715   2.127   2.408   1.073  0.0764  1.3661 -0.4383
  906SOL     OW 2716   1.436   1.979   2.969 -0.1345 -0.5096 -0.6061
  906SOL    HW1 2717   1.505   1.920   3.010 -1.5522  3.7856 -0.1324
  906SOL    HW2 2718   1.432   1.960   2.866  1.0483 -2.4031 -2.1295
  907SOL     OW 2719   0.896   2.785   0.559  0.2741 -0.3152 -0.3488
  907SOL    HW1 2720   0.803   2.822   0.575  1.2673  0.3019 -0.5291
  907SOL    HW2 2721   0.891   2.685   0.541  1.9744  1.2405 -0.5802
  908SOL     OW 2722   1.149   2.699   1.979 -0.1086  0.0677  0.4024
  908SOL    HW1 2723   1.204   2.613   1.962  1.4592  0.3719  2.1495
  908SOL    HW2 2724   1.212   2.775   1.998  3.4227 -1.4945 -0.8435
  909SOL     OW 2725   1.683   0.550   1.267  0.4681  0.0979 -0.0199
  909SOL    HW1 2726   1.709   0.454   1.275  0.2283  0.8401 -0.1360
  909SOL    HW2 2727   1.603   0.557   1.197 -0.2753  1.0847 -2.7713
  910SOL     OW 2728   1.240   0.942   3.071  0.8895  0.2393  0.4876
  910SOL    HW1 2729   1.199   1.035   3.045 -2.2123  3.1706  1.3262
  910SOL    HW2 2730   1.278   0.897   2.985 -0.8361  0.5386 -0.7947
  911SOL     OW 2731   2.839   0.729   0.299  0.1611  0.3361 -0.3710
  911SOL    HW1 2732   2.785   0.662   0.351  0.1291 -1.1611 -1.5609
  911SOL    HW2 2733   2.829   0.826   0.328  0.9312 -1.7735  1.0447
  912SOL     OW 2734   0.070   2.168   3.056  0.3427 -0.0542 -0.3367
  912SOL    HW1 2735   0.109   2.081   3.019  1.0731  0.6453  2.3064
  912SOL    HW2 2736   0.137   2.218   0.024 -0.6102  2.7462 -0.1469
  913SOL     OW 2737   2.660   1.984   2.608  0.7771  0.3428  0.0197
  913SOL    HW1 2738   2.673   2.074   2.646 -0.3495  0.1160  1.6815
  913SOL    HW2 2739   2.678   1.918   2.687 -1.5724 -0.6777  2.8885
  914SOL     OW 2740   1.352   1.659   1.594  0.3341 -0.0316  0.0831
  914SOL    HW1 2741   1.330   1.682   1.496 -1.8213  3.8288 -1.1086
  914SOL    HW2 2742   1.399   1.743   1.636  0.1475  1.3319 -0.4695
  915SOL     OW 2743   0.696   2.470   2.095  1.0435  0.5065 -0.1147
  915SOL    HW1 2744   0.647   2.562   2.088 -3.3019  0.4245  0.7430
  915SOL    HW2 2745   0.797   2.485   2.082 -0.7071  0.3677 -1.3166
  916SOL     OW 2746   0.284   1.249   1.792  0.3214  0.5480 -0.1313
  916SOL    HW1 2747   0.316   1.168   1.841 -1.2861  1.1500 -1.5248
  916SOL    HW2 2748   0.287   1.231   1.691  0.2356  0.5888 -0.6139
  917SOL     OW 2749   2.268   0.259   0.461  0.0785 -0.1001  0.2809
  917SOL    HW1 2750   2.224   0.226   0.379 -0.4233  1.1938  0.8434
  917SOL    HW2 2751   2.368   0.244   0.464  0.1590 -0.3135 -1.4811
  918SOL     OW 2752   1.595   2.760   2.269  0.8034  0.4567 -0.0720
  918SOL    HW1 2753   1.655   2.678   2.263  1.0530 -0.3229  3.7154
  918SOL    HW2 2754   1.563   2.775   2.367 -2.0110  4.0343  3.0411
  919SOL     OW 2755   1.508   2.585   1.878 -0.6668  0.1191  0.1557
  919SOL    HW1 2756   1.489   2.627   1.788  2.3792  0.1426  1.3388
  919SOL    HW2 2757   1.418   2.557   1.916 -0.1054  0.5669  1.1162
  920SOL     OW 2758   0.670   1.002   2.825  0.2195  0.0717 -0.0827
  920SOL    HW1 2759   0.645   1.085   2.776  1.7620  0.6312  1.8062
  920SOL    HW2 2760   0.588   0.975   2.882  0.0199 -0.2539 -2.2754
  921SOL     OW 2761   2.979   0.580   2.664 -0.0532  0.0129 -0.0458
  921SOL    HW1 2762   2.901   0.568   2.599 -2.1988  0.6665 -0.4679
  921SOL    HW2 2763   3.066   0.547   2.617  1.4815 -0.1157 -0.2062
  922SOL     OW 2764   0.859   2.092   0.607 -0.2806  0.1097  0.5347
  922SOL    HW1 2765   0.906   2.021   0.546 -0.4292 -1.4203 -2.5519
  922SOL    HW2 2766   0.885   2.073   0.707 -1.8823 -0.2294  3.0542
  923SOL     OW 2767   0.422   1.069   2.093  0.0417  0.3242  0.4865
  923SOL    HW1 2768   0.404   1.051   1.994 -1.3267 -0.0113 -0.0046
  923SOL    HW2 2769   0.336   1.107   2.139 -1.6290 -0.4943 -1.1626
  924SOL     OW 2770   1.394   3.006   2.728 -0.1219  0.2414  0.1461
  924SOL    HW1 2771   1.352   3.087   2.692  0.7163 -3.2770  2.3588
  924SOL    HW2 2772   1.347   2.964   2.809 -0.1917  0.5458 -1.0114
  925SOL     OW 2773   2.635   1.406   1.578  0.4441  0.1402  0.6612
  925SOL    HW1 2774   2.572   1.330   1.612 -0.1758 -1.1326 -1.9233
  925SOL    HW2 2775   2.714   1.354   1.532  1.2719  0.3333 -2.8534
  926SOL     OW 2776   2.017   0.775   1.649  0.4570 -0.0521 -0.3416
  926SOL    HW1 2777   2.052   0.801   1.557  1.4861  0.8487  2.3801
  926SOL    HW2 2778   2.044   0.679   1.659 -0.6792  1.9311 -1.0996
  927SOL     OW 2779   2.318   2.821   1.258 -0.0664  0.0441  0.2895
  927SOL    HW1 2780   2.377   2.820   1.341 -0.1899  2.4215  1.3707
  927SOL    HW2 2781   2.321   2.908   1.207  0.0219  1.0031  1.3850
  928SOL     OW 2782   0.241   0.792   2.173 -0.3113 -0.3552  0.1246
  928SOL    HW1 2783   0.171   0.855   2.142  0.9761  1.3946 -1.0100
  928SOL    HW2 2784   0.289   0.763   2.083 -1.2901 -1.0345  0.5543
  929SOL     OW 2785   2.605   0.606   0.799 -0.3188 -0.2250 -0.0600
  929SOL    HW1 2786   2.601   0.654   0.704  0.6135  0.0351 -1.0574
  929SOL    HW2 2787   2.701   0.578   0.822 -0.8235  1.7492  1.5336
  930SOL     OW 2788   2.871   2.798   1.933  0.7982 -0.2652 -0.2131
  930SOL    HW1 2789   2.787   2.769   1.882 -2.7014  1.1732  2.0460
  930SOL    HW2 2790   2.955   2.785   1.877  1.7126  0.0290 -1.2268
  931SOL     OW 2791   1.940   1.158   0.600  0.7714  0.7539 -0.5047
  931SOL    HW1 2792   1.994   1.116   0.673 -0.5326  0.4234 -3.4645
  931SOL    HW2 2793   1.990   1.238   0.568  3.0554 -1.2884  0.2324
  932SOL     OW 2794   2.668   1.068   1.943 -0.5195  0.2195 -0.0215
  932SOL    HW1 2795   2.591   1.008   1.975  0.1913 -1.3654 -2.3745
  932SOL    HW2 2796   2.721   1.017   1.876  0.6141 -0.3573  0.9016
  933SOL     OW 2797   2.814   2.160   1.775  0.2139 -0.0586 -0.0427
  933SOL    HW1 2798   2.734   2.101   1.767 -1.7545 -0.3290 -0.9976
  933SOL    HW2 2799   2.885   2.127   1.841  2.7975  0.1507 -1.4209
  934SOL     OW 2800   0.607   2.153   1.405 -0.3439  0.1924  0.5123
  934SOL    HW1 2801   0.693   2.110   1.434 -0.9663  0.9530  0.3004
  934SOL    HW2 2802   0.547   2.176   1.486 -0.2373 -1.2051  1.0233
  935SOL     OW 2803   2.642   1.555   2.136  0.0893 -0.0372  0.1075
  935SOL    HW1 2804   2.650   1.640   2.078  0.7928  1.5725 -2.0183
  935SOL    HW2 2805   2.587   1.481   2.093 -1.7279  2.2044 -1.4692
  936SOL     OW 2806   2.231   1.688   2.202  0.2358 -0.6955  0.5413
  936SOL    HW1 2807   2.204   1.618   2.129  1.1330 -3.3918  0.8927
  936SOL    HW2 2808   2.173   1.776   2.193 -0.7992  0.7331  0.2683
  937SOL     OW 2809   1.803   1.441   1.752 -0.6563  0.3317 -0.0842
  937SOL    HW1 2810   1.712   1.482   1.722 -0.6546  1.1671  0.5240
  937SOL    HW2 2811   1.856   1.395   1.672 -1.9750  1.2593 -3.1576
  938SOL     OW 2812   0.744   2.457   2.440  0.3182 -0.4651  0.2299
  938SOL    HW1 2813   0.813   2.435   2.369 -0.2409 -2.5458 -1.4061
  938SOL    HW2 2814   0.786   2.421   2.525  0.3546 -1.6918 -2.6108
  939SOL     OW 2815   2.166   1.147   3.089  0.2158  0.5094 -0.0011
  939SOL    HW1 2816   2.111   1.197   3.013 -0.3165  0.8871 -0.1349
  939SOL    HW2 2817   2.206   1.063   3.047 -0.1806 -0.0588 -0.4194
  940SOL     OW 2818   1.106   1.776   0.646 -0.0192 -0.3236  0.1126
  940SOL    HW1 2819   1.148   1.687   0.616  1.1418  2.6540  0.2004
  940SOL    HW2 2820   1.172   1.854   0.652 -0.8632 -0.4926 -1.2721
  941SOL     OW 2821   1.580   2.875   2.600  0.1052 -0.2280  0.5088
  941SOL    HW1 2822   1.514   2.923   2.662 -2.1037 -3.8934  0.7375
  941SOL    HW2 2823   1.589   2.779   2.628  1.3106  2.8490 -1.8586
  942SOL     OW 2824   0.901   2.514   0.412  0.4118 -0.3227 -0.2382
  942SOL    HW1 2825   0.846   2.558   0.340  1.9556 -0.3199  0.1982
  942SOL    HW2 2826   1.000   2.505   0.388  2.1088 -0.4230  1.0652
  943SOL     OW 2827   1.786   0.009   1.718  0.3877  0.2316  0.0585
  943SOL    HW1 2828   1.710   0.064   1.759  0.7181 -0.1544 -1.2238
  943SOL    HW2 2829   1.828   0.060   1.640 -1.0640 -2.0796 -0.6611
  944SOL     OW 2830   0.782   1.376   2.898  0.4935 -0.1269  0.6516
  944SOL    HW1 2831   0.772   1.464   2.853 -0.8940 -2.9605  1.5058
  944SOL    HW2 2832   0.721   1.304   2.852 -0.2901 -1.0587 -1.7349
  945SOL     OW 2833   3.006   2.402   1.179  0.4177  0.0205 -0.2996
  945SOL    HW1 2834   2.924   2.415   1.237  0.2878 -1.5431  1.1571
  945SOL    HW2 2835   2.985   2.353   1.100 -2.1019  3.1345  0.7086
  946SOL     OW 2836   0.577   1.228   2.747  0.0519  0.0800 -0.0051
  946SOL    HW1 2837   0.614   1.225   2.651 -1.5955 -2.0636 -1.6837
  946SOL    HW2 2838   0.485   1.181   2.750 -2.0820 -0.9928  0.5429
  947SOL     OW 2839   2.689   0.022   1.829 -0.6224 -0.0297  0.4762
  947SOL    HW1 2840   2.677   0.033   1.930  1.8445  1.8239  0.0444
  947SOL    HW2 2841   2.785   0.001   1.793  1.5576 -0.6045  1.5735
  948SOL     OW 2842   0.160   2.023   1.157  0.1656  0.5163 -0.5163
  948SOL    HW1 2843   0.200   1.955   1.095 -2.0291 -0.3043  0.9652
  948SOL    HW2 2844   0.114   1.970   1.235 -0.2855  0.4827  0.4067
  949SOL     OW 2845   1.267   1.091   1.636  0.0369  0.5456 -0.4308
  949SOL    HW1 2846   1.269   1.071   1.536 -3.7316  1.7877  2.0724
  949SOL    HW2 2847   1.195   1.159   1.660  0.6205  3.3484  0.8425
  950SOL     OW 2848   0.120   1.119   1.127 -0.4375  0.7400 -0.4045
  950SOL    HW1 2849   0.070   1.086   1.045 -0.3209  1.4299 -0.2130
  950SOL    HW2 2850   0.216   1.144   1.101  2.7935 -0.1045  0.7726
  951SOL     OW 2851   0.246   1.832   2.156  0.4883 -0.2340 -0.1193
  951SOL    HW1 2852   0.278   1.929   2.154  1.5778  3.0619  1.2446
  951SOL    HW2 2853   0.279   1.782   2.072  2.0474 -3.1204  1.8582
  952SOL     OW 2854   1.519   1.777   0.305 -0.3604  0.1109 -0.1108
  952SOL    HW1 2855   1.493   1.867   0.342  1.4811 -2.4293 -1.3173
  952SOL    HW2 2856   1.439   1.725   0.275 -1.2176 -1.3055 -1.2813
  953SOL     OW 2857   1.049   0.636   0.225 -0.5904  0.0642 -0.1787
  953SOL    HW1 2858   1.005   0.602   0.142 -2.1891 -0.7610  2.1161
  953SOL    HW2 2859   1.086   0.727   0.205  3.0033 -1.0910 -1.6827
  954SOL     OW 2860   2.099   1.085   0.809  0.1568 -0.2661  0.0006
  954SOL    HW1 2861   2.164   1.167   0.813  1.2194  4.2168  0.5192
  954SOL    HW2 2862   2.056   1.069   0.903 -1.1794  0.0436  0.7007
  955SOL     OW 2863   2.599   1.602   0.369 -0.1226  0.4077  0.2715
  955SOL    HW1 2864   2.608   1.655   0.281  0.8926 -2.7530 -3.0892
  955SOL    HW2 2865   2.683   1.550   0.391 -0.9224  0.1166 -0.9685
  956SOL     OW 2866   1.015   0.362   1.745  0.1774 -0.1751  0.0398
  956SOL    HW1 2867   1.057   0.456   1.728 -0.8492  0.3631 -0.8099
  956SOL    HW2 2868   0.961   0.339   1.662  2.8843  1.1850 -0.7525
  957SOL     OW 2869   1.781   0.981   1.223 -0.6483  0.5091 -0.2813
  957SOL    HW1 2870   1.756   1.025   1.315 -2.0959 -0.4736 -2.2171
  957SOL    HW2 2871   1.803   0.883   1.233  0.5953  0.9861  2.1471
  958SOL     OW 2872   0.496   1.906   0.749 -0.1360  0.4704 -0.3207
  958SOL    HW1 2873   0.399   1.913   0.720  0.3552  0.6635  0.4258
  958SOL    HW2 2874   0.563   1.930   0.680 -0.4323  0.5742  0.1772
  959SOL     OW 2875   1.937   1.674   1.419  0.2135 -0.1991 -0.0656
  959SOL    HW1 2876   1.958   1.734   1.495  0.8140 -1.7936 -0.2864
  959SOL    HW2 2877   2.022   1.619   1.398 -1.0786 -0.2561  2.0738
  960SOL     OW 2878   3.014   1.758   2.792 -0.3184 -0.4212 -0.0931
  960SOL    HW1 2879   3.004   1.774   2.898  3.1000 -1.1096  2.9813
  960SOL    HW2 2880   3.088   1.697   2.768  0.5223 -1.6326  1.9866
  961SOL     OW 2881   0.842   1.423   0.835  0.1845  0.2967 -0.0594
  961SOL    HW1 2882   0.851   1.515   0.789 -1.2722  3.2271 -0.8468
  961SOL    HW2 2883   0.930   1.404   0.884 -1.2249  0.0744  0.0645
  962SOL     OW 2884   0.831   0.933   0.453 -0.3602 -0.6311 -0.6944
  962SOL    HW1 2885   0.848   0.837   0.475 -0.6621  3.2055 -0.0406
  962SOL    HW2 2886   0.888   0.994   0.509  0.3362 -0.9500 -0.2155
  963SOL     OW 2887   1.234   1.766   2.079 -0.1817 -0.2390  0.3770
  963SOL    HW1 2888   1.197   1.702   2.147  2.6943  5.2550  0.7451
  963SOL    HW2 2889   1.334   1.785   2.100  3.3353  0.9485  2.5786
  964SOL     OW 2890   0.115   2.642   2.415 -0.2798  0.3230  0.8151
  964SOL    HW1 2891   0.188   2.581   2.374  0.7530  0.0532 -1.5127
  964SOL    HW2 2892   0.076   2.596   2.499 -0.4411  1.4563  0.8926
  965SOL     OW 2893   0.718   2.280   0.264  0.5661  0.1555  0.1132
  965SOL    HW1 2894   0.744   2.286   0.164 -0.8382  2.2773 -1.1919
  965SOL    HW2 2895   0.680   2.372   0.286 -0.3530 -2.1829 -1.2396
  966SOL     OW 2896   3.085   1.716   3.070 -0.2064  0.1211  0.8042
  966SOL    HW1 2897   3.022   1.728   0.050  1.3443  2.2266 -0.6130
  966SOL    HW2 2898   0.035   1.626   3.075 -0.2091 -1.3386  3.9667
  967SOL     OW 2899   2.068   2.782   2.777  0.4839  0.1894 -0.2366
  967SOL    HW1 2900   2.160   2.823   2.758  0.9072  0.8300 -1.1472
  967SOL    HW2 2901   1.992   2.820   2.720  0.8997 -2.2626  0.3713
  968SOL     OW 2902   2.084   2.962   0.784 -0.2466  0.4842  0.3869
  968SOL    HW1 2903   2.176   2.994   0.811 -2.7287 -2.9283 -0.3038
  968SOL    HW2 2904   2.085   2.860   0.770 -1.3646 -1.4573  2.3406
  969SOL     OW 2905   0.631   1.127   2.248  0.2945  0.8246  0.2504
  969SOL    HW1 2906   0.627   1.157   2.349 -1.2451 -0.7808  2.1912
  969SOL    HW2 2907   0.542   1.121   2.203  2.2231 -1.3456  0.5300
  970SOL     OW 2908   1.732   1.252   0.751  0.1496  0.4146  0.0418
  970SOL    HW1 2909   1.790   1.216   0.681  2.5943  0.3535  3.1462
  970SOL    HW2 2910   1.774   1.220   0.837 -0.1770 -0.3397 -1.0457
  971SOL     OW 2911   2.464   2.861   1.481 -0.4983 -0.0379 -0.1319
  971SOL    HW1 2912   2.528   2.871   1.564 -0.2196  1.3248 -0.1297
  971SOL    HW2 2913   2.494   2.929   1.409  1.2966  0.4656  0.4075
  972SOL     OW 2914   3.026   0.150   1.543  0.0531  0.3621  0.3030
  972SOL    HW1 2915   2.981   0.069   1.583  0.9178  0.9913 -3.0106
  972SOL    HW2 2916   3.069   0.195   1.625  1.0656  2.0289  1.0071
  973SOL     OW 2917   0.376   0.194   2.541 -0.3575  0.2775 -0.4500
  973SOL    HW1 2918   0.408   0.102   2.575 -1.0262  1.5909 -3.1205
  973SOL    HW2 2919   0.379   0.260   2.618  0.1235 -0.1594  2.2877
  974SOL     OW 2920   2.478   0.929   2.056 -0.3308 -0.5121  0.7607
  974SOL    HW1 2921   2.399   0.976   2.095  0.4476 -0.1072 -3.9846
  974SOL    HW2 2922   2.523   0.878   2.128  0.1538  1.8332  0.5368
  975SOL     OW 2923   0.913   0.555   1.342  0.7054  0.2521 -0.1182
  975SOL    HW1 2924   0.879   0.514   1.258  0.8022  0.7236  1.4713
  975SOL    HW2 2925   0.852   0.636   1.372  0.7734  0.2921  0.3702
  976SOL     OW 2926   0.721   1.513   1.764  0.0403  0.1215 -0.0149
  976SOL    HW1 2927   0.660   1.541   1.837  0.7842  1.8382 -0.8734
  976SOL    HW2 2928   0.795   1.586   1.754  0.7046  1.6995  2.0131
  977SOL     OW 2929   0.943   0.380   0.275 -0.5091  0.3878  0.4444
  977SOL    HW1 2930   0.984   0.464   0.239  1.5294 -0.4626  0.4338
  977SOL    HW2 2931   1.004   0.330   0.339  0.1665 -0.0649 -0.2005
  978SOL     OW 2932   2.627   0.739   2.189 -0.5915 -0.5596  0.2182
  978SOL    HW1 2933   2.555   0.670   2.163  0.7067  0.1691 -4.5215
  978SOL    HW2 2934   2.638   0.744   2.288 -0.8652 -0.9120 -0.0994
  979SOL     OW 2935   1.446   0.420   2.003  0.1555 -0.2185 -0.6627
  979SOL    HW1 2936   1.386   0.391   1.926 -0.7853  0.8687 -3.1347
  979SOL    HW2 2937   1.508   0.493   1.969  1.2928  0.7932 -1.2110
  980SOL     OW 2938   1.565   1.574   1.909  0.4744  0.0576 -0.1948
  980SOL    HW1 2939   1.477   1.520   1.929  1.0570  0.8600  2.5710
  980SOL    HW2 2940   1.646   1.518   1.883  0.9049  0.3457 -0.2156
  981SOL     OW 2941   2.572   0.895   1.473  0.0665 -0.0506 -0.2550
  981SOL    HW1 2942   2.623   0.806   1.480  0.8614  1.8198 -2.5839
  981SOL    HW2 2943   2.482   0.895   1.525 -0.7331 -1.2615  0.4788
  982SOL     OW 2944   0.447   0.316   2.784  0.2797 -0.4637  0.0135
  982SOL    HW1 2945   0.459   0.419   2.802 -1.2830  3.6839 -0.1733
  982SOL    HW2 2946   0.510   0.252   2.833 -0.4035  0.7687 -1.4200
  983SOL     OW 2947   2.374   1.001   2.783  0.1684 -0.0801  0.2659
  983SOL    HW1 2948   2.321   0.978   2.698 -0.2968  2.0923 -0.1582
  983SOL    HW2 2949   2.318   1.004   2.867  1.6435  2.1252  0.0804
  984SOL     OW 2950   1.218   3.062   1.812 -0.4756 -0.1582 -0.3627
  984SOL    HW1 2951   1.280   3.086   1.891 -2.0388 -0.7821  1.5965
  984SOL    HW2 2952   1.135   3.022   1.852 -0.7708 -0.4819 -3.0279
  985SOL     OW 2953   1.712   1.966   2.022 -0.3163 -0.0108  0.5722
  985SOL    HW1 2954   1.783   1.904   1.975  4.5557 -0.8459 -1.0874
  985SOL    HW2 2955   1.687   2.051   1.965  1.4405 -0.1823  1.5553
  986SOL     OW 2956   2.313   0.496   1.476  0.0083  0.4628  0.8603
  986SOL    HW1 2957   2.407   0.520   1.513  0.4091  0.6183  0.4695
  986SOL    HW2 2958   2.303   0.395   1.467  1.3563  0.8172 -0.0606
  987SOL     OW 2959   2.797   1.029   1.383  0.0773  0.5322  0.2905
  987SOL    HW1 2960   2.706   0.998   1.419 -1.7646 -1.3617  0.4922
  987SOL    HW2 2961   2.817   1.121   1.415 -0.1578 -1.7062  0.8241
  988SOL     OW 2962   2.307   1.718   1.615 -0.4458  0.4996 -0.2794
  988SOL    HW1 2963   2.307   1.817   1.635 -1.5634 -1.6105 -1.3232
  988SOL    HW2 2964   2.310   1.702   1.513  3.6128  1.1797 -0.5819
  989SOL     OW 2965   1.106   2.475   0.116 -0.7531  0.4705 -0.1246
  989SOL    HW1 2966   1.088   2.574   0.110  1.5239  1.1380  0.3131
  989SOL    HW2 2967   1.142   2.456   0.215  3.2279 -0.6207  3.5696
  990SOL     OW 2968   1.758   0.964   2.837  0.1687 -0.3898  0.2022
  990SOL    HW1 2969   1.754   0.948   2.936 -0.2134  0.9222 -1.5000
  990SOL    HW2 2970   1.761   0.885   2.777  2.0815  0.9996  0.2735
  991SOL     OW 2971   1.210   0.334   0.420  0.2311 -0.4619  1.1170
  991SOL    HW1 2972   1.284   0.297   0.360  1.4628  0.1205  2.6605
  991SOL    HW2 2973   1.216   0.297   0.509 -4.7766 -1.9255 -2.6842
  992SOL     OW 2974   2.860   1.265   1.513  0.1103 -0.3301 -0.6384
  992SOL    HW1 2975   2.930   1.325   1.468  1.6312  0.3214  0.2147
  992SOL    HW2 2976   2.900   1.209   1.587  1.3689  2.0438 -0.7537
  993SOL     OW 2977   2.748   0.697   1.505  0.1150 -0.4198  0.0082
  993SOL    HW1 2978   2.815   0.649   1.561  0.6831  1.4475  0.3325
  993SOL    HW2 2979   2.758   0.669   1.407  0.1354 -0.1392  3.2203
  994SOL     OW 2980   0.294   2.168   2.573  0.7428  0.1492 -0.0176
  994SOL    HW1 2981   0.371   2.229   2.560 -2.9011 -2.0045 -0.5308
  994SOL    HW2 2982   0.265   2.182   2.667  1.3587  1.2625 -3.9445
  995SOL     OW 2983   1.956   1.111   2.700  0.0216  0.0541  0.4795
  995SOL    HW1 2984   2.022   1.032   2.686  1.2757 -0.4515 -1.0476
  995SOL    HW2 2985   1.874   1.074   2.753 -1.8971 -1.0869  1.3158
  996SOL     OW 2986   2.857   1.679   0.589  0.6640 -0.0586 -0.3518
  996SOL    HW1 2987   2.838   1.760   0.530  0.8055 -0.0623  0.2167
  996SOL    HW2 2988   2.856   1.589   0.543  1.2111  0.0192 -1.6968
  997SOL     OW 2989   2.264   0.797   2.248 -0.7023  0.5814  0.2062
  997SOL    HW1 2990   2.247   0.877   2.189  1.0797 -0.0229  1.5707
  997SOL    HW2 2991   2.181   0.764   2.295  2.3496  1.6424 -1.9631
  998SOL     OW 2992   2.613   1.258   0.540 -0.5060 -0.4246  0.7195
  998SOL    HW1 2993   2.607   1.201   0.459 -0.3295 -0.0790 -0.8072
  998SOL    HW2 2994   2.693   1.318   0.533 -2.1572 -0.3886  0.3870
  999SOL     OW 2995   0.039   2.285   0.408 -0.2990 -0.1323 -0.2394
  999SOL    HW1 2996   0.002   2.298   0.505 -0.3848 -2.8430 -0.1528
  999SOL    HW2 2997   3.087   2.208   0.362  0.3624 -1.4324  0.3078
 1000SOL     OW 2998   0.816   0.822   2.497  0.1671 -0.3162 -0.0069
 1000SOL    HW1 2999   0.853   0.808   2.591  1.9419 -1.7110 -3.5135
 1000SOL    HW2 3000   0.849   0.751   2.434 -0.8941  2.3098 -0.9406
   3.09651   3.09651   3.09651
