1000 SPC/Fw water molecules t=  62.00000 step= 62000
 3000
    1SOL     OW    1   2.136   2.602   0.844 -0.3213  0.0272  0.0520
    1SOL    HW1    2   2.059   2.602   0.775  1.9807  0.3847 -1.4113
    1SOL    HW2    3   2.194   2.683   0.834 -1.4357 -2.1690  1.2659
    2SOL     OW    4   0.972   0.939   2.611 -0.0498 -0.3754 -0.1092
    2SOL    HW1    5   0.920   0.963   2.692  1.2970 -1.8222  0.8137
    2SOL    HW2    6   1.065   0.975   2.619 -0.4758  1.1161  3.3411
    3SOL     OW    7   1.319   2.697   2.636  0.2892  0.4022 -0.1806
    3SOL    HW1    8   1.403   2.748   2.659  0.4492  1.0301 -0.4255
    3SOL    HW2    9   1.343   2.597   2.632 -0.8878 -0.5197  1.1994
    4SOL     OW   10   1.335   1.644   2.911 -0.1056  0.1862  0.1345
    4SOL    HW1   11   1.410   1.571   2.904 -0.8228 -2.2948 -1.2078
    4SOL    HW2   12   1.377   1.736   2.908  0.7376  2.0836  1.6062
    5SOL     OW   13   1.041   0.741   1.815 -0.0655  0.4007 -0.3972
    5SOL    HW1   14   1.102   0.670   1.856  0.8978 -2.3126 -0.1893
    5SOL    HW2   15   0.945   0.729   1.849  0.4582  0.2481  3.1751
    6SOL     OW   16   1.888   0.618   2.455 -0.2753 -0.4258  0.4867
    6SOL    HW1   17   1.974   0.609   2.400  1.5671 -0.0361 -2.0256
    6SOL    HW2   18   1.858   0.522   2.474  2.2710 -0.8982  1.1487
    7SOL     OW   19   0.220   0.365   1.625 -0.0741 -0.4226  0.3247
    7SOL    HW1   20   0.140   0.415   1.587  0.7806 -0.1090  0.3987
    7SOL    HW2   21   0.202   0.326   1.714  1.5439  1.6838 -0.9687
    8SOL     OW   22   1.922   3.043   1.955  0.1537 -0.0719 -0.2783
    8SOL    HW1   23   1.850   2.971   1.938  1.8230 -1.1395 -2.0174
    8SOL    HW2   24   1.879   3.135   1.972  2.0836 -1.0750 -0.4385
    9SOL     OW   25   0.238   0.077   0.658 -0.4213 -0.0424  0.3052
    9SOL    HW1   26   0.154   0.123   0.624  0.9915 -0.3896  0.5953
    9SOL    HW2   27   0.271   0.013   0.586 -0.7889  0.8710 -1.3213
   10SOL     OW   28   0.492   2.199   2.405 -0.1813  0.6962  0.0397
   10SOL    HW1   29   0.555   2.182   2.333 -3.0299 -1.6620  2.7898
   10SOL    HW2   30   0.536   2.244   2.486 -1.9938 -0.9837  1.2659
   11SOL     OW   31   0.876   1.591   0.289  0.2448 -0.3033  0.2911
   11SOL    HW1   32   0.805   1.590   0.216  0.9696 -1.8293  0.0917
   11SOL    HW2   33   0.837   1.628   0.372 -0.7203 -0.5695 -1.3079
   12SOL     OW   34   2.798   2.416   1.410  0.2364 -0.4834  0.3118
   12SOL    HW1   35   2.881   2.438   1.463 -0.0441 -2.3604  0.2553
   12SOL    HW2   36   2.750   2.346   1.460 -0.7120  0.5102  2.4544
   13SOL     OW   37   0.671   2.986   3.058 -0.3281  0.4520 -0.3690
   13SOL    HW1   38   0.695   3.082   3.076  0.8277 -0.3308 -0.6102
   13SOL    HW2   39   0.622   2.945   0.002 -0.2346  1.3959 -2.0472
   14SOL     OW   40   1.528   1.665   1.427 -0.3558 -0.9204  0.2103
   14SOL    HW1   41   1.468   1.685   1.507 -4.0229  0.1598 -0.3746
   14SOL    HW2   42   1.625   1.692   1.446  1.8349  0.6525 -0.0284
   15SOL     OW   43   0.358   1.810   2.562 -0.1854  0.1306 -0.8648
   15SOL    HW1   44   0.382   1.785   2.660 -0.0889 -0.0657  2.3293
   15SOL    HW2   45   0.325   1.904   2.559 -2.9577  1.3092  2.5069
   16SOL     OW   46   1.688   0.588   2.843  0.0028  0.7201 -0.1587
   16SOL    HW1   47   1.672   0.539   2.749  0.0561  0.3109 -0.9856
   16SOL    HW2   48   1.716   0.682   2.838 -1.1336 -3.3540  1.0320
   17SOL     OW   49   3.014   2.649   2.485 -0.0723  0.0375 -0.0128
   17SOL    HW1   50   3.042   2.562   2.529 -0.8559 -0.2580 -2.7118
   17SOL    HW2   51   3.074   2.679   2.411  2.0732 -1.4711  2.1368
   18SOL     OW   52   1.271   1.207   0.745  0.0555  0.5323 -0.2151
   18SOL    HW1   53   1.222   1.257   0.669 -0.0121  2.9890  0.7834
   18SOL    HW2   54   1.220   1.206   0.834  2.6080 -0.7433 -1.8986
   19SOL     OW   55   2.752   1.914   2.451  0.8238 -0.7387  0.0764
   19SOL    HW1   56   2.839   1.865   2.466 -0.3089  2.4317  1.4945
   19SOL    HW2   57   2.746   2.003   2.503 -2.3944 -1.3736 -1.1345
   20SOL     OW   58   2.449   2.440   2.559  0.0009  0.1334  0.3678
   20SOL    HW1   59   2.494   2.384   2.484  2.1407 -1.0591  0.2990
   20SOL    HW2   60   2.350   2.446   2.541 -1.5742  1.5317  0.7639
   21SOL     OW   61   1.583   1.885   0.405  0.3624 -0.3181 -0.0779
   21SOL    HW1   62   1.557   1.794   0.446 -1.2437 -0.8654  0.7344
   21SOL    HW2   63   1.600   1.957   0.479 -1.1522 -0.9660  0.0202
   22SOL     OW   64   2.333   2.008   1.435 -0.4400  0.0624 -0.2008
   22SOL    HW1   65   2.430   1.978   1.424  0.5887 -4.0722 -0.5423
   22SOL    HW2   66   2.336   2.104   1.471 -0.0908 -1.3437  1.3633
   23SOL     OW   67   0.037   1.206   1.149 -0.4415  0.2479  0.1704
   23SOL    HW1   68   3.099   1.275   1.147  1.0030  0.5721  0.4582
   23SOL    HW2   69   0.007   1.114   1.107 -1.6465 -2.3391  1.9216
   24SOL     OW   70   2.319   1.410   2.049 -1.3151  0.4332 -0.1097
   24SOL    HW1   71   2.417   1.398   2.034 -2.1750  0.8093 -0.2866
   24SOL    HW2   72   2.272   1.323   2.083 -0.0339  0.8005  1.6520
   25SOL     OW   73   2.048   0.244   2.458  0.0612 -0.0973 -0.0303
   25SOL    HW1   74   2.105   0.292   2.524 -2.7258  2.1555 -3.3498
   25SOL    HW2   75   2.103   0.189   2.394 -0.4601  0.2272  1.3704
   26SOL     OW   76   1.185   0.059   0.346  0.2348 -0.3124 -0.2025
   26SOL    HW1   77   1.145   0.147   0.323  2.8949  0.4646  0.4789
   26SOL    HW2   78   1.177   0.034   0.446  0.6345 -0.6432 -1.7493
   27SOL     OW   79   0.681   1.837   0.881 -0.1406 -0.4255 -0.5194
   27SOL    HW1   80   0.648   1.876   0.798  1.8587 -0.2947  0.4632
   27SOL    HW2   81   0.778   1.805   0.867  3.1231 -0.0471 -0.6760
   28SOL     OW   82   2.409   2.326   1.016 -0.0440 -0.3982 -0.0374
   28SOL    HW1   83   2.404   2.232   1.032  2.3305  4.5649  1.3188
   28SOL    HW2   84   2.481   2.362   1.075  0.0682 -3.9303 -1.4147
   29SOL     OW   85   2.098   3.070   1.743  0.1511  0.0978  0.2798
   29SOL    HW1   86   2.028   3.059   1.814  0.4558  2.4911  1.3308
   29SOL    HW2   87   2.163   2.993   1.745 -2.0847 -1.5133 -0.9165
   30SOL     OW   88   0.657   2.918   1.266  0.0051  0.0367  0.3593
   30SOL    HW1   89   0.581   2.982   1.294 -1.5559  0.5716  1.4205
   30SOL    HW2   90   0.747   2.948   1.299  1.3927  0.6658  1.8677
   31SOL     OW   91   3.057   1.967   2.093  0.2657 -0.6778 -0.5580
   31SOL    HW1   92   3.111   2.012   2.022 -0.7305 -0.3318  0.1386
   31SOL    HW2   93   3.056   1.865   2.083 -0.3383 -1.2193 -0.4826
   32SOL     OW   94   1.467   1.739   2.271 -0.0669  0.6593 -0.0476
   32SOL    HW1   95   1.407   1.767   2.194 -2.5914 -1.6225 -0.6880
   32SOL    HW2   96   1.539   1.670   2.244  0.8990  1.4553  0.0973
   33SOL     OW   97   0.241   3.121   3.020  0.1044 -0.8976 -0.4940
   33SOL    HW1   98   0.316   0.040   2.988 -3.7350 -0.8756  0.3705
   33SOL    HW2   99   0.264   3.019   3.034 -0.2653 -1.3808  2.4776
   34SOL     OW  100   2.598   3.034   0.677  0.2652  0.2043 -0.0201
   34SOL    HW1  101   2.529   3.082   0.732  0.2562  1.5835 -2.3160
   34SOL    HW2  102   2.644   2.962   0.735  1.4820  1.1419 -0.5756
   35SOL     OW  103   2.857   0.207   1.580  0.3465 -0.0823 -0.1624
   35SOL    HW1  104   2.879   0.300   1.615  2.9612  2.4562  0.6908
   35SOL    HW2  105   2.843   0.142   1.651  1.9304  1.8519 -4.0799
   36SOL     OW  106   2.842   3.112   2.264  0.1075 -0.1760 -0.0892
   36SOL    HW1  107   2.749   3.102   2.221 -1.2211 -0.4875 -2.8716
   36SOL    HW2  108   2.918   3.048   2.232  2.4359  0.7783  0.3174
   37SOL     OW  109   1.574   2.875   0.189 -0.0962  0.2899  0.6230
   37SOL    HW1  110   1.578   2.974   0.201  0.1041  1.2362 -0.0769
   37SOL    HW2  111   1.484   2.849   0.146 -1.8082 -0.7015 -1.7889
   38SOL     OW  112   3.119   0.902   2.978 -0.1770 -0.2996 -0.2970
   38SOL    HW1  113   3.081   0.828   3.036  0.0944 -2.3369  1.0303
   38SOL    HW2  114   0.063   0.879   2.921  1.4362  0.6631 -1.9471
   39SOL     OW  115   1.710   1.743   1.996  0.4958 -0.4214 -0.3108
   39SOL    HW1  116   1.652   1.819   2.009  1.2573 -0.6182 -0.7552
   39SOL    HW2  117   1.713   1.677   2.075 -1.8685 -1.3165  0.5482
   40SOL     OW  118   0.237   0.433   2.615  0.1292 -0.0098  0.1708
   40SOL    HW1  119   0.150   0.376   2.624  2.2285  1.1179  3.1674
   40SOL    HW2  120   0.321   0.371   2.604  0.4527  0.8349 -0.9778
   41SOL     OW  121   1.807   1.186   1.796 -0.4774  0.8028 -0.2758
   41SOL    HW1  122   1.737   1.181   1.866  0.6856  0.1900 -2.3851
   41SOL    HW2  123   1.776   1.233   1.711  0.9990  1.2066 -0.1140
   42SOL     OW  124   0.025   0.117   1.408  0.1508 -0.1200  0.1243
   42SOL    HW1  125   3.061   0.117   1.397  1.2948 -0.0526 -1.1849
   42SOL    HW2  126   0.060   0.211   1.398 -1.3901 -1.7091 -0.2679
   43SOL     OW  127   1.456   1.189   1.614  0.3100  0.2379 -0.3215
   43SOL    HW1  128   1.359   1.221   1.635  1.5168 -1.2521  0.7714
   43SOL    HW2  129   1.464   1.095   1.650 -0.9262  2.0721  0.4881
   44SOL     OW  130   3.016   0.344   2.929 -0.1361  0.0093  0.3683
   44SOL    HW1  131   3.067   0.317   3.010 -0.9444 -2.6496 -1.8550
   44SOL    HW2  132   2.943   0.277   2.917  0.6041  3.2721 -1.1043
   45SOL     OW  133   0.386   2.175   1.189 -0.1454  0.3605 -0.3165
   45SOL    HW1  134   0.320   2.252   1.205 -0.8749 -0.5392  0.1629
   45SOL    HW2  135   0.357   2.111   1.116  0.5227  1.3882  3.0538
   46SOL     OW  136   2.296   2.904   1.809  0.0035  0.2070  0.0390
   46SOL    HW1  137   2.355   2.989   1.814 -1.2619  0.3910  2.3231
   46SOL    HW2  138   2.345   2.818   1.791 -1.1735 -0.2967  1.1636
   47SOL     OW  139   0.311   2.005   0.983 -0.2590  0.1779  0.0084
   47SOL    HW1  140   0.351   1.964   0.901 -0.0299 -1.3011 -1.8189
   47SOL    HW2  141   0.213   1.968   0.995 -3.7238  1.2163 -0.9688
   48SOL     OW  142   0.619   2.943   0.188 -0.2032  0.1857  0.3625
   48SOL    HW1  143   0.616   3.042   0.206  0.7027 -2.5283 -1.3705
   48SOL    HW2  144   0.561   2.886   0.248  1.5929 -2.1721  0.1156
   49SOL     OW  145   2.925   1.898   1.810  0.0650  0.4390 -0.2801
   49SOL    HW1  146   2.871   1.853   1.886 -0.6286 -1.2654  1.6783
   49SOL    HW2  147   3.000   1.838   1.777 -1.3599  0.7226  0.6454
   50SOL     OW  148   1.416   0.021   0.625  0.7344  0.2586 -0.0576
   50SOL    HW1  149   1.418   0.070   0.535 -2.0125  1.0628  0.1225
   50SOL    HW2  150   1.347   0.081   0.681  0.3211  0.3345 -0.2363
   51SOL     OW  151   1.049   0.354   1.314  0.2185  0.1277  0.0490
   51SOL    HW1  152   1.148   0.363   1.303  0.1461  4.2213 -0.2523
   51SOL    HW2  153   1.013   0.388   1.225  1.7875 -1.7836  1.7762
   52SOL     OW  154   0.664   1.211   0.586 -0.7926 -0.1552  0.2219
   52SOL    HW1  155   0.615   1.229   0.502 -0.1424 -0.6614  2.5068
   52SOL    HW2  156   0.623   1.129   0.628  0.9335  0.8300  0.3941
   53SOL     OW  157   1.485   3.042   2.460  0.1040  0.1283  0.0762
   53SOL    HW1  158   1.587   3.050   2.453 -0.0764  3.1390  0.1930
   53SOL    HW2  159   1.458   2.979   2.537 -0.7952 -0.4278  0.7501
   54SOL     OW  160   1.712   0.561   1.683  0.3271  0.3556 -0.2550
   54SOL    HW1  161   1.722   0.600   1.590 -2.1045  1.2152  2.1518
   54SOL    HW2  162   1.794   0.510   1.715 -0.0880  3.2817  1.2794
   55SOL     OW  163   2.959   2.685   0.344  0.0170 -0.6057 -0.7306
   55SOL    HW1  164   2.936   2.761   0.415 -2.5724  2.2924  2.4637
   55SOL    HW2  165   2.996   2.601   0.384  0.2854 -0.2907 -0.0932
   56SOL     OW  166   0.979   2.919   1.780 -0.0025  0.5705  0.5186
   56SOL    HW1  167   0.892   2.978   1.783 -2.0897  2.4144 -1.4297
   56SOL    HW2  168   1.010   2.919   1.684  1.6046 -0.1252 -1.0019
   57SOL     OW  169   1.755   0.840   2.408 -0.3548 -0.4459 -0.1552
   57SOL    HW1  170   1.798   0.762   2.458 -1.4955  1.8524 -0.3904
   57SOL    HW2  171   1.803   0.852   2.318  2.7919  3.6558 -3.0268
   58SOL     OW  172   0.583   1.269   2.162 -0.1857  0.0148  0.1721
   58SOL    HW1  173   0.607   1.350   2.103  0.1429 -1.2375 -1.3222
   58SOL    HW2  174   0.544   1.190   2.111 -2.6280 -2.8014 -1.2531
   59SOL     OW  175   0.639   2.407   1.891  0.4656 -0.0026 -0.1903
   59SOL    HW1  176   0.693   2.329   1.920 -1.9805  2.6557  0.7718
   59SOL    HW2  177   0.703   2.470   1.835  0.7679 -2.6008 -0.9886
   60SOL     OW  178   2.359   2.481   0.194  0.5750 -0.7286 -0.0708
   60SOL    HW1  179   2.410   2.403   0.143  1.3342  0.2990  0.9255
   60SOL    HW2  180   2.362   2.571   0.142 -1.4822 -0.2377 -0.7997
   61SOL     OW  181   1.114   2.888   0.654  0.0638  0.4242 -0.3093
   61SOL    HW1  182   1.207   2.854   0.643 -0.9995  1.7403  1.7728
   61SOL    HW2  183   1.048   2.825   0.608 -0.0630  2.0849 -0.7057
   62SOL     OW  184   1.722   2.439   2.870 -0.8356  0.1203  0.2754
   62SOL    HW1  185   1.684   2.357   2.820  0.5317 -1.3332 -0.2450
   62SOL    HW2  186   1.733   2.416   2.968 -1.3897 -1.0474 -2.3683
   63SOL     OW  187   2.275   0.634   3.048 -0.6419 -0.4538 -0.0582
   63SOL    HW1  188   2.244   0.699   3.122 -1.6646  0.4532  1.7952
   63SOL    HW2  189   2.350   0.576   3.086  1.3035 -0.3388  1.4150
   64SOL     OW  190   1.274   1.439   0.144 -0.0688 -0.1967 -0.5778
   64SOL    HW1  191   1.191   1.409   0.096  2.0037 -1.1440  1.9754
   64SOL    HW2  192   1.256   1.493   0.228 -0.1854 -0.3852 -0.9624
   65SOL     OW  193   0.871   3.057   1.398 -0.3005 -0.3479  0.0336
   65SOL    HW1  194   0.956   3.005   1.418  0.0980  0.0156 -0.8507
   65SOL    HW2  195   0.876   0.021   1.386  1.1132 -0.9290 -2.3771
   66SOL     OW  196   0.796   1.347   1.439  0.3043 -0.0372 -0.2974
   66SOL    HW1  197   0.778   1.273   1.507  0.6211  1.3297 -0.4121
   66SOL    HW2  198   0.872   1.319   1.379  0.2478  1.0596  1.3999
   67SOL     OW  199   2.258   2.455   1.831 -0.2042 -1.0268 -0.5647
   67SOL    HW1  200   2.324   2.531   1.862  0.6358 -0.2907  0.1286
   67SOL    HW2  201   2.311   2.382   1.786 -2.8145 -0.0785  0.8804
   68SOL     OW  202   1.042   1.157   1.792 -0.2064 -0.2210 -0.7207
   68SOL    HW1  203   0.984   1.201   1.863 -1.7225 -0.3701 -0.4961
   68SOL    HW2  204   0.999   1.085   1.733 -0.6810  0.1712 -1.8603
   69SOL     OW  205   2.649   2.597   0.009 -0.0556  0.0621  0.0980
   69SOL    HW1  206   2.669   2.582   0.109 -3.2381  1.3864  1.7743
   69SOL    HW2  207   2.547   2.599   3.131 -0.4771  0.6797 -0.4163
   70SOL     OW  208   2.473   0.770   2.659 -0.1259  0.0805  0.3770
   70SOL    HW1  209   2.519   0.844   2.709 -1.2561  0.6201 -0.6754
   70SOL    HW2  210   2.538   0.700   2.632  0.8192  2.1361  2.4334
   71SOL     OW  211   3.032   1.995   0.635  0.4357  0.5713 -0.1824
   71SOL    HW1  212   2.993   1.947   0.552 -1.3345  3.1223 -0.3880
   71SOL    HW2  213   2.974   1.980   0.714 -0.1605 -0.5418 -3.7216
   72SOL     OW  214   2.869   1.874   0.432  0.0328  0.5889 -0.1337
   72SOL    HW1  215   2.915   1.793   0.393  2.3516  0.6529 -0.8323
   72SOL    HW2  216   2.810   1.924   0.364 -0.7566 -0.6807 -1.5624
   73SOL     OW  217   0.799   0.503   0.736  0.4954 -0.5317 -0.2518
   73SOL    HW1  218   0.764   0.477   0.827 -1.5760  0.9932  2.0364
   73SOL    HW2  219   0.827   0.600   0.734 -0.2099 -0.9210  0.8928
   74SOL     OW  220   2.683   2.367   2.066  0.5937 -0.1537 -0.4468
   74SOL    HW1  221   2.662   2.267   2.043 -0.4362 -2.1683 -0.9053
   74SOL    HW2  222   2.779   2.366   2.109 -0.0237  0.4905  2.8653
   75SOL     OW  223   1.779   1.638   1.731  0.5680 -0.0229  0.1972
   75SOL    HW1  224   1.764   1.705   1.806  1.5037 -0.2958 -3.0648
   75SOL    HW2  225   1.736   1.551   1.751 -0.4818 -1.1272  0.0090
   76SOL     OW  226   1.121   1.895   1.287  0.1632  0.2081  0.0788
   76SOL    HW1  227   1.165   1.803   1.267  2.1814 -3.1121 -2.8735
   76SOL    HW2  228   1.073   1.893   1.377 -1.0737 -0.7662 -1.2074
   77SOL     OW  229   2.805   1.740   1.999 -0.3018  0.0720 -0.3613
   77SOL    HW1  230   2.876   1.667   2.016  1.9098  0.0039 -0.9440
   77SOL    HW2  231   2.793   1.803   2.078 -1.8171 -0.6766 -1.2160
   78SOL     OW  232   1.669   0.569   0.616  0.6575 -0.4674 -0.7572
   78SOL    HW1  233   1.655   0.481   0.572 -0.0302  3.2778  0.8504
   78SOL    HW2  234   1.589   0.628   0.609  1.2393  1.8387 -1.0125
   79SOL     OW  235   2.061   1.280   1.852  0.0103  0.7998 -0.2126
   79SOL    HW1  236   2.119   1.245   1.930  0.3388  1.0264  0.1860
   79SOL    HW2  237   1.973   1.238   1.856  1.3643  2.9466  0.6590
   80SOL     OW  238   1.005   0.406   1.573 -0.1669  0.4242  0.4815
   80SOL    HW1  239   1.025   0.378   1.475  0.2502 -1.2298 -1.7152
   80SOL    HW2  240   1.045   0.497   1.600  0.1624  3.6051  1.4955
   81SOL     OW  241   0.816   2.607   0.791 -0.2942 -0.1490 -0.0657
   81SOL    HW1  242   0.853   2.664   0.868 -0.2550 -1.6252  1.3703
   81SOL    HW2  243   0.873   2.521   0.796 -0.2190 -1.5420 -2.6686
   82SOL     OW  244   1.282   0.369   1.879  0.2116  0.3122 -0.0343
   82SOL    HW1  245   1.356   0.408   1.821  2.3445  1.5709  2.1382
   82SOL    HW2  246   1.334   0.331   1.957  0.5351  1.4874 -0.3814
   83SOL     OW  247   0.350   2.312   0.667 -0.0613  0.3502  0.4560
   83SOL    HW1  248   0.298   2.249   0.724 -2.4860 -1.3973  2.1644
   83SOL    HW2  249   0.357   2.406   0.707 -0.6803  2.3930  2.8302
   84SOL     OW  250   2.649   1.518   3.102  0.0841  0.5104  0.5002
   84SOL    HW1  251   2.683   1.449   3.032  0.6126  1.2911 -0.9248
   84SOL    HW2  252   2.702   1.606   3.084  1.8265 -0.3063 -1.3867
   85SOL     OW  253   2.614   2.460   1.809 -0.3252 -0.6305 -0.0748
   85SOL    HW1  254   2.552   2.387   1.784  2.9433 -3.9803 -2.8150
   85SOL    HW2  255   2.668   2.440   1.893  2.6356 -1.8970  0.4810
   86SOL     OW  256   1.677   2.717   1.225  0.1016 -0.1283  0.1512
   86SOL    HW1  257   1.775   2.712   1.230 -1.4495 -0.7522 -0.0200
   86SOL    HW2  258   1.652   2.754   1.133 -2.5330  0.9103  1.1404
   87SOL     OW  259   2.611   1.629   0.410 -0.4123 -0.0415 -0.1021
   87SOL    HW1  260   2.569   1.722   0.410 -0.2302 -2.0804  2.0748
   87SOL    HW2  261   2.646   1.594   0.322 -2.2486 -2.3610  1.7363
   88SOL     OW  262   0.938   0.435   1.068 -0.3642  0.3359  0.2292
   88SOL    HW1  263   0.917   0.338   1.068  1.5032 -1.0348 -2.1488
   88SOL    HW2  264   0.851   0.480   1.042  1.9964 -2.1455  0.6078
   89SOL     OW  265   0.790   3.103   1.840 -0.0468 -0.5476 -0.4519
   89SOL    HW1  266   0.822   0.060   1.863 -0.7983 -3.6439 -1.0060
   89SOL    HW2  267   0.744   3.069   1.919  0.3762 -0.4284 -2.7237
   90SOL     OW  268   2.927   1.708   0.802 -0.1394  0.0977 -0.0159
   90SOL    HW1  269   2.874   1.681   0.714  0.0629 -1.0631 -0.6318
   90SOL    HW2  270   3.026   1.700   0.773  0.0831 -0.4604 -2.3060
   91SOL     OW  271   1.298   1.682   1.267 -0.1425 -0.0724 -0.3418
   91SOL    HW1  272   1.386   1.691   1.319  1.3720  0.6026 -3.4788
   91SOL    HW2  273   1.280   1.587   1.239 -2.0730 -0.6090  0.5488
   92SOL     OW  274   2.628   3.079   1.618  0.6572  0.7496  0.1649
   92SOL    HW1  275   2.616   0.030   1.666  0.2971 -2.4875  0.5348
   92SOL    HW2  276   2.724   3.056   1.627 -1.1228 -1.2633  1.9062
   93SOL     OW  277   0.309   1.075   2.783 -0.0806 -0.1719  0.1511
   93SOL    HW1  278   0.386   1.041   2.842  1.5475  2.2207  0.6114
   93SOL    HW2  279   0.338   1.149   2.720  0.8529  0.3291  0.2873
   94SOL     OW  280   2.423   0.015   1.925 -0.1388  0.3647  0.4777
   94SOL    HW1  281   2.332   0.053   1.948  0.9042 -0.0185  0.4523
   94SOL    HW2  282   2.472   0.075   1.861  0.6801  0.1630 -1.4119
   95SOL     OW  283   1.732   0.685   2.092 -0.2008 -0.3420 -0.2575
   95SOL    HW1  284   1.638   0.673   2.136 -0.7529 -2.8507 -4.5467
   95SOL    HW2  285   1.715   0.697   1.991  1.0814 -0.5602 -0.8319
   96SOL     OW  286   2.929   0.737   1.758  0.1036 -0.2485 -0.1435
   96SOL    HW1  287   3.008   0.783   1.803  2.4456  0.1202  1.4846
   96SOL    HW2  288   2.847   0.786   1.788  1.5502  0.0637 -0.8740
   97SOL     OW  289   2.117   3.099   1.470 -0.0856 -0.0722 -0.1233
   97SOL    HW1  290   2.201   3.047   1.444 -0.8440 -0.5817 -1.1477
   97SOL    HW2  291   2.106   3.098   1.572 -1.2542  0.3495  0.6320
   98SOL     OW  292   2.040   2.534   1.698  0.0952  0.4824  0.4859
   98SOL    HW1  293   2.117   2.485   1.738 -0.4647  1.5770 -0.0288
   98SOL    HW2  294   1.990   2.569   1.775 -0.4326  0.8175 -3.2347
   99SOL     OW  295   2.686   0.637   1.549 -0.3038 -0.1763 -0.2521
   99SOL    HW1  296   2.598   0.587   1.540 -0.6139 -0.4952 -0.9118
   99SOL    HW2  297   2.753   0.604   1.616 -1.2982 -0.3327  4.1618
  100SOL     OW  298   2.568   1.757   1.887  0.2236  0.1669 -0.0409
  100SOL    HW1  299   2.500   1.743   1.962  2.2404 -1.2463  0.6667
  100SOL    HW2  300   2.659   1.743   1.927 -3.2974  0.1925 -0.7334
  101SOL     OW  301   2.091   0.030   3.119 -0.0739  0.0073  0.2432
  101SOL    HW1  302   2.136   3.088   3.072 -0.3153  0.2278 -0.4955
  101SOL    HW2  303   2.160   0.074   0.044 -0.7023  1.4358 -0.0319
  102SOL     OW  304   0.597   0.732   1.293 -0.0401  0.3681 -0.4643
  102SOL    HW1  305   0.553   0.649   1.332  0.1641 -0.2144 -0.3548
  102SOL    HW2  306   0.608   0.721   1.189  3.6197 -1.2987 -0.4983
  103SOL     OW  307   3.041   0.192   2.270 -0.0130 -0.5627 -0.4870
  103SOL    HW1  308   2.963   0.130   2.274 -0.7061  1.8062 -0.0928
  103SOL    HW2  309   3.131   0.138   2.285  0.1975 -0.1511  1.0877
  104SOL     OW  310   0.240   2.865   1.542  0.0182  0.1916  0.2573
  104SOL    HW1  311   0.312   2.913   1.490 -1.0668  1.8264 -0.5387
  104SOL    HW2  312   0.275   2.779   1.581  0.4193 -1.0430  1.3831
  105SOL     OW  313   1.379   1.203   2.055  0.5788 -0.0763  0.0381
  105SOL    HW1  314   1.318   1.276   2.090  1.9904  0.3167  1.9549
  105SOL    HW2  315   1.335   1.131   1.997  2.4401 -0.1178  3.5102
  106SOL     OW  316   1.861   0.476   0.792  0.6031  0.0994  0.1891
  106SOL    HW1  317   1.931   0.548   0.806 -1.4629 -3.7873 -1.7395
  106SOL    HW2  318   1.774   0.523   0.755 -1.7703  1.8103  1.6502
  107SOL     OW  319   0.534   0.963   1.433  0.1341  0.5277  0.8392
  107SOL    HW1  320   0.485   0.925   1.513  1.9244 -2.1525 -0.4976
  107SOL    HW2  321   0.570   0.883   1.382  0.0816  0.1940  0.5084
  108SOL     OW  322   3.112   0.629   2.316 -0.3103 -0.0663 -0.0570
  108SOL    HW1  323   3.066   0.639   2.227 -0.4697 -1.4189  1.9566
  108SOL    HW2  324   3.059   0.554   2.367 -3.7730  0.6414  0.5197
  109SOL     OW  325   1.874   0.050   2.717  0.2777  0.2072 -0.1094
  109SOL    HW1  326   1.920   0.119   2.775  0.6999  0.5589  1.2344
  109SOL    HW2  327   1.920   3.096   2.723  0.6583  0.5795  0.9051
  110SOL     OW  328   0.116   1.711   2.868 -0.3066  0.2187  0.3989
  110SOL    HW1  329   0.043   1.685   2.937 -1.2337  0.1200 -0.9552
  110SOL    HW2  330   0.171   1.783   2.909 -0.0349 -1.2739 -0.5471
  111SOL     OW  331   2.810   0.610   2.486  0.2121  0.3967 -0.1652
  111SOL    HW1  332   2.730   0.592   2.555 -0.8623  0.9810  1.4267
  111SOL    HW2  333   2.873   0.529   2.477  2.3058  0.3026  1.7705
  112SOL     OW  334   2.803   2.731   1.297 -0.6539  0.3237 -0.3433
  112SOL    HW1  335   2.791   2.672   1.384  3.5902 -4.6318  3.8574
  112SOL    HW2  336   2.875   2.690   1.242 -0.7273  0.1363  0.5653
  113SOL     OW  337   2.350   2.155   2.313 -0.0771  0.6075  0.3244
  113SOL    HW1  338   2.404   2.233   2.278 -2.5153  0.3458  1.1739
  113SOL    HW2  339   2.252   2.176   2.305 -1.5979  1.7714 -0.4526
  114SOL     OW  340   2.912   0.246   0.202 -0.2419 -0.0978  0.1721
  114SOL    HW1  341   2.902   0.144   0.195  1.9686 -0.6907 -0.5685
  114SOL    HW2  342   2.982   0.265   0.270 -2.7482 -2.9585  0.8844
  115SOL     OW  343   2.803   1.725   3.056 -0.5158  0.1227  0.5689
  115SOL    HW1  344   2.905   1.732   3.071 -0.0691  0.8279  2.1484
  115SOL    HW2  345   2.769   1.780   2.974 -0.9568 -2.2194  0.1241
  116SOL     OW  346   3.009   1.426   1.978  0.3401  0.7209 -0.3774
  116SOL    HW1  347   3.070   1.440   1.898  1.1831 -0.5324  0.5310
  116SOL    HW2  348   3.063   1.382   2.051  0.4139 -2.7716 -0.5006
  117SOL     OW  349   1.979   0.213   1.167 -0.0324 -0.1070  0.1378
  117SOL    HW1  350   1.900   0.157   1.198 -2.5208  0.7496  1.1498
  117SOL    HW2  351   2.070   0.186   1.207  0.8708  2.6250 -1.3016
  118SOL     OW  352   2.999   2.591   2.032 -0.4399 -0.0010 -0.0642
  118SOL    HW1  353   2.977   2.621   1.937 -0.7828  1.0072 -0.4189
  118SOL    HW2  354   3.093   2.620   2.061  2.4841  0.0243 -0.5193
  119SOL     OW  355   0.734   1.811   1.353  0.4058 -0.4759  0.2135
  119SOL    HW1  356   0.736   1.912   1.371 -0.1122  0.7646  0.7404
  119SOL    HW2  357   0.637   1.776   1.348  1.5116  2.4256 -1.4625
  120SOL     OW  358   0.277   1.623   1.415 -0.5307  0.3320 -1.2227
  120SOL    HW1  359   0.257   1.546   1.483 -2.2501  0.1249  2.8073
  120SOL    HW2  360   0.215   1.612   1.340  3.3761  0.1094 -0.6204
  121SOL     OW  361   1.900   1.301   0.845  0.6323 -0.7362  0.2843
  121SOL    HW1  362   1.861   1.382   0.894 -4.0229  0.0187 -4.1806
  121SOL    HW2  363   1.875   1.308   0.748 -0.9404  0.5643 -0.2821
  122SOL     OW  364   1.953   2.016   2.556 -0.2993 -0.2176  0.0589
  122SOL    HW1  365   1.974   1.925   2.517  0.7389  3.3643  1.1028
  122SOL    HW2  366   2.041   2.061   2.580 -0.2576 -3.4665  1.8878
  123SOL     OW  367   2.911   3.100   0.196  0.2523 -0.1132  0.8336
  123SOL    HW1  368   2.997   3.077   0.166 -1.9061  1.0378  4.8707
  123SOL    HW2  369   2.892   3.074   0.291 -1.4969 -0.3351 -1.4656
  124SOL     OW  370   0.948   1.143   0.520 -0.2119  0.1996 -0.4844
  124SOL    HW1  371   0.867   1.161   0.577 -0.8869  0.9445  0.8499
  124SOL    HW2  372   1.015   1.221   0.534  1.2506  1.2704 -2.6124
  125SOL     OW  373   0.286   1.384   2.010  0.3688  0.1989  0.0606
  125SOL    HW1  374   0.207   1.447   1.985  0.9581 -1.6925 -0.4863
  125SOL    HW2  375   0.367   1.432   2.049  1.5816  0.8453  2.0877
  126SOL     OW  376   0.111   2.457   0.084 -0.2575 -0.4325  0.3713
  126SOL    HW1  377   0.120   2.446   0.184  0.7885  2.4494 -0.8673
  126SOL    HW2  378   0.037   2.526   0.069 -3.1209 -0.1663 -2.7790
  127SOL     OW  379   2.803   1.571   0.596 -0.2933  0.2275  0.2087
  127SOL    HW1  380   2.730   1.592   0.528 -0.6969 -0.1927  0.5328
  127SOL    HW2  381   2.802   1.470   0.612 -1.5872 -0.3060 -1.1042
  128SOL     OW  382   1.309   0.945   0.677  0.4054 -0.0933 -0.3622
  128SOL    HW1  383   1.301   1.042   0.708 -2.0039  1.6507  2.1805
  128SOL    HW2  384   1.347   0.892   0.754 -0.4473 -0.9271  1.8714
  129SOL     OW  385   2.391   2.059   1.055 -0.5931  0.0611  0.5284
  129SOL    HW1  386   2.323   2.051   0.977  0.6539 -1.4395 -0.2710
  129SOL    HW2  387   2.395   1.969   1.105  0.9788  0.2971 -3.0080
  130SOL     OW  388   2.282   0.977   0.871 -0.0703 -0.2176  0.1826
  130SOL    HW1  389   2.331   0.971   0.958  0.0655  0.3794 -2.9055
  130SOL    HW2  390   2.228   1.062   0.869  1.5026 -1.0032 -0.2499
  131SOL     OW  391   3.032   1.183   2.524 -0.5776 -0.4077  0.1690
  131SOL    HW1  392   2.974   1.111   2.568 -2.1814 -2.3694 -0.5256
  131SOL    HW2  393   3.115   1.146   2.488 -1.2498 -0.5675  1.2442
  132SOL     OW  394   1.642   1.246   2.000  0.2257  0.3874  0.1349
  132SOL    HW1  395   1.709   1.260   2.073  0.9776  2.3008 -1.7293
  132SOL    HW2  396   1.544   1.242   2.036  0.0463  1.0814 -0.0012
  133SOL     OW  397   0.110   0.850   0.335  0.2529 -0.1625  0.0739
  133SOL    HW1  398   0.048   0.774   0.363 -1.2573  2.1331 -1.0342
  133SOL    HW2  399   0.084   0.942   0.379 -2.4559  2.0392 -0.4951
  134SOL     OW  400   2.840   1.040   0.398  0.0920 -0.2041 -0.0444
  134SOL    HW1  401   2.889   1.024   0.311 -0.0914 -0.2636 -3.6239
  134SOL    HW2  402   2.743   1.068   0.377 -1.0354 -2.6449  0.5976
  135SOL     OW  403   1.741   0.813   3.096  0.2267  0.6904  0.2834
  135SOL    HW1  404   1.773   0.804   3.000  0.1722 -0.2801 -0.3118
  135SOL    HW2  405   1.644   0.787   3.110  0.6780 -2.0549 -2.2717
  136SOL     OW  406   1.865   1.977   1.687 -0.0293  0.4870 -0.3557
  136SOL    HW1  407   1.815   1.893   1.649 -0.6942 -0.0538 -0.5250
  136SOL    HW2  408   1.881   2.043   1.610 -0.8982 -0.8296 -2.0240
  137SOL     OW  409   2.570   2.564   0.609  0.0981  0.5320 -0.4333
  137SOL    HW1  410   2.603   2.474   0.642 -0.1307 -2.0860  0.5053
  137SOL    HW2  411   2.475   2.550   0.582 -2.5752  0.0056  0.0100
  138SOL     OW  412   2.448   0.479   1.518  0.3462 -0.3219 -0.2413
  138SOL    HW1  413   2.395   0.439   1.600 -1.9002 -2.7309  0.4650
  138SOL    HW2  414   2.462   0.410   1.443  1.5561  1.3077 -1.0782
  139SOL     OW  415   2.630   0.220   2.420  0.2157 -0.0117 -0.1460
  139SOL    HW1  416   2.606   0.309   2.459 -0.3468  0.2346 -3.4626
  139SOL    HW2  417   2.693   0.164   2.474 -0.7804 -0.3314 -0.5321
  140SOL     OW  418   1.104   1.826   2.180 -0.0206  0.3515 -0.1303
  140SOL    HW1  419   1.113   1.867   2.277  2.1607  3.3496  2.5544
  140SOL    HW2  420   1.194   1.790   2.142 -1.8634  1.1787 -0.0384
  141SOL     OW  421   0.790   0.585   2.459  0.4936  0.0636 -0.2826
  141SOL    HW1  422   0.875   0.639   2.479  1.0482  1.8652  0.1435
  141SOL    HW2  423   0.743   0.602   2.372 -0.8830 -1.4288  1.7451
  142SOL     OW  424   2.771   2.694   2.822  0.2416  0.2027 -0.1782
  142SOL    HW1  425   2.688   2.744   2.861  0.0795  1.5809  2.0337
  142SOL    HW2  426   2.747   2.618   2.755  1.3549 -0.0190 -1.9554
  143SOL     OW  427   0.977   2.204   0.496 -0.1244  0.1993 -0.6921
  143SOL    HW1  428   1.075   2.204   0.507  0.8206 -1.7021  1.8244
  143SOL    HW2  429   0.933   2.199   0.588 -1.8088 -0.8557  1.3601
  144SOL     OW  430   1.322   2.672   0.084  0.1602 -0.2016 -0.5591
  144SOL    HW1  431   1.262   2.704   0.008  1.4959 -1.1981 -0.9890
  144SOL    HW2  432   1.276   2.653   0.173  0.8875  0.5596  2.9007
  145SOL     OW  433   1.665   2.007   2.631  0.2615 -0.0919 -0.2051
  145SOL    HW1  434   1.766   1.991   2.618  2.9570  0.7925 -1.6062
  145SOL    HW2  435   1.620   1.991   2.542 -2.1994 -0.7249  0.6907
  146SOL     OW  436   2.257   3.056   2.892  0.1641  0.6043  0.2045
  146SOL    HW1  437   2.352   3.055   2.926  2.2690  0.1565  1.8133
  146SOL    HW2  438   2.261   3.014   2.800  3.0036 -3.1287  2.2732
  147SOL     OW  439   2.765   1.221   1.137 -0.0206 -0.3095 -0.1008
  147SOL    HW1  440   2.835   1.294   1.138 -1.3955 -0.9128 -1.5811
  147SOL    HW2  441   2.671   1.254   1.120 -0.8086  1.5615  0.6221
  148SOL     OW  442   2.122   2.839   3.128  0.5683 -0.4245 -0.3230
  148SOL    HW1  443   2.121   2.818   0.090  1.5542  1.7390 -1.8324
  148SOL    HW2  444   2.034   2.825   3.081  1.8025 -0.1797  3.6470
  149SOL     OW  445   0.555   1.744   2.770 -0.4444  0.0655 -0.4070
  149SOL    HW1  446   0.520   1.649   2.767 -1.0045 -0.0890 -2.2286
  149SOL    HW2  447   0.619   1.766   2.699  0.0970  1.6788  0.6095
  150SOL     OW  448   0.332   2.561   0.516  0.0129 -0.1471  0.0750
  150SOL    HW1  449   0.427   2.525   0.500 -0.5334  0.3975 -1.4769
  150SOL    HW2  450   0.312   2.559   0.617 -1.3507 -2.2976  1.1430
  151SOL     OW  451   0.314   1.180   0.302 -0.4775  0.0732  0.2657
  151SOL    HW1  452   0.372   1.093   0.299  1.0308 -0.3224 -1.4916
  151SOL    HW2  453   0.292   1.217   0.206 -0.8783  2.8401 -3.1149
  152SOL     OW  454   2.873   2.215   0.494 -0.5469 -0.0090  0.1093
  152SOL    HW1  455   2.902   2.155   0.572  2.3117 -0.1962  0.9525
  152SOL    HW2  456   2.771   2.219   0.494  1.3322 -1.8233 -2.3061
  153SOL     OW  457   1.791   2.320   0.740 -0.6277 -0.6792  0.2860
  153SOL    HW1  458   1.754   2.332   0.833 -0.3220  1.8625  1.4931
  153SOL    HW2  459   1.746   2.388   0.675  0.3205 -0.0320 -0.5931
  154SOL     OW  460   0.737   2.647   1.340 -0.7625  0.2052  0.2062
  154SOL    HW1  461   0.706   2.574   1.279 -0.2787 -1.7135  0.3330
  154SOL    HW2  462   0.726   2.741   1.301  0.1693  1.5388 -0.2536
  155SOL     OW  463   2.725   1.963   0.637  0.3064 -0.3430 -0.2104
  155SOL    HW1  464   2.662   2.032   0.607  1.9119 -2.9746  0.5198
  155SOL    HW2  465   2.775   1.918   0.561  1.1615  0.7718  0.9672
  156SOL     OW  466   2.743   2.152   2.900  0.0252 -0.4518 -0.1837
  156SOL    HW1  467   2.757   2.241   2.949  2.8262  0.3392  1.2091
  156SOL    HW2  468   2.656   2.109   2.931  0.6501  2.1857  0.8573
  157SOL     OW  469   0.476   2.182   1.632 -0.2746  0.3529  0.2039
  157SOL    HW1  470   0.437   2.262   1.679  1.4470 -0.6031 -0.7311
  157SOL    HW2  471   0.417   2.148   1.554  0.7950 -1.3682 -2.9666
  158SOL     OW  472   1.699   0.331   0.465 -0.0991 -0.6017 -0.2635
  158SOL    HW1  473   1.696   0.318   0.365  1.8387  0.4842 -0.7479
  158SOL    HW2  474   1.791   0.312   0.502  1.5825  3.7134  0.4378
  159SOL     OW  475   1.645   0.591   0.235 -0.2205 -0.6337 -0.0157
  159SOL    HW1  476   1.727   0.538   0.264 -0.5317 -2.3662 -0.5123
  159SOL    HW2  477   1.652   0.629   0.141 -1.7940  0.6747  2.2409
  160SOL     OW  478   0.824   1.425   0.662 -0.2873  0.1124 -0.0162
  160SOL    HW1  479   0.837   1.434   0.762 -0.8852 -1.2835 -2.0018
  160SOL    HW2  480   0.752   1.362   0.634  0.9965 -0.7053  0.3025
  161SOL     OW  481   3.057   2.421   2.612 -0.0569  0.5961 -0.0344
  161SOL    HW1  482   2.982   2.367   2.568 -2.7568  0.5142  2.7857
  161SOL    HW2  483   0.014   2.367   2.622  2.0316 -1.6075 -0.5640
  162SOL     OW  484   0.225   2.377   1.215  0.2352  0.0454 -0.2998
  162SOL    HW1  485   0.285   2.453   1.243  2.8830  0.0712  0.4378
  162SOL    HW2  486   0.139   2.373   1.265  0.4422  0.6110 -0.5120
  163SOL     OW  487   0.292   0.596   2.850  0.5271 -0.3962  0.0314
  163SOL    HW1  488   0.263   0.688   2.832  0.9338  0.3923 -0.1852
  163SOL    HW2  489   0.261   0.537   2.775 -2.1258  0.8228  1.3908
  164SOL     OW  490   0.324   2.996   2.645  0.2913 -0.7801 -0.1648
  164SOL    HW1  491   0.421   2.963   2.645 -0.6636  0.6955 -0.9924
  164SOL    HW2  492   0.260   2.930   2.688  0.4875  0.6561  0.1622
  165SOL     OW  493   2.591   1.038   1.695  0.7160 -0.5445 -0.1471
  165SOL    HW1  494   2.605   0.982   1.614  0.3698  1.8364 -0.4841
  165SOL    HW2  495   2.523   0.994   1.752  2.0477  1.3931 -1.0582
  166SOL     OW  496   2.103   2.105   1.319 -0.3662  0.3940  0.1606
  166SOL    HW1  497   2.198   2.080   1.340 -1.6176  0.9377  0.9584
  166SOL    HW2  498   2.090   2.165   1.240  0.7358 -1.8980  2.4195
  167SOL     OW  499   0.793   0.922   2.419 -0.0618  0.0114  0.0605
  167SOL    HW1  500   0.844   0.909   2.329 -0.5473 -1.6067 -1.4544
  167SOL    HW2  501   0.865   0.926   2.496 -0.7640  1.9159  0.3558
  168SOL     OW  502   2.175   0.102   2.026 -0.5054 -0.6827 -0.1972
  168SOL    HW1  503   2.196   0.103   2.126 -0.4373  0.0601 -0.0969
  168SOL    HW2  504   2.094   0.050   2.008  1.7373 -0.8443  1.7358
  169SOL     OW  505   0.456   0.962   0.370  0.0863  0.0160 -0.0477
  169SOL    HW1  506   0.542   0.930   0.415  1.4684  1.1961  0.2221
  169SOL    HW2  507   0.414   0.892   0.311  2.6435 -2.7973 -1.6142
  170SOL     OW  508   0.477   1.566   1.751  0.2609  0.5340  0.5725
  170SOL    HW1  509   0.484   1.501   1.670 -1.5340 -0.9074 -0.5811
  170SOL    HW2  510   0.527   1.655   1.733  1.2685  1.2104  0.9905
  171SOL     OW  511   1.000   2.188   1.707  0.2145 -0.0146  0.2355
  171SOL    HW1  512   0.896   2.179   1.712 -0.5117  1.2980 -2.4220
  171SOL    HW2  513   1.031   2.284   1.723  0.0562  0.9668  1.5336
  172SOL     OW  514   1.292   2.701   2.066  0.1752 -0.5324  0.1325
  172SOL    HW1  515   1.270   2.699   2.166  2.1569  0.4275 -0.0358
  172SOL    HW2  516   1.228   2.637   2.020 -0.2154 -2.3196  3.8857
  173SOL     OW  517   1.463   2.498   0.691 -0.5337 -0.3994  0.0441
  173SOL    HW1  518   1.422   2.406   0.709  2.0113  0.2361 -1.7764
  173SOL    HW2  519   1.438   2.565   0.766 -1.4246 -0.2417  2.6055
  174SOL     OW  520   2.428   3.075   0.456  0.5667 -0.1397  0.0491
  174SOL    HW1  521   2.501   3.068   0.525 -2.0715 -0.8588 -2.1415
  174SOL    HW2  522   2.421   0.036   0.426 -0.5256  1.2374 -0.7554
  175SOL     OW  523   1.108   1.350   0.541 -0.4234  0.2911 -0.5916
  175SOL    HW1  524   1.178   1.403   0.494  1.1862 -0.7379 -3.5430
  175SOL    HW2  525   1.029   1.412   0.560 -2.0050  0.9115 -0.3237
  176SOL     OW  526   0.608   1.902   0.615 -0.1727 -0.6012  0.2299
  176SOL    HW1  527   0.638   1.962   0.537 -2.1132  1.4061  0.0315
  176SOL    HW2  528   0.653   1.810   0.603 -2.5423 -0.6331 -0.6985
  177SOL     OW  529   1.203   1.078   1.218  0.1484 -0.1509  0.0288
  177SOL    HW1  530   1.300   1.090   1.233 -2.4663  0.5314 -1.6677
  177SOL    HW2  531   1.178   1.079   1.118 -4.6245  2.4235 -2.2088
  178SOL     OW  532   2.439   1.851   0.392 -0.0625  0.0852 -0.4069
  178SOL    HW1  533   2.430   1.942   0.348 -0.6275  0.6363  2.2194
  178SOL    HW2  534   2.401   1.784   0.324  0.1994  3.7882 -0.1026
  179SOL     OW  535   1.088   2.504   3.034  0.1800  0.5039  0.1669
  179SOL    HW1  536   1.057   2.442   2.957 -2.2728 -0.1228 -0.7061
  179SOL    HW2  537   1.141   2.457   3.104 -0.8600  1.5364 -2.0703
  180SOL     OW  538   2.140   1.627   2.056  0.1140 -0.4828  0.0277
  180SOL    HW1  539   2.208   1.556   2.061  0.3027 -0.8720  0.2224
  180SOL    HW2  540   2.077   1.603   1.979 -0.7095 -1.5159  1.3179
  181SOL     OW  541   1.049   0.663   2.579  0.1929 -0.1889  0.0407
  181SOL    HW1  542   1.015   0.761   2.597 -0.8587  0.3140  2.1114
  181SOL    HW2  543   1.135   0.642   2.630  0.4223 -0.3374  1.2411
  182SOL     OW  544   3.080   1.411   2.328  0.0123 -0.2785  0.2146
  182SOL    HW1  545   3.078   1.407   2.428  0.1254  0.9481  0.0898
  182SOL    HW2  546   3.112   1.326   2.288  0.8636  2.5246  0.6837
  183SOL     OW  547   1.445   0.492   2.391  0.5099 -0.7104  0.1439
  183SOL    HW1  548   1.370   0.526   2.447  1.5650  0.9245  0.3840
  183SOL    HW2  549   1.457   0.547   2.304 -0.7232  1.2292 -3.3354
  184SOL     OW  550   0.506   0.614   1.826 -0.1415 -0.0765  0.0093
  184SOL    HW1  551   0.580   0.681   1.830  3.2797  0.4995 -3.5615
  184SOL    HW2  552   0.460   0.609   1.733  0.3216 -0.9339  1.0369
  185SOL     OW  553   2.084   1.775   0.558 -0.0345 -0.1882  0.5875
  185SOL    HW1  554   2.158   1.841   0.576  2.5612 -0.6476  2.0196
  185SOL    HW2  555   2.101   1.697   0.624 -0.9478 -1.8168  2.1935
  186SOL     OW  556   0.255   1.832   0.305  0.2264  0.5925 -0.4957
  186SOL    HW1  557   0.352   1.814   0.280  2.4271 -2.0702 -2.5887
  186SOL    HW2  558   0.214   1.751   0.350  2.5871  2.1760 -0.4294
  187SOL     OW  559   1.870   2.159   0.197 -0.5850 -0.2974  0.1091
  187SOL    HW1  560   1.846   2.257   0.177 -0.9404  2.3270  0.0507
  187SOL    HW2  561   1.861   2.142   0.295  0.1620 -2.2361 -1.3267
  188SOL     OW  562   0.975   2.360   1.111 -0.1916 -0.1830  0.4324
  188SOL    HW1  563   0.985   2.456   1.138 -0.0578 -1.1540 -1.7130
  188SOL    HW2  564   1.027   2.301   1.174  2.8704  1.1602 -1.7082
  189SOL     OW  565   2.184   1.329   2.744 -0.4511  0.0368 -0.0329
  189SOL    HW1  566   2.140   1.398   2.680 -1.6188  2.6056 -2.2966
  189SOL    HW2  567   2.241   1.371   2.816 -0.8164 -1.1503 -0.5616
  190SOL     OW  568   0.870   2.394   2.150  0.3988 -0.0077 -0.4625
  190SOL    HW1  569   0.820   2.341   2.077  0.9785  0.9101 -1.0910
  190SOL    HW2  570   0.802   2.411   2.222 -1.4067 -0.7769 -0.8287
  191SOL     OW  571   2.603   0.900   1.465  0.0801 -0.3190  0.1217
  191SOL    HW1  572   2.520   0.882   1.411  1.7091 -0.1102  1.1170
  191SOL    HW2  573   2.646   0.815   1.501 -1.4254  1.6074  1.5509
  192SOL     OW  574   2.547   0.687   1.900 -0.3817  0.9504 -0.2741
  192SOL    HW1  575   2.482   0.615   1.935  0.2477  1.2938  0.3276
  192SOL    HW2  576   2.491   0.771   1.864 -0.8747 -0.0498 -1.2066
  193SOL     OW  577   0.797   0.156   0.254  0.3009  0.4863  0.0223
  193SOL    HW1  578   0.771   0.242   0.296 -0.4412 -0.2555  0.0753
  193SOL    HW2  579   0.837   0.087   0.317  0.7937 -0.9139 -0.1764
  194SOL     OW  580   1.060   2.456   1.386  0.4294 -0.1089 -0.1830
  194SOL    HW1  581   1.085   2.356   1.384  2.0085 -0.0143  1.2987
  194SOL    HW2  582   1.138   2.496   1.439  2.9085 -2.8162 -2.7249
  195SOL     OW  583   2.475   1.075   0.540 -0.0359  0.0354 -0.2855
  195SOL    HW1  584   2.545   1.037   0.608  1.7995 -3.8274  1.5175
  195SOL    HW2  585   2.518   1.106   0.454  1.9618 -1.5258  3.3075
  196SOL     OW  586   0.751   2.213   1.649  0.4447 -0.6492 -0.3098
  196SOL    HW1  587   0.766   2.308   1.614  2.1927 -2.8505 -0.2797
  196SOL    HW2  588   0.651   2.193   1.651  0.4336 -0.5406  1.4810
  197SOL     OW  589   0.369   0.883   2.410 -0.4474 -1.1875 -0.0705
  197SOL    HW1  590   0.433   0.882   2.330  0.5882 -0.4665  0.5978
  197SOL    HW2  591   0.308   0.807   2.396  2.0335  1.2544 -0.1020
  198SOL     OW  592   1.583   0.834   0.326 -0.0159 -0.3595  0.3857
  198SOL    HW1  593   1.596   0.733   0.317 -2.9712 -0.2727  0.6594
  198SOL    HW2  594   1.622   0.892   0.248  0.6012  5.0068  0.1063
  199SOL     OW  595   2.766   0.615   2.036  0.2073  0.2456  0.5165
  199SOL    HW1  596   2.750   0.625   2.133  0.3804  0.5528 -0.5022
  199SOL    HW2  597   2.682   0.656   1.993  0.2718  0.7656  1.8615
  200SOL     OW  598   2.439   2.926   2.698 -0.4646 -0.0319  0.4602
  200SOL    HW1  599   2.488   2.888   2.778 -1.8166 -0.5333 -0.9411
  200SOL    HW2  600   2.509   2.927   2.623  0.6314 -1.2746 -0.7408
  201SOL     OW  601   2.459   0.282   1.321  0.0901  0.1025 -0.2744
  201SOL    HW1  602   2.491   0.184   1.325  2.6634 -0.7868 -0.9957
  201SOL    HW2  603   2.495   0.326   1.237 -3.5874  0.8516  2.3330
  202SOL     OW  604   3.019   2.640   0.089  0.0025 -0.0293  0.4298
  202SOL    HW1  605   3.003   2.659   0.188  2.4198  0.0216 -0.5452
  202SOL    HW2  606   2.960   2.696   0.030 -0.9484 -1.7157  1.0915
  203SOL     OW  607   1.044   2.007   2.937  0.2214 -0.1894  0.0645
  203SOL    HW1  608   1.043   1.913   2.981  0.4699 -1.5975 -0.8647
  203SOL    HW2  609   1.113   2.010   2.863 -0.7291 -1.4844  2.2058
  204SOL     OW  610   0.713   1.870   2.577 -0.2482  0.2676  0.2622
  204SOL    HW1  611   0.667   1.884   2.484 -0.7840 -1.8050 -0.8116
  204SOL    HW2  612   0.740   1.957   2.615  1.7077 -0.9043 -1.3697
  205SOL     OW  613   1.008   0.891   1.052 -0.1382  0.0608  0.7352
  205SOL    HW1  614   0.956   0.871   1.138 -1.3215 -0.6465  0.6840
  205SOL    HW2  615   1.101   0.856   1.063 -0.5165 -2.2852  0.7305
  206SOL     OW  616   0.163   0.827   2.786 -0.0272  0.1376  0.1565
  206SOL    HW1  617   0.214   0.914   2.786 -2.8192  0.8216 -0.5368
  206SOL    HW2  618   0.108   0.820   2.702  0.8712 -0.0940  2.7850
  207SOL     OW  619   1.638   2.353   1.818  0.2228 -0.3288  0.3985
  207SOL    HW1  620   1.684   2.419   1.884  2.6489  2.5627  0.5749
  207SOL    HW2  621   1.540   2.338   1.844  2.1844  1.4030  1.4512
  208SOL     OW  622   0.433   3.053   1.082  0.0370 -0.6058  0.3145
  208SOL    HW1  623   0.385   3.002   1.149  1.5155  1.8203 -3.2092
  208SOL    HW2  624   0.400   3.034   0.990 -1.6066 -1.3571  2.4878
  209SOL     OW  625   1.504   1.119   0.358  0.5945  0.8271  0.0263
  209SOL    HW1  626   1.445   1.035   0.376 -1.3376 -0.1988 -1.3826
  209SOL    HW2  627   1.535   1.110   0.260  0.6795  0.4728 -3.4991
  210SOL     OW  628   2.479   0.672   0.866  0.1410 -0.3712  0.1679
  210SOL    HW1  629   2.387   0.677   0.817 -2.8237  2.5283  1.0155
  210SOL    HW2  630   2.545   0.706   0.800 -2.0075  0.6353  0.5900
  211SOL     OW  631   1.487   2.749   0.400 -0.0758  0.0453  0.0079
  211SOL    HW1  632   1.389   2.732   0.376 -0.1414 -1.5897  2.4336
  211SOL    HW2  633   1.547   2.780   0.323  2.5002  2.0403 -3.1033
  212SOL     OW  634   2.045   2.258   0.624  0.2081  0.5631 -0.9203
  212SOL    HW1  635   2.122   2.297   0.683  2.4962  3.5455  0.8846
  212SOL    HW2  636   1.952   2.272   0.665 -0.3624 -1.9399  0.7955
  213SOL     OW  637   2.018   0.786   2.637 -0.3559 -0.0999  0.1914
  213SOL    HW1  638   2.089   0.738   2.689  0.5198  1.8601 -1.1590
  213SOL    HW2  639   1.981   0.724   2.568 -0.1115 -1.1128 -1.1620
  214SOL     OW  640   1.123   1.554   2.014  0.1325  1.4531 -0.0760
  214SOL    HW1  641   1.158   1.480   2.078  0.3863 -2.1268 -1.8652
  214SOL    HW2  642   1.169   1.644   2.032 -0.9788 -0.3618  0.1373
  215SOL     OW  643   0.112   1.324   0.800 -0.2256  0.2082 -0.3265
  215SOL    HW1  644   0.162   1.407   0.826 -0.8798 -2.2780 -2.9997
  215SOL    HW2  645   0.006   1.332   0.808 -0.7341 -0.3386 -2.1475
  216SOL     OW  646   0.341   2.479   2.525 -0.5289 -0.6748  0.4140
  216SOL    HW1  647   0.325   2.438   2.437 -0.2202  0.1322  1.6255
  216SOL    HW2  648   0.444   2.477   2.547  5.1659 -1.2534  0.8946
  217SOL     OW  649   2.816   1.091   1.369  0.3636  0.3866 -0.7102
  217SOL    HW1  650   2.738   1.033   1.400 -3.1288  1.2528  1.0690
  217SOL    HW2  651   2.796   1.149   1.289 -0.4223  0.5286  0.2932
  218SOL     OW  652   0.785   2.178   1.993  0.0103 -0.6500 -0.4494
  218SOL    HW1  653   0.715   2.117   1.948  0.5627  1.2559  2.4601
  218SOL    HW2  654   0.874   2.136   1.983  1.1789  1.9889 -2.7087
  219SOL     OW  655   1.946   1.350   0.245  0.5216 -0.4902  0.2736
  219SOL    HW1  656   2.007   1.371   0.165  1.1697 -0.0208  0.4955
  219SOL    HW2  657   2.000   1.289   0.306  2.2668  5.0322 -2.1908
  220SOL     OW  658   2.235   0.959   0.549 -0.2214 -0.0579 -0.4087
  220SOL    HW1  659   2.334   0.990   0.544  0.9707  2.1760  1.6762
  220SOL    HW2  660   2.219   0.885   0.620  1.3928 -1.2977 -0.8748
  221SOL     OW  661   3.020   0.664   0.319  0.4193  0.2220 -0.1279
  221SOL    HW1  662   3.096   0.645   0.255 -2.6368 -0.0225 -1.2619
  221SOL    HW2  663   2.932   0.685   0.272  0.9097  0.6924  1.3053
  222SOL     OW  664   1.587   1.330   0.483  0.3190 -0.1945  0.5719
  222SOL    HW1  665   1.553   1.241   0.434 -2.1551 -1.0720 -1.7393
  222SOL    HW2  666   1.567   1.317   0.583 -0.6870  3.1645  1.1027
  223SOL     OW  667   0.951   0.103   2.988 -0.2064  0.0057 -0.4993
  223SOL    HW1  668   0.870   0.089   3.051  0.2204 -1.1121  1.6487
  223SOL    HW2  669   0.915   0.126   2.893 -1.0394  0.3068  2.0320
  224SOL     OW  670   1.242   3.130   1.244 -0.1110 -0.7197 -0.0841
  224SOL    HW1  671   1.238   0.045   1.333 -0.1071 -0.4574 -0.4037
  224SOL    HW2  672   1.223   3.033   1.259 -1.6768  0.9409  0.7997
  225SOL     OW  673   0.153   2.628   2.060  0.3896  0.2583 -0.0506
  225SOL    HW1  674   0.230   2.679   2.107 -1.6622  1.4598  0.0330
  225SOL    HW2  675   0.187   2.561   1.988 -1.0146  2.5315 -0.6945
  226SOL     OW  676   1.287   1.535   0.492  0.2875 -0.0874  0.4201
  226SOL    HW1  677   1.388   1.521   0.473  1.4490 -0.5698  0.0641
  226SOL    HW2  678   1.265   1.635   0.504  1.6238  2.2491 -1.5080
  227SOL     OW  679   0.444   1.666   1.001 -0.0273 -0.4361 -0.0017
  227SOL    HW1  680   0.516   1.735   0.979  0.3455  2.6961  2.0767
  227SOL    HW2  681   0.463   1.575   0.960 -1.0882 -2.1436 -1.9134
  228SOL     OW  682   0.067   1.688   0.724 -0.0205  0.0087 -1.1583
  228SOL    HW1  683   0.086   1.764   0.664  1.0860 -2.2890  1.1113
  228SOL    HW2  684   0.050   1.600   0.667 -0.7571 -1.8834 -2.6061
  229SOL     OW  685   2.271   0.215   2.860 -0.2638  0.0722 -0.2954
  229SOL    HW1  686   2.220   0.251   2.778 -1.2306  2.1347  1.6978
  229SOL    HW2  687   2.281   0.113   2.858 -2.8750 -1.3836 -0.5168
  230SOL     OW  688   1.846   1.054   0.914 -0.0181  0.1959 -0.2176
  230SOL    HW1  689   1.884   1.147   0.892  0.1569 -2.8741 -2.4011
  230SOL    HW2  690   1.746   1.058   0.946 -2.9264 -0.7365 -0.0597
  231SOL     OW  691   1.540   1.482   2.869  0.1850  0.4171  0.9543
  231SOL    HW1  692   1.568   1.425   2.789  1.1679 -2.2543  1.1052
  231SOL    HW2  693   1.589   1.467   2.952  0.8792  1.1835 -1.8532
  232SOL     OW  694   2.568   2.327   0.769 -0.3705  0.2406  0.0220
  232SOL    HW1  695   2.655   2.325   0.824  3.7084  1.6446 -2.2787
  232SOL    HW2  696   2.495   2.368   0.826 -0.6450  2.3014  2.5712
  233SOL     OW  697   0.545   2.652   0.928  0.0564 -0.7526  0.0690
  233SOL    HW1  698   0.584   2.744   0.957  0.3689  1.7532  0.3797
  233SOL    HW2  699   0.616   2.609   0.863  4.8757  1.0284 -1.7966
  234SOL     OW  700   0.557   0.588   2.667  0.1884  0.0487  0.3451
  234SOL    HW1  701   0.586   0.672   2.616 -2.6062 -0.2887 -2.5137
  234SOL    HW2  702   0.482   0.602   2.733  0.2154  1.7093  0.6406
  235SOL     OW  703   2.809   0.815   2.307  0.1437 -0.1548 -0.3825
  235SOL    HW1  704   2.796   0.730   2.354  0.5676  0.7063  0.7531
  235SOL    HW2  705   2.827   0.889   2.374  1.8668  1.7410 -1.7681
  236SOL     OW  706   1.627   2.856   1.459  0.2210 -0.6674 -0.2372
  236SOL    HW1  707   1.645   2.843   1.360  1.2691  0.9246  0.4975
  236SOL    HW2  708   1.651   2.766   1.508 -1.3227 -0.8816  2.9555
  237SOL     OW  709   1.115   1.302   2.610 -0.0627 -1.0048 -0.2582
  237SOL    HW1  710   1.012   1.297   2.582  0.7961 -2.3605 -1.4274
  237SOL    HW2  711   1.124   1.327   2.712 -0.6842 -0.8825  1.4702
  238SOL     OW  712   1.062   0.437   2.419  0.3377 -0.2721 -0.4340
  238SOL    HW1  713   1.042   0.516   2.483  0.0755 -0.4813 -1.7466
  238SOL    HW2  714   0.980   0.378   2.424 -1.5673 -1.3703 -0.2510
  239SOL     OW  715   0.313   2.241   2.055  0.2266 -0.0193  0.6789
  239SOL    HW1  716   0.388   2.177   2.076 -0.7055  0.3494  0.4079
  239SOL    HW2  717   0.309   2.307   2.133  0.2085  0.0188  1.0699
  240SOL     OW  718   2.731   2.828   0.813  0.4828  0.4995 -0.1680
  240SOL    HW1  719   2.786   2.798   0.731 -1.4117  1.3342 -0.0416
  240SOL    HW2  720   2.653   2.761   0.834 -0.4827  1.9261 -1.7940
  241SOL     OW  721   2.738   1.287   0.711  0.3977  0.3157 -0.2132
  241SOL    HW1  722   2.663   1.336   0.664 -0.1157  1.6642  2.7156
  241SOL    HW2  723   2.735   1.186   0.682 -1.4441 -0.7416 -0.7388
  242SOL     OW  724   1.794   2.466   1.999  0.8445 -0.1197 -0.0830
  242SOL    HW1  725   1.856   2.388   2.030 -0.1315  1.7218 -0.6292
  242SOL    HW2  726   1.846   2.545   1.953  0.0882  2.2359 -3.3129
  243SOL     OW  727   0.531   2.597   2.062 -0.3168  0.4512 -0.5260
  243SOL    HW1  728   0.617   2.630   2.105 -2.6955  1.6267 -1.3120
  243SOL    HW2  729   0.552   2.520   2.001 -3.1803  1.5820  1.7220
  244SOL     OW  730   2.570   0.507   2.572  0.0921  0.4960  0.1656
  244SOL    HW1  731   2.534   0.470   2.658  1.9791  0.4247 -1.9875
  244SOL    HW2  732   2.489   0.507   2.509 -0.6434  1.9397  0.2657
  245SOL     OW  733   1.378   0.111   1.032 -0.3239  0.3723 -0.5446
  245SOL    HW1  734   1.378   0.209   1.052 -0.8041 -0.6060  0.5749
  245SOL    HW2  735   1.338   0.060   1.109 -0.3359  2.1648  0.9942
  246SOL     OW  736   1.808   2.753   0.161 -0.3538  0.4128 -0.6475
  246SOL    HW1  737   1.812   2.756   0.060 -0.8781 -0.9626  1.2761
  246SOL    HW2  738   1.727   2.804   0.200 -1.1799  1.6488 -1.1642
  247SOL     OW  739   1.353   0.917   2.307  0.2039  0.0049 -0.2971
  247SOL    HW1  740   1.391   0.885   2.392  0.3655  0.3157 -1.0017
  247SOL    HW2  741   1.289   0.995   2.335 -1.8837 -0.0826  1.0807
  248SOL     OW  742   0.197   2.417   1.904 -0.1777 -0.6204  0.0456
  248SOL    HW1  743   0.110   2.386   1.856 -1.0150  2.8767  2.7141
  248SOL    HW2  744   0.239   2.354   1.970 -0.2424  1.0263 -0.8920
  249SOL     OW  745   2.762   0.458   0.112  0.7600  0.0703 -0.3887
  249SOL    HW1  746   2.830   0.384   0.145  4.1505 -4.1101 -0.0659
  249SOL    HW2  747   2.740   0.451   0.014 -1.6172 -1.8009 -1.1945
  250SOL     OW  748   2.786   0.007   2.516  0.5125  0.1028 -0.0809
  250SOL    HW1  749   2.862   3.124   2.583  0.2787  0.4455 -0.0958
  250SOL    HW2  750   2.820   0.003   2.417  0.2693  0.6142  3.4042
  251SOL     OW  751   1.466   0.769   0.015 -0.6397 -0.0698 -0.2327
  251SOL    HW1  752   1.409   0.693   0.062  0.8116 -0.6748 -2.1825
  251SOL    HW2  753   1.416   0.858   0.025 -0.3358  1.1612  2.7538
  252SOL     OW  754   1.384   2.289   1.924 -0.1755  0.1780  0.1888
  252SOL    HW1  755   1.307   2.233   1.882 -0.3401  0.5593 -1.7680
  252SOL    HW2  756   1.350   2.338   2.005  1.9967 -1.2295 -0.2804
  253SOL     OW  757   2.341   2.509   1.288  0.3987 -0.5398  0.0312
  253SOL    HW1  758   2.407   2.558   1.228 -0.1448 -0.2647 -0.4853
  253SOL    HW2  759   2.246   2.516   1.242 -4.0839  1.1882 -0.1827
  254SOL     OW  760   2.262   1.278   0.642  0.2026 -0.0699 -0.0619
  254SOL    HW1  761   2.317   1.210   0.589  0.2830 -0.5481  1.9006
  254SOL    HW2  762   2.232   1.242   0.733  0.3132 -1.7041  3.0699
  255SOL     OW  763   1.119   2.956   1.552 -0.3278  0.2779 -0.0771
  255SOL    HW1  764   1.157   2.931   1.459 -1.5110 -0.3172  1.6676
  255SOL    HW2  765   1.196   2.980   1.618  0.0832  2.5143  0.3319
  256SOL     OW  766   1.881   2.117   1.468 -0.0713  0.1865 -0.1147
  256SOL    HW1  767   1.974   2.127   1.425 -1.1705 -0.7401  1.0444
  256SOL    HW2  768   1.813   2.099   1.397  1.5717 -2.3487  0.4128
  257SOL     OW  769   0.707   2.565   2.532  0.3683  0.4277 -0.1578
  257SOL    HW1  770   0.760   2.632   2.477 -0.3855 -1.1625  1.6096
  257SOL    HW2  771   0.720   2.579   2.631  0.3679 -2.0102 -1.8772
  258SOL     OW  772   0.750   2.684   0.556 -0.2736  0.3680 -0.4905
  258SOL    HW1  773   0.829   2.749   0.532 -3.1969  2.0968  1.9527
  258SOL    HW2  774   0.760   2.646   0.652 -0.2656  1.3256 -0.7589
  259SOL     OW  775   1.442   0.331   2.901 -0.0799 -0.4250 -0.0465
  259SOL    HW1  776   1.487   0.300   2.989 -1.8803  1.9612 -1.1837
  259SOL    HW2  777   1.478   0.424   2.866  0.3041  2.1704 -1.9500
  260SOL     OW  778   2.738   0.663   1.286 -0.1876 -0.3091  0.2843
  260SOL    HW1  779   2.754   0.571   1.250  0.4513 -1.7026  1.0243
  260SOL    HW2  780   2.720   0.653   1.386 -2.6374 -0.7863  1.4637
  261SOL     OW  781   0.770   0.413   2.669  0.5027 -0.2045 -0.7532
  261SOL    HW1  782   0.690   0.468   2.697 -2.2772  1.3236  1.2786
  261SOL    HW2  783   0.808   0.442   2.575 -0.2193 -2.2947 -1.2619
  262SOL     OW  784   1.314   2.398   2.171 -0.2545 -0.2784 -0.1799
  262SOL    HW1  785   1.236   2.465   2.174  0.3039  1.1428 -1.9725
  262SOL    HW2  786   1.405   2.446   2.160  1.0913 -2.3346 -0.0327
  263SOL     OW  787   0.533   1.945   2.978 -0.4236 -0.0276  0.0608
  263SOL    HW1  788   0.627   1.980   3.008  0.0642 -0.5891  0.4362
  263SOL    HW2  789   0.534   1.904   2.884  1.4826 -0.9320 -1.3623
  264SOL     OW  790   1.152   1.604   0.892  0.0791  0.0261 -0.1029
  264SOL    HW1  791   1.084   1.683   0.885 -1.3254 -1.3830  2.5308
  264SOL    HW2  792   1.235   1.620   0.833  0.5377  2.2222 -0.1709
  265SOL     OW  793   1.121   2.559   0.531  0.2634  0.6208 -0.3427
  265SOL    HW1  794   1.064   2.520   0.455  0.9477 -2.1843 -0.2884
  265SOL    HW2  795   1.132   2.487   0.601  1.5065  1.8786 -0.6664
  266SOL     OW  796   2.065   0.616   0.909  0.0222 -0.0883  0.5173
  266SOL    HW1  797   2.057   0.540   0.976  1.3452 -0.5860  0.1101
  266SOL    HW2  798   2.059   0.708   0.949  0.3236  0.0002 -0.5994
  267SOL     OW  799   3.092   1.404   2.667  0.0128 -0.1562  0.8093
  267SOL    HW1  800   3.069   1.395   2.768  0.7837 -0.6109 -0.6162
  267SOL    HW2  801   3.062   1.318   2.614  1.8481  2.4604 -3.0608
  268SOL     OW  802   1.561   0.008   0.245  0.3662  0.3782 -0.9424
  268SOL    HW1  803   1.660   0.034   0.243  2.1316  0.3070  0.6194
  268SOL    HW2  804   1.510   0.066   0.317  0.5277  1.2986  0.4967
  269SOL     OW  805   2.912   0.755   2.675  0.0436  0.0811 -0.3705
  269SOL    HW1  806   2.849   0.708   2.607  0.8650 -1.3981  1.5513
  269SOL    HW2  807   2.996   0.766   2.623 -4.0984 -0.4706  0.9172
  270SOL     OW  808   0.017   1.430   0.020 -0.2624 -0.2071 -0.2237
  270SOL    HW1  809   3.073   1.393   0.075  0.1299 -0.1616  0.0629
  270SOL    HW2  810   0.107   1.380   0.029  0.2938  0.3139  1.7529
  271SOL     OW  811   2.665   1.431   2.700  0.1238  0.4356  0.6478
  271SOL    HW1  812   2.593   1.499   2.675 -0.0714  3.6718  1.2658
  271SOL    HW2  813   2.686   1.359   2.629  1.2085 -0.7964 -0.4191
  272SOL     OW  814   2.799   2.743   2.138 -0.2303  0.2245 -0.1779
  272SOL    HW1  815   2.788   2.737   2.241 -0.2645  0.5741  2.1720
  272SOL    HW2  816   2.867   2.674   2.106 -0.6868  0.3284  1.7115
  273SOL     OW  817   0.411   2.788   0.264 -1.0396  0.6164 -0.3742
  273SOL    HW1  818   0.430   2.706   0.323  2.0045  1.0196  0.4606
  273SOL    HW2  819   0.317   2.788   0.230  2.7001  0.1146  0.4327
  274SOL     OW  820   0.976   2.404   0.846  0.1457  0.7115 -0.1773
  274SOL    HW1  821   1.072   2.384   0.823  2.2609 -0.6405  0.9935
  274SOL    HW2  822   0.952   2.385   0.947  1.2933 -0.9392  0.1961
  275SOL     OW  823   2.304   1.675   0.247 -0.2014 -0.7209  0.4716
  275SOL    HW1  824   2.225   1.706   0.302  2.1527  1.1080 -0.6495
  275SOL    HW2  825   2.276   1.602   0.182  2.2959 -0.5572 -2.9599
  276SOL     OW  826   2.642   1.721   1.244 -0.1806 -0.0201 -0.0784
  276SOL    HW1  827   2.651   1.633   1.291  0.7885 -0.1039 -2.6746
  276SOL    HW2  828   2.713   1.726   1.167  2.8059 -2.5783  1.0584
  277SOL     OW  829   2.403   0.081   0.826  0.1507 -0.1199  0.6562
  277SOL    HW1  830   2.314   0.035   0.808  0.7162 -0.1563 -1.2831
  277SOL    HW2  831   2.417   0.090   0.928 -0.1875  0.8377 -0.5973
  278SOL     OW  832   1.544   0.237   2.397  0.5840  0.4013  0.1101
  278SOL    HW1  833   1.497   0.327   2.379  0.2394  1.3970 -1.2770
  278SOL    HW2  834   1.507   0.195   2.484 -2.6362 -0.6737  1.2631
  279SOL     OW  835   1.398   2.668   1.294 -0.2190 -0.3761  0.7060
  279SOL    HW1  836   1.497   2.700   1.287 -0.7670  0.9478 -0.8681
  279SOL    HW2  837   1.363   2.620   1.211 -0.3945  0.2110 -0.1482
  280SOL     OW  838   1.012   0.905   0.623  0.3925  0.1448  0.1152
  280SOL    HW1  839   0.963   0.983   0.580 -0.6081 -0.9247  3.0889
  280SOL    HW2  840   1.115   0.916   0.621 -1.0149 -1.3695 -1.2872
  281SOL     OW  841   2.358   1.532   2.837  0.6134 -0.0328 -0.6089
  281SOL    HW1  842   2.434   1.578   2.789  1.9900 -1.0175  1.2688
  281SOL    HW2  843   2.293   1.606   2.865  0.9388  0.6936 -1.7453
  282SOL     OW  844   3.061   1.333   2.914 -0.5460 -0.2532  0.1593
  282SOL    HW1  845   3.109   1.248   2.900  0.9213 -0.8694  3.6034
  282SOL    HW2  846   3.102   1.384   2.994  1.7977  1.6531  2.3454
  283SOL     OW  847   1.717   2.704   2.786  0.6723 -0.2043 -0.3430
  283SOL    HW1  848   1.759   2.707   2.698  0.0296  0.3257  2.3461
  283SOL    HW2  849   1.693   2.610   2.816  1.5623 -0.4205 -0.6567
  284SOL     OW  850   0.724   0.090   0.014  0.2484  0.0161  0.3700
  284SOL    HW1  851   0.765   0.109   0.106  0.9912 -2.9646 -0.7915
  284SOL    HW2  852   0.632   0.131   0.001  1.0871  1.3094 -2.4356
  285SOL     OW  853   2.200   1.721   2.479  0.5501 -0.5157 -0.5652
  285SOL    HW1  854   2.305   1.715   2.486  3.1274 -0.8759  1.9511
  285SOL    HW2  855   2.170   1.818   2.454 -2.5491  0.4250 -0.9614
  286SOL     OW  856   1.201   2.133   0.923 -0.7591 -0.0561 -0.5676
  286SOL    HW1  857   1.111   2.091   0.952 -0.0631 -1.1713  2.2688
  286SOL    HW2  858   1.278   2.093   0.973 -2.2605  0.9725  1.3911
  287SOL     OW  859   1.760   0.304   1.356 -0.4689  0.2592  1.0053
  287SOL    HW1  860   1.805   0.260   1.434 -1.1245  2.0552 -1.4548
  287SOL    HW2  861   1.817   0.375   1.317 -1.9553 -1.2826  3.1286
  288SOL     OW  862   0.850   2.738   2.336 -0.5859 -0.2298 -0.5700
  288SOL    HW1  863   0.923   2.666   2.331  0.7149 -1.4936 -0.0797
  288SOL    HW2  864   0.814   2.760   2.243 -1.1225 -0.1207 -1.0283
  289SOL     OW  865   0.096   1.054   0.726  0.2127  0.2854  0.4067
  289SOL    HW1  866   0.104   1.152   0.748  1.9568  0.3443 -1.7855
  289SOL    HW2  867   0.012   1.007   0.748  0.6423  3.7349  0.7823
  290SOL     OW  868   1.129   2.178   1.258 -0.0840 -0.4535 -0.2434
  290SOL    HW1  869   1.226   2.206   1.242  1.6505 -0.2021  2.6298
  290SOL    HW2  870   1.113   2.081   1.286 -1.6943  1.9595  0.7723
  291SOL     OW  871   1.929   2.683   0.706 -0.3210  0.5744 -0.0662
  291SOL    HW1  872   1.903   2.778   0.742  2.2435  1.1035 -1.9003
  291SOL    HW2  873   1.847   2.642   0.666  0.4174  2.5028  1.4241
  292SOL     OW  874   0.576   0.169   1.759 -0.2823  0.1112 -0.1941
  292SOL    HW1  875   0.515   0.092   1.790  1.6451  0.8776  2.0861
  292SOL    HW2  876   0.668   0.150   1.800  0.7516 -1.4303  2.0263
  293SOL     OW  877   2.331   1.887   0.662  0.6160 -0.3223 -0.3172
  293SOL    HW1  878   2.400   1.864   0.735  0.0546  0.8948 -0.4924
  293SOL    HW2  879   2.362   1.863   0.564 -0.8848 -0.7433 -0.0618
  294SOL     OW  880   1.004   0.127   2.155 -0.4373  0.0698 -0.1152
  294SOL    HW1  881   1.088   0.168   2.193  1.1150 -2.6697 -1.8791
  294SOL    HW2  882   1.026   0.033   2.124 -0.3546  0.5354  1.2957
  295SOL     OW  883   1.069   1.154   0.947 -0.0164 -0.6878  0.2360
  295SOL    HW1  884   1.015   1.220   0.888  0.6465  3.0465  0.9404
  295SOL    HW2  885   1.016   1.077   0.978 -1.0061 -1.1253 -0.9668
  296SOL     OW  886   2.191   2.045   0.849  0.1438 -0.2622  0.1852
  296SOL    HW1  887   2.248   1.998   0.779 -0.1007  0.6026  0.8231
  296SOL    HW2  888   2.182   2.146   0.827  0.7104  0.1825 -2.4559
  297SOL     OW  889   1.950   0.198   2.941  0.2282 -0.1735  0.0473
  297SOL    HW1  890   1.980   0.295   2.935 -2.7743  2.1568  0.5622
  297SOL    HW2  891   2.005   0.150   3.011  0.6714 -0.6714  1.6429
  298SOL     OW  892   1.280   0.060   2.516  0.0346  0.1399 -0.2318
  298SOL    HW1  893   1.363   0.010   2.479  1.7187 -4.6921  0.3451
  298SOL    HW2  894   1.266   0.032   2.614 -2.5740 -1.0776 -0.1823
  299SOL     OW  895   1.101   3.027   2.122 -0.5520 -0.5944 -0.1017
  299SOL    HW1  896   1.164   3.070   2.053  2.9861  0.4268 -2.4517
  299SOL    HW2  897   1.158   2.987   2.194  0.7939  0.3703 -0.7029
  300SOL     OW  898   2.576   0.174   1.788 -0.2599 -0.1890  0.3510
  300SOL    HW1  899   2.644   0.228   1.842 -4.3760 -0.5260  0.1727
  300SOL    HW2  900   2.518   0.229   1.727  0.3179  1.6857  1.3350
  301SOL     OW  901   2.343   0.348   1.734 -0.6899 -0.9197  0.3301
  301SOL    HW1  902   2.374   0.396   1.817 -1.2784  2.1933 -0.0741
  301SOL    HW2  903   2.263   0.292   1.741  2.3982  0.4765 -0.0375
  302SOL     OW  904   0.700   2.371   2.910  0.1180  0.2682 -0.2266
  302SOL    HW1  905   0.606   2.334   2.896  0.6452  2.0055  0.0762
  302SOL    HW2  906   0.727   2.354   3.007  1.8009 -0.5005 -0.5045
  303SOL     OW  907   1.665   1.971   1.330  0.5524 -0.4094  0.2195
  303SOL    HW1  908   1.567   1.988   1.360 -1.7167 -0.0319  1.0583
  303SOL    HW2  909   1.707   1.902   1.391  0.3835 -1.8168 -2.2113
  304SOL     OW  910   0.178   0.610   0.997 -0.0015 -0.0356 -0.6175
  304SOL    HW1  911   0.214   0.691   1.052  1.0552  0.6608  0.3358
  304SOL    HW2  912   0.097   0.634   0.938  0.7950  2.5644 -1.7814
  305SOL     OW  913   0.871   0.785   0.844 -0.1881 -0.0301  0.1498
  305SOL    HW1  914   0.931   0.814   0.926 -1.1827 -1.7385 -0.7487
  305SOL    HW2  915   0.922   0.806   0.759 -0.7279 -0.9617 -0.7001
  306SOL     OW  916   0.520   0.992   2.926 -0.1893  0.0771 -0.0561
  306SOL    HW1  917   0.615   0.986   2.905  0.3965  0.7180 -2.0234
  306SOL    HW2  918   0.495   0.918   2.995  1.1319  0.5689  1.7842
  307SOL     OW  919   1.105   0.218   1.735 -0.1405  0.8516 -0.3661
  307SOL    HW1  920   1.054   0.288   1.684  3.5751 -2.8626  1.7658
  307SOL    HW2  921   1.161   0.271   1.799 -1.7548 -0.2590 -2.0869
  308SOL     OW  922   0.622   0.781   0.994  0.0609  0.0753  0.3166
  308SOL    HW1  923   0.705   0.811   0.945  1.3023  0.1978  0.8304
  308SOL    HW2  924   0.537   0.828   0.960 -2.1390 -2.0602  1.1580
  309SOL     OW  925   2.682   1.008   0.712 -0.0391 -0.1526  0.0899
  309SOL    HW1  926   2.729   1.001   0.802 -0.6270 -2.1355 -1.9440
  309SOL    HW2  927   2.655   0.916   0.677  0.2331 -0.6420  1.8798
  310SOL     OW  928   0.980   1.406   0.120 -0.8114 -0.0372  0.0115
  310SOL    HW1  929   0.924   1.461   0.181  2.8814 -0.9316 -0.7953
  310SOL    HW2  930   0.951   1.408   0.020 -0.5592 -0.5255 -2.8626
  311SOL     OW  931   2.376   2.678   2.281 -0.2161  0.3781  0.3448
  311SOL    HW1  932   2.448   2.727   2.226 -0.7382  0.2644  1.8520
  311SOL    HW2  933   2.292   2.734   2.303 -2.0580  2.4900 -1.8301
  312SOL     OW  934   2.059   2.376   3.056 -0.2788 -0.3134  0.1971
  312SOL    HW1  935   2.117   2.298   3.056 -1.9463  4.1839  1.5903
  312SOL    HW2  936   2.055   2.418   0.011  0.6890 -2.2601 -0.9006
  313SOL     OW  937   0.192   0.109   0.126 -0.3388 -0.0453  0.5672
  313SOL    HW1  938   0.283   0.150   0.153  0.2765 -1.7256 -0.5177
  313SOL    HW2  939   0.206   0.045   0.047 -0.1617 -2.1953  1.8868
  314SOL     OW  940   2.383   1.478   3.106 -0.3523  0.0676  0.6032
  314SOL    HW1  941   2.485   1.480   3.125  0.0807  1.3733  2.2507
  314SOL    HW2  942   2.362   1.451   3.007  0.8268 -0.0515  1.4912
  315SOL     OW  943   1.909   0.476   2.141  0.6058 -0.0468 -0.2493
  315SOL    HW1  944   1.870   0.427   2.218 -2.5038 -0.0299 -2.7594
  315SOL    HW2  945   1.844   0.551   2.110 -1.2725 -1.8861  0.9115
  316SOL     OW  946   2.998   0.912   0.800 -0.4206 -0.0522 -0.4417
  316SOL    HW1  947   2.909   0.929   0.846  0.0172 -2.6589 -2.2524
  316SOL    HW2  948   2.978   0.921   0.703  2.5057 -1.8330  1.3900
  317SOL     OW  949   0.896   2.924   0.157  0.6576 -0.3382 -0.0600
  317SOL    HW1  950   0.797   2.951   0.148  1.1133 -2.1189  1.8986
  317SOL    HW2  951   0.915   2.829   0.118  0.0087  1.0935  1.1768
  318SOL     OW  952   2.069   2.744   1.512  0.1899  0.0533  0.2707
  318SOL    HW1  953   2.100   2.819   1.569 -1.1471  1.4757 -2.0568
  318SOL    HW2  954   2.071   2.652   1.561  0.2857  0.2977 -0.4507
  319SOL     OW  955   1.124   1.720   3.055  0.5151 -0.5130 -0.5747
  319SOL    HW1  956   1.143   1.737   0.016  0.0545  1.5103 -0.1377
  319SOL    HW2  957   1.199   1.679   3.002  2.2690 -0.4708 -1.5436
  320SOL     OW  958   0.377   1.873   0.748 -0.5239  0.1713  0.2247
  320SOL    HW1  959   0.294   1.905   0.697 -0.8981  2.2269  1.4313
  320SOL    HW2  960   0.464   1.887   0.692 -1.4111 -1.2404 -2.5381
  321SOL     OW  961   1.908   2.697   1.877  0.2982  0.3668 -0.4693
  321SOL    HW1  962   1.996   2.719   1.921 -0.5002 -1.7509  0.2306
  321SOL    HW2  963   1.836   2.758   1.910 -0.4514 -0.0074  0.3562
  322SOL     OW  964   2.410   2.022   2.544  0.4493  0.0810 -0.2342
  322SOL    HW1  965   2.386   2.058   2.453  3.2648  0.4323  4.4412
  322SOL    HW2  966   2.461   1.931   2.532  3.5920 -3.9403 -0.5899
  323SOL     OW  967   2.468   0.311   0.692  0.2804 -0.3224  0.1712
  323SOL    HW1  968   2.435   0.240   0.760 -0.9125  0.1028  2.1245
  323SOL    HW2  969   2.459   0.278   0.600 -0.6448  0.0891  2.4482
  324SOL     OW  970   3.048   2.954   2.164 -0.1262  0.3329 -0.7241
  324SOL    HW1  971   3.132   2.997   2.123  1.9620  0.0201 -0.3154
  324SOL    HW2  972   3.085   2.879   2.226 -1.5625  0.3440 -1.2541
  325SOL     OW  973   1.003   0.449   2.800 -0.0219  0.3284 -0.2513
  325SOL    HW1  974   1.078   0.385   2.768 -0.7482 -0.4597 -0.9652
  325SOL    HW2  975   0.920   0.442   2.744  2.0592  3.4619  0.3344
  326SOL     OW  976   2.703   2.367   1.170 -0.3329 -0.0375  0.4792
  326SOL    HW1  977   2.740   2.393   1.262  1.0887  1.2360  0.7348
  326SOL    HW2  978   2.647   2.450   1.132 -3.3153  1.5087 -3.5452
  327SOL     OW  979   2.442   3.045   0.186  0.3491 -0.3522 -0.1934
  327SOL    HW1  980   2.430   3.053   0.285  1.9523 -0.1748 -2.9517
  327SOL    HW2  981   2.385   2.967   0.147 -1.1762 -3.6645 -0.0670
  328SOL     OW  982   0.386   0.840   1.619  0.4009 -0.1367  0.1319
  328SOL    HW1  983   0.408   0.740   1.593  1.7757 -0.5069  1.0640
  328SOL    HW2  984   0.343   0.852   1.712  0.9544  5.5381 -2.4418
  329SOL     OW  985   2.025   0.620   1.499  0.4360 -0.7186 -0.6264
  329SOL    HW1  986   2.015   0.567   1.584  1.2350  1.6954 -1.0455
  329SOL    HW2  987   2.119   0.615   1.462 -0.2508  0.1285 -0.9406
  330SOL     OW  988   0.686   0.512   0.996  0.1763  0.0152 -0.1111
  330SOL    HW1  989   0.603   0.457   1.021 -2.0584 -1.8100 -0.1080
  330SOL    HW2  990   0.678   0.617   0.978 -3.7655  4.0506 -1.8228
  331SOL     OW  991   0.855   1.539   1.908 -0.1485  0.3920 -0.7988
  331SOL    HW1  992   0.948   1.509   1.953 -0.4012 -0.0735 -2.1105
  331SOL    HW2  993   0.873   1.600   1.833 -0.0240 -2.3913  1.9868
  332SOL     OW  994   2.719   2.660   1.626 -0.2604 -0.4867  0.2125
  332SOL    HW1  995   2.801   2.710   1.669  1.9104  0.7394  0.4964
  332SOL    HW2  996   2.700   2.574   1.686 -1.5496 -4.4641  1.1923
  333SOL     OW  997   3.070   3.039   1.149  0.4302  0.0929 -0.3764
  333SOL    HW1  998   3.127   3.122   1.128 -2.5075  0.0087  1.1284
  333SOL    HW2  999   2.992   3.033   1.083 -1.3009  2.4151 -0.5229
  334SOL     OW 1000   0.099   1.096   0.462  0.5481  0.5430  0.7443
  334SOL    HW1 1001   0.112   1.084   0.558 -0.1048 -1.2022 -5.7654
  334SOL    HW2 1002   0.174   1.141   0.406 -0.9837  1.4107 -1.7684
  335SOL     OW 1003   0.718   2.627   2.785  0.1053  0.6588 -0.0487
  335SOL    HW1 1004   0.730   2.554   2.852 -1.6886 -0.6589 -0.7608
  335SOL    HW2 1005   0.772   2.710   2.809  1.7090 -0.0555 -0.5454
  336SOL     OW 1006   2.910   2.905   1.935 -0.3482 -0.1643 -0.0392
  336SOL    HW1 1007   2.969   2.924   2.018 -1.7072 -3.6832 -0.5643
  336SOL    HW2 1008   2.835   2.850   1.967 -0.4297  3.8449  1.2087
  337SOL     OW 1009   1.407   1.951   1.716  0.5080  0.2270 -0.1638
  337SOL    HW1 1010   1.329   1.998   1.765 -1.5971 -0.0786  0.4045
  337SOL    HW2 1011   1.497   1.995   1.749  1.8818 -0.5128  0.4144
  338SOL     OW 1012   0.888   0.140   2.735  0.5782 -0.3654 -0.0387
  338SOL    HW1 1013   0.898   0.239   2.709 -1.7252  2.2320 -0.5709
  338SOL    HW2 1014   0.909   0.076   2.660 -2.5229 -0.7175  1.1206
  339SOL     OW 1015   0.644   1.170   2.449 -0.4696  0.0712 -0.0022
  339SOL    HW1 1016   0.620   1.201   2.356 -0.3441  0.6388 -0.3051
  339SOL    HW2 1017   0.676   1.075   2.444 -0.6540 -1.0240 -0.9331
  340SOL     OW 1018   2.127   0.447   1.135 -0.0532  0.3204  0.6458
  340SOL    HW1 1019   2.087   0.352   1.154 -0.8060  0.3310 -0.3892
  340SOL    HW2 1020   2.222   0.441   1.091 -0.1894  0.5334 -2.4525
  341SOL     OW 1021   2.156   1.222   0.917  0.4128  0.3485  0.2898
  341SOL    HW1 1022   2.062   1.256   0.893  0.1549  0.3947  3.7584
  341SOL    HW2 1023   2.186   1.261   1.011  1.6182 -0.3557  2.2425
  342SOL     OW 1024   1.994   2.414   2.808 -0.0072 -0.7346  0.5161
  342SOL    HW1 1025   2.032   2.406   2.907 -1.2921  2.3894  1.0959
  342SOL    HW2 1026   1.898   2.435   2.812  2.4184 -0.2647  1.3113
  343SOL     OW 1027   0.353   2.622   1.589  0.1766 -0.5506 -0.1467
  343SOL    HW1 1028   0.444   2.664   1.588 -2.2790 -1.3654 -0.7215
  343SOL    HW2 1029   0.355   2.542   1.650 -0.4948  0.9637  2.5231
  344SOL     OW 1030   2.521   2.793   1.254 -0.3541 -0.2483 -0.9368
  344SOL    HW1 1031   2.472   2.777   1.340 -0.3334  1.7160 -0.6609
  344SOL    HW2 1032   2.594   2.867   1.270 -0.2644  0.4725  0.4814
  345SOL     OW 1033   2.510   2.263   0.075 -0.1930 -0.1059 -0.0994
  345SOL    HW1 1034   2.603   2.281   0.111 -1.0652  0.3227  0.1497
  345SOL    HW2 1035   2.517   2.183   0.014 -0.3673 -1.4265  1.5620
  346SOL     OW 1036   1.481   2.312   1.502  0.0550 -0.0229 -0.7726
  346SOL    HW1 1037   1.460   2.213   1.484  1.2402  3.3572  0.0118
  346SOL    HW2 1038   1.577   2.336   1.532  1.2059 -0.7046  0.5985
  347SOL     OW 1039   0.886   1.757   1.707 -0.2440 -0.3173 -0.3250
  347SOL    HW1 1040   0.923   1.835   1.651 -1.6842 -2.1526 -1.2300
  347SOL    HW2 1041   0.878   1.685   1.643 -0.5077  3.6848  4.3026
  348SOL     OW 1042   0.116   2.084   1.933  0.2548  0.5186 -0.4148
  348SOL    HW1 1043   0.136   1.996   1.889 -0.4315  0.5955 -0.5787
  348SOL    HW2 1044   0.193   2.123   1.985  0.6702  0.0553 -0.4033
  349SOL     OW 1045   1.769   1.775   1.509  0.1767  0.8410  0.0023
  349SOL    HW1 1046   1.765   1.704   1.585 -0.2778 -0.4816  1.4845
  349SOL    HW2 1047   1.859   1.790   1.464  1.8474 -0.0622 -1.7809
  350SOL     OW 1048   2.265   2.230   0.494 -0.3372  0.6351  0.1310
  350SOL    HW1 1049   2.172   2.218   0.539 -2.4609  1.2098  1.6972
  350SOL    HW2 1050   2.293   2.328   0.487 -1.3450 -2.5029 -0.7295
  351SOL     OW 1051   0.665   2.995   1.608  0.4124  0.1109  0.2009
  351SOL    HW1 1052   0.687   3.017   1.702  0.4976  0.7557  2.0427
  351SOL    HW2 1053   0.735   3.028   1.544 -2.8635  0.6839  2.3417
  352SOL     OW 1054   0.396   0.867   0.904 -0.2946  0.3266  0.3546
  352SOL    HW1 1055   0.340   0.821   0.827 -1.3198 -0.6650 -2.1516
  352SOL    HW2 1056   0.340   0.879   0.986  1.4119 -1.5049 -3.2216
  353SOL     OW 1057   1.140   1.780   2.626  0.3243 -0.5333  0.4529
  353SOL    HW1 1058   1.045   1.754   2.636 -0.3714  0.4236  0.9232
  353SOL    HW2 1059   1.201   1.702   2.610  1.2706 -0.5074 -2.7192
  354SOL     OW 1060   1.734   2.869   1.976 -0.1046  0.1214  0.3548
  354SOL    HW1 1061   1.713   2.888   2.076 -0.1792  1.3880 -0.1495
  354SOL    HW2 1062   1.647   2.844   1.924 -2.8968  0.1054  1.1179
  355SOL     OW 1063   1.910   1.098   0.104  0.1433  0.1375  0.1808
  355SOL    HW1 1064   1.873   1.171   0.162  0.9899 -0.8944 -0.1393
  355SOL    HW2 1065   1.880   1.112   0.006 -0.6755 -1.0742 -0.2832
  356SOL     OW 1066   3.088   1.768   1.453  0.0371 -0.0210  0.1912
  356SOL    HW1 1067   3.103   1.862   1.409  0.9743  1.4446  0.2241
  356SOL    HW2 1068   3.108   1.695   1.385 -2.2929 -3.8981 -0.4329
  357SOL     OW 1069   0.262   2.855   1.206  0.0328  0.4173  0.2046
  357SOL    HW1 1070   0.199   2.830   1.127  0.3805  4.8554  1.2935
  357SOL    HW2 1071   0.216   2.916   1.273  0.1050  0.1698  0.5365
  358SOL     OW 1072   2.598   1.950   1.413 -0.2998  0.6230 -0.0763
  358SOL    HW1 1073   2.635   1.914   1.505  1.5079  1.6534 -1.2473
  358SOL    HW2 1074   2.645   1.895   1.340 -0.1513 -1.1078 -2.5838
  359SOL     OW 1075   2.210   2.775   2.655  0.1956  0.3470 -0.2476
  359SOL    HW1 1076   2.283   2.837   2.683 -2.5541 -0.8987  2.4007
  359SOL    HW2 1077   2.213   2.689   2.705  0.4748  1.3405  3.2641
  360SOL     OW 1078   1.158   2.906   0.923  0.2632 -0.4910 -1.0338
  360SOL    HW1 1079   1.243   2.856   0.950 -1.5151 -1.7698  1.4147
  360SOL    HW2 1080   1.134   2.894   0.825 -1.2449 -0.4418  1.6786
  361SOL     OW 1081   2.155   0.342   0.434 -0.2984  0.4082 -0.2839
  361SOL    HW1 1082   2.062   0.317   0.475  0.3070 -0.2198 -0.7257
  361SOL    HW2 1083   2.172   0.440   0.455  2.5870  1.4585 -0.2526
  362SOL     OW 1084   1.462   0.885   0.900  0.0763  0.4765  0.9181
  362SOL    HW1 1085   1.543   0.831   0.859  3.1001 -1.4434  0.9391
  362SOL    HW2 1086   1.492   0.965   0.953 -0.3550 -2.4920 -0.8364
  363SOL     OW 1087   2.381   1.178   2.556 -1.0116 -0.0833  0.0324
  363SOL    HW1 1088   2.336   1.202   2.646 -0.0515  2.1870 -0.0191
  363SOL    HW2 1089   2.339   1.092   2.515  1.0263 -1.3871 -0.1293
  364SOL     OW 1090   0.236   0.534   1.263 -0.1286 -0.0720 -0.1129
  364SOL    HW1 1091   0.240   0.552   1.162 -0.6335  0.3463  0.5033
  364SOL    HW2 1092   0.226   0.616   1.324 -0.2724 -0.5990  0.8929
  365SOL     OW 1093   0.605   0.068   2.762 -0.0361  0.2921  0.1161
  365SOL    HW1 1094   0.581   3.109   2.729 -0.6298  2.0255 -0.7279
  365SOL    HW2 1095   0.706   0.087   2.756 -1.6813 -0.8984 -0.2588
  366SOL     OW 1096   2.175   2.152   2.599 -0.4037  0.5365 -0.8296
  366SOL    HW1 1097   2.266   2.108   2.594  0.1635 -0.4399  0.7044
  366SOL    HW2 1098   2.181   2.255   2.581  0.2135  0.4321  0.2221
  367SOL     OW 1099   2.795   2.393   3.037  0.2718 -0.0943 -0.1861
  367SOL    HW1 1100   2.737   2.471   3.068 -1.1294  0.5373 -1.9879
  367SOL    HW2 1101   2.866   2.428   2.976 -1.9788 -0.3452 -2.3354
  368SOL     OW 1102   2.970   1.412   1.227  1.0663 -0.0306  0.4777
  368SOL    HW1 1103   2.914   1.415   1.318 -2.2459 -0.7791  1.4724
  368SOL    HW2 1104   2.940   1.481   1.160  1.8748  1.7041 -1.7775
  369SOL     OW 1105   0.987   3.099   2.563 -0.2886 -0.2223  0.4676
  369SOL    HW1 1106   1.046   0.019   2.505  1.3162 -2.2396 -0.1112
  369SOL    HW2 1107   1.040   3.030   2.617  1.3607 -0.8211  2.2051
  370SOL     OW 1108   2.749   0.249   0.483 -0.2757 -0.3007 -0.2027
  370SOL    HW1 1109   2.731   0.295   0.575 -0.9391 -0.0077 -0.2294
  370SOL    HW2 1110   2.739   0.312   0.405 -2.2155  0.3948 -0.7441
  371SOL     OW 1111   1.372   2.293   1.184  0.0839  0.0288 -0.5679
  371SOL    HW1 1112   1.440   2.332   1.248  2.3750 -2.5325 -0.5562
  371SOL    HW2 1113   1.316   2.364   1.141  0.6167  2.4615  1.3806
  372SOL     OW 1114   0.015   0.813   2.542 -0.0148 -0.1465 -0.2433
  372SOL    HW1 1115   0.013   0.736   2.473 -1.4773  1.9712 -1.2872
  372SOL    HW2 1116   0.052   0.900   2.507  1.5572  2.2088 -0.1170
  373SOL     OW 1117   2.558   1.817   0.830  0.1687  0.1947  0.1225
  373SOL    HW1 1118   2.615   1.863   0.757  0.2548  0.9004 -3.5739
  373SOL    HW2 1119   2.599   1.837   0.924 -1.1793 -0.0285  1.0180
  374SOL     OW 1120   0.580   2.960   2.681  0.5741 -0.0539  0.6448
  374SOL    HW1 1121   0.621   2.932   2.770 -0.0520 -0.2669  0.3635
  374SOL    HW2 1122   0.638   2.941   2.598 -1.3192 -0.4564 -0.5583
  375SOL     OW 1123   0.134   0.058   2.768 -0.0153  0.1421 -0.0782
  375SOL    HW1 1124   0.193   3.131   2.712  0.8985 -0.3087 -0.0832
  375SOL    HW2 1125   0.153   0.059   2.869 -0.5296 -0.8602  0.9696
  376SOL     OW 1126   3.120   2.274   1.784 -0.1135  0.0466 -0.0320
  376SOL    HW1 1127   0.034   2.196   1.822  0.5591 -1.3767  0.3609
  376SOL    HW2 1128   3.021   2.263   1.801  0.3526 -0.4097 -1.5376
  377SOL     OW 1129   1.885   2.248   2.453  0.1076 -0.6030  0.0631
  377SOL    HW1 1130   1.909   2.165   2.500 -1.8139 -0.8843 -2.4793
  377SOL    HW2 1131   1.803   2.236   2.392  1.4320  3.6709 -3.2219
  378SOL     OW 1132   0.465   0.300   2.646 -0.2241  0.2581  0.1543
  378SOL    HW1 1133   0.512   0.388   2.661 -0.9721  1.2754 -1.3382
  378SOL    HW2 1134   0.500   0.231   2.714  0.7128 -2.1251  1.1730
  379SOL     OW 1135   0.508   0.628   0.331 -0.6661  0.1680 -0.5677
  379SOL    HW1 1136   0.530   0.672   0.421 -1.9437  2.2851 -1.6150
  379SOL    HW2 1137   0.456   0.694   0.271 -1.0035 -2.1520 -0.0009
  380SOL     OW 1138   0.250   1.685   1.821 -0.2735 -0.2212 -0.2965
  380SOL    HW1 1139   0.340   1.646   1.795  0.6579 -3.1746  0.2828
  380SOL    HW2 1140   0.258   1.732   1.914  0.2148 -0.7790  1.3726
  381SOL     OW 1141   0.462   1.080   1.984  0.4053  0.1749  0.1588
  381SOL    HW1 1142   0.381   1.025   1.967  3.0642 -1.4494 -1.8149
  381SOL    HW2 1143   0.485   1.129   1.895 -1.9929 -1.7995 -1.1656
  382SOL     OW 1144   2.401   2.090   0.275 -0.2371  0.0277 -0.1055
  382SOL    HW1 1145   2.418   2.151   0.197  0.1335 -2.0826  0.6233
  382SOL    HW2 1146   2.349   2.134   0.351 -3.0446 -2.3999 -0.4763
  383SOL     OW 1147   0.260   1.910   2.991 -0.1819 -0.3487  0.1320
  383SOL    HW1 1148   0.215   1.892   3.080 -2.1647 -2.2561 -0.7848
  383SOL    HW2 1149   0.360   1.929   3.004 -1.3241  0.1323 -2.2675
  384SOL     OW 1150   0.765   2.072   3.002  0.0205 -0.0941  0.5390
  384SOL    HW1 1151   0.861   2.047   2.991 -1.4834 -2.0405 -1.9976
  384SOL    HW2 1152   0.753   2.147   3.070 -0.7455 -2.5903  0.6287
  385SOL     OW 1153   2.564   2.168   0.566  0.4406  0.7987  0.2787
  385SOL    HW1 1154   2.560   2.232   0.645 -1.8511 -0.0603 -0.3707
  385SOL    HW2 1155   2.469   2.137   0.536  1.2859 -0.0507  0.2336
  386SOL     OW 1156   2.228   1.171   1.667 -0.8354  0.2297 -0.1224
  386SOL    HW1 1157   2.279   1.256   1.642  0.5684 -1.8667  0.9240
  386SOL    HW2 1158   2.139   1.185   1.710 -1.5432 -1.2120 -2.3838
  387SOL     OW 1159   2.843   1.530   2.297 -0.1728  0.5622  0.1367
  387SOL    HW1 1160   2.924   1.471   2.312  1.1911  0.0273 -0.7354
  387SOL    HW2 1161   2.851   1.614   2.355 -0.2680  1.9171 -0.6058
  388SOL     OW 1162   0.303   1.851   2.033  0.6907 -0.1206 -0.0639
  388SOL    HW1 1163   0.348   1.793   2.099  2.0636 -0.5029 -1.6302
  388SOL    HW2 1164   0.329   1.949   2.052 -1.7432  1.7008  3.3749
  389SOL     OW 1165   1.877   0.911   1.816  0.1828 -0.1492 -0.3006
  389SOL    HW1 1166   1.884   0.903   1.715  0.4582  0.9948  0.0860
  389SOL    HW2 1167   1.853   1.005   1.847 -3.0781  1.5937 -2.3085
  390SOL     OW 1168   2.149   3.134   0.833 -0.5869 -0.0370 -0.3586
  390SOL    HW1 1169   2.087   3.111   0.908  0.3683 -1.5428 -1.3173
  390SOL    HW2 1170   2.154   0.102   0.824  0.2121  1.8896 -1.5926
  391SOL     OW 1171   2.025   1.669   1.060 -0.0881 -0.3699  0.3820
  391SOL    HW1 1172   2.122   1.652   1.034 -2.8842 -0.7915 -0.6929
  391SOL    HW2 1173   2.006   1.695   1.157  1.5325  2.1643 -1.0583
  392SOL     OW 1174   2.712   2.553   0.272 -0.0943 -0.3611  0.2021
  392SOL    HW1 1175   2.655   2.576   0.350  1.2759 -2.8731 -3.0153
  392SOL    HW2 1176   2.804   2.599   0.293  0.8647  3.4650 -0.5544
  393SOL     OW 1177   1.990   1.813   2.765  0.0373 -0.0811 -0.5568
  393SOL    HW1 1178   1.893   1.795   2.800  1.1449 -1.2208  0.1700
  393SOL    HW2 1179   2.005   1.906   2.723  0.7067 -0.2164 -1.3056
  394SOL     OW 1180   0.113   2.838   2.729 -0.1670 -0.3821  0.8408
  394SOL    HW1 1181   0.016   2.872   2.713 -2.1630  1.5947 -1.6771
  394SOL    HW2 1182   0.106   2.757   2.784 -4.4453  0.8635 -1.8372
  395SOL     OW 1183   0.558   0.247   0.453 -0.3690  0.6505  0.2420
  395SOL    HW1 1184   0.479   0.275   0.512  0.0341 -0.3972 -0.9500
  395SOL    HW2 1185   0.644   0.297   0.462 -2.8343  0.2948 -1.3080
  396SOL     OW 1186   1.841   0.990   0.419  0.3592 -0.2056 -0.0238
  396SOL    HW1 1187   1.753   0.940   0.432 -2.3728 -1.8446 -0.8938
  396SOL    HW2 1188   1.882   0.979   0.328  0.8629 -0.2975 -0.7128
  397SOL     OW 1189   0.642   0.652   2.210  0.4645 -0.0833 -0.1290
  397SOL    HW1 1190   0.585   0.592   2.269 -0.1148 -0.4445 -1.0868
  397SOL    HW2 1191   0.593   0.738   2.192 -0.6512 -0.4233  0.3279
  398SOL     OW 1192   0.868   3.127   0.501  0.0762 -0.5048  0.5652
  398SOL    HW1 1193   0.793   3.135   0.569  3.7781  0.8060 -1.6800
  398SOL    HW2 1194   0.954   0.018   0.542  0.2413 -1.2130  0.1985
  399SOL     OW 1195   2.381   2.942   1.495  0.4636 -0.1268 -0.5463
  399SOL    HW1 1196   2.400   2.847   1.518  0.6209  1.7211  0.2279
  399SOL    HW2 1197   2.438   3.006   1.544  1.4598 -2.8015 -1.8278
  400SOL     OW 1198   0.909   1.641   2.321 -0.2239 -0.2589  0.4654
  400SOL    HW1 1199   0.977   1.694   2.265  0.4040  0.1023 -0.9669
  400SOL    HW2 1200   0.917   1.662   2.422  0.5413 -1.2268  1.5187
  401SOL     OW 1201   0.767   1.156   2.815 -0.2575  0.3958  0.3241
  401SOL    HW1 1202   0.684   1.208   2.833  2.7588  1.4951 -1.3316
  401SOL    HW2 1203   0.750   1.062   2.775 -0.7879 -1.7431 -0.6936
  402SOL     OW 1204   2.861   2.072   0.835 -0.2580  0.1134 -0.5650
  402SOL    HW1 1205   2.824   2.156   0.876  2.1445 -0.5294  0.0107
  402SOL    HW2 1206   2.798   2.030   0.771  0.8923  0.3342 -1.0121
  403SOL     OW 1207   0.131   1.194   2.179 -0.1093 -0.0107 -0.3882
  403SOL    HW1 1208   0.041   1.172   2.139 -0.1842  0.3044  0.2192
  403SOL    HW2 1209   0.192   1.243   2.110  1.5314  1.4288 -0.8360
  404SOL     OW 1210   0.056   2.741   2.295  0.4066  0.3641 -0.5535
  404SOL    HW1 1211   0.084   2.679   2.220 -1.8585  0.9379  3.5522
  404SOL    HW2 1212   0.133   2.764   2.357 -1.5488 -1.7831 -1.2614
  405SOL     OW 1213   0.163   0.266   1.874  0.3589  0.0342 -0.0775
  405SOL    HW1 1214   0.259   0.292   1.894 -1.3814 -2.2893  1.7555
  405SOL    HW2 1215   0.100   0.321   1.927  1.2684 -0.8466  1.0907
  406SOL     OW 1216   1.386   1.652   2.536  0.3226 -0.4197 -0.0417
  406SOL    HW1 1217   1.467   1.640   2.597 -0.3323  0.3000  0.8826
  406SOL    HW2 1218   1.414   1.727   2.470  0.3067  2.6133 -0.4213
  407SOL     OW 1219   1.656   1.077   2.519  0.0388 -0.0395 -0.2345
  407SOL    HW1 1220   1.583   1.118   2.457  1.7023  0.0517 -0.2016
  407SOL    HW2 1221   1.694   0.991   2.484  0.6459  0.0686  1.2217
  408SOL     OW 1222   0.770   2.976   2.463 -0.0878  0.1414  0.2460
  408SOL    HW1 1223   0.857   3.022   2.497  0.2876  0.6564  0.7285
  408SOL    HW2 1224   0.803   2.892   2.412  0.5486 -3.9046 -0.8832
  409SOL     OW 1225   0.015   2.148   0.894  0.0262 -0.0658  0.2410
  409SOL    HW1 1226   3.100   2.128   0.812  3.8103  1.4705  0.6653
  409SOL    HW2 1227   0.018   2.072   0.963 -0.0253  0.6681 -2.8607
  410SOL     OW 1228   2.673   1.380   0.191 -0.5560 -0.0137  0.1456
  410SOL    HW1 1229   2.772   1.348   0.187 -0.4344  0.5413 -0.0096
  410SOL    HW2 1230   2.645   1.426   0.100 -0.3604  0.6641  0.3683
  411SOL     OW 1231   0.124   0.072   1.070 -0.9107  0.0966 -0.1743
  411SOL    HW1 1232   0.156   0.032   1.154 -1.8039  2.0638 -5.6242
  411SOL    HW2 1233   0.206   0.104   1.011  2.1165  1.7585  0.7472
  412SOL     OW 1234   1.721   0.676   1.439  0.2054  0.6836 -0.1952
  412SOL    HW1 1235   1.734   0.606   1.367  0.9721 -0.8692  1.2597
  412SOL    HW2 1236   1.666   0.760   1.408  0.9693 -0.2921 -0.7926
  413SOL     OW 1237   0.826   0.212   1.948 -0.2092  0.5786  0.0223
  413SOL    HW1 1238   0.889   0.175   2.020  1.3875 -1.0361  2.7511
  413SOL    HW2 1239   0.782   0.301   1.978 -0.4387  3.1544  1.0960
  414SOL     OW 1240   2.877   1.579   2.717  0.0564  0.1611 -0.1204
  414SOL    HW1 1241   2.955   1.517   2.736  1.2376 -2.2205  0.8415
  414SOL    HW2 1242   2.795   1.520   2.713  1.8143  0.7462 -1.2863
  415SOL     OW 1243   0.685   2.539   0.131 -0.0571  0.2835  0.1030
  415SOL    HW1 1244   0.775   2.586   0.109  0.7594  1.9482 -0.8012
  415SOL    HW2 1245   0.671   2.538   0.232  0.5855 -0.7528 -1.3478
  416SOL     OW 1246   1.796   3.076   3.011 -0.1472  0.0775  0.6025
  416SOL    HW1 1247   1.835   3.098   3.100 -2.9285 -0.5553 -1.4179
  416SOL    HW2 1248   1.784   0.025   2.960 -0.2206  1.5264 -0.5624
  417SOL     OW 1249   0.324   0.314   0.600 -0.2669  0.2506 -0.3022
  417SOL    HW1 1250   0.331   0.386   0.671  1.8152 -0.6298  0.0769
  417SOL    HW2 1251   0.305   0.220   0.641  3.3718  1.0400  0.1595
  418SOL     OW 1252   2.395   0.059   1.101 -0.4662 -0.4279 -0.1884
  418SOL    HW1 1253   2.316   0.109   1.138 -2.2114  0.0191 -0.7149
  418SOL    HW2 1254   2.363   3.101   1.104 -1.7074  1.4372 -0.1155
  419SOL     OW 1255   3.123   2.833   0.680  0.3141 -0.1453  0.1427
  419SOL    HW1 1256   0.004   2.804   0.774 -1.9848  0.7736 -0.9210
  419SOL    HW2 1257   0.076   2.836   0.634 -1.1383 -2.0480  0.6549
  420SOL     OW 1258   0.013   1.419   1.737 -0.0706 -0.1297 -0.2118
  420SOL    HW1 1259   0.112   1.440   1.706 -1.7910 -1.3800  0.4924
  420SOL    HW2 1260   3.102   1.351   1.675 -0.0164 -2.2831  1.2842
  421SOL     OW 1261   1.401   2.890   0.626 -0.9973 -0.0883  0.0101
  421SOL    HW1 1262   1.435   2.856   0.533  1.0381  0.7729 -0.0109
  421SOL    HW2 1263   1.423   2.991   0.640  1.2200 -0.8506 -1.0170
  422SOL     OW 1264   0.565   0.458   1.364  0.0231  0.2766  0.2364
  422SOL    HW1 1265   0.623   0.415   1.434  3.0348 -0.8743  1.6267
  422SOL    HW2 1266   0.511   0.392   1.317  2.3353  1.7055  1.2579
  423SOL     OW 1267   1.228   1.332   1.726  0.1047 -0.5055 -0.3676
  423SOL    HW1 1268   1.193   1.405   1.665  1.5560 -2.6370 -0.0181
  423SOL    HW2 1269   1.152   1.265   1.741  1.0717  0.3821 -0.0165
  424SOL     OW 1270   2.031   1.940   0.163  0.1397  0.5233  0.2733
  424SOL    HW1 1271   1.983   2.026   0.187 -0.4466 -1.5073 -2.0347
  424SOL    HW2 1272   2.024   1.871   0.238  1.8445 -2.2175 -0.4828
  425SOL     OW 1273   3.082   0.351   2.020 -0.3690  0.6873  0.3257
  425SOL    HW1 1274   3.053   0.334   2.118 -3.3575 -1.3824 -0.5769
  425SOL    HW2 1275   3.042   0.276   1.961  1.0820 -0.5747  1.4028
  426SOL     OW 1276   0.104   2.630   2.928 -0.0754  0.0427 -0.0028
  426SOL    HW1 1277   0.135   2.704   2.990  0.8437 -0.6067 -0.1198
  426SOL    HW2 1278   0.175   2.558   2.934 -1.6474  1.6697 -2.0773
  427SOL     OW 1279   1.333   0.710   2.872 -0.3882 -0.3010 -0.2401
  427SOL    HW1 1280   1.409   0.694   2.938 -3.1379 -0.4240 -3.3167
  427SOL    HW2 1281   1.244   0.699   2.917  0.5437 -1.9614  1.5382
  428SOL     OW 1282   2.788   0.963   1.856  0.0031 -0.2761 -0.3618
  428SOL    HW1 1283   2.762   0.987   1.956  1.4237 -0.5931  3.2613
  428SOL    HW2 1284   2.730   1.002   1.786 -0.6739 -1.1165 -0.6330
  429SOL     OW 1285   2.068   2.962   1.247 -0.3572 -0.0545  0.0006
  429SOL    HW1 1286   2.040   3.025   1.320 -0.0752 -2.5083 -0.7195
  429SOL    HW2 1287   2.039   2.864   1.266  2.7225  2.4936  2.6300
  430SOL     OW 1288   1.159   1.390   2.868  0.3027  0.8555  0.3666
  430SOL    HW1 1289   1.091   1.335   2.919 -1.1604  1.3296 -0.3710
  430SOL    HW2 1290   1.202   1.460   2.919 -1.2161 -1.4836  0.4139
  431SOL     OW 1291   2.868   1.636   1.603 -0.4489  0.8730  0.2957
  431SOL    HW1 1292   2.808   1.714   1.622 -1.7775  0.9540 -1.5158
  431SOL    HW2 1293   2.957   1.666   1.559  0.6346 -0.5420  0.5405
  432SOL     OW 1294   1.027   2.523   2.333 -0.1240  0.2001 -0.3711
  432SOL    HW1 1295   1.046   2.468   2.415  1.8373  0.2497  0.7422
  432SOL    HW2 1296   0.963   2.478   2.272  1.4965  3.1417  0.4132
  433SOL     OW 1297   2.136   0.386   2.031  0.2103  0.1248 -0.1088
  433SOL    HW1 1298   2.153   0.285   2.013  1.4320 -1.0920 -0.7401
  433SOL    HW2 1299   2.052   0.407   2.088 -0.2821  2.2485  1.8062
  434SOL     OW 1300   0.666   2.441   2.285  0.5459 -0.5760  0.1687
  434SOL    HW1 1301   0.567   2.458   2.260 -1.7917  2.6114  0.4176
  434SOL    HW2 1302   0.668   2.461   2.389  2.6245  2.4297  1.8575
  435SOL     OW 1303   0.055   3.061   0.263  0.1379 -0.2559 -0.0006
  435SOL    HW1 1304   0.093   0.008   0.233 -1.2700 -1.9960  1.5716
  435SOL    HW2 1305   0.027   3.064   0.358  0.6914  1.4345  1.1058
  436SOL     OW 1306   0.746   0.755   1.919 -0.3368 -0.1290  0.1755
  436SOL    HW1 1307   0.747   0.855   1.941 -0.1089 -0.3772 -0.4737
  436SOL    HW2 1308   0.745   0.700   2.001  0.8728 -0.5427 -1.0885
  437SOL     OW 1309   0.575   2.334   2.616  0.7181  0.0113  0.5072
  437SOL    HW1 1310   0.628   2.423   2.605  1.6222  1.0714  0.0683
  437SOL    HW2 1311   0.522   2.332   2.706 -0.0344  0.8534 -0.3111
  438SOL     OW 1312   0.992   1.275   1.240  0.1508  0.4119  0.1024
  438SOL    HW1 1313   0.930   1.252   1.160 -0.7342  3.7142 -0.8504
  438SOL    HW2 1314   1.069   1.210   1.232  0.6857  0.0142 -0.9084
  439SOL     OW 1315   2.666   1.198   2.534  0.3212 -0.1651 -0.5843
  439SOL    HW1 1316   2.705   1.113   2.571 -1.0814  0.6195  1.2001
  439SOL    HW2 1317   2.564   1.190   2.541 -2.8198 -0.7540 -0.3977
  440SOL     OW 1318   0.090   0.528   0.177 -0.3512  0.2026  0.3948
  440SOL    HW1 1319   0.112   0.429   0.166 -1.9054 -0.0057  0.0318
  440SOL    HW2 1320   0.162   0.565   0.233 -0.3939 -1.9555  0.4691
  441SOL     OW 1321   1.213   2.085   1.839  0.2738 -0.1974 -0.2545
  441SOL    HW1 1322   1.157   2.129   1.771  0.3056  2.8902  0.1948
  441SOL    HW2 1323   1.156   2.048   1.917 -0.3556  1.1708  1.8140
  442SOL     OW 1324   2.123   1.563   0.730 -0.1880  0.0169  0.1496
  442SOL    HW1 1325   2.184   1.587   0.805 -0.2183 -3.8033 -0.3721
  442SOL    HW2 1326   2.158   1.474   0.693 -0.4426 -0.0965 -0.1953
  443SOL     OW 1327   2.700   2.113   2.638 -0.0348 -0.0665 -0.5003
  443SOL    HW1 1328   2.723   2.131   2.735 -0.9791  0.1919  0.4512
  443SOL    HW2 1329   2.601   2.108   2.620 -0.6775 -0.4154  0.2956
  444SOL     OW 1330   1.755   1.717   2.882 -0.3918  0.0332 -0.1208
  444SOL    HW1 1331   1.773   1.717   2.981 -0.5233 -0.0448  2.3567
  444SOL    HW2 1332   1.663   1.762   2.866 -0.4663  2.0701 -1.9322
  445SOL     OW 1333   2.441   2.675   1.869  0.4756  0.3014 -0.1965
  445SOL    HW1 1334   2.485   2.717   1.952  0.1948  1.0274  2.0585
  445SOL    HW2 1335   2.518   2.621   1.834 -0.0441  1.4789  1.0011
  446SOL     OW 1336   0.946   0.927   1.627  0.3347  0.2825  0.2861
  446SOL    HW1 1337   0.990   0.934   1.530  0.3525  1.1435 -0.9453
  446SOL    HW2 1338   0.979   0.850   1.682 -0.2023 -0.1458 -2.1326
  447SOL     OW 1339   0.755   1.128   1.148 -0.1644 -0.9090  0.1515
  447SOL    HW1 1340   0.778   1.038   1.186 -1.3895 -3.6087 -1.7472
  447SOL    HW2 1341   0.669   1.167   1.188 -1.0086 -2.0511  1.0496
  448SOL     OW 1342   1.160   1.101   2.385  0.1681 -0.2701  0.2161
  448SOL    HW1 1343   1.146   1.137   2.479  2.0057 -0.0491  1.0904
  448SOL    HW2 1344   1.070   1.090   2.340 -0.3588 -2.1851 -3.1548
  449SOL     OW 1345   0.001   2.147   2.273 -0.1751 -0.3652  0.1812
  449SOL    HW1 1346   3.133   2.118   2.370  0.2460 -0.9930 -0.8713
  449SOL    HW2 1347   3.129   2.066   2.209  0.3390  0.5851  1.6017
  450SOL     OW 1348   2.376   1.724   2.087  0.2034 -0.3698  0.4344
  450SOL    HW1 1349   2.401   1.673   2.171 -0.3897 -1.5319 -0.9660
  450SOL    HW2 1350   2.277   1.705   2.065  0.5146 -1.7509 -1.2465
  451SOL     OW 1351   2.751   1.471   1.407  0.0104  0.1542  0.4309
  451SOL    HW1 1352   2.783   1.535   1.480 -2.6030  2.8617 -0.1249
  451SOL    HW2 1353   2.683   1.404   1.441  1.8280 -0.0737  0.4463
  452SOL     OW 1354   0.266   1.376   1.533  0.0024  0.0121 -0.0534
  452SOL    HW1 1355   0.231   1.295   1.482  0.5960  1.3348 -0.2713
  452SOL    HW2 1356   0.362   1.387   1.507 -2.5729  2.5600 -0.4983
  453SOL     OW 1357   0.564   1.017   0.745  0.0288 -0.2526  0.0016
  453SOL    HW1 1358   0.493   0.969   0.797  1.6630  0.8147 -0.6022
  453SOL    HW2 1359   0.598   1.093   0.807 -0.6110  0.6404 -0.4645
  454SOL     OW 1360   0.784   1.677   0.560 -0.4087  0.0448  0.1492
  454SOL    HW1 1361   0.824   1.620   0.638  0.8740 -0.8896  1.3291
  454SOL    HW2 1362   0.703   1.628   0.521  0.8501  1.5992  2.3981
  455SOL     OW 1363   1.778   0.740   1.135 -0.2908  0.7437  0.2908
  455SOL    HW1 1364   1.712   0.797   1.193 -1.2056  2.7378  0.2183
  455SOL    HW2 1365   1.824   0.668   1.188 -0.9884  2.7245  1.9335
  456SOL     OW 1366   1.635   2.854   0.966 -0.0517  0.3896  0.4405
  456SOL    HW1 1367   1.716   2.850   0.902  3.0361 -1.3812 -1.0134
  456SOL    HW2 1368   1.609   2.953   0.977 -2.6759  1.8086  1.1029
  457SOL     OW 1369   1.816   0.329   2.356 -0.0693  0.0009  0.0654
  457SOL    HW1 1370   1.728   0.274   2.371 -1.6075  0.2802  1.0985
  457SOL    HW2 1371   1.904   0.291   2.397  0.6760  0.3546 -0.5208
  458SOL     OW 1372   2.605   0.675   2.922 -0.3844  0.2707  0.3519
  458SOL    HW1 1373   2.576   0.590   2.876  2.2676  1.0564 -0.7450
  458SOL    HW2 1374   2.706   0.673   2.944 -1.0631  2.1562 -0.4581
  459SOL     OW 1375   3.107   1.727   1.979  0.2691  0.3749 -0.3161
  459SOL    HW1 1376   3.118   1.686   1.887 -1.5351 -0.8837 -0.9619
  459SOL    HW2 1377   0.029   1.675   2.049 -0.5236 -2.8442  1.7218
  460SOL     OW 1378   0.412   0.745   3.045 -0.1270 -0.7294  0.0676
  460SOL    HW1 1379   0.369   0.704   2.960 -0.4525 -1.6961 -1.7962
  460SOL    HW2 1380   0.476   0.688   3.099  0.4353 -2.8578  2.3985
  461SOL     OW 1381   3.032   2.448   0.433 -0.1961 -0.1597  0.2521
  461SOL    HW1 1382   2.987   2.359   0.462  1.5932 -1.5070  0.6143
  461SOL    HW2 1383   3.128   2.419   0.411  2.4302 -2.4057 -2.0358
  462SOL     OW 1384   0.060   3.059   1.633 -0.0353 -0.3037  0.5796
  462SOL    HW1 1385   0.119   2.995   1.581 -0.3044 -1.5703  2.5338
  462SOL    HW2 1386   0.034   0.002   1.576  2.4063  2.5466  1.6725
  463SOL     OW 1387   1.673   2.062   1.863 -0.3916 -0.1234  0.5321
  463SOL    HW1 1388   1.772   2.053   1.835  1.4911 -0.6340 -0.3231
  463SOL    HW2 1389   1.641   2.157   1.833  1.8768  3.4913 -1.0063
  464SOL     OW 1390   0.098   2.885   0.950 -0.1372 -0.4853  0.3666
  464SOL    HW1 1391   0.044   2.947   1.015 -0.4303 -0.7206  0.0636
  464SOL    HW2 1392   0.177   2.937   0.905  1.2152  1.4870 -1.8333
  465SOL     OW 1393   0.399   0.176   1.528 -0.4654 -0.1088  0.1623
  465SOL    HW1 1394   0.475   0.190   1.597 -1.7620 -0.2591 -1.6964
  465SOL    HW2 1395   0.306   0.206   1.558 -0.4573  0.4689  2.5567
  466SOL     OW 1396   1.152   1.958   2.410 -0.1481 -0.2686  0.0356
  466SOL    HW1 1397   1.167   1.880   2.474  1.3683 -2.1689  1.1299
  466SOL    HW2 1398   1.087   2.034   2.447 -2.0688  0.0256 -0.6118
  467SOL     OW 1399   2.969   1.345   0.861 -0.4893  0.6457  0.0624
  467SOL    HW1 1400   2.951   1.425   0.919  0.5373 -2.3314  0.0768
  467SOL    HW2 1401   2.890   1.317   0.804 -0.3059  1.6550  0.9075
  468SOL     OW 1402   2.386   1.969   2.819 -0.2757 -0.2840 -0.2126
  468SOL    HW1 1403   2.342   1.879   2.841  0.5649 -0.8655  2.6172
  468SOL    HW2 1404   2.396   1.982   2.719  0.2022  0.0193  1.1932
  469SOL     OW 1405   1.207   2.334   0.742 -0.0388 -0.6174 -0.1417
  469SOL    HW1 1406   1.237   2.287   0.662 -0.3032  0.8575  2.5645
  469SOL    HW2 1407   1.212   2.266   0.818  0.2678 -0.6338 -1.4644
  470SOL     OW 1408   2.002   1.824   1.395 -0.4660 -0.3622  0.0395
  470SOL    HW1 1409   2.014   1.927   1.388 -1.5377 -0.4035  1.1801
  470SOL    HW2 1410   2.093   1.783   1.417  2.1132 -1.9584  1.9262
  471SOL     OW 1411   0.141   2.370   0.365 -0.0837  0.2938 -0.1309
  471SOL    HW1 1412   0.199   2.409   0.440 -3.5261  0.8199 -1.0234
  471SOL    HW2 1413   0.168   2.277   0.338 -1.6942  1.3805  1.1840
  472SOL     OW 1414   2.508   1.776   2.477 -0.1815  0.3038 -0.2528
  472SOL    HW1 1415   2.596   1.818   2.455 -0.6041 -2.5577  1.6706
  472SOL    HW2 1416   2.484   1.714   2.395 -1.7659 -1.4805 -1.2810
  473SOL     OW 1417   1.309   2.535   1.064  0.0294  0.2358 -0.2674
  473SOL    HW1 1418   1.221   2.569   1.096  2.3744  0.6577  2.1096
  473SOL    HW2 1419   1.342   2.588   0.983 -0.0827  0.0857 -1.4092
  474SOL     OW 1420   2.909   0.116   1.319  0.2602  0.9242  0.1482
  474SOL    HW1 1421   2.840   0.053   1.279 -0.7244 -1.0353  0.5782
  474SOL    HW2 1422   2.871   0.149   1.406 -0.3396  1.0255 -1.4874
  475SOL     OW 1423   2.126   2.781   2.014  0.2387 -0.0973  0.0038
  475SOL    HW1 1424   2.160   2.719   2.084 -1.1170 -1.7762 -0.4469
  475SOL    HW2 1425   2.202   2.816   1.955  0.8505 -0.8346  1.7573
  476SOL     OW 1426   0.374   0.462   0.845 -0.3273 -0.6208 -0.0864
  476SOL    HW1 1427   0.425   0.402   0.912  1.0818 -0.6329 -0.3095
  476SOL    HW2 1428   0.292   0.503   0.889  0.2422 -1.5087  2.1911
  477SOL     OW 1429   0.745   2.114   0.990  0.5739 -0.0302 -0.2524
  477SOL    HW1 1430   0.731   2.172   1.074  1.0437  0.7447  4.2050
  477SOL    HW2 1431   0.673   2.040   0.992 -1.3634 -0.9378  0.5620
  478SOL     OW 1432   0.988   2.303   2.846 -0.2272  0.0089 -0.5911
  478SOL    HW1 1433   1.001   2.207   2.879 -0.6382 -1.1093 -0.0146
  478SOL    HW2 1434   0.892   2.341   2.859  1.0595  1.9389  0.7137
  479SOL     OW 1435   3.045   1.109   2.073 -0.1967 -0.5289  0.2403
  479SOL    HW1 1436   2.962   1.095   2.125  3.8538  0.7746 -1.5236
  479SOL    HW2 1437   3.043   1.058   1.983  3.9919 -3.0930  1.4342
  480SOL     OW 1438   0.320   2.493   3.062 -0.3127  0.1898 -0.0073
  480SOL    HW1 1439   0.245   2.477   3.129  1.2933  2.7141  0.3844
  480SOL    HW2 1440   0.367   2.585   3.082  2.0041  4.3796 -1.5186
  481SOL     OW 1441   1.682   2.968   2.236  0.0297 -0.5223 -0.0734
  481SOL    HW1 1442   1.752   2.979   2.307  1.7672  0.7984 -1.3780
  481SOL    HW2 1443   1.664   3.055   2.186  1.0256 -0.5006 -2.1654
  482SOL     OW 1444   1.779   2.080   3.104  0.1214 -0.0626  0.2327
  482SOL    HW1 1445   1.813   2.072   0.062 -1.7910 -0.8660 -0.2952
  482SOL    HW2 1446   1.857   2.087   3.043  0.7421  0.2580  1.3443
  483SOL     OW 1447   1.086   2.380   2.576  0.2682  0.3674 -0.4205
  483SOL    HW1 1448   1.182   2.417   2.577 -0.3922 -1.3744  0.0107
  483SOL    HW2 1449   1.063   2.364   2.674  1.4585  2.1533  1.4701
  484SOL     OW 1450   0.682   2.917   0.979 -0.3183  0.1811 -0.1680
  484SOL    HW1 1451   0.663   2.990   0.911  0.3036 -1.1444  0.2810
  484SOL    HW2 1452   0.656   2.946   1.074  1.6391  0.4007 -0.5052
  485SOL     OW 1453   2.242   0.744   0.745  0.3629 -0.4598 -0.3132
  485SOL    HW1 1454   2.249   0.839   0.788 -1.7441  1.0785  1.8943
  485SOL    HW2 1455   2.180   0.684   0.802  3.2041  0.8376  0.9851
  486SOL     OW 1456   2.031   2.969   2.240 -0.5920 -0.6075  0.1061
  486SOL    HW1 1457   2.051   2.883   2.292 -0.0193 -1.5502  0.8103
  486SOL    HW2 1458   2.006   2.956   2.143 -1.3219  2.3660  1.2423
  487SOL     OW 1459   0.951   1.822   0.816 -0.0024  0.0562  0.4854
  487SOL    HW1 1460   0.951   1.878   0.729  0.4423 -1.0821  1.7064
  487SOL    HW2 1461   0.988   1.876   0.896 -0.9169  0.1185 -0.4065
  488SOL     OW 1462   2.199   0.255   0.170  0.1933 -0.6416  0.3665
  488SOL    HW1 1463   2.198   0.285   0.266 -1.5686 -0.8366 -1.1282
  488SOL    HW2 1464   2.140   0.320   0.123 -1.6140 -2.9523 -0.7481
  489SOL     OW 1465   2.164   3.013   0.563 -0.1566 -0.1614  0.0389
  489SOL    HW1 1466   2.250   3.051   0.530 -0.3461 -3.3920 -1.1078
  489SOL    HW2 1467   2.133   3.054   0.649  0.5761  0.3177  0.6597
  490SOL     OW 1468   1.523   3.059   2.904  0.0375  0.3464  0.4546
  490SOL    HW1 1469   1.614   3.029   2.940  1.6693 -1.5306  0.0378
  490SOL    HW2 1470   1.446   3.035   2.965  2.1343 -0.3635  2.0329
  491SOL     OW 1471   0.844   0.183   1.081  0.1899  0.1954 -0.6583
  491SOL    HW1 1472   0.820   0.192   1.181  2.2583  0.8513  0.0460
  491SOL    HW2 1473   0.918   0.115   1.071  0.6372  1.2256 -0.9485
  492SOL     OW 1474   1.952   3.041   0.382  0.6472  0.2702 -0.1530
  492SOL    HW1 1475   2.029   3.050   0.450 -1.1305  0.5515  0.2809
  492SOL    HW2 1476   1.978   2.964   0.326 -0.1240 -1.6534  0.6595
  493SOL     OW 1477   1.316   2.258   2.773  0.0798  0.3628  1.0806
  493SOL    HW1 1478   1.269   2.282   2.856 -0.0329 -4.0527  0.1847
  493SOL    HW2 1479   1.281   2.162   2.755  0.9500 -1.1016 -0.0421
  494SOL     OW 1480   0.304   1.292   1.047 -0.2503  0.4783 -0.3968
  494SOL    HW1 1481   0.362   1.234   1.105 -1.7592  1.6839 -0.5699
  494SOL    HW2 1482   0.205   1.262   1.038 -0.0698  2.7470 -1.5927
  495SOL     OW 1483   2.914   0.463   1.675 -0.0356  0.0074  0.1655
  495SOL    HW1 1484   2.969   0.481   1.594  1.0092  0.1005  2.7874
  495SOL    HW2 1485   2.919   0.545   1.736 -1.2640  0.8436  0.7861
  496SOL     OW 1486   2.450   2.402   2.272 -0.5666  0.5144  0.2651
  496SOL    HW1 1487   2.541   2.407   2.218 -0.6337  1.7098  1.0729
  496SOL    HW2 1488   2.405   2.493   2.269 -0.7454  0.3210  2.1291
  497SOL     OW 1489   1.598   1.363   2.619 -0.7720  0.2216 -0.4539
  497SOL    HW1 1490   1.650   1.281   2.580  1.1879  1.2972  3.6736
  497SOL    HW2 1491   1.527   1.392   2.556  0.3092 -1.8911 -0.1320
  498SOL     OW 1492   0.847   2.192   0.722  0.3319  0.1803 -0.6414
  498SOL    HW1 1493   0.891   2.271   0.768  1.9254  0.7376 -1.1371
  498SOL    HW2 1494   0.795   2.138   0.791 -0.2896 -1.8753  0.5852
  499SOL     OW 1495   0.164   1.634   0.985  0.1765  0.3912  0.4527
  499SOL    HW1 1496   0.127   1.663   0.893 -0.8814  0.3214 -3.4986
  499SOL    HW2 1497   0.264   1.659   0.992 -1.7419  0.7426 -0.9411
  500SOL     OW 1498   1.413   2.385   0.414  0.5027  0.1671 -0.1467
  500SOL    HW1 1499   1.391   2.427   0.323  0.4102  1.1896  1.5239
  500SOL    HW2 1500   1.437   2.455   0.480 -0.7333  0.9510  2.1924
  501SOL     OW 1501   2.096   2.507   1.128 -0.2225 -0.1494  0.8976
  501SOL    HW1 1502   2.055   2.409   1.133 -0.2865 -3.3271  0.5727
  501SOL    HW2 1503   2.107   2.544   1.029  1.3781  3.9941 -0.6285
  502SOL     OW 1504   0.405   0.574   1.570 -0.2342  0.1133 -0.4400
  502SOL    HW1 1505   0.348   0.495   1.601  4.2270 -0.4216  1.6425
  502SOL    HW2 1506   0.471   0.534   1.502 -0.8194  2.0395  0.3848
  503SOL     OW 1507   2.102   0.221   1.756 -0.1813  0.0397  0.1951
  503SOL    HW1 1508   2.042   0.236   1.675  0.2548 -0.6759 -0.1303
  503SOL    HW2 1509   2.128   0.124   1.772  0.6421  3.3394 -0.7239
  504SOL     OW 1510   2.106   0.781   1.825  0.2545 -0.3501 -0.6167
  504SOL    HW1 1511   2.017   0.834   1.814 -2.3164 -1.0422 -1.6268
  504SOL    HW2 1512   2.161   0.796   1.740 -1.0591 -2.1582  0.3907
  505SOL     OW 1513   1.276   2.964   2.286  0.4869  0.7417  0.1795
  505SOL    HW1 1514   1.254   2.871   2.325 -0.9781 -0.2549  0.6262
  505SOL    HW2 1515   1.365   3.005   2.317 -0.9752  0.0868 -0.9794
  506SOL     OW 1516   0.425   0.370   1.887  0.0737  0.2108 -0.3102
  506SOL    HW1 1517   0.441   0.470   1.871 -0.0968 -1.0099  1.5072
  506SOL    HW2 1518   0.503   0.312   1.853  0.6659 -1.1328  0.2449
  507SOL     OW 1519   1.540   0.253   3.129  0.5976  0.4639 -0.5138
  507SOL    HW1 1520   1.520   0.155   0.000  3.2809  1.0718 -0.2519
  507SOL    HW2 1521   1.619   0.273   0.054 -1.0607  0.4528 -0.6436
  508SOL     OW 1522   2.120   0.592   2.280  0.0614 -0.6417  0.2635
  508SOL    HW1 1523   2.138   0.669   2.218 -1.6698  2.2668  1.6471
  508SOL    HW2 1524   2.057   0.524   2.239 -0.3833 -0.6226  1.2009
  509SOL     OW 1525   0.947   1.361   2.299 -0.4060 -0.4713 -0.2533
  509SOL    HW1 1526   0.937   1.327   2.395 -2.9614 -1.8754 -0.1098
  509SOL    HW2 1527   0.925   1.460   2.291  0.9580  0.3658 -2.5516
  510SOL     OW 1528   2.878   0.542   0.921 -0.3356 -0.3267 -0.1413
  510SOL    HW1 1529   2.953   0.588   0.872 -1.6716  0.1874  2.4527
  510SOL    HW2 1530   2.895   0.547   1.020 -0.3062 -2.7703 -1.7500
  511SOL     OW 1531   1.625   1.498   1.217 -0.2729  0.3132 -0.3425
  511SOL    HW1 1532   1.578   1.556   1.289  0.2837 -0.2079  0.2199
  511SOL    HW2 1533   1.717   1.464   1.249 -0.0403  0.5930 -2.1100
  512SOL     OW 1534   0.492   1.560   0.668  0.1273  0.1154  0.2781
  512SOL    HW1 1535   0.439   1.633   0.714  2.4846 -1.7742  0.1244
  512SOL    HW2 1536   0.501   1.488   0.736 -0.0183  1.6654  0.7414
  513SOL     OW 1537   0.644   2.250   1.239  0.1588  0.2513 -0.0890
  513SOL    HW1 1538   0.549   2.213   1.223  3.8032  1.4666  0.3493
  513SOL    HW2 1539   0.644   2.349   1.242 -1.3695  0.8529  0.4354
  514SOL     OW 1540   0.185   2.104   0.329  0.1349 -0.2238  0.6129
  514SOL    HW1 1541   0.082   2.115   0.323  2.4789 -0.0744 -4.2866
  514SOL    HW2 1542   0.218   2.011   0.305 -0.5138 -1.2170 -1.0126
  515SOL     OW 1543   2.789   3.050   3.069  0.3300 -0.0194  0.0916
  515SOL    HW1 1544   2.822   2.953   3.064 -1.4226 -0.0847  2.4405
  515SOL    HW2 1545   2.812   3.083   0.026 -2.5622 -0.3017  0.0800
  516SOL     OW 1546   1.941   3.050   1.005  0.4204  0.0995  0.5233
  516SOL    HW1 1547   1.868   3.115   1.038 -0.5984 -1.6606  0.4608
  516SOL    HW2 1548   1.989   3.007   1.078 -1.0658 -0.6179 -1.1842
  517SOL     OW 1549   1.619   1.620   0.524  0.1088 -0.1190  0.3775
  517SOL    HW1 1550   1.704   1.636   0.580  0.3059 -1.2783 -1.4392
  517SOL    HW2 1551   1.609   1.521   0.502  1.9248 -0.2050  1.5669
  518SOL     OW 1552   1.399   0.378   1.041 -1.0778  0.1998  0.5076
  518SOL    HW1 1553   1.320   0.443   1.042 -0.1438  2.3021  0.5231
  518SOL    HW2 1554   1.481   0.412   0.992 -1.6009 -0.0341  0.3158
  519SOL     OW 1555   2.812   2.264   0.156 -0.7113 -0.4526 -0.3790
  519SOL    HW1 1556   2.835   2.342   0.218 -0.8831 -0.2567 -1.4875
  519SOL    HW2 1557   2.824   2.298   0.058 -2.5304 -0.3789  1.1045
  520SOL     OW 1558   2.031   2.089   1.916 -0.5867  0.6209  0.1741
  520SOL    HW1 1559   2.015   1.999   1.963  1.6950  0.0981 -1.4806
  520SOL    HW2 1560   2.011   2.078   1.821  0.6606  1.9045 -0.6183
  521SOL     OW 1561   1.538   2.752   2.290  0.3795 -0.3813  0.0497
  521SOL    HW1 1562   1.444   2.783   2.309 -1.1209  1.7435  0.0925
  521SOL    HW2 1563   1.590   2.834   2.263  0.9413 -1.6684 -1.3504
  522SOL     OW 1564   3.010   0.153   1.862  0.1060  0.5230 -0.1911
  522SOL    HW1 1565   3.102   0.144   1.823  0.7469  1.6139  2.0149
  522SOL    HW2 1566   2.951   0.066   1.858 -1.4585 -2.4423  3.0309
  523SOL     OW 1567   0.971   1.967   1.556 -0.4769 -0.5477 -0.0118
  523SOL    HW1 1568   1.012   2.041   1.610 -2.1448 -0.7936 -0.1902
  523SOL    HW2 1569   0.906   2.002   1.487 -0.7961  0.6509  0.1236
  524SOL     OW 1570   2.222   2.172   2.974  0.4209  0.0861  0.0762
  524SOL    HW1 1571   2.297   2.163   2.901  0.0643 -0.9161  0.3208
  524SOL    HW2 1572   2.224   2.094   3.034  1.5472 -1.8195 -2.6001
  525SOL     OW 1573   2.987   1.025   0.148  0.6642 -0.4393  0.2064
  525SOL    HW1 1574   3.068   0.972   0.167 -0.2104  0.6786 -0.0704
  525SOL    HW2 1575   2.917   0.972   0.096  2.5766  1.0159 -1.4325
  526SOL     OW 1576   0.904   2.766   1.009 -0.4467  0.1808  0.4137
  526SOL    HW1 1577   0.992   2.818   0.980  1.4177  1.0288  0.6463
  526SOL    HW2 1578   0.826   2.831   1.007  0.9089  0.7334  2.9957
  527SOL     OW 1579   2.543   1.430   0.590 -0.0940 -0.0007  0.6281
  527SOL    HW1 1580   2.446   1.408   0.620 -1.1416 -0.0763 -1.1061
  527SOL    HW2 1581   2.546   1.503   0.516 -2.8829 -0.9794 -1.1087
  528SOL     OW 1582   0.594   0.820   2.559 -0.3695  0.3250 -0.0808
  528SOL    HW1 1583   0.664   0.867   2.501 -1.5295  1.6702  0.9188
  528SOL    HW2 1584   0.498   0.845   2.525 -1.2830  0.9113  0.8561
  529SOL     OW 1585   0.722   1.583   0.064 -0.0300  0.0992 -0.0933
  529SOL    HW1 1586   0.642   1.643   0.043  1.5177 -1.5447 -2.1157
  529SOL    HW2 1587   0.692   1.488   0.084  0.1755 -1.3892  4.0331
  530SOL     OW 1588   1.386   0.899   1.746  0.2048  0.2002  0.4275
  530SOL    HW1 1589   1.467   0.851   1.789 -1.6809 -3.1731  1.6374
  530SOL    HW2 1590   1.336   0.937   1.828  0.4682 -0.2813  0.5222
  531SOL     OW 1591   1.196   2.202   3.024 -0.0222 -0.0881  0.7337
  531SOL    HW1 1592   1.132   2.126   3.009  1.9746 -0.3159  1.2374
  531SOL    HW2 1593   1.269   2.184   3.084 -4.0374  1.4315 -0.2502
  532SOL     OW 1594   2.511   0.829   3.117  0.1690 -0.2901  0.6384
  532SOL    HW1 1595   2.581   0.823   0.053  0.7117 -2.0210  0.7830
  532SOL    HW2 1596   2.505   0.749   3.057  1.3133  0.5052 -1.1695
  533SOL     OW 1597   3.046   0.627   2.039 -0.1440 -0.1367 -0.1307
  533SOL    HW1 1598   3.058   0.530   2.012 -1.1394 -0.8175  1.7364
  533SOL    HW2 1599   2.947   0.648   2.029 -0.7274 -2.0836  0.9471
  534SOL     OW 1600   1.875   0.031   0.151 -0.3499  0.1183 -0.1928
  534SOL    HW1 1601   1.894   3.115   0.237 -1.4424  0.1707 -1.1501
  534SOL    HW2 1602   1.954   0.043   0.085  2.1306  0.5601  0.1884
  535SOL     OW 1603   0.453   0.149   2.979  0.0945  0.1932  0.5766
  535SOL    HW1 1604   0.516   0.121   2.904  0.3978 -1.3848 -1.8057
  535SOL    HW2 1605   0.423   0.245   2.966  0.9779  0.0594  2.6177
  536SOL     OW 1606   0.607   1.812   1.703  0.5207 -0.3678 -0.2018
  536SOL    HW1 1607   0.563   1.829   1.611  0.6659 -2.4591 -1.9530
  536SOL    HW2 1608   0.708   1.799   1.690  3.2472  1.7258  1.7099
  537SOL     OW 1609   3.135   2.667   1.580  0.0026  0.7498  0.6655
  537SOL    HW1 1610   0.091   2.682   1.620  0.7288  2.3184 -2.2017
  537SOL    HW2 1611   3.132   2.722   1.496  0.7752  1.7356  0.7622
  538SOL     OW 1612   3.074   2.119   0.321 -0.7007 -0.1550 -0.2362
  538SOL    HW1 1613   2.990   2.145   0.374  2.3430  1.5517  0.2970
  538SOL    HW2 1614   3.059   2.106   0.223  1.5008  0.4042  0.6720
  539SOL     OW 1615   2.584   0.948   2.851  0.0737  0.7992  0.1578
  539SOL    HW1 1616   2.579   0.856   2.884  0.1025  4.4930 -1.0766
  539SOL    HW2 1617   2.607   1.009   2.922  2.4205 -2.3696 -2.2372
  540SOL     OW 1618   1.900   0.784   0.209  0.2267  0.3448 -0.3244
  540SOL    HW1 1619   1.998   0.766   0.193 -0.8741 -0.8731  1.9925
  540SOL    HW2 1620   1.861   0.812   0.120 -0.6070 -1.2796  1.1301
  541SOL     OW 1621   0.985   0.499   2.165 -0.1533  0.2694 -0.7225
  541SOL    HW1 1622   1.018   0.477   2.259  0.1475 -0.4083  1.1738
  541SOL    HW2 1623   0.898   0.454   2.140  1.1317  1.6626  2.3503
  542SOL     OW 1624   1.561   2.515   2.174 -0.1527 -0.4318 -0.0035
  542SOL    HW1 1625   1.549   2.605   2.214 -0.2069 -0.2840 -1.8831
  542SOL    HW2 1626   1.647   2.513   2.118 -0.2530  1.3180 -0.2103
  543SOL     OW 1627   0.903   2.871   0.438 -0.2672  0.0070  0.1342
  543SOL    HW1 1628   0.903   2.971   0.462 -2.8933  1.6220 -0.8057
  543SOL    HW2 1629   0.884   2.861   0.343  0.2748 -0.8198  1.6031
  544SOL     OW 1630   2.804   1.923   2.190 -0.7264  0.3509  0.1726
  544SOL    HW1 1631   2.900   1.943   2.170  0.7195 -1.0337 -1.9121
  544SOL    HW2 1632   2.777   1.934   2.285 -1.2162 -3.0945 -2.9631
  545SOL     OW 1633   1.438   2.030   1.470 -0.0835 -0.4073  0.3717
  545SOL    HW1 1634   1.428   1.993   1.563 -0.8918  0.0691 -1.6569
  545SOL    HW2 1635   1.341   2.033   1.428 -2.4062  0.8409 -1.1348
  546SOL     OW 1636   0.555   3.084   2.323  0.3954 -0.1203 -0.5437
  546SOL    HW1 1637   0.635   3.049   2.374  0.6313  1.0308  0.4110
  546SOL    HW2 1638   0.473   3.100   2.385 -0.1851  3.9708  1.6492
  547SOL     OW 1639   1.274   0.364   0.580  0.6008 -0.4240  0.3992
  547SOL    HW1 1640   1.222   0.353   0.492  0.4524 -1.0653 -1.9130
  547SOL    HW2 1641   1.210   0.393   0.658 -0.4127 -0.7063  1.4064
  548SOL     OW 1642   1.438   2.138   0.008 -0.4646  0.1665  0.2486
  548SOL    HW1 1643   1.527   2.181   3.123 -1.6491 -3.2175  1.3503
  548SOL    HW2 1644   1.436   2.042   3.110  0.8363 -0.7527 -1.2696
  549SOL     OW 1645   2.150   1.074   0.197  0.5603  0.0936  0.5816
  549SOL    HW1 1646   2.066   1.094   0.144  0.7794  1.3423  0.6600
  549SOL    HW2 1647   2.143   1.108   0.291  0.4285  0.0851  0.9054
  550SOL     OW 1648   2.720   2.036   0.275 -0.2321 -0.7110  0.0452
  550SOL    HW1 1649   2.619   2.054   0.282  2.8289  1.6139  1.0345
  550SOL    HW2 1650   2.766   2.120   0.234  0.9556  2.4548 -1.5767
  551SOL     OW 1651   1.361   0.367   1.453 -0.5793 -0.1121 -0.7193
  551SOL    HW1 1652   1.448   0.371   1.397  0.2525 -0.3483  1.2961
  551SOL    HW2 1653   1.330   0.273   1.460  3.5301  0.0917  2.0728
  552SOL     OW 1654   0.219   2.140   2.864 -0.0165  0.1870 -0.2130
  552SOL    HW1 1655   0.229   2.042   2.881 -1.6499 -1.1196 -2.6408
  552SOL    HW2 1656   0.163   2.193   2.934  1.0787  1.0578 -0.2923
  553SOL     OW 1657   2.879   2.736   0.609 -0.3087  0.0191 -0.4658
  553SOL    HW1 1658   2.875   2.649   0.661 -3.3750 -0.3238 -1.1415
  553SOL    HW2 1659   2.965   2.784   0.634  1.6083 -0.8122  0.7328
  554SOL     OW 1660   2.030   1.548   1.835 -0.1390 -0.1284  0.0199
  554SOL    HW1 1661   2.054   1.445   1.830  1.2690 -1.4394 -1.3249
  554SOL    HW2 1662   1.939   1.565   1.795  1.4344  2.8235 -1.9382
  555SOL     OW 1663   1.390   2.133   2.274  0.3309  0.6276 -0.3331
  555SOL    HW1 1664   1.317   2.084   2.323  0.5798 -0.1841  0.4129
  555SOL    HW2 1665   1.365   2.227   2.245  1.5026 -0.5468 -2.0294
  556SOL     OW 1666   1.380   1.542   1.874  0.2563  0.7143 -0.4841
  556SOL    HW1 1667   1.315   1.464   1.855 -0.6857 -0.6010  1.9351
  556SOL    HW2 1668   1.474   1.516   1.850 -2.6423  0.3703 -0.9185
  557SOL     OW 1669   1.454   3.094   1.832 -0.0099  0.1711 -0.1921
  557SOL    HW1 1670   1.477   3.016   1.900 -1.0150  1.1078  3.3298
  557SOL    HW2 1671   1.355   3.112   1.839 -0.7668 -1.3429 -0.6361
  558SOL     OW 1672   0.629   3.037   2.061  0.2682  0.2010  0.2140
  558SOL    HW1 1673   0.557   3.049   1.994  2.4663  2.1019  1.6780
  558SOL    HW2 1674   0.601   3.055   2.158 -0.5181  2.6393  2.4629
  559SOL     OW 1675   1.845   2.450   0.157 -0.2487 -0.4792  0.1900
  559SOL    HW1 1676   1.812   2.546   0.138 -2.3875  0.8276  3.5804
  559SOL    HW2 1677   1.895   2.455   0.247  1.3037  0.3650 -0.6165
  560SOL     OW 1678   1.264   2.189   0.537 -0.4025  0.4234  0.2548
  560SOL    HW1 1679   1.287   2.092   0.523  0.3429  2.3075  0.2083
  560SOL    HW2 1680   1.337   2.248   0.491 -1.2352 -1.2556  1.5942
  561SOL     OW 1681   1.328   0.583   0.143  0.0591  0.1352  0.5272
  561SOL    HW1 1682   1.359   0.577   0.239 -1.2515  0.6158  1.0611
  561SOL    HW2 1683   1.325   0.483   0.117 -0.0282  0.5018  1.6216
  562SOL     OW 1684   0.597   1.495   1.981  0.6563 -0.2254  0.3723
  562SOL    HW1 1685   0.696   1.513   1.962  4.1823  0.0804 -0.4926
  562SOL    HW2 1686   0.541   1.517   1.899 -0.1889 -1.3150  4.2385
  563SOL     OW 1687   1.606   2.222   2.779 -0.2987 -0.5352  0.5990
  563SOL    HW1 1688   1.505   2.238   2.781  1.0328  2.6682  0.2513
  563SOL    HW2 1689   1.638   2.151   2.712  0.0283  0.1424 -0.2339
  564SOL     OW 1690   2.787   0.976   0.979 -0.1507  0.3794 -1.2410
  564SOL    HW1 1691   2.706   0.922   1.009  0.6341  1.6423 -2.8318
  564SOL    HW2 1692   2.789   1.067   1.032  2.9572  0.3331  1.2345
  565SOL     OW 1693   0.594   1.353   0.109 -0.0431 -0.0512 -0.5186
  565SOL    HW1 1694   0.498   1.359   0.075  0.1225 -0.5848  0.3777
  565SOL    HW2 1695   0.653   1.275   0.071  3.0545 -0.7201 -2.5000
  566SOL     OW 1696   2.551   2.814   2.904  0.1824 -0.2218  0.2533
  566SOL    HW1 1697   2.543   2.904   2.954 -0.1212  1.2569  0.9638
  566SOL    HW2 1698   2.514   2.739   2.958  2.8556  1.8065 -0.0699
  567SOL     OW 1699   1.451   1.313   1.116 -1.0225  0.0940 -0.6829
  567SOL    HW1 1700   1.516   1.376   1.168  3.4616 -0.7397  0.3342
  567SOL    HW2 1701   1.360   1.357   1.105  1.9600 -3.2093  0.1975
  568SOL     OW 1702   1.341   1.155   2.851  0.0772 -0.0487  0.0134
  568SOL    HW1 1703   1.281   1.087   2.903 -1.1586  1.7245  0.5352
  568SOL    HW2 1704   1.315   1.252   2.874 -3.2460  0.8491  1.9537
  569SOL     OW 1705   2.230   1.931   3.114  0.5757 -0.1439  0.0569
  569SOL    HW1 1706   2.310   1.896   0.029  0.3431  1.7954 -0.8509
  569SOL    HW2 1707   2.150   1.954   0.034 -1.2687 -0.8336 -1.0821
  570SOL     OW 1708   2.932   2.342   2.207  0.1303  0.2368 -0.2134
  570SOL    HW1 1709   2.972   2.418   2.148  2.9921  0.0950 -1.3873
  570SOL    HW2 1710   3.000   2.270   2.219  1.4886  0.5669 -0.0882
  571SOL     OW 1711   2.883   2.171   1.792  0.2266 -0.4119  0.2178
  571SOL    HW1 1712   2.903   2.074   1.777 -0.1195  1.2379  1.7421
  571SOL    HW2 1713   2.825   2.176   1.870  2.4039 -0.2502  0.4545
  572SOL     OW 1714   1.689   2.350   0.485 -0.0768  0.5154  0.0969
  572SOL    HW1 1715   1.611   2.325   0.428  0.8516 -2.0908 -1.7241
  572SOL    HW2 1716   1.779   2.338   0.443 -1.8627  0.3328  2.2537
  573SOL     OW 1717   1.393   1.941   0.695  0.4484 -0.2949  0.3497
  573SOL    HW1 1718   1.471   1.991   0.652  1.3201 -1.3061  2.4384
  573SOL    HW2 1719   1.392   1.962   0.792 -0.6864 -0.4028 -1.5383
  574SOL     OW 1720   1.439   3.041   1.558  0.3679  0.6052 -0.5433
  574SOL    HW1 1721   1.490   2.973   1.507 -0.9375  0.4822  0.2867
  574SOL    HW2 1722   1.474   3.068   1.652 -0.9646  1.7557 -0.0944
  575SOL     OW 1723   0.511   1.194   1.243 -0.1275 -0.3821  0.2834
  575SOL    HW1 1724   0.491   1.104   1.276 -2.1670  2.4198 -2.9932
  575SOL    HW2 1725   0.506   1.266   1.309 -0.7769 -1.4713 -2.9527
  576SOL     OW 1726   2.634   0.197   1.052 -0.4763 -0.3084  0.5977
  576SOL    HW1 1727   2.688   0.174   0.966  0.2992  1.1987 -3.4408
  576SOL    HW2 1728   2.556   0.137   1.067  1.4489  1.8301 -0.8538
  577SOL     OW 1729   1.619   0.462   2.617 -0.0729  0.1885  0.1452
  577SOL    HW1 1730   1.584   0.479   2.526  1.8410 -0.9867  0.3943
  577SOL    HW2 1731   1.627   0.363   2.629  0.4285  3.4964 -0.9750
  578SOL     OW 1732   2.074   1.502   2.568 -0.1531  0.1531  0.2327
  578SOL    HW1 1733   1.977   1.496   2.606 -3.2850  1.4392 -1.1025
  578SOL    HW2 1734   2.106   1.596   2.582 -2.1170 -0.8655  0.9792
  579SOL     OW 1735   0.493   1.617   1.253 -0.0007  0.1446  0.4166
  579SOL    HW1 1736   0.410   1.629   1.317 -2.1191 -1.8634 -0.5216
  579SOL    HW2 1737   0.461   1.655   1.160  1.3903  0.2190 -0.4949
  580SOL     OW 1738   1.449   2.432   0.133  0.1546 -0.7881  0.6593
  580SOL    HW1 1739   1.410   2.522   0.101  0.4065 -0.7031 -0.7185
  580SOL    HW2 1740   1.516   2.389   0.072  1.9829 -1.2421 -0.1496
  581SOL     OW 1741   0.949   0.983   2.190  0.0472  0.6297 -0.2403
  581SOL    HW1 1742   0.881   1.008   2.122  1.1428 -1.2964  2.0482
  581SOL    HW2 1743   1.026   0.941   2.144  0.5544  3.9667  0.4122
  582SOL     OW 1744   0.696   1.259   0.928 -0.4561  0.5195  0.0040
  582SOL    HW1 1745   0.710   1.216   1.023  0.0911 -1.3829 -0.1104
  582SOL    HW2 1746   0.787   1.289   0.891 -0.5561 -2.0072  0.0448
  583SOL     OW 1747   0.872   1.268   2.029 -0.4432 -0.2663  0.1286
  583SOL    HW1 1748   0.846   1.357   1.985  2.3600  1.7410 -0.6638
  583SOL    HW2 1749   0.871   1.282   2.130  3.0536  1.3771  0.5342
  584SOL     OW 1750   2.139   2.744   0.526 -0.2992 -0.1326  0.3117
  584SOL    HW1 1751   2.063   2.722   0.591 -1.9158  0.3892 -0.8520
  584SOL    HW2 1752   2.159   2.844   0.525  2.5473  3.3901  1.0602
  585SOL     OW 1753   1.820   0.451   3.046 -0.2994 -0.3278 -0.0984
  585SOL    HW1 1754   1.771   0.364   3.054 -0.6532  2.3639 -2.4636
  585SOL    HW2 1755   1.764   0.513   2.987 -0.7916 -1.6767  1.1954
  586SOL     OW 1756   0.120   1.597   0.398 -0.0687 -0.3220 -0.4755
  586SOL    HW1 1757   0.050   1.562   0.467 -0.7519  0.6061 -0.9267
  586SOL    HW2 1758   0.128   1.539   0.316 -2.7085  3.3408  1.0787
  587SOL     OW 1759   1.819   1.901   0.715 -0.9138  0.1869 -0.1459
  587SOL    HW1 1760   1.842   1.937   0.807 -1.8716 -1.2743 -0.1035
  587SOL    HW2 1761   1.821   1.798   0.716 -0.6853 -1.5904  0.2110
  588SOL     OW 1762   0.470   0.307   1.028 -0.4556 -0.2484 -0.1944
  588SOL    HW1 1763   0.419   0.313   1.118  0.9176 -0.6581  0.9089
  588SOL    HW2 1764   0.520   0.217   1.011 -1.7358 -0.0738  1.0098
  589SOL     OW 1765   1.192   0.548   1.019 -0.3355 -0.3254  0.0085
  589SOL    HW1 1766   1.099   0.531   1.060 -1.3465 -0.7773  1.9859
  589SOL    HW2 1767   1.208   0.646   1.002  0.9206  0.3565 -1.5871
  590SOL     OW 1768   1.305   0.977   0.103  0.0503  0.1743  0.0238
  590SOL    HW1 1769   1.324   1.078   0.099 -0.2439  2.2388  2.0214
  590SOL    HW2 1770   1.305   0.935   0.197  1.6670  1.2307 -0.8559
  591SOL     OW 1771   2.762   2.694   2.414 -0.3436 -0.0131 -0.0525
  591SOL    HW1 1772   2.712   2.618   2.457  1.3892  0.2217 -0.7428
  591SOL    HW2 1773   2.861   2.678   2.437  5.1178  0.0310 -1.7451
  592SOL     OW 1774   1.440   2.063   1.040  0.3005 -0.0669 -0.6000
  592SOL    HW1 1775   1.540   2.042   1.055 -0.7213 -0.7137  0.5162
  592SOL    HW2 1776   1.421   2.154   1.083 -1.0767  4.5446  0.0930
  593SOL     OW 1777   1.030   3.121   1.061  0.0470  0.3073  0.4187
  593SOL    HW1 1778   1.064   3.055   0.988 -0.4632 -1.9695  1.3503
  593SOL    HW2 1779   1.104   3.133   1.126 -1.1227 -0.7075 -0.1369
  594SOL     OW 1780   0.482   0.856   2.161 -0.1523 -0.1621 -0.0194
  594SOL    HW1 1781   0.521   0.934   2.108 -0.6937 -2.0759  0.8988
  594SOL    HW2 1782   0.387   0.849   2.129  0.9328  2.8433 -1.2739
  595SOL     OW 1783   0.334   2.608   1.307 -0.2138  0.2319 -0.5944
  595SOL    HW1 1784   0.332   2.610   1.411 -0.7966 -2.0706  1.4216
  595SOL    HW2 1785   0.318   2.707   1.274  3.1148  2.1351  1.5012
  596SOL     OW 1786   0.175   0.885   1.426 -0.1056 -0.3092  0.4778
  596SOL    HW1 1787   0.257   0.872   1.487 -0.8780 -0.3658  0.6037
  596SOL    HW2 1788   0.091   0.842   1.461  0.9338  2.7515  1.1636
  597SOL     OW 1789   1.910   2.042   0.482  0.4386  0.6492  0.6791
  597SOL    HW1 1790   1.980   2.107   0.507 -4.2264 -3.3126 -1.9937
  597SOL    HW2 1791   1.922   1.956   0.540  1.9999 -6.5930 -0.2799
  598SOL     OW 1792   0.520   2.792   1.858  0.2260 -0.1016 -0.3674
  598SOL    HW1 1793   0.562   2.758   1.770  0.8271  2.1874  1.8231
  598SOL    HW2 1794   0.521   2.723   1.931 -0.0635  0.4990 -0.2198
  599SOL     OW 1795   2.522   2.005   3.036  0.3594  0.5427  0.4175
  599SOL    HW1 1796   2.463   1.986   2.951  2.5246  0.6634  0.3791
  599SOL    HW2 1797   2.512   1.929   3.109  0.1708 -2.2961  2.5352
  600SOL     OW 1798   0.736   0.870   0.017 -0.0829 -0.4598 -0.4902
  600SOL    HW1 1799   0.724   0.974   0.020 -0.0119  4.4491 -1.9820
  600SOL    HW2 1800   0.834   0.844   0.025  1.3845  0.1859  5.4396
  601SOL     OW 1801   0.853   0.691   0.461  0.1845 -0.2579 -0.3003
  601SOL    HW1 1802   0.931   0.747   0.486 -0.5414 -1.1352 -1.9617
  601SOL    HW2 1803   0.771   0.738   0.491  2.1234 -0.9969 -0.2171
  602SOL     OW 1804   1.389   2.728   0.852  0.2210  0.1631  0.1114
  602SOL    HW1 1805   1.482   2.733   0.889  0.8991  0.3358 -0.5586
  602SOL    HW2 1806   1.385   2.781   0.768 -0.5332  2.3465  1.0569
  603SOL     OW 1807   0.733   2.778   2.076 -0.4639 -0.4756 -0.3781
  603SOL    HW1 1808   0.683   2.866   2.073  0.3763 -2.0306  0.7371
  603SOL    HW2 1809   0.832   2.798   2.062  0.3185 -0.5557 -1.1669
  604SOL     OW 1810   0.149   0.055   2.269 -0.1305 -0.3538  0.2944
  604SOL    HW1 1811   0.163   3.114   2.206 -0.9229  2.4082 -0.3578
  604SOL    HW2 1812   0.214   0.056   2.346 -1.9317 -0.3002 -1.4934
  605SOL     OW 1813   2.705   2.094   1.145 -0.2725 -0.1461 -0.2506
  605SOL    HW1 1814   2.700   2.194   1.171  0.3233 -1.0130  1.1923
  605SOL    HW2 1815   2.623   2.039   1.179 -0.7440 -1.0857 -0.4926
  606SOL     OW 1816   0.409   1.476   3.062 -0.0374 -0.5595  0.2306
  606SOL    HW1 1817   0.439   1.575   3.088  3.8225  4.3831 -1.2421
  606SOL    HW2 1818   0.369   1.485   2.965 -0.8880 -0.3887  0.0956
  607SOL     OW 1819   1.142   0.326   0.325  1.1212 -0.0746  0.2946
  607SOL    HW1 1820   1.060   0.384   0.299 -1.0003 -0.8185 -3.3122
  607SOL    HW2 1821   1.197   0.307   0.238 -0.4340  0.1956  1.0623
  608SOL     OW 1822   1.744   1.304   2.243  0.2176  0.3060 -0.3099
  608SOL    HW1 1823   1.650   1.261   2.261 -0.2421 -1.1239  0.0986
  608SOL    HW2 1824   1.807   1.281   2.320 -2.7412 -0.0688 -1.7330
  609SOL     OW 1825   2.990   0.297   0.811 -0.0902  0.3988 -0.2084
  609SOL    HW1 1826   3.006   0.257   0.903  0.4771 -1.5055 -1.9727
  609SOL    HW2 1827   2.940   0.384   0.816  0.5666  1.8476 -3.0678
  610SOL     OW 1828   0.478   2.687   0.028 -0.8990  0.4725  0.2734
  610SOL    HW1 1829   0.543   2.611   0.055  0.0393  0.9118  2.0357
  610SOL    HW2 1830   0.464   2.741   0.109 -0.0304 -0.1306  0.2516
  611SOL     OW 1831   1.608   1.039   0.118 -0.1057  0.4821 -0.0313
  611SOL    HW1 1832   1.680   1.014   0.049  0.4245 -1.3877 -1.5142
  611SOL    HW2 1833   1.544   1.103   0.070  1.6472  0.8861 -2.6105
  612SOL     OW 1834   0.973   2.115   2.536  0.1377 -0.5925  0.0119
  612SOL    HW1 1835   0.898   2.110   2.606 -2.5488  0.8943  0.8529
  612SOL    HW2 1836   1.041   2.177   2.573 -1.9108 -2.1430  3.1354
  613SOL     OW 1837   1.188   2.356   0.139 -0.5150 -0.4839  0.2698
  613SOL    HW1 1838   1.292   2.364   0.141  1.6867  0.6040 -1.7698
  613SOL    HW2 1839   1.162   2.281   0.074  0.4429  0.3782 -1.5160
  614SOL     OW 1840   2.564   0.038   1.347 -0.3226  0.5628 -0.0105
  614SOL    HW1 1841   2.620   3.120   1.284 -0.3900  0.3369 -0.7738
  614SOL    HW2 1842   2.584   0.020   1.449 -1.2783 -1.4449  1.9694
  615SOL     OW 1843   2.114   1.416   0.057 -0.3201 -0.2331  0.3635
  615SOL    HW1 1844   2.042   1.421   3.119 -0.8084  2.3146 -1.6379
  615SOL    HW2 1845   2.204   1.446   0.016 -1.5881  2.3452 -1.2751
  616SOL     OW 1846   1.446   0.192   0.397 -0.1020  0.3680 -0.7219
  616SOL    HW1 1847   1.346   0.178   0.379  0.6531 -1.1139 -0.6365
  616SOL    HW2 1848   1.464   0.273   0.455  0.2630  2.2854  0.8780
  617SOL     OW 1849   0.770   1.141   0.018  0.3981  0.5054 -0.3125
  617SOL    HW1 1850   0.822   1.149   3.070 -0.8549 -1.2848  0.1777
  617SOL    HW2 1851   0.833   1.144   0.098 -0.6460 -2.3405  0.6910
  618SOL     OW 1852   0.746   0.422   2.092 -0.2482  0.1398 -0.2219
  618SOL    HW1 1853   0.703   0.357   2.160 -0.2835 -2.6445  1.4990
  618SOL    HW2 1854   0.728   0.522   2.113 -0.3064 -0.3406  1.6599
  619SOL     OW 1855   0.150   1.157   1.389  0.0875 -0.0435  0.2029
  619SOL    HW1 1856   0.112   1.171   1.299  0.6439 -0.9897 -0.7844
  619SOL    HW2 1857   0.170   1.058   1.398 -2.2336 -1.3774 -0.1787
  620SOL     OW 1858   1.749   1.139   2.978  0.4553  0.1214  0.3938
  620SOL    HW1 1859   1.844   1.126   2.943  2.6270  1.5496 -0.2464
  620SOL    HW2 1860   1.687   1.087   2.916 -0.4971 -1.7682  0.6147
  621SOL     OW 1861   2.320   2.939   1.123  0.0343  0.7542 -0.0954
  621SOL    HW1 1862   2.226   2.913   1.154 -0.9071  1.5979 -0.1066
  621SOL    HW2 1863   2.387   2.891   1.183 -0.9732  1.0078  1.5464
  622SOL     OW 1864   1.452   0.814   2.538 -0.0500 -0.3941  0.0491
  622SOL    HW1 1865   1.544   0.834   2.492  0.8739 -1.3513 -0.1129
  622SOL    HW2 1866   1.433   0.714   2.556  1.7654 -0.1490 -0.4233
  623SOL     OW 1867   1.288   0.320   0.099 -0.3555  0.1001 -0.2249
  623SOL    HW1 1868   1.223   0.311   0.020  1.7219 -1.1282  0.5224
  623SOL    HW2 1869   1.387   0.307   0.075  1.5352  0.2763  1.4832
  624SOL     OW 1870   1.919   0.478   0.225  0.4523  0.8025  0.1329
  624SOL    HW1 1871   1.936   0.550   0.294  1.6099  0.2150 -3.0644
  624SOL    HW2 1872   1.982   0.482   0.141  1.7901  0.4438 -3.8331
  625SOL     OW 1873   0.918   1.427   0.915  0.1282  0.3073  0.0026
  625SOL    HW1 1874   1.006   1.480   0.905  1.4605  0.6367 -0.9558
  625SOL    HW2 1875   0.849   1.488   0.962 -0.4383  0.2702 -0.0813
  626SOL     OW 1876   1.394   1.237   0.038  0.2027  0.3502 -0.0193
  626SOL    HW1 1877   1.361   1.309   0.099  1.4178  0.2834  2.0548
  626SOL    HW2 1878   1.446   1.282   3.100 -2.5828  2.4807  1.6920
  627SOL     OW 1879   0.991   2.804   2.026 -0.6085 -0.2128  0.3672
  627SOL    HW1 1880   0.993   2.814   1.925  2.8065 -0.2136 -0.2092
  627SOL    HW2 1881   1.039   2.880   2.076 -0.5891 -2.0214 -2.3177
  628SOL     OW 1882   2.573   0.352   2.173 -0.1077  0.4004 -0.0092
  628SOL    HW1 1883   2.636   0.340   2.095 -0.5386  0.1850  1.5105
  628SOL    HW2 1884   2.591   0.281   2.246 -0.8308  1.1747 -0.2655
  629SOL     OW 1885   0.983   1.190   2.974  0.1844  0.3151  0.0305
  629SOL    HW1 1886   1.030   1.097   2.964  0.4581 -0.9314 -0.2324
  629SOL    HW2 1887   0.905   1.197   2.911  1.3429 -2.4041 -0.4474
  630SOL     OW 1888   1.220   0.224   2.301  0.2494  0.3868 -0.0265
  630SOL    HW1 1889   1.168   0.305   2.335  0.9224 -1.1150 -0.4975
  630SOL    HW2 1890   1.241   0.164   2.379 -0.5637  0.1618  0.1813
  631SOL     OW 1891   2.682   0.721   0.658  0.4767  0.0276  0.1133
  631SOL    HW1 1892   2.687   0.621   0.680 -2.1252 -0.3890 -0.9769
  631SOL    HW2 1893   2.775   0.757   0.636  1.7317  1.8674  0.5970
  632SOL     OW 1894   2.167   1.034   1.206 -0.1879  0.0265 -0.3549
  632SOL    HW1 1895   2.115   0.960   1.160  0.8108 -0.1023  0.4388
  632SOL    HW2 1896   2.252   1.057   1.155  1.2187  2.6989  1.4189
  633SOL     OW 1897   1.701   0.738   0.859 -0.4600 -1.1178  0.0285
  633SOL    HW1 1898   1.756   0.798   0.798 -0.6673  0.5926 -1.7763
  633SOL    HW2 1899   1.733   0.739   0.954 -1.4211  0.5495  0.2567
  634SOL     OW 1900   1.832   2.907   0.786 -0.4925  0.0644  0.7268
  634SOL    HW1 1901   1.881   2.953   0.860 -2.2169 -2.3118 -3.1596
  634SOL    HW2 1902   1.758   2.970   0.757 -1.5439 -1.6989 -1.0539
  635SOL     OW 1903   1.591   0.862   1.296  0.8555  0.0207 -0.7039
  635SOL    HW1 1904   1.510   0.804   1.281  1.3539  1.8110  2.8216
  635SOL    HW2 1905   1.561   0.960   1.294  0.1769 -1.0023 -1.0656
  636SOL     OW 1906   0.538   0.614   0.644  0.0110 -0.3055  0.0983
  636SOL    HW1 1907   0.469   0.577   0.711  1.2040 -0.4709 -0.7442
  636SOL    HW2 1908   0.624   0.562   0.647 -1.6515  2.4253 -0.3157
  637SOL     OW 1909   1.939   2.461   0.398 -0.0543 -0.5428  0.1012
  637SOL    HW1 1910   1.883   2.532   0.442  0.7454  0.3165 -1.3954
  637SOL    HW2 1911   2.037   2.460   0.419 -0.9421 -0.6987 -1.9288
  638SOL     OW 1912   1.522   2.862   2.701  0.3477 -0.0650 -0.0928
  638SOL    HW1 1913   1.518   2.941   2.765 -0.2567 -0.8475  1.6295
  638SOL    HW2 1914   1.567   2.782   2.747  0.5117 -1.2677 -1.1023
  639SOL     OW 1915   0.771   2.076   1.405  0.2706 -0.6577  0.2939
  639SOL    HW1 1916   0.729   2.128   1.327 -0.1009  1.6603 -2.2408
  639SOL    HW2 1917   0.765   2.121   1.495 -0.0337 -0.0870  2.1002
  640SOL     OW 1918   0.141   2.789   0.154  0.6358 -0.2107  0.4619
  640SOL    HW1 1919   0.055   2.732   0.143  1.1813 -0.3912 -0.2115
  640SOL    HW2 1920   0.124   2.870   0.222 -1.1725  1.3314  0.9252
  641SOL     OW 1921   3.126   0.279   0.026  0.0987 -0.0078  0.3728
  641SOL    HW1 1922   3.045   0.265   0.080  0.2830 -0.2281 -1.0193
  641SOL    HW2 1923   0.062   0.220   0.064  0.8412  2.0098  2.2942
  642SOL     OW 1924   3.104   0.939   1.097 -0.3120  0.1252 -0.2313
  642SOL    HW1 1925   3.056   0.892   1.172  3.3511  0.4414 -0.3510
  642SOL    HW2 1926   3.050   0.933   1.015  0.2542 -1.5947  2.4460
  643SOL     OW 1927   0.679   1.847   2.270 -0.3700 -0.0253  0.6418
  643SOL    HW1 1928   0.737   1.931   2.263 -1.9407  1.7459  0.2396
  643SOL    HW2 1929   0.748   1.769   2.285 -1.0264 -1.0647  0.6332
  644SOL     OW 1930   1.749   2.612   0.528 -0.2339 -0.6834 -0.1373
  644SOL    HW1 1931   1.696   2.521   0.534 -3.8962 -1.8718 -0.0995
  644SOL    HW2 1932   1.684   2.687   0.505 -1.1805 -1.1959 -0.0215
  645SOL     OW 1933   1.694   2.427   1.260  0.2558 -0.5231 -0.1469
  645SOL    HW1 1934   1.727   2.403   1.352 -2.1775 -2.3790  0.2274
  645SOL    HW2 1935   1.685   2.529   1.251  2.5597  0.7193  0.6145
  646SOL     OW 1936   1.224   2.753   0.352  0.0873  0.0275 -0.0835
  646SOL    HW1 1937   1.172   2.684   0.408 -2.2810 -0.1894 -0.6113
  646SOL    HW2 1938   1.169   2.839   0.350  1.7317 -1.2534 -1.4647
  647SOL     OW 1939   0.455   3.073   1.849  0.0074  0.3938  0.1231
  647SOL    HW1 1940   0.355   3.088   1.844  1.3645  1.8648 -4.0852
  647SOL    HW2 1941   0.463   2.973   1.864 -1.6876  1.6674 -3.5115
  648SOL     OW 1942   2.016   0.863   1.034  0.0212  0.3287 -0.0381
  648SOL    HW1 1943   1.927   0.831   1.081  0.0736  0.6575  1.3247
  648SOL    HW2 1944   1.995   0.940   0.971  1.2916 -1.1032  2.6368
  649SOL     OW 1945   1.936   2.099   2.871  0.1026  0.5056  0.5920
  649SOL    HW1 1946   2.035   2.124   2.875  3.2454  0.8917 -1.7571
  649SOL    HW2 1947   1.882   2.140   2.796 -0.3672 -2.4447 -1.2367
  650SOL     OW 1948   2.696   1.862   1.660 -0.3336  0.0255  0.0011
  650SOL    HW1 1949   2.778   1.910   1.708  3.0427  2.7320  1.3468
  650SOL    HW2 1950   2.644   1.816   1.727 -0.1223 -1.6922 -4.1555
  651SOL     OW 1951   1.489   1.900   2.854  0.9385 -0.5271 -0.4006
  651SOL    HW1 1952   1.516   1.913   2.952 -0.2036  1.3084  1.2762
  651SOL    HW2 1953   1.554   1.940   2.790 -2.1911 -2.9268 -1.2226
  652SOL     OW 1954   1.134   2.896   2.678  0.6599  0.3612  0.3920
  652SOL    HW1 1955   1.176   2.805   2.655 -2.5726  0.6903  3.3822
  652SOL    HW2 1956   1.157   2.920   2.776 -2.4002  0.0949  1.4108
  653SOL     OW 1957   1.961   2.222   1.095 -0.2848  0.4112 -0.0248
  653SOL    HW1 1958   1.976   2.126   1.081 -2.2686 -0.6344 -1.0712
  653SOL    HW2 1959   1.875   2.245   1.044  1.7395  2.5333 -1.9676
  654SOL     OW 1960   2.538   2.799   2.102  0.2408  0.6305 -0.0085
  654SOL    HW1 1961   2.634   2.772   2.103 -0.8291  1.0165  0.1931
  654SOL    HW2 1962   2.538   2.900   2.098 -0.2272  1.3838 -0.9816
  655SOL     OW 1963   2.976   2.175   1.108 -0.6372  0.3228  0.1991
  655SOL    HW1 1964   3.019   2.179   1.022 -1.5905 -0.3584  2.4888
  655SOL    HW2 1965   2.878   2.146   1.110 -0.7932  0.7966  2.0047
  656SOL     OW 1966   0.157   2.279   2.622 -0.1899  0.2870 -0.0487
  656SOL    HW1 1967   0.209   2.361   2.603 -3.6237 -0.9445 -0.4565
  656SOL    HW2 1968   0.168   2.247   2.721 -1.1219 -1.6291 -0.5164
  657SOL     OW 1969   2.912   0.823   0.539  0.1612  0.0365 -0.2747
  657SOL    HW1 1970   2.958   0.751   0.487  1.5308  1.4052  0.2005
  657SOL    HW2 1971   2.897   0.910   0.487 -0.0988 -1.8572 -4.6763
  658SOL     OW 1972   1.378   1.782   1.022 -0.5209  0.2458 -0.4407
  658SOL    HW1 1973   1.350   1.742   1.112  0.3091 -1.0429  1.4259
  658SOL    HW2 1974   1.415   1.874   1.044  2.1729 -0.0209 -1.2523
  659SOL     OW 1975   1.556   0.477   1.268  0.2521  0.5170  0.4258
  659SOL    HW1 1976   1.646   0.429   1.281  0.6315 -2.6322 -1.4794
  659SOL    HW2 1977   1.528   0.482   1.170  0.7949 -1.2881  2.0493
  660SOL     OW 1978   1.833   1.211   0.594  0.2115  0.1216 -0.3462
  660SOL    HW1 1979   1.832   1.125   0.537  0.6856 -0.2556  0.1465
  660SOL    HW2 1980   1.762   1.280   0.556 -1.4699  1.9425 -1.2589
  661SOL     OW 1981   0.585   1.558   0.421  0.5379 -0.9064 -0.0938
  661SOL    HW1 1982   0.561   1.469   0.378  0.5857  2.4920  1.0696
  661SOL    HW2 1983   0.541   1.550   0.514  1.7637 -0.4026  0.6031
  662SOL     OW 1984   2.780   0.997   2.123 -0.2318  0.5180 -0.1818
  662SOL    HW1 1985   2.787   0.917   2.188 -2.0718 -0.7060  0.9289
  662SOL    HW2 1986   2.733   1.070   2.172  0.5481  1.0423  1.1171
  663SOL     OW 1987   2.194   1.500   1.375 -0.3474 -0.3207  0.5765
  663SOL    HW1 1988   2.255   1.448   1.437  1.1082  0.7060 -0.3614
  663SOL    HW2 1989   2.196   1.598   1.388 -0.0726  1.1438  0.9365
  664SOL     OW 1990   0.626   0.071   0.938 -0.1282  0.0555 -0.3719
  664SOL    HW1 1991   0.566   0.038   1.012 -1.3058  1.3100  3.9465
  664SOL    HW2 1992   0.715   0.095   0.981 -1.9296 -1.1966  0.9491
  665SOL     OW 1993   1.287   0.016   2.784  0.2172 -0.2863 -0.0556
  665SOL    HW1 1994   1.386   0.032   2.800  1.0829  0.6627  1.0096
  665SOL    HW2 1995   1.237   3.091   2.851 -0.1500  2.8332  0.2304
  666SOL     OW 1996   0.508   0.509   2.395 -0.1158  0.1109  0.0402
  666SOL    HW1 1997   0.415   0.531   2.408  3.7610 -2.0107 -1.9345
  666SOL    HW2 1998   0.561   0.524   2.481  0.1914  0.9139  0.0939
  667SOL     OW 1999   1.996   1.659   2.302  0.1513 -0.6469  0.0148
  667SOL    HW1 2000   2.027   1.632   2.207  1.1328  1.5039  0.9014
  667SOL    HW2 2001   2.078   1.669   2.362 -0.3103 -3.5162  0.8891
  668SOL     OW 2002   0.217   1.468   2.560  0.2322 -0.3976  0.6770
  668SOL    HW1 2003   0.120   1.449   2.583 -2.3497 -1.2618  1.9460
  668SOL    HW2 2004   0.234   1.523   2.470  1.9283  0.5643 -1.7366
  669SOL     OW 2005   2.446   3.098   2.390  0.3624 -0.0679 -0.0837
  669SOL    HW1 2006   2.482   3.007   2.436  2.6295 -1.9961  2.3391
  669SOL    HW2 2007   2.520   0.031   2.385  0.6734  0.6839  0.6251
  670SOL     OW 2008   2.762   0.974   2.646  0.2864 -0.2002  0.0842
  670SOL    HW1 2009   2.814   0.890   2.647 -2.1264 -0.0156  0.9262
  670SOL    HW2 2010   2.713   0.993   2.735 -1.8858 -2.2924  1.9267
  671SOL     OW 2011   2.462   1.787   0.030  0.6539  0.4551  0.1977
  671SOL    HW1 2012   2.465   1.726   3.083 -0.6359  1.2328 -1.8614
  671SOL    HW2 2013   2.484   1.726   0.111 -1.3246 -3.6654  2.7417
  672SOL     OW 2014   2.454   1.587   2.293  0.0740  0.3383 -0.2898
  672SOL    HW1 2015   2.387   1.521   2.339  2.2041  0.0771 -2.8257
  672SOL    HW2 2016   2.529   1.536   2.244 -1.1853 -1.4823  0.6572
  673SOL     OW 2017   2.831   1.541   0.994 -0.0153 -0.1192  0.1252
  673SOL    HW1 2018   2.745   1.537   0.944 -0.2636  1.8250  2.4224
  673SOL    HW2 2019   2.882   1.621   0.958  0.3400  3.5662  0.5997
  674SOL     OW 2020   1.318   1.758   2.049 -0.6711 -0.1072 -0.3020
  674SOL    HW1 2021   1.377   1.835   2.011 -0.5898 -0.1187 -0.6366
  674SOL    HW2 2022   1.338   1.673   1.997 -0.6538  1.5018 -2.7716
  675SOL     OW 2023   2.765   0.395   1.213 -0.5078 -0.2217 -0.1305
  675SOL    HW1 2024   2.836   0.348   1.273  0.5679  0.7368  1.2684
  675SOL    HW2 2025   2.698   0.332   1.175  0.0170  0.3148  0.8195
  676SOL     OW 2026   3.006   1.232   0.462  0.4161 -0.0044  0.3456
  676SOL    HW1 2027   2.930   1.164   0.454 -0.6676  0.3801  0.9765
  676SOL    HW2 2028   3.095   1.184   0.446  0.6881 -0.6363  2.2743
  677SOL     OW 2029   1.700   1.588   2.218  0.1532  0.6335 -0.6969
  677SOL    HW1 2030   1.751   1.630   2.296  0.7899 -0.4247  0.5989
  677SOL    HW2 2031   1.735   1.492   2.214 -2.1505  1.1064 -1.8160
  678SOL     OW 2032   2.487   1.294   1.046  0.5051 -0.4397  0.0196
  678SOL    HW1 2033   2.495   1.381   0.998  0.8374  0.4199  2.0526
  678SOL    HW2 2034   2.393   1.297   1.093 -2.8425  0.9275  0.1140
  679SOL     OW 2035   0.316   2.546   0.783  0.2956 -0.4932  0.2058
  679SOL    HW1 2036   0.380   2.603   0.840  0.1122  2.6346  0.5297
  679SOL    HW2 2037   0.242   2.501   0.837 -1.5661  0.5974  2.0960
  680SOL     OW 2038   2.766   1.844   1.019 -0.1765  0.4300 -0.1105
  680SOL    HW1 2039   2.818   1.821   0.932 -0.0392  1.0482 -0.3349
  680SOL    HW2 2040   2.779   1.940   1.046  0.0115 -3.1845  0.0239
  681SOL     OW 2041   0.838   0.879   1.266  0.2444 -0.7562 -0.2199
  681SOL    HW1 2042   0.910   0.896   1.335 -0.2680  1.2121  1.1298
  681SOL    HW2 2043   0.771   0.812   1.298 -1.0125  0.6054  1.2597
  682SOL     OW 2044   1.659   3.117   0.744  0.0280 -0.4054  0.1415
  682SOL    HW1 2045   1.643   3.136   0.842 -0.9092 -1.6815 -2.4355
  682SOL    HW2 2046   1.575   3.129   0.683 -2.4140  1.7254  2.4600
  683SOL     OW 2047   2.382   1.397   1.568 -0.1490 -0.6705  0.6793
  683SOL    HW1 2048   2.369   1.484   1.617 -1.6972 -1.1075  1.7202
  683SOL    HW2 2049   2.476   1.361   1.589  0.0305  1.7584  0.4358
  684SOL     OW 2050   0.027   1.775   1.698  0.2899  0.0253 -0.3409
  684SOL    HW1 2051   0.015   1.749   1.597 -1.5767  0.2468 -0.5812
  684SOL    HW2 2052   0.114   1.740   1.736 -1.4362 -0.1944  1.4954
  685SOL     OW 2053   2.027   1.710   0.315 -0.4435 -0.8911  0.0190
  685SOL    HW1 2054   2.020   1.752   0.411 -0.2032  2.2541 -2.4605
  685SOL    HW2 2055   1.964   1.639   0.301 -0.1458  2.0889 -1.3079
  686SOL     OW 2056   2.753   0.103   0.822 -0.5961 -0.3347 -0.0335
  686SOL    HW1 2057   2.819   0.177   0.791  0.9871  0.6456 -0.1173
  686SOL    HW2 2058   2.711   0.048   0.749  1.2564  1.6229  0.2824
  687SOL     OW 2059   1.637   0.175   2.677  0.3058 -0.3217 -0.0790
  687SOL    HW1 2060   1.568   0.139   2.739 -2.3843 -3.1276  0.1238
  687SOL    HW2 2061   1.727   0.150   2.713 -2.2922  2.6500 -1.3994
  688SOL     OW 2062   1.635   1.923   2.386 -0.9750 -0.3237  0.0948
  688SOL    HW1 2063   1.697   1.855   2.427 -2.2822  3.5064 -0.6301
  688SOL    HW2 2064   1.560   1.875   2.344  2.5220  2.3122  0.6872
  689SOL     OW 2065   2.656   1.434   2.141  0.0578 -0.4888 -0.5520
  689SOL    HW1 2066   2.727   1.478   2.198 -0.5035 -3.0498  0.7977
  689SOL    HW2 2067   2.672   1.466   2.046 -1.9708  0.7703 -1.1197
  690SOL     OW 2068   1.701   2.018   1.063 -0.3711 -0.3169  0.2150
  690SOL    HW1 2069   1.690   2.006   1.162 -0.3547 -0.7421  0.6590
  690SOL    HW2 2070   1.788   1.984   1.020 -0.3370 -1.1692 -1.6694
  691SOL     OW 2071   0.474   1.419   0.895  0.0264 -0.2396 -0.6615
  691SOL    HW1 2072   0.560   1.360   0.906  0.3559  0.0394 -0.8118
  691SOL    HW2 2073   0.398   1.380   0.944  1.8362 -0.2671 -2.3643
  692SOL     OW 2074   2.563   3.076   2.132 -0.4658 -0.0832 -0.4654
  692SOL    HW1 2075   2.512   3.115   2.053  1.2056  0.0078  1.1787
  692SOL    HW2 2076   2.497   3.065   2.209 -2.9795 -0.9701  2.4881
  693SOL     OW 2077   0.100   1.567   2.164 -0.1091  0.2955  0.3886
  693SOL    HW1 2078   0.026   1.530   2.224  0.3080  0.9324  0.7876
  693SOL    HW2 2079   0.174   1.589   2.228 -0.2115 -0.4725 -3.0997
  694SOL     OW 2080   2.213   0.164   1.294  0.0106 -0.2951 -0.1419
  694SOL    HW1 2081   2.183   0.112   1.373  2.2473 -0.2904 -1.1473
  694SOL    HW2 2082   2.305   0.211   1.300 -0.4995 -2.0638 -2.0006
  695SOL     OW 2083   1.127   0.927   2.891  0.2105  0.4207  0.0609
  695SOL    HW1 2084   1.073   0.843   2.920  0.0263 -0.4221  0.7198
  695SOL    HW2 2085   1.163   0.926   2.795  0.5298 -0.2864  2.0274
  696SOL     OW 2086   1.822   0.152   1.948  0.7801  0.2298 -0.3257
  696SOL    HW1 2087   1.863   0.243   1.937 -1.0833  0.7542  0.2548
  696SOL    HW2 2088   1.733   0.153   1.903  1.3694  1.7651  0.8251
  697SOL     OW 2089   1.667   0.107   2.169 -0.3886 -0.8009 -0.5736
  697SOL    HW1 2090   1.616   0.167   2.235 -0.9846  2.6198  0.6816
  697SOL    HW2 2091   1.745   0.153   2.131 -3.0618 -0.4150  0.6590
  698SOL     OW 2092   1.824   1.710   2.485  0.3097  0.1990  0.1051
  698SOL    HW1 2093   1.825   1.633   2.552 -0.4489 -2.1534 -1.2787
  698SOL    HW2 2094   1.894   1.694   2.410  0.3551 -0.0950  1.6459
  699SOL     OW 2095   1.921   0.638   0.429 -0.1979  0.6657  0.1626
  699SOL    HW1 2096   1.891   0.711   0.363  1.2516  0.8653 -0.0309
  699SOL    HW2 2097   1.850   0.630   0.500  1.5622  1.6946  0.3288
  700SOL     OW 2098   1.417   0.002   0.022  0.3347  0.5727 -0.1683
  700SOL    HW1 2099   1.462   3.135   0.114 -1.9903  1.7800 -2.8615
  700SOL    HW2 2100   1.320   3.120   0.036 -2.1364  0.5583 -0.5492
  701SOL     OW 2101   0.011   0.374   1.269 -0.1120 -0.2727 -0.2323
  701SOL    HW1 2102   3.106   0.354   1.182 -0.2433 -0.4479  1.3118
  701SOL    HW2 2103   0.080   0.440   1.246 -0.8276 -3.2141  1.3584
  702SOL     OW 2104   1.838   0.171   1.585  0.4274  0.2815  0.2380
  702SOL    HW1 2105   1.761   0.165   1.652  1.8695  0.1382 -0.6449
  702SOL    HW2 2106   1.867   0.080   1.551 -2.0979  1.6030  0.4411
  703SOL     OW 2107   2.941   0.835   1.293 -0.0772  0.8221 -0.5689
  703SOL    HW1 2108   2.859   0.778   1.265 -1.4781 -0.2204 -1.3073
  703SOL    HW2 2109   2.915   0.925   1.336  1.4123 -0.5285 -0.0417
  704SOL     OW 2110   0.833   2.446   1.520 -0.2423  0.1572  0.0590
  704SOL    HW1 2111   0.918   2.438   1.461 -0.9068  2.0701 -1.1937
  704SOL    HW2 2112   0.779   2.521   1.483 -2.1726 -1.8820  1.6854
  705SOL     OW 2113   0.308   1.641   2.338  0.6203  0.1901 -0.4544
  705SOL    HW1 2114   0.388   1.632   2.269  2.5256 -0.1305 -0.1400
  705SOL    HW2 2115   0.327   1.703   2.418 -0.7909  0.5963 -1.2445
  706SOL     OW 2116   2.644   0.321   2.979  0.0727 -0.5342  0.2321
  706SOL    HW1 2117   2.573   0.314   3.054  0.2383  0.4196 -1.5274
  706SOL    HW2 2118   2.681   0.228   2.953  0.7337  0.1787 -1.2576
  707SOL     OW 2119   1.766   2.770   2.527 -0.1402 -0.4241  0.1287
  707SOL    HW1 2120   1.793   2.862   2.506 -1.8630 -1.3006 -1.3321
  707SOL    HW2 2121   1.669   2.759   2.496 -0.8632  0.4510 -0.1664
  708SOL     OW 2122   0.413   2.423   1.759 -0.2681 -0.4218  0.1775
  708SOL    HW1 2123   0.502   2.401   1.803  0.5581  0.3391 -0.3916
  708SOL    HW2 2124   0.332   2.438   1.822 -1.3924 -0.4710 -1.1857
  709SOL     OW 2125   0.222   0.907   1.843  0.5922 -0.1887 -0.0520
  709SOL    HW1 2126   0.127   0.915   1.806  0.9945  0.1666 -0.3441
  709SOL    HW2 2127   0.225   0.823   1.907  0.0554 -0.5881  2.2523
  710SOL     OW 2128   0.006   0.503   1.504  0.2425  0.2050 -0.6153
  710SOL    HW1 2129   3.136   0.464   1.411  2.5865 -0.3105  1.9524
  710SOL    HW2 2130   3.125   0.602   1.519 -0.6421 -1.7739 -0.2206
  711SOL     OW 2131   3.047   2.624   1.185  0.3479  0.2552  0.4503
  711SOL    HW1 2132   3.083   2.548   1.241  0.6782 -0.2776  2.0953
  711SOL    HW2 2133   3.072   2.612   1.082  0.9591  0.3698 -2.6321
  712SOL     OW 2134   0.352   0.060   2.470  0.1690 -0.4470 -0.1857
  712SOL    HW1 2135   0.339   3.121   2.544  0.6074 -1.6964  3.4266
  712SOL    HW2 2136   0.354   0.155   2.515  1.1318  1.2679  0.1446
  713SOL     OW 2137   2.421   0.230   0.440  0.0416 -0.1744  0.0420
  713SOL    HW1 2138   2.324   0.254   0.421  0.2615 -1.7634  0.6206
  713SOL    HW2 2139   2.480   0.301   0.395 -2.1060  0.2801  1.1156
  714SOL     OW 2140   1.654   1.759   0.181 -0.2822 -0.3450  0.2759
  714SOL    HW1 2141   1.635   1.812   0.266  1.1147 -3.7482  0.3634
  714SOL    HW2 2142   1.643   1.661   0.201 -0.5964 -1.8170 -0.6473
  715SOL     OW 2143   0.002   0.195   0.617  0.1339  0.6516  0.5004
  715SOL    HW1 2144   3.089   0.122   0.572  2.3060  0.0693 -0.8713
  715SOL    HW2 2145   3.088   0.246   0.691  0.3604  3.1636  0.9387
  716SOL     OW 2146   1.201   0.580   2.049 -0.4239  0.2262 -0.0443
  716SOL    HW1 2147   1.212   0.499   1.988 -1.8078  2.3096  0.5432
  716SOL    HW2 2148   1.116   0.572   2.104  1.9517 -0.6312  0.1304
  717SOL     OW 2149   0.416   0.414   2.997 -0.0981 -0.0047  0.5243
  717SOL    HW1 2150   0.366   0.485   2.949  0.8681 -2.0305 -0.3994
  717SOL    HW2 2151   0.492   0.437   3.060 -1.3126  0.5680 -1.8540
  718SOL     OW 2152   1.071   0.642   0.074 -0.2621  0.8003  0.1277
  718SOL    HW1 2153   1.050   0.739   0.090 -2.0109  0.8868  1.4710
  718SOL    HW2 2154   1.166   0.620   0.104 -1.8106 -0.1057  0.5740
  719SOL     OW 2155   2.690   2.522   2.638 -0.0956 -0.2310  0.1407
  719SOL    HW1 2156   2.763   2.455   2.605 -0.9327 -0.6965 -3.2444
  719SOL    HW2 2157   2.594   2.494   2.610 -2.0480  0.2039 -0.6055
  720SOL     OW 2158   1.383   0.690   1.317 -0.4337 -0.5929 -0.4209
  720SOL    HW1 2159   1.345   0.715   1.409  0.1216  0.3516 -1.3249
  720SOL    HW2 2160   1.441   0.607   1.317 -3.0121  1.3421 -0.1792
  721SOL     OW 2161   0.011   2.821   1.346  0.7160 -0.2172  0.0952
  721SOL    HW1 2162   0.000   2.906   1.300  1.1579 -4.1075 -0.8635
  721SOL    HW2 2163   3.110   2.754   1.282  0.8395  1.1060  4.0663
  722SOL     OW 2164   0.913   1.543   3.003 -0.0857  0.2698  0.5233
  722SOL    HW1 2165   0.841   1.569   3.076  1.8532 -0.0704  2.4980
  722SOL    HW2 2166   1.001   1.588   3.013  1.3603  0.4279  1.7701
  723SOL     OW 2167   2.181   0.279   0.777 -1.1534  0.1708  0.7299
  723SOL    HW1 2168   2.253   0.292   0.705  0.5522  0.9893 -2.9853
  723SOL    HW2 2169   2.088   0.309   0.753 -1.1472  0.4971  1.1258
  724SOL     OW 2170   0.782   2.304   0.030  0.3069  0.2175 -0.1328
  724SOL    HW1 2171   0.845   2.266   0.105 -1.0456 -0.4048 -2.2589
  724SOL    HW2 2172   0.720   2.380   0.065 -2.5016 -0.8946 -0.6670
  725SOL     OW 2173   0.245   0.858   1.134 -0.4266  0.5376  0.3987
  725SOL    HW1 2174   0.161   0.904   1.121 -1.5256 -0.0887 -1.4697
  725SOL    HW2 2175   0.290   0.875   1.231  2.8452  1.9361  3.0750
  726SOL     OW 2176   2.602   0.685   0.393  0.1735 -0.3903  0.2715
  726SOL    HW1 2177   2.610   0.702   0.492 -1.2181 -1.8335 -1.7952
  726SOL    HW2 2178   2.692   0.700   0.345  1.0244  0.8811 -1.0762
  727SOL     OW 2179   1.900   1.278   2.485  0.1903  0.3175  0.1087
  727SOL    HW1 2180   1.970   1.348   2.505  2.9364  3.4544  2.6543
  727SOL    HW2 2181   1.933   1.198   2.541  1.8028 -0.8324  0.3937
  728SOL     OW 2182   1.831   3.035   1.464  0.2449  0.2804 -0.1615
  728SOL    HW1 2183   1.911   2.987   1.508  1.1492  0.0338 -1.4959
  728SOL    HW2 2184   1.746   2.979   1.455 -0.3407  1.1545 -0.3545
  729SOL     OW 2185   2.393   0.830   2.399  0.2657  0.5570  0.7070
  729SOL    HW1 2186   2.440   0.804   2.490 -0.4346 -1.6371 -0.6613
  729SOL    HW2 2187   2.304   0.871   2.420 -3.0293 -1.3365 -1.7615
  730SOL     OW 2188   1.072   0.937   1.390  0.0441 -0.9694  0.1088
  730SOL    HW1 2189   1.121   1.002   1.327 -1.2577  0.0697  0.1605
  730SOL    HW2 2190   1.137   0.918   1.468  0.7929  0.0422  1.6672
  731SOL     OW 2191   0.431   0.249   0.149  0.6189  0.4294  0.0814
  731SOL    HW1 2192   0.499   0.306   0.194 -2.2199 -3.5647 -0.4560
  731SOL    HW2 2193   0.446   0.257   0.044 -0.8797 -0.5328 -1.6817
  732SOL     OW 2194   0.284   0.500   0.407 -0.1043 -0.5518 -0.1696
  732SOL    HW1 2195   0.378   0.514   0.369  1.8686 -1.2242  0.4972
  732SOL    HW2 2196   0.289   0.432   0.486  0.6126  0.1019  2.7050
  733SOL     OW 2197   1.817   1.521   2.683  0.1719  0.0913 -0.3297
  733SOL    HW1 2198   1.750   1.445   2.665  0.9315 -1.5017 -1.2186
  733SOL    HW2 2199   1.785   1.571   2.769 -0.0451  0.8611  2.9514
  734SOL     OW 2200   0.079   1.768   2.602 -0.1141  0.0279 -0.4256
  734SOL    HW1 2201   0.178   1.778   2.572  0.0398  0.0697 -0.8569
  734SOL    HW2 2202   0.082   1.740   2.699 -0.7990 -0.8826  0.6757
  735SOL     OW 2203   1.902   0.523   1.273  0.4628 -0.6297  0.1909
  735SOL    HW1 2204   1.963   0.526   1.193 -0.5871  1.2918  0.1553
  735SOL    HW2 2205   1.950   0.556   1.360 -0.4781 -0.0371 -1.0213
  736SOL     OW 2206   1.583   1.899   3.106  0.0565  0.6229  0.5242
  736SOL    HW1 2207   1.601   1.833   0.045  1.2388 -1.7156 -2.2848
  736SOL    HW2 2208   1.651   1.969   3.084  1.0806 -1.4958 -1.7743
  737SOL     OW 2209   3.110   0.337   0.362 -0.4262  0.6885  0.3303
  737SOL    HW1 2210   3.116   0.438   0.346 -0.0708 -2.6194  0.4204
  737SOL    HW2 2211   0.005   0.302   0.452 -0.2320  2.2950 -1.2626
  738SOL     OW 2212   0.585   2.027   1.869 -0.3823  0.3076  0.2309
  738SOL    HW1 2213   0.509   2.070   1.813  1.6562 -0.4077 -0.0028
  738SOL    HW2 2214   0.615   1.944   1.821  0.3272 -0.1672  0.7305
  739SOL     OW 2215   1.231   2.701   2.335  0.2820 -0.0441  0.0660
  739SOL    HW1 2216   1.157   2.628   2.332  1.2815  1.2655  1.6612
  739SOL    HW2 2217   1.272   2.700   2.425 -0.0805  1.3108 -4.5253
  740SOL     OW 2218   1.746   2.355   1.558  0.3939 -0.0390 -0.3539
  740SOL    HW1 2219   1.810   2.279   1.530 -1.1889 -0.2631  1.6117
  740SOL    HW2 2220   1.717   2.339   1.653  0.7233  1.0791 -1.8271
  741SOL     OW 2221   2.338   0.703   0.315 -0.2409 -0.1782 -0.1662
  741SOL    HW1 2222   2.439   0.705   0.329  0.2980 -0.3602  0.5596
  741SOL    HW2 2223   2.290   0.666   0.398 -0.2665  3.0149  0.0277
  742SOL     OW 2224   0.963   2.654   0.107 -0.0286 -0.5750  0.3350
  742SOL    HW1 2225   1.018   2.625   0.028 -1.5730 -0.0048  1.8455
  742SOL    HW2 2226   0.984   2.599   0.194 -0.1933 -0.5609 -0.2254
  743SOL     OW 2227   2.439   0.994   2.148  0.0042 -0.0825  0.5919
  743SOL    HW1 2228   2.402   0.945   2.226  0.4923  2.2429 -0.6486
  743SOL    HW2 2229   2.496   1.070   2.188 -0.2596 -0.9832 -1.3938
  744SOL     OW 2230   2.692   0.437   0.713  0.1600 -0.2307 -0.2313
  744SOL    HW1 2231   2.597   0.399   0.725  2.0363  2.6870 -2.0098
  744SOL    HW2 2232   2.733   0.457   0.807 -1.3080  0.6490  0.5290
  745SOL     OW 2233   2.611   1.308   1.658 -0.5358 -0.0465 -0.7749
  745SOL    HW1 2234   2.604   1.208   1.674  2.0869  1.2383 -0.7585
  745SOL    HW2 2235   2.664   1.352   1.739 -1.3392  2.4762  0.2664
  746SOL     OW 2236   1.529   1.324   0.750 -0.4796  0.2581 -0.4897
  746SOL    HW1 2237   1.532   1.413   0.794  2.8236  1.0250  0.9059
  746SOL    HW2 2238   1.433   1.291   0.746  0.5393 -1.8988  1.2119
  747SOL     OW 2239   1.370   1.700   1.637 -0.1977  0.3095  0.1453
  747SOL    HW1 2240   1.378   1.800   1.668 -1.4200  0.5705 -2.3890
  747SOL    HW2 2241   1.365   1.639   1.718 -0.2736  0.9565  0.0989
  748SOL     OW 2242   0.286   2.867   3.085 -0.0869 -0.6283 -0.8747
  748SOL    HW1 2243   0.361   2.797   3.074  0.4443 -1.1976  0.4689
  748SOL    HW2 2244   0.229   2.842   0.029  0.2466 -2.5275 -1.3481
  749SOL     OW 2245   0.429   1.279   2.628  0.6265 -0.4104  0.1474
  749SOL    HW1 2246   0.496   1.241   2.565  0.7103 -1.0101 -1.2215
  749SOL    HW2 2247   0.362   1.333   2.575  4.4334 -0.5584 -2.0191
  750SOL     OW 2248   1.886   0.906   2.160  0.2805 -0.0265  0.0585
  750SOL    HW1 2249   1.983   0.883   2.132  1.0154  0.5049  0.5225
  750SOL    HW2 2250   1.819   0.843   2.116 -0.2601  1.4043 -0.1285
  751SOL     OW 2251   2.573   0.428   0.312 -0.0394  0.7854  0.2314
  751SOL    HW1 2252   2.602   0.418   0.217 -1.8085 -2.1293  1.8858
  751SOL    HW2 2253   2.568   0.528   0.327 -0.7610 -1.6389  1.3542
  752SOL     OW 2254   0.127   2.389   0.946  0.2081  0.6126 -0.0571
  752SOL    HW1 2255   0.094   2.291   0.929 -1.9319 -1.4724 -0.2673
  752SOL    HW2 2256   0.184   2.391   1.030  0.8350 -0.4686  1.7302
  753SOL     OW 2257   1.086   2.633   1.188 -0.1587  0.5699  0.2854
  753SOL    HW1 2258   1.061   2.587   1.272  2.3402 -0.2214 -0.3685
  753SOL    HW2 2259   1.010   2.675   1.125 -1.8678  5.1342 -0.3422
  754SOL     OW 2260   0.204   3.126   1.863 -0.1446 -0.0083  0.0489
  754SOL    HW1 2261   0.180   0.086   1.889 -2.5822 -1.0712 -1.6479
  754SOL    HW2 2262   0.159   3.099   1.776 -0.2477 -0.1609  0.6937
  755SOL     OW 2263   2.179   0.591   0.509 -0.5124 -0.2560 -0.0548
  755SOL    HW1 2264   2.088   0.616   0.472  0.0617 -0.1620  0.9889
  755SOL    HW2 2265   2.205   0.654   0.581  0.9813  0.9948 -1.0847
  756SOL     OW 2266   2.163   2.432   2.587  0.0431 -0.3223 -0.6887
  756SOL    HW1 2267   2.107   2.401   2.667 -0.1062 -0.0335  0.0733
  756SOL    HW2 2268   2.100   2.487   2.533  0.8622 -1.0765  0.4980
  757SOL     OW 2269   1.948   0.294   0.614 -0.0669 -0.3216 -0.4966
  757SOL    HW1 2270   1.903   0.205   0.653 -0.5544 -2.3886  2.2694
  757SOL    HW2 2271   1.916   0.375   0.668 -3.2055  2.1902  1.2345
  758SOL     OW 2272   2.257   0.600   1.363  0.0073 -0.0626  0.5228
  758SOL    HW1 2273   2.329   0.556   1.414 -2.2586  0.7075 -2.9242
  758SOL    HW2 2274   2.224   0.542   1.292 -0.3958  2.4796  1.5141
  759SOL     OW 2275   2.364   0.454   1.007  1.1301 -0.1814 -0.1089
  759SOL    HW1 2276   2.378   0.369   0.955 -1.5931 -0.5921 -1.0532
  759SOL    HW2 2277   2.411   0.529   0.957 -0.3567 -0.9118  3.4642
  760SOL     OW 2278   2.231   1.300   1.157  0.0640 -0.1490 -0.1410
  760SOL    HW1 2279   2.223   1.375   1.227  0.5586  0.2824 -0.4377
  760SOL    HW2 2280   2.197   1.212   1.189  0.6656 -0.0328  1.7731
  761SOL     OW 2281   0.661   0.436   0.215  0.3422  0.0550  0.4794
  761SOL    HW1 2282   0.756   0.463   0.233 -5.5252 -0.0161 -3.2330
  761SOL    HW2 2283   0.598   0.495   0.274  1.3704  0.0007 -3.2831
  762SOL     OW 2284   0.998   1.981   1.035  0.2335 -0.0273 -0.7590
  762SOL    HW1 2285   1.042   1.957   1.126 -1.7469 -2.3784  2.2143
  762SOL    HW2 2286   0.907   2.032   1.052 -1.1390  1.7180 -1.1724
  763SOL     OW 2287   1.301   0.923   1.507 -0.0519 -0.3465  0.1509
  763SOL    HW1 2288   1.352   0.985   1.449 -0.6216 -0.2057  2.5484
  763SOL    HW2 2289   1.331   0.924   1.603  1.1638 -2.0252 -0.9833
  764SOL     OW 2290   0.234   1.474   2.848  0.4000  0.3589  0.3361
  764SOL    HW1 2291   0.230   1.449   2.752  2.2104 -0.6455  2.6446
  764SOL    HW2 2292   0.174   1.558   2.860 -0.4120 -0.9972  1.8285
  765SOL     OW 2293   0.630   2.750   1.591  0.3437  0.0486  0.4007
  765SOL    HW1 2294   0.671   2.705   1.513  1.6316  1.2915 -1.6361
  765SOL    HW2 2295   0.637   2.851   1.580 -0.3511 -1.5452  0.0644
  766SOL     OW 2296   2.855   2.338   2.489  0.1072  0.4297  0.1241
  766SOL    HW1 2297   2.809   2.253   2.510 -1.6341  0.7948 -0.2242
  766SOL    HW2 2298   2.880   2.348   2.391  0.2191  0.1672  2.3210
  767SOL     OW 2299   1.506   1.230   2.312  0.2298 -0.1245 -0.2314
  767SOL    HW1 2300   1.473   1.187   2.223 -0.9675  1.1000  0.7582
  767SOL    HW2 2301   1.428   1.271   2.369  0.8649 -1.5721  0.8409
  768SOL     OW 2302   1.359   2.029   0.273 -0.1439 -0.2712  0.2288
  768SOL    HW1 2303   1.421   1.958   0.319  3.2409 -1.0395  2.1457
  768SOL    HW2 2304   1.403   2.080   0.196 -0.7547 -1.1991  0.0836
  769SOL     OW 2305   0.283   2.091   1.450  0.0921  0.1536  0.7778
  769SOL    HW1 2306   0.300   2.075   1.349  3.4992  1.7213 -0.6714
  769SOL    HW2 2307   0.185   2.104   1.475  3.0893 -1.1199  3.1643
  770SOL     OW 2308   1.579   1.036   2.781  0.7747  0.4807  0.2706
  770SOL    HW1 2309   1.492   1.074   2.817  2.9213  0.6287  0.3876
  770SOL    HW2 2310   1.592   1.055   2.682  2.6810 -1.5455 -0.2546
  771SOL     OW 2311   0.184   2.975   2.090  0.1849 -0.0857 -0.0888
  771SOL    HW1 2312   0.265   2.918   2.111  0.5831 -0.9800  0.1963
  771SOL    HW2 2313   0.201   3.026   2.005  0.2131  0.2786 -0.9185
  772SOL     OW 2314   2.289   2.091   1.831  0.0256 -0.1810 -0.6607
  772SOL    HW1 2315   2.362   2.070   1.900 -0.7221 -0.8478  0.5709
  772SOL    HW2 2316   2.197   2.096   1.883  1.1194 -0.6186  2.5422
  773SOL     OW 2317   0.425   1.841   1.492  0.1601 -0.1868  0.0206
  773SOL    HW1 2318   0.359   1.768   1.474  3.2840  0.3989  1.0285
  773SOL    HW2 2319   0.385   1.934   1.492 -1.8642 -0.0124  2.2904
  774SOL     OW 2320   1.332   0.584   2.636 -0.4365 -0.5443  0.3968
  774SOL    HW1 2321   1.298   0.493   2.660 -1.1396  0.2579 -2.0319
  774SOL    HW2 2322   1.356   0.632   2.723 -0.2504 -3.3479  0.5686
  775SOL     OW 2323   1.882   2.817   3.013 -0.3614  0.0274 -0.0161
  775SOL    HW1 2324   1.833   2.908   3.007 -0.0994 -0.0004 -0.4121
  775SOL    HW2 2325   1.836   2.760   2.944  0.6962 -1.3032  0.3095
  776SOL     OW 2326   0.202   0.703   2.001 -0.2122 -0.2319  0.0343
  776SOL    HW1 2327   0.107   0.670   2.003 -2.1657 -2.7763  1.9814
  776SOL    HW2 2328   0.258   0.629   2.048 -2.0446 -2.7400  0.7620
  777SOL     OW 2329   2.418   2.015   2.068 -0.5557 -0.0547  0.2170
  777SOL    HW1 2330   2.403   1.917   2.053  0.4052 -0.8607 -1.0078
  777SOL    HW2 2331   2.369   2.039   2.155 -0.0858 -3.0251  1.6105
  778SOL     OW 2332   2.023   1.117   2.278 -0.5451  0.2883 -0.0943
  778SOL    HW1 2333   1.970   1.180   2.341  0.6406  1.3400 -0.5463
  778SOL    HW2 2334   1.967   1.038   2.249  2.1626 -1.6132  1.4736
  779SOL     OW 2335   2.583   1.136   0.284  0.0099 -0.2139 -0.4692
  779SOL    HW1 2336   2.611   1.233   0.271  0.5105 -0.8219  0.5929
  779SOL    HW2 2337   2.518   1.103   0.212  0.0371  1.6456 -2.5892
  780SOL     OW 2338   2.493   0.439   2.809 -0.2210  0.1940  0.0126
  780SOL    HW1 2339   2.560   0.397   2.875 -1.3849  0.1810 -0.1418
  780SOL    HW2 2340   2.409   0.388   2.805  0.9220  4.1967 -0.9347
  781SOL     OW 2341   0.006   2.081   1.583  0.4684  0.0829  0.4546
  781SOL    HW1 2342   3.127   2.165   1.640 -0.7447  3.5262 -0.2096
  781SOL    HW2 2343   0.022   1.998   1.638 -2.7164  2.2227 -0.5749
  782SOL     OW 2344   2.316   2.579   2.835 -0.0885  0.4005 -1.0050
  782SOL    HW1 2345   2.383   2.531   2.777  0.0359 -1.0007 -2.0457
  782SOL    HW2 2346   2.229   2.531   2.833  3.7458 -1.1193  1.7757
  783SOL     OW 2347   0.540   1.401   1.429 -0.1373 -0.5150 -0.7053
  783SOL    HW1 2348   0.642   1.396   1.440 -2.4488  2.8072  0.3235
  783SOL    HW2 2349   0.515   1.482   1.371  0.2265  2.0396  0.0763
  784SOL     OW 2350   1.787   0.831   2.806 -0.5289  0.3437  0.0383
  784SOL    HW1 2351   1.855   0.819   2.731 -1.2787 -1.9843  2.1277
  784SOL    HW2 2352   1.714   0.897   2.781  0.6872 -1.9578 -0.6422
  785SOL     OW 2353   2.510   2.680   0.834 -0.5315 -0.3214  0.3144
  785SOL    HW1 2354   2.551   2.636   0.751 -0.8206  1.1185 -2.7005
  785SOL    HW2 2355   2.440   2.749   0.806 -0.2666 -0.7079  1.0472
  786SOL     OW 2356   0.812   2.086   2.291 -0.0774  0.0404  0.4475
  786SOL    HW1 2357   0.843   2.139   2.205  0.1494  0.8956  0.2279
  786SOL    HW2 2358   0.879   2.095   2.365 -1.3685  1.3142 -0.8591
  787SOL     OW 2359   1.265   0.798   1.082 -0.0686 -0.6536  0.1101
  787SOL    HW1 2360   1.312   0.767   1.164 -1.4143  0.3245  1.3814
  787SOL    HW2 2361   1.333   0.832   1.014 -1.0734 -0.5378 -0.7441
  788SOL     OW 2362   0.144   0.655   0.601 -0.7766  0.5011  0.1355
  788SOL    HW1 2363   0.215   0.729   0.601  2.8571  1.0445 -0.9659
  788SOL    HW2 2364   0.153   0.600   0.515 -2.0495 -2.8409 -0.2763
  789SOL     OW 2365   3.075   2.026   1.319  0.5021  0.2536 -0.1641
  789SOL    HW1 2366   3.036   2.091   1.251  2.0679  2.2596  0.2422
  789SOL    HW2 2367   3.082   2.053   1.418  0.1178  0.0459  2.1905
  790SOL     OW 2368   1.152   0.840   2.115 -0.4577 -0.5489 -0.5022
  790SOL    HW1 2369   1.161   0.741   2.099  0.6939 -0.2508  0.0619
  790SOL    HW2 2370   1.206   0.870   2.200  2.4374  0.8187 -0.2607
  791SOL     OW 2371   1.432   0.553   0.454 -0.2491 -0.2018 -0.1149
  791SOL    HW1 2372   1.514   0.517   0.406 -1.1522  2.8543  0.1808
  791SOL    HW2 2373   1.386   0.480   0.511  0.4771 -0.8152 -1.1367
  792SOL     OW 2374   1.479   2.834   1.914 -0.5004 -0.1123  0.4096
  792SOL    HW1 2375   1.425   2.789   1.988  0.5710 -2.2311  0.4598
  792SOL    HW2 2376   1.440   2.834   1.821 -0.1235 -0.0873  1.5618
  793SOL     OW 2377   1.091   0.403   0.788  0.1041  0.3889 -1.1585
  793SOL    HW1 2378   1.111   0.449   0.877 -0.3353 -0.6853  0.9804
  793SOL    HW2 2379   0.991   0.413   0.767 -1.0714 -0.1104 -0.4589
  794SOL     OW 2380   0.734   1.026   2.004 -0.1760  0.2762  0.0313
  794SOL    HW1 2381   0.635   1.043   1.975  0.4378  2.7722 -1.1758
  794SOL    HW2 2382   0.774   1.118   2.013 -1.1142  0.5884 -0.8119
  795SOL     OW 2383   0.273   2.060   2.513 -0.2778 -0.1383  0.0734
  795SOL    HW1 2384   0.358   2.098   2.468 -0.2885 -0.1072 -0.3155
  795SOL    HW2 2385   0.220   2.142   2.554  0.0840 -0.3620  0.9184
  796SOL     OW 2386   2.611   1.187   2.250 -0.1914 -0.3133 -0.3194
  796SOL    HW1 2387   2.639   1.193   2.347 -1.2129 -0.3880 -0.6834
  796SOL    HW2 2388   2.611   1.284   2.213  1.4528 -0.6807  1.3436
  797SOL     OW 2389   3.037   2.458   2.890 -0.0336 -0.3516 -0.0722
  797SOL    HW1 2390   3.098   2.543   2.896  1.1281  0.0155 -2.3799
  797SOL    HW2 2391   3.037   2.424   2.795  0.4716  1.9498  0.9375
  798SOL     OW 2392   0.222   2.374   2.288 -0.3663  0.2830 -0.5465
  798SOL    HW1 2393   0.168   2.454   2.256  2.5763 -2.1137 -0.3121
  798SOL    HW2 2394   0.167   2.285   2.287  0.7313 -0.8230 -0.8968
  799SOL     OW 2395   0.441   2.320   2.856  0.4981 -0.2846 -0.5254
  799SOL    HW1 2396   0.381   2.381   2.911 -0.6874  1.5652  2.0932
  799SOL    HW2 2397   0.404   2.224   2.867 -3.6446 -1.9320  1.5930
  800SOL     OW 2398   1.131   1.723   0.233  0.2995 -0.1046 -0.0754
  800SOL    HW1 2399   1.047   1.674   0.237  1.7531  0.4595  0.2681
  800SOL    HW2 2400   1.163   1.737   0.329 -1.6690 -1.9808 -1.9367
  801SOL     OW 2401   1.901   1.385   1.354  0.8863 -0.0953 -0.1560
  801SOL    HW1 2402   1.916   1.283   1.353  0.8133 -3.9193  0.7497
  801SOL    HW2 2403   1.989   1.436   1.360 -1.6856  0.3558 -1.0927
  802SOL     OW 2404   2.940   1.284   0.176 -0.2716 -0.1160  0.2893
  802SOL    HW1 2405   2.977   1.276   0.268 -1.4562 -0.0160 -1.3293
  802SOL    HW2 2406   2.957   1.192   0.141 -0.9185 -1.3645  0.8275
  803SOL     OW 2407   1.245   1.995   2.744 -0.0809  0.1264 -0.0668
  803SOL    HW1 2408   1.330   1.962   2.781 -1.5985 -0.3062  0.8817
  803SOL    HW2 2409   1.188   1.927   2.698 -1.2419  1.9162  0.6242
  804SOL     OW 2410   1.677   1.421   0.234  0.0532  0.2332  0.2326
  804SOL    HW1 2411   1.645   1.408   0.329  0.2473  0.8985  0.2019
  804SOL    HW2 2412   1.779   1.396   0.226  1.4910 -1.7085  1.3863
  805SOL     OW 2413   2.573   1.693   2.724 -0.2163 -0.0159 -0.4177
  805SOL    HW1 2414   2.538   1.723   2.633 -0.5662  0.4123  0.4069
  805SOL    HW2 2415   2.644   1.761   2.759  4.0676  0.4090  1.7774
  806SOL     OW 2416   0.384   3.031   0.489  0.5188 -0.6266 -0.1222
  806SOL    HW1 2417   0.422   3.083   0.404 -0.6032 -1.9924  0.4078
  806SOL    HW2 2418   0.458   2.990   0.541 -3.6840  3.8872  1.1156
  807SOL     OW 2419   1.943   1.445   2.976  0.4881  0.2214 -0.0770
  807SOL    HW1 2420   1.993   1.510   2.914 -0.3836 -2.6616  0.6855
  807SOL    HW2 2421   1.849   1.468   2.995  0.0613  1.7781  2.0788
  808SOL     OW 2422   3.086   1.490   0.550  0.5029  0.6972  0.0063
  808SOL    HW1 2423   3.093   1.390   0.544 -0.4275 -1.7232 -1.1558
  808SOL    HW2 2424   2.990   1.519   0.568  0.7424  0.3295 -0.8290
  809SOL     OW 2425   2.414   1.061   0.085  0.2708 -0.0997 -0.0936
  809SOL    HW1 2426   2.442   0.976   0.036  3.1856  0.3163  0.8996
  809SOL    HW2 2427   2.319   1.073   0.118  0.7506 -2.8807 -1.1251
  810SOL     OW 2428   0.549   1.302   0.356  0.3902  0.2048 -0.0651
  810SOL    HW1 2429   0.589   1.316   0.266  0.9075  1.1240  2.7134
  810SOL    HW2 2430   0.466   1.243   0.350  1.5624  0.3466 -0.3243
  811SOL     OW 2431   1.287   2.519   1.536 -0.0451 -0.0992  0.0280
  811SOL    HW1 2432   1.313   2.598   1.479 -0.9942  0.6791  1.3975
  811SOL    HW2 2433   1.367   2.455   1.539  0.7330  1.0605 -1.3056
  812SOL     OW 2434   0.794   2.569   1.744 -0.1243 -0.0711  0.3597
  812SOL    HW1 2435   0.781   2.662   1.711  1.3040 -1.0127  0.4173
  812SOL    HW2 2436   0.806   2.503   1.665 -0.7013  2.8636 -1.0833
  813SOL     OW 2437   1.377   0.211   2.084 -0.0849  0.0517 -0.2100
  813SOL    HW1 2438   1.442   0.135   2.077 -3.8820  0.2493 -1.9462
  813SOL    HW2 2439   1.323   0.215   2.172  0.9162  0.5348 -0.2346
  814SOL     OW 2440   1.388   2.435   2.581  0.2155 -0.4415  0.1258
  814SOL    HW1 2441   1.364   2.382   2.667  1.3699 -1.2511 -1.9250
  814SOL    HW2 2442   1.455   2.383   2.521  1.0547 -1.7604 -0.2314
  815SOL     OW 2443   0.856   0.258   2.392  0.0446  0.3300  0.1201
  815SOL    HW1 2444   0.914   0.221   2.319 -1.1840  2.0532  3.8013
  815SOL    HW2 2445   0.760   0.226   2.383  0.6749  1.1101  0.9213
  816SOL     OW 2446   2.077   0.466   3.136  0.1935 -0.3429  0.1665
  816SOL    HW1 2447   2.138   0.529   3.078 -0.2421  0.0227 -0.0118
  816SOL    HW2 2448   1.982   0.476   3.100  2.3572  1.2584 -0.2409
  817SOL     OW 2449   2.344   0.478   2.414  0.4282  0.0628 -0.3369
  817SOL    HW1 2450   2.371   0.402   2.351 -2.0744 -0.3673  1.8967
  817SOL    HW2 2451   2.293   0.551   2.371 -1.9085 -2.2037 -1.5160
  818SOL     OW 2452   1.747   0.278   0.183 -0.4150 -0.1822  0.5583
  818SOL    HW1 2453   1.797   0.364   0.201  2.0818 -0.4880 -1.2006
  818SOL    HW2 2454   1.812   0.202   0.154 -1.3167 -0.4067 -1.4413
  819SOL     OW 2455   2.224   1.771   2.889  0.3338 -0.6895 -0.0056
  819SOL    HW1 2456   2.139   1.773   2.841  2.7632  1.5073  2.2163
  819SOL    HW2 2457   2.216   1.834   2.972  1.4700 -0.3447  0.0823
  820SOL     OW 2458   0.120   1.854   0.094  0.1988 -0.1067  0.0601
  820SOL    HW1 2459   0.059   1.940   0.090 -2.7217 -0.5201  1.1188
  820SOL    HW2 2460   0.179   1.854   0.180 -2.1277 -0.0708  3.3215
  821SOL     OW 2461   0.327   3.014   0.827  0.2046 -0.1697 -0.1911
  821SOL    HW1 2462   0.407   2.973   0.784 -2.1456 -0.4357  2.5017
  821SOL    HW2 2463   0.299   3.096   0.768  1.3999 -1.0715  1.2012
  822SOL     OW 2464   2.825   2.775   3.072  0.4732 -0.4220  0.4022
  822SOL    HW1 2465   2.735   2.738   3.105 -0.2518 -2.1521  1.1086
  822SOL    HW2 2466   2.840   2.750   2.977  1.6071  1.8509  1.1534
  823SOL     OW 2467   1.259   0.329   2.689 -0.3906 -0.0224 -0.2557
  823SOL    HW1 2468   1.276   0.257   2.625  0.0182  1.8851  1.9314
  823SOL    HW2 2469   1.309   0.306   2.774 -0.0266 -1.1465  0.3589
  824SOL     OW 2470   2.672   2.102   1.986  0.7287 -0.2412 -0.0150
  824SOL    HW1 2471   2.737   2.037   2.031 -1.7242  0.8693 -1.1213
  824SOL    HW2 2472   2.579   2.062   1.987  2.7220  2.1797  0.8975
  825SOL     OW 2473   3.074   2.073   2.553 -0.1382  0.0682  0.3773
  825SOL    HW1 2474   3.091   1.978   2.585  3.2881 -0.0526  1.5611
  825SOL    HW2 2475   3.128   2.143   2.606  0.5236 -0.6036  1.0809
  826SOL     OW 2476   2.315   1.433   2.444  0.2328  0.0359 -0.2239
  826SOL    HW1 2477   2.342   1.350   2.493  1.9297  0.1865  1.1176
  826SOL    HW2 2478   2.231   1.469   2.487 -0.0738  0.0668 -0.4587
  827SOL     OW 2479   2.422   2.280   1.425 -0.0865 -0.0046  0.1649
  827SOL    HW1 2480   2.408   2.360   1.363  1.5924  0.3020  1.4865
  827SOL    HW2 2481   2.520   2.261   1.431 -3.1555 -3.0679 -3.4296
  828SOL     OW 2482   0.215   3.098   1.324  0.2844  0.3405 -0.2402
  828SOL    HW1 2483   0.143   0.014   1.376 -0.5383  1.2510 -1.3544
  828SOL    HW2 2484   0.294   3.080   1.388 -3.3387  0.1052 -1.3928
  829SOL     OW 2485   1.593   2.309   2.389 -0.2265  0.0802  0.2558
  829SOL    HW1 2486   1.540   2.225   2.379 -1.3617  0.6765 -0.9478
  829SOL    HW2 2487   1.586   2.377   2.318  1.6512  0.3217  3.0570
  830SOL     OW 2488   0.798   0.368   0.512  0.1490  0.6947  0.2162
  830SOL    HW1 2489   0.841   0.426   0.444 -2.8625 -1.2873 -0.2664
  830SOL    HW2 2490   0.803   0.411   0.608  0.0107  0.4803  0.7792
  831SOL     OW 2491   2.776   1.345   2.944 -0.3821 -0.0671  0.5127
  831SOL    HW1 2492   2.877   1.324   2.928  6.0353 -1.4130  1.2771
  831SOL    HW2 2493   2.725   1.387   2.868 -0.0077 -2.3209  1.8831
  832SOL     OW 2494   1.520   1.966   2.060 -0.2390 -0.1472 -0.2600
  832SOL    HW1 2495   1.464   2.032   2.116 -0.3952 -1.3023  1.2152
  832SOL    HW2 2496   1.593   2.011   2.007 -1.8932  2.2979 -0.1876
  833SOL     OW 2497   0.606   0.236   2.252  0.4186  0.1144 -0.5406
  833SOL    HW1 2498   0.557   0.277   2.331  0.1110  0.9603  1.0436
  833SOL    HW2 2499   0.600   0.132   2.245 -0.3558 -1.0090  0.3935
  834SOL     OW 2500   0.707   1.122   1.575  0.3748 -0.3497  0.3076
  834SOL    HW1 2501   0.640   1.081   1.512 -1.1209  0.0925 -0.8540
  834SOL    HW2 2502   0.792   1.060   1.589  2.0467  1.9118 -0.1696
  835SOL     OW 2503   2.809   0.866   3.124 -0.2785 -0.1099 -0.3301
  835SOL    HW1 2504   2.832   0.793   3.057 -0.7276  0.1967  3.3602
  835SOL    HW2 2505   2.760   0.942   3.075  0.3847  0.3318  0.9940
  836SOL     OW 2506   1.245   1.780   0.532  0.9365 -0.1700  0.5590
  836SOL    HW1 2507   1.155   1.832   0.548 -1.3708  2.5633  2.3344
  836SOL    HW2 2508   1.319   1.829   0.579 -2.4483 -1.5525 -2.1121
  837SOL     OW 2509   1.815   1.522   0.975  0.1211  0.4402 -0.1409
  837SOL    HW1 2510   1.886   1.587   0.994 -1.6827 -1.5463 -0.9788
  837SOL    HW2 2511   1.749   1.507   1.048 -0.9522 -2.0186  1.7380
  838SOL     OW 2512   1.214   1.376   2.221  0.0229 -0.3253  0.5488
  838SOL    HW1 2513   1.112   1.360   2.238 -0.9478 -0.6438 -1.3402
  838SOL    HW2 2514   1.257   1.393   2.313 -3.3035 -1.4897  1.6213
  839SOL     OW 2515   0.755   2.112   2.711 -0.0444  0.1723  0.0293
  839SOL    HW1 2516   0.766   2.091   2.809 -2.0113 -1.1545 -1.5661
  839SOL    HW2 2517   0.687   2.191   2.702 -0.0252  2.2988  0.3525
  840SOL     OW 2518   0.604   2.523   0.414 -0.6627 -0.3367 -0.6687
  840SOL    HW1 2519   0.656   2.590   0.469  0.7018  0.1326 -2.8687
  840SOL    HW2 2520   0.612   2.431   0.451 -0.6032  0.3419 -0.3621
  841SOL     OW 2521   2.056   2.809   0.270  0.4564 -0.2527  0.0695
  841SOL    HW1 2522   2.086   2.758   0.353 -1.3488  0.6222 -0.7600
  841SOL    HW2 2523   1.958   2.789   0.242 -0.1048  3.3996 -0.9873
  842SOL     OW 2524   0.630   0.611   0.003 -0.2359 -0.0420  0.7486
  842SOL    HW1 2525   0.637   0.571   0.092  2.0894 -1.5674 -2.4666
  842SOL    HW2 2526   0.695   0.687   3.120  0.9803 -0.5031 -0.6905
  843SOL     OW 2527   1.247   0.156   0.793  0.3076  0.0981 -0.3084
  843SOL    HW1 2528   1.288   0.140   0.890 -0.0056 -0.9523  1.5398
  843SOL    HW2 2529   1.201   0.247   0.795  0.5517 -1.2256  0.1762
  844SOL     OW 2530   2.971   2.824   2.690 -0.2387 -0.2700 -0.0304
  844SOL    HW1 2531   2.982   2.763   2.607 -0.8053 -1.5047 -0.2032
  844SOL    HW2 2532   2.907   2.773   2.756  0.5789  1.5139  0.8830
  845SOL     OW 2533   2.796   2.327   0.924  0.1289  0.1928  1.2469
  845SOL    HW1 2534   2.862   2.399   0.892  0.0342  0.9306  1.1072
  845SOL    HW2 2535   2.765   2.345   1.017  1.1019  1.7859 -0.5288
  846SOL     OW 2536   2.936   1.722   2.511 -0.0029 -0.6804 -0.3273
  846SOL    HW1 2537   2.916   1.650   2.581  0.9024  0.8419  0.7252
  846SOL    HW2 2538   3.035   1.745   2.520  1.2201  1.4030  0.1341
  847SOL     OW 2539   1.212   0.587   1.587 -0.3260 -0.2703 -0.3903
  847SOL    HW1 2540   1.263   0.665   1.629 -1.7051  1.4904 -0.1134
  847SOL    HW2 2541   1.271   0.518   1.537  0.3721  1.7591 -2.4646
  848SOL     OW 2542   2.529   3.048   3.048 -0.2684  0.5118 -0.1845
  848SOL    HW1 2543   2.492   3.069   0.004 -1.3520  2.2702 -2.0900
  848SOL    HW2 2544   2.632   3.053   3.044  2.6234 -0.5465 -0.6749
  849SOL     OW 2545   0.795   2.875   2.863 -0.2009  0.1006 -0.0952
  849SOL    HW1 2546   0.740   2.927   2.931 -0.3365  0.5007 -0.6629
  849SOL    HW2 2547   0.889   2.917   2.862  4.5540  1.3009 -2.3586
  850SOL     OW 2548   1.172   2.863   1.311 -0.3200 -0.2035 -0.1349
  850SOL    HW1 2549   1.260   2.809   1.308  2.0218 -3.7606 -2.7844
  850SOL    HW2 2550   1.106   2.794   1.271 -2.3366 -0.2876 -1.0222
  851SOL     OW 2551   2.764   0.342   1.940  0.1468  0.2620 -0.2478
  851SOL    HW1 2552   2.787   0.436   1.965  0.2760  4.6901  0.9246
  851SOL    HW2 2553   2.837   0.301   1.889  2.8039  1.9241 -0.1062
  852SOL     OW 2554   2.197   1.004   2.444  0.2056  0.0334  0.3899
  852SOL    HW1 2555   2.142   1.041   2.366 -0.5620 -1.9060  0.4012
  852SOL    HW2 2556   2.143   1.013   2.531 -0.0638  0.6461 -1.1072
  853SOL     OW 2557   2.791   3.120   0.475 -0.7357  0.5579  0.4829
  853SOL    HW1 2558   2.784   0.081   0.446  1.6986  0.7911 -3.0035
  853SOL    HW2 2559   2.705   3.091   0.526 -1.0188 -0.7673  2.1460
  854SOL     OW 2560   2.211   1.178   2.100  0.2227 -0.5983  0.1828
  854SOL    HW1 2561   2.123   1.174   2.157 -2.1943  1.2211 -1.8709
  854SOL    HW2 2562   2.290   1.133   2.151  2.3650 -1.7954  1.7057
  855SOL     OW 2563   1.005   2.446   0.311  0.0391 -0.3921  0.0722
  855SOL    HW1 2564   0.946   2.386   0.362  0.1374  0.9194 -1.8313
  855SOL    HW2 2565   1.073   2.394   0.254 -0.4412  2.6393 -1.3568
  856SOL     OW 2566   0.014   0.291   2.674  0.4750  0.0338  0.5126
  856SOL    HW1 2567   0.067   0.206   2.698  0.2007  1.6548 -0.2614
  856SOL    HW2 2568   3.100   0.328   2.753  1.4242  2.2934 -1.4730
  857SOL     OW 2569   1.172   3.102   1.835  0.4357  0.1589 -0.1099
  857SOL    HW1 2570   1.134   0.055   1.797 -0.5552 -2.1351 -1.5300
  857SOL    HW2 2571   1.098   3.031   1.824 -3.7226  1.8489 -0.6479
  858SOL     OW 2572   2.427   2.283   1.714  0.1720  0.0751 -0.0856
  858SOL    HW1 2573   2.440   2.277   1.613  0.5544  1.1844 -0.8847
  858SOL    HW2 2574   2.378   2.198   1.743  1.0006  3.3624 -1.4846
  859SOL     OW 2575   1.098   2.432   1.761 -0.2431 -0.1623  0.4176
  859SOL    HW1 2576   1.068   2.480   1.844 -0.7737  0.2195 -1.9102
  859SOL    HW2 2577   1.171   2.484   1.711  1.1996 -0.0222  1.1057
  860SOL     OW 2578   2.345   2.675   3.128 -0.1862 -0.0136  0.2116
  860SOL    HW1 2579   2.338   2.626   3.043 -0.3364 -0.4746 -0.4901
  860SOL    HW2 2580   2.263   2.734   3.130  1.2933 -1.5671 -0.2381
  861SOL     OW 2581   2.267   2.829   0.850 -0.3335  0.5325  0.8063
  861SOL    HW1 2582   2.232   2.906   0.789 -1.0633  3.0934 -1.2753
  861SOL    HW2 2583   2.279   2.864   0.947 -0.2660 -0.5935  0.7359
  862SOL     OW 2584   1.838   3.047   2.439  0.1056  0.1118 -0.0102
  862SOL    HW1 2585   1.919   3.064   2.379  0.5805  1.3757  0.0256
  862SOL    HW2 2586   1.841   3.101   2.522 -1.7021 -1.4060 -3.6775
  863SOL     OW 2587   3.102   0.659   0.828 -0.2124  0.3355  0.5624
  863SOL    HW1 2588   3.079   0.760   0.816 -2.5046  2.4420 -1.2447
  863SOL    HW2 2589   0.026   0.628   0.748 -0.4719 -0.1276 -0.7343
  864SOL     OW 2590   0.366   2.782   2.156  0.5242  0.2023  0.3436
  864SOL    HW1 2591   0.434   2.716   2.121 -2.7664 -1.6827  0.0860
  864SOL    HW2 2592   0.352   2.778   2.257 -1.7406 -0.8480 -0.4392
  865SOL     OW 2593   0.559   1.333   2.863  0.1267 -0.3688  0.0983
  865SOL    HW1 2594   0.504   1.362   2.946 -1.3498 -0.6735  0.9007
  865SOL    HW2 2595   0.488   1.309   2.789  0.4393 -0.0930  0.8814
  866SOL     OW 2596   2.865   0.697   2.926 -0.0855 -0.3887  0.0066
  866SOL    HW1 2597   2.886   0.728   2.829 -1.0223 -0.2746 -2.1392
  866SOL    HW2 2598   2.948   0.656   2.974 -1.3184  1.0309 -1.8952
  867SOL     OW 2599   2.978   3.092   2.700 -0.9964 -0.1743 -0.3638
  867SOL    HW1 2600   3.055   0.012   2.739  2.9607  0.4239  2.6229
  867SOL    HW2 2601   2.998   2.993   2.715 -0.2281 -0.4177 -0.8974
  868SOL     OW 2602   1.096   0.026   0.616 -0.2290  0.4102 -0.0912
  868SOL    HW1 2603   1.139   0.091   0.682 -0.8754 -1.1074 -1.2687
  868SOL    HW2 2604   1.101   3.063   0.646  0.5225  0.5814  1.9617
  869SOL     OW 2605   1.418   1.613   0.801 -0.2253  0.2401 -0.5204
  869SOL    HW1 2606   1.450   1.678   0.730 -2.5513 -1.8268  3.1300
  869SOL    HW2 2607   1.414   1.665   0.890  0.4379  0.0228  1.5536
  870SOL     OW 2608   1.947   1.936   0.965  0.2471  0.1401 -0.1072
  870SOL    HW1 2609   2.031   1.982   0.921 -0.5127  0.2467 -1.9834
  870SOL    HW2 2610   1.967   1.840   0.986 -1.3584  1.6057 -2.8010
  871SOL     OW 2611   1.122   1.558   1.578  0.5108 -0.0370  0.8359
  871SOL    HW1 2612   1.186   1.636   1.581 -1.1843  1.2844 -1.0094
  871SOL    HW2 2613   1.033   1.588   1.534  0.0556  1.0829 -1.8619
  872SOL     OW 2614   0.871   1.595   1.485  0.0358 -0.1493 -0.2915
  872SOL    HW1 2615   0.818   1.657   1.421 -0.8590  0.4973 -2.5089
  872SOL    HW2 2616   0.835   1.499   1.482  0.1729 -0.0632  1.1854
  873SOL     OW 2617   1.235   0.987   2.647  0.0295  0.6232  0.1085
  873SOL    HW1 2618   1.287   1.051   2.700 -1.9118  2.6704  2.2677
  873SOL    HW2 2619   1.293   0.929   2.590  1.0987 -0.8888 -1.3192
  874SOL     OW 2620   0.051   1.626   1.248 -0.1479  0.1455 -0.0872
  874SOL    HW1 2621   0.086   1.628   1.154 -2.6701  0.7293  0.5314
  874SOL    HW2 2622   3.130   1.542   1.257  1.6229  0.4349  1.4665
  875SOL     OW 2623   2.847   3.014   0.980 -0.1588  0.4433  0.0063
  875SOL    HW1 2624   2.813   3.081   0.911 -0.6784 -1.4004 -2.5713
  875SOL    HW2 2625   2.846   2.923   0.935 -0.1796  0.2322  1.3044
  876SOL     OW 2626   0.977   0.704   2.908 -0.8868 -0.1979 -0.0119
  876SOL    HW1 2627   0.981   0.618   2.855 -1.1767  0.0771  2.2665
  876SOL    HW2 2628   0.974   0.684   3.011  0.3757  1.1715  2.7591
  877SOL     OW 2629   3.027   0.205   1.066  0.1377 -0.4983  0.4420
  877SOL    HW1 2630   2.977   0.178   1.148  1.1180  2.6805  0.9620
  877SOL    HW2 2631   3.118   0.163   1.057 -1.4175  0.3811  0.3719
  878SOL     OW 2632   1.672   2.343   3.114 -0.2734  0.1110 -0.4251
  878SOL    HW1 2633   1.728   2.390   0.050  0.5936 -1.8730  0.8632
  878SOL    HW2 2634   1.717   2.255   3.093 -1.4878  1.7151  0.2007
  879SOL     OW 2635   2.256   1.754   1.474 -0.1271 -0.4340  0.0497
  879SOL    HW1 2636   2.279   1.708   1.561 -0.3750  0.8958  3.8936
  879SOL    HW2 2637   2.297   1.850   1.482  0.4699  3.1587  2.9133
  880SOL     OW 2638   0.713   0.329   1.573  1.0935  0.0685 -0.5050
  880SOL    HW1 2639   0.794   0.382   1.605  0.9259  0.6956 -0.4675
  880SOL    HW2 2640   0.657   0.283   1.648 -0.6013  0.7887  0.6728
  881SOL     OW 2641   1.110   2.001   0.178  0.3556  0.5286 -0.5002
  881SOL    HW1 2642   1.203   2.024   0.216 -0.0353 -2.5172  1.4594
  881SOL    HW2 2643   1.103   1.901   0.169  1.4848 -0.5800 -0.8114
  882SOL     OW 2644   2.190   0.907   1.555  0.0890  0.0496  0.3960
  882SOL    HW1 2645   2.192   1.004   1.587 -1.6970  1.6420 -1.4851
  882SOL    HW2 2646   2.247   0.894   1.468  0.5148  0.9259 -3.4416
  883SOL     OW 2647   1.479   0.700   2.156 -0.1052 -0.5207  0.1696
  883SOL    HW1 2648   1.452   0.783   2.211 -1.2760  0.0935 -2.2324
  883SOL    HW2 2649   1.404   0.681   2.094  2.0971 -0.6149  0.3470
  884SOL     OW 2650   2.405   0.287   3.099 -0.1288 -1.0009 -0.3154
  884SOL    HW1 2651   2.346   0.282   3.016  0.7491 -1.3794  0.9497
  884SOL    HW2 2652   2.361   0.286   0.052  1.6985  1.4531  1.1447
  885SOL     OW 2653   0.177   2.008   0.607  0.1357 -0.2269  0.1106
  885SOL    HW1 2654   0.201   2.045   0.518 -0.8793  1.9657  2.4749
  885SOL    HW2 2655   0.077   2.003   0.629 -3.6000 -0.6904  3.0968
  886SOL     OW 2656   1.680   1.412   3.082  0.0863  0.0733  0.4773
  886SOL    HW1 2657   1.719   1.321   3.069 -2.0266  0.6258  1.1054
  886SOL    HW2 2658   1.668   1.431   0.042 -0.4927 -0.7261 -0.5148
  887SOL     OW 2659   1.485   0.417   1.702  0.2860  0.0219  0.1929
  887SOL    HW1 2660   1.572   0.474   1.702 -0.5869 -0.5666 -0.6824
  887SOL    HW2 2661   1.436   0.416   1.609  3.2603 -2.4971 -1.1615
  888SOL     OW 2662   3.053   1.186   1.561  0.3073  0.1373 -0.1828
  888SOL    HW1 2663   0.002   1.193   1.506 -1.3762  1.9010 -0.4269
  888SOL    HW2 2664   2.970   1.160   1.505 -2.2154 -1.8729 -1.0735
  889SOL     OW 2665   3.126   2.635   0.935 -0.3147  0.3119  0.6419
  889SOL    HW1 2666   0.045   2.725   0.941  1.0854  4.4648  0.6551
  889SOL    HW2 2667   0.048   2.550   0.934  0.7551 -0.4401  1.3660
  890SOL     OW 2668   0.314   2.765   2.433  0.4356  0.0853 -0.4525
  890SOL    HW1 2669   0.286   2.673   2.471  2.3739  0.1190 -0.8932
  890SOL    HW2 2670   0.329   2.833   2.508  0.1227  3.1330  0.5536
  891SOL     OW 2671   0.545   1.804   0.283  0.0294 -0.3827 -0.7495
  891SOL    HW1 2672   0.594   1.886   0.324  0.1639  0.6996  0.0171
  891SOL    HW2 2673   0.586   1.714   0.321  2.2140  0.3817  0.8586
  892SOL     OW 2674   3.106   2.363   1.288 -0.0839  0.1323  0.2321
  892SOL    HW1 2675   3.058   2.385   1.378 -3.8050  0.4018 -0.7587
  892SOL    HW2 2676   3.059   2.303   1.224  0.2130  0.2165 -0.0236
  893SOL     OW 2677   0.428   3.043   1.473  0.1995  0.1303  0.2634
  893SOL    HW1 2678   0.512   3.018   1.525  1.1178  2.3061 -2.3252
  893SOL    HW2 2679   0.417   0.007   1.490  0.4992  0.1157 -0.7977
  894SOL     OW 2680   2.570   1.551   0.873  0.4836  0.3210  0.0309
  894SOL    HW1 2681   2.573   1.650   0.862 -1.2491 -1.3913  0.9127
  894SOL    HW2 2682   2.600   1.509   0.788  0.6710  1.7453 -0.5876
  895SOL     OW 2683   2.465   2.681   1.500 -0.1549  0.2841 -0.3139
  895SOL    HW1 2684   2.430   2.594   1.459 -1.3881 -0.4857 -2.6877
  895SOL    HW2 2685   2.545   2.662   1.561 -3.2173  0.1343 -0.6983
  896SOL     OW 2686   0.831   0.193   1.363  0.9322  0.0605 -0.3288
  896SOL    HW1 2687   0.907   0.263   1.342  0.8528  0.2491  1.3628
  896SOL    HW2 2688   0.773   0.235   1.432 -0.0004 -3.4861 -1.2585
  897SOL     OW 2689   0.740   1.613   1.037  0.0482 -0.3524  0.2523
  897SOL    HW1 2690   0.709   1.686   0.971  0.6492 -1.1286  0.1632
  897SOL    HW2 2691   0.674   1.618   1.114  0.6969  0.6888  0.4587
  898SOL     OW 2692   1.741   2.641   1.584 -0.3050  0.4134  0.1848
  898SOL    HW1 2693   1.720   2.547   1.563 -0.9524  0.5204 -0.8816
  898SOL    HW2 2694   1.834   2.643   1.621  2.5267 -1.5185  1.5130
  899SOL     OW 2695   1.104   0.315   3.052 -0.1613 -0.3763  0.9905
  899SOL    HW1 2696   1.078   0.376   2.974  0.6767 -2.1493 -3.0935
  899SOL    HW2 2697   1.032   0.237   3.053 -0.0702 -2.0167 -0.6816
  900SOL     OW 2698   1.047   2.535   2.005 -0.6096  0.3233  0.1693
  900SOL    HW1 2699   1.052   2.632   2.019  0.4215 -2.1443 -2.0321
  900SOL    HW2 2700   0.971   2.484   2.056  0.9117 -0.9686  0.9327
  901SOL     OW 2701   0.891   2.163   0.237 -0.2741  0.3454  0.3659
  901SOL    HW1 2702   0.902   2.177   0.339 -0.8015  2.9960 -1.0089
  901SOL    HW2 2703   0.967   2.102   0.205  0.3742 -1.1930  0.2452
  902SOL     OW 2704   1.570   1.132   0.964 -0.8020  0.7519  0.4149
  902SOL    HW1 2705   1.535   1.199   1.030 -0.3820 -0.8431 -0.8598
  902SOL    HW2 2706   1.568   1.172   0.871  0.4296 -1.7230  1.0103
  903SOL     OW 2707   2.667   1.099   3.065  0.1506 -0.0197  0.0648
  903SOL    HW1 2708   2.717   1.188   3.082  0.8788  2.1571  1.2221
  903SOL    HW2 2709   2.581   1.100   3.117  0.2298 -0.0343  0.7714
  904SOL     OW 2710   0.935   1.123   0.226  0.5003  0.3553 -0.0602
  904SOL    HW1 2711   0.981   1.210   0.196 -0.1085 -2.8511  1.0872
  904SOL    HW2 2712   0.935   1.130   0.327 -0.8558 -1.0325 -0.3305
  905SOL     OW 2713   1.755   0.056   1.249 -0.3022 -0.2810 -0.3448
  905SOL    HW1 2714   1.717   0.135   1.295 -1.1367 -1.7231 -3.6756
  905SOL    HW2 2715   1.790   3.120   1.317  2.4012 -2.3239  1.6296
  906SOL     OW 2716   2.553   2.579   1.096 -0.0068  0.2274 -0.0990
  906SOL    HW1 2717   2.570   2.663   1.154  1.5823 -0.9058 -0.5625
  906SOL    HW2 2718   2.549   2.606   1.000 -3.8166  1.4464  1.9389
  907SOL     OW 2719   1.328   0.896   0.376  0.1998  0.0345 -0.2474
  907SOL    HW1 2720   1.425   0.859   0.372  2.4177 -0.8608  2.1452
  907SOL    HW2 2721   1.294   0.906   0.471 -0.1407 -0.0667 -0.4091
  908SOL     OW 2722   1.606   3.121   1.010  0.2714 -0.1897 -0.2699
  908SOL    HW1 2723   1.517   0.035   1.003 -1.0105 -1.2800  1.6819
  908SOL    HW2 2724   1.650   0.010   1.098 -0.4364 -0.6395 -0.9997
  909SOL     OW 2725   2.361   0.864   1.339  0.3746  0.4667 -0.2108
  909SOL    HW1 2726   2.319   0.947   1.303  2.6491 -1.2820 -0.3033
  909SOL    HW2 2727   2.314   0.778   1.302  0.4421  0.7398 -1.3945
  910SOL     OW 2728   2.167   0.825   2.088 -0.2142  0.5271 -0.0191
  910SOL    HW1 2729   2.137   0.801   1.994  0.7254  2.1769 -0.7370
  910SOL    HW2 2730   2.263   0.813   2.106  0.7375 -0.4653  1.9553
  911SOL     OW 2731   2.231   0.669   2.773  0.5880 -0.3132 -0.1693
  911SOL    HW1 2732   2.317   0.710   2.736  0.3540 -0.3703  0.3135
  911SOL    HW2 2733   2.231   0.681   2.874 -3.0072 -0.7268  0.9710
  912SOL     OW 2734   0.504   1.202   1.749  0.1628 -0.5568 -0.5229
  912SOL    HW1 2735   0.583   1.184   1.683  0.4360 -2.4261 -0.7024
  912SOL    HW2 2736   0.410   1.224   1.709  2.7373 -0.6893  0.9400
  913SOL     OW 2737   3.013   2.438   1.548  0.5140  0.0720  0.0561
  913SOL    HW1 2738   3.041   2.371   1.621  1.0256  2.2714  2.2375
  913SOL    HW2 2739   3.056   2.531   1.568 -2.5598 -2.3886  2.2219
  914SOL     OW 2740   1.616   0.767   1.841 -0.0127 -0.0721  0.2253
  914SOL    HW1 2741   1.696   0.826   1.837  1.6807 -0.3393 -2.1297
  914SOL    HW2 2742   1.627   0.683   1.788 -0.2271 -0.5375 -1.6283
  915SOL     OW 2743   2.429   1.002   1.091 -0.2642  0.3580  0.1283
  915SOL    HW1 2744   2.503   0.926   1.095 -0.2557 -0.8716  0.6211
  915SOL    HW2 2745   2.467   1.096   1.075 -1.9754 -0.1125  2.4259
  916SOL     OW 2746   1.708   2.295   1.003  0.6747  0.3884 -0.3571
  916SOL    HW1 2747   1.690   2.365   1.074 -0.0359 -1.3266 -1.5663
  916SOL    HW2 2748   1.672   2.205   1.031  0.7894 -2.4345 -1.1474
  917SOL     OW 2749   2.087   2.201   2.285  0.1232  0.3496 -0.5845
  917SOL    HW1 2750   2.019   2.236   2.357  1.9508  0.0090  0.5558
  917SOL    HW2 2751   2.071   2.249   2.196 -0.4107  2.5741  0.2782
  918SOL     OW 2752   1.940   2.569   2.439 -0.1011 -0.2874 -0.4629
  918SOL    HW1 2753   1.873   2.638   2.472 -1.1500 -2.5665  0.0795
  918SOL    HW2 2754   1.895   2.480   2.419 -0.4031 -0.5881  0.3890
  919SOL     OW 2755   1.272   0.112   1.482 -0.0507 -0.2242  0.3848
  919SOL    HW1 2756   1.335   0.034   1.498  0.2532 -0.5166 -0.6158
  919SOL    HW2 2757   1.219   0.126   1.567  1.3739  1.8814 -0.8345
  920SOL     OW 2758   3.023   0.403   2.451 -0.4880  0.1043  0.2614
  920SOL    HW1 2759   3.082   0.365   2.525 -0.2483  1.3232  2.6909
  920SOL    HW2 2760   3.016   0.334   2.374 -0.6418  1.7169 -2.0293
  921SOL     OW 2761   3.070   0.974   1.807 -0.3296  0.0189 -0.0657
  921SOL    HW1 2762   3.092   1.043   1.738 -1.1586  0.1931 -1.1599
  921SOL    HW2 2763   2.971   0.975   1.821  4.4169 -1.0492 -1.3323
  922SOL     OW 2764   2.304   2.497   0.457 -0.4215  0.0148 -0.0554
  922SOL    HW1 2765   2.247   2.582   0.476 -0.2359 -3.5884  2.8716
  922SOL    HW2 2766   2.344   2.496   0.363 -0.1066  0.1148 -3.8496
  923SOL     OW 2767   0.571   2.244   0.517 -0.0709 -0.4362 -0.3702
  923SOL    HW1 2768   0.648   2.275   0.576 -1.1627  0.3386 -0.0565
  923SOL    HW2 2769   0.483   2.253   0.570 -0.9235 -1.2210  0.7350
  924SOL     OW 2770   1.034   0.910   0.087  0.5458 -0.4873  0.3717
  924SOL    HW1 2771   0.995   0.979   0.150 -1.2704 -2.7298 -1.9944
  924SOL    HW2 2772   1.135   0.915   0.088 -1.3618  0.7302 -3.0947
  925SOL     OW 2773   2.604   0.815   1.090 -0.5468  0.0778  0.1083
  925SOL    HW1 2774   2.652   0.777   1.171 -0.5497 -1.8725  2.2787
  925SOL    HW2 2775   2.574   0.741   1.026 -0.9071  1.8163 -0.6544
  926SOL     OW 2776   0.360   0.283   1.259  0.5279  0.0840 -0.3263
  926SOL    HW1 2777   0.383   0.246   1.353 -1.6634 -1.6556  3.3546
  926SOL    HW2 2778   0.292   0.355   1.274 -0.3654 -1.5893 -0.8516
  927SOL     OW 2779   0.854   1.289   2.550  0.2341 -0.0738  0.4715
  927SOL    HW1 2780   0.818   1.350   2.625  0.9603 -0.8512 -0.4103
  927SOL    HW2 2781   0.776   1.235   2.503  4.2151  0.1294  1.5022
  928SOL     OW 2782   0.238   0.633   2.432  0.3455 -0.2355  0.3333
  928SOL    HW1 2783   0.156   0.616   2.372 -2.2189  2.4849 -0.4286
  928SOL    HW2 2784   0.248   0.566   2.505  0.0920 -1.1201  0.2718
  929SOL     OW 2785   2.748   3.008   1.244 -0.0264 -0.3386 -0.0693
  929SOL    HW1 2786   2.774   2.923   1.289  1.5666  2.8216  0.2524
  929SOL    HW2 2787   2.786   3.009   1.151  2.5926 -0.4522  2.3566
  930SOL     OW 2788   1.975   0.497   1.771  0.0220  0.6156 -0.0212
  930SOL    HW1 2789   2.028   0.414   1.807  0.8345 -3.9562 -0.7061
  930SOL    HW2 2790   1.994   0.582   1.818 -1.7404  0.8592 -0.8772
  931SOL     OW 2791   2.176   0.799   0.127 -0.2743  0.3249 -0.1827
  931SOL    HW1 2792   2.158   0.901   0.147  1.2031  2.2299  1.5668
  931SOL    HW2 2793   2.258   0.757   0.181  1.8596 -2.8780 -0.8969
  932SOL     OW 2794   2.077   1.159   0.439  0.4709 -0.0560 -0.6402
  932SOL    HW1 2795   2.119   1.066   0.468  0.2433 -0.9568 -0.9410
  932SOL    HW2 2796   2.022   1.198   0.513 -0.1898 -1.0490  1.5006
  933SOL     OW 2797   2.323   1.663   0.979 -0.4362 -0.3371  0.1193
  933SOL    HW1 2798   2.355   1.731   1.051  0.0218 -2.1436 -1.1252
  933SOL    HW2 2799   2.396   1.607   0.936  1.4984  2.0540  0.9427
  934SOL     OW 2800   2.017   1.073   2.636 -0.5884 -0.0289  0.1847
  934SOL    HW1 2801   1.999   1.111   2.728 -0.1606 -0.9365 -0.2098
  934SOL    HW2 2802   2.018   0.972   2.645  0.2451 -2.2200  1.6283
  935SOL     OW 2803   0.299   0.866   0.641  0.2081 -0.2516  0.2685
  935SOL    HW1 2804   0.374   0.887   0.574 -1.0448 -0.3131 -1.5562
  935SOL    HW2 2805   0.253   0.950   0.660 -1.5715 -4.4456 -0.8448
  936SOL     OW 2806   0.650   0.043   0.660  0.1227  0.5059  0.7241
  936SOL    HW1 2807   0.640   0.078   0.756  0.1404 -0.4379 -0.9007
  936SOL    HW2 2808   0.638   0.116   0.586 -0.6965  1.5586 -0.7547
  937SOL     OW 2809   2.881   3.017   1.677  0.7156  0.3401 -0.1088
  937SOL    HW1 2810   2.980   3.038   1.651  0.2898 -0.2664  0.8736
  937SOL    HW2 2811   2.880   2.972   1.769 -0.8713  0.0518  0.0717
  938SOL     OW 2812   0.049   2.260   3.035  0.4497  0.0086 -0.1333
  938SOL    HW1 2813   3.119   2.324   2.986 -0.5530  1.6117 -1.0861
  938SOL    HW2 2814   0.089   2.311   3.115  0.6402 -0.8533  2.0486
  939SOL     OW 2815   1.215   1.429   1.117 -0.5026 -0.3143  0.3388
  939SOL    HW1 2816   1.132   1.377   1.146 -2.9128 -0.6617  0.8128
  939SOL    HW2 2817   1.184   1.499   1.050  0.6435 -0.2823 -1.5225
  940SOL     OW 2818   3.062   0.576   3.085  0.1421 -0.1171 -0.1811
  940SOL    HW1 2819   3.043   0.482   3.043  0.1951 -1.8639  1.0370
  940SOL    HW2 2820   0.002   0.568   0.012 -1.5970  0.5067 -0.6672
  941SOL     OW 2821   2.229   0.415   2.658  0.5437  0.5012  0.0590
  941SOL    HW1 2822   2.270   0.431   2.568  0.4712  0.4007  4.9154
  941SOL    HW2 2823   2.240   0.499   2.708 -0.3157 -2.5577  0.5035
  942SOL     OW 2824   1.643   0.490   0.966  0.1232 -0.0457 -0.1673
  942SOL    HW1 2825   1.720   0.430   0.944  1.6490 -1.3422 -3.4920
  942SOL    HW2 2826   1.656   0.583   0.928  0.5750  0.6969 -1.1726
  943SOL     OW 2827   1.221   1.013   1.921 -0.0830  0.0159  0.0269
  943SOL    HW1 2828   1.183   0.931   1.973 -2.5727 -3.0259 -0.4633
  943SOL    HW2 2829   1.149   1.067   1.876 -1.4696  0.9020  0.3189
  944SOL     OW 2830   1.896   0.862   1.566  0.0990  0.0599  0.1127
  944SOL    HW1 2831   1.843   0.792   1.516 -1.9058 -0.9216  0.0959
  944SOL    HW2 2832   1.999   0.865   1.549  0.4819 -0.1834  1.8755
  945SOL     OW 2833   2.833   0.126   2.891  0.2036 -0.5459 -0.7963
  945SOL    HW1 2834   2.865   0.097   2.799  0.5294 -1.6704 -1.6844
  945SOL    HW2 2835   2.800   0.046   2.945 -1.0560 -0.7364 -1.2724
  946SOL     OW 2836   2.760   1.440   1.859  0.1192 -0.2756  0.4903
  946SOL    HW1 2837   2.851   1.398   1.886 -0.0945 -0.5450 -0.0797
  946SOL    HW2 2838   2.776   1.519   1.796  1.3264  0.9835  1.3430
  947SOL     OW 2839   1.135   3.032   0.111  0.5570 -0.0968  0.2688
  947SOL    HW1 2840   1.045   2.988   0.138 -4.0895 -1.6119 -0.7273
  947SOL    HW2 2841   1.155   3.109   0.174  1.3780  5.7325  0.9770
  948SOL     OW 2842   2.406   1.815   1.190  0.1906 -0.1274 -0.7702
  948SOL    HW1 2843   2.358   1.838   1.277 -0.5893 -1.0075 -0.0748
  948SOL    HW2 2844   2.496   1.772   1.206 -2.0029  1.5819 -2.6619
  949SOL     OW 2845   0.264   1.272   0.023 -0.3786  0.4056 -0.5379
  949SOL    HW1 2846   0.231   1.208   3.092  1.8656  3.1710  0.9930
  949SOL    HW2 2847   0.307   1.354   3.114  0.7416 -0.5778  0.9127
  950SOL     OW 2848   0.568   2.510   1.188  0.0009 -0.6529  0.3464
  950SOL    HW1 2849   0.488   2.548   1.238  2.7866 -0.5175 -0.9197
  950SOL    HW2 2850   0.560   2.549   1.094 -0.8517 -2.9196  2.5494
  951SOL     OW 2851   0.778   1.471   2.757  0.1794 -0.6175  0.0177
  951SOL    HW1 2852   0.820   1.513   2.845  1.4764 -1.7878  0.1568
  951SOL    HW2 2853   0.686   1.432   2.775 -0.4763  1.5227  0.4128
  952SOL     OW 2854   0.638   0.842   0.554 -0.1521 -0.2146 -0.1234
  952SOL    HW1 2855   0.590   0.765   0.595 -0.0878  0.2501  1.4227
  952SOL    HW2 2856   0.634   0.917   0.622  0.5703  2.2492  2.6164
  953SOL     OW 2857   2.609   2.918   2.484 -0.0476 -0.3159  0.0388
  953SOL    HW1 2858   2.653   2.824   2.470 -0.6396 -1.6769 -3.3675
  953SOL    HW2 2859   2.679   2.995   2.508 -2.2759  0.7862 -0.0192
  954SOL     OW 2860   1.833   0.901   0.687 -0.1188  0.4337 -0.0193
  954SOL    HW1 2861   1.847   0.975   0.757 -2.0421 -1.7508 -1.5851
  954SOL    HW2 2862   1.874   0.912   0.598  1.5704 -1.5015  2.9174
  955SOL     OW 2863   0.679   2.049   0.369 -0.1083 -0.5344  0.2246
  955SOL    HW1 2864   0.741   2.087   0.298 -1.7825 -2.2375  0.6641
  955SOL    HW2 2865   0.637   2.126   0.424 -0.2251 -0.2021 -0.7543
  956SOL     OW 2866   2.396   0.502   2.020  0.3163  0.3483  0.6137
  956SOL    HW1 2867   2.298   0.471   2.017  0.4226 -1.3112 -0.7934
  956SOL    HW2 2868   2.452   0.457   2.094  0.0909 -1.2603  0.8951
  957SOL     OW 2869   2.057   2.332   2.028  0.5766  0.3437  0.2495
  957SOL    HW1 2870   2.146   2.364   1.988 -4.9056  0.2254 -0.5476
  957SOL    HW2 2871   2.023   2.256   1.964  2.3274  1.1008 -2.9814
  958SOL     OW 2872   1.478   1.116   1.322  0.2527  0.0094 -0.2997
  958SOL    HW1 2873   1.452   1.167   1.404 -0.6593 -0.0051 -0.1076
  958SOL    HW2 2874   1.505   1.183   1.250  1.6649  1.7629 -1.7253
  959SOL     OW 2875   1.944   1.875   2.073 -0.4487 -0.0600 -0.5686
  959SOL    HW1 2876   1.868   1.845   2.013  0.3631 -0.5944  4.2539
  959SOL    HW2 2877   1.922   1.839   2.167 -1.5930 -0.4370  1.2645
  960SOL     OW 2878   0.753   0.880   2.775  0.2411  0.0132 -0.1394
  960SOL    HW1 2879   0.678   0.864   2.703 -0.9285  0.8140 -0.9186
  960SOL    HW2 2880   0.810   0.799   2.797 -1.3517 -1.0824  0.0437
  961SOL     OW 2881   0.145   1.121   2.981  0.1859  0.1649 -0.2078
  961SOL    HW1 2882   0.084   1.041   2.993 -1.6881  0.4807  0.8628
  961SOL    HW2 2883   0.208   1.107   2.899 -0.2828  0.4223 -0.8684
  962SOL     OW 2884   0.884   1.674   2.615  0.2337  0.2461 -0.2684
  962SOL    HW1 2885   0.851   1.588   2.662 -0.3618  1.3045 -1.7537
  962SOL    HW2 2886   0.816   1.752   2.612 -0.3489  3.0049  0.1970
  963SOL     OW 2887   3.054   2.075   0.050  0.3802 -0.2662 -0.1313
  963SOL    HW1 2888   2.958   2.063   0.017  2.1215 -1.6035 -1.6194
  963SOL    HW2 2889   3.102   2.144   3.127 -0.2075  1.4120 -0.6756
  964SOL     OW 2890   0.938   1.946   1.974 -0.3642 -0.8362  0.5560
  964SOL    HW1 2891   0.997   1.925   2.055  2.1228  1.1348 -1.2486
  964SOL    HW2 2892   0.921   1.865   1.917 -1.1798  1.7207 -1.3712
  965SOL     OW 2893   1.629   2.052   0.602  0.0284  0.4603 -0.0013
  965SOL    HW1 2894   1.674   2.141   0.599 -1.5385 -2.3348 -1.4406
  965SOL    HW2 2895   1.696   1.984   0.639 -0.8167  0.0391  0.6622
  966SOL     OW 2896   3.098   1.696   3.097  0.2292 -0.1445 -0.0064
  966SOL    HW1 2897   0.037   1.745   0.009  2.7787  4.2666  0.4972
  966SOL    HW2 2898   3.089   1.598   3.127  1.0632 -0.9566 -0.3867
  967SOL     OW 2899   2.218   0.075   2.288 -0.2899 -0.0684  0.0629
  967SOL    HW1 2900   2.311   0.038   2.319  4.1262 -1.0165  0.2061
  967SOL    HW2 2901   2.160   3.131   2.286 -0.6409 -1.2286  0.6724
  968SOL     OW 2902   0.921   0.513   0.275 -0.3037  0.6216  0.4676
  968SOL    HW1 2903   0.908   0.594   0.333  0.5732 -2.9418 -1.2603
  968SOL    HW2 2904   0.976   0.533   0.192  1.4983 -0.9689 -1.8340
  969SOL     OW 2905   0.499   1.667   2.146  0.1059 -0.0333 -0.6712
  969SOL    HW1 2906   0.551   1.744   2.191  3.5372  2.2516 -1.0361
  969SOL    HW2 2907   0.559   1.609   2.084  1.4061  0.1604 -0.0474
  970SOL     OW 2908   1.960   2.707   1.255 -0.2388 -0.5734 -0.4882
  970SOL    HW1 2909   2.013   2.636   1.201  1.9479 -2.9751 -1.6352
  970SOL    HW2 2910   1.984   2.699   1.352 -2.3944 -0.7367 -0.2793
  971SOL     OW 2911   2.211   2.340   0.831 -0.2879 -0.0626 -0.1692
  971SOL    HW1 2912   2.179   2.438   0.840  0.2478  1.6358  1.7437
  971SOL    HW2 2913   2.295   2.335   0.889  2.1410  1.6987  1.7504
  972SOL     OW 2914   0.132   1.076   2.411  0.6023 -0.2372  0.2277
  972SOL    HW1 2915   0.135   1.126   2.320 -0.5042  0.0670 -1.8409
  972SOL    HW2 2916   0.225   1.035   2.433 -2.7502 -1.7257  0.2916
  973SOL     OW 2917   0.520   0.031   0.281 -0.6653  0.2406  0.1438
  973SOL    HW1 2918   0.555   0.102   0.346 -0.2239  2.4138  2.4725
  973SOL    HW2 2919   0.438   0.067   0.235 -1.0608 -1.6075  1.0600
  974SOL     OW 2920   2.407   0.930   1.877 -0.1868 -0.0581  0.0460
  974SOL    HW1 2921   2.332   0.987   1.840 -0.0867 -2.4629  0.1722
  974SOL    HW2 2922   2.424   0.949   1.973 -0.5852  1.9315 -2.2064
  975SOL     OW 2923   3.059   3.076   0.535  0.6500  0.4526  0.1560
  975SOL    HW1 2924   2.963   3.093   0.511  0.0411  0.2226  0.4369
  975SOL    HW2 2925   3.065   2.985   0.589  1.7002 -0.3368  2.5177
  976SOL     OW 2926   0.050   1.919   1.060  0.0018  0.2384  0.0527
  976SOL    HW1 2927   0.040   1.937   1.154  3.2705 -1.5991 -1.5797
  976SOL    HW2 2928   0.075   1.825   1.036 -0.5584  2.7334  0.9281
  977SOL     OW 2929   0.995   1.871   0.516  0.1771 -0.3817  0.2282
  977SOL    HW1 2930   0.913   1.812   0.532 -1.1978  1.5911 -0.0910
  977SOL    HW2 2931   0.959   1.960   0.485 -1.9306  0.4367  0.1852
  978SOL     OW 2932   0.344   0.793   0.195  0.3054  0.5766  0.0374
  978SOL    HW1 2933   0.367   0.789   0.094 -0.9185  0.0163  0.9245
  978SOL    HW2 2934   0.243   0.792   0.216 -1.8924  0.8428 -0.7552
  979SOL     OW 2935   1.835   1.627   0.717 -0.0837 -0.2130  0.0965
  979SOL    HW1 2936   1.936   1.625   0.694  3.0741 -0.6392  1.1514
  979SOL    HW2 2937   1.817   1.594   0.809 -2.4048  1.2671 -0.5004
  980SOL     OW 2938   0.484   2.047   2.116 -0.4807  0.0888 -0.2106
  980SOL    HW1 2939   0.536   2.004   2.198  1.7460 -0.1068  0.4617
  980SOL    HW2 2940   0.529   2.021   2.030 -1.3525 -1.5611  1.1398
  981SOL     OW 2941   2.018   1.161   2.907 -0.1978 -0.1347  0.0913
  981SOL    HW1 2942   2.008   1.261   2.903  1.2502 -0.5592  0.5574
  981SOL    HW2 2943   2.109   1.135   2.946  2.2491 -0.1790  0.5001
  982SOL     OW 2944   2.957   2.687   1.774  0.1257 -0.1928  0.0918
  982SOL    HW1 2945   2.964   2.772   1.832  0.3734 -0.6216 -1.6476
  982SOL    HW2 2946   3.020   2.689   1.690 -0.3873 -0.6904 -0.6169
  983SOL     OW 2947   1.606   0.185   1.774  0.1966 -0.1358 -0.0104
  983SOL    HW1 2948   1.549   0.264   1.739 -1.3462  0.0203  1.1556
  983SOL    HW2 2949   1.550   0.102   1.793  0.6453  1.7494  1.3766
  984SOL     OW 2950   2.007   2.954   2.737 -0.2084 -0.4681  0.0711
  984SOL    HW1 2951   2.067   2.901   2.673  1.1375 -0.8646 -5.4392
  984SOL    HW2 2952   2.030   2.919   2.828 -1.1099  0.2707 -2.0215
  985SOL     OW 2953   1.595   1.413   1.773 -0.4103 -0.2802 -0.1825
  985SOL    HW1 2954   1.542   1.364   1.700  0.5994 -1.2908  0.9403
  985SOL    HW2 2955   1.634   1.346   1.841  0.0488 -1.8938  0.7150
  986SOL     OW 2956   2.118   2.751   2.362  0.0923  0.7394 -0.1933
  986SOL    HW1 2957   2.178   2.767   2.446 -0.9137  0.8306  1.2162
  986SOL    HW2 2958   2.055   2.671   2.380 -0.2189 -2.2132  0.2959
  987SOL     OW 2959   2.791   1.837   2.802 -0.5134 -0.3233  0.0465
  987SOL    HW1 2960   2.852   1.778   2.747  1.3827 -0.8697 -0.1639
  987SOL    HW2 2961   2.822   1.936   2.808  3.2907  0.2286 -1.4688
  988SOL     OW 2962   3.085   0.762   1.520  0.4407 -0.2110 -0.1786
  988SOL    HW1 2963   3.023   0.760   1.603 -2.7977 -0.4585  0.5644
  988SOL    HW2 2964   3.040   0.793   1.431  2.6471 -1.8281 -0.7595
  989SOL     OW 2965   1.946   1.129   1.424  0.5494 -0.1736  0.0178
  989SOL    HW1 2966   2.020   1.092   1.368 -1.0171  0.6856  0.0718
  989SOL    HW2 2967   1.903   1.055   1.486 -2.3455 -2.9809  2.5629
  990SOL     OW 2968   2.786   0.709   0.209 -0.0339  0.0564 -0.1138
  990SOL    HW1 2969   2.810   0.776   0.136 -0.1463  2.2889  1.0276
  990SOL    HW2 2970   2.768   0.611   0.178  0.2809 -2.9898 -2.1454
  991SOL     OW 2971   0.483   1.719   0.015 -0.2817  0.1643  0.0099
  991SOL    HW1 2972   0.524   1.791   3.086  0.2612  2.5539  0.9320
  991SOL    HW2 2973   0.481   1.747   0.114  0.8120  0.2720  0.1307
  992SOL     OW 2974   2.358   1.640   1.710  0.3930 -0.3161  0.4260
  992SOL    HW1 2975   2.263   1.629   1.742 -1.2497 -2.4965 -0.5837
  992SOL    HW2 2976   2.418   1.670   1.782 -1.4684 -2.0493 -0.6949
  993SOL     OW 2977   0.578   2.924   0.694 -0.4749  0.9574  0.1268
  993SOL    HW1 2978   0.599   3.023   0.685  1.2619 -1.5034  0.7227
  993SOL    HW2 2979   0.644   2.860   0.645 -0.0335 -0.8066 -1.2211
  994SOL     OW 2980   2.647   2.209   1.552  0.4355  0.4803 -0.3412
  994SOL    HW1 2981   2.671   2.232   1.649  1.0701 -1.2994 -1.4610
  994SOL    HW2 2982   2.641   2.106   1.539 -0.6050  1.3443  2.0139
  995SOL     OW 2983   2.126   1.934   2.343  0.2081 -0.5507 -0.0141
  995SOL    HW1 2984   2.110   2.038   2.341  0.4387  0.8391 -0.7276
  995SOL    HW2 2985   2.109   1.899   2.252  0.2669 -0.9840  1.6184
  996SOL     OW 2986   1.875   1.764   0.017  0.2728  0.6331 -0.5517
  996SOL    HW1 2987   1.799   1.766   0.083 -2.4825 -0.8202 -0.0886
  996SOL    HW2 2988   1.961   1.796   0.058 -1.2234 -1.0936 -1.6876
  997SOL     OW 2989   1.341   1.390   2.458  0.0424  0.3894  0.2983
  997SOL    HW1 2990   1.256   1.373   2.513  1.3658 -3.1972 -0.8568
  997SOL    HW2 2991   1.373   1.486   2.474  0.9068  3.1583 -2.2351
  998SOL     OW 2992   2.944   2.503   0.774 -1.2300  0.5594  0.0225
  998SOL    HW1 2993   2.997   2.433   0.721  1.0424  1.3785 -0.2718
  998SOL    HW2 2994   2.997   2.565   0.832 -0.9092 -1.1165 -1.9703
  999SOL     OW 2995   0.231   2.818   0.577 -0.8409 -0.0082  0.4781
  999SOL    HW1 2996   0.256   2.719   0.559 -2.0032 -3.0137 -1.8910
  999SOL    HW2 2997   0.287   2.884   0.525  0.4139  0.6774  2.2126
 1000SOL     OW 2998   1.117   3.017   2.959 -0.1736  0.0538  0.8394
 1000SOL    HW1 2999   1.145   3.005   3.058 -0.9376 -0.8649 -0.3839
 1000SOL    HW2 3000   1.059   3.099   2.944 -3.5040 -0.3802  1.0083
   3.13695   3.13695   3.13695
