1000 SPC/Fw water molecules t= 207.00000 step= 207000
 3000
    1SOL     OW    1   2.850   3.080   0.799 -0.0967  0.3143 -0.0988
    1SOL    HW1    2   2.916   3.020   0.750  2.1627 -0.6680  0.3363
    1SOL    HW2    3   2.844   0.065   0.746 -0.4607  1.0109  0.0918
    2SOL     OW    4   1.812   1.625   2.045  0.7666  0.2315  0.3271
    2SOL    HW1    5   1.759   1.701   2.090 -1.9633  0.5127 -1.1924
    2SOL    HW2    6   1.864   1.585   2.123  0.6534  1.5355 -0.6326
    3SOL     OW    7   1.954   2.649   2.287 -0.8030 -0.4477  0.5232
    3SOL    HW1    8   1.920   2.658   2.192  2.1434 -0.4406 -1.8589
    3SOL    HW2    9   1.946   2.557   2.324 -0.2403  3.1823 -1.2211
    4SOL     OW   10   1.885   1.766   2.393 -0.5721  0.2156  0.2265
    4SOL    HW1   11   1.898   1.801   2.298  0.0600 -0.7864  1.2449
    4SOL    HW2   12   1.970   1.772   2.450  0.0288 -0.3327 -1.2947
    5SOL     OW   13   1.329   0.602   1.754 -0.3929  0.3418 -0.3864
    5SOL    HW1   14   1.276   0.615   1.666 -2.1683  0.7838 -4.7339
    5SOL    HW2   15   1.367   0.512   1.767  2.6164 -0.0940  2.5320
    6SOL     OW   16   2.678   0.756   2.770  0.5471  0.5905  0.0490
    6SOL    HW1   17   2.759   0.694   2.766 -2.1797 -1.7468  1.6992
    6SOL    HW2   18   2.592   0.701   2.769 -3.2295  0.9085  3.5825
    7SOL     OW   19   0.727   1.435   1.413  0.1366 -0.4155  0.2546
    7SOL    HW1   20   0.741   1.523   1.364 -3.7627 -0.9986  3.5822
    7SOL    HW2   21   0.636   1.394   1.390 -2.6485  0.1342 -1.2556
    8SOL     OW   22   1.289   0.593   0.861  0.1435 -0.0491  0.0726
    8SOL    HW1   23   1.219   0.571   0.787 -0.5113  0.7386 -0.5333
    8SOL    HW2   24   1.288   0.515   0.929  0.2364 -1.1712 -0.8319
    9SOL     OW   25   1.005   0.683   2.693 -0.0103  0.1566 -0.1723
    9SOL    HW1   26   1.062   0.685   2.779 -1.5379  3.0078  3.0480
    9SOL    HW2   27   1.060   0.725   2.622 -0.1802  0.5988  1.6209
   10SOL     OW   28   0.269   2.494   0.257  0.0449 -0.0877  0.1854
   10SOL    HW1   29   0.318   2.425   0.209  0.3865  4.3111  1.2215
   10SOL    HW2   30   0.263   2.572   0.191  0.0541 -0.5253 -1.6998
   11SOL     OW   31   0.685   1.288   0.010  0.4131  0.2625 -0.0834
   11SOL    HW1   32   0.670   1.217   3.035  1.4670 -0.1860  1.6376
   11SOL    HW2   33   0.591   1.306   0.046 -3.9043  1.0246  2.2665
   12SOL     OW   34   0.455   0.288   1.349  0.3017 -0.1370 -0.0610
   12SOL    HW1   35   0.435   0.209   1.291 -1.6096  1.4173  1.1927
   12SOL    HW2   36   0.520   0.262   1.425 -0.1941 -0.1130 -2.1888
   13SOL     OW   37   0.948   0.118   0.304  0.1784 -0.3487  0.8647
   13SOL    HW1   38   1.003   0.098   0.224  0.7611 -0.0829  1.7495
   13SOL    HW2   39   0.905   0.033   0.345 -1.0850 -1.6431  2.4263
   14SOL     OW   40   1.297   2.397   1.338  0.6732  0.2908 -0.1648
   14SOL    HW1   41   1.195   2.398   1.343 -1.4447  0.6029  0.5386
   14SOL    HW2   42   1.333   2.412   1.432 -1.5093 -1.1924 -2.4582
   15SOL     OW   43   2.714   0.826   1.960  0.2617 -0.0466 -0.3723
   15SOL    HW1   44   2.740   0.732   1.986  2.3915  1.2919  1.6846
   15SOL    HW2   45   2.711   0.836   1.859 -0.5025  1.9584  0.3547
   16SOL     OW   46   1.298   2.787   0.048 -0.0301 -0.1688 -0.3310
   16SOL    HW1   47   1.337   2.855   0.120 -0.1500 -0.1792 -0.1967
   16SOL    HW2   48   1.297   2.693   0.082  1.3863  1.1406 -1.3415
   17SOL     OW   49   0.846   0.187   1.377  0.7797  0.3841  0.6711
   17SOL    HW1   50   0.782   0.147   1.309  2.0942 -0.7935 -0.5163
   17SOL    HW2   51   0.842   0.289   1.369  3.0747 -3.1901  0.7072
   18SOL     OW   52   1.132   0.717   0.064 -0.3501  0.6770 -0.1075
   18SOL    HW1   53   1.228   0.734   0.091 -1.3538 -2.1140  0.0638
   18SOL    HW2   54   1.078   0.796   0.100 -1.9049  2.9614  3.1081
   19SOL     OW   55   2.061   1.607   0.001  0.5455  0.3762 -0.6156
   19SOL    HW1   56   2.011   1.693   3.079  0.0330 -3.0038 -2.4874
   19SOL    HW2   57   2.001   1.531   3.069 -1.6864 -0.1941 -2.0041
   20SOL     OW   58   1.982   1.786   1.649 -0.0938  0.1872 -0.0367
   20SOL    HW1   59   1.941   1.838   1.726  1.0448 -1.2442 -2.1481
   20SOL    HW2   60   1.904   1.747   1.590 -2.5617  1.5954 -0.4342
   21SOL     OW   61   0.874   1.164   0.144  0.9644 -0.0728 -0.2985
   21SOL    HW1   62   0.886   1.234   0.216 -0.3520  4.5979  3.0560
   21SOL    HW2   63   0.804   1.202   0.075 -0.2216  2.0402 -1.9673
   22SOL     OW   64   2.300   3.059   1.258  0.3542  0.2589  0.3257
   22SOL    HW1   65   2.206   3.075   1.216 -2.7240  0.4821  0.7138
   22SOL    HW2   66   2.333   2.968   1.226 -2.4654 -0.5890  0.8454
   23SOL     OW   67   0.150   0.853   1.679  0.0130 -0.1169  0.8337
   23SOL    HW1   68   0.181   0.764   1.633  2.2074  0.8701  0.1959
   23SOL    HW2   69   0.084   0.900   1.619 -1.0154  0.2051 -1.0115
   24SOL     OW   70   2.115   2.494   1.149  0.0053 -0.4683  0.1310
   24SOL    HW1   71   2.174   2.556   1.096  1.1680  1.6928 -1.2878
   24SOL    HW2   72   2.035   2.455   1.098  1.3253  0.0769  2.2302
   25SOL     OW   73   1.977   2.974   2.851 -0.7575  0.1796  0.9700
   25SOL    HW1   74   1.876   2.954   2.860 -1.0296 -1.0875 -0.5171
   25SOL    HW2   75   2.015   2.930   2.771  2.1826  1.8826 -0.7125
   26SOL     OW   76   1.565   2.609   0.209  0.4656  0.2198  0.0330
   26SOL    HW1   77   1.617   2.559   0.279 -2.0902  0.0742  0.0753
   26SOL    HW2   78   1.461   2.604   0.224 -1.2437  0.6529  0.4691
   27SOL     OW   79   0.609   1.748   2.580 -0.0962 -0.3487  0.3755
   27SOL    HW1   80   0.516   1.793   2.588 -0.2662  1.5837 -0.2812
   27SOL    HW2   81   0.602   1.672   2.516  0.8246  0.6009  2.0908
   28SOL     OW   82   0.018   1.232   1.576 -0.5409 -0.1352  0.0395
   28SOL    HW1   83   3.064   1.291   1.517  1.4042  1.3636  0.7854
   28SOL    HW2   84   0.117   1.249   1.564 -2.0149  1.2358  0.1205
   29SOL     OW   85   2.605   2.236   2.350  0.0596 -0.0494 -0.4348
   29SOL    HW1   86   2.691   2.179   2.360  1.9647 -1.4605  0.1934
   29SOL    HW2   87   2.574   2.257   2.257  0.9704  1.7026 -0.0783
   30SOL     OW   88   1.381   3.002   0.178 -0.3110  0.3203  0.4365
   30SOL    HW1   89   1.379   3.074   0.104  0.2267  0.7606  1.1301
   30SOL    HW2   90   1.345   3.037   0.266  0.7542 -1.1916  0.3215
   31SOL     OW   91   2.649   2.526   1.758  0.4313 -0.6586 -0.0882
   31SOL    HW1   92   2.601   2.616   1.784 -1.4242  0.8818 -0.4599
   31SOL    HW2   93   2.743   2.530   1.804  2.8423  1.2594  1.9080
   32SOL     OW   94   1.261   1.120   1.475 -0.1318  0.5697  0.4564
   32SOL    HW1   95   1.293   1.214   1.493  0.8582  2.5806  0.6142
   32SOL    HW2   96   1.162   1.100   1.474  1.8600 -0.9705 -0.9535
   33SOL     OW   97   0.031   2.602   2.601 -0.3032  0.3713 -0.4442
   33SOL    HW1   98   0.086   2.625   2.519 -2.9784 -0.9500  2.1576
   33SOL    HW2   99   3.035   2.617   2.581 -2.0130 -0.3940  1.6129
   34SOL     OW  100   1.842   0.324   0.795 -0.5642 -0.0842 -0.0054
   34SOL    HW1  101   1.927   0.376   0.761  0.3543  0.6951  2.3215
   34SOL    HW2  102   1.873   0.228   0.812  0.1684 -2.1063  2.1025
   35SOL     OW  103   2.280   0.096   0.771  0.2994 -0.1566  0.8705
   35SOL    HW1  104   2.327   0.014   0.804 -2.4219  0.6748 -1.3091
   35SOL    HW2  105   2.306   0.119   0.673  0.1692  1.4513 -3.0891
   36SOL     OW  106   2.094   2.867   2.624 -0.1032 -0.6461 -0.0938
   36SOL    HW1  107   2.137   2.936   2.558  0.5940  1.4089 -1.2506
   36SOL    HW2  108   2.005   2.831   2.590 -0.5330  0.0019 -0.6493
   37SOL     OW  109   1.140   2.499   2.550 -0.0518  0.1015  0.4200
   37SOL    HW1  110   1.045   2.515   2.583 -0.0807 -1.1841  1.5273
   37SOL    HW2  111   1.211   2.559   2.594 -2.5198  1.5648 -1.8333
   38SOL     OW  112   2.763   0.298   2.680 -0.1450 -0.1996 -0.4215
   38SOL    HW1  113   2.682   0.320   2.741 -1.1852  0.5249 -1.4330
   38SOL    HW2  114   2.832   0.248   2.736 -1.7013  0.7925  1.0218
   39SOL     OW  115   2.202   1.744   1.804  0.0431  0.8545 -0.3270
   39SOL    HW1  116   2.264   1.829   1.798  1.7161  0.9988 -1.2689
   39SOL    HW2  117   2.126   1.744   1.730 -0.3192  1.6372  0.4475
   40SOL     OW  118   0.265   2.955   2.665  0.0899 -0.9236 -0.9751
   40SOL    HW1  119   0.331   3.027   2.641 -2.0734 -1.9961 -0.9931
   40SOL    HW2  120   0.218   2.971   2.758 -1.4059 -1.3884  2.4785
   41SOL     OW  121   1.666   0.496   0.703  0.4012 -0.1819 -0.2665
   41SOL    HW1  122   1.651   0.573   0.764  0.6053 -0.2504 -1.7240
   41SOL    HW2  123   1.739   0.433   0.737  1.5033 -3.5842  0.1400
   42SOL     OW  124   0.585   0.634   1.312 -0.6492  0.1124  0.0692
   42SOL    HW1  125   0.496   0.588   1.337  3.0599 -0.6115  1.2141
   42SOL    HW2  126   0.599   0.709   1.375 -1.0232 -2.4252 -0.2343
   43SOL     OW  127   2.706   1.479   2.234  0.1674 -0.3426  0.0555
   43SOL    HW1  128   2.738   1.469   2.139 -0.0958 -1.6743  0.0902
   43SOL    HW2  129   2.654   1.401   2.277 -1.7761 -1.1778  0.0008
   44SOL     OW  130   2.854   2.835   0.516  0.3879 -0.2674  0.0926
   44SOL    HW1  131   2.818   2.931   0.530 -2.2058 -1.3152  0.2626
   44SOL    HW2  132   2.925   2.812   0.591  1.3622  0.4547  2.8377
   45SOL     OW  133   3.005   2.355   1.991 -0.9112 -0.2837 -0.1383
   45SOL    HW1  134   2.964   2.429   1.935 -1.7254 -1.5049  1.3622
   45SOL    HW2  135   3.062   2.296   1.929 -0.8119  0.2547 -2.0109
   46SOL     OW  136   2.248   2.262   2.520 -0.5953  0.4922  0.7333
   46SOL    HW1  137   2.150   2.226   2.521 -2.5015  0.7210  2.8846
   46SOL    HW2  138   2.262   2.318   2.437 -0.4843 -2.8049 -0.3272
   47SOL     OW  139   1.956   2.175   1.674 -0.1087 -0.1026 -0.4061
   47SOL    HW1  140   1.978   2.145   1.768  0.5600  1.3454 -1.7947
   47SOL    HW2  141   1.885   2.118   1.627  0.3958 -2.0263  0.0104
   48SOL     OW  142   0.623   1.738   0.367  0.0649  0.0702  0.3614
   48SOL    HW1  143   0.600   1.726   0.270 -1.3945 -1.5879  2.8077
   48SOL    HW2  144   0.714   1.687   0.387  0.9812 -0.6101 -2.0031
   49SOL     OW  145   2.447   0.280   2.514 -0.2591  0.0819  0.1829
   49SOL    HW1  146   2.424   0.254   2.607  1.2212 -0.9850 -0.0527
   49SOL    HW2  147   2.457   0.383   2.501 -0.3291  1.6447  0.3668
   50SOL     OW  148   2.376   1.007   0.318 -0.4145 -0.1340 -0.5999
   50SOL    HW1  149   2.459   0.955   0.292 -2.5582  0.9906  0.2660
   50SOL    HW2  150   2.320   1.017   0.233  0.4449 -0.7234  0.1291
   51SOL     OW  151   1.953   0.630   1.007  0.1195 -0.0255 -0.6395
   51SOL    HW1  152   1.878   0.557   1.031  1.5501 -1.5441 -0.5106
   51SOL    HW2  153   2.032   0.621   1.070 -0.4784  1.2781  1.4524
   52SOL     OW  154   1.246   1.412   2.969  0.3898 -0.1882  0.1247
   52SOL    HW1  155   1.217   1.374   3.062  0.3003 -1.0458 -1.3746
   52SOL    HW2  156   1.271   1.512   2.981  0.9218 -1.7897 -1.6548
   53SOL     OW  157   1.001   1.457   2.036  0.5688 -0.5637 -0.5213
   53SOL    HW1  158   0.953   1.531   2.092 -1.6928 -0.0357 -0.2986
   53SOL    HW2  159   0.932   1.384   2.012  1.2364  0.4043 -0.8501
   54SOL     OW  160   2.240   0.325   1.112 -0.5333  0.2331  0.1858
   54SOL    HW1  161   2.176   0.247   1.109  1.1513 -0.8208  0.0165
   54SOL    HW2  162   2.320   0.309   1.047 -1.2300  1.1157  0.1000
   55SOL     OW  163   2.522   2.847   0.628  0.1767 -0.1867  0.0217
   55SOL    HW1  164   2.543   2.761   0.576  0.0286  0.3721 -0.4651
   55SOL    HW2  165   2.575   2.926   0.597 -0.7514 -0.2596  1.2991
   56SOL     OW  166   0.823   2.803   1.444  0.6823  0.4358 -0.0838
   56SOL    HW1  167   0.847   2.770   1.352 -2.1899  0.6889  0.9934
   56SOL    HW2  168   0.890   2.875   1.477 -1.2644 -0.7262  0.7438
   57SOL     OW  169   1.486   1.374   0.324 -0.2670  0.5146  0.1620
   57SOL    HW1  170   1.471   1.303   0.399  0.9756 -0.8120 -0.6413
   57SOL    HW2  171   1.550   1.445   0.361 -1.4969 -3.0519  1.8579
   58SOL     OW  172   0.006   0.405   2.313  0.1406 -0.2415  0.1948
   58SOL    HW1  173   3.063   0.495   2.312  2.6764 -1.6877 -1.3850
   58SOL    HW2  174   3.037   0.336   2.328 -1.7766  0.4937 -2.4876
   59SOL     OW  175   0.924   2.769   2.716 -0.4081 -0.5309  0.0399
   59SOL    HW1  176   0.985   2.782   2.798  1.6547 -0.3174  1.4683
   59SOL    HW2  177   0.891   2.674   2.710 -1.1391  3.3375 -1.0439
   60SOL     OW  178   2.194   2.643   0.598 -0.0522 -0.2155  0.5195
   60SOL    HW1  179   2.278   2.589   0.600  2.2245  1.8881 -0.0276
   60SOL    HW2  180   2.202   2.720   0.536 -1.6514 -2.1990  2.0740
   61SOL     OW  181   1.175   2.328   0.804  0.4701  0.3071  0.3757
   61SOL    HW1  182   1.173   2.310   0.705  2.9446  0.8158  1.5188
   61SOL    HW2  183   1.229   2.406   0.830 -0.7209 -3.7218 -0.9706
   62SOL     OW  184   2.364   2.142   2.838 -0.3407 -0.0894 -0.5270
   62SOL    HW1  185   2.273   2.135   2.790  0.0569  1.3991 -1.2039
   62SOL    HW2  186   2.436   2.165   2.767 -0.0987 -1.4450  0.1665
   63SOL     OW  187   2.281   0.778   2.654  0.2075  0.3961 -0.3039
   63SOL    HW1  188   2.273   0.754   2.556 -1.6258 -1.8405  1.7677
   63SOL    HW2  189   2.342   0.712   2.702 -0.8473  2.4587  0.5837
   64SOL     OW  190   1.199   0.620   2.874  0.0363 -0.4283 -0.4517
   64SOL    HW1  191   1.143   0.639   2.958  0.2984  0.1247  1.0022
   64SOL    HW2  192   1.299   0.631   2.903  1.1114 -2.1098  0.7285
   65SOL     OW  193   0.988   1.894   0.508 -0.2461  0.5469  0.2684
   65SOL    HW1  194   0.910   1.950   0.474  0.3301 -1.1404 -1.0334
   65SOL    HW2  195   1.079   1.908   0.458  2.2915  3.4468 -1.7750
   66SOL     OW  196   0.352   1.070   1.989  0.1720 -0.5338  0.0842
   66SOL    HW1  197   0.374   1.170   2.007  1.2992  0.9461 -0.3016
   66SOL    HW2  198   0.423   1.027   1.933 -1.1077  0.4097 -1.6253
   67SOL     OW  199   2.198   3.037   2.444  0.0092 -0.8942 -0.4591
   67SOL    HW1  200   2.285   3.082   2.417 -2.9566  0.5290 -1.7528
   67SOL    HW2  201   2.185   2.951   2.386 -0.4095 -0.0145 -1.4245
   68SOL     OW  202   0.786   2.067   1.247 -0.1794 -0.2440 -0.1697
   68SOL    HW1  203   0.859   2.068   1.169  0.1280  2.1241 -0.9287
   68SOL    HW2  204   0.696   2.061   1.204  0.2110  0.7140 -2.7920
   69SOL     OW  205   1.123   2.582   0.405 -1.0897  0.2192 -0.3484
   69SOL    HW1  206   1.029   2.619   0.426 -2.7233 -1.0504 -1.2351
   69SOL    HW2  207   1.201   2.643   0.437  2.9806  0.6616  0.2844
   70SOL     OW  208   2.911   1.147   2.718  0.3665  0.4606  0.2812
   70SOL    HW1  209   3.004   1.158   2.752 -2.1283 -0.7694  1.4802
   70SOL    HW2  210   2.898   1.078   2.644 -2.2647 -0.8794 -1.3529
   71SOL     OW  211   2.779   1.408   2.772 -0.4400 -0.1198  0.9423
   71SOL    HW1  212   2.834   1.329   2.745  2.1210  0.9139 -0.6020
   71SOL    HW2  213   2.687   1.410   2.729 -0.3899 -0.3128  0.0504
   72SOL     OW  214   2.921   2.294   0.356 -0.3589  0.0327  0.1355
   72SOL    HW1  215   2.856   2.226   0.324  1.6136  1.6910 -2.4477
   72SOL    HW2  216   2.994   2.250   0.413 -0.7036  1.1609 -0.7363
   73SOL     OW  217   0.897   1.356   0.356  0.3722 -0.0217 -0.1388
   73SOL    HW1  218   0.934   1.305   0.437 -0.9245 -0.3991 -0.1872
   73SOL    HW2  219   0.901   1.457   0.378  0.5493 -0.8128  1.0607
   74SOL     OW  220   2.897   0.462   2.970  0.3842  0.7667  0.3066
   74SOL    HW1  221   2.825   0.395   3.001 -1.9292 -0.1719  0.6275
   74SOL    HW2  222   2.939   0.440   2.882  3.8228  0.7919  1.7722
   75SOL     OW  223   2.027   1.530   1.921  0.5765  0.4429 -0.1040
   75SOL    HW1  224   2.103   1.587   1.884 -1.5393  3.0443  1.6696
   75SOL    HW2  225   1.952   1.589   1.954  0.1732 -1.4602 -0.0610
   76SOL     OW  226   2.129   2.789   1.465  0.2707 -0.3883 -0.5284
   76SOL    HW1  227   2.205   2.717   1.493  0.6144 -2.4200 -2.6589
   76SOL    HW2  228   2.043   2.777   1.515  1.2220  0.2028 -1.0705
   77SOL     OW  229   2.570   0.453   1.272  0.0731  0.1999  0.0737
   77SOL    HW1  230   2.655   0.453   1.219 -1.0037  1.0870 -3.1286
   77SOL    HW2  231   2.521   0.366   1.269 -3.1422  2.0710 -0.2638
   78SOL     OW  232   1.393   0.849   0.042 -0.4336 -0.1216  0.0051
   78SOL    HW1  233   1.486   0.814   0.026  1.0433  0.6660  0.8714
   78SOL    HW2  234   1.358   0.890   3.058  0.9082 -0.0563 -0.1694
   79SOL     OW  235   0.596   1.806   1.909  0.0373  0.2061 -0.5603
   79SOL    HW1  236   0.635   1.883   1.858 -0.5745 -0.6226  0.9224
   79SOL    HW2  237   0.667   1.729   1.912  2.8587 -1.8768 -1.0557
   80SOL     OW  238   1.627   0.923   1.036  0.4057  0.1079 -0.4624
   80SOL    HW1  239   1.536   0.885   1.051  1.0854 -2.3318 -0.7143
   80SOL    HW2  240   1.621   1.022   1.054  1.0658  0.4781 -0.7633
   81SOL     OW  241   0.363   0.159   0.883  0.0465  0.4927  0.3291
   81SOL    HW1  242   0.295   0.111   0.823 -0.0885 -2.1639 -1.2917
   81SOL    HW2  243   0.458   0.117   0.892  1.7152 -1.2609 -0.0642
   82SOL     OW  244   1.759   2.834   1.759  0.2823 -0.4772  0.1050
   82SOL    HW1  245   1.659   2.855   1.756  0.3299  0.2445  3.1226
   82SOL    HW2  246   1.773   2.798   1.853 -1.2315 -2.0851  0.8045
   83SOL     OW  247   0.603   2.861   1.161  0.4666  0.2571 -0.4946
   83SOL    HW1  248   0.565   2.837   1.068 -1.4152  1.8033 -2.1500
   83SOL    HW2  249   0.670   2.795   1.194  0.1292  0.8390 -2.7054
   84SOL     OW  250   0.423   1.167   2.807  0.3259  0.6443  0.6322
   84SOL    HW1  251   0.386   1.262   2.801  2.1564 -2.2910 -0.9952
   84SOL    HW2  252   0.427   1.122   2.715  1.5094 -0.4948  0.7413
   85SOL     OW  253   3.084   2.213   1.594  0.1652 -0.0376  0.4214
   85SOL    HW1  254   3.095   2.298   1.541  0.7921 -0.9771 -0.6666
   85SOL    HW2  255   3.003   2.155   1.565  0.4576 -0.9451 -2.8974
   86SOL     OW  256   2.727   2.512   1.502 -0.2634 -0.3817 -0.0954
   86SOL    HW1  257   2.807   2.459   1.469 -0.5163  0.8850 -2.7959
   86SOL    HW2  258   2.712   2.512   1.604 -1.0880  1.5530 -0.1750
   87SOL     OW  259   2.753   2.426   2.860 -0.1367 -0.6747 -0.5507
   87SOL    HW1  260   2.836   2.482   2.878 -1.3070 -1.1026 -1.3084
   87SOL    HW2  261   2.784   2.337   2.814 -0.5305 -1.2367 -0.2827
   88SOL     OW  262   0.486   1.769   1.218 -0.0026 -0.3463 -0.0788
   88SOL    HW1  263   0.493   1.776   1.324 -0.7248 -1.9614 -0.9016
   88SOL    HW2  264   0.401   1.720   1.188 -2.0686 -0.4910 -1.4873
   89SOL     OW  265   0.949   0.031   1.920 -0.0405  0.2706  0.2760
   89SOL    HW1  266   0.928   0.055   1.826  1.8219 -0.3413 -0.3115
   89SOL    HW2  267   1.004   3.047   1.918 -1.1452 -0.7661 -2.4538
   90SOL     OW  268   0.146   1.890   1.833 -0.1639 -0.0388 -0.5812
   90SOL    HW1  269   0.059   1.898   1.887  0.3787  2.1580 -1.6937
   90SOL    HW2  270   0.220   1.881   1.902  0.0644  1.8833  1.0291
   91SOL     OW  271   1.039   1.573   0.749 -0.2922 -0.6532  0.1259
   91SOL    HW1  272   1.088   1.539   0.666  1.3166  2.1491 -1.4459
   91SOL    HW2  273   1.019   1.673   0.743 -1.4778  0.5442  2.8134
   92SOL     OW  274   2.525   0.083   1.177 -0.1122 -0.8434  0.4385
   92SOL    HW1  275   2.438   0.041   1.208 -1.4527 -0.1289  1.2625
   92SOL    HW2  276   2.560   0.039   1.094 -1.4362  3.4643 -0.5367
   93SOL     OW  277   2.426   1.401   2.995 -0.2317  0.1895 -0.1181
   93SOL    HW1  278   2.503   1.379   3.059  1.7357 -1.6869 -4.1910
   93SOL    HW2  279   2.426   1.332   2.919 -3.4908 -0.5674  0.5190
   94SOL     OW  280   2.588   2.516   2.635  0.2658 -0.2733  0.2134
   94SOL    HW1  281   2.652   2.487   2.712  2.5674  1.3465  0.5468
   94SOL    HW2  282   2.629   2.580   2.574  2.3765 -0.9731 -0.0967
   95SOL     OW  283   1.658   0.410   1.458 -0.0410  0.2752 -0.0174
   95SOL    HW1  284   1.675   0.360   1.546  1.5458 -1.4206 -1.1158
   95SOL    HW2  285   1.750   0.443   1.412  2.6130  3.7535 -1.0244
   96SOL     OW  286   3.042   2.617   1.596  0.0572  0.0673 -0.7064
   96SOL    HW1  287   3.050   2.552   1.516 -0.6243 -0.3691  0.4268
   96SOL    HW2  288   3.005   2.711   1.567 -1.4897 -0.7450  3.6458
   97SOL     OW  289   2.402   0.103   1.465  0.2536  0.5321 -0.2409
   97SOL    HW1  290   2.393   0.053   1.377 -2.6108 -1.5166 -1.1579
   97SOL    HW2  291   2.363   0.196   1.442 -0.1599 -0.2165 -0.6280
   98SOL     OW  292   1.570   2.225   1.535  0.1176  0.7188 -0.2840
   98SOL    HW1  293   1.638   2.272   1.474  0.5830 -0.0912  0.2227
   98SOL    HW2  294   1.603   2.129   1.558 -0.0178 -1.8191  0.5830
   99SOL     OW  295   0.170   2.690   1.717 -0.6633  0.5340  0.3052
   99SOL    HW1  296   0.234   2.724   1.644 -0.9544 -0.0553 -0.1926
   99SOL    HW2  297   0.081   2.664   1.678  3.9633 -1.3427  0.3485
  100SOL     OW  298   0.043   0.965   2.441 -0.1949 -0.5491  0.4774
  100SOL    HW1  299   0.051   0.931   2.346  2.0181  1.6030 -1.9297
  100SOL    HW2  300   0.116   1.035   2.456  1.5833 -0.2722  0.4408
  101SOL     OW  301   2.051   0.626   0.030 -0.2026  0.0258 -0.1269
  101SOL    HW1  302   2.024   0.532   0.026  3.2470  3.6657  0.0070
  101SOL    HW2  303   2.032   0.666   0.124 -0.8900  0.8409  2.7113
  102SOL     OW  304   0.235   0.521   1.100 -0.0097 -0.3814 -0.3559
  102SOL    HW1  305   0.296   0.502   1.024  1.3837 -0.7584 -0.2446
  102SOL    HW2  306   0.184   0.608   1.080  1.8925  2.6386  1.6216
  103SOL     OW  307   2.645   0.697   2.264 -0.0846  0.1223  0.4117
  103SOL    HW1  308   2.614   0.794   2.255  1.7259  0.2427 -0.2522
  103SOL    HW2  309   2.655   0.661   2.168  2.3748 -1.4959 -0.7954
  104SOL     OW  310   0.378   0.094   2.612 -0.0027  0.3547 -0.6864
  104SOL    HW1  311   0.458   0.115   2.555  1.0315  0.3172  1.2840
  104SOL    HW2  312   0.378   0.149   2.701 -2.1293  0.8616 -2.8236
  105SOL     OW  313   2.034   1.213   1.489 -0.0575  0.3307 -0.1153
  105SOL    HW1  314   2.008   1.128   1.434  2.2765 -1.0375  0.2375
  105SOL    HW2  315   1.949   1.255   1.522 -0.2719 -2.6142  1.8944
  106SOL     OW  316   1.067   2.914   0.391  0.2932  0.5282 -0.3778
  106SOL    HW1  317   1.056   2.904   0.489  1.3689 -0.7899 -1.2799
  106SOL    HW2  318   0.985   2.874   0.343 -0.7234 -0.3086 -0.1088
  107SOL     OW  319   0.514   1.684   1.515  0.2521  0.7345 -0.5406
  107SOL    HW1  320   0.461   1.695   1.599 -2.2997 -0.8211 -0.7291
  107SOL    HW2  321   0.611   1.696   1.539 -4.5397 -0.6531  1.5572
  108SOL     OW  322   0.239   2.891   2.167 -0.1085 -0.3349 -0.3762
  108SOL    HW1  323   0.269   2.866   2.261 -0.2910  0.2139 -1.2105
  108SOL    HW2  324   0.266   2.983   2.133 -1.6879 -1.6823  0.1255
  109SOL     OW  325   1.991   0.383   0.161 -0.0195  0.0104 -0.3269
  109SOL    HW1  326   1.910   0.395   0.098  1.4213 -0.6087  3.7275
  109SOL    HW2  327   2.000   0.286   0.189 -1.0496  0.4743 -0.4703
  110SOL     OW  328   0.377   2.347   2.397 -0.3521 -0.4448 -0.7620
  110SOL    HW1  329   0.325   2.395   2.327 -0.6070 -4.1497 -0.8324
  110SOL    HW2  330   0.475   2.349   2.385 -0.2596 -0.1543 -0.7234
  111SOL     OW  331   1.473   2.821   2.160  0.1372  0.1465  0.1476
  111SOL    HW1  332   1.372   2.823   2.157 -1.1909 -0.2894 -1.4867
  111SOL    HW2  333   1.512   2.912   2.187  2.3658  2.8950  0.4554
  112SOL     OW  334   2.017   2.169   2.563 -0.0440 -0.8532  0.2073
  112SOL    HW1  335   2.061   2.105   2.628  2.2263  1.0407 -1.8986
  112SOL    HW2  336   1.941   2.126   2.515  1.8655  0.5555  3.0969
  113SOL     OW  337   2.264   2.833   1.778  0.7689  0.2848 -0.2065
  113SOL    HW1  338   2.175   2.785   1.808 -1.6251 -2.8093  0.2898
  113SOL    HW2  339   2.253   2.910   1.712  2.6489  0.5379 -0.4281
  114SOL     OW  340   2.924   0.983   0.866  0.2794 -0.4874  0.2848
  114SOL    HW1  341   2.968   1.062   0.914  1.6882 -2.3095 -2.4444
  114SOL    HW2  342   2.904   1.010   0.773  1.7541  0.7900  0.6403
  115SOL     OW  343   0.271   1.668   2.850 -0.6459 -0.1142 -0.1847
  115SOL    HW1  344   0.304   1.731   2.922  0.6650  1.1430  0.6514
  115SOL    HW2  345   0.181   1.698   2.811 -0.0652 -0.0544  1.6539
  116SOL     OW  346   0.392   1.352   2.056  0.1137 -0.3632  0.7625
  116SOL    HW1  347   0.393   1.383   1.958  0.1105  0.4430  0.0233
  116SOL    HW2  348   0.335   1.416   2.110  2.1046 -4.1524 -1.7135
  117SOL     OW  349   2.677   3.058   0.547 -0.2050  0.1957  0.1984
  117SOL    HW1  350   2.707   0.040   0.603 -1.1724  2.1726  1.2912
  117SOL    HW2  351   2.644   3.084   0.455  0.0060  0.5902  2.0697
  118SOL     OW  352   1.238   1.909   1.747  0.2429 -0.1934 -0.3530
  118SOL    HW1  353   1.165   1.842   1.739 -0.7668 -0.3273  3.1888
  118SOL    HW2  354   1.249   1.929   1.845  0.8279  0.7007  0.5869
  119SOL     OW  355   1.196   2.154   0.308  0.4693  0.1404 -0.7439
  119SOL    HW1  356   1.216   2.064   0.350  1.0187  3.3808 -2.5827
  119SOL    HW2  357   1.167   2.220   0.384 -0.8637  0.8673 -0.1464
  120SOL     OW  358   0.209   1.161   2.495  0.7381  0.2544  0.5975
  120SOL    HW1  359   0.229   1.263   2.485  1.4088  0.2183 -0.5343
  120SOL    HW2  360   0.298   1.113   2.495  1.0768  1.2607 -0.7379
  121SOL     OW  361   2.262   2.660   0.998  0.3278  0.5753  0.4202
  121SOL    HW1  362   2.216   2.711   0.921 -4.5195  1.9582 -0.2418
  121SOL    HW2  363   2.341   2.705   1.035  0.1987 -0.6751 -0.7654
  122SOL     OW  364   2.250   2.095   2.042  0.0430 -0.1007 -0.2907
  122SOL    HW1  365   2.298   2.052   2.122 -2.4494  0.5027  0.0229
  122SOL    HW2  366   2.276   2.193   2.035  3.3405 -1.5129 -2.0798
  123SOL     OW  367   3.006   3.086   0.557 -0.5918  0.4444  0.7668
  123SOL    HW1  368   2.976   0.034   0.472 -0.9514  0.6871  1.7736
  123SOL    HW2  369   3.071   3.009   0.536  2.1669 -3.3528 -0.1261
  124SOL     OW  370   1.821   0.670   2.315  0.2213 -0.0528  0.5754
  124SOL    HW1  371   1.726   0.714   2.312 -2.4980  0.1521  2.8230
  124SOL    HW2  372   1.861   0.680   2.221 -0.4131  1.2977 -0.3150
  125SOL     OW  373   0.438   1.209   0.519 -0.3136 -0.1369  0.1597
  125SOL    HW1  374   0.523   1.241   0.468 -0.9783  0.9005 -0.0697
  125SOL    HW2  375   0.466   1.189   0.614  2.4969  0.7311  0.7097
  126SOL     OW  376   2.325   1.626   0.647 -0.3743  0.2988  0.2199
  126SOL    HW1  377   2.293   1.568   0.568 -0.7080 -1.7933 -0.5448
  126SOL    HW2  378   2.364   1.567   0.723  0.9889 -1.5631 -0.1477
  127SOL     OW  379   0.200   2.002   1.578  0.1238  0.3132  0.2469
  127SOL    HW1  380   0.146   1.968   1.658 -3.4089  1.6372 -0.9183
  127SOL    HW2  381   0.162   2.082   1.536 -1.0036 -1.2129  2.1442
  128SOL     OW  382   0.820   0.565   2.524 -0.0375 -0.1890 -0.2628
  128SOL    HW1  383   0.845   0.548   2.428 -2.1458  1.7665  0.0192
  128SOL    HW2  384   0.892   0.606   2.582 -2.6971  2.4818  1.7417
  129SOL     OW  385   2.350   1.248   1.191 -0.4123 -0.4288  0.4029
  129SOL    HW1  386   2.417   1.201   1.249  0.3344 -3.5964 -0.2738
  129SOL    HW2  387   2.279   1.301   1.243 -0.0712 -0.9877 -0.0237
  130SOL     OW  388   2.325   1.574   1.467  0.5978 -0.2390  0.1668
  130SOL    HW1  389   2.409   1.529   1.436 -1.1582  0.4871 -1.9670
  130SOL    HW2  390   2.336   1.656   1.524 -2.2880  0.4564  1.8320
  131SOL     OW  391   2.700   1.015   2.845  0.5819 -0.1741 -0.2580
  131SOL    HW1  392   2.768   1.065   2.797 -0.0662 -1.2087  1.1437
  131SOL    HW2  393   2.687   0.922   2.805  0.7328  0.7006 -2.1452
  132SOL     OW  394   2.277   2.434   2.279  0.0908  0.2246 -0.1663
  132SOL    HW1  395   2.192   2.458   2.228 -4.6899  0.5833  0.5313
  132SOL    HW2  396   2.362   2.481   2.235  1.0875  1.4047 -0.2346
  133SOL     OW  397   0.548   1.127   0.753 -0.3472 -0.0488 -0.4241
  133SOL    HW1  398   0.547   1.228   0.781 -0.5421 -0.7741  1.6290
  133SOL    HW2  399   0.554   1.054   0.826 -0.0111 -0.8460  1.7997
  134SOL     OW  400   0.225   1.243   0.031  0.1819  0.3267 -0.0043
  134SOL    HW1  401   0.139   1.270   0.080  0.0769 -0.0414 -1.2206
  134SOL    HW2  402   0.217   1.228   3.035  2.8906 -1.6037  4.6925
  135SOL     OW  403   2.003   1.608   1.233 -0.1651  0.3416  0.4479
  135SOL    HW1  404   2.066   1.536   1.263 -1.7134 -1.7717 -1.0884
  135SOL    HW2  405   1.909   1.567   1.233  1.7804  0.6261 -0.5331
  136SOL     OW  406   2.349   1.153   0.719 -0.6134  0.2389  0.0801
  136SOL    HW1  407   2.410   1.169   0.639 -0.7024  0.1684 -0.8254
  136SOL    HW2  408   2.255   1.137   0.679 -1.3854 -1.2251 -0.2386
  137SOL     OW  409   2.662   1.765   0.922  0.0323  0.5315 -0.2693
  137SOL    HW1  410   2.582   1.765   0.983 -1.5300  1.5714  0.2681
  137SOL    HW2  411   2.725   1.842   0.950  0.2263 -2.7669  1.1831
  138SOL     OW  412   1.751   0.583   1.739 -0.4794  0.2286  0.3114
  138SOL    HW1  413   1.694   0.571   1.824  0.5377 -1.3961  2.6367
  138SOL    HW2  414   1.825   0.519   1.731 -0.5903 -1.2041 -0.7841
  139SOL     OW  415   2.326   2.817   2.764 -0.1694 -0.3067  0.2620
  139SOL    HW1  416   2.313   2.900   2.817  0.3573  0.1287  0.6907
  139SOL    HW2  417   2.244   2.801   2.702 -0.7178  0.6028  0.7305
  140SOL     OW  418   1.635   1.809   2.163 -0.1115 -0.3916 -0.0580
  140SOL    HW1  419   1.561   1.768   2.107 -1.5916  0.8097  0.9680
  140SOL    HW2  420   1.618   1.801   2.260  1.0607  0.5070 -3.5063
  141SOL     OW  421   1.856   2.014   1.128 -1.1818 -0.2875  0.3612
  141SOL    HW1  422   1.952   2.043   1.155  2.4358 -2.1856 -1.2400
  141SOL    HW2  423   1.835   1.933   1.175  2.5149  0.6121 -0.4619
  142SOL     OW  424   3.101   0.605   0.030  0.1341 -0.1142 -0.7729
  142SOL    HW1  425   3.032   0.549   3.080 -0.4800  0.7392  1.3442
  142SOL    HW2  426   3.065   0.657   0.114  1.4736  1.8292 -1.1993
  143SOL     OW  427   0.315   2.053   2.818  0.3369  0.3415  0.8250
  143SOL    HW1  428   0.344   2.007   2.906  2.4143 -0.1623 -0.2222
  143SOL    HW2  429   0.399   2.096   2.785  1.3141 -0.7210  1.2187
  144SOL     OW  430   1.113   2.914   1.932 -0.3425  0.0920  0.3761
  144SOL    HW1  431   1.198   2.933   1.882 -0.0712  0.1073 -1.2978
  144SOL    HW2  432   1.148   2.839   1.992 -1.0989  1.5048 -2.1648
  145SOL     OW  433   2.024   1.590   0.428  0.1658  0.6590 -0.1430
  145SOL    HW1  434   1.954   1.589   0.349 -1.0861 -2.1022 -4.4157
  145SOL    HW2  435   2.115   1.555   0.395  3.6167 -1.9793 -2.9073
  146SOL     OW  436   2.604   3.090   2.853 -0.7573  0.2869 -0.1019
  146SOL    HW1  437   2.593   3.027   2.772 -1.2185 -0.0582  1.4372
  146SOL    HW2  438   2.688   3.070   2.902 -2.2529  0.6824 -1.0615
  147SOL     OW  439   2.882   2.637   0.948 -0.7859  0.7150 -0.3527
  147SOL    HW1  440   2.802   2.622   0.887  5.0386  0.2803  2.1247
  147SOL    HW2  441   2.875   2.570   1.023  0.9636 -0.8311  0.9310
  148SOL     OW  442   1.723   3.056   2.955 -0.0488 -0.4956 -0.8146
  148SOL    HW1  443   1.764   3.022   3.041  1.4109  0.8147 -1.1885
  148SOL    HW2  444   1.627   3.019   2.955 -0.4697 -2.2703 -0.9616
  149SOL     OW  445   1.181   0.365   2.473 -0.1602  0.1247  0.3208
  149SOL    HW1  446   1.226   0.404   2.554 -0.2384 -0.6789  1.2535
  149SOL    HW2  447   1.106   0.305   2.505  0.9192  0.6936  1.8352
  150SOL     OW  448   0.873   2.671   0.452 -0.1186  0.6705  0.1769
  150SOL    HW1  449   0.786   2.656   0.397  0.6839  2.9216  1.4880
  150SOL    HW2  450   0.845   2.716   0.538  1.0177 -1.1371 -1.4788
  151SOL     OW  451   2.948   1.872   0.204 -0.1785  0.3396 -0.0850
  151SOL    HW1  452   2.885   1.825   0.137  2.2615  0.0088 -1.1704
  151SOL    HW2  453   3.042   1.880   0.160 -1.8757  0.8024 -0.3705
  152SOL     OW  454   0.273   1.160   0.913  0.4795 -0.0319 -0.0694
  152SOL    HW1  455   0.326   1.074   0.909  0.7304 -2.3533  2.0637
  152SOL    HW2  456   0.326   1.229   0.861 -0.8300 -1.2857 -1.5704
  153SOL     OW  457   2.246   2.847   0.430 -0.2723  0.4133  0.0937
  153SOL    HW1  458   2.278   2.942   0.424 -2.9479 -3.1119  2.4936
  153SOL    HW2  459   2.181   2.824   0.354 -1.4192 -0.1247  0.8749
  154SOL     OW  460   0.794   0.381   1.657 -0.6031 -0.6113 -0.7802
  154SOL    HW1  461   0.883   0.410   1.615 -0.3757  0.0380 -2.1852
  154SOL    HW2  462   0.792   0.392   1.763 -2.2911 -0.5807  3.2025
  155SOL     OW  463   3.007   1.925   1.288 -0.0110 -0.1066 -0.1471
  155SOL    HW1  464   3.084   1.864   1.321  0.8380  0.2138 -1.6834
  155SOL    HW2  465   2.924   1.910   1.352 -2.7359 -3.7545 -2.5582
  156SOL     OW  466   2.071   2.120   0.194 -0.1399  0.2049  0.0595
  156SOL    HW1  467   2.166   2.107   0.226 -0.7999 -0.0491 -0.2158
  156SOL    HW2  468   2.063   2.191   0.125  1.2182  0.8852 -0.9344
  157SOL     OW  469   1.056   2.733   0.939  0.3217  0.4112  0.2018
  157SOL    HW1  470   1.022   2.633   0.942  2.7868  2.3558 -0.3753
  157SOL    HW2  471   1.131   2.755   0.875 -1.8278 -0.6185  5.5074
  158SOL     OW  472   2.454   0.538   2.402  0.2080  0.1786  0.2813
  158SOL    HW1  473   2.359   0.571   2.374 -1.9315  2.3620  1.6740
  158SOL    HW2  474   2.526   0.594   2.358 -0.2379 -0.4016  1.1875
  159SOL     OW  475   0.591   0.448   2.901 -0.0029 -0.0461 -0.8736
  159SOL    HW1  476   0.683   0.498   2.907 -0.1428 -2.0029 -1.6703
  159SOL    HW2  477   0.513   0.513   2.913  0.6227  2.3420  2.0336
  160SOL     OW  478   0.764   2.076   0.150 -0.3467 -0.2179  0.6926
  160SOL    HW1  479   0.757   2.153   0.087 -1.0357 -2.8788  0.9786
  160SOL    HW2  480   0.859   2.042   0.152  0.7878  1.4049  0.2466
  161SOL     OW  481   3.064   2.004   2.971 -0.0878  0.0246  0.9435
  161SOL    HW1  482   0.013   2.009   2.879  5.2835  1.8396 -2.5327
  161SOL    HW2  483   3.064   2.094   3.021  0.0155 -0.0438 -0.0225
  162SOL     OW  484   0.501   2.726   0.939  0.2370  0.0085 -0.1016
  162SOL    HW1  485   0.457   2.640   0.901  1.9969  0.6789 -0.5830
  162SOL    HW2  486   0.437   2.804   0.919 -1.1188 -2.3825  0.4840
  163SOL     OW  487   2.224   0.511   2.913  0.0089 -0.4259 -0.1243
  163SOL    HW1  488   2.207   0.414   2.931 -2.1502 -3.6878 -0.4181
  163SOL    HW2  489   2.177   0.567   2.986 -1.6620 -1.3372  0.3572
  164SOL     OW  490   2.969   1.998   0.730  0.3831 -0.1747 -0.4506
  164SOL    HW1  491   2.989   1.965   0.822  0.0684 -0.7820  3.0302
  164SOL    HW2  492   2.934   2.094   0.731 -0.7132 -0.9439  0.7747
  165SOL     OW  493   2.944   2.870   1.522  0.0313 -0.1940 -0.1148
  165SOL    HW1  494   3.020   2.924   1.481  0.7016 -1.7457 -0.5812
  165SOL    HW2  495   2.859   2.888   1.469  1.1629  0.3952 -0.1688
  166SOL     OW  496   2.114   0.366   0.718 -0.0918 -0.4848  0.0457
  166SOL    HW1  497   2.178   0.438   0.680 -0.2297 -0.7759  1.0128
  166SOL    HW2  498   2.170   0.308   0.777 -2.4290  0.2532 -1.2392
  167SOL     OW  499   0.460   0.449   0.885  0.1671  0.0650  0.3193
  167SOL    HW1  500   0.531   0.423   0.957  1.0041 -2.5506  0.1315
  167SOL    HW2  501   0.414   0.360   0.855 -2.8691 -3.5553 -0.4640
  168SOL     OW  502   2.268   2.945   2.060 -0.6073  0.4703 -0.5366
  168SOL    HW1  503   2.252   2.888   2.141 -0.2037  1.1599 -1.7134
  168SOL    HW2  504   2.267   2.885   1.977  0.7666 -2.0111  0.8093
  169SOL     OW  505   0.089   1.461   0.628 -0.5481 -0.1905  0.8586
  169SOL    HW1  506   0.181   1.496   0.658  2.8014  1.6214  1.9538
  169SOL    HW2  507   0.105   1.422   0.534 -3.7233  0.8184 -0.7536
  170SOL     OW  508   2.661   0.841   1.222 -0.2817 -0.4977 -0.2740
  170SOL    HW1  509   2.664   0.746   1.181 -0.1777 -0.4111 -3.7303
  170SOL    HW2  510   2.583   0.850   1.287 -4.5574  1.3643  3.8769
  171SOL     OW  511   1.314   2.612   1.777  0.0591  0.1577 -0.5555
  171SOL    HW1  512   1.293   2.536   1.716 -1.1858 -0.1273  1.2073
  171SOL    HW2  513   1.341   2.572   1.870  1.4518 -0.8392  1.3269
  172SOL     OW  514   0.394   2.444   1.210  0.7506  0.1187  0.5235
  172SOL    HW1  515   0.429   2.408   1.297  0.6070  0.5448  1.7740
  172SOL    HW2  516   0.349   2.529   1.231  0.6031 -2.1956  0.2246
  173SOL     OW  517   1.328   0.143   0.026  0.0111 -0.1969 -0.0436
  173SOL    HW1  518   1.320   0.116   3.029 -2.5271  0.9549 -0.6641
  173SOL    HW2  519   1.309   0.246   0.040  0.4250  5.4939 -2.2413
  174SOL     OW  520   1.299   2.355   2.960  0.2320 -0.2542  0.1845
  174SOL    HW1  521   1.288   2.321   3.054 -0.8101 -0.5975 -0.7090
  174SOL    HW2  522   1.208   2.359   2.920 -0.4461 -0.8334 -2.8206
  175SOL     OW  523   1.842   3.020   0.108  0.2779 -0.0250 -0.1726
  175SOL    HW1  524   1.818   3.045   0.206  0.0638 -0.0303 -0.5032
  175SOL    HW2  525   1.806   2.928   0.090  0.1084  1.7077  0.6044
  176SOL     OW  526   1.373   0.036   2.872  0.2338  0.3890 -0.3533
  176SOL    HW1  527   1.385   0.065   2.776  3.4885  1.9696  2.6197
  176SOL    HW2  528   1.421   3.050   2.883  1.5984  1.5446 -1.1719
  177SOL     OW  529   0.891   1.394   0.911 -0.6096 -0.1360  0.1618
  177SOL    HW1  530   0.967   1.377   0.980 -0.9485 -1.4504  0.3260
  177SOL    HW2  531   0.929   1.455   0.838  2.7062 -0.6958 -0.2302
  178SOL     OW  532   2.883   1.803   2.267 -0.2360 -0.0047  0.1792
  178SOL    HW1  533   2.919   1.723   2.210  0.8954  1.1111 -0.6579
  178SOL    HW2  534   2.888   1.778   2.361  1.0314  0.8493 -0.6456
  179SOL     OW  535   0.500   2.537   2.744 -0.1387 -0.2013 -0.3185
  179SOL    HW1  536   0.497   2.640   2.740 -1.2696  1.5373 -2.3216
  179SOL    HW2  537   0.531   2.503   2.654 -1.9252 -0.6313  1.9954
  180SOL     OW  538   1.851   1.892   1.859  0.5078 -0.2074 -0.7313
  180SOL    HW1  539   1.889   1.976   1.906  1.7989  1.0588  4.8253
  180SOL    HW2  540   1.867   1.811   1.911 -2.0518  3.7752 -0.7658
  181SOL     OW  541   1.077   1.157   2.389  0.6985  0.0274 -0.7130
  181SOL    HW1  542   1.121   1.163   2.478  0.8177 -2.0612 -0.8022
  181SOL    HW2  543   1.077   1.249   2.346  2.9294 -1.6037  0.9507
  182SOL     OW  544   0.095   0.294   2.623 -0.1391  0.4622  0.4404
  182SOL    HW1  545   0.111   0.251   2.529 -0.7215  0.6523 -1.3068
  182SOL    HW2  546   0.172   0.285   2.683 -2.7503  0.4737  2.7626
  183SOL     OW  547   1.081   0.334   2.852 -0.5094  0.4672 -0.3863
  183SOL    HW1  548   1.116   0.340   2.946  1.6494 -1.3517 -1.4723
  183SOL    HW2  549   1.131   0.404   2.796 -2.3669  1.2646  0.4472
  184SOL     OW  550   0.969   1.320   1.335 -0.3532 -0.1665 -0.4381
  184SOL    HW1  551   0.987   1.246   1.403 -0.0558  0.1563  2.2456
  184SOL    HW2  552   0.877   1.357   1.350 -0.3297 -3.8588  1.2224
  185SOL     OW  553   2.866   1.210   1.239 -0.4218 -0.0528  0.2528
  185SOL    HW1  554   2.899   1.275   1.316  1.6123 -0.4437 -1.4360
  185SOL    HW2  555   2.768   1.237   1.213 -2.7607  2.3202  1.8326
  186SOL     OW  556   0.882   1.626   2.646 -0.6017  0.4184 -0.8803
  186SOL    HW1  557   0.894   1.599   2.547 -0.7127  1.0021 -0.8185
  186SOL    HW2  558   0.783   1.636   2.667  1.9142 -0.3600  0.3825
  187SOL     OW  559   2.665   1.563   0.285  0.0268  0.1696 -0.2398
  187SOL    HW1  560   2.608   1.499   0.232  1.0497  1.4030  1.5640
  187SOL    HW2  561   2.667   1.544   0.384 -0.6221  1.4984 -0.4303
  188SOL     OW  562   0.101   2.246   0.753  0.0046 -0.0289 -0.2184
  188SOL    HW1  563   0.193   2.203   0.750 -1.4002  2.0743  3.7083
  188SOL    HW2  564   0.068   2.277   0.664  1.0552  1.0472  1.7806
  189SOL     OW  565   2.631   1.081   0.000 -0.1216 -0.8066  0.1353
  189SOL    HW1  566   2.652   1.050   3.005  0.1571  0.1507 -1.2258
  189SOL    HW2  567   2.700   1.039   0.059 -1.1065 -0.9275 -3.5703
  190SOL     OW  568   1.144   1.391   2.261 -0.0892 -0.2142  0.8222
  190SOL    HW1  569   1.245   1.373   2.258  0.1060  0.6727  0.1019
  190SOL    HW2  570   1.103   1.411   2.168 -1.3375  0.2079  3.2859
  191SOL     OW  571   2.303   0.491   1.787  0.5218 -0.2555  0.4164
  191SOL    HW1  572   2.350   0.503   1.695  0.4319  0.8875  1.6445
  191SOL    HW2  573   2.295   0.391   1.810 -0.4046 -2.3229  0.1031
  192SOL     OW  574   2.109   0.340   1.579 -0.5188 -0.7575  0.3614
  192SOL    HW1  575   2.100   0.261   1.641  1.7366  2.7369  0.6428
  192SOL    HW2  576   2.091   0.433   1.618  1.6788 -0.6272 -1.6426
  193SOL     OW  577   0.699   0.455   0.610 -0.4366  0.2131 -0.0804
  193SOL    HW1  578   0.754   0.459   0.696 -1.2117  1.2402 -1.9014
  193SOL    HW2  579   0.717   0.533   0.552 -0.2882 -0.2452 -0.0675
  194SOL     OW  580   1.180   2.987   1.119 -0.0981  0.0216 -0.0465
  194SOL    HW1  581   1.156   3.046   1.201  2.2326 -0.9732 -2.4074
  194SOL    HW2  582   1.107   2.922   1.092 -0.1928 -0.8306 -0.8298
  195SOL     OW  583   2.594   0.845   0.283  0.5660 -0.7968 -0.0084
  195SOL    HW1  584   2.659   0.769   0.259 -0.5758  0.2804  0.9189
  195SOL    HW2  585   2.612   0.873   0.380 -1.0149  0.9424  3.8072
  196SOL     OW  586   1.538   1.524   1.636 -0.0751  0.1853 -0.2537
  196SOL    HW1  587   1.551   1.510   1.738 -2.0697 -0.0211  0.9674
  196SOL    HW2  588   1.459   1.586   1.622 -0.4320 -0.3355 -1.0746
  197SOL     OW  589   0.062   2.881   0.442 -0.6940 -0.3477  0.2455
  197SOL    HW1  590   0.054   2.907   0.345  0.5664  0.0270  0.5274
  197SOL    HW2  591   0.044   2.785   0.449  2.7744  5.9229  0.7709
  198SOL     OW  592   0.950   1.171   0.754 -0.2892 -0.0495  0.4695
  198SOL    HW1  593   0.936   1.244   0.822  1.3290 -1.5409 -1.9294
  198SOL    HW2  594   0.862   1.133   0.716  1.7773 -0.5863  2.7769
  199SOL     OW  595   2.928   0.674   1.814 -0.9077  0.3764  0.1764
  199SOL    HW1  596   2.908   0.639   1.906 -0.3282 -0.6641  0.6627
  199SOL    HW2  597   2.961   0.768   1.812 -1.2081 -0.2162  0.1444
  200SOL     OW  598   2.123   1.965   2.701  0.0701  0.2112 -0.2871
  200SOL    HW1  599   2.186   1.936   2.624  0.1316 -1.9477 -0.0510
  200SOL    HW2  600   2.139   1.909   2.786 -0.8259  0.1870  0.3417
  201SOL     OW  601   2.372   2.947   0.848  0.2239 -0.2282  0.0638
  201SOL    HW1  602   2.409   2.894   0.765  1.2418  1.7223  1.7097
  201SOL    HW2  603   2.270   2.944   0.860 -0.3824 -0.5279  0.4880
  202SOL     OW  604   2.728   0.624   0.006  0.3394 -0.3045  1.0058
  202SOL    HW1  605   2.662   0.678   3.049 -0.9145 -0.8383  2.1184
  202SOL    HW2  606   2.783   0.564   3.049 -1.8889  0.1350  2.1830
  203SOL     OW  607   1.434   1.345   2.275 -0.3001 -0.7420 -0.3702
  203SOL    HW1  608   1.482   1.313   2.189 -1.6458  1.0543 -3.1798
  203SOL    HW2  609   1.457   1.281   2.354 -1.0657  2.3501 -2.3053
  204SOL     OW  610   0.855   1.672   2.174  0.0522 -0.4131 -0.1914
  204SOL    HW1  611   0.823   1.767   2.177  0.9144 -1.0422 -0.3253
  204SOL    HW2  612   0.861   1.639   2.273  0.1981  1.8375 -0.0186
  205SOL     OW  613   1.441   1.826   1.587  0.2224  0.1325 -0.1010
  205SOL    HW1  614   1.365   1.867   1.639 -0.6115  0.1808  1.3430
  205SOL    HW2  615   1.531   1.857   1.622  0.4558  0.3156 -1.0941
  206SOL     OW  616   0.002   0.546   2.676 -0.5198 -0.4919  1.0121
  206SOL    HW1  617   0.027   0.461   2.624  3.6837 -0.4524  0.3277
  206SOL    HW2  618   0.051   0.630   2.647 -0.0125 -1.4130  0.1046
  207SOL     OW  619   1.861   2.759   2.536  0.1841  0.6737 -0.0434
  207SOL    HW1  620   1.889   2.709   2.452 -0.6991 -1.1212 -0.2823
  207SOL    HW2  621   1.815   2.699   2.604 -0.5838 -0.9967 -0.0257
  208SOL     OW  622   0.472   2.234   1.787 -0.3189  0.2069  0.4277
  208SOL    HW1  623   0.464   2.185   1.700 -0.0704 -1.4860  1.9493
  208SOL    HW2  624   0.417   2.319   1.777 -0.8601  0.0160 -0.1534
  209SOL     OW  625   1.799   0.712   2.827  0.7975  0.2656  0.2720
  209SOL    HW1  626   1.875   0.765   2.786  0.0137  2.1185  0.2602
  209SOL    HW2  627   1.725   0.693   2.756 -1.0752 -0.5981  2.1649
  210SOL     OW  628   2.714   0.885   0.521  0.2015 -0.1899  0.2394
  210SOL    HW1  629   2.798   0.933   0.506 -0.5533 -0.9408  3.7316
  210SOL    HW2  630   2.712   0.858   0.620  2.0166  0.4002 -0.9673
  211SOL     OW  631   0.861   0.459   0.817  0.1732  0.4389  0.4354
  211SOL    HW1  632   0.883   0.552   0.852  1.3094 -1.6762 -1.4080
  211SOL    HW2  633   0.852   0.387   0.888  1.2769  0.5445 -0.5704
  212SOL     OW  634   1.179   1.467   0.508  0.6666 -0.2524 -0.3658
  212SOL    HW1  635   1.151   1.373   0.495  1.6458 -2.5200 -0.8955
  212SOL    HW2  636   1.195   1.520   0.422 -1.0542  3.8498  0.8059
  213SOL     OW  637   1.349   3.055   1.840  0.1803 -1.3430 -0.2046
  213SOL    HW1  638   1.295   0.011   1.771 -0.5149  2.6714 -2.7258
  213SOL    HW2  639   1.386   0.010   1.915 -1.7684 -1.3516  0.7747
  214SOL     OW  640   1.471   1.171   2.458 -0.0298  0.3784 -0.1579
  214SOL    HW1  641   1.383   1.181   2.513  1.7712  2.8908  2.7381
  214SOL    HW2  642   1.554   1.155   2.518  1.3731 -0.9307 -1.2365
  215SOL     OW  643   0.234   1.695   1.141  0.1090  0.0620  0.3925
  215SOL    HW1  644   0.162   1.617   1.135 -2.4306 -1.5141 -0.6738
  215SOL    HW2  645   0.227   1.750   1.058  0.6436 -0.1325  0.5281
  216SOL     OW  646   0.585   2.886   2.309  0.5883  0.4699  0.0650
  216SOL    HW1  647   0.606   2.908   2.214 -0.4723 -0.6277  0.5320
  216SOL    HW2  648   0.629   2.950   2.374 -0.0478 -0.4813  1.2685
  217SOL     OW  649   2.378   0.986   0.016 -0.0931 -0.5463 -0.2150
  217SOL    HW1  650   2.381   0.888   0.038 -1.0458 -0.1107  0.7883
  217SOL    HW2  651   2.472   1.026   0.018 -2.6417  0.7183 -0.5720
  218SOL     OW  652   2.003   1.873   2.165 -0.1473  0.1343 -0.5519
  218SOL    HW1  653   2.092   1.824   2.192  0.0147 -2.1306  2.4049
  218SOL    HW2  654   2.010   1.957   2.107  0.4955 -0.9477 -2.9793
  219SOL     OW  655   1.586   1.036   0.367 -0.0535 -0.1957 -0.1685
  219SOL    HW1  656   1.532   1.110   0.323  0.4228 -0.2107 -0.0917
  219SOL    HW2  657   1.672   1.078   0.403 -0.2224 -0.7898 -0.8263
  220SOL     OW  658   1.517   1.755   1.107  0.4824 -0.3466  0.0772
  220SOL    HW1  659   1.479   1.845   1.071  0.4269  1.8601 -0.7535
  220SOL    HW2  660   1.525   1.683   1.035 -2.4460  0.2442  0.7262
  221SOL     OW  661   0.253   0.549   2.879  0.1491  0.2012 -0.2848
  221SOL    HW1  662   0.159   0.580   2.859 -0.1455  1.3343 -0.5245
  221SOL    HW2  663   0.283   0.591   2.966  1.3259  2.0814  2.3313
  222SOL     OW  664   1.366   2.382   1.620 -0.7826 -0.0902  0.1435
  222SOL    HW1  665   1.295   2.330   1.670  1.0303  3.4858 -0.7388
  222SOL    HW2  666   1.432   2.321   1.577 -0.0737 -2.0374 -0.2463
  223SOL     OW  667   1.513   2.505   2.874  0.1035 -0.2420  0.1334
  223SOL    HW1  668   1.582   2.521   2.948  1.6559  3.6954 -1.8475
  223SOL    HW2  669   1.442   2.438   2.910 -1.2117 -1.3833  0.0529
  224SOL     OW  670   2.699   1.294   0.949  0.5148 -0.3869  0.0365
  224SOL    HW1  671   2.656   1.203   0.972  2.2697 -1.8791 -0.1781
  224SOL    HW2  672   2.672   1.320   0.852 -1.0209  1.9815 -0.9805
  225SOL     OW  673   1.449   1.046   1.298  0.3696  0.0470  0.4814
  225SOL    HW1  674   1.365   1.075   1.357  1.4015  4.1759 -0.6103
  225SOL    HW2  675   1.479   0.949   1.313  2.0002 -0.2044  0.1903
  226SOL     OW  676   1.499   2.090   3.081 -0.9579  0.0400  0.2049
  226SOL    HW1  677   1.549   2.044   0.056  1.7351  1.0230 -3.4945
  226SOL    HW2  678   1.567   2.127   3.018 -2.1137 -1.2629  0.0860
  227SOL     OW  679   0.990   2.174   1.406 -0.0963 -0.2141 -0.5579
  227SOL    HW1  680   0.903   2.144   1.365  1.4694  2.6744 -0.9806
  227SOL    HW2  681   1.023   2.258   1.363  0.3106  1.0848  0.5679
  228SOL     OW  682   0.534   2.030   1.166  0.6909 -0.5215 -0.2431
  228SOL    HW1  683   0.450   2.084   1.137  1.5994  0.6505 -1.3397
  228SOL    HW2  684   0.511   1.933   1.190  3.3851  3.6245 -2.9935
  229SOL     OW  685   2.125   0.871   3.030 -0.6393 -0.2105 -0.4503
  229SOL    HW1  686   2.203   0.910   3.083 -1.4012 -0.4965 -0.0450
  229SOL    HW2  687   2.110   0.772   3.061  2.2263  0.7928 -0.1126
  230SOL     OW  688   1.019   0.821   2.140 -0.6967  0.1164 -0.3467
  230SOL    HW1  689   0.952   0.886   2.101  0.5319 -0.9569  0.9218
  230SOL    HW2  690   1.101   0.870   2.174 -0.7865  1.0466  0.2941
  231SOL     OW  691   1.372   1.711   2.114 -0.1016  0.3872  0.1010
  231SOL    HW1  692   1.343   1.653   2.032 -3.1890 -0.3045 -2.2929
  231SOL    HW2  693   1.371   1.656   2.204  0.3207 -1.7766  0.3458
  232SOL     OW  694   2.065   2.275   1.442  0.0878  0.6860  0.3243
  232SOL    HW1  695   2.028   2.239   1.528 -1.5598  0.8273 -0.0461
  232SOL    HW2  696   2.026   2.369   1.417  0.8040  1.7692 -1.3427
  233SOL     OW  697   1.885   2.352   2.763  0.2867 -0.0703  0.1623
  233SOL    HW1  698   1.923   2.275   2.715 -1.2623  0.4172  2.7571
  233SOL    HW2  699   1.945   2.436   2.768  0.4330  0.7474  1.7494
  234SOL     OW  700   1.115   2.804   2.934 -0.7016  0.0519  0.0634
  234SOL    HW1  701   1.191   2.802   3.003 -0.6327  0.4982  0.6937
  234SOL    HW2  702   1.092   2.895   2.908  0.4233 -0.1808  1.9824
  235SOL     OW  703   2.460   3.060   0.012 -0.2064 -0.3387 -0.2285
  235SOL    HW1  704   2.475   3.076   3.013  0.4748  2.9817 -3.7833
  235SOL    HW2  705   2.537   3.002   0.052  0.1370  1.7896 -1.6640
  236SOL     OW  706   2.313   2.478   2.677 -0.4698  0.0412  0.1534
  236SOL    HW1  707   2.301   2.381   2.650  0.8864 -0.3838 -0.4316
  236SOL    HW2  708   2.413   2.505   2.674  0.2794  0.4143 -0.1839
  237SOL     OW  709   1.563   1.199   1.684  0.2236 -0.4533  0.2924
  237SOL    HW1  710   1.598   1.103   1.707 -0.3465 -0.0058  1.3433
  237SOL    HW2  711   1.556   1.210   1.587 -0.2610  2.5382  0.3949
  238SOL     OW  712   2.045   0.404   2.083  1.0615  0.0104 -0.1150
  238SOL    HW1  713   2.133   0.457   2.086 -1.6376 -0.3330 -2.1196
  238SOL    HW2  714   2.065   0.306   2.103 -1.7173 -1.5314 -1.4805
  239SOL     OW  715   0.560   1.589   2.159 -0.5139 -0.1705  0.2070
  239SOL    HW1  716   0.545   1.508   2.102  3.0755  0.4670  0.7950
  239SOL    HW2  717   0.557   1.672   2.106  0.0419  1.1457  2.8134
  240SOL     OW  718   2.981   2.812   0.741 -0.3671 -0.6360  0.3176
  240SOL    HW1  719   3.080   2.788   0.732 -2.1493  0.4033 -1.2170
  240SOL    HW2  720   2.943   2.784   0.830  0.3031  2.0213 -0.0603
  241SOL     OW  721   1.688   2.163   1.000  0.1037 -0.2495  0.6028
  241SOL    HW1  722   1.761   2.104   1.041 -3.9855 -0.1755  0.8561
  241SOL    HW2  723   1.695   2.166   0.896 -1.3737  1.6394 -1.7335
  242SOL     OW  724   1.285   1.685   2.958  0.2211  0.1648  0.1497
  242SOL    HW1  725   1.383   1.696   2.929 -1.9875  3.6764  2.1099
  242SOL    HW2  726   1.218   1.680   2.880 -1.3560 -2.2071  1.8166
  243SOL     OW  727   0.990   2.625   2.325 -0.0425 -0.1022 -0.1233
  243SOL    HW1  728   0.927   2.615   2.244 -0.3630  0.9793 -0.6359
  243SOL    HW2  729   0.990   2.547   2.388 -2.5437  1.0936 -0.0436
  244SOL     OW  730   1.789   0.137   2.662  0.1789  0.0709  0.4973
  244SOL    HW1  731   1.885   0.117   2.624  3.0030 -1.6862 -1.3648
  244SOL    HW2  732   1.796   0.184   2.754 -0.3350  1.2127  0.1538
  245SOL     OW  733   1.363   2.680   0.531  0.5472  0.7078  0.5419
  245SOL    HW1  734   1.407   2.595   0.568  1.9447 -0.0106 -1.0424
  245SOL    HW2  735   1.429   2.738   0.479 -1.9334  1.5692 -2.0985
  246SOL     OW  736   0.920   0.012   3.001 -0.5163 -0.6088  0.0153
  246SOL    HW1  737   0.882   0.105   3.011  1.7015 -0.5640  1.7909
  246SOL    HW2  738   0.976   3.094   3.084 -1.4349  0.2836 -1.2054
  247SOL     OW  739   0.303   0.713   2.142 -0.0648 -0.4371  0.1022
  247SOL    HW1  740   0.312   0.722   2.041 -1.0756  1.9325 -1.2221
  247SOL    HW2  741   0.373   0.651   2.183  0.3371 -3.4219 -0.5270
  248SOL     OW  742   0.872   1.041   2.075  0.5820  0.2904 -0.2045
  248SOL    HW1  743   0.866   1.039   2.179 -0.6999 -0.9862  0.2761
  248SOL    HW2  744   0.870   1.137   2.041  0.5856 -2.0795  1.4944
  249SOL     OW  745   2.220   0.345   0.348 -0.3136 -0.4164  0.2419
  249SOL    HW1  746   2.278   0.282   0.294 -2.0195  3.6832  1.7552
  249SOL    HW2  747   2.146   0.383   0.289  1.3008 -0.5148  1.2798
  250SOL     OW  748   0.741   3.067   0.464 -0.3269 -0.2442 -0.9362
  250SOL    HW1  749   0.647   3.051   0.496  1.7186  0.1572 -1.1712
  250SOL    HW2  750   0.766   2.996   0.402  0.6165 -0.8295  2.7007
  251SOL     OW  751   1.466   2.882   2.898 -0.1311 -0.1606 -0.3909
  251SOL    HW1  752   1.411   2.814   2.945 -1.0792 -2.5698  1.8771
  251SOL    HW2  753   1.488   2.854   2.806 -0.4751  0.7494  2.2144
  252SOL     OW  754   1.906   1.450   2.229 -0.2649 -0.1928 -0.0793
  252SOL    HW1  755   1.855   1.431   2.315 -2.2982  0.1986 -1.9467
  252SOL    HW2  756   1.912   1.373   2.169  0.5939  1.3707  2.8458
  253SOL     OW  757   2.493   2.554   2.177 -0.3111 -0.4104  0.1621
  253SOL    HW1  758   2.580   2.516   2.208 -1.1010 -0.4558  0.2601
  253SOL    HW2  759   2.506   2.649   2.134  0.7076  1.8120 -0.4772
  254SOL     OW  760   1.182   2.197   1.723 -0.1082  0.4413  0.0894
  254SOL    HW1  761   1.091   2.227   1.699  2.0806 -0.0461 -0.1129
  254SOL    HW2  762   1.190   2.100   1.694  0.4348 -1.2268 -0.7480
  255SOL     OW  763   0.980   0.915   0.844  0.1708  0.2813 -0.1894
  255SOL    HW1  764   1.065   0.924   0.898  0.6663 -0.9508 -0.0188
  255SOL    HW2  765   0.966   1.001   0.789 -0.3765 -0.3661 -0.0131
  256SOL     OW  766   1.646   2.090   2.200  0.3392  0.0005  0.0883
  256SOL    HW1  767   1.661   2.169   2.140  2.7457 -2.4955  0.5668
  256SOL    HW2  768   1.650   1.999   2.147  0.8676 -2.9875 -2.5684
  257SOL     OW  769   0.270   2.624   2.914  0.2553  0.4693 -0.2679
  257SOL    HW1  770   0.361   2.635   2.872  2.7970 -1.0448  3.7199
  257SOL    HW2  771   0.229   2.530   2.898 -1.5901 -1.9948  0.9920
  258SOL     OW  772   0.796   0.147   2.097 -0.1822 -0.0364  0.4169
  258SOL    HW1  773   0.872   0.153   2.165 -0.9270  0.6482 -1.0384
  258SOL    HW2  774   0.844   0.118   2.011  0.9809 -1.1491 -1.8279
  259SOL     OW  775   0.997   0.194   2.282 -0.0698 -0.0981 -0.0670
  259SOL    HW1  776   1.063   0.122   2.314  1.1241  0.3532  0.5278
  259SOL    HW2  777   0.958   0.242   2.364  1.2704  2.6953  1.0939
  260SOL     OW  778   1.705   0.713   0.868  0.3688 -0.5469  0.0020
  260SOL    HW1  779   1.657   0.789   0.916  0.4671  0.8335  2.0312
  260SOL    HW2  780   1.802   0.723   0.886 -1.5298  0.7610 -0.1405
  261SOL     OW  781   0.271   0.194   2.881 -0.4707 -0.1824  0.0215
  261SOL    HW1  782   0.258   0.106   2.927 -0.8460 -0.2231  1.0569
  261SOL    HW2  783   0.295   0.261   2.954  0.4332  3.4458 -0.1847
  262SOL     OW  784   2.630   2.799   2.161 -0.2960 -0.0549  0.2319
  262SOL    HW1  785   2.712   2.779   2.104 -3.4202 -1.3688  1.5213
  262SOL    HW2  786   2.631   2.895   2.189 -2.9611  1.8781  0.6438
  263SOL     OW  787   0.157   2.108   2.403 -0.6166  0.4603 -0.0137
  263SOL    HW1  788   0.131   2.009   2.425 -2.6081 -1.3139 -1.9936
  263SOL    HW2  789   0.240   2.131   2.459 -0.0096 -0.4380 -1.6798
  264SOL     OW  790   0.912   1.039   1.095 -0.3623  0.0501 -0.6527
  264SOL    HW1  791   0.929   1.138   1.119  2.8870  0.6929 -2.1338
  264SOL    HW2  792   0.964   1.008   1.014  0.5084 -2.1685  0.8543
  265SOL     OW  793   0.475   1.977   0.160 -0.7498 -0.4250  0.0580
  265SOL    HW1  794   0.450   2.005   0.252  2.0526 -0.5905 -2.7461
  265SOL    HW2  795   0.558   2.025   0.131 -0.9323  0.4169 -2.3097
  266SOL     OW  796   1.112   0.932   0.420  0.1452 -0.1796 -0.9102
  266SOL    HW1  797   1.208   0.913   0.413 -1.1567  1.7144 -1.4126
  266SOL    HW2  798   1.065   0.865   0.483 -0.3093  0.5800  0.1089
  267SOL     OW  799   2.891   1.303   0.102 -0.3186  0.1189  0.2144
  267SOL    HW1  800   2.942   1.272   0.181 -0.3535  2.3281 -1.6162
  267SOL    HW2  801   2.873   1.228   0.036  0.0625  1.5910 -0.8425
  268SOL     OW  802   2.396   0.185   2.792  0.4226 -0.0735 -0.5606
  268SOL    HW1  803   2.471   0.129   2.830  0.3873 -0.5604 -0.5274
  268SOL    HW2  804   2.307   0.135   2.799 -0.7009 -1.8537  1.0772
  269SOL     OW  805   1.609   0.646   2.657  0.4830 -0.3167  0.1425
  269SOL    HW1  806   1.630   0.551   2.624 -0.4615  0.4167 -0.0262
  269SOL    HW2  807   1.539   0.692   2.599  0.8187  0.1801  1.4488
  270SOL     OW  808   0.829   0.903   2.735 -0.1133 -0.0594  0.1478
  270SOL    HW1  809   0.878   0.842   2.671 -2.3735  2.0029 -1.2446
  270SOL    HW2  810   0.742   0.858   2.760  1.1319 -0.5885 -0.9369
  271SOL     OW  811   2.726   1.273   0.381 -0.2880 -0.3265  0.1714
  271SOL    HW1  812   2.714   1.264   0.279  1.7984  3.0339 -2.5497
  271SOL    HW2  813   2.791   1.349   0.403 -0.3193  0.5566 -1.9641
  272SOL     OW  814   2.914   1.597   2.923 -0.2226 -0.2219 -0.1414
  272SOL    HW1  815   2.861   1.527   2.871 -1.3307 -1.9394  3.4975
  272SOL    HW2  816   2.956   1.666   2.863  1.8849 -0.9288 -1.6747
  273SOL     OW  817   2.276   0.003   0.362 -0.0526  0.3984 -0.2619
  273SOL    HW1  818   2.316   0.060   0.441  3.5198 -0.1535  0.3955
  273SOL    HW2  819   2.303   0.044   0.273  1.1514 -2.0734  0.9571
  274SOL     OW  820   0.435   2.454   0.942 -0.1723 -0.4108  0.7966
  274SOL    HW1  821   0.492   2.392   0.890 -1.4442  0.1158  0.0666
  274SOL    HW2  822   0.451   2.446   1.044  2.5722  0.5110  1.7235
  275SOL     OW  823   2.274   1.461   0.420 -0.1057  0.5449  0.2126
  275SOL    HW1  824   2.258   1.479   0.318 -0.4225 -1.5311  0.0273
  275SOL    HW2  825   2.305   1.365   0.434  0.5548 -0.3721 -0.4034
  276SOL     OW  826   3.041   1.223   2.319  0.1206  0.6722  0.1709
  276SOL    HW1  827   3.076   1.172   2.404  0.1569  0.5215  0.3034
  276SOL    HW2  828   2.947   1.188   2.303  1.9333 -0.4371 -0.2960
  277SOL     OW  829   2.110   2.826   1.191  0.3915 -0.3973  0.3853
  277SOL    HW1  830   2.190   2.789   1.140 -0.0421  0.7348 -0.1096
  277SOL    HW2  831   2.111   2.795   1.286 -0.1079 -1.4938 -3.6704
  278SOL     OW  832   1.222   3.067   2.191  0.4705 -0.6641  0.0630
  278SOL    HW1  833   1.147   3.069   2.122  0.8369 -0.8505 -1.6260
  278SOL    HW2  834   1.306   0.002   2.143  2.2510  1.9442 -1.0910
  279SOL     OW  835   1.669   1.792   0.536 -0.0474  0.5156  0.0456
  279SOL    HW1  836   1.626   1.803   0.631 -3.3743  2.1187  1.8219
  279SOL    HW2  837   1.742   1.864   0.523  1.3537 -0.7418  0.2596
  280SOL     OW  838   0.320   1.594   0.739 -0.5216  0.4604 -0.0596
  280SOL    HW1  839   0.399   1.641   0.701  2.0182 -0.5522  1.7377
  280SOL    HW2  840   0.264   1.659   0.789  2.0328  0.7589 -3.1313
  281SOL     OW  841   2.844   0.298   2.382  1.1742  0.1917 -0.3371
  281SOL    HW1  842   2.845   0.200   2.349 -1.3269 -0.0263 -2.1719
  281SOL    HW2  843   2.798   0.308   2.474 -0.0483 -1.1743 -1.0335
  282SOL     OW  844   0.428   0.798   0.522  0.5861  0.1994  0.1658
  282SOL    HW1  845   0.440   0.759   0.617 -0.2072  0.1051  0.7027
  282SOL    HW2  846   0.380   0.727   0.465 -0.1598 -0.5999 -0.6037
  283SOL     OW  847   1.765   1.772   0.138 -0.6539 -1.0194  0.3489
  283SOL    HW1  848   1.784   1.839   0.219  0.6110  0.2220  2.2086
  283SOL    HW2  849   1.814   1.802   0.055  0.9460 -0.1738  0.7505
  284SOL     OW  850   1.345   0.877   0.300  0.4146 -0.1440 -0.7567
  284SOL    HW1  851   1.366   0.880   0.199  0.4602 -0.5381  1.2126
  284SOL    HW2  852   1.419   0.926   0.353 -1.0962  0.0447 -0.7389
  285SOL     OW  853   2.202   0.664   2.399 -0.0671 -0.1675  0.7328
  285SOL    HW1  854   2.173   0.739   2.331  1.7828  0.5260  1.8358
  285SOL    HW2  855   2.119   0.615   2.438  2.6836 -0.8583 -0.6381
  286SOL     OW  856   1.791   2.901   1.428  0.0822  0.1777 -0.2359
  286SOL    HW1  857   1.838   2.829   1.485 -0.2961  0.2428  2.6760
  286SOL    HW2  858   1.776   2.879   1.330 -1.7909  0.9739 -2.2780
  287SOL     OW  859   1.225   0.977   0.959 -0.0847 -0.0151  0.1470
  287SOL    HW1  860   1.288   0.899   0.973 -0.7411 -0.2218 -0.9907
  287SOL    HW2  861   1.240   1.063   1.008 -2.0326  0.7436 -3.2707
  288SOL     OW  862   0.699   2.713   3.088 -0.2376 -0.2226  0.7490
  288SOL    HW1  863   0.684   2.787   3.016 -1.3216  1.7515 -1.1472
  288SOL    HW2  864   0.797   2.718   0.013 -0.9703  1.7628  0.6334
  289SOL     OW  865   0.388   1.468   1.798  0.0024  0.1937 -0.1430
  289SOL    HW1  866   0.486   1.451   1.776 -2.3416  1.5585 -0.2813
  289SOL    HW2  867   0.358   1.566   1.774 -1.4288  2.2986  0.9582
  290SOL     OW  868   1.628   2.381   1.143 -0.6503 -0.3957  0.2970
  290SOL    HW1  869   1.643   2.300   1.083 -1.2486 -2.3243 -2.1835
  290SOL    HW2  870   1.549   2.436   1.120  2.7630 -1.7864 -0.6800
  291SOL     OW  871   1.965   2.515   0.011 -0.2051  0.1979  0.2070
  291SOL    HW1  872   2.030   2.587   3.081 -0.9533  1.5333  0.8027
  291SOL    HW2  873   1.968   2.497   0.112 -2.1516 -0.2706  0.7728
  292SOL     OW  874   1.053   0.714   1.694 -0.1859 -0.2072  0.6744
  292SOL    HW1  875   1.039   0.690   1.792  1.3445 -1.0801 -2.1680
  292SOL    HW2  876   1.130   0.780   1.686  1.3155 -0.2098  0.1523
  293SOL     OW  877   1.865   2.686   0.922 -0.4635 -0.8057 -0.1181
  293SOL    HW1  878   1.899   2.596   0.941 -0.7563  4.0271 -1.8140
  293SOL    HW2  879   1.947   2.737   0.886  0.4825  0.1656  1.8676
  294SOL     OW  880   0.388   0.802   2.495  0.3547 -0.0650 -0.3476
  294SOL    HW1  881   0.302   0.774   2.541 -0.3230  0.2352 -1.2967
  294SOL    HW2  882   0.468   0.750   2.534  0.3050  0.9025 -3.3860
  295SOL     OW  883   1.481   1.616   0.803 -0.0204 -0.3560  0.7065
  295SOL    HW1  884   1.501   1.576   0.713  1.7311  2.4287 -2.8168
  295SOL    HW2  885   1.385   1.611   0.824  1.9856 -0.1880 -1.9655
  296SOL     OW  886   2.321   2.135   0.296 -0.5435 -0.5841  0.6565
  296SOL    HW1  887   2.395   2.159   0.234 -0.8489 -0.2024  0.3503
  296SOL    HW2  888   2.333   2.039   0.338 -0.5764 -2.2337 -2.0904
  297SOL     OW  889   2.303   0.143   0.125 -0.6382 -0.3452 -0.5615
  297SOL    HW1  890   2.366   0.080   0.068  3.3471 -0.3176  1.1260
  297SOL    HW2  891   2.210   0.144   0.087 -2.0619  1.2331 -1.8365
  298SOL     OW  892   1.295   2.175   2.786 -0.7491  0.0763  0.0436
  298SOL    HW1  893   1.204   2.149   2.815  1.4149  1.5818  0.1024
  298SOL    HW2  894   1.341   2.241   2.850  0.0671  1.8779 -0.2667
  299SOL     OW  895   1.334   2.602   2.679 -0.1785 -0.3157 -0.6575
  299SOL    HW1  896   1.358   2.695   2.642  0.9717  0.3921 -1.2360
  299SOL    HW2  897   1.400   2.570   2.749  2.3433  0.6797 -0.6719
  300SOL     OW  898   2.049   0.157   2.555 -0.3028 -0.0845 -0.2923
  300SOL    HW1  899   2.013   0.214   2.479  0.0379 -5.3361  1.3963
  300SOL    HW2  900   2.088   0.072   2.518 -0.8055  2.3454 -1.4829
  301SOL     OW  901   1.414   0.988   2.059 -0.2771  1.1102  0.1130
  301SOL    HW1  902   1.490   1.004   2.126  1.0794  0.6468 -0.1263
  301SOL    HW2  903   1.434   0.900   2.009 -1.8260 -1.3718  1.8638
  302SOL     OW  904   2.733   2.352   0.082  0.5524 -0.2334  0.0702
  302SOL    HW1  905   2.765   2.449   0.098 -1.3919 -0.5634 -0.0426
  302SOL    HW2  906   2.746   2.325   3.086  0.4862 -1.1145  1.1865
  303SOL     OW  907   2.727   2.458   2.297  0.0814  0.0621  0.1271
  303SOL    HW1  908   2.829   2.447   2.286 -0.5570  0.7698  0.0967
  303SOL    HW2  909   2.681   2.373   2.327 -0.8693 -4.5294 -0.2443
  304SOL     OW  910   2.817   0.649   1.554 -0.4984  0.5411  0.1127
  304SOL    HW1  911   2.873   0.648   1.639  2.1317  0.6232  0.7547
  304SOL    HW2  912   2.755   0.568   1.556  0.8813 -1.4629 -1.0027
  305SOL     OW  913   0.704   2.001   1.766 -0.2684 -0.2934  0.5608
  305SOL    HW1  914   0.707   2.101   1.789  2.0546  0.3507  0.5865
  305SOL    HW2  915   0.695   1.993   1.665  1.3434  0.0498  0.4039
  306SOL     OW  916   2.687   0.863   1.677 -0.2153  0.2015  0.5722
  306SOL    HW1  917   2.584   0.855   1.657 -3.5645 -3.3112 -1.4929
  306SOL    HW2  918   2.740   0.791   1.628  0.4207  0.1467 -0.7666
  307SOL     OW  919   1.489   0.768   1.913 -0.4414 -0.4523 -0.1592
  307SOL    HW1  920   1.557   0.701   1.953  2.2214 -2.0554  2.0269
  307SOL    HW2  921   1.426   0.710   1.853 -0.3637  1.1093 -0.4790
  308SOL     OW  922   2.823   1.665   1.241  0.2878 -0.4915 -0.4594
  308SOL    HW1  923   2.882   1.666   1.159 -1.0619  2.0378  0.4176
  308SOL    HW2  924   2.777   1.576   1.245 -0.6260  2.7763 -1.5956
  309SOL     OW  925   2.639   1.470   1.144  0.1935 -0.1879 -0.4674
  309SOL    HW1  926   2.571   1.545   1.119 -0.7780 -0.4865  1.5283
  309SOL    HW2  927   2.685   1.424   1.069 -0.2569 -0.2520  0.8966
  310SOL     OW  928   2.740   1.856   2.593 -0.3911 -0.1754  0.5194
  310SOL    HW1  929   2.637   1.844   2.606 -2.2188 -0.0622  0.2431
  310SOL    HW2  930   2.791   1.885   2.679 -2.5139  0.6146  3.2944
  311SOL     OW  931   0.011   2.738   0.188  0.7948 -0.3361  0.2618
  311SOL    HW1  932   3.018   2.778   0.200 -0.6721  0.6927 -0.0776
  311SOL    HW2  933   3.099   2.634   0.183 -3.1915 -2.6443  0.9810
  312SOL     OW  934   2.040   1.700   0.841  0.2464  0.0040  0.0309
  312SOL    HW1  935   2.048   1.716   0.741 -0.2272 -0.7788 -0.3157
  312SOL    HW2  936   2.014   1.601   0.859 -0.0262  2.0619  1.6761
  313SOL     OW  937   2.592   3.060   0.952 -0.0820  0.7583 -0.0124
  313SOL    HW1  938   2.516   3.021   0.900 -1.0029  0.9320  2.1470
  313SOL    HW2  939   2.680   3.043   0.914 -0.0308 -0.8225 -0.8878
  314SOL     OW  940   1.279   1.526   0.265  0.1659  0.2842  0.3512
  314SOL    HW1  941   1.349   1.448   0.277  0.1591 -0.4004 -1.6174
  314SOL    HW2  942   1.337   1.608   0.253  2.3987  0.0333 -0.9962
  315SOL     OW  943   1.326   2.422   2.337 -0.1099 -0.3616  0.2316
  315SOL    HW1  944   1.257   2.445   2.404  0.5336 -1.7416  0.1825
  315SOL    HW2  945   1.307   2.462   2.243 -1.2071 -3.2201 -0.7997
  316SOL     OW  946   0.032   1.003   0.362 -0.1980  0.6116 -0.7468
  316SOL    HW1  947   3.101   1.097   0.336 -1.1889 -0.5263  0.8969
  316SOL    HW2  948   0.078   1.006   0.456 -3.0756  0.8914  2.9629
  317SOL     OW  949   0.424   3.031   0.320  0.0197  0.2230 -0.2713
  317SOL    HW1  950   0.391   2.997   0.410  2.1102  1.6868 -1.7616
  317SOL    HW2  951   0.455   2.951   0.269  0.0189 -3.0544  0.6837
  318SOL     OW  952   2.581   2.230   0.551  0.2289 -0.7016  0.0345
  318SOL    HW1  953   2.526   2.177   0.619  3.3745 -1.5835  1.4822
  318SOL    HW2  954   2.575   2.194   0.456  1.6048  0.4829 -1.3991
  319SOL     OW  955   0.740   1.346   2.776 -0.2024 -0.3414 -0.2126
  319SOL    HW1  956   0.710   1.409   2.845  1.1873 -0.4541 -0.9133
  319SOL    HW2  957   0.841   1.348   2.771  2.0066  1.2358 -1.7213
  320SOL     OW  958   0.731   2.273   1.829 -0.3712 -0.0983 -0.0213
  320SOL    HW1  959   0.626   2.268   1.814 -1.5685 -2.9689  2.1764
  320SOL    HW2  960   0.789   2.292   1.747  0.9403  0.9005  1.6337
  321SOL     OW  961   1.810   2.157   0.055  0.0382  0.3388 -0.8277
  321SOL    HW1  962   1.904   2.122   0.041 -1.2866  0.0871 -0.1173
  321SOL    HW2  963   1.765   2.188   3.073  2.8917  0.7803  0.0367
  322SOL     OW  964   3.064   1.382   2.081 -0.2631  0.1021  0.3724
  322SOL    HW1  965   3.065   1.324   2.163  0.5628  0.4614 -1.7083
  322SOL    HW2  966   3.033   1.333   1.998 -0.7338  0.6571 -1.4364
  323SOL     OW  967   2.483   1.204   0.487  0.3829 -0.3610  0.1330
  323SOL    HW1  968   2.428   1.136   0.439 -3.3973  1.5857  1.0066
  323SOL    HW2  969   2.581   1.208   0.455  2.0557 -0.3446  1.1688
  324SOL     OW  970   0.027   2.745   2.838 -0.4400  0.6442  0.1691
  324SOL    HW1  971   0.024   2.677   2.763  0.7550  0.9655 -0.5976
  324SOL    HW2  972   0.104   2.732   2.905  1.1669 -1.2285 -0.0482
  325SOL     OW  973   1.471   0.278   2.395  0.6760  0.3850  0.0143
  325SOL    HW1  974   1.494   0.198   2.451 -0.6993  3.4740 -2.0474
  325SOL    HW2  975   1.369   0.299   2.400 -1.2365 -2.3110 -1.9877
  326SOL     OW  976   2.290   2.596   1.545  0.0617 -0.0283  0.0758
  326SOL    HW1  977   2.317   2.571   1.638 -0.8223  1.7791 -0.1061
  326SOL    HW2  978   2.286   2.512   1.488 -0.0714 -0.7349  1.4435
  327SOL     OW  979   1.780   0.209   2.936  0.3693  0.0429  0.2515
  327SOL    HW1  980   1.762   0.107   2.938 -1.8933 -0.8758  2.6576
  327SOL    HW2  981   1.880   0.232   2.940 -0.4730  0.8016 -1.3900
  328SOL     OW  982   3.006   0.694   2.287  0.0267 -0.7755  0.1058
  328SOL    HW1  983   3.060   0.769   2.259  1.0708 -2.8165 -0.9041
  328SOL    HW2  984   2.931   0.724   2.353 -0.8410 -1.9641  1.4371
  329SOL     OW  985   1.437   0.082   2.079  0.2797 -0.7114  0.2162
  329SOL    HW1  986   1.420   0.182   2.061 -0.0614 -1.5318 -1.6750
  329SOL    HW2  987   1.515   0.062   2.141  1.2776  0.9509  0.4381
  330SOL     OW  988   2.742   1.833   1.433 -0.2731 -0.0459 -0.1318
  330SOL    HW1  989   2.788   1.757   1.378  0.6839 -1.3182  1.1732
  330SOL    HW2  990   2.689   1.793   1.515 -1.3846  2.6201  0.4467
  331SOL     OW  991   0.570   1.532   2.422 -0.1959 -0.0853 -0.4838
  331SOL    HW1  992   0.544   1.552   2.325  1.6649 -0.1765 -0.0433
  331SOL    HW2  993   0.638   1.459   2.426 -3.0733  0.5973 -1.3839
  332SOL     OW  994   0.278   2.836   1.492 -0.5525 -0.0954 -0.6430
  332SOL    HW1  995   0.358   2.892   1.460  1.3015 -0.7209  0.3855
  332SOL    HW2  996   0.197   2.899   1.509  2.4056  1.8184 -0.0994
  333SOL     OW  997   2.515   2.671   1.422 -0.0947  0.2625 -0.3797
  333SOL    HW1  998   2.580   2.628   1.491 -0.0435 -0.1416  1.4961
  333SOL    HW2  999   2.427   2.623   1.420 -0.6040 -0.0603  0.2259
  334SOL     OW 1000   0.922   2.032   1.013  0.6925 -0.2655  0.2536
  334SOL    HW1 1001   1.009   2.060   0.972 -3.1372 -0.4107  1.3599
  334SOL    HW2 1002   0.904   1.934   0.995 -3.0831  1.7493 -0.1312
  335SOL     OW 1003   0.269   2.148   0.049  0.0314  0.1102  0.1863
  335SOL    HW1 1004   0.171   2.169   0.053 -0.5662 -0.3491  0.7454
  335SOL    HW2 1005   0.286   2.056   0.094  0.6759 -0.5395  0.2553
  336SOL     OW 1006   0.360   0.173   1.747 -0.3848  0.0296 -0.0031
  336SOL    HW1 1007   0.268   0.160   1.705 -0.0926  1.5598  0.5771
  336SOL    HW2 1008   0.441   0.179   1.686  1.2880 -1.3632  1.0227
  337SOL     OW 1009   2.614   1.811   2.979 -0.3798  0.2752  0.1759
  337SOL    HW1 1010   2.544   1.881   2.994  0.9548 -1.9096 -1.3371
  337SOL    HW2 1011   2.670   1.785   3.063  0.1064 -0.2953  1.8601
  338SOL     OW 1012   1.124   1.742   1.293 -0.2693  0.7869  0.2624
  338SOL    HW1 1013   1.202   1.680   1.312 -1.1038  0.9759  0.3399
  338SOL    HW2 1014   1.147   1.840   1.317  0.0016  0.2262  1.5906
  339SOL     OW 1015   0.022   0.371   1.901  0.6923 -0.6195  0.6065
  339SOL    HW1 1016   3.074   0.461   1.910  1.6339  1.1381 -0.8341
  339SOL    HW2 1017   0.095   0.369   1.969  0.0531 -1.1712  0.9881
  340SOL     OW 1018   1.712   2.510   0.447 -0.2346 -0.4827 -0.1569
  340SOL    HW1 1019   1.718   2.423   0.393 -0.5133 -2.7465 -3.8500
  340SOL    HW2 1020   1.646   2.499   0.523  0.7046 -0.1542 -0.4605
  341SOL     OW 1021   1.853   1.400   1.086  0.4489 -0.3383 -0.8535
  341SOL    HW1 1022   1.879   1.301   1.088  0.9466 -1.5015 -3.2521
  341SOL    HW2 1023   1.763   1.414   1.129 -4.4885 -2.9592  0.0945
  342SOL     OW 1024   3.092   2.140   0.494 -0.0789  0.2215 -0.0088
  342SOL    HW1 1025   3.045   2.083   0.563 -1.4153  0.7073 -0.3882
  342SOL    HW2 1026   0.075   2.097   0.455  1.0903  1.1571  0.9972
  343SOL     OW 1027   1.413   2.549   1.116 -0.3597  0.0103 -0.7140
  343SOL    HW1 1028   1.392   2.641   1.152 -2.2603  1.4586 -0.8403
  343SOL    HW2 1029   1.374   2.479   1.184 -0.8974 -0.8534 -0.2490
  344SOL     OW 1030   2.085   2.792   0.814 -0.0356 -0.1418  0.8854
  344SOL    HW1 1031   2.030   2.876   0.784 -0.0334  2.0594 -0.7320
  344SOL    HW2 1032   2.120   2.738   0.732 -0.3719  1.5056  1.7474
  345SOL     OW 1033   2.818   1.931   2.839  0.2668 -0.2391 -0.3272
  345SOL    HW1 1034   2.752   1.874   2.896 -0.9014 -1.6716 -1.7310
  345SOL    HW2 1035   2.905   1.936   2.889 -1.8224  0.7665 -0.4890
  346SOL     OW 1036   0.151   1.784   0.865  0.1907 -0.1834 -0.2758
  346SOL    HW1 1037   0.062   1.750   0.823 -0.1115  1.5201 -2.8096
  346SOL    HW2 1038   0.145   1.880   0.898 -0.4373 -1.2211 -0.7621
  347SOL     OW 1039   1.950   2.490   1.370 -0.1193 -0.4043  0.1994
  347SOL    HW1 1040   1.940   2.579   1.419  1.1207  1.6835  3.4677
  347SOL    HW2 1041   2.016   2.499   1.290  0.5830  0.2826 -0.8765
  348SOL     OW 1042   1.119   1.710   2.740 -0.4348 -0.2452 -0.0944
  348SOL    HW1 1043   1.027   1.696   2.704  1.4826  1.1078 -0.3518
  348SOL    HW2 1044   1.186   1.730   2.664 -1.9191 -0.0775  1.9891
  349SOL     OW 1045   2.430   1.313   1.922  0.0294 -0.4718  0.3855
  349SOL    HW1 1046   2.335   1.277   1.924  1.3101  2.2851 -2.9737
  349SOL    HW2 1047   2.430   1.416   1.939 -0.5005  0.6960  1.2016
  350SOL     OW 1048   0.023   2.435   1.395  0.8249  0.4595 -0.0013
  350SOL    HW1 1049   0.085   2.510   1.363  0.9580  2.5164 -2.0702
  350SOL    HW2 1050   0.043   2.351   1.340 -1.4390  1.7097  0.8068
  351SOL     OW 1051   0.352   0.472   2.633 -0.0829 -0.1300 -0.5253
  351SOL    HW1 1052   0.296   0.480   2.546  2.1461  0.4177  0.1244
  351SOL    HW2 1053   0.300   0.497   2.718 -0.0594  0.2994  3.0406
  352SOL     OW 1054   0.785   2.513   1.544  0.1839 -0.0822  0.5350
  352SOL    HW1 1055   0.824   2.601   1.508  0.3620 -1.7679 -1.3218
  352SOL    HW2 1056   0.712   2.488   1.480 -0.2754  3.9773  0.9264
  353SOL     OW 1057   0.947   1.516   2.412  0.2081 -0.0703 -0.0746
  353SOL    HW1 1058   0.873   1.451   2.403  2.3908  0.1040  0.1225
  353SOL    HW2 1059   1.028   1.479   2.365  0.0204 -0.0101 -0.9156
  354SOL     OW 1060   1.665   0.890   0.590  0.5473  0.6234  0.0187
  354SOL    HW1 1061   1.610   0.938   0.517  0.8407  1.1486 -1.9531
  354SOL    HW2 1062   1.612   0.826   0.648  2.0001 -0.6811  0.0778
  355SOL     OW 1063   2.766   0.652   0.276  0.5106 -0.1046  0.0464
  355SOL    HW1 1064   2.746   0.637   0.179  0.1282 -0.7522  1.8734
  355SOL    HW2 1065   2.847   0.713   0.295 -1.4290  2.8738  0.3762
  356SOL     OW 1066   2.644   1.090   2.481  0.2501 -0.5278  0.4074
  356SOL    HW1 1067   2.728   1.044   2.507 -2.1797  2.1603  0.5756
  356SOL    HW2 1068   2.569   1.079   2.550  2.0434 -1.5474  0.1245
  357SOL     OW 1069   0.655   2.781   1.675 -0.5019  0.6560  0.5827
  357SOL    HW1 1070   0.717   2.810   1.595  0.2832  1.2459 -1.5033
  357SOL    HW2 1071   0.713   2.780   1.762 -1.2351 -0.7404  2.7055
  358SOL     OW 1072   2.123   1.270   1.964 -0.3127  0.1129  0.6300
  358SOL    HW1 1073   2.091   1.367   1.961 -0.0175 -1.2404  1.0790
  358SOL    HW2 1074   2.127   1.238   1.868 -0.5516 -1.2955  0.4067
  359SOL     OW 1075   2.096   2.280   3.082 -0.5169 -0.4872 -0.1266
  359SOL    HW1 1076   2.040   2.367   3.074  2.0067  2.1698 -1.9485
  359SOL    HW2 1077   2.187   2.302   0.017 -1.2334  0.8435  0.7723
  360SOL     OW 1078   2.256   0.585   0.650 -0.2792  0.0218  0.2316
  360SOL    HW1 1079   2.306   0.619   0.732 -1.5987  0.8890  0.1973
  360SOL    HW2 1080   2.305   0.585   0.561 -1.4109  0.0185  2.2106
  361SOL     OW 1081   1.910   0.061   0.894 -0.0246  0.2198 -0.0346
  361SOL    HW1 1082   1.966   0.032   0.815 -1.4298 -1.9785 -1.6830
  361SOL    HW2 1083   1.816   0.013   0.898 -0.6331  0.9346 -2.4618
  362SOL     OW 1084   1.389   1.229   0.549 -0.1778  0.3040 -0.1812
  362SOL    HW1 1085   1.299   1.239   0.511  2.7122  0.9320 -1.1606
  362SOL    HW2 1086   1.404   1.141   0.596 -0.7108 -0.3699  0.5948
  363SOL     OW 1087   2.506   1.661   2.264 -0.1249  0.3552  0.2526
  363SOL    HW1 1088   2.578   1.587   2.256 -0.1732 -1.1204  0.4031
  363SOL    HW2 1089   2.463   1.648   2.358  2.1147  0.2840 -0.3201
  364SOL     OW 1090   1.265   0.634   1.480 -0.0214  0.2494 -0.2650
  364SOL    HW1 1091   1.344   0.588   1.433 -1.0635 -0.0364  0.6967
  364SOL    HW2 1092   1.197   0.666   1.417 -0.4895 -0.9738  0.5794
  365SOL     OW 1093   0.160   0.006   0.759 -0.2674 -0.9078 -0.5796
  365SOL    HW1 1094   0.112   0.096   0.737  0.4638  0.6236 -0.7116
  365SOL    HW2 1095   0.102   3.062   0.830  0.2372  2.3825  0.6890
  366SOL     OW 1096   2.912   1.445   0.494  0.0373  0.9734 -0.2683
  366SOL    HW1 1097   2.932   1.427   0.590  0.7616 -1.9043 -1.4622
  366SOL    HW2 1098   2.947   1.535   0.464  0.1090 -1.0571 -1.1949
  367SOL     OW 1099   0.019   2.257   3.082  0.3364  0.3696 -0.4019
  367SOL    HW1 1100   0.090   2.285   3.019 -1.4699 -1.1065  0.9437
  367SOL    HW2 1101   3.097   2.331   0.048 -0.6193 -0.0701  1.0192
  368SOL     OW 1102   3.053   2.230   0.978 -0.3137 -0.0036 -0.1695
  368SOL    HW1 1103   0.028   2.226   0.905  2.6864 -1.3226 -1.1343
  368SOL    HW2 1104   2.963   2.266   0.941  1.1346 -2.4869  2.0922
  369SOL     OW 1105   0.511   0.203   0.335 -0.2805  0.2812  0.6278
  369SOL    HW1 1106   0.487   0.102   0.323  0.8504 -1.3976  0.6647
  369SOL    HW2 1107   0.603   0.222   0.289 -1.2101  0.7604 -2.6849
  370SOL     OW 1108   0.432   1.078   1.322 -0.1656  0.4830  0.0580
  370SOL    HW1 1109   0.502   1.130   1.273  2.4665  1.6120  0.0815
  370SOL    HW2 1110   0.436   1.102   1.420  1.7300  2.3658  1.5995
  371SOL     OW 1111   1.978   2.207   0.897  0.0164  0.7015 -0.4086
  371SOL    HW1 1112   2.027   2.115   0.921  3.6171 -2.1127 -0.1330
  371SOL    HW2 1113   1.934   2.199   0.809  0.7737  1.2277  3.0169
  372SOL     OW 1114   2.883   0.972   2.499 -0.0778 -0.7176  0.3448
  372SOL    HW1 1115   2.849   0.877   2.485  0.0809 -0.1193 -0.5478
  372SOL    HW2 1116   2.979   0.977   2.468 -2.2069  1.8897  1.1790
  373SOL     OW 1117   2.782   1.601   0.738  0.3491  0.3246  0.4811
  373SOL    HW1 1118   2.736   1.661   0.805  0.5622 -0.5351  0.4641
  373SOL    HW2 1119   2.733   1.519   0.715 -0.0555  0.8223  0.4347
  374SOL     OW 1120   0.601   2.299   0.327  0.1483  0.0537 -0.3388
  374SOL    HW1 1121   0.591   2.200   0.355  0.1061 -2.6200  0.1255
  374SOL    HW2 1122   0.565   2.314   0.236  2.1908  1.6489  1.6361
  375SOL     OW 1123   0.730   0.269   0.195 -0.4420  0.0131 -0.0625
  375SOL    HW1 1124   0.818   0.229   0.214 -1.8463 -1.4964 -1.2998
  375SOL    HW2 1125   0.736   0.367   0.199  0.7147 -2.2029  1.4297
  376SOL     OW 1126   0.407   3.075   1.963  0.3104 -0.1406  0.0407
  376SOL    HW1 1127   0.400   0.056   1.899 -1.0975 -0.2425 -1.0016
  376SOL    HW2 1128   0.375   2.988   1.924  0.8876  3.3020  0.2460
  377SOL     OW 1129   1.027   2.311   2.389 -0.0737 -0.0956 -0.5503
  377SOL    HW1 1130   1.094   2.232   2.404  1.2771 -0.5755 -2.0280
  377SOL    HW2 1131   1.051   2.380   2.462  0.3205  1.8037  2.0506
  378SOL     OW 1132   1.013   0.759   0.602 -0.1673 -0.2239  0.0720
  378SOL    HW1 1133   0.988   0.815   0.682 -0.8319 -2.4011 -0.8011
  378SOL    HW2 1134   1.046   0.671   0.637  1.4093  0.7818 -3.3844
  379SOL     OW 1135   0.923   1.744   2.951  0.0681 -0.1221 -0.2514
  379SOL    HW1 1136   0.896   1.650   2.982  0.9930 -0.7938  2.3101
  379SOL    HW2 1137   1.011   1.747   2.906  0.2934 -0.5460  1.1996
  380SOL     OW 1138   2.929   1.799   1.700  0.6038 -0.3446 -0.0803
  380SOL    HW1 1139   2.969   1.834   1.787 -2.4650 -1.2039 -0.0962
  380SOL    HW2 1140   2.908   1.877   1.638 -0.6612  2.5482  0.9026
  381SOL     OW 1141   0.102   1.048   1.923 -0.2750 -0.3410  0.1033
  381SOL    HW1 1142   0.197   1.061   1.954 -1.0350 -2.0914  0.0285
  381SOL    HW2 1143   0.110   0.989   1.838 -0.2236 -2.9312  0.0819
  382SOL     OW 1144   2.371   2.333   0.057 -0.1256  0.0229 -0.5869
  382SOL    HW1 1145   2.394   2.364   3.063 -2.8892 -2.4545  0.4981
  382SOL    HW2 1146   2.460   2.299   0.104  1.0751 -0.1835  0.8236
  383SOL     OW 1147   2.428   2.035   2.238  0.3161  0.3757 -0.4836
  383SOL    HW1 1148   2.499   1.972   2.207 -3.4175 -0.2206 -0.1617
  383SOL    HW2 1149   2.468   2.121   2.267 -0.0274 -1.3855 -0.5874
  384SOL     OW 1150   1.024   2.303   2.115 -0.1853  0.2742  0.6624
  384SOL    HW1 1151   1.050   2.301   2.213  0.3739  1.1116 -1.0906
  384SOL    HW2 1152   0.933   2.350   2.103 -2.0084 -0.5893  0.7720
  385SOL     OW 1153   2.666   2.171   0.982 -0.3886  0.6450 -0.0614
  385SOL    HW1 1154   2.573   2.215   0.966 -0.4956 -3.2769  1.2526
  385SOL    HW2 1155   2.666   2.109   1.062 -1.9481  0.5037  0.3613
  386SOL     OW 1156   1.978   0.517   2.792  0.3968  0.5000 -0.0548
  386SOL    HW1 1157   2.074   0.536   2.822  1.5762  3.2890 -1.3191
  386SOL    HW2 1158   1.909   0.573   2.840  2.3443  2.5218  0.5821
  387SOL     OW 1159   0.531   0.454   1.938  0.0328  0.6137 -0.2256
  387SOL    HW1 1160   0.456   0.423   1.875 -1.0136  0.2352 -1.5339
  387SOL    HW2 1161   0.491   0.466   2.030  1.5340  1.8645 -1.6301
  388SOL     OW 1162   2.743   1.140   1.737 -0.4513  0.4075 -0.0469
  388SOL    HW1 1163   2.729   1.041   1.705 -2.2781 -0.4141 -0.8058
  388SOL    HW2 1164   2.832   1.156   1.782 -4.1420  2.2374 -1.0279
  389SOL     OW 1165   1.571   0.785   2.276  0.4552 -0.0732 -0.0186
  389SOL    HW1 1166   1.584   0.883   2.249  3.1079  0.5653  0.8697
  389SOL    HW2 1167   1.486   0.760   2.232  3.9841  0.5796 -1.4924
  390SOL     OW 1168   1.950   2.251   0.581  0.5060  0.3216 -0.0924
  390SOL    HW1 1169   2.053   2.240   0.559  0.3993 -2.4590 -0.6785
  390SOL    HW2 1170   1.933   2.337   0.633  1.2053 -2.6880  2.0859
  391SOL     OW 1171   1.767   2.853   1.152  0.2369  0.1116 -0.1491
  391SOL    HW1 1172   1.676   2.827   1.113  0.4316 -2.3668  2.1607
  391SOL    HW2 1173   1.835   2.799   1.103 -0.8266 -1.4394 -1.0851
  392SOL     OW 1174   2.792   2.491   1.197  0.7949  0.3733  0.0204
  392SOL    HW1 1175   2.828   2.538   1.278 -1.6878 -1.3750 -0.5230
  392SOL    HW2 1176   2.690   2.486   1.201 -0.3914 -0.4625 -0.4409
  393SOL     OW 1177   1.785   1.630   2.801  0.9536 -0.3110  0.1526
  393SOL    HW1 1178   1.808   1.728   2.803 -2.3439  1.1430  1.7695
  393SOL    HW2 1179   1.804   1.582   2.889 -0.9782  0.2654  2.9987
  394SOL     OW 1180   0.292   2.757   0.082  0.0637  0.0246  0.2206
  394SOL    HW1 1181   0.280   2.728   3.085  0.2741 -0.4705  1.3038
  394SOL    HW2 1182   0.202   2.766   0.130  0.0078 -2.6170  0.0514
  395SOL     OW 1183   1.345   1.206   1.112 -0.3293  0.2589 -0.2943
  395SOL    HW1 1184   1.387   1.139   1.172  1.3685  2.8352 -1.1265
  395SOL    HW2 1185   1.417   1.275   1.103 -1.9369  1.8024 -0.8011
  396SOL     OW 1186   2.034   0.841   2.770 -0.1955  0.1159  0.5704
  396SOL    HW1 1187   2.066   0.888   2.860  1.9074  1.1396  0.7622
  396SOL    HW2 1188   2.117   0.805   2.721  0.9334  1.9407  0.2249
  397SOL     OW 1189   0.175   0.780   2.632  0.1663  0.2060 -0.4705
  397SOL    HW1 1190   0.111   0.837   2.576  3.3156 -0.7974  2.5835
  397SOL    HW2 1191   0.198   0.821   2.719 -0.2395 -0.4671 -0.4059
  398SOL     OW 1192   1.233   0.383   0.018 -0.8453 -0.1284 -0.2896
  398SOL    HW1 1193   1.301   0.435   3.065 -1.1946 -0.7828  0.1320
  398SOL    HW2 1194   1.147   0.435   0.022  1.0615  0.0413 -2.0624
  399SOL     OW 1195   2.025   0.087   1.713  0.2575  0.0964  0.8015
  399SOL    HW1 1196   2.097   0.040   1.659 -2.0337  1.5385  1.8729
  399SOL    HW2 1197   1.928   0.063   1.688 -0.9784  1.3204  1.8052
  400SOL     OW 1198   0.098   1.776   2.439 -0.1774  0.5506  0.3928
  400SOL    HW1 1199   0.091   1.767   2.334 -3.2087  2.0355 -0.3247
  400SOL    HW2 1200   0.008   1.752   2.480  1.5001  1.9290 -0.9853
  401SOL     OW 1201   0.752   0.231   3.023  0.1644 -0.0421 -0.1353
  401SOL    HW1 1202   0.738   0.221   0.023 -0.4469 -2.8795 -0.5053
  401SOL    HW2 1203   0.710   0.317   2.977 -1.0162  0.3565 -2.4218
  402SOL     OW 1204   0.514   2.371   1.440  0.1187 -0.0204  0.8455
  402SOL    HW1 1205   0.468   2.295   1.488  2.3336  1.1094 -0.8139
  402SOL    HW2 1206   0.491   2.462   1.481  0.5539 -2.2170  1.0607
  403SOL     OW 1207   0.425   1.452   1.397  0.7117  0.4947  0.1732
  403SOL    HW1 1208   0.339   1.417   1.447 -1.1085 -2.3318  0.3263
  403SOL    HW2 1209   0.451   1.545   1.429  2.1206 -0.9237  2.0262
  404SOL     OW 1210   2.923   2.567   1.850  0.2795 -0.7017  0.2512
  404SOL    HW1 1211   2.977   2.595   1.765  1.9153 -3.1360 -2.6273
  404SOL    HW2 1212   2.894   2.653   1.900  0.0084  1.9803 -0.1201
  405SOL     OW 1213   2.691   0.364   2.159  0.0503 -0.1649 -0.1976
  405SOL    HW1 1214   2.589   0.353   2.175 -0.5450  1.4466 -1.2299
  405SOL    HW2 1215   2.749   0.335   2.238 -2.7396  2.9999 -0.0691
  406SOL     OW 1216   1.967   2.430   0.273  0.3001  0.2524  0.4036
  406SOL    HW1 1217   1.926   2.348   0.323  2.3753 -2.1877  0.0069
  406SOL    HW2 1218   2.045   2.464   0.327  0.9435 -1.3289  1.2111
  407SOL     OW 1219   1.833   1.866   0.880  0.4348 -0.7241 -0.1821
  407SOL    HW1 1220   1.905   1.796   0.866 -0.8848  1.1466 -2.2205
  407SOL    HW2 1221   1.839   1.906   0.972  2.5897 -0.7186  0.4633
  408SOL     OW 1222   0.675   0.350   2.214  0.0169 -0.1579  0.1509
  408SOL    HW1 1223   0.760   0.403   2.237 -1.9666  1.2565 -0.0661
  408SOL    HW2 1224   0.703   0.256   2.182  0.5382  0.1037  0.3392
  409SOL     OW 1225   2.463   1.865   0.726  0.1013  0.2976  0.2208
  409SOL    HW1 1226   2.541   1.860   0.797  0.0332 -0.2585  1.4362
  409SOL    HW2 1227   2.412   1.776   0.713 -1.1064 -1.3155  0.5361
  410SOL     OW 1228   2.395   1.498   0.857 -0.4273 -0.0547  0.3057
  410SOL    HW1 1229   2.339   1.421   0.898 -1.5373 -0.0971  0.7131
  410SOL    HW2 1230   2.389   1.577   0.920  0.2665 -2.9038  0.0872
  411SOL     OW 1231   3.003   0.785   0.312  0.5286 -0.6302  0.0295
  411SOL    HW1 1232   3.034   0.717   0.380 -0.1831  1.9971 -1.1620
  411SOL    HW2 1233   3.049   0.876   0.336  1.0911 -0.2770  0.0502
  412SOL     OW 1234   1.792   0.450   3.078  0.3064 -0.1555  0.2063
  412SOL    HW1 1235   1.747   0.536   3.074  0.5535 -2.5739 -2.0950
  412SOL    HW2 1236   1.759   0.384   3.007 -1.0883 -2.1828 -2.0163
  413SOL     OW 1237   0.854   0.924   1.349  0.0817  0.6284  0.1087
  413SOL    HW1 1238   0.786   0.888   1.416 -1.2856  0.7935 -1.0603
  413SOL    HW2 1239   0.830   0.925   1.247  0.3019 -1.2423 -0.6435
  414SOL     OW 1240   0.051   1.288   2.887 -0.4564 -0.0818 -0.1375
  414SOL    HW1 1241   0.023   1.359   2.953  1.3096  0.4213  0.8292
  414SOL    HW2 1242   0.124   1.317   2.825 -2.3739 -2.0864 -0.1985
  415SOL     OW 1243   0.205   1.626   0.047  0.1697  0.4590 -0.5862
  415SOL    HW1 1244   0.267   1.632   3.066 -1.9312 -2.3571 -1.2583
  415SOL    HW2 1245   0.129   1.557   0.030  0.0057 -0.7642 -0.3427
  416SOL     OW 1246   1.771   0.872   0.146  0.1129 -0.6028 -0.1706
  416SOL    HW1 1247   1.852   0.816   0.179 -0.9744 -0.9326 -0.4573
  416SOL    HW2 1248   1.718   0.907   0.228 -1.6680  1.8046  4.0431
  417SOL     OW 1249   0.122   0.780   1.105  0.8406  0.3452  0.4444
  417SOL    HW1 1250   0.145   0.834   1.192 -3.7000 -0.0646  0.2800
  417SOL    HW2 1251   0.174   0.817   1.025  0.7052 -0.5806 -2.0261
  418SOL     OW 1252   2.329   1.263   2.653 -0.0544  0.1063 -0.1916
  418SOL    HW1 1253   2.230   1.263   2.676  2.3454 -1.3998 -1.1047
  418SOL    HW2 1254   2.370   1.168   2.668  0.7390  1.2861 -0.2568
  419SOL     OW 1255   0.381   0.432   0.195 -0.1553  0.2128 -0.5207
  419SOL    HW1 1256   0.414   0.367   0.266  1.6398 -1.7607  0.8470
  419SOL    HW2 1257   0.300   0.394   0.148  1.1977  0.6153 -0.2431
  420SOL     OW 1258   0.452   1.362   0.846  0.7196 -0.8160 -0.1482
  420SOL    HW1 1259   0.441   1.373   0.944 -0.1577 -1.7730 -0.5443
  420SOL    HW2 1260   0.439   1.448   0.793  1.8471 -0.8796  1.8280
  421SOL     OW 1261   0.427   2.055   0.416  0.3207 -0.5298  0.2974
  421SOL    HW1 1262   0.326   2.028   0.413 -1.9727 -0.2580 -1.3201
  421SOL    HW2 1263   0.462   2.036   0.507 -2.2443 -0.7165 -3.1719
  422SOL     OW 1264   2.673   0.419   1.515 -0.3248  0.1172 -0.3265
  422SOL    HW1 1265   2.666   0.408   1.413  1.7495  1.9019  0.2331
  422SOL    HW2 1266   2.728   0.342   1.559 -1.0693  0.7840 -2.2644
  423SOL     OW 1267   1.977   1.423   0.866 -0.7092  0.1898 -0.2296
  423SOL    HW1 1268   1.930   1.431   0.954 -0.5540  0.7856 -2.0869
  423SOL    HW2 1269   2.061   1.361   0.869 -0.3181 -2.3713  1.0368
  424SOL     OW 1270   1.933   1.284   0.213 -0.4674 -0.0868 -0.0729
  424SOL    HW1 1271   2.012   1.291   0.155 -1.9437  2.5516 -0.6245
  424SOL    HW2 1272   1.896   1.379   0.212 -2.0158  0.9305 -0.2183
  425SOL     OW 1273   0.308   2.831   1.890 -0.0759  0.4598  0.1399
  425SOL    HW1 1274   0.270   2.832   1.980  1.6520  0.9578 -1.7762
  425SOL    HW2 1275   0.266   2.759   1.832 -0.1272  0.0100  2.8314
  426SOL     OW 1276   2.711   2.766   2.840 -0.9460 -0.5492 -0.8183
  426SOL    HW1 1277   2.690   2.817   2.754  0.2913 -0.0345  0.3654
  426SOL    HW2 1278   2.621   2.743   2.885 -2.4424  0.1257  1.6298
  427SOL     OW 1279   0.713   0.822   2.205  0.0735  0.3025 -0.4201
  427SOL    HW1 1280   0.624   0.871   2.186 -2.1810 -0.5763 -1.4557
  427SOL    HW2 1281   0.787   0.879   2.242 -1.0416  0.0589  4.6889
  428SOL     OW 1282   2.117   0.837   2.203  0.7019 -0.4081 -0.3549
  428SOL    HW1 1283   2.206   0.815   2.168 -0.7415 -0.5449  0.6756
  428SOL    HW2 1284   2.102   0.935   2.201 -0.2766 -2.0225 -0.0090
  429SOL     OW 1285   2.338   0.182   0.530 -0.3933  0.1024 -0.4487
  429SOL    HW1 1286   2.415   0.232   0.573 -0.8829 -0.3213 -0.2984
  429SOL    HW2 1287   2.279   0.256   0.489  0.8393 -1.9800  1.3688
  430SOL     OW 1288   1.864   1.123   2.194  0.3999 -0.3244 -0.1684
  430SOL    HW1 1289   1.958   1.121   2.223 -1.6285 -1.6551  0.7116
  430SOL    HW2 1290   1.856   1.109   2.093 -1.7912  1.2055 -0.5487
  431SOL     OW 1291   2.864   2.080   1.518  0.3243 -0.7369 -0.4489
  431SOL    HW1 1292   2.796   2.009   1.489 -2.2670 -2.0050  0.4301
  431SOL    HW2 1293   2.845   2.162   1.455  0.2966 -0.2750 -0.4888
  432SOL     OW 1294   1.440   2.828   2.583 -0.4744 -0.5815 -0.4556
  432SOL    HW1 1295   1.527   2.865   2.552 -2.0446 -2.2609  0.5834
  432SOL    HW2 1296   1.361   2.879   2.540 -0.6517  0.5340 -2.4122
  433SOL     OW 1297   1.469   0.097   1.389 -0.7143  0.3805  0.0554
  433SOL    HW1 1298   1.536   0.089   1.308  1.3816 -1.2630  0.1270
  433SOL    HW2 1299   1.497   0.036   1.465 -3.1588  0.5424 -0.8258
  434SOL     OW 1300   2.998   2.457   2.263 -0.4040 -0.2731  0.1706
  434SOL    HW1 1301   2.993   2.465   2.159  2.8024 -2.6394 -0.1695
  434SOL    HW2 1302   3.092   2.462   2.294 -1.7148  0.4909  0.4838
  435SOL     OW 1303   0.299   1.601   0.281  0.6846 -0.0204 -0.0047
  435SOL    HW1 1304   0.388   1.632   0.250  0.5671 -3.7518  0.5995
  435SOL    HW2 1305   0.231   1.606   0.204  0.5165 -1.0378  1.4384
  436SOL     OW 1306   0.496   1.119   1.602  0.3313  0.8391 -0.4515
  436SOL    HW1 1307   0.587   1.162   1.602 -0.0083 -1.0393 -0.4589
  436SOL    HW2 1308   0.483   1.058   1.687 -0.3554 -1.7909  1.9139
  437SOL     OW 1309   0.838   0.552   2.887 -0.1627 -0.2692  0.2585
  437SOL    HW1 1310   0.888   0.586   2.801  2.6326  0.4780 -1.6831
  437SOL    HW2 1311   0.910   0.516   2.949 -0.9671 -1.3439  0.9908
  438SOL     OW 1312   0.687   1.979   1.492 -0.1510  0.0156  0.5459
  438SOL    HW1 1313   0.738   2.021   1.413  2.0016  1.9402 -0.5302
  438SOL    HW2 1314   0.696   1.877   1.496  0.4463 -2.8513 -1.0801
  439SOL     OW 1315   1.846   1.450   3.010 -0.6065 -0.2678 -0.6010
  439SOL    HW1 1316   1.890   1.367   2.965 -0.4489 -0.8006 -2.8688
  439SOL    HW2 1317   1.774   1.429   3.078  0.1024  0.1595  2.1972
  440SOL     OW 1318   1.349   0.635   0.417 -0.0303 -0.4842 -0.4038
  440SOL    HW1 1319   1.324   0.717   0.365  2.1723 -0.5479 -0.3705
  440SOL    HW2 1320   1.329   0.550   0.372  1.9800  0.0351  0.5265
  441SOL     OW 1321   0.464   2.616   1.559  0.5519  0.2421  0.1868
  441SOL    HW1 1322   0.548   2.654   1.603 -1.8252  1.3694  2.0807
  441SOL    HW2 1323   0.404   2.691   1.526 -0.4592 -0.9067  0.1330
  442SOL     OW 1324   2.215   2.445   0.835 -0.2165  0.5180 -0.1778
  442SOL    HW1 1325   2.118   2.423   0.812 -0.1128  2.5016 -1.8473
  442SOL    HW2 1326   2.233   2.523   0.901  1.1298  0.9329 -0.2509
  443SOL     OW 1327   2.540   1.316   2.363 -0.4545  0.1192  0.2685
  443SOL    HW1 1328   2.449   1.287   2.334  1.1105 -0.8487  1.3268
  443SOL    HW2 1329   2.591   1.244   2.420  1.9393  1.1857 -2.4535
  444SOL     OW 1330   1.406   0.731   2.499 -0.1643  0.3019  0.2145
  444SOL    HW1 1331   1.476   0.738   2.427 -0.6534 -0.3921 -0.2381
  444SOL    HW2 1332   1.316   0.715   2.452 -1.5454 -1.5191 -1.2826
  445SOL     OW 1333   2.417   2.394   1.737  0.3158  0.1775  0.2853
  445SOL    HW1 1334   2.432   2.313   1.679  0.3487  1.0313 -0.6069
  445SOL    HW2 1335   2.496   2.454   1.733 -3.1523 -2.5954 -1.1124
  446SOL     OW 1336   3.028   1.670   0.388  0.0543  0.7782  0.1365
  446SOL    HW1 1337   2.977   1.736   0.334  2.0592 -1.6931 -0.8481
  446SOL    HW2 1338   0.021   1.708   0.404  1.1432 -0.2178 -4.4660
  447SOL     OW 1339   1.093   2.695   1.419 -0.0797 -0.1141 -0.0636
  447SOL    HW1 1340   1.194   2.695   1.389  1.4202  1.9593 -0.7815
  447SOL    HW2 1341   1.065   2.786   1.461 -1.7679  0.2223 -0.8632
  448SOL     OW 1342   1.627   1.488   1.924  0.4845 -0.3541  0.0114
  448SOL    HW1 1343   1.696   1.547   1.973  1.6711  2.7310 -1.4966
  448SOL    HW2 1344   1.599   1.410   1.985 -0.8600  1.2002  0.5847
  449SOL     OW 1345   0.439   2.059   2.509 -0.0973  1.4417  0.2173
  449SOL    HW1 1346   0.392   1.970   2.537  1.7086 -1.7979 -0.5254
  449SOL    HW2 1347   0.466   2.115   2.591  0.9334 -1.9239 -0.8864
  450SOL     OW 1348   2.965   1.699   2.519  0.4766 -0.1187 -0.4404
  450SOL    HW1 1349   2.950   1.608   2.482 -0.6354  2.0338 -2.2021
  450SOL    HW2 1350   2.874   1.734   2.554 -1.5849  2.1298  0.0428
  451SOL     OW 1351   2.439   0.674   1.153 -0.6816 -0.1491  0.0051
  451SOL    HW1 1352   2.481   0.592   1.192 -1.2720  2.0869  0.6245
  451SOL    HW2 1353   2.428   0.743   1.222 -0.8986 -1.6901 -1.4356
  452SOL     OW 1354   1.031   2.430   1.325 -0.2390 -0.7698 -0.5578
  452SOL    HW1 1355   1.039   2.527   1.361 -1.0784  0.8069 -1.2536
  452SOL    HW2 1356   0.940   2.416   1.278 -1.1729 -0.5375 -0.0175
  453SOL     OW 1357   1.170   2.074   0.924 -0.5937  0.0813 -0.3034
  453SOL    HW1 1358   1.255   2.061   0.984  0.1177  1.4778 -1.3255
  453SOL    HW2 1359   1.175   2.163   0.875  1.0836 -1.0229  2.3228
  454SOL     OW 1360   2.995   1.324   0.756 -0.1464 -0.6029  0.3751
  454SOL    HW1 1361   3.007   1.270   0.842  0.6392 -0.7636 -0.8705
  454SOL    HW2 1362   3.081   1.348   0.714 -3.2458 -2.4085  1.0372
  455SOL     OW 1363   0.638   0.893   0.383  0.6028 -0.4660 -0.4356
  455SOL    HW1 1364   0.623   0.917   0.284  0.5665 -1.5939  0.2536
  455SOL    HW2 1365   0.554   0.862   0.429  0.0849  0.5794  0.8175
  456SOL     OW 1366   1.891   2.434   1.023 -0.5735  0.1584 -0.5275
  456SOL    HW1 1367   1.815   2.419   1.087  0.5737 -0.9174 -0.6599
  456SOL    HW2 1368   1.913   2.345   0.974 -1.5557  1.6828 -1.6751
  457SOL     OW 1369   1.690   2.508   3.079 -0.8449  0.0251  0.1279
  457SOL    HW1 1370   1.792   2.499   3.097 -0.2341  0.7478  0.7820
  457SOL    HW2 1371   1.649   2.532   0.069  1.5533 -0.8249  0.8357
  458SOL     OW 1372   2.578   0.368   2.872  0.6911  0.1623 -0.0440
  458SOL    HW1 1373   2.496   0.316   2.854  3.4623  1.2319  2.0637
  458SOL    HW2 1374   2.624   0.336   2.958  0.1322 -1.0306 -1.1231
  459SOL     OW 1375   2.273   0.225   1.871 -0.2833 -0.0293 -0.0791
  459SOL    HW1 1376   2.204   0.179   1.927  2.0899 -1.5480 -1.3089
  459SOL    HW2 1377   2.363   0.178   1.875  2.0656  1.1274 -0.9799
  460SOL     OW 1378   2.849   0.558   2.683  0.7760 -0.6722  0.6000
  460SOL    HW1 1379   2.952   0.563   2.677 -0.8135  2.1007 -0.3776
  460SOL    HW2 1380   2.819   0.462   2.675  1.3407  0.8851 -0.0678
  461SOL     OW 1381   3.041   1.954   1.001  0.0645 -0.2090  0.2016
  461SOL    HW1 1382   3.022   1.933   1.102  0.6564 -2.1235  1.5834
  461SOL    HW2 1383   3.070   2.048   0.984  2.6168 -1.1128  0.0422
  462SOL     OW 1384   0.016   0.213   0.692  0.2955  0.1840 -0.2062
  462SOL    HW1 1385   3.075   0.150   0.623  1.6563 -1.0904  0.2518
  462SOL    HW2 1386   3.052   0.268   0.749  1.0354 -0.7130 -1.2131
  463SOL     OW 1387   2.275   1.514   0.161 -0.2746 -0.2365 -0.0440
  463SOL    HW1 1388   2.191   1.541   0.110 -2.9592 -0.8105  1.1092
  463SOL    HW2 1389   2.351   1.493   0.092  3.5425 -0.7406 -0.6496
  464SOL     OW 1390   0.721   0.009   1.154 -0.5088  0.4738 -0.0022
  464SOL    HW1 1391   0.669   3.030   1.186 -2.0304 -1.2362  0.6678
  464SOL    HW2 1392   0.795   3.077   1.087 -0.0747 -0.7435 -0.9260
  465SOL     OW 1393   0.934   0.505   1.138  0.0026  0.4987 -0.3105
  465SOL    HW1 1394   0.923   0.579   1.070 -0.4079  0.7794 -2.0830
  465SOL    HW2 1395   0.855   0.496   1.207 -3.1724  2.2823 -0.4458
  466SOL     OW 1396   1.670   2.635   2.191 -0.3402  0.1149  0.0544
  466SOL    HW1 1397   1.585   2.690   2.170 -0.7485  0.4019 -0.4476
  466SOL    HW2 1398   1.657   2.577   2.276  1.8643 -0.3338  1.5319
  467SOL     OW 1399   0.844   2.833   1.971  0.1946 -0.0824 -0.3035
  467SOL    HW1 1400   0.776   2.908   1.994  0.9038 -0.0276  1.1593
  467SOL    HW2 1401   0.930   2.881   1.949 -1.8748 -2.0098 -1.3656
  468SOL     OW 1402   0.201   1.527   2.152 -0.0813  0.1719  0.1505
  468SOL    HW1 1403   0.108   1.486   2.137 -0.5413  1.8007 -0.0839
  468SOL    HW2 1404   0.199   1.630   2.151  1.4332  0.9470 -1.0246
  469SOL     OW 1405   1.027   1.844   0.764 -0.3219  0.5426  0.3629
  469SOL    HW1 1406   1.009   1.870   0.666  1.6966 -1.5572  2.3556
  469SOL    HW2 1407   1.117   1.882   0.800 -1.5139 -0.3812 -1.5125
  470SOL     OW 1408   2.122   1.126   2.242 -0.6618  0.0232 -0.1320
  470SOL    HW1 1409   2.143   1.162   2.152  0.2375 -0.7796 -0.0586
  470SOL    HW2 1410   2.180   1.170   2.310 -1.8940 -1.5501 -0.0089
  471SOL     OW 1411   0.437   2.350   0.085  0.2405 -0.5821  0.3767
  471SOL    HW1 1412   0.373   2.277   0.052  2.8420  1.3314 -0.8695
  471SOL    HW2 1413   0.497   2.386   0.009  0.0914  2.5366 -0.2623
  472SOL     OW 1414   3.085   2.804   2.206  0.0558  0.0424 -0.4472
  472SOL    HW1 1415   0.003   2.725   2.265 -0.3252  0.2241 -3.4044
  472SOL    HW2 1416   0.072   2.851   2.177 -0.7424 -0.5220  0.9291
  473SOL     OW 1417   0.593   0.010   2.943  0.1135  0.2265  0.1572
  473SOL    HW1 1418   0.649   3.064   2.871 -3.1930 -1.1688  0.2075
  473SOL    HW2 1419   0.629   0.104   2.951 -1.8261 -1.1209  3.0374
  474SOL     OW 1420   1.514   0.232   0.720  0.2556  0.0479  0.0947
  474SOL    HW1 1421   1.576   0.184   0.654  1.0482  2.0755 -0.3620
  474SOL    HW2 1422   1.549   0.328   0.734  0.9982  0.4109  1.4971
  475SOL     OW 1423   1.295   0.300   1.477  0.3380  0.0516  0.4965
  475SOL    HW1 1424   1.255   0.334   1.391  0.5447  3.6813 -1.1602
  475SOL    HW2 1425   1.381   0.248   1.454  1.0535 -1.1267 -0.4304
  476SOL     OW 1426   0.173   1.204   1.153 -0.4374 -0.0296  0.2833
  476SOL    HW1 1427   0.168   1.128   1.220 -3.1324  1.0950 -1.1523
  476SOL    HW2 1428   0.224   1.178   1.069 -0.5095 -0.4930  1.5038
  477SOL     OW 1429   0.747   1.784   0.800  0.1639 -0.1898 -0.2687
  477SOL    HW1 1430   0.844   1.803   0.826  1.4449 -1.0375  0.1220
  477SOL    HW2 1431   0.709   1.730   0.877  2.3537  3.2470 -1.8526
  478SOL     OW 1432   0.137   2.618   2.341  0.2932  0.0040 -0.0613
  478SOL    HW1 1433   0.176   2.563   2.264 -0.5334  0.4044 -1.4942
  478SOL    HW2 1434   0.207   2.683   2.377 -0.2832 -0.3291  2.0756
  479SOL     OW 1435   0.015   0.449   1.250  0.0187  0.7577 -0.4997
  479SOL    HW1 1436   3.084   0.527   1.310  0.3598 -0.4153 -0.5087
  479SOL    HW2 1437   0.108   0.465   1.218 -0.5086  2.4218 -0.1567
  480SOL     OW 1438   2.821   2.612   0.087  0.3827  0.1071 -0.5064
  480SOL    HW1 1439   2.859   2.616   3.095 -2.9214 -1.6062 -1.0339
  480SOL    HW2 1440   2.846   2.693   0.144  0.0765  2.5997 -1.2818
  481SOL     OW 1441   2.318   1.977   1.769 -0.0691  0.0013 -0.0672
  481SOL    HW1 1442   2.338   2.036   1.688  0.0573 -1.2187  0.6728
  481SOL    HW2 1443   2.286   2.028   1.851  2.5719  1.4215  0.0632
  482SOL     OW 1444   1.644   1.660   2.454 -0.3832 -0.2114 -0.1949
  482SOL    HW1 1445   1.641   1.585   2.521 -1.8415  0.0793 -2.2915
  482SOL    HW2 1446   1.736   1.703   2.445  2.0647  0.7704  0.7604
  483SOL     OW 1447   0.994   1.320   1.753 -0.0743 -0.3544  0.0639
  483SOL    HW1 1448   1.054   1.370   1.684  0.6812  1.3477  0.3627
  483SOL    HW2 1449   1.020   1.222   1.754 -0.0626  3.6597 -0.2312
  484SOL     OW 1450   0.353   0.534   1.351 -0.0868  0.0202 -0.3758
  484SOL    HW1 1451   0.395   0.441   1.374  2.0931  1.2151 -0.3745
  484SOL    HW2 1452   0.324   0.539   1.252 -0.5196  2.0964 -1.3538
  485SOL     OW 1453   2.178   1.269   0.041  0.3838 -0.3755 -0.0662
  485SOL    HW1 1454   2.270   1.233   0.046 -0.0185 -1.0131  1.3441
  485SOL    HW2 1455   2.174   1.372   0.036 -0.0006  2.1203 -0.7690
  486SOL     OW 1456   1.177   0.121   1.682  0.4081 -0.2754  0.2735
  486SOL    HW1 1457   1.089   0.123   1.633 -2.3946  1.9500 -0.2669
  486SOL    HW2 1458   1.240   0.195   1.645  0.9710 -1.4234  0.4687
  487SOL     OW 1459   0.943   2.294   1.640 -0.1894 -0.5875 -0.4587
  487SOL    HW1 1460   0.907   2.387   1.619 -0.1648 -1.0940  0.7992
  487SOL    HW2 1461   0.949   2.236   1.558 -0.9004  0.1746  1.1725
  488SOL     OW 1462   2.443   1.673   2.812  0.1187  0.5664  0.0428
  488SOL    HW1 1463   2.501   1.734   2.870 -2.0453  1.2965 -3.6835
  488SOL    HW2 1464   2.445   1.579   2.851  2.1234  3.8988  1.7910
  489SOL     OW 1465   1.937   2.977   0.657 -0.4716 -0.0392  0.2963
  489SOL    HW1 1466   1.841   2.941   0.649  1.5217  0.5290 -1.3242
  489SOL    HW2 1467   1.967   3.012   0.566  2.5158 -2.7453 -2.9491
  490SOL     OW 1468   0.780   2.283   3.050 -0.0566  0.0181 -0.3345
  490SOL    HW1 1469   0.770   2.211   2.975  2.8831 -2.2926  1.8440
  490SOL    HW2 1470   0.723   2.367   3.034 -1.2669  2.9047  0.2804
  491SOL     OW 1471   0.744   1.289   1.637  0.0225 -0.2751  0.5428
  491SOL    HW1 1472   0.738   1.362   1.565  2.2880  0.1939 -0.9404
  491SOL    HW2 1473   0.827   1.286   1.691 -1.6407  0.9937 -2.1752
  492SOL     OW 1474   1.024   0.599   1.948  0.8769 -0.1849 -0.1672
  492SOL    HW1 1475   0.967   0.515   1.944  0.6871  0.2095  1.2281
  492SOL    HW2 1476   1.001   0.662   2.023  0.5786 -0.6635  0.1065
  493SOL     OW 1477   2.126   1.962   0.888 -0.6253  0.1118  0.2602
  493SOL    HW1 1478   2.073   1.871   0.891 -0.4753 -0.2953 -0.2641
  493SOL    HW2 1479   2.186   1.963   0.803  2.5613  0.9896  0.3483
  494SOL     OW 1480   0.695   1.425   1.105  0.5355  0.5357 -0.4940
  494SOL    HW1 1481   0.756   1.396   1.026  0.7194 -3.3263 -0.5564
  494SOL    HW2 1482   0.596   1.393   1.102 -5.4769 -0.9345 -0.6140
  495SOL     OW 1483   2.405   2.478   0.637 -0.3501 -0.1523 -0.0323
  495SOL    HW1 1484   2.435   2.396   0.583  0.3790  1.9498 -1.4063
  495SOL    HW2 1485   2.344   2.461   0.715  0.3156 -0.9534 -0.6498
  496SOL     OW 1486   2.762   0.128   1.281 -0.0075 -0.7066  0.1980
  496SOL    HW1 1487   2.663   0.137   1.255  1.5178 -0.8782 -1.6714
  496SOL    HW2 1488   2.772   0.048   1.339 -0.7006  0.8678  1.8125
  497SOL     OW 1489   2.269   1.302   2.392 -0.1071 -0.0128  0.2570
  497SOL    HW1 1490   2.212   1.388   2.381 -2.0472  2.8882 -1.9705
  497SOL    HW2 1491   2.303   1.294   2.488 -0.1039 -0.6836 -1.7007
  498SOL     OW 1492   0.258   2.152   1.087  0.1638 -0.5601  0.1546
  498SOL    HW1 1493   0.192   2.132   1.160  4.6007  0.3298  1.2910
  498SOL    HW2 1494   0.294   2.245   1.099  1.7669 -1.1815  0.4261
  499SOL     OW 1495   1.271   2.471   2.076  0.1329 -0.6730  0.0618
  499SOL    HW1 1496   1.172   2.438   2.086 -0.1468 -2.1618  1.3941
  499SOL    HW2 1497   1.318   2.401   2.029  0.4603  2.7339 -1.0589
  500SOL     OW 1498   0.732   2.000   0.410  0.3776  0.1665 -0.1039
  500SOL    HW1 1499   0.739   2.047   0.321  1.6350  0.1824 -1.2804
  500SOL    HW2 1500   0.674   1.915   0.395  1.4372 -1.0105 -0.1321
  501SOL     OW 1501   2.069   0.099   1.094 -0.4563  0.8152 -0.1028
  501SOL    HW1 1502   2.020   0.082   1.008  0.0327  0.9450 -0.2639
  501SOL    HW2 1503   2.011   0.062   1.174 -3.0187 -0.4305  3.4308
  502SOL     OW 1504   2.832   0.229   1.664  0.6281  0.5571  0.2706
  502SOL    HW1 1505   2.929   0.247   1.647 -1.8200 -1.6821  0.7130
  502SOL    HW2 1506   2.815   0.229   1.766  0.5458 -1.9736  0.4481
  503SOL     OW 1507   2.504   1.230   1.678  0.6946  0.1861  0.2416
  503SOL    HW1 1508   2.472   1.274   1.761  1.9580  0.0777  1.3589
  503SOL    HW2 1509   2.601   1.209   1.691 -0.8806 -0.1396  0.6747
  504SOL     OW 1510   1.659   0.948   1.769 -0.3670  0.0646 -0.2589
  504SOL    HW1 1511   1.605   0.874   1.816  3.5486  2.6014 -0.3450
  504SOL    HW2 1512   1.703   0.918   1.679 -0.8548 -2.0079  1.3771
  505SOL     OW 1513   0.638   3.067   1.572  0.6342 -0.1326  0.3182
  505SOL    HW1 1514   0.589   3.064   1.484  1.6675  0.0295 -1.2371
  505SOL    HW2 1515   0.612   2.983   1.626  0.2809  0.8073 -0.8059
  506SOL     OW 1516   0.131   0.252   0.361 -0.3660 -0.4302  0.3359
  506SOL    HW1 1517   0.144   0.304   0.273 -1.7190  0.6094 -4.9580
  506SOL    HW2 1518   0.176   0.302   0.435 -1.9177 -0.4695  2.7459
  507SOL     OW 1519   2.395   0.744   0.111  0.5768  0.3502  0.4122
  507SOL    HW1 1520   2.392   0.642   0.088 -0.1303 -1.7564 -1.5439
  507SOL    HW2 1521   2.455   0.757   0.194 -2.6846  1.0849 -1.2304
  508SOL     OW 1522   1.365   0.338   1.988  0.3215  0.2153  0.5930
  508SOL    HW1 1523   1.270   0.303   2.008 -1.7079 -0.4869  1.1637
  508SOL    HW2 1524   1.373   0.334   1.883  2.6123  1.0524 -0.8559
  509SOL     OW 1525   1.717   1.774   1.305 -0.1081  0.5301 -0.2134
  509SOL    HW1 1526   1.725   1.712   1.388  1.0416 -1.6855  1.1215
  509SOL    HW2 1527   1.628   1.761   1.266  0.4419 -0.1267 -1.5048
  510SOL     OW 1528   2.479   1.175   1.411  0.4905 -0.7745 -0.6093
  510SOL    HW1 1529   2.478   1.172   1.512  0.7303  3.9988  0.4904
  510SOL    HW2 1530   2.477   1.083   1.371 -3.2441 -1.1513  1.7631
  511SOL     OW 1531   1.812   2.013   1.455  0.1013 -0.2398  0.1389
  511SOL    HW1 1532   1.790   1.939   1.394  0.0048  1.2989  1.0726
  511SOL    HW2 1533   1.813   2.103   1.405  2.0490 -2.5427  0.9742
  512SOL     OW 1534   0.241   1.353   0.379 -0.0733 -0.6294  0.3093
  512SOL    HW1 1535   0.318   1.305   0.425 -0.5312  4.2658  0.2849
  512SOL    HW2 1536   0.270   1.446   0.351  1.2600  0.0227  0.8062
  513SOL     OW 1537   0.082   1.884   0.077 -0.1098  0.1151 -0.0459
  513SOL    HW1 1538   0.047   1.922   3.092  1.8202 -0.1027 -1.2427
  513SOL    HW2 1539   0.151   1.813   0.060 -0.2574 -0.5594  0.8990
  514SOL     OW 1540   2.794   2.046   2.376 -0.2073 -0.2465  0.4201
  514SOL    HW1 1541   2.755   1.985   2.446  2.2322  2.6529 -0.5801
  514SOL    HW2 1542   2.846   1.985   2.312 -0.1246 -0.3148  0.8127
  515SOL     OW 1543   2.103   1.124   0.601  0.2853  0.1225  0.1401
  515SOL    HW1 1544   2.050   1.212   0.612  0.5398  0.1596  0.6925
  515SOL    HW2 1545   2.030   1.055   0.576 -0.4053 -2.1708  0.1579
  516SOL     OW 1546   2.106   2.750   0.202  0.4021  0.1218 -0.1898
  516SOL    HW1 1547   2.013   2.717   0.230 -0.1374  2.6088  1.1841
  516SOL    HW2 1548   2.172   2.686   0.157 -1.5085 -1.2971 -1.2585
  517SOL     OW 1549   0.982   1.996   2.636  0.1260 -0.0802 -0.0796
  517SOL    HW1 1550   1.069   2.027   2.591  4.6144 -0.0822  0.8086
  517SOL    HW2 1551   0.915   1.961   2.564  2.2929  0.7621 -1.0812
  518SOL     OW 1552   0.252   0.107   2.138  0.2448  0.3481 -0.7598
  518SOL    HW1 1553   0.329   0.054   2.091  1.2781 -0.3013 -0.2381
  518SOL    HW2 1554   0.251   0.204   2.100  0.7576  1.7758 -2.9025
  519SOL     OW 1555   0.467   1.367   0.139 -0.3934 -0.0973  0.1078
  519SOL    HW1 1556   0.368   1.338   0.130 -0.6053 -1.3058  0.1781
  519SOL    HW2 1557   0.511   1.340   0.227  0.4259  0.0439  0.0901
  520SOL     OW 1558   2.869   2.110   1.996 -0.4086  0.1507 -0.4644
  520SOL    HW1 1559   2.773   2.098   1.981  1.4877  2.1220  2.6012
  520SOL    HW2 1560   2.888   2.209   2.025  0.1206 -1.0789  1.9925
  521SOL     OW 1561   0.656   2.468   2.528 -0.1257 -0.0477 -0.2281
  521SOL    HW1 1562   0.692   2.373   2.525 -2.4203  2.2859  2.3649
  521SOL    HW2 1563   0.660   2.513   2.439  0.8623 -1.1474  0.8483
  522SOL     OW 1564   1.861   3.055   1.974 -0.4270 -0.3290 -0.5975
  522SOL    HW1 1565   1.944   3.081   1.923 -0.9152 -0.9725 -1.2454
  522SOL    HW2 1566   1.832   0.020   2.045 -0.7288 -1.0442 -0.4548
  523SOL     OW 1567   1.998   2.104   1.936  0.2637  0.0113 -0.3145
  523SOL    HW1 1568   2.091   2.074   1.971  1.1576 -2.1573  0.5313
  523SOL    HW2 1569   1.966   2.175   2.005  0.6865  0.9512 -2.7396
  524SOL     OW 1570   0.837   2.899   0.241  0.0501  0.6467  0.1094
  524SOL    HW1 1571   0.889   2.849   0.167 -1.0688  3.2480  1.4533
  524SOL    HW2 1572   0.735   2.900   0.230 -0.2516 -0.9579  2.1776
  525SOL     OW 1573   0.309   0.605   0.390 -0.4687  0.3628 -0.2890
  525SOL    HW1 1574   0.354   0.546   0.320 -0.9458 -0.9361  0.7600
  525SOL    HW2 1575   0.292   0.559   0.479 -0.7496  1.2897 -1.1570
  526SOL     OW 1576   0.756   2.760   0.667  0.2760 -0.5679  0.2371
  526SOL    HW1 1577   0.734   2.683   0.730 -0.7446 -0.7832 -0.6892
  526SOL    HW2 1578   0.695   2.840   0.691 -0.9176 -0.4213  1.1199
  527SOL     OW 1579   2.213   1.702   1.059 -0.0741  0.0900  0.3612
  527SOL    HW1 1580   2.158   1.718   0.979 -0.6758 -0.7736 -1.2361
  527SOL    HW2 1581   2.153   1.665   1.131  0.0071  0.6582 -1.9406
  528SOL     OW 1582   2.874   2.707   2.594  0.2845 -0.3623  0.4668
  528SOL    HW1 1583   2.799   2.723   2.525 -3.7654  1.0635  0.2862
  528SOL    HW2 1584   2.910   2.789   2.640 -1.4295 -1.8938  0.5325
  529SOL     OW 1585   1.417   1.597   2.358  0.0826  0.0028  0.6376
  529SOL    HW1 1586   1.439   1.503   2.324  0.2926  2.4181 -1.6039
  529SOL    HW2 1587   1.502   1.641   2.397 -2.2851 -0.1536 -0.4992
  530SOL     OW 1588   1.489   1.205   2.959  0.0772  0.5281  0.0391
  530SOL    HW1 1589   1.478   1.267   2.881 -0.2267 -2.6435 -0.6886
  530SOL    HW2 1590   1.433   1.122   2.946 -1.3064 -1.0597 -1.5309
  531SOL     OW 1591   0.638   1.063   2.947 -0.2452  0.1458  0.6366
  531SOL    HW1 1592   0.561   1.123   2.905 -4.6311  4.2071  0.5491
  531SOL    HW2 1593   0.624   0.963   2.923 -2.5480  1.4615 -1.7770
  532SOL     OW 1594   1.663   1.549   0.437  0.1969  0.0276 -0.0491
  532SOL    HW1 1595   1.659   1.487   0.517 -3.7357 -1.3480  0.0280
  532SOL    HW2 1596   1.683   1.646   0.466  0.5995  2.5007  1.4292
  533SOL     OW 1597   0.561   0.245   2.458  0.2815  0.3301  0.0682
  533SOL    HW1 1598   0.608   0.292   2.384 -0.2439 -1.4800  2.8509
  533SOL    HW2 1599   0.603   0.279   2.543 -0.4893 -2.1784 -1.2660
  534SOL     OW 1600   0.608   2.481   2.986 -0.1498  0.1061  0.1997
  534SOL    HW1 1601   0.563   2.481   2.893 -1.1990  1.8649 -0.1992
  534SOL    HW2 1602   0.665   2.562   3.001 -0.4549 -0.1437 -1.7264
  535SOL     OW 1603   0.185   0.006   0.258 -0.1707  0.1573  0.7565
  535SOL    HW1 1604   0.281   3.069   0.274  0.3351 -1.0710 -0.3914
  535SOL    HW2 1605   0.170   0.080   0.329  0.8036  0.6904  0.5181
  536SOL     OW 1606   0.085   0.877   2.193 -0.1393 -0.3099  0.1462
  536SOL    HW1 1607   0.090   0.943   2.114  1.2054  0.7619  2.3369
  536SOL    HW2 1608   0.170   0.819   2.187  1.2558  0.5488 -0.7387
  537SOL     OW 1609   1.099   0.058   1.311  0.2269  0.1407  0.4897
  537SOL    HW1 1610   0.998   0.075   1.321 -0.3827  2.5617  0.3732
  537SOL    HW2 1611   1.152   0.144   1.296  1.4066 -0.5304  0.0890
  538SOL     OW 1612   0.178   1.788   0.477  0.4035  0.3458 -0.7670
  538SOL    HW1 1613   0.247   1.738   0.426 -1.2384  1.4279  0.4439
  538SOL    HW2 1614   0.221   1.834   0.562 -1.1414 -0.2915  0.5943
  539SOL     OW 1615   2.608   1.132   2.058 -0.2121  0.1935  0.2461
  539SOL    HW1 1616   2.534   1.201   2.036 -0.7586  2.1572  0.6698
  539SOL    HW2 1617   2.641   1.082   1.977  0.4610  2.4298  0.5968
  540SOL     OW 1618   1.604   1.052   2.244  0.0116 -0.2351  0.0433
  540SOL    HW1 1619   1.571   1.090   2.334  0.4000  0.3570  1.3897
  540SOL    HW2 1620   1.700   1.081   2.225 -0.1645 -2.2387 -1.1689
  541SOL     OW 1621   0.949   1.009   1.804  0.6273  0.6291 -0.6342
  541SOL    HW1 1622   0.890   0.978   1.886 -1.3249  0.4891  2.2603
  541SOL    HW2 1623   1.045   0.989   1.824 -0.8820  3.3069  1.3086
  542SOL     OW 1624   1.731   0.159   2.182 -0.2071 -0.2321  0.1275
  542SOL    HW1 1625   1.756   0.221   2.257  0.1861  0.4636 -0.2864
  542SOL    HW2 1626   1.680   0.213   2.113  0.0103 -0.9067 -1.9136
  543SOL     OW 1627   1.096   0.363   0.464  0.2094  0.2991 -0.1739
  543SOL    HW1 1628   1.016   0.334   0.409  1.0809  0.2179  1.3668
  543SOL    HW2 1629   1.173   0.396   0.398  2.5807 -1.1486 -2.2294
  544SOL     OW 1630   2.625   1.859   2.119 -0.1484  0.4139  0.3914
  544SOL    HW1 1631   2.723   1.868   2.150 -0.1274  2.5159 -0.1277
  544SOL    HW2 1632   2.574   1.786   2.169  0.5150 -3.1411 -1.3361
  545SOL     OW 1633   1.917   2.283   2.125  0.2351  0.2369  0.2491
  545SOL    HW1 1634   1.936   2.315   2.222  0.0378 -2.0388 -0.5091
  545SOL    HW2 1635   1.881   2.360   2.071  1.0900 -0.4923  1.0713
  546SOL     OW 1636   0.158   3.021   2.901  0.0143  0.1870 -0.2471
  546SOL    HW1 1637   0.250   3.036   2.945  0.3459 -1.0671  2.3526
  546SOL    HW2 1638   0.094   2.989   2.974 -0.8448 -0.5442  2.6691
  547SOL     OW 1639   1.961   0.712   0.261  0.0365 -0.5696  0.5990
  547SOL    HW1 1640   1.938   0.646   0.337  0.9603  0.3829 -1.1268
  547SOL    HW2 1641   2.017   0.790   0.306 -1.9014  0.2814 -1.4915
  548SOL     OW 1642   2.235   1.741   2.191 -0.3948 -0.2467 -1.2315
  548SOL    HW1 1643   2.191   1.668   2.250 -0.8845 -3.6546  0.5142
  548SOL    HW2 1644   2.338   1.754   2.203  2.8046 -0.7099 -2.5856
  549SOL     OW 1645   1.963   0.274   0.499 -0.2694  0.0847 -0.1743
  549SOL    HW1 1646   1.921   0.359   0.462 -0.5207  1.1094 -2.0651
  549SOL    HW2 1647   2.039   0.296   0.567  1.3202 -0.4027  0.2103
  550SOL     OW 1648   2.417   2.282   0.935 -0.4800  0.1621 -0.2118
  550SOL    HW1 1649   2.356   2.226   0.993 -1.2136  0.2089  0.3592
  550SOL    HW2 1650   2.363   2.354   0.890 -1.2874  0.1971 -0.8445
  551SOL     OW 1651   1.029   2.991   1.525  0.0944 -0.4522  0.1576
  551SOL    HW1 1652   1.057   3.047   1.447  0.3028  1.2189 -0.2582
  551SOL    HW2 1653   1.031   3.043   1.606  0.3577  1.5750 -5.7285
  552SOL     OW 1654   2.816   2.188   2.750 -0.2880 -0.2677 -0.6574
  552SOL    HW1 1655   2.818   2.091   2.779 -0.3833 -0.4154  1.1742
  552SOL    HW2 1656   2.886   2.209   2.682 -1.8257 -1.0419  1.7957
  553SOL     OW 1657   0.299   2.989   0.551 -0.3537  0.2368  0.3155
  553SOL    HW1 1658   0.254   3.048   0.617 -1.0004  1.6976  0.3767
  553SOL    HW2 1659   0.223   2.930   0.514 -0.1009 -2.6278  0.8823
  554SOL     OW 1660   2.217   2.376   1.942 -0.2310 -0.1370 -0.8993
  554SOL    HW1 1661   2.124   2.405   1.915 -0.5125  0.5736 -3.8569
  554SOL    HW2 1662   2.284   2.391   1.873 -1.2523  1.1953  1.7206
  555SOL     OW 1663   1.341   2.244   1.933 -0.2049  0.5044 -0.1805
  555SOL    HW1 1664   1.294   2.245   1.843 -0.9768  2.4111 -0.6276
  555SOL    HW2 1665   1.306   2.170   1.990 -0.8221  2.2477 -1.1617
  556SOL     OW 1666   1.354   1.421   1.469 -0.3928  0.6792  0.6472
  556SOL    HW1 1667   1.377   1.510   1.426 -0.0203  0.4353 -2.1435
  556SOL    HW2 1668   1.433   1.389   1.524 -1.7391  1.0481 -2.2577
  557SOL     OW 1669   1.886   2.404   2.369  0.2347 -0.4077 -0.2675
  557SOL    HW1 1670   1.923   2.375   2.461 -1.3904 -0.3086 -1.4490
  557SOL    HW2 1671   1.785   2.428   2.373 -0.5834 -0.6130 -1.4280
  558SOL     OW 1672   0.661   3.017   2.030  0.3326  0.1370  0.4026
  558SOL    HW1 1673   0.567   3.034   1.995 -1.0235 -1.0107 -0.0205
  558SOL    HW2 1674   0.704   0.001   2.069  1.6017  1.8714  0.3012
  559SOL     OW 1675   2.442   2.809   1.180  0.5935 -0.2455  0.0097
  559SOL    HW1 1676   2.458   2.751   1.263 -0.0647  0.1691  0.3408
  559SOL    HW2 1677   2.522   2.802   1.116  0.9966  0.0171 -1.3723
  560SOL     OW 1678   1.102   2.342   0.522 -0.1633 -0.1813 -0.1389
  560SOL    HW1 1679   1.140   2.420   0.470  1.6132 -0.7089 -0.8884
  560SOL    HW2 1680   0.997   2.344   0.535 -1.3553 -2.7110 -2.5476
  561SOL     OW 1681   0.978   0.513   0.004  0.3918 -0.0264 -0.0138
  561SOL    HW1 1682   0.926   0.493   0.089  0.0938  1.5231 -2.3702
  561SOL    HW2 1683   1.025   0.601   0.009 -0.9383 -1.9083 -1.2449
  562SOL     OW 1684   0.663   0.271   2.707 -0.8096  0.0853 -0.5991
  562SOL    HW1 1685   0.628   0.325   2.788 -0.8902 -0.5733 -0.2922
  562SOL    HW2 1686   0.754   0.228   2.731  0.7678  0.1069 -0.0722
  563SOL     OW 1687   1.499   1.726   2.820  0.3906 -0.5987  1.0267
  563SOL    HW1 1688   1.600   1.707   2.828  0.2527 -1.2316  2.1485
  563SOL    HW2 1689   1.473   1.789   2.743  1.4152 -1.3767  0.7823
  564SOL     OW 1690   2.418   0.975   0.884  0.3269  0.8321 -0.8035
  564SOL    HW1 1691   2.503   1.011   0.931  0.9734  1.6669  2.8769
  564SOL    HW2 1692   2.385   1.043   0.815 -0.2588  3.6309 -3.0921
  565SOL     OW 1693   0.903   0.152   2.744  0.1236 -0.2104  0.1407
  565SOL    HW1 1694   0.882   0.085   2.818  0.2391  0.5638 -3.1932
  565SOL    HW2 1695   0.970   0.224   2.777 -0.5322 -0.1450  0.7971
  566SOL     OW 1696   1.462   0.047   2.588  0.1438 -0.1393 -0.2596
  566SOL    HW1 1697   1.406   3.101   2.520  0.0980  0.3168 -0.0040
  566SOL    HW2 1698   1.555   0.006   2.581  1.1285 -1.4875 -1.2413
  567SOL     OW 1699   1.948   1.366   0.603  0.0215 -0.0407 -0.2086
  567SOL    HW1 1700   1.976   1.441   0.540 -1.1108  2.2453 -1.5003
  567SOL    HW2 1701   1.926   1.401   0.698 -0.6034  1.0944  0.4616
  568SOL     OW 1702   1.911   1.953   0.554 -0.1171 -0.1846 -0.0719
  568SOL    HW1 1703   1.994   1.898   0.576 -0.0829 -2.7077 -1.6930
  568SOL    HW2 1704   1.935   2.050   0.564  1.3403 -1.5487  1.0526
  569SOL     OW 1705   1.985   1.230   2.946  0.1801  0.2716  0.2995
  569SOL    HW1 1706   1.930   1.150   2.972 -1.8240  4.1040 -1.2701
  569SOL    HW2 1707   2.076   1.223   2.993 -0.7324 -2.7075 -0.0710
  570SOL     OW 1708   0.314   2.453   1.753  0.2000 -0.5145  0.1363
  570SOL    HW1 1709   0.240   2.503   1.805 -1.4757 -1.1170  0.8016
  570SOL    HW2 1710   0.367   2.515   1.694 -1.1983  0.4030  0.5675
  571SOL     OW 1711   0.202   0.398   2.101 -0.2256 -0.6166  0.6007
  571SOL    HW1 1712   0.289   0.441   2.127 -1.6590  0.0147  0.7517
  571SOL    HW2 1713   0.134   0.404   2.176 -0.0935 -1.7530 -1.9278
  572SOL     OW 1714   1.245   1.608   0.931 -0.0825 -0.1736  0.2941
  572SOL    HW1 1715   1.219   1.561   1.019  3.6162  1.1474  0.8703
  572SOL    HW2 1716   1.169   1.625   0.868 -0.0050  1.2595 -1.8731
  573SOL     OW 1717   1.036   2.001   0.138 -0.3762  0.0985  0.4489
  573SOL    HW1 1718   1.092   1.970   0.060 -2.7253 -1.1133  0.4376
  573SOL    HW2 1719   1.081   2.072   0.197  2.3180 -1.8241 -0.6329
  574SOL     OW 1720   1.005   2.892   0.657 -0.2619 -0.6126  0.6132
  574SOL    HW1 1721   0.928   2.835   0.691 -3.8092  2.0095 -0.5388
  574SOL    HW2 1722   1.022   2.976   0.711  1.1799 -0.2354  0.9653
  575SOL     OW 1723   3.087   0.981   1.507  0.5271  0.4228  0.1988
  575SOL    HW1 1724   2.999   0.968   1.451 -2.0067  0.5217  0.8938
  575SOL    HW2 1725   3.083   1.077   1.541  0.0638 -1.8466  0.5476
  576SOL     OW 1726   1.860   0.058   1.285 -0.0269 -0.2704  0.2688
  576SOL    HW1 1727   1.867   3.083   1.355  0.1298  0.6604 -1.9002
  576SOL    HW2 1728   1.775   0.049   1.235 -1.4648  1.9947 -0.9304
  577SOL     OW 1729   0.540   0.934   1.833  0.3582 -0.1359 -0.6322
  577SOL    HW1 1730   0.624   0.880   1.840 -0.6655 -0.0993 -0.4269
  577SOL    HW2 1731   0.457   0.870   1.839 -2.0405  0.8187  0.5952
  578SOL     OW 1732   1.906   0.341   2.352  0.7027  0.4303  0.0873
  578SOL    HW1 1733   1.962   0.388   2.277  2.3701  1.5238 -1.2425
  578SOL    HW2 1734   1.868   0.410   2.410  1.5419 -2.1328 -0.9298
  579SOL     OW 1735   2.605   2.059   1.919 -0.0274 -0.6993 -0.2181
  579SOL    HW1 1736   2.594   2.025   1.823  0.8231  3.1180 -0.5379
  579SOL    HW2 1737   2.568   1.994   1.985 -0.3401  0.6185  1.2400
  580SOL     OW 1738   2.033   1.206   2.678 -0.2860 -0.2813  0.1347
  580SOL    HW1 1739   2.004   1.209   2.773  0.4884 -3.7353 -2.9057
  580SOL    HW2 1740   1.992   1.122   2.643  2.2123 -0.7388  2.8282
  581SOL     OW 1741   1.318   0.992   2.931 -0.4785  0.7576 -0.5982
  581SOL    HW1 1742   1.220   0.974   2.943  2.5335  1.0207  0.3571
  581SOL    HW2 1743   1.342   0.979   2.833  0.0233  0.9662 -0.7347
  582SOL     OW 1744   1.110   1.474   1.527  0.5816 -0.3027 -0.0054
  582SOL    HW1 1745   1.052   1.416   1.464 -2.1517  0.2538 -0.7892
  582SOL    HW2 1746   1.206   1.446   1.512 -2.3419 -0.1011  0.2932
  583SOL     OW 1747   1.585   1.242   1.409  0.1566  0.0722  0.4522
  583SOL    HW1 1748   1.535   1.161   1.375 -4.7881  1.5204  2.2866
  583SOL    HW2 1749   1.582   1.325   1.347 -1.5514 -1.8833 -3.2440
  584SOL     OW 1750   1.618   2.716   0.849  0.2226 -0.2664  0.6686
  584SOL    HW1 1751   1.551   2.641   0.871  1.0325  1.1256 -1.6538
  584SOL    HW2 1752   1.712   2.687   0.879  0.4834 -1.1704 -1.7259
  585SOL     OW 1753   2.111   2.717   2.993  0.2022 -0.3502 -0.1857
  585SOL    HW1 1754   2.093   2.810   3.026  0.2097 -0.3067 -0.3898
  585SOL    HW2 1755   2.205   2.691   3.015  2.6778 -3.6340 -0.7436
  586SOL     OW 1756   2.829   2.265   0.801  0.4190 -0.0593  0.0651
  586SOL    HW1 1757   2.784   2.305   0.721  0.8838  1.7440 -1.3311
  586SOL    HW2 1758   2.765   2.231   0.868  1.3210  0.7542 -0.2681
  587SOL     OW 1759   0.945   1.735   0.140  0.4720 -0.6861 -0.4397
  587SOL    HW1 1760   0.985   1.830   0.134 -2.2201 -0.9762  0.2653
  587SOL    HW2 1761   0.929   1.703   0.044 -1.6391  0.9098 -1.2830
  588SOL     OW 1762   0.614   0.040   0.904  0.2470  0.1984  0.1857
  588SOL    HW1 1763   0.637   0.032   1.003 -0.4674 -1.9274  1.2781
  588SOL    HW2 1764   0.697   0.067   0.849 -0.1850  0.2418 -0.7138
  589SOL     OW 1765   1.418   0.765   0.636  0.4061  0.0161 -0.8723
  589SOL    HW1 1766   1.400   0.722   0.544 -0.8076  0.8083 -1.5365
  589SOL    HW2 1767   1.393   0.704   0.714  1.5000  1.4402  1.3996
  590SOL     OW 1768   1.759   2.775   0.027 -0.5617  0.0212 -0.4347
  590SOL    HW1 1769   1.836   2.727   3.079  0.3035  2.7742 -0.3067
  590SOL    HW2 1770   1.669   2.756   3.085  0.6364  0.0065  1.9300
  591SOL     OW 1771   0.173   2.335   2.586 -0.1315  0.3293 -0.0535
  591SOL    HW1 1772   0.253   2.345   2.526 -1.9967 -3.4637 -0.7906
  591SOL    HW2 1773   0.110   2.414   2.591  0.0716 -1.5160 -0.1335
  592SOL     OW 1774   2.939   1.631   2.049 -0.0036 -0.7027  0.2730
  592SOL    HW1 1775   2.852   1.598   2.007  0.2230  0.6425 -1.4350
  592SOL    HW2 1776   3.007   1.558   2.067  0.0796 -0.3427  0.4356
  593SOL     OW 1777   1.770   1.633   1.536 -0.1881 -0.0303  0.1576
  593SOL    HW1 1778   1.809   1.536   1.540  1.1179 -3.4768  2.4145
  593SOL    HW2 1779   1.678   1.636   1.571  1.3857 -2.9072 -1.4843
  594SOL     OW 1780   2.622   1.337   0.079 -0.1116 -0.1178 -0.3945
  594SOL    HW1 1781   2.725   1.359   0.091  2.0346  0.7923  2.7207
  594SOL    HW2 1782   2.614   1.240   0.055 -0.6353  2.1278 -1.7697
  595SOL     OW 1783   0.798   0.684   0.455  0.2402 -0.3862 -0.0414
  595SOL    HW1 1784   0.748   0.752   0.396  0.7095  0.1136 -1.3628
  595SOL    HW2 1785   0.883   0.718   0.499 -0.2656  0.0691 -0.8000
  596SOL     OW 1786   3.020   1.392   1.407 -0.4644  0.1150  0.3809
  596SOL    HW1 1787   3.093   1.415   1.339  2.1172 -1.8798  1.6337
  596SOL    HW2 1788   2.978   1.481   1.444  0.1466  0.2540  0.8010
  597SOL     OW 1789   1.186   1.982   1.364 -0.2884 -0.7871  0.4794
  597SOL    HW1 1790   1.116   2.041   1.411 -0.3844 -1.5310  0.7447
  597SOL    HW2 1791   1.255   2.042   1.316 -1.7119  0.6151  1.8006
  598SOL     OW 1792   0.025   3.012   1.871 -0.4471 -0.2120  0.0323
  598SOL    HW1 1793   0.083   2.932   1.897  1.4112  1.3029  1.5441
  598SOL    HW2 1794   3.042   2.978   1.833  2.4863 -0.4858 -0.2372
  599SOL     OW 1795   0.275   1.396   2.725  0.4679 -0.0671 -0.4369
  599SOL    HW1 1796   0.279   1.481   2.779 -1.9843 -3.5476 -1.1511
  599SOL    HW2 1797   0.262   1.428   2.627 -0.5006  1.8064 -1.7896
  600SOL     OW 1798   0.649   0.779   2.877  0.5906 -0.3644 -0.1375
  600SOL    HW1 1799   0.608   0.734   2.795  1.8056 -1.8567 -0.1071
  600SOL    HW2 1800   0.699   0.714   2.932  1.8072 -1.1058 -4.4656
  601SOL     OW 1801   0.782   0.760   1.703 -0.0605  0.8591  0.1160
  601SOL    HW1 1802   0.882   0.762   1.687 -3.9015 -2.3406 -0.0762
  601SOL    HW2 1803   0.769   0.712   1.793  0.8643  3.7221 -0.0259
  602SOL     OW 1804   0.367   3.072   3.074  0.0988 -0.0740 -0.7999
  602SOL    HW1 1805   0.458   3.100   3.041 -1.0452  0.9119  0.2844
  602SOL    HW2 1806   0.369   3.012   0.055 -0.1107 -2.0554  0.2039
  603SOL     OW 1807   1.714   2.556   2.682 -0.4685  0.4945 -0.1188
  603SOL    HW1 1808   1.773   2.478   2.705 -1.9342 -0.1069 -1.1756
  603SOL    HW2 1809   1.631   2.547   2.738 -1.5159  1.4787 -0.0670
  604SOL     OW 1810   0.219   2.341   2.884  0.2072 -0.4139  0.5787
  604SOL    HW1 1811   0.311   2.307   2.905  1.4820  2.0366 -2.8632
  604SOL    HW2 1812   0.197   2.318   2.789 -0.9184 -0.9527 -0.9409
  605SOL     OW 1813   2.185   0.896   1.248  0.1864  0.1668  0.0680
  605SOL    HW1 1814   2.168   0.921   1.153  2.7195  0.0528  1.3135
  605SOL    HW2 1815   2.110   0.931   1.306  0.2666 -2.2659  0.3026
  606SOL     OW 1816   0.736   1.132   2.590 -0.0279  0.6367 -0.0121
  606SOL    HW1 1817   0.730   1.215   2.650 -1.9765  1.4084  0.5623
  606SOL    HW2 1818   0.760   1.055   2.648  0.1865  0.6387 -0.8856
  607SOL     OW 1819   0.618   0.361   1.074  0.1125 -0.1781  0.0147
  607SOL    HW1 1820   0.604   0.367   1.174  0.7172  2.5639  0.3802
  607SOL    HW2 1821   0.688   0.295   1.046 -3.3990  0.9020  1.9071
  608SOL     OW 1822   3.037   1.902   1.994 -0.1116  0.4995  0.6578
  608SOL    HW1 1823   2.991   1.818   2.023  2.2015  2.7192  2.4078
  608SOL    HW2 1824   2.979   1.988   1.997  2.2887 -1.4838 -2.5805
  609SOL     OW 1825   2.593   0.576   0.473 -0.2218 -0.3911 -0.4284
  609SOL    HW1 1826   2.659   0.646   0.435 -1.0218 -0.7622 -0.3741
  609SOL    HW2 1827   2.499   0.610   0.449  3.1361  1.5146  0.6726
  610SOL     OW 1828   0.184   2.647   1.279  0.2450  0.2252 -0.0883
  610SOL    HW1 1829   0.206   2.714   1.353 -2.2766  0.9090 -2.1254
  610SOL    HW2 1830   0.102   2.682   1.227 -0.1444  2.5709 -1.9225
  611SOL     OW 1831   1.577   2.027   0.252 -0.1162  0.1777  0.1143
  611SOL    HW1 1832   1.678   2.018   0.236 -0.2309 -1.1894 -0.3049
  611SOL    HW2 1833   1.536   1.940   0.288  0.7338  1.6070 -0.3370
  612SOL     OW 1834   0.795   0.405   1.923 -0.0133  0.0341 -0.0012
  612SOL    HW1 1835   0.820   0.325   1.983  2.5993 -0.7744  0.3212
  612SOL    HW2 1836   0.698   0.427   1.943 -2.0789 -1.3821  1.4181
  613SOL     OW 1837   0.360   2.114   0.823 -0.0091  0.3913 -0.3376
  613SOL    HW1 1838   0.342   2.122   0.922 -0.8860 -0.0997 -0.5312
  613SOL    HW2 1839   0.444   2.167   0.803 -0.9944  3.0191  0.4019
  614SOL     OW 1840   1.692   0.278   1.716 -0.1969  0.0657 -0.0205
  614SOL    HW1 1841   1.755   0.300   1.795  3.9138 -0.0084  1.7624
  614SOL    HW2 1842   1.718   0.184   1.693 -1.2412 -0.1169  1.8923
  615SOL     OW 1843   1.592   1.372   0.626  0.0269 -0.1097 -0.2148
  615SOL    HW1 1844   1.645   1.300   0.669 -0.8552  1.5925 -1.6757
  615SOL    HW2 1845   1.490   1.352   0.607 -4.7779  1.3929 -2.9510
  616SOL     OW 1846   1.853   1.522   0.231 -0.4069 -0.2845 -0.0220
  616SOL    HW1 1847   1.774   1.515   0.295 -1.0638 -0.3080 -0.0558
  616SOL    HW2 1848   1.842   1.606   0.175 -1.4541 -1.4188 -1.5099
  617SOL     OW 1849   1.628   0.744   3.050  0.1377 -0.0011  0.4832
  617SOL    HW1 1850   1.695   0.784   0.018 -1.9439 -0.9114 -0.7025
  617SOL    HW2 1851   1.679   0.738   2.962  1.5376 -1.2895 -1.4964
  618SOL     OW 1852   0.679   0.683   1.932 -0.0634 -0.5367  0.6879
  618SOL    HW1 1853   0.688   0.710   2.031 -2.4228  0.7423  2.9915
  618SOL    HW2 1854   0.621   0.595   1.923  1.8962  1.2965 -0.6742
  619SOL     OW 1855   3.002   1.636   1.500 -0.1268 -0.2780 -0.2050
  619SOL    HW1 1856   2.968   1.697   1.573 -0.6664  0.7312  2.4137
  619SOL    HW2 1857   3.080   1.684   1.451  1.2843  1.3593 -2.7148
  620SOL     OW 1858   2.583   2.913   2.635  0.1099  0.6024 -0.3103
  620SOL    HW1 1859   2.588   2.939   2.539 -2.7061  1.7982 -0.0636
  620SOL    HW2 1860   2.488   2.885   2.657  0.8305  2.1514  0.5775
  621SOL     OW 1861   2.421   1.966   0.022 -0.2646  0.0975 -0.2064
  621SOL    HW1 1862   2.458   1.919   0.103  1.1965  1.6155  1.3836
  621SOL    HW2 1863   2.438   2.068   0.022 -0.7400 -0.0735 -0.3346
  622SOL     OW 1864   1.328   0.448   2.676 -0.3829 -0.1564  0.2685
  622SOL    HW1 1865   1.385   0.383   2.727 -2.4449  2.6352 -1.5000
  622SOL    HW2 1866   1.318   0.537   2.724 -5.0800  1.9707  0.7550
  623SOL     OW 1867   0.768   1.693   1.552  0.2767  0.1890 -0.0199
  623SOL    HW1 1868   0.826   1.676   1.470 -0.9546  0.6648  0.7304
  623SOL    HW2 1869   0.821   1.704   1.640  0.8179  0.7081  0.6942
  624SOL     OW 1870   2.837   0.021   0.119 -0.5726 -0.1026  0.1606
  624SOL    HW1 1871   2.864   3.096   0.026  0.1086 -1.8131 -0.2290
  624SOL    HW2 1872   2.912   0.072   0.163  2.1193  0.5658 -1.1753
  625SOL     OW 1873   0.654   2.029   0.687  0.3105  0.6028 -0.8122
  625SOL    HW1 1874   0.669   1.937   0.723  1.9631  1.6301 -0.2406
  625SOL    HW2 1875   0.721   2.047   0.615 -2.4685  0.8149 -0.1453
  626SOL     OW 1876   2.813   0.721   2.455 -0.4746 -0.3682 -0.2133
  626SOL    HW1 1877   2.787   0.661   2.533 -0.7248  0.6982 -0.0165
  626SOL    HW2 1878   2.742   0.708   2.383  0.6342  2.0644  0.2679
  627SOL     OW 1879   1.200   1.920   3.061  0.5440 -0.0104  0.1693
  627SOL    HW1 1880   1.280   1.975   3.049 -0.8812 -1.5465  1.4318
  627SOL    HW2 1881   1.218   1.821   3.045 -0.5719 -1.5721  2.7149
  628SOL     OW 1882   2.907   2.623   2.942 -0.2750  0.3302  0.3578
  628SOL    HW1 1883   3.003   2.654   2.924  1.5074  0.6036 -0.7846
  628SOL    HW2 1884   2.836   2.686   2.904  0.5845 -5.1520  0.2461
  629SOL     OW 1885   0.700   2.957   2.743  0.5454  0.1104 -0.1899
  629SOL    HW1 1886   0.772   2.887   2.716  0.7471 -3.4742  1.1833
  629SOL    HW2 1887   0.665   3.002   2.661  1.6707  0.0059  2.9834
  630SOL     OW 1888   1.126   0.263   2.049  0.5151 -0.1098 -0.0803
  630SOL    HW1 1889   1.082   0.183   2.009 -2.2723  0.5816  0.5116
  630SOL    HW2 1890   1.083   0.270   2.142 -0.7097  1.6718  2.0556
  631SOL     OW 1891   2.115   0.900   0.398  0.2588  0.2487 -0.4567
  631SOL    HW1 1892   2.202   0.952   0.388  0.6311 -1.6460  0.2163
  631SOL    HW2 1893   2.060   0.914   0.484 -1.0411  0.7426 -0.8059
  632SOL     OW 1894   2.637   0.043   1.594  0.2606  0.1369 -0.4502
  632SOL    HW1 1895   2.551   0.083   1.552  2.8853  0.8608  1.4311
  632SOL    HW2 1896   2.704   0.115   1.621  1.6572 -3.5935  0.7029
  633SOL     OW 1897   1.078   1.191   0.519  0.2368  0.2054  0.5784
  633SOL    HW1 1898   1.056   1.192   0.616  1.5574  1.5326 -2.1660
  633SOL    HW2 1899   1.078   1.095   0.484 -0.3316 -0.4998 -0.7190
  634SOL     OW 1900   2.659   2.685   2.419  0.1992  0.0428 -0.2300
  634SOL    HW1 1901   2.690   2.591   2.387  2.9419 -0.6049 -0.6944
  634SOL    HW2 1902   2.634   2.744   2.339  2.3394 -0.4208  1.0798
  635SOL     OW 1903   1.915   0.557   0.488 -0.0098  0.0524  0.1516
  635SOL    HW1 1904   1.948   0.609   0.573 -1.2457  3.1576  0.2579
  635SOL    HW2 1905   1.818   0.573   0.465  0.6764  2.1434 -0.0145
  636SOL     OW 1906   0.749   1.045   0.606 -0.1921  0.7689 -0.4692
  636SOL    HW1 1907   0.657   1.046   0.655 -1.6985 -2.3461 -0.8966
  636SOL    HW2 1908   0.728   1.003   0.513  0.8827  0.2761  0.1424
  637SOL     OW 1909   2.566   2.187   0.181  0.5700 -0.4660 -0.6755
  637SOL    HW1 1910   2.608   2.103   0.218 -1.0976  1.3179  0.1421
  637SOL    HW2 1911   2.637   2.266   0.172  3.0538 -0.8282  2.5268
  638SOL     OW 1912   1.624   2.504   2.423 -0.2386 -0.0443 -0.8229
  638SOL    HW1 1913   1.527   2.482   2.423 -1.1417  2.1761 -0.3592
  638SOL    HW2 1914   1.654   2.534   2.516 -1.1294 -0.4835  0.4626
  639SOL     OW 1915   1.372   2.007   0.712 -0.5980 -0.2038 -0.4871
  639SOL    HW1 1916   1.304   2.040   0.777  2.5426  1.5577  1.5378
  639SOL    HW2 1917   1.449   1.967   0.764 -0.8309  0.9713  1.0165
  640SOL     OW 1918   2.009   0.029   0.379 -0.0651 -0.1034 -0.1179
  640SOL    HW1 1919   2.110   0.015   0.351 -1.2018 -0.7797 -1.8551
  640SOL    HW2 1920   1.999   0.129   0.405  0.5439  1.5941  0.2392
  641SOL     OW 1921   2.724   0.287   0.015  0.3412 -0.0732  0.2287
  641SOL    HW1 1922   2.675   0.317   0.099  1.5715 -1.4174 -1.0152
  641SOL    HW2 1923   2.770   0.196   0.028  0.2482 -1.6756 -1.1101
  642SOL     OW 1924   0.595   0.716   1.034  0.3131  0.0615 -0.0632
  642SOL    HW1 1925   0.513   0.694   0.980  1.4323  1.3058  2.6635
  642SOL    HW2 1926   0.583   0.680   1.132 -2.2956 -1.7234  4.5097
  643SOL     OW 1927   0.762   1.318   2.391  0.0874  0.1699  0.1553
  643SOL    HW1 1928   0.727   1.251   2.461 -2.1482 -1.2937 -0.6680
  643SOL    HW2 1929   0.707   1.291   2.307  0.3694  0.7366 -1.4746
  644SOL     OW 1930   1.491   2.164   0.501 -0.2280 -0.2693  0.1441
  644SOL    HW1 1931   1.437   2.123   0.579  0.1533  0.0578  0.8537
  644SOL    HW2 1932   1.498   2.094   0.428 -0.6404  1.0572  0.6597
  645SOL     OW 1933   1.279   1.917   0.444  0.1234 -0.6393 -0.3829
  645SOL    HW1 1934   1.339   1.869   0.379 -0.9055  0.3846  0.9569
  645SOL    HW2 1935   1.308   1.910   0.543 -1.3240 -0.1405 -2.5212
  646SOL     OW 1936   0.035   1.721   2.738  0.5533  0.0679  0.2554
  646SOL    HW1 1937   3.091   1.678   2.656 -1.2894  0.5065  0.9474
  646SOL    HW2 1938   0.028   1.828   2.735  0.1268  2.0537 -1.1708
  647SOL     OW 1939   0.865   0.242   1.013  0.2423  0.3716 -0.1965
  647SOL    HW1 1940   0.938   0.171   1.023  0.9560  2.9262 -1.0332
  647SOL    HW2 1941   0.898   0.326   1.064  0.8145  0.7804  0.0902
  648SOL     OW 1942   1.595   0.514   1.046  0.3470  0.0911 -0.5256
  648SOL    HW1 1943   1.620   0.582   0.976 -2.7678  0.0064 -1.4851
  648SOL    HW2 1944   1.674   0.467   1.089  0.6700  2.5780 -1.2779
  649SOL     OW 1945   0.879   1.638   0.396  0.2914  0.2923  0.0770
  649SOL    HW1 1946   0.911   1.664   0.303  0.5680  0.6257  0.2551
  649SOL    HW2 1947   0.926   1.699   0.462  1.0396  2.6103  1.5061
  650SOL     OW 1948   2.436   1.579   1.982 -0.9325  0.5635  0.1532
  650SOL    HW1 1949   2.426   1.619   2.072 -1.3822 -0.6483 -1.4403
  650SOL    HW2 1950   2.369   1.623   1.919 -2.0713 -0.2556 -0.4278
  651SOL     OW 1951   1.684   2.196   2.917  0.3150 -0.3986  0.0386
  651SOL    HW1 1952   1.711   2.294   2.912 -0.7718  2.3886 -0.8616
  651SOL    HW2 1953   1.671   2.155   2.820 -1.3371 -2.0394 -0.9097
  652SOL     OW 1954   2.578   1.814   0.220  0.5259 -0.2299 -0.4260
  652SOL    HW1 1955   2.628   1.723   0.226 -0.2196 -1.1030 -2.8542
  652SOL    HW2 1956   2.637   1.881   0.268 -1.6432  0.3451 -3.0059
  653SOL     OW 1957   0.190   0.425   0.595  0.0534  0.0415  0.1314
  653SOL    HW1 1958   0.289   0.409   0.588 -2.0765  2.0166  1.7287
  653SOL    HW2 1959   0.146   0.350   0.645  0.2868  0.0749  1.2696
  654SOL     OW 1960   2.650   3.072   2.190 -0.3354 -0.0904 -0.3939
  654SOL    HW1 1961   2.741   0.022   2.200  0.3378  0.6736 -2.1681
  654SOL    HW2 1962   2.599   0.004   2.107  0.4191 -0.7497  0.5032
  655SOL     OW 1963   0.702   2.571   0.854 -0.0660  0.4437 -0.0246
  655SOL    HW1 1964   0.631   2.635   0.899  1.1394 -1.1802 -0.9394
  655SOL    HW2 1965   0.671   2.472   0.841 -2.2476 -2.4543  0.7338
  656SOL     OW 1966   3.008   2.958   2.696 -0.0740  0.0725 -0.1375
  656SOL    HW1 1967   3.020   2.967   2.597  1.5516 -1.1834  4.0402
  656SOL    HW2 1968   0.000   2.935   2.733 -2.0779  0.2607 -0.0078
  657SOL     OW 1969   3.003   1.079   3.045 -0.3623 -0.9021  0.0449
  657SOL    HW1 1970   3.044   1.141   2.976 -0.0626  1.1258 -2.6732
  657SOL    HW2 1971   3.027   0.982   3.027  0.2348 -0.5807  1.5521
  658SOL     OW 1972   2.391   1.881   1.343  0.0305  0.3342  0.5554
  658SOL    HW1 1973   2.291   1.867   1.318 -0.2953  0.3459 -0.0440
  658SOL    HW2 1974   2.414   1.839   1.435 -2.6396  0.1615  0.4116
  659SOL     OW 1975   1.836   2.714   0.306  0.6105 -0.2412 -0.4404
  659SOL    HW1 1976   1.799   2.640   0.368  1.0489 -1.3049  0.4336
  659SOL    HW2 1977   1.800   2.701   0.205 -1.1034  1.7227 -0.6076
  660SOL     OW 1978   1.649   1.027   2.617  0.2161  0.1812  0.3815
  660SOL    HW1 1979   1.666   1.020   2.717 -1.0489 -1.9835 -4.0456
  660SOL    HW2 1980   1.735   1.002   2.576 -2.6455 -1.6923  3.5693
  661SOL     OW 1981   0.028   2.190   1.243 -0.1680  0.1330  0.0996
  661SOL    HW1 1982   3.068   2.224   1.170 -2.5209 -0.3074 -2.0302
  661SOL    HW2 1983   0.003   2.094   1.255  0.7212  2.3106  1.2037
  662SOL     OW 1984   0.374   0.656   0.024  0.5342 -0.0527  0.5230
  662SOL    HW1 1985   0.314   0.726   0.063  0.4568 -0.6924  2.0037
  662SOL    HW2 1986   0.407   0.587   0.091  0.0615  3.0468  1.9253
  663SOL     OW 1987   2.110   2.066   1.282  0.6413  0.2644  0.3053
  663SOL    HW1 1988   2.083   2.141   1.345  1.4626  1.6551  0.7551
  663SOL    HW2 1989   2.107   1.980   1.325 -1.8701  3.5630 -1.1287
  664SOL     OW 1990   0.852   1.670   1.285  0.0028  0.0980 -0.3666
  664SOL    HW1 1991   0.802   1.706   1.203 -0.4983 -0.0943  0.9900
  664SOL    HW2 1992   0.956   1.687   1.281  0.9209 -0.0995 -1.4914
  665SOL     OW 1993   1.839   2.795   2.038 -0.0665  0.2311  0.4142
  665SOL    HW1 1994   1.835   2.894   2.014  1.9917 -2.8770  1.7930
  665SOL    HW2 1995   1.769   2.762   2.100 -0.2797 -0.2380 -1.7361
  666SOL     OW 1996   2.857   2.839   0.231  0.7660 -0.1587 -0.0297
  666SOL    HW1 1997   2.801   2.910   0.183  1.3145  3.0565 -1.6531
  666SOL    HW2 1998   2.839   2.845   0.329 -0.7360 -0.7279 -1.2697
  667SOL     OW 1999   2.727   1.425   1.633 -0.0757  0.1968 -0.0787
  667SOL    HW1 2000   2.656   1.438   1.556 -1.0760  3.0666  0.9295
  667SOL    HW2 2001   2.807   1.368   1.615  2.1877  3.1100  0.7636
  668SOL     OW 2002   0.238   0.529   2.393  0.5844 -0.8602 -0.3699
  668SOL    HW1 2003   0.224   0.617   2.350 -1.2437 -1.4027  1.1428
  668SOL    HW2 2004   0.151   0.470   2.385 -0.5576 -0.4702  1.4710
  669SOL     OW 2005   2.334   1.996   2.494  0.0501 -0.4449  0.0810
  669SOL    HW1 2006   2.313   2.093   2.517 -1.1330  0.1941  0.0366
  669SOL    HW2 2007   2.339   1.987   2.391  2.1850 -0.9990 -1.0967
  670SOL     OW 2008   2.708   1.476   1.958 -0.2359  0.3274  0.3670
  670SOL    HW1 2009   2.618   1.514   1.976 -0.9287  0.8598 -1.7830
  670SOL    HW2 2010   2.703   1.423   1.870 -2.9715  0.9344  0.2847
  671SOL     OW 2011   3.044   1.651   0.752  0.2190 -0.1484  0.1387
  671SOL    HW1 2012   0.003   1.597   0.685 -2.0697 -1.0505 -0.7360
  671SOL    HW2 2013   2.946   1.626   0.739  0.7149 -1.1339  1.7564
  672SOL     OW 2014   2.368   0.820   2.036  1.0062  0.3662 -0.4342
  672SOL    HW1 2015   2.350   0.861   1.945 -1.5698 -1.7116  4.3122
  672SOL    HW2 2016   2.432   0.873   2.092  0.7293  0.8055 -1.6891
  673SOL     OW 2017   2.526   2.730   1.839  0.1180  0.0250  0.2263
  673SOL    HW1 2018   2.580   2.796   1.892 -0.4064  0.2467 -1.9733
  673SOL    HW2 2019   2.433   2.771   1.824 -1.1773  2.1957 -0.3185
  674SOL     OW 2020   1.899   2.696   1.575  0.1233 -0.0572  0.1878
  674SOL    HW1 2021   1.861   2.754   1.654  0.2957  1.7376  2.6153
  674SOL    HW2 2022   1.924   2.606   1.620 -0.7051 -1.3971  0.1002
  675SOL     OW 2023   0.686   0.773   0.684 -0.7255 -0.6929 -0.8244
  675SOL    HW1 2024   0.746   0.858   0.694  1.3642 -0.7149  0.3666
  675SOL    HW2 2025   0.716   0.722   0.600 -3.3074 -0.3379 -1.1341
  676SOL     OW 2026   1.742   1.138   0.726 -0.1649 -0.2580 -0.8348
  676SOL    HW1 2027   1.722   1.057   0.668  1.0346  0.2630  0.6298
  676SOL    HW2 2028   1.836   1.144   0.751 -2.7985 -0.0466  0.1600
  677SOL     OW 2029   2.945   1.480   2.380  0.3270 -0.1164 -0.3586
  677SOL    HW1 2030   2.857   1.469   2.328  0.9074 -0.1451  0.6515
  677SOL    HW2 2031   3.005   1.402   2.361  1.6688  1.7165 -0.9853
  678SOL     OW 2032   2.620   1.986   1.206 -1.1404 -0.2095  0.4021
  678SOL    HW1 2033   2.699   1.947   1.258 -1.5829  0.2501 -0.2258
  678SOL    HW2 2034   2.532   1.976   1.259  2.7226  1.3320 -1.3407
  679SOL     OW 2035   1.961   2.483   0.701 -0.1791  0.0377  0.0239
  679SOL    HW1 2036   2.048   2.522   0.661 -0.3406  0.9756 -1.4677
  679SOL    HW2 2037   1.891   2.556   0.694  0.0319  1.6755 -0.0692
  680SOL     OW 2038   2.544   2.273   2.072  0.0135 -0.0145  0.0070
  680SOL    HW1 2039   2.515   2.363   2.032 -1.1400  2.2243 -1.0749
  680SOL    HW2 2040   2.551   2.200   2.003  1.2880  1.6381 -1.1544
  681SOL     OW 2041   0.283   1.288   1.587  0.1308 -0.0350  0.2801
  681SOL    HW1 2042   0.378   1.242   1.579  0.4758 -2.4241  0.3320
  681SOL    HW2 2043   0.284   1.365   1.657  0.6919 -0.0344  1.1162
  682SOL     OW 2044   1.247   2.785   0.745  0.2759  0.3221 -0.4468
  682SOL    HW1 2045   1.154   2.829   0.728 -1.6546 -1.4034 -2.1461
  682SOL    HW2 2046   1.278   2.760   0.651 -1.5002  0.6101 -0.6537
  683SOL     OW 2047   2.227   1.290   0.933  0.4518 -0.2930 -0.4606
  683SOL    HW1 2048   2.260   1.259   1.023 -0.8291  0.5587  0.8686
  683SOL    HW2 2049   2.274   1.230   0.859 -0.1430 -0.0976  0.6603
  684SOL     OW 2050   0.557   2.139   2.228 -0.0339 -0.0843 -1.0103
  684SOL    HW1 2051   0.522   2.113   2.322  1.1882  0.3478  1.1512
  684SOL    HW2 2052   0.486   2.149   2.153  0.2938  0.5334  0.5450
  685SOL     OW 2053   1.553   1.632   0.143  0.1820  0.3717  0.0453
  685SOL    HW1 2054   1.641   1.685   0.137 -0.7570 -1.2707 -1.9877
  685SOL    HW2 2055   1.565   1.539   0.104 -0.7377 -0.3781 -0.0337
  686SOL     OW 2056   3.027   0.683   1.383  0.0445 -0.1677 -0.1333
  686SOL    HW1 2057   2.953   0.673   1.449  1.1256  1.5467  0.7537
  686SOL    HW2 2058   3.020   0.777   1.341 -1.3678  2.0436 -1.3238
  687SOL     OW 2059   1.017   2.330   2.920  0.3620 -0.7620 -0.4505
  687SOL    HW1 2060   0.951   2.347   2.998 -0.3233 -0.3996  0.3375
  687SOL    HW2 2061   1.022   2.227   2.916 -0.0200 -0.4722  1.9972
  688SOL     OW 2062   0.130   2.219   2.169  0.4267  0.6049 -0.1280
  688SOL    HW1 2063   0.035   2.224   2.134  1.4461  1.2959  0.7884
  688SOL    HW2 2064   0.131   2.182   2.265  1.7512  1.4209  0.2982
  689SOL     OW 2065   1.990   0.840   1.859 -0.7416  0.4495 -0.3650
  689SOL    HW1 2066   1.940   0.930   1.877 -1.7571  0.3231  0.4210
  689SOL    HW2 2067   1.978   0.772   1.936  1.3702 -0.8005 -0.1943
  690SOL     OW 2068   2.406   0.710   0.858 -0.2034 -0.0510 -0.5172
  690SOL    HW1 2069   2.423   0.677   0.951 -1.4876  1.4224 -0.6836
  690SOL    HW2 2070   2.406   0.810   0.865  0.4753  0.9026 -0.1220
  691SOL     OW 2071   0.840   1.677   1.882 -0.7646  0.3182 -0.7477
  691SOL    HW1 2072   0.845   1.673   1.983 -1.1091  0.4486  2.1108
  691SOL    HW2 2073   0.924   1.716   1.844  1.5601  0.8561 -1.3074
  692SOL     OW 2074   2.301   0.335   1.377 -0.3715  0.7193  0.4112
  692SOL    HW1 2075   2.239   0.356   1.457  1.7061  1.6739  0.6978
  692SOL    HW2 2076   2.255   0.352   1.285  0.3983  1.1756 -2.3182
  693SOL     OW 2077   0.578   1.215   2.206  0.2462  0.4038 -0.2914
  693SOL    HW1 2078   0.533   1.126   2.231 -2.3607 -1.0106  1.4317
  693SOL    HW2 2079   0.507   1.269   2.158 -3.1738 -0.7200 -0.3997
  694SOL     OW 2080   1.613   0.040   1.143  0.4076  0.2683 -0.0260
  694SOL    HW1 2081   1.523   0.087   1.120  3.3944  1.6509  0.8846
  694SOL    HW2 2082   1.632   3.069   1.076 -0.9493  0.7471  2.2197
  695SOL     OW 2083   1.213   1.006   1.855  0.0023  0.2518  0.0752
  695SOL    HW1 2084   1.248   0.972   1.762 -3.1946 -1.3901 -2.3163
  695SOL    HW2 2085   1.281   0.988   1.933  1.0530  0.4562  2.1112
  696SOL     OW 2086   1.281   3.092   0.411 -0.0679 -0.8432  0.6831
  696SOL    HW1 2087   1.277   0.027   0.506 -0.5644  0.0378  3.0352
  696SOL    HW2 2088   1.192   3.042   0.401 -0.7827 -0.0539 -0.8417
  697SOL     OW 2089   1.106   0.492   0.690  0.2864  0.5154  0.2207
  697SOL    HW1 2090   1.013   0.468   0.727  0.7427 -1.0948  0.7139
  697SOL    HW2 2091   1.116   0.435   0.608  2.6864  0.0389  1.4446
  698SOL     OW 2092   1.219   1.191   2.634 -0.2817  0.4742  0.3254
  698SOL    HW1 2093   1.145   1.219   2.695 -0.2854 -1.9023 -0.4032
  698SOL    HW2 2094   1.260   1.098   2.651  0.5662 -0.7757  1.7343
  699SOL     OW 2095   1.578   1.467   1.271 -0.3414 -0.9464  0.4979
  699SOL    HW1 2096   1.505   1.532   1.310  0.1795  0.0414  2.5372
  699SOL    HW2 2097   1.553   1.440   1.175 -0.6348 -0.2525 -1.2882
  700SOL     OW 2098   1.466   0.230   0.388 -0.0974  0.0692 -0.1471
  700SOL    HW1 2099   1.410   0.152   0.359  2.7548  1.0580  0.3171
  700SOL    HW2 2100   1.562   0.213   0.423 -1.7659  1.9037  0.5542
  701SOL     OW 2101   2.899   0.055   2.241  0.1722 -0.0348 -0.6244
  701SOL    HW1 2102   2.947   0.085   2.160  0.6987 -0.0030  2.9488
  701SOL    HW2 2103   2.961   3.099   2.294  0.9287 -2.8268  1.7222
  702SOL     OW 2104   1.113   0.008   0.110 -0.2597 -0.7328  0.2146
  702SOL    HW1 2105   1.193   0.065   0.079  0.8929  0.1519 -1.4868
  702SOL    HW2 2106   1.140   3.017   0.144 -2.5248  1.1775  0.9406
  703SOL     OW 2107   2.357   2.710   2.494  0.0807  0.0238  0.2839
  703SOL    HW1 2108   2.357   2.647   2.575 -1.6760  0.4748 -1.3386
  703SOL    HW2 2109   2.442   2.707   2.437  1.6683 -2.5770  0.4529
  704SOL     OW 2110   0.773   2.271   0.975  0.2593 -0.3474 -0.0094
  704SOL    HW1 2111   0.709   2.255   0.898  3.8585  2.8517 -0.7019
  704SOL    HW2 2112   0.835   2.194   0.995 -0.1188  0.6474 -0.1652
  705SOL     OW 2113   2.771   0.207   1.921  0.1501 -0.6664  0.0562
  705SOL    HW1 2114   2.857   0.170   1.960  0.7576  2.8977 -1.6905
  705SOL    HW2 2115   2.703   0.236   1.996  0.3164  0.5644  3.4265
  706SOL     OW 2116   1.697   0.143   0.507  0.9445  0.2007 -0.1200
  706SOL    HW1 2117   1.703   0.048   0.468  0.9530 -1.3466 -2.4672
  706SOL    HW2 2118   1.782   0.168   0.553 -0.5477 -2.2645  1.7590
  707SOL     OW 2119   1.272   1.923   2.259 -0.1301  0.0967  0.1058
  707SOL    HW1 2120   1.324   1.860   2.198  1.3039  2.3572 -2.4509
  707SOL    HW2 2121   1.331   2.007   2.284 -1.0257  0.6751  0.3855
  708SOL     OW 2122   0.069   2.224   1.842 -0.1942 -0.0041  0.0107
  708SOL    HW1 2123   0.133   2.145   1.846 -0.9385 -0.0688  0.6162
  708SOL    HW2 2124   0.021   2.227   1.750  1.8463  0.7624 -1.4021
  709SOL     OW 2125   1.910   0.257   1.893  0.4790  0.0244  0.6722
  709SOL    HW1 2126   1.948   0.171   1.856  0.4141  1.7213 -0.2355
  709SOL    HW2 2127   1.979   0.300   1.961 -0.1970 -0.5234  0.2688
  710SOL     OW 2128   2.427   0.539   1.535 -0.7334  0.1749 -0.6098
  710SOL    HW1 2129   2.391   0.511   1.444 -1.9034  0.7400  2.6504
  710SOL    HW2 2130   2.518   0.496   1.546  1.0684 -4.9297  0.9392
  711SOL     OW 2131   0.334   1.899   0.667 -0.5264 -0.3479 -0.2902
  711SOL    HW1 2132   0.344   1.973   0.737  2.4240  0.2536  2.7514
  711SOL    HW2 2133   0.412   1.831   0.674 -0.6270 -2.5037 -1.3214
  712SOL     OW 2134   0.655   2.576   2.295 -0.1765 -0.3969  0.0598
  712SOL    HW1 2135   0.725   2.574   2.223  0.7782 -2.0766 -2.4252
  712SOL    HW2 2136   0.634   2.670   2.319  2.6908  1.3212  1.2362
  713SOL     OW 2137   1.895   1.002   3.066 -0.4648 -0.4874  0.1631
  713SOL    HW1 2138   1.837   0.952   0.035 -3.5862 -1.7208 -0.7521
  713SOL    HW2 2139   1.982   0.949   3.045  3.2615  1.2760  1.4478
  714SOL     OW 2140   0.717   1.691   1.073  0.3483  0.5462  0.6413
  714SOL    HW1 2141   0.739   1.589   1.085  0.9895 -2.6094  0.0814
  714SOL    HW2 2142   0.628   1.716   1.113  2.1643 -1.9640 -1.5741
  715SOL     OW 2143   2.219   3.059   2.884  0.3221 -0.1768  0.3937
  715SOL    HW1 2144   2.229   3.034   2.984 -1.1831 -0.8608  2.8552
  715SOL    HW2 2145   2.126   3.025   2.860 -0.5093 -1.7605  0.7975
  716SOL     OW 2146   0.109   0.087   1.661  0.2215 -0.2789  0.0206
  716SOL    HW1 2147   0.079   0.187   1.648  0.9798 -0.3575 -0.3604
  716SOL    HW2 2148   0.075   0.049   1.747  1.8305  2.2941 -1.1286
  717SOL     OW 2149   0.197   0.819   0.225 -0.3023  0.0256  0.1567
  717SOL    HW1 2150   0.114   0.861   0.262 -1.6481  0.7695  0.3089
  717SOL    HW2 2151   0.226   0.742   0.282 -0.8504 -1.7095 -0.3856
  718SOL     OW 2152   1.393   0.964   2.681 -0.5260  0.3301  0.3707
  718SOL    HW1 2153   1.374   0.875   2.630  1.4668  0.7223  0.2523
  718SOL    HW2 2154   1.485   1.006   2.656  2.3764  1.6793 -0.6674
  719SOL     OW 2155   2.814   1.699   0.042 -0.0709  0.1301 -0.2906
  719SOL    HW1 2156   2.798   1.629   0.117 -0.0408  0.6376  0.4844
  719SOL    HW2 2157   2.853   1.658   3.056  1.9416 -1.2112 -0.5693
  720SOL     OW 2158   1.389   0.782   1.036  0.1725  0.6965  0.3189
  720SOL    HW1 2159   1.339   0.719   0.974 -0.9527  2.3908  1.0426
  720SOL    HW2 2160   1.414   0.732   1.121  2.5463 -1.7507 -0.2949
  721SOL     OW 2161   2.847   0.951   0.140 -0.2105  0.0940 -0.0737
  721SOL    HW1 2162   2.886   0.889   0.210 -0.0235  0.1432 -2.7842
  721SOL    HW2 2163   2.918   1.003   0.086  0.4930  0.9679  0.4764
  722SOL     OW 2164   1.042   0.992   2.939  0.3395  0.1079 -0.3956
  722SOL    HW1 2165   1.013   0.980   3.034  0.7210 -0.2178 -2.1122
  722SOL    HW2 2166   0.960   1.004   2.880 -1.0409 -0.8643 -1.4754
  723SOL     OW 2167   0.242   0.991   0.574  0.2649  0.1045  0.1359
  723SOL    HW1 2168   0.281   1.081   0.542 -1.8722 -0.1540 -0.4912
  723SOL    HW2 2169   0.306   0.917   0.546  1.6306  0.0297 -0.4352
  724SOL     OW 2170   0.927   2.049   1.993 -0.2962 -0.5515  0.0049
  724SOL    HW1 2171   0.952   2.146   1.974  0.9048 -1.0499 -0.6455
  724SOL    HW2 2172   0.864   2.018   1.922  4.8831  1.9083 -1.6352
  725SOL     OW 2173   2.427   0.866   1.357  0.1244 -0.0832 -0.2228
  725SOL    HW1 2174   2.336   0.880   1.310 -0.3573 -0.7440 -1.0440
  725SOL    HW2 2175   2.428   0.846   1.460  2.2948  2.4735  1.3021
  726SOL     OW 2176   1.695   2.855   0.633 -0.0645 -0.1728  0.6395
  726SOL    HW1 2177   1.676   2.782   0.706  1.3070 -0.4495  0.8828
  726SOL    HW2 2178   1.637   2.840   0.550 -0.6782 -0.1192 -1.5536
  727SOL     OW 2179   1.219   0.966   2.240  0.9081 -0.1200 -0.1355
  727SOL    HW1 2180   1.167   1.050   2.272 -0.1130  1.7015  2.5581
  727SOL    HW2 2181   1.269   0.978   2.154 -0.8491 -0.6679 -1.6610
  728SOL     OW 2182   1.326   2.803   1.260 -0.4434  0.0771  0.0001
  728SOL    HW1 2183   1.415   2.819   1.310  2.0647 -2.2256  4.0529
  728SOL    HW2 2184   1.290   2.884   1.209  1.1628  0.2589 -0.3421
  729SOL     OW 2185   1.879   0.889   1.130 -0.1816 -0.8509 -0.2375
  729SOL    HW1 2186   1.785   0.911   1.094  2.0594  1.9956  1.2060
  729SOL    HW2 2187   1.903   0.793   1.114 -1.3556  4.1216  2.8550
  730SOL     OW 2188   0.765   1.963   2.186  0.1862 -0.1807  0.1829
  730SOL    HW1 2189   0.835   2.009   2.134 -0.0905  0.6417  0.3125
  730SOL    HW2 2190   0.689   2.024   2.216  0.2417  0.6717 -0.6044
  731SOL     OW 2191   0.460   0.404   0.535  0.0446  0.0156 -0.0151
  731SOL    HW1 2192   0.484   0.324   0.474 -0.2764 -3.2118  0.3916
  731SOL    HW2 2193   0.547   0.441   0.572  0.0419  1.6697  1.5067
  732SOL     OW 2194   0.640   0.721   0.077 -0.8043 -0.1264 -0.6138
  732SOL    HW1 2195   0.555   0.687   0.029 -0.1629 -1.0456 -0.0233
  732SOL    HW2 2196   0.640   0.820   0.090 -0.8094  0.0595 -1.0191
  733SOL     OW 2197   0.967   2.473   0.951 -0.4029 -0.1722  0.6268
  733SOL    HW1 2198   1.036   2.398   0.946 -3.8177  0.0613  1.3290
  733SOL    HW2 2199   0.877   2.429   0.950  2.2147  0.8235 -0.5344
  734SOL     OW 2200   0.057   2.019   2.735 -0.0593  0.4852  0.0883
  734SOL    HW1 2201   0.012   2.095   2.686  3.1140 -1.1008  2.0700
  734SOL    HW2 2202   0.154   2.044   2.753 -0.3018  1.1782 -0.1470
  735SOL     OW 2203   0.913   3.017   1.003  0.2042 -0.3417  0.1530
  735SOL    HW1 2204   0.928   2.921   0.992 -1.6044  1.6301  0.8839
  735SOL    HW2 2205   0.962   3.064   0.926 -1.4553  0.0104 -2.0740
  736SOL     OW 2206   2.056   0.134   0.020 -0.5081  0.2314 -0.1820
  736SOL    HW1 2207   1.998   0.052   0.044 -1.4460  1.3719 -0.3949
  736SOL    HW2 2208   2.049   0.152   3.019 -0.3565 -1.3424 -3.2204
  737SOL     OW 2209   2.973   0.172   0.342 -0.1361  0.3524  0.3161
  737SOL    HW1 2210   3.070   0.205   0.337 -0.4952  2.3620  1.0598
  737SOL    HW2 2211   2.907   0.245   0.350 -5.1640  0.1394 -0.7844
  738SOL     OW 2212   2.639   2.805   1.007  0.1749  0.1732  0.1779
  738SOL    HW1 2213   2.618   2.901   0.984  0.1167 -2.1226  2.8548
  738SOL    HW2 2214   2.673   2.748   0.930 -1.9614 -2.1994 -0.0037
  739SOL     OW 2215   1.659   2.305   0.233 -0.1012  0.3169  0.1696
  739SOL    HW1 2216   1.587   2.239   0.258 -1.1858  0.3222 -1.7259
  739SOL    HW2 2217   1.725   2.259   0.167 -1.4673 -0.0760 -1.4849
  740SOL     OW 2218   1.401   0.138   0.982 -0.4315 -0.0706 -0.1276
  740SOL    HW1 2219   1.368   0.047   0.960 -1.6424  1.7858  2.0932
  740SOL    HW2 2220   1.451   0.169   0.899 -0.5692  0.6388  2.4160
  741SOL     OW 2221   2.329   0.625   0.407 -0.5603  0.1368  0.2157
  741SOL    HW1 2222   2.259   0.696   0.411  1.4971  0.0778 -2.4831
  741SOL    HW2 2223   2.301   0.544   0.354  1.5576  0.7047 -2.7046
  742SOL     OW 2224   1.196   2.144   2.508 -0.4205  0.1420  0.1329
  742SOL    HW1 2225   1.242   2.148   2.601  0.6882  0.2944  4.7291
  742SOL    HW2 2226   1.272   2.130   2.442 -2.6054  1.2910 -0.4148
  743SOL     OW 2227   2.057   0.590   1.693  0.0464 -0.3117  0.1301
  743SOL    HW1 2228   2.020   0.684   1.711 -0.3913  0.7271  0.1637
  743SOL    HW2 2229   2.144   0.578   1.738  0.3218  2.3310 -3.9114
  744SOL     OW 2230   2.454   0.262   0.927 -0.4768 -0.3177  0.3701
  744SOL    HW1 2231   2.422   0.199   0.859  3.0507  1.4863  2.5435
  744SOL    HW2 2232   2.522   0.214   0.989  2.4209  1.2740 -0.9182
  745SOL     OW 2233   1.825   1.342   1.574  0.1718  0.4247  0.2697
  745SOL    HW1 2234   1.840   1.358   1.676  1.9909  0.8353 -0.3043
  745SOL    HW2 2235   1.734   1.301   1.559  1.8224 -0.7140 -2.8332
  746SOL     OW 2236   1.538   1.422   1.005  0.2461  0.0613 -0.1241
  746SOL    HW1 2237   1.548   1.477   0.919  0.9575 -0.5086 -2.3026
  746SOL    HW2 2238   1.569   1.330   0.984  0.4683  0.3878 -3.5480
  747SOL     OW 2239   1.938   1.143   1.050  0.0542 -0.4450 -0.0443
  747SOL    HW1 2240   2.027   1.184   1.074  3.7065 -2.7267  0.2880
  747SOL    HW2 2241   1.941   1.046   1.075  1.0290 -1.7834  1.4587
  748SOL     OW 2242   0.178   2.482   0.858 -0.3892  0.5189  0.7289
  748SOL    HW1 2243   0.266   2.458   0.907  0.8454 -0.0775  1.3321
  748SOL    HW2 2244   0.133   2.398   0.819 -1.0028  0.1773 -2.1644
  749SOL     OW 2245   3.081   3.014   2.417 -0.8467  0.3280  0.5436
  749SOL    HW1 2246   0.056   3.085   2.403 -0.6110  0.8927 -0.7948
  749SOL    HW2 2247   0.004   2.920   2.380 -0.0089  0.1442  0.1240
  750SOL     OW 2248   2.679   0.742   0.768  0.2588 -0.0262 -0.6084
  750SOL    HW1 2249   2.698   0.701   0.859 -3.1944 -0.2460  0.7819
  750SOL    HW2 2250   2.579   0.757   0.756  0.2072 -1.5714 -2.0732
  751SOL     OW 2251   2.804   0.403   0.396  0.1798  0.5436 -0.2991
  751SOL    HW1 2252   2.837   0.482   0.342 -0.5308 -1.0861 -0.3046
  751SOL    HW2 2253   2.753   0.436   0.479 -2.1246  0.2230 -1.1971
  752SOL     OW 2254   0.308   2.875   0.878  0.2264 -0.5431 -0.3876
  752SOL    HW1 2255   0.250   2.961   0.894  1.0806  2.7313  1.0775
  752SOL    HW2 2256   0.250   2.806   0.824 -2.2403  0.9822 -1.6969
  753SOL     OW 2257   1.284   0.604   2.077 -0.0966 -0.0108 -0.2124
  753SOL    HW1 2258   1.326   0.524   2.025 -1.4625 -0.3759  0.3799
  753SOL    HW2 2259   1.216   0.650   2.021 -0.9145 -0.4064  3.0336
  754SOL     OW 2260   1.759   2.467   1.999  0.0703  0.0362 -0.4385
  754SOL    HW1 2261   1.727   2.520   2.080  2.4266 -2.5885  0.5767
  754SOL    HW2 2262   1.685   2.405   1.964 -3.9001 -1.7513 -4.6203
  755SOL     OW 2263   2.895   1.126   0.603 -0.2010 -0.1311  0.0785
  755SOL    HW1 2264   2.888   1.211   0.661  0.5928 -0.6186  2.3753
  755SOL    HW2 2265   2.873   1.142   0.509  2.9530 -1.6711  3.2991
  756SOL     OW 2266   1.427   1.367   2.759  0.1220  0.4965 -0.1220
  756SOL    HW1 2267   1.372   1.392   2.838  0.3025 -0.7584 -0.7555
  756SOL    HW2 2268   1.371   1.330   2.679 -4.1012 -1.8546 -3.9441
  757SOL     OW 2269   1.547   2.825   0.378  0.5588  0.6541 -0.0333
  757SOL    HW1 2270   1.522   2.909   0.327  1.5832  1.3096 -2.0191
  757SOL    HW2 2271   1.596   2.756   0.327 -1.7389  1.8916  1.6319
  758SOL     OW 2272   0.299   0.083   1.173  0.3540 -0.1583  0.3016
  758SOL    HW1 2273   0.218   0.103   1.236 -1.3646  1.5623  1.3786
  758SOL    HW2 2274   0.272   0.110   1.081 -0.6144 -0.7820  0.0057
  759SOL     OW 2275   0.187   0.957   1.301  0.6777 -0.1739 -0.4680
  759SOL    HW1 2276   0.278   1.004   1.323  0.6588  2.7697  1.6677
  759SOL    HW2 2277   0.120   0.959   1.384 -0.8683  0.4620 -0.0110
  760SOL     OW 2278   2.152   0.952   0.979 -0.2771 -0.2982  0.1582
  760SOL    HW1 2279   2.081   0.951   0.906  0.7945 -2.0752 -2.0539
  760SOL    HW2 2280   2.243   0.964   0.936  0.9994  1.2183 -0.8929
  761SOL     OW 2281   1.334   1.006   0.677  0.0346 -0.3744  0.4044
  761SOL    HW1 2282   1.377   0.915   0.661 -0.9288  3.4750 -2.2852
  761SOL    HW2 2283   1.289   1.000   0.767 -0.8423  0.4303 -0.9917
  762SOL     OW 2284   2.279   2.409   1.331 -0.0842  0.2287  0.8480
  762SOL    HW1 2285   2.219   2.343   1.380 -0.6657  0.4500  1.1273
  762SOL    HW2 2286   2.226   2.439   1.249 -0.8380 -0.8347 -1.5939
  763SOL     OW 2287   1.531   1.271   2.032 -0.0334  0.0246 -0.2945
  763SOL    HW1 2288   1.594   1.194   2.012 -1.1741  0.0581  2.7586
  763SOL    HW2 2289   1.449   1.269   1.976 -0.9294  2.6739  1.2259
  764SOL     OW 2290   0.338   1.829   2.583 -0.9008 -0.5166 -0.0909
  764SOL    HW1 2291   0.252   1.805   2.541  3.1286 -2.5093 -1.1364
  764SOL    HW2 2292   0.338   1.821   2.685  1.7919  3.2128 -0.2257
  765SOL     OW 2293   0.836   2.674   1.183  0.6922  0.3092 -0.1459
  765SOL    HW1 2294   0.894   2.675   1.096  1.7836  0.0328 -1.3785
  765SOL    HW2 2295   0.827   2.581   1.212  1.8420  1.4286 -0.8233
  766SOL     OW 2296   0.758   2.239   2.482  0.0313  0.0501  0.3576
  766SOL    HW1 2297   0.854   2.254   2.445  2.0615  1.4597 -2.6323
  766SOL    HW2 2298   0.739   2.142   2.499  0.8632  1.2832 -0.9840
  767SOL     OW 2299   1.619   0.361   2.602  0.1755  0.6805 -0.1869
  767SOL    HW1 2300   1.560   0.360   2.518  2.8597 -0.9368 -1.5557
  767SOL    HW2 2301   1.664   0.271   2.602  0.4920  2.4606 -1.6620
  768SOL     OW 2302   1.336   2.265   0.111  0.6910 -0.1146  0.2278
  768SOL    HW1 2303   1.292   2.228   0.191  0.6374  1.2953  1.8652
  768SOL    HW2 2304   1.407   2.202   0.065 -0.2751 -1.2120 -1.6960
  769SOL     OW 2305   3.076   2.740   1.143 -0.2964 -0.3520  0.0117
  769SOL    HW1 2306   2.996   2.785   1.175 -0.1407 -1.1571 -2.7294
  769SOL    HW2 2307   3.046   2.684   1.067  3.1728  0.0148  0.3757
  770SOL     OW 2308   0.471   2.797   2.757 -0.7722  0.2086  0.3850
  770SOL    HW1 2309   0.382   2.836   2.731  0.1245 -3.3392  2.0538
  770SOL    HW2 2310   0.547   2.865   2.768 -1.1516 -1.5256 -0.0957
  771SOL     OW 2311   0.863   2.519   2.698 -0.3969  0.3290 -0.3765
  771SOL    HW1 2312   0.900   2.446   2.758 -0.8506  2.0673  1.7263
  771SOL    HW2 2313   0.766   2.498   2.666 -1.0163  0.2079 -2.2783
  772SOL     OW 2314   2.643   3.027   1.835  0.2484 -0.1044 -0.0023
  772SOL    HW1 2315   2.587   3.094   1.892  5.5717  2.3841 -0.9384
  772SOL    HW2 2316   2.636   3.067   1.740 -0.8678  2.3775 -0.3455
  773SOL     OW 2317   1.199   2.724   2.117  0.7205 -0.2615 -0.2209
  773SOL    HW1 2318   1.246   2.635   2.108 -0.1991  0.4612 -0.7413
  773SOL    HW2 2319   1.134   2.719   2.196  0.8017 -2.4157 -0.4268
  774SOL     OW 2320   1.582   0.392   2.165 -0.6036  0.2996 -0.8077
  774SOL    HW1 2321   1.544   0.380   2.258  0.1207  0.8762  2.4368
  774SOL    HW2 2322   1.509   0.380   2.096  1.7799  1.8964 -5.6042
  775SOL     OW 2323   2.209   2.945   0.027 -0.5855  0.5098 -0.0339
  775SOL    HW1 2324   2.154   2.888   0.092 -0.0703 -1.9688  1.2481
  775SOL    HW2 2325   2.298   2.959   0.064 -2.7649  1.1861 -1.3124
  776SOL     OW 2326   2.266   0.909   1.800  0.3395  0.1873  0.3862
  776SOL    HW1 2327   2.166   0.881   1.802 -0.6615 -0.1459  0.4555
  776SOL    HW2 2328   2.265   1.009   1.783  1.9402  0.8644 -0.6189
  777SOL     OW 2329   2.798   1.169   2.260  0.2955 -0.4663  0.4981
  777SOL    HW1 2330   2.748   1.128   2.333  1.8892  0.5401 -3.2668
  777SOL    HW2 2331   2.759   1.143   2.170 -0.1137 -2.2852 -0.4453
  778SOL     OW 2332   2.258   0.548   2.049 -0.8415 -0.0285 -0.5742
  778SOL    HW1 2333   2.284   0.648   2.065 -1.4428  2.4878  0.3975
  778SOL    HW2 2334   2.268   0.519   1.954  1.0898  1.2899 -1.2223
  779SOL     OW 2335   0.006   0.180   3.027 -0.3728  0.1274 -0.1538
  779SOL    HW1 2336   3.054   0.180   2.940 -1.0169 -1.0752 -2.4865
  779SOL    HW2 2337   0.035   0.084   3.047  1.9060  1.1404 -1.2001
  780SOL     OW 2338   2.170   0.122   2.111  0.0307 -0.0060  0.0760
  780SOL    HW1 2339   2.182   0.020   2.097 -0.3716 -3.8159 -1.0103
  780SOL    HW2 2340   2.174   0.135   2.214  1.0092  1.7141  0.4575
  781SOL     OW 2341   0.307   0.475   1.743  0.5556  0.1343  0.6689
  781SOL    HW1 2342   0.309   0.377   1.722  0.5811  2.6292  1.2383
  781SOL    HW2 2343   0.273   0.532   1.665  1.8528 -0.8518  0.2886
  782SOL     OW 2344   1.872   1.968   0.303  0.0123  0.3312 -0.5403
  782SOL    HW1 2345   1.938   2.028   0.253  0.3900 -0.0996  1.3080
  782SOL    HW2 2346   1.893   1.970   0.403 -2.3231  0.9474  0.1564
  783SOL     OW 2347   1.064   1.686   1.716  0.1364  0.2434  0.0134
  783SOL    HW1 2348   1.055   1.620   1.639 -1.8279  2.3339 -0.2620
  783SOL    HW2 2349   1.113   1.640   1.793  2.1820 -2.4870 -0.2559
  784SOL     OW 2350   1.948   0.658   2.068 -0.1685 -0.2039  0.2031
  784SOL    HW1 2351   1.974   0.560   2.065 -0.6044  1.5629  0.6385
  784SOL    HW2 2352   2.019   0.713   2.110  0.3097 -0.5276 -1.7562
  785SOL     OW 2353   2.931   0.361   0.885  0.6518  0.1253 -0.8530
  785SOL    HW1 2354   2.931   0.351   0.981 -1.6475  1.3256  0.8404
  785SOL    HW2 2355   2.942   0.453   0.850 -0.0059  2.3758  4.1730
  786SOL     OW 2356   1.775   3.017   0.382 -0.0131 -0.6747 -0.7856
  786SOL    HW1 2357   1.870   3.063   0.371 -0.2059  1.3820 -1.3027
  786SOL    HW2 2358   1.778   2.918   0.371  0.6608  2.1094  0.6232
  787SOL     OW 2359   1.025   0.037   0.781 -0.3119  0.6741 -0.0261
  787SOL    HW1 2360   1.111   0.082   0.740 -1.3605  0.0313 -0.3143
  787SOL    HW2 2361   0.940   0.080   0.740 -0.3071  0.9983  1.9214
  788SOL     OW 2362   0.103   1.794   1.388 -0.5850  0.0870  0.2076
  788SOL    HW1 2363   0.164   1.840   1.455  0.2799  0.4846  0.5348
  788SOL    HW2 2364   0.158   1.765   1.307  1.2404 -1.7080  1.0103
  789SOL     OW 2365   2.840   0.596   2.062 -0.3444 -0.1728  0.0094
  789SOL    HW1 2366   2.796   0.500   2.055 -2.8789  2.4199 -0.8841
  789SOL    HW2 2367   2.898   0.608   2.146  0.0761  2.4713  1.1914
  790SOL     OW 2368   0.577   0.651   2.620 -0.1593  0.7477  0.8428
  790SOL    HW1 2369   0.671   0.624   2.589  1.7676  0.1049 -0.1348
  790SOL    HW2 2370   0.518   0.572   2.641 -0.6491 -0.6753 -0.5011
  791SOL     OW 2371   2.449   0.605   2.810 -0.0069  0.1433 -0.3191
  791SOL    HW1 2372   2.357   0.584   2.853 -0.8995  0.9683  2.1255
  791SOL    HW2 2373   2.516   0.537   2.838 -0.7934  1.8292 -1.5751
  792SOL     OW 2374   1.508   0.568   1.306  0.3787  0.0315  0.2785
  792SOL    HW1 2375   1.489   0.541   1.210 -2.3396  4.4942 -1.5712
  792SOL    HW2 2376   1.564   0.497   1.354  0.5072  0.2505  0.4848
  793SOL     OW 2377   0.059   3.043   1.432 -0.2367 -0.4332 -0.2872
  793SOL    HW1 2378   0.087   0.004   1.509 -0.6889 -0.7009  0.3362
  793SOL    HW2 2379   0.019   3.093   1.351  2.6373 -0.5040  0.8800
  794SOL     OW 2380   3.014   0.123   2.019 -0.1269 -0.4727  0.2534
  794SOL    HW1 2381   3.062   0.210   1.993 -1.5093 -3.0851  1.6146
  794SOL    HW2 2382   3.062   0.040   1.982  1.3345 -1.2437  0.5799
  795SOL     OW 2383   0.508   2.224   2.729  0.1343  0.0916 -0.3371
  795SOL    HW1 2384   0.599   2.192   2.768 -0.7321  1.0083 -0.3033
  795SOL    HW2 2385   0.492   2.324   2.743 -0.5729 -0.4396  0.2081
  796SOL     OW 2386   1.976   0.575   2.526  0.2356 -0.1458 -0.4106
  796SOL    HW1 2387   1.904   0.633   2.480 -0.3112  0.3737 -1.4696
  796SOL    HW2 2388   1.958   0.551   2.624  2.7438 -2.3307 -0.8294
  797SOL     OW 2389   2.154   1.978   3.017 -0.2137  0.0326  0.4880
  797SOL    HW1 2390   2.144   2.077   3.022  1.1948 -1.3370 -2.1739
  797SOL    HW2 2391   2.248   1.965   3.049  0.1040  0.6320  2.1783
  798SOL     OW 2392   0.160   0.610   1.540  0.3137 -0.4762 -0.2462
  798SOL    HW1 2393   0.241   0.611   1.475  2.0075 -1.5114  1.8274
  798SOL    HW2 2394   0.080   0.642   1.489  1.1082  0.7265  0.3934
  799SOL     OW 2395   0.572   0.242   1.590  0.2369  0.0407 -0.0009
  799SOL    HW1 2396   0.635   0.319   1.614 -0.2540  2.0381 -2.0881
  799SOL    HW2 2397   0.617   0.151   1.606 -2.0541  0.1901  1.2717
  800SOL     OW 2398   3.087   2.451   0.190  0.1918 -0.1035 -0.1510
  800SOL    HW1 2399   3.010   2.409   0.239 -0.1453  3.0595 -0.6958
  800SOL    HW2 2400   0.068   2.444   0.252 -1.0968 -1.4468  1.9000
  801SOL     OW 2401   1.590   1.860   0.789 -0.0267  0.1976 -0.2681
  801SOL    HW1 2402   1.671   1.874   0.848 -2.6031 -1.6767  1.2367
  801SOL    HW2 2403   1.558   1.764   0.793 -1.8483  1.0040 -1.9221
  802SOL     OW 2404   0.795   0.537   0.219 -0.0626 -0.2063  0.1224
  802SOL    HW1 2405   0.770   0.560   0.313  2.9597 -2.0223 -2.5812
  802SOL    HW2 2406   0.761   0.602   0.149  0.6388 -0.0677 -0.7357
  803SOL     OW 2407   1.343   1.281   1.820  0.3235  0.0954  0.1086
  803SOL    HW1 2408   1.273   1.208   1.840 -2.3781 -4.1722  0.9925
  803SOL    HW2 2409   1.424   1.246   1.766  0.8428 -0.5286  0.2412
  804SOL     OW 2410   1.762   2.312   1.363 -0.1482  0.2194  0.1169
  804SOL    HW1 2411   1.830   2.392   1.365  1.1468  0.0411 -1.2969
  804SOL    HW2 2412   1.706   2.320   1.275 -2.8156 -0.3544  1.4368
  805SOL     OW 2413   2.999   2.198   2.530 -0.0550 -0.1012 -0.2325
  805SOL    HW1 2414   2.941   2.169   2.454 -0.1443  0.9547 -0.7545
  805SOL    HW2 2415   3.094   2.198   2.494  0.4258  1.6055 -0.7062
  806SOL     OW 2416   0.625   2.590   0.318 -0.0226  0.1419 -0.5588
  806SOL    HW1 2417   0.599   2.662   0.251 -0.5164  1.1017  0.9592
  806SOL    HW2 2418   0.617   2.497   0.287 -1.2046  1.5128  1.1040
  807SOL     OW 2419   2.432   1.015   2.666  0.6748 -0.5891 -1.1941
  807SOL    HW1 2420   2.475   1.004   2.755 -0.6266  0.8247 -0.1677
  807SOL    HW2 2421   2.364   0.938   2.651  0.6528 -1.1400  1.9939
  808SOL     OW 2422   1.435   2.029   1.046 -0.2621 -0.4939  0.8474
  808SOL    HW1 2423   1.519   2.072   1.010 -0.2021  1.6091 -1.4355
  808SOL    HW2 2424   1.425   2.065   1.142  0.8217  1.0811 -0.8261
  809SOL     OW 2425   3.090   0.602   0.514 -0.2004 -0.3055  0.3617
  809SOL    HW1 2426   3.061   0.585   0.607  0.5966  0.6196 -2.4457
  809SOL    HW2 2427   0.069   0.544   0.499 -2.2456  3.2629 -0.7852
  810SOL     OW 2428   1.116   1.375   0.112 -0.0392 -0.8281  1.0522
  810SOL    HW1 2429   1.182   1.439   0.153  3.3056  0.8742 -0.8480
  810SOL    HW2 2430   1.045   1.357   0.176 -1.2677  1.8755 -1.4857
  811SOL     OW 2431   1.544   2.965   1.508  0.3569 -0.0661 -0.1561
  811SOL    HW1 2432   1.636   2.944   1.475 -4.7526 -2.5785 -0.5228
  811SOL    HW2 2433   1.506   2.907   1.582  1.6822 -1.9235  1.7097
  812SOL     OW 2434   1.237   0.125   0.635 -0.0344  0.3547  0.0716
  812SOL    HW1 2435   1.198   0.196   0.572  0.4609 -0.7730 -1.5218
  812SOL    HW2 2436   1.331   0.155   0.665 -2.1402 -0.5006 -1.2057
  813SOL     OW 2437   1.265   3.013   2.462  0.4725  1.1183  0.3721
  813SOL    HW1 2438   1.198   2.947   2.495  3.3247 -0.9844  0.7166
  813SOL    HW2 2439   1.239   3.037   2.366  0.6932  0.1663 -0.6569
  814SOL     OW 2440   1.476   2.829   1.736 -0.4590  0.0014 -0.0709
  814SOL    HW1 2441   1.424   2.744   1.761 -2.2221  0.3340  2.1446
  814SOL    HW2 2442   1.428   2.913   1.767  2.4236  1.0531 -0.7024
  815SOL     OW 2443   0.046   3.020   0.047  0.3255  0.2085 -0.2653
  815SOL    HW1 2444   0.086   3.074   0.123  0.0167 -2.1333 -0.5881
  815SOL    HW2 2445   0.009   2.933   0.082 -0.3754  2.0825  0.8506
  816SOL     OW 2446   2.532   1.435   2.663 -0.1101 -0.3136  0.0199
  816SOL    HW1 2447   2.459   1.364   2.648 -0.1744  0.6821  0.0098
  816SOL    HW2 2448   2.513   1.521   2.617 -0.1419  2.0037  2.5232
  817SOL     OW 2449   2.544   2.198   2.629 -0.7601  0.1061 -0.2220
  817SOL    HW1 2450   2.534   2.222   2.532  1.3599 -0.2804 -2.1751
  817SOL    HW2 2451   2.632   2.227   2.671 -1.5310  0.6050  0.7763
  818SOL     OW 2452   1.001   0.932   0.162 -0.1278  0.2376 -0.0411
  818SOL    HW1 2453   1.050   0.933   0.256  0.6530  1.9624  0.3357
  818SOL    HW2 2454   0.959   1.028   0.146  0.2366  2.2627 -0.9614
  819SOL     OW 2455   1.601   1.393   0.035 -0.1388  0.0360  0.3165
  819SOL    HW1 2456   1.566   1.327   3.068 -1.4763  0.6597 -1.0810
  819SOL    HW2 2457   1.584   1.361   0.129 -1.0307 -0.2563  0.5205
  820SOL     OW 2458   0.256   0.871   0.893 -0.2224  0.2286 -0.1574
  820SOL    HW1 2459   0.333   0.807   0.863  0.7368  0.3330 -0.2526
  820SOL    HW2 2460   0.215   0.899   0.804 -2.0261  1.5668 -3.4155
  821SOL     OW 2461   0.458   2.998   1.340 -0.2256 -0.3446  0.1135
  821SOL    HW1 2462   0.401   3.064   1.286 -2.9120  5.0185 -0.9636
  821SOL    HW2 2463   0.520   2.946   1.272 -2.0601 -0.7260 -0.5441
  822SOL     OW 2464   1.833   1.905   2.771 -0.1664  0.0421  0.4381
  822SOL    HW1 2465   1.766   1.971   2.734 -2.1655 -0.0910  0.7831
  822SOL    HW2 2466   1.929   1.936   2.737 -1.2873 -0.3328  1.1957
  823SOL     OW 2467   0.841   0.564   2.232 -0.4096  0.1252 -0.2726
  823SOL    HW1 2468   0.942   0.552   2.244 -1.3644 -2.3183 -0.7402
  823SOL    HW2 2469   0.807   0.661   2.217 -2.7579 -2.8855  0.6921
  824SOL     OW 2470   2.667   2.899   1.448 -0.7377 -0.0984 -0.0877
  824SOL    HW1 2471   2.653   2.972   1.519  2.5030  0.0502 -0.6432
  824SOL    HW2 2472   2.587   2.837   1.431 -0.5261  0.4283 -1.4088
  825SOL     OW 2473   0.239   1.439   2.456 -0.1187 -0.2297 -0.4745
  825SOL    HW1 2474   0.330   1.445   2.418  0.2788 -2.0519 -1.1903
  825SOL    HW2 2475   0.175   1.502   2.412 -2.2016  2.2930 -0.8797
  826SOL     OW 2476   1.574   0.401   2.862 -0.0376 -0.0067 -0.1391
  826SOL    HW1 2477   1.586   0.400   2.759  1.2348 -0.3503  0.4808
  826SOL    HW2 2478   1.628   0.331   2.906 -2.2035 -0.1010 -1.6378
  827SOL     OW 2479   0.228   2.465   2.153  0.2222  0.2121  0.2205
  827SOL    HW1 2480   0.174   2.376   2.151  2.0168 -1.4195 -0.5792
  827SOL    HW2 2481   0.264   2.490   2.061 -0.8746  2.0406  2.2065
  828SOL     OW 2482   0.018   0.150   1.241  0.1745  0.0663  0.1500
  828SOL    HW1 2483   0.036   0.247   1.269  3.2815  2.3927  0.7564
  828SOL    HW2 2484   3.058   0.155   1.164 -0.0596  1.5421  0.2813
  829SOL     OW 2485   1.264   1.510   1.929  0.5687  0.2915  0.1632
  829SOL    HW1 2486   1.312   1.424   1.894  2.5980  0.2577 -1.3294
  829SOL    HW2 2487   1.171   1.495   1.968 -0.8728  0.6084  0.8463
  830SOL     OW 2488   1.005   1.094   1.510  0.1853  0.5113 -0.1812
  830SOL    HW1 2489   0.970   1.013   1.449  0.5238  0.4884  1.4197
  830SOL    HW2 2490   0.964   1.088   1.606  1.3350 -2.4353  0.9247
  831SOL     OW 2491   2.750   1.967   0.345 -0.8855  0.2599  0.1358
  831SOL    HW1 2492   2.834   1.934   0.296 -0.6521  0.1784  0.2346
  831SOL    HW2 2493   2.752   1.937   0.439 -0.9779  1.4347 -1.3852
  832SOL     OW 2494   1.293   2.549   0.194  0.4990 -0.2247  0.1580
  832SOL    HW1 2495   1.217   2.560   0.260  0.9355 -0.7007  3.4562
  832SOL    HW2 2496   1.311   2.457   0.160 -1.1599  0.3509 -0.2250
  833SOL     OW 2497   3.088   0.318   1.651 -0.1782 -0.6446 -0.0816
  833SOL    HW1 2498   0.031   0.385   1.585 -1.1286  0.3106 -0.3735
  833SOL    HW2 2499   3.089   0.350   1.750  3.1803  0.9436  1.1380
  834SOL     OW 2500   2.989   0.758   0.978 -0.1715 -0.0347 -0.2722
  834SOL    HW1 2501   3.081   0.764   1.018 -1.4829 -0.7161  0.5098
  834SOL    HW2 2502   2.961   0.845   0.929 -1.8380  2.3266  1.7336
  835SOL     OW 2503   2.584   0.311   0.273  0.0387 -0.1176  0.7602
  835SOL    HW1 2504   2.666   0.346   0.320 -2.6380  1.1676 -1.9787
  835SOL    HW2 2505   2.566   0.216   0.304  1.1380  0.7577  1.9165
  836SOL     OW 2506   0.748   2.112   2.856  0.6092  0.1039 -0.6354
  836SOL    HW1 2507   0.708   2.027   2.823  1.0437 -0.6195  3.7948
  836SOL    HW2 2508   0.850   2.101   2.865 -0.5335  2.3296  0.8261
  837SOL     OW 2509   1.455   1.751   0.351 -0.2185 -0.3316 -0.0076
  837SOL    HW1 2510   1.523   1.745   0.426  2.6274  1.1770  1.4044
  837SOL    HW2 2511   1.489   1.710   0.263 -0.6458 -0.3442 -0.0970
  838SOL     OW 2512   2.540   0.946   2.227  0.1710 -0.3085  0.4327
  838SOL    HW1 2513   2.548   0.988   2.319 -0.1659 -0.0861  0.9762
  838SOL    HW2 2514   2.568   1.011   2.156  0.0824 -2.4382 -2.7917
  839SOL     OW 2515   0.856   1.029   2.335  0.4399  0.0224 -0.1910
  839SOL    HW1 2516   0.943   1.082   2.352  0.7254 -2.2197 -1.6794
  839SOL    HW2 2517   0.775   1.066   2.386  0.5306 -2.6923  1.8539
  840SOL     OW 2518   0.615   1.001   0.106  0.0009  0.2688  0.0561
  840SOL    HW1 2519   0.515   1.007   0.089 -2.7815  0.1669  1.4142
  840SOL    HW2 2520   0.668   1.018   0.021 -1.7096  0.0941 -0.3521
  841SOL     OW 2521   0.826   2.386   0.512 -0.4450 -0.1493 -0.0794
  841SOL    HW1 2522   0.756   2.355   0.445  4.9720  0.0640  1.0392
  841SOL    HW2 2523   0.833   2.489   0.508 -0.3334 -0.8319 -1.7627
  842SOL     OW 2524   0.445   0.717   0.797  0.5012 -0.0882 -0.0523
  842SOL    HW1 2525   0.544   0.740   0.787  0.1306 -1.3960  1.1234
  842SOL    HW2 2526   0.432   0.618   0.815 -2.2100  0.9358 -1.4495
  843SOL     OW 2527   0.637   0.844   1.497  0.3692  0.1389 -0.2576
  843SOL    HW1 2528   0.679   0.808   1.586 -0.8463 -0.9556 -0.7475
  843SOL    HW2 2529   0.568   0.917   1.516 -2.6789  2.4863  0.1346
  844SOL     OW 2530   2.055   2.574   2.771 -0.3902  0.1867 -0.3146
  844SOL    HW1 2531   2.067   2.637   2.849 -0.2632  1.0397  2.2126
  844SOL    HW2 2532   2.153   2.554   2.737  1.1723 -1.1647 -1.9761
  845SOL     OW 2533   2.203   3.015   1.574 -0.4291  0.3925  0.0182
  845SOL    HW1 2534   2.282   3.070   1.531  1.5146  0.9268  1.1144
  845SOL    HW2 2535   2.182   2.930   1.521  1.0400 -1.1698 -1.6580
  846SOL     OW 2536   1.909   0.969   2.552 -0.0911  0.5490 -0.4970
  846SOL    HW1 2537   1.934   0.931   2.462 -0.8529  0.7362  1.4729
  846SOL    HW2 2538   1.950   0.910   2.630 -1.0941 -3.1197  1.5353
  847SOL     OW 2539   2.889   2.910   1.792 -0.7929  0.0329 -0.3049
  847SOL    HW1 2540   2.803   2.959   1.812 -0.4134 -0.7815 -1.2624
  847SOL    HW2 2541   2.903   2.884   1.695  2.5447  2.1218  1.7043
  848SOL     OW 2542   2.610   2.859   0.089  0.2247  0.2366  0.2246
  848SOL    HW1 2543   2.644   2.780   0.038 -1.3928 -0.8133  1.6727
  848SOL    HW2 2544   2.559   2.827   0.169 -0.2570  0.0298 -0.9657
  849SOL     OW 2545   0.559   2.946   0.704  0.2349 -0.0963 -0.0599
  849SOL    HW1 2546   0.461   2.934   0.681  1.1285 -1.3073  2.3609
  849SOL    HW2 2547   0.566   3.001   0.787 -1.1814 -2.6658  0.3434
  850SOL     OW 2548   0.562   2.283   0.748 -0.1410  0.0350  0.5251
  850SOL    HW1 2549   0.534   2.334   0.665  0.4841 -1.6260  0.1325
  850SOL    HW2 2550   0.583   2.190   0.722  0.4892  2.3691  0.1255
  851SOL     OW 2551   2.064   0.246   2.857  0.0034  0.0989 -0.3397
  851SOL    HW1 2552   2.021   0.338   2.845  1.1866  2.7685  0.3733
  851SOL    HW2 2553   2.086   0.207   2.766 -2.8224  1.4480  1.2134
  852SOL     OW 2554   1.656   2.059   2.660 -0.1522  0.4896  0.0980
  852SOL    HW1 2555   1.570   2.014   2.630  0.5800  0.1523 -0.1699
  852SOL    HW2 2556   1.712   2.069   2.569  1.5994 -0.4005 -2.3002
  853SOL     OW 2557   0.172   2.015   0.322 -0.3971  0.0679 -1.0200
  853SOL    HW1 2558   0.138   1.995   0.234  0.6717  0.3228  3.8734
  853SOL    HW2 2559   0.139   1.938   0.385  0.0582  0.4536 -1.1627
  854SOL     OW 2560   1.670   0.591   2.005 -0.5010  0.0555  0.6704
  854SOL    HW1 2561   1.644   0.515   2.069 -0.8774 -2.6852  2.9484
  854SOL    HW2 2562   1.757   0.631   2.028 -2.7109  0.7546  0.4072
  855SOL     OW 2563   0.229   2.640   0.492 -0.2873  0.2921  0.1263
  855SOL    HW1 2564   0.322   2.659   0.517 -1.1622  0.6511 -1.5552
  855SOL    HW2 2565   0.227   2.579   0.410 -1.9650 -1.3273  0.9946
  856SOL     OW 2566   0.315   2.808   2.432  0.1576  0.2690 -0.0627
  856SOL    HW1 2567   0.293   2.852   2.523 -0.4723 -1.6356  1.6234
  856SOL    HW2 2568   0.414   2.815   2.409  0.5734  1.3435  1.4875
  857SOL     OW 2569   0.892   0.096   1.646  0.0590 -0.0943  0.1100
  857SOL    HW1 2570   0.890   0.186   1.592  0.9495 -0.8462 -1.2735
  857SOL    HW2 2571   0.829   0.036   1.597  0.4592  2.8865  1.6907
  858SOL     OW 2572   0.369   2.170   2.043 -0.4108 -0.6111  0.7795
  858SOL    HW1 2573   0.275   2.180   2.082 -1.2358  0.5952 -0.3077
  858SOL    HW2 2574   0.379   2.226   1.956 -0.6646 -0.3346 -0.2052
  859SOL     OW 2575   2.024   2.729   1.865  0.2057 -0.3182 -0.0223
  859SOL    HW1 2576   1.972   2.762   1.949  1.1594  2.3058 -0.5896
  859SOL    HW2 2577   2.009   2.631   1.845  0.6375 -0.1365 -1.5587
  860SOL     OW 2578   1.658   0.549   0.384  0.0429  0.3606 -0.1519
  860SOL    HW1 2579   1.569   0.594   0.364 -1.4585 -0.7447 -1.1573
  860SOL    HW2 2580   1.658   0.496   0.472  1.6399 -0.1398  1.1719
  861SOL     OW 2581   2.949   0.614   0.750  0.0119 -0.7229  0.2856
  861SOL    HW1 2582   2.967   0.672   0.837  0.5419  3.2847 -0.7308
  861SOL    HW2 2583   2.862   0.641   0.707  0.1040 -0.6203  0.8166
  862SOL     OW 2584   1.933   0.637   1.410  0.3667 -0.7225  0.1445
  862SOL    HW1 2585   1.994   0.625   1.332 -2.1414 -1.9270 -1.1012
  862SOL    HW2 2586   1.959   0.575   1.486  0.4342 -1.5079 -0.7702
  863SOL     OW 2587   0.642   0.984   0.973  0.5196  0.1304  0.2203
  863SOL    HW1 2588   0.627   0.887   0.998 -0.4476  1.1782  1.2689
  863SOL    HW2 2589   0.721   1.020   1.026 -0.5382  0.2387  1.1363
  864SOL     OW 2590   2.856   2.776   2.025  0.1935  0.0703  0.0294
  864SOL    HW1 2591   2.923   2.786   2.100 -2.2356 -0.1134 -1.4085
  864SOL    HW2 2592   2.865   2.849   1.953 -0.7609  0.4180 -2.5061
  865SOL     OW 2593   1.100   0.549   2.273 -0.0368 -0.2188  0.0662
  865SOL    HW1 2594   1.135   0.477   2.338  0.0778  1.5387  0.6639
  865SOL    HW2 2595   1.168   0.577   2.204 -0.0296 -0.0447  1.0333
  866SOL     OW 2596   2.489   2.726   0.294 -0.2674 -0.0470  0.3832
  866SOL    HW1 2597   2.408   2.752   0.347  1.4760  0.6327 -0.1476
  866SOL    HW2 2598   2.559   2.678   0.351  1.1116 -1.1159  1.6418
  867SOL     OW 2599   2.670   2.634   0.474  0.3816 -0.2260  0.0395
  867SOL    HW1 2600   2.694   2.538   0.503  0.2685  0.0140  0.4173
  867SOL    HW2 2601   2.741   2.703   0.496 -3.5054 -0.2125  2.5156
  868SOL     OW 2602   1.717   1.036   2.884 -0.5179  0.2834  0.4864
  868SOL    HW1 2603   1.787   1.028   2.959  0.2023 -1.2074  1.6838
  868SOL    HW2 2604   1.643   1.090   2.921  1.0152 -2.8998  0.4854
  869SOL     OW 2605   2.780   2.407   0.562 -0.1027 -0.3863 -0.6094
  869SOL    HW1 2606   2.702   2.341   0.556  0.3176 -4.0034  1.4023
  869SOL    HW2 2607   2.850   2.398   0.487  0.4551 -0.9692  0.9853
  870SOL     OW 2608   2.383   2.123   0.704  0.2874  0.5125 -0.2239
  870SOL    HW1 2609   2.370   2.175   0.790  0.2299  0.1490 -1.1609
  870SOL    HW2 2610   2.418   2.030   0.722  0.8143  1.5522  0.0862
  871SOL     OW 2611   0.424   1.372   1.118  0.2791  0.3378 -0.0993
  871SOL    HW1 2612   0.338   1.313   1.113 -1.2897  0.0043  0.6126
  871SOL    HW2 2613   0.439   1.414   1.213 -1.1090 -0.1173  1.9428
  872SOL     OW 2614   1.253   1.767   2.502 -0.0662  0.1441  0.2909
  872SOL    HW1 2615   1.220   1.843   2.442 -1.7222  0.4674  1.9336
  872SOL    HW2 2616   1.297   1.693   2.445 -0.0037 -2.3880 -3.1857
  873SOL     OW 2617   0.855   2.591   2.102 -1.0246 -0.1368  0.2521
  873SOL    HW1 2618   0.848   2.678   2.049 -1.2186 -0.6637  0.7887
  873SOL    HW2 2619   0.801   2.516   2.060 -1.4798  2.5579 -1.1395
  874SOL     OW 2620   0.789   0.495   1.383 -0.4226 -0.0932 -0.4024
  874SOL    HW1 2621   0.710   0.559   1.353 -1.3616  0.4533 -1.7596
  874SOL    HW2 2622   0.818   0.510   1.480 -0.4128 -0.5903  1.8632
  875SOL     OW 2623   2.842   0.414   1.176 -0.0241 -0.7869 -0.2714
  875SOL    HW1 2624   2.938   0.445   1.189  0.8365  0.9155 -2.2395
  875SOL    HW2 2625   2.835   0.327   1.229  3.8667 -0.8610 -0.5619
  876SOL     OW 2626   0.348   1.010   0.070 -0.0866  0.3400 -0.1423
  876SOL    HW1 2627   0.303   0.933   0.120  0.4413  0.0861 -0.6231
  876SOL    HW2 2628   0.293   1.095   0.072  0.4703 -1.7626 -0.4076
  877SOL     OW 2629   1.286   0.890   1.630  0.1771  0.6052 -0.0241
  877SOL    HW1 2630   1.350   0.831   1.581  0.7635 -0.2024  2.8294
  877SOL    HW2 2631   1.243   0.952   1.566  0.3196 -1.0302  1.1585
  878SOL     OW 2632   2.202   2.229   0.543  0.1511  1.1576  0.5924
  878SOL    HW1 2633   2.233   2.211   0.451 -0.7477 -1.5117  1.0921
  878SOL    HW2 2634   2.253   2.175   0.609 -0.2978  0.9418 -0.9904
  879SOL     OW 2635   2.685   1.694   1.663  0.1679  0.4305 -0.2431
  879SOL    HW1 2636   2.783   1.715   1.695  0.6954  0.9346 -0.2340
  879SOL    HW2 2637   2.670   1.597   1.679  0.3694 -0.0127  1.3156
  880SOL     OW 2638   1.508   2.434   0.606  0.4848  0.5466  0.5315
  880SOL    HW1 2639   1.460   2.453   0.698 -2.0705  1.6900  2.1680
  880SOL    HW2 2640   1.498   2.338   0.568 -1.5369  0.2818 -0.6520
  881SOL     OW 2641   0.465   2.411   0.540 -0.1750  0.6815 -0.4346
  881SOL    HW1 2642   0.493   2.370   0.451 -0.1038 -1.7447 -2.0221
  881SOL    HW2 2643   0.483   2.510   0.537 -2.2070 -2.9109 -1.0273
  882SOL     OW 2644   2.020   0.674   0.715 -0.6905 -0.0476 -0.3163
  882SOL    HW1 2645   2.117   0.664   0.676  0.8437  0.3988 -0.7580
  882SOL    HW2 2646   2.008   0.621   0.799 -1.0854  1.2572 -1.3636
  883SOL     OW 2647   1.750   0.785   1.555  0.1968 -0.0955  0.0592
  883SOL    HW1 2648   1.733   0.727   1.640 -1.3173  0.8295  2.2325
  883SOL    HW2 2649   1.805   0.728   1.491 -1.2094 -0.0796 -1.6798
  884SOL     OW 2650   2.412   0.469   0.134  0.1523 -0.7769 -0.0389
  884SOL    HW1 2651   2.482   0.435   0.199 -2.0306  0.2136 -0.9135
  884SOL    HW2 2652   2.381   0.392   0.075  0.2362 -3.2450  0.8804
  885SOL     OW 2653   1.039   1.396   2.759 -0.4776  0.1325  0.5694
  885SOL    HW1 2654   1.096   1.391   2.842  0.8540 -0.4040 -2.2882
  885SOL    HW2 2655   1.054   1.486   2.712  2.3011 -0.3985  0.3554
  886SOL     OW 2656   1.432   1.927   2.648 -0.1389  0.1665 -0.0255
  886SOL    HW1 2657   1.362   1.883   2.590 -1.4811  1.9154  1.3555
  886SOL    HW2 2658   1.393   1.994   2.714 -0.9760 -0.8153  0.5559
  887SOL     OW 2659   1.149   0.355   1.237 -0.0264 -0.0729  0.3407
  887SOL    HW1 2660   1.218   0.367   1.162 -1.2376 -0.7728  0.9158
  887SOL    HW2 2661   1.068   0.410   1.208  0.3044  1.9821 -2.6017
  888SOL     OW 2662   2.424   0.794   1.609  0.0677 -0.1084  0.3567
  888SOL    HW1 2663   2.368   0.819   1.691  0.5876  2.5286  1.2639
  888SOL    HW2 2664   2.420   0.695   1.591 -0.4002 -1.4499 -0.9699
  889SOL     OW 2665   0.130   2.723   0.731  0.3435 -0.1539  0.2336
  889SOL    HW1 2666   0.185   2.703   0.646  2.9827 -0.2731  0.9483
  889SOL    HW2 2667   0.122   2.644   0.793 -0.1074  2.4200 -1.2201
  890SOL     OW 2668   1.679   2.157   0.725 -0.2123 -0.0994  0.4630
  890SOL    HW1 2669   1.758   2.096   0.711  1.1685  0.4523  2.3336
  890SOL    HW2 2670   1.638   2.176   0.637  0.7486 -0.9583  2.8359
  891SOL     OW 2671   0.277   0.890   2.875 -0.3198  0.0793 -0.0019
  891SOL    HW1 2672   0.307   0.987   2.862  2.5123  3.0652 -0.8020
  891SOL    HW2 2673   0.320   0.851   2.954 -1.4563 -2.0168 -2.3179
  892SOL     OW 2674   2.868   2.300   1.366 -0.0148  0.0949 -0.4108
  892SOL    HW1 2675   2.956   2.348   1.348  0.2897  1.7958 -0.5866
  892SOL    HW2 2676   2.792   2.329   1.303 -1.6700  1.1941 -3.0290
  893SOL     OW 2677   1.341   0.393   1.043  0.4370 -0.0674 -0.0238
  893SOL    HW1 2678   1.347   0.299   1.011  1.6174 -1.5896  0.2706
  893SOL    HW2 2679   1.423   0.450   1.023  0.5447 -2.3121 -0.0830
  894SOL     OW 2680   2.526   0.357   0.666 -0.3446  0.3213  0.4420
  894SOL    HW1 2681   2.515   0.366   0.766  0.8401  1.9807 -0.7819
  894SOL    HW2 2682   2.538   0.449   0.624 -2.3871 -0.3857  0.8558
  895SOL     OW 2683   1.848   1.337   2.490 -0.3317 -0.2195  0.0465
  895SOL    HW1 2684   1.766   1.366   2.538  2.4721 -1.3847 -4.3146
  895SOL    HW2 2685   1.909   1.294   2.554 -0.7576  0.9474  0.7503
  896SOL     OW 2686   1.423   0.335   1.729  0.5182 -0.3953 -0.3267
  896SOL    HW1 2687   1.523   0.313   1.723 -0.8784 -1.5763  3.3239
  896SOL    HW2 2688   1.379   0.328   1.636 -2.9642 -0.0521  0.6060
  897SOL     OW 2689   0.654   1.466   1.809  0.2097 -0.1508 -0.3901
  897SOL    HW1 2690   0.700   1.400   1.748 -0.7082  3.3066  1.8075
  897SOL    HW2 2691   0.720   1.542   1.837  0.1132  2.5299 -1.2026
  898SOL     OW 2692   2.199   2.809   2.280  0.6098 -0.3908  0.2267
  898SOL    HW1 2693   2.115   2.748   2.268  2.4378  0.6111  0.9629
  898SOL    HW2 2694   2.257   2.762   2.350 -2.1458 -0.5688  2.0974
  899SOL     OW 2695   1.079   1.326   1.091 -0.0773  0.2265  0.5968
  899SOL    HW1 2696   1.173   1.288   1.095 -0.1362 -2.0319 -0.6584
  899SOL    HW2 2697   1.041   1.338   1.188  0.5420  2.8356  1.6061
  900SOL     OW 2698   1.055   2.068   2.875  0.0484 -0.1568  0.4041
  900SOL    HW1 2699   1.102   1.994   2.927 -0.9572 -0.6838  0.6090
  900SOL    HW2 2700   1.023   2.034   2.789  0.5960  1.6478 -0.9882
  901SOL     OW 2701   0.770   1.951   2.457  0.0289 -0.4400 -0.4830
  901SOL    HW1 2702   0.781   1.949   2.357  1.0300 -1.5874  0.4390
  901SOL    HW2 2703   0.706   1.886   2.492  4.0822  2.4227  1.9765
  902SOL     OW 2704   2.393   1.878   0.411  0.4212 -0.1494 -0.3225
  902SOL    HW1 2705   2.444   1.835   0.335 -2.3860 -1.6810  1.1309
  902SOL    HW2 2706   2.412   1.836   0.497 -2.0869  2.4158 -3.6687
  903SOL     OW 2707   2.103   1.785   0.597 -0.3083 -0.3205  0.1263
  903SOL    HW1 2708   2.041   1.742   0.531  0.2316  2.7769 -0.3185
  903SOL    HW2 2709   2.191   1.739   0.590 -0.3744  0.2285 -0.3272
  904SOL     OW 2710   1.131   0.776   2.425  0.3884 -0.1475  0.1309
  904SOL    HW1 2711   1.154   0.864   2.376 -1.4433  1.0602 -1.4660
  904SOL    HW2 2712   1.130   0.699   2.354 -1.0485 -1.7812 -3.0107
  905SOL     OW 2713   2.776   0.234   0.694  0.0997 -0.0834 -0.3246
  905SOL    HW1 2714   2.679   0.255   0.677  2.0338  1.1537 -3.1313
  905SOL    HW2 2715   2.821   0.317   0.736 -1.8342  1.8667  1.3428
  906SOL     OW 2716   2.778   1.837   0.580  0.2720 -0.7421  0.1707
  906SOL    HW1 2717   2.775   1.750   0.632  0.0367 -0.9581  2.7995
  906SOL    HW2 2718   2.832   1.904   0.631  0.9347 -0.3750 -0.8574
  907SOL     OW 2719   1.279   0.412   0.281  0.3899 -0.2944 -0.0614
  907SOL    HW1 2720   1.363   0.358   0.314 -2.8076 -0.0763  1.7722
  907SOL    HW2 2721   1.258   0.397   0.188 -0.5129 -0.6082  4.1343
  908SOL     OW 2722   1.930   0.320   1.341 -0.2596 -0.0388 -0.4717
  908SOL    HW1 2723   1.915   0.218   1.345 -2.0449 -3.0587 -0.1492
  908SOL    HW2 2724   2.001   0.345   1.409  1.2392  0.2221 -0.6702
  909SOL     OW 2725   2.750   0.632   1.026  0.1341 -0.1265  0.5625
  909SOL    HW1 2726   2.837   0.680   1.024 -2.3669 -1.0182  0.9197
  909SOL    HW2 2727   2.757   0.544   1.070  0.2238  4.0713 -1.6509
  910SOL     OW 2728   1.072   2.834   2.499 -0.2632 -0.4395  0.1438
  910SOL    HW1 2729   1.018   2.805   2.584 -0.2333  0.6914 -0.2922
  910SOL    HW2 2730   1.065   2.771   2.417  3.0848 -0.2797  1.1518
  911SOL     OW 2731   2.206   1.236   1.687  0.2014 -0.4607  0.7008
  911SOL    HW1 2732   2.301   1.244   1.653 -0.3093  2.5982 -0.8447
  911SOL    HW2 2733   2.144   1.237   1.605  0.8869  0.1175  2.7208
  912SOL     OW 2734   2.494   2.177   1.584 -0.0458  0.3367 -0.4967
  912SOL    HW1 2735   2.461   2.178   1.486 -0.6841  0.0970  1.3848
  912SOL    HW2 2736   2.593   2.159   1.587 -0.1432  0.5783 -0.8571
  913SOL     OW 2737   2.545   2.355   1.223 -0.1159 -0.5324  0.2952
  913SOL    HW1 2738   2.516   2.306   1.137  0.2980 -0.5765 -2.5241
  913SOL    HW2 2739   2.458   2.388   1.263 -5.2384 -1.4053  1.5481
  914SOL     OW 2740   2.103   1.825   1.388  0.3163 -0.7176 -0.0869
  914SOL    HW1 2741   2.066   1.752   1.329 -1.0473  1.5362  3.1835
  914SOL    HW2 2742   2.060   1.819   1.481  1.8684 -1.7313  1.3671
  915SOL     OW 2743   1.414   1.681   1.339 -0.5250  0.3217  0.0667
  915SOL    HW1 2744   1.409   1.754   1.409 -0.6924  1.0704 -1.8909
  915SOL    HW2 2745   1.451   1.712   1.247 -2.2157  2.0063  0.5186
  916SOL     OW 2746   2.812   2.853   1.210 -0.0231  0.5303 -0.0301
  916SOL    HW1 2747   2.758   2.823   1.134  0.7467  5.9771  0.7047
  916SOL    HW2 2748   2.761   2.861   1.299  3.4307 -1.9880  1.6184
  917SOL     OW 2749   2.440   1.761   2.558 -0.0728  0.0400  0.3920
  917SOL    HW1 2750   2.396   1.854   2.549 -0.5800  1.1521 -1.5020
  917SOL    HW2 2751   2.430   1.724   2.653  0.9333  0.9135  2.3280
  918SOL     OW 2752   1.791   2.041   2.428 -0.4363  0.1377  0.3101
  918SOL    HW1 2753   1.746   2.073   2.339 -2.7282  1.5646 -1.8308
  918SOL    HW2 2754   1.823   1.941   2.419  2.2034 -1.3171  3.1196
  919SOL     OW 2755   1.619   2.228   1.935 -0.2966  0.2214  0.6292
  919SOL    HW1 2756   1.520   2.213   1.946  2.0535 -0.3453  1.3704
  919SOL    HW2 2757   1.642   2.260   1.844  0.1902 -1.3829 -0.4283
  920SOL     OW 2758   2.978   0.169   2.766  0.4060  0.2911  0.7299
  920SOL    HW1 2759   3.033   0.224   2.702 -1.3016 -2.8447 -0.9093
  920SOL    HW2 2760   3.006   0.073   2.768 -0.5520  0.7670  0.6431
  921SOL     OW 2761   2.424   0.037   2.345  0.2632 -0.6423  0.1158
  921SOL    HW1 2762   2.520   0.015   2.317  3.3718  1.2632  3.0435
  921SOL    HW2 2763   2.426   0.126   2.392 -0.0355  1.0711  2.2599
  922SOL     OW 2764   2.474   1.686   1.123  0.1541  0.2103  0.3834
  922SOL    HW1 2765   2.505   1.724   1.211 -0.4694  1.7151  2.1332
  922SOL    HW2 2766   2.371   1.694   1.112  1.5324 -2.8210  0.4370
  923SOL     OW 2767   0.543   1.716   0.620 -0.0576  0.1131 -0.4889
  923SOL    HW1 2768   0.562   1.739   0.521  0.7687 -2.9094 -0.6523
  923SOL    HW2 2769   0.628   1.723   0.677 -1.5634  1.0285 -3.0409
  924SOL     OW 2770   1.426   0.566   2.986  0.8436  0.5861  0.2844
  924SOL    HW1 2771   1.499   0.623   3.026 -1.6788 -2.6160 -2.6707
  924SOL    HW2 2772   1.467   0.489   2.939 -3.3884  1.3369  0.6827
  925SOL     OW 2773   2.618   1.399   0.681  0.1140 -0.3420  0.5877
  925SOL    HW1 2774   2.538   1.432   0.734  0.2077 -0.7629  1.2242
  925SOL    HW2 2775   2.603   1.315   0.626 -1.6710  3.5137  1.3361
  926SOL     OW 2776   2.650   1.021   1.012  0.2728  0.3077 -0.2999
  926SOL    HW1 2777   2.631   0.973   1.101  1.2562 -0.3616 -1.9440
  926SOL    HW2 2778   2.741   0.994   0.970 -0.7036  0.5538 -2.7634
  927SOL     OW 2779   0.640   1.240   0.333  0.0220 -0.1309 -0.3539
  927SOL    HW1 2780   0.634   1.159   0.270  0.9382  0.4659 -1.9870
  927SOL    HW2 2781   0.733   1.269   0.355  1.3105  2.0636  2.7910
  928SOL     OW 2782   0.178   0.112   2.414  0.3371  0.3405  0.4136
  928SOL    HW1 2783   0.258   0.081   2.475 -1.2887 -3.3256 -0.8269
  928SOL    HW2 2784   0.204   0.109   2.316  0.6170  1.4348 -0.3767
  929SOL     OW 2785   2.925   0.066   1.051 -0.3648 -0.1417  0.2144
  929SOL    HW1 2786   2.888   0.026   0.967 -1.0183  2.1395  3.3424
  929SOL    HW2 2787   2.855   0.086   1.126 -0.8300 -1.4840 -0.1391
  930SOL     OW 2788   1.948   2.475   1.794 -0.7441 -0.3995  0.4236
  930SOL    HW1 2789   1.878   2.488   1.869 -1.2227  0.5265  0.2721
  930SOL    HW2 2790   1.931   2.390   1.744 -1.4593 -0.5146 -0.9701
  931SOL     OW 2791   1.676   1.174   0.982  0.1504  0.2270 -0.6321
  931SOL    HW1 2792   1.764   1.155   1.032  0.6896 -0.2177 -0.0967
  931SOL    HW2 2793   1.684   1.164   0.879 -0.0509 -0.0171 -1.4613
  932SOL     OW 2794   2.900   0.947   1.286 -0.4733 -0.3214  0.3250
  932SOL    HW1 2795   2.814   0.913   1.247 -0.0172  2.6377 -1.4675
  932SOL    HW2 2796   2.910   1.043   1.252 -0.9564  0.4343  0.3205
  933SOL     OW 2797   2.456   1.796   1.599 -0.0378  0.6076 -0.1680
  933SOL    HW1 2798   2.401   1.850   1.666 -0.5741 -0.8342 -2.3754
  933SOL    HW2 2799   2.535   1.758   1.644  2.4208 -0.5656 -1.3667
  934SOL     OW 2800   1.833   0.388   1.094 -0.1098 -0.4870  0.1737
  934SOL    HW1 2801   1.894   0.360   1.173  0.1511 -0.6631 -0.3128
  934SOL    HW2 2802   1.836   0.324   1.015 -0.1921  0.8294  2.6631
  935SOL     OW 2803   0.047   1.460   1.167  0.0460 -0.0431 -0.3979
  935SOL    HW1 2804   3.070   1.465   1.100 -0.0571  0.9003 -0.8041
  935SOL    HW2 2805   0.095   1.368   1.158  3.8211 -5.0469  0.3454
  936SOL     OW 2806   3.038   1.203   1.003  0.0194  0.4473  0.2656
  936SOL    HW1 2807   2.972   1.220   1.081 -3.3368 -0.5930 -0.5006
  936SOL    HW2 2808   0.030   1.188   1.040 -0.8265  2.0001 -3.3113
  937SOL     OW 2809   1.616   2.986   0.936  0.2091  0.0484  0.0262
  937SOL    HW1 2810   1.514   2.991   0.920 -3.0933 -0.1141  0.7858
  937SOL    HW2 2811   1.649   2.905   0.883 -0.6877 -0.2551 -1.2781
  938SOL     OW 2812   2.661   2.582   0.804 -0.0115  0.3108 -0.2900
  938SOL    HW1 2813   2.707   2.535   0.729  2.4793  0.1488  1.6596
  938SOL    HW2 2814   2.565   2.571   0.802  3.3897 -0.4531  0.2619
  939SOL     OW 2815   0.406   1.881   3.019  0.2929  0.0868 -0.2198
  939SOL    HW1 2816   0.495   1.835   2.994  2.6561 -2.0688  1.0534
  939SOL    HW2 2817   0.424   1.917   0.015  0.9489  0.8876 -2.1228
  940SOL     OW 2818   2.854   2.989   2.972 -0.1519  0.1896  0.3789
  940SOL    HW1 2819   2.935   3.003   2.913  1.4710 -1.1368 -0.3167
  940SOL    HW2 2820   2.805   2.911   2.926 -0.4689  1.2903 -2.1644
  941SOL     OW 2821   0.960   2.757   0.041  0.3273  0.0181  0.6755
  941SOL    HW1 2822   1.024   2.682   0.075 -0.1739 -1.2827  0.9779
  941SOL    HW2 2823   0.995   2.776   3.047  1.1108  0.3702 -3.1882
  942SOL     OW 2824   1.669   1.955   1.679 -0.1425 -0.1640  0.2061
  942SOL    HW1 2825   1.730   1.941   1.758 -2.5196 -0.1096 -1.1310
  942SOL    HW2 2826   1.723   1.955   1.595 -1.8712 -2.5452  2.2312
  943SOL     OW 2827   2.177   1.396   1.332  0.2607  0.8912 -0.2267
  943SOL    HW1 2828   2.224   1.467   1.395  0.8492 -1.9267  1.6462
  943SOL    HW2 2829   2.116   1.336   1.391  0.0610 -0.7462 -2.3725
  944SOL     OW 2830   1.954   0.991   1.372  0.7368 -0.2544 -0.8879
  944SOL    HW1 2831   1.928   0.951   1.281 -1.1151 -1.2855 -1.8229
  944SOL    HW2 2832   1.897   0.945   1.440 -2.4477  3.5560  1.2208
  945SOL     OW 2833   0.056   3.007   0.991 -0.2641  0.0320 -0.8099
  945SOL    HW1 2834   0.064   2.922   1.043  0.5581  2.0984 -1.4059
  945SOL    HW2 2835   3.081   3.072   1.021 -2.2608  0.3021  2.8169
  946SOL     OW 2836   0.325   0.718   1.861 -0.1459 -0.5195 -1.0033
  946SOL    HW1 2837   0.261   0.772   1.803  0.7137 -1.0503  1.8086
  946SOL    HW2 2838   0.336   0.623   1.824 -0.7952 -2.0792  1.8837
  947SOL     OW 2839   0.504   2.704   0.541 -0.7360  0.1006 -0.2237
  947SOL    HW1 2840   0.569   2.659   0.470  2.8903  0.4538 -0.5566
  947SOL    HW2 2841   0.549   2.786   0.582  0.3118  0.4808 -0.9220
  948SOL     OW 2842   3.024   1.224   1.841 -0.1711 -0.0142  0.3207
  948SOL    HW1 2843   3.058   1.262   1.751  1.5178  0.5028  0.0027
  948SOL    HW2 2844   3.098   1.165   1.877  0.3821 -1.6764 -0.7949
  949SOL     OW 2845   0.458   0.957   2.206  0.2098 -0.2593 -0.0065
  949SOL    HW1 2846   0.413   0.881   2.262  3.7761 -0.0392  0.1112
  949SOL    HW2 2847   0.393   1.000   2.138 -1.3370  1.2914 -1.4392
  950SOL     OW 2848   0.863   0.698   0.961  0.4113 -0.1550  0.3201
  950SOL    HW1 2849   0.765   0.699   0.987  2.6774 -0.1963  2.7231
  950SOL    HW2 2850   0.886   0.789   0.921  1.8381 -1.0176  1.0963
  951SOL     OW 2851   1.201   1.992   2.012 -0.3682  0.1121  0.3750
  951SOL    HW1 2852   1.239   1.974   2.102  0.2290 -0.0364 -2.0815
  951SOL    HW2 2853   1.102   2.003   2.005  2.6379  0.5101 -3.1737
  952SOL     OW 2854   0.672   1.839   2.866  0.1268  0.0230 -0.3386
  952SOL    HW1 2855   0.766   1.826   2.896  1.5530  0.8165  0.9350
  952SOL    HW2 2856   0.658   1.817   2.768 -1.7391  1.5806  3.8077
  953SOL     OW 2857   1.601   3.038   2.299 -0.6667 -0.0609  0.8437
  953SOL    HW1 2858   1.650   0.023   2.272  2.7197 -1.2875 -0.5717
  953SOL    HW2 2859   1.631   3.007   2.395  0.9148  0.3857  0.5403
  954SOL     OW 2860   1.797   1.201   0.419 -0.1024  0.0781  0.0564
  954SOL    HW1 2861   1.837   1.267   0.481  1.6975 -1.4528 -0.1426
  954SOL    HW2 2862   1.837   1.213   0.327  1.3041 -0.7269  1.3832
  955SOL     OW 2863   0.742   2.321   2.097  0.2330  0.0861  0.1588
  955SOL    HW1 2864   0.681   2.265   2.161 -0.5224  0.4732 -2.3478
  955SOL    HW2 2865   0.715   2.313   1.998 -0.0870  1.9214  0.9267
  956SOL     OW 2866   1.520   0.813   1.402  0.3804  0.0358  0.5980
  956SOL    HW1 2867   1.508   0.723   1.359 -0.0302 -0.0428  0.9143
  956SOL    HW2 2868   1.609   0.821   1.452  1.2866  0.2281 -2.3962
  957SOL     OW 2869   2.122   1.542   2.356  0.3199 -0.1718 -0.8180
  957SOL    HW1 2870   2.100   1.571   2.456 -1.5245  1.0946  3.8694
  957SOL    HW2 2871   2.033   1.504   2.312 -1.8721  0.3985 -0.0930
  958SOL     OW 2872   1.367   2.555   0.843 -0.2335 -0.5725  0.1575
  958SOL    HW1 2873   1.325   2.646   0.826  2.9491 -3.5175  0.0172
  958SOL    HW2 2874   1.388   2.541   0.945  1.5448  1.5410  2.2114
  959SOL     OW 2875   1.654   1.448   2.639  0.8006  0.3028 -0.1130
  959SOL    HW1 2876   1.583   1.396   2.696  0.0065 -1.6682 -1.7458
  959SOL    HW2 2877   1.699   1.514   2.697  0.8273  2.3927  0.3942
  960SOL     OW 2878   0.143   0.363   0.089  1.0537  0.1853  0.3107
  960SOL    HW1 2879   0.100   0.452   0.075  2.3922 -3.7468  2.0216
  960SOL    HW2 2880   0.108   0.293   0.018 -0.7381 -2.8598  1.2347
  961SOL     OW 2881   0.475   0.532   2.205  0.4340 -0.4561 -0.0207
  961SOL    HW1 2882   0.570   0.489   2.205 -1.0317 -0.8854  1.8840
  961SOL    HW2 2883   0.429   0.493   2.283  0.9163 -2.0435  0.4910
  962SOL     OW 2884   0.870   1.507   3.077  0.5716 -0.2068  0.1231
  962SOL    HW1 2885   0.966   1.490   0.006  0.7121  0.3221 -2.1334
  962SOL    HW2 2886   0.813   1.425   3.094 -0.0927  1.2240  3.7998
  963SOL     OW 2887   1.926   1.845   3.031  0.5074 -0.3164 -0.7077
  963SOL    HW1 2888   1.872   1.858   2.947  0.3213 -1.6439  3.4367
  963SOL    HW2 2889   2.016   1.899   3.028  1.1578 -2.6355  0.0459
  964SOL     OW 2890   1.342   2.975   0.917  0.5603 -0.0111  0.0657
  964SOL    HW1 2891   1.318   2.906   0.844  0.7764 -0.1246 -3.3899
  964SOL    HW2 2892   1.268   2.985   0.987 -0.1247  0.7203  0.0567
  965SOL     OW 2893   0.787   2.389   1.235 -0.3308  1.1447  0.2198
  965SOL    HW1 2894   0.720   2.361   1.310  1.7700  2.0988 -0.5414
  965SOL    HW2 2895   0.755   2.363   1.140 -0.5722  2.3801  0.0429
  966SOL     OW 2896   3.088   1.480   0.009  0.8292 -0.1795  0.3771
  966SOL    HW1 2897   3.035   1.548   3.056 -2.1332 -1.4088  0.7409
  966SOL    HW2 2898   3.020   1.416   0.052  0.2173  0.4735  2.7899
  967SOL     OW 2899   1.781   3.099   1.679  0.6635 -0.7226  0.7750
  967SOL    HW1 2900   1.716   3.078   1.606  2.5411  2.0426  2.0265
  967SOL    HW2 2901   1.790   3.022   1.742 -0.4081  0.0940 -1.1652
  968SOL     OW 2902   1.939   0.906   0.615 -0.4187 -0.6098 -0.2779
  968SOL    HW1 2903   1.836   0.897   0.599  0.0135 -1.6402  1.1161
  968SOL    HW2 2904   1.981   0.822   0.662  0.6231 -4.4305  1.4296
  969SOL     OW 2905   0.359   1.905   2.007  0.0468  0.4628 -0.5915
  969SOL    HW1 2906   0.449   1.858   2.016 -0.5679  1.5655  2.5783
  969SOL    HW2 2907   0.369   2.005   2.016  0.6613 -2.2574 -0.5148
  970SOL     OW 2908   2.543   1.432   1.399  0.1177 -0.2097  0.3924
  970SOL    HW1 2909   2.496   1.344   1.392  1.5197  2.0877 -0.5529
  970SOL    HW2 2910   2.603   1.452   1.314  1.4179  1.6877 -2.8769
  971SOL     OW 2911   1.039   0.471   1.577 -0.5159 -0.0852 -0.2187
  971SOL    HW1 2912   1.043   0.560   1.631 -2.0114 -0.5251  0.7552
  971SOL    HW2 2913   1.116   0.469   1.514 -2.2867 -1.4784  2.3495
  972SOL     OW 2914   0.908   0.297   2.507  0.0381 -0.2849 -0.3111
  972SOL    HW1 2915   0.886   0.245   2.594 -0.4635 -1.4702  0.9794
  972SOL    HW2 2916   0.857   0.382   2.508 -1.3800 -1.7700  0.5222
  973SOL     OW 2917   2.958   1.507   1.004  0.2476 -0.2108  0.2254
  973SOL    HW1 2918   2.901   1.437   0.956 -0.9531  2.6045  0.2951
  973SOL    HW2 2919   2.990   1.568   0.926  1.3311  3.5148 -2.1683
  974SOL     OW 2920   1.821   1.090   1.934 -0.0045 -0.2022  0.0913
  974SOL    HW1 2921   1.837   1.182   1.889 -2.6866 -2.5632  0.5950
  974SOL    HW2 2922   1.771   1.030   1.869  0.7816  0.0030  0.6823
  975SOL     OW 2923   2.610   0.006   0.265 -0.0925  0.0708 -0.0960
  975SOL    HW1 2924   2.545   3.050   0.216 -0.2035 -2.3875  4.0800
  975SOL    HW2 2925   2.701   3.100   0.220 -0.2566 -0.3028 -1.2774
  976SOL     OW 2926   0.383   1.732   1.743 -0.6524 -0.3651  0.3665
  976SOL    HW1 2927   0.452   1.777   1.807  0.6825  2.0734 -0.1780
  976SOL    HW2 2928   0.300   1.794   1.745 -4.5557  0.3641 -2.0111
  977SOL     OW 2929   0.533   2.817   0.180 -0.5689 -0.1316 -0.0871
  977SOL    HW1 2930   0.601   2.784   0.113 -2.5331  1.4048 -1.5647
  977SOL    HW2 2931   0.439   2.800   0.148  0.8130 -1.4621 -1.1233
  978SOL     OW 2932   0.564   1.630   0.108  0.0862 -0.2417  0.9568
  978SOL    HW1 2933   0.526   1.535   0.103  0.5095  2.4809 -0.4083
  978SOL    HW2 2934   0.652   1.642   0.055 -0.3551  1.1406  0.5993
  979SOL     OW 2935   1.398   2.155   1.285 -0.1996  1.0421 -0.3722
  979SOL    HW1 2936   1.356   2.247   1.295 -1.2424  0.6543 -3.3129
  979SOL    HW2 2937   1.445   2.132   1.375 -1.0266  3.2806 -1.0295
  980SOL     OW 2938   0.783   1.289   2.028  0.1600 -0.0656  0.2642
  980SOL    HW1 2939   0.739   1.308   1.939 -0.3366  1.0079  1.8108
  980SOL    HW2 2940   0.710   1.253   2.095 -0.7760  0.7407 -0.1702
  981SOL     OW 2941   3.085   1.272   0.318  0.1777 -0.0680 -0.2034
  981SOL    HW1 2942   0.084   1.285   0.336  0.1420  1.4944  0.4646
  981SOL    HW2 2943   3.023   1.331   0.374 -1.7255 -1.2174  1.9178
  982SOL     OW 2944   2.493   2.666   2.934 -0.1886 -0.7535 -0.5713
  982SOL    HW1 2945   2.500   2.566   2.950 -0.4225 -1.0701  0.3678
  982SOL    HW2 2946   2.427   2.702   2.865 -2.0664 -0.0639 -1.4924
  983SOL     OW 2947   2.152   0.594   1.171 -0.3831  0.4983 -0.1466
  983SOL    HW1 2948   2.221   0.671   1.167  0.4297  0.7522  0.2407
  983SOL    HW2 2949   2.191   0.507   1.138  0.5464  1.2102 -1.9647
  984SOL     OW 2950   0.960   3.096   2.492  0.7247 -0.2106 -0.2178
  984SOL    HW1 2951   0.966   0.030   2.587 -2.4336 -0.9890  1.0531
  984SOL    HW2 2952   0.966   2.998   2.487  1.2177  1.0090 -1.7910
  985SOL     OW 2953   1.401   2.157   2.328 -0.0019 -0.3637  0.3755
  985SOL    HW1 2954   1.376   2.251   2.314  1.2291 -0.0706 -1.3688
  985SOL    HW2 2955   1.505   2.146   2.328  1.7929  0.5109 -1.6341
  986SOL     OW 2956   1.693   2.999   2.580 -0.0136  0.1550 -0.3934
  986SOL    HW1 2957   1.728   3.090   2.611  0.3902  1.1123 -3.1181
  986SOL    HW2 2958   1.769   2.935   2.557  1.2437  1.0057 -4.2199
  987SOL     OW 2959   2.464   0.063   2.025  0.9981 -0.4401  0.0402
  987SOL    HW1 2960   2.439   0.144   2.084 -1.3660  0.9356 -0.2044
  987SOL    HW2 2961   2.402   3.084   2.052 -1.0917  2.1585 -1.8204
  988SOL     OW 2962   2.424   0.310   2.172  0.5747  0.3360  0.8098
  988SOL    HW1 2963   2.434   0.327   2.274 -0.3903 -0.8425  1.1007
  988SOL    HW2 2964   2.359   0.372   2.129 -0.1275 -1.7321  0.9569
  989SOL     OW 2965   2.492   2.385   2.932 -0.3084  0.2517  0.0401
  989SOL    HW1 2966   2.588   2.391   2.902  0.2191 -0.3199  1.0505
  989SOL    HW2 2967   2.437   2.309   2.890  1.5943 -1.1865  1.4401
  990SOL     OW 2968   0.033   0.861   2.996  0.1676 -1.0415  0.0139
  990SOL    HW1 2969   0.015   0.770   3.048  0.0576  1.0358  2.4294
  990SOL    HW2 2970   0.129   0.871   2.959  1.3893 -0.1966 -2.4194
  991SOL     OW 2971   0.460   1.060   2.539  1.0412  0.0094 -0.2474
  991SOL    HW1 2972   0.559   1.071   2.526 -2.1862  2.6189  4.0832
  991SOL    HW2 2973   0.436   0.965   2.531  1.4140 -0.2554 -0.7342
  992SOL     OW 2974   0.144   1.806   2.158 -0.4103  0.6038  0.1449
  992SOL    HW1 2975   0.223   1.856   2.119  0.5281 -0.0160  3.2156
  992SOL    HW2 2976   0.055   1.835   2.123  1.9167  0.7682  0.8850
  993SOL     OW 2977   0.789   0.122   0.674 -0.3639 -0.2857  0.5289
  993SOL    HW1 2978   0.778   0.218   0.646  0.9013 -1.5120 -0.1146
  993SOL    HW2 2979   0.787   0.056   0.591 -0.0851 -2.5708 -0.7672
  994SOL     OW 2980   0.435   2.114   1.530  0.5954 -0.3720  0.7007
  994SOL    HW1 2981   0.352   2.054   1.553  0.5335 -1.4932  0.2225
  994SOL    HW2 2982   0.509   2.059   1.486  0.5621  1.6451 -2.6715
  995SOL     OW 2983   2.177   1.704   2.834  0.3186 -0.1205  0.4844
  995SOL    HW1 2984   2.276   1.687   2.816  2.0879 -1.1847 -0.6649
  995SOL    HW2 2985   2.155   1.651   2.914  1.0332  1.3693 -2.0100
  996SOL     OW 2986   2.042   1.655   2.604  0.2834 -0.0083 -0.0298
  996SOL    HW1 2987   1.941   1.630   2.624 -1.7228  0.2180  1.1765
  996SOL    HW2 2988   2.098   1.650   2.689  1.1079  1.0361 -1.2311
  997SOL     OW 2989   1.844   1.374   1.819 -0.4122 -0.2511 -0.0862
  997SOL    HW1 2990   1.934   1.420   1.843 -0.0489 -0.7798  0.3414
  997SOL    HW2 2991   1.766   1.426   1.850  2.0816  0.0049 -0.7727
  998SOL     OW 2992   2.265   2.126   1.062  0.8068  0.0162 -0.5369
  998SOL    HW1 2993   2.241   2.109   1.158  1.7762  0.5510 -0.1143
  998SOL    HW2 2994   2.236   2.041   1.007  1.8721  0.8633 -2.2364
  999SOL     OW 2995   2.297   2.600   0.076 -0.4109  0.1248 -0.0386
  999SOL    HW1 2996   2.367   2.669   0.050  0.7458 -1.5123 -1.2048
  999SOL    HW2 2997   2.324   2.504   0.068 -2.2741 -0.2292  2.4830
 1000SOL     OW 2998   0.678   3.095   2.462  0.2649  0.4763  0.2757
 1000SOL    HW1 2999   0.631   0.082   2.449 -2.5302  2.3262 -0.4785
 1000SOL    HW2 3000   0.779   3.097   2.441  2.5262  0.4606 -2.4206
   3.10130   3.10130   3.10130
