1000 SPC/Fw water molecules t= 388.00000 step= 388000
 3000
    1SOL     OW    1   2.769   3.042   1.586  0.4047  0.1747 -0.1748
    1SOL    HW1    2   2.685   3.089   1.620  2.5032 -2.8827  2.4563
    1SOL    HW2    3   2.798   2.972   1.655  2.1681 -0.7310 -0.6329
    2SOL     OW    4   2.319   2.597   0.389 -0.2887 -0.9380 -0.4229
    2SOL    HW1    5   2.327   2.699   0.385 -0.2644  1.1232 -0.6042
    2SOL    HW2    6   2.241   2.569   0.338 -0.6395  0.1757 -0.1741
    3SOL     OW    7   1.395   2.854   0.344 -0.5278 -0.3175  0.2597
    3SOL    HW1    8   1.475   2.790   0.361  2.3527 -2.1286 -0.2263
    3SOL    HW2    9   1.424   2.951   0.355 -0.7888 -0.8075 -1.8386
    4SOL     OW   10   1.169   0.122   2.386 -0.7300  0.2441 -0.1461
    4SOL    HW1   11   1.132   0.070   2.466  0.2925  1.7821  1.3115
    4SOL    HW2   12   1.129   0.084   2.302  1.3976 -0.4290  1.5145
    5SOL     OW   13   2.119   0.204   1.435  0.0853 -0.4073 -0.4146
    5SOL    HW1   14   2.120   0.257   1.348 -0.4594 -2.3231  0.8085
    5SOL    HW2   15   2.039   0.146   1.441 -0.6684 -0.0318 -2.0694
    6SOL     OW   16   2.186   1.895   0.532 -0.3477  0.3949  0.2683
    6SOL    HW1   17   2.109   1.874   0.471 -1.3884 -1.6367  1.8264
    6SOL    HW2   18   2.197   1.993   0.534 -1.3179 -2.3238 -1.8179
    7SOL     OW   19   1.774   1.085   0.886 -0.3108  0.2017 -0.3990
    7SOL    HW1   20   1.754   1.121   0.978  0.1374 -1.6970  0.1128
    7SOL    HW2   21   1.708   1.009   0.864 -1.9108  0.4327 -0.0511
    8SOL     OW   22   0.774   1.290   1.001  0.2581 -0.8456 -0.5498
    8SOL    HW1   23   0.831   1.358   1.056  0.1174  2.5520  1.3462
    8SOL    HW2   24   0.679   1.319   1.011 -0.0960 -0.2483  0.5154
    9SOL     OW   25   0.518   2.735   1.741 -0.4736  0.2105 -0.5086
    9SOL    HW1   26   0.434   2.754   1.681 -0.2776  0.2991 -0.6259
    9SOL    HW2   27   0.504   2.646   1.791  2.1737 -0.2835  1.4449
   10SOL     OW   28   1.146   2.478   0.483  0.6377  0.2065  0.1263
   10SOL    HW1   29   1.205   2.525   0.414 -0.5362  0.5956  0.5489
   10SOL    HW2   30   1.199   2.400   0.527  0.7110 -0.4815 -0.9968
   11SOL     OW   31   1.678   1.796   1.344  0.4368  0.0108  0.1322
   11SOL    HW1   32   1.757   1.795   1.281 -0.7064 -1.2937  2.1207
   11SOL    HW2   33   1.596   1.822   1.291  0.1020  1.6644  0.8696
   12SOL     OW   34   2.952   0.473   2.051  0.1349 -0.0086 -0.0075
   12SOL    HW1   35   2.869   0.471   1.989 -0.4040 -1.0825  0.1055
   12SOL    HW2   36   3.012   0.559   2.036 -1.3862 -0.1669 -1.0758
   13SOL     OW   37   2.618   0.204   0.555 -0.3473 -0.0247 -0.1089
   13SOL    HW1   38   2.585   0.138   0.626  2.8298 -1.7453 -0.9313
   13SOL    HW2   39   2.682   0.161   0.490 -0.0033 -0.2497  0.3896
   14SOL     OW   40   1.586   1.423   3.037  0.0658 -0.3423  0.1217
   14SOL    HW1   41   1.633   1.335   3.018  1.3845 -1.5063 -1.3788
   14SOL    HW2   42   1.601   1.493   2.961  3.4103  2.0192 -0.1971
   15SOL     OW   43   2.668   2.326   1.786  0.6102  0.4632  0.4731
   15SOL    HW1   44   2.634   2.417   1.812 -1.5025 -0.1412  1.2774
   15SOL    HW2   45   2.764   2.325   1.817  0.8093  1.9242 -0.7398
   16SOL     OW   46   2.647   2.901   0.957  0.4235 -0.0684  0.3460
   16SOL    HW1   47   2.686   2.958   1.033  1.6288  1.4163  5.7558
   16SOL    HW2   48   2.618   2.808   0.986  2.0533 -0.8058 -1.6086
   17SOL     OW   49   1.228   0.378   1.337 -0.1477  0.8566  0.1421
   17SOL    HW1   50   1.169   0.320   1.269 -1.0208 -1.4751 -1.8382
   17SOL    HW2   51   1.191   0.352   1.426 -0.2907  2.5129 -0.7680
   18SOL     OW   52   1.527   0.437   0.973  0.2206  0.4987  0.1650
   18SOL    HW1   53   1.458   0.514   0.986 -1.0483 -2.4645 -0.1869
   18SOL    HW2   54   1.507   0.368   1.046 -0.3696 -1.0035  1.5651
   19SOL     OW   55   2.032   1.443   0.264 -0.5507  0.3103  0.0717
   19SOL    HW1   56   1.956   1.459   0.197 -2.8443  0.0225  0.6412
   19SOL    HW2   57   2.016   1.508   0.341  0.4780 -0.8620 -2.5151
   20SOL     OW   58   2.052   1.492   2.392 -0.1891 -0.4897 -0.0049
   20SOL    HW1   59   2.086   1.445   2.474 -1.6316 -0.0620 -2.8856
   20SOL    HW2   60   1.975   1.440   2.348 -1.0494  1.0630  0.0765
   21SOL     OW   61   1.243   3.090   0.486 -0.3566 -0.2245  0.3511
   21SOL    HW1   62   1.150   0.035   0.477  0.4098  1.3376  1.9662
   21SOL    HW2   63   1.243   3.003   0.435 -0.1477  1.9696 -0.1522
   22SOL     OW   64   2.661   0.741   0.940  0.1664 -0.0601 -0.3823
   22SOL    HW1   65   2.731   0.744   0.869 -3.3278 -0.2412 -1.0914
   22SOL    HW2   66   2.609   0.656   0.938 -0.8931  2.6868  2.4540
   23SOL     OW   67   0.420   0.071   1.731 -0.3729 -0.5991 -0.2535
   23SOL    HW1   68   0.500   0.135   1.715 -1.7048  1.1809 -0.3286
   23SOL    HW2   69   0.387   0.076   1.828  0.3911 -0.6612  1.7296
   24SOL     OW   70   2.639   2.850   0.561 -0.0818 -0.2162  0.3926
   24SOL    HW1   71   2.596   2.933   0.597 -2.8062 -3.0507  1.5870
   24SOL    HW2   72   2.734   2.842   0.600 -1.5158  0.7479  3.7898
   25SOL     OW   73   1.784   0.132   2.732 -0.2423 -0.1924 -0.0698
   25SOL    HW1   74   1.873   0.173   2.706 -1.5881 -1.6960  0.1442
   25SOL    HW2   75   1.761   0.157   2.830 -3.9273  0.5119  1.7297
   26SOL     OW   76   1.519   2.518   0.018  0.2013 -1.0244  0.2140
   26SOL    HW1   77   1.520   2.615   0.052  1.5980  1.2161  0.7026
   26SOL    HW2   78   1.457   2.457   0.068  1.4637 -3.6865 -0.4303
   27SOL     OW   79   1.285   0.555   0.961 -0.1429 -0.0831  0.0325
   27SOL    HW1   80   1.250   0.605   0.880  1.5307  1.0672 -3.0177
   27SOL    HW2   81   1.228   0.583   1.043 -0.8173  0.5017  0.0425
   28SOL     OW   82   1.269   1.471   0.601  0.2718 -0.9742 -0.2489
   28SOL    HW1   83   1.298   1.461   0.703 -1.7444  0.7906  0.4022
   28SOL    HW2   84   1.211   1.394   0.569  1.4965  1.8605 -1.1629
   29SOL     OW   85   2.677   0.233   1.839 -0.2827  0.0179  0.0238
   29SOL    HW1   86   2.669   0.191   1.929 -0.1522 -0.1248  0.0938
   29SOL    HW2   87   2.594   0.210   1.779  0.7602  3.4641  3.8279
   30SOL     OW   88   1.173   2.916   1.370  0.0413  0.7041 -0.1866
   30SOL    HW1   89   1.182   2.836   1.433  0.2903  0.0820 -0.9368
   30SOL    HW2   90   1.200   3.003   1.413  0.2454 -0.9000  1.1821
   31SOL     OW   91   1.884   2.942   1.593  0.0210  0.2327  0.0648
   31SOL    HW1   92   1.966   2.968   1.653  0.9282  0.8540  0.5417
   31SOL    HW2   93   1.909   2.861   1.541  2.9217  1.9032  2.2712
   32SOL     OW   94   1.401   1.760   2.989 -0.2884 -0.1615 -0.3040
   32SOL    HW1   95   1.494   1.801   2.989 -3.0731  1.6117  0.0404
   32SOL    HW2   96   1.331   1.822   2.947  0.5885 -1.2864  0.5415
   33SOL     OW   97   2.760   0.865   2.300 -0.1472  0.0875 -0.3887
   33SOL    HW1   98   2.728   0.920   2.219  1.2100 -3.1127  0.5738
   33SOL    HW2   99   2.699   0.874   2.379 -0.5292 -0.6003 -0.1155
   34SOL     OW  100   2.094   0.539   0.376  0.2576  0.1576 -0.2979
   34SOL    HW1  101   2.060   0.479   0.455  2.1659  0.0520  2.6227
   34SOL    HW2  102   2.085   0.484   0.290 -0.7916 -0.8689  4.2406
   35SOL     OW  103   2.688   2.129   2.210 -0.0411  0.1808 -0.2264
   35SOL    HW1  104   2.735   2.079   2.287  0.9771 -2.4637  1.2640
   35SOL    HW2  105   2.755   2.195   2.171  0.5631  1.7976 -0.3569
   36SOL     OW  106   2.193   1.941   2.968 -0.5766  0.1605 -0.2614
   36SOL    HW1  107   2.294   1.922   2.961  1.4356  0.2709 -0.0236
   36SOL    HW2  108   2.151   1.930   2.874 -1.6372 -2.1730 -0.9723
   37SOL     OW  109   1.859   0.067   1.452  0.5898 -0.3629 -0.4222
   37SOL    HW1  110   1.763   0.097   1.435  0.2080  3.2991 -1.6034
   37SOL    HW2  111   1.871   3.074   1.501  1.0071 -0.4392  1.6357
   38SOL     OW  112   0.290   0.153   2.706 -0.3401  0.0761 -0.8787
   38SOL    HW1  113   0.348   0.160   2.623 -0.8293  0.4626  0.9514
   38SOL    HW2  114   0.340   0.090   2.770  1.0562  0.5656 -1.3909
   39SOL     OW  115   1.768   1.189   1.937  0.7584 -0.5928  0.3725
   39SOL    HW1  116   1.812   1.263   1.894 -3.8333 -2.5943  2.0854
   39SOL    HW2  117   1.814   1.157   2.020 -0.5179  3.7270 -1.6019
   40SOL     OW  118   1.242   1.835   0.871  0.2783  0.2624 -0.6661
   40SOL    HW1  119   1.262   1.751   0.928  1.2011  1.6935  1.6000
   40SOL    HW2  120   1.167   1.892   0.908  1.0429  0.4155 -2.9750
   41SOL     OW  121   1.918   1.732   0.879 -0.1578 -0.2200  0.3098
   41SOL    HW1  122   1.817   1.719   0.880  1.9215 -0.2396 -1.3529
   41SOL    HW2  123   1.956   1.651   0.826  1.5430 -0.4415  2.3621
   42SOL     OW  124   3.095   0.684   1.370  0.0397  0.1553 -0.0083
   42SOL    HW1  125   0.004   0.582   1.341 -1.8118 -0.9245 -2.2576
   42SOL    HW2  126   3.098   0.691   1.470 -3.3258 -0.4227  0.8241
   43SOL     OW  127   0.265   1.696   2.965 -0.2164  0.4940 -0.7634
   43SOL    HW1  128   0.234   1.720   3.058 -1.1539  3.1305  2.5155
   43SOL    HW2  129   0.339   1.624   2.961 -1.7934 -0.1007 -0.8407
   44SOL     OW  130   1.599   2.643   1.386  0.0700  0.0826 -0.0684
   44SOL    HW1  131   1.548   2.677   1.469  0.3710 -0.8106  2.6811
   44SOL    HW2  132   1.690   2.605   1.420 -0.3212 -1.6743 -2.1490
   45SOL     OW  133   1.050   3.076   2.614  0.1442  0.7288  0.1332
   45SOL    HW1  134   1.078   2.982   2.592  2.6804  1.5698 -1.3848
   45SOL    HW2  135   0.953   3.088   2.645  1.2074  0.8484 -0.4817
   46SOL     OW  136   0.713   2.512   2.255 -0.0703 -0.1635 -0.4486
   46SOL    HW1  137   0.762   2.458   2.185 -0.6522  0.6703  1.6865
   46SOL    HW2  138   0.706   2.612   2.231 -0.5651 -1.1547  1.7273
   47SOL     OW  139   0.993   1.932   1.027  0.1388 -0.1286 -0.1967
   47SOL    HW1  140   0.956   2.000   1.093 -0.1296  1.0888  0.9621
   47SOL    HW2  141   0.994   1.836   1.059  0.5275  0.8529 -0.7368
   48SOL     OW  142   0.912   2.069   1.268  0.1890  0.2769  0.4652
   48SOL    HW1  143   0.879   2.149   1.214 -0.6054 -0.3031 -2.2328
   48SOL    HW2  144   0.830   2.023   1.307 -0.6935  0.9168  2.7861
   49SOL     OW  145   2.595   0.120   0.169  0.0488  0.4939  0.5194
   49SOL    HW1  146   2.522   0.157   0.224  0.4921 -1.7196  0.5907
   49SOL    HW2  147   2.667   0.192   0.146 -0.2090  0.0718  0.8220
   50SOL     OW  148   1.910   0.429   0.075  0.1152 -0.2331  0.2988
   50SOL    HW1  149   2.012   0.423   0.091 -1.3948 -1.3719  2.8156
   50SOL    HW2  150   1.880   0.508   0.140  0.8559  1.3221 -0.3359
   51SOL     OW  151   1.881   0.626   1.235  0.0353 -0.1837  0.0440
   51SOL    HW1  152   1.976   0.592   1.235 -0.5604  0.7336 -0.6010
   51SOL    HW2  153   1.881   0.729   1.235 -1.3237  0.7921  2.5674
   52SOL     OW  154   0.709   1.730   0.203  0.4967 -0.0613  0.1202
   52SOL    HW1  155   0.800   1.769   0.225 -1.7247  0.1138  0.2571
   52SOL    HW2  156   0.716   1.650   0.142  1.9870 -0.4431 -0.0643
   53SOL     OW  157   0.236   1.368   3.039  0.9568  0.0694 -0.4057
   53SOL    HW1  158   0.239   1.300   0.021  0.0349 -0.8552 -0.3230
   53SOL    HW2  159   0.319   1.427   3.045  2.7802  2.0763 -1.8432
   54SOL     OW  160   2.424   1.524   2.145 -0.4033 -0.2426  0.2150
   54SOL    HW1  161   2.407   1.609   2.091 -1.5334 -2.8006  0.1454
   54SOL    HW2  162   2.520   1.495   2.131  1.0715  0.4314  1.0539
   55SOL     OW  163   2.391   1.723   0.548 -0.1045 -0.4762  0.2122
   55SOL    HW1  164   2.300   1.772   0.528  1.3369  1.8139  0.0880
   55SOL    HW2  165   2.415   1.722   0.650 -1.1107 -2.6356 -0.0822
   56SOL     OW  166   1.871   3.046   1.188 -0.4664  0.4735  0.1342
   56SOL    HW1  167   1.865   0.039   1.147  2.2574  0.3877  1.6994
   56SOL    HW2  168   1.873   3.051   1.290  0.4139 -0.6017 -2.5041
   57SOL     OW  169   1.199   1.271   0.250 -0.5059 -0.1569  0.3790
   57SOL    HW1  170   1.214   1.171   0.239 -2.5194  0.0600  1.8229
   57SOL    HW2  171   1.275   1.334   0.232 -0.1432  2.4060  1.3378
   58SOL     OW  172   2.313   0.343   1.593  0.2022  0.2842 -0.1783
   58SOL    HW1  173   2.264   0.384   1.671 -3.2523 -0.5808  0.1639
   58SOL    HW2  174   2.242   0.298   1.531 -0.9872 -2.5160 -3.0688
   59SOL     OW  175   1.359   2.703   2.695  0.1949 -0.6277  0.1048
   59SOL    HW1  176   1.425   2.765   2.650 -1.5630  1.7063 -1.3877
   59SOL    HW2  177   1.373   2.607   2.656  0.3533  0.7027 -0.7494
   60SOL     OW  178   2.985   2.555   2.739  0.4419  0.4011 -0.1259
   60SOL    HW1  179   2.920   2.507   2.802  2.6175  0.4315  1.6186
   60SOL    HW2  180   2.935   2.612   2.670  0.4906  0.3213  3.3093
   61SOL     OW  181   0.818   2.276   1.103  0.1061  0.8008  0.4915
   61SOL    HW1  182   0.890   2.295   1.032 -0.4053 -0.3140 -2.7758
   61SOL    HW2  183   0.725   2.272   1.056  0.6842 -4.2985 -0.2445
   62SOL     OW  184   1.935   1.952   2.434  0.2235 -0.3377  0.1326
   62SOL    HW1  185   1.995   1.870   2.407  0.3227 -2.7192  2.0126
   62SOL    HW2  186   1.843   1.917   2.471 -2.2630  0.0467 -0.4751
   63SOL     OW  187   1.628   1.796   0.263 -0.0098  0.0344 -0.7643
   63SOL    HW1  188   1.566   1.734   0.215  2.2434 -1.5765 -1.6728
   63SOL    HW2  189   1.675   1.740   0.339 -0.8561  1.0316  1.0668
   64SOL     OW  190   1.936   1.129   0.027 -0.1532 -0.2817  0.2846
   64SOL    HW1  191   1.852   1.165   3.078 -3.2494  2.7466 -1.6290
   64SOL    HW2  192   1.916   1.100   0.122  2.0940  0.1001  0.1734
   65SOL     OW  193   2.290   2.178   1.884  0.5275 -0.1185 -0.2708
   65SOL    HW1  194   2.255   2.233   1.805  0.8322  0.0413  1.6109
   65SOL    HW2  195   2.209   2.137   1.931 -0.5870  1.9757 -0.2924
   66SOL     OW  196   0.467   0.836   1.491  0.2956 -0.8297 -0.0466
   66SOL    HW1  197   0.442   0.854   1.393 -0.4068  0.6609  0.7671
   66SOL    HW2  198   0.441   0.920   1.544 -0.5111 -0.3264 -1.0028
   67SOL     OW  199   2.291   2.949   0.080 -0.3336  0.1479  0.4872
   67SOL    HW1  200   2.315   2.974   0.179 -0.0931  0.5067 -0.2469
   67SOL    HW2  201   2.362   2.976   0.014  0.5324  0.5715 -1.9297
   68SOL     OW  202   1.836   1.925   1.126 -0.1279 -0.3856  0.1701
   68SOL    HW1  203   1.889   1.879   1.048  1.6370 -1.7075 -2.2006
   68SOL    HW2  204   1.761   1.985   1.096 -0.2926 -1.2579 -1.8300
   69SOL     OW  205   2.923   2.313   2.957 -0.1070  0.0471 -0.3283
   69SOL    HW1  206   2.832   2.274   2.977  2.6223 -3.3763  0.9598
   69SOL    HW2  207   2.950   2.380   3.029  0.8885 -0.7352  1.0525
   70SOL     OW  208   2.769   1.086   2.063  0.1046 -0.1549 -0.7519
   70SOL    HW1  209   2.804   1.149   1.994  1.7503 -0.8959 -0.8809
   70SOL    HW2  210   2.707   1.019   2.021 -0.8424  0.0032  3.6788
   71SOL     OW  211   0.861   0.947   2.789  0.2769  0.8566  0.4058
   71SOL    HW1  212   0.952   0.992   2.798  2.4967 -0.1659 -0.4236
   71SOL    HW2  213   0.856   0.841   2.788 -0.9204 -2.4691  1.5716
   72SOL     OW  214   2.819   1.687   2.277 -0.1976  0.4314  0.3350
   72SOL    HW1  215   2.782   1.780   2.268  0.8825  0.4056  1.6718
   72SOL    HW2  216   2.751   1.622   2.234  0.9488 -0.6978 -1.2556
   73SOL     OW  217   1.115   1.939   0.018  0.0563 -0.7685  0.7966
   73SOL    HW1  218   1.068   2.011   3.058  0.2740  1.5789  0.0317
   73SOL    HW2  219   1.208   1.971   0.042  0.6767  1.7146  0.2750
   74SOL     OW  220   2.004   2.809   2.615 -0.2990 -0.1616 -0.3721
   74SOL    HW1  221   2.028   2.711   2.628 -1.1165  2.6331  0.4551
   74SOL    HW2  222   1.912   2.833   2.651 -0.7303  2.6890 -0.8431
   75SOL     OW  223   1.500   2.300   0.739 -0.7406  0.5551 -0.3354
   75SOL    HW1  224   1.400   2.292   0.765 -2.0654 -0.2194 -1.2580
   75SOL    HW2  225   1.544   2.213   0.709 -0.4398 -1.1283 -2.3264
   76SOL     OW  226   2.610   1.848   2.545  0.0802  0.5345  0.1528
   76SOL    HW1  227   2.544   1.835   2.466 -0.1638 -2.5592  3.5813
   76SOL    HW2  228   2.647   1.757   2.572 -0.4647  1.4783 -1.6751
   77SOL     OW  229   3.077   2.543   1.825  0.1395  0.1787 -0.0699
   77SOL    HW1  230   3.045   2.626   1.873 -0.7051  1.4960  1.4174
   77SOL    HW2  231   3.014   2.466   1.844  1.2320  0.7965 -2.0655
   78SOL     OW  232   2.321   1.014   0.111 -0.2255 -0.4560 -0.7314
   78SOL    HW1  233   2.268   0.929   0.136 -0.5645 -1.3506  0.3857
   78SOL    HW2  234   2.266   1.092   0.146 -1.1309 -0.2375  1.7560
   79SOL     OW  235   0.117   1.514   2.643 -0.0845 -0.3997  0.5105
   79SOL    HW1  236   0.141   1.612   2.656  2.3046 -0.1564  1.6862
   79SOL    HW2  237   0.204   1.464   2.628  0.0357  2.6440 -0.7787
   80SOL     OW  238   1.865   1.414   1.822  0.0682  0.4201  0.4942
   80SOL    HW1  239   1.767   1.442   1.845 -0.2298  0.2930  1.0340
   80SOL    HW2  240   1.931   1.482   1.856 -1.0742 -2.6258  3.7795
   81SOL     OW  241   1.911   1.312   2.221 -0.1006  0.2502 -0.5558
   81SOL    HW1  242   1.978   1.274   2.151 -0.3609  2.8159 -1.9490
   81SOL    HW2  243   1.894   1.239   2.290 -1.8002 -2.7797  0.1834
   82SOL     OW  244   1.361   1.784   1.975  0.0383  0.5668  0.0393
   82SOL    HW1  245   1.271   1.799   1.926  1.1464  1.2095 -0.3540
   82SOL    HW2  246   1.384   1.687   1.984  0.1029  1.5216 -0.6689
   83SOL     OW  247   0.150   0.437   0.444 -0.4607  0.1075  0.0336
   83SOL    HW1  248   0.165   0.460   0.342 -0.9893  2.5330 -2.7276
   83SOL    HW2  249   0.052   0.431   0.470  0.2907  0.1718 -0.2583
   84SOL     OW  250   0.440   0.461   0.436 -0.0564  0.6320 -0.8153
   84SOL    HW1  251   0.348   0.418   0.442  0.4814  1.1741  0.1996
   84SOL    HW2  252   0.476   0.464   0.340 -1.5299 -1.6247 -0.1997
   85SOL     OW  253   2.150   2.048   1.437  0.0943 -0.6259 -0.4659
   85SOL    HW1  254   2.050   2.071   1.418 -0.6976  0.0832  0.0954
   85SOL    HW2  255   2.197   2.121   1.498  4.1337  2.3677  2.6517
   86SOL     OW  256   0.474   0.483   1.376  0.1718 -0.8521 -0.4057
   86SOL    HW1  257   0.437   0.481   1.281  0.9860 -0.4876 -1.4154
   86SOL    HW2  258   0.571   0.443   1.371 -0.9204 -1.2448 -0.9690
   87SOL     OW  259   0.018   2.177   2.089  0.2983  0.6003 -0.6236
   87SOL    HW1  260   3.093   2.144   1.997 -0.2142  0.3466 -0.1642
   87SOL    HW2  261   0.117   2.198   2.100 -0.5806 -0.9481  1.0224
   88SOL     OW  262   0.171   2.034   2.796  0.1939  0.9135 -0.3008
   88SOL    HW1  263   0.211   2.105   2.736 -0.1054  0.4553  3.6379
   88SOL    HW2  264   0.076   2.053   2.831 -0.4564 -0.9153  0.6088
   89SOL     OW  265   1.228   0.958   0.463  0.0470 -0.2780  0.5630
   89SOL    HW1  266   1.185   0.862   0.475  0.1721 -0.8249  2.4022
   89SOL    HW2  267   1.235   0.991   0.363  0.7533  0.2063 -1.8593
   90SOL     OW  268   0.071   1.486   2.357  0.5550 -0.5937 -0.3156
   90SOL    HW1  269   0.068   1.580   2.314  0.1499  0.3834  2.0501
   90SOL    HW2  270   0.055   1.482   2.457 -0.1857 -1.3884 -0.7255
   91SOL     OW  271   1.787   0.453   1.058  0.1760 -0.1863 -0.4691
   91SOL    HW1  272   1.696   0.452   1.019  1.4243  1.7013 -0.6400
   91SOL    HW2  273   1.800   0.523   1.127 -2.6436  0.1141  0.0498
   92SOL     OW  274   2.413   1.319   1.341 -0.3286  0.1781  0.4229
   92SOL    HW1  275   2.443   1.329   1.245 -0.8796 -0.1430 -0.0758
   92SOL    HW2  276   2.453   1.235   1.386  1.2960 -1.4182 -0.3278
   93SOL     OW  277   0.211   1.240   2.790  0.2925 -0.8329  0.5957
   93SOL    HW1  278   0.224   1.296   2.873  1.3808 -1.1080  1.1893
   93SOL    HW2  279   0.269   1.280   2.711 -0.0396  0.5930 -0.3310
   94SOL     OW  280   1.719   2.433   2.208 -0.0704 -0.1741 -0.2895
   94SOL    HW1  281   1.752   2.341   2.223 -2.0854  2.4162  0.3274
   94SOL    HW2  282   1.679   2.445   2.117 -0.2186  0.5299  0.3705
   95SOL     OW  283   0.323   0.424   1.152  0.3471 -0.3791  0.2910
   95SOL    HW1  284   0.397   0.360   1.128 -0.9082  1.1293  1.1319
   95SOL    HW2  285   0.227   0.386   1.127 -2.1874 -0.5752  1.8473
   96SOL     OW  286   2.843   2.792   1.179 -0.2028  0.2445  0.4906
   96SOL    HW1  287   2.799   2.731   1.251 -1.4404 -2.2012  2.2915
   96SOL    HW2  288   2.865   2.881   1.221  0.4295  0.7922 -0.1203
   97SOL     OW  289   2.428   0.861   1.386 -0.3639  0.2795 -0.4752
   97SOL    HW1  290   2.483   0.948   1.377 -2.2864  2.2264 -1.6264
   97SOL    HW2  291   2.332   0.881   1.417  2.3688 -0.3934 -1.3661
   98SOL     OW  292   2.197   2.675   1.597  0.0007  0.1841  0.1677
   98SOL    HW1  293   2.104   2.703   1.564 -0.2803  0.3451 -0.6718
   98SOL    HW2  294   2.258   2.755   1.601 -0.5542 -0.4257 -1.8696
   99SOL     OW  295   0.607   2.763   1.372  0.4292  0.0825 -0.1545
   99SOL    HW1  296   0.613   2.833   1.447  0.0640 -0.9501  2.2949
   99SOL    HW2  297   0.646   2.803   1.288 -0.0228  0.3703  2.1674
  100SOL     OW  298   1.894   0.195   2.393  0.5260  0.3391 -0.1150
  100SOL    HW1  299   1.848   0.283   2.372  0.6368  1.9133  0.3539
  100SOL    HW2  300   1.957   0.211   2.476  0.9514 -1.1772 -1.0988
  101SOL     OW  301   2.874   0.363   2.471 -0.0580  0.1172  0.3236
  101SOL    HW1  302   2.958   0.313   2.446  2.0503  0.1350 -0.2409
  101SOL    HW2  303   2.866   0.450   2.416  0.4795 -0.8209 -0.4140
  102SOL     OW  304   0.395   0.585   1.615 -0.6457  0.5800  0.6203
  102SOL    HW1  305   0.438   0.538   1.532 -0.6813 -0.3467 -2.2277
  102SOL    HW2  306   0.392   0.686   1.604  1.2882  2.0018 -2.8453
  103SOL     OW  307   0.870   0.520   2.887 -0.0485 -0.3516 -0.1250
  103SOL    HW1  308   0.966   0.507   2.854  0.1954  1.0906 -1.9011
  103SOL    HW2  309   0.854   0.500   2.985  0.3368  0.0119 -0.6405
  104SOL     OW  310   0.236   0.627   2.179  0.1485 -0.0793 -0.6336
  104SOL    HW1  311   0.196   0.597   2.267 -1.9645 -1.7391 -0.6468
  104SOL    HW2  312   0.159   0.627   2.109 -0.9150 -0.8521  1.6238
  105SOL     OW  313   2.546   2.028   1.416 -0.2768 -0.2675 -0.3271
  105SOL    HW1  314   2.523   2.125   1.425  0.9168 -5.6438 -0.2066
  105SOL    HW2  315   2.501   1.987   1.334 -0.4887  4.0255 -1.5166
  106SOL     OW  316   1.768   0.022   0.355  0.5247 -1.0315 -0.0136
  106SOL    HW1  317   1.814   0.076   0.428 -2.2685 -1.3758 -1.1867
  106SOL    HW2  318   1.748   0.075   0.270  0.9047 -3.8091 -0.8264
  107SOL     OW  319   2.064   2.128   0.905  0.5117 -0.0529  0.2087
  107SOL    HW1  320   2.026   2.094   0.815  0.5682 -2.5038 -0.4574
  107SOL    HW2  321   2.019   2.215   0.919  0.7986  1.0866 -2.2549
  108SOL     OW  322   0.134   2.384   1.345  0.4798 -0.1991 -0.5648
  108SOL    HW1  323   0.040   2.341   1.327  0.0732 -3.5363  2.2880
  108SOL    HW2  324   0.180   2.403   1.257  1.2535  0.9773 -0.5694
  109SOL     OW  325   2.018   2.512   0.757  0.2776 -0.5285 -0.3138
  109SOL    HW1  326   1.964   2.599   0.743 -0.4429  0.6546  1.4103
  109SOL    HW2  327   1.979   2.460   0.837 -1.0648  0.2978 -0.4897
  110SOL     OW  328   1.116   1.791   1.826 -0.1069  0.4460  0.1462
  110SOL    HW1  329   1.127   1.706   1.769  0.4613 -3.4074 -1.1742
  110SOL    HW2  330   1.103   1.874   1.766 -2.3576 -1.9106  0.4669
  111SOL     OW  331   1.865   2.452   1.789 -0.1448  0.0751 -0.1021
  111SOL    HW1  332   1.787   2.454   1.726  1.2588  1.1122 -1.6284
  111SOL    HW2  333   1.883   2.543   1.833  1.0849 -0.5031  1.5345
  112SOL     OW  334   1.684   2.128   2.968  0.5842  0.3049  0.1923
  112SOL    HW1  335   1.587   2.133   2.994  0.3460 -0.5940 -0.4062
  112SOL    HW2  336   1.740   2.126   3.055  1.9209  0.2342 -1.3686
  113SOL     OW  337   1.925   1.982   1.764  0.5743  0.2234  0.1062
  113SOL    HW1  338   1.951   1.893   1.717  2.3589 -2.4101  1.3480
  113SOL    HW2  339   1.823   1.969   1.773 -0.6975  1.4506 -2.1747
  114SOL     OW  340   0.128   1.293   1.327 -0.4024  0.2413 -0.2568
  114SOL    HW1  341   0.159   1.195   1.345  1.5377 -0.3882  1.7491
  114SOL    HW2  342   0.029   1.300   1.355 -2.2934  0.6328 -0.1993
  115SOL     OW  343   0.617   0.842   0.219  0.3133  0.3023 -0.4618
  115SOL    HW1  344   0.526   0.793   0.229  0.1977  1.6246 -0.5504
  115SOL    HW2  345   0.599   0.941   0.194  0.1782  2.2164 -2.2477
  116SOL     OW  346   2.522   1.520   2.543 -0.2172  0.0505  0.1240
  116SOL    HW1  347   2.459   1.452   2.503  1.2953  0.5104  1.3276
  116SOL    HW2  348   2.622   1.492   2.558  1.3880  0.4577  1.8429
  117SOL     OW  349   2.755   2.639   0.326 -0.2180  0.3886 -0.2923
  117SOL    HW1  350   2.703   2.683   0.400  0.6066  1.2828 -2.0895
  117SOL    HW2  351   2.847   2.617   0.355  0.3608  2.9432  1.3440
  118SOL     OW  352   0.482   1.947   2.701 -0.0089  0.1611 -0.4873
  118SOL    HW1  353   0.460   1.987   2.613 -1.0392 -0.5260  0.3154
  118SOL    HW2  354   0.401   1.957   2.762  1.2677 -1.8065  1.2262
  119SOL     OW  355   0.707   2.185   0.641  1.3161  0.2631  0.0451
  119SOL    HW1  356   0.660   2.097   0.642  1.8161  1.7124 -1.0282
  119SOL    HW2  357   0.794   2.177   0.689 -3.0477  2.8314  1.4303
  120SOL     OW  358   1.579   0.329   0.313  0.4025 -0.2337 -0.1979
  120SOL    HW1  359   1.651   0.268   0.288 -1.8364  2.4243  1.2404
  120SOL    HW2  360   1.489   0.276   0.326 -4.9291 -0.9198  0.4139
  121SOL     OW  361   1.277   2.342   0.908 -0.2465 -0.0840  0.5065
  121SOL    HW1  362   1.305   2.423   0.960  0.0511 -0.1908 -2.1784
  121SOL    HW2  363   1.177   2.338   0.911  0.4590  0.2780 -3.9517
  122SOL     OW  364   2.904   2.342   1.901 -0.1269 -0.0579 -0.2606
  122SOL    HW1  365   2.885   2.329   2.000 -1.0596 -0.7718  1.1049
  122SOL    HW2  366   2.968   2.268   1.875 -3.8986  1.1022 -0.3810
  123SOL     OW  367   0.868   1.623   0.816 -0.1100  0.0313 -0.1855
  123SOL    HW1  368   0.807   1.614   0.895  1.3401 -0.3999 -4.3534
  123SOL    HW2  369   0.835   1.702   0.758  1.7884  0.4254 -1.4067
  124SOL     OW  370   0.136   0.523   0.182  0.0812  0.3148 -0.1679
  124SOL    HW1  371   0.043   0.546   0.153  3.5491 -1.8023  1.2941
  124SOL    HW2  372   0.175   0.446   0.132  0.3226  0.8772  1.1113
  125SOL     OW  373   0.388   0.214   0.095  0.1489  0.0622  0.6438
  125SOL    HW1  374   0.311   0.256   0.044  1.0935  0.4036 -2.7737
  125SOL    HW2  375   0.434   0.287   0.147 -1.2143 -0.0137 -1.2956
  126SOL     OW  376   3.052   1.624   0.493 -0.1153  0.3922  0.5792
  126SOL    HW1  377   3.077   1.583   0.400 -0.1955  1.4256  2.5380
  126SOL    HW2  378   2.986   1.696   0.467  1.0056  2.8903 -3.2537
  127SOL     OW  379   1.097   2.486   1.660 -0.7447  0.2684  0.6125
  127SOL    HW1  380   1.077   2.486   1.758 -0.1749 -0.5295 -0.7093
  127SOL    HW2  381   1.142   2.398   1.636 -0.1162 -2.8527  2.1052
  128SOL     OW  382   0.999   1.471   0.183  0.0208 -0.2724 -0.0592
  128SOL    HW1  383   1.027   1.537   0.109  0.0076  0.0481  2.0406
  128SOL    HW2  384   1.052   1.387   0.196  0.9591  2.2526  0.6528
  129SOL     OW  385   1.921   2.126   1.320 -0.1007 -0.0074  0.1283
  129SOL    HW1  386   1.893   2.056   1.254  0.8485  0.8104 -0.7339
  129SOL    HW2  387   1.842   2.190   1.330  0.4310 -0.7141  0.8582
  130SOL     OW  388   2.032   2.225   1.732 -0.6071  0.0129  0.1820
  130SOL    HW1  389   1.972   2.143   1.735  2.7868 -0.5896 -0.4020
  130SOL    HW2  390   1.984   2.312   1.748  0.4610  0.2708 -2.0383
  131SOL     OW  391   2.632   2.656   2.488  0.3185 -0.2069  0.0352
  131SOL    HW1  392   2.597   2.703   2.570  0.5872  1.1957  2.8239
  131SOL    HW2  393   2.624   2.558   2.491  0.6899  0.2024  2.4375
  132SOL     OW  394   2.964   1.968   0.352  0.4598  0.0587 -0.8109
  132SOL    HW1  395   3.045   1.990   0.410 -0.1229  0.0114 -2.7589
  132SOL    HW2  396   2.881   2.027   0.360 -0.8825  0.7082 -0.0239
  133SOL     OW  397   0.577   0.296   1.740  0.0454  0.6917  0.3219
  133SOL    HW1  398   0.493   0.349   1.747  0.5839 -1.1477  1.8835
  133SOL    HW2  399   0.647   0.347   1.688  3.8852 -2.4768 -0.1695
  134SOL     OW  400   2.685   1.770   0.264 -0.2491  0.0793 -0.3427
  134SOL    HW1  401   2.768   1.753   0.205  0.8044 -1.1061 -0.7084
  134SOL    HW2  402   2.636   1.850   0.228  2.1237 -0.5050 -1.0336
  135SOL     OW  403   1.553   1.343   2.551  0.4974 -0.5253 -0.2035
  135SOL    HW1  404   1.613   1.354   2.631 -4.8121  0.5080 -2.2055
  135SOL    HW2  405   1.474   1.287   2.579  0.4955 -1.4570 -1.9706
  136SOL     OW  406   2.565   1.775   1.069  0.2791 -0.3390  0.2474
  136SOL    HW1  407   2.627   1.763   1.156  3.1382 -1.8865 -0.0289
  136SOL    HW2  408   2.556   1.688   1.022 -0.8743  0.3641  0.9936
  137SOL     OW  409   2.831   1.554   0.929  0.0666 -0.3715 -0.2627
  137SOL    HW1  410   2.800   1.488   0.857  1.5984 -4.8137 -2.3693
  137SOL    HW2  411   2.896   1.625   0.893  0.5852  1.4483  0.5265
  138SOL     OW  412   2.881   0.306   0.778  0.6088  0.6175  0.4107
  138SOL    HW1  413   2.894   0.218   0.825 -0.2548  1.6721  2.7637
  138SOL    HW2  414   2.802   0.357   0.814  0.5964  1.4758  1.4477
  139SOL     OW  415   0.009   2.723   0.081 -0.1886 -0.2988 -0.7064
  139SOL    HW1  416   0.013   2.786   0.160 -0.8199 -0.4669 -0.4332
  139SOL    HW2  417   3.015   2.721   0.035  0.6326  0.1823 -0.5312
  140SOL     OW  418   0.758   1.812   1.769  0.2451 -0.6448  0.2765
  140SOL    HW1  419   0.784   1.763   1.850  2.1862  1.3470  0.2347
  140SOL    HW2  420   0.705   1.902   1.793  1.0129 -0.4217 -0.2836
  141SOL     OW  421   1.633   1.776   0.709  0.0076  0.0427 -0.0697
  141SOL    HW1  422   1.651   1.687   0.757  1.0173 -1.5507  1.6736
  141SOL    HW2  423   1.542   1.764   0.658 -5.8656 -3.7627 -0.3979
  142SOL     OW  424   1.150   0.710   0.738 -0.0537 -0.2766 -0.1780
  142SOL    HW1  425   1.133   0.708   0.637 -1.1806 -1.2446 -2.6042
  142SOL    HW2  426   1.067   0.740   0.790 -0.6909  0.9301  3.2938
  143SOL     OW  427   0.734   1.294   2.665 -0.4892  0.3400  0.2881
  143SOL    HW1  428   0.806   1.311   2.731  0.2670 -2.5203 -3.4483
  143SOL    HW2  429   0.719   1.193   2.656  2.2599 -3.6405  0.1507
  144SOL     OW  430   2.248   3.043   0.839  0.0880  0.4599  0.0612
  144SOL    HW1  431   2.166   2.990   0.814  0.3345  2.2891 -0.0070
  144SOL    HW2  432   2.275   3.014   0.929 -0.0029  4.3900 -1.6494
  145SOL     OW  433   2.396   0.612   2.702  0.0752  0.0598  0.1814
  145SOL    HW1  434   2.367   0.614   2.798  0.9681  0.9013  0.7134
  145SOL    HW2  435   2.489   0.566   2.697  1.5844  1.2563 -0.7591
  146SOL     OW  436   3.009   2.616   0.477 -0.3207 -0.3448  0.2193
  146SOL    HW1  437   2.944   2.541   0.504  1.3161  2.0258 -2.1082
  146SOL    HW2  438   3.052   2.661   0.557 -1.6911 -1.2742 -1.4391
  147SOL     OW  439   1.078   1.099   2.558 -0.3388  0.5413  0.4046
  147SOL    HW1  440   0.976   1.102   2.571  0.4544  3.4959 -0.7577
  147SOL    HW2  441   1.097   1.052   2.470 -2.2548  0.4076 -0.5316
  148SOL     OW  442   1.188   0.364   2.553 -0.6988 -0.3032 -0.0689
  148SOL    HW1  443   1.183   0.435   2.480  1.6590  0.8327  1.4389
  148SOL    HW2  444   1.191   0.273   2.507  2.6214 -0.0179  0.2648
  149SOL     OW  445   1.937   0.132   2.126  0.1773  0.4863 -0.2068
  149SOL    HW1  446   2.019   0.074   2.118 -3.4226 -0.2246 -0.4912
  149SOL    HW2  447   1.933   0.170   2.222  1.1324  1.7833 -2.2585
  150SOL     OW  448   2.301   2.615   2.895  0.3090  0.5307  0.0663
  150SOL    HW1  449   2.234   2.693   2.921  0.5680  0.2465 -0.5700
  150SOL    HW2  450   2.367   2.595   2.974  1.8068 -2.6200 -0.6349
  151SOL     OW  451   0.460   1.500   2.978 -0.0729  0.7155  0.6150
  151SOL    HW1  452   0.527   1.507   3.047 -2.6019 -1.4078  0.2939
  151SOL    HW2  453   0.503   1.489   2.883  2.7692  3.5136 -0.1087
  152SOL     OW  454   0.172   0.051   1.580 -0.2607  0.5776 -0.1114
  152SOL    HW1  455   0.254   0.032   1.635 -0.1010  3.1070 -0.4677
  152SOL    HW2  456   0.094   0.096   1.630 -2.0838 -1.4748 -1.1847
  153SOL     OW  457   2.314   2.928   1.553 -0.7267  0.5284 -0.0910
  153SOL    HW1  458   2.410   2.897   1.550  1.3027  0.3118  3.1727
  153SOL    HW2  459   2.289   2.953   1.457  0.1878 -0.4141 -0.9956
  154SOL     OW  460   2.183   0.410   2.398 -0.0154 -0.2514 -0.2803
  154SOL    HW1  461   2.191   0.445   2.495 -0.6004 -1.0551  1.3986
  154SOL    HW2  462   2.236   0.327   2.392 -0.3143  0.5083  2.0015
  155SOL     OW  463   0.084   1.391   0.578  0.1968  0.2509  0.6127
  155SOL    HW1  464   0.157   1.329   0.541 -3.0933  0.8875  3.0772
  155SOL    HW2  465   0.075   1.481   0.534  2.5929 -2.5677 -0.2122
  156SOL     OW  466   0.012   1.536   0.228 -0.7993 -0.2578  0.6032
  156SOL    HW1  467   0.011   1.484   0.138 -0.0364  1.1147 -0.2081
  156SOL    HW2  468   3.080   1.631   0.210  0.2352 -2.2580  2.2060
  157SOL     OW  469   0.606   0.084   0.719  0.3064 -0.2717  0.3186
  157SOL    HW1  470   0.559   0.001   0.756 -0.6879 -2.2788  0.3699
  157SOL    HW2  471   0.708   0.066   0.714 -0.2111  3.2419 -1.4786
  158SOL     OW  472   1.870   0.906   1.234 -0.2878  0.0902 -0.1547
  158SOL    HW1  473   1.960   0.934   1.272  0.5197 -2.8854 -1.8867
  158SOL    HW2  474   1.831   0.973   1.165 -3.2453 -1.6354  0.7623
  159SOL     OW  475   0.136   0.163   0.628  0.0955  0.4946  0.1586
  159SOL    HW1  476   0.081   0.248   0.630  1.4437  2.1582  0.3115
  159SOL    HW2  477   0.168   0.151   0.532  1.8242 -1.7753 -3.3127
  160SOL     OW  478   2.249   2.280   1.579  0.5019 -0.5135  0.2536
  160SOL    HW1  479   2.167   2.258   1.631  0.1563  2.0502 -2.9452
  160SOL    HW2  480   2.231   2.352   1.512  0.4992 -2.5294 -2.2780
  161SOL     OW  481   3.067   0.789   2.664 -0.0643 -0.3368  0.3790
  161SOL    HW1  482   0.041   0.717   2.662  1.5604  1.5181 -0.6586
  161SOL    HW2  483   0.017   0.871   2.708  2.0160  0.6156  0.7380
  162SOL     OW  484   0.770   0.047   1.678  0.1288  0.7705 -0.1315
  162SOL    HW1  485   0.715   3.072   1.633 -0.8418 -0.4100 -0.3557
  162SOL    HW2  486   0.816   0.097   1.605  1.1779 -1.2943 -0.8393
  163SOL     OW  487   2.605   0.253   2.438  0.0720  0.3588  0.0367
  163SOL    HW1  488   2.641   0.157   2.442  1.3149  2.8148 -0.4070
  163SOL    HW2  489   2.662   0.309   2.506 -2.0616  1.0587  0.3745
  164SOL     OW  490   2.012   1.833   0.340  0.6139  0.1861  0.6150
  164SOL    HW1  491   1.945   1.906   0.321 -0.6026 -1.9168  1.6509
  164SOL    HW2  492   2.080   1.817   0.262  0.4051 -1.6811  1.3031
  165SOL     OW  493   0.217   0.288   1.429  0.1747 -0.3122 -0.2562
  165SOL    HW1  494   0.316   0.293   1.402  1.1777 -1.8643 -1.2553
  165SOL    HW2  495   0.199   0.202   1.480 -1.2663  0.4642  2.7241
  166SOL     OW  496   1.983   0.825   0.372  0.3514 -0.0180 -0.2483
  166SOL    HW1  497   1.977   0.923   0.341 -1.1078 -0.8554 -0.1207
  166SOL    HW2  498   1.992   0.814   0.470  1.2702 -3.0506 -1.3682
  167SOL     OW  499   2.414   0.942   2.872  0.0569 -0.4034 -0.5856
  167SOL    HW1  500   2.322   0.980   2.893  1.5279 -1.0172  2.6235
  167SOL    HW2  501   2.421   0.842   2.894  1.0973 -2.9225  0.1126
  168SOL     OW  502   1.811   0.313   2.945 -0.1460 -0.1578 -0.1881
  168SOL    HW1  503   1.845   0.345   3.035  2.6608 -0.8561 -2.3098
  168SOL    HW2  504   1.781   0.394   2.887  0.1879  0.2846  0.4061
  169SOL     OW  505   0.319   1.617   0.872  0.2591  0.0268  0.5681
  169SOL    HW1  506   0.277   1.685   0.806 -1.6943 -1.4055 -1.5893
  169SOL    HW2  507   0.250   1.572   0.928 -1.8396  0.6892  0.2777
  170SOL     OW  508   2.931   1.164   0.960 -0.1221  0.0866  0.1656
  170SOL    HW1  509   2.871   1.178   1.040  1.3011 -1.9987 -1.3507
  170SOL    HW2  510   2.879   1.118   0.886  0.1985 -0.1745  1.7608
  171SOL     OW  511   2.369   1.733   1.998  1.0247  0.2352 -0.8239
  171SOL    HW1  512   2.378   1.709   1.900  3.4603  0.9344  0.6375
  171SOL    HW2  513   2.406   1.824   2.021 -1.0332  0.1328 -0.1007
  172SOL     OW  514   0.524   1.715   1.618 -0.7790 -0.1166 -0.1848
  172SOL    HW1  515   0.508   1.801   1.568 -0.1018 -0.4637  1.5763
  172SOL    HW2  516   0.600   1.723   1.690  2.4952  0.1799 -1.3778
  173SOL     OW  517   1.629   1.622   2.855 -0.0220 -0.3332  0.2331
  173SOL    HW1  518   1.567   1.608   2.776  1.3207  0.2447  1.8492
  173SOL    HW2  519   1.662   1.718   2.871  0.5405 -0.1076 -0.5478
  174SOL     OW  520   1.405   0.750   2.851  0.0976  0.5888  0.3780
  174SOL    HW1  521   1.481   0.685   2.878 -2.8745 -2.0364 -1.2234
  174SOL    HW2  522   1.355   0.708   2.773 -0.1212  1.4275 -2.5031
  175SOL     OW  523   1.305   1.424   1.233  0.0364 -0.2229 -0.3518
  175SOL    HW1  524   1.258   1.464   1.314  0.7629 -1.4636 -1.4765
  175SOL    HW2  525   1.274   1.326   1.225  3.7917 -2.5022  1.0361
  176SOL     OW  526   1.334   0.232   0.382 -0.2354  0.0121  0.3636
  176SOL    HW1  527   1.256   0.273   0.328 -0.7288  1.4261  0.9048
  176SOL    HW2  528   1.301   0.153   0.442 -3.3117  0.5032 -0.5555
  177SOL     OW  529   0.584   1.104   0.134 -0.0743  0.5721 -0.0085
  177SOL    HW1  530   0.618   1.068   0.044  0.2224  3.2568 -0.2134
  177SOL    HW2  531   0.654   1.164   0.182  2.6848  0.8203  2.6516
  178SOL     OW  532   2.800   2.002   2.416  0.2838  0.0087  0.2933
  178SOL    HW1  533   2.857   2.047   2.486 -4.7155  0.4465 -1.5254
  178SOL    HW2  534   2.733   1.946   2.471  2.4432 -1.0118 -0.6306
  179SOL     OW  535   2.721   3.074   2.516 -0.5439 -0.0926 -0.0126
  179SOL    HW1  536   2.724   3.082   2.617 -0.9010  2.7597 -2.3432
  179SOL    HW2  537   2.798   3.026   2.474  0.9945  1.1130 -1.0475
  180SOL     OW  538   2.137   0.540   1.237 -0.2081 -0.2745 -0.1075
  180SOL    HW1  539   2.137   0.448   1.194  1.2245 -1.8709  2.4177
  180SOL    HW2  540   2.215   0.601   1.204  1.6024 -0.7520 -0.4652
  181SOL     OW  541   2.359   0.802   2.512  0.0610  0.2587 -0.3036
  181SOL    HW1  542   2.369   0.729   2.582 -1.6775 -1.5653  2.0137
  181SOL    HW2  543   2.442   0.852   2.499 -0.9684 -2.3159  1.0110
  182SOL     OW  544   2.908   2.320   2.169 -0.8358 -0.1043 -0.6012
  182SOL    HW1  545   3.002   2.293   2.139  0.1005 -1.1400 -0.2549
  182SOL    HW2  546   2.914   2.389   2.246  1.6044  0.5180  1.6259
  183SOL     OW  547   1.891   0.862   1.862  0.1191 -0.2349  0.0343
  183SOL    HW1  548   1.990   0.839   1.855 -2.5617  1.7960 -0.3037
  183SOL    HW2  549   1.860   0.908   1.778 -0.1965  0.7108 -1.9117
  184SOL     OW  550   0.134   1.730   1.169 -0.1935 -0.6467 -0.2615
  184SOL    HW1  551   0.145   1.639   1.126 -3.4735  0.6590  0.0558
  184SOL    HW2  552   0.046   1.774   1.143 -1.1086  1.7322 -0.4586
  185SOL     OW  553   2.933   0.088   0.969  0.2945 -0.7150 -0.2037
  185SOL    HW1  554   2.978   0.002   0.949  1.0959  1.7243  0.6366
  185SOL    HW2  555   2.962   0.114   1.057  1.5574  0.5578 -0.9271
  186SOL     OW  556   2.339   2.602   2.643 -0.0320 -0.0616  0.8412
  186SOL    HW1  557   2.317   2.605   2.742  0.2134 -4.1753 -2.0783
  186SOL    HW2  558   2.272   2.544   2.589  0.0617 -0.7151 -1.0666
  187SOL     OW  559   0.466   1.440   0.512  0.4629  0.5721 -0.3926
  187SOL    HW1  560   0.403   1.353   0.521 -1.9699 -2.6038  1.2207
  187SOL    HW2  561   0.496   1.470   0.603 -1.5168 -1.3469 -0.5109
  188SOL     OW  562   1.829   1.191   1.143  0.2021  0.1582  0.0414
  188SOL    HW1  563   1.930   1.210   1.143  4.2092  2.0687  2.4454
  188SOL    HW2  564   1.803   1.201   1.240 -1.3893  2.8642 -0.7742
  189SOL     OW  565   3.027   0.778   2.390 -0.1708 -0.2630 -0.2703
  189SOL    HW1  566   3.024   0.776   2.495  2.0831 -1.8606  0.1996
  189SOL    HW2  567   2.933   0.783   2.350 -0.7571 -1.1252 -0.3971
  190SOL     OW  568   2.186   0.473   2.121  0.1916 -0.2709 -0.3817
  190SOL    HW1  569   2.194   0.449   2.218 -0.3373  3.3271 -0.9048
  190SOL    HW2  570   2.084   0.485   2.094 -1.9232  0.3889 -1.7551
  191SOL     OW  571   0.834   0.182   2.264 -0.0952  0.0321  0.3740
  191SOL    HW1  572   0.788   0.220   2.349  1.3917 -3.0899  1.0935
  191SOL    HW2  573   0.888   0.097   2.282  0.6964 -1.9998 -1.2124
  192SOL     OW  574   1.074   2.021   1.667  0.0124 -0.1021  0.6422
  192SOL    HW1  575   1.149   1.998   1.600  1.4761  1.7053 -0.8019
  192SOL    HW2  576   0.992   2.055   1.616  2.2294  1.6426 -3.0300
  193SOL     OW  577   1.277   0.086   0.766 -0.0210  0.0880  0.0752
  193SOL    HW1  578   1.247   0.002   0.818 -0.3687  0.1921  1.1373
  193SOL    HW2  579   1.269   0.063   0.666 -0.0302 -1.7430 -2.5017
  194SOL     OW  580   0.835   2.099   1.567  0.1199 -0.7310 -0.1083
  194SOL    HW1  581   0.747   2.074   1.529 -1.3330  0.8009 -0.4131
  194SOL    HW2  582   0.839   2.200   1.578  0.0268  1.9385  0.1129
  195SOL     OW  583   1.489   0.483   0.688  0.3207 -0.3080  0.5912
  195SOL    HW1  584   1.524   0.456   0.780 -1.0352  0.4869  4.3215
  195SOL    HW2  585   1.461   0.582   0.691  0.6129  0.2313 -0.5300
  196SOL     OW  586   0.904   1.536   2.251 -0.0801  0.6441 -0.3882
  196SOL    HW1  587   0.963   1.610   2.284  1.0891 -3.2299  1.1660
  196SOL    HW2  588   0.905   1.457   2.315  0.3893  0.7716  0.5425
  197SOL     OW  589   0.494   0.590   1.856  0.2115 -0.0746 -0.3128
  197SOL    HW1  590   0.593   0.575   1.859 -1.2391  0.3700 -0.4185
  197SOL    HW2  591   0.461   0.597   1.762  0.7326 -0.1115  1.8397
  198SOL     OW  592   0.719   0.670   0.631  0.0327 -0.3770 -0.0818
  198SOL    HW1  593   0.752   0.702   0.537 -1.2889  1.6268  0.0426
  198SOL    HW2  594   0.730   0.567   0.633  0.5566  0.1136  1.0734
  199SOL     OW  595   0.231   2.405   1.821 -0.0574  0.1111 -0.2345
  199SOL    HW1  596   0.227   2.348   1.736 -0.9698  0.1974 -1.2165
  199SOL    HW2  597   0.143   2.462   1.832 -1.3518  1.8208  0.2725
  200SOL     OW  598   1.631   1.578   2.403  0.4539  0.1359 -0.3264
  200SOL    HW1  599   1.717   1.578   2.459 -0.0757 -1.3256  1.2440
  200SOL    HW2  600   1.581   1.498   2.435  1.9128 -0.7383  1.9014
  201SOL     OW  601   0.673   2.273   1.841 -0.0519  0.0491  0.2530
  201SOL    HW1  602   0.727   2.293   1.758  0.1306 -0.5482  2.5827
  201SOL    HW2  603   0.641   2.177   1.846 -1.7340  2.0533  3.5599
  202SOL     OW  604   1.309   2.833   2.944  0.7022  0.1799  0.4869
  202SOL    HW1  605   1.325   2.774   2.863  0.8700  0.6834 -1.1157
  202SOL    HW2  606   1.207   2.855   2.951  0.7945  2.3979  0.0255
  203SOL     OW  607   1.614   0.261   2.215 -0.4313  0.2925 -0.0757
  203SOL    HW1  608   1.624   0.218   2.121  0.1549  1.8299  1.4385
  203SOL    HW2  609   1.557   0.208   2.280  2.5810  2.6558 -0.7141
  204SOL     OW  610   0.341   1.410   2.193 -0.5277  0.3546  0.3433
  204SOL    HW1  611   0.434   1.406   2.237  1.0574  2.2923  1.1989
  204SOL    HW2  612   0.262   1.376   2.247 -0.3626  2.5906  2.0626
  205SOL     OW  613   2.049   1.045   2.702  0.0386 -0.2193 -0.2940
  205SOL    HW1  614   2.063   0.964   2.638 -2.3498 -1.3146  0.8871
  205SOL    HW2  615   2.134   1.102   2.716  1.9774  1.2406  0.7329
  206SOL     OW  616   0.142   1.770   2.737  0.2718  0.2213 -1.0222
  206SOL    HW1  617   0.148   1.873   2.735  1.5317  2.8594 -0.1365
  206SOL    HW2  618   0.203   1.731   2.818  2.8714 -0.8013  4.2163
  207SOL     OW  619   1.003   0.012   1.811 -0.0755 -0.4505 -0.1815
  207SOL    HW1  620   0.987   3.073   1.903  0.0342  1.8448 -0.1487
  207SOL    HW2  621   0.918   0.052   1.770  0.5508 -0.9038  2.6833
  208SOL     OW  622   0.779   2.409   1.339  0.0114 -0.1184  0.1961
  208SOL    HW1  623   0.684   2.426   1.368 -0.5655  1.4006  0.0601
  208SOL    HW2  624   0.783   2.366   1.246  1.1744  1.6506 -0.2677
  209SOL     OW  625   1.065   2.773   0.203  0.0767  0.0998  0.4426
  209SOL    HW1  626   1.101   2.782   0.299  1.3920  1.1980 -0.3527
  209SOL    HW2  627   1.086   2.864   0.156 -1.9910  1.9156 -2.0584
  210SOL     OW  628   2.970   1.634   1.306  0.8402  0.1163  0.1877
  210SOL    HW1  629   2.977   1.701   1.228 -1.2036 -0.2606 -1.0838
  210SOL    HW2  630   2.901   1.563   1.281  3.6144 -1.1022  2.8143
  211SOL     OW  631   0.852   0.648   2.093 -0.0552 -0.3492  0.0222
  211SOL    HW1  632   0.827   0.652   1.992 -0.9177  2.1681 -1.4611
  211SOL    HW2  633   0.950   0.664   2.110  0.4614  0.4143 -1.6320
  212SOL     OW  634   1.470   2.249   1.549  0.8752 -0.0740  0.3993
  212SOL    HW1  635   1.451   2.275   1.449  1.6706 -2.3599 -2.1474
  212SOL    HW2  636   1.494   2.155   1.557 -2.1465  2.3071  1.3790
  213SOL     OW  637   2.560   0.499   1.631 -0.4432  0.5026  0.4052
  213SOL    HW1  638   2.557   0.562   1.553 -0.5248  1.0784  2.5507
  213SOL    HW2  639   2.507   0.413   1.617 -0.9988 -1.4506  0.1772
  214SOL     OW  640   1.089   2.413   1.953 -0.7733  0.2795 -0.5080
  214SOL    HW1  641   1.112   2.312   1.955  0.8950 -0.9635 -0.2105
  214SOL    HW2  642   1.146   2.463   2.021  1.6850  0.8687  0.5218
  215SOL     OW  643   2.812   2.024   1.398  0.2365  0.4875 -0.1689
  215SOL    HW1  644   2.711   2.022   1.403  1.6020  2.0894  0.5404
  215SOL    HW2  645   2.851   2.026   1.490 -0.5575 -1.3974  0.3032
  216SOL     OW  646   3.088   0.721   1.641 -0.3962 -0.3943  0.3116
  216SOL    HW1  647   3.005   0.691   1.693 -0.8622 -0.1080 -2.7453
  216SOL    HW2  648   0.073   0.666   1.668 -1.5456  1.0799 -1.2846
  217SOL     OW  649   2.727   0.289   1.358 -0.3519 -0.2080  0.6359
  217SOL    HW1  650   2.794   0.299   1.434  0.8603 -1.4704  0.4863
  217SOL    HW2  651   2.765   0.337   1.275 -0.7973  0.6368 -0.1137
  218SOL     OW  652   1.352   2.092   1.099  0.0127 -0.1801 -0.6261
  218SOL    HW1  653   1.335   2.170   1.038 -0.1602 -1.0381  1.9720
  218SOL    HW2  654   1.280   2.078   1.165  0.4456 -3.2759 -0.1058
  219SOL     OW  655   1.387   2.338   0.229  0.0058 -0.4343  0.4012
  219SOL    HW1  656   1.382   2.424   0.286 -0.6728  1.2949  1.4050
  219SOL    HW2  657   1.442   2.265   0.272 -0.8513 -1.9273 -2.0096
  220SOL     OW  658   1.736   2.371   0.421 -0.0447  0.0711  0.0304
  220SOL    HW1  659   1.757   2.270   0.428  0.5060 -2.8733  0.2217
  220SOL    HW2  660   1.727   2.405   0.324  2.7383  2.6414  1.4028
  221SOL     OW  661   2.939   1.874   0.857 -0.0837  0.2543  0.5622
  221SOL    HW1  662   2.847   1.881   0.816 -0.6975 -2.1625  0.2313
  221SOL    HW2  663   2.992   1.794   0.815  2.0758 -3.2287 -1.6803
  222SOL     OW  664   0.934   2.069   0.776  0.0337  0.6416  0.5769
  222SOL    HW1  665   0.930   1.999   0.850  1.4899  0.4708  2.5939
  222SOL    HW2  666   0.998   2.035   0.698  0.7088 -1.1993 -2.7792
  223SOL     OW  667   1.183   2.749   2.344  0.0346  0.1090  0.1521
  223SOL    HW1  668   1.286   2.735   2.324  4.3422 -0.6045 -1.5265
  223SOL    HW2  669   1.133   2.783   2.263  0.0371  1.8306 -2.2872
  224SOL     OW  670   2.588   1.031   0.972 -0.1583 -0.1081  0.1846
  224SOL    HW1  671   2.521   1.051   0.898 -1.2831  0.7225  0.4486
  224SOL    HW2  672   2.621   0.936   0.963 -2.0354 -1.8409 -0.5804
  225SOL     OW  673   2.475   1.376   1.076  0.4852  0.3089  0.6591
  225SOL    HW1  674   2.417   1.462   1.072 -1.6827  2.3465 -0.5158
  225SOL    HW2  675   2.542   1.366   0.995 -2.0681 -0.8692 -0.7112
  226SOL     OW  676   1.240   2.656   0.733  0.1402  0.2936 -0.3631
  226SOL    HW1  677   1.152   2.614   0.694 -0.4933 -0.2238 -1.8690
  226SOL    HW2  678   1.318   2.605   0.693 -0.4959  2.1914  1.2861
  227SOL     OW  679   1.040   1.255   1.182  0.3548 -0.3190 -0.3750
  227SOL    HW1  680   1.031   1.179   1.250 -0.7157  0.6860  3.5569
  227SOL    HW2  681   1.065   1.218   1.092  0.9824  0.0706  0.0285
  228SOL     OW  682   1.299   0.492   2.245  0.3377  0.1716 -0.3710
  228SOL    HW1  683   1.401   0.484   2.251  1.3050  1.8482  0.1729
  228SOL    HW2  684   1.262   0.417   2.189 -1.1088  2.1322 -0.5283
  229SOL     OW  685   2.668   0.946   2.782 -0.0737  0.2609 -0.4831
  229SOL    HW1  686   2.719   0.913   2.867  0.4353 -3.2988  0.3173
  229SOL    HW2  687   2.569   0.957   2.805  2.7714  0.5973  2.0448
  230SOL     OW  688   0.693   1.300   0.705  0.2295  0.2007  0.0214
  230SOL    HW1  689   0.734   1.275   0.792 -0.9790  0.6263 -2.2273
  230SOL    HW2  690   0.622   1.377   0.719 -0.2805  1.8895 -0.2514
  231SOL     OW  691   2.432   3.036   2.537 -0.1644  0.5912 -0.3728
  231SOL    HW1  692   2.524   3.041   2.496 -0.6119  0.2052  3.7099
  231SOL    HW2  693   2.378   0.016   2.508  0.2852 -2.2785  1.7477
  232SOL     OW  694   0.250   2.036   0.144 -0.1577  0.0630 -0.0947
  232SOL    HW1  695   0.304   2.041   0.057 -0.8815 -1.6959 -1.9421
  232SOL    HW2  696   0.220   1.941   0.160 -1.3919  1.2547  2.9515
  233SOL     OW  697   1.545   2.509   2.450 -0.1336  0.2697 -0.2688
  233SOL    HW1  698   1.617   2.495   2.377  0.5022 -2.3957 -0.7196
  233SOL    HW2  699   1.549   2.433   2.517  1.0351 -1.5778  3.7129
  234SOL     OW  700   1.004   1.409   2.010 -0.4726 -0.2419 -0.4610
  234SOL    HW1  701   1.077   1.441   2.076  0.6304 -0.8106  2.9131
  234SOL    HW2  702   0.930   1.371   2.072  1.8121  0.1617  2.6110
  235SOL     OW  703   0.592   2.015   1.829 -0.1205 -0.5135  0.6803
  235SOL    HW1  704   0.533   1.988   1.905  0.2806 -1.1398  0.2532
  235SOL    HW2  705   0.529   2.016   1.750  1.6507 -0.3540  0.3154
  236SOL     OW  706   1.892   2.431   2.888 -0.2683  0.4019  0.2827
  236SOL    HW1  707   1.819   2.384   2.830 -0.7860 -0.8186 -4.5923
  236SOL    HW2  708   1.979   2.377   2.882  0.4826  0.0330  1.9494
  237SOL     OW  709   1.572   0.075   1.048  0.2442  0.2015  0.1143
  237SOL    HW1  710   1.495   0.133   1.086  0.2945 -0.5338 -1.6105
  237SOL    HW2  711   1.565   0.077   0.948  0.5120 -1.0065 -0.9822
  238SOL     OW  712   1.126   0.511   2.770  0.7132  0.5506  0.3353
  238SOL    HW1  713   1.186   0.576   2.718 -0.9389 -0.5260  0.4367
  238SOL    HW2  714   1.139   0.421   2.717 -1.6287  0.0814  0.8434
  239SOL     OW  715   0.711   0.109   1.959 -0.3262  0.1262 -0.1885
  239SOL    HW1  716   0.713   0.127   1.857  1.6909  0.4133  0.2804
  239SOL    HW2  717   0.724   0.195   2.012 -3.2664  1.4868  2.7832
  240SOL     OW  718   2.282   2.536   0.659  0.0014  0.3330  0.1094
  240SOL    HW1  719   2.186   2.544   0.692 -2.1730  1.0649  0.5903
  240SOL    HW2  720   2.297   2.578   0.566  4.1226 -2.7872 -0.3203
  241SOL     OW  721   1.026   1.515   1.680  0.2270 -0.3927  0.6733
  241SOL    HW1  722   0.927   1.496   1.668 -0.5653 -0.1325  0.1020
  241SOL    HW2  723   1.056   1.456   1.757  1.8748 -0.8222  0.4173
  242SOL     OW  724   0.041   0.449   0.819  0.2455 -0.2621  0.3963
  242SOL    HW1  725   0.049   0.550   0.826 -0.8125  0.0995  0.5477
  242SOL    HW2  726   3.042   0.415   0.802 -2.0990 -0.0483  0.6908
  243SOL     OW  727   0.719   0.795   1.353  0.9977  0.2751 -0.2191
  243SOL    HW1  728   0.720   0.881   1.299 -0.5322  1.1447  0.4495
  243SOL    HW2  729   0.633   0.793   1.408  0.3233  1.7591  1.4040
  244SOL     OW  730   1.414   0.578   0.090  0.5853 -0.1329  0.4798
  244SOL    HW1  731   1.311   0.571   0.083  0.7435  2.4425 -0.2277
  244SOL    HW2  732   1.460   0.542   0.007 -2.7639  0.2635  1.7696
  245SOL     OW  733   2.214   0.405   0.143  0.3679  0.6070  0.6248
  245SOL    HW1  734   2.222   0.304   0.132 -0.3093  1.2504  0.8747
  245SOL    HW2  735   2.295   0.442   0.194  0.9221 -0.8365  0.8322
  246SOL     OW  736   0.754   0.688   1.846 -0.4147  0.6192  0.4708
  246SOL    HW1  737   0.698   0.769   1.865 -0.0788  0.1557  0.2852
  246SOL    HW2  738   0.817   0.702   1.766 -1.1628 -0.5205 -0.4416
  247SOL     OW  739   0.538   0.022   2.164 -0.3834  0.2381 -0.2464
  247SOL    HW1  740   0.481   0.104   2.179  0.4237 -0.5415  0.5769
  247SOL    HW2  741   0.621   0.031   2.099  2.1722  1.9075 -0.6295
  248SOL     OW  742   3.083   1.597   2.009  0.0011 -0.4761 -0.0271
  248SOL    HW1  743   3.067   1.651   1.924 -0.6351 -0.5314  0.3310
  248SOL    HW2  744   3.097   1.653   2.095  2.3701  0.0296  0.8236
  249SOL     OW  745   0.236   2.958   2.865 -0.3593  0.0390  0.1438
  249SOL    HW1  746   0.309   3.022   2.899  0.0726  0.8724  1.3794
  249SOL    HW2  747   0.243   2.922   2.766 -1.5095 -0.3651 -0.1748
  250SOL     OW  748   3.038   0.166   0.056  0.0791  0.7529 -0.4950
  250SOL    HW1  749   3.084   0.119   0.137  0.3937  0.4759  1.4612
  250SOL    HW2  750   3.041   0.091   3.083  0.6369 -1.2653 -0.2887
  251SOL     OW  751   0.498   1.376   1.032  0.8323 -0.6368 -0.4250
  251SOL    HW1  752   0.504   1.425   0.945 -1.7961 -1.8143  2.6352
  251SOL    HW2  753   0.474   1.448   1.105  0.0657  0.9526 -0.0179
  252SOL     OW  754   1.710   2.866   1.783 -0.6272  0.3141  0.3817
  252SOL    HW1  755   1.779   2.887   1.708  1.6192  1.8358  0.6989
  252SOL    HW2  756   1.760   2.864   1.873 -0.6670 -0.2812 -1.1103
  253SOL     OW  757   2.105   1.926   2.654  0.3527  0.5639 -0.3750
  253SOL    HW1  758   2.156   2.011   2.679 -1.9205  2.6053  1.2512
  253SOL    HW2  759   2.044   1.942   2.574 -1.4818 -1.1278  1.2827
  254SOL     OW  760   0.405   1.531   1.970 -0.0753 -0.0258  0.1256
  254SOL    HW1  761   0.502   1.540   1.998 -2.4750 -0.8819  1.8738
  254SOL    HW2  762   0.352   1.494   2.053 -1.0405 -0.4579  2.6320
  255SOL     OW  763   1.138   0.294   1.577  0.1273  0.0415  0.1067
  255SOL    HW1  764   1.211   0.284   1.650  0.5783  0.4603  1.3450
  255SOL    HW2  765   1.066   0.350   1.617  4.0606  0.5987 -1.2924
  256SOL     OW  766   2.479   2.246   1.161 -0.0073 -0.0300  0.2199
  256SOL    HW1  767   2.464   2.144   1.161 -1.7972  0.4432  1.2855
  256SOL    HW2  768   2.444   2.290   1.077 -0.0389 -2.6766 -1.5715
  257SOL     OW  769   0.445   2.313   0.013  0.1179  0.0490  0.5638
  257SOL    HW1  770   0.411   2.374   3.037  1.4777 -0.3531  3.5760
  257SOL    HW2  771   0.453   2.366   0.103 -1.9825  2.0483  1.4285
  258SOL     OW  772   1.163   2.488   2.446 -0.0119  0.0645  0.3404
  258SOL    HW1  773   1.066   2.476   2.467 -2.7410 -0.4048 -0.2829
  258SOL    HW2  774   1.178   2.577   2.396  0.8153  1.4077 -1.0551
  259SOL     OW  775   0.978   1.783   2.834 -0.4689  0.0986  0.0463
  259SOL    HW1  776   0.995   1.882   2.841  1.8945 -0.1343 -1.8942
  259SOL    HW2  777   0.884   1.760   2.871 -1.6245 -1.1262  0.9666
  260SOL     OW  778   2.486   1.102   2.235  0.5439 -0.1195 -0.2524
  260SOL    HW1  779   2.384   1.100   2.254  1.9559 -1.7931 -1.0168
  260SOL    HW2  780   2.539   1.158   2.297 -0.3517 -1.5552 -4.0757
  261SOL     OW  781   1.415   0.736   0.653  0.4887 -0.4211  0.0543
  261SOL    HW1  782   1.322   0.740   0.691  2.8373  1.4720  1.2265
  261SOL    HW2  783   1.420   0.792   0.567 -0.6863  0.8393  1.6263
  262SOL     OW  784   2.003   2.411   2.372  0.1260 -0.0969  0.1098
  262SOL    HW1  785   1.949   2.321   2.362 -0.5074  0.6407  0.4911
  262SOL    HW2  786   1.974   2.483   2.306 -1.5003  2.0687 -1.3048
  263SOL     OW  787   0.254   1.749   0.165 -0.1892  0.2708 -0.0851
  263SOL    HW1  788   0.172   1.690   0.179  2.9248  0.4565  1.7517
  263SOL    HW2  789   0.338   1.705   0.203  1.2498  1.0991 -0.0763
  264SOL     OW  790   0.372   1.946   0.845  0.0969 -0.0401 -0.7718
  264SOL    HW1  791   0.308   1.900   0.782 -2.4543 -0.2220 -0.6670
  264SOL    HW2  792   0.352   1.916   0.945  0.4887 -0.1742  0.9354
  265SOL     OW  793   0.685   1.426   0.332  0.4093  0.0416  0.2193
  265SOL    HW1  794   0.602   1.423   0.388 -1.0697 -0.4655 -1.3339
  265SOL    HW2  795   0.765   1.452   0.392 -0.4521  2.7380  1.9473
  266SOL     OW  796   0.905   2.032   2.444 -0.0941  0.2078 -0.1609
  266SOL    HW1  797   0.897   2.104   2.518  0.4111 -0.5096  0.7860
  266SOL    HW2  798   0.902   2.072   2.350  1.9260 -1.0213  1.8499
  267SOL     OW  799   1.045   0.687   2.458 -0.7662 -0.2652  0.0764
  267SOL    HW1  800   0.981   0.632   2.402 -2.9945  1.8836 -0.4348
  267SOL    HW2  801   1.053   0.780   2.421 -1.4733 -1.8126  2.7944
  268SOL     OW  802   0.399   0.709   2.705  0.2786  0.3370 -0.0921
  268SOL    HW1  803   0.482   0.732   2.651 -0.2924 -2.2307  2.0791
  268SOL    HW2  804   0.415   0.748   2.799  0.5104  1.5714  0.0494
  269SOL     OW  805   2.289   2.821   2.457  0.2454 -0.1104 -0.0263
  269SOL    HW1  806   2.331   2.905   2.488 -0.9734  0.6108 -3.5390
  269SOL    HW2  807   2.302   2.745   2.522 -0.1786 -0.1286 -0.4879
  270SOL     OW  808   1.173   1.690   2.352  0.8397 -0.1281  0.0971
  270SOL    HW1  809   1.175   1.787   2.334 -0.3401  0.4261 -1.2368
  270SOL    HW2  810   1.140   1.666   2.442  0.5399  2.2750  0.3415
  271SOL     OW  811   0.435   0.029   2.921 -0.7605 -0.2882  0.0324
  271SOL    HW1  812   0.511   3.065   2.952 -3.0113  2.1863 -0.1710
  271SOL    HW2  813   0.416   0.092   2.996 -0.4523  0.1924 -2.5004
  272SOL     OW  814   2.681   0.661   0.456  0.3877  0.3012 -0.3131
  272SOL    HW1  815   2.623   0.624   0.532 -1.4273  0.0810  0.8984
  272SOL    HW2  816   2.635   0.741   0.415 -2.5737 -0.0282 -2.1697
  273SOL     OW  817   0.242   0.037   1.960 -0.1441  0.3627 -0.4316
  273SOL    HW1  818   0.257   0.010   2.059 -3.1141  0.4713  1.1200
  273SOL    HW2  819   0.225   3.051   1.902 -1.8157  0.4469  0.3237
  274SOL     OW  820   0.054   0.641   1.974 -0.7365  0.4102 -0.1412
  274SOL    HW1  821   0.062   0.741   1.968  0.3749  0.1348  1.4886
  274SOL    HW2  822   0.095   0.588   1.893 -2.1742 -2.8526 -1.7304
  275SOL     OW  823   1.261   1.990   0.641  0.3923 -0.5307 -0.6676
  275SOL    HW1  824   1.247   1.937   0.729 -0.8626 -2.8198 -0.0462
  275SOL    HW2  825   1.300   1.938   0.563  0.6636  0.8778  2.2224
  276SOL     OW  826   0.835   1.022   2.243 -0.4185 -0.0536 -0.4173
  276SOL    HW1  827   0.775   0.938   2.220 -0.8676  2.3024  2.1635
  276SOL    HW2  828   0.833   1.043   2.344 -0.3916  0.4587  0.6384
  277SOL     OW  829   1.366   2.546   1.757  0.0691  0.0332  0.0181
  277SOL    HW1  830   1.295   2.537   1.687  2.0423  0.9023  3.3719
  277SOL    HW2  831   1.329   2.512   1.847 -0.0551 -0.0439 -0.1841
  278SOL     OW  832   1.853   2.912   2.030 -0.0099 -0.1732 -0.2001
  278SOL    HW1  833   1.818   2.889   2.126 -1.4236  0.7537  3.1251
  278SOL    HW2  834   1.861   3.011   2.009  1.2023  0.2573 -0.6210
  279SOL     OW  835   1.431   1.378   0.154  0.0470  0.0928 -0.5026
  279SOL    HW1  836   1.445   1.400   0.057 -2.2163 -0.1428  1.2445
  279SOL    HW2  837   1.496   1.312   0.185 -1.1699  0.0395 -1.5695
  280SOL     OW  838   0.675   1.473   0.063 -0.2304 -0.5227 -0.0166
  280SOL    HW1  839   0.735   1.398   0.031 -1.7222  2.4876  0.9978
  280SOL    HW2  840   0.665   1.484   0.165 -0.0541  0.0247 -1.6404
  281SOL     OW  841   0.548   2.968   1.605  0.4059  0.2276  0.1436
  281SOL    HW1  842   0.560   2.893   1.673 -0.9953 -1.9935  1.7913
  281SOL    HW2  843   0.503   3.050   1.645 -0.1565 -1.2638 -0.8459
  282SOL     OW  844   0.206   2.310   0.614 -0.7058 -0.5804  0.6776
  282SOL    HW1  845   0.222   2.411   0.633 -0.5930  0.9007  0.6809
  282SOL    HW2  846   0.214   2.289   0.514 -1.2692 -2.6019 -0.5695
  283SOL     OW  847   1.878   2.197   2.291  0.9499 -0.1762 -0.1575
  283SOL    HW1  848   1.826   2.157   2.209 -0.4972 -0.7751 -0.0031
  283SOL    HW2  849   1.902   2.119   2.346 -1.1058  1.1889  0.2678
  284SOL     OW  850   2.013   2.919   0.743  1.4253  0.1004 -0.7308
  284SOL    HW1  851   1.966   3.007   0.770  0.7047  0.3539  1.9276
  284SOL    HW2  852   1.950   2.847   0.788 -0.7612  1.5321 -1.4446
  285SOL     OW  853   0.312   2.358   2.301 -0.2993 -0.4766  0.0848
  285SOL    HW1  854   0.402   2.349   2.340 -2.9188  0.4798  1.1241
  285SOL    HW2  855   0.247   2.290   2.340 -1.3362 -0.7136  1.7484
  286SOL     OW  856   2.949   2.529   1.073 -0.4415  0.5518  0.5341
  286SOL    HW1  857   2.902   2.619   1.075 -0.6104 -0.4084 -2.6499
  286SOL    HW2  858   2.914   2.473   0.995  0.9920 -0.4002 -0.1531
  287SOL     OW  859   0.555   1.523   0.798  0.3864 -0.3793 -0.0916
  287SOL    HW1  860   0.471   1.585   0.798 -0.2538  0.7332  1.0397
  287SOL    HW2  861   0.615   1.558   0.874  1.1889 -0.0926 -0.0755
  288SOL     OW  862   2.255   2.180   2.709  0.0857  0.6289  0.0225
  288SOL    HW1  863   2.353   2.159   2.720  0.3366  0.9229  0.1220
  288SOL    HW2  864   2.236   2.214   2.616  1.1085 -1.2859 -0.8078
  289SOL     OW  865   3.013   2.053   2.887 -1.1230 -0.0651 -0.6411
  289SOL    HW1  866   2.937   1.989   2.903  3.1155 -0.9368  2.1256
  289SOL    HW2  867   2.985   2.147   2.917  0.5233 -1.9888  0.2655
  290SOL     OW  868   1.449   1.849   1.187  0.3718  0.0764 -0.2472
  290SOL    HW1  869   1.411   1.769   1.141 -0.5434  1.3678  0.5035
  290SOL    HW2  870   1.419   1.932   1.138  0.0360 -2.5289  2.7402
  291SOL     OW  871   1.434   1.166   2.874 -0.2171  0.3124 -0.3050
  291SOL    HW1  872   1.384   1.155   2.787 -1.0693  2.4583 -2.5462
  291SOL    HW2  873   1.404   1.092   2.942  0.4296 -0.3086  1.2525
  292SOL     OW  874   1.076   1.666   0.404  0.1748  0.6733 -0.7128
  292SOL    HW1  875   1.127   1.647   0.490  0.7524 -0.5571  0.9837
  292SOL    HW2  876   1.069   1.583   0.343  1.0979  1.0469  2.6031
  293SOL     OW  877   1.229   2.585   1.020  0.2520 -0.8696 -0.2557
  293SOL    HW1  878   1.244   2.677   1.066  1.3182 -1.8282 -1.0309
  293SOL    HW2  879   1.171   2.601   0.938  1.3393  0.6173 -1.1371
  294SOL     OW  880   2.046   1.316   2.949  0.3658  0.6094  0.2126
  294SOL    HW1  881   2.002   1.256   3.015  0.0174  1.5516 -0.2898
  294SOL    HW2  882   2.146   1.337   2.973 -0.6100  0.2643  1.2886
  295SOL     OW  883   1.660   1.865   2.981 -0.1605 -0.9264  0.2999
  295SOL    HW1  884   1.737   1.820   3.035  2.5204 -0.0520  0.6107
  295SOL    HW2  885   1.692   1.963   2.968  3.9316 -0.0441  2.8922
  296SOL     OW  886   1.822   0.601   1.913  0.0340  0.7856  0.1474
  296SOL    HW1  887   1.847   0.693   1.876 -2.0007  0.8491 -1.5724
  296SOL    HW2  888   1.869   0.585   2.001 -1.6529  0.7208 -2.9345
  297SOL     OW  889   3.093   0.917   1.962 -0.4345  0.5589 -0.6305
  297SOL    HW1  890   2.993   0.935   1.957 -1.3480  1.4809 -0.9841
  297SOL    HW2  891   0.053   1.000   1.982 -0.9586  2.5089 -1.5683
  298SOL     OW  892   1.136   2.147   2.020  0.0493  0.0808  0.7239
  298SOL    HW1  893   1.132   2.055   1.975  1.1639 -1.3006 -1.2435
  298SOL    HW2  894   1.195   2.148   2.106 -1.0601 -0.1649  3.2717
  299SOL     OW  895   1.296   0.085   2.741 -1.2906  0.2263  0.6958
  299SOL    HW1  896   1.390   0.113   2.705  0.3326 -2.5477 -0.3982
  299SOL    HW2  897   1.240   0.033   2.677 -1.5492 -2.3789 -1.3574
  300SOL     OW  898   0.086   1.002   2.827 -0.0260  0.1123  0.8659
  300SOL    HW1  899   0.148   0.962   2.899 -1.7071 -2.3157  1.2699
  300SOL    HW2  900   0.110   1.105   2.806 -2.0741  2.7440 -0.0454
  301SOL     OW  901   1.805   0.946   2.108 -0.1920 -0.3530 -0.3889
  301SOL    HW1  902   1.824   0.931   2.009  2.2498  0.9988  4.2672
  301SOL    HW2  903   1.709   0.964   2.136 -0.0770 -0.0912  2.9294
  302SOL     OW  904   2.419   1.596   2.786  0.0448  0.1389 -0.8454
  302SOL    HW1  905   2.452   1.570   2.691  2.1895  1.0498 -0.9327
  302SOL    HW2  906   2.338   1.665   2.774  0.0667  3.4128  2.1220
  303SOL     OW  907   0.276   2.231   2.660 -0.4252  0.1541 -0.5360
  303SOL    HW1  908   0.289   2.330   2.680  0.3649 -0.4849 -0.5985
  303SOL    HW2  909   0.348   2.201   2.596  0.3385  0.3981 -2.0718
  304SOL     OW  910   2.992   0.884   1.233 -0.1463 -1.1305 -0.3130
  304SOL    HW1  911   3.047   0.929   1.159  1.9818  1.3667  1.3722
  304SOL    HW2  912   3.031   0.811   1.287 -1.6092  1.2142 -4.8176
  305SOL     OW  913   2.618   0.899   1.855  0.4961  0.3345 -0.2310
  305SOL    HW1  914   2.683   0.837   1.810  0.2708  0.3697 -2.6654
  305SOL    HW2  915   2.584   0.973   1.792  0.2311 -0.4634 -1.8248
  306SOL     OW  916   2.551   1.104   1.707  0.0017 -0.5528 -0.3538
  306SOL    HW1  917   2.490   1.128   1.789 -1.3082  0.5451  1.4470
  306SOL    HW2  918   2.621   1.176   1.690 -0.0934  0.9889 -1.3611
  307SOL     OW  919   2.853   2.861   0.780  0.4743 -0.1840  0.0819
  307SOL    HW1  920   2.778   2.862   0.850  2.4824 -2.2973  2.2007
  307SOL    HW2  921   2.938   2.879   0.833  0.6370 -2.1303 -1.8921
  308SOL     OW  922   0.103   1.902   1.893  0.6097 -0.7339 -0.0425
  308SOL    HW1  923   0.152   1.851   1.968  1.8854  1.0366  1.6143
  308SOL    HW2  924   0.063   1.834   1.824  1.0086  1.6282 -2.2676
  309SOL     OW  925   2.528   2.296   1.537 -0.0837 -0.2748  0.2913
  309SOL    HW1  926   2.566   2.304   1.631 -1.0232  2.2875 -3.6353
  309SOL    HW2  927   2.425   2.306   1.542 -2.5958  2.2530  1.2771
  310SOL     OW  928   1.918   1.552   2.876  0.0367 -0.4749  0.4258
  310SOL    HW1  929   1.817   1.552   2.863  0.9159  1.3141 -2.0155
  310SOL    HW2  930   1.962   1.459   2.890  0.6591  1.3814 -2.1973
  311SOL     OW  931   1.722   1.182   2.949  0.3740  0.5217  0.2379
  311SOL    HW1  932   1.618   1.158   2.943 -1.9505 -1.5468  0.4427
  311SOL    HW2  933   1.770   1.138   2.872 -2.0829  0.9630  0.6767
  312SOL     OW  934   1.325   2.390   2.234 -0.0938  0.1613 -0.0170
  312SOL    HW1  935   1.370   2.301   2.252 -2.7650  1.8545  0.2460
  312SOL    HW2  936   1.278   2.432   2.315 -0.0895  2.2437  1.8080
  313SOL     OW  937   0.080   0.325   1.053 -0.2435 -0.2235 -0.3088
  313SOL    HW1  938   0.069   0.366   0.961  0.3930  2.3606  0.1463
  313SOL    HW2  939   0.086   0.224   1.047  0.9210 -0.2783  0.5789
  314SOL     OW  940   0.337   1.912   1.146 -0.2450  0.8323 -0.3205
  314SOL    HW1  941   0.280   1.994   1.147 -0.5070 -3.1337  0.4381
  314SOL    HW2  942   0.273   1.831   1.152  0.0374 -1.0979  1.6926
  315SOL     OW  943   0.394   1.968   2.008  0.4082 -0.1195 -0.4395
  315SOL    HW1  944   0.337   2.052   2.016 -0.8581 -1.3835 -1.5278
  315SOL    HW2  945   0.336   1.880   2.001 -1.4803  1.8258 -2.0249
  316SOL     OW  946   0.336   2.234   0.848 -0.4755  0.3029  0.4669
  316SOL    HW1  947   0.369   2.137   0.839  2.4635 -1.5327  0.4523
  316SOL    HW2  948   0.290   2.264   0.763  0.5284 -1.1779 -0.7717
  317SOL     OW  949   1.825   0.185   1.069  0.1155  0.2448  0.2456
  317SOL    HW1  950   1.729   0.146   1.073 -0.3851  0.3412  2.5583
  317SOL    HW2  951   1.810   0.286   1.072 -0.8761  1.9786 -0.2915
  318SOL     OW  952   2.221   2.211   0.213 -0.4465  0.1140  0.6797
  318SOL    HW1  953   2.191   2.158   0.131  3.9622 -0.8691  3.0438
  318SOL    HW2  954   2.315   2.235   0.195 -4.4410  0.5300  1.8211
  319SOL     OW  955   1.137   1.652   3.097 -0.1704  0.0879 -0.1202
  319SOL    HW1  956   1.130   1.750   3.096  3.2922 -3.2214  0.5363
  319SOL    HW2  957   1.226   1.627   3.060  0.2527  1.6250 -0.9315
  320SOL     OW  958   0.335   2.720   2.317 -0.3396 -0.2993 -0.1469
  320SOL    HW1  959   0.378   2.688   2.233 -3.0388 -0.0107 -0.8238
  320SOL    HW2  960   0.245   2.672   2.319 -0.8229 -1.5641  0.6512
  321SOL     OW  961   1.125   2.809   2.591 -0.1200 -0.3561 -0.1860
  321SOL    HW1  962   1.204   2.786   2.651 -0.1908  2.5872  1.0531
  321SOL    HW2  963   1.138   2.781   2.495  0.5135 -0.2150  2.7745
  322SOL     OW  964   2.560   0.451   2.261  0.2918 -0.4076 -0.5204
  322SOL    HW1  965   2.570   0.371   2.324  1.3178 -5.7169 -0.0204
  322SOL    HW2  966   2.639   0.517   2.266 -0.3642 -1.0146  0.7387
  323SOL     OW  967   2.984   1.057   0.694 -0.1702 -0.0990 -0.1420
  323SOL    HW1  968   2.926   0.987   0.653  0.8781  4.2063 -0.7323
  323SOL    HW2  969   3.081   1.038   0.675 -1.1656  0.3949  1.6499
  324SOL     OW  970   0.331   0.880   1.752 -0.6139 -0.0597 -0.0018
  324SOL    HW1  971   0.255   0.919   1.692  0.2740  1.4479  0.4356
  324SOL    HW2  972   0.303   0.835   1.839  1.4600 -0.7867  2.5482
  325SOL     OW  973   0.317   0.228   2.240  0.2824  0.1226 -0.3780
  325SOL    HW1  974   0.366   0.305   2.191  1.7461 -1.3451  0.6932
  325SOL    HW2  975   0.217   0.247   2.251  0.0789 -0.4202  1.4281
  326SOL     OW  976   2.127   2.468   0.218 -0.0165 -0.1942 -0.0865
  326SOL    HW1  977   2.076   2.491   0.129 -1.5184  0.3054  0.6084
  326SOL    HW2  978   2.139   2.365   0.231 -0.8810 -1.4136  1.3658
  327SOL     OW  979   2.296   1.401   0.790 -0.3349  0.0116 -0.3129
  327SOL    HW1  980   2.398   1.404   0.788 -0.0098  3.6781  0.1702
  327SOL    HW2  981   2.257   1.306   0.778 -0.0446 -1.1623  1.2178
  328SOL     OW  982   3.087   1.713   2.249  0.0156  0.3536 -0.2936
  328SOL    HW1  983   2.987   1.698   2.261  0.6094 -1.1718 -2.6087
  328SOL    HW2  984   0.014   1.809   2.276  0.5778 -0.7135  0.7129
  329SOL     OW  985   0.422   1.931   1.453  0.3500 -0.0453 -0.0092
  329SOL    HW1  986   0.342   1.907   1.394 -0.8710 -1.5922  1.6744
  329SOL    HW2  987   0.390   1.976   1.539  0.9471 -0.7454  0.7801
  330SOL     OW  988   2.218   1.448   2.616 -0.3848 -0.6391  0.1412
  330SOL    HW1  989   2.218   1.523   2.689 -0.2452  1.2651  3.3988
  330SOL    HW2  990   2.296   1.465   2.551 -0.2374  2.3832  0.4389
  331SOL     OW  991   2.581   2.639   0.746 -0.3579 -0.0317 -0.1135
  331SOL    HW1  992   2.498   2.586   0.716  1.5066 -2.6821 -0.6775
  331SOL    HW2  993   2.610   2.718   0.687  2.5768  1.2976 -0.3747
  332SOL     OW  994   0.483   2.961   0.792 -0.1363 -0.3233  0.2539
  332SOL    HW1  995   0.390   2.959   0.836 -1.1771  2.3988 -1.2562
  332SOL    HW2  996   0.535   2.875   0.791  1.2952 -0.0211 -0.7191
  333SOL     OW  997   2.205   2.285   2.481 -0.2458  0.0121  0.3404
  333SOL    HW1  998   2.290   2.314   2.432 -1.7850 -2.1043  3.2472
  333SOL    HW2  999   2.120   2.339   2.451 -2.3161  4.0377  1.9836
  334SOL     OW 1000   0.782   1.176   0.338 -0.1111  0.2358  0.3752
  334SOL    HW1 1001   0.748   1.137   0.426 -0.7711  1.0135 -0.9904
  334SOL    HW2 1002   0.758   1.277   0.341 -0.0144  2.5047  0.4510
  335SOL     OW 1003   2.791   1.910   1.969  0.4289 -0.0595 -0.1563
  335SOL    HW1 1004   2.702   1.929   2.010 -0.6365 -1.2472  1.1377
  335SOL    HW2 1005   2.788   1.830   1.903  0.4695  0.3552 -0.2907
  336SOL     OW 1006   2.608   2.660   2.194  0.0307  0.2305 -0.2562
  336SOL    HW1 1007   2.508   2.659   2.189  0.3872  1.8496  1.3750
  336SOL    HW2 1008   2.635   2.670   2.294  1.2434 -0.3333 -1.2191
  337SOL     OW 1009   0.985   1.100   0.948 -0.0943 -0.1674 -0.2206
  337SOL    HW1 1010   1.021   1.124   0.855 -1.8899  0.1092 -1.5723
  337SOL    HW2 1011   0.912   1.169   0.980 -0.5891  2.8182  0.9228
  338SOL     OW 1012   1.078   1.665   1.145 -0.4634  0.7136 -1.3496
  338SOL    HW1 1013   1.154   1.615   1.100  3.4371 -0.9558 -0.8040
  338SOL    HW2 1014   1.010   1.596   1.175 -0.7385 -1.3671  0.7549
  339SOL     OW 1015   0.258   1.504   1.440 -0.3220  0.4617  0.0102
  339SOL    HW1 1016   0.280   1.496   1.541  0.8170  0.2974  0.5569
  339SOL    HW2 1017   0.205   1.423   1.397 -1.4073  0.5798 -3.4360
  340SOL     OW 1018   1.171   2.954   1.677  0.0693 -0.1058  0.2601
  340SOL    HW1 1019   1.215   3.009   1.600 -1.9130  0.4529 -1.6645
  340SOL    HW2 1020   1.098   3.015   1.711 -0.1928  0.2055 -1.7966
  341SOL     OW 1021   1.648   1.594   0.910 -0.1974 -0.1641 -0.1281
  341SOL    HW1 1022   1.588   1.514   0.888  2.0196  1.1630 -0.2374
  341SOL    HW2 1023   1.674   1.593   1.009  1.1220  0.0435  1.7688
  342SOL     OW 1024   2.759   1.505   1.192  0.0200  0.1564 -0.1019
  342SOL    HW1 1025   2.723   1.412   1.201  0.4908 -0.1223 -0.8622
  342SOL    HW2 1026   2.771   1.527   1.091 -0.3516  0.4549  0.6713
  343SOL     OW 1027   2.646   0.712   1.463  0.7644  0.3849 -0.8186
  343SOL    HW1 1028   2.557   0.760   1.436 -1.6104 -1.1810 -0.2774
  343SOL    HW2 1029   2.704   0.705   1.382 -1.1035  2.1593  0.5228
  344SOL     OW 1030   1.863   0.024   0.817  1.0550 -0.4968  0.0146
  344SOL    HW1 1031   1.761   0.034   0.801  0.4249 -0.4126  0.8549
  344SOL    HW2 1032   1.882   0.077   0.905  0.3463  1.8568  1.1204
  345SOL     OW 1033   0.694   2.982   2.338 -0.2042 -0.0374 -0.1279
  345SOL    HW1 1034   0.656   2.980   2.428  0.3948  1.2270 -2.8389
  345SOL    HW2 1035   0.635   3.045   2.280  1.0748  1.6041  0.0330
  346SOL     OW 1036   2.686   1.930   0.772  0.0649  0.2749  0.0556
  346SOL    HW1 1037   2.673   2.032   0.755 -1.1233  2.3904 -0.0023
  346SOL    HW2 1038   2.600   1.885   0.804  2.8026 -0.1726 -0.3724
  347SOL     OW 1039   2.060   0.181   1.810 -0.3427 -0.3059  0.1259
  347SOL    HW1 1040   1.972   0.228   1.777 -1.7676  0.3309  1.4069
  347SOL    HW2 1041   2.061   0.079   1.790 -0.7872  0.1794 -1.4253
  348SOL     OW 1042   0.988   1.173   1.605 -0.0821  0.0995  0.2304
  348SOL    HW1 1043   0.900   1.134   1.635 -0.8026  0.4445  1.0744
  348SOL    HW2 1044   0.987   1.273   1.606 -2.9993 -0.6058  1.7118
  349SOL     OW 1045   2.409   0.677   1.780  0.4489  0.1394 -0.1220
  349SOL    HW1 1046   2.457   0.716   1.863  0.1218 -1.2811  2.1079
  349SOL    HW2 1047   2.474   0.615   1.735 -3.1745  0.1992  1.1636
  350SOL     OW 1048   2.247   2.162   0.466  0.4047  0.2460 -0.1853
  350SOL    HW1 1049   2.184   2.214   0.523  0.8834 -1.2051 -1.7063
  350SOL    HW2 1050   2.225   2.174   0.372 -0.0288 -1.9412 -0.0557
  351SOL     OW 1051   0.862   0.509   2.376  0.9268 -0.5308 -0.4027
  351SOL    HW1 1052   0.810   0.437   2.425  0.2301  2.3386  0.9250
  351SOL    HW2 1053   0.813   0.525   2.289 -0.4822 -1.3266 -2.6454
  352SOL     OW 1054   2.334   2.600   1.832 -0.2493  0.4105  0.0544
  352SOL    HW1 1055   2.264   2.587   1.905  0.0375 -1.5943 -0.6822
  352SOL    HW2 1056   2.296   2.593   1.738 -0.4830 -0.6013 -0.7752
  353SOL     OW 1057   0.627   0.799   2.554 -0.0965  0.4212  0.4171
  353SOL    HW1 1058   0.647   0.818   2.455 -2.5089 -0.8389  0.1549
  353SOL    HW2 1059   0.689   0.732   2.600  0.3001 -0.8165  1.8637
  354SOL     OW 1060   0.253   2.508   2.647 -0.0313  0.7258 -0.5618
  354SOL    HW1 1061   0.315   2.576   2.608 -1.2880 -1.3481  0.0265
  354SOL    HW2 1062   0.197   2.541   2.724  0.2069 -0.5995  0.4221
  355SOL     OW 1063   1.503   2.709   1.155 -0.0967 -0.4028 -0.5199
  355SOL    HW1 1064   1.563   2.772   1.111 -6.2427 -1.9472  1.7280
  355SOL    HW2 1065   1.539   2.686   1.250  0.4739  0.0539 -0.6582
  356SOL     OW 1066   2.576   0.896   0.267  0.1565 -0.5082 -0.8098
  356SOL    HW1 1067   2.529   0.907   0.176 -0.1377 -3.2501 -0.2661
  356SOL    HW2 1068   2.566   0.968   0.339 -0.4239  0.2316  1.8371
  357SOL     OW 1069   3.079   0.250   1.743 -0.8462  0.2132 -0.1067
  357SOL    HW1 1070   0.069   0.254   1.800  0.6278 -4.4215 -1.5319
  357SOL    HW2 1071   3.014   0.185   1.782 -0.0096  1.8791  0.5034
  358SOL     OW 1072   3.080   1.647   0.762  0.1331 -0.1910 -0.0681
  358SOL    HW1 1073   3.086   1.554   0.805 -1.6222  1.6732 -0.1758
  358SOL    HW2 1074   3.051   1.641   0.665 -2.4613 -2.0602  1.3917
  359SOL     OW 1075   2.803   0.304   0.117 -0.6489 -0.1645  0.2767
  359SOL    HW1 1076   2.893   0.267   0.087  3.2068 -2.2559 -0.1645
  359SOL    HW2 1077   2.808   0.374   0.191  0.6345  1.8637 -0.6783
  360SOL     OW 1078   1.169   0.948   1.052 -0.4183 -0.5012  0.5084
  360SOL    HW1 1079   1.156   0.932   1.149 -0.8624  0.5110 -1.0522
  360SOL    HW2 1080   1.080   0.976   1.013  2.2117 -0.6424  1.6109
  361SOL     OW 1081   2.698   2.635   1.360  0.4124  0.0259 -0.0296
  361SOL    HW1 1082   2.772   2.642   1.430  2.3357 -0.7847 -0.7729
  361SOL    HW2 1083   2.678   2.537   1.348  0.8670 -1.9722  1.4206
  362SOL     OW 1084   1.201   0.312   0.938  0.2809 -0.6298  0.2921
  362SOL    HW1 1085   1.255   0.398   0.944  1.5715 -1.6700  0.8512
  362SOL    HW2 1086   1.253   0.244   0.882 -0.3524  3.2159 -1.2169
  363SOL     OW 1087   2.035   1.514   0.746  0.6379 -0.1460  0.3547
  363SOL    HW1 1088   2.120   1.475   0.791  0.2297  2.6763 -0.5395
  363SOL    HW2 1089   1.955   1.445   0.743 -0.8371 -1.7542 -0.8896
  364SOL     OW 1090   0.867   0.688   1.582  0.2206 -0.3218 -0.3265
  364SOL    HW1 1091   0.952   0.638   1.556  0.8029  2.1155 -0.9964
  364SOL    HW2 1092   0.828   0.749   1.507  0.9703  1.6947 -3.2682
  365SOL     OW 1093   0.139   0.057   1.095  0.5853 -0.5066 -0.4334
  365SOL    HW1 1094   0.210   0.001   1.141 -0.1488  2.2015 -1.3967
  365SOL    HW2 1095   0.071   0.081   1.165 -1.3756  3.3098 -0.4420
  366SOL     OW 1096   2.924   1.032   0.176 -0.4307  0.0468 -0.0039
  366SOL    HW1 1097   2.833   0.987   0.178 -2.4318 -1.6946  0.8574
  366SOL    HW2 1098   2.921   1.134   0.177  2.8652  2.2716 -1.1601
  367SOL     OW 1099   2.280   2.010   2.263  0.8729 -0.0433 -0.5124
  367SOL    HW1 1100   2.245   2.046   2.348 -1.0065 -0.8474  3.0800
  367SOL    HW2 1101   2.230   2.047   2.183  1.5910 -1.4370  1.8962
  368SOL     OW 1102   2.412   1.813   0.805 -0.1677 -0.1359  0.0787
  368SOL    HW1 1103   2.379   1.900   0.845 -2.8348  0.0618 -1.9802
  368SOL    HW2 1104   2.376   1.737   0.862  0.7629  2.9490  0.3688
  369SOL     OW 1105   2.088   0.267   2.945 -0.2491  0.2043 -0.5064
  369SOL    HW1 1106   2.133   0.357   2.948  1.1788 -0.2131  1.3410
  369SOL    HW2 1107   1.984   0.271   2.940 -3.6793  0.1765 -1.0824
  370SOL     OW 1108   0.891   0.593   0.975 -0.0499 -0.1759 -0.3225
  370SOL    HW1 1109   0.891   0.507   0.921 -1.5373  0.1846  1.2737
  370SOL    HW2 1110   0.907   0.670   0.911  0.6112 -1.9056  0.7522
  371SOL     OW 1111   3.060   1.413   3.077  0.2962 -0.3969  0.2599
  371SOL    HW1 1112   3.002   1.465   3.009  0.7729 -0.2949 -0.9756
  371SOL    HW2 1113   0.057   1.388   3.038  3.2089 -0.2696 -0.2215
  372SOL     OW 1114   0.659   0.814   2.264 -0.3376  0.2595 -0.4647
  372SOL    HW1 1115   0.700   0.731   2.218 -1.5575  1.8283  0.1780
  372SOL    HW2 1116   0.556   0.815   2.253  1.0154 -2.9338  3.2612
  373SOL     OW 1117   1.037   2.912   2.941  0.0171  0.8309  0.1750
  373SOL    HW1 1118   1.041   2.931   3.041  1.1813  0.1930  1.6369
  373SOL    HW2 1119   1.013   2.993   2.890  2.8054  0.4132  1.1379
  374SOL     OW 1120   0.980   1.862   0.241 -0.2142  0.2015  0.0622
  374SOL    HW1 1121   1.035   1.884   0.154  0.6519 -1.4318 -1.0867
  374SOL    HW2 1122   1.004   1.776   0.283 -0.2810 -1.4415  1.2973
  375SOL     OW 1123   1.126   0.686   2.098 -0.4797 -0.7044  0.0508
  375SOL    HW1 1124   1.139   0.788   2.103  1.4266  1.0117 -2.7117
  375SOL    HW2 1125   1.179   0.639   2.172 -0.1221  0.8281  0.7517
  376SOL     OW 1126   3.073   2.772   1.978 -0.2340  0.5502  0.2859
  376SOL    HW1 1127   3.009   2.793   2.054  0.8588  0.4329 -0.3542
  376SOL    HW2 1128   0.073   2.757   2.015  0.3482 -2.6964  2.5769
  377SOL     OW 1129   2.629   1.688   2.963 -0.0701 -0.4854 -0.3372
  377SOL    HW1 1130   2.579   1.640   2.889  0.5577 -0.9187  1.4037
  377SOL    HW2 1131   2.614   1.650   3.059 -0.1924 -0.9201  0.1380
  378SOL     OW 1132   2.203   0.132   0.153 -0.2929 -0.0008  0.3412
  378SOL    HW1 1133   2.148   0.094   0.228 -1.2245 -0.1666 -2.7053
  378SOL    HW2 1134   2.186   0.075   0.068  1.1769 -2.5445 -0.0393
  379SOL     OW 1135   1.907   0.741   0.817 -0.1105  0.5057 -0.3024
  379SOL    HW1 1136   1.812   0.776   0.848 -1.4660  1.2575  2.2857
  379SOL    HW2 1137   1.923   0.643   0.836  0.8631 -0.0696 -1.7374
  380SOL     OW 1138   2.561   2.089   1.855 -0.3365 -0.0749 -0.3098
  380SOL    HW1 1139   2.464   2.099   1.836  2.8140 -1.0312 -0.7096
  380SOL    HW2 1140   2.616   2.165   1.814 -0.3498  0.6798 -2.5147
  381SOL     OW 1141   2.371   1.371   2.370  0.2988 -0.4239  0.2760
  381SOL    HW1 1142   2.396   1.422   2.281  1.5930  4.9931 -3.8310
  381SOL    HW2 1143   2.303   1.301   2.344 -0.1697  0.4918  0.9620
  382SOL     OW 1144   2.870   2.741   2.586 -0.6788  0.2079  0.0698
  382SOL    HW1 1145   2.898   2.817   2.526 -0.9791 -0.9902  2.2979
  382SOL    HW2 1146   2.773   2.712   2.553 -1.5972 -1.3829  1.2921
  383SOL     OW 1147   0.935   1.273   2.855 -0.3835 -0.0240  0.2273
  383SOL    HW1 1148   0.907   1.268   2.955 -0.4917 -0.0345  0.8402
  383SOL    HW2 1149   0.997   1.353   2.844 -0.2464  2.2888 -0.4109
  384SOL     OW 1150   1.713   2.032   2.057 -0.0095  0.3083  0.2963
  384SOL    HW1 1151   1.761   1.940   2.051 -0.5979 -2.5479 -1.1172
  384SOL    HW2 1152   1.767   2.118   2.038  1.6610 -2.6599  0.8033
  385SOL     OW 1153   1.797   2.680   0.767  0.2471  0.1603  0.0796
  385SOL    HW1 1154   1.709   2.661   0.807  1.0527 -0.4360  1.1350
  385SOL    HW2 1155   1.791   2.653   0.668 -1.0766 -0.8619 -0.6923
  386SOL     OW 1156   1.965   1.263   0.501 -0.5356  0.2832  0.7691
  386SOL    HW1 1157   1.970   1.346   0.444  0.1755 -0.3604 -2.0389
  386SOL    HW2 1158   1.914   1.277   0.587  0.0639 -1.9515  0.7795
  387SOL     OW 1159   2.935   2.090   1.636 -0.3680 -0.2791 -0.3194
  387SOL    HW1 1160   2.971   2.071   1.731 -1.5891  1.4642  1.6336
  387SOL    HW2 1161   2.921   2.189   1.613 -1.4857 -2.3311  0.8945
  388SOL     OW 1162   0.130   0.940   1.549 -0.1986  0.5307  0.1581
  388SOL    HW1 1163   0.140   0.972   1.450  0.5309  1.0866 -1.5084
  388SOL    HW2 1164   0.066   0.862   1.551  0.0157  0.0644  0.6388
  389SOL     OW 1165   2.200   0.526   2.970 -0.3505 -0.0075 -0.4956
  389SOL    HW1 1166   2.194   0.489   3.068 -2.0356  0.0993  3.3263
  389SOL    HW2 1167   2.138   0.605   2.960  1.6390 -0.7964 -0.2696
  390SOL     OW 1168   0.744   1.715   2.940 -0.1170 -0.7112  0.1818
  390SOL    HW1 1169   0.720   1.613   2.930  0.3013  0.3626  0.4693
  390SOL    HW2 1170   0.661   1.761   2.979  2.1229 -0.5144 -0.9376
  391SOL     OW 1171   0.984   2.164   3.029  0.3753  0.2698 -0.0399
  391SOL    HW1 1172   1.050   2.215   3.091 -0.9017  1.0745 -2.1981
  391SOL    HW2 1173   0.884   2.179   3.042 -1.7750 -3.0483 -3.0203
  392SOL     OW 1174   0.142   2.537   2.157 -0.1020  0.2839  0.3846
  392SOL    HW1 1175   0.193   2.584   2.083 -0.3775  0.8976  0.5682
  392SOL    HW2 1176   0.202   2.466   2.196 -0.6237  0.4048 -0.4357
  393SOL     OW 1177   1.471   2.135   0.396 -0.3147  0.1867 -0.3700
  393SOL    HW1 1178   1.543   2.112   0.461  0.9837 -0.0484 -1.4559
  393SOL    HW2 1179   1.412   2.057   0.372 -1.1535  1.8305 -0.3969
  394SOL     OW 1180   0.449   0.149   2.491 -0.3973  0.2045  0.2270
  394SOL    HW1 1181   0.391   0.159   2.407 -0.5728 -0.8944 -0.3672
  394SOL    HW2 1182   0.517   0.226   2.496 -0.0449 -1.5773 -3.6773
  395SOL     OW 1183   0.604   1.296   1.282 -0.1905  0.1206  0.2339
  395SOL    HW1 1184   0.639   1.369   1.343  0.6423  1.1964  3.5003
  395SOL    HW2 1185   0.544   1.336   1.207 -2.1522  1.1531 -0.5016
  396SOL     OW 1186   1.883   1.311   2.623  0.2178  0.4474  0.3703
  396SOL    HW1 1187   1.863   1.251   2.545 -1.9750 -0.0933 -0.3726
  396SOL    HW2 1188   1.950   1.277   2.689  0.2515  0.8662  0.0105
  397SOL     OW 1189   0.570   0.420   0.197  0.3131 -0.1598  0.0943
  397SOL    HW1 1190   0.658   0.418   0.251 -0.5580 -0.3602  0.9033
  397SOL    HW2 1191   0.584   0.470   0.107  2.7083 -0.2563  0.5045
  398SOL     OW 1192   0.846   2.451   2.872  0.0343 -0.4492  0.2282
  398SOL    HW1 1193   0.878   2.546   2.864 -0.8833 -1.2563  1.1406
  398SOL    HW2 1194   0.929   2.390   2.893 -1.6317 -1.3811  1.8611
  399SOL     OW 1195   1.868   2.234   1.982 -0.1048 -0.4128  0.9442
  399SOL    HW1 1196   1.964   2.207   1.999  2.4834 -1.8461  0.2812
  399SOL    HW2 1197   1.861   2.293   1.901  0.1541  0.6678 -1.8873
  400SOL     OW 1198   2.139   1.319   1.378  0.6462 -0.3943 -0.1190
  400SOL    HW1 1199   2.088   1.310   1.466 -0.2926 -0.1708  2.9194
  400SOL    HW2 1200   2.235   1.326   1.396 -0.8515  1.4803  0.0577
  401SOL     OW 1201   1.364   1.080   0.890 -0.5373  0.1118 -0.3788
  401SOL    HW1 1202   1.450   1.091   0.940  2.9900 -0.6832 -0.8637
  401SOL    HW2 1203   1.308   1.012   0.945 -0.5648  1.2873 -2.0224
  402SOL     OW 1204   0.078   2.979   2.380 -0.0476 -0.4399 -0.0942
  402SOL    HW1 1205   0.066   3.076   2.417  3.1101  1.4651  0.8203
  402SOL    HW2 1206   0.150   2.983   2.310  0.0220  0.0815 -0.3109
  403SOL     OW 1207   2.614   1.869   1.653  0.4181  0.1803 -0.2393
  403SOL    HW1 1208   2.586   1.907   1.562 -1.8202 -2.3485  0.3030
  403SOL    HW2 1209   2.630   1.949   1.715 -0.6029  0.3295  2.6709
  404SOL     OW 1210   1.977   1.736   1.655  0.1972 -0.2818  0.0867
  404SOL    HW1 1211   2.054   1.747   1.586 -0.0878  0.2420  2.4573
  404SOL    HW2 1212   1.898   1.683   1.615 -1.6256 -2.3203 -1.1955
  405SOL     OW 1213   2.467   0.258   2.677 -0.0660  0.0340  0.1891
  405SOL    HW1 1214   2.469   0.249   2.577 -0.8434 -1.7219  0.5164
  405SOL    HW2 1215   2.547   0.311   2.710  3.3200 -1.0064  0.5980
  406SOL     OW 1216   1.032   1.564   2.546 -0.7940 -0.9654 -0.5338
  406SOL    HW1 1217   0.961   1.637   2.553 -1.9912  0.0296  1.6072
  406SOL    HW2 1218   1.064   1.543   2.640 -0.9814 -1.7976 -1.9018
  407SOL     OW 1219   2.033   2.313   0.543 -0.5290  0.3494 -0.3853
  407SOL    HW1 1220   2.034   2.381   0.621 -1.6064  0.5760  3.5406
  407SOL    HW2 1221   1.945   2.314   0.493  0.6729  0.5392 -1.3240
  408SOL     OW 1222   0.248   2.778   0.876 -0.2713 -0.0537 -0.9293
  408SOL    HW1 1223   0.273   2.793   0.977  0.2600 -2.5626  1.5691
  408SOL    HW2 1224   0.217   2.873   0.841 -1.5000  1.9187 -0.3815
  409SOL     OW 1225   2.329   1.598   0.991 -0.4338  0.2605  0.1430
  409SOL    HW1 1226   2.249   1.645   1.037  1.3919 -1.7850 -0.1478
  409SOL    HW2 1227   2.301   1.533   0.917  0.4714 -2.2352 -1.7475
  410SOL     OW 1228   2.168   2.363   2.889  0.4864 -0.1940  0.5370
  410SOL    HW1 1229   2.216   2.453   2.887  2.0094  2.9240  0.0090
  410SOL    HW2 1230   2.210   2.295   2.820  0.5405  0.7759  2.3871
  411SOL     OW 1231   0.207   2.874   0.445 -0.3796  0.6632 -0.0094
  411SOL    HW1 1232   0.295   2.925   0.452  1.9544  2.2737 -0.3431
  411SOL    HW2 1233   0.151   2.881   0.529 -2.1024  2.0576 -1.1190
  412SOL     OW 1234   1.358   2.582   0.383  0.2337 -0.1451 -0.1576
  412SOL    HW1 1235   1.343   2.685   0.370  2.4000  4.1000  0.4700
  412SOL    HW2 1236   1.420   2.569   0.468 -0.6364  0.1379 -0.7511
  413SOL     OW 1237   1.875   0.519   2.379  0.3574  0.0815 -0.4487
  413SOL    HW1 1238   1.845   0.616   2.361 -1.1103  1.0574 -1.8049
  413SOL    HW2 1239   1.965   0.513   2.423 -1.5373 -0.9853  0.1291
  414SOL     OW 1240   0.298   0.735   0.484  0.5697 -0.2831 -0.2319
  414SOL    HW1 1241   0.263   0.642   0.456  0.7353  0.9767 -1.5802
  414SOL    HW2 1242   0.374   0.735   0.553 -0.3328 -2.0733 -1.0534
  415SOL     OW 1243   0.172   1.018   1.295 -0.3352  0.3572  0.1309
  415SOL    HW1 1244   0.123   1.013   1.208  0.7498 -0.8067  0.5524
  415SOL    HW2 1245   0.267   0.981   1.288 -1.7393 -2.3228  1.4890
  416SOL     OW 1246   0.283   0.109   0.340  0.1151  0.4876  0.0964
  416SOL    HW1 1247   0.305   0.127   0.242  0.3309  0.2572 -0.2878
  416SOL    HW2 1248   0.347   0.050   0.389  2.6651 -0.2354  3.0252
  417SOL     OW 1249   2.027   0.375   0.616 -0.2697  0.3056 -0.8248
  417SOL    HW1 1250   2.093   0.308   0.654  0.6759  1.0167 -1.4050
  417SOL    HW2 1251   1.989   0.433   0.692 -0.3438 -1.4719  3.9167
  418SOL     OW 1252   0.531   0.416   2.596 -0.0875 -0.3525 -0.4191
  418SOL    HW1 1253   0.552   0.410   2.694 -0.5394 -0.2718 -1.1586
  418SOL    HW2 1254   0.450   0.479   2.580  0.9677 -0.4741  3.0302
  419SOL     OW 1255   0.426   1.001   0.680  1.0386  0.1445 -0.4135
  419SOL    HW1 1256   0.435   0.897   0.676  2.7759  0.2722 -0.6846
  419SOL    HW2 1257   0.473   1.037   0.766  0.8570  1.0303  2.3509
  420SOL     OW 1258   2.131   1.701   1.151 -0.2251  0.3387  0.0837
  420SOL    HW1 1259   2.189   1.686   1.232  0.3709  1.8171 -0.3293
  420SOL    HW2 1260   2.099   1.800   1.149  0.1221  1.3007  1.9986
  421SOL     OW 1261   1.679   2.074   2.690  0.4928  0.2214 -0.1359
  421SOL    HW1 1262   1.643   2.077   2.788 -1.7773  1.6243 -2.5805
  421SOL    HW2 1263   1.610   2.120   2.628  2.0240  1.7680  0.6952
  422SOL     OW 1264   2.982   0.606   0.111  0.0433  0.4507 -0.0658
  422SOL    HW1 1265   2.932   0.601   0.020 -0.1431 -0.2325 -2.0665
  422SOL    HW2 1266   2.927   0.563   0.190  1.0178 -1.2401  2.6267
  423SOL     OW 1267   2.012   1.943   0.728  0.1504 -0.3847  0.9165
  423SOL    HW1 1268   1.974   1.870   0.783  0.7452  0.1505 -2.9809
  423SOL    HW2 1269   2.101   1.915   0.687 -0.4764  1.2489 -0.4566
  424SOL     OW 1270   0.392   1.264   1.742 -0.2196  0.1783  0.3230
  424SOL    HW1 1271   0.386   1.362   1.719 -1.9980 -0.6071 -2.5311
  424SOL    HW2 1272   0.296   1.238   1.761  0.4403 -0.2390 -2.5952
  425SOL     OW 1273   2.658   2.798   1.785  0.0845  0.0623  0.0246
  425SOL    HW1 1274   2.672   2.722   1.852  3.7276 -1.1821  2.2353
  425SOL    HW2 1275   2.595   2.873   1.820  0.1131 -1.4172  0.4292
  426SOL     OW 1276   1.775   2.625   0.513  0.2970 -0.0602  0.2963
  426SOL    HW1 1277   1.859   2.650   0.455  1.9628 -1.0029 -1.0955
  426SOL    HW2 1278   1.749   2.527   0.501 -1.5838  0.8355  0.9108
  427SOL     OW 1279   0.175   0.596   2.672  0.1954 -0.0761  0.2114
  427SOL    HW1 1280   0.260   0.649   2.695 -0.1987 -0.1184 -0.3932
  427SOL    HW2 1281   0.170   0.513   2.730 -0.7907 -0.1933 -1.1057
  428SOL     OW 1282   2.122   0.974   2.949 -0.0885 -0.4327  0.2240
  428SOL    HW1 1283   2.084   1.039   3.017  0.4774  1.1780 -0.5444
  428SOL    HW2 1284   2.087   1.008   2.857 -1.7319  0.5744 -1.2568
  429SOL     OW 1285   3.004   0.332   0.532  0.3231  0.2957  0.0371
  429SOL    HW1 1286   2.964   0.268   0.464  1.4689 -0.4263 -0.2664
  429SOL    HW2 1287   2.957   0.322   0.621 -0.3806  0.2239  0.0538
  430SOL     OW 1288   1.049   2.811   2.117 -0.2248 -0.1753  0.2498
  430SOL    HW1 1289   0.968   2.824   2.066  1.6095 -1.5716  1.0992
  430SOL    HW2 1290   1.131   2.792   2.059 -1.2631  0.0056  0.1400
  431SOL     OW 1291   3.049   2.036   1.279  0.2978 -0.2655 -0.5111
  431SOL    HW1 1292   0.009   2.033   1.362  0.3615  0.1008 -4.7335
  431SOL    HW2 1293   2.947   2.045   1.305  0.3034 -0.4690 -1.0915
  432SOL     OW 1294   2.096   2.977   1.729  0.2802  0.1643 -0.0456
  432SOL    HW1 1295   2.184   2.978   1.684 -0.8446  0.3927  1.9304
  432SOL    HW2 1296   2.097   2.923   1.814  2.3703 -0.4457  1.3392
  433SOL     OW 1297   1.155   2.257   0.122  0.4710  0.2058  0.5457
  433SOL    HW1 1298   1.104   2.227   0.204  2.4374 -0.7916  0.0083
  433SOL    HW2 1299   1.255   2.259   0.141 -0.3234  1.0343 -0.5282
  434SOL     OW 1300   3.009   2.529   2.320 -0.0897  0.1426 -0.7533
  434SOL    HW1 1301   3.088   2.541   2.254  0.0169  1.3152  2.2030
  434SOL    HW2 1302   3.047   2.502   2.412  2.1989 -0.7018  4.4792
  435SOL     OW 1303   0.473   0.744   0.704  0.1981  0.2933 -0.0220
  435SOL    HW1 1304   0.424   0.664   0.744  0.9363 -2.5312 -1.0084
  435SOL    HW2 1305   0.568   0.708   0.685 -0.5012 -1.7478  0.0190
  436SOL     OW 1306   0.491   2.480   1.855 -0.5179 -0.6138  0.0924
  436SOL    HW1 1307   0.395   2.453   1.833  1.1460 -0.3770  2.3344
  436SOL    HW2 1308   0.558   2.407   1.836 -1.4693 -1.3639 -0.5031
  437SOL     OW 1309   1.280   1.987   1.482 -0.6850  0.9504  0.1214
  437SOL    HW1 1310   1.235   2.044   1.417  0.5364 -1.6738  1.9569
  437SOL    HW2 1311   1.385   1.999   1.479  0.0517 -1.8487 -0.1818
  438SOL     OW 1312   0.171   2.190   0.364 -0.0458 -0.2725 -0.5779
  438SOL    HW1 1313   0.192   2.171   0.267 -2.2823 -0.7635  0.8725
  438SOL    HW2 1314   0.135   2.110   0.412 -5.0779  0.1674  1.4621
  439SOL     OW 1315   0.404   3.073   1.157 -0.3829 -0.4868 -0.1530
  439SOL    HW1 1316   0.417   0.060   1.103  1.1891 -1.8946  0.2143
  439SOL    HW2 1317   0.495   3.050   1.202 -0.1900 -1.3261 -0.3737
  440SOL     OW 1318   2.879   2.719   2.174 -0.1694 -1.0902  0.5412
  440SOL    HW1 1319   2.935   2.656   2.229  3.0085  1.0929 -1.0942
  440SOL    HW2 1320   2.798   2.672   2.135 -1.5526  0.0841 -0.3244
  441SOL     OW 1321   2.777   0.721   1.712  0.2013  0.1926 -0.3272
  441SOL    HW1 1322   2.763   0.639   1.770  2.3325  1.8374  1.4216
  441SOL    HW2 1323   2.745   0.710   1.620  3.4437 -0.4912 -0.2979
  442SOL     OW 1324   1.769   2.422   0.143 -0.2884  0.2455  0.0730
  442SOL    HW1 1325   1.851   2.475   0.112 -1.8820  0.3426 -1.3869
  442SOL    HW2 1326   1.691   2.451   0.084  0.4364 -0.8358 -1.5629
  443SOL     OW 1327   0.454   0.791   2.982 -0.0111 -0.5629  0.6118
  443SOL    HW1 1328   0.374   0.825   3.034  0.2641  2.1924 -0.0476
  443SOL    HW2 1329   0.522   0.861   2.990  0.7988 -1.8307  0.6535
  444SOL     OW 1330   1.478   1.799   2.245 -0.6091  0.3425 -0.6136
  444SOL    HW1 1331   1.546   1.731   2.278  0.7047 -0.4066  1.5989
  444SOL    HW2 1332   1.446   1.783   2.148 -1.8328  0.8846 -3.4995
  445SOL     OW 1333   0.287   2.370   1.072  0.0496  0.9373 -0.4903
  445SOL    HW1 1334   0.326   2.459   1.075 -2.3744 -0.4544 -1.0585
  445SOL    HW2 1335   0.316   2.320   0.988 -1.3977 -3.2167 -1.6823
  446SOL     OW 1336   2.740   1.422   1.465  0.2787 -0.2472 -0.3085
  446SOL    HW1 1337   2.678   1.464   1.537 -1.1849 -3.2949 -0.0285
  446SOL    HW2 1338   2.736   1.463   1.370  0.8110  3.5235  0.2389
  447SOL     OW 1339   0.381   0.702   0.230  0.3667 -0.6646  0.0219
  447SOL    HW1 1340   0.347   0.744   0.318  2.9780  1.7414  0.2424
  447SOL    HW2 1341   0.311   0.666   0.165 -0.1581  0.8037 -2.1472
  448SOL     OW 1342   1.420   2.267   1.907  0.3561 -0.6884  0.3368
  448SOL    HW1 1343   1.332   2.259   1.850 -3.2493 -3.1949 -0.8731
  448SOL    HW2 1344   1.438   2.186   1.959 -0.9355 -0.0479 -1.7910
  449SOL     OW 1345   0.888   1.269   0.051 -0.3755 -0.1187  0.1451
  449SOL    HW1 1346   0.908   1.187   0.102  0.6870  0.2855  0.0178
  449SOL    HW2 1347   0.903   1.357   0.106 -0.1821  0.5997  0.5030
  450SOL     OW 1348   3.009   2.072   1.883 -0.2421 -0.1988  0.9306
  450SOL    HW1 1349   3.085   2.003   1.892  1.7218  1.1550 -1.5401
  450SOL    HW2 1350   2.926   2.033   1.926  0.5704 -0.8913  1.7197
  451SOL     OW 1351   2.694   1.311   2.631 -0.5026  0.7608 -0.3591
  451SOL    HW1 1352   2.771   1.342   2.687 -0.4437  0.7072  0.4256
  451SOL    HW2 1353   2.617   1.277   2.692 -2.8462  0.6264  1.8350
  452SOL     OW 1354   1.450   0.814   1.060  0.1021  0.1331 -0.1717
  452SOL    HW1 1355   1.348   0.800   1.053 -0.5588 -1.2557  1.9736
  452SOL    HW2 1356   1.485   0.745   1.123  0.4111 -1.1080  0.8660
  453SOL     OW 1357   1.492   1.030   1.484 -0.3740 -0.0234 -0.0128
  453SOL    HW1 1358   1.439   0.943   1.493  1.6396 -1.9443  0.4160
  453SOL    HW2 1359   1.539   1.055   1.573  0.5784 -1.7233  1.0038
  454SOL     OW 1360   0.120   0.889   0.362 -0.0218 -0.7362  0.1697
  454SOL    HW1 1361   0.163   0.809   0.395 -1.6449  2.2325 -2.3303
  454SOL    HW2 1362   0.092   0.868   0.265  0.7062  0.7165 -2.3177
  455SOL     OW 1363   2.427   2.668   1.215 -0.4465 -0.3250 -0.3217
  455SOL    HW1 1364   2.476   2.675   1.307  3.0468  0.1002 -0.1042
  455SOL    HW2 1365   2.493   2.642   1.141  1.7700 -0.6654 -0.8693
  456SOL     OW 1366   0.388   2.571   1.202  0.2130  0.0470 -0.0625
  456SOL    HW1 1367   0.433   2.541   1.287  0.4573  1.5058  2.8486
  456SOL    HW2 1368   0.379   2.674   1.214 -0.5646  0.6892  0.2548
  457SOL     OW 1369   1.462   2.939   0.673  0.0801 -0.4629 -0.0710
  457SOL    HW1 1370   1.373   2.969   0.632  1.4048 -0.2622  0.5984
  457SOL    HW2 1371   1.523   2.893   0.607  1.4639 -2.1232 -0.4468
  458SOL     OW 1372   2.611   0.044   1.314  0.0802  0.0482 -0.2692
  458SOL    HW1 1373   2.669   3.070   1.353  0.6292  1.4410 -0.1128
  458SOL    HW2 1374   2.648   0.136   1.333 -0.3012 -0.5965  0.1165
  459SOL     OW 1375   2.403   0.698   2.977 -0.9262  0.2500  0.1695
  459SOL    HW1 1376   2.332   0.627   2.983  0.2270 -2.7093  0.5250
  459SOL    HW2 1377   2.447   0.705   3.069  1.5082  3.3102  2.4876
  460SOL     OW 1378   2.644   2.518   2.818 -0.3116  0.0594  0.0418
  460SOL    HW1 1379   2.611   2.609   2.782 -0.0297  0.6452  0.1940
  460SOL    HW2 1380   2.598   2.502   2.906  0.3610  0.3048  1.0583
  461SOL     OW 1381   0.563   1.995   0.183 -0.3753  0.2530 -0.6935
  461SOL    HW1 1382   0.593   2.048   0.100  1.3602  2.0662  1.2583
  461SOL    HW2 1383   0.606   1.903   0.191 -0.2439 -1.3523  0.9595
  462SOL     OW 1384   2.349   2.076   0.871  0.5181  0.2892  0.3109
  462SOL    HW1 1385   2.252   2.062   0.846  0.0061  0.5562 -1.4449
  462SOL    HW2 1386   2.356   2.154   0.927 -3.1784 -1.2185  1.0989
  463SOL     OW 1387   2.901   0.678   0.776  0.5231 -0.4058 -1.0396
  463SOL    HW1 1388   2.994   0.709   0.785 -0.4774 -2.5417  0.7746
  463SOL    HW2 1389   2.896   0.582   0.795  1.6428  3.1937  1.2331
  464SOL     OW 1390   1.092   2.793   0.491  0.1220 -0.4579 -0.0172
  464SOL    HW1 1391   1.002   2.833   0.501  1.9768 -1.5182 -0.6890
  464SOL    HW2 1392   1.113   2.733   0.570 -2.7188 -0.6704  0.8230
  465SOL     OW 1393   2.191   1.132   0.705 -0.8882  0.0632  0.0977
  465SOL    HW1 1394   2.142   1.065   0.761  0.0013  0.8634  0.6826
  465SOL    HW2 1395   2.138   1.171   0.630  3.0738  1.7574 -1.7508
  466SOL     OW 1396   2.522   3.063   3.032  0.6220  0.0281  0.5008
  466SOL    HW1 1397   2.471   0.044   2.990  1.1130 -1.2391 -1.4901
  466SOL    HW2 1398   2.565   3.093   0.024 -1.5180 -1.0819 -2.5276
  467SOL     OW 1399   0.988   1.034   1.360 -0.3644  0.1814  0.3473
  467SOL    HW1 1400   0.969   1.073   1.452 -0.5477  0.1925  0.4282
  467SOL    HW2 1401   1.072   0.973   1.359  1.8667 -0.5590  0.1135
  468SOL     OW 1402   0.391   0.818   2.292 -0.3939 -0.0183 -0.3650
  468SOL    HW1 1403   0.327   0.754   2.241  0.0330 -3.0229 -3.1443
  468SOL    HW2 1404   0.348   0.849   2.381 -0.7095 -1.0702 -3.0207
  469SOL     OW 1405   0.582   2.656   3.001 -0.1058  0.0101  0.6072
  469SOL    HW1 1406   0.492   2.620   2.981  1.8634 -0.9024 -0.7532
  469SOL    HW2 1407   0.638   2.593   3.060  1.0517  1.5683 -1.3862
  470SOL     OW 1408   2.471   1.218   2.879 -0.2254 -0.0150 -0.0301
  470SOL    HW1 1409   2.454   1.119   2.888 -0.5787 -1.1131 -2.3135
  470SOL    HW2 1410   2.567   1.240   2.908 -1.2931 -0.9231 -0.6937
  471SOL     OW 1411   2.654   1.203   2.403  0.1433 -0.1461 -0.1662
  471SOL    HW1 1412   2.738   1.234   2.356  0.5919 -0.1525  2.1368
  471SOL    HW2 1413   2.670   1.236   2.500 -0.2380 -2.1751  3.3823
  472SOL     OW 1414   0.413   2.416   0.265 -0.0859 -0.3083  0.2539
  472SOL    HW1 1415   0.337   2.468   0.309 -0.0714 -1.8362 -1.2416
  472SOL    HW2 1416   0.502   2.398   0.316  1.7498 -0.6861 -0.3637
  473SOL     OW 1417   0.621   0.039   0.086 -0.0495  0.1045  0.1316
  473SOL    HW1 1418   0.618   3.032   0.080 -2.5762  0.2939 -1.8802
  473SOL    HW2 1419   0.531   0.082   0.072 -1.2912  0.1824  0.0644
  474SOL     OW 1420   1.588   0.524   2.280 -0.4276  0.1573  0.1546
  474SOL    HW1 1421   1.660   0.585   2.246 -0.0952 -0.2695 -0.1007
  474SOL    HW2 1422   1.610   0.425   2.264  0.2297  0.5548 -0.3543
  475SOL     OW 1423   0.754   2.484   0.037  0.0177 -0.4880 -0.2809
  475SOL    HW1 1424   0.771   2.419   0.113  1.9433  1.2609 -0.8756
  475SOL    HW2 1425   0.802   2.454   3.054  0.6219 -0.0779  1.9281
  476SOL     OW 1426   0.478   1.113   0.951 -0.2645  0.3545 -0.5563
  476SOL    HW1 1427   0.567   1.061   0.943 -0.5629 -1.5083 -1.0972
  476SOL    HW2 1428   0.487   1.208   0.957 -1.3546 -4.8263 -0.9467
  477SOL     OW 1429   1.702   2.298   1.287 -0.0120 -0.1036  0.3060
  477SOL    HW1 1430   1.603   2.318   1.297  3.8409 -3.1520  2.2980
  477SOL    HW2 1431   1.724   2.293   1.186  2.0407 -1.3886 -2.9953
  478SOL     OW 1432   0.612   1.425   2.286  0.4355 -0.4616 -0.1434
  478SOL    HW1 1433   0.691   1.413   2.225 -0.7533  3.1602  0.2807
  478SOL    HW2 1434   0.589   1.523   2.305  1.6856  1.3089 -1.8501
  479SOL     OW 1435   0.320   2.824   1.124 -0.3165 -0.0408  0.3146
  479SOL    HW1 1436   0.248   2.802   1.188  0.8795 -0.3808 -2.8003
  479SOL    HW2 1437   0.357   2.915   1.142  0.9937 -1.5607  3.2943
  480SOL     OW 1438   2.814   3.011   0.395 -0.3124 -0.5311  0.5621
  480SOL    HW1 1439   2.733   2.971   0.347  0.1814  0.1810 -4.8324
  480SOL    HW2 1440   2.892   2.954   0.379 -0.4189 -0.0926  1.2899
  481SOL     OW 1441   3.029   2.863   0.978 -0.2041 -0.8243  0.2141
  481SOL    HW1 1442   3.080   2.775   0.969 -1.3217  1.7065  1.6701
  481SOL    HW2 1443   2.983   2.870   1.073  0.9971 -0.8159  1.1513
  482SOL     OW 1444   1.618   2.443   1.954 -0.0596  0.4247  0.2944
  482SOL    HW1 1445   1.543   2.371   1.963  0.2663 -2.3021 -0.2102
  482SOL    HW2 1446   1.656   2.428   1.862 -0.6400 -0.1789  1.4402
  483SOL     OW 1447   0.568   1.479   2.744 -0.2937 -0.5499 -0.3317
  483SOL    HW1 1448   0.648   1.427   2.710  0.2582  0.4251 -1.3084
  483SOL    HW2 1449   0.574   1.569   2.693  1.1877  0.5974  0.5248
  484SOL     OW 1450   0.923   1.338   2.447  0.0464  0.5122 -0.2621
  484SOL    HW1 1451   0.844   1.307   2.499 -2.0840 -2.6838 -1.8335
  484SOL    HW2 1452   0.986   1.406   2.496  1.9871  0.8926  0.8338
  485SOL     OW 1453   2.863   0.173   0.366 -0.1927  0.4543 -0.1705
  485SOL    HW1 1454   2.857   0.070   0.372 -2.2469 -1.2302  1.0133
  485SOL    HW2 1455   2.838   0.208   0.271 -0.8975 -0.1609  0.4144
  486SOL     OW 1456   1.504   2.680   0.863  0.0203 -0.0371 -0.2653
  486SOL    HW1 1457   1.432   2.627   0.910  2.7595 -0.1446 -1.0740
  486SOL    HW2 1458   1.485   2.777   0.859  1.1907  0.3199  1.6683
  487SOL     OW 1459   0.976   2.307   0.894  0.0322 -0.4344 -0.2180
  487SOL    HW1 1460   0.979   2.209   0.861  0.0361  0.4711  1.9348
  487SOL    HW2 1461   0.964   2.379   0.826 -0.7008  1.2732 -0.4094
  488SOL     OW 1462   2.160   1.211   0.146 -0.2930  0.4006 -0.2476
  488SOL    HW1 1463   2.135   1.294   0.200  1.6429 -0.2837 -0.3253
  488SOL    HW2 1464   2.079   1.167   0.099  1.3701 -0.9250 -0.8359
  489SOL     OW 1465   1.271   2.841   1.107  0.6647  0.1567  0.5679
  489SOL    HW1 1466   1.228   2.872   1.194 -1.0686 -0.6568 -0.5451
  489SOL    HW2 1467   1.367   2.809   1.124 -0.5360 -1.1569  0.3477
  490SOL     OW 1468   0.944   1.026   0.174  0.3866  0.3603  0.5778
  490SOL    HW1 1469   0.881   0.987   0.099 -0.5636  0.6652 -2.2033
  490SOL    HW2 1470   0.888   1.068   0.245 -1.6119  2.3023 -0.1342
  491SOL     OW 1471   0.948   2.947   0.930  0.7180 -0.5283 -0.0583
  491SOL    HW1 1472   1.045   2.960   0.916 -1.4884  0.5263 -1.5906
  491SOL    HW2 1473   0.928   2.851   0.955 -0.2149  3.4844  0.6592
  492SOL     OW 1474   1.242   1.493   2.186 -0.3438  0.7077 -0.3382
  492SOL    HW1 1475   1.236   1.564   2.253  1.1074 -0.3751 -0.8451
  492SOL    HW2 1476   1.327   1.498   2.133 -0.4248 -3.7059 -0.1642
  493SOL     OW 1477   0.202   2.596   0.391  0.7084  0.1201 -0.2389
  493SOL    HW1 1478   0.106   2.577   0.392  1.2775 -0.9647  1.6704
  493SOL    HW2 1479   0.209   2.696   0.410  2.6098 -0.6705  0.1706
  494SOL     OW 1480   2.139   1.799   0.107 -0.0148  0.0730  0.9388
  494SOL    HW1 1481   2.171   1.858   0.034  0.4529 -0.8391 -1.4876
  494SOL    HW2 1482   2.195   1.714   0.113 -1.1329  0.0979 -1.2385
  495SOL     OW 1483   2.725   1.286   2.934 -0.1865 -0.1946  0.5714
  495SOL    HW1 1484   2.796   1.213   2.921  0.0214 -0.6997 -0.5464
  495SOL    HW2 1485   2.709   1.311   3.032  0.7807 -0.5441  0.2183
  496SOL     OW 1486   2.509   0.104   1.649 -0.2904  0.0873  0.4356
  496SOL    HW1 1487   2.486   0.031   1.710  1.9033  1.1054 -1.7602
  496SOL    HW2 1488   2.427   0.169   1.638 -2.2480  3.3037  0.3858
  497SOL     OW 1489   2.618   1.101   0.480 -0.2917 -0.0994 -0.4587
  497SOL    HW1 1490   2.578   1.121   0.573  1.8566 -0.2427 -1.5561
  497SOL    HW2 1491   2.693   1.167   0.449  1.9132  0.2388 -2.7589
  498SOL     OW 1492   2.971   2.143   2.578  0.3283  0.0076  0.0930
  498SOL    HW1 1493   3.019   2.111   2.659  0.1626  0.9043  0.6273
  498SOL    HW2 1494   3.002   2.237   2.554  0.4384  1.6827  0.2714
  499SOL     OW 1495   0.779   2.282   0.215 -0.6102 -0.3249  0.4951
  499SOL    HW1 1496   0.863   2.272   0.272 -3.5493 -2.3771  1.6867
  499SOL    HW2 1497   0.702   2.272   0.280  0.0536 -0.7499  1.4251
  500SOL     OW 1498   0.808   0.072   2.664 -0.2668  0.4066  0.2573
  500SOL    HW1 1499   0.805   0.089   2.764  3.1327 -0.3612 -1.5266
  500SOL    HW2 1500   0.730   0.013   2.632 -1.4192  0.6167  0.3674
  501SOL     OW 1501   1.247   0.049   1.507 -0.4318  0.8193  0.1957
  501SOL    HW1 1502   1.343   0.047   1.528 -2.8649 -1.8725 -0.1229
  501SOL    HW2 1503   1.210   0.141   1.524  0.6132  1.3275 -1.0361
  502SOL     OW 1504   2.989   0.217   2.152 -0.2935  0.3071 -0.1065
  502SOL    HW1 1505   3.057   0.222   2.227 -2.6055  1.4672  1.0101
  502SOL    HW2 1506   2.984   0.308   2.106  1.5719 -0.5235 -0.3456
  503SOL     OW 1507   2.427   1.783   2.338  0.1402 -0.5796  0.1468
  503SOL    HW1 1508   2.449   1.700   2.287 -2.9466 -0.4847  2.5119
  503SOL    HW2 1509   2.387   1.853   2.279  0.8222  1.4208 -0.5803
  504SOL     OW 1510   1.566   0.667   1.896  0.1930  0.2931 -0.5272
  504SOL    HW1 1511   1.507   0.592   1.865  0.5316  1.7083  0.1493
  504SOL    HW2 1512   1.660   0.629   1.904 -1.1467  0.7834 -0.0150
  505SOL     OW 1513   2.853   1.073   1.376  0.7250  0.2865 -0.4823
  505SOL    HW1 1514   2.916   1.147   1.407 -2.7115  1.1212  0.0507
  505SOL    HW2 1515   2.903   1.000   1.321 -0.6252  2.3826 -2.3982
  506SOL     OW 1516   0.518   1.201   2.441 -0.2842  0.3421  0.5107
  506SOL    HW1 1517   0.496   1.132   2.370  2.8664 -1.8765  1.4925
  506SOL    HW2 1518   0.567   1.279   2.400 -0.7226 -3.9029  1.0889
  507SOL     OW 1519   0.285   2.985   2.234  0.1163  0.3392  0.4531
  507SOL    HW1 1520   0.377   3.025   2.231 -4.0471  1.3854 -0.7212
  507SOL    HW2 1521   0.285   2.886   2.256  1.1798 -0.4835 -0.4977
  508SOL     OW 1522   1.176   0.844   1.348  0.3105 -0.5288 -0.1733
  508SOL    HW1 1523   1.250   0.835   1.419 -1.1655 -2.3347  0.5693
  508SOL    HW2 1524   1.186   0.763   1.287  0.0030 -0.4210 -0.4378
  509SOL     OW 1525   0.830   1.775   1.504  0.2366  0.4426  0.4622
  509SOL    HW1 1526   0.832   1.794   1.604  0.0105 -3.2645  1.1492
  509SOL    HW2 1527   0.923   1.780   1.465 -1.9260  0.9456 -0.5082
  510SOL     OW 1528   2.586   0.948   2.518  0.3399  0.5649 -0.0848
  510SOL    HW1 1529   2.612   0.951   2.618 -3.3598  0.1582 -0.8608
  510SOL    HW2 1530   2.603   1.034   2.467  1.9114  1.0783  3.1456
  511SOL     OW 1531   0.463   1.578   1.258  0.0821 -0.4556 -0.3098
  511SOL    HW1 1532   0.373   1.564   1.306 -0.9707 -0.6919  0.1758
  511SOL    HW2 1533   0.466   1.667   1.212  0.5243 -2.1142  2.8536
  512SOL     OW 1534   2.605   2.189   0.798  0.3858 -0.2217  0.0952
  512SOL    HW1 1535   2.589   2.260   0.728  0.7277 -0.0177  2.5562
  512SOL    HW2 1536   2.514   2.164   0.832 -2.4984  1.5564 -2.3401
  513SOL     OW 1537   3.000   1.136   2.986  0.0315  0.6039 -0.3292
  513SOL    HW1 1538   3.089   1.103   2.953  0.9727  1.2566  3.1330
  513SOL    HW2 1539   3.005   1.228   3.028 -0.5436 -1.6379 -0.0251
  514SOL     OW 1540   0.343   2.073   2.988 -0.1717  0.8531  0.0326
  514SOL    HW1 1541   0.265   2.060   2.924  2.4222  0.7478 -0.0210
  514SOL    HW2 1542   0.349   2.166   3.029  0.9532 -1.8073  0.5079
  515SOL     OW 1543   1.740   1.517   2.164 -0.6689 -0.1560  0.0043
  515SOL    HW1 1544   1.797   1.433   2.182 -2.4233  0.8842 -0.3156
  515SOL    HW2 1545   1.691   1.552   2.249 -0.3101 -2.9783 -0.0699
  516SOL     OW 1546   2.097   2.169   3.066  0.0299 -0.0012 -0.1164
  516SOL    HW1 1547   2.135   2.242   3.004 -1.5228 -0.6824 -3.1536
  516SOL    HW2 1548   2.128   2.075   3.039 -0.8285  0.7440  0.1904
  517SOL     OW 1549   1.611   1.205   0.237  0.4195  0.5365 -0.2248
  517SOL    HW1 1550   1.645   1.183   0.328 -2.4413 -2.8501 -3.6018
  517SOL    HW2 1551   1.609   1.122   0.176 -0.5682 -3.3094  1.3788
  518SOL     OW 1552   2.322   2.818   1.996  0.6386 -0.5807  0.0277
  518SOL    HW1 1553   2.318   2.762   2.082 -0.0253 -0.6758 -0.1613
  518SOL    HW2 1554   2.346   2.765   1.917  1.1836  5.7484  0.3270
  519SOL     OW 1555   1.610   2.444   1.681 -0.4529  0.0061  0.1645
  519SOL    HW1 1556   1.575   2.363   1.632  1.1034  1.7668  0.3214
  519SOL    HW2 1557   1.534   2.505   1.708  0.0716 -0.8153 -0.7218
  520SOL     OW 1558   2.558   2.765   2.755 -0.1443 -0.0148 -0.2482
  520SOL    HW1 1559   2.550   2.855   2.803  0.7424 -0.6740  1.6049
  520SOL    HW2 1560   2.466   2.729   2.742  1.7935 -2.2323  1.8021
  521SOL     OW 1561   0.154   1.129   2.034 -0.0469 -0.1857  0.1953
  521SOL    HW1 1562   0.105   1.209   2.072 -0.0139 -1.3442  0.4282
  521SOL    HW2 1563   0.241   1.121   2.080 -2.0567  0.1270 -0.5077
  522SOL     OW 1564   0.946   0.354   1.784 -0.0558  0.7967  0.4475
  522SOL    HW1 1565   0.923   0.323   1.880 -0.3611  1.3515  2.4975
  522SOL    HW2 1566   0.862   0.378   1.732 -0.2072 -0.8403 -2.0394
  523SOL     OW 1567   0.603   2.313   0.891  0.2293 -0.0676  0.1340
  523SOL    HW1 1568   0.662   2.291   0.810  0.1749 -0.6256 -0.9257
  523SOL    HW2 1569   0.507   2.299   0.870  0.7157  0.4448  1.0702
  524SOL     OW 1570   1.503   2.540   0.603  0.1149  0.3925 -0.0910
  524SOL    HW1 1571   1.523   2.603   0.681 -2.6157  1.2146  1.6616
  524SOL    HW2 1572   1.524   2.446   0.633 -1.5011 -2.2486  0.2986
  525SOL     OW 1573   2.333   0.716   1.182 -0.3245  0.2217  0.1887
  525SOL    HW1 1574   2.378   0.771   1.256 -1.7114  0.4684  0.8237
  525SOL    HW2 1575   2.300   0.780   1.109 -0.1245 -0.9848  1.6708
  526SOL     OW 1576   0.896   2.504   0.731  0.3182 -0.5607 -0.2462
  526SOL    HW1 1577   0.866   2.513   0.632 -0.1337  1.4137  0.7638
  526SOL    HW2 1578   0.828   2.555   0.791 -0.0366 -3.0530  0.3599
  527SOL     OW 1579   2.524   2.080   0.449  0.2472  0.2405 -0.0889
  527SOL    HW1 1580   2.541   1.997   0.505  0.0860 -0.8700  2.2163
  527SOL    HW2 1581   2.429   2.112   0.451  0.8780 -0.3356  0.6853
  528SOL     OW 1582   2.303   0.703   0.435 -0.8018 -0.5248 -0.3916
  528SOL    HW1 1583   2.283   0.788   0.383 -0.7403 -2.3554 -0.1602
  528SOL    HW2 1584   2.219   0.648   0.434  0.1328 -0.7412  0.3376
  529SOL     OW 1585   1.138   1.271   2.290 -0.0759 -0.1929 -0.5415
  529SOL    HW1 1586   1.059   1.292   2.350  0.0397 -1.5388  0.7482
  529SOL    HW2 1587   1.185   1.357   2.261  1.9574  1.3301  1.4044
  530SOL     OW 1588   2.609   0.681   0.117  0.0604 -0.0869 -0.1029
  530SOL    HW1 1589   2.661   0.685   0.032 -1.7078  2.3482 -1.0692
  530SOL    HW2 1590   2.620   0.765   0.176 -1.3761  1.0976  0.6669
  531SOL     OW 1591   1.219   1.013   0.203  0.8539 -0.0633 -0.0631
  531SOL    HW1 1592   1.120   0.984   0.185 -1.7050 -1.6173  0.3777
  531SOL    HW2 1593   1.278   0.995   0.125 -0.8367  1.0163  1.0317
  532SOL     OW 1594   1.868   0.146   0.562 -0.2531  0.2453  0.1561
  532SOL    HW1 1595   1.857   0.084   0.643 -1.3885 -3.0855 -0.3307
  532SOL    HW2 1596   1.921   0.231   0.576  1.3870 -2.0271 -1.2772
  533SOL     OW 1597   1.376   1.144   2.326  0.0063  0.3742 -0.1047
  533SOL    HW1 1598   1.288   1.190   2.339  1.2192  0.3919 -2.6416
  533SOL    HW2 1599   1.403   1.151   2.223  1.2534  1.1707 -0.3691
  534SOL     OW 1600   2.044   0.223   2.642 -0.0030 -0.2508  0.3635
  534SOL    HW1 1601   2.094   0.309   2.630  0.8394  0.4537  1.6134
  534SOL    HW2 1602   2.103   0.143   2.639 -3.0548  1.3481 -1.4776
  535SOL     OW 1603   0.458   2.994   0.433  0.2522  0.3194  0.1423
  535SOL    HW1 1604   0.500   3.009   0.523 -0.9424 -0.4722 -3.7899
  535SOL    HW2 1605   0.528   2.974   0.362  1.5966  0.2293  1.4571
  536SOL     OW 1606   0.861   2.680   1.069  0.7442 -0.1314 -0.5832
  536SOL    HW1 1607   0.768   2.638   1.050  0.9639 -0.4151  3.2423
  536SOL    HW2 1608   0.884   2.665   1.166  2.1167  0.6960 -0.2956
  537SOL     OW 1609   1.501   1.051   1.211 -0.1764  0.5864 -0.0100
  537SOL    HW1 1610   1.491   0.950   1.174  0.6980 -1.3388  0.7148
  537SOL    HW2 1611   1.501   1.041   1.312  2.0777 -2.3926 -0.8451
  538SOL     OW 1612   2.535   2.473   0.260 -0.1660 -0.3873  0.6014
  538SOL    HW1 1613   2.619   2.532   0.278  2.2954 -1.8821  0.6068
  538SOL    HW2 1614   2.459   2.525   0.307  0.0672 -0.8948  0.1301
  539SOL     OW 1615   2.803   1.892   2.897  0.7558 -0.5392  0.2616
  539SOL    HW1 1616   2.742   1.817   2.929  0.5305  0.7386 -3.0079
  539SOL    HW2 1617   2.846   1.859   2.810 -1.6870 -1.4789 -0.2291
  540SOL     OW 1618   0.300   2.738   1.560  0.4124 -0.2406  0.1632
  540SOL    HW1 1619   0.224   2.674   1.538 -1.1702 -1.8433 -0.6537
  540SOL    HW2 1620   0.312   2.808   1.485 -0.6793 -3.2671  0.5348
  541SOL     OW 1621   2.449   3.048   1.867  0.2078  0.3977  0.3153
  541SOL    HW1 1622   2.494   0.009   1.937  0.7341  1.0102  1.6546
  541SOL    HW2 1623   2.386   2.984   1.919 -0.6472 -0.8220 -1.2622
  542SOL     OW 1624   2.814   0.585   2.317 -0.3671 -0.3095  0.2666
  542SOL    HW1 1625   2.753   0.668   2.315 -1.9884  5.6456 -0.2112
  542SOL    HW2 1626   2.866   0.563   2.231 -1.4800 -1.9910 -0.2241
  543SOL     OW 1627   1.001   0.366   0.589  0.5751 -0.2501  0.5267
  543SOL    HW1 1628   1.079   0.425   0.577 -1.8253 -1.4692 -1.6765
  543SOL    HW2 1629   1.010   0.278   0.536  0.9218 -2.9424 -2.5606
  544SOL     OW 1630   2.841   2.356   0.878 -0.2386 -0.4401 -0.2206
  544SOL    HW1 1631   2.904   2.333   0.802 -3.8653  2.1578 -0.0404
  544SOL    HW2 1632   2.752   2.313   0.865  2.6069  1.2910  2.1621
  545SOL     OW 1633   0.988   1.951   0.483  0.8347 -0.2108  0.3714
  545SOL    HW1 1634   0.964   1.931   0.386  0.2692 -0.6422 -0.8577
  545SOL    HW2 1635   1.060   1.882   0.508 -3.2464  0.6486 -1.8561
  546SOL     OW 1636   2.139   0.427   1.830 -0.2141  0.1047  0.3564
  546SOL    HW1 1637   2.112   0.330   1.838  0.4972  0.1135 -0.0201
  546SOL    HW2 1638   2.209   0.446   1.899  0.6931 -1.1713  0.1251
  547SOL     OW 1639   0.076   0.318   2.332  0.2744  0.1565  0.0907
  547SOL    HW1 1640   0.078   0.415   2.365 -1.1569  0.2913 -0.7253
  547SOL    HW2 1641   0.089   0.249   2.408  0.8690  0.4867 -1.5906
  548SOL     OW 1642   2.110   1.745   2.384 -0.1499 -0.0585  0.4456
  548SOL    HW1 1643   2.087   1.646   2.377  1.3942  0.7370  0.9341
  548SOL    HW2 1644   2.207   1.754   2.409  1.2618 -0.7505 -1.6160
  549SOL     OW 1645   0.076   0.725   0.824 -0.1945 -0.1462 -0.0305
  549SOL    HW1 1646   0.079   0.791   0.750 -1.8181 -2.6847  0.0930
  549SOL    HW2 1647   0.121   0.771   0.903 -0.0650  0.0280 -0.2897
  550SOL     OW 1648   1.562   1.307   0.609 -0.4280 -0.6723 -0.4212
  550SOL    HW1 1649   1.496   1.228   0.614 -1.2517  0.9237 -0.3103
  550SOL    HW2 1650   1.576   1.339   0.513  0.1009  3.4757  0.0304
  551SOL     OW 1651   1.087   0.239   1.163  0.3552 -0.2656 -0.2134
  551SOL    HW1 1652   0.988   0.224   1.134 -1.0748  0.3146 -0.0626
  551SOL    HW2 1653   1.140   0.279   1.080  0.8054  1.8144 -1.2768
  552SOL     OW 1654   2.600   2.571   1.924  0.7031  0.0611 -0.1203
  552SOL    HW1 1655   2.500   2.585   1.902 -0.0556  0.1343  0.8015
  552SOL    HW2 1656   2.614   2.567   2.024 -1.5471  0.3125  3.5839
  553SOL     OW 1657   3.077   3.057   2.967  0.4193  0.1168 -0.4278
  553SOL    HW1 1658   2.997   3.003   2.938  0.3912  0.1160 -1.4263
  553SOL    HW2 1659   0.066   3.015   2.934 -0.9414 -2.3786  1.9104
  554SOL     OW 1660   0.998   2.750   1.576  0.1509  0.3461 -0.9066
  554SOL    HW1 1661   1.027   2.661   1.623 -0.4035 -1.0335  1.2456
  554SOL    HW2 1662   1.035   2.829   1.629  2.4996 -3.3939  1.4956
  555SOL     OW 1663   2.535   2.775   1.549 -0.0069  0.2715  0.1418
  555SOL    HW1 1664   2.576   2.776   1.646 -0.9197  1.5328  1.1502
  555SOL    HW2 1665   2.602   2.743   1.482 -3.2205  1.1183  0.0129
  556SOL     OW 1666   1.034   0.098   2.899  0.4651 -0.1280 -0.0080
  556SOL    HW1 1667   1.082   0.106   2.811  0.4115  0.6206  1.0811
  556SOL    HW2 1668   1.093   0.145   2.968  1.6204  1.2143 -0.3551
  557SOL     OW 1669   0.235   1.982   2.341  0.0150  0.3748  0.4513
  557SOL    HW1 1670   0.255   1.882   2.328 -0.5397 -1.4092  0.1185
  557SOL    HW2 1671   0.134   1.991   2.336 -0.0542  2.0281  2.4615
  558SOL     OW 1672   2.267   1.201   2.699 -0.1747  0.1437 -0.2584
  558SOL    HW1 1673   2.335   1.221   2.773 -0.6263  1.3026 -0.5448
  558SOL    HW2 1674   2.247   1.294   2.652 -1.3682  0.0662 -1.5827
  559SOL     OW 1675   2.448   2.266   2.098  0.3058 -0.1635  0.2323
  559SOL    HW1 1676   2.544   2.230   2.107 -0.6782 -0.8936 -2.1070
  559SOL    HW2 1677   2.402   2.226   2.019  2.3233  0.4347 -0.6300
  560SOL     OW 1678   0.106   0.571   2.420 -0.0669 -0.1249  0.2036
  560SOL    HW1 1679   0.133   0.577   2.520  0.1266 -2.9489  1.1137
  560SOL    HW2 1680   0.041   0.648   2.404 -0.5562  1.8325  0.3339
  561SOL     OW 1681   0.772   0.446   0.393  0.6563  0.5334 -0.0040
  561SOL    HW1 1682   0.803   0.385   0.469  0.1939  0.3976 -0.7477
  561SOL    HW2 1683   0.801   0.547   0.400  0.2213 -0.1543  1.9177
  562SOL     OW 1684   0.791   1.412   1.632 -0.3811  0.2691  0.0025
  562SOL    HW1 1685   0.736   1.476   1.578 -3.3430  0.7709  0.3237
  562SOL    HW2 1686   0.739   1.330   1.661  2.9970  0.0256 -2.5478
  563SOL     OW 1687   1.453   2.781   0.078  0.2920 -0.0755 -0.1472
  563SOL    HW1 1688   1.415   2.821   0.165  0.6672  2.7971  0.6347
  563SOL    HW2 1689   1.391   2.799   3.093  1.5970  0.1221 -1.6610
  564SOL     OW 1690   0.067   2.007   0.530  0.3375 -0.4558  0.1929
  564SOL    HW1 1691   0.145   1.951   0.498 -3.4257 -1.3620  1.7333
  564SOL    HW2 1692   0.052   1.996   0.631  3.6494  2.1846  0.0337
  565SOL     OW 1693   0.571   2.325   2.403  0.1192  0.2038 -0.2438
  565SOL    HW1 1694   0.613   2.315   2.499  2.4301  1.0228  1.1073
  565SOL    HW2 1695   0.620   2.400   2.354 -1.4051 -1.3197  0.2779
  566SOL     OW 1696   1.429   2.694   2.273 -0.1664  0.1882  0.0389
  566SOL    HW1 1697   1.474   2.635   2.346  2.6012 -2.8014  0.0617
  566SOL    HW2 1698   1.412   2.642   2.187 -0.7651 -0.8740 -0.4173
  567SOL     OW 1699   2.122   1.976   1.135  0.0751 -0.2432  0.3553
  567SOL    HW1 1700   2.091   2.028   1.055 -2.0894  0.6426 -0.6734
  567SOL    HW2 1701   2.103   2.014   1.230 -3.3385 -1.0074  1.2878
  568SOL     OW 1702   2.156   0.794   0.178 -0.8296  0.3055  0.1184
  568SOL    HW1 1703   2.129   0.750   0.092  0.9847  0.0303  2.5940
  568SOL    HW2 1704   2.086   0.779   0.250  0.6303 -1.5635 -0.9006
  569SOL     OW 1705   3.035   1.162   2.591  0.2976 -0.6932 -0.3147
  569SOL    HW1 1706   2.998   1.257   2.610  0.7841  0.4718  0.7668
  569SOL    HW2 1707   3.039   1.103   2.672  1.7368  0.3528 -0.2418
  570SOL     OW 1708   2.982   2.956   1.334  0.2110  0.0949  0.1261
  570SOL    HW1 1709   2.983   3.040   1.396 -2.3329  0.4366 -0.7362
  570SOL    HW2 1710   2.999   2.868   1.387  1.0625  0.2915  1.6884
  571SOL     OW 1711   0.159   0.524   1.740 -0.0104 -0.1280 -0.3643
  571SOL    HW1 1712   0.157   0.425   1.759 -4.7894 -2.5346 -0.2507
  571SOL    HW2 1713   0.251   0.557   1.713 -2.4492  0.6871  0.4684
  572SOL     OW 1714   3.019   2.268   0.666 -0.3185 -0.0262  0.3863
  572SOL    HW1 1715   0.010   2.293   0.620  0.0166 -1.2272  0.8270
  572SOL    HW2 1716   3.037   2.184   0.719  1.0671 -0.3455 -2.3452
  573SOL     OW 1717   0.759   0.643   0.076 -0.0530  0.3670  0.1198
  573SOL    HW1 1718   0.694   0.574   0.027 -1.4657 -0.8221  1.2153
  573SOL    HW2 1719   0.711   0.681   0.159 -0.5200 -1.0325  2.9672
  574SOL     OW 1720   2.493   2.542   0.004  0.2638  0.1532 -0.3161
  574SOL    HW1 1721   2.536   2.634   0.011  1.0157 -2.4270 -0.6781
  574SOL    HW2 1722   2.511   2.481   0.084  2.0311 -1.8701  2.7012
  575SOL     OW 1723   1.077   1.773   1.384  0.0773 -0.3610  0.5468
  575SOL    HW1 1724   1.089   1.729   1.289 -0.5407  1.8758 -0.3623
  575SOL    HW2 1725   1.103   1.872   1.373  0.9088 -1.3682 -0.5622
  576SOL     OW 1726   0.168   2.928   1.351  0.0420 -0.0462  0.1788
  576SOL    HW1 1727   0.184   2.990   1.433  3.0506 -0.5635  1.2064
  576SOL    HW2 1728   0.075   2.945   1.318 -1.5110  2.0679  0.8715
  577SOL     OW 1729   1.932   1.346   1.559 -0.1959  0.0016 -0.4601
  577SOL    HW1 1730   1.925   1.407   1.642  0.7992 -2.3346  1.9692
  577SOL    HW2 1731   1.852   1.288   1.540  0.6452 -0.3856 -0.6235
  578SOL     OW 1732   1.502   0.009   0.304 -0.5846 -0.5126 -0.2032
  578SOL    HW1 1733   1.602   3.096   0.316  0.4070  2.3654 -0.4986
  578SOL    HW2 1734   1.479   0.064   0.223  2.7499 -1.2189  0.6209
  579SOL     OW 1735   2.839   1.613   2.540  0.3228  0.0932  0.3135
  579SOL    HW1 1736   2.890   1.530   2.561  0.1603  2.5505 -1.0357
  579SOL    HW2 1737   2.836   1.625   2.441  2.2862 -1.6222 -1.1313
  580SOL     OW 1738   1.373   0.784   1.523 -0.2847 -0.0524  0.0412
  580SOL    HW1 1739   1.423   0.814   1.609  1.0359 -0.0729  2.7231
  580SOL    HW2 1740   1.408   0.691   1.502  1.0940  1.5439  0.0469
  581SOL     OW 1741   0.687   1.547   1.410 -0.0270 -0.0032 -0.6409
  581SOL    HW1 1742   0.588   1.554   1.384 -1.2644 -1.0738 -0.3762
  581SOL    HW2 1743   0.726   1.626   1.456  3.7074 -0.8788 -0.2264
  582SOL     OW 1744   2.894   0.059   1.868 -0.6051  0.7182  0.1249
  582SOL    HW1 1745   2.901   0.054   1.969 -0.5255  0.9698  0.9996
  582SOL    HW2 1746   2.833   0.135   1.843  0.9770 -0.9688  0.3197
  583SOL     OW 1747   2.204   0.946   1.601 -0.2482  0.2551  0.1618
  583SOL    HW1 1748   2.186   0.846   1.611 -1.9447 -1.3806 -1.3056
  583SOL    HW2 1749   2.211   0.991   1.691  1.2943 -2.1270 -2.6400
  584SOL     OW 1750   1.396   2.115   2.980  0.1595 -0.0994 -0.4960
  584SOL    HW1 1751   1.373   2.063   2.896  0.4564  0.6050 -0.3227
  584SOL    HW2 1752   1.342   2.200   2.976  0.7931  0.0574 -0.7679
  585SOL     OW 1753   0.632   2.782   0.347 -0.6440  0.8070 -0.2293
  585SOL    HW1 1754   0.545   2.773   0.294 -0.2715 -3.0379 -1.0304
  585SOL    HW2 1755   0.705   2.738   0.295 -1.4835  2.3263  1.1459
  586SOL     OW 1756   1.968   2.554   2.612 -0.2863 -0.1540 -0.3410
  586SOL    HW1 1757   1.904   2.498   2.666 -0.6214  1.3222 -1.2671
  586SOL    HW2 1758   1.987   2.505   2.523 -1.1135 -1.0446 -1.0889
  587SOL     OW 1759   2.585   1.590   0.453  0.0055  0.1270 -0.0584
  587SOL    HW1 1760   2.638   1.654   0.399 -3.0409 -2.2002  0.7737
  587SOL    HW2 1761   2.502   1.644   0.479 -1.1172  0.9748  1.2551
  588SOL     OW 1762   2.108   0.274   1.147 -0.0665 -0.3345 -0.3541
  588SOL    HW1 1763   2.034   0.221   1.103 -1.9529 -2.9075  3.0925
  588SOL    HW2 1764   2.193   0.257   1.096 -0.1260  1.2005 -1.7909
  589SOL     OW 1765   1.136   0.680   0.481  0.0099  0.4227 -0.3521
  589SOL    HW1 1766   1.208   0.608   0.470  1.5292 -2.6533  2.4044
  589SOL    HW2 1767   1.080   0.698   0.399  2.2517  0.4760 -1.2354
  590SOL     OW 1768   2.539   1.956   0.129  0.2882 -0.0256  0.2311
  590SOL    HW1 1769   2.510   1.930   0.034 -0.0585  2.8560  1.1692
  590SOL    HW2 1770   2.515   2.055   0.146 -2.0560  3.4009  0.6505
  591SOL     OW 1771   0.079   2.575   1.547  0.5811  0.5023 -0.3041
  591SOL    HW1 1772   0.070   2.502   1.474  3.4946 -0.2710  1.6913
  591SOL    HW2 1773   0.069   2.528   1.636  1.6818  1.7583  0.5285
  592SOL     OW 1774   0.768   1.024   1.205 -0.0160  0.1267  0.3382
  592SOL    HW1 1775   0.703   1.083   1.253  0.9487 -1.1478  0.0221
  592SOL    HW2 1776   0.855   1.008   1.257  1.0560  0.8497  0.1499
  593SOL     OW 1777   0.872   1.462   1.215 -0.1903  0.1158  0.4520
  593SOL    HW1 1778   0.933   1.384   1.239  2.1153  0.2995 -2.3675
  593SOL    HW2 1779   0.820   1.504   1.289 -2.7895  1.2884 -1.5589
  594SOL     OW 1780   0.526   1.814   3.046  0.1591  0.3994  0.4505
  594SOL    HW1 1781   0.452   1.793   2.980 -1.3272 -0.4577 -1.1458
  594SOL    HW2 1782   0.498   1.867   0.028  0.7652  0.4153  1.8537
  595SOL     OW 1783   1.450   0.288   1.193 -0.0833 -0.6927 -0.1261
  595SOL    HW1 1784   1.357   0.307   1.229  0.5417  2.7761 -0.9074
  595SOL    HW2 1785   1.522   0.278   1.264  3.6013 -1.7300 -3.1670
  596SOL     OW 1786   0.027   1.384   0.845  0.1598 -0.0497 -0.3541
  596SOL    HW1 1787   3.080   1.296   0.862 -3.9989  1.0957 -1.0489
  596SOL    HW2 1788   0.056   1.386   0.747  0.8637 -1.2367 -0.7609
  597SOL     OW 1789   0.110   2.542   2.873  0.0259  0.5137  0.0814
  597SOL    HW1 1790   0.018   2.536   2.828  0.5723 -1.5129 -1.0681
  597SOL    HW2 1791   0.095   2.546   2.974 -0.1760  0.9827 -0.9897
  598SOL     OW 1792   2.503   1.946   2.083  1.0223 -0.3871  0.3868
  598SOL    HW1 1793   2.507   1.993   2.173  4.7980 -0.2531 -1.7391
  598SOL    HW2 1794   2.518   2.001   2.000  2.4679 -1.3046  3.2215
  599SOL     OW 1795   1.097   0.294   0.232 -0.0364  0.2014  0.0576
  599SOL    HW1 1796   1.052   0.350   0.158 -0.4688  1.9483  0.5721
  599SOL    HW2 1797   1.027   0.273   0.302  0.3328  1.0261  1.8949
  600SOL     OW 1798   0.530   2.601   0.553 -0.4961 -0.4075  0.0766
  600SOL    HW1 1799   0.561   2.661   0.481 -0.6272 -1.8295  1.6592
  600SOL    HW2 1800   0.565   2.505   0.525 -0.9957 -2.7337 -2.8017
  601SOL     OW 1801   0.427   0.915   1.239 -0.4294 -0.0540 -0.0461
  601SOL    HW1 1802   0.447   0.984   1.171  0.4379 -1.6399  3.0664
  601SOL    HW2 1803   0.437   0.828   1.191 -2.7143 -2.3336 -0.7673
  602SOL     OW 1804   0.607   2.574   0.991 -0.3322  0.5529 -0.4431
  602SOL    HW1 1805   0.632   2.487   0.941  1.5594 -0.1119 -1.2431
  602SOL    HW2 1806   0.524   2.574   1.054  0.3128 -0.3497  2.4624
  603SOL     OW 1807   0.997   3.041   2.258  0.0465 -0.2944 -0.1143
  603SOL    HW1 1808   0.903   3.016   2.287 -1.0330  0.8822  1.6333
  603SOL    HW2 1809   1.034   2.977   2.190 -0.8952  3.0762  0.8381
  604SOL     OW 1810   0.725   2.773   2.173  0.0693 -0.4505  0.4249
  604SOL    HW1 1811   0.717   2.840   2.247 -1.7715  0.3740  0.1131
  604SOL    HW2 1812   0.762   2.820   2.093  0.4219 -2.2419 -0.5286
  605SOL     OW 1813   1.753   0.779   2.343  0.4206  0.2276 -0.8645
  605SOL    HW1 1814   1.782   0.860   2.289 -2.3065  1.6959  2.0752
  605SOL    HW2 1815   1.649   0.778   2.362  1.4620 -0.1877 -0.0507
  606SOL     OW 1816   2.363   0.167   2.925  0.1755  0.2764 -0.0552
  606SOL    HW1 1817   2.271   0.195   2.948  2.1693 -0.7259 -1.2073
  606SOL    HW2 1818   2.384   0.216   2.836  0.0546  0.5639 -0.7088
  607SOL     OW 1819   0.847   0.579   1.232  0.1556  0.3935 -0.5803
  607SOL    HW1 1820   0.860   0.591   1.132  1.8582 -2.0845 -0.8582
  607SOL    HW2 1821   0.801   0.660   1.272  1.7403  0.5644 -1.8902
  608SOL     OW 1822   3.060   1.980   2.278 -0.2424 -0.1064 -0.8623
  608SOL    HW1 1823   3.049   2.031   2.192  1.8609 -1.2486  2.2381
  608SOL    HW2 1824   2.978   1.978   2.335  2.4690 -1.9765 -1.9037
  609SOL     OW 1825   1.767   0.749   3.068 -0.4698 -0.5729  0.0168
  609SOL    HW1 1826   1.795   0.702   0.055  0.5522 -0.2709 -2.2145
  609SOL    HW2 1827   1.691   0.812   0.001  0.4796 -0.0614 -1.9819
  610SOL     OW 1828   0.720   0.374   1.335  0.0018 -0.2609  0.0876
  610SOL    HW1 1829   0.768   0.284   1.330  2.2381 -0.9054 -2.3428
  610SOL    HW2 1830   0.779   0.442   1.291 -0.6205  0.8493 -2.8644
  611SOL     OW 1831   1.627   0.551   0.441 -0.6382 -0.6848  0.0343
  611SOL    HW1 1832   1.605   0.526   0.537 -0.6231 -0.5167  1.6161
  611SOL    HW2 1833   1.628   0.466   0.386  1.4292  0.4628 -2.4423
  612SOL     OW 1834   1.752   0.578   2.850 -0.0056  0.0922  0.2697
  612SOL    HW1 1835   1.830   0.612   2.788 -0.8837 -2.1163  2.1348
  612SOL    HW2 1836   1.744   0.644   2.929  1.7371  2.5429 -0.7918
  613SOL     OW 1837   2.419   0.801   0.683  0.2240  0.1315 -0.3959
  613SOL    HW1 1838   2.347   0.766   0.617 -0.5484  0.1615  1.1914
  613SOL    HW2 1839   2.476   0.723   0.712 -1.5714  3.0053 -3.4457
  614SOL     OW 1840   2.581   0.091   2.069  0.9843  0.6526 -0.2176
  614SOL    HW1 1841   2.523   0.153   2.126 -1.1842 -1.8254 -1.3179
  614SOL    HW2 1842   2.661   0.053   2.121 -0.7153 -0.4715  2.4423
  615SOL     OW 1843   0.571   1.802   1.149  0.5398  0.0052  0.3550
  615SOL    HW1 1844   0.640   1.859   1.203 -0.1133  0.2668  1.2201
  615SOL    HW2 1845   0.484   1.851   1.133 -0.0867 -0.1894 -0.6785
  616SOL     OW 1846   1.421   1.594   2.679  0.4508 -0.0591  0.3672
  616SOL    HW1 1847   1.418   1.683   2.623 -2.7880  0.9046  1.1022
  616SOL    HW2 1848   1.438   1.514   2.621 -0.7389  0.9045 -0.1269
  617SOL     OW 1849   1.688   0.010   3.044 -0.2844  0.3688  0.7976
  617SOL    HW1 1850   1.699   3.007   3.050  0.3503  0.1327 -0.5898
  617SOL    HW2 1851   1.590   0.022   3.010  0.2120  1.5826 -0.1638
  618SOL     OW 1852   1.410   2.136   2.574 -0.4328 -0.4169 -0.4378
  618SOL    HW1 1853   1.419   2.142   2.472  0.4103  1.8969 -2.8327
  618SOL    HW2 1854   1.391   2.038   2.603  0.7203  0.0878  0.7697
  619SOL     OW 1855   2.560   1.354   0.800  0.1139 -0.1226  0.3661
  619SOL    HW1 1856   2.639   1.400   0.755  1.2636 -2.1153 -1.2572
  619SOL    HW2 1857   2.540   1.260   0.766 -0.2231 -0.7295  1.2835
  620SOL     OW 1858   2.075   3.041   2.377 -0.1215 -0.4481 -0.2804
  620SOL    HW1 1859   1.973   3.039   2.403 -0.3085  1.2682 -1.1701
  620SOL    HW2 1860   2.125   2.960   2.411  1.8669 -0.4004 -0.5412
  621SOL     OW 1861   2.925   1.277   0.541  0.6077  1.0638  0.3628
  621SOL    HW1 1862   2.923   1.189   0.596  0.6173  1.7844 -0.1413
  621SOL    HW2 1863   3.004   1.329   0.574  0.7831  2.2756  0.6878
  622SOL     OW 1864   1.352   2.117   2.290 -0.3828 -0.7135  0.0244
  622SOL    HW1 1865   1.281   2.055   2.334 -0.6801 -3.5410  0.4798
  622SOL    HW2 1866   1.389   2.069   2.209 -0.8832 -1.3459 -1.3233
  623SOL     OW 1867   0.457   2.710   2.557 -0.2486  0.7209  0.4931
  623SOL    HW1 1868   0.426   2.705   2.457  2.3191  2.9007 -1.1640
  623SOL    HW2 1869   0.559   2.689   2.564  0.0512  0.2491 -0.5588
  624SOL     OW 1870   0.954   2.696   2.774  0.1263 -0.6056  0.0714
  624SOL    HW1 1871   1.015   2.725   2.697  3.4946  2.7720 -2.3858
  624SOL    HW2 1872   0.976   2.751   2.856 -0.4958  2.1387 -2.9834
  625SOL     OW 1873   0.422   2.101   2.492  0.0697  0.0374  0.1595
  625SOL    HW1 1874   0.486   2.146   2.426 -1.3327  0.2817  0.1893
  625SOL    HW2 1875   0.341   2.064   2.453  1.5567  1.7032  1.6273
  626SOL     OW 1876   0.163   0.329   3.089 -0.3345 -0.6332  0.3036
  626SOL    HW1 1877   0.080   0.283   0.027  0.9866  3.1632 -2.5624
  626SOL    HW2 1878   0.146   0.357   2.992  1.3721  1.4087 -0.3606
  627SOL     OW 1879   1.884   1.731   3.064  0.4668  0.4439 -0.1125
  627SOL    HW1 1880   1.907   1.657   3.002 -1.3064  0.9720  1.3774
  627SOL    HW2 1881   1.967   1.775   3.095 -0.3950  0.3079 -1.1584
  628SOL     OW 1882   1.308   1.435   2.885 -0.0778  0.2194  0.1503
  628SOL    HW1 1883   1.358   1.347   2.886 -2.1930  0.3050 -2.7653
  628SOL    HW2 1884   1.366   1.504   2.834  2.1152  2.2711  1.2340
  629SOL     OW 1885   0.215   0.293   1.890  0.2422 -0.9200 -0.1046
  629SOL    HW1 1886   0.208   0.200   1.934  1.1072  1.4032 -0.1714
  629SOL    HW2 1887   0.279   0.349   1.944 -0.1917 -1.5673 -1.0309
  630SOL     OW 1888   2.213   0.969   1.898  0.2170 -0.4828  0.1972
  630SOL    HW1 1889   2.285   1.035   1.926 -1.0851 -0.9274  0.3316
  630SOL    HW2 1890   2.223   0.879   1.939  3.4711  1.4943  2.2118
  631SOL     OW 1891   1.592   0.058   0.770 -0.1401  0.1652 -0.3339
  631SOL    HW1 1892   1.548   0.143   0.733  0.6188 -1.1754  0.6263
  631SOL    HW2 1893   1.533   3.074   0.747 -2.9560  3.5880 -0.8661
  632SOL     OW 1894   2.850   0.978   1.647  0.3078  0.0094 -0.1715
  632SOL    HW1 1895   2.842   0.992   1.543 -1.5708 -0.6369 -2.9092
  632SOL    HW2 1896   2.831   0.877   1.670 -1.2714 -1.6623  1.2412
  633SOL     OW 1897   0.650   0.362   2.839 -0.1631 -0.0293  0.1145
  633SOL    HW1 1898   0.664   0.272   2.879  0.5658 -2.3636 -1.6094
  633SOL    HW2 1899   0.736   0.417   2.848 -1.2614  1.8317 -0.4958
  634SOL     OW 1900   0.388   2.486   2.917 -0.8867 -0.6142 -0.2444
  634SOL    HW1 1901   0.451   2.499   2.835  0.7633 -0.6856  1.1659
  634SOL    HW2 1902   0.288   2.482   2.888  1.3421 -1.3141 -1.6184
  635SOL     OW 1903   0.056   1.051   1.071  0.6181  0.1357  0.1383
  635SOL    HW1 1904   3.081   1.107   1.023  0.1927  1.4533 -1.5540
  635SOL    HW2 1905   0.134   1.022   1.014 -2.3127  1.5057  0.0072
  636SOL     OW 1906   2.940   1.290   0.261 -0.5847 -0.7097  0.5843
  636SOL    HW1 1907   2.983   1.380   0.246  1.2246  0.3073 -0.5886
  636SOL    HW2 1908   2.905   1.279   0.360  0.1970  0.7016 -0.1608
  637SOL     OW 1909   0.369   2.782   0.221 -0.8250 -0.1881  0.4773
  637SOL    HW1 1910   0.334   2.761   0.128  2.7345  0.6380  0.1948
  637SOL    HW2 1911   0.322   2.724   0.287  0.8493  1.2358 -0.7466
  638SOL     OW 1912   2.834   2.413   0.518  0.1680  0.3050 -1.0190
  638SOL    HW1 1913   2.886   2.365   0.589 -3.0247  0.3415  1.0142
  638SOL    HW2 1914   2.734   2.402   0.542  1.2851 -1.2428 -0.0049
  639SOL     OW 1915   1.557   0.894   0.099 -0.3827  0.2012 -0.3567
  639SOL    HW1 1916   1.478   0.935   0.052  0.3319  0.7965  2.2128
  639SOL    HW2 1917   1.526   0.848   0.184 -0.1293 -0.9053  1.6366
  640SOL     OW 1918   1.859   2.457   1.487  0.1107  0.2712 -0.3249
  640SOL    HW1 1919   1.785   2.405   1.525 -2.3766  2.4276 -0.7207
  640SOL    HW2 1920   1.880   2.430   1.392 -0.3233  2.1655  0.4161
  641SOL     OW 1921   0.154   3.035   0.797  0.0744  0.2838  0.2215
  641SOL    HW1 1922   0.153   0.016   0.726 -2.4931  1.1086 -0.3412
  641SOL    HW2 1923   0.113   3.056   0.890  0.2603 -0.7165 -0.6501
  642SOL     OW 1924   1.438   0.872   1.760  0.0033  0.1862 -0.0715
  642SOL    HW1 1925   1.504   0.814   1.808 -0.8050 -0.3321  0.5628
  642SOL    HW2 1926   1.392   0.938   1.823  1.3915 -0.4107 -3.4151
  643SOL     OW 1927   0.870   2.444   2.470  0.5113  0.6676 -1.1078
  643SOL    HW1 1928   0.839   2.499   2.549 -1.9680  0.1367  0.2560
  643SOL    HW2 1929   0.822   2.474   2.385 -0.5131  0.7722  0.0976
  644SOL     OW 1930   1.248   2.354   2.896  0.6094  0.3013  0.1567
  644SOL    HW1 1931   1.242   2.375   2.799 -0.7943 -3.7920  1.0410
  644SOL    HW2 1932   1.265   2.437   2.956  0.1197  2.5831  1.8226
  645SOL     OW 1933   1.458   1.531   2.011 -0.5548 -0.3659  0.5871
  645SOL    HW1 1934   1.550   1.522   2.055  0.6631 -0.3059 -1.1857
  645SOL    HW2 1935   1.460   1.468   1.925  0.6287 -3.5747 -3.1846
  646SOL     OW 1936   0.820   0.044   0.266 -0.0428  0.0209 -0.4595
  646SOL    HW1 1937   0.780   0.097   0.343  0.8500 -1.0533 -0.7522
  646SOL    HW2 1938   0.752   0.045   0.189  0.7432  1.0426  0.2032
  647SOL     OW 1939   0.880   3.074   0.692 -0.6916 -0.3829  0.0197
  647SOL    HW1 1940   0.833   3.009   0.627  0.2750 -1.3435 -0.7175
  647SOL    HW2 1941   0.893   3.033   0.788 -0.9267 -0.9744  2.4227
  648SOL     OW 1942   2.612   2.637   1.000 -0.2487  0.2665 -0.1540
  648SOL    HW1 1943   2.581   2.631   0.901  0.6584 -2.0939  0.1144
  648SOL    HW2 1944   2.701   2.590   1.011 -1.0998  1.2129 -0.0181
  649SOL     OW 1945   0.670   2.123   2.777  0.4371 -0.2396  0.0499
  649SOL    HW1 1946   0.602   2.045   2.767 -0.6840 -0.4830 -1.6887
  649SOL    HW2 1947   0.720   2.117   2.867  1.6850  1.3606  0.4340
  650SOL     OW 1948   2.130   1.768   2.104  0.2018  1.0052  0.7523
  650SOL    HW1 1949   2.130   1.793   2.205  0.6621  1.4673 -0.0151
  650SOL    HW2 1950   2.221   1.741   2.065  1.4764 -1.1401  0.6238
  651SOL     OW 1951   2.906   2.914   2.382 -0.1232  0.1974  0.1008
  651SOL    HW1 1952   3.005   2.946   2.370  1.3291  1.0036  1.3184
  651SOL    HW2 1953   2.884   2.843   2.308  0.2616  0.1568 -2.8206
  652SOL     OW 1954   2.816   1.784   0.534  0.4883  0.0386  0.9608
  652SOL    HW1 1955   2.758   1.840   0.593  1.5134  0.0127  2.6181
  652SOL    HW2 1956   2.776   1.776   0.440 -1.7703 -2.2409 -1.8688
  653SOL     OW 1957   2.454   0.549   0.974 -0.0477  0.2158  0.1545
  653SOL    HW1 1958   2.428   0.606   1.054  2.5752  1.5443  1.3464
  653SOL    HW2 1959   2.374   0.492   0.945  0.3069  1.0511 -0.2812
  654SOL     OW 1960   0.763   0.119   2.955 -0.0558  0.2743 -0.0997
  654SOL    HW1 1961   0.864   0.098   2.946  1.4505  2.4597  0.0467
  654SOL    HW2 1962   0.734   0.092   3.051  0.0770  1.2327  0.7439
  655SOL     OW 1963   0.859   0.144   1.420 -0.4129  0.4671  0.5047
  655SOL    HW1 1964   0.931   0.213   1.448  2.0193  0.7751  3.8589
  655SOL    HW2 1965   0.894   0.079   1.348  1.3267  1.7216  0.6343
  656SOL     OW 1966   0.237   2.733   1.987 -0.1464  0.1202  0.1163
  656SOL    HW1 1967   0.334   2.716   2.006 -2.5585  0.9307  1.5340
  656SOL    HW2 1968   0.219   2.790   1.904 -0.8904  2.9688  1.8839
  657SOL     OW 1969   2.436   0.541   0.270 -0.2106 -0.4568 -0.2351
  657SOL    HW1 1970   2.398   0.603   0.344 -1.5680  1.1500  1.3333
  657SOL    HW2 1971   2.501   0.587   0.206  0.3469  0.8020 -1.1182
  658SOL     OW 1972   1.818   1.508   1.153 -0.3153 -0.2452  0.1076
  658SOL    HW1 1973   1.858   1.415   1.166 -0.1653 -2.2628  1.2284
  658SOL    HW2 1974   1.879   1.578   1.118 -0.0561  0.6962 -0.8306
  659SOL     OW 1975   2.688   2.265   2.765 -0.3324 -0.5698 -0.1383
  659SOL    HW1 1976   2.674   2.368   2.772 -1.8709 -1.5852  0.4774
  659SOL    HW2 1977   2.706   2.215   2.854  2.1925  1.6956 -0.7680
  660SOL     OW 1978   1.212   0.172   0.011  0.1299 -0.2670  0.4102
  660SOL    HW1 1979   1.311   0.193   0.003 -2.3146 -3.6402 -0.4356
  660SOL    HW2 1980   1.170   0.224   0.088 -1.7615 -0.6738 -0.1337
  661SOL     OW 1981   2.303   0.072   0.457 -0.3278  0.5145 -0.1899
  661SOL    HW1 1982   2.214   0.046   0.407  0.3350 -0.8253 -0.8239
  661SOL    HW2 1983   2.356   0.152   0.412  2.1614  1.4115 -1.8104
  662SOL     OW 1984   0.472   0.236   1.037 -0.1248  0.0070 -0.2161
  662SOL    HW1 1985   0.569   0.243   1.021 -1.3035  0.3242 -1.4007
  662SOL    HW2 1986   0.418   0.239   0.948 -2.3446 -1.8745 -0.7850
  663SOL     OW 1987   1.457   0.106   2.365 -0.0999 -0.1032 -0.1838
  663SOL    HW1 1988   1.355   0.127   2.367 -1.6735 -1.2349  1.2813
  663SOL    HW2 1989   1.465   0.007   2.337 -0.5874  0.1610  0.4038
  664SOL     OW 1990   0.834   2.377   1.602  0.2182 -0.5273 -0.2414
  664SOL    HW1 1991   0.796   2.388   1.504 -1.7151 -2.0405 -0.7976
  664SOL    HW2 1992   0.931   2.400   1.604 -0.7447  2.7597 -1.3721
  665SOL     OW 1993   0.841   2.345   2.069  0.2302 -0.5964 -0.3281
  665SOL    HW1 1994   0.774   2.327   1.994  0.8206 -2.8392 -0.3217
  665SOL    HW2 1995   0.934   2.366   2.035 -0.3974 -1.8490  0.9701
  666SOL     OW 1996   0.239   2.902   2.603 -0.6284  0.4522 -0.1186
  666SOL    HW1 1997   0.158   2.892   2.539 -0.5371 -0.2215 -0.8225
  666SOL    HW2 1998   0.318   2.876   2.550 -2.7208 -0.0550  1.4520
  667SOL     OW 1999   1.479   1.470   1.536  0.0109  0.1488 -0.4152
  667SOL    HW1 2000   1.386   1.516   1.521 -3.6821  1.6798 -0.4180
  667SOL    HW2 2001   1.516   1.443   1.449 -3.3523  0.4287  1.3453
  668SOL     OW 2002   1.385   0.491   1.751 -0.0684 -0.5543 -0.2522
  668SOL    HW1 2003   1.393   0.391   1.767  1.4689  0.5841 -1.6018
  668SOL    HW2 2004   1.313   0.534   1.806  3.6314  1.9433  0.6222
  669SOL     OW 2005   2.653   2.371   1.319 -0.1579  0.1403  0.5531
  669SOL    HW1 2006   2.602   2.317   1.249 -0.4700  0.0078  0.9629
  669SOL    HW2 2007   2.603   2.352   1.404  0.2073 -0.4472 -0.8191
  670SOL     OW 2008   1.551   2.467   2.827 -0.4910 -0.4128  0.0458
  670SOL    HW1 2009   1.474   2.496   2.771  0.2631  1.2249  0.5126
  670SOL    HW2 2010   1.537   2.477   2.927 -0.9649 -0.0067 -1.4219
  671SOL     OW 2011   1.405   1.096   0.613  0.3971  0.4544 -0.3048
  671SOL    HW1 2012   1.394   1.054   0.703  0.7738 -3.2131 -1.5687
  671SOL    HW2 2013   1.338   1.053   0.542  1.2375  1.1688 -1.4617
  672SOL     OW 2014   0.036   1.019   2.394  0.8479  0.2304 -0.5012
  672SOL    HW1 2015   3.087   1.069   2.476  1.0758  1.3055  2.1085
  672SOL    HW2 2016   3.092   0.926   2.377  0.4888 -2.4922 -1.9599
  673SOL     OW 2017   0.068   2.014   1.515  0.0230 -0.5125  0.5110
  673SOL    HW1 2018   3.080   2.025   1.570 -0.3478 -1.9761 -1.4390
  673SOL    HW2 2019   0.072   1.919   1.477  2.0950 -1.9846 -1.8153
  674SOL     OW 2020   0.488   2.642   2.088  0.1859  0.2274  0.1886
  674SOL    HW1 2021   0.566   2.699   2.103 -0.4693 -1.1859 -1.0755
  674SOL    HW2 2022   0.503   2.582   2.010 -0.6956  1.1344  0.2335
  675SOL     OW 2023   0.739   1.084   1.664  0.0890  0.4243 -0.1661
  675SOL    HW1 2024   0.662   1.074   1.594  0.6727 -3.1952 -0.9334
  675SOL    HW2 2025   0.731   1.024   1.747 -0.8157  2.2087  3.5706
  676SOL     OW 2026   2.384   0.252   1.087 -0.0313 -0.7623  0.0622
  676SOL    HW1 2027   2.401   0.281   1.183 -0.7400 -1.2720 -1.9706
  676SOL    HW2 2028   2.463   0.197   1.051  0.4486  0.4943  0.6819
  677SOL     OW 2029   2.263   1.539   0.133  0.9108 -0.4117  0.1000
  677SOL    HW1 2030   2.181   1.508   0.184 -2.0136 -1.1826  0.3667
  677SOL    HW2 2031   2.273   1.489   0.045 -2.2301  0.8302  3.2484
  678SOL     OW 2032   2.761   0.709   1.201 -0.4957  0.1947 -0.2218
  678SOL    HW1 2033   2.700   0.729   1.124  2.3474 -2.2506 -0.4367
  678SOL    HW2 2034   2.844   0.764   1.195 -2.3150 -0.8974 -1.0256
  679SOL     OW 2035   2.467   0.283   0.363 -0.6949 -0.3543 -0.1369
  679SOL    HW1 2036   2.524   0.270   0.445  0.8996 -1.0673  0.7045
  679SOL    HW2 2037   2.476   0.376   0.323  0.2853  0.9977 -0.3789
  680SOL     OW 2038   0.255   1.744   2.067  0.7765 -0.0053 -0.0924
  680SOL    HW1 2039   0.324   1.677   2.038  0.5012  1.1301  0.8823
  680SOL    HW2 2040   0.232   1.724   2.163 -0.5240 -0.2522 -3.3937
  681SOL     OW 2041   2.411   1.981   1.177 -0.0925 -0.4460 -0.3549
  681SOL    HW1 2042   2.311   1.967   1.172 -0.8695  0.8711  1.1406
  681SOL    HW2 2043   2.464   1.903   1.140  0.4524  2.8292  0.3675
  682SOL     OW 2044   2.950   1.761   2.726  0.2932  0.1415 -0.3822
  682SOL    HW1 2045   2.903   1.715   2.645 -4.6876 -1.3935 -0.7239
  682SOL    HW2 2046   3.045   1.781   2.710  0.7687  0.1215 -0.9582
  683SOL     OW 2047   0.205   2.240   1.594  0.3372 -0.4811 -0.4509
  683SOL    HW1 2048   0.191   2.302   1.514  1.1312 -1.1273 -0.3783
  683SOL    HW2 2049   0.158   2.154   1.577  2.0041 -0.4661  1.7105
  684SOL     OW 2050   2.841   1.284   2.243 -0.8143 -0.4762 -0.5395
  684SOL    HW1 2051   2.822   1.211   2.171  1.5037 -1.8116 -0.7205
  684SOL    HW2 2052   2.940   1.293   2.257  0.3139  1.2475  2.5453
  685SOL     OW 2053   1.671   1.019   0.443 -0.1148  0.0480 -0.1478
  685SOL    HW1 2054   1.586   1.036   0.503 -0.4497 -0.0641  2.8927
  685SOL    HW2 2055   1.703   0.922   0.473 -0.6779 -2.3058  2.4155
  686SOL     OW 2056   0.386   0.242   0.754 -0.3027  0.7078  0.4189
  686SOL    HW1 2057   0.458   0.174   0.724 -1.9700  0.3335 -2.7780
  686SOL    HW2 2058   0.289   0.213   0.726 -5.2433  0.6020 -0.1771
  687SOL     OW 2059   1.291   1.932   2.770 -0.2221  0.4085 -0.2241
  687SOL    HW1 2060   1.197   1.974   2.774 -2.2889  0.2710  0.3369
  687SOL    HW2 2061   1.280   1.844   2.717  1.8885 -0.1703  1.1196
  688SOL     OW 2062   1.419   1.360   1.796  0.2242  0.5184  0.2936
  688SOL    HW1 2063   1.431   1.405   1.703  3.5805 -0.3774  0.3897
  688SOL    HW2 2064   1.332   1.304   1.799  2.0165  1.4314  2.8488
  689SOL     OW 2065   2.225   0.175   0.698 -0.2079  0.0749  0.3942
  689SOL    HW1 2066   2.260   0.129   0.614 -2.4188 -0.0699  1.4335
  689SOL    HW2 2067   2.230   0.102   0.766  1.1955  1.8702 -0.2444
  690SOL     OW 2068   0.149   1.496   1.061 -0.3030 -0.2229  0.3363
  690SOL    HW1 2069   0.084   1.461   0.987  0.4543  2.4481 -0.1464
  690SOL    HW2 2070   0.197   1.424   1.114  2.3831 -1.9638  1.7976
  691SOL     OW 2071   0.152   2.111   1.070 -0.1988  0.4807 -0.3622
  691SOL    HW1 2072   0.076   2.100   1.139  0.3476 -0.6450  0.9715
  691SOL    HW2 2073   0.176   2.208   1.058  2.3920  1.2218 -1.4753
  692SOL     OW 2074   2.031   0.556   1.489 -0.5931  0.4822  0.7504
  692SOL    HW1 2075   2.078   0.550   1.399 -0.3011 -1.7939  0.0122
  692SOL    HW2 2076   2.086   0.606   1.561 -0.9158  2.4159  2.2540
  693SOL     OW 2077   0.535   1.673   2.337 -0.0966 -0.1348 -0.0404
  693SOL    HW1 2078   0.571   1.742   2.273 -1.1607 -1.8607  1.7795
  693SOL    HW2 2079   0.552   1.698   2.436 -2.2990 -0.8964 -0.3898
  694SOL     OW 2080   1.598   1.463   1.284 -0.1283 -0.2756 -0.4000
  694SOL    HW1 2081   1.685   1.496   1.241 -0.3964  1.3348  0.4702
  694SOL    HW2 2082   1.516   1.495   1.237  0.2800  1.1592 -1.5959
  695SOL     OW 2083   1.059   1.317   0.506  0.2106 -0.4457  0.3643
  695SOL    HW1 2084   1.097   1.310   0.412  0.3116 -1.2506  2.3670
  695SOL    HW2 2085   0.988   1.393   0.514  1.5889 -0.8931 -0.0233
  696SOL     OW 2086   0.834   2.646   0.235  0.2928 -0.2290  0.4481
  696SOL    HW1 2087   0.802   2.590   0.156  0.5319 -0.5246 -0.5774
  696SOL    HW2 2088   0.911   2.709   0.207 -0.7358 -2.1160  1.4046
  697SOL     OW 2089   1.547   0.629   1.250  0.2982  0.2505 -0.5549
  697SOL    HW1 2090   1.640   0.662   1.269  1.7790 -3.9627  1.4307
  697SOL    HW2 2091   1.515   0.578   1.332 -0.1865  0.0444 -0.1575
  698SOL     OW 2092   1.752   1.757   2.025 -0.0148  0.5505  0.2789
  698SOL    HW1 2093   1.770   1.680   2.082 -3.6192  2.8952 -1.9650
  698SOL    HW2 2094   1.713   1.725   1.937  0.1320  0.8790 -0.3606
  699SOL     OW 2095   2.747   0.516   1.864  0.2836 -0.2024 -0.3678
  699SOL    HW1 2096   2.668   0.541   1.923 -2.0991  1.2412 -1.4928
  699SOL    HW2 2097   2.722   0.434   1.812  0.0265 -1.3717 -1.6836
  700SOL     OW 2098   1.271   2.242   0.543 -0.7097  0.1357 -0.1567
  700SOL    HW1 2099   1.336   2.216   0.469 -1.2043 -0.5570 -0.4704
  700SOL    HW2 2100   1.247   2.155   0.592 -0.3135 -1.3550 -1.4269
  701SOL     OW 2101   2.330   2.665   2.231 -0.3594  0.0596 -0.3935
  701SOL    HW1 2102   2.347   2.577   2.272  4.2068  2.6021  0.5610
  701SOL    HW2 2103   2.301   2.733   2.304 -1.4422  1.4850 -1.7294
  702SOL     OW 2104   0.788   2.870   0.558 -0.3730  0.0728 -0.1844
  702SOL    HW1 2105   0.763   2.809   0.634  1.7989  1.1324 -1.6147
  702SOL    HW2 2106   0.730   2.862   0.478 -0.5879 -0.9262  1.8909
  703SOL     OW 2107   2.132   3.047   2.101  0.3670 -0.3058 -0.2252
  703SOL    HW1 2108   2.186   2.968   2.072 -0.9294  2.3474 -1.5425
  703SOL    HW2 2109   2.134   3.041   2.206 -1.8724 -0.4495  1.7017
  704SOL     OW 2110   2.507   2.204   0.209 -0.4397 -0.1613 -0.0830
  704SOL    HW1 2111   2.516   2.148   0.292  0.7371 -0.3281 -0.2559
  704SOL    HW2 2112   2.524   2.304   0.236  2.3507  1.9792  0.5925
  705SOL     OW 2113   2.418   2.410   2.321 -0.7226 -0.5829 -0.4043
  705SOL    HW1 2114   2.489   2.379   2.386 -1.1847 -0.2680 -1.7211
  705SOL    HW2 2115   2.410   2.362   2.232 -2.4791 -1.1139 -0.1683
  706SOL     OW 2116   2.627   0.126   1.032 -0.1326  0.6119 -0.6703
  706SOL    HW1 2117   2.718   0.101   0.989  2.4042  1.1531  0.7503
  706SOL    HW2 2118   2.607   0.077   1.121 -0.8047 -1.0610  3.0532
  707SOL     OW 2119   0.738   0.294   2.488  0.0942 -0.3126 -0.6096
  707SOL    HW1 2120   0.763   0.206   2.537  1.4107 -2.7643 -2.6739
  707SOL    HW2 2121   0.683   0.359   2.543 -1.4226  0.9224  1.8922
  708SOL     OW 2122   0.363   2.040   1.699 -0.0939  1.1049 -0.4385
  708SOL    HW1 2123   0.312   2.124   1.681  1.3986 -2.0080 -0.4669
  708SOL    HW2 2124   0.297   1.973   1.750  1.5933 -1.8191 -1.4898
  709SOL     OW 2125   1.363   0.234   1.800 -0.3535 -0.2297  0.1987
  709SOL    HW1 2126   1.440   0.166   1.802 -0.4601  1.7792 -0.3706
  709SOL    HW2 2127   1.329   0.254   1.895 -3.7787  1.9587  1.4161
  710SOL     OW 2128   1.557   2.848   2.540  0.1260  0.0373  0.2177
  710SOL    HW1 2129   1.623   2.890   2.600  1.6425  1.4676  1.1724
  710SOL    HW2 2130   1.539   2.893   2.454 -0.0114 -1.8718 -1.0266
  711SOL     OW 2131   0.896   2.229   2.633 -0.3857 -0.3807 -0.4969
  711SOL    HW1 2132   0.812   2.214   2.690 -0.5705 -0.9680 -0.6095
  711SOL    HW2 2133   0.886   2.307   2.568 -0.6653 -1.6251  4.2485
  712SOL     OW 2134   1.051   2.057   2.787  0.2322 -0.0812  0.0638
  712SOL    HW1 2135   1.036   2.121   2.712  1.8770 -2.5362  1.2370
  712SOL    HW2 2136   1.038   2.101   2.880 -0.6401  2.6813  1.7570
  713SOL     OW 2137   2.070   1.190   2.043  0.2460  0.1293 -0.4854
  713SOL    HW1 2138   2.106   1.276   1.993  0.3632  0.3711  1.1765
  713SOL    HW2 2139   2.086   1.110   1.980 -1.5593  0.8492 -0.7536
  714SOL     OW 2140   0.765   1.259   2.117 -0.2992 -0.3420  0.0622
  714SOL    HW1 2141   0.688   1.229   2.055 -0.1768  1.1956 -0.4203
  714SOL    HW2 2142   0.806   1.179   2.168  1.1581 -1.2293 -0.5570
  715SOL     OW 2143   2.842   0.470   0.322  0.5268  0.2598 -0.4349
  715SOL    HW1 2144   2.889   0.427   0.401  3.6069 -0.1800  1.2732
  715SOL    HW2 2145   2.778   0.545   0.354 -0.2327  2.4851  1.1396
  716SOL     OW 2146   2.966   2.745   1.556  0.3257 -0.0272  0.3504
  716SOL    HW1 2147   2.939   2.794   1.641 -1.1521  0.0831 -1.2448
  716SOL    HW2 2148   3.043   2.680   1.563 -0.2969  1.5887  1.3700
  717SOL     OW 2149   2.279   0.879   0.934 -0.3637  0.0489 -0.4021
  717SOL    HW1 2150   2.184   0.898   0.899  2.3790 -0.0430  1.0371
  717SOL    HW2 2151   2.336   0.826   0.872 -1.5536 -0.4894  1.4277
  718SOL     OW 2152   1.193   1.535   1.481 -0.1248 -0.1191 -0.4186
  718SOL    HW1 2153   1.130   1.518   1.564 -3.9799 -0.4626  1.3764
  718SOL    HW2 2154   1.156   1.624   1.447 -0.2901 -0.2288  0.0267
  719SOL     OW 2155   2.756   3.077   2.813 -0.1999 -0.1069 -0.7261
  719SOL    HW1 2156   2.818   2.998   2.811 -3.0489  1.2832 -1.6482
  719SOL    HW2 2157   2.682   3.068   2.887  0.3036 -1.3118  2.3384
  720SOL     OW 2158   0.950   0.358   0.848 -0.3166  0.3387 -0.4470
  720SOL    HW1 2159   0.960   0.370   0.750 -0.6368  0.2799  0.6126
  720SOL    HW2 2160   1.041   0.349   0.895  0.3061  0.9069  1.4932
  721SOL     OW 2161   2.832   0.863   0.595  0.0090  0.5111  0.4097
  721SOL    HW1 2162   2.852   0.788   0.663 -0.8791 -0.7196  1.4860
  721SOL    HW2 2163   2.786   0.823   0.515  0.5242 -2.2663 -1.7510
  722SOL     OW 2164   0.892   2.103   2.183 -0.2616 -0.0872 -0.5527
  722SOL    HW1 2165   0.854   2.185   2.137  1.0587 -3.0292 -0.8220
  722SOL    HW2 2166   0.983   2.086   2.141  1.1997 -1.9830 -0.2243
  723SOL     OW 2167   1.654   2.923   1.101  0.0916  0.4592 -0.3044
  723SOL    HW1 2168   1.600   2.997   1.068  0.7204 -2.0589  0.5436
  723SOL    HW2 2169   1.743   2.970   1.119  1.9887  2.7344 -0.6045
  724SOL     OW 2170   1.643   1.938   1.776 -0.1623 -0.4054 -0.3878
  724SOL    HW1 2171   1.627   1.981   1.870  0.5815  0.0184  1.2732
  724SOL    HW2 2172   1.619   1.841   1.776 -0.6497  2.3914  0.9473
  725SOL     OW 2173   1.164   2.448   1.244 -0.0838 -0.5885  1.0220
  725SOL    HW1 2174   1.078   2.490   1.272 -0.2618  4.0480 -0.3494
  725SOL    HW2 2175   1.208   2.510   1.173  0.3480 -0.5459  2.0364
  726SOL     OW 2176   1.932   2.834   0.149  0.3798  0.1504 -0.3777
  726SOL    HW1 2177   2.018   2.878   0.116 -1.1222 -1.2938 -2.0914
  726SOL    HW2 2178   1.849   2.826   0.088 -0.3253  0.8879  0.2427
  727SOL     OW 2179   1.461   1.649   0.492  0.4294  0.0348  0.4086
  727SOL    HW1 2180   1.528   1.581   0.458 -0.1523  0.9866  1.5197
  727SOL    HW2 2181   1.380   1.597   0.532 -2.2788  0.3866 -1.6871
  728SOL     OW 2182   2.012   2.769   1.871  0.1040  0.0985  0.6270
  728SOL    HW1 2183   2.072   2.706   1.926 -0.7952 -3.0181  2.2105
  728SOL    HW2 2184   1.934   2.805   1.925 -0.0627  0.9353  0.5650
  729SOL     OW 2185   2.044   2.362   1.230  0.1898 -0.1000  0.1379
  729SOL    HW1 2186   2.035   2.271   1.278  0.7756 -1.1768 -0.8064
  729SOL    HW2 2187   2.099   2.429   1.287  1.4986  2.6257  1.7656
  730SOL     OW 2188   1.604   1.045   2.445  0.1040  0.5071  1.2255
  730SOL    HW1 2189   1.518   1.061   2.389 -2.4897 -0.0551 -2.4084
  730SOL    HW2 2190   1.585   0.988   2.527 -0.8459  0.9281 -3.3202
  731SOL     OW 2191   0.942   3.022   1.251  0.0009  0.3022  0.1094
  731SOL    HW1 2192   0.959   3.029   1.149  1.1717  0.5231 -0.3414
  731SOL    HW2 2193   1.023   2.978   1.293 -5.2031  2.9380 -0.9419
  732SOL     OW 2194   1.227   2.925   0.865  0.4968  0.1495 -0.6125
  732SOL    HW1 2195   1.243   2.844   0.808  0.4068 -0.3318  1.3512
  732SOL    HW2 2196   1.231   2.892   0.963  1.8347  0.1632 -3.1894
  733SOL     OW 2197   1.116   1.167   0.720 -0.6245  0.1711  0.5392
  733SOL    HW1 2198   1.104   1.220   0.638 -0.1828 -0.9751  1.5157
  733SOL    HW2 2199   1.215   1.145   0.728 -2.3509 -1.3427 -2.7065
  734SOL     OW 2200   2.550   2.020   2.735  0.0220 -0.0560 -0.2369
  734SOL    HW1 2201   2.582   2.118   2.730  0.8636  3.8464  2.5075
  734SOL    HW2 2202   2.586   1.971   2.654 -1.5648  0.1884  0.9144
  735SOL     OW 2203   0.854   0.176   1.015  0.5348 -0.3855  0.6274
  735SOL    HW1 2204   0.904   0.088   0.988  1.8192 -2.1960  0.9966
  735SOL    HW2 2205   0.867   0.255   0.947  0.4649  0.8452 -0.2057
  736SOL     OW 2206   1.723   2.349   2.672  0.1526 -0.1036 -0.5395
  736SOL    HW1 2207   1.754   2.254   2.694 -0.1905  2.0242 -0.9955
  736SOL    HW2 2208   1.649   2.384   2.735 -0.3792 -0.7532 -1.8108
  737SOL     OW 2209   0.955   2.606   1.341 -0.0431  0.4685 -0.1976
  737SOL    HW1 2210   0.876   2.545   1.336  2.2273  0.6115 -2.0794
  737SOL    HW2 2211   0.961   2.649   1.435  1.3901  2.1524  3.1406
  738SOL     OW 2212   1.801   3.027   2.456 -0.2870  0.4869 -0.0942
  738SOL    HW1 2213   1.786   0.030   2.441  0.2007 -0.2068 -0.8238
  738SOL    HW2 2214   1.788   3.004   2.551 -0.6949  0.4244 -2.2062
  739SOL     OW 2215   1.394   2.574   2.037 -0.1690 -0.2339  0.7541
  739SOL    HW1 2216   1.372   2.487   2.090  2.1199 -0.0536 -0.9495
  739SOL    HW2 2217   1.481   2.560   1.987 -1.2874 -1.3865  1.3101
  740SOL     OW 2218   1.439   2.391   1.317  0.1922  0.4046 -0.5942
  740SOL    HW1 2219   1.352   2.390   1.267 -2.6821 -0.0224  1.1196
  740SOL    HW2 2220   1.476   2.485   1.338 -2.2383 -1.0787 -0.8782
  741SOL     OW 2221   2.572   1.060   0.022 -0.0752 -0.5324  0.4378
  741SOL    HW1 2222   2.587   1.152   0.057 -2.5060 -1.4727  2.2654
  741SOL    HW2 2223   2.474   1.035   0.046 -2.8578  2.1613 -1.1088
  742SOL     OW 2224   0.611   1.741   2.589 -0.0228  0.2297 -0.5951
  742SOL    HW1 2225   0.576   1.826   2.634  0.2049 -3.2745 -0.3055
  742SOL    HW2 2226   0.709   1.757   2.565  1.9273  1.6504 -0.5029
  743SOL     OW 2227   0.268   0.915   2.506 -0.0382  0.0816  0.7511
  743SOL    HW1 2228   0.286   0.908   2.607  2.1057 -0.2722  1.4009
  743SOL    HW2 2229   0.178   0.961   2.481 -0.3939  0.7769  0.8516
  744SOL     OW 2230   2.315   2.366   0.916 -0.4347 -0.1504  0.2722
  744SOL    HW1 2231   2.224   2.399   0.952 -1.8550 -1.5515  2.2160
  744SOL    HW2 2232   2.329   2.389   0.821 -1.7062  0.6209  0.2431
  745SOL     OW 2233   2.192   1.784   1.476 -0.5373 -0.1882  0.3102
  745SOL    HW1 2234   2.277   1.755   1.434 -1.0644 -1.3944  2.2087
  745SOL    HW2 2235   2.184   1.887   1.463 -0.6427 -0.4200  0.6129
  746SOL     OW 2236   2.034   0.969   0.881 -0.0016  0.2512 -0.5189
  746SOL    HW1 2237   1.996   0.872   0.865 -1.2145  0.1259  1.0842
  746SOL    HW2 2238   1.957   1.037   0.896 -3.1504  0.0977  0.6288
  747SOL     OW 2239   1.623   2.065   0.716  0.0521  0.4791  0.2188
  747SOL    HW1 2240   1.616   1.961   0.715  0.6580  1.3583 -2.7243
  747SOL    HW2 2241   1.711   2.085   0.664 -0.4762 -1.1367  0.6249
  748SOL     OW 2242   0.790   1.810   0.623 -0.2514 -0.3618 -1.0079
  748SOL    HW1 2243   0.860   1.880   0.590  0.1245  1.2573  0.1165
  748SOL    HW2 2244   0.696   1.845   0.622 -1.3649  0.4062  3.1694
  749SOL     OW 2245   2.823   0.002   2.175  0.2146 -0.2679  0.2097
  749SOL    HW1 2246   2.875   0.088   2.155 -2.3228  3.0911 -0.4807
  749SOL    HW2 2247   2.851   3.056   2.263  0.0021  1.1391 -0.1457
  750SOL     OW 2248   1.621   0.306   1.397 -0.7945 -0.6394 -0.1413
  750SOL    HW1 2249   1.716   0.340   1.417  0.5341 -2.0975 -0.6647
  750SOL    HW2 2250   1.560   0.384   1.422 -0.0501  2.6961  2.2355
  751SOL     OW 2251   1.696   2.846   3.062  0.1741 -0.2400  0.5655
  751SOL    HW1 2252   1.601   2.818   3.098 -2.8537  0.1437  1.4398
  751SOL    HW2 2253   1.713   2.788   2.985 -1.0211 -0.1118  1.6105
  752SOL     OW 2254   1.793   1.990   0.303 -0.0007  0.1045  0.0409
  752SOL    HW1 2255   1.712   1.928   0.279 -0.5991  1.7578  0.4148
  752SOL    HW2 2256   1.825   2.047   0.227  1.5680  0.1565  2.0159
  753SOL     OW 2257   1.862   1.126   2.425 -0.2998  0.8253 -0.3920
  753SOL    HW1 2258   1.761   1.103   2.427  0.1093 -0.6020  3.2092
  753SOL    HW2 2259   1.916   1.035   2.419  0.7108 -0.9497  0.0595
  754SOL     OW 2260   0.273   2.556   0.700  0.2671  0.1828 -0.0457
  754SOL    HW1 2261   0.263   2.629   0.773  0.2942  1.0118 -0.5012
  754SOL    HW2 2262   0.325   2.585   0.615  3.4207 -0.6319 -2.6100
  755SOL     OW 2263   1.981   0.480   0.868  0.2102  0.5719  0.2631
  755SOL    HW1 2264   2.072   0.433   0.889  1.4368 -2.2242 -0.5677
  755SOL    HW2 2265   1.907   0.461   0.936 -0.9530  1.6192  0.1920
  756SOL     OW 2266   1.059   1.519   2.820  0.2224 -0.0647 -0.0681
  756SOL    HW1 2267   1.025   1.615   2.834 -3.5693  1.2240  0.1745
  756SOL    HW2 2268   1.140   1.498   2.877  1.8993 -2.3788  2.5995
  757SOL     OW 2269   2.260   2.895   1.107  0.4019 -0.0629 -0.7626
  757SOL    HW1 2270   2.315   2.813   1.091 -1.0047 -0.4419  1.5307
  757SOL    HW2 2271   2.296   2.961   1.179  1.4927 -0.6926 -1.4145
  758SOL     OW 2272   0.782   2.795   1.803  0.7031 -0.3687 -0.2918
  758SOL    HW1 2273   0.691   2.752   1.798 -1.0383  0.5382 -1.2896
  758SOL    HW2 2274   0.832   2.794   1.715 -0.1913 -0.6285  2.0588
  759SOL     OW 2275   2.083   1.258   1.121  0.1064  0.2761  0.4629
  759SOL    HW1 2276   2.150   1.213   1.057  3.1347 -0.5360  0.7509
  759SOL    HW2 2277   2.120   1.282   1.210  0.6595  0.6426  3.3840
  760SOL     OW 2278   2.053   1.058   1.420 -0.3893 -0.4249 -0.4906
  760SOL    HW1 2279   2.076   1.148   1.386  1.4870 -1.8853  1.9318
  760SOL    HW2 2280   2.120   1.032   1.490  0.3704  0.8086  1.5320
  761SOL     OW 2281   2.063   3.096   0.344  0.1749  0.2642  0.3991
  761SOL    HW1 2282   1.962   0.003   0.326 -0.8071  1.4630 -0.6478
  761SOL    HW2 2283   2.088   3.011   0.394  1.5437  2.2653 -2.3603
  762SOL     OW 2284   1.840   2.168   0.086  0.2606  0.1854 -0.3554
  762SOL    HW1 2285   1.922   2.164   0.030 -3.4546 -2.1539  1.6403
  762SOL    HW2 2286   1.813   2.261   0.114 -2.2667 -1.6411 -3.0666
  763SOL     OW 2287   0.697   0.971   0.923 -0.1076 -0.5346  0.1201
  763SOL    HW1 2288   0.775   0.918   0.874  3.0253  1.1163  1.4500
  763SOL    HW2 2289   0.732   1.013   1.009 -1.4354 -0.2694  1.5638
  764SOL     OW 2290   2.706   2.164   3.027  0.6987  0.4876  0.2632
  764SOL    HW1 2291   2.651   2.200   0.009  2.1632 -0.3994  1.5202
  764SOL    HW2 2292   2.707   2.065   3.032 -0.3705  0.2712  0.2951
  765SOL     OW 2293   0.907   0.345   2.056 -0.3199 -0.1416 -0.4036
  765SOL    HW1 2294   0.886   0.279   2.136 -3.8984 -1.8856  4.3858
  765SOL    HW2 2295   0.904   0.442   2.086 -0.0271  0.0895 -1.6222
  766SOL     OW 2296   0.227   1.231   2.374  0.2367 -0.1554 -0.2359
  766SOL    HW1 2297   0.151   1.164   2.374 -1.1939 -1.0963 -1.7627
  766SOL    HW2 2298   0.204   1.300   2.442  0.4253 -1.8377  0.3930
  767SOL     OW 2299   3.077   1.685   1.714  0.1638  0.0343  0.1068
  767SOL    HW1 2300   2.977   1.674   1.710  3.1834  1.2530 -0.8832
  767SOL    HW2 2301   0.018   1.695   1.618 -0.4980  3.7045 -1.3046
  768SOL     OW 2302   1.066   0.839   3.036  0.0736  0.5248 -0.1426
  768SOL    HW1 2303   0.976   0.840   3.090 -2.0304  2.2511  1.3404
  768SOL    HW2 2304   1.069   0.919   2.968  1.0679  0.8964 -1.4476
  769SOL     OW 2305   1.981   2.654   0.344 -0.0178  0.4269 -0.1566
  769SOL    HW1 2306   2.042   2.584   0.307 -1.3203  1.1234  0.8322
  769SOL    HW2 2307   1.950   2.713   0.266  2.4322 -1.6841  0.8133
  770SOL     OW 2308   2.978   0.262   2.715 -0.6337  0.0327  0.4010
  770SOL    HW1 2309   2.917   0.312   2.648  0.5829  0.6020 -0.5162
  770SOL    HW2 2310   2.928   0.241   2.802 -1.9359 -0.2149  1.7825
  771SOL     OW 2311   1.238   2.247   1.688  0.8741 -0.0865 -0.2031
  771SOL    HW1 2312   1.192   2.157   1.670 -0.5169 -3.1421 -2.7110
  771SOL    HW2 2313   1.329   2.254   1.648 -1.0129  0.6014  0.6730
  772SOL     OW 2314   0.552   0.502   3.040 -0.3731 -0.0541  0.6292
  772SOL    HW1 2315   0.568   0.461   2.949 -1.6239 -0.5407  1.5674
  772SOL    HW2 2316   0.505   0.592   3.040 -1.2909  1.0997 -2.1341
  773SOL     OW 2317   2.985   1.288   1.471  0.0673  0.3571 -0.2144
  773SOL    HW1 2318   2.895   1.336   1.472 -0.4292  0.7251 -0.0257
  773SOL    HW2 2319   3.039   1.318   1.549 -0.8713  0.2210 -1.4562
  774SOL     OW 2320   1.445   0.742   0.319  0.7302  0.2832  0.1611
  774SOL    HW1 2321   1.436   0.673   0.244  0.2299  1.5075  1.3458
  774SOL    HW2 2322   1.509   0.709   0.386 -1.1210  0.1108 -3.0254
  775SOL     OW 2323   2.125   2.804   3.015  0.2306 -0.1734 -0.6207
  775SOL    HW1 2324   2.188   2.868   3.061 -2.0878 -0.4375  2.8404
  775SOL    HW2 2325   2.041   2.856   2.984 -5.0284  3.2768  0.8367
  776SOL     OW 2326   2.576   0.625   2.043  0.4101 -0.9019  0.5345
  776SOL    HW1 2327   2.558   0.725   2.067  0.8702  0.7402 -0.8843
  776SOL    HW2 2328   2.521   0.560   2.100 -2.3112 -1.3953 -1.8388
  777SOL     OW 2329   0.352   1.379   2.597 -0.0830  0.2831  0.0469
  777SOL    HW1 2330   0.428   1.422   2.650  0.7132 -2.1640  0.3254
  777SOL    HW2 2331   0.393   1.306   2.540  0.1900 -0.5750 -0.7721
  778SOL     OW 2332   1.006   0.122   0.480  0.4344  0.7765  0.2503
  778SOL    HW1 2333   0.982   0.111   0.582  2.0491 -1.5517  1.7600
  778SOL    HW2 2334   0.939   0.077   0.421 -1.8712  0.8189  0.3487
  779SOL     OW 2335   0.540   1.053   2.687 -0.3324  0.2498 -0.3436
  779SOL    HW1 2336   0.517   1.137   2.637  0.0573  0.6158 -1.7922
  779SOL    HW2 2337   0.553   0.976   2.624 -2.6018  2.3272  1.7542
  780SOL     OW 2338   2.091   0.829   2.531  0.3612 -0.3385 -0.0056
  780SOL    HW1 2339   2.190   0.814   2.531 -3.1055 -2.3609 -0.4874
  780SOL    HW2 2340   2.052   0.839   2.438  0.4210  1.6715 -1.1334
  781SOL     OW 2341   2.713   1.441   1.824  0.3538  0.1658  0.1685
  781SOL    HW1 2342   2.768   1.355   1.815 -0.2375 -1.7643  0.5329
  781SOL    HW2 2343   2.642   1.445   1.752  1.3423 -1.1051 -1.8401
  782SOL     OW 2344   1.122   1.955   2.284 -0.2921 -0.3597  0.1409
  782SOL    HW1 2345   1.078   1.918   2.200 -1.6306  0.2370 -2.7987
  782SOL    HW2 2346   1.045   1.977   2.344 -0.0043 -1.0006 -2.2913
  783SOL     OW 2347   0.551   2.490   1.450  0.0858  0.0309 -0.1442
  783SOL    HW1 2348   0.571   2.584   1.438 -2.2677 -0.5257 -1.2623
  783SOL    HW2 2349   0.509   2.473   1.542 -3.0352  2.2321 -0.7085
  784SOL     OW 2350   1.516   0.483   2.967  0.8254 -0.0944  0.4180
  784SOL    HW1 2351   1.489   0.461   2.872 -0.7847  1.1668 -1.7300
  784SOL    HW2 2352   1.615   0.476   2.977 -2.2458  0.0679  1.6846
  785SOL     OW 2353   1.454   0.295   0.054 -0.0328  0.0994 -0.1186
  785SOL    HW1 2354   1.488   0.348   0.135 -0.4708  0.2282 -1.0738
  785SOL    HW2 2355   1.458   0.354   3.069 -2.4479  0.3794  0.1529
  786SOL     OW 2356   0.434   1.621   0.322 -0.1540 -0.3096 -0.1941
  786SOL    HW1 2357   0.428   1.543   0.389  0.8148 -1.4623 -2.5645
  786SOL    HW2 2358   0.530   1.648   0.298 -1.1059  0.7413 -2.3686
  787SOL     OW 2359   1.703   1.500   0.416 -0.4457 -0.2242  0.6103
  787SOL    HW1 2360   1.767   1.541   0.484 -0.2220 -0.4714  2.3924
  787SOL    HW2 2361   1.747   1.467   0.332  0.2190  0.1407 -1.2112
  788SOL     OW 2362   1.746   1.622   1.541  0.1426 -0.2188  0.3394
  788SOL    HW1 2363   1.750   1.537   1.494  0.0791  5.3007  0.3458
  788SOL    HW2 2364   1.701   1.690   1.478  2.3340  0.0398  1.6519
  789SOL     OW 2365   3.081   1.373   1.738  0.4002  0.4785 -0.0326
  789SOL    HW1 2366   0.024   1.465   1.740  2.6294 -0.1442  0.1709
  789SOL    HW2 2367   0.049   1.307   1.778  0.0065 -0.9959  0.7069
  790SOL     OW 2368   0.570   2.876   0.048 -0.2297 -0.3203  0.1971
  790SOL    HW1 2369   0.481   2.871   0.099  0.0501  1.3358 -0.9069
  790SOL    HW2 2370   0.584   2.794   3.087  1.9921 -0.5917  1.4745
  791SOL     OW 2371   0.590   3.030   2.586  0.7147 -0.4759 -0.1650
  791SOL    HW1 2372   0.522   0.007   2.580  2.2878  0.2183  0.8775
  791SOL    HW2 2373   0.569   2.966   2.661  0.6028 -1.3371 -0.1007
  792SOL     OW 2374   2.149   0.492   2.650  0.5135 -0.0773 -0.3293
  792SOL    HW1 2375   2.074   0.550   2.689 -1.1281  1.1462 -0.0045
  792SOL    HW2 2376   2.236   0.525   2.681 -0.3767  0.0175 -0.0870
  793SOL     OW 2377   0.448   0.676   1.073  0.2047 -0.3696  0.3592
  793SOL    HW1 2378   0.549   0.670   1.086  1.4983 -2.3369  2.8657
  793SOL    HW2 2379   0.399   0.586   1.082  0.5862  0.9654 -2.6437
  794SOL     OW 2380   0.394   0.452   2.066  0.3756  0.1347 -0.6712
  794SOL    HW1 2381   0.423   0.486   1.975 -4.7672 -0.4427  0.8787
  794SOL    HW2 2382   0.352   0.535   2.112 -2.7246  0.3497  1.3399
  795SOL     OW 2383   0.101   1.168   0.321  0.2257 -0.6689  0.1093
  795SOL    HW1 2384   0.092   1.065   0.335 -1.2318 -0.9191  0.5283
  795SOL    HW2 2385   0.007   1.209   0.315 -0.1472  0.6773  2.4186
  796SOL     OW 2386   3.065   2.829   0.312  0.8134 -0.3120  0.0998
  796SOL    HW1 2387   3.031   2.742   0.348  0.3371 -1.4831  1.7079
  796SOL    HW2 2388   0.056   2.841   0.360  0.5636  2.9808  0.8951
  797SOL     OW 2389   1.923   2.603   2.188 -0.4712  0.2017  0.1490
  797SOL    HW1 2390   1.843   2.538   2.189 -0.6819 -1.8291  0.0408
  797SOL    HW2 2391   1.900   2.691   2.233 -1.9096 -0.4421  0.5244
  798SOL     OW 2392   0.139   0.978   0.637  0.3062 -0.0632 -0.0089
  798SOL    HW1 2393   0.129   0.951   0.538 -0.9011 -1.9234 -1.3625
  798SOL    HW2 2394   0.236   0.979   0.660  0.4101  0.1894  0.6564
  799SOL     OW 2395   2.648   0.491   2.725 -0.1188  0.0459  0.4066
  799SOL    HW1 2396   2.707   0.432   2.778 -0.7502  3.9632  0.2464
  799SOL    HW2 2397   2.708   0.561   2.686 -0.0622  0.1450  3.9959
  800SOL     OW 2398   2.945   1.747   0.185  0.2242 -0.6065  0.1596
  800SOL    HW1 2399   2.935   1.831   0.242 -0.5734 -0.1467  1.6878
  800SOL    HW2 2400   3.010   1.762   0.108 -0.8586  1.2872  1.0055
  801SOL     OW 2401   1.307   1.574   1.008 -0.0949  0.0483  0.2777
  801SOL    HW1 2402   1.351   1.519   0.938 -1.2674  1.8210  0.9299
  801SOL    HW2 2403   1.298   1.525   1.091 -0.8071  1.5117 -1.6230
  802SOL     OW 2404   0.994   1.855   2.068 -0.2903 -0.5379 -0.4257
  802SOL    HW1 2405   0.903   1.813   2.083  1.4739  0.5591  0.8542
  802SOL    HW2 2406   1.038   1.823   1.982  0.1194 -0.3905  1.2478
  803SOL     OW 2407   0.211   1.788   0.687  0.4617 -0.4105  0.1518
  803SOL    HW1 2408   0.111   1.799   0.704  0.0201  0.1533  0.2748
  803SOL    HW2 2409   0.236   1.812   0.589  0.0531  0.6991 -2.0058
  804SOL     OW 2410   1.167   2.169   1.303 -0.2189  0.4839 -0.0422
  804SOL    HW1 2411   1.182   2.268   1.316  0.0452  1.8672  1.5675
  804SOL    HW2 2412   1.072   2.145   1.277  0.1862 -0.5549 -1.2478
  805SOL     OW 2413   1.769   1.527   0.139  0.2587  0.7004  0.4081
  805SOL    HW1 2414   1.781   1.613   0.089 -0.5498 -1.6696 -0.8619
  805SOL    HW2 2415   1.691   1.474   0.101  0.8750  0.3465 -1.9398
  806SOL     OW 2416   1.949   2.383   0.974  0.0776  0.2167  0.4365
  806SOL    HW1 2417   2.013   2.407   1.054  1.2846 -0.1819 -0.1642
  806SOL    HW2 2418   1.851   2.380   1.003 -0.0972  1.8675  0.0221
  807SOL     OW 2419   2.823   0.661   3.001  0.3324  0.0405  0.2723
  807SOL    HW1 2420   2.817   0.754   3.036  0.5077 -1.1577  3.9684
  807SOL    HW2 2421   2.797   0.660   2.905  0.6623  0.3203 -1.5044
  808SOL     OW 2422   0.310   1.239   0.509  0.2980  0.0180 -0.2023
  808SOL    HW1 2423   0.325   1.163   0.577 -0.1947 -0.0644  1.2574
  808SOL    HW2 2424   0.238   1.210   0.441  1.6127 -1.6462  0.2975
  809SOL     OW 2425   2.488   0.874   2.104 -0.4271 -0.3231  0.4949
  809SOL    HW1 2426   2.493   0.966   2.155  0.9815  0.9625  1.5574
  809SOL    HW2 2427   2.515   0.884   2.008  1.1881 -0.2316  0.1089
  810SOL     OW 2428   1.443   0.491   1.488 -0.2066 -0.3576  0.3035
  810SOL    HW1 2429   1.442   0.510   1.587  1.5212  0.3062 -1.2745
  810SOL    HW2 2430   1.357   0.454   1.449 -1.3883 -1.0691 -0.6461
  811SOL     OW 2431   1.961   2.713   1.477 -0.5992  0.4156  0.0759
  811SOL    HW1 2432   1.930   2.616   1.489 -1.3040  2.9354 -1.7015
  811SOL    HW2 2433   1.986   2.735   1.379 -0.2782 -0.5019  1.2203
  812SOL     OW 2434   1.754   2.697   2.845 -0.5508  0.0883  0.1850
  812SOL    HW1 2435   1.684   2.627   2.809 -1.5688  0.3516  1.8636
  812SOL    HW2 2436   1.833   2.645   2.883 -1.7406  1.9297 -0.9916
  813SOL     OW 2437   1.540   1.068   2.018 -0.2291 -0.3656 -0.2741
  813SOL    HW1 2438   1.454   1.080   1.961 -2.0294  0.1447 -1.9577
  813SOL    HW2 2439   1.622   1.113   1.981 -0.2827  0.2366  0.9666
  814SOL     OW 2440   1.154   0.556   1.860 -0.0895 -0.0757  0.4846
  814SOL    HW1 2441   1.103   0.467   1.862  0.5637  0.4324 -0.1371
  814SOL    HW2 2442   1.130   0.614   1.941  2.1531 -0.0855 -1.2655
  815SOL     OW 2443   0.829   0.753   0.382  0.3214 -0.7495 -0.5232
  815SOL    HW1 2444   0.886   0.828   0.425  0.6715 -0.1586  1.4054
  815SOL    HW2 2445   0.755   0.793   0.320 -1.7352  0.0174  0.5808
  816SOL     OW 2446   2.135   1.686   2.773  0.1704  0.5684  0.3805
  816SOL    HW1 2447   2.120   1.775   2.717  1.2976  2.7942 -0.8265
  816SOL    HW2 2448   2.046   1.644   2.798 -2.7488 -0.3456  3.2088
  817SOL     OW 2449   0.638   2.386   0.428 -0.2419 -0.1359  0.0935
  817SOL    HW1 2450   0.733   2.419   0.426 -1.4842 -0.3191 -2.1909
  817SOL    HW2 2451   0.627   2.298   0.488 -0.4819 -2.0198 -0.2230
  818SOL     OW 2452   1.998   3.044   2.954 -0.1463  0.0937 -0.2772
  818SOL    HW1 2453   1.903   3.075   2.970 -0.7186  1.0446  2.1045
  818SOL    HW2 2454   2.034   3.071   2.864  0.2882  1.2307  1.2118
  819SOL     OW 2455   1.749   0.195   0.155  0.2431 -1.0037  0.3040
  819SOL    HW1 2456   1.737   0.135   0.074 -1.4830 -0.8397 -1.8777
  819SOL    HW2 2457   1.789   0.289   0.131 -1.3004 -0.7905 -1.6117
  820SOL     OW 2458   1.802   0.639   0.234 -0.1930 -0.1982 -0.0771
  820SOL    HW1 2459   1.717   0.639   0.288  0.8855 -1.0658  2.1018
  820SOL    HW2 2460   1.878   0.664   0.296 -2.0229  1.3325  1.5912
  821SOL     OW 2461   2.594   2.962   0.241 -0.1406  0.3246 -0.0793
  821SOL    HW1 2462   2.526   2.952   0.318  0.7312  1.2139 -0.4917
  821SOL    HW2 2463   2.619   3.058   0.225 -1.5394  0.9211  1.6673
  822SOL     OW 2464   0.181   2.917   1.772  0.4296  0.0329 -0.5392
  822SOL    HW1 2465   0.084   2.905   1.762  1.0445 -0.8249  0.2657
  822SOL    HW2 2466   0.229   2.890   1.685 -1.1768  1.6684  1.1817
  823SOL     OW 2467   2.695   1.762   1.319  0.1782 -0.1831 -0.4132
  823SOL    HW1 2468   2.778   1.828   1.326  1.2554  1.3473  2.0962
  823SOL    HW2 2469   2.711   1.674   1.276 -1.8529 -0.6254  0.1552
  824SOL     OW 2470   1.463   2.965   2.263 -0.0347 -0.2063 -0.3031
  824SOL    HW1 2471   1.451   2.865   2.255 -5.7645 -0.0482  0.1361
  824SOL    HW2 2472   1.467   3.005   2.168 -2.1073  0.7636 -2.4867
  825SOL     OW 2473   1.813   1.302   0.722  0.0650 -0.5449 -0.0719
  825SOL    HW1 2474   1.803   1.224   0.791  2.0285 -2.5393  1.2539
  825SOL    HW2 2475   1.728   1.318   0.669  1.2793  0.4675  1.7973
  826SOL     OW 2476   2.041   0.734   3.008  0.3929 -0.5922 -0.1546
  826SOL    HW1 2477   2.079   0.824   2.985 -1.2336  0.0694  1.8478
  826SOL    HW2 2478   1.942   0.742   3.016 -0.0259 -0.8707  0.3637
  827SOL     OW 2479   0.498   1.119   1.516  0.1492  0.1484 -0.3433
  827SOL    HW1 2480   0.478   1.168   1.601 -1.3510  0.8237 -1.8478
  827SOL    HW2 2481   0.507   1.168   1.424  1.1069 -3.0698 -1.9894
  828SOL     OW 2482   2.240   1.404   1.983 -0.6104 -0.5549  0.0064
  828SOL    HW1 2483   2.294   1.457   2.056  0.0850  1.4496  1.1463
  828SOL    HW2 2484   2.200   1.462   1.912  0.3884 -1.6974  1.3588
  829SOL     OW 2485   0.009   1.799   3.076  0.2262 -0.1294 -0.1721
  829SOL    HW1 2486   0.055   1.730   3.012  0.7388 -1.8204 -0.5559
  829SOL    HW2 2487   3.075   1.884   3.034 -0.7279  0.4484  2.2695
  830SOL     OW 2488   1.757   0.777   0.541  0.4180 -0.2026 -0.0380
  830SOL    HW1 2489   1.810   0.768   0.626 -3.4425 -0.0888  0.4080
  830SOL    HW2 2490   1.734   0.688   0.499 -0.9456 -2.1953 -1.3306
  831SOL     OW 2491   2.526   1.584   0.118 -0.7786 -0.2041  0.3992
  831SOL    HW1 2492   2.427   1.556   0.134  1.0406 -0.8634  0.2352
  831SOL    HW2 2493   2.558   1.648   0.196  0.0964 -0.9715 -1.1510
  832SOL     OW 2494   1.073   3.023   0.096  0.2574  1.5755 -0.4474
  832SOL    HW1 2495   1.025   3.073   0.169 -1.3935  0.3148  0.0775
  832SOL    HW2 2496   1.119   3.086   0.032 -0.3482  0.0739 -0.1780
  833SOL     OW 2497   1.360   0.751   2.332 -0.4173  0.2778  0.4061
  833SOL    HW1 2498   1.340   0.650   2.336 -0.1914 -0.0523  0.5283
  833SOL    HW2 2499   1.418   0.782   2.248  1.4159 -0.3469  1.4378
  834SOL     OW 2500   0.021   0.420   1.299  0.2260 -0.0893  0.3795
  834SOL    HW1 2501   0.090   0.376   1.359 -1.4202  1.8232 -2.9370
  834SOL    HW2 2502   0.048   0.390   1.202  1.0418 -0.2140  0.2042
  835SOL     OW 2503   3.003   0.158   1.222 -0.3731 -0.2828 -0.5763
  835SOL    HW1 2504   2.977   0.115   1.310  0.3046  2.6197 -1.5322
  835SOL    HW2 2505   3.009   0.258   1.242 -2.5446 -2.1308  1.9885
  836SOL     OW 2506   0.465   2.120   0.395 -0.1370 -0.2152 -0.2423
  836SOL    HW1 2507   0.511   2.097   0.311  1.9752  1.0083 -0.1405
  836SOL    HW2 2508   0.404   2.200   0.371 -2.3457  1.3040 -0.4770
  837SOL     OW 2509   1.737   1.835   2.575  0.1764 -0.2309 -0.2959
  837SOL    HW1 2510   1.735   1.922   2.631 -1.4525  2.6127  0.2816
  837SOL    HW2 2511   1.772   1.752   2.622 -1.0738 -0.4924  2.1303
  838SOL     OW 2512   0.163   1.169   1.777 -0.3526  0.3183 -0.0299
  838SOL    HW1 2513   0.165   1.147   1.874 -0.5578 -0.9212 -4.8747
  838SOL    HW2 2514   0.152   1.091   1.716  0.3483 -0.2960 -1.3771
  839SOL     OW 2515   0.328   0.525   0.787  0.3614  0.2544 -0.1626
  839SOL    HW1 2516   0.233   0.558   0.769 -0.2002 -2.2354 -0.6414
  839SOL    HW2 2517   0.332   0.422   0.803 -0.1159 -1.0373  2.8035
  840SOL     OW 2518   2.763   0.265   2.898  0.3431 -0.0260  0.4034
  840SOL    HW1 2519   2.753   0.268   2.997 -1.5296  0.0660 -1.7200
  840SOL    HW2 2520   2.737   0.172   2.858 -0.3904 -3.9235 -1.0501
  841SOL     OW 2521   0.649   2.375   2.719  0.1613  0.5623 -0.2286
  841SOL    HW1 2522   0.722   2.421   2.778  0.2056  2.4669  2.1952
  841SOL    HW2 2523   0.648   2.273   2.734  0.7345 -0.3735  2.7843
  842SOL     OW 2524   0.690   2.970   1.159  0.5921  0.1392  0.1124
  842SOL    HW1 2525   0.769   2.974   1.222  1.1292  1.3578  0.2843
  842SOL    HW2 2526   0.710   2.981   1.060  0.3227 -1.1350  0.9451
  843SOL     OW 2527   0.243   0.937   3.074 -0.5784  0.4360 -0.3733
  843SOL    HW1 2528   0.173   0.883   0.028  2.9717 -0.8068  1.5898
  843SOL    HW2 2529   0.263   1.029   0.015 -0.7947  1.1268 -0.1247
  844SOL     OW 2530   1.331   2.402   2.635  0.0119 -0.1474  0.7613
  844SOL    HW1 2531   1.355   2.305   2.635 -3.1899  1.4704  0.3968
  844SOL    HW2 2532   1.271   2.423   2.558  0.2402  0.7380  1.7666
  845SOL     OW 2533   2.381   2.961   2.779 -0.5820 -0.3474  0.0634
  845SOL    HW1 2534   2.381   3.035   2.847  3.0971  0.1328 -0.5741
  845SOL    HW2 2535   2.392   2.997   2.682 -2.2247  1.3529  1.6406
  846SOL     OW 2536   1.860   1.580   2.597 -0.6646  0.6545 -0.2653
  846SOL    HW1 2537   1.927   1.599   2.527 -1.3229 -0.4133 -0.9942
  846SOL    HW2 2538   1.867   1.482   2.633  0.8178 -0.5678  1.9466
  847SOL     OW 2539   2.591   2.796   3.096 -0.1839 -0.4398  0.0611
  847SOL    HW1 2540   2.552   2.870   3.032 -2.9959  3.5097 -3.6982
  847SOL    HW2 2541   2.618   2.842   0.084 -3.0714 -0.2138 -2.7356
  848SOL     OW 2542   0.607   0.399   0.630  0.0709  0.3548 -0.1668
  848SOL    HW1 2543   0.546   0.362   0.701 -0.5100  0.1947 -1.1581
  848SOL    HW2 2544   0.553   0.416   0.547 -1.0702 -0.7568  2.4116
  849SOL     OW 2545   1.546   3.022   1.977  0.0098  0.0558 -0.1976
  849SOL    HW1 2546   1.595   2.975   1.901 -1.1888  1.1924 -0.1757
  849SOL    HW2 2547   1.595   0.012   2.000 -0.6763  1.3068  0.0662
  850SOL     OW 2548   0.682   1.075   0.556  0.5660  0.3203 -0.0811
  850SOL    HW1 2549   0.681   1.164   0.610  1.7199  1.5407  0.0503
  850SOL    HW2 2550   0.590   1.034   0.556  0.7024  1.2547  2.5861
  851SOL     OW 2551   0.298   1.179   0.128 -0.1150  0.1430 -0.0813
  851SOL    HW1 2552   0.219   1.173   0.192 -0.0883 -3.1792  1.6086
  851SOL    HW2 2553   0.384   1.154   0.175  1.2818 -1.9737 -0.9267
  852SOL     OW 2554   1.231   0.291   2.041 -0.2015 -0.3377  0.6308
  852SOL    HW1 2555   1.253   0.191   2.051  1.6882  0.9099 -1.9744
  852SOL    HW2 2556   1.130   0.300   2.037  0.8385  1.2573  2.0292
  853SOL     OW 2557   2.652   1.339   0.090 -0.0094  0.3698  0.5762
  853SOL    HW1 2558   2.687   1.322   0.186  1.4141 -0.0287 -1.0297
  853SOL    HW2 2559   2.608   1.435   0.087 -2.9624  1.9040 -1.8213
  854SOL     OW 2560   1.082   1.050   2.137  0.2026 -0.1524  0.0766
  854SOL    HW1 2561   0.986   1.033   2.162  0.6514  0.9684  2.1500
  854SOL    HW2 2562   1.104   1.135   2.188  1.2638 -1.4178  0.7856
  855SOL     OW 2563   0.252   2.772   3.069  0.0988 -0.6208 -0.4329
  855SOL    HW1 2564   0.252   2.829   2.983  3.1890  2.2935 -0.4211
  855SOL    HW2 2565   0.153   2.770   0.004 -0.0346  0.2676  1.5469
  856SOL     OW 2566   1.143   0.917   2.362 -0.2541  0.7404 -0.1945
  856SOL    HW1 2567   1.119   0.947   2.266  0.2474 -0.4670 -1.6983
  856SOL    HW2 2568   1.227   0.859   2.368  1.4738  0.6135 -0.5059
  857SOL     OW 2569   1.280   0.664   2.608 -0.3289 -0.0903  0.8776
  857SOL    HW1 2570   1.373   0.672   2.564  1.0236 -0.0683 -1.1379
  857SOL    HW2 2571   1.201   0.687   2.546  0.6915 -0.7829 -0.5469
  858SOL     OW 2572   0.011   1.346   2.119  0.5018  0.6527  0.1456
  858SOL    HW1 2573   0.038   1.377   2.214  0.1793  1.1114 -4.3292
  858SOL    HW2 2574   3.081   1.424   2.061  1.6068  1.5935  0.5203
  859SOL     OW 2575   2.239   0.382   0.890  0.0755  0.3008 -0.0779
  859SOL    HW1 2576   2.236   0.341   0.796  0.8108 -0.3645  1.8100
  859SOL    HW2 2577   2.306   0.332   0.956  0.2997 -0.3552  1.1631
  860SOL     OW 2578   1.665   2.874   0.453  0.7416 -0.3992 -0.0689
  860SOL    HW1 2579   1.720   2.960   0.433  1.0583  2.9983 -1.3301
  860SOL    HW2 2580   1.721   2.792   0.478  0.4337  2.2733  0.7192
  861SOL     OW 2581   1.156   0.607   1.200 -0.2728 -0.1478  0.2193
  861SOL    HW1 2582   1.176   0.525   1.260 -1.0052 -0.0119  3.1210
  861SOL    HW2 2583   1.053   0.611   1.197 -1.5328 -3.3767  0.1585
  862SOL     OW 2584   1.534   0.150   2.626 -0.5145  0.3145  0.5428
  862SOL    HW1 2585   1.633   0.142   2.645 -0.9585 -1.3323 -1.4540
  862SOL    HW2 2586   1.515   0.129   2.525  0.8334  0.9647 -0.5820
  863SOL     OW 2587   2.566   2.344   0.554  0.2319  0.1672 -0.5817
  863SOL    HW1 2588   2.501   2.412   0.518 -0.1135  0.6810  0.0082
  863SOL    HW2 2589   2.559   2.248   0.515 -0.5648  0.2833 -1.3447
  864SOL     OW 2590   2.370   0.250   2.179  0.4820  0.3482  0.0272
  864SOL    HW1 2591   2.403   0.345   2.192 -1.1325  0.7907  0.7446
  864SOL    HW2 2592   2.290   0.249   2.119 -0.8477 -0.9001 -1.1901
  865SOL     OW 2593   1.294   1.077   1.920 -0.1282  0.0208  0.1088
  865SOL    HW1 2594   1.253   1.054   2.010  0.7950  0.2837 -0.5979
  865SOL    HW2 2595   1.236   1.142   1.867 -0.4686  0.3849 -0.5953
  866SOL     OW 2596   1.688   2.307   1.007  0.5844 -0.1250 -0.0476
  866SOL    HW1 2597   1.656   2.209   1.023 -1.3349 -3.3549  0.2000
  866SOL    HW2 2598   1.641   2.348   0.926  1.6445  0.6435  1.1153
  867SOL     OW 2599   2.355   2.917   0.401 -0.2053 -0.1406 -0.0673
  867SOL    HW1 2600   2.279   2.865   0.443  0.6743  1.0938  0.0265
  867SOL    HW2 2601   2.364   3.011   0.438  2.1849 -1.3045 -2.5212
  868SOL     OW 2602   0.287   2.227   2.060 -0.0271 -0.1305 -0.7347
  868SOL    HW1 2603   0.286   2.283   1.973  1.8944 -0.8470 -0.6595
  868SOL    HW2 2604   0.314   2.271   2.152 -0.9491  0.2949 -0.3650
  869SOL     OW 2605   2.153   2.585   2.033  0.3177 -0.4993  0.2055
  869SOL    HW1 2606   2.062   2.561   2.078  0.2385  0.7432 -1.5442
  869SOL    HW2 2607   2.221   2.589   2.105 -1.2901  0.5797 -0.3609
  870SOL     OW 2608   1.463   1.405   0.843 -0.3906  0.0378  0.8141
  870SOL    HW1 2609   1.494   1.362   0.756 -1.4265 -0.1000  1.1038
  870SOL    HW2 2610   1.490   1.345   0.914 -0.7680  1.8545 -1.5910
  871SOL     OW 2611   0.075   1.691   1.469  0.2063  0.2427  0.1476
  871SOL    HW1 2612   0.153   1.633   1.465 -3.1277  0.4708  0.0092
  871SOL    HW2 2613   0.010   1.658   1.399  0.4133  0.7897  3.0240
  872SOL     OW 2614   0.874   1.794   2.575  0.0574 -0.2305 -0.1412
  872SOL    HW1 2615   0.917   1.821   2.661 -2.1782 -1.4034 -0.2107
  872SOL    HW2 2616   0.880   1.868   2.507  0.3721 -3.1532  1.2706
  873SOL     OW 2617   0.756   1.689   2.087 -0.3415 -0.1431  0.5701
  873SOL    HW1 2618   0.703   1.759   2.135  0.2985 -0.4335 -3.2485
  873SOL    HW2 2619   0.808   1.625   2.145 -1.3553 -0.6722 -0.8490
  874SOL     OW 2620   1.532   0.819   2.137  0.2146 -0.2224  0.2680
  874SOL    HW1 2621   1.546   0.748   2.061 -0.6020 -1.1829 -1.2808
  874SOL    HW2 2622   1.522   0.916   2.103 -2.2867  1.5930 -2.8631
  875SOL     OW 2623   0.036   0.020   0.241 -0.0353  0.0662  0.1122
  875SOL    HW1 2624   0.103   0.075   0.283 -1.3432 -0.4355 -2.8259
  875SOL    HW2 2625   0.018   3.026   0.286  2.3091  0.0293 -2.2923
  876SOL     OW 2626   0.882   1.514   0.530 -0.0763  0.0878  0.2904
  876SOL    HW1 2627   0.915   1.607   0.501  0.4245  1.5778 -0.3652
  876SOL    HW2 2628   0.868   1.507   0.629 -0.4747  2.1382 -0.5043
  877SOL     OW 2629   2.523   3.047   0.724  0.5114 -0.2599  0.0631
  877SOL    HW1 2630   2.576   3.004   0.799  1.5524 -2.0588  1.7250
  877SOL    HW2 2631   2.423   3.037   0.735  0.1415  2.1968  0.7566
  878SOL     OW 2632   1.993   1.605   0.474 -0.1003  0.0303  0.3570
  878SOL    HW1 2633   2.009   1.702   0.445 -1.9198 -1.9592 -0.7008
  878SOL    HW2 2634   2.026   1.595   0.571 -0.2792  0.2723  0.7546
  879SOL     OW 2635   2.419   1.662   1.363 -0.2762 -0.0565 -0.0833
  879SOL    HW1 2636   2.399   1.579   1.315  0.2346  0.8863 -1.0884
  879SOL    HW2 2637   2.514   1.701   1.350 -0.4652  3.1618  0.3945
  880SOL     OW 2638   0.551   1.961   0.635 -0.3549 -0.4401 -0.0102
  880SOL    HW1 2639   0.504   1.953   0.726 -0.0066 -2.5887  1.9513
  880SOL    HW2 2640   0.484   2.002   0.567  0.1636 -1.5888 -0.5245
  881SOL     OW 2641   0.889   0.808   0.791  0.2498  0.2125 -0.2089
  881SOL    HW1 2642   0.942   0.874   0.736  2.3699 -4.7285  0.2252
  881SOL    HW2 2643   0.806   0.778   0.737 -0.5909  0.4619 -1.7470
  882SOL     OW 2644   2.441   1.076   0.726  0.1150 -0.1151  0.3373
  882SOL    HW1 2645   2.343   1.108   0.730 -0.1947 -1.2814  0.4010
  882SOL    HW2 2646   2.442   0.978   0.694 -1.2127  0.7656 -0.0850
  883SOL     OW 2647   1.813   0.349   1.784  0.0264 -0.3474  0.0380
  883SOL    HW1 2648   1.820   0.356   1.681  0.0150  0.4655 -0.8478
  883SOL    HW2 2649   1.825   0.441   1.830 -0.8712 -3.3641 -1.2373
  884SOL     OW 2650   2.841   0.340   1.614 -0.3893 -0.9825  0.3208
  884SOL    HW1 2651   2.927   0.358   1.659 -4.7174 -0.7930  0.3836
  884SOL    HW2 2652   2.756   0.359   1.666 -1.5644 -1.7008 -0.2218
  885SOL     OW 2653   1.331   1.134   2.611  0.8252  0.5351  0.5796
  885SOL    HW1 2654   1.233   1.143   2.587  2.6134  0.1113  2.7433
  885SOL    HW2 2655   1.378   1.099   2.529 -1.0289  3.2101 -1.8418
  886SOL     OW 2656   1.921   0.661   2.652 -0.7127 -0.1109 -0.2808
  886SOL    HW1 2657   1.985   0.736   2.633 -1.7188 -0.4949 -0.8535
  886SOL    HW2 2658   1.865   0.645   2.575  2.4037 -2.8161  2.7469
  887SOL     OW 2659   1.505   0.096   1.528  0.2199 -0.8851 -0.1160
  887SOL    HW1 2660   1.551   0.173   1.480 -0.4148 -0.0827  0.2268
  887SOL    HW2 2661   1.534   0.007   1.487  4.4303 -2.9676  0.8699
  888SOL     OW 2662   2.040   1.616   1.885  0.3437  0.2736  0.3260
  888SOL    HW1 2663   2.029   1.675   1.802  2.4676 -1.8666 -2.2776
  888SOL    HW2 2664   2.039   1.667   1.972 -1.5677 -1.1874 -1.6251
  889SOL     OW 2665   1.826   2.096   0.544  0.3247 -0.2208  0.1510
  889SOL    HW1 2666   1.912   2.065   0.588  3.7784  1.7037 -3.2721
  889SOL    HW2 2667   1.810   2.049   0.455 -1.0153  2.4023  0.8369
  890SOL     OW 2668   1.018   2.214   0.370  0.3979  0.4667  0.1121
  890SOL    HW1 2669   0.974   2.135   0.417 -1.1258  1.0691  0.9522
  890SOL    HW2 2670   1.052   2.274   0.440 -3.0587 -2.0742  2.9351
  891SOL     OW 2671   2.779   0.934   3.033  0.1211  0.2600 -0.1383
  891SOL    HW1 2672   2.874   0.973   3.044  1.6850 -2.1933 -0.7195
  891SOL    HW2 2673   2.702   0.996   3.058 -2.3199 -2.3584 -2.6146
  892SOL     OW 2674   1.577   0.632   2.546  0.2019  0.2280  0.0374
  892SOL    HW1 2675   1.571   0.563   2.617  0.2192  2.0106 -1.0227
  892SOL    HW2 2676   1.577   0.583   2.455  1.0469 -1.0293  1.7297
  893SOL     OW 2677   1.553   2.975   1.380 -0.1080 -0.3134  0.6010
  893SOL    HW1 2678   1.597   2.964   1.286  0.7350 -3.0052 -1.1492
  893SOL    HW2 2679   1.565   2.896   1.437  0.3341  0.8951  1.1625
  894SOL     OW 2680   0.002   2.846   0.645 -0.1582  0.0955 -0.1824
  894SOL    HW1 2681   2.998   2.847   0.659  1.5661 -1.2202 -0.2720
  894SOL    HW2 2682   0.062   2.894   0.716  0.5212  2.8063 -0.6428
  895SOL     OW 2683   1.986   2.577   0.006  0.0784 -0.0350 -0.1531
  895SOL    HW1 2684   1.961   2.531   3.016  0.8691 -0.8573  2.9488
  895SOL    HW2 2685   2.062   2.645   3.081 -0.4793  1.3310  1.9131
  896SOL     OW 2686   2.276   0.106   2.418 -0.4078  0.5178 -0.2071
  896SOL    HW1 2687   2.181   0.068   2.436  0.1499  0.9866  0.2240
  896SOL    HW2 2688   2.315   0.095   2.323 -0.6661 -2.6001  0.5184
  897SOL     OW 2689   0.354   1.527   1.707 -0.9335  0.0015 -0.2866
  897SOL    HW1 2690   0.379   1.507   1.801 -2.0427  1.3192 -1.0820
  897SOL    HW2 2691   0.393   1.620   1.684 -1.2175  2.1201  0.3462
  898SOL     OW 2692   2.402   1.713   1.699  0.1358  0.0374 -0.7564
  898SOL    HW1 2693   2.338   1.729   1.617  1.3857 -1.8641 -0.9355
  898SOL    HW2 2694   2.478   1.782   1.696  0.6718  0.9892 -0.3058
  899SOL     OW 2695   1.606   2.053   1.006 -0.1627 -0.1494 -0.1708
  899SOL    HW1 2696   1.518   2.064   1.051  0.0586 -0.2941 -0.2756
  899SOL    HW2 2697   1.595   2.047   0.906 -0.6519  1.0055 -1.0924
  900SOL     OW 2698   1.177   0.595   3.021  0.2057  0.6072  0.3454
  900SOL    HW1 2699   1.148   0.689   3.017 -0.9245 -0.4514 -0.4426
  900SOL    HW2 2700   1.146   0.561   2.929 -0.6886  0.1976 -3.3310
  901SOL     OW 2701   1.463   1.806   2.536  0.6338 -0.1119  0.4811
  901SOL    HW1 2702   1.566   1.813   2.538 -1.7969 -0.5486 -2.1513
  901SOL    HW2 2703   1.430   1.811   2.440 -0.3506  2.2054 -0.1342
  902SOL     OW 2704   2.841   2.685   3.091 -0.0223  0.2814 -0.1776
  902SOL    HW1 2705   2.744   2.717   3.097 -1.4743 -0.1428 -1.3108
  902SOL    HW2 2706   2.853   2.595   0.045  0.0829 -1.3060 -0.3503
  903SOL     OW 2707   2.246   0.755   2.074  0.5313  0.2436 -0.4942
  903SOL    HW1 2708   2.256   0.656   2.089  1.3138  1.0691 -1.0368
  903SOL    HW2 2709   2.335   0.805   2.101  4.5063 -0.5564  1.8397
  904SOL     OW 2710   1.450   0.416   2.724 -0.1361 -0.0209  0.1821
  904SOL    HW1 2711   1.357   0.409   2.691  2.3468  0.0518  1.5986
  904SOL    HW2 2712   1.500   0.334   2.695 -0.8762  1.5198  4.1551
  905SOL     OW 2713   2.224   2.518   1.382 -0.2892  0.2409  0.5443
  905SOL    HW1 2714   2.209   2.566   1.472 -2.3726 -1.3794 -1.3716
  905SOL    HW2 2715   2.277   2.574   1.315 -0.7378  1.3432  1.2450
  906SOL     OW 2716   1.344   1.988   0.116 -0.0589  0.2158 -0.2532
  906SOL    HW1 2717   1.426   1.927   0.130  1.8888  0.6577  0.1389
  906SOL    HW2 2718   1.358   2.050   0.037  0.8492  1.9899 -0.8427
  907SOL     OW 2719   0.635   2.737   0.789 -0.5114 -0.0174 -0.3060
  907SOL    HW1 2720   0.631   2.690   0.876  3.2070  0.1188  0.1663
  907SOL    HW2 2721   0.591   2.679   0.718 -0.2378  0.3852  0.3597
  908SOL     OW 2722   1.277   2.824   1.948  1.0552 -0.2477 -0.2136
  908SOL    HW1 2723   1.293   2.836   1.847  1.1179  3.6689 -2.0651
  908SOL    HW2 2724   1.340   2.759   1.990 -3.5211 -1.9712 -2.6524
  909SOL     OW 2725   1.861   0.358   1.516  0.1965 -0.1531 -0.6315
  909SOL    HW1 2726   1.899   0.450   1.492 -1.9875  0.4802 -1.3174
  909SOL    HW2 2727   1.907   0.285   1.461  2.1069 -3.2967 -0.4346
  910SOL     OW 2728   1.338   0.961   3.025 -0.0221 -0.0338  0.1022
  910SOL    HW1 2729   1.260   0.995   2.966 -2.1399  1.1297  1.3830
  910SOL    HW2 2730   1.366   0.867   2.991  0.7636 -0.4267 -0.8273
  911SOL     OW 2731   0.017   0.849   0.116 -0.3238 -0.2634 -0.1799
  911SOL    HW1 2732   3.056   0.768   0.104  0.3414  1.7786  1.6243
  911SOL    HW2 2733   3.050   0.927   0.126  0.6483 -0.5574 -3.2405
  912SOL     OW 2734   2.989   2.466   0.093 -0.4823  0.6818  0.1062
  912SOL    HW1 2735   3.040   2.549   0.122  0.4983  0.0342  1.2965
  912SOL    HW2 2736   2.993   2.395   0.169  0.1431 -0.0177 -1.3915
  913SOL     OW 2737   2.615   2.291   2.466  0.8746  0.1459 -0.1234
  913SOL    HW1 2738   2.676   2.286   2.549 -0.7056 -3.5294 -2.7930
  913SOL    HW2 2739   2.639   2.233   2.387 -0.5062 -3.0271  0.8287
  914SOL     OW 2740   1.551   1.986   1.525 -0.0331 -0.0828  0.1404
  914SOL    HW1 2741   1.571   1.930   1.440 -2.3051  1.5888 -0.3955
  914SOL    HW2 2742   1.607   1.958   1.604 -0.6001 -1.0048  0.7511
  915SOL     OW 2743   0.833   2.955   2.004  0.7467 -0.1472 -0.0337
  915SOL    HW1 2744   0.819   2.902   1.922  0.6490  0.6831  0.8279
  915SOL    HW2 2745   0.793   3.048   2.003  0.4596 -4.4424  0.3816
  916SOL     OW 2746   0.625   0.917   1.868 -0.3259 -0.3313 -0.2839
  916SOL    HW1 2747   0.532   0.880   1.834 -1.6309  0.6854  1.3689
  916SOL    HW2 2748   0.615   1.003   1.926 -2.0900  1.0470  2.7529
  917SOL     OW 2749   2.514   0.509   0.660  0.1050 -0.2383  0.1015
  917SOL    HW1 2750   2.456   0.457   0.597  2.3953  0.5337 -0.3999
  917SOL    HW2 2751   2.555   0.444   0.728 -1.5418 -0.5402 -1.9318
  918SOL     OW 2752   1.790   2.777   2.326  0.3982  0.2425 -0.2544
  918SOL    HW1 2753   1.801   2.869   2.373 -0.0579  1.1056  0.6590
  918SOL    HW2 2754   1.718   2.725   2.371  0.3744  1.2636  0.1529
  919SOL     OW 2755   1.502   2.763   1.625 -1.0499 -0.1791  0.0916
  919SOL    HW1 2756   1.590   2.771   1.677  0.9322 -0.2361  0.8606
  919SOL    HW2 2757   1.429   2.722   1.685  1.1131  0.1807 -0.4904
  920SOL     OW 2758   0.774   0.910   3.092  0.5997 -0.0733 -0.4055
  920SOL    HW1 2759   0.727   0.950   3.011  0.7894 -1.5311 -0.0861
  920SOL    HW2 2760   0.748   0.814   0.009 -0.5301 -0.2005 -0.2477
  921SOL     OW 2761   0.125   0.354   2.811 -0.0010 -0.1846  0.0741
  921SOL    HW1 2762   0.041   0.305   2.786  1.8318  0.3220 -0.3005
  921SOL    HW2 2763   0.209   0.296   2.790  1.4661  0.6090  0.4091
  922SOL     OW 2764   0.703   1.596   1.036 -0.2598 -0.0927 -0.1064
  922SOL    HW1 2765   0.745   1.549   1.114 -0.3807 -0.3209 -1.1046
  922SOL    HW2 2766   0.660   1.686   1.065  2.7128 -0.4627  0.2669
  923SOL     OW 2767   0.547   1.167   1.983 -0.5158 -0.3307 -0.2379
  923SOL    HW1 2768   0.481   1.183   1.905 -1.7948 -4.3881  0.0144
  923SOL    HW2 2769   0.489   1.157   2.066  2.8648  1.2065 -0.5694
  924SOL     OW 2770   1.449   3.086   2.944 -0.0741 -0.0558 -0.1917
  924SOL    HW1 2771   1.388   3.007   2.957  2.8806 -2.5838 -1.0892
  924SOL    HW2 2772   1.404   0.062   2.892  0.6381 -1.7089  0.7716
  925SOL     OW 2773   2.733   1.196   1.159 -0.6541 -0.4190  0.0092
  925SOL    HW1 2774   2.771   1.129   1.228  1.4447  0.7009  0.2746
  925SOL    HW2 2775   2.663   1.155   1.097  0.9629  1.3752 -2.6399
  926SOL     OW 2776   1.751   0.678   1.521  0.3542  0.0387  0.2090
  926SOL    HW1 2777   1.829   0.635   1.471  1.3183  1.3550 -0.1765
  926SOL    HW2 2778   1.768   0.767   1.565  1.9364  0.5999 -0.7497
  927SOL     OW 2779   2.019   2.816   1.231  0.1310  0.1989  0.0443
  927SOL    HW1 2780   2.110   2.829   1.194 -0.7540  0.9983 -0.8339
  927SOL    HW2 2781   1.949   2.882   1.199 -0.7308  3.5425 -2.2409
  928SOL     OW 2782   0.392   1.072   2.188 -0.8415  0.4620 -0.1241
  928SOL    HW1 2783   0.346   1.126   2.261  0.3041  2.5584 -0.3439
  928SOL    HW2 2784   0.386   0.970   2.208  0.4193 -0.4636 -0.8435
  929SOL     OW 2785   2.652   0.383   0.892  0.1894 -0.2315 -0.0942
  929SOL    HW1 2786   2.650   0.304   0.958 -2.1638 -0.6388 -1.0985
  929SOL    HW2 2787   2.579   0.452   0.926 -1.9789  0.2973  4.9056
  930SOL     OW 2788   2.997   2.928   1.782 -0.2157 -0.0335  0.2491
  930SOL    HW1 2789   2.982   3.022   1.812  0.2310 -0.7612  2.7008
  930SOL    HW2 2790   3.001   2.863   1.859  0.5242 -1.1171 -0.7958
  931SOL     OW 2791   1.638   0.837   0.871 -0.1480  0.5139  0.1756
  931SOL    HW1 2792   1.582   0.800   0.795 -0.3602  0.7284 -1.3466
  931SOL    HW2 2793   1.581   0.840   0.955 -1.2815 -0.7090 -1.3979
  932SOL     OW 2794   2.836   1.204   1.800 -0.0122 -0.4541  0.5400
  932SOL    HW1 2795   2.845   1.111   1.760  1.5347 -1.6357  0.0081
  932SOL    HW2 2796   2.912   1.255   1.754 -3.0184 -0.9223  0.7019
  933SOL     OW 2797   2.905   2.368   1.575  0.4601  0.2232  0.3855
  933SOL    HW1 2798   2.825   2.422   1.610 -1.9489  2.8205  1.5571
  933SOL    HW2 2799   2.921   2.382   1.477  0.4489  1.0650  0.5158
  934SOL     OW 2800   0.677   1.948   1.360  0.2116  0.2116  0.1241
  934SOL    HW1 2801   0.710   1.866   1.416  0.8465  0.1933  1.1143
  934SOL    HW2 2802   0.582   1.978   1.384 -0.5092 -0.9138 -1.4513
  935SOL     OW 2803   2.802   1.680   1.760 -0.0708  0.0763 -0.4939
  935SOL    HW1 2804   2.746   1.602   1.793  0.6993 -0.2056  1.5190
  935SOL    HW2 2805   2.759   1.724   1.678  0.4732  1.3315  0.3014
  936SOL     OW 2806   2.498   1.490   1.608 -0.5594  0.2693 -0.4997
  936SOL    HW1 2807   2.466   1.490   1.511  1.6596 -0.3735  1.5457
  936SOL    HW2 2808   2.444   1.562   1.663 -2.0002  1.9206  0.4756
  937SOL     OW 2809   1.818   0.945   1.615 -0.2001 -0.3043 -0.1346
  937SOL    HW1 2810   1.724   0.981   1.638 -2.6784  1.0799  1.6523
  937SOL    HW2 2811   1.866   1.001   1.544  0.0271  2.6893  0.3318
  938SOL     OW 2812   0.709   2.648   2.625  0.8302  0.3274 -0.2102
  938SOL    HW1 2813   0.671   2.584   2.694  0.1339  1.0372  1.2298
  938SOL    HW2 2814   0.792   2.695   2.663  2.2751  0.1404 -1.7055
  939SOL     OW 2815   2.299   1.424   2.976  0.0259 -0.2312 -0.8165
  939SOL    HW1 2816   2.353   1.339   2.990 -1.7862 -0.5583  1.0193
  939SOL    HW2 2817   2.343   1.479   2.902  1.0693 -0.1474 -1.1988
  940SOL     OW 2818   1.352   1.885   0.406  1.1232 -0.5700 -0.1724
  940SOL    HW1 2819   1.417   1.805   0.410 -0.7070  0.1665  1.3279
  940SOL    HW2 2820   1.310   1.895   0.311 -2.5690 -1.5282  2.3059
  941SOL     OW 2821   1.756   2.957   2.716 -0.1037  0.3244 -0.1549
  941SOL    HW1 2822   1.722   2.912   2.800 -2.1858  1.1433 -1.0474
  941SOL    HW2 2823   1.765   3.058   2.738  2.4144  0.9915 -1.3646
  942SOL     OW 2824   0.876   2.496   0.445  0.9680 -0.6285  0.1392
  942SOL    HW1 2825   0.972   2.466   0.463 -1.1216  2.5681  0.7464
  942SOL    HW2 2826   0.868   2.554   0.362  0.6265  0.0896  2.3759
  943SOL     OW 2827   2.162   0.664   1.700  0.0319 -0.8121  0.1314
  943SOL    HW1 2828   2.262   0.670   1.724 -1.7589 -0.3876 -0.5165
  943SOL    HW2 2829   2.121   0.584   1.748  1.7635  1.9231 -0.1956
  944SOL     OW 2830   1.121   1.069   2.850 -0.2250 -0.1189 -0.5173
  944SOL    HW1 2831   1.056   1.144   2.868 -1.2940 -3.3123  1.6527
  944SOL    HW2 2832   1.139   1.049   2.756  0.6477 -1.2784  1.1735
  945SOL     OW 2833   2.925   2.401   1.306  0.2507 -0.0361  0.0626
  945SOL    HW1 2834   2.825   2.387   1.311 -0.7755  0.3692 -1.7573
  945SOL    HW2 2835   2.944   2.438   1.212 -2.9661 -0.4446 -0.1910
  946SOL     OW 2836   0.581   1.057   2.962 -0.3178  0.2507  0.1163
  946SOL    HW1 2837   0.539   1.133   3.008  2.1173  1.2000  2.6070
  946SOL    HW2 2838   0.570   1.064   2.858 -2.9590  2.5823 -2.2233
  947SOL     OW 2839   1.915   0.418   2.111  0.3610 -0.4975  0.2499
  947SOL    HW1 2840   1.870   0.428   2.202 -0.0488  1.4349  1.7495
  947SOL    HW2 2841   1.920   0.318   2.085 -0.9098 -0.4725 -1.7733
  948SOL     OW 2842   0.014   2.058   0.802 -0.7154 -0.3397 -0.4726
  948SOL    HW1 2843   0.074   2.091   0.882 -0.3461  0.0431  1.0154
  948SOL    HW2 2844   3.047   1.985   0.842 -2.6110 -2.0114  1.9119
  949SOL     OW 2845   1.128   1.284   1.819  0.5886  0.5748  0.4455
  949SOL    HW1 2846   1.077   1.213   1.767  0.5015 -0.4746 -0.6994
  949SOL    HW2 2847   1.071   1.333   1.886  1.5204 -0.6205 -3.8564
  950SOL     OW 2848   0.273   0.866   0.980 -0.0161  0.0498  0.2261
  950SOL    HW1 2849   0.338   0.791   0.994 -2.6494  1.0182 -0.7351
  950SOL    HW2 2850   0.321   0.939   0.922  0.6518 -0.9957 -3.3673
  951SOL     OW 2851   0.258   1.696   2.342  0.1288 -0.4092  0.5527
  951SOL    HW1 2852   0.214   1.615   2.389  0.1410 -1.0994 -0.2746
  951SOL    HW2 2853   0.357   1.675   2.330 -2.4469 -0.6504 -0.0438
  952SOL     OW 2854   1.467   1.657   0.131 -0.2911 -0.1201  0.6047
  952SOL    HW1 2855   1.455   1.559   0.145  2.4179  1.1392  1.1078
  952SOL    HW2 2856   1.445   1.681   0.032 -2.6893 -0.1863 -1.1096
  953SOL     OW 2857   0.997   0.500   0.103 -0.3391  0.5585  0.2497
  953SOL    HW1 2858   1.073   0.538   0.037  0.6779  1.9944 -0.3472
  953SOL    HW2 2859   0.936   0.573   0.135 -1.8727  1.5875  1.4350
  954SOL     OW 2860   1.883   1.102   0.294  0.4861  0.1552 -0.3853
  954SOL    HW1 2861   1.937   1.158   0.361 -1.4514  0.9056  1.4342
  954SOL    HW2 2862   1.801   1.063   0.339  2.0813  1.6304 -2.5943
  955SOL     OW 2863   2.455   1.890   2.962  0.1813 -0.0860 -0.0882
  955SOL    HW1 2864   2.503   1.801   2.977 -0.9679 -0.8056  3.2413
  955SOL    HW2 2865   2.476   1.934   2.870 -0.2490  1.0453  0.8603
  956SOL     OW 2866   1.107   0.613   1.525  0.2211  0.2764 -0.2254
  956SOL    HW1 2867   1.116   0.705   1.488  1.2769  2.7679  3.6071
  956SOL    HW2 2868   1.161   0.603   1.614  0.7194 -1.9017 -0.7429
  957SOL     OW 2869   1.635   1.152   1.697  0.0943 -0.2452 -0.5321
  957SOL    HW1 2870   1.709   1.154   1.766  1.2419 -2.2152  0.9468
  957SOL    HW2 2871   1.589   1.247   1.694 -2.1724 -1.1464  0.6984
  958SOL     OW 2872   0.280   1.871   0.419  0.8090 -0.6929 -0.0054
  958SOL    HW1 2873   0.288   1.803   0.341 -1.3777  0.7814 -1.7642
  958SOL    HW2 2874   0.346   1.946   0.409 -0.5334 -1.3223 -2.7182
  959SOL     OW 2875   1.720   1.273   1.382 -0.1031 -0.3915  0.2744
  959SOL    HW1 2876   1.661   1.213   1.435 -2.1929 -0.1674  0.5861
  959SOL    HW2 2877   1.661   1.344   1.338  0.2233 -2.6569 -0.7589
  960SOL     OW 2878   2.973   1.437   2.693 -0.1444 -0.0824  0.1872
  960SOL    HW1 2879   2.944   1.451   2.789  2.4858 -0.4008 -1.3831
  960SOL    HW2 2880   3.070   1.461   2.684  0.9708  0.0675  3.6151
  961SOL     OW 2881   1.109   1.732   0.665 -0.3683 -0.0958 -0.5729
  961SOL    HW1 2882   1.037   1.668   0.702  0.1942 -0.9580 -0.4374
  961SOL    HW2 2883   1.172   1.759   0.739 -0.5149 -2.3902  0.3628
  962SOL     OW 2884   0.930   0.954   0.567 -0.0804  0.0870  0.0810
  962SOL    HW1 2885   1.009   0.995   0.520 -1.7662 -1.0359  1.9851
  962SOL    HW2 2886   0.847   1.013   0.583  0.1162  0.6952  0.6331
  963SOL     OW 2887   1.455   2.031   2.055 -0.0717  0.0701 -0.1178
  963SOL    HW1 2888   1.556   2.028   2.068  0.8021 -0.6366  2.5181
  963SOL    HW2 2889   1.425   1.940   2.032  0.5802  0.9369 -0.5589
  964SOL     OW 2890   2.894   2.847   2.873 -0.6171 -0.2415  0.1793
  964SOL    HW1 2891   2.893   2.774   2.946  0.8424 -0.6888  1.0899
  964SOL    HW2 2892   2.906   2.805   2.780 -1.1119  1.4686  2.1064
  965SOL     OW 2893   0.709   2.176   3.081 -0.1093  0.3185  0.5811
  965SOL    HW1 2894   0.622   2.229   3.067  0.3354  1.2954  0.8864
  965SOL    HW2 2895   0.744   2.201   0.075 -0.8987 -0.1422 -0.1852
  966SOL     OW 2896   2.887   1.554   2.938  0.9172 -0.1483 -0.1682
  966SOL    HW1 2897   2.790   1.536   2.970 -4.2874  0.6645  0.2843
  966SOL    HW2 2898   2.892   1.635   2.881  1.4249 -0.8168 -1.4288
  967SOL     OW 2899   2.130   3.038   2.690  0.0427 -0.1910 -0.0999
  967SOL    HW1 2900   2.216   2.998   2.726  1.5686  1.5267  0.6860
  967SOL    HW2 2901   2.069   2.965   2.650 -0.6379  2.8145 -0.3129
  968SOL     OW 2902   2.111   2.848   0.486 -0.5617 -0.6799 -0.1876
  968SOL    HW1 2903   2.048   2.774   0.446 -0.1430  0.1331 -0.2535
  968SOL    HW2 2904   2.066   2.881   0.575 -0.9763  1.7684  0.9020
  969SOL     OW 2905   0.792   1.044   2.534  0.1464 -0.3078  0.1011
  969SOL    HW1 2906   0.819   0.986   2.613  2.1250 -0.9315  0.3458
  969SOL    HW2 2907   0.693   1.052   2.512 -1.8155  0.4481 -0.0864
  970SOL     OW 2908   1.562   1.243   1.048  0.5127  0.6826 -0.1953
  970SOL    HW1 2909   1.519   1.189   1.122 -2.4744 -0.1913  1.8824
  970SOL    HW2 2910   1.659   1.259   1.065 -1.1210  0.6161 -0.3482
  971SOL     OW 2911   2.342   3.094   1.292  0.3949 -0.1376  0.1526
  971SOL    HW1 2912   2.273   0.068   1.307 -3.0289  1.5139  0.1069
  971SOL    HW2 2913   2.436   0.027   1.309 -1.3611 -0.4410 -2.9927
  972SOL     OW 2914   2.956   0.096   1.481  0.2096  0.4082 -0.0466
  972SOL    HW1 2915   2.888   0.036   1.533 -1.8609  0.3792  2.0736
  972SOL    HW2 2916   2.960   0.188   1.523  1.9451 -0.7380 -0.7401
  973SOL     OW 2917   0.058   0.130   2.537 -0.0476 -0.2172  0.1088
  973SOL    HW1 2918   0.144   0.118   2.594  1.4589 -1.5861  0.3386
  973SOL    HW2 2919   3.080   0.172   2.595  0.0953  0.1302 -0.7404
  974SOL     OW 2920   2.228   1.120   2.282 -0.0630 -0.3217 -0.2048
  974SOL    HW1 2921   2.196   1.060   2.360 -1.0633  1.3874 -3.2769
  974SOL    HW2 2922   2.154   1.126   2.211  1.9330 -1.0059 -1.5361
  975SOL     OW 2923   0.743   0.448   1.595 -0.2864  0.0314  0.6608
  975SOL    HW1 2924   0.728   0.429   1.495  0.5267 -2.8145  0.9902
  975SOL    HW2 2925   0.781   0.541   1.606  0.4015 -1.2539 -0.7567
  976SOL     OW 2926   0.599   1.900   2.194 -0.7798 -0.2687  0.7896
  976SOL    HW1 2927   0.533   1.897   2.116  1.7337 -0.6144 -2.0525
  976SOL    HW2 2928   0.645   1.988   2.200  0.7486  2.0347  0.5011
  977SOL     OW 2929   0.705   0.163   0.468 -0.3397  0.5234 -0.2180
  977SOL    HW1 2930   0.713   0.255   0.428 -0.9002 -1.9254 -0.5221
  977SOL    HW2 2931   0.669   0.170   0.563  0.5134  0.6470  1.3641
  978SOL     OW 2932   2.687   1.485   2.113  0.6526 -0.3109  0.1583
  978SOL    HW1 2933   2.700   1.473   2.012 -0.6253  0.2482  0.1074
  978SOL    HW2 2934   2.741   1.412   2.159 -0.9661 -1.2799 -1.5210
  979SOL     OW 2935   1.697   0.155   1.990 -0.0895  0.4462  0.4777
  979SOL    HW1 2936   1.718   0.221   1.910 -1.3990  0.1394 -3.9302
  979SOL    HW2 2937   1.785   0.142   2.035 -4.3698  2.8987 -0.8449
  980SOL     OW 2938   1.630   1.626   1.777 -0.0710  0.2501 -0.3173
  980SOL    HW1 2939   1.671   1.630   1.679  3.6819 -1.5923 -1.2845
  980SOL    HW2 2940   1.530   1.611   1.782 -0.4813 -0.5945 -1.1508
  981SOL     OW 2941   2.542   1.095   1.430  0.2628  0.1886  0.1099
  981SOL    HW1 2942   2.546   1.081   1.533  0.6617 -0.4801  3.5354
  981SOL    HW2 2943   2.636   1.122   1.393  0.0329 -1.2136  0.4539
  982SOL     OW 2944   0.527   2.854   2.798  0.4064  0.0397  0.0014
  982SOL    HW1 2945   0.512   2.792   2.719 -0.6900 -0.5860  2.4742
  982SOL    HW2 2946   0.572   2.800   2.872  0.8376 -2.7372 -0.7371
  983SOL     OW 2947   2.804   0.717   2.679 -0.0003 -0.2349  0.5186
  983SOL    HW1 2948   2.903   0.736   2.658  0.1047 -1.6779  0.1229
  983SOL    HW2 2949   2.746   0.799   2.682  0.4652 -0.4072 -1.9037
  984SOL     OW 2950   1.238   0.048   1.986  0.1878 -0.0589 -0.1665
  984SOL    HW1 2951   1.299   3.065   1.987 -0.1350 -2.7494  0.0832
  984SOL    HW2 2952   1.191   0.052   1.895 -1.8974 -1.8059  1.4032
  985SOL     OW 2953   2.074   2.026   1.997  0.3916 -0.1416  0.4607
  985SOL    HW1 2954   2.031   2.019   1.905  0.4839  0.7295  1.2176
  985SOL    HW2 2955   2.086   1.937   2.052 -0.6665 -2.1159  0.1129
  986SOL     OW 2956   2.455   0.370   1.347 -0.1988 -0.5157 -0.3335
  986SOL    HW1 2957   2.382   0.366   1.417  0.7737  2.1353  1.7997
  986SOL    HW2 2958   2.548   0.349   1.383 -0.8395  1.5808  0.7955
  987SOL     OW 2959   2.289   1.154   1.016 -0.1619 -0.1484 -0.3785
  987SOL    HW1 2960   2.291   1.056   0.985 -0.6003  0.4034  1.7277
  987SOL    HW2 2961   2.374   1.207   0.994  2.2144  2.2251 -1.7449
  988SOL     OW 2962   2.418   1.164   1.958 -0.3237  0.4781  0.9661
  988SOL    HW1 2963   2.480   1.156   2.035 -0.8567  1.5383  0.1138
  988SOL    HW2 2964   2.371   1.251   1.952  1.6662 -1.5414 -1.0599
  989SOL     OW 2965   1.171   2.539   0.081 -0.5208  0.0940 -0.9230
  989SOL    HW1 2966   1.124   2.591   0.154 -0.4776 -2.2362 -0.4536
  989SOL    HW2 2967   1.188   2.439   0.108 -0.1091  0.0465 -1.1543
  990SOL     OW 2968   1.575   0.871   2.648 -0.0981  0.2939  0.1513
  990SOL    HW1 2969   1.580   0.773   2.609  0.7424 -2.4740  0.1781
  990SOL    HW2 2970   1.538   0.874   2.742  1.0718  0.9353 -3.4965
  991SOL     OW 2971   1.271   0.439   0.541  0.0449  0.0474 -0.1163
  991SOL    HW1 2972   1.360   0.459   0.597  0.3839 -0.7969  2.6942
  991SOL    HW2 2973   1.286   0.373   0.468 -1.2528  3.5548  1.3752
  992SOL     OW 2974   2.943   1.822   1.125 -0.9097 -0.2261  0.0919
  992SOL    HW1 2975   2.918   1.846   1.029 -0.3264  2.1398  1.6038
  992SOL    HW2 2976   2.983   1.902   1.174 -2.1775 -0.5211  0.5549
  993SOL     OW 2977   2.859   0.455   1.171 -0.0145  0.1029  0.2884
  993SOL    HW1 2978   2.803   0.543   1.163 -0.7882 -0.3607  0.8433
  993SOL    HW2 2979   2.948   0.467   1.220 -1.6922  1.7452  1.6951
  994SOL     OW 2980   3.087   2.379   2.557 -0.0477 -0.3024  0.6017
  994SOL    HW1 2981   0.089   2.394   2.562  1.7970 -0.0924  1.6451
  994SOL    HW2 2982   3.049   2.444   2.622 -0.3883  1.1011  1.8811
  995SOL     OW 2983   1.797   1.010   2.753 -0.3689 -0.1516  0.3417
  995SOL    HW1 2984   1.895   1.033   2.729  2.5132  0.3527  1.4274
  995SOL    HW2 2985   1.746   0.936   2.697  1.4514 -1.6517 -1.5467
  996SOL     OW 2986   2.755   1.468   0.658  0.0412 -0.7235  0.0042
  996SOL    HW1 2987   2.707   1.541   0.599 -0.6327  2.5534 -1.3616
  996SOL    HW2 2988   2.815   1.408   0.602 -0.3099 -2.2239  0.2536
  997SOL     OW 2989   2.043   0.888   2.271 -0.5239  0.1145  0.3527
  997SOL    HW1 2990   2.127   0.856   2.221  1.3215  2.3733 -1.4011
  997SOL    HW2 2991   1.970   0.912   2.208  1.8214 -2.1455 -0.1678
  998SOL     OW 2992   2.657   1.337   0.352 -0.7687  0.0003  0.2079
  998SOL    HW1 2993   2.626   1.433   0.386 -1.7652 -0.0113 -1.5123
  998SOL    HW2 2994   2.579   1.267   0.354 -2.8246  1.8690 -0.9556
  999SOL     OW 2995   3.033   2.296   0.306 -1.2695  0.6036  0.1579
  999SOL    HW1 2996   0.028   2.266   0.327 -0.9031 -1.8291 -1.5308
  999SOL    HW2 2997   2.969   2.294   0.391 -2.2987 -0.3074  1.1723
 1000SOL     OW 2998   0.836   0.667   2.671 -0.1569  0.0936 -0.3473
 1000SOL    HW1 2999   0.847   0.601   2.747  0.1558  0.3886 -0.0771
 1000SOL    HW2 3000   0.907   0.645   2.602 -0.0896  0.0688  0.2157
   3.09757   3.09757   3.09757
