1000 SPC/Fw water molecules t= 265.00000 step= 265000
 3000
    1SOL     OW    1   2.832   2.442   1.155  1.3782 -0.2416  0.2126
    1SOL    HW1    2   2.925   2.432   1.127 -1.7375  2.5178  0.0238
    1SOL    HW2    3   2.825   2.539   1.193 -2.1440 -0.3301 -0.1135
    2SOL     OW    4   1.993   2.027   1.246 -0.0924  0.5487  0.0318
    2SOL    HW1    5   2.023   1.966   1.171 -0.3183  0.8908 -1.2706
    2SOL    HW2    6   2.068   2.059   1.309 -0.4257  2.1352 -1.0041
    3SOL     OW    7   1.181   2.782   2.963  0.3084 -0.2698 -0.1355
    3SOL    HW1    8   1.079   2.798   2.934 -3.5660  2.3536 -1.0056
    3SOL    HW2    9   1.226   2.731   2.883  1.8604 -3.1899 -3.5794
    4SOL     OW   10   1.912   1.970   1.537  0.1458  0.2269  0.1963
    4SOL    HW1   11   1.846   1.922   1.600  1.3915 -0.6764 -0.9611
    4SOL    HW2   12   1.906   2.069   1.533  1.0736 -1.4742  0.3798
    5SOL     OW   13   1.237   0.809   1.305  0.1130 -0.4276 -0.1071
    5SOL    HW1   14   1.288   0.856   1.230 -0.3370  0.5692 -0.2915
    5SOL    HW2   15   1.305   0.766   1.370 -0.9149 -0.2375 -2.6499
    6SOL     OW   16   2.435   2.968   0.175 -0.2751 -0.1148 -0.1650
    6SOL    HW1   17   2.407   2.929   0.084 -0.3357 -1.5185 -0.2471
    6SOL    HW2   18   2.512   3.033   0.164  1.0474 -0.1321 -1.7444
    7SOL     OW   19   2.976   1.191   1.155 -0.0583 -0.0677  0.4642
    7SOL    HW1   20   3.027   1.230   1.074  2.5528 -0.3929  1.2276
    7SOL    HW2   21   2.930   1.275   1.193 -0.5857  2.2046 -0.4359
    8SOL     OW   22   1.364   2.838   0.984 -0.6245 -0.3304  1.0954
    8SOL    HW1   23   1.405   2.885   1.066  0.6037  3.4887  1.1748
    8SOL    HW2   24   1.415   2.750   0.979  0.5334  0.2885  0.7567
    9SOL     OW   25   1.653   3.032   2.160  0.1866 -0.2010  0.7191
    9SOL    HW1   26   1.560   3.003   2.131  0.0083 -2.4276 -2.7975
    9SOL    HW2   27   1.678   0.040   2.103 -0.3567  0.1860  0.9573
   10SOL     OW   28   0.748   2.261   0.739 -0.1849 -0.5366  0.2685
   10SOL    HW1   29   0.666   2.320   0.745  2.1063  0.6745 -0.7488
   10SOL    HW2   30   0.808   2.302   0.812 -1.3301 -0.5864  1.4752
   11SOL     OW   31   1.184   1.269   0.290  0.5542 -0.3171  0.3484
   11SOL    HW1   32   1.223   1.283   0.195  1.5142  1.5535 -2.2496
   11SOL    HW2   33   1.117   1.345   0.307 -1.0450  1.5098  0.5149
   12SOL     OW   34   2.779   2.773   1.887 -0.1899 -0.4458 -0.0190
   12SOL    HW1   35   2.796   2.688   1.838  1.2122  3.1170 -0.2189
   12SOL    HW2   36   2.866   2.819   1.909 -0.8833 -0.3401  3.8669
   13SOL     OW   37   1.851   0.055   0.552 -0.3457  0.4281  0.0513
   13SOL    HW1   38   1.829   0.129   0.627  0.1800  0.8394  3.4082
   13SOL    HW2   39   1.946   0.072   0.520  0.8416  1.1044 -2.0687
   14SOL     OW   40   1.467   2.445   1.182 -0.0680 -0.3967 -0.2102
   14SOL    HW1   41   1.442   2.376   1.113  1.0501  1.9121  1.4929
   14SOL    HW2   42   1.488   2.536   1.139 -0.2777  0.5802 -0.2854
   15SOL     OW   43   3.012   1.495   1.497  0.3828 -0.1095  0.3582
   15SOL    HW1   44   0.018   1.554   1.455  2.2010  1.2575  1.5314
   15SOL    HW2   45   3.057   1.424   1.553 -0.9211  0.3766 -1.8296
   16SOL     OW   46   2.267   2.219   0.453 -0.1169  0.3546 -0.0653
   16SOL    HW1   47   2.273   2.321   0.452  0.9958 -2.4294  0.8985
   16SOL    HW2   48   2.202   2.188   0.380 -0.5561 -0.8134 -1.2601
   17SOL     OW   49   0.933   0.106   1.365  0.1371 -0.2196  0.1395
   17SOL    HW1   50   1.033   0.130   1.376 -1.3295  0.0958 -0.1221
   17SOL    HW2   51   0.883   0.199   1.371 -2.5109  2.5210  1.8089
   18SOL     OW   52   1.211   0.820   2.991  0.1141 -0.1377 -0.0059
   18SOL    HW1   53   1.204   0.885   3.070  0.8330 -1.0354 -0.9552
   18SOL    HW2   54   1.305   0.830   2.953 -1.2314  0.2173  1.7262
   19SOL     OW   55   1.951   1.915   2.845 -0.0148 -0.4866 -0.1199
   19SOL    HW1   56   2.046   1.933   2.814  1.5552 -0.0509 -2.0753
   19SOL    HW2   57   1.909   1.994   2.897 -1.3752  2.4845 -1.2715
   20SOL     OW   58   2.180   1.785   1.904  0.3519 -0.0096 -0.2575
   20SOL    HW1   59   2.165   1.839   1.820 -0.6310 -1.2566  3.2126
   20SOL    HW2   60   2.159   1.687   1.891  0.5238  0.1778 -0.4624
   21SOL     OW   61   0.835   1.514   0.312 -0.1800  0.3264 -0.2997
   21SOL    HW1   62   0.807   1.423   0.275  1.4160  3.3401  2.9650
   21SOL    HW2   63   0.767   1.587   0.321 -0.3496  1.5770 -1.2018
   22SOL     OW   64   1.895   3.003   1.398 -0.2751  0.6508  0.3883
   22SOL    HW1   65   1.901   3.014   1.294  1.7468  0.8596 -1.8648
   22SOL    HW2   66   1.892   0.023   1.442 -0.3258  2.4085 -1.7841
   23SOL     OW   67   2.810   0.813   1.864 -0.2795  0.1182 -0.2366
   23SOL    HW1   68   2.763   0.861   1.789 -0.1760  0.7565 -1.6714
   23SOL    HW2   69   2.760   0.819   1.949 -1.1777 -2.9044 -2.3829
   24SOL     OW   70   2.253   2.459   0.316 -0.7044 -0.6405  0.1504
   24SOL    HW1   71   2.304   2.491   0.233 -2.8838 -0.0851 -2.5095
   24SOL    HW2   72   2.158   2.441   0.284  0.8937 -0.8986  0.6162
   25SOL     OW   73   1.623   2.903   2.396 -0.4303  0.2704  0.0893
   25SOL    HW1   74   1.632   2.918   2.296 -2.5655  1.1848 -0.2286
   25SOL    HW2   75   1.701   2.949   2.439  3.1474 -1.0984 -1.6891
   26SOL     OW   76   1.756   2.338   0.187 -0.2294  0.0893 -0.9557
   26SOL    HW1   77   1.714   2.428   0.161 -2.0462 -0.6910 -0.5394
   26SOL    HW2   78   1.702   2.255   0.169 -0.2110 -0.4545  0.2006
   27SOL     OW   79   2.792   1.983   2.866  0.3661  0.3736  0.1418
   27SOL    HW1   80   2.693   1.968   2.879  1.3088  0.9754 -0.8015
   27SOL    HW2   81   2.806   2.069   2.818 -1.0057 -2.3777  0.5581
   28SOL     OW   82   0.270   0.954   1.824  0.3944  0.5225 -0.1919
   28SOL    HW1   83   0.219   0.867   1.816  0.4281  0.7952 -0.7944
   28SOL    HW2   84   0.238   1.002   1.911 -1.4600  1.4299 -2.1756
   29SOL     OW   85   2.451   2.360   1.360  0.2088 -0.4296  0.3604
   29SOL    HW1   86   2.477   2.417   1.442 -0.3062 -0.5408  0.9040
   29SOL    HW2   87   2.534   2.311   1.323 -1.7202  1.5452  1.3757
   30SOL     OW   88   1.433   0.142   0.592 -0.2456  0.1566 -0.1846
   30SOL    HW1   89   1.401   0.240   0.595 -0.8351  0.3123 -2.0176
   30SOL    HW2   90   1.521   0.142   0.537 -0.8026  0.6887  0.4062
   31SOL     OW   91   2.525   2.510   1.819  0.5170 -0.0619  0.1993
   31SOL    HW1   92   2.471   2.580   1.857  0.8842 -1.0931  0.4373
   31SOL    HW2   93   2.534   2.524   1.718 -0.4634  0.8253  3.5171
   32SOL     OW   94   0.817   1.906   1.059 -0.2933  0.0860 -0.3724
   32SOL    HW1   95   0.882   1.899   0.982  1.3270 -1.4578 -0.9834
   32SOL    HW2   96   0.782   2.004   1.064 -0.8660  0.6633 -1.6730
   33SOL     OW   97   0.579   2.999   2.758  0.1454 -0.0518 -0.8422
   33SOL    HW1   98   0.479   3.016   2.770 -0.1581  0.8295 -1.0574
   33SOL    HW2   99   0.606   2.912   2.809  0.4865  0.1632  3.0732
   34SOL     OW  100   1.475   2.703   0.710 -0.1735  0.4829 -0.0389
   34SOL    HW1  101   1.448   2.800   0.695 -0.4420  1.1097  1.0124
   34SOL    HW2  102   1.543   2.671   0.640 -1.1948  1.9525  0.4797
   35SOL     OW  103   2.177   2.812   1.091  0.0635  0.0104 -0.5869
   35SOL    HW1  104   2.231   2.846   1.016 -1.2622 -2.4964  1.8670
   35SOL    HW2  105   2.185   2.883   1.170 -2.3530  2.1986  1.1068
   36SOL     OW  106   1.942   2.599   2.113 -0.4320  0.4246  0.0527
   36SOL    HW1  107   1.895   2.648   2.035 -0.5835 -0.2774  0.2162
   36SOL    HW2  108   1.881   2.528   2.146  1.0365 -1.1326 -3.8380
   37SOL     OW  109   0.716   0.007   2.278  0.2344  0.1534 -0.0201
   37SOL    HW1  110   0.753   3.047   2.184  0.6383 -0.8581 -1.6631
   37SOL    HW2  111   0.732   0.107   2.290 -1.4126  1.7357 -0.1998
   38SOL     OW  112   0.360   2.577   2.740 -0.3545 -0.5253  0.1423
   38SOL    HW1  113   0.452   2.617   2.712 -0.0104  0.4700 -0.8425
   38SOL    HW2  114   0.338   2.507   2.670 -1.7514 -1.7623  1.2794
   39SOL     OW  115   2.206   1.089   1.747  0.4840 -0.3756 -0.4776
   39SOL    HW1  116   2.222   1.139   1.660  3.9917  0.4601  2.3406
   39SOL    HW2  117   2.169   1.151   1.821 -1.0288 -1.2924 -0.9362
   40SOL     OW  118   0.775   2.902   0.373 -0.1845  0.4197 -0.3030
   40SOL    HW1  119   0.873   2.904   0.408  3.4880  0.9799  2.3319
   40SOL    HW2  120   0.738   2.997   0.363 -0.3546  0.0816 -1.0269
   41SOL     OW  121   2.091   1.182   1.036  0.0177  0.2000  0.1790
   41SOL    HW1  122   2.179   1.192   1.086 -2.2268 -0.2537  2.8512
   41SOL    HW2  123   2.104   1.195   0.936  1.8639 -2.6887 -0.6069
   42SOL     OW  124   0.605   0.571   1.041  0.5755 -0.3456  0.4195
   42SOL    HW1  125   0.533   0.639   1.021  0.1388  0.2308  0.2263
   42SOL    HW2  126   0.674   0.618   1.098  1.0240  1.1690  1.3387
   43SOL     OW  127   2.307   1.525   2.710  0.4142  0.5879 -0.6962
   43SOL    HW1  128   2.280   1.476   2.799 -0.7846 -3.3079 -0.5501
   43SOL    HW2  129   2.289   1.465   2.630  2.5755 -1.2920  1.1527
   44SOL     OW  130   2.870   0.010   1.282  0.0391  0.4227  0.5131
   44SOL    HW1  131   2.853   3.012   1.350 -1.8305  0.9060 -0.6614
   44SOL    HW2  132   2.881   0.102   1.332  0.0759  4.2334  2.1778
   45SOL     OW  133   0.447   2.945   1.421  0.2618  0.3355 -0.3698
   45SOL    HW1  134   0.483   3.012   1.491 -0.0907  2.4032  4.6113
   45SOL    HW2  135   0.500   2.858   1.410 -2.5144 -1.3672  3.2419
   46SOL     OW  136   2.239   0.142   2.621 -0.7019  0.4940  0.0468
   46SOL    HW1  137   2.267   0.093   2.536 -0.8322  2.8689 -1.7964
   46SOL    HW2  138   2.333   0.170   2.665  0.9713  2.7195  1.3617
   47SOL     OW  139   2.044   1.882   0.616 -0.0014  0.0860 -0.8926
   47SOL    HW1  140   2.030   1.816   0.691  1.0577 -1.4658 -1.3238
   47SOL    HW2  141   1.996   1.854   0.534 -1.0019 -1.6211  0.8410
   48SOL     OW  142   0.677   2.041   0.307 -0.3663  0.2442  0.5356
   48SOL    HW1  143   0.729   2.123   0.313 -2.6102 -1.6794 -4.5020
   48SOL    HW2  144   0.719   1.983   0.237  0.2154  3.1290  0.8709
   49SOL     OW  145   2.678   0.456   2.544  0.1013  0.5363  0.1324
   49SOL    HW1  146   2.622   0.539   2.557 -1.2202  0.6498 -0.0263
   49SOL    HW2  147   2.709   0.445   2.445 -0.0512  2.3131  0.9451
   50SOL     OW  148   1.955   0.786   0.366  0.4207 -0.2069  0.0398
   50SOL    HW1  149   2.043   0.763   0.320  2.0054 -1.2024  3.1129
   50SOL    HW2  150   1.875   0.772   0.304 -0.7776 -0.4877  2.0182
   51SOL     OW  151   2.218   0.873   0.685  0.7027  0.7360  0.4195
   51SOL    HW1  152   2.164   0.917   0.759 -0.6864 -0.5167 -0.5811
   51SOL    HW2  153   2.146   0.843   0.619 -0.7713 -1.2143  1.3495
   52SOL     OW  154   1.510   1.628   1.998 -0.6250 -0.7980  0.1418
   52SOL    HW1  155   1.603   1.672   1.982 -1.5832 -1.3067 -3.8426
   52SOL    HW2  156   1.485   1.591   1.906 -0.4904  2.4060 -0.3182
   53SOL     OW  157   0.683   1.817   2.136 -0.2444  0.0471 -0.1129
   53SOL    HW1  158   0.703   1.754   2.057  3.3818 -0.6053 -2.6186
   53SOL    HW2  159   0.631   1.903   2.100 -0.2917  2.5947 -0.7113
   54SOL     OW  160   2.154   0.460   1.203 -0.1779  0.3035 -0.2181
   54SOL    HW1  161   2.230   0.394   1.186 -0.2502 -1.0223 -0.3758
   54SOL    HW2  162   2.192   0.557   1.205 -0.0706  1.0058 -0.3534
   55SOL     OW  163   2.413   2.042   0.828  0.0774  0.1093 -0.5378
   55SOL    HW1  164   2.455   1.951   0.841 -0.7747  2.0895  1.7003
   55SOL    HW2  165   2.374   2.049   0.730 -1.3006 -0.5505 -1.1365
   56SOL     OW  166   1.146   0.083   1.935  0.2777 -0.3578  0.1797
   56SOL    HW1  167   1.160   0.036   2.023 -1.4476  2.1142  0.6497
   56SOL    HW2  168   1.215   0.158   1.922  1.3928 -1.6319  1.6797
   57SOL     OW  169   1.389   1.665   0.007 -0.4187  0.4108  0.4772
   57SOL    HW1  170   1.431   1.598   0.072  1.8076  1.9929 -1.3327
   57SOL    HW2  171   1.322   1.727   0.056 -0.5080 -0.4781  2.1603
   58SOL     OW  172   0.257   0.827   2.491  0.2019 -0.2384  0.0831
   58SOL    HW1  173   0.275   0.903   2.553 -0.0738 -0.4196 -2.1116
   58SOL    HW2  174   0.221   0.738   2.526 -1.9738 -1.4153  0.6354
   59SOL     OW  175   1.253   0.132   2.727 -0.3463 -0.4784  0.3988
   59SOL    HW1  176   1.153   0.150   2.729 -0.4489  0.3091  0.3968
   59SOL    HW2  177   1.278   0.046   2.782  0.3820 -0.0957  2.2923
   60SOL     OW  178   2.984   1.991   0.420  0.3386  0.0992  0.8721
   60SOL    HW1  179   3.023   1.908   0.368  0.9708 -0.4240 -1.1916
   60SOL    HW2  180   2.919   1.969   0.495  0.1532  0.9779  0.1761
   61SOL     OW  181   1.142   2.124   0.151 -0.1438 -0.3639  0.5693
   61SOL    HW1  182   1.095   2.182   0.083  0.6268 -2.9553 -0.0253
   61SOL    HW2  183   1.138   2.168   0.247 -2.2156  1.0905  0.4741
   62SOL     OW  184   1.935   2.282   2.340 -0.2078  0.0122  0.3230
   62SOL    HW1  185   1.969   2.238   2.259 -2.3561 -1.9073  2.6297
   62SOL    HW2  186   1.865   2.357   2.318 -0.0926  1.3525  1.9192
   63SOL     OW  187   2.067   2.138   0.058 -0.3099  0.5641 -0.7502
   63SOL    HW1  188   2.099   2.044   0.068 -1.4560  0.3049  1.6575
   63SOL    HW2  189   2.143   2.190   0.011  0.1427  1.4257 -0.6789
   64SOL     OW  190   1.463   1.097   2.462  0.3018  0.4165  0.5574
   64SOL    HW1  191   1.514   1.036   2.401 -2.8655  1.3247  2.4693
   64SOL    HW2  192   1.434   1.043   2.547 -0.7562 -0.1778 -1.9506
   65SOL     OW  193   1.208   2.064   2.600  0.1035 -0.0155 -0.0036
   65SOL    HW1  194   1.175   1.977   2.563  3.0718  0.3080 -0.4164
   65SOL    HW2  195   1.253   2.049   2.690 -2.0070 -1.7206 -1.8646
   66SOL     OW  196   0.312   1.612   2.033  0.5442 -0.1292  0.2595
   66SOL    HW1  197   0.367   1.638   2.117  1.4538 -1.0481 -0.4692
   66SOL    HW2  198   0.319   1.516   2.005 -0.9148  0.6742  2.0058
   67SOL     OW  199   2.673   2.715   2.889  0.5286  0.1208  0.3353
   67SOL    HW1  200   2.648   2.700   2.988 -1.5068 -2.5314 -2.3426
   67SOL    HW2  201   2.623   2.791   2.839 -0.8292 -0.4175  0.2480
   68SOL     OW  202   0.686   2.420   1.329  1.2375 -0.2326 -0.2269
   68SOL    HW1  203   0.668   2.478   1.246  0.0669  1.3988 -1.8035
   68SOL    HW2  204   0.783   2.429   1.351 -1.8147 -1.6857 -1.3770
   69SOL     OW  205   0.738   2.632   0.667  0.0560 -0.1776 -0.0660
   69SOL    HW1  206   0.668   2.557   0.666  0.0984 -0.2311  1.2903
   69SOL    HW2  207   0.834   2.606   0.643 -0.1420  1.2283 -0.0585
   70SOL     OW  208   2.570   0.922   2.858  0.3054 -0.6694 -0.2035
   70SOL    HW1  209   2.652   0.902   2.803 -1.3117  1.1668 -1.8679
   70SOL    HW2  210   2.514   0.838   2.865 -1.3672 -0.8998  0.7317
   71SOL     OW  211   0.692   1.002   2.240 -0.2509  0.0385  0.3138
   71SOL    HW1  212   0.773   0.952   2.204 -0.7722 -2.2141  2.9380
   71SOL    HW2  213   0.725   1.086   2.288 -2.2210 -2.8761  2.1928
   72SOL     OW  214   0.288   1.614   0.406  0.4857 -0.3034  0.1536
   72SOL    HW1  215   0.351   1.612   0.324  0.9780 -0.3358 -0.1624
   72SOL    HW2  216   0.263   1.706   0.438  0.2880 -2.5647  3.1361
   73SOL     OW  217   0.787   1.402   0.583  0.2620 -0.0298 -0.1165
   73SOL    HW1  218   0.801   1.440   0.490 -0.3963 -0.8262 -1.0490
   73SOL    HW2  219   0.698   1.352   0.580 -0.8692  0.0461  2.2510
   74SOL     OW  220   2.404   2.581   0.078 -0.4369  0.6260  0.1755
   74SOL    HW1  221   2.506   2.590   0.083 -1.1357  1.2636  0.1393
   74SOL    HW2  222   2.364   2.671   0.048 -1.8583  0.3749  0.7242
   75SOL     OW  223   2.122   1.531   1.851 -0.1650 -0.5843 -0.0341
   75SOL    HW1  224   2.023   1.518   1.843  0.4963  1.2561  1.8303
   75SOL    HW2  225   2.166   1.533   1.760  1.6560  1.2197  0.2350
   76SOL     OW  226   1.953   2.353   1.821 -0.1338  0.0019 -0.8242
   76SOL    HW1  227   2.041   2.385   1.869  1.5197  1.4510  1.5368
   76SOL    HW2  228   1.884   2.426   1.825  0.9869 -1.0724 -0.7313
   77SOL     OW  229   2.541   0.246   1.837  0.5908 -0.2587  0.2030
   77SOL    HW1  230   2.629   0.264   1.791  1.8417 -2.7811 -0.9234
   77SOL    HW2  231   2.464   0.288   1.791 -0.6351 -1.4587 -0.7680
   78SOL     OW  232   1.467   0.808   2.905  0.1751 -0.0393 -0.6733
   78SOL    HW1  233   1.519   0.727   2.938 -1.0196  1.7395 -3.7010
   78SOL    HW2  234   1.463   0.796   2.801  0.4305  0.9178  0.3665
   79SOL     OW  235   2.640   1.414   1.904  0.2409  0.5080 -0.6435
   79SOL    HW1  236   2.610   1.469   1.821  1.4037 -0.6019 -2.6364
   79SOL    HW2  237   2.738   1.397   1.893 -0.4731  0.6497 -0.0433
   80SOL     OW  238   1.887   1.187   1.213 -0.5546 -0.1701  0.2491
   80SOL    HW1  239   1.961   1.203   1.148  0.0526 -1.3726  2.5037
   80SOL    HW2  240   1.924   1.169   1.306  0.9634  0.1892 -0.1080
   81SOL     OW  241   1.312   0.573   1.634  0.3196 -0.4368 -0.0488
   81SOL    HW1  242   1.330   0.574   1.734 -3.0938  2.0510  0.5095
   81SOL    HW2  243   1.389   0.614   1.580  0.9494  0.8753 -2.0217
   82SOL     OW  244   1.286   2.453   1.406 -0.4640  0.2254  0.0256
   82SOL    HW1  245   1.344   2.441   1.322 -1.6847  0.0834 -2.0598
   82SOL    HW2  246   1.238   2.541   1.411  1.2450 -1.3251 -1.7506
   83SOL     OW  247   0.087   0.337   0.548 -0.1142 -0.4969 -0.6317
   83SOL    HW1  248   0.031   0.260   0.509  0.8394 -2.2335  1.6730
   83SOL    HW2  249   0.081   0.422   0.491  0.0390 -1.7687 -2.3103
   84SOL     OW  250   0.224   0.908   2.924 -0.1558 -0.5816 -0.4661
   84SOL    HW1  251   0.145   0.923   2.862  0.9747 -0.4789 -0.6394
   84SOL    HW2  252   0.198   0.933   3.021 -0.5840  2.1027 -0.9594
   85SOL     OW  253   2.518   1.838   1.887 -0.0078 -0.3836 -0.1410
   85SOL    HW1  254   2.457   1.811   1.814  1.6198 -1.6495 -1.3978
   85SOL    HW2  255   2.500   1.938   1.911 -0.7558  3.6993  1.1618
   86SOL     OW  256   2.851   2.152   1.745  0.6323 -0.2145  0.4906
   86SOL    HW1  257   2.925   2.220   1.740  2.2215 -0.6376 -0.3820
   86SOL    HW2  258   2.797   2.158   1.832 -1.0328 -0.7626 -2.4291
   87SOL     OW  259   0.687   0.174   2.759  0.1317 -0.6043 -0.6287
   87SOL    HW1  260   0.688   0.077   2.776 -1.4764  0.3657 -0.5714
   87SOL    HW2  261   0.647   0.221   2.843 -1.8121 -0.8295 -1.6676
   88SOL     OW  262   0.433   2.173   1.088 -0.6245 -0.1443 -0.0064
   88SOL    HW1  263   0.421   2.187   0.988  1.2409  0.9281  1.8787
   88SOL    HW2  264   0.354   2.128   1.138 -0.6311 -0.1861  0.6382
   89SOL     OW  265   0.973   0.616   1.622  0.2591  0.7313  0.1841
   89SOL    HW1  266   0.926   0.556   1.550 -0.6419 -1.0724 -0.0309
   89SOL    HW2  267   1.018   0.554   1.691  0.6556  1.9007 -1.0950
   90SOL     OW  268   2.821   1.706   1.540  0.1239  0.1284  0.3730
   90SOL    HW1  269   2.820   1.769   1.457 -0.4047 -0.1672 -1.1349
   90SOL    HW2  270   2.898   1.635   1.534  2.3964 -1.3375  2.8980
   91SOL     OW  271   1.197   1.466   0.609 -0.1587  0.0482  0.0522
   91SOL    HW1  272   1.143   1.470   0.519  0.2160  0.2471  0.0657
   91SOL    HW2  273   1.168   1.387   0.665  1.0202 -1.6986  1.1613
   92SOL     OW  274   2.060   0.485   0.805 -0.2815  0.4252 -0.2173
   92SOL    HW1  275   2.011   0.515   0.720 -2.2053 -1.7785  2.1059
   92SOL    HW2  276   2.084   0.567   0.866 -0.2812  2.0973  2.7037
   93SOL     OW  277   1.889   1.050   2.949 -0.2689  0.4450 -0.3610
   93SOL    HW1  278   1.807   1.084   2.993 -0.6653 -0.7613  0.3844
   93SOL    HW2  279   1.910   1.092   2.859 -0.7083  0.8128  0.5119
   94SOL     OW  280   2.379   2.196   2.194  0.0215  0.3416  0.7028
   94SOL    HW1  281   2.433   2.254   2.126  0.1235 -0.3441  0.3917
   94SOL    HW2  282   2.360   2.108   2.144  0.8735 -0.3360 -1.8506
   95SOL     OW  283   1.993   0.226   0.837 -0.8355 -0.2749 -0.6591
   95SOL    HW1  284   2.015   0.322   0.811  0.2525 -0.4003 -2.3630
   95SOL    HW2  285   2.057   0.161   0.796 -3.4221 -0.2140  2.2213
   96SOL     OW  286   2.684   0.069   1.956 -0.4404  0.3538  0.0377
   96SOL    HW1  287   2.625   0.004   2.006 -0.6420 -2.7947 -0.4455
   96SOL    HW2  288   2.628   0.132   1.895 -0.6591  0.6894  0.6466
   97SOL     OW  289   2.353   0.289   1.119  0.0086  0.0941 -0.2885
   97SOL    HW1  290   2.352   0.317   1.019  3.1033 -0.4383 -0.4146
   97SOL    HW2  291   2.386   0.195   1.132  3.4404  0.2332  0.4795
   98SOL     OW  292   1.526   2.165   1.566 -0.2217  0.2067 -0.2900
   98SOL    HW1  293   1.556   2.222   1.487  2.2157 -0.3288 -0.0397
   98SOL    HW2  294   1.428   2.174   1.581  0.4740  0.0469  1.7043
   99SOL     OW  295   2.254   2.246   1.727  0.7348  0.0470  0.3154
   99SOL    HW1  296   2.214   2.270   1.818  0.2533 -0.2536 -1.1638
   99SOL    HW2  297   2.233   2.319   1.654 -2.1947 -0.0950 -2.0259
  100SOL     OW  298   0.471   0.759   2.892 -0.4920  0.0321  0.2516
  100SOL    HW1  299   0.534   0.817   2.832  0.3190 -1.3600  0.7967
  100SOL    HW2  300   0.391   0.806   2.928  3.2939 -0.2308  0.3883
  101SOL     OW  301   1.826   0.444   3.046  0.4945  0.1878 -0.0219
  101SOL    HW1  302   1.863   0.471   2.951  2.6392  0.0386 -2.2393
  101SOL    HW2  303   1.902   0.458   0.043 -0.1116  0.6791 -1.1970
  102SOL     OW  304   0.176   0.699   1.747  0.2222  0.3443  0.2088
  102SOL    HW1  305   0.115   0.681   1.670 -0.1170 -0.7434  0.7917
  102SOL    HW2  306   0.256   0.639   1.747 -0.3291  2.0256  0.6761
  103SOL     OW  307   2.860   1.146   2.326 -0.1609  0.2970 -0.0912
  103SOL    HW1  308   2.836   1.225   2.385  1.9766  0.9746 -0.4868
  103SOL    HW2  309   2.936   1.090   2.368  0.0609 -0.5224  1.6837
  104SOL     OW  310   0.541   0.239   2.532 -0.0823 -0.1617 -0.3244
  104SOL    HW1  311   0.569   0.201   2.625  1.7046 -1.2274 -0.7598
  104SOL    HW2  312   0.626   0.254   2.476  0.0452 -0.7917 -0.8076
  105SOL     OW  313   2.385   1.823   1.626  0.5236 -0.4549 -0.0333
  105SOL    HW1  314   2.305   1.885   1.645  2.6231  3.2743  1.5476
  105SOL    HW2  315   2.440   1.850   1.541 -0.0336  0.0163 -0.7727
  106SOL     OW  316   2.116   0.166   0.475 -1.0216 -0.7719 -0.0592
  106SOL    HW1  317   2.151   0.098   0.407  2.1549 -0.4644  1.2299
  106SOL    HW2  318   2.165   0.153   0.564  3.0062 -0.6161 -3.3732
  107SOL     OW  319   0.097   1.628   1.122  0.6165 -0.1050 -0.5342
  107SOL    HW1  320   0.128   1.627   1.219 -1.1729 -1.6649 -3.1480
  107SOL    HW2  321   0.125   1.719   1.082  2.5760 -0.7712  0.3613
  108SOL     OW  322   2.792   2.496   1.804  0.0400 -0.2942  0.0556
  108SOL    HW1  323   2.832   2.461   1.885 -1.2862 -1.3474 -3.5288
  108SOL    HW2  324   2.691   2.489   1.806  0.2106 -2.1340  2.5319
  109SOL     OW  325   2.202   0.067   0.704 -0.3295  0.3261 -0.5637
  109SOL    HW1  326   2.301   0.054   0.705  0.8240 -1.4307  0.5770
  109SOL    HW2  327   2.152   3.048   0.695  1.5056  0.4843 -1.4772
  110SOL     OW  328   0.392   2.180   2.502 -0.3816  0.7037  0.5795
  110SOL    HW1  329   0.300   2.133   2.507  0.1388 -0.7715  0.2046
  110SOL    HW2  330   0.463   2.108   2.481 -0.4203 -2.5136 -2.0921
  111SOL     OW  331   1.257   2.477   1.684 -0.3558  0.7276 -0.9906
  111SOL    HW1  332   1.282   2.402   1.750  0.6478 -2.4445 -0.1468
  111SOL    HW2  333   1.308   2.476   1.593  2.1249  2.1615 -2.2519
  112SOL     OW  334   1.650   2.591   0.126  0.4188 -0.1482  0.2713
  112SOL    HW1  335   1.647   2.579   0.023 -0.6690 -1.0967  1.2743
  112SOL    HW2  336   1.633   2.688   0.152 -2.4965 -3.6337 -0.4973
  113SOL     OW  337   1.989   2.616   1.462  0.0063  0.2819  0.0704
  113SOL    HW1  338   1.918   2.568   1.518  2.8698 -0.0718  0.5469
  113SOL    HW2  339   2.025   2.552   1.395 -2.1510  0.5000  0.5060
  114SOL     OW  340   2.908   1.011   0.810 -0.0224  0.2605 -0.1319
  114SOL    HW1  341   2.861   0.934   0.767 -0.3062 -0.8064  1.9930
  114SOL    HW2  342   2.994   1.034   0.765 -0.3826  0.2295  1.8668
  115SOL     OW  343   0.643   0.989   0.003  0.4006 -0.3805 -0.1142
  115SOL    HW1  344   0.554   1.034   0.026  2.6381  1.3862 -0.4101
  115SOL    HW2  345   0.657   0.903   0.058 -1.4932 -0.5425 -0.3725
  116SOL     OW  346   2.555   1.747   2.153  0.1606 -0.3259 -0.2128
  116SOL    HW1  347   2.530   1.650   2.153  0.7643 -0.4301 -1.9209
  116SOL    HW2  348   2.572   1.759   2.052 -0.6816 -1.0523 -0.7096
  117SOL     OW  349   2.879   2.593   0.843  0.1320 -0.1263  0.4190
  117SOL    HW1  350   2.832   2.504   0.851 -2.1161  0.9588  2.0853
  117SOL    HW2  351   2.814   2.668   0.845 -0.3869  0.8252  1.1955
  118SOL     OW  352   0.993   2.435   1.695  0.2284 -0.5378 -0.0659
  118SOL    HW1  353   1.093   2.444   1.679  1.2092 -3.9896  0.2628
  118SOL    HW2  354   0.966   2.514   1.753 -0.1098  1.1782 -0.3949
  119SOL     OW  355   0.125   1.985   2.789 -0.1923  0.0626 -0.5757
  119SOL    HW1  356   0.215   1.956   2.827 -0.8387 -2.5197 -0.2414
  119SOL    HW2  357   0.052   1.989   2.853  4.5599  0.7096 -3.7396
  120SOL     OW  358   0.969   0.819   2.859 -0.3516  0.2467 -0.5865
  120SOL    HW1  359   0.908   0.905   2.864 -2.7857  0.2451  0.7037
  120SOL    HW2  360   1.052   0.829   2.923  0.9206  1.1349  0.0254
  121SOL     OW  361   1.556   2.595   0.963  0.1339  0.4034 -0.0570
  121SOL    HW1  362   1.536   2.628   0.866  2.4091  1.7178 -3.1176
  121SOL    HW2  363   1.595   2.499   0.959 -1.5008 -1.5196 -1.2996
  122SOL     OW  364   2.150   2.440   1.584 -0.4385 -0.1450 -0.6323
  122SOL    HW1  365   2.159   2.507   1.663  2.4755  1.9712  2.6055
  122SOL    HW2  366   2.100   2.476   1.508  0.3114 -3.1573  1.4647
  123SOL     OW  367   0.237   0.000   0.767  0.2751 -0.2311  0.0191
  123SOL    HW1  368   0.327   0.038   0.753 -2.4303 -4.0431  2.4539
  123SOL    HW2  369   0.218   3.068   0.867  1.5391  3.0526  0.8199
  124SOL     OW  370   2.104   1.163   2.573  0.4461  0.7551 -0.0528
  124SOL    HW1  371   2.185   1.114   2.616 -1.7022 -2.2413 -0.1366
  124SOL    HW2  372   2.044   1.190   2.651  1.7282  2.0222 -2.5802
  125SOL     OW  373   0.617   0.868   0.536 -0.3097  0.0051 -0.0542
  125SOL    HW1  374   0.557   0.902   0.616 -2.6640  0.3950  3.1009
  125SOL    HW2  375   0.667   0.950   0.500  2.3827 -0.3940 -1.0241
  126SOL     OW  376   0.015   1.298   0.925  0.0013 -0.1817  0.0362
  126SOL    HW1  377   2.996   1.321   0.882 -2.9350 -1.8960 -2.6692
  126SOL    HW2  378   0.074   1.379   0.911  0.8253 -2.9016  0.1737
  127SOL     OW  379   0.423   1.768   1.822  0.6874 -0.0985  0.4164
  127SOL    HW1  380   0.416   1.707   1.903  0.6917  4.0128 -1.5226
  127SOL    HW2  381   0.460   1.856   1.851 -1.4321 -5.1589  0.3294
  128SOL     OW  382   0.974   1.119   0.113 -0.1941 -0.3811 -0.0996
  128SOL    HW1  383   1.064   1.085   0.150 -0.1951  1.8102  0.4743
  128SOL    HW2  384   0.974   1.143   0.017 -0.7793 -2.4478  0.7659
  129SOL     OW  385   2.839   1.271   0.827 -0.2766  0.1090  0.1366
  129SOL    HW1  386   2.747   1.285   0.865 -3.1085  1.1051 -0.1360
  129SOL    HW2  387   2.866   1.173   0.833 -1.1377 -0.7955  0.2334
  130SOL     OW  388   2.210   0.960   1.276  0.2362 -0.4726 -0.0205
  130SOL    HW1  389   2.292   0.907   1.310 -0.2081 -0.1355 -1.7260
  130SOL    HW2  390   2.241   1.028   1.202  0.3473  0.9060 -0.5047
  131SOL     OW  391   2.841   3.024   3.057 -0.0955  0.4391 -0.2963
  131SOL    HW1  392   2.857   2.967   2.972 -0.5413 -2.6567  1.2636
  131SOL    HW2  393   2.906   0.027   3.062 -1.3443 -1.4700  0.7042
  132SOL     OW  394   0.115   1.649   1.385 -0.2917 -0.1437 -0.2529
  132SOL    HW1  395   0.094   1.745   1.410  0.2859 -0.2549 -1.1414
  132SOL    HW2  396   0.213   1.634   1.404 -2.2474 -3.0690 -1.6371
  133SOL     OW  397   1.203   0.091   1.470 -0.4030 -0.1180  0.1713
  133SOL    HW1  398   1.208   0.041   1.558  0.5383  1.3182 -1.0359
  133SOL    HW2  399   1.244   0.185   1.493  0.6775 -1.6486  4.4556
  134SOL     OW  400   3.034   1.427   0.204  0.4659  0.0418 -0.3561
  134SOL    HW1  401   2.969   1.350   0.197  0.0894 -1.8860 -1.7333
  134SOL    HW2  402   2.997   1.515   0.177 -1.5692  2.7561 -2.0166
  135SOL     OW  403   2.197   1.221   1.424  0.3195 -0.3680  0.4362
  135SOL    HW1  404   2.201   1.131   1.373 -0.6614 -0.8891  0.2033
  135SOL    HW2  405   2.269   1.291   1.386 -1.5481  0.5215 -1.8634
  136SOL     OW  406   0.204   0.870   0.360  0.5066  0.3016 -0.1353
  136SOL    HW1  407   0.110   0.864   0.395  1.7810  0.2160 -0.8412
  136SOL    HW2  408   0.251   0.944   0.410 -2.3439  1.0498 -0.7804
  137SOL     OW  409   2.795   0.990   1.074 -0.1101 -0.2311 -0.2548
  137SOL    HW1  410   2.841   0.945   0.992  0.8735 -0.8957 -0.9246
  137SOL    HW2  411   2.858   1.066   1.104  1.4396  1.1396 -0.5261
  138SOL     OW  412   1.528   1.051   0.967 -0.1878 -0.9140 -0.3635
  138SOL    HW1  413   1.444   0.995   0.990  0.3380  1.2800 -1.3244
  138SOL    HW2  414   1.612   1.016   1.017 -1.0346 -1.2808 -0.5309
  139SOL     OW  415   1.932   2.963   3.044 -0.0463  0.5991 -0.0386
  139SOL    HW1  416   1.934   2.861   3.029 -0.8489 -1.5826  0.0826
  139SOL    HW2  417   1.833   2.995   3.046 -1.0920  1.0271  0.2256
  140SOL     OW  418   1.531   1.763   1.535  0.1462  0.0360 -0.8733
  140SOL    HW1  419   1.547   1.725   1.442  1.3007 -1.4860 -0.0038
  140SOL    HW2  420   1.462   1.840   1.533 -2.5073 -1.2299 -0.1667
  141SOL     OW  421   2.010   2.379   0.661 -1.0050  0.1747 -0.0269
  141SOL    HW1  422   2.109   2.408   0.672  1.2271  2.3229 -0.6569
  141SOL    HW2  423   2.008   2.275   0.676  2.3463 -0.9847 -1.7168
  142SOL     OW  424   0.720   0.772   0.150 -0.5101 -0.4135 -0.9634
  142SOL    HW1  425   0.685   0.717   0.228  3.3659 -0.8029  2.9908
  142SOL    HW2  426   0.712   0.710   0.066 -1.6362 -4.0073  0.4280
  143SOL     OW  427   0.371   2.140   0.188  0.1810 -0.3870  0.2211
  143SOL    HW1  428   0.281   2.138   0.237  0.2583  2.3016 -0.6989
  143SOL    HW2  429   0.371   2.214   0.114 -0.1083  0.1459 -0.5255
  144SOL     OW  430   1.481   2.985   1.200 -0.3274  0.2446 -0.0965
  144SOL    HW1  431   1.521   0.008   1.210  1.7382  1.6904  1.0237
  144SOL    HW2  432   1.549   2.910   1.210  0.9446 -0.3931 -0.6801
  145SOL     OW  433   2.369   1.354   0.486  0.2164  0.4741 -0.6788
  145SOL    HW1  434   2.450   1.323   0.542  1.6698 -0.9538 -0.6793
  145SOL    HW2  435   2.376   1.306   0.398 -0.8789 -1.1560  0.9382
  146SOL     OW  436   3.059   1.779   0.289  0.1672  0.3140  0.0540
  146SOL    HW1  437   3.040   1.748   0.191  0.9017 -0.9702 -1.6185
  146SOL    HW2  438   3.052   1.702   0.355 -0.7253  2.7269 -0.9545
  147SOL     OW  439   2.265   3.017   1.623 -0.3787  0.1136  0.1173
  147SOL    HW1  440   2.190   2.958   1.587  0.0774  0.5317 -0.7541
  147SOL    HW2  441   2.352   3.013   1.567  3.9828  1.8252 -1.1149
  148SOL     OW  442   1.413   2.948   2.044  0.3904  0.3255  0.4684
  148SOL    HW1  443   1.466   2.946   1.954 -0.0437  1.2009  1.5401
  148SOL    HW2  444   1.385   2.855   2.070  1.5886 -1.2257 -1.2389
  149SOL     OW  445   1.812   0.570   2.088  0.0764 -0.2711 -0.2221
  149SOL    HW1  446   1.897   0.531   2.047 -0.7664  0.0954  0.7147
  149SOL    HW2  447   1.836   0.659   2.133 -1.8094  2.3418 -0.0103
  150SOL     OW  448   0.093   3.018   0.542 -0.2852 -0.1231  0.5264
  150SOL    HW1  449   0.124   3.047   0.634 -1.5744  1.4866 -0.1646
  150SOL    HW2  450   0.169   2.979   0.491 -2.1550  0.7516 -1.5180
  151SOL     OW  451   2.986   1.668   0.040  0.3173  0.3518 -0.0201
  151SOL    HW1  452   2.895   1.703   0.049 -0.4863 -2.8795 -1.6344
  151SOL    HW2  453   3.026   1.697   3.022 -0.8560  1.0820 -1.8553
  152SOL     OW  454   2.807   0.100   0.693  0.1617  0.1498 -0.1695
  152SOL    HW1  455   2.865   0.045   0.753 -0.6884  1.5018 -1.8304
  152SOL    HW2  456   2.722   0.126   0.748  0.6230  0.5591 -2.2101
  153SOL     OW  457   2.391   0.027   1.107 -0.3351 -0.1026  0.5413
  153SOL    HW1  458   2.327   0.011   1.183 -1.8680  1.5066 -1.5095
  153SOL    HW2  459   2.347   3.073   1.019 -3.4526  0.0437 -3.1587
  154SOL     OW  460   1.035   0.387   1.819 -0.6913 -0.2798 -0.4036
  154SOL    HW1  461   1.139   0.375   1.820  1.2339  1.7562 -2.1076
  154SOL    HW2  462   1.000   0.407   1.915  0.3392  1.5100  0.7270
  155SOL     OW  463   3.070   0.910   1.210 -0.1913 -0.5882 -0.7826
  155SOL    HW1  464   0.082   0.935   1.162  0.7609 -0.0082 -0.4606
  155SOL    HW2  465   3.030   0.997   1.235 -3.4788  1.4343 -0.9902
  156SOL     OW  466   3.036   1.936   2.997 -0.2742  0.6090  0.4203
  156SOL    HW1  467   3.068   2.000   3.066  0.1979 -1.3378 -1.0070
  156SOL    HW2  468   2.946   1.966   2.959  4.2767  1.8417 -0.1483
  157SOL     OW  469   0.808   0.417   0.259  0.3620 -0.0796 -0.2193
  157SOL    HW1  470   0.803   0.402   0.361  0.3964  0.5043 -2.8443
  157SOL    HW2  471   0.880   0.488   0.232  0.6829  3.1608 -1.3317
  158SOL     OW  472   2.732   0.079   2.709  0.0514 -0.7314 -0.0406
  158SOL    HW1  473   2.812   0.129   2.745 -1.4467  1.6475 -0.6425
  158SOL    HW2  474   2.735   0.074   2.609  0.5517  2.1063  2.4406
  159SOL     OW  475   0.666   0.080   0.311  0.0874  0.1325 -0.0730
  159SOL    HW1  476   0.750   0.109   0.267 -0.5712  0.1894  1.1822
  159SOL    HW2  477   0.585   0.135   0.283  2.6789 -3.0145 -0.1659
  160SOL     OW  478   1.051   1.967   2.873 -0.1274  0.5388 -0.3695
  160SOL    HW1  479   1.001   2.056   2.886  4.0860  0.2040  0.1189
  160SOL    HW2  480   1.154   1.972   2.877  1.2653 -0.8998  1.7906
  161SOL     OW  481   2.942   1.611   2.402 -0.0835 -0.3667 -0.0121
  161SOL    HW1  482   2.975   1.653   2.317  0.2433 -1.3269 -0.2398
  161SOL    HW2  483   2.840   1.608   2.401 -0.7254 -1.9255 -0.4975
  162SOL     OW  484   0.445   2.490   1.603 -0.4746  0.5663 -0.2026
  162SOL    HW1  485   0.546   2.506   1.600 -0.9209  0.9388 -1.0894
  162SOL    HW2  486   0.398   2.537   1.525 -0.3613 -0.6644  0.6840
  163SOL     OW  487   2.027   0.468   2.785  0.0459 -0.1649 -0.0151
  163SOL    HW1  488   1.951   0.531   2.806 -0.4383 -0.4563 -0.5304
  163SOL    HW2  489   1.998   0.401   2.715 -0.1889  1.2166 -0.5706
  164SOL     OW  490   2.840   1.455   0.618  0.0658 -0.2122  0.2614
  164SOL    HW1  491   2.760   1.518   0.616  0.2737  1.2486 -1.9468
  164SOL    HW2  492   2.845   1.404   0.705  0.4808  1.5700  1.0454
  165SOL     OW  493   0.131   0.198   1.705 -0.5726  0.6236 -0.2328
  165SOL    HW1  494   0.127   0.154   1.799 -2.0483 -1.7458  2.1281
  165SOL    HW2  495   0.216   0.249   1.696 -1.3560 -0.2125 -0.6238
  166SOL     OW  496   1.932   0.551   0.560  0.2019 -0.2267 -0.2298
  166SOL    HW1  497   1.929   0.646   0.528  2.5596 -1.1396  3.9671
  166SOL    HW2  498   1.849   0.500   0.526 -1.8883  1.4676 -0.2907
  167SOL     OW  499   0.403   0.747   0.188 -0.1325 -0.8379  0.2522
  167SOL    HW1  500   0.482   0.707   0.237 -0.6792  0.4775 -1.6465
  167SOL    HW2  501   0.332   0.789   0.250 -1.0717 -0.1313  0.4276
  168SOL     OW  502   1.998   2.876   1.859 -0.2209  0.3553 -0.5665
  168SOL    HW1  503   2.051   2.944   1.907 -1.2104 -0.0754 -1.9662
  168SOL    HW2  504   2.025   2.870   1.760  2.1333  2.9024 -0.2369
  169SOL     OW  505   0.883   1.130   0.930  0.4157 -0.3759 -0.1166
  169SOL    HW1  506   0.955   1.070   0.964 -2.4672  2.4250 -2.1562
  169SOL    HW2  507   0.863   1.201   1.004 -0.6498  1.3701 -0.1105
  170SOL     OW  508   2.986   0.316   1.290 -0.2047 -0.1055  0.1969
  170SOL    HW1  509   2.965   0.349   1.194  0.3562  0.4414  1.0561
  170SOL    HW2  510   0.013   0.295   1.309  2.5801  1.2627  0.7412
  171SOL     OW  511   1.159   2.830   2.461  0.8257  0.1269 -0.4605
  171SOL    HW1  512   1.146   2.745   2.514  2.8023 -2.1242  0.4065
  171SOL    HW2  513   1.121   2.910   2.512 -1.2294  1.9472 -2.0988
  172SOL     OW  514   0.316   2.573   1.372 -0.2638 -0.0537  0.6057
  172SOL    HW1  515   0.405   2.617   1.347 -0.6388  1.4203  0.5080
  172SOL    HW2  516   0.239   2.645   1.366 -1.5860  5.7561  1.4846
  173SOL     OW  517   1.303   1.028   2.697  0.0437  0.4757 -0.2859
  173SOL    HW1  518   1.274   0.991   2.603  1.2822 -2.2155 -0.8734
  173SOL    HW2  519   1.370   0.967   2.738 -1.8613  2.2174 -0.6512
  174SOL     OW  520   1.900   3.072   2.772 -0.4080  0.5231 -0.2650
  174SOL    HW1  521   1.914   3.043   2.869  2.6362 -1.0346  0.9558
  174SOL    HW2  522   1.939   0.093   2.757  1.0511 -1.2448  0.5993
  175SOL     OW  523   1.864   2.426   0.422 -0.7706  0.1499  0.1737
  175SOL    HW1  524   1.793   2.366   0.393 -0.5324 -0.6653  2.5425
  175SOL    HW2  525   1.897   2.395   0.513  1.3964  1.6874 -1.4420
  176SOL     OW  526   1.664   0.069   2.674 -0.7624 -0.1453 -0.2937
  176SOL    HW1  527   1.638   0.138   2.749  0.3255  2.8373  2.1186
  176SOL    HW2  528   1.756   0.032   2.695  1.0087 -0.3807  0.6541
  177SOL     OW  529   1.076   1.497   0.369 -0.4060  0.3069  0.1050
  177SOL    HW1  530   1.136   1.577   0.347  1.1516 -0.3701 -0.4332
  177SOL    HW2  531   0.982   1.505   0.337  2.8694 -1.2989 -0.4065
  178SOL     OW  532   2.865   2.212   2.732 -0.3549  0.2268  0.7611
  178SOL    HW1  533   2.858   2.313   2.749  0.3364 -3.2448 -0.2193
  178SOL    HW2  534   2.965   2.191   2.720  0.1804 -1.4811  0.4081
  179SOL     OW  535   0.655   2.756   2.891 -0.0135  0.0505  0.8359
  179SOL    HW1  536   0.621   2.719   2.802 -2.7356 -0.4940  1.1338
  179SOL    HW2  537   0.598   2.722   2.964 -0.3598  0.7852 -1.4921
  180SOL     OW  538   1.453   1.543   0.649  0.1342 -0.0497  0.1598
  180SOL    HW1  539   1.462   1.642   0.626  1.3431 -2.2163 -1.8696
  180SOL    HW2  540   1.357   1.509   0.634 -0.9454 -0.8186  0.1018
  181SOL     OW  541   2.259   0.863   2.319 -0.0636 -0.0493  0.3843
  181SOL    HW1  542   2.188   0.878   2.247  1.2889 -1.2842 -0.4861
  181SOL    HW2  543   2.221   0.861   2.411 -2.0117 -1.6180 -2.4597
  182SOL     OW  544   3.068   3.013   2.513 -0.0140  0.3803  0.1450
  182SOL    HW1  545   2.971   3.025   2.482  2.0895  2.5970 -2.3583
  182SOL    HW2  546   0.037   0.033   2.524  0.3272  1.6596  0.1920
  183SOL     OW  547   1.404   0.755   2.316 -0.1427  0.3566 -0.2153
  183SOL    HW1  548   1.466   0.702   2.375 -0.7029  0.6156  2.2854
  183SOL    HW2  549   1.346   0.696   2.260 -0.1425  2.1978  1.7738
  184SOL     OW  550   0.591   0.618   1.714 -0.2342  0.2118 -0.2305
  184SOL    HW1  551   0.630   0.630   1.621  0.1940 -0.5000 -0.8778
  184SOL    HW2  552   0.604   0.705   1.765 -0.7970 -0.5892 -3.0227
  185SOL     OW  553   1.884   1.028   0.452 -0.5311  0.4757  0.4678
  185SOL    HW1  554   1.912   1.103   0.389 -0.2342 -1.1032 -1.3200
  185SOL    HW2  555   1.892   0.940   0.403 -0.4687 -0.1601 -1.4519
  186SOL     OW  556   0.279   2.295   3.035 -0.7573  0.7468  0.3720
  186SOL    HW1  557   0.322   2.264   2.949  1.3973  0.7894  0.5422
  186SOL    HW2  558   0.190   2.245   3.054 -0.7229 -1.9908 -0.1893
  187SOL     OW  559   2.404   1.271   0.197 -0.4647  0.3422  0.5915
  187SOL    HW1  560   2.309   1.248   0.225 -3.4547 -1.8283  0.1744
  187SOL    HW2  561   2.449   1.191   0.148 -0.5046 -0.8172 -5.7021
  188SOL     OW  562   0.150   1.521   0.873 -0.8007  0.1254  0.0546
  188SOL    HW1  563   0.164   1.563   0.964  0.6477  0.2340 -2.2606
  188SOL    HW2  564   0.115   1.578   0.799 -0.6031  0.3499  0.3427
  189SOL     OW  565   2.358   0.250   0.323 -0.1402  0.1944  0.9294
  189SOL    HW1  566   2.298   0.166   0.310  1.0602 -4.0685  0.5867
  189SOL    HW2  567   2.442   0.216   0.369  1.1649 -1.8155 -0.3532
  190SOL     OW  568   0.994   1.674   1.909 -0.4290  0.4123 -0.2642
  190SOL    HW1  569   0.907   1.668   1.962  0.1785 -1.4370 -1.4172
  190SOL    HW2  570   1.034   1.584   1.883  0.2799  1.4722 -0.3653
  191SOL     OW  571   2.756   0.560   1.581  0.2166 -0.1845  0.1887
  191SOL    HW1  572   2.847   0.606   1.590 -0.2230 -1.9322 -3.1085
  191SOL    HW2  573   2.762   0.469   1.626  2.4726  1.1803 -1.6473
  192SOL     OW  574   1.777   1.426   1.298 -0.1704 -0.3543 -0.3534
  192SOL    HW1  575   1.787   1.327   1.294 -0.3609  1.4783 -0.8877
  192SOL    HW2  576   1.843   1.474   1.237  1.3396  0.4274  0.2352
  193SOL     OW  577   0.955   0.771   0.794 -0.1685  0.0666  0.0233
  193SOL    HW1  578   0.864   0.750   0.749 -5.2897  1.9440 -0.0791
  193SOL    HW2  579   0.937   0.803   0.887 -0.0601 -0.9733 -0.7081
  194SOL     OW  580   0.948   2.464   1.374  1.2445 -0.0305  0.1966
  194SOL    HW1  581   0.958   2.563   1.399 -0.0487 -4.1139 -0.6204
  194SOL    HW2  582   0.978   2.401   1.449 -0.1068 -1.8147 -0.0314
  195SOL     OW  583   2.286   0.459   2.828  0.4295  0.1736  0.1320
  195SOL    HW1  584   2.317   0.403   2.906  0.2638 -0.1078 -2.3022
  195SOL    HW2  585   2.189   0.450   2.803  0.5088 -0.4091  1.6762
  196SOL     OW  586   0.912   2.615   1.857  0.4690 -0.0942 -0.2245
  196SOL    HW1  587   0.955   2.552   1.923  0.8077 -0.6356  0.5467
  196SOL    HW2  588   0.843   2.677   1.901  2.6810  1.0598 -0.9949
  197SOL     OW  589   0.851   2.625   0.943 -0.2384  0.1521 -0.4807
  197SOL    HW1  590   0.804   2.643   0.855  0.9632 -2.0432  0.7862
  197SOL    HW2  591   0.941   2.678   0.939  1.0248  0.6313 -1.2835
  198SOL     OW  592   0.706   0.685   0.720 -0.1949  0.2554 -0.7670
  198SOL    HW1  593   0.621   0.636   0.728  2.2436 -1.1670 -1.0554
  198SOL    HW2  594   0.711   0.738   0.632  1.1135  1.5072 -1.0288
  199SOL     OW  595   0.118   2.668   1.763 -0.0802 -0.1405 -0.6191
  199SOL    HW1  596   0.036   2.630   1.716  0.8559  2.7660 -0.4973
  199SOL    HW2  597   0.166   2.602   1.823 -0.6588 -0.8642 -3.4327
  200SOL     OW  598   2.097   1.956   2.292  0.1802 -0.4389  0.2695
  200SOL    HW1  599   2.198   1.948   2.290  1.9920  0.1777 -0.3402
  200SOL    HW2  600   2.059   1.929   2.386  0.3434  0.5627 -0.2765
  201SOL     OW  601   2.885   2.183   1.447  0.3769  0.5660 -0.1668
  201SOL    HW1  602   2.933   2.106   1.398  1.6336 -0.1874 -1.7444
  201SOL    HW2  603   2.857   2.146   1.538  1.1743 -1.5856  2.7980
  202SOL     OW  604   2.814   3.006   0.371 -0.2248  0.1410  0.4558
  202SOL    HW1  605   2.868   2.923   0.352 -0.6089 -0.7529  1.1816
  202SOL    HW2  606   2.747   3.028   0.302 -0.3966 -1.0307  1.3495
  203SOL     OW  607   0.937   2.090   1.944 -0.5782  0.1626  0.2456
  203SOL    HW1  608   0.903   2.154   1.876 -0.0455  2.1582 -1.2368
  203SOL    HW2  609   0.999   2.017   1.908  0.8624  1.9560  1.6717
  204SOL     OW  610   1.309   1.932   1.479 -0.1450  0.0901  0.2452
  204SOL    HW1  611   1.317   1.938   1.380  2.0173  0.1589  0.9993
  204SOL    HW2  612   1.282   2.023   1.518  0.7100  2.2187  1.3351
  205SOL     OW  613   0.912   1.659   1.638 -0.1142 -0.2970 -0.1376
  205SOL    HW1  614   0.983   1.656   1.710  0.4601 -1.3731  3.1504
  205SOL    HW2  615   0.847   1.582   1.644  2.0555  1.6827 -1.0650
  206SOL     OW  616   0.355   0.509   2.847  0.1853  0.8298  0.7614
  206SOL    HW1  617   0.399   0.595   2.871 -0.1991 -2.1298  0.2765
  206SOL    HW2  618   0.396   0.476   2.763 -0.5805  2.8218  0.6927
  207SOL     OW  619   0.904   0.039   1.813 -0.4702 -0.0783 -0.1636
  207SOL    HW1  620   0.873   0.112   1.748 -2.1797  0.4123 -1.0862
  207SOL    HW2  621   0.998   0.067   1.848  1.6872  0.7739  2.2953
  208SOL     OW  622   0.593   2.571   2.089  0.2559 -0.4975  0.6948
  208SOL    HW1  623   0.531   2.606   2.163 -0.5273  0.8546  0.0979
  208SOL    HW2  624   0.659   2.642   2.050  1.6018  1.7100  1.3030
  209SOL     OW  625   1.612   0.630   3.064 -0.5192  0.5536  0.8610
  209SOL    HW1  626   1.665   0.542   3.065 -0.4825 -1.0552 -0.5516
  209SOL    HW2  627   1.525   0.612   0.041  0.3909 -1.2184  2.0135
  210SOL     OW  628   3.055   0.595   0.850  0.3491  0.7571  0.4361
  210SOL    HW1  629   3.001   0.625   0.933 -1.0040  1.8103 -2.6482
  210SOL    HW2  630   0.028   0.503   0.862  1.1542 -1.0167 -3.9364
  211SOL     OW  631   0.815   0.671   1.209  0.5519  0.1662 -0.2715
  211SOL    HW1  632   0.876   0.609   1.264 -0.5034 -1.2970  3.7997
  211SOL    HW2  633   0.757   0.731   1.268 -1.5674 -1.0531 -0.1380
  212SOL     OW  634   1.518   1.804   0.556 -0.2890 -0.2453  0.2603
  212SOL    HW1  635   1.421   1.840   0.539 -2.1466  1.7102  3.6268
  212SOL    HW2  636   1.566   1.871   0.619  2.3344 -0.2062  2.3939
  213SOL     OW  637   1.968   0.206   1.890 -0.2297  0.0641 -0.1483
  213SOL    HW1  638   2.014   0.219   1.803  0.2850  1.9611 -0.8427
  213SOL    HW2  639   2.022   0.139   1.938  0.6401  0.6865 -1.6384
  214SOL     OW  640   1.124   2.582   2.585 -0.4862 -0.0646  0.3499
  214SOL    HW1  641   1.214   2.600   2.634  0.2448 -1.4806  1.3702
  214SOL    HW2  642   1.132   2.493   2.528 -0.0343 -0.0821  2.2055
  215SOL     OW  643   2.786   1.787   1.273 -0.4213  0.5172  0.4104
  215SOL    HW1  644   2.692   1.778   1.232 -0.7559  2.7277 -4.2926
  215SOL    HW2  645   2.856   1.753   1.209 -4.0645 -0.0331 -0.6911
  216SOL     OW  646   0.386   0.487   2.068  0.5274 -0.2856  0.2059
  216SOL    HW1  647   0.461   0.483   2.137 -0.6321 -1.9485 -1.5436
  216SOL    HW2  648   0.382   0.581   2.027 -1.3586  0.4323 -0.4111
  217SOL     OW  649   2.907   0.379   0.343  0.2906  0.0665  0.2160
  217SOL    HW1  650   2.818   0.373   0.295  1.6252  2.9417 -0.0214
  217SOL    HW2  651   2.930   0.294   0.388 -2.0667  0.8837 -0.1238
  218SOL     OW  652   1.743   1.832   1.685 -0.3869 -0.2190 -0.0955
  218SOL    HW1  653   1.761   1.777   1.773  0.5750 -0.2355  0.1185
  218SOL    HW2  654   1.674   1.784   1.624 -1.4066 -2.9659  0.2346
  219SOL     OW  655   1.743   0.756   0.195  0.3510  0.0577  0.1999
  219SOL    HW1  656   1.694   0.678   0.152 -0.6354  2.0146  0.0744
  219SOL    HW2  657   1.672   0.820   0.238 -2.5259  2.6794  1.0630
  220SOL     OW  658   1.591   1.933   0.818  0.3914  0.3201 -0.2866
  220SOL    HW1  659   1.489   1.937   0.840 -1.7897 -3.8604 -0.1037
  220SOL    HW2  660   1.644   1.852   0.855  1.9934  2.1422 -1.9606
  221SOL     OW  661   0.233   0.546   0.077 -0.5041 -0.0876  0.7359
  221SOL    HW1  662   0.198   0.561   3.058 -0.0485 -0.6924 -1.1952
  221SOL    HW2  663   0.302   0.612   0.095  3.3855  1.2916 -1.8722
  222SOL     OW  664   0.855   2.990   1.564 -0.0617 -0.1818  0.2970
  222SOL    HW1  665   0.895   3.015   1.650  2.5407  4.3122 -2.2940
  222SOL    HW2  666   0.895   3.049   1.489 -2.3252 -1.3826 -0.5938
  223SOL     OW  667   1.490   0.516   2.739  0.4321  0.5260  0.1622
  223SOL    HW1  668   1.479   0.425   2.777  2.1614  2.1233  2.8878
  223SOL    HW2  669   1.401   0.570   2.737 -1.1349  1.3413 -1.9769
  224SOL     OW  670   2.780   0.588   1.256 -0.1223 -0.7755  0.1764
  224SOL    HW1  671   2.786   0.578   1.355  0.7083 -0.0859  0.0290
  224SOL    HW2  672   2.748   0.505   1.212  0.1526  0.3390  1.6761
  225SOL     OW  673   0.946   1.286   1.352 -0.5881  0.4892  0.2134
  225SOL    HW1  674   0.899   1.372   1.383 -0.0841  0.2021  1.6143
  225SOL    HW2  675   1.042   1.307   1.362 -3.7879 -1.9465 -1.0478
  226SOL     OW  676   0.893   0.153   0.616  0.0179  0.1285 -0.0176
  226SOL    HW1  677   0.808   0.092   0.618 -2.1193 -1.0837 -2.1402
  226SOL    HW2  678   0.971   0.116   0.668 -0.4876 -1.7518  1.8245
  227SOL     OW  679   0.751   1.779   1.292 -0.7643 -0.5984  0.8182
  227SOL    HW1  680   0.760   1.828   1.202  0.5057  1.6000  0.1118
  227SOL    HW2  681   0.741   1.850   1.362  1.9466  2.0304 -1.0932
  228SOL     OW  682   0.581   0.064   1.577 -0.8389 -0.4997  0.3809
  228SOL    HW1  683   0.672   0.073   1.527 -0.7922  0.0056  1.4006
  228SOL    HW2  684   0.583   0.075   1.678 -0.9633 -0.0614  1.3671
  229SOL     OW  685   2.585   0.929   0.551 -0.3348  0.1662  0.5264
  229SOL    HW1  686   2.542   0.837   0.526  1.4344  2.0626 -1.8753
  229SOL    HW2  687   2.620   0.973   0.467 -2.0353 -1.8961 -3.3205
  230SOL     OW  688   0.448   1.212   1.766  0.2954  0.2272 -0.3183
  230SOL    HW1  689   0.404   1.133   1.721 -0.6796 -0.2795 -0.4410
  230SOL    HW2  690   0.488   1.191   1.856  1.0409 -0.2728  0.9126
  231SOL     OW  691   1.206   2.703   1.410  0.2239  0.1642 -0.6172
  231SOL    HW1  692   1.278   2.774   1.432  1.3217  1.6810  0.4444
  231SOL    HW2  693   1.112   2.732   1.426  0.2131  0.0994  0.3863
  232SOL     OW  694   2.487   2.210   0.253  0.7737 -0.4648 -0.8346
  232SOL    HW1  695   2.417   2.223   0.322  4.1817 -0.6565  1.8856
  232SOL    HW2  696   2.459   2.168   0.163  1.7386 -0.8114 -1.5139
  233SOL     OW  697   1.009   2.604   0.106  0.5424 -0.2219  0.2349
  233SOL    HW1  698   0.930   2.663   0.105  1.5926 -1.8477 -3.0896
  233SOL    HW2  699   1.083   2.639   0.052 -0.0882 -2.3439  1.2163
  234SOL     OW  700   1.229   0.584   2.189 -0.1037  0.5079 -0.0643
  234SOL    HW1  701   1.189   0.677   2.181 -0.1189  0.0221 -1.3187
  234SOL    HW2  702   1.162   0.511   2.161  2.1876 -0.4446 -1.3812
  235SOL     OW  703   0.098   2.151   0.277 -0.6453 -0.1391 -0.0984
  235SOL    HW1  704   0.109   2.237   0.334 -0.5281 -0.0028  1.5196
  235SOL    HW2  705   0.048   2.083   0.329  0.5260  0.6927 -0.6733
  236SOL     OW  706   2.084   2.800   2.458 -0.6784 -0.0408 -0.6503
  236SOL    HW1  707   2.065   2.814   2.359  2.5714 -1.9799  0.5192
  236SOL    HW2  708   2.092   2.699   2.480 -1.4891  0.2391 -3.8982
  237SOL     OW  709   2.056   1.354   1.620 -0.0617 -0.0557  0.1534
  237SOL    HW1  710   2.093   1.312   1.532  1.8052 -2.3051  1.7926
  237SOL    HW2  711   2.022   1.283   1.685  0.0636 -1.9118  2.0439
  238SOL     OW  712   1.879   0.107   2.396 -0.5663  0.1881  0.3086
  238SOL    HW1  713   1.796   0.146   2.349  0.2167  0.4029 -1.5782
  238SOL    HW2  714   1.874   0.012   2.425 -2.0986  0.7408  1.1446
  239SOL     OW  715   0.717   2.115   1.542  0.2375  0.1832 -0.0162
  239SOL    HW1  716   0.645   2.115   1.469  3.0054 -0.8054 -3.1346
  239SOL    HW2  717   0.734   2.019   1.572  0.4117  0.4054  2.9462
  240SOL     OW  718   0.065   2.480   0.857 -0.6017 -0.1309  0.1226
  240SOL    HW1  719   0.140   2.520   0.800 -0.3075  0.6023  0.8392
  240SOL    HW2  720   3.050   2.529   0.842 -0.6248  1.3000 -0.3184
  241SOL     OW  721   1.599   2.056   0.102 -0.1966 -0.4565  0.5452
  241SOL    HW1  722   1.624   2.017   0.192  0.4206 -0.2423 -1.0446
  241SOL    HW2  723   1.686   2.069   0.048 -1.6127 -1.1866  1.5360
  242SOL     OW  724   2.178   1.132   0.235  0.1576 -0.3224 -0.2149
  242SOL    HW1  725   2.211   1.062   0.301  2.8456  1.2873 -0.7582
  242SOL    HW2  726   2.174   1.085   0.143 -1.2834  0.6250  1.7430
  243SOL     OW  727   0.685   0.391   1.828 -0.5764  0.4532  0.1024
  243SOL    HW1  728   0.753   0.355   1.759 -0.1633  0.6576 -2.0850
  243SOL    HW2  729   0.653   0.483   1.804  0.1632 -3.7432  2.4285
  244SOL     OW  730   1.725   2.773   2.732  0.2164 -0.0795 -0.3518
  244SOL    HW1  731   1.646   2.827   2.694 -0.2356  1.9828 -1.3711
  244SOL    HW2  732   1.762   2.809   2.820  1.6460  0.3821 -0.2794
  245SOL     OW  733   1.646   3.046   3.039 -0.3111 -0.3599  0.5524
  245SOL    HW1  734   1.616   0.069   3.065 -0.5823 -0.4679  0.9801
  245SOL    HW2  735   1.572   3.008   2.974 -0.9299 -2.9939 -2.6658
  246SOL     OW  736   1.131   1.067   2.268 -0.4859  0.2281 -0.0483
  246SOL    HW1  737   1.216   1.118   2.242  0.4394  0.5129 -1.2188
  246SOL    HW2  738   1.063   1.126   2.318 -1.6486  0.1115  0.5288
  247SOL     OW  739   2.935   0.756   2.209  0.1190  0.5961  0.5894
  247SOL    HW1  740   2.986   0.724   2.123  2.3524 -0.1618  1.0433
  247SOL    HW2  741   2.837   0.736   2.193 -1.4777 -1.5273  0.2030
  248SOL     OW  742   0.597   0.872   1.823  0.3579  0.3038  0.3342
  248SOL    HW1  743   0.621   0.939   1.892  2.3809 -1.2526 -1.4104
  248SOL    HW2  744   0.538   0.919   1.756  1.0226  1.6769  3.4155
  249SOL     OW  745   2.370   0.509   0.261 -0.1335  0.2105  0.7672
  249SOL    HW1  746   2.279   0.560   0.276 -0.5933  1.4408 -0.4166
  249SOL    HW2  747   2.359   0.411   0.280 -0.1146 -0.8863  0.5894
  250SOL     OW  748   2.866   0.347   0.663 -0.2774 -0.2433  0.1966
  250SOL    HW1  749   2.953   0.402   0.642  4.6904  1.2171  0.4507
  250SOL    HW2  750   2.872   0.245   0.670 -1.3407 -1.3556  0.1764
  251SOL     OW  751   0.880   0.787   2.183 -0.6349  0.0845  0.1397
  251SOL    HW1  752   0.870   0.706   2.240 -3.7806  0.4164 -1.3824
  251SOL    HW2  753   0.974   0.795   2.138  0.2935  0.8727 -0.1217
  252SOL     OW  754   1.408   1.579   1.714  0.0965  0.2346 -0.3434
  252SOL    HW1  755   1.416   1.659   1.653 -3.1947  1.0156  0.4471
  252SOL    HW2  756   1.313   1.555   1.729  3.2869  1.0036  1.0638
  253SOL     OW  757   1.433   2.683   1.821  0.2803  0.0567 -0.2721
  253SOL    HW1  758   1.420   2.687   1.922 -0.5889  2.1931 -3.1412
  253SOL    HW2  759   1.374   2.605   1.783 -2.4831 -2.8184  0.2682
  254SOL     OW  760   0.839   2.180   2.263  0.6161 -0.0520  0.2626
  254SOL    HW1  761   0.811   2.081   2.273  2.9838 -0.7175 -0.3752
  254SOL    HW2  762   0.826   2.217   2.171  0.1221  0.2915 -0.2002
  255SOL     OW  763   1.323   0.429   0.622 -0.5310 -0.3566 -0.0124
  255SOL    HW1  764   1.274   0.387   0.700 -0.4391  0.3856 -1.3576
  255SOL    HW2  765   1.257   0.464   0.556  0.3651  0.0938  1.8118
  256SOL     OW  766   1.860   2.290   1.214  0.2703  0.5091  0.1545
  256SOL    HW1  767   1.938   2.355   1.232  1.7002 -0.6702  4.3572
  256SOL    HW2  768   1.903   2.197   1.215  1.0534  1.2517  0.8109
  257SOL     OW  769   0.190   2.012   2.505 -0.3453 -0.3016 -0.1970
  257SOL    HW1  770   0.143   1.994   2.586  0.6722 -0.3908 -2.5564
  257SOL    HW2  771   0.205   1.936   2.439  0.7429  1.2544  1.0354
  258SOL     OW  772   0.536   0.853   2.426 -0.4119  0.8177  0.1022
  258SOL    HW1  773   0.572   0.924   2.358 -1.2082  2.5477  1.5562
  258SOL    HW2  774   0.435   0.847   2.434  1.4128  0.3142  3.5686
  259SOL     OW  775   1.211   0.910   2.460 -0.4956 -0.0489  0.0135
  259SOL    HW1  776   1.169   0.968   2.384  0.2079  1.1652 -0.5026
  259SOL    HW2  777   1.289   0.857   2.423  0.3762  1.4220 -0.7307
  260SOL     OW  778   1.695   0.425   0.529 -0.0778 -0.1735  0.4035
  260SOL    HW1  779   1.635   0.507   0.519  0.7841  3.6544 -0.9332
  260SOL    HW2  780   1.673   0.371   0.611  1.1142  0.4534  0.9410
  261SOL     OW  781   1.061   0.460   2.815  0.2898 -0.2968  0.4422
  261SOL    HW1  782   1.062   0.358   2.825  1.0582  1.5162  2.2611
  261SOL    HW2  783   0.968   0.486   2.781  2.7598 -1.6396  0.1402
  262SOL     OW  784   2.271   2.969   2.764  1.0891  0.3355 -0.1370
  262SOL    HW1  785   2.237   3.053   2.718 -0.4389 -1.0960  0.5301
  262SOL    HW2  786   2.368   2.960   2.761 -0.1031 -1.2495  2.7503
  263SOL     OW  787   0.748   1.906   0.093 -0.1425 -0.2086 -0.5723
  263SOL    HW1  788   0.798   1.833   0.040 -0.4501 -1.2685  0.1807
  263SOL    HW2  789   0.749   1.985   0.038 -2.2207 -2.5739  1.8465
  264SOL     OW  790   0.524   1.679   1.599 -0.5258 -1.0681 -0.0216
  264SOL    HW1  791   0.532   1.579   1.596 -1.1181  0.0441 -0.1207
  264SOL    HW2  792   0.480   1.699   1.687  0.3017 -0.7914 -2.1478
  265SOL     OW  793   0.481   1.078   0.354  0.4529  0.7732 -0.9368
  265SOL    HW1  794   0.438   1.095   0.260  0.3516  2.7511 -0.4740
  265SOL    HW2  795   0.584   1.060   0.357  3.2572 -0.0225 -0.1311
  266SOL     OW  796   1.876   1.661   0.085  0.6508  0.1427 -0.3063
  266SOL    HW1  797   1.937   1.735   0.108 -2.2906 -0.6940 -3.3568
  266SOL    HW2  798   1.864   1.661   3.058  0.4685  1.0706  1.9828
  267SOL     OW  799   2.704   0.309   0.001  0.2662 -1.0556 -0.2832
  267SOL    HW1  800   2.799   0.276   3.063 -1.5272  0.4116 -0.6084
  267SOL    HW2  801   2.671   0.328   2.980  3.6368 -1.7131  1.1039
  268SOL     OW  802   0.477   0.296   2.961  0.3590 -0.7504 -0.2831
  268SOL    HW1  803   0.535   0.335   3.036 -1.1890  1.0100 -0.5662
  268SOL    HW2  804   0.435   0.376   2.915 -1.9837 -2.2162  0.2585
  269SOL     OW  805   1.765   0.580   2.805 -0.1228 -0.3878  0.0171
  269SOL    HW1  806   1.768   0.655   2.873 -0.2849  0.0845  2.0841
  269SOL    HW2  807   1.668   0.550   2.800  0.0787 -1.6272 -1.0864
  270SOL     OW  808   1.015   0.788   2.599  0.5476 -0.2908 -0.3943
  270SOL    HW1  809   1.094   0.827   2.546  0.8026  0.0491 -1.9977
  270SOL    HW2  810   1.012   0.809   2.698  1.1895 -0.3212 -1.2428
  271SOL     OW  811   2.495   1.032   0.077  0.2079  0.1682 -0.0231
  271SOL    HW1  812   2.562   1.027   0.003  0.6697  2.2827 -0.3199
  271SOL    HW2  813   2.438   0.948   0.073  1.2405  1.5486  2.6743
  272SOL     OW  814   2.469   1.950   2.634 -0.2689  0.2313 -0.7021
  272SOL    HW1  815   2.439   2.043   2.653 -1.1809 -2.1278 -0.7096
  272SOL    HW2  816   2.557   1.941   2.577  3.1615  0.0509 -2.1635
  273SOL     OW  817   2.494   0.619   2.890  0.1696 -0.2025 -0.4241
  273SOL    HW1  818   2.409   0.569   2.860  1.1090  0.1688  1.0898
  273SOL    HW2  819   2.577   0.559   2.882  1.1759 -2.0111 -0.1324
  274SOL     OW  820   0.034   3.023   1.604  0.1307 -1.0166 -0.4574
  274SOL    HW1  821   0.092   2.949   1.641  1.0009 -1.3474 -0.5964
  274SOL    HW2  822   0.045   0.039   1.655  1.3765  2.9774  0.7492
  275SOL     OW  823   2.116   1.529   0.667 -0.4393 -0.1351 -0.8673
  275SOL    HW1  824   2.043   1.471   0.624  1.3958 -3.3582  1.6206
  275SOL    HW2  825   2.169   1.568   0.591 -0.9604  0.4874  3.9332
  276SOL     OW  826   0.268   1.345   2.622 -0.4752  0.1455  0.2248
  276SOL    HW1  827   0.353   1.326   2.670 -1.7579 -0.6406 -0.5472
  276SOL    HW2  828   0.283   1.360   2.525  0.1052  0.9283  3.4753
  277SOL     OW  829   1.707   2.476   1.868  0.6882  0.0903  0.6607
  277SOL    HW1  830   1.705   2.568   1.905  0.6318 -2.3083  1.8545
  277SOL    HW2  831   1.632   2.417   1.905 -1.2313 -0.4370 -0.6115
  278SOL     OW  832   1.841   0.171   1.508 -0.3664  0.2473  0.5588
  278SOL    HW1  833   1.748   0.131   1.529 -4.1111  1.3969  2.2407
  278SOL    HW2  834   1.827   0.252   1.442  0.2809  0.2767 -0.5589
  279SOL     OW  835   1.502   1.320   3.056  0.4221 -0.1075 -0.0453
  279SOL    HW1  836   1.538   1.228   3.043 -2.8297 -0.1072  3.4033
  279SOL    HW2  837   1.565   1.368   0.048  3.2420  2.1626  1.8461
  280SOL     OW  838   0.797   1.608   0.989 -0.5078 -0.4253  0.2043
  280SOL    HW1  839   0.737   1.583   0.915  1.0221  0.2694  2.8975
  280SOL    HW2  840   0.798   1.709   1.002  0.9659  0.5547  0.6821
  281SOL     OW  841   0.092   0.172   2.565  0.0274 -0.4170  0.1800
  281SOL    HW1  842   0.031   0.235   2.515  0.3678 -0.0263 -0.8217
  281SOL    HW2  843   0.191   0.193   2.536  0.9595  1.6273 -1.0237
  282SOL     OW  844   0.305   0.942   1.393 -0.0796  0.1596 -0.3170
  282SOL    HW1  845   0.258   1.012   1.336 -0.2994 -1.8760  0.8854
  282SOL    HW2  846   0.266   0.852   1.379  1.0515 -0.8746  2.6406
  283SOL     OW  847   1.733   2.269   2.717 -0.3954  0.4005 -0.0623
  283SOL    HW1  848   1.742   2.366   2.686  0.7978 -0.9254 -1.4505
  283SOL    HW2  849   1.647   2.221   2.689  0.0766  0.3689 -0.9713
  284SOL     OW  850   1.937   1.235   0.299  0.0981  0.1646  0.0423
  284SOL    HW1  851   1.877   1.254   0.218  0.6316  1.6469 -0.2208
  284SOL    HW2  852   2.033   1.217   0.263  0.6851  1.3511  1.5197
  285SOL     OW  853   2.966   0.204   3.049 -0.5071  0.3706 -0.4110
  285SOL    HW1  854   3.003   0.273   0.043  0.9328  0.0314  0.5100
  285SOL    HW2  855   3.042   0.177   2.992  1.6291  1.6566  1.5136
  286SOL     OW  856   1.720   2.908   1.561  0.0589  0.6845  0.6801
  286SOL    HW1  857   1.700   2.816   1.528 -0.9898  0.6628  0.4646
  286SOL    HW2  858   1.806   2.943   1.516  1.9386  3.7294  0.6529
  287SOL     OW  859   0.929   1.031   1.309 -0.2104 -0.3728  0.1813
  287SOL    HW1  860   0.886   0.990   1.393  0.0863  1.3389  0.7199
  287SOL    HW2  861   0.912   1.132   1.320 -3.3328  2.0173 -0.6061
  288SOL     OW  862   1.408   2.543   0.219  0.3239 -0.2635 -0.5049
  288SOL    HW1  863   1.508   2.542   0.192  0.2456 -1.1735 -2.4248
  288SOL    HW2  864   1.386   2.505   0.310 -3.1016 -1.0187  0.4623
  289SOL     OW  865   2.922   1.507   2.889 -0.1153  0.0626  0.0778
  289SOL    HW1  866   2.881   1.572   2.819 -0.1798  1.8450  0.6642
  289SOL    HW2  867   3.015   1.478   2.858  0.7360 -2.1518  1.8769
  290SOL     OW  868   1.055   2.645   0.619 -0.0355 -0.1399 -0.1401
  290SOL    HW1  869   1.030   2.740   0.641 -0.7971  0.6414  0.9864
  290SOL    HW2  870   1.125   2.603   0.681  0.7296 -1.3579  1.2896
  291SOL     OW  871   1.916   2.419   2.919  0.4526  0.5849  0.1079
  291SOL    HW1  872   1.949   2.378   2.832 -1.9332 -3.3636  2.4388
  291SOL    HW2  873   1.821   2.450   2.923  0.4357 -0.9152 -1.0690
  292SOL     OW  874   0.856   1.163   1.900  0.4462  0.0350  0.8815
  292SOL    HW1  875   0.937   1.101   1.918 -1.0895  0.7220  1.0312
  292SOL    HW2  876   0.882   1.216   1.821 -0.1272 -2.5032  0.3235
  293SOL     OW  877   2.426   2.718   1.201  0.4089 -0.0066 -0.3006
  293SOL    HW1  878   2.344   2.751   1.152 -0.1785 -1.4694 -1.1730
  293SOL    HW2  879   2.510   2.724   1.146 -1.9058  0.6522 -0.3744
  294SOL     OW  880   2.980   0.552   2.595  0.0841 -0.3264 -0.7459
  294SOL    HW1  881   2.909   0.621   2.566 -2.8116  3.2558 -0.6812
  294SOL    HW2  882   3.070   0.568   2.555  2.2351  3.7377  2.0838
  295SOL     OW  883   1.196   1.872   0.071 -0.4225 -0.1596  0.6519
  295SOL    HW1  884   1.142   1.852   3.062  2.4782  1.4595  1.0810
  295SOL    HW2  885   1.184   1.968   0.103 -3.0052 -0.6433  0.0718
  296SOL     OW  886   2.020   1.894   2.521 -0.2810 -0.1441 -0.1890
  296SOL    HW1  887   1.967   1.982   2.539  1.3583 -0.4171 -1.1804
  296SOL    HW2  888   2.088   1.875   2.595  0.4841 -1.7370  0.8111
  297SOL     OW  889   2.478   0.720   0.085  0.1381  0.2398  0.2448
  297SOL    HW1  890   2.447   0.699   3.060 -0.9661 -0.8191 -3.8492
  297SOL    HW2  891   2.432   0.655   0.149 -2.7658  0.3542 -1.0015
  298SOL     OW  892   0.736   2.110   2.992 -0.2962 -0.0124 -0.1273
  298SOL    HW1  893   0.705   2.067   2.903  2.2476  0.1972  0.2766
  298SOL    HW2  894   0.703   2.209   2.989 -1.1979 -0.4991 -1.9547
  299SOL     OW  895   1.396   2.799   2.305  0.3467 -0.1614  0.5179
  299SOL    HW1  896   1.468   2.837   2.357 -1.7174 -1.2098 -2.9985
  299SOL    HW2  897   1.304   2.826   2.341 -1.0229 -1.6457 -1.8123
  300SOL     OW  898   2.655   0.429   0.235 -0.1100 -0.0038  0.7061
  300SOL    HW1  899   2.559   0.448   0.230  1.5579 -1.9735 -1.2419
  300SOL    HW2  900   2.680   0.393   0.144  0.2722 -0.0023  1.1597
  301SOL     OW  901   1.136   1.166   1.580 -0.5935 -0.4624  0.3344
  301SOL    HW1  902   1.135   1.067   1.600  1.6688  0.4593  0.3721
  301SOL    HW2  903   1.175   1.187   1.488  0.7562 -0.3574 -0.0356
  302SOL     OW  904   0.033   2.202   0.033  0.0434  0.4637 -0.7146
  302SOL    HW1  905   0.054   2.182   0.131  0.8631  1.9050 -0.3127
  302SOL    HW2  906   3.008   2.220   0.014 -0.1309 -2.5568  1.5020
  303SOL     OW  907   2.893   2.856   2.847  0.4836 -0.8869  0.5930
  303SOL    HW1  908   2.874   2.875   2.747 -0.0347  0.2638  0.9195
  303SOL    HW2  909   2.830   2.783   2.881  1.2203 -1.4524  0.4538
  304SOL     OW  910   2.672   0.757   2.111 -0.0657 -0.0529 -0.2009
  304SOL    HW1  911   2.669   0.850   2.161  1.3099  1.9199  2.7957
  304SOL    HW2  912   2.575   0.726   2.104  0.3196  0.4159  0.1217
  305SOL     OW  913   0.471   2.717   2.311  0.1169 -0.0268  0.2793
  305SOL    HW1  914   0.415   2.774   2.244 -3.6361  1.6470  0.7920
  305SOL    HW2  915   0.546   2.770   2.361 -1.2678 -1.3378  1.2716
  306SOL     OW  916   2.697   1.016   1.705  0.4192 -0.3520  0.3735
  306SOL    HW1  917   2.712   1.115   1.674  2.2751 -0.3812  2.6455
  306SOL    HW2  918   2.612   1.004   1.762 -0.6693 -1.2853 -2.2272
  307SOL     OW  919   1.632   0.567   1.270  0.5260 -0.1807  0.0531
  307SOL    HW1  920   1.698   0.630   1.229 -3.8807 -2.6500  1.2795
  307SOL    HW2  921   1.561   0.540   1.198 -3.5270 -3.3969 -2.1893
  308SOL     OW  922   2.492   1.753   1.160 -0.5036 -0.6574 -0.0099
  308SOL    HW1  923   2.415   1.804   1.203 -0.6612 -0.4001  0.6833
  308SOL    HW2  924   2.522   1.796   1.072  2.7044  2.0440  0.5575
  309SOL     OW  925   2.293   1.573   1.598  0.5746  0.2372 -0.4462
  309SOL    HW1  926   2.308   1.671   1.614 -0.4667 -2.7255 -1.5545
  309SOL    HW2  927   2.270   1.554   1.500  1.0137  0.5729  1.0195
  310SOL     OW  928   2.799   1.723   2.755  0.2228 -0.1451  0.0565
  310SOL    HW1  929   2.780   1.813   2.804 -2.7019  2.3244  0.5958
  310SOL    HW2  930   2.710   1.679   2.731  0.0550  1.9471 -4.5103
  311SOL     OW  931   2.180   2.136   2.692 -0.2948 -0.3199  0.4676
  311SOL    HW1  932   2.091   2.141   2.647  1.5991  2.1244  0.3419
  311SOL    HW2  933   2.255   2.178   2.633  2.9700  1.9687 -0.4211
  312SOL     OW  934   2.276   1.864   1.256 -0.5335 -0.0628 -0.0894
  312SOL    HW1  935   2.247   1.775   1.297 -0.7264  0.3236 -0.4335
  312SOL    HW2  936   2.328   1.930   1.317  1.7903 -1.5071  0.9417
  313SOL     OW  937   2.325   2.375   1.127 -0.3955 -0.8726 -0.6638
  313SOL    HW1  938   2.382   2.435   1.066 -0.1846 -0.6472  1.0965
  313SOL    HW2  939   2.372   2.379   1.220  0.7777  1.1265  4.3274
  314SOL     OW  940   0.939   2.100   0.596  0.1209  0.0091  0.6000
  314SOL    HW1  941   0.864   2.156   0.633  2.1232 -1.2558  1.2115
  314SOL    HW2  942   0.905   2.026   0.538 -1.0125 -0.8352 -2.3067
  315SOL     OW  943   0.611   2.622   2.658  0.7886 -0.0208 -0.0010
  315SOL    HW1  944   0.608   2.522   2.632  0.6769 -1.7255 -0.2158
  315SOL    HW2  945   0.702   2.665   2.635 -1.0643 -0.9529 -1.2628
  316SOL     OW  946   0.107   0.536   0.371  0.4603  0.4400 -0.4039
  316SOL    HW1  947   0.029   0.602   0.371  1.3495 -0.9475 -1.0319
  316SOL    HW2  948   0.197   0.584   0.345  4.1855  0.9307 -0.2418
  317SOL     OW  949   1.178   0.338   0.809 -0.2047 -0.1846 -0.8118
  317SOL    HW1  950   1.169   0.316   0.910 -0.0342 -1.4355  2.2772
  317SOL    HW2  951   1.093   0.393   0.782  2.0577 -0.0742 -3.1524
  318SOL     OW  952   2.949   2.395   0.633 -0.2471  0.1721 -0.0440
  318SOL    HW1  953   2.933   2.494   0.613 -1.8629  2.6790  0.3392
  318SOL    HW2  954   2.900   2.360   0.717  1.4453 -1.0200  0.0624
  319SOL     OW  955   0.446   1.714   2.502 -0.6279 -0.2456 -0.3337
  319SOL    HW1  956   0.466   1.727   2.601  0.0939  1.7316  0.8352
  319SOL    HW2  957   0.348   1.681   2.500 -2.0918 -1.1107  0.5274
  320SOL     OW  958   0.866   2.766   2.361 -0.3099  0.5101 -0.2167
  320SOL    HW1  959   0.952   2.793   2.315  2.7576  0.1045 -0.3905
  320SOL    HW2  960   0.804   2.730   2.287  1.1876 -2.9091  0.3291
  321SOL     OW  961   1.247   2.767   0.154  0.9357 -0.1798 -0.0546
  321SOL    HW1  962   1.314   2.698   0.165 -2.4051  0.6238 -0.4625
  321SOL    HW2  963   1.211   2.771   0.057 -3.4725 -0.3250 -0.0181
  322SOL     OW  964   2.591   1.171   2.011  0.3049 -0.0263  0.0685
  322SOL    HW1  965   2.624   1.262   1.982 -1.4491  0.1860  1.0269
  322SOL    HW2  966   2.494   1.176   2.051 -2.7276  0.4178 -1.9172
  323SOL     OW  967   2.475   0.671   0.504 -0.1207 -0.1265 -0.0988
  323SOL    HW1  968   2.436   0.619   0.428  1.3066 -0.0801 -0.4598
  323SOL    HW2  969   2.477   0.619   0.592  0.9113 -1.0097  1.7640
  324SOL     OW  970   0.130   2.816   2.983  0.1478 -0.1419  0.0529
  324SOL    HW1  971   0.113   2.838   2.884  0.7027 -0.6929 -1.1793
  324SOL    HW2  972   0.199   2.739   2.991  3.5488 -2.6864  2.1653
  325SOL     OW  973   1.596   0.235   2.430  0.0229  0.3455 -0.1954
  325SOL    HW1  974   1.628   0.156   2.485 -1.3545 -0.3872  3.4892
  325SOL    HW2  975   1.504   0.262   2.466 -3.3124 -0.2186  0.9660
  326SOL     OW  976   2.385   2.758   1.462 -0.3587 -0.0706  0.0302
  326SOL    HW1  977   2.289   2.752   1.495 -2.0801  2.4553  2.1693
  326SOL    HW2  978   2.391   2.724   1.361 -0.4414  0.3010 -3.0729
  327SOL     OW  979   1.481   0.270   2.868 -0.1935 -0.7614 -0.4193
  327SOL    HW1  980   1.384   0.241   2.881 -1.3605 -1.2061 -3.1027
  327SOL    HW2  981   1.530   0.287   2.958  2.8789 -1.3867  0.0070
  328SOL     OW  982   2.797   1.332   2.553 -0.1999  0.1011  0.3261
  328SOL    HW1  983   2.730   1.404   2.573  3.5089 -1.5175  1.0578
  328SOL    HW2  984   2.891   1.365   2.536 -0.9116 -2.7897  2.6505
  329SOL     OW  985   1.541   2.946   1.777 -0.1882 -0.1733 -0.6671
  329SOL    HW1  986   1.628   2.941   1.732  1.7171 -2.5271  0.7639
  329SOL    HW2  987   1.504   2.848   1.769  1.5714  0.2600  0.9444
  330SOL     OW  988   2.656   1.316   1.393 -0.2389 -0.5516  0.2070
  330SOL    HW1  989   2.728   1.373   1.352 -1.7397 -0.4817  1.2304
  330SOL    HW2  990   2.657   1.219   1.355 -0.3873  0.8311 -2.5492
  331SOL     OW  991   0.363   1.472   1.365  0.1087 -0.2503  0.2837
  331SOL    HW1  992   0.414   1.528   1.300 -1.2336  2.2365  1.0883
  331SOL    HW2  993   0.278   1.426   1.322 -1.4392  0.7281 -1.9671
  332SOL     OW  994   0.771   0.330   1.382 -0.3208  0.0343  0.4535
  332SOL    HW1  995   0.831   0.369   1.306  1.0516  0.9102 -1.4142
  332SOL    HW2  996   0.675   0.347   1.359 -0.4892 -1.9493 -2.0627
  333SOL     OW  997   2.140   2.630   1.805 -0.0243  0.1771  0.0858
  333SOL    HW1  998   2.212   2.638   1.876  2.2827  0.7219 -0.4371
  333SOL    HW2  999   2.077   2.705   1.818  2.9602 -2.9042  0.3364
  334SOL     OW 1000   1.206   1.291   1.325 -0.0094 -0.0494  0.3371
  334SOL    HW1 1001   1.204   1.341   1.235  1.1722  1.0872 -2.4973
  334SOL    HW2 1002   1.303   1.283   1.358  0.7942  0.5489  0.8884
  335SOL     OW 1003   0.927   2.764   2.880  0.4096 -0.1706  0.2598
  335SOL    HW1 1004   0.829   2.785   2.899  1.6229  1.2432 -0.3150
  335SOL    HW2 1005   0.934   2.743   2.779  1.6783 -1.5107  0.2307
  336SOL     OW 1006   2.984   2.638   2.042 -0.1899  0.2057  0.8523
  336SOL    HW1 1007   2.897   2.674   2.076 -0.4217  0.1814 -2.0364
  336SOL    HW2 1008   2.976   2.540   2.027 -0.6712  3.8173 -1.1853
  337SOL     OW 1009   2.684   1.711   0.587 -0.1494 -0.2622  0.2562
  337SOL    HW1 1010   2.598   1.753   0.613  0.9267  0.1580  0.3918
  337SOL    HW2 1011   2.695   1.713   0.485 -0.2438 -0.7883  2.9300
  338SOL     OW 1012   1.052   2.048   1.213 -0.0284 -0.4637 -0.0368
  338SOL    HW1 1013   1.151   2.031   1.204 -0.2283 -0.8333  1.2569
  338SOL    HW2 1014   1.002   1.965   1.242  0.7456  1.2997  1.5912
  339SOL     OW 1015   3.031   0.943   2.408  0.3800 -0.2122 -0.0446
  339SOL    HW1 1016   3.010   0.872   2.337  0.7398  0.1993 -0.8055
  339SOL    HW2 1017   0.046   0.928   2.456 -0.1833 -1.8408 -1.3452
  340SOL     OW 1018   1.618   2.754   1.183  0.1565 -0.2528  0.4740
  340SOL    HW1 1019   1.717   2.780   1.199  0.5581 -0.0774 -1.4698
  340SOL    HW2 1020   1.617   2.698   1.100 -0.2651 -0.5150  3.8073
  341SOL     OW 1021   1.753   1.745   0.957 -0.1369 -0.5063  0.1148
  341SOL    HW1 1022   1.838   1.754   0.898  0.9819 -1.9172 -2.7073
  341SOL    HW2 1023   1.738   1.811   1.036  1.8906  1.4447 -0.9154
  342SOL     OW 1024   0.578   1.413   0.899  0.6423 -0.7923  0.4366
  342SOL    HW1 1025   0.537   1.498   0.854  0.3479  1.2611 -0.0652
  342SOL    HW2 1026   0.602   1.341   0.837 -3.4821 -0.6770  0.3539
  343SOL     OW 1027   2.334   0.486   1.468 -1.0759  0.2578 -0.2416
  343SOL    HW1 1028   2.386   0.563   1.514  1.6778 -3.6005  0.5108
  343SOL    HW2 1029   2.234   0.502   1.467  2.2550 -0.3591  1.1949
  344SOL     OW 1030   2.275   2.368   0.792  0.0601 -0.1205  0.1786
  344SOL    HW1 1031   2.257   2.319   0.879  0.9379 -0.3991  2.5992
  344SOL    HW2 1032   2.339   2.314   0.733  1.1587 -0.3222 -2.2472
  345SOL     OW 1033   0.010   2.620   2.711  0.0483  0.6988 -0.5966
  345SOL    HW1 1034   3.043   2.584   2.626 -2.2255 -0.1617  3.4633
  345SOL    HW2 1035   0.074   2.562   2.759 -3.2436 -1.3674 -1.6114
  346SOL     OW 1036   0.056   1.129   0.720  0.0205 -0.0224 -0.2744
  346SOL    HW1 1037   0.048   1.198   0.794  0.7024  1.0984 -1.2187
  346SOL    HW2 1038   0.030   1.170   0.630 -1.0565  2.7610 -1.5777
  347SOL     OW 1039   1.884   2.783   1.199 -0.2403  0.1095 -0.0655
  347SOL    HW1 1040   1.882   2.769   1.300 -0.3638  0.8769 -1.1978
  347SOL    HW2 1041   1.939   2.710   1.156 -0.5947 -1.1533  2.3530
  348SOL     OW 1042   1.459   1.468   2.226 -0.5365 -0.2992 -0.0250
  348SOL    HW1 1043   1.396   1.387   2.223  0.1325  1.2547 -1.0436
  348SOL    HW2 1044   1.464   1.512   2.136  1.1489  0.9148  1.6041
  349SOL     OW 1045   2.341   1.139   2.085 -0.1861 -0.0495  0.6497
  349SOL    HW1 1046   2.288   1.071   2.143  0.7244 -0.4493 -0.2248
  349SOL    HW2 1047   2.307   1.231   2.080 -0.9037 -1.2788 -0.0401
  350SOL     OW 1048   0.005   2.032   1.017 -0.4700  0.3159  0.0334
  350SOL    HW1 1049   0.061   1.951   1.036 -2.6991  1.9734  1.2827
  350SOL    HW2 1050   0.055   2.090   0.955  0.6548  0.3419  1.9567
  351SOL     OW 1051   0.735   0.275   2.346 -0.4840  0.1463 -0.3644
  351SOL    HW1 1052   0.827   0.306   2.380  0.8398 -0.1383  1.1230
  351SOL    HW2 1053   0.709   0.328   2.262  0.3985  0.4182  1.4570
  352SOL     OW 1054   0.687   2.856   1.733 -0.1040 -0.3338  0.5293
  352SOL    HW1 1055   0.607   2.882   1.790 -0.2027 -0.5790  2.5197
  352SOL    HW2 1056   0.710   2.931   1.666 -2.1025  1.0664  3.9962
  353SOL     OW 1057   0.556   1.448   2.093  0.9190  0.0246 -0.2177
  353SOL    HW1 1058   0.545   1.360   2.142  0.5104 -0.3035  0.5968
  353SOL    HW2 1059   0.542   1.525   2.163  1.3200  1.6086 -0.9822
  354SOL     OW 1060   1.921   1.389   0.539  0.0766 -0.0757  0.0501
  354SOL    HW1 1061   1.825   1.402   0.578 -2.0673  0.5383 -0.5072
  354SOL    HW2 1062   1.919   1.322   0.460 -0.6405  1.9334  0.1559
  355SOL     OW 1063   2.464   0.026   0.704 -0.3492  0.3434  0.2131
  355SOL    HW1 1064   2.523   3.024   0.666 -0.9249 -0.4759  0.7317
  355SOL    HW2 1065   2.514   0.079   0.774 -1.6993 -1.5354 -1.6075
  356SOL     OW 1066   0.012   1.146   2.644 -0.0363  0.1676 -0.2208
  356SOL    HW1 1067   3.065   1.213   2.570  1.2151  1.0510  1.7556
  356SOL    HW2 1068   0.115   1.145   2.649  1.7278 -1.4559 -0.6977
  357SOL     OW 1069   0.299   2.839   1.671 -0.6184 -0.1544 -0.0904
  357SOL    HW1 1070   0.222   2.778   1.708 -1.1687 -1.2845  0.2239
  357SOL    HW2 1071   0.287   2.850   1.574  0.6097  2.0977  4.0418
  358SOL     OW 1072   3.055   1.382   2.491 -0.0264 -0.1546 -0.1484
  358SOL    HW1 1073   0.062   1.370   2.438 -0.7688  0.7076  1.0518
  358SOL    HW2 1074   3.030   1.478   2.489  1.1563 -4.9687 -2.1685
  359SOL     OW 1075   2.537   2.441   2.794 -0.1705 -0.2850 -0.2821
  359SOL    HW1 1076   2.634   2.422   2.830  3.1533  1.9774 -0.5200
  359SOL    HW2 1077   2.458   2.452   2.863 -4.0437 -1.0301  1.3794
  360SOL     OW 1078   1.476   1.320   1.109  0.2917  0.3183 -0.0297
  360SOL    HW1 1079   1.481   1.221   1.073 -0.4189 -3.1292 -2.8746
  360SOL    HW2 1080   1.524   1.391   1.053 -0.6891  1.1342  2.2964
  361SOL     OW 1081   2.081   2.440   1.265  0.5325 -0.2002 -0.3099
  361SOL    HW1 1082   2.164   2.394   1.234 -0.3264  1.4648 -2.0005
  361SOL    HW2 1083   2.061   2.504   1.186 -0.6897  1.5193 -0.9935
  362SOL     OW 1084   1.508   1.624   0.920 -0.7487 -0.3847 -0.4191
  362SOL    HW1 1085   1.609   1.637   0.936  3.0033 -0.1273 -0.6203
  362SOL    HW2 1086   1.486   1.591   0.827 -1.7246  1.0712  3.9322
  363SOL     OW 1087   2.831   2.035   0.135  0.2768 -0.3951 -0.6319
  363SOL    HW1 1088   2.864   2.127   0.108 -0.7812 -0.5132 -1.1785
  363SOL    HW2 1089   2.857   2.027   0.233  2.2738  0.1710  1.9841
  364SOL     OW 1090   2.321   0.344   1.708 -0.7614 -0.3804 -0.2271
  364SOL    HW1 1091   2.342   0.385   1.619 -1.3205  1.3551 -2.5046
  364SOL    HW2 1092   2.243   0.281   1.701 -1.1232 -0.4807 -0.8761
  365SOL     OW 1093   2.837   2.564   1.540  0.3758  0.3524  0.7135
  365SOL    HW1 1094   2.839   2.535   1.639 -0.0583 -0.7905  0.4428
  365SOL    HW2 1095   2.917   2.530   1.489 -1.7363  0.2388  1.7016
  366SOL     OW 1096   2.900   1.203   0.135  0.0178 -0.2218  0.1842
  366SOL    HW1 1097   2.900   1.201   0.034  0.0590  1.1479  2.5899
  366SOL    HW2 1098   2.925   1.110   0.169 -0.2826 -1.2023  3.8646
  367SOL     OW 1099   2.292   2.489   2.931 -0.0474 -0.1191 -0.0821
  367SOL    HW1 1100   2.242   2.567   2.885 -0.8375  1.4380 -1.4717
  367SOL    HW2 1101   2.342   2.513   3.017 -0.5447 -0.5999  0.7122
  368SOL     OW 1102   0.082   1.915   1.505  0.4914 -0.2226 -0.0175
  368SOL    HW1 1103   0.139   1.997   1.523 -1.2065 -0.6917 -0.0274
  368SOL    HW2 1104   0.025   1.925   1.421 -0.2111 -3.6712 -1.0169
  369SOL     OW 1105   0.477   0.187   0.736 -0.0406  0.3435 -0.1780
  369SOL    HW1 1106   0.463   0.241   0.822 -1.0274  1.5502 -0.7032
  369SOL    HW2 1107   0.431   0.234   0.654  1.6708  1.7964 -3.8117
  370SOL     OW 1108   0.821   0.415   0.952  0.3189  0.1147 -0.3741
  370SOL    HW1 1109   0.734   0.466   0.967 -1.4451  1.4317  0.9317
  370SOL    HW2 1110   0.879   0.461   0.888  0.0704  1.7715  0.4919
  371SOL     OW 1111   2.386   1.733   0.226  0.0873  0.0325 -0.4174
  371SOL    HW1 1112   2.486   1.742   0.239 -1.0926 -1.4787 -2.6568
  371SOL    HW2 1113   2.371   1.697   0.128  0.7594 -2.4789 -2.0845
  372SOL     OW 1114   0.293   1.038   2.665 -0.0461 -0.1909 -0.4815
  372SOL    HW1 1115   0.356   1.008   2.742  0.4190 -1.7832  3.3364
  372SOL    HW2 1116   0.332   1.115   2.611  1.4236  2.2341 -1.7195
  373SOL     OW 1117   2.999   0.898   0.479  0.4260  0.2603 -0.1259
  373SOL    HW1 1118   2.996   0.999   0.486 -0.0806 -1.1148 -1.6639
  373SOL    HW2 1119   2.918   0.851   0.525  0.5852 -0.0029  0.1736
  374SOL     OW 1120   0.675   2.337   2.858 -0.2222 -0.2636  0.1719
  374SOL    HW1 1121   0.748   2.402   2.891  1.6594  1.6079  1.0447
  374SOL    HW2 1122   0.628   2.359   2.769  1.4244 -1.4086  0.0530
  375SOL     OW 1123   1.202   0.383   0.114  0.3788  0.1508  0.2171
  375SOL    HW1 1124   1.137   0.446   0.061 -1.0836 -0.3859 -0.6221
  375SOL    HW2 1125   1.167   0.367   0.209  1.5676 -0.6595  1.3708
  376SOL     OW 1126   3.045   2.871   1.870 -0.1979 -0.0234  0.6472
  376SOL    HW1 1127   3.054   2.860   1.968 -1.2390 -0.8647 -1.0397
  376SOL    HW2 1128   3.068   2.784   1.824 -1.9054  0.2557 -1.6903
  377SOL     OW 1129   0.073   2.260   2.709  0.2029  0.4292  0.8837
  377SOL    HW1 1130   0.150   2.321   2.685 -1.7392 -0.7384  0.0464
  377SOL    HW2 1131   0.100   2.165   2.733 -0.7977  1.8425  2.2487
  378SOL     OW 1132   1.551   0.875   0.578 -0.0736 -0.7344  0.3339
  378SOL    HW1 1133   1.491   0.953   0.600 -1.2294 -0.4990  1.2164
  378SOL    HW2 1134   1.642   0.895   0.618  0.1709  2.2187 -2.6516
  379SOL     OW 1135   1.401   1.136   0.425  0.0697  0.1643 -0.6176
  379SOL    HW1 1136   1.335   1.179   0.363 -1.2889 -1.0113 -1.3369
  379SOL    HW2 1137   1.385   1.176   0.519  0.7839 -0.6062  0.7524
  380SOL     OW 1138   2.191   2.320   1.970  0.4565  0.0543  0.0844
  380SOL    HW1 1139   2.201   2.387   2.047  2.0251 -3.1081  0.5909
  380SOL    HW2 1140   2.133   2.242   2.002 -3.1380 -3.0330  0.4655
  381SOL     OW 1141   0.224   1.081   2.075  0.0616  0.5013  0.6493
  381SOL    HW1 1142   0.136   1.130   2.070 -0.8422 -0.2401 -0.3310
  381SOL    HW2 1143   0.222   1.012   2.149  0.0831  0.8321 -2.2778
  382SOL     OW 1144   2.859   2.281   3.055 -0.5614  0.5946 -1.0382
  382SOL    HW1 1145   2.842   2.318   2.966 -0.6160 -3.7771 -1.8267
  382SOL    HW2 1146   2.810   2.333   0.051  1.5793 -1.2928 -1.3265
  383SOL     OW 1147   1.553   1.125   2.025  0.2483 -0.2197 -0.6092
  383SOL    HW1 1148   1.530   1.054   1.959 -3.6959 -2.2277 -0.0188
  383SOL    HW2 1149   1.632   1.187   1.995  0.2512 -1.3883  1.7381
  384SOL     OW 1150   0.794   2.195   2.519 -0.8076  0.1772 -0.2610
  384SOL    HW1 1151   0.804   2.188   2.421 -0.7053 -0.0280 -0.0178
  384SOL    HW2 1152   0.838   2.115   2.565  0.7110  0.9876 -0.7278
  385SOL     OW 1153   2.825   2.009   0.659 -0.0295 -0.3054 -0.2065
  385SOL    HW1 1154   2.736   2.015   0.616  1.8484  0.5759  0.8175
  385SOL    HW2 1155   2.813   2.020   0.756  0.0490  1.0016 -1.4264
  386SOL     OW 1156   1.237   1.017   0.129  0.1318  0.6680  0.2271
  386SOL    HW1 1157   1.266   1.117   0.130  2.7031 -1.9886 -3.4777
  386SOL    HW2 1158   1.309   0.958   0.169 -1.0720 -0.4178 -1.4854
  387SOL     OW 1159   0.012   0.435   1.617 -0.3705  0.2263 -0.4849
  387SOL    HW1 1160   0.066   0.451   1.534  1.8190 -2.2562 -0.0837
  387SOL    HW2 1161   0.019   0.335   1.637 -1.3235 -0.6736 -2.0094
  388SOL     OW 1162   2.641   0.829   1.221 -0.3255 -0.7136  0.2621
  388SOL    HW1 1163   2.689   0.895   1.158 -1.6473  0.8072  1.2137
  388SOL    HW2 1164   2.679   0.735   1.218 -0.5287 -1.1594 -0.7483
  389SOL     OW 1165   1.663   1.301   2.587  0.1523 -1.2087 -0.1022
  389SOL    HW1 1166   1.580   1.238   2.567 -4.0125 -1.8389 -0.9997
  389SOL    HW2 1167   1.618   1.389   2.608 -3.4535 -0.7252  0.2666
  390SOL     OW 1168   2.021   2.216   0.306 -0.1187 -0.4103  0.0653
  390SOL    HW1 1169   1.959   2.293   0.331 -1.3236  1.2080 -0.8350
  390SOL    HW2 1170   2.025   2.199   0.204  2.9191 -0.7484  1.9751
  391SOL     OW 1171   1.330   2.256   1.053  0.9144 -0.2729 -0.3211
  391SOL    HW1 1172   1.330   2.267   0.954 -0.8593 -1.0559  0.6924
  391SOL    HW2 1173   1.234   2.278   1.092 -0.7868 -1.2456  0.0634
  392SOL     OW 1174   2.545   2.551   1.545  0.0763 -0.1992  0.4308
  392SOL    HW1 1175   2.644   2.573   1.543  2.5711  4.4075 -0.0575
  392SOL    HW2 1176   2.490   2.629   1.503 -2.4594  1.5036 -2.2261
  393SOL     OW 1177   1.740   2.437   2.244  0.1341  0.0813  0.3180
  393SOL    HW1 1178   1.678   2.377   2.192  0.9921  0.2308  0.3325
  393SOL    HW2 1179   1.686   2.487   2.315  1.1122  1.0234 -1.8886
  394SOL     OW 1180   0.155   2.856   2.361 -0.2168  0.1532 -0.4719
  394SOL    HW1 1181   0.247   2.899   2.358 -1.8818  2.2143  1.3140
  394SOL    HW2 1182   0.100   2.915   2.426  2.4409 -2.2208  1.8506
  395SOL     OW 1183   0.538   1.058   1.312 -0.1247 -0.6970 -0.1286
  395SOL    HW1 1184   0.441   1.025   1.323 -1.4794 -1.0621  0.6840
  395SOL    HW2 1185   0.546   1.118   1.229  0.5680  0.9967 -0.7975
  396SOL     OW 1186   1.878   1.179   2.395  0.3092  0.1857 -0.0941
  396SOL    HW1 1187   1.804   1.190   2.465 -1.3055 -0.3198  1.5896
  396SOL    HW2 1188   1.974   1.159   2.436  2.8544  0.1693 -0.7608
  397SOL     OW 1189   2.678   0.414   2.816 -0.2345 -0.0571 -0.3089
  397SOL    HW1 1190   2.765   0.456   2.857  3.1939 -1.1912  2.3066
  397SOL    HW2 1191   2.698   0.410   2.717  2.1354  0.8129  1.1235
  398SOL     OW 1192   1.781   2.848   0.559 -0.0559 -0.9049  0.7153
  398SOL    HW1 1193   1.848   2.807   0.501 -2.1186 -0.7590  1.1916
  398SOL    HW2 1194   1.810   2.944   0.578 -0.9796  0.7769 -0.1666
  399SOL     OW 1195   2.339   2.699   2.017  0.5025 -0.4326  0.0499
  399SOL    HW1 1196   2.310   2.634   2.093 -1.3550 -1.9613  2.6041
  399SOL    HW2 1197   2.419   2.749   2.050  0.7715  0.5027  1.9363
  400SOL     OW 1198   2.910   2.193   2.231  0.0274 -0.0238 -0.2504
  400SOL    HW1 1199   2.867   2.111   2.201  0.5546  1.0660  0.3234
  400SOL    HW2 1200   3.010   2.185   2.252  0.7707  1.6810  0.3347
  401SOL     OW 1201   0.478   0.485   0.510  0.1756  0.0165 -0.4157
  401SOL    HW1 1202   0.430   0.395   0.488 -3.8871 -0.2358 -2.5057
  401SOL    HW2 1203   0.431   0.519   0.597 -1.0563  1.5995  2.1217
  402SOL     OW 1204   0.770   2.767   2.010 -0.1736 -0.1039  0.2574
  402SOL    HW1 1205   0.867   2.789   2.034  3.1345 -1.3358  0.4756
  402SOL    HW2 1206   0.712   2.852   2.018 -1.8088  0.7018  2.9857
  403SOL     OW 1207   0.288   1.361   1.924 -0.2203 -0.3463 -0.0649
  403SOL    HW1 1208   0.366   1.351   1.863 -1.7685 -0.4373  0.8465
  403SOL    HW2 1209   0.281   1.271   1.974  0.3811 -1.9754  1.5932
  404SOL     OW 1210   2.735   2.396   2.340 -0.3557 -0.4289  0.6410
  404SOL    HW1 1211   2.785   2.334   2.278 -2.9118  1.3321  1.3755
  404SOL    HW2 1212   2.661   2.339   2.379  2.0528 -2.1555 -0.4888
  405SOL     OW 1213   2.488   0.200   2.716 -0.0829 -0.3892 -0.2263
  405SOL    HW1 1214   2.509   0.293   2.737  1.0723 -3.4599 -1.9019
  405SOL    HW2 1215   2.574   0.144   2.714  0.3788  0.8235  0.7496
  406SOL     OW 1216   1.600   2.329   0.447  0.4964 -1.0358  0.5571
  406SOL    HW1 1217   1.499   2.338   0.458  2.3129  1.7653 -0.1537
  406SOL    HW2 1218   1.633   2.230   0.441  2.0325 -1.7566  0.3841
  407SOL     OW 1219   1.747   1.396   0.135 -0.2617 -0.3038  0.2450
  407SOL    HW1 1220   1.752   1.498   0.131 -0.3977  0.1922  0.8712
  407SOL    HW2 1221   1.707   1.367   0.227 -2.2378 -0.6282 -2.5688
  408SOL     OW 1222   0.194   0.879   2.226  0.1386  0.3811 -0.3960
  408SOL    HW1 1223   0.151   0.793   2.197  0.7179  0.3024 -0.6722
  408SOL    HW2 1224   0.235   0.870   2.321  0.6430  0.2168 -1.2018
  409SOL     OW 1225   2.682   1.445   3.005 -0.6155  0.1897 -0.5659
  409SOL    HW1 1226   2.780   1.471   2.979 -2.7735 -0.9563  0.1540
  409SOL    HW2 1227   2.660   1.350   2.970 -2.5363  1.6881 -1.5359
  410SOL     OW 1228   2.882   1.422   1.276 -0.4350  0.5444 -0.1254
  410SOL    HW1 1229   2.873   1.489   1.198  0.3034 -0.4124 -2.3561
  410SOL    HW2 1230   2.934   1.455   1.357 -1.4343 -0.2939  1.4731
  411SOL     OW 1231   2.949   0.599   0.502  0.8911  0.1097 -0.4306
  411SOL    HW1 1232   2.924   0.519   0.444  1.6347 -0.7694  0.1151
  411SOL    HW2 1233   2.865   0.643   0.544  0.2553 -1.8582 -0.3902
  412SOL     OW 1234   1.636   0.064   0.409  0.4211 -0.3406  0.6328
  412SOL    HW1 1235   1.725   0.053   0.449 -2.8708  1.1293  1.2732
  412SOL    HW2 1236   1.586   3.046   0.407 -0.5456 -2.0183 -1.7746
  413SOL     OW 1237   1.318   0.331   1.843  0.0359  0.1785 -0.3656
  413SOL    HW1 1238   1.324   0.367   1.937 -1.5502 -1.9325  1.1110
  413SOL    HW2 1239   1.396   0.266   1.822  1.4144 -2.1785  1.4306
  414SOL     OW 1240   0.382   1.041   0.107 -0.8242  0.2232 -0.1248
  414SOL    HW1 1241   0.401   0.948   0.086  1.5406  3.5774 -1.0072
  414SOL    HW2 1242   0.284   1.072   0.092  0.7634  1.8126  0.0614
  415SOL     OW 1243   3.041   1.175   0.469 -0.2632  0.2631  0.2544
  415SOL    HW1 1244   2.946   1.207   0.441 -2.3242  0.3151  0.5561
  415SOL    HW2 1245   0.034   1.237   0.435  0.2033 -2.6588 -0.9137
  416SOL     OW 1246   2.204   0.757   0.266  0.0718 -0.0568 -0.1618
  416SOL    HW1 1247   2.229   0.776   0.166  1.6720 -0.7621 -0.0040
  416SOL    HW2 1248   2.263   0.818   0.323  1.0929  1.0630  0.1255
  417SOL     OW 1249   2.673   2.633   0.085  0.2899 -0.4709  0.3278
  417SOL    HW1 1250   2.764   2.677   0.073  2.7897  1.4837  1.1125
  417SOL    HW2 1251   2.688   2.538   0.118 -1.3364 -4.5045  1.1795
  418SOL     OW 1252   2.772   0.691   0.128 -0.2705 -0.0334 -0.6191
  418SOL    HW1 1253   2.741   0.643   0.214 -0.5062 -1.4586 -1.4774
  418SOL    HW2 1254   2.691   0.693   0.069  2.8499 -1.4168 -1.1633
  419SOL     OW 1255   0.769   0.393   0.522 -0.4987 -0.0942  0.9879
  419SOL    HW1 1256   0.681   0.441   0.548 -1.5129  0.7905  0.6487
  419SOL    HW2 1257   0.783   0.305   0.571 -1.3377 -2.8264 -0.8077
  420SOL     OW 1258   0.485   0.970   0.737  0.3660  0.3501 -0.5167
  420SOL    HW1 1259   0.387   0.947   0.729  1.5988 -1.6286 -1.9584
  420SOL    HW2 1260   0.501   0.950   0.833 -1.1301  2.0957 -2.6303
  421SOL     OW 1261   0.304   1.860   0.538 -0.1213  0.1797  0.0918
  421SOL    HW1 1262   0.395   1.908   0.541  1.7850  0.9160 -0.0649
  421SOL    HW2 1263   0.232   1.911   0.583  1.4125 -0.7027 -1.3460
  422SOL     OW 1264   2.783   0.294   1.690 -0.4220 -0.0263  0.4584
  422SOL    HW1 1265   2.837   0.225   1.739 -1.5281 -0.1556  0.2271
  422SOL    HW2 1266   2.790   0.281   1.591  2.7501 -1.5149 -2.7861
  423SOL     OW 1267   2.070   1.847   0.124 -0.0601  0.3154  0.1287
  423SOL    HW1 1268   2.143   1.891   0.178 -1.7723 -2.9051  0.8776
  423SOL    HW2 1269   2.107   1.810   0.037 -0.1721  1.4283 -0.4485
  424SOL     OW 1270   1.635   1.499   2.779 -0.1203  0.6513  0.6647
  424SOL    HW1 1271   1.691   1.582   2.768 -1.4493 -0.1976  0.4192
  424SOL    HW2 1272   1.692   1.415   2.806  0.8028 -0.7327 -0.7625
  425SOL     OW 1273   0.375   2.851   2.090 -0.1469  0.5878  0.3470
  425SOL    HW1 1274   0.305   2.785   2.050 -0.3360 -0.6264 -2.0530
  425SOL    HW2 1275   0.423   2.882   2.008 -1.6784  1.3751  0.0462
  426SOL     OW 1276   2.291   2.806   3.058 -0.0092  0.3184  0.2012
  426SOL    HW1 1277   2.199   2.762   3.068 -3.0614  0.1075 -0.5515
  426SOL    HW2 1278   2.298   2.835   2.961  0.5239 -1.7390  0.9620
  427SOL     OW 1279   0.493   1.671   2.238 -0.1067  0.7702 -0.0944
  427SOL    HW1 1280   0.560   1.742   2.210  2.0330  0.3538  1.3728
  427SOL    HW2 1281   0.470   1.678   2.335  0.5754  0.0242 -0.3616
  428SOL     OW 1282   2.229   1.400   2.490  0.1168 -0.1858 -0.3332
  428SOL    HW1 1283   2.180   1.440   2.413  1.7476 -2.5623  1.0021
  428SOL    HW2 1284   2.196   1.305   2.501  2.9165 -0.3889 -0.2785
  429SOL     OW 1285   2.632   2.927   0.577 -0.4368 -0.2653 -0.4311
  429SOL    HW1 1286   2.714   2.976   0.536  0.0824 -1.0555 -3.8464
  429SOL    HW2 1287   2.585   2.872   0.505 -1.5040 -0.6981 -0.7171
  430SOL     OW 1288   1.749   1.922   2.102  0.2225 -0.3574 -0.0511
  430SOL    HW1 1289   1.737   1.824   2.077 -0.8917 -2.0540 -0.4696
  430SOL    HW2 1290   1.811   1.963   2.031  3.0457 -1.0991 -2.6010
  431SOL     OW 1291   3.010   1.952   1.910 -0.5161 -0.1490  0.0827
  431SOL    HW1 1292   3.000   2.051   1.902  1.0715 -2.3145 -2.1582
  431SOL    HW2 1293   2.951   1.908   1.835 -0.1627 -0.9290 -0.8536
  432SOL     OW 1294   1.084   2.141   2.178  0.3491  0.1015  0.2004
  432SOL    HW1 1295   1.053   2.124   2.082  0.9049 -0.2445  0.9933
  432SOL    HW2 1296   1.001   2.142   2.241  0.0368  0.5721 -2.5468
  433SOL     OW 1297   1.114   2.755   0.917  0.6237  0.4114  0.2268
  433SOL    HW1 1298   1.077   2.821   0.851  0.7788  1.6484 -0.7406
  433SOL    HW2 1299   1.211   2.775   0.935 -4.7418 -1.1125  1.2672
  434SOL     OW 1300   0.115   2.183   2.278  0.0081 -0.0583  1.0296
  434SOL    HW1 1301   0.146   2.256   2.220 -3.4120 -1.3886  4.0950
  434SOL    HW2 1302   0.191   2.123   2.305  1.4603 -0.4908  0.1666
  435SOL     OW 1303   0.275   1.123   0.512 -0.4215 -0.2562  0.0287
  435SOL    HW1 1304   0.358   1.087   0.466  1.7486 -0.6286 -0.5424
  435SOL    HW2 1305   0.238   1.203   0.459 -0.9883  1.2993 -0.7243
  436SOL     OW 1306   0.581   2.027   1.835 -0.5595 -0.2950 -0.1468
  436SOL    HW1 1307   0.639   1.979   1.771 -4.3320 -2.0644 -1.1993
  436SOL    HW2 1308   0.521   2.088   1.781 -0.1026 -0.6025  2.6144
  437SOL     OW 1309   1.153   0.514   0.431  0.1753  0.1700 -0.2917
  437SOL    HW1 1310   1.099   0.430   0.415 -2.5288 -1.8984  0.5068
  437SOL    HW2 1311   1.119   0.578   0.361  0.5948 -1.6059  1.1602
  438SOL     OW 1312   0.868   1.824   0.775  0.2694  0.3916 -0.1371
  438SOL    HW1 1313   0.800   1.750   0.751 -1.4444 -2.0155 -0.8202
  438SOL    HW2 1314   0.960   1.786   0.743  2.8413  2.0134  0.9737
  439SOL     OW 1315   1.358   2.014   1.943 -0.2858 -0.0614 -0.5329
  439SOL    HW1 1316   1.455   2.021   1.919 -0.3778 -3.1422  0.2112
  439SOL    HW2 1317   1.338   1.946   2.013  0.1826  1.6728 -1.0352
  440SOL     OW 1318   1.597   0.135   1.288  0.1689  0.3405  0.3274
  440SOL    HW1 1319   1.574   0.110   1.382 -2.5667 -1.9884 -2.1404
  440SOL    HW2 1320   1.659   0.214   1.285 -2.0079 -1.7401  0.8731
  441SOL     OW 1321   0.401   0.071   1.218  0.3019 -0.8217 -0.0771
  441SOL    HW1 1322   0.430   0.171   1.227  0.9619  2.0479 -0.0899
  441SOL    HW2 1323   0.447   0.007   1.281 -0.4629 -0.9840 -1.0975
  442SOL     OW 1324   2.287   2.005   0.588  0.5414  0.0273  0.1763
  442SOL    HW1 1325   2.196   1.959   0.581 -0.2707 -1.7009 -2.2073
  442SOL    HW2 1326   2.283   2.085   0.527  0.0524 -1.7052  2.2897
  443SOL     OW 1327   2.649   0.320   2.267 -0.1537  0.2725  0.0054
  443SOL    HW1 1328   2.573   0.392   2.260 -0.9057  1.1832  2.7895
  443SOL    HW2 1329   2.720   0.331   2.203 -0.3424 -1.6056  0.9118
  444SOL     OW 1330   1.842   1.346   2.194  0.5678 -0.2418  0.1482
  444SOL    HW1 1331   1.782   1.416   2.240  1.5723 -0.4507  0.7886
  444SOL    HW2 1332   1.866   1.278   2.266 -1.3027 -0.3850  1.0232
  445SOL     OW 1333   2.632   2.019   1.625  0.5214 -0.1880 -0.3196
  445SOL    HW1 1334   2.554   2.047   1.687 -0.0484 -1.0603  1.8864
  445SOL    HW2 1335   2.721   2.042   1.668 -1.0142 -1.0691 -1.6885
  446SOL     OW 1336   0.217   0.909   0.729 -0.1436 -0.1684  0.0813
  446SOL    HW1 1337   0.195   0.825   0.674  1.1375 -0.0919  0.8671
  446SOL    HW2 1338   0.158   0.986   0.697 -3.6258  0.5165 -0.5561
  447SOL     OW 1339   0.702   1.626   0.715  0.0139 -0.3165  0.0709
  447SOL    HW1 1340   0.728   1.532   0.682 -1.7083 -0.9641 -2.2578
  447SOL    HW2 1341   0.609   1.654   0.674 -2.5732 -0.1078 -1.1668
  448SOL     OW 1342   1.103   1.088   1.926  0.1210  0.7767  0.7566
  448SOL    HW1 1343   1.123   1.158   1.852  0.7967  3.7720 -1.0237
  448SOL    HW2 1344   1.159   1.000   1.906  0.7116 -0.9628 -3.0812
  449SOL     OW 1345   0.211   1.627   0.023 -0.4379 -0.0443  0.9506
  449SOL    HW1 1346   0.208   1.605   2.996 -0.3999 -1.0545 -3.7857
  449SOL    HW2 1347   0.140   1.684   0.062  0.9755  0.7194 -2.7531
  450SOL     OW 1348   2.520   2.329   2.012  0.5463  0.2097 -0.1314
  450SOL    HW1 1349   2.516   2.380   1.919 -0.4523  1.7105 -0.5189
  450SOL    HW2 1350   2.522   2.394   2.093 -0.3137  2.8052  1.2285
  451SOL     OW 1351   2.159   0.379   2.191 -0.0117  0.3659 -0.7780
  451SOL    HW1 1352   2.149   0.274   2.190  2.4356 -1.8934 -2.6304
  451SOL    HW2 1353   2.109   0.416   2.110  0.2049  0.2268  3.9745
  452SOL     OW 1354   0.730   2.793   1.161  0.1753 -0.2393 -0.1335
  452SOL    HW1 1355   0.760   2.732   1.084 -1.4985  0.7767 -5.3441
  452SOL    HW2 1356   0.807   2.844   1.200 -1.2383 -1.4400 -0.1029
  453SOL     OW 1357   1.208   1.323   1.007  0.1027 -0.2557  0.7271
  453SOL    HW1 1358   1.307   1.328   1.040  2.6743 -0.3107  0.8208
  453SOL    HW2 1359   1.166   1.414   0.993 -1.8262 -0.2460  0.0490
  454SOL     OW 1360   0.232   1.094   1.168 -0.8579 -0.2944  0.5977
  454SOL    HW1 1361   0.202   1.182   1.204  0.2124  1.3145 -0.2539
  454SOL    HW2 1362   0.272   1.101   1.070 -0.8295  1.3469 -1.1088
  455SOL     OW 1363   3.022   2.806   0.305  0.6502  0.6733 -0.3569
  455SOL    HW1 1364   3.012   2.787   0.207 -2.5358 -1.2076 -0.4393
  455SOL    HW2 1365   0.016   2.875   0.315 -2.7496 -4.7154  1.5730
  456SOL     OW 1366   2.574   2.227   0.684 -0.9887 -0.0395  0.0406
  456SOL    HW1 1367   2.538   2.172   0.757  0.8187  2.3145 -2.0649
  456SOL    HW2 1368   2.600   2.177   0.600  3.2268  0.3184  1.3927
  457SOL     OW 1369   1.252   0.191   3.021  0.3546 -0.0705 -0.1481
  457SOL    HW1 1370   1.233   0.117   0.018  0.7997  3.3614  1.4914
  457SOL    HW2 1371   1.239   0.282   3.071  1.5137  0.6736  1.2494
  458SOL     OW 1372   2.918   2.646   0.485 -0.5105 -0.1199 -0.0383
  458SOL    HW1 1373   2.971   2.698   0.412 -1.1692 -0.1257 -3.8257
  458SOL    HW2 1374   2.816   2.650   0.460  0.5020  1.7278 -1.1693
  459SOL     OW 1375   2.407   0.460   2.278 -0.4512  0.8225 -0.0409
  459SOL    HW1 1376   2.409   0.463   2.379 -1.3005 -0.9325 -1.4865
  459SOL    HW2 1377   2.326   0.404   2.243 -0.9471 -2.8452 -1.1926
  460SOL     OW 1378   0.032   0.360   0.135 -0.3271  0.5683 -0.4410
  460SOL    HW1 1379   0.119   0.413   0.128 -2.2066 -0.0378  1.5691
  460SOL    HW2 1380   3.065   0.377   0.225  1.0025  0.5359 -0.4443
  461SOL     OW 1381   0.398   1.803   1.366 -0.0077  0.2956  0.0936
  461SOL    HW1 1382   0.453   1.797   1.458  0.0250  1.4316  0.8714
  461SOL    HW2 1383   0.434   1.738   1.298  1.2047 -2.1768 -0.7559
  462SOL     OW 1384   2.905   2.896   1.476 -0.2678  0.2678  0.0195
  462SOL    HW1 1385   2.978   2.963   1.495 -2.5748 -1.5223 -2.3643
  462SOL    HW2 1386   2.841   2.886   1.555 -1.8118  0.8811  2.3515
  463SOL     OW 1387   2.654   1.186   2.938  0.1027  0.4095  0.0624
  463SOL    HW1 1388   2.624   1.110   2.877 -1.5557  1.3588 -0.2394
  463SOL    HW2 1389   2.752   1.164   2.959  0.8686  1.8532 -1.9480
  464SOL     OW 1390   0.283   2.371   1.216  0.4640 -0.0572  0.6723
  464SOL    HW1 1391   0.352   2.297   1.198  3.1893 -3.1945 -0.1559
  464SOL    HW2 1392   0.323   2.448   1.270 -0.0900 -0.3412 -2.3204
  465SOL     OW 1393   0.397   0.612   0.760 -0.1788  0.0365  0.0447
  465SOL    HW1 1394   0.326   0.656   0.698 -3.1435 -2.4313 -1.5881
  465SOL    HW2 1395   0.407   0.665   0.846  0.8197  3.3266 -1.6517
  466SOL     OW 1396   1.204   3.032   2.174  0.7463  0.0929  0.2559
  466SOL    HW1 1397   1.304   3.007   2.147  3.6145 -0.1241  2.2104
  466SOL    HW2 1398   1.201   0.002   2.266 -1.7300 -0.0766  1.1362
  467SOL     OW 1399   0.725   0.441   2.108 -0.6396 -0.3367 -0.4026
  467SOL    HW1 1400   0.694   0.433   2.012  1.4085  0.5045  0.6783
  467SOL    HW2 1401   0.696   0.534   2.144  1.0973  1.9676  0.0903
  468SOL     OW 1402   0.403   1.238   2.205 -0.2767 -0.4139  0.6605
  468SOL    HW1 1403   0.333   1.189   2.147 -4.3352 -3.7666  0.5430
  468SOL    HW2 1404   0.362   1.303   2.274  0.7215  2.7934  1.6216
  469SOL     OW 1405   0.444   1.638   0.645  0.0738  0.0398 -0.3591
  469SOL    HW1 1406   0.387   1.713   0.606 -1.1831  1.1121 -0.4967
  469SOL    HW2 1407   0.412   1.550   0.605  0.8082  2.0210  0.1979
  470SOL     OW 1408   2.663   1.664   2.381 -0.0647 -0.2571  0.1740
  470SOL    HW1 1409   2.631   1.569   2.405  2.9183  0.0436  1.8778
  470SOL    HW2 1410   2.608   1.706   2.306  0.9233  1.1142  0.5217
  471SOL     OW 1411   1.574   0.581   2.484  0.5906  0.3342 -0.5246
  471SOL    HW1 1412   1.664   0.540   2.466 -0.2104 -1.1001  2.0266
  471SOL    HW2 1413   1.532   0.527   2.565  2.4003 -1.0089  3.2108
  472SOL     OW 1414   0.707   2.605   1.610 -0.0567 -0.1426 -0.1240
  472SOL    HW1 1415   0.785   2.553   1.651 -0.2625 -0.6352  0.4470
  472SOL    HW2 1416   0.701   2.695   1.656  0.8008  1.9456 -1.2705
  473SOL     OW 1417   0.307   0.233   2.402 -0.2456  0.2470  0.1535
  473SOL    HW1 1418   0.398   0.257   2.439  0.4589 -1.1921  0.1550
  473SOL    HW2 1419   0.301   0.137   2.366  1.4854 -4.0928 -0.8928
  474SOL     OW 1420   1.964   0.025   1.140  0.1902  0.4187 -0.2764
  474SOL    HW1 1421   1.945   0.124   1.145  2.0207 -1.4888 -1.7845
  474SOL    HW2 1422   1.906   3.059   1.068  1.3679  0.6039  2.3104
  475SOL     OW 1423   2.013   0.958   0.877  0.3285  0.1402 -0.2718
  475SOL    HW1 1424   1.916   0.955   0.844 -2.3780  2.1815  0.7354
  475SOL    HW2 1425   2.023   1.036   0.939 -0.6080  2.2640  1.2654
  476SOL     OW 1426   0.634   0.949   1.022 -1.0579 -0.4310  0.1306
  476SOL    HW1 1427   0.606   1.041   1.060  2.5702  2.1148  0.2771
  476SOL    HW2 1428   0.740   0.942   1.017  2.3394 -1.0218  1.5851
  477SOL     OW 1429   1.355   2.357   0.485  0.2876  0.5337  0.4512
  477SOL    HW1 1430   1.279   2.310   0.437  0.6415  0.1160 -4.0508
  477SOL    HW2 1431   1.353   2.339   0.585 -0.3538 -2.2847  0.4828
  478SOL     OW 1432   0.266   2.405   2.567  0.1211  0.1145  0.0725
  478SOL    HW1 1433   0.256   2.476   2.493  0.7930 -0.0348  0.3557
  478SOL    HW2 1434   0.309   2.321   2.520  1.6704 -0.8581 -2.9802
  479SOL     OW 1435   2.522   0.314   1.400  0.2108 -0.0790  0.2991
  479SOL    HW1 1436   2.452   0.370   1.447  0.2307  1.2609  1.2860
  479SOL    HW2 1437   2.532   0.342   1.301  2.7262 -0.9020 -2.4850
  480SOL     OW 1438   0.347   2.372   0.554  0.3187  0.0528  0.4465
  480SOL    HW1 1439   0.408   2.341   0.473 -0.9130 -2.6956 -0.0434
  480SOL    HW2 1440   0.249   2.371   0.518  2.4819 -1.8837 -1.7829
  481SOL     OW 1441   2.202   2.182   1.381 -0.5173 -0.4045  0.3385
  481SOL    HW1 1442   2.278   2.251   1.400  2.4162  0.3293 -0.7377
  481SOL    HW2 1443   2.122   2.209   1.440 -2.2627  2.6914  3.2619
  482SOL     OW 1444   1.326   2.657   2.745  0.1636  0.0041  0.6525
  482SOL    HW1 1445   1.379   2.577   2.786  1.5246 -2.6440 -0.0439
  482SOL    HW2 1446   1.393   2.733   2.722  0.9891 -1.7849  0.3070
  483SOL     OW 1447   0.788   2.279   1.784  0.2148 -0.1495  0.6101
  483SOL    HW1 1448   0.861   2.330   1.736  0.6933 -4.2303 -1.5847
  483SOL    HW2 1449   0.723   2.246   1.712 -1.4482  2.0541 -0.5212
  484SOL     OW 1450   1.281   0.356   1.479  0.1251 -0.0148  0.6480
  484SOL    HW1 1451   1.292   0.415   1.396 -0.2076  1.8937 -1.5370
  484SOL    HW2 1452   1.276   0.415   1.562  0.8608  1.6665  1.3319
  485SOL     OW 1453   1.519   0.821   2.637 -0.1017 -0.1454  0.5543
  485SOL    HW1 1454   1.602   0.877   2.612  2.0538 -0.1447  1.2478
  485SOL    HW2 1455   1.514   0.739   2.580 -0.1379 -0.0615 -1.0363
  486SOL     OW 1456   2.174   3.002   1.325 -0.5153 -0.0151  0.5588
  486SOL    HW1 1457   2.091   3.036   1.271 -1.0125 -0.6685  1.5895
  486SOL    HW2 1458   2.258   3.065   1.327  0.2910  1.9189  2.4560
  487SOL     OW 1459   0.733   2.184   1.035 -0.4674  0.1790  0.2959
  487SOL    HW1 1460   0.796   2.263   1.044 -0.5643  1.9750 -0.6747
  487SOL    HW2 1461   0.637   2.216   1.041 -0.7060 -0.2605  2.5618
  488SOL     OW 1462   2.470   2.082   3.066 -0.5787 -0.3055  0.0854
  488SOL    HW1 1463   2.396   2.133   3.015 -1.7658 -2.0060 -1.4107
  488SOL    HW2 1464   2.502   2.012   3.004  2.7371  1.8174 -1.5485
  489SOL     OW 1465   2.109   2.900   0.560  0.5613  0.5912 -0.1451
  489SOL    HW1 1466   2.154   2.814   0.524 -1.3227 -2.9327 -0.7448
  489SOL    HW2 1467   2.082   2.963   0.482 -1.3495  0.3364 -1.0747
  490SOL     OW 1468   0.768   1.520   0.001 -0.4022 -0.6793 -0.3438
  490SOL    HW1 1469   0.766   1.615   3.037 -2.3529  0.9906  0.1241
  490SOL    HW2 1470   0.797   1.527   0.098  0.3565  2.0927  2.3684
  491SOL     OW 1471   0.251   2.163   1.506 -0.4096  0.0179  0.0904
  491SOL    HW1 1472   0.200   2.247   1.532 -1.0986  0.6560  0.9542
  491SOL    HW2 1473   0.341   2.160   1.557  1.0141  0.7909  2.2225
  492SOL     OW 1474   0.734   1.446   1.704  0.0313 -0.2224 -0.1407
  492SOL    HW1 1475   0.818   1.391   1.690  3.6857  2.6120  0.4090
  492SOL    HW2 1476   0.654   1.402   1.654 -3.5163 -1.3341  3.1161
  493SOL     OW 1477   2.607   1.862   0.917 -0.3315  0.4042  0.2761
  493SOL    HW1 1478   2.674   1.807   0.867  0.7912 -0.3578  1.9693
  493SOL    HW2 1479   2.645   1.943   0.971  0.8316 -0.6696  1.6435
  494SOL     OW 1480   2.848   1.686   0.798 -0.5046 -0.2822 -0.1337
  494SOL    HW1 1481   2.799   1.704   0.708  2.4508  0.0428 -2.4743
  494SOL    HW2 1482   2.931   1.744   0.807 -0.5094 -0.8407  1.0926
  495SOL     OW 1483   2.467   2.804   0.387  0.0882 -0.3613  0.3522
  495SOL    HW1 1484   2.475   2.864   0.311 -0.0932  1.7491  3.6538
  495SOL    HW2 1485   2.373   2.790   0.423 -0.0035 -1.1325 -0.0972
  496SOL     OW 1486   2.368   0.087   1.384 -0.0250  0.1051 -0.2040
  496SOL    HW1 1487   2.445   0.027   1.420 -0.6758  0.7175  0.9591
  496SOL    HW2 1488   2.394   0.188   1.382  0.0536  1.3473 -0.7076
  497SOL     OW 1489   2.360   1.129   2.876  0.2219 -0.2066 -0.0904
  497SOL    HW1 1490   2.387   1.085   2.787  0.5001 -0.4971 -0.5830
  497SOL    HW2 1491   2.432   1.122   2.946 -0.0163 -0.2178 -3.9300
  498SOL     OW 1492   2.993   1.979   1.293  0.3979 -0.1863  0.0422
  498SOL    HW1 1493   2.905   1.936   1.279  0.3424 -0.6559  3.3443
  498SOL    HW2 1494   3.028   2.023   1.211 -3.1597  1.1360  2.9648
  499SOL     OW 1495   0.962   2.337   2.681  0.4225 -0.1283 -0.4543
  499SOL    HW1 1496   1.033   2.340   2.611 -0.5278  2.4276  3.0846
  499SOL    HW2 1497   0.868   2.317   2.638 -4.6541  0.9936  0.9667
  500SOL     OW 1498   1.596   1.332   0.359  0.5871  0.3187 -0.7306
  500SOL    HW1 1499   1.526   1.256   0.367 -1.6597 -0.7454 -0.8816
  500SOL    HW2 1500   1.636   1.338   0.452  1.0569 -0.8752  0.2261
  501SOL     OW 1501   1.571   0.066   1.548 -0.2742 -0.0355  0.4928
  501SOL    HW1 1502   1.524   0.099   1.633  0.2401 -1.6151 -0.2892
  501SOL    HW2 1503   1.615   3.050   1.567  1.4956  2.7182  0.3015
  502SOL     OW 1504   2.486   0.658   1.585 -0.1650  0.7556  0.5153
  502SOL    HW1 1505   2.580   0.615   1.582 -2.8146 -0.8892  0.1005
  502SOL    HW2 1506   2.463   0.676   1.679 -0.9209  0.2838 -1.9813
  503SOL     OW 1507   2.486   1.500   2.124  0.0650 -0.3948  0.2188
  503SOL    HW1 1508   2.390   1.480   2.094  0.4963 -0.1537  0.4418
  503SOL    HW2 1509   2.543   1.463   2.049 -0.2469  0.1779 -0.8838
  504SOL     OW 1510   1.363   1.331   1.889 -0.6452  0.5808  0.4866
  504SOL    HW1 1511   1.385   1.330   1.990  1.4601  2.2896  2.4320
  504SOL    HW2 1512   1.433   1.272   1.846  2.4979  3.0087 -0.0224
  505SOL     OW 1513   0.325   0.396   1.446  0.3361 -0.0881 -0.6425
  505SOL    HW1 1514   0.384   0.454   1.387  0.4840 -0.7050  0.4284
  505SOL    HW2 1515   0.333   0.424   1.546  0.0933  0.6624  3.8982
  506SOL     OW 1516   0.200   0.114   0.077  0.1845  0.0089 -0.2832
  506SOL    HW1 1517   0.139   0.181   0.120  0.7101  2.3942  1.8966
  506SOL    HW2 1518   0.209   0.134   3.051 -3.5185 -1.7145  3.2053
  507SOL     OW 1519   0.521   2.613   0.023 -0.8487 -0.6196  0.1251
  507SOL    HW1 1520   0.503   2.580   0.114  3.0895 -1.4979 -0.2014
  507SOL    HW2 1521   0.444   2.597   3.036  1.8967  1.1108  2.4716
  508SOL     OW 1522   1.018   0.444   2.110 -0.0056 -0.6617  0.1455
  508SOL    HW1 1523   0.923   0.475   2.118  1.6453 -0.6094 -1.7887
  508SOL    HW2 1524   1.026   0.347   2.143  0.4962 -1.3684  2.2061
  509SOL     OW 1525   1.549   2.117   1.177  0.0776  0.2405 -0.3766
  509SOL    HW1 1526   1.475   2.167   1.132 -2.0493  1.0302  2.4294
  509SOL    HW2 1527   1.590   2.180   1.242 -0.7861 -0.8813 -0.8920
  510SOL     OW 1528   2.956   1.093   1.556 -0.0244  0.6167 -0.6545
  510SOL    HW1 1529   2.888   1.162   1.591  1.6321  0.7560 -2.1794
  510SOL    HW2 1530   2.903   1.020   1.505 -0.7140 -1.1007 -1.8517
  511SOL     OW 1531   1.317   1.941   1.190 -0.4414  0.4962  0.0796
  511SOL    HW1 1532   1.387   2.007   1.157  0.4100 -2.0293  1.1920
  511SOL    HW2 1533   1.346   1.855   1.145 -0.2937 -0.5602  1.4708
  512SOL     OW 1534   3.026   1.578   0.454  0.0147 -0.4328 -0.0880
  512SOL    HW1 1535   2.960   1.518   0.509 -0.0465 -1.6454 -0.5703
  512SOL    HW2 1536   0.003   1.530   0.377 -0.1181 -1.8297 -1.3075
  513SOL     OW 1537   0.106   1.460   2.820  0.0034  0.3386  0.0697
  513SOL    HW1 1538   0.153   1.406   2.749  3.2770 -0.1855  0.5721
  513SOL    HW2 1539   0.111   1.412   2.913  1.3605  2.5930 -1.3974
  514SOL     OW 1540   2.184   2.356   2.393 -0.0786 -0.1855 -0.0245
  514SOL    HW1 1541   2.091   2.324   2.373 -0.6582  2.1382  0.1072
  514SOL    HW2 1542   2.257   2.291   2.362 -1.0191  1.8849  1.0491
  515SOL     OW 1543   2.459   0.917   0.783 -0.1628  0.3544  0.0108
  515SOL    HW1 1544   2.365   0.899   0.747  0.8975  3.5255  1.4985
  515SOL    HW2 1545   2.532   0.936   0.715 -2.0682 -3.0173  1.2735
  516SOL     OW 1546   2.715   2.365   0.217 -0.3423  0.0472 -0.3236
  516SOL    HW1 1547   2.624   2.317   0.219 -0.3933  0.3550 -1.1985
  516SOL    HW2 1548   2.782   2.323   0.283  1.3067  2.0593  0.6676
  517SOL     OW 1549   0.532   1.507   2.921 -0.4889  0.4958  0.1107
  517SOL    HW1 1550   0.614   1.529   2.982  1.4024  2.2365  3.1387
  517SOL    HW2 1551   0.468   1.453   2.975  0.6667  2.0399  0.2855
  518SOL     OW 1552   2.827   0.308   2.061 -0.1277 -0.1793  0.2476
  518SOL    HW1 1553   2.772   0.245   2.011  2.1389 -0.5719  1.9993
  518SOL    HW2 1554   2.879   0.366   1.998 -0.7627 -0.3036 -1.6156
  519SOL     OW 1555   1.619   1.050   0.002  0.3725 -0.0646  0.2099
  519SOL    HW1 1556   1.582   0.961   3.041  0.7331 -0.1051  2.1842
  519SOL    HW2 1557   1.624   1.043   0.105  1.2063 -0.1272 -2.4904
  520SOL     OW 1558   2.843   2.807   2.227  0.5870  0.7061 -0.0129
  520SOL    HW1 1559   2.926   2.859   2.191 -0.4799 -0.2197 -0.1421
  520SOL    HW2 1560   2.818   2.824   2.324 -2.4798 -1.3340  2.4490
  521SOL     OW 1561   0.339   1.994   2.249  0.1218 -0.2786  0.1283
  521SOL    HW1 1562   0.375   2.044   2.166  1.0522 -0.1614  1.8283
  521SOL    HW2 1563   0.414   1.983   2.314 -0.8401  2.0649  0.3004
  522SOL     OW 1564   1.249   2.978   1.719 -0.8442 -1.1211  0.0650
  522SOL    HW1 1565   1.234   3.034   1.803  0.2261 -0.7338  2.0829
  522SOL    HW2 1566   1.200   2.887   1.721  0.4925 -2.7279  0.7792
  523SOL     OW 1567   2.214   2.171   0.967 -0.1264 -0.3402 -0.3012
  523SOL    HW1 1568   2.284   2.108   0.929 -1.8711 -0.7991  1.1181
  523SOL    HW2 1569   2.254   2.227   1.041 -1.1445  0.9051  0.5829
  524SOL     OW 1570   1.186   2.070   0.666 -0.2190 -0.0790 -0.4580
  524SOL    HW1 1571   1.212   2.162   0.709  1.4328  1.6442  2.7075
  524SOL    HW2 1572   1.089   2.072   0.647  2.9601 -0.1099 -0.5728
  525SOL     OW 1573   2.703   0.457   0.847 -0.8529 -0.0229 -0.4075
  525SOL    HW1 1574   2.679   0.557   0.832  2.9877 -2.1852 -1.1997
  525SOL    HW2 1575   2.775   0.422   0.775  3.2823  1.1038 -2.4410
  526SOL     OW 1576   1.486   2.873   0.440 -0.1062 -0.3481 -0.2791
  526SOL    HW1 1577   1.566   2.824   0.478 -1.3097 -1.8042  2.4586
  526SOL    HW2 1578   1.439   2.919   0.522 -0.6922 -0.0295  2.0395
  527SOL     OW 1579   1.936   1.575   1.153 -0.4251  0.1188  0.0325
  527SOL    HW1 1580   1.919   1.660   1.208 -0.3492  1.4435 -2.2694
  527SOL    HW2 1581   1.986   1.592   1.066 -1.1077  1.7260 -0.5180
  528SOL     OW 1582   2.825   2.753   2.552  0.4501 -0.4962 -0.4507
  528SOL    HW1 1583   2.873   2.673   2.514 -0.1933 -0.6226  0.2490
  528SOL    HW2 1584   2.723   2.741   2.544  1.2396 -0.7782 -0.9408
  529SOL     OW 1585   0.981   1.250   2.418 -0.2184  0.5318 -0.1064
  529SOL    HW1 1586   1.001   1.219   2.513  1.9874  0.0787 -0.6327
  529SOL    HW2 1587   0.879   1.251   2.406 -1.8272  0.5261 -0.6817
  530SOL     OW 1588   1.875   0.818   2.226 -0.0987  0.4307 -0.0965
  530SOL    HW1 1589   1.804   0.886   2.207  0.2892 -1.2280 -0.6803
  530SOL    HW2 1590   1.871   0.785   2.325 -1.5521 -0.6261  0.7814
  531SOL     OW 1591   0.113   0.977   0.118 -0.1677 -0.1989  0.2056
  531SOL    HW1 1592   0.145   0.953   0.210 -0.5406  1.7153 -0.2736
  531SOL    HW2 1593   0.013   0.950   0.115 -2.0287 -0.8085  1.4650
  532SOL     OW 1594   1.653   1.354   0.611  0.1008  0.1231 -0.1816
  532SOL    HW1 1595   1.599   1.268   0.636 -0.7628 -1.9271  1.0250
  532SOL    HW2 1596   1.597   1.437   0.637  0.1143  2.4815  3.2301
  533SOL     OW 1597   0.208   0.559   2.594 -0.1260 -0.4473 -0.3189
  533SOL    HW1 1598   0.178   0.560   2.687 -4.6978 -0.4278 -1.5414
  533SOL    HW2 1599   0.307   0.527   2.578  1.7949 -0.0428  0.2983
  534SOL     OW 1600   1.003   0.343   2.436 -0.2931  0.0197  0.1437
  534SOL    HW1 1601   0.983   0.282   2.358  0.7070  0.6294  0.5429
  534SOL    HW2 1602   1.100   0.371   2.437 -0.8503 -0.3280  2.1691
  535SOL     OW 1603   0.672   0.617   3.022 -0.2676 -0.1425 -0.5131
  535SOL    HW1 1604   0.733   0.595   2.942 -1.0953 -2.3482  2.4457
  535SOL    HW2 1605   0.595   0.671   2.985  2.3881  0.8609  1.0679
  536SOL     OW 1606   0.609   0.909   2.737  0.1538 -0.2432  0.3317
  536SOL    HW1 1607   0.611   0.950   2.645  0.2446  0.3346  0.9559
  536SOL    HW2 1608   0.676   0.962   2.790  0.9116  3.0312 -1.2713
  537SOL     OW 1609   1.372   2.890   1.473 -0.2207 -0.1043 -0.0865
  537SOL    HW1 1610   1.388   2.937   1.559  0.6182  0.6955  2.7740
  537SOL    HW2 1611   1.383   2.951   1.397 -1.6822  1.0483 -0.0276
  538SOL     OW 1612   0.738   2.426   0.060  0.4392 -0.0499 -0.0230
  538SOL    HW1 1613   0.657   2.489   0.051 -0.0653  3.4587 -1.8521
  538SOL    HW2 1614   0.802   2.425   3.057  0.2515  1.6736  4.2096
  539SOL     OW 1615   2.757   1.262   1.630  0.1800  0.4668 -0.0253
  539SOL    HW1 1616   2.689   1.298   1.561  1.6639 -0.6869 -1.5161
  539SOL    HW2 1617   2.799   1.343   1.675 -2.3705  0.0863  0.6835
  540SOL     OW 1618   1.964   1.742   1.405 -0.4208  0.3293 -0.4334
  540SOL    HW1 1619   1.936   1.679   1.483  0.7821 -4.0274 -0.1200
  540SOL    HW2 1620   1.949   1.841   1.438 -0.5982  2.2861  3.3564
  541SOL     OW 1621   0.731   1.874   1.630 -0.0018  0.4238  0.0216
  541SOL    HW1 1622   0.642   1.825   1.621  2.0134  0.5707  0.2220
  541SOL    HW2 1623   0.808   1.809   1.625  0.2556  2.2453 -1.2488
  542SOL     OW 1624   1.725   1.224   1.794  0.3395  0.4341 -0.1464
  542SOL    HW1 1625   1.634   1.234   1.753  0.1760  1.7864  0.8809
  542SOL    HW2 1626   1.772   1.136   1.771 -1.4590 -2.6768 -2.1606
  543SOL     OW 1627   0.959   0.503   0.728 -0.1546 -0.1114 -0.1787
  543SOL    HW1 1628   0.963   0.603   0.736 -1.3609  1.4239  0.9070
  543SOL    HW2 1629   0.912   0.466   0.645  1.2008 -0.8267 -1.6439
  544SOL     OW 1630   2.013   1.765   2.120  0.1207  0.7977 -0.5605
  544SOL    HW1 1631   2.087   1.778   2.050 -1.3594 -4.0560  0.2958
  544SOL    HW2 1632   2.039   1.813   2.202 -2.0657 -1.3154 -2.6282
  545SOL     OW 1633   1.623   1.665   1.314  0.5259 -0.7806 -0.0385
  545SOL    HW1 1634   1.653   1.744   1.255 -0.3527  2.0765 -0.9720
  545SOL    HW2 1635   1.674   1.577   1.289 -1.8394 -1.5597 -3.5698
  546SOL     OW 1636   0.226   0.161   2.884 -0.4635 -0.5323  0.0563
  546SOL    HW1 1637   0.247   0.100   2.805 -0.4303 -1.2861 -1.2081
  546SOL    HW2 1638   0.311   0.207   2.916 -1.7184  0.2964  1.8390
  547SOL     OW 1639   2.147   0.713   3.068 -0.2765 -0.7234 -0.0058
  547SOL    HW1 1640   2.055   0.748   3.043  0.3941  0.6935 -0.2388
  547SOL    HW2 1641   2.136   0.618   0.020  0.1962  4.0907 -0.3466
  548SOL     OW 1642   2.355   1.934   2.101 -0.1168 -0.2624  0.3920
  548SOL    HW1 1643   2.310   1.885   2.027 -0.1092  0.7708 -0.0804
  548SOL    HW2 1644   2.439   1.884   2.130  1.3599  1.4740 -0.1853
  549SOL     OW 1645   2.319   2.888   0.873 -0.0785  0.4015  0.1623
  549SOL    HW1 1646   2.316   2.802   0.819 -0.9890 -0.4731  0.3176
  549SOL    HW2 1647   2.382   2.948   0.825  1.2568 -1.2344 -0.7286
  550SOL     OW 1648   2.128   1.492   0.100  0.1075  0.2922 -0.3046
  550SOL    HW1 1649   2.144   1.533   0.190  0.9824 -1.3272  4.0837
  550SOL    HW2 1650   2.035   1.454   0.090  1.1553  2.1409 -0.2927
  551SOL     OW 1651   1.498   0.134   1.803 -0.0890  0.3856  0.3694
  551SOL    HW1 1652   1.573   0.178   1.856 -0.2981 -1.8680 -0.5936
  551SOL    HW2 1653   1.506   0.030   1.803  0.8282  1.1280 -2.4477
  552SOL     OW 1654   2.844   2.495   2.823  0.0067  0.7624  0.0486
  552SOL    HW1 1655   2.907   2.521   2.747  2.8055 -2.4204 -0.1939
  552SOL    HW2 1656   2.788   2.570   2.855  1.2313 -0.5986 -1.5633
  553SOL     OW 1657   0.765   2.989   0.807 -0.2085 -0.3894 -0.8934
  553SOL    HW1 1658   0.707   2.921   0.857  2.1396  0.6932 -1.1006
  553SOL    HW2 1659   0.712   3.033   0.731  0.2266  1.2895 -0.8597
  554SOL     OW 1660   1.922   2.243   1.566  0.2377 -0.1264 -0.5210
  554SOL    HW1 1661   1.833   2.289   1.546 -0.9635  2.2149 -2.0729
  554SOL    HW2 1662   1.971   2.287   1.640  2.1861  0.5025 -0.5760
  555SOL     OW 1663   1.250   2.190   1.461  0.6320 -0.0641 -0.2139
  555SOL    HW1 1664   1.260   2.291   1.451 -0.7796 -0.3402  0.6418
  555SOL    HW2 1665   1.151   2.170   1.461 -0.6363  1.2886 -3.4075
  556SOL     OW 1666   1.652   1.717   0.331 -0.5336 -0.7553 -0.4858
  556SOL    HW1 1667   1.590   1.659   0.279  0.9298  2.7450 -0.0877
  556SOL    HW2 1668   1.610   1.742   0.420  1.8674  1.3579 -0.2907
  557SOL     OW 1669   1.265   2.270   1.882 -0.5305 -0.1294 -0.2015
  557SOL    HW1 1670   1.298   2.176   1.888 -0.9307  1.3998  0.6906
  557SOL    HW2 1671   1.164   2.272   1.878  0.7131 -0.0993  0.4784
  558SOL     OW 1672   2.994   0.425   1.900  0.1488 -0.4177 -0.1794
  558SOL    HW1 1673   3.019   0.518   1.944 -1.5295  0.2218 -2.0923
  558SOL    HW2 1674   3.022   0.419   1.804 -0.9180 -1.9359  4.3218
  559SOL     OW 1675   2.509   2.985   1.525  0.0042  0.2267 -0.3400
  559SOL    HW1 1676   2.468   2.891   1.503 -0.3805  0.7241 -1.4787
  559SOL    HW2 1677   2.587   2.978   1.591  1.0187 -1.3398 -0.5651
  560SOL     OW 1678   0.796   2.778   0.096 -0.1681  0.3097 -0.4113
  560SOL    HW1 1679   0.703   2.762   0.062  3.3381  0.4639  0.3648
  560SOL    HW2 1680   0.796   2.844   0.171 -0.4500 -3.6081  1.6100
  561SOL     OW 1681   1.181   0.882   0.435 -0.1914 -0.6519  0.2266
  561SOL    HW1 1682   1.095   0.851   0.386 -0.7470  1.5012 -1.1426
  561SOL    HW2 1683   1.194   0.979   0.442  2.6952 -0.5672 -1.5793
  562SOL     OW 1684   0.936   0.624   2.415  0.0966 -0.1913  0.2284
  562SOL    HW1 1685   0.965   0.689   2.488  1.0291  0.7119  0.0818
  562SOL    HW2 1686   0.965   0.530   2.438 -1.9642 -0.7020 -0.4340
  563SOL     OW 1687   2.044   2.530   2.574  0.1554  0.3826 -0.1525
  563SOL    HW1 1688   2.086   2.450   2.526 -0.2214 -0.1707 -1.0795
  563SOL    HW2 1689   1.943   2.542   2.561 -0.8205  4.0486  1.6290
  564SOL     OW 1690   0.165   1.359   0.403 -0.2557  0.3514  0.7809
  564SOL    HW1 1691   0.205   1.433   0.458 -1.4244 -0.9472 -2.4084
  564SOL    HW2 1692   0.122   1.395   0.315 -0.2952  0.8419 -3.4940
  565SOL     OW 1693   1.482   2.902   2.695  0.4688  0.6131  0.2428
  565SOL    HW1 1694   1.484   2.980   2.627 -1.7050  2.0516 -3.8112
  565SOL    HW2 1695   1.436   2.937   2.779  1.3683 -0.3416 -2.0775
  566SOL     OW 1696   1.864   2.945   2.525 -0.3623 -0.0188  0.2402
  566SOL    HW1 1697   1.940   2.879   2.501  0.1289 -1.1274 -0.8524
  566SOL    HW2 1698   1.881   2.974   2.618 -2.2963 -1.0981 -1.7392
  567SOL     OW 1699   2.597   1.337   0.896  0.0223  0.3967 -0.8056
  567SOL    HW1 1700   2.572   1.241   0.923  0.7739 -1.0122 -0.5347
  567SOL    HW2 1701   2.514   1.389   0.881  2.1353  1.2432  3.7894
  568SOL     OW 1702   1.918   1.634   2.867  0.3917 -0.2345 -0.4192
  568SOL    HW1 1703   1.918   1.575   2.782  1.1545 -0.5100  0.1454
  568SOL    HW2 1704   1.944   1.731   2.845  0.5234 -1.6398 -2.1162
  569SOL     OW 1705   2.204   1.828   2.719 -0.4575 -0.6865  0.7491
  569SOL    HW1 1706   2.287   1.880   2.682  1.3345  3.4599  0.6556
  569SOL    HW2 1707   2.214   1.730   2.713 -0.8277  1.3988 -0.5684
  570SOL     OW 1708   2.938   2.360   2.002  0.7480  0.2255 -0.0507
  570SOL    HW1 1709   2.957   2.289   2.069  0.9239  1.5988 -2.2084
  570SOL    HW2 1710   2.982   2.337   1.911  1.5793  0.2342 -0.1604
  571SOL     OW 1711   0.178   0.404   2.248  0.2503 -0.2264 -0.1835
  571SOL    HW1 1712   0.214   0.344   2.320  2.4004 -0.0092 -0.1390
  571SOL    HW2 1713   0.253   0.418   2.178  1.9999  2.6609  1.1042
  572SOL     OW 1714   1.098   1.697   0.737  0.3132  0.0729  0.3824
  572SOL    HW1 1715   1.132   1.623   0.673  0.4379 -1.4917 -0.3199
  572SOL    HW2 1716   1.079   1.658   0.829 -3.3720  1.5043 -0.2868
  573SOL     OW 1717   0.907   0.143   0.159 -0.5268  0.5749 -0.6181
  573SOL    HW1 1718   0.840   0.213   0.139 -4.6217  1.5661 -0.0641
  573SOL    HW2 1719   0.975   0.168   0.230  1.7310 -0.2562 -2.2131
  574SOL     OW 1720   0.650   0.033   0.586 -0.2911  0.2514  0.3368
  574SOL    HW1 1721   0.640   0.061   0.487 -1.1250  2.3048  2.1706
  574SOL    HW2 1722   0.574   0.069   0.638  2.6051 -0.8661 -2.2133
  575SOL     OW 1723   0.127   1.398   1.686 -0.2861 -0.1135  0.6852
  575SOL    HW1 1724   0.114   1.497   1.689 -1.3916 -0.7916  0.5403
  575SOL    HW2 1725   0.174   1.373   1.772 -0.3354  2.0233  1.5763
  576SOL     OW 1726   2.124   0.574   1.768  0.0072 -0.1269  0.3264
  576SOL    HW1 1727   2.090   0.573   1.671 -1.2751 -0.5098 -1.2728
  576SOL    HW2 1728   2.214   0.526   1.779  2.2883  0.7195 -1.1364
  577SOL     OW 1729   2.903   1.389   1.848 -0.5167 -0.7095  0.6067
  577SOL    HW1 1730   2.942   1.332   1.922 -0.5237  0.3234 -1.8046
  577SOL    HW2 1731   2.956   1.475   1.831  0.4790 -3.7852  0.2130
  578SOL     OW 1732   1.385   2.663   2.072 -0.1935  0.0396 -0.7870
  578SOL    HW1 1733   1.378   2.561   2.080  0.3471 -1.9489  0.0756
  578SOL    HW2 1734   1.396   2.707   2.167 -0.3426 -1.3848  0.2941
  579SOL     OW 1735   2.034   2.170   2.126 -0.2578  0.2939  0.2349
  579SOL    HW1 1736   1.961   2.145   2.057 -1.6081  0.0001 -1.4401
  579SOL    HW2 1737   2.059   2.089   2.188  1.6181 -1.7363  0.6283
  580SOL     OW 1738   1.850   1.417   1.931  0.3653 -0.3603 -0.5838
  580SOL    HW1 1739   1.798   1.379   1.855 -0.1539 -0.2200  0.7208
  580SOL    HW2 1740   1.833   1.377   2.026 -1.1543 -0.8724  1.3946
  581SOL     OW 1741   1.373   1.196   2.204 -0.2172 -0.0033 -0.1660
  581SOL    HW1 1742   1.439   1.160   2.138 -0.5067 -1.2167 -2.0969
  581SOL    HW2 1743   1.398   1.190   2.302 -0.8729 -0.7776  0.9522
  582SOL     OW 1744   0.189   1.908   2.016  0.5240  0.2940 -0.0773
  582SOL    HW1 1745   0.218   1.812   2.028 -0.3207  1.3756 -0.5084
  582SOL    HW2 1746   0.091   1.915   1.981 -2.1473  0.8900 -0.1060
  583SOL     OW 1747   1.507   1.151   0.715 -0.0264 -0.1311 -0.1247
  583SOL    HW1 1748   1.406   1.164   0.717 -1.3287  1.4421  0.2596
  583SOL    HW2 1749   1.536   1.120   0.813  0.0991 -2.4640  0.7336
  584SOL     OW 1750   1.122   2.249   0.393  0.2847 -0.0426  0.2882
  584SOL    HW1 1751   1.065   2.329   0.394  2.6419 -1.2960 -0.9965
  584SOL    HW2 1752   1.089   2.187   0.466 -2.2866  0.6052 -1.9993
  585SOL     OW 1753   0.067   2.545   0.099 -0.4155 -0.2640  0.3275
  585SOL    HW1 1754   0.100   2.554   0.195  0.4515  1.2533 -0.0830
  585SOL    HW2 1755   0.141   2.555   0.033 -0.7429 -0.5757  0.1783
  586SOL     OW 1756   2.583   1.281   0.606  0.1443 -0.2395 -0.3255
  586SOL    HW1 1757   2.632   1.204   0.560 -0.1341  0.4606  3.2982
  586SOL    HW2 1758   2.603   1.277   0.706 -2.5547  0.0644  2.1249
  587SOL     OW 1759   0.902   1.300   2.949 -0.1481 -0.3298 -0.2072
  587SOL    HW1 1760   0.999   1.326   2.934 -1.3650  0.8410  0.7154
  587SOL    HW2 1761   0.844   1.376   2.989  0.9112  2.2119 -0.6177
  588SOL     OW 1762   0.132   0.361   0.810 -0.5053 -0.1520  0.4977
  588SOL    HW1 1763   0.119   0.366   0.706 -0.0751  1.0242  1.2927
  588SOL    HW2 1764   0.229   0.375   0.833  3.1321 -2.0466  1.3544
  589SOL     OW 1765   1.377   2.972   0.678  0.3607  0.0858  0.2774
  589SOL    HW1 1766   1.407   0.001   0.676 -0.1033  3.3209  0.1565
  589SOL    HW2 1767   1.311   2.957   0.754  5.6510 -2.0775 -0.6176
  590SOL     OW 1768   2.655   2.069   0.466  0.1844  0.1893 -0.4461
  590SOL    HW1 1769   2.734   2.138   0.469 -0.0081  1.1406 -2.2479
  590SOL    HW2 1770   2.599   2.071   0.380  0.7409 -0.5398  1.1952
  591SOL     OW 1771   0.295   2.340   2.137  0.1887  0.1676 -0.2805
  591SOL    HW1 1772   0.384   2.305   2.177  2.1334 -1.9078  1.9910
  591SOL    HW2 1773   0.292   2.440   2.113 -1.3990  2.0611  0.1939
  592SOL     OW 1774   0.143   1.812   2.324  0.0053 -0.3599  0.8787
  592SOL    HW1 1775   0.066   1.782   2.268  1.7758  1.3715  1.1717
  592SOL    HW2 1776   0.215   1.858   2.262  1.5367 -1.1031 -1.8023
  593SOL     OW 1777   1.484   1.298   1.392 -0.0615 -0.1672  0.3091
  593SOL    HW1 1778   1.555   1.364   1.427 -0.3121 -0.6011  2.5988
  593SOL    HW2 1779   1.492   1.297   1.291 -1.1758  0.2782  1.4231
  594SOL     OW 1780   0.490   1.269   2.771 -0.3954  0.2005 -0.2282
  594SOL    HW1 1781   0.450   1.235   2.861 -1.0094 -0.8888  0.5245
  594SOL    HW2 1782   0.533   1.359   2.781  0.8710 -3.0432  1.8398
  595SOL     OW 1783   1.384   0.711   0.847 -0.3744 -0.1375 -0.0688
  595SOL    HW1 1784   1.472   0.709   0.793  1.8607 -1.0522  0.0601
  595SOL    HW2 1785   1.319   0.778   0.804  0.0051 -1.0358 -0.9377
  596SOL     OW 1786   0.593   1.216   1.103  0.5730 -0.3266  1.0216
  596SOL    HW1 1787   0.685   1.239   1.135 -3.3923 -1.1647 -1.6212
  596SOL    HW2 1788   0.557   1.274   1.031  0.3430  1.7823  4.6170
  597SOL     OW 1789   0.716   2.335   2.039 -0.1041  0.2723  0.0488
  597SOL    HW1 1790   0.671   2.426   2.047  0.1938 -1.5367 -2.5358
  597SOL    HW2 1791   0.743   2.323   1.943 -1.1932  0.1710  2.2121
  598SOL     OW 1792   2.198   2.519   2.156  0.4729 -0.0413  0.4111
  598SOL    HW1 1793   2.106   2.561   2.148 -0.7814 -0.3288  0.8201
  598SOL    HW2 1794   2.206   2.475   2.252 -1.1824 -1.9628  0.8280
  599SOL     OW 1795   0.758   1.080   0.415  0.6352  0.1381 -0.0673
  599SOL    HW1 1796   0.745   1.155   0.343  0.3046  2.9783 -1.0942
  599SOL    HW2 1797   0.846   1.091   0.460  0.3366 -1.0300 -0.7471
  600SOL     OW 1798   1.423   0.541   0.158  0.2375  0.3762  0.1868
  600SOL    HW1 1799   1.330   0.500   0.144 -2.1717 -3.6560 -1.0573
  600SOL    HW2 1800   1.475   0.490   0.236  2.2252  1.1387  1.1053
  601SOL     OW 1801   0.501   0.342   1.185  0.2234  0.1519 -0.2318
  601SOL    HW1 1802   0.485   0.411   1.260 -1.7632  3.1349 -0.3786
  601SOL    HW2 1803   0.552   0.390   1.111 -3.1834 -2.0266 -1.6306
  602SOL     OW 1804   0.382   2.186   0.795  0.6640  0.3042 -0.0630
  602SOL    HW1 1805   0.388   2.082   0.799  0.0390  0.1412  0.2652
  602SOL    HW2 1806   0.410   2.223   0.704  2.3074  0.9513 -1.5973
  603SOL     OW 1807   0.880   2.682   2.618  0.3275 -0.2712  0.4291
  603SOL    HW1 1808   0.961   2.618   2.607  0.6605  1.9362 -0.7152
  603SOL    HW2 1809   0.857   2.729   2.531  0.1565  2.4968  1.1020
  604SOL     OW 1810   0.516   2.304   0.351  0.2667  0.1261 -0.0717
  604SOL    HW1 1811   0.459   2.229   0.305  0.6589 -1.4010 -1.3988
  604SOL    HW2 1812   0.616   2.293   0.341 -0.6298  2.0864 -0.3216
  605SOL     OW 1813   1.910   1.569   1.622  0.1788 -0.3619  0.2223
  605SOL    HW1 1814   1.965   1.484   1.621 -1.2797  2.5155 -2.3037
  605SOL    HW2 1815   1.809   1.550   1.609  0.6212 -0.2190 -0.4447
  606SOL     OW 1816   0.819   1.044   2.880 -0.1074 -0.3192  0.5505
  606SOL    HW1 1817   0.751   1.004   2.946 -2.5391  1.0429  0.7612
  606SOL    HW2 1818   0.827   1.145   2.894 -0.5864 -0.6237 -0.5883
  607SOL     OW 1819   1.145   1.078   1.103 -0.4398  0.0518 -0.3789
  607SOL    HW1 1820   1.092   1.077   1.192  0.3047 -1.1429  1.9401
  607SOL    HW2 1821   1.157   1.170   1.063  0.7570  0.0846  2.7456
  608SOL     OW 1822   2.718   2.138   1.976  0.1437 -0.2989 -0.2723
  608SOL    HW1 1823   2.718   2.061   2.044  0.2090  2.0019  1.4612
  608SOL    HW2 1824   2.637   2.207   1.983 -3.5767  0.4140 -0.8130
  609SOL     OW 1825   2.214   3.051   0.294 -0.1606  0.3547 -0.1870
  609SOL    HW1 1826   2.298   3.017   0.243 -2.1766 -0.5778  1.3912
  609SOL    HW2 1827   2.129   3.002   0.281 -0.5994  3.0398  0.4519
  610SOL     OW 1828   0.159   2.425   1.598  0.4420  0.1551  0.7395
  610SOL    HW1 1829   0.249   2.443   1.637  0.7899  1.4183 -2.8706
  610SOL    HW2 1830   0.152   2.455   1.502  1.3802 -0.9118  1.9299
  611SOL     OW 1831   1.774   2.090   0.378 -0.2663 -0.1371 -0.1301
  611SOL    HW1 1832   1.860   2.144   0.399  0.5534 -0.0476  0.9161
  611SOL    HW2 1833   1.801   1.993   0.378 -0.1627  1.5725 -2.0177
  612SOL     OW 1834   0.559   0.129   1.840  0.1429  0.3896  0.0951
  612SOL    HW1 1835   0.634   0.196   1.843 -0.3702 -0.8100 -0.4832
  612SOL    HW2 1836   0.464   0.173   1.850 -1.0315 -0.0713 -2.8528
  613SOL     OW 1837   2.796   1.291   0.406 -0.1536 -0.1142 -0.1931
  613SOL    HW1 1838   2.788   1.340   0.496  1.9863  0.2068  3.1915
  613SOL    HW2 1839   2.756   1.338   0.326 -1.5877 -1.6097  4.2464
  614SOL     OW 1840   2.024   0.474   1.978 -0.3667  1.2337  0.0129
  614SOL    HW1 1841   2.064   0.528   1.903 -4.2541 -2.6397  4.8274
  614SOL    HW2 1842   2.018   0.379   1.942 -0.4343  1.4108 -2.8950
  615SOL     OW 1843   1.059   1.613   0.986 -0.0946 -0.1609  0.2687
  615SOL    HW1 1844   1.105   1.629   1.079  0.4639  0.4317  2.3475
  615SOL    HW2 1845   0.960   1.600   1.005 -0.9513  0.8665 -1.5411
  616SOL     OW 1846   1.708   1.855   2.726  0.5579 -0.3327  0.3267
  616SOL    HW1 1847   1.643   1.847   2.803  0.8845  1.6746 -1.6792
  616SOL    HW2 1848   1.805   1.864   2.757  1.2458  0.6231  0.2355
  617SOL     OW 1849   1.955   2.948   0.324  0.7049 -0.3097 -0.1736
  617SOL    HW1 1850   1.872   2.996   0.291 -1.8949  1.0080 -0.2535
  617SOL    HW2 1851   1.944   2.848   0.327  1.7002  1.0856  1.2110
  618SOL     OW 1852   0.688   0.663   2.535 -0.1456  0.3216  0.2161
  618SOL    HW1 1853   0.638   0.754   2.513 -1.4315  1.5371  1.5261
  618SOL    HW2 1854   0.770   0.647   2.483 -2.0844 -0.3388  1.7097
  619SOL     OW 1855   2.906   1.658   1.068  0.0926  0.4817  0.4493
  619SOL    HW1 1856   2.873   1.653   0.976 -2.9814 -1.3152  2.7676
  619SOL    HW2 1857   3.005   1.632   1.080 -1.7192 -0.0398  0.1785
  620SOL     OW 1858   2.135   0.042   2.985 -0.2108  0.4729  0.6038
  620SOL    HW1 1859   2.055   3.065   3.034 -3.3147 -0.9269  1.2814
  620SOL    HW2 1860   2.179   3.057   2.914 -0.4435 -1.2216  1.8692
  621SOL     OW 1861   2.258   1.399   2.943  0.3936 -0.2348  0.0130
  621SOL    HW1 1862   2.226   1.408   3.040  0.1150 -1.6366  1.7678
  621SOL    HW2 1863   2.284   1.304   2.919  0.9854  0.1436  0.5366
  622SOL     OW 1864   1.778   2.750   1.949  0.2222  0.0379  0.2725
  622SOL    HW1 1865   1.697   2.813   1.956  2.5152  3.6486 -0.0339
  622SOL    HW2 1866   1.858   2.806   1.924 -1.4425 -0.9410  1.0033
  623SOL     OW 1867   1.241   1.731   0.294 -0.3657  0.1710  0.2514
  623SOL    HW1 1868   1.239   1.787   0.377 -0.5076  1.0975 -3.7778
  623SOL    HW2 1869   1.234   1.796   0.218  0.1235  0.3413 -0.3957
  624SOL     OW 1870   0.125   2.937   0.147 -0.0995  0.1412  0.0214
  624SOL    HW1 1871   0.116   2.874   0.066  1.9088 -1.0134 -0.4042
  624SOL    HW2 1872   0.146   3.036   0.127 -1.5278  0.3102  1.9291
  625SOL     OW 1873   0.644   1.724   0.329  0.6370  0.1827  0.5385
  625SOL    HW1 1874   0.623   1.819   0.361  0.0073  0.8212  3.6791
  625SOL    HW2 1875   0.576   1.688   0.258  0.6671 -3.0820 -2.3809
  626SOL     OW 1876   2.920   2.717   0.038  0.2931 -0.2359 -0.5168
  626SOL    HW1 1877   2.981   2.632   0.047  4.7815  0.2180 -1.8634
  626SOL    HW2 1878   2.947   2.776   3.033  0.9704  0.4225 -0.0995
  627SOL     OW 1879   0.894   1.963   2.643  0.2730  0.1957 -0.1473
  627SOL    HW1 1880   0.937   1.905   2.570 -1.0291  0.7945 -1.5949
  627SOL    HW2 1881   0.936   1.941   2.735  0.9053  3.5893  0.7723
  628SOL     OW 1882   0.317   3.028   2.692  0.0516  0.3623 -0.2736
  628SOL    HW1 1883   0.324   3.054   2.594  1.0879  1.1833 -0.0811
  628SOL    HW2 1884   0.237   2.967   2.707 -2.4142 -0.3361 -1.5284
  629SOL     OW 1885   0.375   3.025   2.297 -0.5950  0.5766  0.0857
  629SOL    HW1 1886   0.472   3.017   2.332  1.7618  1.2752  1.8343
  629SOL    HW2 1887   0.360   2.989   2.200  1.3666 -1.9406 -1.9047
  630SOL     OW 1888   1.500   0.941   1.818  0.6313 -0.1495  0.2928
  630SOL    HW1 1889   1.564   0.870   1.777 -0.4020 -3.3375 -1.4730
  630SOL    HW2 1890   1.424   0.889   1.862 -2.0829  0.8537  1.2836
  631SOL     OW 1891   2.327   0.971   0.404 -0.3314 -0.2789 -0.7733
  631SOL    HW1 1892   2.334   0.925   0.498  2.8510 -1.3430  0.9255
  631SOL    HW2 1893   2.418   1.021   0.396 -0.0056  0.2470 -0.7950
  632SOL     OW 1894   2.408   0.684   2.139 -0.3675 -0.5263  0.3096
  632SOL    HW1 1895   2.366   0.759   2.189 -0.0987 -0.5164 -3.1296
  632SOL    HW2 1896   2.415   0.595   2.187 -1.4914  1.0159 -0.1673
  633SOL     OW 1897   0.784   2.295   0.282  0.0410 -0.1294 -0.0543
  633SOL    HW1 1898   0.767   2.337   0.191  0.2782  1.9213  0.3802
  633SOL    HW2 1899   0.863   2.338   0.331  1.6202 -1.6818 -0.7729
  634SOL     OW 1900   1.540   2.544   2.427  0.3995  0.3984  0.3360
  634SOL    HW1 1901   1.472   2.479   2.473 -1.7163 -1.8904  0.0439
  634SOL    HW2 1902   1.496   2.629   2.386  0.4153  1.4399 -1.2353
  635SOL     OW 1903   2.056   0.464   0.102 -0.2139  0.4749 -0.3400
  635SOL    HW1 1904   2.128   0.403   0.063  1.6382 -0.6777  1.6465
  635SOL    HW2 1905   2.058   0.443   0.203  0.0758  2.6823 -1.2646
  636SOL     OW 1906   0.679   1.194   0.757 -0.5200  0.0645  0.6834
  636SOL    HW1 1907   0.649   1.109   0.711  0.1274  0.9537  1.2789
  636SOL    HW2 1908   0.748   1.172   0.825 -1.0812  0.1492  1.3407
  637SOL     OW 1909   0.098   1.992   0.659  0.0336  0.0891 -0.0396
  637SOL    HW1 1910   0.122   2.059   0.728 -3.3550 -0.9401 -2.8873
  637SOL    HW2 1911   0.019   2.023   0.606  3.3158 -2.4806  0.0615
  638SOL     OW 1912   0.888   3.044   3.013 -0.7698 -0.2915  0.7941
  638SOL    HW1 1913   0.893   2.944   3.024  1.9227  1.0215 -0.2741
  638SOL    HW2 1914   0.891   0.024   0.025 -0.7285 -0.2460  1.2131
  639SOL     OW 1915   1.527   1.890   2.978  0.1273  0.0876 -0.0601
  639SOL    HW1 1916   1.479   1.810   3.015  0.4557  2.4211 -0.7778
  639SOL    HW2 1917   1.559   1.948   3.055  1.2763  0.7029 -0.7443
  640SOL     OW 1918   1.985   2.806   0.798  0.5176 -0.3071  0.1312
  640SOL    HW1 1919   2.000   2.836   0.697  0.5458 -1.1579 -4.7540
  640SOL    HW2 1920   1.948   2.715   0.798  1.7159  1.9904 -0.2711
  641SOL     OW 1921   0.031   2.810   0.705 -0.2282  0.0002  0.7237
  641SOL    HW1 1922   3.030   2.755   0.663  0.6647 -0.6286  0.6788
  641SOL    HW2 1923   0.065   2.882   0.638 -0.0273  1.8022 -0.7128
  642SOL     OW 1924   0.867   0.263   1.633  0.3576 -0.1415  0.5178
  642SOL    HW1 1925   0.835   0.310   1.548  0.8545  0.6331 -0.5700
  642SOL    HW2 1926   0.940   0.317   1.677 -2.3326 -1.0580 -0.5718
  643SOL     OW 1927   0.599   2.117   2.091 -0.1366  0.2473 -1.0704
  643SOL    HW1 1928   0.640   2.209   2.074  0.1075 -1.6333  2.4615
  643SOL    HW2 1929   0.580   2.075   1.998  2.0990  0.5958 -1.0959
  644SOL     OW 1930   0.521   2.786   0.412  0.0862  0.3195  0.3530
  644SOL    HW1 1931   0.625   2.790   0.416  1.6400 -1.4050 -2.3496
  644SOL    HW2 1932   0.489   2.808   0.504  1.7870  2.3144 -2.3921
  645SOL     OW 1933   1.321   2.027   2.870 -0.4035  0.3803 -0.4204
  645SOL    HW1 1934   1.328   2.113   2.925 -0.8783  2.4847  1.6707
  645SOL    HW2 1935   1.404   1.969   2.897  0.6005 -2.4758  0.1972
  646SOL     OW 1936   0.384   1.318   3.037 -0.0701  0.2727 -0.2915
  646SOL    HW1 1937   0.284   1.306   3.042 -0.1851  2.4451 -0.8674
  646SOL    HW2 1938   0.429   1.321   0.055  0.1841 -0.6611 -1.9107
  647SOL     OW 1939   0.915   0.120   0.962 -0.1045  0.4934  0.0034
  647SOL    HW1 1940   0.858   0.036   0.944  0.4535  1.4763  0.2539
  647SOL    HW2 1941   0.861   0.197   1.003  0.5879  1.6255 -0.5756
  648SOL     OW 1942   2.094   0.187   1.628  0.1971  0.1112  0.0288
  648SOL    HW1 1943   2.002   0.176   1.585  2.6358 -0.1475  0.8950
  648SOL    HW2 1944   2.154   0.108   1.595 -0.8884  2.3210 -0.6207
  649SOL     OW 1945   0.643   1.964   2.765 -0.1569  0.1215  0.2413
  649SOL    HW1 1946   0.718   1.978   2.700  2.2374 -0.2296  0.3706
  649SOL    HW2 1947   0.607   1.870   2.757  0.4688  1.7247 -3.8160
  650SOL     OW 1948   2.824   1.777   1.815  0.0754 -0.3375  0.3373
  650SOL    HW1 1949   2.730   1.811   1.839  1.2640 -1.1723 -1.3217
  650SOL    HW2 1950   2.818   1.735   1.721 -2.2153  1.0760 -0.0303
  651SOL     OW 1951   1.104   2.846   0.377  0.4691 -0.6965 -0.6332
  651SOL    HW1 1952   1.147   2.801   0.299  1.3841  1.2576  1.8268
  651SOL    HW2 1953   1.126   2.796   0.462  0.4399 -0.3292  0.4470
  652SOL     OW 1954   2.729   1.793   0.064  0.2589  0.0127  0.6665
  652SOL    HW1 1955   2.680   1.780   3.047 -3.0099  0.0432  2.3065
  652SOL    HW2 1956   2.756   1.892   0.083  0.9604  1.0363 -0.2501
  653SOL     OW 1957   2.938   0.372   1.024 -0.1054  0.5103  0.8273
  653SOL    HW1 1958   2.998   0.292   1.005  1.9032 -1.8847 -0.2000
  653SOL    HW2 1959   2.894   0.404   0.937  1.6090 -2.9026  2.9258
  654SOL     OW 1960   1.986   0.282   2.595 -0.4431 -0.7627  0.1527
  654SOL    HW1 1961   1.916   0.230   2.544  0.9196 -1.2197  0.3414
  654SOL    HW2 1962   2.070   0.227   2.602 -1.4668  1.7540 -0.1020
  655SOL     OW 1963   0.374   2.516   0.935 -0.0013  0.4366 -0.5383
  655SOL    HW1 1964   0.317   2.574   0.873  0.6480  0.3980  1.4272
  655SOL    HW2 1965   0.320   2.449   0.989 -1.2462 -1.0527  3.3775
  656SOL     OW 1966   0.142   0.070   1.936 -0.3175 -0.4151 -0.3314
  656SOL    HW1 1967   0.098   0.120   2.014 -0.6323 -1.3133 -3.0090
  656SOL    HW2 1968   0.087   3.060   1.917 -1.9212  1.5257 -0.0281
  657SOL     OW 1969   2.331   0.542   2.570  0.3260  0.3491  0.2812
  657SOL    HW1 1970   2.246   0.528   2.516  0.9099 -2.1187 -1.7854
  657SOL    HW2 1971   2.315   0.500   2.659 -3.3313  0.8676 -0.6663
  658SOL     OW 1972   2.130   1.919   1.036  0.1901 -0.1532 -0.2134
  658SOL    HW1 1973   2.141   2.022   1.031 -0.8416  1.2628 -0.6535
  658SOL    HW2 1974   2.189   1.888   1.115  1.0987  0.5227  3.6354
  659SOL     OW 1975   2.262   0.282   3.058 -0.4185  1.0910  0.1662
  659SOL    HW1 1976   2.337   0.279   0.051 -1.3284  0.0027 -1.5795
  659SOL    HW2 1977   2.227   0.187   3.034  1.1002 -1.5352 -1.7698
  660SOL     OW 1978   1.333   1.516   2.862  0.0814  0.2084  0.2026
  660SOL    HW1 1979   1.427   1.483   2.846 -1.3452  0.6451  2.1003
  660SOL    HW2 1980   1.329   1.560   2.954  2.2979 -1.9869  0.8297
  661SOL     OW 1981   2.522   2.518   0.965 -0.1813  0.7502  0.4347
  661SOL    HW1 1982   2.579   2.484   0.894 -0.3822  0.7458 -0.6796
  661SOL    HW2 1983   2.571   2.597   1.011 -4.2512 -0.7159  1.2569
  662SOL     OW 1984   0.601   0.675   0.365 -0.2893 -0.2319 -0.3640
  662SOL    HW1 1985   0.552   0.591   0.396  1.2551 -0.8410 -0.5414
  662SOL    HW2 1986   0.604   0.747   0.439 -1.6374  2.1587 -0.3074
  663SOL     OW 1987   1.825   2.113   3.023  0.2725  0.1837  0.5285
  663SOL    HW1 1988   1.819   2.196   2.960 -2.6385  1.0333 -0.8863
  663SOL    HW2 1989   1.908   2.103   0.003 -4.2620  1.1382 -2.0492
  664SOL     OW 1990   0.587   2.168   1.318  0.1443 -0.7165  0.1000
  664SOL    HW1 1991   0.617   2.269   1.324 -2.3067 -1.0218  0.8439
  664SOL    HW2 1992   0.537   2.159   1.232  1.8841  3.6557  2.6488
  665SOL     OW 1993   1.833   2.128   1.943  0.6057  0.0975  0.2762
  665SOL    HW1 1994   1.871   2.203   1.887  0.9504  1.4276 -1.6602
  665SOL    HW2 1995   1.742   2.103   1.909  1.4270  1.5494  2.7440
  666SOL     OW 1996   0.433   2.558   0.302  0.0844 -0.7256 -0.0806
  666SOL    HW1 1997   0.443   2.641   0.358  0.9740  2.3248  0.0352
  666SOL    HW2 1998   0.499   2.486   0.333 -1.7399  2.7593 -0.6292
  667SOL     OW 1999   2.058   1.203   1.936 -0.2501 -0.1084 -0.2862
  667SOL    HW1 2000   2.047   1.121   1.999  2.5592 -3.1102 -1.0901
  667SOL    HW2 2001   1.986   1.273   1.938  0.6025 -2.1490 -0.0079
  668SOL     OW 2002   0.469   0.498   2.584  0.3297 -0.1571 -0.1223
  668SOL    HW1 2003   0.551   0.554   2.565 -1.0115 -0.4082  2.8076
  668SOL    HW2 2004   0.500   0.404   2.559  0.5780  0.0452  0.8368
  669SOL     OW 2005   1.570   2.105   2.528  0.5370  0.3949 -0.0042
  669SOL    HW1 2006   1.522   2.015   2.556 -0.2707 -2.2986 -1.2660
  669SOL    HW2 2007   1.649   2.080   2.465  0.0583  1.3148  3.2213
  670SOL     OW 2008   2.256   2.214   2.953  0.5404  0.0805 -0.0475
  670SOL    HW1 2009   2.233   2.313   2.965  1.2301 -1.1299  2.5270
  670SOL    HW2 2010   2.233   2.185   2.857  2.8924  0.2558 -0.9463
  671SOL     OW 2011   0.832   1.334   1.108 -0.0568  0.7044  0.2889
  671SOL    HW1 2012   0.871   1.347   1.201  0.7882  1.3085 -1.9469
  671SOL    HW2 2013   0.809   1.422   1.064 -0.1110  0.8360  0.3998
  672SOL     OW 2014   2.505   0.959   2.449  0.0793 -0.4840  0.5448
  672SOL    HW1 2015   2.542   0.978   2.356 -1.2469 -0.4102 -0.8408
  672SOL    HW2 2016   2.575   0.986   2.517 -2.5603 -0.3462 -0.0505
  673SOL     OW 2017   2.540   2.530   2.210  0.3341 -0.6515 -0.5622
  673SOL    HW1 2018   2.634   2.495   2.241  2.7036  1.7812 -0.2038
  673SOL    HW2 2019   2.547   2.620   2.164  0.0940 -0.7687  0.7852
  674SOL     OW 2020   1.126   2.387   2.234  0.0112  0.0105 -0.1503
  674SOL    HW1 2021   1.099   2.290   2.202 -0.5272  2.0838  2.8239
  674SOL    HW2 2022   1.217   2.416   2.199 -1.7029 -0.9362 -0.2669
  675SOL     OW 2023   0.769   0.804   1.591 -0.1771  0.1838  0.0896
  675SOL    HW1 2024   0.833   0.725   1.606 -1.7217  2.1486 -0.0596
  675SOL    HW2 2025   0.785   0.882   1.650  1.2142 -0.5839 -1.3953
  676SOL     OW 2026   1.771   1.000   0.695  0.2995  0.1176 -0.1108
  676SOL    HW1 2027   1.702   1.074   0.696  0.6938 -0.3933  1.4137
  676SOL    HW2 2028   1.847   1.021   0.629  1.0327 -1.1857 -0.4144
  677SOL     OW 2029   2.697   1.941   2.452 -0.2626  0.1049  0.1089
  677SOL    HW1 2030   2.798   1.958   2.455 -1.3598  1.6609 -0.3494
  677SOL    HW2 2031   2.683   1.841   2.463 -0.7046  0.6388  1.6557
  678SOL     OW 2032   2.641   2.019   1.173 -0.1237  0.0842  0.7072
  678SOL    HW1 2033   2.638   2.115   1.200  1.5250 -1.7900 -4.8526
  678SOL    HW2 2034   2.592   1.959   1.238  1.4471  2.0947 -0.1951
  679SOL     OW 2035   1.882   2.566   0.817 -0.1835 -0.3517 -0.1521
  679SOL    HW1 2036   1.929   2.510   0.744  0.9942  1.3502 -3.2681
  679SOL    HW2 2037   1.825   2.504   0.875  1.8978 -0.2271  0.4179
  680SOL     OW 2038   0.237   2.600   2.400 -0.7812  0.4280 -0.0030
  680SOL    HW1 2039   0.189   2.682   2.423  1.4955 -4.3269  0.3619
  680SOL    HW2 2040   0.333   2.623   2.371  2.9104 -0.9917 -1.0288
  681SOL     OW 2041   0.120   1.197   1.493 -0.1896 -1.0112 -0.7635
  681SOL    HW1 2042   0.136   1.259   1.578 -0.5251  2.3913  2.3103
  681SOL    HW2 2043   0.030   1.152   1.505  0.9061  1.5085  0.6758
  682SOL     OW 2044   0.268   2.032   1.254 -0.1899  0.2759  0.2748
  682SOL    HW1 2045   0.235   2.086   1.328  0.2614 -3.3487 -1.3762
  682SOL    HW2 2046   0.327   1.954   1.295  3.4674 -0.1208  2.6797
  683SOL     OW 2047   2.398   1.375   1.313  0.4448  0.0902 -0.0551
  683SOL    HW1 2048   2.378   1.435   1.236 -0.5564 -0.1877  1.3858
  683SOL    HW2 2049   2.491   1.389   1.349  0.4037  1.9707 -0.6570
  684SOL     OW 2050   2.454   1.576   3.033  0.6312  0.6644  0.2231
  684SOL    HW1 2051   2.543   1.527   3.039  0.1532 -2.7506 -0.9942
  684SOL    HW2 2052   2.397   1.522   2.970  0.2441 -0.7008 -0.8019
  685SOL     OW 2053   1.236   1.293   0.032  0.1629 -0.1893  0.0915
  685SOL    HW1 2054   1.193   1.242   3.028  1.9322  0.9440  3.2545
  685SOL    HW2 2055   1.337   1.302   0.021  0.8311 -1.2503 -0.5252
  686SOL     OW 2056   0.214   0.370   1.118  0.4530 -0.3199  0.0681
  686SOL    HW1 2057   0.236   0.336   1.212 -1.4025 -1.3121  1.6539
  686SOL    HW2 2058   0.136   0.322   1.074  1.7885 -0.2726  2.3838
  687SOL     OW 2059   0.842   1.924   2.324  0.0510  0.2691  0.1202
  687SOL    HW1 2060   0.941   1.916   2.314  1.5030  0.2846  0.7929
  687SOL    HW2 2061   0.785   1.858   2.270 -0.3878 -0.6421  2.2595
  688SOL     OW 2062   0.232   1.860   1.053 -0.3122  0.6221  0.7316
  688SOL    HW1 2063   0.265   1.917   1.127 -0.8217 -2.2714 -3.9705
  688SOL    HW2 2064   0.287   1.874   0.965  1.2624  1.0987 -2.0334
  689SOL     OW 2065   1.490   0.709   1.447 -0.1578 -0.3908 -0.4052
  689SOL    HW1 2066   1.522   0.805   1.455 -0.0973  1.4741 -4.2210
  689SOL    HW2 2067   1.542   0.659   1.371 -0.2008  0.2808 -1.6152
  690SOL     OW 2068   2.554   1.086   0.973 -0.5807  0.2911 -0.1672
  690SOL    HW1 2069   2.526   1.008   0.917 -2.0890  2.3123  2.1293
  690SOL    HW2 2070   2.646   1.071   1.019 -2.1506  1.3423  3.5029
  691SOL     OW 2071   0.255   2.191   1.918  0.1787 -0.2346  0.1425
  691SOL    HW1 2072   0.265   2.244   2.003  1.0563 -0.1249  0.3540
  691SOL    HW2 2073   0.225   2.097   1.947  1.9120 -0.0624 -0.4654
  692SOL     OW 2074   1.826   2.936   0.968 -0.3688 -0.0989  0.5631
  692SOL    HW1 2075   1.889   2.909   0.890  2.2269  1.7613 -1.2579
  692SOL    HW2 2076   1.846   2.885   1.052 -1.4600 -2.3357 -1.1654
  693SOL     OW 2077   0.245   1.402   2.363 -0.1542 -0.4043  0.3164
  693SOL    HW1 2078   0.248   1.489   2.416 -0.3568  2.3180  0.6690
  693SOL    HW2 2079   0.192   1.414   2.277 -0.3676  1.3778 -0.4326
  694SOL     OW 2080   2.125   0.701   0.957  0.5409 -0.0213 -0.3919
  694SOL    HW1 2081   2.183   0.686   1.042 -2.2251  0.7675 -0.2871
  694SOL    HW2 2082   2.112   0.799   0.943  1.6763 -1.7280  1.9472
  695SOL     OW 2083   0.889   1.260   1.648 -0.5219  0.4806 -0.2089
  695SOL    HW1 2084   0.811   1.196   1.625 -0.1125 -2.0376  2.7038
  695SOL    HW2 2085   0.980   1.220   1.615 -1.2531 -0.8813  1.3127
  696SOL     OW 2086   1.237   0.006   0.136  0.7482  0.1208 -0.4342
  696SOL    HW1 2087   1.213   2.982   0.139  1.3627  1.6671 -0.9284
  696SOL    HW2 2088   1.237   0.046   0.232 -1.4884 -0.4479 -0.2879
  697SOL     OW 2089   0.954   0.341   1.167  0.0272 -0.0137 -0.1863
  697SOL    HW1 2090   0.897   0.375   1.090  1.9603 -0.3643  0.3368
  697SOL    HW2 2091   1.024   0.282   1.124  2.0121  2.2794 -1.5008
  698SOL     OW 2092   1.281   1.487   2.425  0.0067  0.4990 -0.1476
  698SOL    HW1 2093   1.375   1.489   2.381  0.5396 -0.4358 -1.3115
  698SOL    HW2 2094   1.212   1.477   2.350 -4.8832 -0.3862  0.2571
  699SOL     OW 2095   1.342   0.896   1.057 -0.0626 -0.1451  0.1619
  699SOL    HW1 2096   1.252   0.947   1.068  0.6297  0.3976  1.3979
  699SOL    HW2 2097   1.337   0.814   1.001  1.6424  1.1325 -0.0432
  700SOL     OW 2098   1.006   2.906   0.696 -0.0811 -0.6597  0.1324
  700SOL    HW1 2099   1.060   2.990   0.722  1.7435 -2.2128 -1.4544
  700SOL    HW2 2100   0.909   2.928   0.696  1.4988  0.2079  0.0593
  701SOL     OW 2101   2.566   2.922   2.735  0.0868  0.1783  0.7030
  701SOL    HW1 2102   2.570   2.875   2.645 -0.9370 -0.8817 -1.1277
  701SOL    HW2 2103   2.648   2.989   2.743  2.5163  2.5506  0.3246
  702SOL     OW 2104   1.074   0.256   0.359  0.2088  0.3006  0.3028
  702SOL    HW1 2105   1.137   0.176   0.379  2.5748 -0.4891  1.2733
  702SOL    HW2 2106   1.002   0.258   0.429 -0.7322  1.4637  1.8675
  703SOL     OW 2107   2.579   0.067   2.304  0.0480 -1.0527  0.6248
  703SOL    HW1 2108   2.540   0.033   2.216 -1.7909 -0.0625 -1.7554
  703SOL    HW2 2109   2.614   0.162   2.294  1.5787 -0.7237 -1.9127
  704SOL     OW 2110   0.059   1.715   0.689 -0.8071  0.3945  0.0030
  704SOL    HW1 2111   0.030   1.674   0.602  1.1576 -0.0846 -1.2843
  704SOL    HW2 2112   0.054   1.814   0.689  1.0918  0.3749  1.8208
  705SOL     OW 2113   3.054   2.955   2.154  0.3218 -0.0732 -0.5492
  705SOL    HW1 2114   3.065   3.058   2.157  0.0157  2.7337 -1.9034
  705SOL    HW2 2115   0.034   2.909   2.223  0.3648  1.0921 -0.1994
  706SOL     OW 2116   2.381   2.640   0.712 -0.2604  0.0627 -0.0603
  706SOL    HW1 2117   2.478   2.611   0.716 -1.1587  1.9146 -1.2194
  706SOL    HW2 2118   2.327   2.567   0.760  0.0422 -2.8745 -1.6389
  707SOL     OW 2119   0.978   2.134   1.466 -0.5875  0.0033  0.1555
  707SOL    HW1 2120   0.884   2.131   1.502 -1.5375  1.4987  3.4193
  707SOL    HW2 2121   0.984   2.111   1.364  1.0383  0.1998 -3.1553
  708SOL     OW 2122   0.007   2.287   1.780  0.3226 -0.0920 -0.0653
  708SOL    HW1 2123   0.052   2.338   1.703  0.2643  1.1766  1.1515
  708SOL    HW2 2124   0.084   2.253   1.842  1.3702  0.3156 -0.0622
  709SOL     OW 2125   2.124   3.058   2.019  0.6454 -0.5494  0.1975
  709SOL    HW1 2126   2.128   0.033   2.109 -2.9836  1.7285 -0.4463
  709SOL    HW2 2127   2.204   0.004   1.962 -1.3644  0.1508  1.0135
  710SOL     OW 2128   1.757   0.951   2.559  0.2490 -0.3231 -0.3233
  710SOL    HW1 2129   1.788   0.896   2.639 -1.0527 -3.2943  0.7001
  710SOL    HW2 2130   1.830   0.942   2.487 -1.2301  0.2316  0.2118
  711SOL     OW 2131   0.997   2.236   3.027 -0.0906  0.4991 -0.1141
  711SOL    HW1 2132   0.998   2.293   2.946 -2.6038 -1.4999 -2.2343
  711SOL    HW2 2133   0.901   2.199   3.035 -0.1782  0.2955 -0.4064
  712SOL     OW 2134   0.586   2.351   2.599  0.3885 -0.0648 -0.0133
  712SOL    HW1 2135   0.666   2.305   2.556 -0.4374  2.3817  0.8201
  712SOL    HW2 2136   0.500   2.306   2.576  2.9766 -1.1280 -1.8556
  713SOL     OW 2137   1.853   1.370   2.955 -0.7379 -0.1064  0.3830
  713SOL    HW1 2138   1.902   1.457   2.942  0.3261  1.1241  0.3009
  713SOL    HW2 2139   1.830   1.354   3.050  0.5167 -0.4753 -1.1460
  714SOL     OW 2140   1.162   1.601   1.230 -0.6867  0.7949 -0.0558
  714SOL    HW1 2141   1.257   1.621   1.198  0.7687  2.7692 -1.0160
  714SOL    HW2 2142   1.142   1.656   1.313  0.5703 -0.0257  1.3953
  715SOL     OW 2143   1.625   0.239   0.037 -0.6533 -0.5995  0.2261
  715SOL    HW1 2144   1.710   0.282   3.068  1.7407  0.5672  1.2634
  715SOL    HW2 2145   1.622   0.279   0.134  1.6871  1.9798  1.0755
  716SOL     OW 2146   0.212   2.610   2.137  0.0460  0.0763 -0.0492
  716SOL    HW1 2147   0.118   2.645   2.120  0.9855 -0.6395 -2.2491
  716SOL    HW2 2148   0.221   2.605   2.236 -2.9305  0.3586 -1.3425
  717SOL     OW 2149   2.966   0.701   1.084 -0.2086  0.0715 -0.0430
  717SOL    HW1 2150   3.002   0.782   1.136 -0.6542  0.3430  0.0844
  717SOL    HW2 2151   2.904   0.649   1.146  0.3879 -0.8549 -0.4116
  718SOL     OW 2152   0.705   1.273   2.340  0.3336  1.0660 -0.1450
  718SOL    HW1 2153   0.627   1.331   2.372  0.0251  1.4613  1.6420
  718SOL    HW2 2154   0.741   1.304   2.250  0.5426  0.3168 -2.5579
  719SOL     OW 2155   2.159   1.042   3.057 -0.0978  0.2354  0.0648
  719SOL    HW1 2156   2.061   1.059   3.027 -4.9351 -1.7361  2.0119
  719SOL    HW2 2157   2.224   1.080   2.987 -0.2916 -2.5209  0.0712
  720SOL     OW 2158   0.898   0.895   1.077 -0.0073 -0.3190 -0.8165
  720SOL    HW1 2159   0.933   0.952   1.157 -0.4402  1.9866 -0.8691
  720SOL    HW2 2160   0.862   0.809   1.110  2.0863  2.9698 -0.1388
  721SOL     OW 2161   2.602   0.236   0.444  0.9740 -0.5554  0.3685
  721SOL    HW1 2162   2.652   0.321   0.444 -2.1436 -4.0783  1.0300
  721SOL    HW2 2163   2.647   0.160   0.489  0.2753  2.1331 -0.7891
  722SOL     OW 2164   1.961   0.802   2.725 -0.0175  0.1189  0.0002
  722SOL    HW1 2165   2.058   0.828   2.749  2.3406 -0.1696 -0.1083
  722SOL    HW2 2166   1.915   0.784   2.812  2.5176  0.7960 -1.7396
  723SOL     OW 2167   2.410   0.401   0.596 -0.3740  0.1672 -0.1224
  723SOL    HW1 2168   2.452   0.324   0.541 -2.4961  0.9600  1.6774
  723SOL    HW2 2169   2.316   0.409   0.556  1.0946  0.0791  0.3382
  724SOL     OW 2170   0.720   1.614   1.953  0.4110  0.5391 -0.4724
  724SOL    HW1 2171   0.651   1.567   2.012 -1.2778 -2.2934  1.0940
  724SOL    HW2 2172   0.701   1.598   1.854 -1.6312 -0.1915 -0.6668
  725SOL     OW 2173   1.784   0.343   1.333  0.1986 -0.0197  0.5101
  725SOL    HW1 2174   1.727   0.426   1.321 -0.1930 -1.2612 -1.5282
  725SOL    HW2 2175   1.829   0.323   1.240  2.6135  0.8328 -2.5251
  726SOL     OW 2176   1.957   2.686   0.420 -0.1413 -0.0159  0.9062
  726SOL    HW1 2177   2.055   2.674   0.447  2.7292  1.2341 -0.4392
  726SOL    HW2 2178   1.926   2.592   0.394 -0.5886 -0.8812 -0.2037
  727SOL     OW 2179   1.795   1.679   1.946  0.7362 -0.8427 -0.5759
  727SOL    HW1 2180   1.883   1.719   1.972  3.0117  0.9436  0.5902
  727SOL    HW2 2181   1.814   1.580   1.931 -0.0611 -2.2916  0.8473
  728SOL     OW 2182   2.052   2.849   1.581 -0.4348 -0.7213  0.0228
  728SOL    HW1 2183   2.017   2.899   1.502 -1.1434 -2.1684 -0.5574
  728SOL    HW2 2184   2.051   2.750   1.560  0.3178 -0.7492 -2.6785
  729SOL     OW 2185   2.403   1.495   0.777 -0.0802  0.2360 -0.2053
  729SOL    HW1 2186   2.307   1.473   0.742 -0.1298 -1.0812 -2.7568
  729SOL    HW2 2187   2.428   1.576   0.734 -0.4510 -0.8966  0.8229
  730SOL     OW 2188   0.670   1.154   2.593  0.4044  0.3265 -0.0216
  730SOL    HW1 2189   0.587   1.189   2.637 -1.4318 -3.9769  0.6231
  730SOL    HW2 2190   0.685   1.215   2.509 -0.4539  2.6374 -4.0847
  731SOL     OW 2191   0.040   0.160   0.982  0.0544 -0.2798 -0.4228
  731SOL    HW1 2192   0.078   0.217   0.905  2.1729 -0.3073 -2.9954
  731SOL    HW2 2193   0.117   0.112   1.029 -0.0941 -2.7856 -0.7467
  732SOL     OW 2194   1.406   0.825   0.245  0.2706 -0.3342  0.2186
  732SOL    HW1 2195   1.378   0.836   0.341  1.1719 -2.7043 -0.5282
  732SOL    HW2 2196   1.392   0.727   0.216  1.3692  2.8446  1.8071
  733SOL     OW 2197   0.420   1.913   0.851  0.0565 -0.1872  0.3719
  733SOL    HW1 2198   0.516   1.949   0.864 -1.5232  0.0333  0.2788
  733SOL    HW2 2199   0.416   1.832   0.788 -0.9830 -0.1187  2.3284
  734SOL     OW 2200   0.082   2.353   0.455 -0.0505 -0.3668  0.4381
  734SOL    HW1 2201   0.113   2.436   0.405 -1.7608 -0.6490 -0.8809
  734SOL    HW2 2202   0.015   2.382   0.522  0.5127 -1.7226  2.3870
  735SOL     OW 2203   1.201   0.222   1.070  0.1382  0.3696 -0.3200
  735SOL    HW1 2204   1.186   0.143   1.131  1.1806 -1.3915 -0.4419
  735SOL    HW2 2205   1.299   0.237   1.056  0.7253 -2.9572  2.7379
  736SOL     OW 2206   1.995   2.480   0.142 -0.0443 -0.1795  0.1884
  736SOL    HW1 2207   2.013   2.431   0.055  0.1338  0.1313 -0.6198
  736SOL    HW2 2208   1.908   2.448   0.188 -2.9347  0.9987  1.9453
  737SOL     OW 2209   0.180   0.818   0.970  0.1679  0.1739  0.3138
  737SOL    HW1 2210   0.082   0.785   0.964 -2.8573 -1.8916  0.6279
  737SOL    HW2 2211   0.208   0.881   0.894 -1.6224  0.6087  1.1574
  738SOL     OW 2212   2.738   2.951   1.684 -0.3729 -0.5583  0.3378
  738SOL    HW1 2213   2.723   2.879   1.753 -1.5824  1.2729 -0.1388
  738SOL    HW2 2214   2.777   3.031   1.736  0.8116 -0.3678 -0.9919
  739SOL     OW 2215   1.465   2.430   2.817  0.2570 -0.0937 -0.1275
  739SOL    HW1 2216   1.458   2.392   2.724 -1.8105  0.4114 -0.8612
  739SOL    HW2 2217   1.455   2.354   2.892 -2.5223  0.0995  1.6038
  740SOL     OW 2218   1.465   0.212   1.057 -0.3013 -0.4879  0.3584
  740SOL    HW1 2219   1.502   0.187   1.145 -1.3277 -0.0159 -2.4061
  740SOL    HW2 2220   1.512   0.150   0.991 -0.4928  0.9159  2.7837
  741SOL     OW 2221   2.807   0.791   0.664 -0.2055 -0.5200 -0.5911
  741SOL    HW1 2222   2.721   0.818   0.618  1.5694 -2.9937  0.9854
  741SOL    HW2 2223   2.789   0.736   0.748  4.1434 -0.4428  0.2554
  742SOL     OW 2224   0.585   1.472   2.496 -0.5769 -0.4708 -0.6555
  742SOL    HW1 2225   0.678   1.483   2.543  1.4518 -0.6839  0.4699
  742SOL    HW2 2226   0.526   1.558   2.498  0.8689  0.2344 -0.4661
  743SOL     OW 2227   1.360   0.630   1.938  0.3273 -0.0552  0.5489
  743SOL    HW1 2228   1.459   0.594   1.925  1.4137  1.6681  2.3044
  743SOL    HW2 2229   1.324   0.608   2.029 -0.5850  1.2867 -1.6079
  744SOL     OW 2230   2.011   0.811   1.373 -0.0544  0.1417  0.0923
  744SOL    HW1 2231   2.079   0.874   1.344  1.0157 -1.9109  0.1778
  744SOL    HW2 2232   1.954   0.869   1.436  1.8944 -0.8259  0.3533
  745SOL     OW 2233   1.132   1.461   1.805  0.4820 -0.1875 -0.3652
  745SOL    HW1 2234   1.131   1.437   1.704  2.1998  0.0778 -0.8603
  745SOL    HW2 2235   1.211   1.420   1.854  0.0705  2.5751  1.4510
  746SOL     OW 2236   2.026   1.723   0.864  0.0394  0.1101  0.5090
  746SOL    HW1 2237   2.085   1.771   0.929  0.2992 -0.6801 -1.1681
  746SOL    HW2 2238   2.072   1.646   0.821 -0.5986  0.9098 -0.9566
  747SOL     OW 2239   2.375   1.528   1.066 -0.2072 -0.2290 -0.2486
  747SOL    HW1 2240   2.362   1.510   0.968 -0.1977  0.6982 -1.3462
  747SOL    HW2 2241   2.432   1.605   1.093 -0.3678  1.1925 -0.4344
  748SOL     OW 2242   0.669   1.997   0.770 -0.4624 -0.5124 -0.1514
  748SOL    HW1 2243   0.715   2.089   0.764 -0.6355  1.5447  0.6149
  748SOL    HW2 2244   0.734   1.924   0.794  1.2517 -1.5390 -1.1688
  749SOL     OW 2245   2.320   2.844   2.297  0.5759 -0.4094  0.8064
  749SOL    HW1 2246   2.236   2.857   2.241 -1.0305  2.8336 -0.5003
  749SOL    HW2 2247   2.317   2.773   2.367  1.0365  0.8648 -1.5930
  750SOL     OW 2248   2.320   0.431   0.853  0.2342  0.4282 -0.2791
  750SOL    HW1 2249   2.364   0.413   0.762 -0.3864 -0.7037  0.4712
  750SOL    HW2 2250   2.222   0.444   0.845  3.2322 -2.0100 -0.3020
  751SOL     OW 2251   2.664   2.619   0.402  0.7995  0.4707 -0.1944
  751SOL    HW1 2252   2.671   2.548   0.326  1.7516 -5.5800 -1.0147
  751SOL    HW2 2253   2.586   2.680   0.387  2.1669 -1.6604  4.1662
  752SOL     OW 2254   2.953   3.008   0.868 -0.2525  0.2208 -0.6871
  752SOL    HW1 2255   3.026   2.938   0.864 -1.4366 -2.0789 -0.6363
  752SOL    HW2 2256   2.969   0.013   0.933 -0.2598  0.4130  0.2401
  753SOL     OW 2257   1.592   0.966   2.267 -0.0339 -0.7693 -0.0907
  753SOL    HW1 2258   1.596   1.038   2.202  1.8984 -1.2493  3.2885
  753SOL    HW2 2259   1.527   0.888   2.249 -1.4821 -2.3885  0.7244
  754SOL     OW 2260   1.595   2.053   1.809  0.5090  0.3093  0.1629
  754SOL    HW1 2261   1.573   2.103   1.720  2.0900 -0.8431 -2.4087
  754SOL    HW2 2262   1.641   1.969   1.783 -2.0905  0.9644 -0.2535
  755SOL     OW 2263   2.614   0.707   0.871  0.4922  0.2837 -0.2133
  755SOL    HW1 2264   2.571   0.661   0.955 -1.8636 -0.2606  0.6067
  755SOL    HW2 2265   2.558   0.792   0.851 -2.3254 -1.2497 -1.2193
  756SOL     OW 2266   0.805   1.492   2.632  0.3634  0.1047 -0.4582
  756SOL    HW1 2267   0.816   1.397   2.669 -1.1807  0.6229 -1.1840
  756SOL    HW2 2268   0.862   1.550   2.689  2.1650 -0.8983  1.1053
  757SOL     OW 2269   1.251   2.552   0.772  0.5813  0.4108 -0.0861
  757SOL    HW1 2270   1.189   2.606   0.833 -0.5913 -0.8300 -1.0903
  757SOL    HW2 2271   1.334   2.602   0.749 -0.2685  0.0961 -0.8544
  758SOL     OW 2272   0.936   2.765   1.411  0.0084  0.6982  0.0276
  758SOL    HW1 2273   0.942   2.830   1.329  0.9460  1.3595 -1.8924
  758SOL    HW2 2274   0.909   2.817   1.492 -0.2741 -2.0259 -4.2875
  759SOL     OW 2275   0.148   0.659   0.633  0.0746 -0.2665  0.4153
  759SOL    HW1 2276   0.099   0.638   0.715  2.7345 -0.4377 -4.5953
  759SOL    HW2 2277   0.078   0.656   0.558 -0.5234 -2.3726 -2.8377
  760SOL     OW 2278   2.365   1.154   1.159 -0.9511 -0.2691  0.3359
  760SOL    HW1 2279   2.441   1.128   1.099 -0.7927  0.0239  0.1532
  760SOL    HW2 2280   2.389   1.235   1.219  1.1288  0.2025  0.5708
  761SOL     OW 2281   1.722   0.259   0.762  0.2918  0.1408 -0.1206
  761SOL    HW1 2282   1.658   0.189   0.799 -0.2691 -2.2514 -1.7627
  761SOL    HW2 2283   1.806   0.267   0.816 -1.9207  1.0292 -1.2861
  762SOL     OW 2284   2.291   1.993   0.199  0.5338 -0.5511 -0.2745
  762SOL    HW1 2285   2.328   1.922   0.258  0.5459  0.8111 -0.7216
  762SOL    HW2 2286   2.358   2.024   0.130 -1.5917 -2.9408  1.6086
  763SOL     OW 2287   0.769   1.483   1.405 -0.0076 -0.2252 -0.4989
  763SOL    HW1 2288   0.705   1.455   1.481  0.2552 -0.6291 -0.4132
  763SOL    HW2 2289   0.758   1.582   1.388 -1.9368  0.8551  0.0631
  764SOL     OW 2290   2.574   2.191   2.372 -0.0297 -0.2465  0.7631
  764SOL    HW1 2291   2.496   2.193   2.304 -2.5812  2.3612  1.4886
  764SOL    HW2 2292   2.620   2.104   2.394  1.3705 -0.5864 -1.7632
  765SOL     OW 2293   0.565   2.532   1.111  0.2473 -0.4964  0.3250
  765SOL    HW1 2294   0.646   2.541   1.049 -2.9992  2.0937 -2.0155
  765SOL    HW2 2295   0.484   2.548   1.051  0.6074  1.2058 -0.0344
  766SOL     OW 2296   2.959   1.930   2.444  0.3157  0.4652 -0.2517
  766SOL    HW1 2297   2.978   1.855   2.514 -0.0238 -2.2052  0.7439
  766SOL    HW2 2298   3.042   1.994   2.438  1.4342  2.3394  1.4498
  767SOL     OW 2299   2.318   1.012   2.622  1.0936 -0.0447  0.5022
  767SOL    HW1 2300   2.384   0.998   2.549  0.2979  4.1066  3.4428
  767SOL    HW2 2301   2.296   0.927   2.678 -0.7406  1.1153 -0.3795
  768SOL     OW 2302   1.357   0.286   2.527  0.1161  0.4096  0.4174
  768SOL    HW1 2303   1.317   0.376   2.509  2.0504 -2.1044 -1.6735
  768SOL    HW2 2304   1.323   0.245   2.613  1.6491  1.2377 -0.9284
  769SOL     OW 2305   0.039   2.409   1.112  0.3014  0.0456 -0.3941
  769SOL    HW1 2306   0.062   2.429   1.012 -0.7205 -0.1963  1.9069
  769SOL    HW2 2307   0.127   2.399   1.162 -2.0149  1.4049 -1.0641
  770SOL     OW 2308   0.573   0.417   0.100 -0.4374  0.2395  0.0246
  770SOL    HW1 2309   0.580   0.505   0.046  1.6609 -0.5217 -1.0167
  770SOL    HW2 2310   0.648   0.423   0.171 -1.5713 -1.8020  1.6911
  771SOL     OW 2311   1.106   1.828   2.516 -0.1049 -0.2920 -0.2207
  771SOL    HW1 2312   1.093   1.788   2.422  0.0704 -1.2846 -2.6470
  771SOL    HW2 2313   1.160   1.771   2.579 -0.8059  0.2998  0.0213
  772SOL     OW 2314   2.118   0.132   2.246  0.3495  0.1390 -0.2342
  772SOL    HW1 2315   2.189   0.132   2.320 -0.9560  0.1866 -0.9549
  772SOL    HW2 2316   2.027   0.120   2.293 -2.7430 -0.2997 -0.4245
  773SOL     OW 2317   1.645   0.730   1.729 -0.1438 -0.1960  0.3756
  773SOL    HW1 2318   1.642   0.674   1.642 -0.1053 -2.2474 -3.9277
  773SOL    HW2 2319   1.645   0.667   1.806 -0.3738  0.8034 -2.2680
  774SOL     OW 2320   1.248   0.535   1.258  0.4177  0.2648  0.1047
  774SOL    HW1 2321   1.273   0.515   1.164 -0.3139  2.4835 -2.7098
  774SOL    HW2 2322   1.225   0.632   1.259 -2.7682  0.0364  0.0720
  775SOL     OW 2323   2.019   2.699   3.036 -0.0652 -0.5593 -0.3723
  775SOL    HW1 2324   1.999   2.624   0.031  1.0695  2.8031  1.3790
  775SOL    HW2 2325   2.022   2.665   2.941  1.2527  1.4124  0.7526
  776SOL     OW 2326   1.798   0.959   1.521 -0.1785  0.0422 -0.0718
  776SOL    HW1 2327   1.715   1.003   1.481  1.3770  2.1549 -0.9344
  776SOL    HW2 2328   1.814   0.969   1.621  0.2790 -1.9832 -1.0864
  777SOL     OW 2329   0.106   1.398   2.154  0.0966  0.1074 -0.1216
  777SOL    HW1 2330   0.032   1.326   2.139  1.1150 -1.4808  2.5549
  777SOL    HW2 2331   0.138   1.450   2.076 -0.1926 -0.3779  1.8832
  778SOL     OW 2332   2.703   1.076   2.601  0.3263  0.6598  0.3826
  778SOL    HW1 2333   2.792   1.028   2.621 -0.2796  0.0158 -1.8959
  778SOL    HW2 2334   2.730   1.174   2.583  0.6262  2.2412 -0.3436
  779SOL     OW 2335   2.882   0.571   2.934  0.3782  0.1066 -0.0541
  779SOL    HW1 2336   2.990   0.565   2.936  2.4130  0.6819  2.2579
  779SOL    HW2 2337   2.846   0.604   3.023 -1.2131 -2.1582 -0.4700
  780SOL     OW 2338   2.368   2.546   2.424  0.7832 -0.4897 -0.5714
  780SOL    HW1 2339   2.420   2.528   2.342  2.2065  2.9049 -0.0678
  780SOL    HW2 2340   2.290   2.485   2.438  0.4564  0.4649  2.5686
  781SOL     OW 2341   2.992   1.016   1.872  0.2376  0.1657  0.5048
  781SOL    HW1 2342   2.949   0.924   1.884  2.5391  0.5776 -2.0634
  781SOL    HW2 2343   2.964   1.048   1.779  0.2060 -2.9455 -1.2058
  782SOL     OW 2344   1.416   2.327   2.563  0.5693  0.4151 -0.0931
  782SOL    HW1 2345   1.469   2.244   2.548  1.0895  3.2841 -1.0265
  782SOL    HW2 2346   1.316   2.314   2.549 -2.5706 -4.3973  1.0201
  783SOL     OW 2347   0.915   2.370   0.923  0.2444  0.1775 -0.2027
  783SOL    HW1 2348   0.981   2.332   0.990 -2.2632 -3.5214  0.8221
  783SOL    HW2 2349   0.891   2.466   0.958  0.9535  2.7208 -0.7413
  784SOL     OW 2350   2.061   0.480   2.444  0.1333  0.7138  0.0625
  784SOL    HW1 2351   2.031   0.405   2.507  0.1400  1.5750  1.4775
  784SOL    HW2 2352   2.090   0.446   2.352  2.1335 -2.2183 -4.1921
  785SOL     OW 2353   0.132   0.191   1.360 -0.5543 -0.2341  0.0201
  785SOL    HW1 2354   0.141   0.090   1.353  2.7684  1.6571 -2.8931
  785SOL    HW2 2355   0.211   0.237   1.411 -0.2271  3.5022  0.8632
  786SOL     OW 2356   1.442   2.240   3.031  0.5324 -0.0921  0.0005
  786SOL    HW1 2357   1.512   2.191   0.016 -0.4570  0.2502 -1.9120
  786SOL    HW2 2358   1.378   2.301   0.007  2.2864  0.0634 -0.6158
  787SOL     OW 2359   1.116   0.065   0.794 -0.1608  0.7092  0.6222
  787SOL    HW1 2360   1.045   0.066   0.869 -0.5495 -0.2716 -0.6494
  787SOL    HW2 2361   1.164   0.154   0.803 -1.3660 -1.2713 -0.6140
  788SOL     OW 2362   0.143   1.334   1.272 -0.0257 -0.3265 -0.4189
  788SOL    HW1 2363   0.054   1.329   1.224 -0.6214 -2.4741 -0.1765
  788SOL    HW2 2364   0.136   1.283   1.356 -0.6786  2.4301 -3.2080
  789SOL     OW 2365   2.664   1.011   2.209 -0.5063 -0.9691  0.0743
  789SOL    HW1 2366   2.635   1.081   2.145 -1.6506 -3.4352 -0.1781
  789SOL    HW2 2367   2.752   1.041   2.250 -1.2390  1.6820  0.6265
  790SOL     OW 2368   1.259   0.641   2.741 -0.1720 -0.2760  0.2907
  790SOL    HW1 2369   1.232   0.710   2.812  0.2502  0.7414  1.1212
  790SOL    HW2 2370   1.188   0.565   2.741  1.0657 -1.8956 -0.3563
  791SOL     OW 2371   0.164   2.575   0.345 -0.3340 -0.2615 -0.2145
  791SOL    HW1 2372   0.148   2.669   0.384 -1.2614 -2.3572  1.1404
  791SOL    HW2 2373   0.265   2.568   0.317 -2.7768  1.2919 -0.0084
  792SOL     OW 2374   1.231   0.857   1.864 -0.6631  0.6464 -0.1634
  792SOL    HW1 2375   1.273   0.764   1.883  2.9449 -0.9412 -0.8379
  792SOL    HW2 2376   1.222   0.870   1.763 -0.3391  1.3075  2.2236
  793SOL     OW 2377   2.677   0.348   1.140  0.3085  0.7728  0.1683
  793SOL    HW1 2378   2.758   0.342   1.079 -0.3431 -1.2550  0.8908
  793SOL    HW2 2379   2.643   0.252   1.164 -2.8156 -2.6461  0.1927
  794SOL     OW 2380   3.021   0.352   2.415 -0.2683  0.3440  0.4521
  794SOL    HW1 2381   2.981   0.419   2.480  0.3601 -0.5652 -1.0459
  794SOL    HW2 2382   0.016   0.400   2.357 -1.5165  1.0345 -1.3930
  795SOL     OW 2383   0.512   1.384   0.199  0.1345 -0.1361  0.2612
  795SOL    HW1 2384   0.521   1.358   0.298  1.2488 -0.6088  1.0956
  795SOL    HW2 2385   0.453   1.462   0.194  3.2085 -4.1745  2.1987
  796SOL     OW 2386   2.805   0.816   2.776  0.3095 -0.6432  0.5263
  796SOL    HW1 2387   2.821   0.724   2.820  2.7128 -1.0136  0.8365
  796SOL    HW2 2388   2.783   0.810   2.675 -0.0871  1.3321 -2.8343
  797SOL     OW 2389   2.333   0.025   2.400  0.2009 -0.5819  0.6622
  797SOL    HW1 2390   2.430   0.050   2.377 -1.6767  2.6542  2.7583
  797SOL    HW2 2391   2.315   3.001   2.365 -1.9218 -1.8369 -2.3966
  798SOL     OW 2392   0.042   2.964   1.170  0.3033 -0.4825  0.3303
  798SOL    HW1 2393   0.007   2.883   1.117  2.4784 -1.6201  1.8003
  798SOL    HW2 2394   3.040   3.017   1.214  0.9737 -0.4306 -0.7141
  799SOL     OW 2395   2.784   0.911   1.455 -0.2472  0.4209 -0.4099
  799SOL    HW1 2396   2.744   0.893   1.361  1.1499 -1.8857  2.4740
  799SOL    HW2 2397   2.727   0.883   1.536  0.1567 -0.2168 -0.3896
  800SOL     OW 2398   0.520   1.330   0.481  0.0963  0.0209  0.0576
  800SOL    HW1 2399   0.505   1.228   0.468  1.4885 -2.6009  0.5707
  800SOL    HW2 2400   0.433   1.380   0.501  1.2471 -0.2253  1.1440
  801SOL     OW 2401   1.897   1.814   0.390 -0.3736 -0.2407 -0.3127
  801SOL    HW1 2402   1.961   1.821   0.307  1.5986 -2.8723 -2.0036
  801SOL    HW2 2403   1.820   1.748   0.368  0.9850  0.6077  1.1878
  802SOL     OW 2404   1.210   1.223   2.851 -0.0197 -0.0475 -0.1856
  802SOL    HW1 2405   1.283   1.295   2.856  0.6085  0.7636  0.4813
  802SOL    HW2 2406   1.237   1.136   2.804  2.1101  2.8554 -1.4362
  803SOL     OW 2407   1.068   1.771   1.428 -0.0551 -0.4201  0.1673
  803SOL    HW1 2408   1.000   1.736   1.497 -1.5218 -1.4461  0.4798
  803SOL    HW2 2409   1.137   1.836   1.467 -0.1319  1.2366  1.9918
  804SOL     OW 2410   1.607   2.379   0.731 -0.0074 -0.0374 -0.4270
  804SOL    HW1 2411   1.671   2.299   0.733 -0.0714  0.2286  0.0944
  804SOL    HW2 2412   1.611   2.418   0.635  0.6771 -0.7713 -0.2817
  805SOL     OW 2413   2.931   2.451   2.525 -0.2467 -0.0915 -0.7929
  805SOL    HW1 2414   2.875   2.432   2.445  1.2818 -0.2834  4.9088
  805SOL    HW2 2415   2.988   2.370   2.544  1.0181  0.2120 -1.2091
  806SOL     OW 2416   2.990   0.131   0.427 -0.3173  0.4068 -0.0819
  806SOL    HW1 2417   2.915   0.072   0.387 -0.7659  1.6783 -0.9019
  806SOL    HW2 2418   3.069   0.070   0.458  1.0697 -0.3713  1.4271
  807SOL     OW 2419   2.218   0.802   2.805 -0.0197 -0.0954  0.0179
  807SOL    HW1 2420   2.214   0.710   2.768 -0.2683  1.8348  0.0109
  807SOL    HW2 2421   2.238   0.796   2.907  1.6163 -1.2534  1.4384
  808SOL     OW 2422   1.357   2.285   0.765 -0.3423 -0.0110  0.0981
  808SOL    HW1 2423   1.459   2.303   0.778  0.8614 -1.8560  0.1313
  808SOL    HW2 2424   1.303   2.366   0.792  1.2392 -1.6355  2.1440
  809SOL     OW 2425   2.672   0.046   0.169 -0.5042  0.0528 -0.2507
  809SOL    HW1 2426   2.725   3.066   0.099  2.1802  0.2885  0.5920
  809SOL    HW2 2427   2.668   0.145   0.136  2.1645  1.2556 -0.2609
  810SOL     OW 2428   1.244   1.153   0.715 -0.1123  0.0199  0.1075
  810SOL    HW1 2429   1.149   1.182   0.703 -0.3444 -0.3258  1.8164
  810SOL    HW2 2430   1.247   1.050   0.715 -0.5153  0.0358  1.0862
  811SOL     OW 2431   1.784   2.533   1.592 -0.0213  1.0064  0.5052
  811SOL    HW1 2432   1.703   2.585   1.561 -1.0054  1.2773  0.9379
  811SOL    HW2 2433   1.775   2.480   1.683  0.7247 -2.3591  3.4387
  812SOL     OW 2434   1.576   2.835   0.171  0.1232  0.2608 -0.6697
  812SOL    HW1 2435   1.535   2.850   0.264 -0.4578 -0.2657  2.6800
  812SOL    HW2 2436   1.603   2.925   0.139 -2.0803 -0.0467  2.7126
  813SOL     OW 2437   1.015   0.193   2.214  0.0898  0.1060 -0.2842
  813SOL    HW1 2438   0.985   0.136   2.137 -0.2361  0.3997  0.3156
  813SOL    HW2 2439   1.092   0.149   2.263 -0.9315  2.0279 -0.2402
  814SOL     OW 2440   0.242   3.028   1.032  0.4820 -0.5018 -0.0378
  814SOL    HW1 2441   0.162   2.987   1.079 -0.4124 -0.0602 -2.4460
  814SOL    HW2 2442   0.308   3.062   1.101  0.3977 -1.5990 -0.4896
  815SOL     OW 2443   0.244   2.644   0.733  0.8917  0.2833  0.0100
  815SOL    HW1 2444   0.173   2.715   0.724 -1.3061 -1.1959 -1.5403
  815SOL    HW2 2445   0.335   2.681   0.702 -0.1143  1.9484 -2.5505
  816SOL     OW 2446   2.582   1.585   2.670  0.6930 -0.1729 -0.2033
  816SOL    HW1 2447   2.487   1.549   2.692 -0.6295 -0.9067 -0.9633
  816SOL    HW2 2448   2.582   1.623   2.572  0.0025  2.4344 -0.7136
  817SOL     OW 2449   1.348   3.009   2.909 -0.8796 -0.6425 -0.0262
  817SOL    HW1 2450   1.332   0.014   2.971 -0.8346 -1.2052 -0.2998
  817SOL    HW2 2451   1.292   2.932   2.940 -0.5612  0.2670 -2.6022
  818SOL     OW 2452   1.632   1.012   0.272 -0.2319 -0.1405  0.4871
  818SOL    HW1 2453   1.706   1.047   0.330 -1.9433 -1.4337 -0.7778
  818SOL    HW2 2454   1.553   0.976   0.326 -2.7832 -1.5141 -1.2481
  819SOL     OW 2455   1.759   2.533   2.615 -0.3057  0.5042 -0.1954
  819SOL    HW1 2456   1.670   2.495   2.571 -1.1750 -1.0606 -2.7721
  819SOL    HW2 2457   1.732   2.622   2.661 -1.1388 -1.1764 -0.1836
  820SOL     OW 2458   1.009   0.635   0.228  0.0538 -0.1252  0.1427
  820SOL    HW1 2459   1.025   0.613   0.130 -3.4477  2.3922 -1.4428
  820SOL    HW2 2460   0.976   0.730   0.232 -3.0506 -1.3752  1.1294
  821SOL     OW 2461   0.482   0.588   1.332  0.7233 -0.1341 -0.4182
  821SOL    HW1 2462   0.549   0.662   1.350 -0.8587  0.1357 -0.9335
  821SOL    HW2 2463   0.410   0.631   1.271 -0.9422  3.1452 -2.3553
  822SOL     OW 2464   1.377   2.401   2.093 -0.6868 -1.0042  0.0721
  822SOL    HW1 2465   1.443   2.335   2.129 -1.3127  0.8680  0.0733
  822SOL    HW2 2466   1.330   2.358   2.011  0.8842  0.3690 -4.1625
  823SOL     OW 2467   0.616   1.088   1.995 -0.0715 -0.2415  0.1889
  823SOL    HW1 2468   0.703   1.127   1.957 -0.9159  1.4838 -1.5813
  823SOL    HW2 2469   0.611   1.078   2.098 -2.8649 -1.8205  0.7321
  824SOL     OW 2470   2.349   0.019   1.858 -0.0494  0.0536  0.1321
  824SOL    HW1 2471   2.307   3.051   1.773 -0.2149 -0.0297  0.6163
  824SOL    HW2 2472   2.403   0.104   1.848  1.2388  2.3764  2.1906
  825SOL     OW 2473   0.779   1.259   0.225  0.5944  0.1751 -0.3412
  825SOL    HW1 2474   0.845   1.188   0.177 -0.0104 -2.5741 -1.0532
  825SOL    HW2 2475   0.704   1.292   0.167 -0.8615  1.2903  0.6947
  826SOL     OW 2476   1.879   0.670   2.491 -0.0256  0.3850  0.0920
  826SOL    HW1 2477   1.911   0.720   2.575 -0.4708 -1.4680 -1.9690
  826SOL    HW2 2478   1.937   0.591   2.460 -1.9705 -1.2202  0.0163
  827SOL     OW 2479   0.404   2.223   2.794  0.0886 -0.5113 -0.3995
  827SOL    HW1 2480   0.506   2.246   2.812  2.1337  1.0334  2.5000
  827SOL    HW2 2481   0.388   2.199   2.695  1.3442 -1.1043  0.5673
  828SOL     OW 2482   2.774   0.220   1.423  0.4616  0.0595  0.1162
  828SOL    HW1 2483   2.684   0.255   1.402  0.6578 -1.2535 -1.0824
  828SOL    HW2 2484   2.844   0.278   1.381 -2.4523  0.2814 -1.9709
  829SOL     OW 2485   1.404   1.666   1.153 -0.5450 -0.2482  0.6622
  829SOL    HW1 2486   1.484   1.653   1.215  0.4819 -2.2054 -3.3223
  829SOL    HW2 2487   1.433   1.640   1.057  1.5607 -1.2788  0.2792
  830SOL     OW 2488   0.427   0.978   1.624 -0.0090 -0.2697 -0.0739
  830SOL    HW1 2489   0.396   0.962   1.531  0.4158  0.1480  1.6695
  830SOL    HW2 2490   0.345   0.955   1.686 -3.5175  1.4567  1.4914
  831SOL     OW 2491   0.418   1.649   0.182 -0.1636 -0.1083  0.1890
  831SOL    HW1 2492   0.337   1.626   0.130  3.6351 -1.6595  2.1924
  831SOL    HW2 2493   0.440   1.751   0.160  3.4386 -1.3593  0.7223
  832SOL     OW 2494   0.963   0.131   2.794  0.6580  0.6118 -0.0995
  832SOL    HW1 2495   0.939   0.073   2.872 -1.3942 -1.1884 -1.1244
  832SOL    HW2 2496   0.884   0.183   2.757 -1.2605 -2.6172  0.6004
  833SOL     OW 2497   3.060   0.682   1.937  0.8208  0.7819 -0.5237
  833SOL    HW1 2498   0.062   0.682   1.868 -0.0293  0.6555 -1.9431
  833SOL    HW2 2499   2.976   0.723   1.898  0.9344  0.3482  0.1831
  834SOL     OW 2500   0.262   0.643   1.163 -0.2895 -0.3451 -0.5910
  834SOL    HW1 2501   0.236   0.731   1.125 -1.6492  3.3608  0.7555
  834SOL    HW2 2502   0.216   0.560   1.126  0.3098  3.0134  0.5633
  835SOL     OW 2503   2.652   2.735   1.078 -0.3293  0.1012  0.1952
  835SOL    HW1 2504   2.684   2.793   0.996 -1.7631 -0.4152 -1.4152
  835SOL    HW2 2505   2.723   2.720   1.148  0.0431 -0.3892  0.0945
  836SOL     OW 2506   0.392   1.979   2.919  0.2869  0.4252 -0.1142
  836SOL    HW1 2507   0.407   1.990   3.022  0.9695  0.4580  1.3120
  836SOL    HW2 2508   0.438   2.056   2.858  1.2422  3.2785 -2.7099
  837SOL     OW 2509   1.942   2.143   2.591 -0.4159  0.5941  0.6322
  837SOL    HW1 2510   1.864   2.164   2.649  0.0617  2.0413 -0.3969
  837SOL    HW2 2511   1.940   2.194   2.503 -1.3416  0.2789 -0.9451
  838SOL     OW 2512   3.031   1.191   2.078  0.0180  0.9056 -0.3238
  838SOL    HW1 2513   2.957   1.155   2.142  0.2829 -1.3199 -0.4855
  838SOL    HW2 2514   3.042   1.133   1.997  0.9496 -0.8107 -1.3146
  839SOL     OW 2515   0.956   0.903   0.269  0.1820 -0.3279  0.4818
  839SOL    HW1 2516   0.860   0.871   0.237 -4.1831 -0.8234  1.1503
  839SOL    HW2 2517   0.985   0.982   0.211 -0.9377  2.6172  2.6138
  840SOL     OW 2518   1.506   0.595   0.498  0.1768 -0.2628  0.3544
  840SOL    HW1 2519   1.489   0.695   0.508 -3.6471 -0.3008 -0.4161
  840SOL    HW2 2520   1.428   0.542   0.540 -0.1713 -1.9214  0.6691
  841SOL     OW 2521   0.473   2.747   0.684 -0.0884 -0.1174  0.1869
  841SOL    HW1 2522   0.470   2.797   0.767  1.1208 -0.2436 -0.6407
  841SOL    HW2 2523   0.569   2.709   0.660  2.1261 -1.5873  0.7223
  842SOL     OW 2524   0.434   0.200   0.199  0.0878  0.0570 -0.4366
  842SOL    HW1 2525   0.375   0.130   0.157  1.3444  0.9529  3.0806
  842SOL    HW2 2526   0.453   0.280   0.140 -1.2548  0.0469  2.3384
  843SOL     OW 2527   0.364   0.482   1.695  0.3354  0.7441  0.1190
  843SOL    HW1 2528   0.457   0.521   1.694 -1.5512 -2.1988  1.3414
  843SOL    HW2 2529   0.353   0.430   1.783  2.3325  3.0140 -0.9081
  844SOL     OW 2530   1.674   2.553   2.915 -0.4072 -0.5181  0.4011
  844SOL    HW1 2531   1.714   2.610   2.841  0.5140  3.1380 -2.4120
  844SOL    HW2 2532   1.591   2.509   2.875  1.9226  1.4836  0.4120
  845SOL     OW 2533   2.593   2.752   2.092 -0.6670 -0.0154  0.7715
  845SOL    HW1 2534   2.663   2.758   2.018 -2.9380  2.1943  2.0352
  845SOL    HW2 2535   2.623   2.792   2.179  0.8732 -1.5956 -2.7650
  846SOL     OW 2536   1.773   1.891   2.363 -0.6130  0.4587 -0.3440
  846SOL    HW1 2537   1.859   1.885   2.418  0.6354 -0.3349 -0.7817
  846SOL    HW2 2538   1.798   1.898   2.267  1.1296 -2.2876  2.4592
  847SOL     OW 2539   2.071   2.844   2.187 -0.4996  0.4413  0.2209
  847SOL    HW1 2540   2.004   2.772   2.167  1.5002 -2.2904 -0.4212
  847SOL    HW2 2541   2.081   2.905   2.105  0.9773  0.7133 -0.9244
  848SOL     OW 2542   0.240   2.845   0.379 -0.0913  0.2169  0.2391
  848SOL    HW1 2543   0.341   2.838   0.378  1.5698  0.2606 -1.4093
  848SOL    HW2 2544   0.213   2.860   0.284  0.5020  0.5419  2.1787
  849SOL     OW 2545   0.559   2.689   1.355  0.0195  0.7565 -0.5048
  849SOL    HW1 2546   0.631   2.648   1.416  0.8199 -1.1468  3.2390
  849SOL    HW2 2547   0.609   2.719   1.271  0.3267  1.7932  1.0701
  850SOL     OW 2548   0.314   1.160   0.918 -0.4355 -0.0507 -0.0390
  850SOL    HW1 2549   0.416   1.172   0.912 -0.8333  1.9672  1.4694
  850SOL    HW2 2550   0.266   1.243   0.884  2.4208  0.4382 -0.5759
  851SOL     OW 2551   0.091   0.480   2.899  0.3914 -0.3343  0.9829
  851SOL    HW1 2552   0.193   0.474   2.889  2.4315  2.3735 -0.0870
  851SOL    HW2 2553   0.041   0.392   2.874  1.6832 -1.3026  1.1411
  852SOL     OW 2554   1.322   1.792   2.114 -0.3942  0.2339 -0.3640
  852SOL    HW1 2555   1.366   1.724   2.050  1.9950  3.1956 -2.4306
  852SOL    HW2 2556   1.388   1.814   2.188  1.0974 -2.8987 -1.6114
  853SOL     OW 2557   0.549   1.955   0.523  0.7854 -0.2456 -0.1460
  853SOL    HW1 2558   0.608   1.972   0.604 -1.0780  2.3247 -1.0771
  853SOL    HW2 2559   0.596   1.999   0.444  2.4271 -0.6347  0.8145
  854SOL     OW 2560   1.582   1.019   1.356 -0.4053  0.3893  0.0176
  854SOL    HW1 2561   1.518   1.095   1.371 -0.4471 -1.6680 -3.0730
  854SOL    HW2 2562   1.623   1.018   1.265  0.7529 -0.1302  1.2338
  855SOL     OW 2563   0.483   1.890   0.125  0.3154  0.1727  0.0162
  855SOL    HW1 2564   0.585   1.902   0.107  0.6106  0.3706 -1.1413
  855SOL    HW2 2565   0.439   1.975   0.160  4.9594 -0.3030  3.5805
  856SOL     OW 2566   2.903   0.055   1.820 -0.0580 -0.2413 -0.4354
  856SOL    HW1 2567   2.949   3.035   1.820  1.5685 -0.4758 -0.3117
  856SOL    HW2 2568   2.835   0.069   1.896  0.7279  0.2335 -1.2209
  857SOL     OW 2569   0.333   0.287   1.897  0.1797 -0.0285 -0.0928
  857SOL    HW1 2570   0.275   0.218   1.943 -0.6965  2.6653 -0.7307
  857SOL    HW2 2571   0.356   0.362   1.968  1.1713  0.5940 -0.4472
  858SOL     OW 2572   2.759   1.955   2.160 -0.5379 -0.2628 -0.2722
  858SOL    HW1 2573   2.675   1.904   2.172  2.2736  1.1185  1.6432
  858SOL    HW2 2574   2.823   1.909   2.223 -1.2606  1.9073 -0.4724
  859SOL     OW 2575   2.242   2.679   0.478  0.0390 -0.1048  0.3029
  859SOL    HW1 2576   2.258   2.596   0.414 -2.2757 -2.0575 -2.7521
  859SOL    HW2 2577   2.301   2.667   0.562 -2.0981 -3.4318 -1.1362
  860SOL     OW 2578   1.616   0.316   0.291  0.1646 -0.0193 -0.6170
  860SOL    HW1 2579   1.652   0.382   0.362  0.0284  1.0639  0.0932
  860SOL    HW2 2580   1.588   0.228   0.339  1.0656 -2.3554  1.3523
  861SOL     OW 2581   0.397   0.371   0.903  0.4062 -0.0309 -0.4348
  861SOL    HW1 2582   0.442   0.458   0.874 -0.1074  1.9607  1.5517
  861SOL    HW2 2583   0.382   0.359   1.005  1.5727  0.6628  0.7075
  862SOL     OW 2584   2.057   0.563   1.477 -0.0523 -0.0602 -0.1224
  862SOL    HW1 2585   2.034   0.511   1.396 -1.1822 -0.1496  2.1227
  862SOL    HW2 2586   2.052   0.665   1.449 -0.3347  1.1845 -3.1110
  863SOL     OW 2587   0.554   1.610   1.225  0.1465 -0.2711  1.0380
  863SOL    HW1 2588   0.583   1.549   1.151  0.3737  1.3728 -0.1794
  863SOL    HW2 2589   0.630   1.675   1.254  0.7845  0.9260  0.1703
  864SOL     OW 2590   2.446   3.011   2.097  0.1945 -0.0927 -0.0993
  864SOL    HW1 2591   2.379   3.017   2.013  0.1275 -1.2342 -1.6634
  864SOL    HW2 2592   2.407   2.946   2.167 -0.9556 -0.9347  0.7172
  865SOL     OW 2593   1.695   0.363   1.701 -0.1869 -0.0830 -0.5617
  865SOL    HW1 2594   1.797   0.347   1.703  1.8419  1.7894  0.9021
  865SOL    HW2 2595   1.651   0.324   1.617 -0.5350  0.1368 -1.5142
  866SOL     OW 2596   2.727   2.836   0.834  0.3096 -0.1229 -0.5205
  866SOL    HW1 2597   2.809   2.897   0.855 -0.1306  2.0017  0.7030
  866SOL    HW2 2598   2.687   2.860   0.744 -0.6872  0.3330  1.7038
  867SOL     OW 2599   2.600   2.506   0.677 -0.3680 -0.0765  0.2448
  867SOL    HW1 2600   2.602   2.409   0.707  2.5124  1.8461  0.8300
  867SOL    HW2 2601   2.613   2.514   0.570 -1.5120  1.6887 -2.1818
  868SOL     OW 2602   1.516   1.846   2.537  0.2856  0.1889 -0.5275
  868SOL    HW1 2603   1.455   1.768   2.565 -0.8285  1.1621 -1.2596
  868SOL    HW2 2604   1.595   1.851   2.598  1.4003  1.0961 -1.6706
  869SOL     OW 2605   2.411   1.765   0.655  0.3632  0.0124 -0.0003
  869SOL    HW1 2606   2.378   1.711   0.574 -1.4747  2.1616 -2.0796
  869SOL    HW2 2607   2.367   1.857   0.649  3.2657  0.7156  0.7705
  870SOL     OW 2608   2.654   1.683   0.304 -0.2823 -0.2567  0.1006
  870SOL    HW1 2609   2.655   1.583   0.296 -0.3959  1.6126  0.1359
  870SOL    HW2 2610   2.712   1.727   0.234  0.4307 -3.8439  0.6408
  871SOL     OW 2611   2.989   0.722   1.569 -0.2875 -0.1511 -0.1862
  871SOL    HW1 2612   3.068   0.710   1.501  1.4989  1.0256  1.5466
  871SOL    HW2 2613   2.941   0.812   1.553 -3.6295  2.4766 -0.1630
  872SOL     OW 2614   0.555   1.965   2.424  0.0980  0.3997 -0.4924
  872SOL    HW1 2615   0.651   1.959   2.394 -1.3259 -1.5280 -1.7395
  872SOL    HW2 2616   0.534   1.876   2.471 -1.8969 -1.7425  0.4374
  873SOL     OW 2617   0.367   2.529   1.862  0.1704  0.2644  0.5562
  873SOL    HW1 2618   0.388   2.538   1.761  0.9147  0.9307 -0.5717
  873SOL    HW2 2619   0.436   2.587   1.911  0.0192 -0.9801  1.0047
  874SOL     OW 2620   1.178   0.829   2.119  0.0705 -0.0437 -0.7130
  874SOL    HW1 2621   1.148   0.915   2.167 -1.0485 -0.7299 -0.7535
  874SOL    HW2 2622   1.192   0.851   2.022  2.4261  0.1982  1.7299
  875SOL     OW 2623   2.819   2.680   1.304 -0.1781 -0.4239 -0.3275
  875SOL    HW1 2624   2.815   2.632   1.396  1.4368  2.0733  3.1413
  875SOL    HW2 2625   2.866   2.771   1.320  2.3228  1.6692 -0.6761
  876SOL     OW 2626   0.983   1.236   0.720 -0.1133 -0.1513  0.0875
  876SOL    HW1 2627   0.949   1.190   0.807  1.9462 -2.7039  2.5728
  876SOL    HW2 2628   0.910   1.295   0.683  0.5635 -2.4000  1.0673
  877SOL     OW 2629   0.977   0.535   1.358  0.2215  0.2116 -0.3971
  877SOL    HW1 2630   1.058   0.566   1.404  0.4642 -1.1961 -0.4370
  877SOL    HW2 2631   1.014   0.470   1.292  0.4894  0.4744  0.7947
  878SOL     OW 2632   2.548   1.872   2.896  0.4337  0.1599  0.0557
  878SOL    HW1 2633   2.491   1.795   2.931 -0.7464 -2.7511  0.1395
  878SOL    HW2 2634   2.531   1.886   2.794  1.6048  2.1522 -4.6044
  879SOL     OW 2635   2.149   1.963   1.684  0.5104  0.1153 -0.3157
  879SOL    HW1 2636   2.169   2.064   1.680  1.4702 -4.3147 -2.1497
  879SOL    HW2 2637   2.058   1.948   1.639  0.0895  0.9979  1.9083
  880SOL     OW 2638   1.065   2.315   1.150 -0.0806 -0.1009  0.2822
  880SOL    HW1 2639   1.051   2.375   1.232 -0.7972 -0.0400  1.5496
  880SOL    HW2 2640   1.058   2.215   1.175  0.1777 -0.0110  3.4417
  881SOL     OW 2641   1.236   1.837   0.556 -0.0351  0.5580  0.3858
  881SOL    HW1 2642   1.226   1.934   0.588  0.2606  1.1184  0.2946
  881SOL    HW2 2643   1.183   1.778   0.619 -2.5688  0.7407  0.1479
  882SOL     OW 2644   1.923   1.490   2.617  0.4517 -0.1998 -0.7029
  882SOL    HW1 2645   1.948   1.392   2.616  0.3683 -0.0281  0.2909
  882SOL    HW2 2646   1.914   1.536   2.525 -0.2584  1.3649  0.2499
  883SOL     OW 2647   1.449   0.530   1.042  0.6694 -0.1819 -0.1274
  883SOL    HW1 2648   1.404   0.577   0.965  0.1058 -1.1172  0.8814
  883SOL    HW2 2649   1.461   0.431   1.043 -0.9052 -1.1043  0.2942
  884SOL     OW 2650   3.027   2.709   1.054 -0.2533  0.0404 -0.3643
  884SOL    HW1 2651   2.981   2.676   0.970 -2.5292  1.7950  0.0130
  884SOL    HW2 2652   3.060   2.640   1.122  0.7633 -0.2104 -0.3975
  885SOL     OW 2653   0.832   1.341   2.116 -0.2277  0.3174 -0.1812
  885SOL    HW1 2654   0.758   1.399   2.087 -2.0897 -0.1482  0.6975
  885SOL    HW2 2655   0.872   1.290   2.037  0.7005 -2.9260 -2.0467
  886SOL     OW 2656   0.994   1.181   2.684 -0.2673  0.5746  0.7831
  886SOL    HW1 2657   0.959   1.098   2.733 -0.9747 -2.9071  2.1613
  886SOL    HW2 2658   1.064   1.218   2.744 -2.6409  1.3592 -1.1597
  887SOL     OW 2659   1.608   0.026   0.896 -0.4835  0.3464 -0.5307
  887SOL    HW1 2660   1.538   3.025   0.903 -1.0448  3.0563  0.9182
  887SOL    HW2 2661   1.705   3.066   0.893  1.9614  0.6154 -0.8997
  888SOL     OW 2662   2.046   0.980   2.093 -0.6362 -0.0442 -0.4124
  888SOL    HW1 2663   1.978   0.922   2.138  1.8517 -0.5724 -0.7157
  888SOL    HW2 2664   2.086   0.928   2.016  0.5726 -0.6742  0.8233
  889SOL     OW 2665   2.822   2.067   0.959 -0.0976  0.7788  0.5225
  889SOL    HW1 2666   2.924   2.059   0.965  0.9588 -0.0187  2.0576
  889SOL    HW2 2667   2.781   2.051   1.053  2.6683  0.9771  0.0386
  890SOL     OW 2668   1.240   2.449   0.044 -0.6174  0.2081 -0.6308
  890SOL    HW1 2669   1.139   2.439   0.064 -1.1271  1.9406 -0.7086
  890SOL    HW2 2670   1.288   2.499   0.116 -0.0559  0.1842 -0.1423
  891SOL     OW 2671   2.802   0.768   2.506 -0.1965  0.4082 -0.4535
  891SOL    HW1 2672   2.849   0.817   2.436 -0.5033 -0.9881  2.6270
  891SOL    HW2 2673   2.702   0.755   2.482 -0.7795 -2.0128  0.4135
  892SOL     OW 2674   3.011   2.416   1.393  0.0428  0.4203  0.5378
  892SOL    HW1 2675   3.062   2.416   1.302 -1.5336  0.1617 -2.9005
  892SOL    HW2 2676   2.960   2.330   1.409 -1.4393  1.3468 -2.8004
  893SOL     OW 2677   1.225   0.015   1.216 -0.1024 -0.4209 -0.6581
  893SOL    HW1 2678   1.307   3.037   1.179  0.8265  0.8312  0.9743
  893SOL    HW2 2679   1.231   0.028   1.317  0.2255 -0.4361 -0.0846
  894SOL     OW 2680   2.665   0.061   1.115 -0.3874 -0.3086  0.8311
  894SOL    HW1 2681   2.581   0.002   1.136 -0.8664 -0.4115 -0.3890
  894SOL    HW2 2682   2.747   0.024   1.159  0.9263  1.5909 -0.9044
  895SOL     OW 2683   1.515   1.902   2.269 -0.1860  0.0928 -0.1365
  895SOL    HW1 2684   1.598   1.922   2.214  0.8125 -3.0714 -2.4287
  895SOL    HW2 2685   1.540   1.890   2.368 -1.6383  0.7094 -2.0290
  896SOL     OW 2686   1.859   0.695   1.157 -0.3660 -0.5326 -0.1989
  896SOL    HW1 2687   1.910   0.734   1.238  1.8915 -0.2016  0.7724
  896SOL    HW2 2688   1.922   0.684   1.077 -3.6281  2.2659 -1.0038
  897SOL     OW 2689   0.522   1.399   1.558 -0.1512 -0.2003 -0.4933
  897SOL    HW1 2690   0.464   1.412   1.482  1.5097 -3.5066  4.5767
  897SOL    HW2 2691   0.480   1.326   1.618 -0.1738 -1.4318  0.6691
  898SOL     OW 2692   1.576   2.211   2.124 -0.6731  0.4675 -0.3919
  898SOL    HW1 2693   1.639   2.141   2.084  2.7593 -0.3312 -0.4923
  898SOL    HW2 2694   1.508   2.171   2.187  1.4957  1.8777 -2.2156
  899SOL     OW 2695   1.324   1.911   0.845  0.0982  0.4076  0.1827
  899SOL    HW1 2696   1.278   1.978   0.787  2.2534 -0.1701 -1.7190
  899SOL    HW2 2697   1.267   1.839   0.879 -0.8524  1.4116  1.3698
  900SOL     OW 2698   0.609   2.934   2.469  0.4046 -0.1962  0.4313
  900SOL    HW1 2699   0.598   2.973   2.559 -1.3873  1.6388 -3.2642
  900SOL    HW2 2700   0.658   2.994   2.401  2.0674 -1.4275 -0.9346
  901SOL     OW 2701   1.068   1.436   2.250  0.2022 -0.0190  0.1951
  901SOL    HW1 2702   0.981   1.417   2.198 -0.3147  1.3630  0.8761
  901SOL    HW2 2703   1.064   1.374   2.329  0.9795 -0.4893 -0.5717
  902SOL     OW 2704   1.866   0.777   2.981 -0.2026 -0.3472 -0.0328
  902SOL    HW1 2705   1.886   0.872   3.006  1.7082 -1.0413  0.9059
  902SOL    HW2 2706   1.783   0.741   3.028 -2.8490 -1.2477  1.3507
  903SOL     OW 2707   1.884   1.218   2.725 -0.6084  0.6399 -0.1797
  903SOL    HW1 2708   1.885   1.259   2.818 -1.3685 -1.1929  0.3298
  903SOL    HW2 2709   1.797   1.244   2.682 -0.3787  1.4404 -1.0798
  904SOL     OW 2710   1.490   1.190   1.696  0.6433 -0.2841 -0.0014
  904SOL    HW1 2711   1.475   1.090   1.723 -1.7545 -4.3260  0.6640
  904SOL    HW2 2712   1.438   1.216   1.611 -2.3201 -1.4716 -2.8535
  905SOL     OW 2713   2.493   0.547   1.037  0.3721  0.0502 -0.2792
  905SOL    HW1 2714   2.434   0.516   0.959  0.3549  0.4216 -2.4938
  905SOL    HW2 2715   2.569   0.479   1.056  2.9122  1.8315 -1.5462
  906SOL     OW 2716   0.300   1.377   0.670  0.9946  0.4032 -0.4798
  906SOL    HW1 2717   0.265   1.285   0.653  2.0609  0.1177  2.4211
  906SOL    HW2 2718   0.243   1.426   0.743 -2.2972  1.1689  2.6974
  907SOL     OW 2719   1.200   0.017   0.420  0.2147 -0.4382 -0.2039
  907SOL    HW1 2720   1.172   2.997   0.388  0.6292 -2.2092 -3.6146
  907SOL    HW2 2721   1.279   0.012   0.485 -1.1901  0.6059 -0.1899
  908SOL     OW 2722   1.121   2.747   1.721  0.3814  0.1038  0.0469
  908SOL    HW1 2723   1.036   2.711   1.756  0.2065 -0.8493 -0.5629
  908SOL    HW2 2724   1.165   2.678   1.667 -0.9950  0.3891  0.0533
  909SOL     OW 2725   2.417   0.703   1.870 -0.2942 -0.0504  0.2402
  909SOL    HW1 2726   2.407   0.690   1.973  0.6388  0.7496 -1.1143
  909SOL    HW2 2727   2.415   0.799   1.845  0.7066 -0.3431  0.0418
  910SOL     OW 2728   1.194   0.110   2.390  0.5373  0.3732 -0.0722
  910SOL    HW1 2729   1.263   0.177   2.425  0.6168 -1.3468 -1.9686
  910SOL    HW2 2730   1.146   0.073   2.470  0.9204  1.6447 -0.1474
  911SOL     OW 2731   2.505   1.448   2.393 -0.0422 -0.0530 -0.5163
  911SOL    HW1 2732   2.491   1.451   2.294 -2.9257 -0.7013  0.8556
  911SOL    HW2 2733   2.433   1.395   2.441  0.6534 -0.3374  0.7851
  912SOL     OW 2734   2.451   2.004   1.430  0.1047  0.3517  0.5495
  912SOL    HW1 2735   2.534   2.027   1.486  2.3423 -1.4305  0.2946
  912SOL    HW2 2736   2.397   2.090   1.426  0.1230 -0.7477 -2.9125
  913SOL     OW 2737   2.462   2.109   1.816 -0.1638 -0.0911  0.0618
  913SOL    HW1 2738   2.488   2.182   1.882 -0.3565  3.1769  0.1667
  913SOL    HW2 2739   2.365   2.126   1.789  0.4947  2.3830  0.3243
  914SOL     OW 2740   2.035   2.126   0.732 -0.4075 -0.3910  0.2433
  914SOL    HW1 2741   2.113   2.141   0.794 -3.3583  0.8623  2.5982
  914SOL    HW2 2742   2.040   2.032   0.689 -0.9665  0.2060 -1.0153
  915SOL     OW 2743   0.980   2.422   2.022  0.3913 -0.1357  0.3158
  915SOL    HW1 2744   0.887   2.382   2.031 -1.0550 -0.0773  1.1037
  915SOL    HW2 2745   1.037   2.410   2.107 -0.5604  0.2082 -0.4358
  916SOL     OW 2746   0.119   2.208   0.841 -0.8686  0.4119  0.0675
  916SOL    HW1 2747   0.071   2.301   0.838 -3.8225  1.7167  0.3158
  916SOL    HW2 2748   0.218   2.219   0.816  2.2334 -1.3290 -0.3218
  917SOL     OW 2749   2.926   1.160   2.945 -0.2761 -0.3640 -0.2429
  917SOL    HW1 2750   3.000   1.102   2.898  0.0211 -0.5977 -1.0038
  917SOL    HW2 2751   2.866   1.214   2.875 -1.9966  0.7177 -0.5609
  918SOL     OW 2752   1.349   2.126   2.253 -0.5377  0.1242 -0.3548
  918SOL    HW1 2753   1.404   2.041   2.268 -0.0915 -0.6406  1.7608
  918SOL    HW2 2754   1.251   2.104   2.228  0.5463  1.2294 -2.4259
  919SOL     OW 2755   1.748   2.158   0.771 -0.1552 -0.0382  0.5335
  919SOL    HW1 2756   1.694   2.078   0.802 -2.3348 -2.0683 -0.3621
  919SOL    HW2 2757   1.843   2.132   0.738  3.0412  0.8793 -1.5865
  920SOL     OW 2758   1.259   0.520   2.467 -0.0646  0.1194 -0.3949
  920SOL    HW1 2759   1.245   0.578   2.551  0.3168  1.0260  2.3201
  920SOL    HW2 2760   1.219   0.557   2.383 -0.1988  1.3321  0.2125
  921SOL     OW 2761   3.009   0.296   2.769 -0.0461  0.4095  0.6370
  921SOL    HW1 2762   2.994   0.376   2.705 -0.7059  0.4801 -2.6861
  921SOL    HW2 2763   3.054   0.212   2.733  1.7367 -2.0319  0.9406
  922SOL     OW 2764   2.607   1.538   1.645 -0.1232  0.2647 -0.0247
  922SOL    HW1 2765   2.535   1.531   1.577  0.5994 -0.7579  1.1760
  922SOL    HW2 2766   2.690   1.590   1.605  2.0647 -1.1967  0.0439
  923SOL     OW 2767   0.193   1.623   2.521  0.4150 -0.1825 -0.7831
  923SOL    HW1 2768   0.144   1.681   2.447 -1.1932  1.5492 -1.8363
  923SOL    HW2 2769   0.133   1.620   2.604 -0.2736 -0.6215  0.7737
  924SOL     OW 2770   1.663   0.361   2.196  0.7591  0.2722 -0.2009
  924SOL    HW1 2771   1.647   0.324   2.290 -1.3183 -0.9887  1.9424
  924SOL    HW2 2772   1.722   0.439   2.194  1.0815 -0.0527  1.9258
  925SOL     OW 2773   2.927   0.909   0.188  0.5194  0.1640  0.3307
  925SOL    HW1 2774   2.866   0.837   0.147  1.4173 -1.5103  0.5591
  925SOL    HW2 2775   2.947   0.894   0.286 -1.1047  1.4895  0.5731
  926SOL     OW 2776   2.609   0.172   0.871  0.3104 -0.1474  0.3612
  926SOL    HW1 2777   2.607   0.275   0.856  0.8936  3.5039  1.2188
  926SOL    HW2 2778   2.626   0.157   0.969  1.7047  2.1487 -1.5845
  927SOL     OW 2779   1.201   0.840   0.699 -0.5894 -0.5257 -0.1634
  927SOL    HW1 2780   1.196   0.835   0.596 -2.3906  1.5018 -0.2962
  927SOL    HW2 2781   1.115   0.812   0.747  1.1708 -1.9961  1.7446
  928SOL     OW 2782   3.059   0.175   2.155  0.2007 -0.1162  0.2808
  928SOL    HW1 2783   2.980   0.225   2.110  2.6063  0.8014 -0.9792
  928SOL    HW2 2784   3.059   0.201   2.253 -1.2133 -1.6687 -1.1866
  929SOL     OW 2785   2.412   0.804   1.377  0.4936  0.1424 -0.4019
  929SOL    HW1 2786   2.491   0.810   1.311 -2.9489  1.4960 -0.9360
  929SOL    HW2 2787   2.442   0.768   1.469  3.1788  0.2737 -0.9622
  930SOL     OW 2788   2.023   2.581   1.058  0.2121 -0.1549  0.6209
  930SOL    HW1 2789   1.979   2.574   0.968  0.9216  0.6972  1.3548
  930SOL    HW2 2790   2.099   2.647   1.056 -0.0052  0.6673 -0.5228
  931SOL     OW 2791   2.150   1.256   0.760 -0.4189 -0.2699 -0.5158
  931SOL    HW1 2792   2.125   1.342   0.720 -0.2914 -0.2239  1.0056
  931SOL    HW2 2793   2.228   1.208   0.711  1.4354  0.5303  1.9292
  932SOL     OW 2794   0.113   0.715   1.395  0.1730  0.3012  0.2244
  932SOL    HW1 2795   0.089   0.789   1.327 -0.3830 -0.4378 -3.2496
  932SOL    HW2 2796   0.176   0.648   1.357 -1.3533  4.0419  0.1852
  933SOL     OW 2797   2.236   1.418   2.091 -0.2490  0.1706 -0.2128
  933SOL    HW1 2798   2.178   1.459   2.164  2.1569  0.5190 -0.9434
  933SOL    HW2 2799   2.206   1.447   1.998  0.8789  2.5610  0.8728
  934SOL     OW 2800   1.565   2.685   1.440 -0.0870 -0.1412  0.0645
  934SOL    HW1 2801   1.596   2.684   1.342 -0.9853 -3.7906 -3.9922
  934SOL    HW2 2802   1.490   2.753   1.442 -2.3662 -1.2240  0.4258
  935SOL     OW 2803   0.633   0.817   1.377 -0.6684 -0.0382  0.1360
  935SOL    HW1 2804   0.617   0.914   1.354 -2.2538  1.9151 -0.3070
  935SOL    HW2 2805   0.674   0.812   1.473 -1.2846 -0.1389 -2.0372
  936SOL     OW 2806   2.292   0.680   1.163 -0.0964 -0.2482  0.6350
  936SOL    HW1 2807   2.364   0.620   1.121 -0.0965  0.7196 -1.5052
  936SOL    HW2 2808   2.330   0.729   1.243 -2.6855  0.0640 -1.3421
  937SOL     OW 2809   0.952   2.951   1.211  0.1518  0.2843 -0.0277
  937SOL    HW1 2810   0.918   3.044   1.238  0.7984  0.8235 -3.3451
  937SOL    HW2 2811   1.039   2.962   1.163 -0.3665 -0.1094  0.3308
  938SOL     OW 2812   2.811   2.336   0.892 -0.4616 -0.2141  0.2075
  938SOL    HW1 2813   2.796   2.233   0.892 -0.0624 -2.6980 -2.2539
  938SOL    HW2 2814   2.813   2.375   0.990 -1.1930  0.7305  2.0804
  939SOL     OW 2815   3.048   1.800   2.668  0.5764  0.2248  0.3011
  939SOL    HW1 2816   2.971   1.748   2.710  1.2406  1.0151 -0.0252
  939SOL    HW2 2817   0.035   1.851   2.723 -1.0746  0.7657 -1.4421
  940SOL     OW 2818   2.150   2.697   2.780 -0.3751 -0.2763  0.4514
  940SOL    HW1 2819   2.102   2.642   2.716 -1.5707  6.0894  0.1591
  940SOL    HW2 2820   2.188   2.779   2.733 -1.4792  1.7392 -0.6866
  941SOL     OW 2821   1.616   2.600   0.503  0.1254 -0.7311  0.4488
  941SOL    HW1 2822   1.619   2.508   0.457  0.3231 -1.8425 -1.5263
  941SOL    HW2 2823   1.712   2.639   0.505 -1.5727  0.0236  0.5929
  942SOL     OW 2824   1.717   1.906   1.196  0.7507  0.0322  0.2605
  942SOL    HW1 2825   1.803   1.940   1.234 -2.7773 -0.3885 -0.9043
  942SOL    HW2 2826   1.656   1.984   1.186  0.4372 -1.5757  0.9524
  943SOL     OW 2827   1.806   0.947   1.799  0.6301 -0.8939  0.2925
  943SOL    HW1 2828   1.750   0.863   1.792 -0.6647 -1.5448 -1.3997
  943SOL    HW2 2829   1.902   0.922   1.825 -2.1737 -0.7771 -1.2066
  944SOL     OW 2830   1.615   0.527   1.902  0.4297 -0.1432 -0.6071
  944SOL    HW1 2831   1.630   0.454   1.829  0.2952 -1.2253 -1.0614
  944SOL    HW2 2832   1.696   0.536   1.964  1.6279  0.7452  0.9598
  945SOL     OW 2833   2.672   2.259   1.268  0.2356 -0.0026 -0.4863
  945SOL    HW1 2834   2.701   2.332   1.198  3.0768  0.9399  1.1390
  945SOL    HW2 2835   2.749   2.247   1.336 -0.4693  1.1393 -0.8027
  946SOL     OW 2836   0.675   1.107   1.545 -0.2748  0.2295  0.4175
  946SOL    HW1 2837   0.646   1.093   1.449  1.2425  0.9382  2.9065
  946SOL    HW2 2838   0.596   1.125   1.602 -1.4378  0.6249 -1.3808
  947SOL     OW 2839   0.543   2.428   0.724  0.1539  0.3007 -0.4059
  947SOL    HW1 2840   0.490   2.437   0.814 -1.5065 -2.3721 -1.0894
  947SOL    HW2 2841   0.471   2.405   0.650 -0.7018 -0.0156 -2.5266
  948SOL     OW 2842   3.038   1.628   1.877 -0.2113 -0.0422 -0.0183
  948SOL    HW1 2843   0.045   1.668   1.819  6.1681 -0.7099 -3.9270
  948SOL    HW2 2844   2.954   1.685   1.863  1.8334  1.4307  0.8425
  949SOL     OW 2845   0.555   0.653   2.217  0.7646 -0.0857 -0.1073
  949SOL    HW1 2846   0.534   0.689   2.310 -1.1259  0.6460 -0.7030
  949SOL    HW2 2847   0.511   0.709   2.144 -0.8694  1.5572  1.3128
  950SOL     OW 2848   0.453   0.781   0.962  0.0766 -0.5847 -0.1843
  950SOL    HW1 2849   0.517   0.845   1.005 -0.9466  0.0172 -0.4502
  950SOL    HW2 2850   0.354   0.800   0.979 -3.1627  0.9939 -2.7070
  951SOL     OW 2851   1.054   1.717   2.282  0.3296  0.2248 -0.6483
  951SOL    HW1 2852   1.036   1.619   2.279 -0.5270 -1.2942 -3.6955
  951SOL    HW2 2853   1.131   1.735   2.215 -0.1166  1.1509 -0.9950
  952SOL     OW 2854   1.053   1.547   2.821 -0.2821  0.3093  0.5202
  952SOL    HW1 2855   1.082   1.583   2.728  1.6065  2.9918 -1.3149
  952SOL    HW2 2856   1.130   1.510   2.875 -2.8419  1.7568 -1.5388
  953SOL     OW 2857   0.987   3.055   2.535  0.0367 -0.8212  0.5637
  953SOL    HW1 2858   0.954   2.990   2.465  2.1403  1.1771 -0.4393
  953SOL    HW2 2859   0.926   3.053   2.613  1.2558  0.8918 -2.2800
  954SOL     OW 2860   2.309   1.614   0.460  0.0010  1.0545  0.1404
  954SOL    HW1 2861   2.337   1.662   0.370  3.2660  0.1410  0.6286
  954SOL    HW2 2862   2.337   1.515   0.450 -0.5339 -3.3730  0.2358
  955SOL     OW 2863   0.268   2.544   2.980 -0.4380  0.0147 -0.0434
  955SOL    HW1 2864   0.299   2.555   2.882 -0.0609  0.7102  1.0905
  955SOL    HW2 2865   0.268   2.443   3.007  0.0833  0.4618  1.0958
  956SOL     OW 2866   1.138   0.880   1.552 -0.3669 -0.3437 -0.3109
  956SOL    HW1 2867   1.074   0.807   1.575  1.2197  0.9020 -1.1822
  956SOL    HW2 2868   1.151   0.889   1.451  0.5577  0.6799 -0.5214
  957SOL     OW 2869   2.051   1.502   2.268  0.4025  0.2178 -0.1619
  957SOL    HW1 2870   1.978   1.436   2.242  0.7462  2.6646  0.4248
  957SOL    HW2 2871   2.038   1.591   2.225 -2.8990  0.6604 -1.4681
  958SOL     OW 2872   1.625   2.299   1.359 -0.1236  0.2962 -0.5317
  958SOL    HW1 2873   1.559   2.348   1.289  1.3909 -0.3372 -1.9913
  958SOL    HW2 2874   1.720   2.302   1.331 -2.9452 -1.1375 -0.1259
  959SOL     OW 2875   1.643   1.493   1.546  0.4614 -1.0352 -0.1468
  959SOL    HW1 2876   1.644   1.555   1.469  0.0931 -1.4499  2.5531
  959SOL    HW2 2877   1.557   1.517   1.596 -1.4643 -1.1701 -1.1683
  960SOL     OW 2878   3.047   0.953   2.820  0.1955  0.6787  0.0723
  960SOL    HW1 2879   2.971   0.887   2.818 -0.1667  1.8581  1.0098
  960SOL    HW2 2880   3.046   1.018   2.743 -0.4196 -3.6332  0.6251
  961SOL     OW 2881   0.424   0.792   2.038  0.2052 -0.1820 -0.4102
  961SOL    HW1 2882   0.363   0.852   2.091 -0.4039  1.0487 -2.6714
  961SOL    HW2 2883   0.484   0.849   1.983  0.9410 -0.8831  0.8313
  962SOL     OW 2884   1.475   1.531   0.229  0.1460  0.3733 -0.2696
  962SOL    HW1 2885   1.390   1.559   0.280 -0.8889  0.7567  0.2464
  962SOL    HW2 2886   1.517   1.456   0.279 -4.5893 -0.1533 -1.2668
  963SOL     OW 2887   1.147   2.320   2.488 -0.5898  0.5361  0.0541
  963SOL    HW1 2888   1.142   2.323   2.385  1.2609  0.0841  0.3727
  963SOL    HW2 2889   1.171   2.229   2.523  1.2789 -1.1049  1.4591
  964SOL     OW 2890   0.963   2.490   0.368 -0.2557  0.1139  0.1649
  964SOL    HW1 2891   0.970   2.531   0.276  1.8327  0.9103  1.4705
  964SOL    HW2 2892   0.997   2.548   0.442 -0.5050 -1.5806 -3.2752
  965SOL     OW 2893   0.488   2.864   0.945 -0.2233 -0.2533  0.0450
  965SOL    HW1 2894   0.535   2.856   1.035  0.9532 -0.2270 -1.9767
  965SOL    HW2 2895   0.415   2.936   0.948 -1.4855 -0.7590  0.9248
  966SOL     OW 2896   0.118   1.308   3.032  0.2357 -0.2466  0.6037
  966SOL    HW1 2897   0.091   1.373   0.031 -0.7040 -0.2373  4.0835
  966SOL    HW2 2898   0.036   1.243   3.019 -1.9236 -0.9274 -1.2462
  967SOL     OW 2899   1.032   2.813   2.103 -0.2197 -0.3443  0.0285
  967SOL    HW1 2900   1.101   2.889   2.117  0.1455  0.2547  0.8416
  967SOL    HW2 2901   1.081   2.727   2.079  0.5884  1.5287 -1.0555
  968SOL     OW 2902   2.053   0.388   0.359 -0.6501 -0.2473 -0.4905
  968SOL    HW1 2903   2.067   0.291   0.387 -1.1926  1.0721 -1.6788
  968SOL    HW2 2904   2.026   0.441   0.440  2.5371 -0.7409 -0.5470
  969SOL     OW 2905   3.015   1.721   2.139  0.0141 -0.4170  0.4973
  969SOL    HW1 2906   2.989   1.815   2.117 -0.6177 -0.4192 -3.3246
  969SOL    HW2 2907   3.034   1.671   2.050  0.0927 -2.2356 -2.0065
  970SOL     OW 2908   2.196   1.620   1.333  0.4017  0.1206 -0.2120
  970SOL    HW1 2909   2.111   1.649   1.379  1.1007  0.1968 -1.3543
  970SOL    HW2 2910   2.177   1.565   1.254  1.6161  0.6723  2.0729
  971SOL     OW 2911   1.949   0.279   1.109  0.4538  0.3134  0.5567
  971SOL    HW1 2912   2.022   0.344   1.138 -1.0064  1.7597  0.4404
  971SOL    HW2 2913   1.959   0.254   1.013  1.4065 -2.1363 -1.0865
  972SOL     OW 2914   0.463   2.945   1.851 -0.0135  0.3877 -0.1389
  972SOL    HW1 2915   0.472   3.049   1.831 -0.2719 -2.9508 -3.6990
  972SOL    HW2 2916   0.409   2.906   1.772 -0.9910 -2.7470 -1.5513
  973SOL     OW 2917   2.635   1.072   0.324  0.1346  0.2063  0.2575
  973SOL    HW1 2918   2.603   1.065   0.226 -1.6454  0.9789 -1.8983
  973SOL    HW2 2919   2.699   1.149   0.342 -2.4200 -2.2616 -1.2839
  974SOL     OW 2920   1.713   1.547   2.312  0.0833  0.2068 -0.0482
  974SOL    HW1 2921   1.711   1.647   2.301 -2.1242 -1.0429  0.4668
  974SOL    HW2 2922   1.623   1.510   2.288  2.3386 -0.1228 -2.1061
  975SOL     OW 2923   0.194   2.833   1.352  0.4993  1.1585 -0.5997
  975SOL    HW1 2924   0.291   2.869   1.352 -0.0396 -0.1326  0.9773
  975SOL    HW2 2925   0.140   2.875   1.272 -1.8166  1.3211 -2.6388
  976SOL     OW 2926   0.152   1.681   1.713 -0.0046 -0.1870 -0.2503
  976SOL    HW1 2927   0.115   1.753   1.656  2.5243  0.6211  1.4813
  976SOL    HW2 2928   0.233   1.721   1.762  1.3700  0.4823  0.1804
  977SOL     OW 2929   0.899   2.486   2.897  0.4758  0.3075  0.1930
  977SOL    HW1 2930   0.930   2.582   2.895  1.6083 -3.4493 -0.3916
  977SOL    HW2 2931   0.943   2.437   2.819 -1.6883 -1.7972 -0.1792
  978SOL     OW 2932   0.493   1.724   2.768  0.0035  0.2032 -0.0236
  978SOL    HW1 2933   0.461   1.800   2.828 -0.9015  0.1968  3.0707
  978SOL    HW2 2934   0.493   1.634   2.818  1.0021 -0.1424  0.2442
  979SOL     OW 2935   1.768   2.389   0.965 -0.0628 -0.1077  0.1564
  979SOL    HW1 2936   1.784   2.350   1.060  1.6330 -0.7251  1.3266
  979SOL    HW2 2937   1.760   2.311   0.895  1.7415 -0.0148 -1.5320
  980SOL     OW 2938   0.894   1.758   2.955 -0.4177  0.4032  0.1749
  980SOL    HW1 2939   0.922   1.670   2.912  1.4411  1.6886 -0.6601
  980SOL    HW2 2940   0.938   1.842   2.919  0.7679 -0.1426 -1.1724
  981SOL     OW 2941   2.823   0.073   2.431  0.0845  0.2209  0.5196
  981SOL    HW1 2942   2.864   0.166   2.420  3.8448  1.2638  1.4095
  981SOL    HW2 2943   2.757   0.048   2.353 -0.8058 -1.1438  1.3741
  982SOL     OW 2944   0.105   2.870   2.711  0.5689 -0.6286  0.2043
  982SOL    HW1 2945   0.031   2.911   2.652 -4.1644 -1.0187 -1.2843
  982SOL    HW2 2946   0.097   2.768   2.707 -0.2287 -1.6715  0.3035
  983SOL     OW 2947   2.450   0.966   1.831  0.0121 -0.0770 -0.4655
  983SOL    HW1 2948   2.492   1.020   1.908 -0.7610  3.3584 -0.6741
  983SOL    HW2 2949   2.367   1.016   1.802  0.0319 -0.4894  0.9486
  984SOL     OW 2950   1.399   0.400   2.096 -0.3069  0.4979 -0.8598
  984SOL    HW1 2951   1.365   0.467   2.165 -1.6493  0.6167  2.1314
  984SOL    HW2 2952   1.498   0.386   2.110  2.5640  1.0921 -0.8012
  985SOL     OW 2953   1.118   1.919   1.838 -0.0272  0.9153  0.1319
  985SOL    HW1 2954   1.073   1.837   1.880  2.2254 -1.8514  0.3848
  985SOL    HW2 2955   1.216   1.931   1.872 -0.2520 -0.4381 -0.5993
  986SOL     OW 2956   1.708   0.173   2.007  0.3235  0.0725 -0.0086
  986SOL    HW1 2957   1.798   0.187   1.973 -1.4684 -1.4221  3.3412
  986SOL    HW2 2958   1.682   0.248   2.072 -0.5737  0.3138  2.1730
  987SOL     OW 2959   2.078   0.862   1.845  0.3348 -0.5055  0.2026
  987SOL    HW1 2960   2.099   0.768   1.808  1.5986 -4.0049 -1.7349
  987SOL    HW2 2961   2.139   0.937   1.801 -0.9079 -1.3227 -1.9471
  988SOL     OW 2962   2.534   0.707   2.521  0.2276  0.2976  0.1292
  988SOL    HW1 2963   2.517   0.796   2.470 -2.3029 -0.4772 -2.2026
  988SOL    HW2 2964   2.451   0.651   2.538 -0.9814 -0.3533 -1.7198
  989SOL     OW 2965   2.559   2.692   2.560 -0.0927  0.0945  0.0164
  989SOL    HW1 2966   2.518   2.625   2.493 -1.1464 -0.7669  2.6557
  989SOL    HW2 2967   2.537   2.665   2.657 -1.3798  0.6069 -3.0627
  990SOL     OW 2968   0.828   0.579   2.768  0.1246 -0.2808 -0.3248
  990SOL    HW1 2969   0.874   0.663   2.798  1.2635 -0.1119 -0.4888
  990SOL    HW2 2970   0.788   0.588   2.677  2.2817 -1.7415  1.1016
  991SOL     OW 2971   1.084   0.598   3.049 -0.0302 -0.5806  0.2625
  991SOL    HW1 2972   1.064   0.547   2.966  2.3174  4.6574  1.9165
  991SOL    HW2 2973   1.140   0.681   3.023  0.5056 -0.7760 -0.0094
  992SOL     OW 2974   2.433   2.231   2.599  0.2569  0.1608 -0.2938
  992SOL    HW1 2975   2.499   2.223   2.524 -2.6248 -0.1229  1.0283
  992SOL    HW2 2976   2.440   2.321   2.644  0.6669  1.4782  1.3409
  993SOL     OW 2977   0.338   0.264   0.480  0.0909 -0.5042  0.3786
  993SOL    HW1 2978   0.346   0.229   0.385  0.6150  0.6311  2.0157
  993SOL    HW2 2979   0.238   0.284   0.508 -1.8957  1.8494 -0.9637
  994SOL     OW 2980   0.422   2.220   1.710  0.3831  0.0741 -0.7201
  994SOL    HW1 2981   0.358   2.221   1.792 -0.5852  0.3072 -0.4336
  994SOL    HW2 2982   0.454   2.312   1.691 -1.1218 -0.2425  0.9627
  995SOL     OW 2983   2.217   1.764   2.987  0.3349 -0.5215 -0.4100
  995SOL    HW1 2984   2.222   1.663   2.996 -0.5674  1.5920 -0.6112
  995SOL    HW2 2985   2.204   1.786   2.889 -1.5766 -3.0990  1.0035
  996SOL     OW 2986   1.301   1.664   2.638  0.1218 -0.5399  0.0293
  996SOL    HW1 2987   1.297   1.585   2.572 -1.8076 -0.7891  0.9914
  996SOL    HW2 2988   1.320   1.630   2.732  1.5847  1.1968  1.5632
  997SOL     OW 2989   1.741   0.962   1.118  0.1891 -0.5757 -0.0972
  997SOL    HW1 2990   1.808   1.038   1.127 -2.4271  0.0987 -1.8830
  997SOL    HW2 2991   1.779   0.871   1.115 -1.7920  0.4409 -0.1798
  998SOL     OW 2992   2.643   1.402   0.203 -0.3992  0.1013  0.0920
  998SOL    HW1 2993   2.545   1.373   0.220 -3.7124 -0.5399 -1.7272
  998SOL    HW2 2994   2.640   1.402   0.103 -0.2587  1.1833  2.9637
  999SOL     OW 2995   2.854   2.241   0.425  0.3281  0.5132 -0.0977
  999SOL    HW1 2996   2.892   2.315   0.472  0.7653 -0.1410 -3.8305
  999SOL    HW2 2997   2.915   2.155   0.426  2.5784 -2.3441 -0.9374
 1000SOL     OW 2998   0.734   3.053   2.017 -0.5228 -0.0009 -0.0040
 1000SOL    HW1 2999   0.646   0.020   1.989  0.6606  0.1076 -2.0096
 1000SOL    HW2 3000   0.799   3.053   1.936  1.7164 -3.3875 -2.3353
   3.07300   3.07300   3.07300
