1000 SPC/Fw water molecules t=  11.00000 step= 11000
 3000
    1SOL     OW    1   1.503   2.625   0.328 -0.6571 -0.0447 -0.2581
    1SOL    HW1    2   1.513   2.711   0.275 -1.0579  0.4432 -0.9257
    1SOL    HW2    3   1.409   2.622   0.368 -3.6872  2.6855  0.7980
    2SOL     OW    4   1.410   0.905   1.775  0.1648  0.5892  0.1451
    2SOL    HW1    5   1.352   0.966   1.720 -0.0106 -1.4261  0.9915
    2SOL    HW2    6   1.501   0.946   1.785 -3.5071  0.3393 -0.1505
    3SOL     OW    7   0.794   0.083   2.876 -0.4396  0.4823 -0.7929
    3SOL    HW1    8   0.857   0.158   2.844  2.3648 -2.2376 -1.2025
    3SOL    HW2    9   0.698   0.111   2.872 -2.1467  1.0835 -3.1238
    4SOL     OW   10   1.508   1.593   2.975 -0.4851  0.4160  0.1304
    4SOL    HW1   11   1.423   1.642   3.005 -0.3440 -1.6769  0.3859
    4SOL    HW2   12   1.531   1.512   3.036  0.7260 -2.0247  1.7559
    5SOL     OW   13   0.731   1.037   2.355  0.0791  0.3097 -0.0295
    5SOL    HW1   14   0.809   0.995   2.314 -2.1000 -1.0981  1.9490
    5SOL    HW2   15   0.743   1.133   2.394 -1.3026 -0.1844 -1.7759
    6SOL     OW   16   2.277   0.966   2.429  0.8668  0.3139 -0.1645
    6SOL    HW1   17   2.309   0.884   2.374  0.1971 -2.1972 -2.4905
    6SOL    HW2   18   2.290   1.056   2.386  0.8070  0.0477  2.4674
    7SOL     OW   19   0.381   0.898   1.227 -0.1386  0.0891  0.1387
    7SOL    HW1   20   0.332   0.850   1.154 -0.1946  1.7393 -0.0645
    7SOL    HW2   21   0.352   0.995   1.225  0.8815 -2.8116  1.1427
    8SOL     OW   22   2.063   2.716   1.863 -0.8469 -0.5872 -0.3976
    8SOL    HW1   23   2.037   2.734   1.762 -0.3732 -0.9448 -1.2146
    8SOL    HW2   24   2.073   2.811   1.909 -0.0075  0.7372  1.4844
    9SOL     OW   25   0.012   2.491   0.669  0.3765  0.0488  0.1947
    9SOL    HW1   26   0.022   2.415   0.599  1.5566 -2.2277 -0.4437
    9SOL    HW2   27   0.098   2.505   0.720  1.6176  0.2281 -1.3955
   10SOL     OW   28   0.044   2.347   2.397  0.3846 -0.2562 -0.3062
   10SOL    HW1   29   0.005   2.425   2.353  0.5753 -1.2150  1.1335
   10SOL    HW2   30   0.106   2.298   2.333 -0.8002  0.1560 -0.0766
   11SOL     OW   31   0.263   1.623   0.060 -0.0211 -0.2987 -0.2748
   11SOL    HW1   32   0.298   1.579   3.048  0.0156  0.5489  3.0655
   11SOL    HW2   33   0.341   1.650   0.122 -1.4105 -2.2039  0.3753
   12SOL     OW   34   2.217   2.620   0.644 -0.3592  0.2613  0.1245
   12SOL    HW1   35   2.308   2.573   0.624  1.4463  1.5591 -3.1525
   12SOL    HW2   36   2.184   2.613   0.740  0.6145  0.5160  1.8110
   13SOL     OW   37   0.285   0.371   2.694 -0.2745 -0.3887 -0.0944
   13SOL    HW1   38   0.245   0.309   2.762  0.9013  1.1570  0.9275
   13SOL    HW2   39   0.323   0.456   2.738  2.1618 -2.5995 -1.4035
   14SOL     OW   40   1.254   1.072   1.616  0.0678 -0.3588 -0.0341
   14SOL    HW1   41   1.166   1.027   1.649 -0.6445  0.2714  0.5290
   14SOL    HW2   42   1.247   1.174   1.611  0.7663  1.5477  1.3946
   15SOL     OW   43   0.470   1.549   2.142 -0.0351  0.0247  0.3215
   15SOL    HW1   44   0.398   1.490   2.103 -3.3604  2.2810 -0.5749
   15SOL    HW2   45   0.491   1.521   2.238  0.2327 -1.6756  1.2972
   16SOL     OW   46   1.587   1.014   2.699 -0.1647 -0.3457 -0.1142
   16SOL    HW1   47   1.492   1.047   2.677 -1.2091 -1.1400  0.5690
   16SOL    HW2   48   1.654   1.093   2.714  2.9529 -0.8735  0.0381
   17SOL     OW   49   3.057   2.521   2.215 -0.5259  0.5789 -0.3222
   17SOL    HW1   50   2.992   2.602   2.203  0.0902  1.8500 -1.4843
   17SOL    HW2   51   0.026   2.490   2.128 -2.5119  1.2660  0.9135
   18SOL     OW   52   1.491   1.157   0.688 -0.3071  0.0068 -0.5814
   18SOL    HW1   53   1.490   1.055   0.707 -0.0130 -1.6601  1.1158
   18SOL    HW2   54   1.395   1.185   0.665 -2.1901 -1.9622  2.7799
   19SOL     OW   55   0.242   1.164   2.023 -0.4027  0.2605  0.4419
   19SOL    HW1   56   0.270   1.114   1.936  0.7649 -2.8326 -3.0822
   19SOL    HW2   57   0.157   1.115   2.055 -0.6461  0.2956  0.4931
   20SOL     OW   58   2.135   2.222   2.969  0.6348 -0.3609 -0.1150
   20SOL    HW1   59   2.180   2.245   3.058 -1.3155 -1.1512  1.6427
   20SOL    HW2   60   2.064   2.294   2.953 -1.4960  1.4259  1.3955
   21SOL     OW   61   1.796   1.863   1.194  0.5655  0.2280  0.1975
   21SOL    HW1   62   1.801   1.922   1.277  1.1762 -0.0886 -1.3686
   21SOL    HW2   63   1.825   1.770   1.217  2.2307  2.2105 -0.3724
   22SOL     OW   64   2.000   2.114   1.456 -0.0869 -0.4514 -0.1359
   22SOL    HW1   65   1.924   2.113   1.526 -0.3284 -1.8787 -0.7261
   22SOL    HW2   66   1.956   2.162   1.374 -0.0191 -1.6665  1.2443
   23SOL     OW   67   0.053   1.013   1.113  0.1627 -0.1221  0.4033
   23SOL    HW1   68   0.054   0.921   1.156  0.2645  0.3044 -0.1832
   23SOL    HW2   69   3.037   1.021   1.061  0.9918 -1.4709 -2.3850
   24SOL     OW   70   1.821   1.115   1.630  0.1987 -0.6761  0.3644
   24SOL    HW1   71   1.868   1.175   1.562 -1.2778 -1.2438  0.2435
   24SOL    HW2   72   1.882   1.052   1.672 -1.2666  3.3766  4.7677
   25SOL     OW   73   1.784   0.095   2.293  0.4965  0.3922  0.1373
   25SOL    HW1   74   1.852   0.161   2.322 -1.6738 -0.9979 -0.9574
   25SOL    HW2   75   1.690   0.142   2.290 -0.4004  2.8941  0.1070
   26SOL     OW   76   0.654   2.930   0.628  0.0693  0.4793 -0.1436
   26SOL    HW1   77   0.722   2.957   0.695 -1.0897  0.4263 -1.6528
   26SOL    HW2   78   0.691   2.846   0.577  0.9951  0.1441 -0.0015
   27SOL     OW   79   1.119   1.059   0.845 -0.2948  0.2775  0.0281
   27SOL    HW1   80   1.191   0.999   0.884 -0.9107 -0.1386  2.8458
   27SOL    HW2   81   1.094   1.137   0.903  0.8084  1.9397 -1.1254
   28SOL     OW   82   2.136   2.320   1.137  0.9907  0.3825 -0.5208
   28SOL    HW1   83   2.140   2.399   1.201  0.3431 -1.5794 -2.8052
   28SOL    HW2   84   2.040   2.287   1.140 -1.5572  0.2265  0.8399
   29SOL     OW   85   2.216   2.975   2.194  0.0728  0.1669  0.0973
   29SOL    HW1   86   2.179   2.904   2.260 -0.1841 -0.4431  0.2406
   29SOL    HW2   87   2.228   3.061   2.244  0.0474  0.9353 -2.2056
   30SOL     OW   88   3.019   2.920   1.977 -0.2560 -0.1223 -0.4949
   30SOL    HW1   89   2.975   2.992   1.920  0.5351 -1.9461 -0.9700
   30SOL    HW2   90   0.001   2.960   2.054 -2.3831  2.1901 -1.8768
   31SOL     OW   91   3.011   1.753   2.282  0.0990  0.4834 -0.1572
   31SOL    HW1   92   2.961   1.821   2.341 -1.9805  1.2296  0.2977
   31SOL    HW2   93   3.042   1.803   2.200 -3.0360 -1.4642  1.2075
   32SOL     OW   94   0.942   2.318   2.159 -0.3194 -0.2000  0.2138
   32SOL    HW1   95   0.929   2.384   2.232 -0.8404  1.8160 -0.8448
   32SOL    HW2   96   1.046   2.318   2.143  1.6808 -0.6308 -2.0687
   33SOL     OW   97   0.306   0.460   0.024 -0.2417 -0.1345 -0.3215
   33SOL    HW1   98   0.293   0.471   0.123 -2.6910  0.2589  2.0274
   33SOL    HW2   99   0.349   0.544   3.057  0.0764 -1.5844  2.7073
   34SOL     OW  100   2.838   0.015   3.033  0.3409 -0.2393  0.1949
   34SOL    HW1  101   2.859   2.985   3.027 -0.1386 -1.4267 -0.0267
   34SOL    HW2  102   2.736   0.030   3.009 -1.8879 -0.9927 -0.4163
   35SOL     OW  103   2.926   2.559   1.578  0.6402  0.0063 -0.1070
   35SOL    HW1  104   2.917   2.603   1.667  1.4581 -0.5103 -0.9323
   35SOL    HW2  105   2.951   2.636   1.510 -0.2569 -0.7537 -0.8241
   36SOL     OW  106   2.196   0.118   2.343 -0.4299 -0.3538  0.1849
   36SOL    HW1  107   2.254   0.099   2.427 -0.0159  0.6242  0.3889
   36SOL    HW2  108   2.115   0.179   2.367  2.7111 -1.9103  0.2888
   37SOL     OW  109   1.588   2.718   3.038 -0.1735  0.1033 -0.2280
   37SOL    HW1  110   1.527   2.755   2.969  0.9341 -0.8903 -0.2469
   37SOL    HW2  111   1.547   2.731   0.058 -2.9334 -2.4985  1.6230
   38SOL     OW  112   0.304   0.448   0.634 -0.0675 -0.2531 -0.1238
   38SOL    HW1  113   0.377   0.503   0.589 -2.5598 -0.8845  0.9491
   38SOL    HW2  114   0.224   0.440   0.572  2.4228  0.6909 -0.5902
   39SOL     OW  115   1.145   1.848   2.111  0.4097 -0.4006 -0.7843
   39SOL    HW1  116   1.211   1.817   2.044  1.4952  0.1008 -1.1436
   39SOL    HW2  117   1.187   1.925   2.167  1.6317  0.1513  1.8777
   40SOL     OW  118   0.026   0.975   0.204 -0.4232 -0.1015 -0.0296
   40SOL    HW1  119   3.026   0.933   0.142 -2.5502 -0.7943  0.4406
   40SOL    HW2  120   3.061   1.060   0.246  0.3445  0.7268  0.1168
   41SOL     OW  121   1.487   0.282   1.839  0.4821 -0.2032  0.1191
   41SOL    HW1  122   1.490   0.328   1.745 -2.0639  1.0788 -1.2485
   41SOL    HW2  123   1.394   0.291   1.884 -0.2126  1.1817  1.5851
   42SOL     OW  124   2.375   0.219   1.230 -0.2661  0.7328  0.1459
   42SOL    HW1  125   2.339   0.223   1.132 -0.9799  3.8270 -3.1205
   42SOL    HW2  126   2.370   0.305   1.273  0.9470 -0.4964 -0.3263
   43SOL     OW  127   1.506   0.604   1.670  0.1705 -0.4470  0.0471
   43SOL    HW1  128   1.534   0.686   1.615  1.0007 -1.2240  1.3766
   43SOL    HW2  129   1.555   0.521   1.634 -1.0243 -0.0043  0.2367
   44SOL     OW  130   0.402   0.719   3.062 -0.5107  0.2515 -0.6213
   44SOL    HW1  131   0.428   0.744   0.086  0.4305 -0.5133  0.8193
   44SOL    HW2  132   0.308   0.755   3.039 -2.1060  0.6257 -0.1030
   45SOL     OW  133   0.782   1.610   1.963 -0.3160  0.3507 -0.0294
   45SOL    HW1  134   0.804   1.514   1.942 -2.2023  0.8968 -2.4295
   45SOL    HW2  135   0.734   1.662   1.886 -1.2716 -0.2354  1.3133
   46SOL     OW  136   2.168   2.435   1.877  0.4238 -0.0476 -0.2211
   46SOL    HW1  137   2.141   2.384   1.958  0.4270 -0.9448 -5.3936
   46SOL    HW2  138   2.144   2.538   1.879 -1.7698  2.3554 -0.6988
   47SOL     OW  139   0.362   1.768   1.534  0.0789  0.1332  0.0399
   47SOL    HW1  140   0.449   1.713   1.540  1.7765 -2.0506 -0.0510
   47SOL    HW2  141   0.363   1.847   1.597 -0.1005  1.2821  0.8897
   48SOL     OW  142   0.835   2.590   2.744 -0.1906  0.3217 -0.4972
   48SOL    HW1  143   0.789   2.625   2.829 -0.3063 -0.7604  1.3973
   48SOL    HW2  144   0.790   2.644   2.666 -1.0523 -0.2164  3.6228
   49SOL     OW  145   2.544   1.492   1.945 -0.3292  0.0247 -0.4423
   49SOL    HW1  146   2.524   1.495   1.847  0.8764 -0.4151 -0.5916
   49SOL    HW2  147   2.589   1.404   1.973  0.9682 -3.1398  0.0128
   50SOL     OW  148   1.005   2.778   0.560 -0.3160 -0.3836  0.4526
   50SOL    HW1  149   1.102   2.802   0.580  2.1911 -1.4695  0.8841
   50SOL    HW2  150   0.975   2.836   0.480  1.8122 -3.2235  2.6096
   51SOL     OW  151   1.293   0.216   1.223 -0.1621  0.3940 -0.1561
   51SOL    HW1  152   1.276   0.314   1.190 -0.4694  0.7873 -2.0546
   51SOL    HW2  153   1.223   0.151   1.187 -2.4761  0.0785 -0.3869
   52SOL     OW  154   0.253   0.807   0.573  0.4230  0.6607 -0.0670
   52SOL    HW1  155   0.203   0.777   0.488 -0.2736 -2.2265  1.5268
   52SOL    HW2  156   0.294   0.903   0.560  0.8792 -0.9598  0.8102
   53SOL     OW  157   1.276   0.010   2.684 -0.5773 -0.2715  0.9206
   53SOL    HW1  158   1.312   3.018   2.751 -0.6139  2.9898  1.7466
   53SOL    HW2  159   1.278   3.035   2.592 -0.4593 -2.0077 -1.5055
   54SOL     OW  160   2.209   0.524   2.225  0.4392  0.6193 -0.7172
   54SOL    HW1  161   2.294   0.488   2.184  1.2747  0.9208 -0.9765
   54SOL    HW2  162   2.121   0.484   2.190 -2.0336  1.2451 -0.8866
   55SOL     OW  163   2.657   2.798   0.219 -0.2148 -0.6033 -0.3255
   55SOL    HW1  164   2.756   2.769   0.238 -1.8582  1.2739 -1.0598
   55SOL    HW2  165   2.630   2.780   0.121  1.6272  1.4423  2.0750
   56SOL     OW  166   0.683   0.138   2.010 -0.0432 -0.3767  0.6239
   56SOL    HW1  167   0.609   0.073   2.017 -1.5870  0.7077  0.1764
   56SOL    HW2  168   0.722   0.153   2.102 -0.1541 -1.5219  0.3953
   57SOL     OW  169   1.608   0.911   2.312 -0.3431 -0.3808  0.0314
   57SOL    HW1  170   1.658   0.994   2.276 -0.7033  1.3758 -0.8268
   57SOL    HW2  171   1.606   0.839   2.241 -0.4177 -0.1969  0.0882
   58SOL     OW  172   0.018   0.991   2.050  0.2798 -0.2317  0.2236
   58SOL    HW1  173   3.025   1.030   1.984  2.5859 -3.1207  2.4661
   58SOL    HW2  174   0.060   0.897   2.029 -0.3063  0.3608 -0.8959
   59SOL     OW  175   0.588   2.674   1.565 -0.4461 -0.3899 -0.6116
   59SOL    HW1  176   0.582   2.768   1.603 -1.5117 -0.4127  0.1008
   59SOL    HW2  177   0.648   2.672   1.480  1.2456 -1.7132 -2.1941
   60SOL     OW  178   2.034   2.797   0.226 -0.0748  0.7829  0.0199
   60SOL    HW1  179   2.057   2.729   0.297 -1.7120  0.8267 -1.5468
   60SOL    HW2  180   2.115   2.832   0.180 -0.1340  1.2412  0.2319
   61SOL     OW  181   1.483   2.301   0.464  0.2148 -0.0778 -0.0958
   61SOL    HW1  182   1.528   2.281   0.556 -1.2007 -0.7240  1.6465
   61SOL    HW2  183   1.556   2.306   0.392  1.3425 -0.5220 -0.7864
   62SOL     OW  184   1.821   2.730   2.754  0.0091  0.7174  0.0926
   62SOL    HW1  185   1.759   2.653   2.770  0.3342 -1.4266 -0.1153
   62SOL    HW2  186   1.882   2.736   2.834  0.8924  0.0228 -0.7864
   63SOL     OW  187   2.161   0.783   0.553 -0.2562  0.0736  0.1410
   63SOL    HW1  188   2.193   0.871   0.505 -2.5629  1.0300 -3.0096
   63SOL    HW2  189   2.059   0.795   0.582 -1.2684 -2.1969  1.2459
   64SOL     OW  190   1.601   1.035   0.015 -0.1097  0.5378 -0.1273
   64SOL    HW1  191   1.623   1.100   3.009 -0.0412  0.4258 -0.1542
   64SOL    HW2  192   1.498   1.019   0.006 -0.7230 -2.0141  0.3539
   65SOL     OW  193   0.709   2.153   1.571 -0.1164 -0.6601  0.4124
   65SOL    HW1  194   0.643   2.147   1.493 -0.0399 -1.6084 -0.7497
   65SOL    HW2  195   0.676   2.224   1.638  1.0391  0.0069 -0.4564
   66SOL     OW  196   1.000   1.114   1.382  0.5784 -0.3356 -0.5290
   66SOL    HW1  197   1.048   1.098   1.466 -0.6814  1.2203  0.0699
   66SOL    HW2  198   1.053   1.166   1.317 -4.3626 -1.6344  1.4123
   67SOL     OW  199   2.464   1.903   1.780 -0.3569 -0.0675  0.3711
   67SOL    HW1  200   2.489   1.887   1.686 -2.6060  2.5513  4.4619
   67SOL    HW2  201   2.425   1.820   1.816 -0.6841  0.8220 -1.1229
   68SOL     OW  202   1.077   1.720   1.830  0.0341 -0.2213 -0.2100
   68SOL    HW1  203   1.071   1.641   1.762 -2.1468 -0.5307  1.7280
   68SOL    HW2  204   1.010   1.795   1.817 -0.8669 -0.1313  1.9349
   69SOL     OW  205   3.070   0.115   0.039  0.2661 -0.4255 -0.7295
   69SOL    HW1  206   3.047   0.167   0.127 -1.1495  3.0133  0.8352
   69SOL    HW2  207   2.987   0.095   3.058  3.1155 -0.4896  0.2845
   70SOL     OW  208   2.350   1.225   2.347  0.4077  0.1291  0.4199
   70SOL    HW1  209   2.271   1.279   2.319 -0.6356  1.4113 -1.4535
   70SOL    HW2  210   2.436   1.286   2.359  0.9542  1.2955  0.0564
   71SOL     OW  211   0.961   2.035   0.824 -0.4199  0.6826 -0.1354
   71SOL    HW1  212   1.044   2.089   0.832  2.6605  1.3061 -0.4916
   71SOL    HW2  213   0.962   1.963   0.889 -0.8678  1.1848 -0.3971
   72SOL     OW  214   2.370   2.014   0.529  0.0872  0.0807 -0.0562
   72SOL    HW1  215   2.381   2.115   0.504  1.5570  2.9783 -0.1604
   72SOL    HW2  216   2.397   1.998   0.627  1.1625  0.0503 -2.2444
   73SOL     OW  217   0.897   0.653   0.921  0.2794  0.0158 -0.1079
   73SOL    HW1  218   0.942   0.740   0.891  0.8536 -1.6941  2.0481
   73SOL    HW2  219   0.813   0.630   0.867 -2.7448 -0.5320  0.5242
   74SOL     OW  220   2.669   2.066   1.882  0.0725  0.2378  0.4673
   74SOL    HW1  221   2.633   2.008   1.807  0.9169 -1.0208 -0.7590
   74SOL    HW2  222   2.730   2.133   1.841 -1.4026 -0.1766  1.4183
   75SOL     OW  223   1.526   1.862   2.118 -0.3164 -0.0298 -0.2875
   75SOL    HW1  224   1.453   1.804   2.076 -1.1472 -2.4096 -0.6246
   75SOL    HW2  225   1.599   1.799   2.154  0.3300  0.1088 -0.7256
   76SOL     OW  226   1.338   1.533   1.159  0.1720  0.5459 -0.3084
   76SOL    HW1  227   1.287   1.609   1.116 -2.6283 -1.0662  0.5127
   76SOL    HW2  228   1.435   1.525   1.136 -0.1737  0.1172  1.0290
   77SOL     OW  229   2.386   1.226   1.519  0.0083 -0.2154  0.3443
   77SOL    HW1  230   2.439   1.266   1.439 -0.0899  2.9736  2.0819
   77SOL    HW2  231   2.290   1.217   1.503  2.6278 -0.1996 -0.9438
   78SOL     OW  232   1.598   0.605   0.300 -0.4854 -0.0843  0.1002
   78SOL    HW1  233   1.607   0.662   0.216 -0.5484 -0.2388 -0.7462
   78SOL    HW2  234   1.506   0.569   0.306  1.2597  0.6123 -2.5519
   79SOL     OW  235   1.039   1.503   2.082  0.5218 -0.9917  0.1315
   79SOL    HW1  236   1.048   1.577   2.013  2.0199  1.2242  1.0406
   79SOL    HW2  237   1.035   1.544   2.176  2.2428  1.8448  0.4748
   80SOL     OW  238   1.003   0.313   1.445 -0.1445 -0.1084  0.0238
   80SOL    HW1  239   1.047   0.405   1.435  0.9920  0.2699  0.0525
   80SOL    HW2  240   1.069   0.247   1.487 -0.4380  2.7177 -1.9179
   81SOL     OW  241   0.499   2.426   0.304  0.3727 -0.0926  0.3527
   81SOL    HW1  242   0.561   2.498   0.268  0.8403 -1.4676  0.0873
   81SOL    HW2  243   0.541   2.377   0.382  0.5041 -0.1479 -2.4283
   82SOL     OW  244   1.184   0.125   1.495  0.1661  0.7219  0.4124
   82SOL    HW1  245   1.222   0.091   1.584  0.9696 -0.8117  1.2614
   82SOL    HW2  246   1.261   0.162   1.435  3.6852 -0.4054 -2.6139
   83SOL     OW  247   0.360   2.316   0.918  0.2882  0.5402 -0.6863
   83SOL    HW1  248   0.309   2.320   1.008  0.0735  1.1194 -2.3220
   83SOL    HW2  249   0.316   2.246   0.861 -0.3476  0.9481 -0.5582
   84SOL     OW  250   2.837   1.284   1.108 -0.1330 -0.7221 -0.0449
   84SOL    HW1  251   2.889   1.322   1.027  0.3289  0.6157  1.4489
   84SOL    HW2  252   2.897   1.233   1.177  0.8852 -0.3457  2.2300
   85SOL     OW  253   2.330   1.882   1.171 -0.1170 -0.2291 -0.1506
   85SOL    HW1  254   2.289   1.876   1.264  1.5639  0.1046 -0.4528
   85SOL    HW2  255   2.433   1.897   1.170 -1.6683  2.4385  1.3562
   86SOL     OW  256   1.352   2.229   1.990 -0.0754  0.0894  0.1055
   86SOL    HW1  257   1.341   2.217   1.887 -0.6702 -0.0115 -4.3789
   86SOL    HW2  258   1.441   2.214   2.030 -1.5590 -0.3393 -1.1504
   87SOL     OW  259   2.220   1.512   0.706  0.5800 -0.0623 -0.1466
   87SOL    HW1  260   2.197   1.470   0.617 -1.4246  3.0654 -0.7844
   87SOL    HW2  261   2.319   1.522   0.716 -0.2524  3.1655  2.5892
   88SOL     OW  262   0.410   2.952   0.893  0.2779 -0.2469 -0.4647
   88SOL    HW1  263   0.414   2.942   0.794  0.3321  1.2607  0.5598
   88SOL    HW2  264   0.490   3.010   0.926 -1.7883  0.4270 -1.7819
   89SOL     OW  265   0.513   0.900   1.983 -0.1852  0.3720  0.5786
   89SOL    HW1  266   0.547   0.987   2.027 -0.1259 -0.7916  1.1018
   89SOL    HW2  267   0.585   0.827   1.975 -0.7739 -2.4867 -0.8447
   90SOL     OW  268   2.845   1.952   0.252  0.3777  0.2487  0.0762
   90SOL    HW1  269   2.794   2.027   0.296 -0.0081 -2.1424 -1.6809
   90SOL    HW2  270   2.848   1.870   0.313 -1.5391  1.2570  0.7733
   91SOL     OW  271   0.921   1.844   1.007 -0.6503 -0.0001 -0.2472
   91SOL    HW1  272   0.943   1.868   1.102 -0.2712 -2.5436  0.7953
   91SOL    HW2  273   0.830   1.791   1.003 -4.1226  1.4297  0.9200
   92SOL     OW  274   2.201   0.050   1.745  0.5634  0.6565  0.0066
   92SOL    HW1  275   2.276   0.101   1.791 -0.0159  3.1660 -1.0990
   92SOL    HW2  276   2.150   3.061   1.811 -0.0959  1.9755  3.9015
   93SOL     OW  277   0.356   1.707   2.843 -0.5331 -0.1323  0.3588
   93SOL    HW1  278   0.313   1.705   2.938 -0.8947  0.9441  1.4083
   93SOL    HW2  279   0.458   1.720   2.850  1.8016 -1.4218  1.4153
   94SOL     OW  280   2.382   0.177   1.902 -0.5777  0.0638 -0.3008
   94SOL    HW1  281   2.398   0.252   1.970  2.0719  1.9413 -0.0486
   94SOL    HW2  282   2.456   0.173   1.832 -1.4306  2.7571  0.9622
   95SOL     OW  283   1.978   0.210   1.957  0.1503  0.4336 -0.0893
   95SOL    HW1  284   2.020   0.199   1.863  1.5006  0.7214 -0.7361
   95SOL    HW2  285   1.926   0.129   1.980  0.2621  2.7447 -0.3947
   96SOL     OW  286   0.296   0.474   1.869 -0.2812  0.0826 -0.1811
   96SOL    HW1  287   0.195   0.464   1.859 -0.8350  0.7007 -1.6388
   96SOL    HW2  288   0.326   0.565   1.844 -1.9569 -1.8685  2.8975
   97SOL     OW  289   2.059   0.091   1.275  0.0819 -0.4507  0.3790
   97SOL    HW1  290   2.106   0.179   1.294  1.3132 -0.2873 -2.2078
   97SOL    HW2  291   1.992   0.070   1.354 -0.7187 -1.3543  1.8233
   98SOL     OW  292   1.980   2.267   1.763  0.0963  0.3505  0.3354
   98SOL    HW1  293   2.054   2.328   1.788 -0.4146 -0.5556  0.0100
   98SOL    HW2  294   2.005   2.169   1.767  1.2283  0.0363 -1.7434
   99SOL     OW  295   0.545   0.717   0.952  0.6837  0.0237 -0.6490
   99SOL    HW1  296   0.469   0.768   0.913 -1.9145 -1.0678 -1.9167
   99SOL    HW2  297   0.582   0.656   0.876 -2.2243 -0.0735  0.3722
  100SOL     OW  298   2.846   1.977   2.062 -0.2014 -0.0225  0.3160
  100SOL    HW1  299   2.769   2.016   2.006  0.3212 -1.0742 -0.2527
  100SOL    HW2  300   2.904   2.057   2.095 -1.2025  0.7022 -0.0183
  101SOL     OW  301   1.469   0.035   3.014 -0.5738  0.6189 -0.3404
  101SOL    HW1  302   1.487   0.125   2.971  0.0241 -0.5643 -0.0522
  101SOL    HW2  303   1.448   3.030   2.949 -1.3538 -0.0082  0.6959
  102SOL     OW  304   2.836   0.006   1.172 -0.0954  0.0271  0.3262
  102SOL    HW1  305   2.756   0.059   1.203 -3.2042  1.3017  1.4579
  102SOL    HW2  306   2.851   0.035   1.075 -0.7010  2.6155  0.2983
  103SOL     OW  307   0.375   2.938   2.347 -0.3237 -0.1178 -0.2764
  103SOL    HW1  308   0.336   2.844   2.332 -0.4904 -2.3460 -2.1308
  103SOL    HW2  309   0.455   2.935   2.409  0.1802  1.4131 -1.1394
  104SOL     OW  310   0.480   2.114   1.402  0.3002  0.0216 -0.3656
  104SOL    HW1  311   0.414   2.180   1.360  2.0083  1.3204  1.0916
  104SOL    HW2  312   0.476   2.015   1.362  1.9199  0.5418  0.0582
  105SOL     OW  313   0.654   1.913   2.004  0.3663  0.4969  0.0530
  105SOL    HW1  314   0.605   1.847   2.064  0.2282 -1.1113  0.6589
  105SOL    HW2  315   0.723   1.971   2.057  1.4781  3.6141  0.4786
  106SOL     OW  316   2.338   3.056   0.456  0.0691  0.0411  0.4534
  106SOL    HW1  317   2.312   3.028   0.554  0.5330 -1.3437  1.5622
  106SOL    HW2  318   2.436   3.044   0.448 -5.6785  0.5157 -2.5445
  107SOL     OW  319   0.578   1.080   1.053 -0.1060 -0.1612  0.1405
  107SOL    HW1  320   0.507   1.117   1.117  1.9016 -0.2966  3.5839
  107SOL    HW2  321   0.588   0.978   1.056  0.3439 -2.3848  0.7786
  108SOL     OW  322   2.894   1.110   1.899 -0.3629  0.0256 -0.6546
  108SOL    HW1  323   2.805   1.149   1.931  0.6444 -1.2406  0.6865
  108SOL    HW2  324   2.942   1.175   1.838 -2.5900 -0.4248  0.2020
  109SOL     OW  325   1.879   2.727   3.060  0.7235  0.0253 -0.0343
  109SOL    HW1  326   1.920   2.741   0.075 -1.6686  1.5838 -1.6809
  109SOL    HW2  327   1.777   2.719   3.066 -0.8624 -0.1515 -1.9092
  110SOL     OW  328   0.302   2.037   2.899  0.1170  0.9478  0.2320
  110SOL    HW1  329   0.315   1.987   2.809 -0.9130 -2.4308 -2.4821
  110SOL    HW2  330   0.250   1.985   2.968 -0.6751 -0.0359 -0.9093
  111SOL     OW  331   2.844   0.858   2.410  0.2216 -0.1072  0.0857
  111SOL    HW1  332   2.831   0.837   2.309  1.3777 -0.3866 -1.4475
  111SOL    HW2  333   2.948   0.868   2.421 -0.3479 -0.0091 -0.6744
  112SOL     OW  334   2.326   2.700   1.638  0.5386  0.1223 -0.4425
  112SOL    HW1  335   2.312   2.792   1.597 -1.2371 -1.0036 -0.2711
  112SOL    HW2  336   2.346   2.707   1.739  0.0449 -3.0899  5.1628
  113SOL     OW  337   2.247   1.963   2.610 -0.1310  0.6708 -0.1408
  113SOL    HW1  338   2.295   1.878   2.640 -3.6370 -0.5865  0.0667
  113SOL    HW2  339   2.275   2.039   2.679 -0.6910  0.9180 -0.3111
  114SOL     OW  340   0.628   0.110   0.550 -0.8845  0.3873  0.2153
  114SOL    HW1  341   0.644   0.013   0.575  3.1782 -1.2485  0.4517
  114SOL    HW2  342   0.712   0.166   0.579 -0.8224  1.7153 -0.7482
  115SOL     OW  343   2.989   1.841   2.936  0.1713  0.2118  0.2546
  115SOL    HW1  344   2.965   1.745   2.967  0.5896 -1.2172  0.8331
  115SOL    HW2  345   3.066   1.880   2.985  0.7259  1.7567  0.6525
  116SOL     OW  346   3.061   1.296   1.749 -0.2626  0.2745 -0.3438
  116SOL    HW1  347   0.090   1.297   1.773  1.9626  0.0264  0.8430
  116SOL    HW2  348   3.015   1.377   1.792 -0.4056  0.3070 -2.1020
  117SOL     OW  349   2.061   0.366   1.357  0.2468 -0.2050 -0.1448
  117SOL    HW1  350   2.106   0.442   1.318  0.5185 -1.9508  0.8049
  117SOL    HW2  351   1.968   0.396   1.384 -2.6314  1.1735 -0.8879
  118SOL     OW  352   2.803   2.476   1.994 -0.0176  0.2051 -0.5192
  118SOL    HW1  353   2.753   2.541   1.932 -0.6771  0.1743 -2.0861
  118SOL    HW2  354   2.895   2.514   2.020 -3.1446  1.2657 -1.8671
  119SOL     OW  355   0.478   1.423   1.774 -0.4576  0.1137 -0.7467
  119SOL    HW1  356   0.534   1.462   1.700  1.0772 -0.3999  0.9868
  119SOL    HW2  357   0.534   1.403   1.857 -0.3062  2.4728  3.2372
  120SOL     OW  358   0.255   1.304   1.713  1.2721  0.3151  0.1347
  120SOL    HW1  359   0.282   1.210   1.738  0.5528  0.8269 -0.4998
  120SOL    HW2  360   0.332   1.369   1.735  0.9965  0.8353  0.9176
  121SOL     OW  361   1.495   0.871   0.721 -0.0032  0.2365  0.3485
  121SOL    HW1  362   1.434   0.799   0.691  3.7239  0.2585 -1.4209
  121SOL    HW2  363   1.585   0.854   0.682 -3.5951 -1.1616  3.6635
  122SOL     OW  364   2.329   2.144   2.779  0.2613  0.0543  0.1763
  122SOL    HW1  365   2.282   2.168   2.862  1.1863  1.3468  0.0508
  122SOL    HW2  366   2.325   2.224   2.718 -1.1143 -0.2202  0.5386
  123SOL     OW  367   3.065   0.181   0.321  0.1079  0.1005  0.4734
  123SOL    HW1  368   2.971   0.148   0.317  3.1437 -0.3960  0.3573
  123SOL    HW2  369   0.020   0.194   0.416 -1.6756  2.9316  0.2121
  124SOL     OW  370   1.757   1.367   0.007 -0.6354  0.0507  1.0670
  124SOL    HW1  371   1.790   1.460   3.049 -0.0954  0.7238  1.5466
  124SOL    HW2  372   1.829   1.321   0.064 -2.4621 -1.5194 -1.0689
  125SOL     OW  373   0.046   0.671   2.281  0.0955  0.4099 -0.1083
  125SOL    HW1  374   0.032   0.719   2.372  1.9583  0.9607  0.8644
  125SOL    HW2  375   0.123   0.716   2.237 -2.6487 -0.2297  2.2815
  126SOL     OW  376   0.050   2.622   2.979 -0.1927 -0.6846 -0.1026
  126SOL    HW1  377   3.057   2.564   2.933  3.1780 -1.1184  1.6329
  126SOL    HW2  378   0.082   2.573   3.060 -0.7027 -2.9326  1.0706
  127SOL     OW  379   2.682   1.828   0.054  0.1843 -0.6290 -0.0896
  127SOL    HW1  380   2.757   1.862   0.110 -0.6006 -1.1841 -1.5724
  127SOL    HW2  381   2.648   1.891   3.058 -1.3334 -3.3131 -1.1116
  128SOL     OW  382   0.883   0.921   0.859 -0.1464  0.2347  0.0588
  128SOL    HW1  383   0.971   0.971   0.860  1.8742  0.0381  0.5371
  128SOL    HW2  384   0.837   0.937   0.949  2.6194  2.1150  0.3763
  129SOL     OW  385   2.314   2.141   1.063  0.4425 -0.0112 -0.6055
  129SOL    HW1  386   2.270   2.052   1.086  1.1778  0.2396  0.3565
  129SOL    HW2  387   2.253   2.217   1.099  1.7232 -1.5795  1.6049
  130SOL     OW  388   1.956   0.780   0.158  0.5563  0.2451 -0.3300
  130SOL    HW1  389   2.029   0.791   0.086  1.4932  1.3063 -3.0861
  130SOL    HW2  390   1.881   0.723   0.129 -1.5039 -1.4350  2.1928
  131SOL     OW  391   2.903   1.559   2.591 -0.2896 -0.3556  0.2464
  131SOL    HW1  392   2.942   1.535   2.502 -1.6122 -0.6216 -0.3592
  131SOL    HW2  393   2.945   1.650   2.623  1.9816  1.4813  1.4999
  132SOL     OW  394   1.185   1.050   1.959 -0.1456  0.6467 -0.2084
  132SOL    HW1  395   1.113   1.116   1.978  0.5089 -1.3538 -1.2670
  132SOL    HW2  396   1.156   0.968   1.902 -0.7855  0.4845 -1.9301
  133SOL     OW  397   0.480   1.203   0.735 -0.2469  0.4162 -0.4276
  133SOL    HW1  398   0.581   1.195   0.718 -2.4879 -1.0651 -0.1358
  133SOL    HW2  399   0.464   1.301   0.756 -1.1606 -0.6999  0.3718
  134SOL     OW  400   3.020   1.579   3.028  0.2461  0.4008  0.0755
  134SOL    HW1  401   0.011   1.540   0.025 -3.6235  1.1343  1.4215
  134SOL    HW2  402   3.046   1.548   2.936  0.3037 -0.1049 -0.1923
  135SOL     OW  403   1.653   0.742   0.081 -0.1576  0.0933  0.5002
  135SOL    HW1  404   1.613   0.830   0.058  0.1446 -1.3638 -0.6676
  135SOL    HW2  405   1.691   0.701   3.064 -0.0282  0.7446  2.1871
  136SOL     OW  406   2.175   1.893   1.433  0.2956  0.1263  0.5097
  136SOL    HW1  407   2.111   1.817   1.423  0.9612  1.5367  0.7285
  136SOL    HW2  408   2.125   1.981   1.454  0.6738 -1.2443  0.8751
  137SOL     OW  409   2.350   2.487   0.905  0.4367  0.5366 -0.0507
  137SOL    HW1  410   2.435   2.533   0.937 -1.8102 -0.1128  0.3504
  137SOL    HW2  411   2.266   2.542   0.935 -2.3904  4.6991  2.6395
  138SOL     OW  412   2.299   0.526   1.759 -0.0031 -0.1021 -0.6985
  138SOL    HW1  413   2.204   0.547   1.802 -1.2032  0.6488  2.7987
  138SOL    HW2  414   2.291   0.458   1.685  1.3798  2.9412  3.3148
  139SOL     OW  415   2.659   2.418   2.736 -0.4471 -0.3049  0.1095
  139SOL    HW1  416   2.658   2.321   2.762 -0.5923  1.9924  1.3372
  139SOL    HW2  417   2.636   2.423   2.636 -1.8645  0.1980  0.4401
  140SOL     OW  418   1.683   2.128   2.687  0.2286  0.4118 -0.1353
  140SOL    HW1  419   1.779   2.159   2.683  3.1927 -2.1930  0.6922
  140SOL    HW2  420   1.680   2.031   2.723 -3.2156  1.2457  0.7063
  141SOL     OW  421   1.083   1.262   2.611 -0.2282 -0.4467  0.6496
  141SOL    HW1  422   1.141   1.336   2.573 -0.3220 -2.0499  0.0857
  141SOL    HW2  423   1.128   1.172   2.615 -3.6073  2.2795  2.2815
  142SOL     OW  424   1.944   2.578   2.101  0.1043  0.4238 -0.2401
  142SOL    HW1  425   1.983   2.483   2.114  0.4655 -2.5670  4.0989
  142SOL    HW2  426   1.985   2.624   2.021 -0.3329  2.2555 -1.2918
  143SOL     OW  427   1.213   2.286   0.528 -0.1419 -0.2747  0.3336
  143SOL    HW1  428   1.297   2.302   0.472  0.3273 -1.4553 -2.8857
  143SOL    HW2  429   1.216   2.343   0.615 -2.4495  4.6651  0.4619
  144SOL     OW  430   0.711   2.691   0.510 -0.5365  0.4899 -0.5017
  144SOL    HW1  431   0.804   2.678   0.546 -1.5533  1.6852 -1.0298
  144SOL    HW2  432   0.712   2.661   0.411  0.4679  0.2672  0.7078
  145SOL     OW  433   1.656   2.519   2.830  0.4822 -0.5893  0.5108
  145SOL    HW1  434   1.569   2.513   2.773 -1.5814  0.8933 -0.1681
  145SOL    HW2  435   1.634   2.573   2.915 -0.4206 -0.5441 -0.7962
  146SOL     OW  436   2.071   2.538   3.038  0.6944  0.1389 -0.0485
  146SOL    HW1  437   2.001   2.616   3.046  1.3318  1.0198  2.1551
  146SOL    HW2  438   2.144   2.544   0.035 -0.5262  0.0571 -3.0988
  147SOL     OW  439   0.307   1.710   1.849  0.2454 -0.2142 -0.4402
  147SOL    HW1  440   0.210   1.712   1.826 -0.1730 -0.4822 -1.4655
  147SOL    HW2  441   0.314   1.700   1.949 -0.8667 -2.2167  0.8259
  148SOL     OW  442   1.477   2.846   0.176  0.2339 -0.3960  0.5392
  148SOL    HW1  443   1.479   2.924   0.243 -0.2766 -5.1928  0.9522
  148SOL    HW2  444   1.385   2.839   0.135 -0.1981 -2.6132  2.0574
  149SOL     OW  445   0.508   1.952   0.147 -0.0424  0.2994 -0.3967
  149SOL    HW1  446   0.568   1.972   0.065 -0.9548  0.8073 -1.8692
  149SOL    HW2  447   0.467   2.047   0.175 -2.5355  1.9995  0.3775
  150SOL     OW  448   0.180   2.691   1.176 -0.0492 -0.4761  0.0616
  150SOL    HW1  449   0.224   2.690   1.267 -0.7114  0.0577  0.0900
  150SOL    HW2  450   0.089   2.730   1.181  0.3423  0.8610 -0.4560
  151SOL     OW  451   0.358   1.430   2.948 -0.6517  0.0073 -0.1978
  151SOL    HW1  452   0.371   1.432   2.841 -0.2269  0.9575 -5.6891
  151SOL    HW2  453   0.436   1.395   3.006  1.6581  0.1269  0.0802
  152SOL     OW  454   3.038   2.073   1.029  0.0844 -0.0702 -0.0766
  152SOL    HW1  455   2.944   2.032   1.039  0.4638  2.1163  0.3902
  152SOL    HW2  456   3.036   2.172   1.051  0.2015 -1.9277 -0.8760
  153SOL     OW  457   1.546   2.181   0.719  0.0336 -0.1076  0.1901
  153SOL    HW1  458   1.639   2.148   0.701 -0.5961 -0.7134 -1.6293
  153SOL    HW2  459   1.476   2.106   0.732  1.2904  0.0108  1.2123
  154SOL     OW  460   0.565   0.048   1.508 -0.6514  0.0427  0.0523
  154SOL    HW1  461   0.561   0.040   1.409  0.1274 -2.3047 -1.2685
  154SOL    HW2  462   0.642   0.113   1.527  1.8722  1.2436 -2.3945
  155SOL     OW  463   2.669   2.173   0.322  0.0510  0.1102  0.1437
  155SOL    HW1  464   2.720   2.212   0.405  1.9148  1.3416 -1.1835
  155SOL    HW2  465   2.570   2.185   0.335 -0.6674  1.9970 -0.1943
  156SOL     OW  466   2.349   1.923   0.259 -0.2633  0.0942  0.3389
  156SOL    HW1  467   2.394   1.990   0.196 -2.5185  1.9220  1.7596
  156SOL    HW2  468   2.352   1.956   0.355 -1.5526  0.5002  1.4965
  157SOL     OW  469   0.383   2.900   1.887 -0.1561 -0.1059 -0.7271
  157SOL    HW1  470   0.376   2.979   1.957  1.2499  2.6597  1.3227
  157SOL    HW2  471   0.378   2.815   1.942  0.0709 -0.9742 -0.0068
  158SOL     OW  472   1.246   0.469   1.190 -0.3590  0.1340 -0.2214
  158SOL    HW1  473   1.201   0.528   1.118 -1.3629 -1.0835  0.0118
  158SOL    HW2  474   1.213   0.495   1.280 -0.7868 -0.3616 -2.5531
  159SOL     OW  475   1.805   0.961   2.941  0.0989 -0.2164  0.1578
  159SOL    HW1  476   1.730   0.982   3.006  0.9602 -2.0650 -1.7829
  159SOL    HW2  477   1.772   0.895   2.872 -1.5556 -1.0203  1.9468
  160SOL     OW  478   1.207   1.899   0.492  0.2663 -0.7850  0.2555
  160SOL    HW1  479   1.271   1.950   0.432 -0.4833 -0.0416  0.4026
  160SOL    HW2  480   1.124   1.948   0.513  1.6397  1.0119  1.1474
  161SOL     OW  481   2.606   2.120   2.509 -0.1484 -0.2306  0.0261
  161SOL    HW1  482   2.695   2.116   2.461 -0.0375 -0.5300 -0.7608
  161SOL    HW2  483   2.522   2.136   2.447 -2.4228  1.5590  2.3381
  162SOL     OW  484   0.266   2.291   1.378  0.1930  0.2735 -0.1911
  162SOL    HW1  485   0.181   2.270   1.432 -1.5352 -1.1090  0.8935
  162SOL    HW2  486   0.232   2.319   1.288 -0.7750  0.5949 -1.0727
  163SOL     OW  487   0.354   0.611   2.795  0.2838 -0.1362 -0.0684
  163SOL    HW1  488   0.422   0.662   2.856 -1.1124 -2.0446  0.7259
  163SOL    HW2  489   0.256   0.638   2.815 -1.1111  0.0992  1.6651
  164SOL     OW  490   0.263   2.571   2.667 -0.1554  0.3355  0.4223
  164SOL    HW1  491   0.172   2.517   2.665 -0.9350 -0.8206  1.9558
  164SOL    HW2  492   0.250   2.651   2.731 -0.0303 -2.4763  0.5410
  165SOL     OW  493   2.442   0.934   1.512 -0.0744 -0.5669 -0.0974
  165SOL    HW1  494   2.432   1.028   1.485 -0.3916  0.4331 -1.0382
  165SOL    HW2  495   2.517   0.920   1.581 -2.2140 -0.8735 -2.0039
  166SOL     OW  496   2.034   1.668   1.434 -0.3290 -0.1777 -0.4331
  166SOL    HW1  497   2.115   1.606   1.432  0.2572  3.3118 -1.7224
  166SOL    HW2  498   1.946   1.614   1.444  0.2510  1.9075 -0.2387
  167SOL     OW  499   0.140   0.778   2.992 -0.1896 -0.2936 -0.4202
  167SOL    HW1  500   0.074   0.748   3.061 -1.0865  3.6932 -0.0437
  167SOL    HW2  501   0.106   0.857   2.939 -0.1067  0.1139 -0.3078
  168SOL     OW  502   2.124   0.261   2.728 -0.1581  1.1234 -0.2435
  168SOL    HW1  503   2.038   0.287   2.691 -0.0193  1.4720  0.8213
  168SOL    HW2  504   2.188   0.334   2.744 -3.4541 -0.6743  0.0409
  169SOL     OW  505   0.559   1.166   2.950  0.0381  0.1598 -0.1954
  169SOL    HW1  506   0.557   1.236   3.024  1.0665 -0.1897 -1.5215
  169SOL    HW2  507   0.464   1.125   2.949 -0.6839 -2.2506 -1.6919
  170SOL     OW  508   1.007   1.195   1.690 -0.1160  0.0944  0.3654
  170SOL    HW1  509   1.002   1.240   1.778  0.9609 -1.4410 -1.4972
  170SOL    HW2  510   1.052   1.262   1.622  2.0931  4.3067 -0.9360
  171SOL     OW  511   1.472   2.709   1.246  0.4091  0.1859  1.0851
  171SOL    HW1  512   1.479   2.808   1.225 -3.9529  1.3536 -0.0801
  171SOL    HW2  513   1.560   2.656   1.225 -1.7388 -1.3712  2.2684
  172SOL     OW  514   0.833   2.966   1.768  0.2432 -0.1923 -0.1450
  172SOL    HW1  515   0.732   2.970   1.750 -0.1984  0.1170  1.2125
  172SOL    HW2  516   0.873   2.877   1.736  0.3355  1.5865 -2.1813
  173SOL     OW  517   0.681   2.397   0.691 -0.7372 -0.1862 -0.0880
  173SOL    HW1  518   0.747   2.417   0.616  2.1018  0.4403 -1.7680
  173SOL    HW2  519   0.641   2.476   0.731  1.5401 -1.9924 -0.6092
  174SOL     OW  520   2.129   0.109   0.326  0.2612 -0.2478  0.1562
  174SOL    HW1  521   2.043   0.062   0.302  1.0705 -0.9117 -0.2017
  174SOL    HW2  522   2.194   0.050   0.383  0.6470 -0.7360  3.1007
  175SOL     OW  523   1.036   1.283   1.003 -0.6409 -0.3410 -0.1546
  175SOL    HW1  524   1.071   1.371   0.973 -2.0170  0.8068 -2.4704
  175SOL    HW2  525   0.943   1.264   0.966  1.7416  1.3046 -1.1853
  176SOL     OW  526   1.188   1.722   1.057  0.5457 -0.8311 -0.4858
  176SOL    HW1  527   1.250   1.805   1.060  0.0336  0.9943  2.6577
  176SOL    HW2  528   1.090   1.747   1.067  0.0505  1.7631  0.1873
  177SOL     OW  529   1.324   0.875   0.937  0.2977  0.3015 -0.2076
  177SOL    HW1  530   1.371   0.912   1.018 -1.5456  0.5291  1.9454
  177SOL    HW2  531   1.377   0.896   0.854 -1.0536  0.4245  1.3025
  178SOL     OW  532   2.212   1.396   0.444  0.0824 -0.1204 -0.3991
  178SOL    HW1  533   2.283   1.409   0.371 -1.3799  1.7510 -0.6543
  178SOL    HW2  534   2.138   1.342   0.400 -0.0147  0.6321 -0.3200
  179SOL     OW  535   1.247   2.738   0.043  0.0865 -0.0128 -0.5445
  179SOL    HW1  536   1.176   2.735   0.112  2.6306 -1.6150 -1.6080
  179SOL    HW2  537   1.265   2.642   0.013  1.3320 -1.7577 -3.5772
  180SOL     OW  538   1.886   1.271   1.408  0.0712  0.5900 -0.7145
  180SOL    HW1  539   1.859   1.363   1.456 -3.0427  2.4195  1.9778
  180SOL    HW2  540   1.903   1.286   1.311  0.3036  1.0499 -2.4707
  181SOL     OW  541   0.787   1.050   1.727  0.0911 -0.6181 -0.1267
  181SOL    HW1  542   0.857   1.119   1.714 -2.6709 -1.2814  0.7708
  181SOL    HW2  543   0.813   0.956   1.696 -1.3376  0.8946  0.7502
  182SOL     OW  544   2.708   1.009   2.960 -0.1730  0.8934  0.5609
  182SOL    HW1  545   2.729   0.986   2.864 -1.7485  1.1086  1.5750
  182SOL    HW2  546   2.746   1.091   2.996 -0.9852 -3.5060 -2.2643
  183SOL     OW  547   1.729   0.359   1.877  0.3587  0.1383 -0.4175
  183SOL    HW1  548   1.747   0.382   1.978 -1.0061 -0.1648  1.6289
  183SOL    HW2  549   1.637   0.314   1.869 -1.3041  0.0759 -0.7126
  184SOL     OW  550   0.822   0.532   1.160  0.0665 -0.3239 -0.6929
  184SOL    HW1  551   0.854   0.569   1.067  2.3907  0.7488  0.6468
  184SOL    HW2  552   0.841   0.435   1.173 -1.1867  0.0746 -1.5037
  185SOL     OW  553   2.336   1.187   0.580  0.2703 -1.0116 -0.4621
  185SOL    HW1  554   2.433   1.184   0.614  1.0326 -0.2639  2.0441
  185SOL    HW2  555   2.311   1.282   0.555 -1.1904  0.2867 -0.9251
  186SOL     OW  556   0.173   2.029   0.267 -0.1341  0.5069 -0.3070
  186SOL    HW1  557   0.092   2.075   0.222  0.8640 -0.9260 -0.0911
  186SOL    HW2  558   0.257   2.075   0.226  1.5042  1.3851  0.0293
  187SOL     OW  559   1.822   2.196   2.962 -0.3676 -0.2760  0.4132
  187SOL    HW1  560   1.857   2.099   2.938  0.9477 -1.0983 -1.4535
  187SOL    HW2  561   1.862   2.266   2.898  0.3470  0.6851 -1.3330
  188SOL     OW  562   1.124   2.444   1.440  0.2472 -0.0061  0.1036
  188SOL    HW1  563   1.102   2.542   1.434  0.4505  1.1650  0.8135
  188SOL    HW2  564   1.209   2.428   1.384  1.2413 -2.6920 -0.5702
  189SOL     OW  565   2.601   1.190   2.654  0.6257  0.2504 -0.4586
  189SOL    HW1  566   2.615   1.285   2.621 -1.0841 -1.8841  2.8420
  189SOL    HW2  567   2.674   1.165   2.718 -1.7581  0.0957 -2.2603
  190SOL     OW  568   0.972   2.702   2.171  0.3942  0.1347  0.2367
  190SOL    HW1  569   0.883   2.680   2.124 -0.1391 -0.3264 -0.6830
  190SOL    HW2  570   0.977   2.804   2.175  0.5604 -0.0442 -3.2491
  191SOL     OW  571   2.586   0.982   0.934  0.1763  0.1531  0.1213
  191SOL    HW1  572   2.565   0.908   1.006  1.4270  1.6181 -0.2276
  191SOL    HW2  573   2.513   1.056   0.929  2.2177 -0.9852  0.3228
  192SOL     OW  574   1.991   0.563   1.009  0.2372 -0.0526  0.0651
  192SOL    HW1  575   2.058   0.551   1.087 -0.9403  0.0309  3.7861
  192SOL    HW2  576   1.944   0.481   0.975 -0.2564 -3.2558 -1.2587
  193SOL     OW  577   1.067   0.037   0.208  0.1240 -0.4814  0.0001
  193SOL    HW1  578   1.125   0.056   0.126  0.6944  1.2114 -1.1862
  193SOL    HW2  579   0.973   0.087   0.195 -2.6389 -0.5259 -0.8617
  194SOL     OW  580   1.655   2.317   1.190  0.0370  0.1257 -0.0912
  194SOL    HW1  581   1.599   2.304   1.102 -1.2529  1.0349  1.9935
  194SOL    HW2  582   1.611   2.257   1.261 -0.2391 -0.3537 -1.5947
  195SOL     OW  583   2.906   0.873   0.540  0.0335  0.5370 -0.8530
  195SOL    HW1  584   2.833   0.895   0.608  0.1875  0.0311 -2.5151
  195SOL    HW2  585   2.869   0.818   0.464 -0.0037 -0.2022 -0.1552
  196SOL     OW  586   0.555   2.429   1.750 -0.0334 -0.2200  0.2894
  196SOL    HW1  587   0.555   2.501   1.678  1.9240 -1.2614  1.3310
  196SOL    HW2  588   0.472   2.425   1.809 -0.1224  1.8306 -0.0868
  197SOL     OW  589   2.946   0.378   2.539  0.0669 -0.1368 -0.0069
  197SOL    HW1  590   2.872   0.448   2.541 -2.7439 -1.2976  2.3918
  197SOL    HW2  591   2.905   0.287   2.549 -0.8358 -0.9537  1.4312
  198SOL     OW  592   2.033   1.464   0.182  0.1837 -0.0999 -0.6397
  198SOL    HW1  593   2.088   1.504   0.103 -0.1038 -1.1386 -0.7316
  198SOL    HW2  594   1.983   1.531   0.241 -1.1978  5.4186  2.2069
  199SOL     OW  595   2.497   0.697   1.846  0.4832  0.0205  0.3050
  199SOL    HW1  596   2.443   0.724   1.924  2.3190  0.3324  2.4047
  199SOL    HW2  597   2.443   0.628   1.798  0.3286  0.6497  3.0289
  200SOL     OW  598   1.654   0.009   2.696 -0.0727 -0.0964 -0.2688
  200SOL    HW1  599   1.716   3.068   2.773  2.3268 -0.6704 -0.2343
  200SOL    HW2  600   1.597   2.999   2.667 -0.8110  0.6750 -1.8887
  201SOL     OW  601   2.646   0.193   1.205  0.4431  0.3360 -0.5692
  201SOL    HW1  602   2.545   0.195   1.227  2.0261  0.1389 -0.8320
  201SOL    HW2  603   2.666   0.263   1.135  0.6227 -0.9236  1.2664
  202SOL     OW  604   2.932   2.748   0.258 -0.4031  0.1392 -0.1138
  202SOL    HW1  605   2.986   2.816   0.212  0.9205 -1.0130 -0.6760
  202SOL    HW2  606   2.950   2.736   0.355 -1.6235 -0.7797 -1.3634
  203SOL     OW  607   1.743   1.705   0.645 -0.3601  0.3904  0.1249
  203SOL    HW1  608   1.648   1.738   0.662  0.8063 -0.0836 -2.0056
  203SOL    HW2  609   1.815   1.765   0.686 -0.6931 -2.0516  1.7853
  204SOL     OW  610   0.449   1.815   2.158  0.0675 -0.3792 -0.3485
  204SOL    HW1  611   0.370   1.809   2.224 -5.4810  0.7916 -0.9995
  204SOL    HW2  612   0.464   1.715   2.124  0.3261 -1.7365 -0.6033
  205SOL     OW  613   0.697   0.545   0.801  0.2641 -0.1511  0.0078
  205SOL    HW1  614   0.730   0.451   0.823 -0.5670  2.3071 -0.9902
  205SOL    HW2  615   0.684   0.549   0.700  0.4109 -3.3821 -1.1596
  206SOL     OW  616   0.601   0.889   2.955  0.1629 -0.3577 -0.8821
  206SOL    HW1  617   0.515   0.832   2.969  0.0257 -0.5332  0.2162
  206SOL    HW2  618   0.588   0.984   2.925  0.3737 -2.3333  0.3958
  207SOL     OW  619   1.098   2.517   1.710 -0.6354  0.3434 -0.3422
  207SOL    HW1  620   1.034   2.490   1.780  2.6856  1.4529  0.4463
  207SOL    HW2  621   1.095   2.452   1.635  0.0945 -0.1355 -0.3270
  208SOL     OW  622   2.492   0.414   1.567 -0.0040  0.4733  0.1810
  208SOL    HW1  623   2.515   0.446   1.659 -0.4160 -1.2253 -2.3860
  208SOL    HW2  624   2.582   0.387   1.526 -1.1937  1.7617  0.1942
  209SOL     OW  625   1.906   0.827   0.632 -0.1128  0.5621  0.2001
  209SOL    HW1  626   1.877   0.788   0.720  1.2368  0.6403 -2.8636
  209SOL    HW2  627   1.833   0.819   0.563  0.1517 -2.0704 -1.4228
  210SOL     OW  628   2.590   1.169   0.658  0.2942 -0.1504 -0.6348
  210SOL    HW1  629   2.621   1.080   0.624  1.7878 -0.1960  0.0205
  210SOL    HW2  630   2.664   1.237   0.641  1.7608 -0.3419  1.1522
  211SOL     OW  631   1.087   2.910   2.964  0.2534  0.2895 -0.3753
  211SOL    HW1  632   1.130   2.997   2.968 -1.6337  0.5274 -1.5574
  211SOL    HW2  633   1.138   2.833   3.006  0.5625 -0.0465  0.6477
  212SOL     OW  634   1.978   1.849   0.672 -0.0788  0.4828  0.1584
  212SOL    HW1  635   2.038   1.861   0.754  0.7253  0.1619 -0.1316
  212SOL    HW2  636   2.032   1.801   0.595 -2.0158  0.2824 -0.5005
  213SOL     OW  637   2.234   3.008   2.962 -0.1923 -0.6195 -0.1498
  213SOL    HW1  638   2.189   2.969   2.880  2.5027  0.6635 -0.1560
  213SOL    HW2  639   2.178   0.023   2.984 -0.6212  3.2837  1.0565
  214SOL     OW  640   1.200   2.369   2.151  0.9567 -0.2099 -0.0999
  214SOL    HW1  641   1.227   2.467   2.169 -2.9835  2.0885 -0.3672
  214SOL    HW2  642   1.245   2.322   2.075  2.2684  0.8880  2.3461
  215SOL     OW  643   0.369   1.385   1.019  0.6739 -0.2656 -0.4742
  215SOL    HW1  644   0.272   1.397   1.022  1.0935  0.5742  2.7520
  215SOL    HW2  645   0.406   1.407   0.929 -0.2185  0.2645  2.7754
  216SOL     OW  646   0.417   3.043   2.722  0.7512 -0.2262 -0.5597
  216SOL    HW1  647   0.435   2.946   2.700  0.5252  0.9421 -0.9531
  216SOL    HW2  648   0.323   3.062   2.683  2.2322 -0.7497  0.9841
  217SOL     OW  649   2.790   1.445   1.626 -0.2166  0.1996  0.0517
  217SOL    HW1  650   2.876   1.472   1.577  0.2847  1.9066 -0.5560
  217SOL    HW2  651   2.790   1.341   1.620  3.1072  2.0045 -2.6332
  218SOL     OW  652   0.911   1.999   1.604 -0.4342 -0.1320 -0.1480
  218SOL    HW1  653   0.826   2.054   1.587  1.4065 -0.6257  0.6536
  218SOL    HW2  654   0.985   2.062   1.645  1.0955  0.2329  0.0260
  219SOL     OW  655   2.086   1.871   0.171 -0.3524  0.4460 -0.1689
  219SOL    HW1  656   2.180   1.885   0.214  1.0425  0.5237  3.2513
  219SOL    HW2  657   2.096   1.874   0.069  1.5106  3.0028  2.2156
  220SOL     OW  658   1.862   3.038   2.922 -0.1723  0.0829  0.0102
  220SOL    HW1  659   1.939   0.029   2.945  0.0722  0.5855 -0.8663
  220SOL    HW2  660   1.811   3.008   3.003  1.8358  0.8553 -2.4601
  221SOL     OW  661   2.869   0.855   0.048 -0.3405 -0.3945  0.6102
  221SOL    HW1  662   2.923   0.792   3.062  0.1113  0.0853  2.7527
  221SOL    HW2  663   2.803   0.916   0.001 -0.1787 -2.3257 -0.6789
  222SOL     OW  664   1.620   1.339   0.877 -0.2410  0.2359  0.5086
  222SOL    HW1  665   1.602   1.251   0.826  0.6582  1.5670  0.7092
  222SOL    HW2  666   1.712   1.372   0.848  1.9158  1.4106  0.1228
  223SOL     OW  667   0.990   0.305   2.800  0.3041 -0.0980  0.0444
  223SOL    HW1  668   1.087   0.275   2.814  2.0281 -2.0187  2.0795
  223SOL    HW2  669   0.953   0.374   2.863  0.6553 -0.8088 -0.4860
  224SOL     OW  670   0.929   2.854   0.998 -0.2208 -0.1106  0.3189
  224SOL    HW1  671   0.915   2.863   1.099  0.8240  0.1521  0.0455
  224SOL    HW2  672   0.919   2.754   0.971 -3.5258  0.4357 -1.5795
  225SOL     OW  673   0.945   2.984   2.093 -0.0085 -0.0489 -0.1794
  225SOL    HW1  674   0.887   2.965   2.012 -2.4092 -0.0097  0.5659
  225SOL    HW2  675   0.911   3.054   2.156  0.1912 -0.6175  1.2890
  226SOL     OW  676   1.403   1.476   0.851  0.1033  0.0416  0.3737
  226SOL    HW1  677   1.441   1.569   0.827 -1.0556  1.7624 -0.2564
  226SOL    HW2  678   1.476   1.406   0.873  0.0197 -1.4802  0.2059
  227SOL     OW  679   0.519   1.882   1.290  0.1829 -0.0207 -0.2386
  227SOL    HW1  680   0.546   1.789   1.320 -1.0110  3.4095 -2.6140
  227SOL    HW2  681   0.494   1.883   1.188 -0.7535 -0.5235  2.7335
  228SOL     OW  682   3.069   1.785   0.603  0.0637  0.1132 -0.1164
  228SOL    HW1  683   0.063   1.708   0.611 -0.9492 -1.3996 -0.0434
  228SOL    HW2  684   0.012   1.844   0.687 -0.8336  0.1409 -0.4886
  229SOL     OW  685   2.592   0.060   2.981 -0.0084 -0.3229 -0.3136
  229SOL    HW1  686   2.574   0.150   2.926  1.3215 -0.3088 -2.1566
  229SOL    HW2  687   2.502   0.034   3.025 -2.8767 -1.3425 -0.4876
  230SOL     OW  688   2.505   0.781   0.306  0.0661  0.2163 -0.3249
  230SOL    HW1  689   2.453   0.853   0.254  1.5743 -1.1887  0.0873
  230SOL    HW2  690   2.476   0.687   0.278  1.1908  1.6979  1.6692
  231SOL     OW  691   1.872   1.702   0.227 -0.4419  0.1119 -0.2151
  231SOL    HW1  692   1.835   1.680   0.138  0.6223  0.9429  2.6254
  231SOL    HW2  693   1.957   1.755   0.215 -2.5045 -1.5004  0.2324
  232SOL     OW  694   1.976   1.990   1.047  0.8329 -0.1502  0.0531
  232SOL    HW1  695   1.898   1.929   1.087 -1.9639  2.1142  1.0375
  232SOL    HW2  696   2.013   1.946   0.964 -1.2845 -0.4000  0.0429
  233SOL     OW  697   0.178   2.884   1.450  0.3969  0.0238  0.3524
  233SOL    HW1  698   0.215   2.787   1.462  0.9998 -0.5873 -1.8014
  233SOL    HW2  699   0.127   2.919   1.533  1.1171 -0.7250  0.7482
  234SOL     OW  700   0.757   0.253   2.583  0.2422  0.3670 -0.1690
  234SOL    HW1  701   0.856   0.256   2.554 -0.4362  1.0118  0.4552
  234SOL    HW2  702   0.724   0.348   2.599 -2.9184 -2.0773 -1.6059
  235SOL     OW  703   2.526   1.156   1.747  0.0356 -0.1394 -0.3146
  235SOL    HW1  704   2.525   1.055   1.770 -0.1153  0.6318  0.0569
  235SOL    HW2  705   2.447   1.185   1.682 -0.1018  2.5655 -0.5902
  236SOL     OW  706   1.346   2.792   1.504 -0.0283  0.1092 -0.2375
  236SOL    HW1  707   1.267   2.749   1.457 -2.1215  0.0307  0.2798
  236SOL    HW2  708   1.420   2.720   1.515  0.9909 -0.6272  0.9634
  237SOL     OW  709   0.526   1.653   2.502  0.1876  0.2991 -0.0284
  237SOL    HW1  710   0.597   1.586   2.468  0.2454 -1.4896 -0.4673
  237SOL    HW2  711   0.568   1.745   2.508 -1.7936 -1.4828 -1.4235
  238SOL     OW  712   0.916   0.876   2.250 -0.3059  0.3062 -0.0130
  238SOL    HW1  713   1.003   0.909   2.287 -5.2468 -0.4804 -0.4582
  238SOL    HW2  714   0.885   0.797   2.304  1.7142  2.8886  0.9433
  239SOL     OW  715   0.863   1.873   2.385  0.0059  0.4740 -0.1825
  239SOL    HW1  716   0.794   1.879   2.465 -4.9522  0.2954 -3.4110
  239SOL    HW2  717   0.960   1.902   2.407  0.2926 -0.7519  1.1902
  240SOL     OW  718   2.273   2.879   0.127  0.1762  0.1014  0.0957
  240SOL    HW1  719   2.271   2.929   0.034  0.0242 -2.3542  1.0743
  240SOL    HW2  720   2.277   2.940   0.205 -0.2406 -1.2406 -0.0983
  241SOL     OW  721   0.459   1.068   0.350  0.3485 -0.1154 -0.5939
  241SOL    HW1  722   0.411   1.051   0.437  0.1820  0.2285 -2.2335
  241SOL    HW2  723   0.468   1.166   0.331  0.0393 -1.9517  2.6706
  242SOL     OW  724   1.541   2.596   1.573  0.7932 -0.0251 -0.8245
  242SOL    HW1  725   1.486   2.511   1.567 -0.0342  0.5077 -2.8591
  242SOL    HW2  726   1.642   2.582   1.592  4.2319 -3.3876  0.7571
  243SOL     OW  727   0.777   2.585   1.834  0.3416  0.0609  0.3097
  243SOL    HW1  728   0.831   2.655   1.787  0.8989  2.2750  1.2494
  243SOL    HW2  729   0.701   2.552   1.780  1.0785 -0.2270 -0.3273
  244SOL     OW  730   2.247   0.656   2.570 -0.2883 -0.0534 -0.0976
  244SOL    HW1  731   2.180   0.656   2.491  0.2766  1.0540  1.1343
  244SOL    HW2  732   2.296   0.746   2.564  1.7393  1.0828 -0.8643
  245SOL     OW  733   1.687   2.579   1.197 -0.4199 -0.1664 -0.3973
  245SOL    HW1  734   1.685   2.476   1.199  0.3600  0.1798  2.9166
  245SOL    HW2  735   1.782   2.618   1.191 -0.6105 -1.4319 -0.9883
  246SOL     OW  736   1.470   3.056   0.345  0.8461 -0.2793 -0.1383
  246SOL    HW1  737   1.482   0.075   0.301  0.2002 -2.5613  1.2503
  246SOL    HW2  738   1.382   3.052   0.395  1.4529  3.7919 -2.6671
  247SOL     OW  739   1.853   0.557   1.736 -0.6756 -0.0551  0.1347
  247SOL    HW1  740   1.863   0.555   1.633  1.5389 -0.9011 -2.9661
  247SOL    HW2  741   1.811   0.471   1.777 -2.1470  0.9578 -0.3933
  248SOL     OW  742   0.143   2.094   1.618  0.7446 -0.5468  0.5500
  248SOL    HW1  743   0.244   2.097   1.620 -2.5276 -0.8741 -0.5140
  248SOL    HW2  744   0.113   1.995   1.611 -1.6920 -2.3501 -1.4984
  249SOL     OW  745   0.356   0.466   0.316  0.3446  0.4123 -0.2020
  249SOL    HW1  746   0.413   0.547   0.298 -1.6271 -1.7952 -1.4527
  249SOL    HW2  747   0.418   0.385   0.336  0.2093 -1.8121  0.1151
  250SOL     OW  748   2.425   0.253   2.282  0.0123  0.1111  0.3711
  250SOL    HW1  749   2.339   0.194   2.279 -1.3094 -1.7839 -2.3875
  250SOL    HW2  750   2.450   0.277   2.186  0.3766 -1.4776 -1.7964
  251SOL     OW  751   1.408   0.532   3.003 -0.1443 -0.2228 -0.2366
  251SOL    HW1  752   1.309   0.532   3.030  2.8934  1.0949  1.2887
  251SOL    HW2  753   1.452   0.624   3.001  0.4343 -0.0811  0.6274
  252SOL     OW  754   1.228   2.645   2.174  0.6331  0.0669  0.4910
  252SOL    HW1  755   1.128   2.671   2.163 -0.8755  1.3726  0.2669
  252SOL    HW2  756   1.286   2.703   2.124 -1.1169  1.0925 -0.2650
  253SOL     OW  757   2.605   2.492   0.546  0.3452 -0.2331  0.1930
  253SOL    HW1  758   2.611   2.579   0.601  0.3841  0.2239  0.4598
  253SOL    HW2  759   2.590   2.501   0.445  0.2943  0.9974 -1.1676
  254SOL     OW  760   2.415   1.102   1.187 -0.4417 -0.1361 -0.1165
  254SOL    HW1  761   2.501   1.126   1.243  1.3922  1.5016  2.3440
  254SOL    HW2  762   2.456   1.120   1.088  1.0334  1.0196 -3.4499
  255SOL     OW  763   0.609   2.715   1.293  0.0509 -0.0400 -0.1603
  255SOL    HW1  764   0.667   2.798   1.293  2.7864 -1.7274 -1.7083
  255SOL    HW2  765   0.541   2.707   1.216 -0.6380 -0.2744 -1.6242
  256SOL     OW  766   2.043   1.727   1.742 -0.1279 -0.0652  0.0773
  256SOL    HW1  767   2.029   1.647   1.808 -2.2822 -0.9176 -0.4657
  256SOL    HW2  768   2.042   1.693   1.647 -1.0569 -2.0171 -0.7932
  257SOL     OW  769   0.453   2.352   2.535  0.1472  0.4052  0.2649
  257SOL    HW1  770   0.376   2.403   2.582 -1.3527 -2.0935 -1.9039
  257SOL    HW2  771   0.431   2.270   2.475  0.0166 -1.0698 -1.2202
  258SOL     OW  772   0.558   2.530   0.901 -0.3253  0.5930 -0.5322
  258SOL    HW1  773   0.493   2.453   0.901 -2.2303 -0.7984 -0.7953
  258SOL    HW2  774   0.518   2.613   0.948  0.0046 -0.0282 -0.0172
  259SOL     OW  775   1.398   0.635   2.606 -0.1804  0.0589  0.2184
  259SOL    HW1  776   1.474   0.695   2.583 -1.0733 -1.4074 -1.6047
  259SOL    HW2  777   1.330   0.636   2.532  1.3256  2.9966  1.3153
  260SOL     OW  778   0.231   0.333   1.087 -0.0466 -0.3969  0.2970
  260SOL    HW1  779   0.228   0.232   1.066 -3.4077 -2.0997  2.2844
  260SOL    HW2  780   0.258   0.389   1.005  0.9639  0.7938 -3.4344
  261SOL     OW  781   0.836   0.116   2.245  0.5839  0.1366 -0.2202
  261SOL    HW1  782   0.796   0.038   2.301  1.5157 -0.5141  2.2157
  261SOL    HW2  783   0.890   0.179   2.298 -0.1432 -0.7504 -2.9511
  262SOL     OW  784   0.926   2.720   1.675 -0.1646 -0.1446  0.0874
  262SOL    HW1  785   0.915   2.708   1.577  0.7981  0.6092  2.1123
  262SOL    HW2  786   1.008   2.665   1.699  0.9762 -2.4708 -0.7704
  263SOL     OW  787   0.632   2.066   2.991  0.0161 -0.4636 -0.2605
  263SOL    HW1  788   0.595   2.114   2.911  3.1454  0.7326 -0.1671
  263SOL    HW2  789   0.677   2.133   3.058  0.9004 -1.9700 -0.1810
  264SOL     OW  790   1.601   1.506   1.091 -0.3853 -0.2805 -0.1730
  264SOL    HW1  791   1.624   1.593   1.048  0.2543  1.7997 -1.5251
  264SOL    HW2  792   1.641   1.433   1.029 -0.4683  0.7331  0.5984
  265SOL     OW  793   1.019   2.131   0.478 -0.3976 -0.1828  0.0101
  265SOL    HW1  794   1.111   2.165   0.499 -2.2269 -0.0542 -3.1906
  265SOL    HW2  795   0.943   2.181   0.519  2.5460  0.3969 -0.0585
  266SOL     OW  796   2.857   0.740   0.925  0.2852  0.1590  0.5227
  266SOL    HW1  797   2.778   0.694   0.873  4.3033 -0.9064 -1.3427
  266SOL    HW2  798   2.895   0.676   0.997  1.6636  2.1304 -2.5256
  267SOL     OW  799   0.054   1.509   0.214  0.0778 -0.4464 -0.1907
  267SOL    HW1  800   0.091   1.445   0.288 -0.1377 -1.6573  1.5385
  267SOL    HW2  801   0.132   1.553   0.167 -1.6131  2.4834  1.6130
  268SOL     OW  802   1.347   0.404   0.311  0.1295 -0.3652  0.0307
  268SOL    HW1  803   1.308   0.354   0.234  0.9922 -2.0131  0.9261
  268SOL    HW2  804   1.293   0.484   0.340  1.3246  0.9816  2.1150
  269SOL     OW  805   2.725   0.742   2.188 -0.0753 -0.1186 -0.2269
  269SOL    HW1  806   2.735   0.802   2.101  0.0031 -0.5557 -1.7404
  269SOL    HW2  807   2.724   0.648   2.158 -0.7325  0.3886  0.8638
  270SOL     OW  808   2.909   1.099   0.377  0.3094 -0.1429  0.3759
  270SOL    HW1  809   2.894   1.005   0.419 -2.2209 -0.2279  0.5693
  270SOL    HW2  810   2.835   1.121   0.309 -0.6540  0.9790 -2.2185
  271SOL     OW  811   2.839   1.400   2.185  0.1290 -0.0031  0.3515
  271SOL    HW1  812   2.774   1.480   2.187 -1.2705 -1.7938  2.8129
  271SOL    HW2  813   2.844   1.358   2.093  0.3801  1.5353 -1.4394
  272SOL     OW  814   2.440   2.359   1.828  0.2279  0.7103 -0.4341
  272SOL    HW1  815   2.510   2.398   1.893  2.5093 -0.8715 -2.3017
  272SOL    HW2  816   2.350   2.390   1.864  1.6004 -1.1984 -0.5195
  273SOL     OW  817   0.177   2.414   0.067 -0.3022  0.1090 -0.2907
  273SOL    HW1  818   0.244   2.359   0.015 -0.9977  2.7155 -0.5148
  273SOL    HW2  819   0.107   2.364   0.123  1.0548 -0.8246 -1.4280
  274SOL     OW  820   0.716   2.136   0.780 -0.1086 -0.1555 -0.6346
  274SOL    HW1  821   0.700   2.234   0.743  0.4660 -0.1844 -0.5641
  274SOL    HW2  822   0.813   2.113   0.787 -4.6117 -0.0760  0.2320
  275SOL     OW  823   1.515   1.836   2.846  0.3997 -0.2796 -0.1437
  275SOL    HW1  824   1.537   1.846   2.746  0.0140 -0.1858  0.1602
  275SOL    HW2  825   1.546   1.742   2.878  1.0638  0.1728  1.2038
  276SOL     OW  826   2.635   1.586   2.185 -0.5843 -0.0496  0.1399
  276SOL    HW1  827   2.616   1.582   2.087  0.2856  2.5448 -1.7087
  276SOL    HW2  828   2.644   1.685   2.214 -1.7424 -3.4394  0.0098
  277SOL     OW  829   2.124   0.081   0.783  0.0235 -0.1513 -0.1338
  277SOL    HW1  830   2.149   0.148   0.708 -0.6979  2.0412 -0.4588
  277SOL    HW2  831   2.039   0.027   0.769 -0.5820 -0.5430  1.6312
  278SOL     OW  832   1.325   0.236   2.234  0.0743  0.2034 -0.6671
  278SOL    HW1  833   1.300   0.141   2.210  0.3542  3.0730 -0.3769
  278SOL    HW2  834   1.245   0.289   2.265  2.4590 -1.6534 -2.4805
  279SOL     OW  835   1.254   2.701   1.064 -0.1178 -0.1006  0.2642
  279SOL    HW1  836   1.328   2.712   1.134 -2.7556 -1.7613  1.2988
  279SOL    HW2  837   1.164   2.743   1.092 -0.0382  0.9997 -0.6328
  280SOL     OW  838   1.216   1.200   0.629 -0.5107 -0.8701  0.0839
  280SOL    HW1  839   1.192   1.147   0.545 -2.9826  1.6037  3.0781
  280SOL    HW2  840   1.169   1.166   0.712 -4.2078 -1.0183 -0.3173
  281SOL     OW  841   2.198   1.786   0.518 -0.2395 -0.0752  0.4329
  281SOL    HW1  842   2.223   1.883   0.529 -0.7776 -0.1604  1.9943
  281SOL    HW2  843   2.283   1.728   0.520  1.1291  0.1862 -0.4080
  282SOL     OW  844   2.819   1.341   0.505 -0.8257 -0.2972 -0.1418
  282SOL    HW1  845   2.859   1.256   0.455  1.2713 -1.3083 -1.1348
  282SOL    HW2  846   2.849   1.427   0.460  0.5473  1.3182 -2.4892
  283SOL     OW  847   1.581   2.828   2.638 -0.2426 -0.2433 -0.3068
  283SOL    HW1  848   1.548   2.774   2.559  0.1637  0.0757  1.4968
  283SOL    HW2  849   1.661   2.787   2.676  0.8258  0.8136  1.5216
  284SOL     OW  850   0.481   0.300   2.474  0.1618 -0.0181  0.6395
  284SOL    HW1  851   0.569   0.265   2.506  1.2113 -0.9671 -0.7178
  284SOL    HW2  852   0.422   0.311   2.555  1.4593  0.1105 -2.1342
  285SOL     OW  853   1.787   1.629   2.976  0.1216 -0.1406  0.0729
  285SOL    HW1  854   1.690   1.655   2.975  2.3952 -0.4494 -0.7743
  285SOL    HW2  855   1.840   1.667   2.902 -0.4368 -1.6805 -0.0861
  286SOL     OW  856   1.558   2.124   1.790  0.4942 -0.1606 -0.0711
  286SOL    HW1  857   1.465   2.144   1.759  0.6600 -1.7485 -2.5655
  286SOL    HW2  858   1.570   2.115   1.890 -1.0594 -3.4006 -0.9880
  287SOL     OW  859   1.796   3.058   1.396  0.0331  0.1828  0.2743
  287SOL    HW1  860   1.745   0.001   1.484  0.6016  0.0200 -0.9846
  287SOL    HW2  861   1.780   0.062   1.325 -0.8815 -1.6394 -0.7632
  288SOL     OW  862   0.355   2.658   2.002  0.0319  0.2437 -0.5068
  288SOL    HW1  863   0.335   2.575   1.952 -1.7826  1.6420  0.9415
  288SOL    HW2  864   0.369   2.632   2.103 -1.6524  0.6387 -1.0854
  289SOL     OW  865   0.323   1.729   0.837 -0.2372  0.4386  0.7834
  289SOL    HW1  866   0.376   1.747   0.920 -2.3889  0.3025 -1.9276
  289SOL    HW2  867   0.231   1.776   0.838 -0.6031 -0.2227  0.6061
  290SOL     OW  868   1.036   2.162   1.791  0.0760 -0.5548 -0.0347
  290SOL    HW1  869   0.989   2.085   1.842 -2.5302 -0.2538  2.0315
  290SOL    HW2  870   1.012   2.255   1.826  1.6010  2.3161  2.7681
  291SOL     OW  871   1.777   0.187   0.406  0.1007 -0.2083 -0.7048
  291SOL    HW1  872   1.703   0.209   0.341  1.3757  2.0491  1.3533
  291SOL    HW2  873   1.828   0.102   0.376  0.1610 -1.9714 -1.4429
  292SOL     OW  874   0.335   0.359   1.373  0.5013 -0.0534  0.1022
  292SOL    HW1  875   0.278   0.356   1.289  2.0711  0.0601 -1.3092
  292SOL    HW2  876   0.297   0.319   1.458  0.8098  2.4012  1.7420
  293SOL     OW  877   2.439   1.447   1.068 -0.4800 -0.5585 -1.0230
  293SOL    HW1  878   2.525   1.445   1.123 -0.4767 -1.0143  0.4213
  293SOL    HW2  879   2.439   1.377   0.992  0.0329  1.5037 -1.4837
  294SOL     OW  880   0.380   0.124   2.294 -0.0731 -0.3476  0.0970
  294SOL    HW1  881   0.377   0.027   2.326 -1.7667  1.9089  0.0706
  294SOL    HW2  882   0.404   0.195   2.366  1.7393  0.3280  2.4297
  295SOL     OW  883   1.008   1.467   0.485 -0.7561 -0.3508  0.3311
  295SOL    HW1  884   1.106   1.485   0.467 -0.7403 -1.4487 -1.3813
  295SOL    HW2  885   0.980   1.404   0.413  0.1398  0.4426  1.8674
  296SOL     OW  886   2.407   1.239   0.890  0.7412 -0.1924  0.1272
  296SOL    HW1  887   2.313   1.250   0.850 -3.9268  0.2135 -0.3800
  296SOL    HW2  888   2.474   1.231   0.810  0.3143  2.7589  0.1072
  297SOL     OW  889   1.859   0.622   2.554  0.5008  0.0245  0.4629
  297SOL    HW1  890   1.780   0.685   2.523 -1.8552 -0.0763  2.4557
  297SOL    HW2  891   1.938   0.619   2.495  0.1662 -4.2249  0.5569
  298SOL     OW  892   1.015   0.217   2.503  0.4807  0.1288 -0.7083
  298SOL    HW1  893   1.049   0.189   2.594  0.7847 -1.3184  0.7937
  298SOL    HW2  894   1.077   0.277   2.450  0.3960 -0.0026  3.0842
  299SOL     OW  895   1.156   0.571   1.958 -0.0213  0.0650  0.0218
  299SOL    HW1  896   1.236   0.640   1.974 -0.0536  3.3327  1.1159
  299SOL    HW2  897   1.182   0.477   1.984  0.7573  0.2567 -3.3682
  300SOL     OW  898   2.575   0.147   1.723 -0.3553  0.0750  0.0430
  300SOL    HW1  899   2.557   0.089   1.638 -1.7362 -2.9972 -0.6137
  300SOL    HW2  900   2.654   0.204   1.708 -3.4170 -2.2129 -2.7650
  301SOL     OW  901   1.612   0.811   1.483  0.0600 -0.2635 -0.4039
  301SOL    HW1  902   1.534   0.868   1.447  1.7380  0.4112 -1.2668
  301SOL    HW2  903   1.643   0.846   1.575  2.1460 -0.0655  2.7895
  302SOL     OW  904   0.724   2.711   2.541 -0.2130  0.0522  0.0357
  302SOL    HW1  905   0.702   2.674   2.450 -0.2142  1.8618 -1.5046
  302SOL    HW2  906   0.795   2.782   2.530 -1.5578  3.0759 -2.2110
  303SOL     OW  907   2.058   1.970   1.815  0.2181 -0.1470  0.1782
  303SOL    HW1  908   2.155   2.010   1.829  4.4108  1.5999  0.4235
  303SOL    HW2  909   2.057   1.881   1.757  1.6531 -0.3994  1.9743
  304SOL     OW  910   0.382   2.895   0.613 -0.6166 -0.0958 -0.0506
  304SOL    HW1  911   0.482   2.919   0.605  2.5940 -0.7740  0.9018
  304SOL    HW2  912   0.374   2.796   0.591  0.0945 -2.2967 -0.3966
  305SOL     OW  913   1.305   0.688   0.370 -0.1430  0.4824  0.0590
  305SOL    HW1  914   1.322   0.771   0.317  1.0064 -0.6157 -1.4121
  305SOL    HW2  915   1.308   0.713   0.472 -0.5309  2.3629  1.9378
  306SOL     OW  916   0.547   1.354   0.058  0.7978  0.7350 -0.3336
  306SOL    HW1  917   0.638   1.397   0.060 -2.1843 -0.0892 -0.7707
  306SOL    HW2  918   0.520   1.338   0.154 -1.4144  1.6567 -0.9340
  307SOL     OW  919   0.675   0.682   1.975 -0.3239  0.2816  0.1220
  307SOL    HW1  920   0.764   0.668   2.025  2.9963  0.9937  2.9159
  307SOL    HW2  921   0.680   0.649   1.880  1.3958  0.9581 -0.3567
  308SOL     OW  922   0.544   0.020   1.210 -0.3675  0.3867  0.5566
  308SOL    HW1  923   0.575   3.047   1.124 -1.4663 -0.7150  0.7410
  308SOL    HW2  924   0.547   0.123   1.204 -2.3602 -2.3925 -1.2536
  309SOL     OW  925   2.198   0.854   0.017 -0.1748  0.1114 -0.1750
  309SOL    HW1  926   2.236   0.848   0.110 -0.9997 -1.5118  0.6229
  309SOL    HW2  927   2.251   0.925   3.037  0.4106 -0.3769  0.7613
  310SOL     OW  928   1.220   1.300   2.982 -0.4792  0.4457 -0.3771
  310SOL    HW1  929   1.140   1.334   2.930  0.8438 -3.6338  0.4559
  310SOL    HW2  930   1.222   1.338   0.007 -0.8734  0.3455 -2.4833
  311SOL     OW  931   1.752   2.465   2.334  0.8478 -0.0088  0.2174
  311SOL    HW1  932   1.655   2.458   2.304 -0.7378  0.1860  2.3429
  311SOL    HW2  933   1.788   2.560   2.337 -0.2010  1.1427 -1.5676
  312SOL     OW  934   2.059   2.924   2.778 -0.5167 -0.3574  0.2265
  312SOL    HW1  935   2.048   2.966   2.685  0.9531 -1.9129 -0.3536
  312SOL    HW2  936   1.977   2.941   2.833  1.4553 -1.4633  0.7187
  313SOL     OW  937   0.762   0.671   0.191 -0.0489  0.2384 -0.2363
  313SOL    HW1  938   0.727   0.766   0.189  0.7994  0.1938 -0.2782
  313SOL    HW2  939   0.857   0.685   0.225  1.2944  2.0287  0.1030
  314SOL     OW  940   2.630   1.401   2.939 -0.2170 -0.3813 -0.1699
  314SOL    HW1  941   2.675   1.409   2.848  1.7826 -0.1735  3.0160
  314SOL    HW2  942   2.670   1.471   3.005 -0.3238 -0.2644  0.1482
  315SOL     OW  943   1.786   0.817   1.702 -0.0187  0.0921  0.0100
  315SOL    HW1  944   1.799   0.719   1.728 -1.0706  1.5978 -1.8424
  315SOL    HW2  945   1.746   0.860   1.787  0.8350  1.6510  0.0424
  316SOL     OW  946   3.070   0.682   0.628 -0.0058 -0.2840 -0.6423
  316SOL    HW1  947   3.006   0.761   0.621 -3.0000  0.0001 -0.1545
  316SOL    HW2  948   0.095   0.722   0.631  1.8933  0.8332 -0.0675
  317SOL     OW  949   0.851   0.184   0.182  0.0971  0.3722 -0.3801
  317SOL    HW1  950   0.817   0.270   0.147  2.8754 -0.7097  0.4568
  317SOL    HW2  951   0.778   0.117   0.189 -0.9280 -0.2192  2.5108
  318SOL     OW  952   2.403   2.635   1.223 -0.1293 -0.3347 -0.2609
  318SOL    HW1  953   2.444   2.568   1.287  2.0725  1.3125 -1.7124
  318SOL    HW2  954   2.445   2.639   1.130  0.4006 -2.0859  0.7196
  319SOL     OW  955   1.272   1.425   0.417 -0.3976 -0.1276  0.3378
  319SOL    HW1  956   1.246   1.353   0.481 -1.4388 -2.5103 -1.3673
  319SOL    HW2  957   1.312   1.511   0.464  2.3639  4.4473  2.1163
  320SOL     OW  958   0.648   2.243   1.029  0.0615 -0.2358  0.3813
  320SOL    HW1  959   0.548   2.259   1.014 -0.6085 -1.7434 -1.0863
  320SOL    HW2  960   0.695   2.211   0.941 -1.2414  2.4490  1.0845
  321SOL     OW  961   2.109   2.684   2.277 -0.3910  0.1046  0.0233
  321SOL    HW1  962   2.057   2.710   2.361 -1.3991  0.4014 -1.5703
  321SOL    HW2  963   2.046   2.669   2.198 -1.5798  0.9234 -0.8390
  322SOL     OW  964   2.848   2.355   2.423 -0.6121 -0.4532 -0.3158
  322SOL    HW1  965   2.950   2.338   2.447  1.3357 -1.5675  2.2495
  322SOL    HW2  966   2.823   2.443   2.474  0.1745  4.0595 -0.0632
  323SOL     OW  967   2.663   0.610   0.773 -0.3787 -0.1515 -0.0619
  323SOL    HW1  968   2.628   0.522   0.735  2.1155 -2.6700 -3.7352
  323SOL    HW2  969   2.626   0.692   0.723  0.4526 -2.1087  1.3871
  324SOL     OW  970   2.360   2.085   2.394 -0.0973  0.3321 -0.4071
  324SOL    HW1  971   2.364   2.045   2.299 -1.5608  0.1268 -1.3607
  324SOL    HW2  972   2.314   2.026   2.465  0.2747 -0.4721 -0.3989
  325SOL     OW  973   1.201   0.683   2.350 -0.0175  0.3992  0.0782
  325SOL    HW1  974   1.212   0.775   2.313 -0.7438 -0.6244  2.1199
  325SOL    HW2  975   1.143   0.685   2.434  1.2679 -1.4658  0.1168
  326SOL     OW  976   2.783   2.284   0.568  0.5525  0.3910 -0.5626
  326SOL    HW1  977   2.747   2.374   0.536 -1.5423  0.0795 -0.8307
  326SOL    HW2  978   2.888   2.287   0.559  0.9916  0.1437 -1.5834
  327SOL     OW  979   2.447   2.947   2.690  0.0560  0.3059 -0.3181
  327SOL    HW1  980   2.392   2.877   2.740 -2.1661 -1.9184  2.9353
  327SOL    HW2  981   2.524   2.904   2.633  2.3220 -0.9443  3.1494
  328SOL     OW  982   1.007   0.402   0.436 -0.3505 -0.2450  0.1800
  328SOL    HW1  983   0.907   0.414   0.418  0.0193  1.2933  0.0233
  328SOL    HW2  984   1.055   0.392   0.348  2.5913  1.2503  0.7669
  329SOL     OW  985   2.093   0.762   1.384 -0.6193  0.3101 -0.3664
  329SOL    HW1  986   2.116   0.850   1.335  0.1690 -3.0709  3.3915
  329SOL    HW2  987   2.158   0.736   1.456  0.0593  1.3130 -0.5203
  330SOL     OW  988   1.149   0.252   0.626 -0.0569  0.1546  0.0242
  330SOL    HW1  989   1.128   0.326   0.557  0.9827 -1.3450 -1.6639
  330SOL    HW2  990   1.230   0.278   0.684 -0.2440  1.4259  2.3799
  331SOL     OW  991   0.488   2.104   1.906  0.3538  0.2960  0.5501
  331SOL    HW1  992   0.519   2.180   1.966 -2.0958 -0.0454  0.6635
  331SOL    HW2  993   0.532   2.016   1.932 -0.2342  2.2634  1.8272
  332SOL     OW  994   2.297   2.107   1.790 -0.4994 -0.1818 -0.0222
  332SOL    HW1  995   2.344   2.188   1.830  1.5846  2.9586  0.4156
  332SOL    HW2  996   2.366   2.030   1.789  1.0679 -1.2716 -0.0637
  333SOL     OW  997   2.713   2.874   1.013  0.7216  0.3171  0.3608
  333SOL    HW1  998   2.805   2.904   1.037 -0.1580 -0.7257 -0.5297
  333SOL    HW2  999   2.675   2.950   0.955  0.6435  1.0344 -1.4043
  334SOL     OW 1000   2.973   1.656   1.116 -0.5077 -0.1915  0.0680
  334SOL    HW1 1001   3.066   1.685   1.142  0.3572  0.0673 -1.1111
  334SOL    HW2 1002   2.944   1.678   1.021 -1.4876 -3.3108 -3.0673
  335SOL     OW 1003   0.458   2.766   2.618  0.2019  0.6570  0.3150
  335SOL    HW1 1004   0.393   2.693   2.641  1.5095 -0.3685 -0.4079
  335SOL    HW2 1005   0.549   2.734   2.592 -2.4366  1.9908 -1.2113
  336SOL     OW 1006   3.027   2.667   1.837  0.6363  0.4973  0.0289
  336SOL    HW1 1007   0.036   2.671   1.784 -3.1768  0.8290  3.1501
  336SOL    HW2 1008   3.026   2.747   1.895  0.3414  0.7123 -0.0580
  337SOL     OW 1009   1.139   1.895   2.435 -0.1940 -0.7432  0.0339
  337SOL    HW1 1010   1.204   1.954   2.388 -0.2719 -1.7555  1.1006
  337SOL    HW2 1011   1.124   1.908   2.535 -0.7125  1.9651  0.9899
  338SOL     OW 1012   1.028   2.882   2.487  0.4752  0.3108  0.3344
  338SOL    HW1 1013   1.123   2.905   2.454  0.6021 -2.2282 -1.4461
  338SOL    HW2 1014   1.011   2.890   2.587  1.8192 -1.4681 -4.0872
  339SOL     OW 1015   0.105   1.394   2.852  0.5109  0.2063 -0.2483
  339SOL    HW1 1016   0.127   1.408   2.757 -2.7146  1.9226  1.1136
  339SOL    HW2 1017   0.193   1.382   2.903  0.2984  0.4159  2.3041
  340SOL     OW 1018   2.179   0.560   1.212  0.1836 -0.5849 -0.5054
  340SOL    HW1 1019   2.148   0.650   1.251 -1.6333 -0.7120 -2.4088
  340SOL    HW2 1020   2.269   0.535   1.248 -0.4226  0.1963  2.2138
  341SOL     OW 1021   1.861   1.123   0.954 -0.2895  0.2517  0.6075
  341SOL    HW1 1022   1.858   1.168   0.861 -1.1458 -1.8154  1.4908
  341SOL    HW2 1023   1.936   1.055   0.969 -0.0353 -1.1669 -1.8853
  342SOL     OW 1024   2.098   2.446   2.605  0.0672  0.3763  0.0030
  342SOL    HW1 1025   2.199   2.440   2.614 -2.3536  0.7716 -1.2153
  342SOL    HW2 1026   2.067   2.538   2.577 -2.1680 -0.5585  0.1270
  343SOL     OW 1027   0.143   2.734   0.918  0.1094  0.2993 -0.4847
  343SOL    HW1 1028   0.198   2.676   0.853  2.6266 -2.4473 -0.2317
  343SOL    HW2 1029   0.160   2.709   1.014  3.3826  2.1854  0.0598
  344SOL     OW 1030   2.553   2.738   0.717 -1.1000 -0.2722 -0.3456
  344SOL    HW1 1031   2.465   2.795   0.706 -0.9295 -2.9034  1.2423
  344SOL    HW2 1032   2.552   2.703   0.813  1.0613  0.1662  2.0979
  345SOL     OW 1033   2.385   2.277   0.386  0.0727  0.3283 -0.3204
  345SOL    HW1 1034   2.281   2.282   0.389 -2.4669  1.7139  1.0133
  345SOL    HW2 1035   2.421   2.363   0.426 -0.9641  1.2354 -1.8331
  346SOL     OW 1036   1.294   2.163   1.696  0.2927 -0.5212  0.0706
  346SOL    HW1 1037   1.208   2.144   1.747 -0.2484  0.6357  0.1951
  346SOL    HW2 1038   1.295   2.118   1.604  1.2772  0.7150  0.2482
  347SOL     OW 1039   1.535   1.982   2.366  0.0283 -0.0063  0.8328
  347SOL    HW1 1040   1.541   1.937   2.274  0.3606  2.0665  0.1301
  347SOL    HW2 1041   1.608   2.060   2.368 -1.3416  1.9830 -0.4090
  348SOL     OW 1042   0.674   1.633   1.353 -0.1781  0.2842 -0.0199
  348SOL    HW1 1043   0.700   1.650   1.256  0.3883 -2.2160  1.2917
  348SOL    HW2 1044   0.716   1.699   1.424  1.5799  2.0648  1.6276
  349SOL     OW 1045   1.781   1.534   1.513  0.1801  0.0636  0.0357
  349SOL    HW1 1046   1.792   1.580   1.604  0.7759  0.6104  0.4579
  349SOL    HW2 1047   1.704   1.580   1.461  0.7869  0.9148 -1.4708
  350SOL     OW 1048   2.447   2.128   0.819 -0.4008  0.1572 -0.2247
  350SOL    HW1 1049   2.398   2.112   0.904  2.2135 -1.0642 -3.2443
  350SOL    HW2 1050   2.412   2.216   0.780 -2.8083  1.7367  0.1583
  351SOL     OW 1051   0.198   0.014   1.750  0.1198  0.1518  0.0951
  351SOL    HW1 1052   0.254   3.005   1.769  0.6703  0.5350  0.8514
  351SOL    HW2 1053   0.100   3.064   1.762  0.2063 -1.8211  2.0725
  352SOL     OW 1054   0.975   0.990   0.203  0.6185 -0.0568  0.0197
  352SOL    HW1 1055   0.986   0.892   0.236  0.0756 -0.7652  0.3410
  352SOL    HW2 1056   0.875   1.008   0.178 -2.4999 -2.0369 -1.5585
  353SOL     OW 1057   0.700   1.496   2.863  0.0390 -0.1776  0.1903
  353SOL    HW1 1058   0.737   1.539   2.779 -0.5063 -3.4505  0.7492
  353SOL    HW2 1059   0.615   1.445   2.840 -1.2681 -1.2473  2.2864
  354SOL     OW 1060   1.768   2.450   1.788 -0.2199 -0.5559 -0.3694
  354SOL    HW1 1061   1.823   2.518   1.733 -1.9158  0.2419 -1.2469
  354SOL    HW2 1062   1.827   2.367   1.803  0.0276  1.3120  0.1010
  355SOL     OW 1063   2.114   0.641   2.941  0.5037 -0.2703  0.1421
  355SOL    HW1 1064   2.062   0.680   2.860 -1.2991  0.4125  1.5772
  355SOL    HW2 1065   2.160   0.716   2.993 -1.2320  0.9462  2.0306
  356SOL     OW 1066   0.745   2.041   1.251 -0.2756  0.2761  0.7381
  356SOL    HW1 1067   0.713   2.112   1.186 -0.7229 -3.9625 -0.7017
  356SOL    HW2 1068   0.658   1.995   1.281 -2.9114 -0.2899 -0.7185
  357SOL     OW 1069   2.868   0.054   1.835  0.1615 -0.2293 -0.0387
  357SOL    HW1 1070   2.793   3.071   1.874  2.7775 -0.0088 -1.6790
  357SOL    HW2 1071   2.860   0.150   1.862 -2.0892  0.7352  1.5562
  358SOL     OW 1072   2.447   1.882   1.463  0.6429  0.2938 -0.0079
  358SOL    HW1 1073   2.348   1.884   1.481  0.1768  1.3156  2.3873
  358SOL    HW2 1074   2.480   1.967   1.415  0.4038  2.9957 -1.5220
  359SOL     OW 1075   2.023   2.295   2.381  0.0453  0.3660  0.0729
  359SOL    HW1 1076   1.942   2.344   2.345  1.6777  1.2285 -1.9332
  359SOL    HW2 1077   2.052   2.337   2.470  1.5075  0.7348  1.3631
  360SOL     OW 1078   1.406   2.573   0.891  0.1880 -0.6557  0.4581
  360SOL    HW1 1079   1.346   2.638   0.947 -1.0760 -0.2867 -0.1245
  360SOL    HW2 1080   1.464   2.625   0.831 -0.3895  0.6679  0.2594
  361SOL     OW 1081   1.914   3.037   0.270 -0.2713  0.8035  0.2740
  361SOL    HW1 1082   1.849   3.028   0.190  0.2543 -0.2845 -0.3226
  361SOL    HW2 1083   1.953   2.945   0.292  1.0039 -0.0476  0.1317
  362SOL     OW 1084   1.429   0.999   1.411  0.4004  0.4106  0.0330
  362SOL    HW1 1085   1.480   1.080   1.399 -3.0261 -2.0717  1.3873
  362SOL    HW2 1086   1.371   1.011   1.495  1.7871 -2.5124 -0.3392
  363SOL     OW 1087   1.854   1.665   2.128  0.0862  0.4798 -0.2590
  363SOL    HW1 1088   1.770   1.647   2.185  0.1885  1.0681 -0.6170
  363SOL    HW2 1089   1.937   1.663   2.192  1.7158  0.1356 -0.3649
  364SOL     OW 1090   0.474   0.621   1.509 -0.2828 -0.1588 -0.1096
  364SOL    HW1 1091   0.478   0.539   1.445 -2.3200 -1.4085  0.4873
  364SOL    HW2 1092   0.547   0.692   1.487  1.5549  3.2374  1.5128
  365SOL     OW 1093   0.459   0.695   2.560  0.1782  0.4272  0.8675
  365SOL    HW1 1094   0.419   0.669   2.648  3.1001 -0.8667 -2.2334
  365SOL    HW2 1095   0.400   0.668   2.481  0.4149  1.2519  1.8140
  366SOL     OW 1096   2.077   1.358   2.883  0.1329  0.2958  0.2206
  366SOL    HW1 1097   2.046   1.267   2.920 -0.4902  1.4750 -1.3458
  366SOL    HW2 1098   1.994   1.407   2.851  2.5949  0.1182  1.0837
  367SOL     OW 1099   2.975   2.635   2.640 -0.1574 -0.4600 -0.2521
  367SOL    HW1 1100   3.019   2.547   2.666 -2.5569  1.4858 -1.5487
  367SOL    HW2 1101   2.911   2.624   2.556 -1.2296 -3.8451 -1.2016
  368SOL     OW 1102   0.055   1.226   1.301  0.0112  0.4460 -0.0550
  368SOL    HW1 1103   0.069   1.199   1.402 -0.5169 -3.9624 -1.5095
  368SOL    HW2 1104   0.072   1.152   1.231  1.1508 -0.2875 -3.6014
  369SOL     OW 1105   0.626   2.716   2.285  0.2936  0.1118  0.1919
  369SOL    HW1 1106   0.655   2.667   2.199 -2.7976 -0.7620  0.0922
  369SOL    HW2 1107   0.657   2.815   2.287  2.1171  2.9351  0.8402
  370SOL     OW 1108   2.808   0.293   0.536 -0.5069  0.4835 -0.2382
  370SOL    HW1 1109   2.794   0.244   0.447 -1.2957 -0.9144  1.8502
  370SOL    HW2 1110   2.876   0.368   0.525  1.7569  0.2776 -1.2147
  371SOL     OW 1111   0.875   2.343   1.389  0.2670  0.0560  0.2803
  371SOL    HW1 1112   0.976   2.355   1.402  1.6947 -0.0947 -2.8998
  371SOL    HW2 1113   0.836   2.259   1.424  1.1711 -0.8964  0.2485
  372SOL     OW 1114   2.454   0.521   2.405 -0.3233 -0.0954 -0.0973
  372SOL    HW1 1115   2.392   0.563   2.475  1.8871 -0.1304 -0.9941
  372SOL    HW2 1116   2.417   0.429   2.379  1.2610  0.8433  0.7914
  373SOL     OW 1117   0.085   1.924   0.824  0.1359 -0.4683  0.1126
  373SOL    HW1 1118   0.136   2.001   0.790 -2.2515 -1.9152 -0.7716
  373SOL    HW2 1119   0.040   1.953   0.910  1.3291  2.3179 -0.4610
  374SOL     OW 1120   0.057   0.103   2.401 -0.3444  0.2944  0.7923
  374SOL    HW1 1121   3.031   0.109   2.424  0.6845  1.1456  0.4131
  374SOL    HW2 1122   0.103   0.193   2.422 -0.3041  3.1117 -0.1043
  375SOL     OW 1123   0.654   0.498   2.681 -0.0298 -0.0568  0.5997
  375SOL    HW1 1124   0.584   0.520   2.613  0.2323 -0.8289  0.5465
  375SOL    HW2 1125   0.702   0.585   2.722  2.7966  3.8143  2.4442
  376SOL     OW 1126   0.011   2.252   1.779 -0.3521  0.1306  0.1958
  376SOL    HW1 1127   2.996   2.289   1.740  1.7803 -0.4370  0.7489
  376SOL    HW2 1128   0.054   2.193   1.707 -0.3317  0.2738 -1.9146
  377SOL     OW 1129   1.246   0.246   2.835  0.4308 -0.0760  0.4144
  377SOL    HW1 1130   1.252   0.164   2.773  0.8090 -1.3821  0.2303
  377SOL    HW2 1131   1.315   0.313   2.802 -1.6453 -0.2739  1.9034
  378SOL     OW 1132   2.768   0.932   2.706 -0.4834  0.0703 -0.4693
  378SOL    HW1 1133   2.829   0.915   2.628  0.6408  0.8176  2.1013
  378SOL    HW2 1134   2.687   0.873   2.708 -0.2988  0.5611 -1.0857
  379SOL     OW 1135   1.182   0.760   2.879 -0.5550 -0.0049 -0.2025
  379SOL    HW1 1136   1.171   0.742   2.777  0.3107 -1.1773 -2.0410
  379SOL    HW2 1137   1.106   0.814   2.919  1.3303 -1.6505  1.0001
  380SOL     OW 1138   0.021   1.850   2.027 -0.0654  0.0061  0.2138
  380SOL    HW1 1139   0.088   1.918   1.984  5.3067 -0.9342  0.4903
  380SOL    HW2 1140   3.011   1.904   2.051  2.4670  1.2397  0.7550
  381SOL     OW 1141   0.095   1.074   2.577 -0.2268 -0.2325  0.1749
  381SOL    HW1 1142   0.126   1.076   2.477  0.0661 -0.4622 -6.3046
  381SOL    HW2 1143   0.042   1.156   2.605 -0.2495 -2.5706 -1.5180
  382SOL     OW 1144   1.966   2.261   0.585  0.2011 -0.0743 -0.2540
  382SOL    HW1 1145   1.893   2.193   0.603  1.2458  2.7725 -0.3226
  382SOL    HW2 1146   2.010   2.278   0.672 -2.0161 -2.2258 -3.8577
  383SOL     OW 1147   0.728   1.626   0.288  0.1709  0.0454 -0.6130
  383SOL    HW1 1148   0.809   1.685   0.305 -0.9430 -1.5813 -0.0105
  383SOL    HW2 1149   0.701   1.591   0.384  0.9155  0.6839  0.8102
  384SOL     OW 1150   0.855   2.185   2.471 -0.0147  0.0669  0.2234
  384SOL    HW1 1151   0.808   2.273   2.472 -1.7305 -1.5303  1.8353
  384SOL    HW2 1152   0.853   2.151   2.566 -2.1804  0.6467  1.2611
  385SOL     OW 1153   2.490   1.871   0.754  0.1764  0.2864 -0.0547
  385SOL    HW1 1154   2.466   1.806   0.830  1.5205 -0.8204  2.7697
  385SOL    HW2 1155   2.493   1.967   0.785 -0.9350 -0.4172 -0.4436
  386SOL     OW 1156   2.329   0.824   1.004  0.0115 -0.0675 -0.3522
  386SOL    HW1 1157   2.335   0.730   0.965  0.5452 -2.0526 -0.6009
  386SOL    HW2 1158   2.237   0.864   0.980 -0.3757  1.8843  0.9990
  387SOL     OW 1159   0.292   0.767   2.098  0.2840 -0.3170  0.3689
  387SOL    HW1 1160   0.321   0.708   2.175  0.4631  2.1205 -0.1941
  387SOL    HW2 1161   0.371   0.827   2.071  2.6593 -1.4966  0.9202
  388SOL     OW 1162   0.863   1.663   2.222 -0.1605 -0.3466  0.2827
  388SOL    HW1 1163   0.848   1.749   2.278 -0.2778  0.6704  2.8796
  388SOL    HW2 1164   0.817   1.667   2.130 -1.3352  2.6732 -2.0637
  389SOL     OW 1165   0.690   1.244   1.891 -0.6219 -0.0710  0.0437
  389SOL    HW1 1166   0.609   1.228   1.947 -1.5702 -3.0691 -0.4483
  389SOL    HW2 1167   0.708   1.163   1.837  0.6151  0.7737  2.4127
  390SOL     OW 1168   2.813   2.849   0.702  0.1669 -0.1411 -0.0978
  390SOL    HW1 1169   2.729   2.808   0.734 -0.1210  1.6051 -1.6658
  390SOL    HW2 1170   2.801   2.944   0.669  0.6572 -0.6443 -2.4854
  391SOL     OW 1171   1.838   1.607   1.216 -0.0012  0.1716 -0.3478
  391SOL    HW1 1172   1.746   1.577   1.195  2.6768 -2.3303  1.5586
  391SOL    HW2 1173   1.911   1.538   1.227  1.1693  2.6212  4.3490
  392SOL     OW 1174   2.895   2.820   2.986 -0.0622 -0.5827  0.3526
  392SOL    HW1 1175   2.970   2.830   3.056  1.3669 -2.3099 -2.1619
  392SOL    HW2 1176   2.920   2.732   2.938 -0.6505  1.9236 -1.4465
  393SOL     OW 1177   1.444   2.228   2.776  0.5689 -0.1247 -0.6603
  393SOL    HW1 1178   1.538   2.191   2.745 -0.2740  1.7524 -1.0575
  393SOL    HW2 1179   1.429   2.215   2.877 -4.1762 -0.7715  0.3370
  394SOL     OW 1180   0.051   2.391   2.648 -0.6219 -0.0979  0.1151
  394SOL    HW1 1181   0.069   2.367   2.549 -0.0795 -0.8802  0.3823
  394SOL    HW2 1182   0.056   2.304   2.700  1.1956  0.4873 -0.1330
  395SOL     OW 1183   0.103   0.227   0.559  0.4264 -0.4197  0.6364
  395SOL    HW1 1184   0.066   0.292   0.626  0.1813 -2.5716 -2.1668
  395SOL    HW2 1185   0.142   0.143   0.596  2.9075 -0.3148 -1.6241
  396SOL     OW 1186   2.167   0.243   0.569  0.3526  0.2633 -0.5106
  396SOL    HW1 1187   2.100   0.318   0.594  0.6185 -1.6892  2.8631
  396SOL    HW2 1188   2.145   0.203   0.476  0.8983 -0.1994 -0.7824
  397SOL     OW 1189   0.035   0.809   2.505 -0.1203 -0.1059  0.8511
  397SOL    HW1 1190   0.053   0.757   2.588 -0.8419 -0.1848  1.7321
  397SOL    HW2 1191   0.061   0.906   2.527 -0.8531 -0.0116  1.4171
  398SOL     OW 1192   0.829   2.944   3.046 -0.0373  0.0434 -0.0250
  398SOL    HW1 1193   0.807   3.017   2.981  0.1580 -3.8759  1.4761
  398SOL    HW2 1194   0.925   2.921   3.040 -1.1676  0.3396 -0.2944
  399SOL     OW 1195   1.978   0.414   2.119 -0.9198  0.1074 -0.1547
  399SOL    HW1 1196   1.882   0.424   2.147  1.1807 -1.2882 -1.4290
  399SOL    HW2 1197   1.983   0.340   2.041 -0.5697 -5.1995 -3.6456
  400SOL     OW 1198   1.007   2.306   2.827 -0.2494  0.2745  0.6171
  400SOL    HW1 1199   1.079   2.262   2.775 -1.1652  1.7719 -0.9607
  400SOL    HW2 1200   1.006   2.406   2.800 -0.5913 -0.8191  0.2385
  401SOL     OW 1201   0.165   1.424   2.553 -0.4583 -0.1252 -0.1236
  401SOL    HW1 1202   0.207   1.347   2.506 -0.8390 -1.2019  2.0507
  401SOL    HW2 1203   0.081   1.447   2.501 -0.2610 -2.1972  1.8952
  402SOL     OW 1204   0.248   2.849   0.339 -0.1774  0.0186 -0.2387
  402SOL    HW1 1205   0.246   2.746   0.320  1.8002 -2.7582 -0.9877
  402SOL    HW2 1206   0.167   2.889   0.386  0.3639  1.2558 -0.4637
  403SOL     OW 1207   0.339   1.063   1.795 -0.1293 -0.4233 -0.1945
  403SOL    HW1 1208   0.417   1.004   1.831 -1.7949 -1.9746  0.0921
  403SOL    HW2 1209   0.333   1.055   1.697 -0.5936  0.7600  1.5895
  404SOL     OW 1210   2.318   2.579   2.134 -0.3251  0.3900  0.1328
  404SOL    HW1 1211   2.240   2.599   2.196 -2.0028 -1.3424 -3.0039
  404SOL    HW2 1212   2.336   2.482   2.154  0.7104 -1.4676  1.0206
  405SOL     OW 1213   2.940   0.322   1.865  0.2010 -0.2921  0.6465
  405SOL    HW1 1214   2.961   0.299   1.963 -2.8334 -0.9851  1.2459
  405SOL    HW2 1215   3.022   0.325   1.804 -0.2945  0.2664 -1.5491
  406SOL     OW 1216   1.092   1.747   2.835 -0.0408 -0.6344 -0.3420
  406SOL    HW1 1217   1.004   1.734   2.891 -1.0590 -0.4020 -0.8538
  406SOL    HW2 1218   1.170   1.749   2.900 -2.4059 -2.2202 -0.7089
  407SOL     OW 1219   1.959   0.762   2.759 -0.4952 -0.0125  0.1524
  407SOL    HW1 1220   1.931   0.699   2.690  1.5432  2.2758  1.5782
  407SOL    HW2 1221   2.017   0.839   2.722 -0.4261  0.0584  0.2343
  408SOL     OW 1222   0.403   2.537   2.243  0.5504  0.3215  0.3990
  408SOL    HW1 1223   0.313   2.551   2.292 -2.2884 -2.0235 -0.5982
  408SOL    HW2 1224   0.473   2.581   2.294 -1.3733 -1.1396  1.7388
  409SOL     OW 1225   0.196   2.393   1.136  0.3555 -0.1987  0.3740
  409SOL    HW1 1226   0.091   2.368   1.141 -3.0140  1.8755 -0.6052
  409SOL    HW2 1227   0.208   2.496   1.131  0.1397 -0.1553  0.9917
  410SOL     OW 1228   2.830   1.766   0.440  0.2161  0.0077  0.6674
  410SOL    HW1 1229   2.915   1.800   0.474 -2.4906 -0.4836 -0.0179
  410SOL    HW2 1230   2.839   1.672   0.395  0.9934 -1.7486 -1.7622
  411SOL     OW 1231   2.583   2.895   1.264 -0.2956 -0.7393 -0.0509
  411SOL    HW1 1232   2.493   2.851   1.252  3.9105  0.7019  1.1376
  411SOL    HW2 1233   2.640   2.880   1.181  2.7384 -0.5386 -0.1377
  412SOL     OW 1234   2.167   0.313   1.617 -0.2110  0.3619 -0.1375
  412SOL    HW1 1235   2.122   0.232   1.656 -0.4084  2.2238 -1.0596
  412SOL    HW2 1236   2.151   0.316   1.516 -0.7861 -0.1761 -1.0539
  413SOL     OW 1237   0.211   0.326   2.218  0.0454 -0.5198  0.2297
  413SOL    HW1 1238   0.171   0.370   2.303  0.9467  1.6808 -1.5139
  413SOL    HW2 1239   0.276   0.249   2.241  0.4043 -0.0981 -0.2302
  414SOL     OW 1240   2.817   1.250   3.063 -0.0090  0.0749 -0.1135
  414SOL    HW1 1241   2.749   1.299   3.006 -0.0581  1.0579  0.3293
  414SOL    HW2 1242   2.773   1.225   0.081 -0.3951  0.2722  0.1551
  415SOL     OW 1243   0.850   2.480   3.038  0.3028 -0.5099 -0.1725
  415SOL    HW1 1244   0.838   2.576   3.004  1.1538  2.2270 -3.7480
  415SOL    HW2 1245   0.932   2.471   0.025 -1.9746  2.9621  0.4206
  416SOL     OW 1246   1.438   2.742   2.417  0.0169 -0.3105  0.1900
  416SOL    HW1 1247   1.365   2.671   2.419 -1.3030  0.6412 -0.4907
  416SOL    HW2 1248   1.475   2.754   2.326  0.6359 -0.4334  0.3252
  417SOL     OW 1249   0.287   0.628   1.184  0.1406  0.0174 -0.3733
  417SOL    HW1 1250   0.381   0.603   1.215  0.9960 -2.1060  1.2370
  417SOL    HW2 1251   0.274   0.610   1.083  1.3920  1.5215  0.3404
  418SOL     OW 1252   2.555   0.006   0.874 -0.0487  0.6375 -0.3752
  418SOL    HW1 1253   2.504   0.073   0.929 -0.3636 -1.7291 -0.2436
  418SOL    HW2 1254   2.604   0.045   0.792 -2.1148 -2.0764  1.2643
  419SOL     OW 1255   0.291   0.062   0.277 -0.0273 -0.2849  0.1482
  419SOL    HW1 1256   0.309   3.046   0.323  0.8263  3.0106 -1.2125
  419SOL    HW2 1257   0.199   0.101   0.305 -1.9071 -0.1067  1.7430
  420SOL     OW 1258   0.294   1.022   1.538  0.2394  0.0775 -0.1831
  420SOL    HW1 1259   0.304   0.931   1.490 -1.4558 -1.7233  0.3532
  420SOL    HW2 1260   0.198   1.058   1.533 -0.2416  0.4068 -0.7167
  421SOL     OW 1261   1.841   2.458   0.868 -0.3759 -0.3369 -0.0288
  421SOL    HW1 1262   1.913   2.385   0.861  1.3218  1.4876  2.1171
  421SOL    HW2 1263   1.746   2.416   0.872  1.6185 -2.6345  0.2642
  422SOL     OW 1264   0.002   0.400   1.280  0.4089  0.3606  0.6269
  422SOL    HW1 1265   0.084   0.396   1.228 -1.5580  0.5550  1.9929
  422SOL    HW2 1266   3.071   0.470   1.352 -2.4728 -1.5577  2.6815
  423SOL     OW 1267   0.974   1.250   1.983 -0.4806  0.4994  0.1559
  423SOL    HW1 1268   0.878   1.223   1.977  3.2695 -1.8862  0.1144
  423SOL    HW2 1269   0.987   1.345   2.018  0.0689  0.5002  1.7948
  424SOL     OW 1270   1.795   2.035   0.640  0.1925  0.1075 -0.0723
  424SOL    HW1 1271   1.729   1.975   0.590  1.6557  0.5110  1.3355
  424SOL    HW2 1272   1.890   1.997   0.650  0.2908 -0.7782  1.8104
  425SOL     OW 1273   2.693   2.961   1.976  0.2312 -0.5948  1.0476
  425SOL    HW1 1274   2.599   2.989   2.012 -0.9820  0.0591  1.5661
  425SOL    HW2 1275   2.681   2.884   1.910 -1.5012  2.2034  3.0702
  426SOL     OW 1276   0.070   2.845   2.629 -0.3577 -0.3913 -0.1114
  426SOL    HW1 1277   3.069   2.773   2.644 -0.1378 -1.0055  3.4828
  426SOL    HW2 1278   0.138   2.833   2.708  2.0370 -1.4469  1.1147
  427SOL     OW 1279   0.912   2.926   0.333  0.0066 -0.0384 -0.0734
  427SOL    HW1 1280   0.969   2.994   0.282 -0.3101 -1.6292 -4.0586
  427SOL    HW2 1281   0.814   2.947   0.316 -1.1651  3.6017  0.0146
  428SOL     OW 1282   2.799   0.570   1.460  0.1266 -0.2840  0.5892
  428SOL    HW1 1283   2.765   0.478   1.469  4.0428  0.1141  0.5585
  428SOL    HW2 1284   2.761   0.616   1.372  2.1054  0.8719 -1.5807
  429SOL     OW 1285   2.058   2.858   0.658  0.0337 -0.2049 -0.3235
  429SOL    HW1 1286   1.982   2.860   0.590 -1.0169  1.3163  1.5906
  429SOL    HW2 1287   2.127   2.786   0.645  1.8268  0.3981  2.7881
  430SOL     OW 1288   0.833   1.601   2.659 -0.3308 -0.3368 -0.2435
  430SOL    HW1 1289   0.897   1.679   2.669  0.0637 -0.2491 -0.1634
  430SOL    HW2 1290   0.801   1.582   2.564 -1.0488  0.3390 -0.9864
  431SOL     OW 1291   0.133   1.881   1.369 -0.4121  0.1336 -0.3989
  431SOL    HW1 1292   0.206   1.873   1.439  2.1577 -0.4063  2.1246
  431SOL    HW2 1293   0.054   1.932   1.397  1.7295 -2.2952 -0.0748
  432SOL     OW 1294   1.437   2.462   2.654  0.3016 -0.1183  0.0147
  432SOL    HW1 1295   1.386   2.441   2.570  3.0396  0.5185 -2.0085
  432SOL    HW2 1296   1.454   2.375   2.705 -1.6727  0.0442  0.7703
  433SOL     OW 1297   1.126   0.391   2.316  0.3636 -0.0942 -0.0769
  433SOL    HW1 1298   1.052   0.414   2.253 -0.4389 -0.3381  2.9892
  433SOL    HW2 1299   1.152   0.486   2.352 -0.3669  2.0104 -0.1043
  434SOL     OW 1300   0.704   2.570   2.088 -0.2011  0.2072  0.2282
  434SOL    HW1 1301   0.724   2.580   1.989  0.1512 -1.4409  1.7755
  434SOL    HW2 1302   0.651   2.486   2.102  0.4500  2.7326  0.6667
  435SOL     OW 1303   0.361   0.181   0.044  0.3389  0.1246 -0.1772
  435SOL    HW1 1304   0.316   0.141   0.123  0.5928  1.5055 -1.2779
  435SOL    HW2 1305   0.349   0.281   0.030  1.2132 -1.7352  1.4490
  436SOL     OW 1306   0.506   1.317   2.337 -0.3926  0.4531 -0.5004
  436SOL    HW1 1307   0.403   1.306   2.344 -0.0824  0.6252  2.4245
  436SOL    HW2 1308   0.548   1.286   2.423  1.2901 -3.1041 -1.4499
  437SOL     OW 1309   1.137   2.256   2.424 -0.6394 -0.0791  0.9244
  437SOL    HW1 1310   1.135   2.285   2.325 -2.3624 -2.4113 -2.0459
  437SOL    HW2 1311   1.051   2.205   2.440  2.4614  0.1595  1.1176
  438SOL     OW 1312   0.823   0.899   0.613  0.6102 -0.0694 -0.4347
  438SOL    HW1 1313   0.841   0.893   0.712 -0.5425 -3.8169  1.1709
  438SOL    HW2 1314   0.901   0.891   0.546 -1.0859 -2.8800  0.0764
  439SOL     OW 1315   2.804   1.245   2.402 -0.3753  0.0005  0.0655
  439SOL    HW1 1316   2.778   1.150   2.381  0.3159  0.8182  0.4353
  439SOL    HW2 1317   2.834   1.294   2.317  1.1548  1.1255 -0.8164
  440SOL     OW 1318   2.898   0.580   2.930  0.1847 -0.1700 -0.0345
  440SOL    HW1 1319   2.960   0.511   2.889 -0.9379 -0.7905  2.0312
  440SOL    HW2 1320   2.813   0.595   2.874 -1.1250 -2.1652 -2.8628
  441SOL     OW 1321   0.752   1.780   1.567 -0.4494  0.7666  0.2832
  441SOL    HW1 1322   0.811   1.857   1.581  0.6404 -3.4771 -1.4588
  441SOL    HW2 1323   0.675   1.772   1.636  0.5198  0.1430 -1.3161
  442SOL     OW 1324   1.913   1.262   0.728 -0.5524 -0.2773  0.1122
  442SOL    HW1 1325   1.883   1.217   0.640  1.3623 -1.6109  0.2487
  442SOL    HW2 1326   1.877   1.355   0.734 -2.2442 -2.2543 -0.6621
  443SOL     OW 1327   2.504   1.968   2.928 -0.1473 -0.2328  0.1464
  443SOL    HW1 1328   2.425   1.968   2.870  0.2987 -0.8835  2.3998
  443SOL    HW2 1329   2.482   2.019   3.018  1.1721  0.1063  1.8938
  444SOL     OW 1330   1.796   1.450   2.649 -0.1171 -0.0545  0.6657
  444SOL    HW1 1331   1.858   1.374   2.624 -1.4908 -0.4697  0.0772
  444SOL    HW2 1332   1.845   1.526   2.689 -0.9221 -0.7893 -1.3271
  445SOL     OW 1333   0.505   2.302   2.104  0.1155  0.4379 -0.1929
  445SOL    HW1 1334   0.465   2.380   2.154 -0.0106  0.1011  0.5376
  445SOL    HW2 1335   0.506   2.220   2.167  2.0947  0.4602  0.9912
  446SOL     OW 1336   0.856   0.773   1.635 -0.6412  0.1888  0.0743
  446SOL    HW1 1337   0.789   0.705   1.666  1.5268 -0.3929  0.5198
  446SOL    HW2 1338   0.877   0.755   1.539  0.5174  0.7837 -0.2037
  447SOL     OW 1339   1.065   0.833   0.506 -0.0960  0.1892 -0.1049
  447SOL    HW1 1340   1.140   0.902   0.495  1.6370 -0.4235 -1.0581
  447SOL    HW2 1341   1.093   0.765   0.578  0.2203 -0.5972  0.8587
  448SOL     OW 1342   1.308   1.396   2.114 -0.0665  0.2272  0.0076
  448SOL    HW1 1343   1.211   1.425   2.089 -3.0742  3.2356 -0.3116
  448SOL    HW2 1344   1.340   1.323   2.048  1.3848 -0.8920 -0.9388
  449SOL     OW 1345   0.296   1.731   2.382 -0.3699 -0.4478  0.2300
  449SOL    HW1 1346   0.230   1.664   2.338 -3.4445 -1.4094 -3.6779
  449SOL    HW2 1347   0.388   1.687   2.400 -0.3155 -1.1370 -1.8819
  450SOL     OW 1348   2.117   1.351   2.180 -0.1023 -0.0772 -0.2840
  450SOL    HW1 1349   2.162   1.388   2.094  3.8747 -1.8881 -0.6555
  450SOL    HW2 1350   2.134   1.418   2.255 -2.1509 -0.4212 -0.1648
  451SOL     OW 1351   2.601   1.231   1.347  0.2087 -0.2200  0.6521
  451SOL    HW1 1352   2.634   1.319   1.300 -1.8424  1.1013 -0.1864
  451SOL    HW2 1353   2.659   1.208   1.425 -2.0413 -2.2942 -0.2078
  452SOL     OW 1354   0.726   1.071   1.409  0.1250  0.1597 -0.6393
  452SOL    HW1 1355   0.720   1.071   1.507  0.4535 -1.0569  0.2700
  452SOL    HW2 1356   0.821   1.073   1.382 -3.0382 -0.7910 -1.4509
  453SOL     OW 1357   0.447   1.893   1.035 -0.4272 -0.4057 -0.0360
  453SOL    HW1 1358   0.371   1.955   1.055  0.1185 -0.0677  0.8109
  453SOL    HW2 1359   0.487   1.922   0.942  0.0151  1.0348 -2.6947
  454SOL     OW 1360   1.293   1.405   0.149 -0.1921 -0.2905 -0.2193
  454SOL    HW1 1361   1.391   1.429   0.147  2.2763 -0.2193  1.3503
  454SOL    HW2 1362   1.264   1.398   0.247  1.1219 -1.1634  2.8315
  455SOL     OW 1363   1.690   0.581   0.926 -0.2404  0.5343 -0.0025
  455SOL    HW1 1364   1.744   0.494   0.935  1.0470 -2.5575  2.6826
  455SOL    HW2 1365   1.753   0.662   0.945 -0.0371 -1.4348  1.0183
  456SOL     OW 1366   1.807   2.860   0.520  0.7550  0.2108 -0.0792
  456SOL    HW1 1367   1.773   2.763   0.503 -0.0772 -0.1446 -0.4693
  456SOL    HW2 1368   1.732   2.906   0.572  4.0069  0.5496  0.5128
  457SOL     OW 1369   2.052   0.920   2.213 -0.1074 -0.0235  0.1616
  457SOL    HW1 1370   2.068   0.926   2.116 -0.9444 -0.0971  0.6337
  457SOL    HW2 1371   2.026   1.012   2.258 -1.0826  1.2244  0.4614
  458SOL     OW 1372   2.727   0.557   2.495  0.3196  0.2395  0.1898
  458SOL    HW1 1373   2.766   0.646   2.467  1.9075  0.7273  1.4564
  458SOL    HW2 1374   2.638   0.547   2.442 -1.7682 -0.2957 -0.5686
  459SOL     OW 1375   2.564   1.386   2.367 -0.5624 -0.6192  0.6148
  459SOL    HW1 1376   2.570   1.459   2.295 -0.5769  2.7870  0.9426
  459SOL    HW2 1377   2.643   1.321   2.365  1.4935 -0.2939 -0.5958
  460SOL     OW 1378   0.820   0.921   2.714 -0.3985 -0.1729  0.3512
  460SOL    HW1 1379   0.816   0.993   2.790 -2.1603  1.5906  1.8431
  460SOL    HW2 1380   0.731   0.932   2.656  0.5633  0.5126 -2.0111
  461SOL     OW 1381   0.379   2.192   0.203  0.2320 -0.0638 -0.1538
  461SOL    HW1 1382   0.400   2.274   0.264 -0.1729  2.9601  1.8194
  461SOL    HW2 1383   0.372   2.225   0.104 -3.5269  1.7996  0.5705
  462SOL     OW 1384   1.220   3.046   2.155  0.6225  0.1054  0.0775
  462SOL    HW1 1385   1.270   2.991   2.082 -0.3537 -1.0374 -0.9062
  462SOL    HW2 1386   1.116   3.039   2.124 -3.8164 -0.0406  0.1986
  463SOL     OW 1387   2.050   2.320   2.074  0.0926 -0.0428 -0.3071
  463SOL    HW1 1388   1.964   2.278   2.098 -2.2276  1.5739 -2.0488
  463SOL    HW2 1389   2.118   2.295   2.144  1.2584 -0.6592 -1.4366
  464SOL     OW 1390   2.395   2.377   0.680  0.4791 -0.7541 -0.3897
  464SOL    HW1 1391   2.378   2.411   0.775  1.5782  1.0128  0.5305
  464SOL    HW2 1392   2.477   2.417   0.637 -0.2138 -3.2671 -0.1812
  465SOL     OW 1393   2.964   0.132   1.414  0.3865 -0.2246  0.3853
  465SOL    HW1 1394   2.947   0.089   1.321 -1.7493 -1.4140 -0.6339
  465SOL    HW2 1395   3.029   0.210   1.404 -0.8821  1.5775 -0.4622
  466SOL     OW 1396   1.261   2.520   2.400 -0.5775 -0.6053  0.1650
  466SOL    HW1 1397   1.176   2.472   2.421  0.7723  1.1418  0.5199
  466SOL    HW2 1398   1.238   2.585   2.327 -1.2955  4.5646 -0.9677
  467SOL     OW 1399   3.054   2.323   0.228 -0.4113  0.4679  0.5544
  467SOL    HW1 1400   3.044   2.227   0.192 -1.0351 -0.1642  2.5710
  467SOL    HW2 1401   2.965   2.376   0.204 -1.1719  3.0948 -2.8158
  468SOL     OW 1402   1.983   1.971   2.954  0.8499  0.1753  0.4158
  468SOL    HW1 1403   2.030   1.912   2.889 -2.8679 -0.2916 -0.1477
  468SOL    HW2 1404   2.036   2.058   2.969 -1.2408  0.1102 -0.3801
  469SOL     OW 1405   0.890   1.851   0.630  0.1342 -0.5135 -0.0351
  469SOL    HW1 1406   0.894   1.919   0.707 -2.3925  1.2893  0.4922
  469SOL    HW2 1407   0.906   1.754   0.662  2.9309 -1.4766  0.2080
  470SOL     OW 1408   1.898   0.789   0.918  0.3802 -0.1410  0.1182
  470SOL    HW1 1409   1.939   0.700   0.952  1.6494 -3.6909  1.9313
  470SOL    HW2 1410   1.968   0.862   0.939 -0.1550 -1.7460 -0.0624
  471SOL     OW 1411   0.302   1.781   0.427 -0.1881 -0.1218 -0.1025
  471SOL    HW1 1412   0.342   1.751   0.338 -1.5130  0.3535 -2.7699
  471SOL    HW2 1413   0.235   1.851   0.413  1.9870 -1.1332 -0.7600
  472SOL     OW 1414   2.692   1.844   2.554  0.2044 -0.3445 -0.5455
  472SOL    HW1 1415   2.699   1.789   2.470  0.6203 -0.7318 -0.1520
  472SOL    HW2 1416   2.658   1.939   2.536  0.3620  0.1443 -2.0406
  473SOL     OW 1417   1.503   1.763   0.757  0.0801 -0.3620 -0.3050
  473SOL    HW1 1418   1.454   1.853   0.755  0.3560 -0.7629 -0.5810
  473SOL    HW2 1419   1.560   1.751   0.842 -0.2654  3.5449 -0.6939
  474SOL     OW 1420   2.637   0.439   1.042  0.4045 -0.1731  0.9357
  474SOL    HW1 1421   2.542   0.433   0.999 -0.2684 -1.5308  1.0802
  474SOL    HW2 1422   2.703   0.428   0.967 -2.3095 -2.9243 -3.2780
  475SOL     OW 1423   2.717   2.852   1.684  0.3079  0.0610  0.8519
  475SOL    HW1 1424   2.791   2.922   1.677  0.2568 -2.1218 -0.2083
  475SOL    HW2 1425   2.638   2.877   1.623  1.0706 -1.8585 -1.3739
  476SOL     OW 1426   0.430   0.207   0.736  0.2811 -0.2032 -0.1423
  476SOL    HW1 1427   0.477   0.173   0.652 -0.2378  0.0894 -0.3077
  476SOL    HW2 1428   0.397   0.302   0.717  0.0005  3.3154  1.2395
  477SOL     OW 1429   1.349   2.449   1.293 -0.1001  0.2376 -0.1592
  477SOL    HW1 1430   1.402   2.395   1.361  0.3371 -0.2456 -0.8683
  477SOL    HW2 1431   1.400   2.538   1.280 -0.9988  0.2738  0.3686
  478SOL     OW 1432   1.325   2.624   2.808  0.4499  0.4114 -0.2981
  478SOL    HW1 1433   1.233   2.650   2.766 -4.7559 -0.5094  0.5367
  478SOL    HW2 1434   1.366   2.565   2.739  0.3669  1.9144  1.4730
  479SOL     OW 1435   2.363   0.987   1.959 -0.1143  0.3976  0.7085
  479SOL    HW1 1436   2.432   1.034   2.021 -0.3848 -0.3277 -2.8842
  479SOL    HW2 1437   2.329   0.900   1.990  2.2281  3.2680 -2.7100
  480SOL     OW 1438   2.678   2.120   2.773  1.2778  0.1808  0.2001
  480SOL    HW1 1439   2.666   2.114   2.673  0.2308 -1.2709 -1.1766
  480SOL    HW2 1440   2.624   2.048   2.821  0.2994 -3.5959  0.4356
  481SOL     OW 1441   1.688   0.004   1.654 -0.0274  0.0795  0.3694
  481SOL    HW1 1442   1.732   2.991   1.696  0.8046 -1.0039 -0.3920
  481SOL    HW2 1443   1.587   3.066   1.649 -2.1867  0.0956 -1.9899
  482SOL     OW 1444   1.507   2.401   2.204 -0.0329 -0.5316 -0.1728
  482SOL    HW1 1445   1.513   2.427   2.105 -1.6521  0.3924 -0.0134
  482SOL    HW2 1446   1.409   2.399   2.237 -1.3447 -2.3016 -1.5641
  483SOL     OW 1447   1.084   2.656   2.687 -1.1200  0.3965 -0.2961
  483SOL    HW1 1448   0.993   2.616   2.719 -1.3862  0.9464 -0.0334
  483SOL    HW2 1449   1.078   2.683   2.587 -3.0701  1.1772 -0.2987
  484SOL     OW 1450   2.543   3.011   1.530 -0.4165 -0.5365  0.4278
  484SOL    HW1 1451   2.448   2.975   1.546  0.6757  0.7993  0.5898
  484SOL    HW2 1452   2.584   2.986   1.438 -0.2018 -1.4284  1.8098
  485SOL     OW 1453   2.000   0.460   0.562  0.7017 -0.1925 -0.9949
  485SOL    HW1 1454   2.032   0.512   0.483 -0.1553 -0.9318  2.6009
  485SOL    HW2 1455   1.901   0.466   0.575  1.8859 -0.3256 -0.3654
  486SOL     OW 1456   2.496   2.482   2.427  0.2168  0.4493  0.0319
  486SOL    HW1 1457   2.459   2.575   2.439 -0.1028 -2.9827  0.0277
  486SOL    HW2 1458   2.529   2.473   2.329  1.6322 -0.1151  0.2985
  487SOL     OW 1459   1.324   0.681   0.640 -0.2168  0.4738 -0.1433
  487SOL    HW1 1460   1.234   0.649   0.665  1.3592 -0.7862 -0.5376
  487SOL    HW2 1461   1.394   0.604   0.647 -0.2601 -0.7779  2.5090
  488SOL     OW 1462   2.534   2.908   2.375 -0.2572  0.7764 -0.1227
  488SOL    HW1 1463   2.566   2.826   2.322 -1.9097  0.9537  0.9983
  488SOL    HW2 1464   2.439   2.886   2.402  1.5861  0.3269  0.2391
  489SOL     OW 1465   1.242   2.621   0.473 -0.3266  0.0192 -0.2942
  489SOL    HW1 1466   1.255   2.709   0.521 -0.3368  1.3905  1.6566
  489SOL    HW2 1467   1.232   2.544   0.539  0.7964  1.2027  0.7133
  490SOL     OW 1468   1.577   0.306   3.038 -0.0676  0.6485 -0.2070
  490SOL    HW1 1469   1.653   0.320   2.972 -0.9497  3.2817 -0.0929
  490SOL    HW2 1470   1.521   0.389   3.032  2.6558 -0.3935  0.5352
  491SOL     OW 1471   0.771   2.925   1.275 -0.0206 -0.1549 -0.7167
  491SOL    HW1 1472   0.706   3.005   1.256 -0.4641  0.5623  0.4333
  491SOL    HW2 1473   0.831   2.949   1.356 -0.7507  0.0965  0.2914
  492SOL     OW 1474   1.722   2.618   0.473  0.2866  0.4128 -0.0035
  492SOL    HW1 1475   1.793   2.552   0.437  4.0512  3.6202  2.2113
  492SOL    HW2 1476   1.630   2.620   0.427 -1.1835 -2.6697 -1.6684
  493SOL     OW 1477   1.082   2.185   3.049  0.4242  0.6039 -0.1775
  493SOL    HW1 1478   1.057   2.220   2.956 -0.5304  1.2354  0.1917
  493SOL    HW2 1479   1.089   2.266   0.042  4.1623  0.8937 -0.5616
  494SOL     OW 1480   1.028   0.726   0.260  0.4555 -0.0720  0.3396
  494SOL    HW1 1481   1.106   0.671   0.225 -0.1569 -1.2042  1.2521
  494SOL    HW2 1482   1.042   0.757   0.357 -1.5765  0.5383  1.0379
  495SOL     OW 1483   2.740   0.484   1.782  0.1292  0.8545 -0.1608
  495SOL    HW1 1484   2.809   0.420   1.818 -1.5279 -2.7369  1.1449
  495SOL    HW2 1485   2.775   0.559   1.720 -0.4836  0.8218 -1.1980
  496SOL     OW 1486   2.359   2.324   2.573 -0.4163  0.1604 -0.4020
  496SOL    HW1 1487   2.423   2.388   2.517  2.0586  1.4164 -0.0522
  496SOL    HW2 1488   2.328   2.242   2.521 -0.1152 -2.0750 -0.0326
  497SOL     OW 1489   1.613   1.595   2.514  0.4652  0.4742 -0.2047
  497SOL    HW1 1490   1.696   1.549   2.554  2.8148 -0.5751  1.9760
  497SOL    HW2 1491   1.531   1.533   2.515 -2.0579  0.6870  0.9994
  498SOL     OW 1492   0.825   2.583   0.937  0.4111  0.1747 -0.4777
  498SOL    HW1 1493   0.727   2.567   0.912 -0.3067 -1.1391 -1.7312
  498SOL    HW2 1494   0.858   2.513   1.003 -0.6909  0.6967  0.4148
  499SOL     OW 1495   0.227   2.033   1.113  0.2221 -0.4222 -0.1105
  499SOL    HW1 1496   0.138   2.051   1.063 -1.2826  1.0191 -0.0106
  499SOL    HW2 1497   0.216   2.008   1.209 -1.1586  0.0580  1.0740
  500SOL     OW 1498   0.714   2.707   2.941  0.4402  0.7943  0.1989
  500SOL    HW1 1499   0.613   2.685   2.962 -1.8996 -0.4334 -0.6151
  500SOL    HW2 1500   0.740   2.812   2.946  1.8586  2.3439  1.7794
  501SOL     OW 1501   1.714   3.002   0.100 -0.0315  0.0776 -0.1126
  501SOL    HW1 1502   1.660   2.916   0.122  0.0254  0.8608 -0.4628
  501SOL    HW2 1503   1.652   0.013   0.089 -0.1462  1.9105 -0.5062
  502SOL     OW 1504   2.790   0.072   0.696 -0.0179 -0.3523 -0.4554
  502SOL    HW1 1505   2.805   0.144   0.624  1.2744  1.7664 -1.8685
  502SOL    HW2 1506   2.866   0.070   0.761 -4.0332 -1.8222 -0.6722
  503SOL     OW 1507   2.077   2.955   1.962 -0.3778  0.1653 -0.1032
  503SOL    HW1 1508   2.130   2.965   2.051  0.2903 -0.3887  0.9407
  503SOL    HW2 1509   1.983   2.995   1.961 -2.0408 -2.1519 -1.2402
  504SOL     OW 1510   2.191   1.114   1.795  0.2966  0.5792  0.3069
  504SOL    HW1 1511   2.141   1.034   1.752 -1.7507 -1.0885  3.3129
  504SOL    HW2 1512   2.263   1.081   1.861 -0.2832 -1.7506 -0.9921
  505SOL     OW 1513   1.840   0.003   2.026  0.0508  0.4556 -0.1914
  505SOL    HW1 1514   1.827   3.064   2.127  1.8561  2.0471 -0.2702
  505SOL    HW2 1515   1.750   0.022   1.979  1.4015  0.0740  1.2627
  506SOL     OW 1516   0.064   0.738   1.953 -0.3791  0.1762 -0.1555
  506SOL    HW1 1517   0.009   0.659   1.988 -0.6499  1.8904  1.6085
  506SOL    HW2 1518   0.160   0.738   1.992 -3.1109 -0.0867  0.4358
  507SOL     OW 1519   1.703   0.442   0.507 -0.1838 -0.2360 -0.7338
  507SOL    HW1 1520   1.672   0.497   0.428  1.6591  0.1381  0.8665
  507SOL    HW2 1521   1.752   0.356   0.478 -0.8398 -0.7466 -1.7072
  508SOL     OW 1522   2.058   0.609   1.934 -0.0986 -0.1705  0.0363
  508SOL    HW1 1523   2.031   0.548   2.012  0.2881  1.3186  0.7707
  508SOL    HW2 1524   2.002   0.581   1.853  0.4958 -0.4501  0.5994
  509SOL     OW 1525   0.651   1.822   2.865 -0.1808  0.4239  0.1797
  509SOL    HW1 1526   0.725   1.766   2.899 -1.4914  1.0629 -2.3958
  509SOL    HW2 1527   0.634   1.904   2.928 -1.3909 -1.8375  1.1152
  510SOL     OW 1528   0.290   1.068   0.929  0.0409 -0.0188  0.7112
  510SOL    HW1 1529   0.238   1.075   1.018 -0.7890  0.0054  2.5764
  510SOL    HW2 1530   0.362   1.139   0.908 -0.7438 -0.7303 -0.8217
  511SOL     OW 1531   1.501   1.356   1.516 -0.1202  0.3065  0.3853
  511SOL    HW1 1532   1.549   1.286   1.453 -0.8674 -2.0319  1.1374
  511SOL    HW2 1533   1.516   1.447   1.476 -1.0042 -0.9655 -1.8367
  512SOL     OW 1534   0.495   1.982   0.771  0.4315 -0.0290  0.4298
  512SOL    HW1 1535   0.501   1.894   0.721  0.5103 -0.4011  0.1555
  512SOL    HW2 1536   0.580   2.039   0.744  2.9535  1.0856  1.3131
  513SOL     OW 1537   0.284   2.527   0.769 -0.4546 -0.3621 -0.2121
  513SOL    HW1 1538   0.354   2.546   0.702 -1.8021 -1.3580  2.3915
  513SOL    HW2 1539   0.322   2.445   0.821  1.2155 -1.9539 -2.0699
  514SOL     OW 1540   0.718   1.999   0.472 -0.1568  0.6863  0.4045
  514SOL    HW1 1541   0.737   2.006   0.371 -0.0979 -0.6686  0.5893
  514SOL    HW2 1542   0.791   1.948   0.521  1.1724  0.3990 -2.4390
  515SOL     OW 1543   0.146   0.278   2.943 -0.1917 -0.6189  0.6583
  515SOL    HW1 1544   0.116   0.196   2.995  0.9688  1.4074 -0.8619
  515SOL    HW2 1545   0.207   0.336   3.008 -0.9864 -2.7219  0.1160
  516SOL     OW 1546   2.288   3.005   1.268 -0.0329  0.4810 -0.4655
  516SOL    HW1 1547   2.194   3.039   1.250  1.0700 -0.0496  0.1345
  516SOL    HW2 1548   2.353   0.011   1.266 -3.1071 -1.6177  0.7812
  517SOL     OW 1549   1.829   1.510   0.809 -0.2821  0.6861 -0.2849
  517SOL    HW1 1550   1.800   1.587   0.751 -0.4781 -2.2167  0.7922
  517SOL    HW2 1551   1.917   1.526   0.865 -0.8679 -0.2059  2.1678
  518SOL     OW 1552   1.750   2.740   0.904 -0.1048  0.3758  0.3673
  518SOL    HW1 1553   1.802   2.653   0.922  0.3075  0.3351  1.8734
  518SOL    HW2 1554   1.687   2.715   0.827 -1.8410  0.0860 -2.8530
  519SOL     OW 1555   2.863   2.481   0.121 -0.1476 -0.4649  0.1194
  519SOL    HW1 1556   2.789   2.469   0.054  2.4979 -1.8563  0.3945
  519SOL    HW2 1557   2.870   2.578   0.149  1.0011  1.7408  0.0587
  520SOL     OW 1558   2.079   1.755   2.296  0.4089 -0.3370 -0.3325
  520SOL    HW1 1559   2.038   1.775   2.387 -1.1578  0.2163  0.7469
  520SOL    HW2 1560   2.137   1.829   2.264 -1.5413 -2.0129  2.1583
  521SOL     OW 1561   1.313   3.043   1.837 -0.9336  0.2629  0.3053
  521SOL    HW1 1562   1.340   3.064   1.741 -0.8798  0.2798  1.4177
  521SOL    HW2 1563   1.218   3.067   1.842  2.8352  0.3731 -0.5150
  522SOL     OW 1564   0.313   2.393   1.913 -0.1168 -0.4597 -0.2202
  522SOL    HW1 1565   0.210   2.378   1.921 -2.6897  0.7693  0.0068
  522SOL    HW2 1566   0.363   2.328   1.977  1.9659  1.0596 -1.4351
  523SOL     OW 1567   0.942   2.400   1.892 -0.2387 -0.4294  0.4547
  523SOL    HW1 1568   0.866   2.470   1.875  0.1813  0.9999  1.1680
  523SOL    HW2 1569   0.933   2.361   1.987 -1.9346 -2.4127 -0.6092
  524SOL     OW 1570   2.136   2.257   0.354  0.0642 -0.4454 -0.5402
  524SOL    HW1 1571   2.077   2.203   0.294 -1.1250  1.4514 -0.5813
  524SOL    HW2 1572   2.105   2.251   0.452 -1.8958  0.8396  1.5051
  525SOL     OW 1573   2.659   0.556   2.752  0.4413  0.5361  0.1955
  525SOL    HW1 1574   2.691   0.540   2.657  0.3627 -1.0412 -3.3531
  525SOL    HW2 1575   2.596   0.637   2.745  4.6617 -0.7908 -1.1554
  526SOL     OW 1576   0.468   2.610   0.585 -0.0082 -0.8111  0.1756
  526SOL    HW1 1577   0.560   2.653   0.576  0.4140 -3.0806 -0.4106
  526SOL    HW2 1578   0.435   2.569   0.499 -0.6816 -2.4734  1.7426
  527SOL     OW 1579   0.037   1.148   0.816  0.3056  0.2688  0.0531
  527SOL    HW1 1580   0.138   1.134   0.827 -1.9008  0.4021  0.7011
  527SOL    HW2 1581   3.053   1.074   0.860  0.3463 -1.7006  0.0455
  528SOL     OW 1582   0.823   1.262   2.501 -0.0962  0.3697  0.3081
  528SOL    HW1 1583   0.741   1.269   2.560 -0.6334 -2.6451  1.5107
  528SOL    HW2 1584   0.910   1.270   2.553 -0.0178 -1.8145  0.1293
  529SOL     OW 1585   0.922   1.322   0.262  0.4205 -0.1342 -0.0302
  529SOL    HW1 1586   0.942   1.224   0.251 -1.6868 -0.2724 -1.9615
  529SOL    HW2 1587   0.870   1.360   0.186  2.7037 -0.6653  2.5199
  530SOL     OW 1588   1.085   0.869   1.789  0.3648 -0.4252  0.9516
  530SOL    HW1 1589   0.989   0.848   1.768  3.6049 -0.1270  0.1579
  530SOL    HW2 1590   1.138   0.797   1.745 -0.3856 -0.4245 -1.5916
  531SOL     OW 1591   1.091   2.434   0.122  0.0916  0.3438 -0.2442
  531SOL    HW1 1592   1.171   2.460   0.056  4.7385  1.2593 -0.5844
  531SOL    HW2 1593   1.111   2.452   0.221  0.9091  1.5512 -0.2459
  532SOL     OW 1594   2.436   0.758   2.282  0.2290  0.0804  0.0392
  532SOL    HW1 1595   2.514   0.825   2.273 -1.3798 -1.7483 -0.0445
  532SOL    HW2 1596   2.466   0.669   2.322 -3.0145 -0.1095 -2.2842
  533SOL     OW 1597   3.027   0.278   2.122 -0.2354 -0.3559  0.3800
  533SOL    HW1 1598   0.053   0.295   2.142 -0.6008 -1.8183  0.5975
  533SOL    HW2 1599   3.000   0.179   2.127 -0.3562 -2.9868 -1.2109
  534SOL     OW 1600   2.408   0.171   0.220 -0.7069 -0.2067 -0.0628
  534SOL    HW1 1601   2.456   0.240   0.155  0.4535  0.7565 -0.9241
  534SOL    HW2 1602   2.314   0.163   0.198  2.0270 -0.5903 -1.5975
  535SOL     OW 1603   0.729   0.412   0.083  0.4403 -0.0992  0.0371
  535SOL    HW1 1604   0.723   0.500   0.134 -0.0554 -1.8292  1.4146
  535SOL    HW2 1605   0.663   0.411   0.006  0.6202 -3.3202  1.0326
  536SOL     OW 1606   1.215   2.071   1.224  0.0749  0.5067  0.2668
  536SOL    HW1 1607   1.125   2.027   1.232 -1.0187 -0.0659 -0.9859
  536SOL    HW2 1608   1.197   2.166   1.193  0.3716  1.4700  0.6266
  537SOL     OW 1609   2.874   2.302   1.617  0.1682 -0.0742  0.2241
  537SOL    HW1 1610   2.897   2.399   1.596  0.2413 -1.2568  0.8508
  537SOL    HW2 1611   2.772   2.283   1.617 -1.2564 -0.4572  0.7806
  538SOL     OW 1612   0.567   2.235   0.513 -0.0310 -0.3291 -0.0688
  538SOL    HW1 1613   0.628   2.154   0.505 -0.4986 -0.8790 -1.1452
  538SOL    HW2 1614   0.573   2.299   0.595 -3.2509  1.6847  0.5985
  539SOL     OW 1615   1.954   1.156   2.312 -0.4506  0.6910  0.1976
  539SOL    HW1 1616   1.854   1.170   2.286  1.7602 -2.0483 -0.1109
  539SOL    HW2 1617   2.008   1.218   2.259 -3.2917  1.3189  1.2117
  540SOL     OW 1618   1.775   0.646   2.941  0.4803  0.1453  0.3428
  540SOL    HW1 1619   1.760   0.547   2.918 -1.9578 -1.8130 -0.1798
  540SOL    HW2 1620   1.840   0.695   2.876  0.9747 -2.6667 -2.8158
  541SOL     OW 1621   0.599   0.923   2.565 -0.0195 -0.2577 -0.1042
  541SOL    HW1 1622   0.530   0.843   2.566 -0.5429 -2.9403  3.9110
  541SOL    HW2 1623   0.647   0.950   2.480  0.0186  0.1921 -1.6063
  542SOL     OW 1624   1.347   2.612   1.806  0.4615 -0.0034  0.3681
  542SOL    HW1 1625   1.258   2.584   1.772 -0.0996  0.0459 -0.0440
  542SOL    HW2 1626   1.403   2.642   1.723  2.8163 -1.2652 -0.1409
  543SOL     OW 1627   0.487   2.821   0.169  0.1533  0.2662  0.1721
  543SOL    HW1 1628   0.459   2.774   0.081  0.5611 -1.0403 -0.8372
  543SOL    HW2 1629   0.400   2.842   0.220 -2.0985 -3.3481 -0.2399
  544SOL     OW 1630   3.014   2.193   2.107  0.3320 -1.0776  0.2922
  544SOL    HW1 1631   2.959   2.271   2.096  4.4274 -1.4219 -2.9331
  544SOL    HW2 1632   0.009   2.210   2.185  2.7136  0.1725  1.1312
  545SOL     OW 1633   1.532   1.862   1.757 -0.0395  0.2283  0.6160
  545SOL    HW1 1634   1.528   1.964   1.747 -0.7897  0.3646  1.4626
  545SOL    HW2 1635   1.472   1.828   1.831 -1.0439  1.9351  0.5519
  546SOL     OW 1636   3.028   0.405   2.790  0.4205  0.4670 -0.0361
  546SOL    HW1 1637   3.013   0.388   2.688  1.4521  2.1271  1.7329
  546SOL    HW2 1638   0.007   0.325   2.834  0.8154  1.5796 -1.3142
  547SOL     OW 1639   1.548   2.944   0.955 -0.4445 -0.3877  0.1721
  547SOL    HW1 1640   1.495   2.973   1.038  0.6490 -0.4338 -1.3595
  547SOL    HW2 1641   1.615   2.875   0.981 -1.2586  0.0957  4.3578
  548SOL     OW 1642   1.293   2.037   0.082 -0.0653 -0.6209  0.2993
  548SOL    HW1 1643   1.333   2.050   0.173  1.6205  1.3034 -2.7920
  548SOL    HW2 1644   1.224   2.111   0.060 -0.4886  0.3946 -0.5778
  549SOL     OW 1645   2.026   0.413   3.049 -0.1683  0.0123  0.2977
  549SOL    HW1 1646   2.078   0.397   0.068  2.1006  1.2442  0.8883
  549SOL    HW2 1647   2.047   0.503   3.002 -1.6100  2.5396 -0.3700
  550SOL     OW 1648   2.792   1.962   0.975 -0.0310 -0.1094 -0.1564
  550SOL    HW1 1649   2.748   2.020   0.902 -0.5653  0.8039 -0.7784
  550SOL    HW2 1650   2.818   1.868   0.941  2.0085  0.1720  1.2897
  551SOL     OW 1651   1.080   0.111   1.100 -0.2234 -0.6660  0.1025
  551SOL    HW1 1652   1.026   0.183   1.136  1.7553 -0.5971 -0.1077
  551SOL    HW2 1653   1.064   0.101   1.002 -1.7485 -0.6447  1.1989
  552SOL     OW 1654   3.014   1.801   2.646 -0.0255  0.1222 -0.5033
  552SOL    HW1 1655   0.043   1.802   2.636  0.8628 -0.8907 -0.0437
  552SOL    HW2 1656   2.996   1.819   2.747 -1.8644 -3.4582  1.1953
  553SOL     OW 1657   2.532   2.527   0.268  0.0870 -0.4515 -0.3588
  553SOL    HW1 1658   2.550   2.626   0.254 -1.6224 -3.5948  0.6199
  553SOL    HW2 1659   2.437   2.509   0.237  1.2527 -0.3008 -0.8340
  554SOL     OW 1660   2.105   1.155   1.456  0.2386  0.1459 -0.3550
  554SOL    HW1 1661   2.026   1.213   1.428 -1.5329  1.3353  0.1724
  554SOL    HW2 1662   2.096   1.108   1.548  0.5444  1.0749  1.2885
  555SOL     OW 1663   0.720   2.414   2.517 -0.1418  0.8934 -0.2660
  555SOL    HW1 1664   0.631   2.373   2.496 -0.3061  2.7712 -0.8305
  555SOL    HW2 1665   0.710   2.477   2.595  0.4516 -0.4287 -0.3385
  556SOL     OW 1666   1.233   1.361   1.530 -0.1742 -0.0646  0.2145
  556SOL    HW1 1667   1.333   1.374   1.528  2.6993 -2.3835 -0.2135
  556SOL    HW2 1668   1.196   1.360   1.435  1.1798  0.0706 -0.5122
  557SOL     OW 1669   1.409   2.976   1.186  0.5009 -0.3228 -0.4236
  557SOL    HW1 1670   1.448   3.055   1.240 -0.5468 -1.0253 -0.6255
  557SOL    HW2 1671   1.308   2.963   1.208 -2.4784 -2.2133  0.0699
  558SOL     OW 1672   0.340   0.593   2.315  0.2087 -0.3378 -0.6031
  558SOL    HW1 1673   0.396   0.546   2.243 -0.9799 -0.0508  1.0793
  558SOL    HW2 1674   0.244   0.572   2.291  2.0861 -1.0581 -0.7163
  559SOL     OW 1675   1.054   2.683   0.263 -0.9484 -0.4016 -0.2709
  559SOL    HW1 1676   0.992   2.761   0.282  2.7415 -3.5506 -0.1968
  559SOL    HW2 1677   1.116   2.672   0.344 -2.0300  1.6467  0.3790
  560SOL     OW 1678   1.652   1.928   0.441 -0.4965 -0.0134  0.4875
  560SOL    HW1 1679   1.657   1.834   0.420  0.9369  0.0265  1.2872
  560SOL    HW2 1680   1.700   1.991   0.377  2.6756 -3.2118 -1.5041
  561SOL     OW 1681   1.276   2.864   0.584 -0.2787  0.0073 -0.2542
  561SOL    HW1 1682   1.266   2.963   0.564 -0.7389  0.6468  1.0756
  561SOL    HW2 1683   1.290   2.852   0.683  1.7790 -0.0731 -4.6007
  562SOL     OW 1684   0.394   0.957   2.301 -0.2846  0.0008 -0.4955
  562SOL    HW1 1685   0.455   1.018   2.245  0.6202 -1.3344  0.7186
  562SOL    HW2 1686   0.443   0.890   2.361 -0.2632  0.9735 -0.4133
  563SOL     OW 1687   1.285   2.054   2.281 -0.5738 -0.1001  0.2581
  563SOL    HW1 1688   1.304   2.137   2.225  1.5919 -0.0727 -1.4591
  563SOL    HW2 1689   1.368   2.023   2.332 -0.7505  0.6638 -0.6243
  564SOL     OW 1690   2.430   0.759   1.268  0.0147  0.4259  0.1149
  564SOL    HW1 1691   2.392   0.796   1.180 -3.0530 -1.2200 -0.7322
  564SOL    HW2 1692   2.420   0.827   1.342  1.2262 -1.7423 -0.8168
  565SOL     OW 1693   1.354   0.931   0.238 -0.3026  0.4479 -0.2742
  565SOL    HW1 1694   1.319   0.985   0.163  0.5369  0.5294  2.0018
  565SOL    HW2 1695   1.434   0.981   0.273  2.0702  0.3570  0.1573
  566SOL     OW 1696   2.285   2.483   2.872 -0.1724 -0.3444 -0.1394
  566SOL    HW1 1697   2.348   2.469   2.952 -0.6527  0.6063  1.7628
  566SOL    HW2 1698   2.189   2.481   2.902  0.7243 -0.3003  0.0234
  567SOL     OW 1699   1.616   1.087   1.052  0.7467 -0.5131  0.0417
  567SOL    HW1 1700   1.707   1.065   1.005 -0.1847 -1.1519  0.6557
  567SOL    HW2 1701   1.570   1.000   1.076 -0.7656  0.8994 -1.9621
  568SOL     OW 1702   1.161   1.548   2.633 -0.0063 -0.4463 -0.7533
  568SOL    HW1 1703   1.129   1.603   2.713 -2.8820 -2.1036  1.2148
  568SOL    HW2 1704   1.127   1.595   2.549  0.0161  2.2057  1.9213
  569SOL     OW 1705   2.083   1.534   0.943  0.1618  0.5012  0.1942
  569SOL    HW1 1706   2.125   1.512   0.853  0.2867  2.3983  0.0207
  569SOL    HW2 1707   2.144   1.498   1.019  1.3784 -1.1273  0.1647
  570SOL     OW 1708   2.703   2.339   2.186  0.1404  0.1573  0.3534
  570SOL    HW1 1709   2.740   2.398   2.112 -0.7488 -1.6054 -0.7283
  570SOL    HW2 1710   2.763   2.352   2.266 -0.0928 -0.7725  0.9091
  571SOL     OW 1711   2.858   1.805   1.811 -0.0402 -0.4673  0.4579
  571SOL    HW1 1712   2.866   1.861   1.894  3.2311 -0.5162  0.2952
  571SOL    HW2 1713   2.803   1.856   1.739  0.1751  2.7158  0.3705
  572SOL     OW 1714   1.204   2.196   2.697  0.6748  0.5164  0.1827
  572SOL    HW1 1715   1.197   2.219   2.599 -0.1511 -0.9311 -1.4958
  572SOL    HW2 1716   1.294   2.214   2.728  0.0972  0.4677 -1.1607
  573SOL     OW 1717   1.604   2.176   1.426 -0.0619 -0.2017  0.1442
  573SOL    HW1 1718   1.571   2.088   1.398 -0.3590  2.2878  1.4869
  573SOL    HW2 1719   1.685   2.160   1.487  2.4101  0.9489  3.7915
  574SOL     OW 1720   1.114   2.720   1.383  0.0680  0.4031  0.8349
  574SOL    HW1 1721   1.013   2.702   1.391 -0.6722  1.8136 -0.2020
  574SOL    HW2 1722   1.129   2.810   1.333  1.4483 -2.3254  1.3321
  575SOL     OW 1723   0.824   0.323   0.908  0.2694  0.0470  0.0109
  575SOL    HW1 1724   0.907   0.374   0.932 -2.5984  0.1735 -1.4664
  575SOL    HW2 1725   0.793   0.261   0.983  1.5744  0.3763 -0.6392
  576SOL     OW 1726   2.407   0.474   1.332  0.5969 -0.8553 -0.3832
  576SOL    HW1 1727   2.467   0.552   1.308 -0.3527  0.6595 -1.8459
  576SOL    HW2 1728   2.443   0.426   1.415  0.2093 -1.4076  0.0390
  577SOL     OW 1729   2.077   0.136   2.961 -0.2022 -0.2460 -0.0337
  577SOL    HW1 1730   2.047   0.212   3.021  0.6322 -1.7041  0.7738
  577SOL    HW2 1731   2.097   0.174   2.864 -0.4388  1.7942 -1.7069
  578SOL     OW 1732   1.926   1.921   2.054  0.4331  0.6216 -0.0481
  578SOL    HW1 1733   1.882   1.828   2.066 -0.0955 -1.0947  3.5732
  578SOL    HW2 1734   1.965   1.934   1.961  0.5159 -0.2612 -1.1520
  579SOL     OW 1735   0.676   1.702   1.060 -0.1491 -0.7464 -0.1785
  579SOL    HW1 1736   0.577   1.733   1.053 -0.8947  0.7485 -0.1822
  579SOL    HW2 1737   0.698   1.622   0.998 -0.1572  0.5809 -0.6323
  580SOL     OW 1738   1.399   2.902   2.841 -0.2858  0.1619 -0.1710
  580SOL    HW1 1739   1.355   2.811   2.859 -0.1610  0.5681  1.3893
  580SOL    HW2 1740   1.478   2.888   2.773  0.2954  2.7067 -2.2253
  581SOL     OW 1741   0.931   0.663   2.069 -0.1090 -0.7720 -0.1301
  581SOL    HW1 1742   1.018   0.634   2.018 -0.7086 -2.0225  2.3474
  581SOL    HW2 1743   0.934   0.755   2.107 -2.7900 -3.3625 -1.8848
  582SOL     OW 1744   0.280   0.542   0.907  0.2065 -0.1374 -0.2036
  582SOL    HW1 1745   0.284   0.641   0.896 -1.5130 -2.7008 -1.0288
  582SOL    HW2 1746   0.316   0.503   0.823  0.5543  1.2522  2.2510
  583SOL     OW 1747   0.923   1.949   1.916 -0.0541  0.0245  0.0703
  583SOL    HW1 1748   0.828   1.912   1.912  3.0916  1.8644  2.3659
  583SOL    HW2 1749   0.973   1.932   1.997 -3.1216  2.4751 -3.5521
  584SOL     OW 1750   2.249   2.593   0.185  0.7406 -0.2998 -0.3394
  584SOL    HW1 1751   2.213   2.601   0.284 -0.6879  1.1777  1.9838
  584SOL    HW2 1752   2.275   2.690   0.158 -0.1851  2.4656 -0.8066
  585SOL     OW 1753   2.323   0.478   2.777 -0.2226 -0.0639 -0.2219
  585SOL    HW1 1754   2.285   0.525   2.857 -0.1849  1.1231 -0.5930
  585SOL    HW2 1755   2.291   0.529   2.693  0.8878 -0.0474 -1.3948
  586SOL     OW 1756   0.445   1.340   0.323 -0.0251  0.1613 -0.1563
  586SOL    HW1 1757   0.504   1.409   0.365 -1.5375 -1.0951 -1.0608
  586SOL    HW2 1758   0.348   1.346   0.361  0.2624 -1.1285  0.3757
  587SOL     OW 1759   1.621   1.774   1.002  0.1081 -0.3736  0.5883
  587SOL    HW1 1760   1.703   1.812   1.046 -1.0179  0.7928  2.9602
  587SOL    HW2 1761   1.539   1.823   1.033 -0.3908 -1.0722  1.1751
  588SOL     OW 1762   0.552   0.526   1.136  0.3077 -0.3066 -0.3088
  588SOL    HW1 1763   0.654   0.530   1.156 -1.3921  0.8091 -2.6345
  588SOL    HW2 1764   0.520   0.579   1.054 -2.5445  2.1135 -0.7157
  589SOL     OW 1765   1.892   2.965   0.847 -0.5357 -0.3631 -0.4312
  589SOL    HW1 1766   1.937   2.921   0.768 -0.9331  0.0834  1.5750
  589SOL    HW2 1767   1.839   2.894   0.903  0.8823 -2.4924  0.9181
  590SOL     OW 1768   1.583   1.063   0.309 -0.2914  0.2817 -0.5878
  590SOL    HW1 1769   1.634   1.076   0.222 -0.8349 -0.6714 -3.3464
  590SOL    HW2 1770   1.603   1.142   0.367 -3.4561 -1.9047 -3.0554
  591SOL     OW 1771   2.312   2.316   2.189 -0.0660  0.0618 -0.5181
  591SOL    HW1 1772   2.295   2.275   2.282 -0.9178  0.3029  2.1290
  591SOL    HW2 1773   2.390   2.269   2.142  3.0496 -0.3005  2.6922
  592SOL     OW 1774   1.401   1.902   1.117 -0.1431 -0.3779 -0.3999
  592SOL    HW1 1775   1.454   1.897   1.204 -1.4507  0.1458  2.6478
  592SOL    HW2 1776   1.342   1.985   1.114 -0.8099 -0.2252 -1.1230
  593SOL     OW 1777   0.596   0.067   0.932 -0.0082  0.3032  0.0787
  593SOL    HW1 1778   0.677   0.022   0.887 -1.4312 -0.0764 -0.3105
  593SOL    HW2 1779   0.548   0.139   0.868 -1.9149  3.5553 -0.1214
  594SOL     OW 1780   2.741   0.893   1.964  0.6176 -0.6920  0.2512
  594SOL    HW1 1781   2.809   0.964   1.939 -1.3992 -0.6216 -0.0897
  594SOL    HW2 1782   2.663   0.899   1.894 -0.5207  0.7200 -1.1143
  595SOL     OW 1783   0.056   2.958   0.469 -0.3071  0.3480 -0.4398
  595SOL    HW1 1784   3.067   2.876   0.481  0.3704 -1.9070  0.7747
  595SOL    HW2 1785   0.071   3.003   0.559 -0.2997  0.1880 -0.6375
  596SOL     OW 1786   3.060   0.571   1.519 -0.2054 -0.1217 -0.3298
  596SOL    HW1 1787   0.011   0.644   1.582 -0.1437 -1.6609 -1.3720
  596SOL    HW2 1788   2.963   0.570   1.490 -0.0139 -0.8823 -1.3751
  597SOL     OW 1789   2.240   0.994   0.405  0.0690 -0.6667 -0.5568
  597SOL    HW1 1790   2.286   1.003   0.313  0.1625 -2.1519 -1.5199
  597SOL    HW2 1791   2.287   1.054   0.472 -0.0023 -1.0946  0.4323
  598SOL     OW 1792   0.350   0.047   2.043  0.2495  0.4146  0.2442
  598SOL    HW1 1793   0.377   0.105   1.964 -1.0983 -1.7136 -0.3471
  598SOL    HW2 1794   0.383   0.087   2.131  1.3965 -0.7026  1.6611
  599SOL     OW 1795   2.465   1.682   0.164  0.2140  0.0502 -0.1675
  599SOL    HW1 1796   2.420   1.753   0.224 -1.0052  0.2541  1.0167
  599SOL    HW2 1797   2.555   1.717   0.130 -1.0758 -0.1983  2.9672
  600SOL     OW 1798   1.045   0.950   3.003  1.0460 -0.6393  0.5865
  600SOL    HW1 1799   0.983   1.020   2.956  0.1499  1.0332  0.6139
  600SOL    HW2 1800   1.032   0.955   0.032  0.7346  0.5282 -0.2538
  601SOL     OW 1801   1.307   1.063   3.070  0.8316  0.8545 -0.0531
  601SOL    HW1 1802   1.309   1.159   3.040  1.7316  1.7283  2.9383
  601SOL    HW2 1803   1.229   1.003   3.031 -0.4039 -2.0135  0.8307
  602SOL     OW 1804   0.913   2.990   1.484  0.1405  0.2059  0.8712
  602SOL    HW1 1805   0.975   0.001   1.479 -1.9285  0.1027 -2.6262
  602SOL    HW2 1806   0.891   2.982   1.583 -0.7149  1.7892  0.3733
  603SOL     OW 1807   0.770   2.954   2.381 -0.1749  0.1759  0.3276
  603SOL    HW1 1808   0.705   2.997   2.449 -2.0761  2.7622  0.4869
  603SOL    HW2 1809   0.863   2.939   2.423  1.8928 -2.3256 -0.5895
  604SOL     OW 1810   2.857   0.049   2.159  0.0487 -0.6037  0.2941
  604SOL    HW1 1811   2.799   0.068   2.238 -0.3574 -0.7692 -1.9440
  604SOL    HW2 1812   2.816   3.052   2.104  1.7065  0.9691  1.7087
  605SOL     OW 1813   2.717   2.665   1.370 -0.0408  0.1396  0.5746
  605SOL    HW1 1814   2.650   2.604   1.416  0.7361 -1.2014  1.5987
  605SOL    HW2 1815   2.671   2.753   1.346  0.7072  0.5778 -0.6030
  606SOL     OW 1816   2.963   2.060   2.548 -0.3206  0.3118 -0.4828
  606SOL    HW1 1817   3.011   2.095   2.634 -0.7828  0.1627 -0.8664
  606SOL    HW2 1818   2.932   1.962   2.562  0.7442  2.5792 -0.4825
  607SOL     OW 1819   0.883   0.194   0.662 -0.3619  0.4629  0.5597
  607SOL    HW1 1820   0.978   0.218   0.631 -0.7096 -1.7071 -0.7524
  607SOL    HW2 1821   0.858   0.238   0.752 -1.7181 -0.7071  0.2177
  608SOL     OW 1822   1.562   1.851   2.587 -0.6537 -0.0774  0.1077
  608SOL    HW1 1823   1.539   1.760   2.553 -0.6839 -0.8631  0.3387
  608SOL    HW2 1824   1.562   1.923   2.516 -1.1934  0.6134  0.1727
  609SOL     OW 1825   2.857   0.328   0.894  0.1651 -0.5855  0.6872
  609SOL    HW1 1826   2.885   0.231   0.916  0.5270  0.2057  0.9781
  609SOL    HW2 1827   2.875   0.344   0.792  0.6024 -0.6145 -4.7057
  610SOL     OW 1828   0.741   2.246   0.062 -0.2350  0.3673  0.0786
  610SOL    HW1 1829   0.781   2.339   0.053 -1.4790  1.9132  0.9958
  610SOL    HW2 1830   0.803   2.187   0.115  0.6109  2.0665  0.2358
  611SOL     OW 1831   1.877   1.164   0.483 -0.4559 -0.4540 -0.0984
  611SOL    HW1 1832   1.778   1.188   0.487  3.9700 -2.1595  1.3177
  611SOL    HW2 1833   1.897   1.084   0.424 -2.2536  1.0901 -0.2518
  612SOL     OW 1834   0.964   2.506   2.360  0.4305  0.0754  0.0512
  612SOL    HW1 1835   0.899   2.505   2.438  0.9633 -0.9010 -0.6156
  612SOL    HW2 1836   0.947   2.582   2.294 -1.6740  2.9399 -0.6748
  613SOL     OW 1837   1.336   1.636   0.563 -0.1709 -0.5551 -0.0854
  613SOL    HW1 1838   1.387   1.626   0.643 -1.2817 -0.9930 -2.3726
  613SOL    HW2 1839   1.327   1.736   0.534  1.5278  0.4825 -3.0264
  614SOL     OW 1840   2.588   2.240   1.615  0.3326  0.1078 -0.0685
  614SOL    HW1 1841   2.534   2.259   1.525 -0.1910  2.4706 -1.6823
  614SOL    HW2 1842   2.550   2.297   1.690 -1.9779 -2.8792  0.8295
  615SOL     OW 1843   2.374   1.344   2.999 -0.2223  1.1407  0.3174
  615SOL    HW1 1844   2.459   1.367   2.952  0.2519 -0.3832  3.1254
  615SOL    HW2 1845   2.289   1.334   2.944 -1.8248  0.0452 -1.3950
  616SOL     OW 1846   1.557   0.108   0.807 -0.0765  0.2194 -0.7541
  616SOL    HW1 1847   1.575   0.023   0.866  2.2168 -0.5628  2.5607
  616SOL    HW2 1848   1.646   0.147   0.776  0.8751 -0.3588 -0.9383
  617SOL     OW 1849   0.400   1.460   2.674  0.3290 -0.0991  0.0217
  617SOL    HW1 1850   0.448   1.542   2.636 -1.8550  1.3507 -1.3604
  617SOL    HW2 1851   0.300   1.460   2.647 -3.9950  1.1116 -0.6285
  618SOL     OW 1852   0.383   0.725   1.770 -0.5661 -0.2291  0.2337
  618SOL    HW1 1853   0.414   0.726   1.672  1.9949  1.8673 -0.9121
  618SOL    HW2 1854   0.446   0.770   1.833 -0.9423  0.4673  2.8976
  619SOL     OW 1855   2.613   0.891   1.718  0.1072  0.2848  0.1336
  619SOL    HW1 1856   2.700   0.837   1.704 -0.1802  2.0843  0.9334
  619SOL    HW2 1857   2.547   0.821   1.750  0.4605 -0.7619 -0.1734
  620SOL     OW 1858   1.992   1.132   2.990 -0.4793 -0.0523  0.1693
  620SOL    HW1 1859   1.927   1.060   2.965  2.0827  1.1077  1.8672
  620SOL    HW2 1860   1.977   1.154   0.012  2.6622  0.4400 -0.8526
  621SOL     OW 1861   2.236   2.891   1.020 -0.2228  0.4283 -0.2678
  621SOL    HW1 1862   2.267   2.907   1.122  2.3447  0.6328  3.3419
  621SOL    HW2 1863   2.186   2.967   0.975  0.7835 -2.8511 -0.5178
  622SOL     OW 1864   1.355   0.763   2.006 -0.2798 -0.3610  0.8007
  622SOL    HW1 1865   1.366   0.809   1.913 -0.5889 -1.4726  1.1685
  622SOL    HW2 1866   1.311   0.820   2.079 -0.9755 -1.3406  2.2481
  623SOL     OW 1867   1.053   0.780   2.616 -0.4443 -0.0009 -0.2520
  623SOL    HW1 1868   0.958   0.802   2.618  1.5103 -3.4594  0.2043
  623SOL    HW2 1869   1.118   0.858   2.615  2.3523 -3.4139 -0.5448
  624SOL     OW 1870   1.798   0.149   0.680 -0.2646  0.4733 -0.0700
  624SOL    HW1 1871   1.796   0.163   0.577  0.3351  0.7393 -4.0185
  624SOL    HW2 1872   1.866   0.077   0.707 -1.9448 -0.2348  2.1178
  625SOL     OW 1873   0.597   1.502   0.508  0.7320  0.6560 -0.5743
  625SOL    HW1 1874   0.605   1.435   0.581 -0.6304 -1.4574  1.2527
  625SOL    HW2 1875   0.572   1.599   0.532 -1.3151 -3.3057 -0.5887
  626SOL     OW 1876   1.705   1.181   2.251 -0.3641 -0.5473  0.4520
  626SOL    HW1 1877   1.721   1.187   2.150  1.9987 -0.0135  2.7771
  626SOL    HW2 1878   1.620   1.227   2.280 -2.8831 -0.8274 -0.9602
  627SOL     OW 1879   0.637   0.283   1.792  0.8397 -0.3943 -0.4647
  627SOL    HW1 1880   0.682   0.237   1.874  0.3656 -1.8155 -0.1579
  627SOL    HW2 1881   0.533   0.259   1.794  0.4507 -1.1781 -1.2471
  628SOL     OW 1882   2.063   0.697   2.372 -0.0472 -0.3651  0.0665
  628SOL    HW1 1883   2.122   0.640   2.314  0.5492 -0.6801  2.7207
  628SOL    HW2 1884   2.025   0.775   2.313 -1.2108  1.2109 -0.4144
  629SOL     OW 1885   0.786   1.470   0.059 -0.0206  0.2340  0.2012
  629SOL    HW1 1886   0.775   1.547   0.125 -1.6969  1.8697 -0.0699
  629SOL    HW2 1887   0.778   1.499   3.033 -1.6351  0.3773  0.5058
  630SOL     OW 1888   0.876   0.399   2.162  0.4557 -0.0359 -0.2390
  630SOL    HW1 1889   0.883   0.490   2.118 -0.6304  0.4123  1.1668
  630SOL    HW2 1890   0.790   0.398   2.218 -2.6792 -0.1214  1.3623
  631SOL     OW 1891   2.666   0.902   0.681  0.2998 -0.4244 -0.2626
  631SOL    HW1 1892   2.639   0.949   0.769  0.5863 -0.4015 -0.5902
  631SOL    HW2 1893   2.583   0.859   0.633  0.4709  0.2904  0.1108
  632SOL     OW 1894   2.481   1.526   0.718  0.1539  0.3760  0.0463
  632SOL    HW1 1895   2.552   1.463   0.751 -0.8662 -1.7761 -1.5729
  632SOL    HW2 1896   2.527   1.606   0.670  1.2165  1.2406 -0.2286
  633SOL     OW 1897   0.748   1.242   0.900 -0.0941 -0.4224  0.4269
  633SOL    HW1 1898   0.672   1.195   0.943  1.9642 -1.3784 -1.4047
  633SOL    HW2 1899   0.757   1.217   0.802 -2.6754  1.1501  0.1132
  634SOL     OW 1900   1.583   2.987   0.603 -0.3550  0.7539 -0.2865
  634SOL    HW1 1901   1.555   3.002   0.508  2.0900 -1.5344  2.4496
  634SOL    HW2 1902   1.565   3.071   0.663  0.7223 -0.9465 -0.7227
  635SOL     OW 1903   1.838   0.617   1.430 -0.1879 -0.5353 -1.2184
  635SOL    HW1 1904   1.931   0.661   1.426  0.9156  1.4530 -0.7186
  635SOL    HW2 1905   1.766   0.692   1.428 -1.2005  1.4126  1.3993
  636SOL     OW 1906   1.077   0.582   0.641 -0.0887  0.4942  0.5643
  636SOL    HW1 1907   1.063   0.543   0.737 -0.7812  1.2064  3.3383
  636SOL    HW2 1908   1.063   0.506   0.570  1.9488 -0.4776 -1.1538
  637SOL     OW 1909   1.637   1.986   3.046  0.6016  0.2961 -0.2607
  637SOL    HW1 1910   1.575   1.939   2.975 -0.3646 -2.1154  0.4194
  637SOL    HW2 1911   1.683   2.062   3.005  0.7973 -0.7950  0.8369
  638SOL     OW 1912   0.925   2.927   2.741  0.5208  0.5698  0.0504
  638SOL    HW1 1913   0.983   2.913   2.821 -4.1183  0.2212 -1.4179
  638SOL    HW2 1914   0.865   3.007   2.759  1.4280 -1.0525 -0.6987
  639SOL     OW 1915   1.254   2.018   1.487 -0.1630 -0.4376 -0.1860
  639SOL    HW1 1916   1.187   1.939   1.482 -0.2250 -2.9360 -0.3686
  639SOL    HW2 1917   1.274   2.049   1.391 -1.0992 -0.2308  0.4838
  640SOL     OW 1918   0.526   0.147   2.901  0.4632  0.2480 -0.1515
  640SOL    HW1 1919   0.461   0.161   2.975  0.3784  0.8917 -1.5141
  640SOL    HW2 1920   0.477   0.093   2.828 -2.8685 -1.1054  1.1473
  641SOL     OW 1921   0.433   0.723   0.259  0.0082 -0.0623  0.3678
  641SOL    HW1 1922   0.343   0.759   0.284  0.3364 -0.5051 -1.0000
  641SOL    HW2 1923   0.507   0.763   0.313  0.4477 -1.4952 -3.6767
  642SOL     OW 1924   0.422   1.589   1.202 -0.1400  0.4365  0.0791
  642SOL    HW1 1925   0.497   1.618   1.266  1.7677  3.6899  1.5585
  642SOL    HW2 1926   0.446   1.522   1.127 -2.1477  0.5382 -2.7665
  643SOL     OW 1927   0.650   1.884   2.585 -0.4360 -0.4539  1.0809
  643SOL    HW1 1928   0.574   1.953   2.583  0.7472 -1.7927  1.3140
  643SOL    HW2 1929   0.666   1.856   2.680 -3.9233 -2.3008  0.7627
  644SOL     OW 1930   1.597   2.370   0.210  0.1873  0.6564 -0.0288
  644SOL    HW1 1931   1.688   2.400   0.163 -0.6016  3.0633 -2.0674
  644SOL    HW2 1932   1.536   2.451   0.231 -0.8692 -0.5235 -1.8277
  645SOL     OW 1933   1.786   2.130   1.631 -0.4547 -0.3635  0.4009
  645SOL    HW1 1934   1.699   2.122   1.682  2.7662  1.6705 -0.4811
  645SOL    HW2 1935   1.835   2.204   1.685  2.4274 -1.0234 -1.7989
  646SOL     OW 1936   0.673   2.648   0.235 -0.2521  0.4036  0.3850
  646SOL    HW1 1937   0.719   2.613   0.151 -0.1934  1.0936 -2.1997
  646SOL    HW2 1938   0.604   2.722   0.208 -0.4169 -0.4722  0.3291
  647SOL     OW 1939   0.102   3.020   2.160  0.0131 -0.1666  0.2670
  647SOL    HW1 1940   0.095   3.067   2.251  0.0973  1.2413 -0.4480
  647SOL    HW2 1941   0.186   3.049   2.109 -0.3543 -3.4774  0.4655
  648SOL     OW 1942   2.906   1.018   0.945  0.1262 -0.4146 -0.0799
  648SOL    HW1 1943   2.895   0.915   0.946  1.3488  0.2482  1.4468
  648SOL    HW2 1944   2.815   1.059   0.941  2.8985 -3.6640  2.4553
  649SOL     OW 1945   2.015   2.695   2.575  0.4444  0.2984  0.1124
  649SOL    HW1 1946   1.922   2.718   2.618 -1.3292  0.2898  0.4425
  649SOL    HW2 1947   2.052   2.783   2.538  1.4229 -1.6031 -0.6075
  650SOL     OW 1948   2.275   1.501   1.982 -0.1940 -0.3005  0.1454
  650SOL    HW1 1949   2.245   1.464   1.890 -1.1359  3.3432 -0.9160
  650SOL    HW2 1950   2.375   1.493   1.985  0.9920  0.9248 -3.7344
  651SOL     OW 1951   1.069   1.968   2.679 -0.0059 -0.2527 -0.2281
  651SOL    HW1 1952   1.129   2.050   2.691  0.2848  2.1104  0.1735
  651SOL    HW2 1953   1.084   1.901   2.760  3.2770  2.2120  3.4210
  652SOL     OW 1954   0.620   0.015   2.555  0.1793 -0.0609 -0.3354
  652SOL    HW1 1955   0.531   0.030   2.605 -0.4126 -0.5842 -2.1139
  652SOL    HW2 1956   0.680   0.093   2.573 -2.6779 -0.0850 -1.3570
  653SOL     OW 1957   2.401   1.720   0.946  0.3474 -0.0623  0.0152
  653SOL    HW1 1958   2.421   1.624   0.951 -2.9505  2.6830  1.2404
  653SOL    HW2 1959   2.365   1.760   1.033 -1.0598  2.2641 -0.4608
  654SOL     OW 1960   2.429   2.997   2.023 -0.0047 -0.2613 -0.4116
  654SOL    HW1 1961   2.361   2.976   2.097  3.1157 -0.6276  2.3542
  654SOL    HW2 1962   2.415   0.015   1.983 -1.8885 -0.3247 -1.0954
  655SOL     OW 1963   2.552   2.251   1.174  0.8538  0.1551  0.2058
  655SOL    HW1 1964   2.594   2.321   1.118 -0.2421  0.1814  1.5571
  655SOL    HW2 1965   2.474   2.207   1.124 -0.1670  0.3375  0.7565
  656SOL     OW 1966   2.613   1.740   2.798  0.1693  0.1218  0.1966
  656SOL    HW1 1967   2.661   1.771   2.712  2.5290 -2.2667  1.5674
  656SOL    HW2 1968   2.604   1.817   2.861 -1.9688 -2.5804  0.1505
  657SOL     OW 1969   0.054   1.172   0.544 -0.0983  0.1289 -0.0813
  657SOL    HW1 1970   3.063   1.132   0.472 -1.5170  1.0767  0.4358
  657SOL    HW2 1971   0.022   1.159   0.640  1.6489 -1.4671 -2.1111
  658SOL     OW 1972   1.546   1.589   1.403  1.3570 -0.0042  0.2366
  658SOL    HW1 1973   1.519   1.560   1.310 -1.0332 -2.5429 -2.5226
  658SOL    HW2 1974   1.472   1.646   1.446 -0.6586  1.0988  2.6005
  659SOL     OW 1975   1.124   2.970   1.277  0.2549 -0.0250  0.1286
  659SOL    HW1 1976   1.090   3.005   1.189  0.6916 -0.4476 -0.1128
  659SOL    HW2 1977   1.091   3.026   1.357  0.1769 -1.2735  0.0931
  660SOL     OW 1978   2.211   0.591   0.814  0.0007  0.0525  0.0204
  660SOL    HW1 1979   2.153   0.616   0.733  0.5911 -4.4644 -0.6123
  660SOL    HW2 1980   2.153   0.554   0.889 -0.0433  0.1744 -0.0474
  661SOL     OW 1981   0.469   1.710   0.216  0.1753 -0.0736  0.5144
  661SOL    HW1 1982   0.560   1.662   0.225  0.3897 -0.4001 -2.1462
  661SOL    HW2 1983   0.481   1.810   0.196 -0.8660  2.2765 -0.4443
  662SOL     OW 1984   1.988   0.885   1.944 -0.4497  0.6650 -0.6508
  662SOL    HW1 1985   2.007   0.786   1.967  1.6349  1.0420  1.3513
  662SOL    HW2 1986   1.999   0.896   1.842  0.1723  1.3168 -0.7429
  663SOL     OW 1987   1.938   1.328   1.144 -0.2726 -0.4582 -0.1449
  663SOL    HW1 1988   1.898   1.256   1.078  1.0759 -0.4562  0.6784
  663SOL    HW2 1989   2.022   1.369   1.107  1.0395 -2.1631  2.7259
  664SOL     OW 1990   0.206   0.062   1.012 -0.4288  0.1067 -0.1115
  664SOL    HW1 1991   0.265   3.057   0.973 -2.5991 -1.5689 -2.6087
  664SOL    HW2 1992   0.185   0.055   1.112  0.7377 -0.8204 -0.9313
  665SOL     OW 1993   1.450   0.406   2.744  0.4295  0.4037  0.6340
  665SOL    HW1 1994   1.437   0.447   2.837 -0.3758  0.6958  0.8286
  665SOL    HW2 1995   1.424   0.479   2.676  1.5664 -0.3655  1.3553
  666SOL     OW 1996   0.506   0.533   2.118 -0.0972 -0.0395  0.7135
  666SOL    HW1 1997   0.444   0.477   2.057 -0.0123  2.4456  1.7678
  666SOL    HW2 1998   0.571   0.579   2.059 -0.2499 -0.5532 -1.8510
  667SOL     OW 1999   1.744   1.696   1.724  0.3580 -0.2396  0.1531
  667SOL    HW1 2000   1.833   1.730   1.760 -1.8058 -0.0285 -1.5231
  667SOL    HW2 2001   1.670   1.767   1.740 -0.3052  0.6397 -1.2242
  668SOL     OW 2002   0.246   1.286   2.327 -0.3369  0.4740  0.4869
  668SOL    HW1 2003   0.203   1.193   2.312 -0.4598 -2.3728  1.6978
  668SOL    HW2 2004   0.251   1.340   2.240 -0.8661  1.9416 -0.6204
  669SOL     OW 2005   2.572   2.515   3.001 -0.1340 -0.3642  0.0312
  669SOL    HW1 2006   2.581   2.497   2.898 -0.7564  4.8489 -0.6821
  669SOL    HW2 2007   2.608   2.606   3.017  0.8653  0.9739  1.9340
  670SOL     OW 2008   2.650   1.231   1.981 -0.1132  0.0633  0.4499
  670SOL    HW1 2009   2.597   1.203   1.894 -0.9827 -2.2908 -3.7670
  670SOL    HW2 2010   2.610   1.178   2.060 -1.1440  0.5472 -0.5904
  671SOL     OW 2011   2.563   1.729   0.521  0.0280  0.1052  0.4454
  671SOL    HW1 2012   2.517   1.800   0.570  0.3744 -1.3345 -2.0641
  671SOL    HW2 2013   2.665   1.747   0.500  1.6869 -0.0377 -1.8114
  672SOL     OW 2014   1.394   1.227   1.909  0.2171  0.6622 -0.6809
  672SOL    HW1 2015   1.465   1.184   1.848 -2.0901 -1.2267 -0.1627
  672SOL    HW2 2016   1.313   1.160   1.917  0.9620 -1.7487  0.5778
  673SOL     OW 2017   2.712   1.972   1.623 -0.1465  0.1460 -0.3814
  673SOL    HW1 2018   2.681   2.064   1.599  1.3815 -1.2999 -0.7898
  673SOL    HW2 2019   2.766   1.932   1.544  1.4147  1.0798 -0.0592
  674SOL     OW 2020   1.379   1.754   1.543 -0.5108  0.1751  0.0422
  674SOL    HW1 2021   1.426   1.757   1.628  0.0743 -3.6789 -1.7216
  674SOL    HW2 2022   1.284   1.793   1.557 -0.8467  0.8413  2.1867
  675SOL     OW 2023   0.048   0.729   1.219  0.1076 -0.0192 -0.3792
  675SOL    HW1 2024   0.141   0.699   1.186  1.0671  1.7301  1.1872
  675SOL    HW2 2025   3.052   0.651   1.208 -2.3789  1.6499  2.0556
  676SOL     OW 2026   2.878   0.971   1.510  0.1737 -0.3152  0.1047
  676SOL    HW1 2027   2.853   0.888   1.566 -0.4962 -0.1848 -0.3242
  676SOL    HW2 2028   2.868   0.943   1.413 -0.5010 -1.7089  1.3306
  677SOL     OW 2029   2.000   1.238   2.567 -0.0861 -0.1319  0.0716
  677SOL    HW1 2030   1.984   1.211   2.470 -1.5540 -0.9374 -1.0608
  677SOL    HW2 2031   2.099   1.267   2.581  0.5027  1.3035  0.5689
  678SOL     OW 2032   2.669   1.458   1.226 -0.0126 -0.0311  0.6808
  678SOL    HW1 2033   2.723   1.406   1.156  0.4116 -1.8412 -0.9831
  678SOL    HW2 2034   2.733   1.529   1.267 -0.3441  0.6923  1.8563
  679SOL     OW 2035   0.265   2.595   0.242  0.1802  0.0762  0.2234
  679SOL    HW1 2036   0.209   2.553   0.167  1.4000  1.5560 -0.9531
  679SOL    HW2 2037   0.332   2.525   0.271 -4.7849  0.7122  3.1129
  680SOL     OW 2038   0.177   1.670   1.192  0.4164  0.3277 -0.1446
  680SOL    HW1 2039   0.160   1.754   1.252  2.1174 -0.4198  1.0903
  680SOL    HW2 2040   0.267   1.626   1.203  0.3536 -2.4919  1.1278
  681SOL     OW 2041   1.095   0.058   0.844  0.0520 -0.0138 -0.1508
  681SOL    HW1 2042   1.137   0.116   0.774 -0.4284 -3.3915  1.5960
  681SOL    HW2 2043   1.104   3.030   0.816  0.3390  0.9336  1.0336
  682SOL     OW 2044   1.872   2.632   1.581 -0.2472  0.0455  0.0984
  682SOL    HW1 2045   1.965   2.588   1.570  1.7794 -1.0438 -0.7468
  682SOL    HW2 2046   1.851   2.697   1.501  0.1613  1.3952 -0.7377
  683SOL     OW 2047   2.518   1.486   1.678 -0.1083 -0.0889 -0.3594
  683SOL    HW1 2048   2.469   1.529   1.605  1.5184  0.1368  2.8162
  683SOL    HW2 2049   2.610   1.458   1.644 -2.6758  2.3610  0.4960
  684SOL     OW 2050   0.039   1.595   1.980  0.2079  0.6682  0.1729
  684SOL    HW1 2051   3.016   1.568   1.950 -0.2157 -1.3927 -0.6583
  684SOL    HW2 2052   0.056   1.695   1.983 -1.5338 -0.7572 -0.3775
  685SOL     OW 2053   1.578   1.474   0.192  0.2432  0.3537 -0.1368
  685SOL    HW1 2054   1.620   1.529   0.266  0.9321  1.3206 -1.2144
  685SOL    HW2 2055   1.648   1.421   0.139 -0.0970  0.1782  4.7401
  686SOL     OW 2056   2.832   0.736   1.667  0.3479 -0.4436  0.1045
  686SOL    HW1 2057   2.932   0.750   1.689  2.4411 -1.3385  1.5095
  686SOL    HW2 2058   2.813   0.672   1.591 -1.6085 -1.9901  3.0684
  687SOL     OW 2059   1.607   0.263   2.576  0.1263 -0.2581  1.0371
  687SOL    HW1 2060   1.595   0.166   2.598  0.4335 -2.2053 -2.7937
  687SOL    HW2 2061   1.554   0.323   2.638  2.5676  0.0933  0.8540
  688SOL     OW 2062   1.092   1.644   2.365  0.7335  0.8433  0.1190
  688SOL    HW1 2063   1.003   1.631   2.313 -0.4877 -1.7797 -1.8832
  688SOL    HW2 2064   1.109   1.740   2.387 -1.9234 -0.4857  2.1124
  689SOL     OW 2065   2.245   1.377   1.728  0.1247  0.2359 -0.2232
  689SOL    HW1 2066   2.211   1.281   1.740 -1.7531 -2.4394  0.2462
  689SOL    HW2 2067   2.346   1.387   1.708  0.8321  1.0066  1.6565
  690SOL     OW 2068   2.211   2.255   1.551 -0.2287  0.5861 -0.0112
  690SOL    HW1 2069   2.228   2.194   1.633  1.7210 -0.8418 -0.9477
  690SOL    HW2 2070   2.136   2.207   1.497 -2.2323 -1.0899 -0.2215
  691SOL     OW 2071   0.225   1.592   0.606  0.1045 -0.1863  0.1184
  691SOL    HW1 2072   0.250   1.659   0.534  0.7242  0.0812 -2.0634
  691SOL    HW2 2073   0.268   1.619   0.696 -0.8499 -0.7890  0.3387
  692SOL     OW 2074   2.760   2.861   2.532  0.0397 -0.3710 -0.3584
  692SOL    HW1 2075   2.755   2.926   2.613 -0.3583  0.2551 -2.1137
  692SOL    HW2 2076   2.686   2.880   2.463 -1.4709 -1.3993  1.1501
  693SOL     OW 2077   0.228   1.420   2.075  0.0590  0.2667  0.4975
  693SOL    HW1 2078   0.231   1.319   2.051 -1.4001 -0.7103  1.0124
  693SOL    HW2 2079   0.143   1.465   2.029 -0.8005 -2.6338 -2.1393
  694SOL     OW 2080   2.448   0.407   2.041 -0.1734 -0.5101  0.3004
  694SOL    HW1 2081   2.543   0.437   2.062 -1.5933 -1.3745  1.4495
  694SOL    HW2 2082   2.407   0.451   1.957 -2.2343  1.5811  0.4805
  695SOL     OW 2083   1.199   0.909   2.226 -0.4926 -0.2838  0.2965
  695SOL    HW1 2084   1.262   0.952   2.290  0.6293 -2.1187  1.3474
  695SOL    HW2 2085   1.175   0.975   2.148 -3.5073  3.9109  0.6458
  696SOL     OW 2086   2.282   2.949   1.549 -0.1375 -0.2508 -0.0951
  696SOL    HW1 2087   2.232   3.013   1.610  0.1597 -1.6896 -2.0370
  696SOL    HW2 2088   2.277   2.984   1.451  0.9552  2.3170 -0.8238
  697SOL     OW 2089   0.951   0.231   1.984 -0.0247  0.3553  0.1270
  697SOL    HW1 2090   0.937   0.297   2.060  0.5721 -1.6239  0.5500
  697SOL    HW2 2091   0.883   0.155   1.991 -1.5292 -1.8785  1.5740
  698SOL     OW 2092   2.363   1.724   2.687  0.1284  0.4276 -0.4166
  698SOL    HW1 2093   2.350   1.644   2.624 -1.2746  2.4389 -1.4278
  698SOL    HW2 2094   2.461   1.721   2.716 -0.2538 -0.7492  0.1457
  699SOL     OW 2095   2.090   0.606   0.351  0.0291  0.2761 -0.1955
  699SOL    HW1 2096   2.024   0.649   0.286  0.0458 -0.1212  0.4664
  699SOL    HW2 2097   2.127   0.671   0.419 -1.0124  0.9703  0.5974
  700SOL     OW 2098   1.299   2.863   0.847  0.0723 -0.4527  0.2803
  700SOL    HW1 2099   1.377   2.922   0.879  2.0684 -1.4892  3.1009
  700SOL    HW2 2100   1.273   2.802   0.924 -1.7061  0.7151  1.5589
  701SOL     OW 2101   2.899   0.520   0.445  0.0209 -0.4945  0.0252
  701SOL    HW1 2102   2.903   0.596   0.372 -1.9132 -1.0967  1.8286
  701SOL    HW2 2103   2.970   0.540   0.512 -0.1461  1.9599 -1.5915
  702SOL     OW 2104   1.804   2.793   1.386 -0.1359  0.5118  0.1714
  702SOL    HW1 2105   1.728   2.738   1.346  0.6107 -0.3760  0.6074
  702SOL    HW2 2106   1.775   2.885   1.401 -1.0004 -1.2416 -0.4056
  703SOL     OW 2107   2.959   0.518   1.073 -0.5861 -0.1487 -0.5188
  703SOL    HW1 2108   2.908   0.453   1.012 -1.9892  0.9171 -0.0938
  703SOL    HW2 2109   3.003   0.455   1.145  0.1471 -0.2841  2.5888
  704SOL     OW 2110   0.860   2.622   1.393 -0.0263  0.2935  0.7175
  704SOL    HW1 2111   0.870   2.520   1.384 -1.2027 -1.9269 -2.7226
  704SOL    HW2 2112   0.783   2.659   1.332 -1.0260 -0.6419  0.3268
  705SOL     OW 2113   0.158   1.861   0.028  0.3092  0.2766 -0.1909
  705SOL    HW1 2114   0.190   1.764   0.044 -1.0089  2.4394  0.0785
  705SOL    HW2 2115   0.148   1.910   0.117 -0.4299  2.5974 -0.2390
  706SOL     OW 2116   0.079   0.468   0.280  0.0097 -0.1014 -0.4321
  706SOL    HW1 2117   0.182   0.470   0.300 -1.8915 -0.9032 -2.4838
  706SOL    HW2 2118   0.045   0.379   0.303  1.5601  0.7589  0.7165
  707SOL     OW 2119   1.566   2.849   2.205 -0.9642 -0.2890 -0.0394
  707SOL    HW1 2120   1.621   2.790   2.139  0.5958 -1.5852  1.1335
  707SOL    HW2 2121   1.545   2.936   2.166  0.2266  0.4867  0.8523
  708SOL     OW 2122   0.204   0.189   1.536  0.5559  0.3602 -0.6716
  708SOL    HW1 2123   0.219   0.142   1.447  0.2121  0.9313 -0.3354
  708SOL    HW2 2124   0.216   0.116   1.610  0.5881  0.1239 -0.6388
  709SOL     OW 2125   0.032   0.779   1.685 -0.0316  0.0699  0.5627
  709SOL    HW1 2126   0.086   0.838   1.624  1.0610  0.5707  0.0960
  709SOL    HW2 2127   0.059   0.791   1.781  2.0191 -0.6677  0.8241
  710SOL     OW 2128   0.331   0.807   0.817  0.2400  0.1663  0.2561
  710SOL    HW1 2129   0.303   0.792   0.717 -2.8895 -0.6916 -0.4312
  710SOL    HW2 2130   0.316   0.904   0.843  1.0426  1.1905 -2.7435
  711SOL     OW 2131   2.405   2.730   1.927  0.2521 -1.1774  0.4100
  711SOL    HW1 2132   2.365   2.667   1.987  2.9844  0.6018 -3.0100
  711SOL    HW2 2133   2.413   2.827   1.960  2.6029  1.3142 -0.8373
  712SOL     OW 2134   0.213   2.674   2.383 -0.5087  0.7635  0.1486
  712SOL    HW1 2135   0.148   2.751   2.355 -2.4937  1.4811 -0.0673
  712SOL    HW2 2136   0.177   2.635   2.468 -3.5599  1.2913  3.0664
  713SOL     OW 2137   2.579   0.377   0.659 -0.2777 -0.2769  0.1606
  713SOL    HW1 2138   2.506   0.343   0.596 -2.4610 -0.2640 -0.7800
  713SOL    HW2 2139   2.667   0.334   0.628 -0.2384  1.4297 -0.4325
  714SOL     OW 2140   1.877   1.799   2.515  0.3721  0.0651  0.1575
  714SOL    HW1 2141   1.779   1.776   2.508  0.8294  0.5674  0.6673
  714SOL    HW2 2142   1.879   1.903   2.506  1.8841  1.4121 -1.1293
  715SOL     OW 2143   3.063   0.441   0.732  0.3108  0.1922 -0.2585
  715SOL    HW1 2144   0.002   0.443   0.833 -1.0678  1.5520 -1.9780
  715SOL    HW2 2145   3.060   0.537   0.696 -1.7533  1.1648  3.0457
  716SOL     OW 2146   0.664   0.563   1.719 -0.1114  0.2540  0.5084
  716SOL    HW1 2147   0.571   0.572   1.674  0.9702 -1.8485  1.5029
  716SOL    HW2 2148   0.683   0.464   1.748  2.0758  2.0849  3.3124
  717SOL     OW 2149   0.842   0.637   2.411 -0.0503 -0.0254  0.3398
  717SOL    HW1 2150   0.773   0.563   2.392  1.2594  0.0165  0.3291
  717SOL    HW2 2151   0.912   0.603   2.474  0.6911 -0.0501 -0.5934
  718SOL     OW 2152   1.216   0.019   0.445  0.3735  0.2631  0.2322
  718SOL    HW1 2153   1.206   0.098   0.513  0.6819 -0.4348  1.9888
  718SOL    HW2 2154   1.155   0.044   0.367  3.6840  1.0548  0.5122
  719SOL     OW 2155   2.907   2.455   2.863 -0.0237  0.4577 -0.1755
  719SOL    HW1 2156   2.815   2.466   2.821 -2.2439 -2.7104  0.3849
  719SOL    HW2 2157   2.922   2.357   2.881 -0.5436  0.7697  0.2747
  720SOL     OW 2158   1.233   0.650   1.700 -0.6705  0.3746  0.1941
  720SOL    HW1 2159   1.337   0.648   1.689 -0.8082 -1.1740 -0.1672
  720SOL    HW2 2160   1.203   0.628   1.791  0.1011  0.6059 -1.5323
  721SOL     OW 2161   2.990   2.884   0.912  0.2865  0.5050 -0.0876
  721SOL    HW1 2162   2.931   2.861   0.833 -2.0462  0.3853  1.0177
  721SOL    HW2 2163   0.004   2.825   0.912 -1.8027 -0.4027 -1.0862
  722SOL     OW 2164   0.843   1.120   2.876 -0.1268  0.1355 -0.0057
  722SOL    HW1 2165   0.896   1.206   2.859 -1.8647 -1.5557  1.4451
  722SOL    HW2 2166   0.751   1.150   2.904  2.3557  0.7181  0.0302
  723SOL     OW 2167   2.192   0.993   1.267  0.4506 -0.4088  0.6920
  723SOL    HW1 2168   2.276   1.041   1.234 -0.0974 -1.4854 -0.7654
  723SOL    HW2 2169   2.131   1.058   1.316 -1.8895  2.8795 -1.1511
  724SOL     OW 2170   0.963   1.762   0.290 -0.2353 -0.3628 -0.2502
  724SOL    HW1 2171   1.009   1.716   0.214 -0.2812  0.4494  0.4356
  724SOL    HW2 2172   1.028   1.783   0.368  1.7495  1.6682  1.1676
  725SOL     OW 2173   0.244   0.764   1.482  0.3027 -0.4173  0.0795
  725SOL    HW1 2174   0.303   0.689   1.517 -0.9904 -0.1847 -1.6398
  725SOL    HW2 2175   0.226   0.757   1.382  0.7115  0.6488  0.7462
  726SOL     OW 2176   2.428   0.987   3.004 -0.2021  0.1190  0.1783
  726SOL    HW1 2177   2.382   1.034   2.923 -0.2467  2.2716 -1.6119
  726SOL    HW2 2178   2.527   0.964   2.991  0.7576 -0.5621  3.0760
  727SOL     OW 2179   2.082   0.965   2.610  0.2825  0.3412  0.0940
  727SOL    HW1 2180   2.050   1.059   2.592 -1.5107  0.4098  0.2600
  727SOL    HW2 2181   2.153   0.946   2.540 -1.0549  0.7985  2.9414
  728SOL     OW 2182   1.895   2.195   1.213  0.4018  0.4310  0.4610
  728SOL    HW1 2183   1.806   2.245   1.186 -0.7150  0.4516  0.0415
  728SOL    HW2 2184   1.928   2.122   1.156  1.3399 -0.3111 -0.7883
  729SOL     OW 2185   1.716   0.932   1.958 -0.4394  0.0255  0.5435
  729SOL    HW1 2186   1.816   0.924   2.001  0.8970  0.5489  0.5596
  729SOL    HW2 2187   1.707   1.032   1.946 -0.8225  0.2613  0.2464
  730SOL     OW 2188   1.119   0.449   0.889 -0.5579 -0.0358  0.7613
  730SOL    HW1 2189   1.131   0.543   0.925 -0.1548 -1.2334  1.9637
  730SOL    HW2 2190   1.213   0.398   0.888  2.7497  0.2495  2.9122
  731SOL     OW 2191   0.754   0.692   2.835 -0.1187 -0.1337 -0.1931
  731SOL    HW1 2192   0.797   0.777   2.794  0.0938 -0.5014 -0.9325
  731SOL    HW2 2193   0.694   0.725   2.908  0.4592 -0.1264 -0.9834
  732SOL     OW 2194   0.572   0.864   0.458 -0.6658  0.0378  0.2547
  732SOL    HW1 2195   0.649   0.862   0.525  1.8944 -0.1032  0.7345
  732SOL    HW2 2196   0.560   0.951   0.416 -3.5398 -2.2734  0.9758
  733SOL     OW 2197   1.342   1.639   2.207  0.0842  0.3832  0.5918
  733SOL    HW1 2198   1.253   1.651   2.254 -2.9073  1.0422 -0.4493
  733SOL    HW2 2199   1.335   1.552   2.153 -1.8179  0.2349 -0.2584
  734SOL     OW 2200   0.364   2.275   3.009  0.4043 -0.0376 -0.1136
  734SOL    HW1 2201   0.351   2.186   2.959 -2.0572 -1.0262  1.8304
  734SOL    HW2 2202   0.442   2.326   2.974  0.9483 -1.3764 -2.4663
  735SOL     OW 2203   2.414   0.417   0.864  0.3298  0.0861 -0.2685
  735SOL    HW1 2204   2.341   0.482   0.843 -0.7430  1.8062  0.7680
  735SOL    HW2 2205   2.476   0.409   0.788 -0.1659  0.6208  2.5930
  736SOL     OW 2206   2.176   1.501   2.371 -0.1078  0.0547 -0.0901
  736SOL    HW1 2207   2.234   1.511   2.454  1.3828  1.7627 -0.5509
  736SOL    HW2 2208   2.155   1.600   2.342 -0.8727  1.0362 -1.4989
  737SOL     OW 2209   0.151   0.767   0.331 -0.3426  0.1985  0.1841
  737SOL    HW1 2210   0.095   0.840   0.284 -2.0434  1.4821 -1.4182
  737SOL    HW2 2211   0.126   0.674   0.299  0.9365 -1.5692  0.6282
  738SOL     OW 2212   0.985   1.921   1.249 -0.0623  0.1346  0.4216
  738SOL    HW1 2213   1.004   1.868   1.336 -0.8883  0.8358  2.2007
  738SOL    HW2 2214   0.891   1.958   1.252 -0.4012  0.4148  0.0657
  739SOL     OW 2215   1.352   2.821   1.976 -0.5126 -0.3450 -0.3843
  739SOL    HW1 2216   1.364   2.740   1.913 -2.3212  0.6650  0.5440
  739SOL    HW2 2217   1.344   2.904   1.916  0.4821  0.9858 -0.9873
  740SOL     OW 2218   2.118   2.530   1.572  0.2315 -0.2093  0.3626
  740SOL    HW1 2219   2.147   2.432   1.588 -0.0601 -0.2037  1.9059
  740SOL    HW2 2220   2.177   2.604   1.611 -0.4341 -0.6619  0.6737
  741SOL     OW 2221   2.336   0.548   0.153 -0.2370 -0.2054  0.5402
  741SOL    HW1 2222   2.396   0.481   0.108  3.3503  0.4896  0.4358
  741SOL    HW2 2223   2.252   0.512   0.197 -1.8450  1.0920 -1.4138
  742SOL     OW 2224   1.295   2.472   3.016  0.5946  0.0268 -0.1090
  742SOL    HW1 2225   1.334   2.375   3.002  3.5814  0.8877  0.7232
  742SOL    HW2 2226   1.305   2.522   2.923  1.1550  1.6078 -1.6641
  743SOL     OW 2227   2.516   1.106   2.177 -0.1168  0.3304  0.1319
  743SOL    HW1 2228   2.576   1.059   2.245 -1.6492  2.8057 -0.1870
  743SOL    HW2 2229   2.446   1.152   2.233  1.1906  0.6029 -3.3339
  744SOL     OW 2230   2.790   0.164   0.299 -0.2269 -0.0801  0.4159
  744SOL    HW1 2231   2.757   0.207   0.215 -1.3355 -0.5902 -2.0122
  744SOL    HW2 2232   2.727   0.091   0.333  0.2427 -1.1482 -1.5029
  745SOL     OW 2233   2.215   1.476   1.471  0.5706  0.8265  0.4914
  745SOL    HW1 2234   2.207   1.439   1.564  0.5316  0.4832 -0.8356
  745SOL    HW2 2235   2.313   1.492   1.456 -2.9578  1.2461  2.0121
  746SOL     OW 2236   0.928   1.583   0.712  0.0471  0.7666 -0.0788
  746SOL    HW1 2237   0.996   1.558   0.784 -0.1861  0.9855 -0.1780
  746SOL    HW2 2238   0.945   1.522   0.632  0.2537  0.2793 -1.1269
  747SOL     OW 2239   1.051   1.541   1.630  0.5044 -0.6907 -0.5056
  747SOL    HW1 2240   1.122   1.473   1.602  0.4219  1.9531  2.4873
  747SOL    HW2 2241   0.965   1.494   1.664  0.7163  0.2186  1.6799
  748SOL     OW 2242   0.227   3.005   2.981 -0.8399  0.3376 -0.3894
  748SOL    HW1 2243   0.226   3.064   2.900  0.1557 -2.0529  0.3756
  748SOL    HW2 2244   0.182   3.050   3.058  3.0549 -0.9325  1.3409
  749SOL     OW 2245   0.068   0.961   2.822  0.8087 -0.2055 -0.1692
  749SOL    HW1 2246   0.006   1.028   2.873 -0.1331  1.0875  2.8056
  749SOL    HW2 2247   0.076   0.993   2.724  0.7475  2.2622  1.3399
  750SOL     OW 2248   1.568   1.158   1.707  0.0996 -0.4750  0.1295
  750SOL    HW1 2249   1.535   1.232   1.643  0.1144 -0.3403 -1.1993
  750SOL    HW2 2250   1.672   1.145   1.704  1.5165  0.2105 -0.2332
  751SOL     OW 2251   2.797   0.775   0.315  0.0078  0.3589  0.3830
  751SOL    HW1 2252   2.824   0.794   0.219  0.8307 -1.8485 -1.6568
  751SOL    HW2 2253   2.697   0.772   0.319 -2.6897  0.1426  0.3713
  752SOL     OW 2254   2.558   2.667   1.008  0.5830 -0.2330  0.1260
  752SOL    HW1 2255   2.607   2.754   1.004 -0.2899 -1.1935 -1.0951
  752SOL    HW2 2256   2.623   2.586   1.004 -1.0847  0.7476 -0.6325
  753SOL     OW 2257   0.877   2.360   1.129 -0.3584  0.1297 -0.0350
  753SOL    HW1 2258   0.872   2.353   1.231  1.7878 -1.2783 -2.7669
  753SOL    HW2 2259   0.795   2.306   1.092 -3.1556  0.4843 -0.0696
  754SOL     OW 2260   2.912   2.733   2.163  0.6808 -0.2763 -0.4021
  754SOL    HW1 2261   2.926   2.784   2.251  0.2187 -2.6978  0.6253
  754SOL    HW2 2262   2.943   2.797   2.088  1.2688 -1.9718 -2.3984
  755SOL     OW 2263   2.486   0.651   3.006  0.0163 -0.3367  0.2344
  755SOL    HW1 2264   2.554   0.637   0.007 -2.5662  2.2364 -3.1709
  755SOL    HW2 2265   2.393   0.652   3.048 -0.3153  1.0057  2.4533
  756SOL     OW 2266   1.848   2.401   0.097  0.2505 -1.1111  0.3985
  756SOL    HW1 2267   1.911   2.473   0.061  0.0669 -0.4255  1.2098
  756SOL    HW2 2268   1.859   2.319   0.034  0.3344  1.1368 -1.4172
  757SOL     OW 2269   2.415   0.273   0.469 -0.3390 -0.1760 -0.7610
  757SOL    HW1 2270   2.327   0.275   0.520  0.4191  1.4459  1.8102
  757SOL    HW2 2271   2.407   0.221   0.382  0.3633  0.0471  1.2596
  758SOL     OW 2272   2.056   0.919   1.669  0.1340 -0.0179  0.6462
  758SOL    HW1 2273   1.978   0.869   1.638  2.8418 -0.2179  0.3886
  758SOL    HW2 2274   2.139   0.858   1.667  0.2934 -0.2235  2.3655
  759SOL     OW 2275   2.674   0.676   1.216 -0.0108 -0.3126 -0.0616
  759SOL    HW1 2276   2.579   0.716   1.232 -2.8319 -0.8006  1.6248
  759SOL    HW2 2277   2.668   0.588   1.160 -0.2809  0.7048 -0.8706
  760SOL     OW 2278   0.480   1.194   1.459  0.2075 -0.0107  0.1151
  760SOL    HW1 2279   0.551   1.145   1.407  1.0868  3.0328 -0.6559
  760SOL    HW2 2280   0.410   1.124   1.491 -0.5641  1.0889 -1.5739
  761SOL     OW 2281   1.139   0.591   0.015 -0.3881  0.0457 -0.2435
  761SOL    HW1 2282   1.044   0.574   3.055 -0.0857  0.7799 -1.3690
  761SOL    HW2 2283   1.182   0.654   3.017 -0.6794 -2.0220  0.6948
  762SOL     OW 2284   1.096   1.805   1.512 -0.2120  0.2046 -0.0223
  762SOL    HW1 2285   1.080   1.702   1.515  1.2948 -3.3277 -0.4080
  762SOL    HW2 2286   1.021   1.850   1.569  3.6123  0.1438  1.8426
  763SOL     OW 2287   0.947   0.681   1.360  0.0779  0.5256  0.0247
  763SOL    HW1 2288   0.995   0.752   1.303  0.8173  0.6293 -0.5522
  763SOL    HW2 2289   0.891   0.621   1.300  1.3127 -0.3264  0.1474
  764SOL     OW 2290   0.230   2.779   2.851 -0.2562  0.5954 -0.1899
  764SOL    HW1 2291   0.255   2.864   2.902 -2.7432  1.3677 -0.0601
  764SOL    HW2 2292   0.153   2.729   2.897 -1.8763 -2.0922  1.2527
  765SOL     OW 2293   0.587   2.906   1.690 -0.6520 -0.3298  0.4896
  765SOL    HW1 2294   0.529   2.918   1.772  2.3129  1.7286  0.9399
  765SOL    HW2 2295   0.564   2.976   1.617 -2.3030 -0.2570 -2.2243
  766SOL     OW 2296   2.645   1.860   2.252  0.0596  0.2368  0.4805
  766SOL    HW1 2297   2.551   1.873   2.223  1.7833 -0.9699 -2.0859
  766SOL    HW2 2298   2.710   1.927   2.212 -0.6812 -0.7635 -0.5726
  767SOL     OW 2299   1.447   1.279   2.337 -0.5148  0.0089  0.1087
  767SOL    HW1 2300   1.420   1.337   2.416 -0.1463 -0.7005 -1.6789
  767SOL    HW2 2301   1.388   1.306   2.259  1.3681  1.7726  2.9492
  768SOL     OW 2302   1.683   1.638   0.391 -0.2378 -0.0172 -0.3832
  768SOL    HW1 2303   1.708   1.638   0.494  3.1839 -0.0673 -1.0496
  768SOL    HW2 2304   1.763   1.669   0.338  0.5210  0.1291 -0.4767
  769SOL     OW 2305   0.498   1.480   0.781 -0.6142  0.2830 -0.3293
  769SOL    HW1 2306   0.460   1.562   0.730  0.1392  2.6567 -0.5530
  769SOL    HW2 2307   0.586   1.509   0.831  1.4474  0.2895  0.8485
  770SOL     OW 2308   1.385   1.030   2.408  0.5480  0.2314  0.3946
  770SOL    HW1 2309   1.454   0.977   2.351  1.4254 -1.5504 -0.3731
  770SOL    HW2 2310   1.401   1.130   2.395 -0.3354  2.5294 -1.0870
  771SOL     OW 2311   2.664   0.069   2.331  0.3176  0.1604  0.4472
  771SOL    HW1 2312   2.606   0.141   2.284 -0.2015 -1.0437 -1.8373
  771SOL    HW2 2313   2.614   3.058   2.365 -0.6460 -1.5457 -0.5155
  772SOL     OW 2314   2.417   1.929   2.156 -0.6812 -0.2633 -0.1540
  772SOL    HW1 2315   2.364   1.866   2.097  2.2152  1.6114  1.1416
  772SOL    HW2 2316   2.435   2.015   2.107 -4.1293 -1.0434 -0.9504
  773SOL     OW 2317   0.824   1.421   1.719 -0.5362  0.3642  0.2341
  773SOL    HW1 2318   0.786   1.346   1.781  2.5003  0.9496 -1.9365
  773SOL    HW2 2319   0.764   1.442   1.647  2.5420 -2.1335  0.3998
  774SOL     OW 2320   1.457   0.804   2.920  0.7296  0.4788  0.1569
  774SOL    HW1 2321   1.360   0.785   2.895 -1.3539 -1.8579  3.0943
  774SOL    HW2 2322   1.518   0.801   2.836  1.5014  0.1303 -3.1174
  775SOL     OW 2323   1.431   2.251   3.050  0.5946  0.0542 -0.4695
  775SOL    HW1 2324   1.489   2.304   0.043  2.2370 -1.6620 -0.7517
  775SOL    HW2 2325   1.416   2.156   0.018  3.7663 -0.2016  1.2952
  776SOL     OW 2326   0.043   1.121   1.561 -0.0814  0.6579 -0.0212
  776SOL    HW1 2327   3.033   1.063   1.540  0.7061 -1.0339 -0.9056
  776SOL    HW2 2328   0.014   1.189   1.629  2.3886  1.6848  1.3640
  777SOL     OW 2329   2.528   2.179   2.070 -0.5961  0.0538  0.5238
  777SOL    HW1 2330   2.586   2.252   2.110 -0.5599 -1.4015  1.1098
  777SOL    HW2 2331   2.571   2.126   1.998 -0.8771  0.8013  1.3310
  778SOL     OW 2332   1.714   1.212   1.960 -0.4718  0.6922 -0.2550
  778SOL    HW1 2333   1.669   1.273   1.891 -0.8332 -1.5300  0.6789
  778SOL    HW2 2334   1.818   1.217   1.957  0.9138 -1.3323  2.5683
  779SOL     OW 2335   2.701   1.124   0.189 -0.2336  0.0695 -0.3480
  779SOL    HW1 2336   2.685   1.060   0.112  0.9420  1.1240  2.2396
  779SOL    HW2 2337   2.613   1.169   0.209  0.5353 -0.5058 -0.7664
  780SOL     OW 2338   2.111   2.941   2.502  0.1363 -0.3764 -0.3484
  780SOL    HW1 2339   2.009   2.976   2.495 -0.3357  3.9129  1.1723
  780SOL    HW2 2340   2.172   3.014   2.537  0.8508 -0.3209 -2.5063
  781SOL     OW 2341   2.852   1.616   1.330  0.0179  0.0733 -0.1126
  781SOL    HW1 2342   2.897   1.639   1.241 -1.1578 -0.2761  3.7930
  781SOL    HW2 2343   2.922   1.575   1.391  0.5113 -0.6728 -1.2686
  782SOL     OW 2344   2.885   2.194   2.929  0.3222  0.5198  0.1077
  782SOL    HW1 2345   2.825   2.239   2.999  2.2065 -1.9259  1.4044
  782SOL    HW2 2346   2.827   2.137   2.865 -0.6870 -0.3585 -1.9161
  783SOL     OW 2347   0.727   1.508   0.904 -0.0821 -0.3435 -0.2182
  783SOL    HW1 2348   0.729   1.410   0.933 -0.3373 -1.0207  0.8073
  783SOL    HW2 2349   0.802   1.528   0.845 -3.5289  0.8837  1.9178
  784SOL     OW 2350   2.464   1.281   0.187 -0.1230  0.3649 -0.0954
  784SOL    HW1 2351   2.427   1.305   0.093 -3.6638 -0.6180 -0.2310
  784SOL    HW2 2352   2.470   1.367   0.238  0.2307  0.2827 -0.0169
  785SOL     OW 2353   2.099   2.602   0.412 -0.3307 -0.4684 -0.2011
  785SOL    HW1 2354   2.143   2.612   0.504  0.0104 -2.2770 -3.1950
  785SOL    HW2 2355   2.021   2.539   0.409  2.8481 -2.1584 -0.8790
  786SOL     OW 2356   0.593   2.202   2.737 -0.1748 -0.3733  0.1029
  786SOL    HW1 2357   0.535   2.186   2.654  1.9227  1.3393  1.4028
  786SOL    HW2 2358   0.687   2.175   2.717  0.6530 -0.5876 -1.4693
  787SOL     OW 2359   1.474   0.624   1.170 -0.8115 -0.9286  0.0628
  787SOL    HW1 2360   1.397   0.558   1.174  3.1605 -0.2256  0.2901
  787SOL    HW2 2361   1.509   0.632   1.070 -0.0967  1.8315 -4.5152
  788SOL     OW 2362   0.688   0.936   0.151 -0.1612 -0.2357 -0.0993
  788SOL    HW1 2363   0.678   0.910   0.054  2.7298 -0.6805 -0.8483
  788SOL    HW2 2364   0.605   0.977   0.185  0.9187  2.5541 -2.4198
  789SOL     OW 2365   2.808   1.873   1.398 -0.2957 -0.2656  0.3519
  789SOL    HW1 2366   2.821   1.772   1.388  0.9847  1.2954  0.5259
  789SOL    HW2 2367   2.729   1.910   1.342 -0.8556  0.2627 -0.3385
  790SOL     OW 2368   1.247   0.327   1.988  0.4589  0.1727 -0.1668
  790SOL    HW1 2369   1.296   0.308   2.075 -1.7559  0.9608 -1.4111
  790SOL    HW2 2370   1.170   0.266   1.980 -0.2229  1.3239  0.9367
  791SOL     OW 2371   1.111   0.365   0.191  0.2405  0.2099  0.5232
  791SOL    HW1 2372   1.034   0.306   0.159  0.1633 -1.2311 -1.2525
  791SOL    HW2 2373   1.130   0.439   0.115 -0.7685 -0.9331 -1.5650
  792SOL     OW 2374   1.412   3.050   1.581 -0.3890  0.5814 -1.0673
  792SOL    HW1 2375   1.393   2.954   1.559 -1.2373  2.6746 -0.1179
  792SOL    HW2 2376   1.449   0.025   1.493 -1.2762  1.7440 -1.8840
  793SOL     OW 2377   0.821   3.039   0.808 -0.3717  0.4835 -0.0523
  793SOL    HW1 2378   0.890   0.033   0.767  2.3343  0.8820 -0.2140
  793SOL    HW2 2379   0.867   2.993   0.886  0.4502  0.2575  0.6967
  794SOL     OW 2380   0.518   1.178   2.102  0.0569 -0.4299 -0.7327
  794SOL    HW1 2381   0.553   1.242   2.176  0.0069  2.8530 -0.1939
  794SOL    HW2 2382   0.418   1.194   2.083 -2.3813  1.2029  1.6482
  795SOL     OW 2383   3.050   1.495   2.349  0.1527 -0.6137  0.0907
  795SOL    HW1 2384   3.057   1.589   2.317 -1.5536 -1.4216  1.7223
  795SOL    HW2 2385   2.981   1.446   2.291 -0.4107  0.4976 -1.4887
  796SOL     OW 2386   1.983   1.224   1.938  0.3564 -0.3642 -0.4097
  796SOL    HW1 2387   2.046   1.194   1.863  0.6333 -1.6111 -0.0774
  796SOL    HW2 2388   2.032   1.255   2.023 -2.4865 -0.0698 -3.7796
  797SOL     OW 2389   0.153   0.061   2.666 -0.3015 -0.6712 -0.1238
  797SOL    HW1 2390   0.140   0.045   2.566  1.0272  1.2965 -0.6664
  797SOL    HW2 2391   0.075   0.014   2.714  0.0660 -0.6695  1.2040
  798SOL     OW 2392   0.217   2.070   1.995  0.6493  0.3426  0.1324
  798SOL    HW1 2393   0.144   2.110   1.937 -0.6683 -2.3935 -0.4472
  798SOL    HW2 2394   0.308   2.084   1.955 -1.7999 -2.4461  1.6160
  799SOL     OW 2395   2.668   2.260   0.048 -0.2919 -0.1998 -0.0605
  799SOL    HW1 2396   2.676   2.249   0.149  0.9876  1.9534 -1.2935
  799SOL    HW2 2397   2.621   2.347   0.019  1.7850 -2.2732  1.8003
  800SOL     OW 2398   1.125   1.506   0.888 -0.4649  0.3005  0.2715
  800SOL    HW1 2399   1.135   1.579   0.957  2.4514 -0.9588  0.5376
  800SOL    HW2 2400   1.213   1.500   0.834 -1.9502 -0.9235 -1.0532
  801SOL     OW 2401   2.431   0.776   0.591  0.5535  0.3734  0.0522
  801SOL    HW1 2402   2.334   0.743   0.608 -2.4518  0.7627  0.1301
  801SOL    HW2 2403   2.456   0.760   0.494 -0.1697  0.3170  0.2124
  802SOL     OW 2404   2.492   1.501   0.356  0.1786  0.1877 -0.0433
  802SOL    HW1 2405   2.488   1.568   0.277 -2.3567  3.0506  0.2324
  802SOL    HW2 2406   2.529   1.549   0.436 -1.1323  0.5700  0.5485
  803SOL     OW 2407   1.289   1.795   3.019 -0.0922  0.0695  0.0523
  803SOL    HW1 2408   1.336   1.818   2.935 -1.4128  0.4772  2.0734
  803SOL    HW2 2409   1.289   1.874   0.015  0.0592 -0.2611  1.5516
  804SOL     OW 2410   1.956   2.094   0.252  0.4454 -0.2066  0.2014
  804SOL    HW1 2411   1.851   2.096   0.253  2.1516 -0.6863  0.3164
  804SOL    HW2 2412   1.986   1.999   0.220 -0.7043 -0.0837 -0.2420
  805SOL     OW 2413   2.671   1.496   2.693  0.1336  0.0796  0.3579
  805SOL    HW1 2414   2.602   1.559   2.729  1.8630 -1.2475 -0.9523
  805SOL    HW2 2415   2.751   1.545   2.655 -2.0670  1.0484  2.7783
  806SOL     OW 2416   0.532   0.597   0.546 -0.1471 -0.5329 -0.1530
  806SOL    HW1 2417   0.602   0.554   0.489  0.7555 -0.7316  0.6949
  806SOL    HW2 2418   0.523   0.697   0.515  0.5314 -1.8582 -0.7790
  807SOL     OW 2419   2.247   1.269   2.671  0.0080  0.2182 -0.1509
  807SOL    HW1 2420   2.181   1.309   2.737  4.7293 -3.7230 -2.7761
  807SOL    HW2 2421   2.271   1.176   2.696 -1.5811  4.5020  3.4419
  808SOL     OW 2422   0.167   1.396   0.440 -0.2237  0.0799 -0.1010
  808SOL    HW1 2423   0.118   1.319   0.487  0.4319 -0.3791 -2.2374
  808SOL    HW2 2424   0.205   1.469   0.506  3.0084 -2.3895  1.5460
  809SOL     OW 2425   2.513   0.772   2.727 -0.6796 -0.0470  0.2712
  809SOL    HW1 2426   2.494   0.747   2.825 -1.2154  1.8900  1.3007
  809SOL    HW2 2427   2.476   0.864   2.703 -1.4981  1.3253  0.6993
  810SOL     OW 2428   1.187   1.074   0.400 -0.0771  0.8182 -0.2670
  810SOL    HW1 2429   1.267   1.049   0.342 -0.4085 -0.8824 -0.0395
  810SOL    HW2 2430   1.106   1.067   0.336 -0.1334 -0.2101 -0.3435
  811SOL     OW 2431   1.575   2.344   0.918  0.3409 -0.1793  0.2661
  811SOL    HW1 2432   1.507   2.423   0.919  1.3615 -0.6643  2.3304
  811SOL    HW2 2433   1.564   2.282   0.839 -1.1431 -1.7331 -1.1279
  812SOL     OW 2434   0.337   2.618   1.429 -0.1046  0.2714 -0.0116
  812SOL    HW1 2435   0.327   2.516   1.419  1.2245 -3.2826  1.0353
  812SOL    HW2 2436   0.432   2.648   1.451  1.6321 -0.2132  1.9732
  813SOL     OW 2437   1.069   0.059   1.775 -0.3000  0.0227 -0.7408
  813SOL    HW1 2438   0.978   0.013   1.766  2.7791  2.1871 -0.3900
  813SOL    HW2 2439   1.052   0.146   1.827  2.1450  0.6141  1.5707
  814SOL     OW 2440   1.268   2.964   2.427  0.3572  0.4855 -0.8090
  814SOL    HW1 2441   1.346   2.901   2.430  0.3040  0.6728 -3.4733
  814SOL    HW2 2442   1.285   3.046   2.368  3.8230  0.2678  1.5719
  815SOL     OW 2443   0.379   0.215   1.833 -0.2158  0.4258  0.3738
  815SOL    HW1 2444   0.317   0.161   1.769  1.0065  1.5167 -0.8607
  815SOL    HW2 2445   0.343   0.310   1.852  1.0471  1.3122 -2.7899
  816SOL     OW 2446   2.508   0.357   0.073  0.2829  0.5890 -0.0385
  816SOL    HW1 2447   2.578   0.423   0.099 -1.5042 -0.0315 -0.4112
  816SOL    HW2 2448   2.513   0.349   3.041 -1.0352 -1.9683  1.0659
  817SOL     OW 2449   1.863   0.362   2.616  0.1018 -0.0598 -0.1882
  817SOL    HW1 2450   1.864   0.464   2.600 -0.4521 -2.2108  1.1598
  817SOL    HW2 2451   1.770   0.319   2.601 -0.2776 -3.9467  0.9146
  818SOL     OW 2452   2.127   0.365   0.219 -0.4838  0.1627 -0.2908
  818SOL    HW1 2453   2.135   0.272   0.259 -0.4637  0.0917  0.8864
  818SOL    HW2 2454   2.105   0.438   0.292  3.1914  3.7480 -1.3781
  819SOL     OW 2455   2.255   1.581   0.026 -0.3031  0.0704 -0.0359
  819SOL    HW1 2456   2.340   1.626   0.068  4.2001  0.0410 -1.1363
  819SOL    HW2 2457   2.273   1.488   3.054 -0.2447  0.9822  1.7410
  820SOL     OW 2458   3.019   2.090   0.108  0.3452 -0.1448 -0.4986
  820SOL    HW1 2459   3.004   2.080   0.012  2.2027 -0.3922  1.7821
  820SOL    HW2 2460   2.943   2.050   0.162 -1.7991  1.1674  0.2154
  821SOL     OW 2461   3.001   2.783   1.204 -0.1487 -0.1700  0.3618
  821SOL    HW1 2462   2.963   2.806   1.295 -0.8241 -1.0113  0.2292
  821SOL    HW2 2463   2.994   2.869   1.147  1.7061 -0.2594  1.8883
  822SOL     OW 2464   2.748   2.601   2.498  0.0617 -0.1116  0.2991
  822SOL    HW1 2465   2.732   2.696   2.531  0.7292 -0.6722 -0.5784
  822SOL    HW2 2466   2.666   2.555   2.458 -0.8424 -0.2506  1.3615
  823SOL     OW 2467   1.564   0.284   2.312 -0.6211 -0.4245 -0.2654
  823SOL    HW1 2468   1.468   0.254   2.292 -2.5506  1.6910  1.9536
  823SOL    HW2 2469   1.567   0.283   2.416  0.6777  0.3097 -1.5115
  824SOL     OW 2470   2.446   1.607   1.425 -0.2140 -0.0965  0.1676
  824SOL    HW1 2471   2.462   1.705   1.445 -1.3670 -2.5755  0.5576
  824SOL    HW2 2472   2.523   1.563   1.374  0.9771 -4.0811 -0.8399
  825SOL     OW 2473   2.797   2.104   2.316 -0.0242  0.0513 -0.0276
  825SOL    HW1 2474   2.869   2.109   2.385 -0.3576  0.9246  0.6026
  825SOL    HW2 2475   2.794   2.195   2.269 -0.9423  1.4398  1.4400
  826SOL     OW 2476   2.616   1.018   2.405  0.2720  0.0638 -0.1748
  826SOL    HW1 2477   2.593   1.066   2.492  1.7883 -0.7513 -2.1060
  826SOL    HW2 2478   2.675   0.933   2.414  1.5749  0.6019  0.2847
  827SOL     OW 2479   2.516   2.544   1.481  0.2794 -0.4803  0.3005
  827SOL    HW1 2480   2.471   2.455   1.472  0.6772 -0.5022  2.7755
  827SOL    HW2 2481   2.466   2.591   1.557 -0.7712  0.7553 -0.1115
  828SOL     OW 2482   2.954   2.790   1.465 -0.2288  0.7875  0.3318
  828SOL    HW1 2483   2.943   2.859   1.540 -0.0361 -0.0440  0.0428
  828SOL    HW2 2484   2.858   2.751   1.450 -1.6416  0.2918 -0.8508
  829SOL     OW 2485   1.711   2.202   2.406  0.0699  0.5063 -0.1372
  829SOL    HW1 2486   1.717   2.296   2.369 -2.5373  1.7688  0.1304
  829SOL    HW2 2487   1.684   2.198   2.505 -0.5750 -1.4990  1.0599
  830SOL     OW 2488   1.514   0.505   0.722 -0.0903  0.0657 -0.0536
  830SOL    HW1 2489   1.566   0.556   0.795  0.2789 -0.2935  0.8683
  830SOL    HW2 2490   1.583   0.475   0.649  0.5381  1.1032  1.7045
  831SOL     OW 2491   2.763   1.448   0.768 -0.0552 -0.1716 -0.1696
  831SOL    HW1 2492   2.831   1.411   0.834  1.7264  1.3216  0.2396
  831SOL    HW2 2493   2.780   1.406   0.678  1.8718  2.8224  2.2679
  832SOL     OW 2494   1.550   2.492   1.947 -0.1346 -0.0958 -0.2712
  832SOL    HW1 2495   1.473   2.533   1.895 -1.6698 -0.0448  0.9037
  832SOL    HW2 2496   1.629   2.464   1.885  1.4076  1.1769  1.9401
  833SOL     OW 2497   0.020   2.849   2.350  0.0497  0.3463  0.2138
  833SOL    HW1 2498   0.043   2.909   2.270  0.2331  0.3885 -1.3360
  833SOL    HW2 2499   0.040   2.900   2.434 -0.3462  0.5957  0.8168
  834SOL     OW 2500   0.994   0.861   1.180 -0.5954 -0.4749 -0.4197
  834SOL    HW1 2501   1.036   0.955   1.196  0.1923  1.8990  1.4397
  834SOL    HW2 2502   0.897   0.862   1.156 -0.2262 -2.9396 -0.7677
  835SOL     OW 2503   0.066   0.660   2.747 -0.0716  0.2906  0.0548
  835SOL    HW1 2504   0.038   0.563   2.772  0.8137 -4.7784  2.6690
  835SOL    HW2 2505   0.048   0.726   2.821  0.7456 -2.4330 -1.2617
  836SOL     OW 2506   1.192   2.316   1.118  0.8674 -0.2532  0.0318
  836SOL    HW1 2507   1.089   2.331   1.109 -3.3761 -1.0360  1.6514
  836SOL    HW2 2508   1.235   2.379   1.188 -1.2072  3.0329  2.7292
  837SOL     OW 2509   2.089   0.967   1.001  0.1528 -0.0041  0.0612
  837SOL    HW1 2510   2.109   1.047   0.939 -1.6524  1.1690  3.5451
  837SOL    HW2 2511   2.134   0.986   1.089  0.2177  1.4451 -1.5149
  838SOL     OW 2512   1.381   1.404   2.579 -0.5775  0.1545 -0.3389
  838SOL    HW1 2513   1.397   1.344   2.661  1.6704  0.0998  1.4987
  838SOL    HW2 2514   1.298   1.463   2.601  1.0622  0.3666 -0.7654
  839SOL     OW 2515   0.570   2.420   2.910  0.0264  0.4614 -0.0117
  839SOL    HW1 2516   0.579   2.366   2.822  1.6657 -0.8714 -1.1593
  839SOL    HW2 2517   0.662   2.430   2.949 -0.8853 -0.6167 -0.2585
  840SOL     OW 2518   0.457   2.662   2.989 -0.0364 -1.0244 -0.0296
  840SOL    HW1 2519   0.378   2.702   2.943  0.5798  1.1093 -0.9950
  840SOL    HW2 2520   0.456   2.563   2.964 -0.6392  3.6790 -0.0407
  841SOL     OW 2521   1.692   2.090   0.220 -0.1095  0.1554  0.2420
  841SOL    HW1 2522   1.668   2.041   0.134 -2.8235 -1.5187 -1.3781
  841SOL    HW2 2523   1.623   2.162   0.229 -1.3803  0.0184  0.6959
  842SOL     OW 2524   1.218   1.010   2.615 -0.2879 -0.4146  0.3233
  842SOL    HW1 2525   1.241   1.028   2.717  1.4606  1.0565  3.3665
  842SOL    HW2 2526   1.294   1.009   2.545 -0.3769  0.2907 -2.5358
  843SOL     OW 2527   1.550   2.692   0.713 -0.2209  0.0498 -0.1112
  843SOL    HW1 2528   1.591   2.647   0.629  1.9103 -1.1920 -1.7899
  843SOL    HW2 2529   1.533   2.788   0.701  1.5504 -3.1873 -1.2263
  844SOL     OW 2530   2.328   2.705   2.444  0.0410  0.5460  0.2135
  844SOL    HW1 2531   2.256   2.679   2.376 -0.7571 -1.2211 -1.5927
  844SOL    HW2 2532   2.294   2.710   2.538  0.6648 -3.0138 -1.9629
  845SOL     OW 2533   2.847   2.550   1.178 -0.1461  0.2939 -0.6968
  845SOL    HW1 2534   2.922   2.613   1.164 -0.1487  0.8446 -1.1766
  845SOL    HW2 2535   2.799   2.576   1.265  1.3663 -1.1871  0.4198
  846SOL     OW 2536   0.182   2.179   2.230 -0.0927 -0.6848  0.1741
  846SOL    HW1 2537   0.194   2.135   2.138 -0.6539 -1.9114  0.5171
  846SOL    HW2 2538   0.191   2.117   2.308 -0.7548 -2.4909 -0.0555
  847SOL     OW 2539   1.602   0.375   1.591 -0.3028 -0.7270 -0.0946
  847SOL    HW1 2540   1.567   0.346   1.500 -1.1777  0.9970 -1.6387
  847SOL    HW2 2541   1.684   0.312   1.614  3.3573 -0.9782 -1.6633
  848SOL     OW 2542   3.050   0.632   0.084 -0.1817  0.2010  0.0553
  848SOL    HW1 2543   0.032   0.555   0.119 -2.7527 -0.2736 -4.6866
  848SOL    HW2 2544   2.995   0.603   0.005  1.1277  0.2840  0.8414
  849SOL     OW 2545   0.918   0.507   2.972  0.3878 -0.4845  0.4658
  849SOL    HW1 2546   0.872   0.580   2.916  0.0184  0.3469 -1.3198
  849SOL    HW2 2547   0.846   0.458   3.032 -0.4050 -1.2751 -0.9810
  850SOL     OW 2548   0.435   2.730   1.073  0.0489 -0.1467  0.2063
  850SOL    HW1 2549   0.350   2.720   1.122 -0.5997 -0.2736 -1.4449
  850SOL    HW2 2550   0.415   2.788   0.991  0.2090  1.8406 -1.9193
  851SOL     OW 2551   1.992   0.295   2.402 -0.1869 -0.4682  0.6777
  851SOL    HW1 2552   1.993   0.381   2.341 -1.8735  3.7194 -1.3972
  851SOL    HW2 2553   1.952   0.316   2.491  1.2103  0.4915 -1.2682
  852SOL     OW 2554   1.632   1.633   2.249 -0.2241  0.3829 -0.9176
  852SOL    HW1 2555   1.632   1.623   2.355 -0.8762 -0.3671  2.3959
  852SOL    HW2 2556   1.544   1.595   2.212 -0.9200 -1.2087 -0.3296
  853SOL     OW 2557   2.975   2.713   0.529 -0.3673  0.2079 -0.0190
  853SOL    HW1 2558   3.029   2.636   0.570  4.2262 -1.3461  3.3551
  853SOL    HW2 2559   2.917   2.756   0.603 -2.3305 -1.6990  4.0025
  854SOL     OW 2560   2.265   0.207   0.975 -0.2374  0.4521 -0.0789
  854SOL    HW1 2561   2.218   0.141   0.912  0.0982 -2.5776 -0.5836
  854SOL    HW2 2562   2.292   0.288   0.930 -1.4864 -1.2044  0.6453
  855SOL     OW 2563   1.354   1.999   0.748  0.5006  0.2854 -0.1912
  855SOL    HW1 2564   1.293   1.959   0.677 -0.4900  1.8331  0.2914
  855SOL    HW2 2565   1.301   2.061   0.813  0.0598  1.3312  0.8259
  856SOL     OW 2566   2.607   0.466   0.366  0.6139  0.1936  0.1108
  856SOL    HW1 2567   2.539   0.391   0.391 -1.1810  0.4736  0.3368
  856SOL    HW2 2568   2.695   0.469   0.415 -4.0342 -1.2385  0.6896
  857SOL     OW 2569   1.768   2.851   1.787 -0.0103  0.2353 -0.2875
  857SOL    HW1 2570   1.770   2.823   1.883 -1.3176  0.2342 -1.1831
  857SOL    HW2 2571   1.787   2.775   1.722  0.1073  0.0871 -0.6769
  858SOL     OW 2572   2.423   2.306   1.398 -0.2377  0.4128  0.2258
  858SOL    HW1 2573   2.458   2.266   1.310 -2.6620  3.8107 -0.0103
  858SOL    HW2 2574   2.339   2.266   1.433  0.1321  1.8385 -0.1492
  859SOL     OW 2575   1.236   2.454   0.729 -0.0925 -0.1349  0.1254
  859SOL    HW1 2576   1.145   2.490   0.748  2.8860  2.1272  1.5261
  859SOL    HW2 2577   1.305   2.497   0.796  1.2995  0.0349  1.8944
  860SOL     OW 2578   2.260   2.339   0.109  0.1523 -0.3560 -0.4027
  860SOL    HW1 2579   2.266   2.439   0.121 -2.6417 -0.4598  2.6979
  860SOL    HW2 2580   2.264   2.293   0.204 -2.0716  1.5175 -0.4021
  861SOL     OW 2581   2.147   2.535   1.288 -0.0044  0.7978 -0.3538
  861SOL    HW1 2582   2.237   2.571   1.262  3.4722 -1.1093 -0.3101
  861SOL    HW2 2583   2.142   2.532   1.390  1.3010 -0.0460 -2.7218
  862SOL     OW 2584   1.849   3.022   2.514  0.2863  0.0591 -0.1714
  862SOL    HW1 2585   1.809   0.003   2.435  0.2717 -3.0912  0.9210
  862SOL    HW2 2586   1.786   3.034   2.598  0.5267 -0.0036  2.0807
  863SOL     OW 2587   0.536   0.231   0.332  0.4717 -0.6181 -0.3202
  863SOL    HW1 2588   0.561   0.175   0.413  0.1838 -0.7043 -1.1355
  863SOL    HW2 2589   0.488   0.166   0.263 -0.8351 -1.7636 -3.7052
  864SOL     OW 2590   2.627   2.616   1.828  0.2217  0.2325  0.6559
  864SOL    HW1 2591   2.681   2.661   1.751  2.0426  0.3597 -1.4123
  864SOL    HW2 2592   2.536   2.656   1.837  0.1897 -0.7097  1.3059
  865SOL     OW 2593   0.049   2.157   2.772  0.4729  0.3928 -0.1711
  865SOL    HW1 2594   0.131   2.153   2.828 -0.2382 -0.6744 -2.4464
  865SOL    HW2 2595   3.039   2.187   2.829 -1.0227  1.2350 -0.6540
  866SOL     OW 2596   2.527   0.327   2.864 -1.0265 -0.0208  0.4056
  866SOL    HW1 2597   2.598   0.392   2.832 -0.6717 -0.9389  0.7932
  866SOL    HW2 2598   2.439   0.371   2.830 -1.9336 -1.6976  0.6402
  867SOL     OW 2599   2.882   0.106   2.506 -0.4560 -0.4535  0.2925
  867SOL    HW1 2600   2.799   0.129   2.451  2.4436 -0.9808  1.6419
  867SOL    HW2 2601   2.864   0.030   2.570 -0.8109  1.1359  0.4469
  868SOL     OW 2602   0.951   2.546   0.675  0.3172  0.1961  0.0716
  868SOL    HW1 2603   0.891   2.548   0.757 -1.4361 -0.2039  1.5182
  868SOL    HW2 2604   0.987   2.639   0.644  0.9297  0.2238  0.2573
  869SOL     OW 2605   1.388   1.216   1.019  0.4532  0.4495  0.3159
  869SOL    HW1 2606   1.384   1.304   0.974  0.1036 -0.1066 -3.4880
  869SOL    HW2 2607   1.483   1.192   1.039  0.3645  1.0600 -1.4085
  870SOL     OW 2608   1.792   1.906   1.464 -0.2147  0.3760 -0.0819
  870SOL    HW1 2609   1.789   1.977   1.538 -1.3062  3.5374 -0.4951
  870SOL    HW2 2610   1.827   1.817   1.497  0.1865  1.6264 -2.3953
  871SOL     OW 2611   1.154   1.343   1.285 -0.1314 -0.2382 -0.9283
  871SOL    HW1 2612   1.229   1.410   1.247  1.5925  1.9363 -2.2056
  871SOL    HW2 2613   1.117   1.297   1.205  1.7954  1.4063  0.8683
  872SOL     OW 2614   1.169   0.668   1.020  0.1823 -0.6439  0.0773
  872SOL    HW1 2615   1.074   0.703   1.038  0.5035  2.7937 -0.8801
  872SOL    HW2 2616   1.224   0.736   0.976 -2.2073 -1.1252 -1.3181
  873SOL     OW 2617   1.652   0.792   2.557 -0.3761 -0.0618  0.3514
  873SOL    HW1 2618   1.642   0.866   2.625  0.7399 -2.4043  1.6528
  873SOL    HW2 2619   1.643   0.831   2.466  0.8178 -0.8579 -0.2654
  874SOL     OW 2620   0.373   1.172   1.204 -0.0253  0.0715  0.1489
  874SOL    HW1 2621   0.390   1.203   1.303  1.0223 -0.2179  0.1066
  874SOL    HW2 2622   0.363   1.261   1.148 -0.2300 -0.4257  1.1961
  875SOL     OW 2623   2.592   2.795   3.019  0.2846  0.2055  0.0085
  875SOL    HW1 2624   2.527   2.845   2.960 -2.1775  1.9443  0.2186
  875SOL    HW2 2625   2.688   2.800   2.983 -0.2697 -0.2396  1.9429
  876SOL     OW 2626   1.023   0.517   2.594 -0.0879 -0.0068 -0.1383
  876SOL    HW1 2627   1.026   0.453   2.671  0.2292 -1.4498  2.0381
  876SOL    HW2 2628   1.038   0.619   2.623 -0.3701  2.2778  2.0932
  877SOL     OW 2629   2.949   3.022   1.613  1.1195 -0.1448  0.4562
  877SOL    HW1 2630   2.933   0.006   1.697  2.1823  1.8037 -1.2636
  877SOL    HW2 2631   2.956   0.018   1.534  2.4279 -0.3356 -2.1297
  878SOL     OW 2632   1.904   2.343   2.759  0.2863 -0.2363  0.0278
  878SOL    HW1 2633   1.833   2.409   2.734  0.2248  0.4373  2.0337
  878SOL    HW2 2634   1.990   2.366   2.713  3.2834 -1.1987 -0.7739
  879SOL     OW 2635   2.235   1.776   2.002 -0.2040 -0.0178  0.2780
  879SOL    HW1 2636   2.162   1.805   1.941  0.1846  1.6205 -0.6139
  879SOL    HW2 2637   2.233   1.676   2.023 -1.1849  1.6613 -0.1396
  880SOL     OW 2638   0.731   0.846   1.102 -0.4133  0.2842 -0.0287
  880SOL    HW1 2639   0.706   0.826   1.198 -2.7128 -1.2233  1.9117
  880SOL    HW2 2640   0.672   0.793   1.039  0.6933  3.4023 -0.8247
  881SOL     OW 2641   1.093   1.648   0.072 -0.5583  0.3547  0.2495
  881SOL    HW1 2642   1.165   1.707   0.029  0.9160  1.8883  0.4068
  881SOL    HW2 2643   1.133   1.561   0.111 -0.4998 -2.4760 -0.5466
  882SOL     OW 2644   1.724   0.201   1.243 -0.4119 -0.0173  0.0481
  882SOL    HW1 2645   1.697   0.297   1.251  0.9013 -3.0885  0.6626
  882SOL    HW2 2646   1.791   0.186   1.168  2.8556  2.3667  0.9094
  883SOL     OW 2647   1.613   0.713   2.104 -0.0250 -0.0851 -0.2003
  883SOL    HW1 2648   1.512   0.696   2.085 -0.3037 -1.1927 -0.3719
  883SOL    HW2 2649   1.658   0.786   2.045 -0.1712  1.3650  3.2864
  884SOL     OW 2650   2.694   0.568   0.113 -0.1339 -0.1990 -0.3493
  884SOL    HW1 2651   2.785   0.602   0.083 -0.2820 -3.5502 -0.7810
  884SOL    HW2 2652   2.692   0.537   0.207 -0.4270  0.4755 -2.1231
  885SOL     OW 2653   1.195   2.190   0.867  0.4350 -0.2463 -0.2591
  885SOL    HW1 2654   1.220   2.265   0.801  0.0693  0.8441 -0.7346
  885SOL    HW2 2655   1.202   2.227   0.962 -0.2923  0.6729 -0.6006
  886SOL     OW 2656   1.398   1.241   2.791  0.1548  0.3384  0.0403
  886SOL    HW1 2657   1.496   1.250   2.807 -1.6541  0.1123  4.3325
  886SOL    HW2 2658   1.350   1.246   2.881 -0.4205  1.3895 -0.4242
  887SOL     OW 2659   1.862   0.242   1.651 -0.0064  0.0213 -0.5627
  887SOL    HW1 2660   1.832   0.273   1.746 -1.1041 -1.3625 -1.3006
  887SOL    HW2 2661   1.837   0.142   1.647 -0.3680 -2.0723  0.0855
  888SOL     OW 2662   2.867   1.546   1.862  0.2477 -0.6403  0.6211
  888SOL    HW1 2663   2.861   1.651   1.862 -2.3311  1.4595  1.1244
  888SOL    HW2 2664   2.808   1.507   1.791 -1.1651 -3.4534  0.1881
  889SOL     OW 2665   2.689   2.415   0.998 -0.5183  0.0752 -1.1619
  889SOL    HW1 2666   2.701   2.351   0.922  0.3038 -0.6085  1.1853
  889SOL    HW2 2667   2.773   2.426   1.056  3.2064  0.3704  0.0394
  890SOL     OW 2668   0.528   2.075   2.271  0.1936 -0.3926  0.3618
  890SOL    HW1 2669   0.617   2.089   2.223 -1.2697 -0.5830 -1.4391
  890SOL    HW2 2670   0.480   1.995   2.232  0.0029  1.6379 -1.5043
  891SOL     OW 2671   0.529   1.775   0.601 -0.0526 -0.4313  0.5781
  891SOL    HW1 2672   0.602   1.826   0.556 -0.0410 -1.8228 -2.8616
  891SOL    HW2 2673   0.444   1.783   0.544  2.1352 -1.6930 -0.3409
  892SOL     OW 2674   2.903   2.169   1.362  0.6525  0.7466  0.2823
  892SOL    HW1 2675   2.896   2.220   1.450 -1.6596 -0.0039 -0.8400
  892SOL    HW2 2676   2.858   2.076   1.370  2.4037 -0.3602  3.4124
  893SOL     OW 2677   0.064   0.363   1.685  0.1194  0.2279 -0.1297
  893SOL    HW1 2678   0.033   0.447   1.633  1.5683  2.0802  1.3080
  893SOL    HW2 2679   0.109   0.298   1.623 -2.4379  1.5343  0.4373
  894SOL     OW 2680   2.883   1.712   0.858 -0.0493 -0.4431 -0.3796
  894SOL    HW1 2681   2.937   1.726   0.771  0.3379  0.6886  1.6274
  894SOL    HW2 2682   2.827   1.630   0.851 -0.3774  0.4205  2.6419
  895SOL     OW 2683   1.434   2.351   1.531 -0.1133  0.1218  0.2248
  895SOL    HW1 2684   1.370   2.312   1.602  0.4588 -0.9689  3.1308
  895SOL    HW2 2685   1.498   2.279   1.494 -1.0016 -1.3679 -1.4020
  896SOL     OW 2686   0.597   0.284   1.236 -0.1058 -0.1179  0.5545
  896SOL    HW1 2687   0.558   0.361   1.174 -1.0259  0.9341 -2.1002
  896SOL    HW2 2688   0.569   0.299   1.329 -0.6974 -0.2276 -0.2392
  897SOL     OW 2689   1.203   1.057   1.174 -1.0769  0.0147 -0.1905
  897SOL    HW1 2690   1.268   1.101   1.105  3.6146  1.0620  0.0246
  897SOL    HW2 2691   1.250   1.042   1.258  2.2466  1.0927 -1.2341
  898SOL     OW 2692   0.787   0.178   1.600  0.2467 -1.0039  0.2058
  898SOL    HW1 2693   0.736   0.217   1.679  0.1231  0.5795  0.8684
  898SOL    HW2 2694   0.863   0.240   1.567  3.3064  3.9610 -0.7028
  899SOL     OW 2695   1.584   0.240   0.235 -0.6105  0.2273 -0.3315
  899SOL    HW1 2696   1.577   0.245   0.132  0.1541  0.9591  0.0113
  899SOL    HW2 2697   1.521   0.308   0.276 -0.2181  1.1815 -1.3478
  900SOL     OW 2698   0.636   0.439   2.326 -0.4952  0.2801  0.5399
  900SOL    HW1 2699   0.569   0.399   2.397 -2.4188 -2.9837  2.0280
  900SOL    HW2 2700   0.584   0.466   2.243  0.8638 -1.9577  0.3367
  901SOL     OW 2701   0.894   2.092   0.233  0.1428 -0.6062 -0.0511
  901SOL    HW1 2702   0.930   2.024   0.164  1.4184 -3.3398  0.6872
  901SOL    HW2 2703   0.956   2.113   0.316  1.0001  0.5012 -1.1684
  902SOL     OW 2704   1.817   0.348   0.927  0.1685 -0.2868 -0.4464
  902SOL    HW1 2705   1.800   0.325   0.832 -2.4803 -1.1457  1.8509
  902SOL    HW2 2706   1.841   0.260   0.973 -1.3140 -1.4370  1.3458
  903SOL     OW 2707   2.973   1.293   2.625  0.5870 -0.3677  0.5742
  903SOL    HW1 2708   2.942   1.389   2.643 -0.1437  0.8680  2.2716
  903SOL    HW2 2709   2.906   1.260   2.552 -1.0210  3.0669 -0.7293
  904SOL     OW 2710   1.627   1.268   0.485  0.3637  0.1722  0.2646
  904SOL    HW1 2711   1.615   1.366   0.482 -1.4007 -0.7826  1.9460
  904SOL    HW2 2712   1.570   1.227   0.557 -0.6430 -0.1270 -0.3008
  905SOL     OW 2713   1.945   2.669   1.174  0.1873 -0.0959 -0.0752
  905SOL    HW1 2714   1.927   2.765   1.205  0.7294 -2.8023 -3.5703
  905SOL    HW2 2715   2.035   2.641   1.212  1.9543 -0.1078 -1.5021
  906SOL     OW 2716   2.109   2.659   0.938 -0.6641  0.4461  0.3040
  906SOL    HW1 2717   2.020   2.645   0.991 -1.2993 -0.9532  1.4353
  906SOL    HW2 2718   2.148   2.752   0.962  1.0656  0.1103 -1.3649
  907SOL     OW 2719   1.960   0.985   0.308  0.1492 -0.3745 -0.4257
  907SOL    HW1 2720   2.038   0.977   0.367 -3.1906  0.7337 -2.1340
  907SOL    HW2 2721   1.951   0.905   0.244  1.4504 -2.5385 -0.9185
  908SOL     OW 2722   1.655   0.460   1.303  0.4308  0.1332  0.5216
  908SOL    HW1 2723   1.578   0.511   1.265  2.7842 -3.3212 -0.8875
  908SOL    HW2 2724   1.711   0.514   1.361 -2.8887 -2.5546  0.6848
  909SOL     OW 2725   2.371   2.928   0.728 -0.8136  0.2993 -0.3091
  909SOL    HW1 2726   2.420   2.984   0.800  1.6057  0.6068 -0.5607
  909SOL    HW2 2727   2.275   2.908   0.750  1.0293  1.4496  0.2036
  910SOL     OW 2728   2.315   0.729   2.037  0.2802  0.0153  0.3769
  910SOL    HW1 2729   2.244   0.660   2.052 -1.0762 -1.7754 -0.7335
  910SOL    HW2 2730   2.362   0.748   2.128  0.5345 -2.8086  3.1220
  911SOL     OW 2731   2.287   0.075   2.588  0.0541 -0.4294 -0.0339
  911SOL    HW1 2732   2.248   0.155   2.640  0.7483  2.6616  1.6039
  911SOL    HW2 2733   2.345   0.008   2.642 -0.3269 -0.4758 -0.6780
  912SOL     OW 2734   0.599   0.837   1.374  0.1733  1.1528  0.2439
  912SOL    HW1 2735   0.651   0.923   1.393  0.4250 -0.7176  1.1274
  912SOL    HW2 2736   0.510   0.857   1.334  0.2179 -3.9815  0.3584
  913SOL     OW 2737   3.010   2.344   1.175  0.6140 -0.0857 -0.2827
  913SOL    HW1 2738   2.948   2.426   1.183 -0.0652  2.0113 -0.9269
  913SOL    HW2 2739   2.982   2.272   1.244 -0.1326 -3.5279  0.0092
  914SOL     OW 2740   1.489   0.890   1.168  0.3471 -0.6589  0.0982
  914SOL    HW1 2741   1.448   0.926   1.254  1.6079  2.2256 -0.9915
  914SOL    HW2 2742   1.512   0.791   1.178 -1.9194  0.8568  0.3148
  915SOL     OW 2743   0.180   1.556   1.597  0.3465 -0.1703 -0.3316
  915SOL    HW1 2744   0.256   1.622   1.585 -0.5253  2.2622 -0.5858
  915SOL    HW2 2745   0.212   1.465   1.629 -0.4671 -0.7898  0.9600
  916SOL     OW 2746   2.032   2.268   0.857 -0.1070 -0.0111 -0.0716
  916SOL    HW1 2747   2.118   2.310   0.894 -1.2656  0.9594 -2.6361
  916SOL    HW2 2748   2.024   2.172   0.894  0.6849 -0.0255  1.8826
  917SOL     OW 2749   1.702   2.691   2.042 -0.2115 -0.1240 -0.4736
  917SOL    HW1 2750   1.799   2.662   2.061  1.0533  1.6417 -0.3848
  917SOL    HW2 2751   1.649   2.603   2.036  2.1836 -3.0886  0.9005
  918SOL     OW 2752   1.954   2.056   2.512 -0.2750  0.2528 -0.2309
  918SOL    HW1 2753   1.972   2.152   2.479 -1.7112  3.9414  0.2300
  918SOL    HW2 2754   2.048   2.026   2.541  0.3273  1.9418 -0.3071
  919SOL     OW 2755   0.876   0.279   1.204  0.0279  0.3340 -0.1339
  919SOL    HW1 2756   0.779   0.252   1.198 -2.8752 -1.5398 -1.0473
  919SOL    HW2 2757   0.907   0.284   1.300  2.6775  2.4879 -0.1928
  920SOL     OW 2758   2.992   0.540   2.099  0.0281 -0.2702 -0.0007
  920SOL    HW1 2759   3.026   0.442   2.093 -0.3470  0.0123 -0.5686
  920SOL    HW2 2760   3.014   0.579   2.189  0.3567 -1.0079 -2.1683
  921SOL     OW 2761   2.736   1.175   1.585 -0.4278 -0.3957 -0.8063
  921SOL    HW1 2762   2.793   1.096   1.566 -0.9980  3.1905  0.1581
  921SOL    HW2 2763   2.662   1.149   1.650  0.3633  0.3999 -1.3566
  922SOL     OW 2764   2.707   2.187   0.800 -0.1637 -0.3563 -0.3429
  922SOL    HW1 2765   2.613   2.144   0.809  1.6692  1.3339  0.3453
  922SOL    HW2 2766   2.723   2.225   0.706 -1.9477 -0.7972  0.6944
  923SOL     OW 2767   0.247   2.205   0.489 -0.0327 -0.3488  0.1866
  923SOL    HW1 2768   0.204   2.129   0.437 -2.1706 -0.5811 -0.6957
  923SOL    HW2 2769   0.347   2.209   0.477  0.3670  0.9771  1.8348
  924SOL     OW 2770   0.984   1.365   2.849 -0.4795  0.7030  0.2135
  924SOL    HW1 2771   0.915   1.432   2.849  1.5180 -0.1520  0.6210
  924SOL    HW2 2772   1.026   1.360   2.759 -1.4709 -1.2607  1.3445
  925SOL     OW 2773   2.992   1.369   0.912 -0.0216 -0.0535  0.8005
  925SOL    HW1 2774   3.059   1.398   0.983  0.7935 -1.4190 -0.1577
  925SOL    HW2 2775   3.038   1.292   0.859  1.7413  0.3951 -0.9237
  926SOL     OW 2776   2.988   0.074   0.942 -0.9533 -0.4578  0.1233
  926SOL    HW1 2777   0.013   0.105   0.957 -1.6031  0.3820 -0.3690
  926SOL    HW2 2778   3.000   3.046   0.916  0.1192  1.4005  0.0520
  927SOL     OW 2779   0.451   2.059   2.524 -0.3546  0.5649 -0.7847
  927SOL    HW1 2780   0.352   2.076   2.509 -0.1080 -0.6217 -0.8924
  927SOL    HW2 2781   0.506   2.053   2.441  2.0211  0.2095  1.7981
  928SOL     OW 2782   0.143   0.365   2.482  0.1429  0.6358  0.1199
  928SOL    HW1 2783   0.205   0.372   2.567 -2.3295  2.6378  2.4105
  928SOL    HW2 2784   0.048   0.386   2.508  3.5065 -0.0796  2.2245
  929SOL     OW 2785   2.643   1.958   1.198 -0.3051 -0.0150  0.0146
  929SOL    HW1 2786   2.605   2.049   1.198  0.0565 -0.8419  0.2729
  929SOL    HW2 2787   2.696   1.938   1.114 -0.2210 -1.8045  4.4311
  930SOL     OW 2788   1.714   0.451   2.139 -0.5024 -0.5339 -0.2354
  930SOL    HW1 2789   1.652   0.396   2.200 -1.2758  0.2400  1.1839
  930SOL    HW2 2790   1.671   0.535   2.111 -0.1377 -0.5758 -0.9169
  931SOL     OW 2791   2.214   1.043   2.851 -0.4177 -0.0247 -0.0258
  931SOL    HW1 2792   2.121   1.074   2.892  1.1571  1.9097  1.6480
  931SOL    HW2 2793   2.188   0.997   2.765 -0.1488  0.9996  1.8259
  932SOL     OW 2794   1.688   0.794   0.470 -0.7635 -0.2243  0.1479
  932SOL    HW1 2795   1.665   0.722   0.403  0.0826  0.8521 -1.6847
  932SOL    HW2 2796   1.646   0.885   0.445 -0.9402  2.3385 -1.9214
  933SOL     OW 2797   2.161   1.165   0.814  0.3181  0.4595  0.0089
  933SOL    HW1 2798   2.212   1.147   0.726 -0.3804  1.8449  0.1219
  933SOL    HW2 2799   2.076   1.216   0.791  0.8593 -0.3704 -0.6539
  934SOL     OW 2800   2.412   1.013   2.667  0.6326 -0.4720 -0.1596
  934SOL    HW1 2801   2.473   1.093   2.668  0.0187  1.3063 -0.5327
  934SOL    HW2 2802   2.363   1.007   2.580 -1.3995 -1.8037  0.9698
  935SOL     OW 2803   0.103   1.431   1.092 -0.9052  0.9311  0.0345
  935SOL    HW1 2804   0.120   1.521   1.130  0.9497 -0.2180 -3.3653
  935SOL    HW2 2805   0.078   1.368   1.168 -2.5517 -0.6399  0.8774
  936SOL     OW 2806   0.019   2.917   0.120  0.3152 -0.1393 -0.4266
  936SOL    HW1 2807   0.110   2.901   0.162 -0.1871  0.8367 -0.4088
  936SOL    HW2 2808   0.008   3.020   0.110  1.3053  0.8991 -0.8178
  937SOL     OW 2809   0.035   2.450   1.961  0.4156  0.0663  0.1525
  937SOL    HW1 2810   3.062   2.537   1.927  0.7530 -0.3858  0.4389
  937SOL    HW2 2811   0.033   2.377   1.887 -0.3248 -0.5856  1.0592
  938SOL     OW 2812   2.408   2.099   0.065  0.7605  0.2764 -0.1451
  938SOL    HW1 2813   2.492   2.155   0.080 -1.2983  1.0277 -2.9282
  938SOL    HW2 2814   2.327   2.163   0.095  2.3470  2.4030 -2.1083
  939SOL     OW 2815   1.172   0.542   1.447  0.4530 -0.3739 -0.3326
  939SOL    HW1 2816   1.191   0.576   1.543 -1.7215  2.4482 -3.5814
  939SOL    HW2 2817   1.099   0.601   1.406 -0.0914  0.9938 -1.6636
  940SOL     OW 2818   2.293   2.713   2.724 -0.2309  0.1597 -0.4683
  940SOL    HW1 2819   2.198   2.733   2.707  0.9515 -1.5719  0.4047
  940SOL    HW2 2820   2.307   2.621   2.768  1.1479 -1.6652 -0.2011
  941SOL     OW 2821   2.612   2.679   2.223  0.3615 -0.6900 -0.3613
  941SOL    HW1 2822   2.534   2.667   2.157 -0.5508 -2.1893 -0.8492
  941SOL    HW2 2823   2.703   2.665   2.178 -1.1412 -1.5787  0.4495
  942SOL     OW 2824   1.484   0.135   1.382  0.6557 -0.5919  0.4135
  942SOL    HW1 2825   1.573   0.173   1.350 -0.8815 -0.0188 -0.1551
  942SOL    HW2 2826   1.410   0.173   1.320  0.1677  0.1172  0.1167
  943SOL     OW 2827   0.731   1.496   2.399 -0.8511 -0.9723  0.2203
  943SOL    HW1 2828   0.766   1.404   2.424 -1.1583 -2.0444 -1.0417
  943SOL    HW2 2829   0.786   1.531   2.320  1.1837  0.8310 -0.0997
  944SOL     OW 2830   2.866   0.867   1.252  0.6017  0.6732  0.3445
  944SOL    HW1 2831   2.961   0.825   1.254  3.3725 -1.9547  0.7648
  944SOL    HW2 2832   2.798   0.814   1.206  2.0698  1.4437 -2.0656
  945SOL     OW 2833   2.744   3.021   2.733  0.0673  0.1596 -0.1682
  945SOL    HW1 2834   2.661   3.068   2.767 -0.0214 -0.5057 -1.1979
  945SOL    HW2 2835   2.814   3.032   2.804 -2.8787 -0.5623  0.0935
  946SOL     OW 2836   3.021   1.492   1.496  0.2554  0.5199  0.3620
  946SOL    HW1 2837   0.036   1.532   1.530  0.0917 -0.3127  0.5113
  946SOL    HW2 2838   3.048   1.411   1.437 -0.1945  0.1636  3.0612
  947SOL     OW 2839   0.589   0.422   2.938  0.8785 -0.3155 -0.2447
  947SOL    HW1 2840   0.619   0.455   2.845  0.6572 -2.6364  2.0063
  947SOL    HW2 2841   0.554   0.330   2.934  1.2954  2.3020 -0.5475
  948SOL     OW 2842   2.204   1.471   1.187 -0.4157  0.4684  0.0688
  948SOL    HW1 2843   2.212   1.489   1.285  1.3186 -1.7878 -0.8711
  948SOL    HW2 2844   2.295   1.442   1.148  0.6248  1.1507 -1.0491
  949SOL     OW 2845   0.331   1.014   2.937 -0.4986  0.3526  0.1976
  949SOL    HW1 2846   0.323   0.975   3.032  0.5876 -0.2900 -3.4427
  949SOL    HW2 2847   0.250   0.992   2.880  0.3187  1.4166  0.1950
  950SOL     OW 2848   0.245   0.025   1.286 -0.1659 -0.1394  0.3152
  950SOL    HW1 2849   0.210   3.024   1.353 -0.9305 -0.5597 -1.2141
  950SOL    HW2 2850   0.341   0.010   1.254 -0.2375 -2.2724  1.2616
  951SOL     OW 2851   0.856   2.107   2.739 -0.4946 -0.2206  0.0034
  951SOL    HW1 2852   0.932   2.044   2.718 -1.0770 -0.0250  1.2955
  951SOL    HW2 2853   0.900   2.194   2.779 -1.0794  1.8661 -0.8011
  952SOL     OW 2854   0.739   1.178   0.637 -0.2920 -0.1873  0.1520
  952SOL    HW1 2855   0.767   1.083   0.627  0.2077  0.2847 -1.7090
  952SOL    HW2 2856   0.808   1.239   0.591  2.4174 -0.4096 -0.3334
  953SOL     OW 2857   2.171   1.760   2.889  0.2754  0.2001 -0.6351
  953SOL    HW1 2858   2.237   1.732   2.815  0.8603  0.0533 -0.6606
  953SOL    HW2 2859   2.198   1.725   2.981  1.1920 -0.3339  0.3384
  954SOL     OW 2860   1.356   0.311   0.792  0.5980  0.3572  0.1917
  954SOL    HW1 2861   1.412   0.378   0.737  0.4512 -1.2156 -1.3267
  954SOL    HW2 2862   1.414   0.240   0.837  1.0468 -1.2656 -0.6949
  955SOL     OW 2863   0.874   1.719   3.005 -0.0226 -0.3240  0.1570
  955SOL    HW1 2864   0.854   1.813   3.040 -1.1142  2.7867  0.1262
  955SOL    HW2 2865   0.926   1.662   3.069 -0.8008  0.6457  2.6648
  956SOL     OW 2866   2.698   0.522   2.038 -0.1884  0.0083  0.3376
  956SOL    HW1 2867   2.690   0.510   1.938  0.1963 -3.0916 -0.4567
  956SOL    HW2 2868   2.793   0.538   2.058 -0.5212 -0.3372 -0.7041
  957SOL     OW 2869   1.860   2.155   2.165  0.5743  0.0757  0.2820
  957SOL    HW1 2870   1.895   2.062   2.143  0.6093  0.2344 -0.4609
  957SOL    HW2 2871   1.836   2.157   2.269 -1.7075 -2.5873 -0.6097
  958SOL     OW 2872   1.627   1.182   1.343  0.0399  0.2108 -0.0693
  958SOL    HW1 2873   1.722   1.210   1.367  3.1488 -2.2467 -1.6702
  958SOL    HW2 2874   1.618   1.162   1.241  1.3521  0.7220 -2.1914
  959SOL     OW 2875   1.597   2.130   2.072  0.1850  0.2318 -0.8948
  959SOL    HW1 2876   1.591   2.032   2.090 -1.6484  0.4393  0.0538
  959SOL    HW2 2877   1.688   2.169   2.096 -1.8178 -0.5332 -0.8293
  960SOL     OW 2878   0.564   1.225   2.594  0.3128 -0.2389 -0.4367
  960SOL    HW1 2879   0.505   1.306   2.618  0.8189 -1.1077 -1.1153
  960SOL    HW2 2880   0.541   1.140   2.643  0.6434  1.5700  0.9850
  961SOL     OW 2881   3.034   1.161   2.949  0.4869 -0.5920  0.4617
  961SOL    HW1 2882   0.014   1.238   2.905  1.9922 -1.6674 -2.0405
  961SOL    HW2 2883   2.957   1.201   3.005  0.7712 -0.9935  2.2777
  962SOL     OW 2884   0.890   1.997   3.030 -0.1381 -0.3074  1.0813
  962SOL    HW1 2885   0.950   2.079   3.046  1.2095 -1.2566 -3.3045
  962SOL    HW2 2886   0.805   2.023   2.977 -1.3780  2.7066  0.9018
  963SOL     OW 2887   2.759   1.575   0.049  0.5859  0.1834  0.4565
  963SOL    HW1 2888   2.853   1.567   0.023 -4.0596 -0.6333 -0.7119
  963SOL    HW2 2889   2.725   1.671   0.042 -0.8488 -2.9691  0.6077
  964SOL     OW 2890   0.788   2.084   2.175  0.2649 -0.1815  0.2436
  964SOL    HW1 2891   0.857   2.157   2.165 -0.8730  2.8116  0.3710
  964SOL    HW2 2892   0.805   2.032   2.261  0.2190 -0.8782  0.9506
  965SOL     OW 2893   1.527   1.924   1.368  0.1689 -0.6313  0.2081
  965SOL    HW1 2894   1.621   1.895   1.384 -0.5391  2.5449  0.5385
  965SOL    HW2 2895   1.460   1.886   1.439  2.5011  0.1984  0.3742
  966SOL     OW 2896   2.875   1.532   0.305  0.3211  0.4575  0.0216
  966SOL    HW1 2897   2.969   1.521   0.272 -3.0442  0.2296 -0.9091
  966SOL    HW2 2898   2.819   1.549   0.224 -0.0247 -0.4778  0.1652
  967SOL     OW 2899   1.774   2.797   2.373 -0.0451 -0.2148 -0.0286
  967SOL    HW1 2900   1.804   2.876   2.430 -1.2653 -1.3950 -0.8825
  967SOL    HW2 2901   1.684   2.813   2.333  0.5268  1.5610 -0.2053
  968SOL     OW 2902   1.660   1.264   2.823  0.3446  0.3445  0.0086
  968SOL    HW1 2903   1.688   1.345   2.765  1.0695  2.5446  0.1659
  968SOL    HW2 2904   1.681   1.298   2.919  0.2285  0.4805  0.1459
  969SOL     OW 2905   0.153   1.018   2.319 -0.0572 -0.0730 -0.1823
  969SOL    HW1 2906   0.106   1.000   2.233 -0.8653 -1.4745  1.2351
  969SOL    HW2 2907   0.254   0.990   2.314 -0.1207  1.2462 -0.5416
  970SOL     OW 2908   2.600   3.054   0.336  0.3726  0.2275  0.1464
  970SOL    HW1 2909   2.617   2.963   0.297 -0.4400 -0.1600 -1.6570
  970SOL    HW2 2910   2.539   0.036   0.270 -2.2940 -0.7813 -2.4095
  971SOL     OW 2911   2.125   1.809   0.890 -0.2904 -0.0417 -0.2222
  971SOL    HW1 2912   2.219   1.819   0.858 -1.0914 -1.2900 -0.7024
  971SOL    HW2 2913   2.104   1.708   0.896 -1.6791  0.5840 -0.5510
  972SOL     OW 2914   0.210   1.824   2.627 -0.1007 -0.3163  0.0650
  972SOL    HW1 2915   0.252   1.793   2.536  0.7093 -3.3714 -1.4503
  972SOL    HW2 2916   0.241   1.755   2.693 -1.3324  1.7161 -1.6908
  973SOL     OW 2917   0.719   0.444   0.401 -0.3027 -0.1262 -0.5534
  973SOL    HW1 2918   0.666   0.360   0.367 -1.8249 -1.8082 -2.6442
  973SOL    HW2 2919   0.766   0.488   0.321  0.7708 -0.4445 -0.3031
  974SOL     OW 2920   2.256   0.776   1.635 -0.0185  0.1923  0.0551
  974SOL    HW1 2921   2.286   0.688   1.679 -1.2739  1.4149 -0.4563
  974SOL    HW2 2922   2.329   0.820   1.585 -1.0267  0.2641  2.2031
  975SOL     OW 2923   0.176   3.064   0.714  0.2188 -0.1516  0.3231
  975SOL    HW1 2924   0.268   3.019   0.699  0.9583 -1.5637 -4.8149
  975SOL    HW2 2925   0.163   0.030   0.807 -2.2233 -2.4219  2.6901
  976SOL     OW 2926   0.604   1.448   1.546  0.1737  0.1253  0.5602
  976SOL    HW1 2927   0.554   1.359   1.521 -1.8664  0.9374 -0.0248
  976SOL    HW2 2928   0.621   1.505   1.462  0.2131 -0.4109 -4.3859
  977SOL     OW 2929   1.414   2.037   0.408  0.0458  0.0996 -0.2539
  977SOL    HW1 2930   1.508   1.999   0.432  0.8968 -0.1193  1.9962
  977SOL    HW2 2931   1.406   2.139   0.425 -1.9434  1.0974 -0.1287
  978SOL     OW 2932   0.303   0.974   0.135  0.1304 -0.4267 -0.1102
  978SOL    HW1 2933   0.202   0.977   0.152  1.4130 -0.2952  0.9867
  978SOL    HW2 2934   0.364   0.996   0.216 -0.4320  0.1066 -0.4588
  979SOL     OW 2935   1.911   1.221   0.171 -0.5001 -0.1545 -0.0249
  979SOL    HW1 2936   1.979   1.302   0.194  3.1043  0.3765  2.7481
  979SOL    HW2 2937   1.928   1.147   0.239 -0.3902  0.9836 -0.3794
  980SOL     OW 2938   0.565   1.766   1.758  0.6919  0.1949 -0.3520
  980SOL    HW1 2939   0.595   1.830   1.834 -0.1219  0.5360  3.1314
  980SOL    HW2 2940   0.476   1.728   1.780  2.9780  1.5034 -0.5273
  981SOL     OW 2941   2.370   1.499   2.549 -0.2656  0.3136  0.1550
  981SOL    HW1 2942   2.449   1.478   2.491 -1.9143  2.0604 -0.5728
  981SOL    HW2 2943   2.344   1.415   2.597  0.6726 -0.3211 -0.3854
  982SOL     OW 2944   0.400   2.028   1.643 -0.5026 -0.5100 -0.2785
  982SOL    HW1 2945   0.437   2.077   1.561 -1.9113  1.8941 -0.5507
  982SOL    HW2 2946   0.449   2.045   1.731  0.0498 -0.8188 -1.9572
  983SOL     OW 2947   1.583   0.053   1.944  0.2539 -0.4482 -0.2508
  983SOL    HW1 2948   1.524   3.060   1.895  0.8375  1.7854  0.3917
  983SOL    HW2 2949   1.552   0.149   1.918  0.5930 -0.5017  0.1467
  984SOL     OW 2950   3.044   3.012   2.810 -0.1336  0.3464  0.5627
  984SOL    HW1 2951   3.016   2.963   2.897  0.7848 -0.3355 -2.2829
  984SOL    HW2 2952   3.060   2.942   2.733  0.4337  0.7817 -1.1038
  985SOL     OW 2953   1.403   1.497   1.814 -0.0696 -0.1243  0.0748
  985SOL    HW1 2954   1.436   1.505   1.714 -0.5305 -0.5919  0.4814
  985SOL    HW2 2955   1.389   1.399   1.841  0.9318 -2.4207  1.7426
  986SOL     OW 2956   1.789   0.340   2.894  0.3715 -0.3956 -0.0892
  986SOL    HW1 2957   1.863   0.366   2.958  0.5664  1.7756 -0.5480
  986SOL    HW2 2958   1.824   0.320   2.798  4.5975 -1.4699 -2.7394
  987SOL     OW 2959   0.179   2.078   2.479  0.1906  0.3748 -0.0750
  987SOL    HW1 2960   0.100   2.127   2.523 -2.4253  2.0676  0.9017
  987SOL    HW2 2961   0.183   1.979   2.509  1.8721 -2.4440  0.9152
  988SOL     OW 2962   2.717   0.319   1.444  0.1681 -0.0513 -0.0537
  988SOL    HW1 2963   2.808   0.279   1.467  0.5602  2.6949 -0.8284
  988SOL    HW2 2964   2.685   0.288   1.353  1.3532 -2.2049  1.4609
  989SOL     OW 2965   1.909   0.103   1.056  0.6666 -0.3721  0.1280
  989SOL    HW1 2966   1.920   0.037   0.979 -2.5431 -2.0043  0.3570
  989SOL    HW2 2967   1.972   0.086   1.132 -1.8697  0.1836 -2.3511
  990SOL     OW 2968   2.385   1.034   0.192  0.1205 -0.4526  0.1009
  990SOL    HW1 2969   2.391   1.008   0.093 -0.2546  1.0499  1.3432
  990SOL    HW2 2970   2.423   1.130   0.202 -0.6758  0.1797  1.3871
  991SOL     OW 2971   0.332   1.052   0.574  0.1689  0.3166 -0.3479
  991SOL    HW1 2972   0.235   1.091   0.570 -3.0726 -0.2420  0.4100
  991SOL    HW2 2973   0.392   1.114   0.633  2.2147  3.5129  1.7771
  992SOL     OW 2974   1.954   1.499   1.907  0.3619 -0.5006 -0.4069
  992SOL    HW1 2975   1.905   1.547   1.981  0.3348  0.5141 -0.0608
  992SOL    HW2 2976   1.960   1.399   1.921  0.6987 -0.6322  1.8475
  993SOL     OW 2977   0.268   2.125   0.745 -0.5958 -0.2353 -0.4409
  993SOL    HW1 2978   0.350   2.069   0.755 -0.4871 -1.4120  0.0715
  993SOL    HW2 2979   0.259   2.176   0.657  0.0240 -0.3901 -0.0726
  994SOL     OW 2980   0.048   1.838   1.650  0.1485  0.2436  0.0578
  994SOL    HW1 2981   3.045   1.827   1.717 -0.2694  1.0613 -3.0296
  994SOL    HW2 2982   0.042   1.771   1.572 -1.3704 -1.4869 -2.3534
  995SOL     OW 2983   1.942   1.658   2.752  0.2216  0.4767 -0.7738
  995SOL    HW1 2984   1.928   1.722   2.673  0.8707  0.6017 -0.3457
  995SOL    HW2 2985   2.016   1.695   2.811 -1.0700  0.2830  0.4008
  996SOL     OW 2986   1.898   2.429   0.386  0.3196 -1.1235 -0.1507
  996SOL    HW1 2987   1.870   2.383   0.297 -1.3046 -1.4141  1.0557
  996SOL    HW2 2988   1.905   2.365   0.467 -1.8061 -1.4115  1.1523
  997SOL     OW 2989   1.327   1.762   1.906  0.0360  0.2356 -0.8189
  997SOL    HW1 2990   1.229   1.767   1.882  2.4753  0.9156 -2.8877
  997SOL    HW2 2991   1.363   1.666   1.892  0.8182 -2.4291 -0.3738
  998SOL     OW 2992   3.068   2.302   0.497  0.2869 -0.1106 -0.0542
  998SOL    HW1 2993   3.031   2.335   0.406  1.8417 -0.0016  0.0486
  998SOL    HW2 2994   0.087   2.255   0.486 -0.3269 -5.1837  1.3219
  999SOL     OW 2995   0.695   3.005   0.191 -0.3937 -0.2589  0.6536
  999SOL    HW1 2996   0.607   2.957   0.174  1.6171  2.5463 -2.1645
  999SOL    HW2 2997   0.753   2.986   0.113 -2.0437 -0.0859  1.1173
 1000SOL     OW 2998   1.225   0.094   3.065  0.4592 -0.0604  0.1328
 1000SOL    HW1 2999   1.214   0.165   2.992 -0.8693  2.3708 -1.0973
 1000SOL    HW2 3000   1.319   0.058   3.069 -0.3001 -1.0796  0.4749
   3.07153   3.07153   3.07153
