1000 SPC/Fw water molecules t= 133.00000 step= 133000
 3000
    1SOL     OW    1   2.256   2.395   0.897  0.2252 -0.6112  0.1770
    1SOL    HW1    2   2.205   2.475   0.863 -0.2904 -1.7444  0.2504
    1SOL    HW2    3   2.206   2.370   0.984 -1.3185 -0.1765  0.5762
    2SOL     OW    4   1.395   2.027   2.202  0.1877  0.1253 -0.0327
    2SOL    HW1    5   1.352   2.077   2.276  0.6384 -0.4806 -1.4781
    2SOL    HW2    6   1.349   1.934   2.193  1.1625 -1.1358 -0.5422
    3SOL     OW    7   1.687   2.518   2.272  0.3428 -0.2589 -0.1300
    3SOL    HW1    8   1.770   2.568   2.309  2.4215 -0.7162 -0.4632
    3SOL    HW2    9   1.701   2.452   2.199  0.2748 -0.4509 -0.5985
    4SOL     OW   10   1.416   2.491   2.056 -0.5366  0.8252 -0.1280
    4SOL    HW1   11   1.507   2.444   2.050 -0.0543 -1.7702 -1.5272
    4SOL    HW2   12   1.338   2.435   2.095 -0.5767 -1.5928 -0.5970
    5SOL     OW   13   0.511   0.676   1.611 -0.3538 -0.4238 -0.4328
    5SOL    HW1   14   0.532   0.633   1.519  0.4773 -0.1783 -1.8299
    5SOL    HW2   15   0.419   0.717   1.609 -1.4960  1.1511  1.5027
    6SOL     OW   16   2.492   1.110   0.134 -0.1386  0.1299 -0.0270
    6SOL    HW1   17   2.430   1.108   0.209  3.5378 -0.9590 -0.3439
    6SOL    HW2   18   2.586   1.110   0.169 -2.2070 -0.5698 -1.0054
    7SOL     OW   19   0.426   0.066   1.585  0.2019 -0.0077 -0.2483
    7SOL    HW1   20   0.504   0.073   1.650  0.3204  0.1218 -1.2122
    7SOL    HW2   21   0.353   0.012   1.632  1.9491  0.1864  0.3931
    8SOL     OW   22   1.130   2.857   1.594 -0.2592 -0.1586  0.3015
    8SOL    HW1   23   1.039   2.828   1.551  0.7112  1.7868  1.0393
    8SOL    HW2   24   1.184   2.772   1.598 -0.1269  0.5184  0.4589
    9SOL     OW   25   0.693   0.902   0.362  0.2949  0.0685  0.6754
    9SOL    HW1   26   0.594   0.931   0.349 -0.3160 -1.0764  1.1006
    9SOL    HW2   27   0.739   0.991   0.388 -1.8690  1.2927  1.8209
   10SOL     OW   28   0.811   2.432   2.461 -0.3782  0.4205  0.1579
   10SOL    HW1   29   0.722   2.406   2.498  1.8934  0.2440 -1.2171
   10SOL    HW2   30   0.802   2.521   2.416 -1.2062 -2.0604 -1.8806
   11SOL     OW   31   0.430   1.965   0.101 -0.3308  0.3503 -0.0367
   11SOL    HW1   32   0.335   1.993   0.096  0.8004 -1.0858  0.0073
   11SOL    HW2   33   0.433   1.903   0.185 -2.3862  0.4346 -0.4498
   12SOL     OW   34   0.548   3.103   1.347 -0.1376 -0.3010 -0.7130
   12SOL    HW1   35   0.493   0.007   1.424  3.1482  0.8607  0.3707
   12SOL    HW2   36   0.502   3.036   1.289 -1.8000  1.5205  0.2817
   13SOL     OW   37   0.763   2.772   0.067 -0.4779  0.2122  0.2611
   13SOL    HW1   38   0.853   2.728   0.099  2.1440 -2.2037 -1.6395
   13SOL    HW2   39   0.753   2.867   0.106 -0.7129  0.5225  1.2723
   14SOL     OW   40   1.629   1.582   1.020 -0.2940 -0.4329 -0.0617
   14SOL    HW1   41   1.631   1.615   1.115  1.4514 -0.7115 -1.2776
   14SOL    HW2   42   1.680   1.652   0.964  1.2878 -0.1079 -3.2893
   15SOL     OW   43   2.858   0.898   2.334 -0.3971  0.0066 -0.0385
   15SOL    HW1   44   2.897   0.905   2.431 -0.8595  0.1386  3.3498
   15SOL    HW2   45   2.852   0.991   2.295  1.8389  0.3399  0.4326
   16SOL     OW   46   1.612   2.890   3.112  0.5355 -0.1115  0.0432
   16SOL    HW1   47   1.562   2.858   3.027  0.6826 -0.8385 -0.1147
   16SOL    HW2   48   1.707   2.907   3.091 -1.4939 -0.3100  1.3919
   17SOL     OW   49   0.796   2.438   2.102 -0.0320  0.6349 -0.4610
   17SOL    HW1   50   0.790   2.345   2.145 -0.6477 -1.0185  0.0173
   17SOL    HW2   51   0.752   2.514   2.156 -0.8558  0.9073 -0.3320
   18SOL     OW   52   1.587   0.922   0.406 -0.4167  0.5794  0.5752
   18SOL    HW1   53   1.626   1.003   0.455  2.6122  1.4449  1.4989
   18SOL    HW2   54   1.536   0.861   0.469 -1.0678  1.6476 -0.5752
   19SOL     OW   55   2.586   2.258   2.752 -0.7139 -0.0159 -0.0049
   19SOL    HW1   56   2.585   2.263   2.853 -0.6900 -1.3072  0.0468
   19SOL    HW2   57   2.558   2.165   2.723  2.6011 -0.2866 -1.3297
   20SOL     OW   58   2.495   2.011   2.428  1.2696  0.8526 -0.4880
   20SOL    HW1   59   2.417   2.063   2.391 -1.3650  3.6316 -1.7901
   20SOL    HW2   60   2.569   2.014   2.362 -0.2102  1.2841  1.5015
   21SOL     OW   61   0.572   2.196   0.083  0.9341  0.0188  0.4973
   21SOL    HW1   62   0.601   2.244   0.170  1.2025 -0.9851  0.4152
   21SOL    HW2   63   0.522   2.111   0.118  1.2645  1.6846 -0.1842
   22SOL     OW   64   2.204   3.035   1.335  0.2402  0.2136 -0.2027
   22SOL    HW1   65   2.201   3.116   1.393  1.9721 -2.8490 -2.2692
   22SOL    HW2   66   2.230   2.952   1.391  1.5170 -3.9126  1.0466
   23SOL     OW   67   0.366   1.313   1.445 -0.7244 -0.6232 -0.2068
   23SOL    HW1   68   0.325   1.380   1.507 -0.3512 -0.6200 -0.5299
   23SOL    HW2   69   0.434   1.254   1.492  0.4853  0.2409  0.1872
   24SOL     OW   70   2.112   1.915   1.601  0.1239  0.0860 -0.2267
   24SOL    HW1   71   2.211   1.897   1.597  2.3423  2.5277  2.0473
   24SOL    HW2   72   2.078   1.920   1.693  0.6757 -0.3548 -2.6880
   25SOL     OW   73   1.974   0.031   2.861  0.2611 -0.6913 -0.2511
   25SOL    HW1   74   2.064   0.007   2.831 -1.8699  1.8513  1.4361
   25SOL    HW2   75   1.904   0.024   2.787 -2.0992  0.9840  1.3119
   26SOL     OW   76   1.336   3.028   0.907 -0.2324 -0.6244 -0.3262
   26SOL    HW1   77   1.409   3.059   0.839  1.1246 -1.0169  0.8896
   26SOL    HW2   78   1.276   3.103   0.931 -1.5208 -0.6095  0.1813
   27SOL     OW   79   1.104   1.830   0.022  0.0944 -0.4655  0.4051
   27SOL    HW1   80   1.134   1.883   0.104  0.8093  0.6877 -1.0427
   27SOL    HW2   81   1.023   1.876   3.099  0.0604  2.0829 -0.3683
   28SOL     OW   82   2.843   1.771   1.373  0.0862  0.4028 -0.7146
   28SOL    HW1   83   2.798   1.679   1.397 -3.3283 -4.8371  0.3299
   28SOL    HW2   84   2.938   1.756   1.347 -2.2611  0.2578 -2.4841
   29SOL     OW   85   2.358   2.456   2.139 -0.3107 -0.3615 -0.1395
   29SOL    HW1   86   2.396   2.517   2.211 -1.3640 -0.9498  0.5907
   29SOL    HW2   87   2.262   2.477   2.125  0.2179  0.6347  0.5360
   30SOL     OW   88   1.080   2.761   1.238 -0.0123  0.2024 -0.3939
   30SOL    HW1   89   1.162   2.827   1.250  0.5427 -0.8843  3.0474
   30SOL    HW2   90   1.098   2.709   1.152  1.0637 -0.2141  1.0626
   31SOL     OW   91   3.088   2.013   1.980  0.0343 -0.4327  0.0874
   31SOL    HW1   92   3.030   1.926   1.989 -2.7318 -1.5059  1.7039
   31SOL    HW2   93   0.056   2.002   2.030  2.3561 -0.2139 -1.1419
   32SOL     OW   94   1.450   1.179   2.232 -0.2717 -0.0339 -0.1827
   32SOL    HW1   95   1.431   1.115   2.154  0.9958 -2.4159 -2.2251
   32SOL    HW2   96   1.371   1.224   2.272  1.1026  2.1420 -0.4856
   33SOL     OW   97   0.547   2.923   2.645 -0.6156  0.0738 -0.3744
   33SOL    HW1   98   0.449   2.945   2.647  0.5311 -0.4136  2.3916
   33SOL    HW2   99   0.585   2.958   2.559  1.3388 -0.8868  1.5635
   34SOL     OW  100   1.460   3.043   1.629  0.1349 -0.6283  0.2989
   34SOL    HW1  101   1.433   2.971   1.560  0.6773 -1.1463  0.8639
   34SOL    HW2  102   1.446   3.012   1.725 -0.5317  3.9394 -0.1664
   35SOL     OW  103   2.166   0.428   1.051  0.2194 -0.0956  0.6326
   35SOL    HW1  104   2.087   0.492   1.061  0.6475  0.4823  3.9941
   35SOL    HW2  105   2.139   0.330   1.056 -0.0817 -0.7528  1.2374
   36SOL     OW  106   2.177   2.817   2.653  0.2608  0.3356 -0.1361
   36SOL    HW1  107   2.217   2.724   2.679  1.4281 -0.0370  2.6258
   36SOL    HW2  108   2.175   2.825   2.549 -1.3806  1.3143 -1.3123
   37SOL     OW  109   1.268   2.285   2.816  0.1273 -0.1264  0.2099
   37SOL    HW1  110   1.211   2.357   2.858  0.9921  0.0825 -2.4062
   37SOL    HW2  111   1.248   2.195   2.856  2.3851  0.7915  2.8874
   38SOL     OW  112   2.640   0.661   2.929 -0.3056  0.2647  0.0764
   38SOL    HW1  113   2.578   0.735   2.945  0.6792 -1.9398 -0.1880
   38SOL    HW2  114   2.719   0.651   2.996 -1.0208  0.1075  2.9889
   39SOL     OW  115   2.097   2.096   2.005  0.3924 -0.2040 -0.1834
   39SOL    HW1  116   2.031   2.037   1.953 -3.3976  0.8579 -1.5960
   39SOL    HW2  117   2.056   2.187   2.031 -0.2151  2.2515  3.6200
   40SOL     OW  118   0.329   0.325   2.984  0.2362  0.0005  0.1695
   40SOL    HW1  119   0.382   0.340   3.073  1.8022  1.6912 -1.2559
   40SOL    HW2  120   0.249   0.263   2.997 -1.1008 -3.1707 -0.6030
   41SOL     OW  121   1.214   1.127   1.577  0.0746  0.2792 -0.3213
   41SOL    HW1  122   1.211   1.077   1.490 -1.6887  4.0156  0.3758
   41SOL    HW2  123   1.127   1.106   1.636 -4.2148 -2.8451  1.3155
   42SOL     OW  124   0.190   0.206   1.973 -0.2027  0.5509 -0.0130
   42SOL    HW1  125   0.169   0.307   1.978  1.6539  3.8331 -0.2198
   42SOL    HW2  126   0.290   0.189   1.956  1.4085 -2.0639  2.0251
   43SOL     OW  127   1.545   1.600   2.036  0.1959  0.2709  0.7229
   43SOL    HW1  128   1.483   1.580   2.111 -0.2928  0.9416  1.3799
   43SOL    HW2  129   1.604   1.521   2.029  1.0853  1.5951 -0.5007
   44SOL     OW  130   3.071   2.818   2.612  0.5446 -0.0711  0.4341
   44SOL    HW1  131   3.020   2.877   2.676  3.4567 -1.3280 -1.3906
   44SOL    HW2  132   3.068   2.847   2.517 -0.0356 -1.4269  0.6513
   45SOL     OW  133   0.493   2.371   1.235 -0.1855  0.0077  0.4104
   45SOL    HW1  134   0.477   2.468   1.209 -2.3978 -0.8309  0.6920
   45SOL    HW2  135   0.590   2.344   1.216 -1.1015 -0.9282 -1.2180
   46SOL     OW  136   2.490   2.310   1.926 -0.0871  0.3775  0.3142
   46SOL    HW1  137   2.442   2.383   1.981  0.0279  3.5138  0.6927
   46SOL    HW2  138   2.589   2.300   1.957  1.2326 -0.2838 -0.9042
   47SOL     OW  139   1.674   1.870   1.612 -0.4874  0.0600  0.0690
   47SOL    HW1  140   1.602   1.837   1.675 -0.4361  0.5269  2.0320
   47SOL    HW2  141   1.754   1.807   1.612  1.0298 -2.4367  0.9420
   48SOL     OW  142   0.241   2.018   0.518 -0.0167  0.3506  0.0474
   48SOL    HW1  143   0.297   2.018   0.601 -0.7915 -0.3319 -0.2765
   48SOL    HW2  144   0.224   2.108   0.480 -1.8228  0.5644 -1.6755
   49SOL     OW  145   3.045   0.840   2.148 -0.1383 -0.2515  0.0762
   49SOL    HW1  146   0.020   0.819   2.178  0.4925  2.4802  0.7009
   49SOL    HW2  147   2.986   0.852   2.230 -0.5112 -0.4875  1.4168
   50SOL     OW  148   2.131   0.845   1.060 -0.0286 -0.0634 -0.1904
   50SOL    HW1  149   2.232   0.861   1.078  1.2260 -0.2026 -1.3979
   50SOL    HW2  150   2.073   0.927   1.061  0.0577  0.3509 -0.3689
   51SOL     OW  151   1.195   0.649   0.693 -0.2507 -0.2481  0.1913
   51SOL    HW1  152   1.139   0.702   0.757  1.8649 -2.6499 -1.0008
   51SOL    HW2  153   1.280   0.611   0.737 -1.2894 -0.3920 -2.2035
   52SOL     OW  154   1.170   1.206   0.294 -0.2730  0.3701 -0.4833
   52SOL    HW1  155   1.183   1.110   0.327 -2.2445  0.3290  2.9118
   52SOL    HW2  156   1.112   1.257   0.364  0.8079  0.7553  0.5532
   53SOL     OW  157   1.283   2.333   2.565  0.4026 -0.3718 -0.3829
   53SOL    HW1  158   1.379   2.318   2.537  0.5958 -2.9489  1.6807
   53SOL    HW2  159   1.285   2.307   2.663  0.6300  0.5739  0.8713
   54SOL     OW  160   1.302   0.959   1.775  0.5414  0.2105  0.2088
   54SOL    HW1  161   1.294   0.856   1.759 -1.5454  0.1987 -2.4528
   54SOL    HW2  162   1.300   1.007   1.684  0.0234  0.8583  1.7347
   55SOL     OW  163   2.012   3.001   0.578  0.1808 -0.2344  0.0235
   55SOL    HW1  164   1.931   2.942   0.605 -1.4342  0.2074 -0.1828
   55SOL    HW2  165   2.003   3.092   0.624  2.0864  1.5294 -2.4481
   56SOL     OW  166   0.911   2.801   1.436 -0.2887  0.5842 -0.1100
   56SOL    HW1  167   0.984   2.780   1.368  0.7623 -0.1211  1.0987
   56SOL    HW2  168   0.867   2.894   1.424 -0.5012  4.2307 -1.2985
   57SOL     OW  169   1.725   0.876   2.926  0.0516  0.1865  0.3348
   57SOL    HW1  170   1.740   0.849   2.833 -0.9746  0.0630 -1.3569
   57SOL    HW2  171   1.754   0.970   2.950 -0.9396 -3.8641 -0.3068
   58SOL     OW  172   3.024   0.973   1.908  0.0924 -0.4096  0.1048
   58SOL    HW1  173   3.023   0.938   2.006 -0.9034  1.8693  0.2819
   58SOL    HW2  174   2.955   1.043   1.886 -2.6003 -0.6102  2.2551
   59SOL     OW  175   0.687   2.618   2.275 -0.0739 -0.6772 -0.0266
   59SOL    HW1  176   0.608   2.615   2.212  0.7421  2.7625 -2.0308
   59SOL    HW2  177   0.736   2.706   2.251 -0.5765  4.7004 -0.0331
   60SOL     OW  178   2.545   2.533   1.144 -0.0654  0.4199  0.2064
   60SOL    HW1  179   2.520   2.536   1.046 -1.1878 -1.2338  0.1197
   60SOL    HW2  180   2.649   2.526   1.151  1.2750 -1.1587  1.2485
   61SOL     OW  181   1.069   2.266   0.596 -0.4289  0.8687 -0.0706
   61SOL    HW1  182   1.157   2.249   0.543  1.8539 -0.1874 -3.6938
   61SOL    HW2  183   0.989   2.225   0.549 -1.1368  1.4968 -1.0663
   62SOL     OW  184   2.168   2.695   3.071 -0.2097 -0.5687 -0.1692
   62SOL    HW1  185   2.195   2.619   3.013 -1.4276  1.1514  1.1036
   62SOL    HW2  186   2.073   2.709   3.054 -0.1686 -0.3619 -1.1497
   63SOL     OW  187   2.326   0.144   0.157 -0.4245  0.3471 -0.1582
   63SOL    HW1  188   2.286   0.116   0.070  2.2231  1.3782  0.7301
   63SOL    HW2  189   2.319   0.243   0.173  4.7920 -0.3517  0.9695
   64SOL     OW  190   0.853   0.985   2.560  0.8073  0.1864  0.0275
   64SOL    HW1  191   0.805   1.059   2.612  0.0936 -1.9531 -0.1591
   64SOL    HW2  192   0.828   0.891   2.597  2.0014 -2.0383 -1.4477
   65SOL     OW  193   1.260   2.542   0.548  0.5074 -0.2333 -0.0496
   65SOL    HW1  194   1.337   2.497   0.497  1.5590  0.0209  0.2153
   65SOL    HW2  195   1.271   2.523   0.650 -0.1501  0.4497 -0.0697
   66SOL     OW  196   0.593   1.477   1.492  0.6300 -0.0451 -0.1533
   66SOL    HW1  197   0.683   1.428   1.468  4.1216 -0.4921 -1.5897
   66SOL    HW2  198   0.509   1.442   1.448 -1.2891  2.7272  2.4985
   67SOL     OW  199   2.364   3.043   2.182 -0.1363  0.0733  0.0776
   67SOL    HW1  200   2.440   3.030   2.251  1.1170  2.5899  4.3931
   67SOL    HW2  201   2.382   0.001   2.121 -1.4729 -1.9792 -0.9632
   68SOL     OW  202   0.876   0.765   1.495  0.2917 -0.0759  0.6253
   68SOL    HW1  203   0.882   0.685   1.429  0.4539 -0.7079  2.5142
   68SOL    HW2  204   0.785   0.813   1.483 -0.3275  1.3288 -0.5003
   69SOL     OW  205   2.036   2.939   0.291 -0.0301  0.0782 -0.2376
   69SOL    HW1  206   2.021   3.031   0.252 -2.2875 -0.4143  3.2513
   69SOL    HW2  207   2.012   2.939   0.389  0.5647 -1.4176 -2.9488
   70SOL     OW  208   2.667   1.035   2.833 -0.5627 -0.4887  1.0044
   70SOL    HW1  209   2.697   1.076   2.747  0.5965  0.4968  1.8579
   70SOL    HW2  210   2.743   0.986   2.878  0.3579  0.4825  0.3709
   71SOL     OW  211   2.923   1.890   3.119 -0.0205 -0.1120 -0.6937
   71SOL    HW1  212   2.922   1.927   3.021 -0.6675  2.4355 -1.5462
   71SOL    HW2  213   2.968   1.957   0.056 -2.2710 -2.1637  0.2753
   72SOL     OW  214   0.007   1.924   0.428  0.0232  0.5150  0.2967
   72SOL    HW1  215   0.032   1.857   0.357  1.1449  2.6493  1.9075
   72SOL    HW2  216   0.096   1.958   0.473  5.0335 -1.1291  0.7879
   73SOL     OW  217   1.013   1.280   0.508 -0.2971 -0.4177  0.5380
   73SOL    HW1  218   1.067   1.268   0.591  1.3579  0.3020 -1.9227
   73SOL    HW2  219   0.948   1.360   0.517 -0.3695 -0.4493 -1.1272
   74SOL     OW  220   0.263   1.746   1.940  0.0008  0.0381  0.1705
   74SOL    HW1  221   0.266   1.846   1.916  0.2770  1.1719 -3.3919
   74SOL    HW2  222   0.348   1.704   1.904 -0.6169  0.3609  1.1076
   75SOL     OW  223   1.767   1.330   1.691 -0.5407  0.0106 -0.1842
   75SOL    HW1  224   1.854   1.271   1.716  2.4087 -2.0386  1.2681
   75SOL    HW2  225   1.680   1.278   1.719 -3.8161 -2.1984  2.7129
   76SOL     OW  226   2.256   2.484   1.406 -0.4951  0.2316  0.1334
   76SOL    HW1  227   2.246   2.489   1.506  1.2649  0.4101 -2.6688
   76SOL    HW2  228   2.276   2.389   1.373 -2.7662 -0.8282 -0.8642
   77SOL     OW  229   2.608   1.323   1.736 -0.4192 -0.1404  0.3283
   77SOL    HW1  230   2.534   1.299   1.809 -1.3345 -1.6423  3.0793
   77SOL    HW2  231   2.621   1.422   1.731 -2.0832 -0.7879  1.1716
   78SOL     OW  232   1.548   0.598   0.438 -0.3834 -0.1175 -0.0882
   78SOL    HW1  233   1.468   0.657   0.445  3.5612 -1.0013 -1.1491
   78SOL    HW2  234   1.591   0.607   0.348 -2.1746  1.7229  3.5491
   79SOL     OW  235   2.399   1.574   1.605  0.2158  0.1813 -0.1145
   79SOL    HW1  236   2.413   1.546   1.509  0.2240  1.0347  3.6121
   79SOL    HW2  237   2.379   1.672   1.607 -1.2157 -2.9459  2.5494
   80SOL     OW  238   0.796   0.555   1.330 -0.3375  0.4990  0.2456
   80SOL    HW1  239   0.693   0.566   1.342  1.0003  1.3178 -0.0977
   80SOL    HW2  240   0.841   0.477   1.382 -1.0773 -0.7423 -4.6788
   81SOL     OW  241   0.862   2.942   0.901  0.3877  0.3354  0.2800
   81SOL    HW1  242   0.873   3.005   0.981  1.2554  0.8581  0.4902
   81SOL    HW2  243   0.951   2.904   0.879 -0.6223 -0.2514 -2.3030
   82SOL     OW  244   1.435   2.968   1.911  0.0243 -0.9191 -0.8783
   82SOL    HW1  245   1.409   2.881   1.960 -1.3636 -4.9263 -0.8237
   82SOL    HW2  246   1.484   3.029   1.974 -0.8160  0.1684 -1.0786
   83SOL     OW  247   1.410   1.757   0.773  0.1625 -0.6964 -0.0763
   83SOL    HW1  248   1.413   1.833   0.843  0.4075  3.3241  0.3716
   83SOL    HW2  249   1.478   1.773   0.697 -0.5438  3.5219  2.2664
   84SOL     OW  250   0.329   1.646   2.688  0.3444 -0.6488  0.1082
   84SOL    HW1  251   0.304   1.547   2.674  1.5524  0.4000 -0.6285
   84SOL    HW2  252   0.261   1.705   2.643 -1.8498  1.0319 -1.3901
   85SOL     OW  253   0.306   2.219   1.043 -0.0140  0.3064 -0.1436
   85SOL    HW1  254   0.270   2.269   0.966 -1.6212 -0.8924  0.0862
   85SOL    HW2  255   0.392   2.263   1.083  1.1649  2.3317  1.7414
   86SOL     OW  256   2.239   2.480   1.686  0.0774  0.1319  0.1128
   86SOL    HW1  257   2.310   2.547   1.718  3.2075  0.6596  3.2309
   86SOL    HW2  258   2.147   2.503   1.715  2.0118  2.4385 -3.0318
   87SOL     OW  259   3.122   2.187   0.779 -0.7647 -0.1591  0.2914
   87SOL    HW1  260   3.069   2.267   0.818 -1.6930  0.1531 -1.8318
   87SOL    HW2  261   3.120   2.193   0.679 -0.6476  0.8986 -1.1706
   88SOL     OW  262   0.907   1.155   1.201  0.7541 -0.2279  0.1965
   88SOL    HW1  263   0.903   1.187   1.102 -1.8256  1.9235 -2.6372
   88SOL    HW2  264   0.867   1.064   1.217  5.1831 -2.0776  2.3973
   89SOL     OW  265   1.167   0.027   2.233 -0.3410  0.1275  0.6120
   89SOL    HW1  266   1.115   0.093   2.286 -0.9915  0.9304 -0.6097
   89SOL    HW2  267   1.101   3.091   2.181 -3.3208 -2.8760 -0.7069
   90SOL     OW  268   3.092   2.124   1.517  0.0532  0.1928 -0.6148
   90SOL    HW1  269   3.098   2.021   1.519 -0.5451  1.5175  0.8790
   90SOL    HW2  270   0.063   2.167   1.537 -0.2706  0.5788 -1.4349
   91SOL     OW  271   1.487   2.180   1.326 -0.0939  0.3490 -0.3975
   91SOL    HW1  272   1.473   2.195   1.425  1.2004 -1.5425  0.2043
   91SOL    HW2  273   1.562   2.112   1.301  0.3120 -0.0850  0.3406
   92SOL     OW  274   2.681   3.036   1.536 -0.0570 -0.0500 -0.4220
   92SOL    HW1  275   2.723   3.121   1.579  1.9188  0.7451  1.2563
   92SOL    HW2  276   2.706   3.025   1.439 -0.8782  0.2135  0.4581
   93SOL     OW  277   0.088   1.167   2.696  0.3336 -0.2420  0.2854
   93SOL    HW1  278   0.172   1.125   2.742  4.6472 -1.7598  0.2896
   93SOL    HW2  279   0.054   1.235   2.761  0.4471 -2.0153 -1.3098
   94SOL     OW  280   2.746   2.607   1.853 -0.1782 -0.2875 -0.2338
   94SOL    HW1  281   2.836   2.633   1.895  1.2676 -0.1440  1.5384
   94SOL    HW2  282   2.693   2.697   1.843  0.9800 -0.1046  1.1257
   95SOL     OW  283   1.407   0.419   2.031 -0.4047  0.1468 -0.6793
   95SOL    HW1  284   1.398   0.336   2.092  0.1941  1.1063  0.9865
   95SOL    HW2  285   1.488   0.475   2.064  2.1598  1.4753 -0.3965
   96SOL     OW  286   2.408   0.570   1.603  0.1715 -0.4603  0.2731
   96SOL    HW1  287   2.467   0.499   1.643  0.5406  1.0712  1.6590
   96SOL    HW2  288   2.314   0.565   1.642  2.1141 -2.9601 -1.5559
   97SOL     OW  289   2.023   0.417   1.930 -0.2574  0.2142 -0.6085
   97SOL    HW1  290   2.075   0.329   1.917  0.7431 -0.6211  0.6219
   97SOL    HW2  291   1.923   0.408   1.918  3.9526  1.2348  4.3043
   98SOL     OW  292   1.998   2.881   1.199  0.0589 -0.2231 -0.0872
   98SOL    HW1  293   2.057   2.945   1.252  0.8398  1.4049  1.3469
   98SOL    HW2  294   2.010   2.783   1.224  0.8015  0.2254  0.9816
   99SOL     OW  295   2.800   0.294   1.911  0.6191  0.3648  0.2573
   99SOL    HW1  296   2.751   0.280   1.994  0.2580 -1.3372 -4.5354
   99SOL    HW2  297   2.794   0.396   1.890 -1.8073 -0.3111 -2.5678
  100SOL     OW  298   2.261   1.404   1.745  0.3687 -0.1192  0.1725
  100SOL    HW1  299   2.308   1.472   1.683  1.7044  0.8890  1.0175
  100SOL    HW2  300   2.330   1.378   1.817  2.3785 -0.4742 -1.8910
  101SOL     OW  301   1.515   3.118   0.745  0.4719  0.0666 -0.1026
  101SOL    HW1  302   1.487   0.090   0.729  0.1181 -2.3449  1.3709
  101SOL    HW2  303   1.609   0.000   0.781 -1.5524 -2.0826 -0.9968
  102SOL     OW  304   0.736   0.934   1.205 -0.2578  0.0272  0.1250
  102SOL    HW1  305   0.661   0.949   1.140  1.0045  0.5267  2.0394
  102SOL    HW2  306   0.702   0.934   1.299 -3.6834  1.9261 -1.2866
  103SOL     OW  307   2.967   0.431   3.035  0.2104 -0.3929 -0.0239
  103SOL    HW1  308   2.989   0.379   2.947 -0.4688  0.3994 -0.6855
  103SOL    HW2  309   3.050   0.430   3.099  3.1160  0.6310  2.1761
  104SOL     OW  310   2.760   0.113   1.736 -0.5602  0.2702 -0.5148
  104SOL    HW1  311   2.847   0.063   1.709  2.4659 -3.1749 -1.7429
  104SOL    HW2  312   2.782   0.176   1.809 -2.5443  0.1166 -2.0220
  105SOL     OW  313   1.949   0.732   2.143  0.8059  0.1361 -0.4238
  105SOL    HW1  314   1.964   0.715   2.243 -1.4466  0.1923  2.1023
  105SOL    HW2  315   1.857   0.707   2.106 -0.0960 -1.5371 -0.8357
  106SOL     OW  316   1.782   0.035   0.786 -0.2422  0.3596 -0.3095
  106SOL    HW1  317   1.812   3.108   0.866 -1.3935  1.9024  1.4088
  106SOL    HW2  318   1.860   0.070   0.734  0.4594  3.6199 -1.3233
  107SOL     OW  319   0.743   1.153   0.746 -0.3093 -0.3389  0.3943
  107SOL    HW1  320   0.688   1.227   0.706  1.5270 -1.5668  0.8055
  107SOL    HW2  321   0.688   1.071   0.770  1.3708  0.2774  0.7072
  108SOL     OW  322   2.688   0.216   2.177 -0.6202 -0.2472  0.3442
  108SOL    HW1  323   2.764   0.150   2.204 -2.5582  3.3862 -0.4053
  108SOL    HW2  324   2.656   0.264   2.263  0.7974 -0.8004 -0.4704
  109SOL     OW  325   2.107   0.703   0.040 -0.3129 -0.6224 -0.3558
  109SOL    HW1  326   2.009   0.705   0.015  2.8613 -0.3295 -1.4061
  109SOL    HW2  327   2.162   0.671   3.082 -1.2941 -2.1987  1.9551
  110SOL     OW  328   0.128   2.311   2.980  0.3080  0.4871  0.0241
  110SOL    HW1  329   0.141   2.406   2.940  1.7567 -2.5190  0.8589
  110SOL    HW2  330   0.163   2.312   3.076 -0.5484  1.1654  0.0025
  111SOL     OW  331   2.248   0.237   2.231 -0.1099  0.4319 -0.6766
  111SOL    HW1  332   2.228   0.323   2.270  0.5937 -0.7034 -1.0206
  111SOL    HW2  333   2.306   0.246   2.152 -0.4813  2.6902  1.4829
  112SOL     OW  334   2.487   2.977   0.546  0.1528 -0.5611 -0.1044
  112SOL    HW1  335   2.443   3.063   0.512  0.3105 -0.3861 -0.9564
  112SOL    HW2  336   2.411   2.906   0.547  1.3573 -1.3202 -1.0998
  113SOL     OW  337   2.368   1.861   1.588  0.0237  0.1660 -0.6160
  113SOL    HW1  338   2.405   1.890   1.498  0.3433  2.0074  3.3544
  113SOL    HW2  339   2.431   1.901   1.665  3.2778  0.6303 -3.0165
  114SOL     OW  340   2.954   0.857   0.660 -0.4748 -0.1563 -0.2780
  114SOL    HW1  341   3.028   0.797   0.706  1.4342 -2.6047  0.0004
  114SOL    HW2  342   2.929   0.936   0.720  0.8949 -0.5568 -0.7583
  115SOL     OW  343   2.756   1.793   0.216 -0.1801  0.4902 -0.1959
  115SOL    HW1  344   2.802   1.768   0.299 -1.4305 -0.2960 -1.3522
  115SOL    HW2  345   2.821   1.808   0.135  0.3406 -2.0318  1.1213
  116SOL     OW  346   2.983   1.529   1.928  0.4982  0.3913 -0.1996
  116SOL    HW1  347   2.891   1.495   1.954  0.0547 -3.5384 -1.2336
  116SOL    HW2  348   3.055   1.477   1.978  0.8989 -0.3741  0.4926
  117SOL     OW  349   2.706   0.027   0.601 -0.1935 -0.0059 -0.5558
  117SOL    HW1  350   2.635   3.089   0.565  0.2072  1.6493  0.9311
  117SOL    HW2  351   2.720   0.096   0.523  2.0416  0.8292 -0.5984
  118SOL     OW  352   0.535   2.285   1.675  0.4396  0.4747  0.2941
  118SOL    HW1  353   0.593   2.328   1.751  1.2881  0.4753  1.5795
  118SOL    HW2  354   0.527   2.347   1.593 -0.4400 -0.3756 -1.1409
  119SOL     OW  355   1.861   2.160   1.045  0.0485 -0.5033  0.4726
  119SOL    HW1  356   1.954   2.132   1.064 -0.5838 -1.4714  2.0367
  119SOL    HW2  357   1.857   2.257   1.082  3.2161 -0.2941  0.1711
  120SOL     OW  358   0.169   1.634   2.189 -0.2111 -0.0337  0.2343
  120SOL    HW1  359   0.174   1.697   2.270  0.4354  0.0901  0.7950
  120SOL    HW2  360   0.227   1.673   2.116  1.6121  0.8278 -0.6459
  121SOL     OW  361   2.736   1.594   1.045 -0.5452 -0.1652  0.0446
  121SOL    HW1  362   2.717   1.628   1.138  1.5444 -1.9696  0.7725
  121SOL    HW2  363   2.839   1.595   1.039 -0.0251  1.2733  3.0446
  122SOL     OW  364   2.143   1.651   2.228 -0.2195  0.1547  0.2659
  122SOL    HW1  365   2.102   1.717   2.295  1.8263  0.4424 -0.5679
  122SOL    HW2  366   2.235   1.625   2.256 -5.3709  2.2525 -1.5178
  123SOL     OW  367   2.848   0.174   0.813 -0.0069 -0.2279  0.1190
  123SOL    HW1  368   2.868   0.099   0.880  0.4001 -0.4568  1.3505
  123SOL    HW2  369   2.801   0.136   0.735 -1.5366 -1.4965 -0.3048
  124SOL     OW  370   1.342   1.078   2.742 -0.1872 -0.0732 -0.1112
  124SOL    HW1  371   1.348   1.031   2.654 -0.6092 -0.1144  3.6612
  124SOL    HW2  372   1.433   1.083   2.789  1.9399  1.1893  0.6909
  125SOL     OW  373   0.412   1.323   2.647 -0.6362 -0.0368  0.4095
  125SOL    HW1  374   0.411   1.358   2.742 -1.4476  0.9603  0.5862
  125SOL    HW2  375   0.339   1.368   2.590 -2.2465 -0.9705 -0.1549
  126SOL     OW  376   2.757   2.178   0.298  0.2916  0.1013  0.3796
  126SOL    HW1  377   2.779   2.268   0.345 -2.0978  0.7096 -0.8029
  126SOL    HW2  378   2.805   2.110   0.353 -0.8202  0.5173 -1.0782
  127SOL     OW  379   0.736   1.702   0.930  0.2082  0.3822 -0.2366
  127SOL    HW1  380   0.641   1.720   0.963 -0.8647 -2.3052 -1.1496
  127SOL    HW2  381   0.739   1.731   0.833  0.4051 -0.5563 -2.0175
  128SOL     OW  382   1.424   0.886   0.154 -0.0878  0.1176 -0.1885
  128SOL    HW1  383   1.485   0.927   0.224 -1.4360 -0.8861  1.2420
  128SOL    HW2  384   1.444   0.929   0.061 -0.1861  1.0206 -3.7531
  129SOL     OW  385   2.369   1.797   1.166 -0.3261  0.0755 -0.7124
  129SOL    HW1  386   2.439   1.796   1.092  1.1401 -0.0319  1.1244
  129SOL    HW2  387   2.395   1.866   1.240 -0.4835 -0.6493  1.0338
  130SOL     OW  388   1.844   1.307   0.633 -0.3360  0.6582  0.5783
  130SOL    HW1  389   1.868   1.383   0.565  1.9847  3.5312 -1.1627
  130SOL    HW2  390   1.857   1.339   0.731 -1.4172 -0.0627  1.6698
  131SOL     OW  391   3.031   1.013   2.543 -0.2270  0.1952  0.2337
  131SOL    HW1  392   2.991   1.096   2.498  1.9488  1.0685 -0.1969
  131SOL    HW2  393   3.094   1.045   2.617 -0.7856  0.4628 -0.8919
  132SOL     OW  394   2.065   1.636   1.570  0.1403  0.1735  0.1370
  132SOL    HW1  395   2.092   1.725   1.529  1.1423  2.2499 -2.9468
  132SOL    HW2  396   2.144   1.594   1.621 -0.3015  0.0773 -0.8482
  133SOL     OW  397   0.110   1.572   2.985  0.0713  0.0010 -0.6253
  133SOL    HW1  398   0.195   1.600   2.938 -0.5338  1.2663 -0.5190
  133SOL    HW2  399   0.069   1.494   2.936  0.2081  1.8299  0.1340
  134SOL     OW  400   3.072   1.667   0.055  0.1997 -0.1443 -0.5355
  134SOL    HW1  401   0.011   1.643   3.095  2.0857 -3.5228 -0.5292
  134SOL    HW2  402   3.005   1.740   0.027  0.8306 -0.7039 -1.8019
  135SOL     OW  403   2.332   1.343   0.514  0.2304  0.4943 -0.3236
  135SOL    HW1  404   2.268   1.374   0.435 -2.8756  1.6969 -3.2086
  135SOL    HW2  405   2.426   1.368   0.483 -2.6838  2.0330 -0.8531
  136SOL     OW  406   1.926   1.307   1.359 -0.0720 -0.2937  0.9039
  136SOL    HW1  407   1.958   1.288   1.454 -1.4490 -0.4680 -2.4278
  136SOL    HW2  408   1.833   1.343   1.362  2.7493 -2.8239  0.2819
  137SOL     OW  409   2.677   2.338   0.716  0.1948  0.1370 -0.0745
  137SOL    HW1  410   2.581   2.301   0.696 -0.9460  2.0247 -1.1533
  137SOL    HW2  411   2.722   2.364   0.632  0.3576 -2.4615  1.5167
  138SOL     OW  412   1.330   0.185   1.640 -0.2679  0.0837  0.3379
  138SOL    HW1  413   1.419   0.145   1.628 -1.0551  1.1224 -1.2661
  138SOL    HW2  414   1.285   0.147   1.719  3.5949  0.0969 -0.8238
  139SOL     OW  415   2.514   0.262   2.964 -0.1804  0.0599  0.0830
  139SOL    HW1  416   2.526   0.317   2.878  2.0542  0.9366 -1.6890
  139SOL    HW2  417   2.595   0.262   3.031  0.0053  0.2861  2.0647
  140SOL     OW  418   1.702   2.181   2.574 -0.2694 -0.1929  0.0325
  140SOL    HW1  419   1.731   2.162   2.477 -0.4220  0.0229 -1.3184
  140SOL    HW2  420   1.727   2.106   2.636  0.1621  0.5747 -0.8355
  141SOL     OW  421   0.609   1.032   1.818 -0.1928  0.0940  0.1075
  141SOL    HW1  422   0.544   0.964   1.848  0.1461  1.8790 -1.0771
  141SOL    HW2  423   0.696   0.982   1.805  1.0325  0.0610 -0.1723
  142SOL     OW  424   2.551   2.898   0.090 -0.5631  1.5522  0.4204
  142SOL    HW1  425   2.456   2.865   0.099 -0.2192 -1.6183  0.6653
  142SOL    HW2  426   2.590   2.853   0.005  1.4741  0.5384  0.4748
  143SOL     OW  427   0.835   2.233   3.058  0.0540  0.1648 -0.3905
  143SOL    HW1  428   0.840   2.284   2.969 -2.7432 -1.2427  1.4622
  143SOL    HW2  429   0.736   2.222   3.085 -0.5434  1.2374  4.5258
  144SOL     OW  430   1.015   2.695   0.164 -0.6939  0.0242 -0.2040
  144SOL    HW1  431   1.077   2.714   0.086  0.6311 -2.7753 -0.1211
  144SOL    HW2  432   1.058   2.622   0.225  2.2091 -1.4537 -1.6451
  145SOL     OW  433   2.277   1.731   0.163  0.0853 -0.2435  0.5757
  145SOL    HW1  434   2.358   1.780   0.202 -3.1842  0.8107  0.8677
  145SOL    HW2  435   2.203   1.794   0.144  1.9463  0.0020 -0.7343
  146SOL     OW  436   2.724   2.637   2.957  0.8541 -0.0889  0.1787
  146SOL    HW1  437   2.683   2.688   2.884  2.4979  0.5752  1.4406
  146SOL    HW2  438   2.795   2.568   2.931 -1.7830  2.8551  1.3084
  147SOL     OW  439   2.713   2.036   1.416  0.0055  0.2845  0.5613
  147SOL    HW1  440   2.739   2.098   1.342  2.2374  1.3231  1.0861
  147SOL    HW2  441   2.730   1.937   1.385  0.4414 -0.8915 -2.5887
  148SOL     OW  442   2.046   0.290   0.195  0.0346 -0.5647  0.5399
  148SOL    HW1  443   2.121   0.353   0.158  0.5258  0.1433 -3.6135
  148SOL    HW2  444   1.957   0.344   0.198  0.5039 -0.7436 -0.1619
  149SOL     OW  445   1.063   1.417   2.740 -0.4924  0.3211 -0.2142
  149SOL    HW1  446   1.098   1.349   2.807 -0.2695  3.1281 -0.9392
  149SOL    HW2  447   0.968   1.388   2.716 -0.1586  0.9735  1.7773
  150SOL     OW  448   0.658   2.247   0.700 -0.5921 -0.4802 -0.2874
  150SOL    HW1  449   0.699   2.296   0.782 -1.6203  0.8224 -1.0202
  150SOL    HW2  450   0.713   2.168   0.670  0.6050  0.9583 -1.5970
  151SOL     OW  451   0.740   1.785   2.842  0.1320 -0.6363  0.0104
  151SOL    HW1  452   0.805   1.822   2.909 -3.3124 -0.0975 -2.6835
  151SOL    HW2  453   0.782   1.788   2.743 -0.2167 -1.1136 -0.0517
  152SOL     OW  454   2.579   1.433   0.445 -0.1238  0.6411 -0.1914
  152SOL    HW1  455   2.610   1.461   0.352  0.7502 -0.0515 -3.0119
  152SOL    HW2  456   2.656   1.399   0.500 -2.1668 -0.5339 -0.2191
  153SOL     OW  457   2.197   2.587   0.560  0.1729 -0.2834  0.3471
  153SOL    HW1  458   2.215   2.488   0.569  0.8724  0.7112  0.2132
  153SOL    HW2  459   2.120   2.609   0.494 -0.7475  0.7575  0.4704
  154SOL     OW  460   0.611   2.947   0.760  0.4089 -0.7335  0.1377
  154SOL    HW1  461   0.612   3.028   0.701  1.0864 -3.6642  1.0934
  154SOL    HW2  462   0.691   2.955   0.823  1.3638  0.7500  0.5769
  155SOL     OW  463   0.383   2.159   0.707 -0.1125 -0.1259  0.0157
  155SOL    HW1  464   0.483   2.176   0.700 -0.5583  1.1354  0.9045
  155SOL    HW2  465   0.344   2.241   0.758 -0.1534  1.9760  0.6765
  156SOL     OW  466   2.529   2.546   3.096 -0.3447 -0.3489 -0.3744
  156SOL    HW1  467   2.580   2.474   0.023 -1.4640  2.8121  1.5849
  156SOL    HW2  468   2.593   2.600   3.037  2.2263 -0.5244 -0.9784
  157SOL     OW  469   1.025   2.034   1.259  0.3057 -0.1098  0.2853
  157SOL    HW1  470   0.961   2.068   1.334 -1.3984  2.5128  0.4430
  157SOL    HW2  471   0.980   1.990   1.178 -0.6203  0.4782 -2.1442
  158SOL     OW  472   1.813   0.663   3.080 -0.7150 -0.1527  0.3670
  158SOL    HW1  473   1.816   0.570   3.040 -1.0604  0.0206  0.5332
  158SOL    HW2  474   1.793   0.738   3.012  1.1810 -1.2762 -0.0024
  159SOL     OW  475   0.926   0.437   3.034 -0.0754  0.3038  0.1048
  159SOL    HW1  476   0.944   0.470   0.006 -0.0172  0.0355 -0.1543
  159SOL    HW2  477   1.016   0.402   3.006 -0.3036  1.1492  1.1715
  160SOL     OW  478   1.213   1.381   0.031  0.3294  0.5795  0.0562
  160SOL    HW1  479   1.188   1.468   0.074  2.0089 -2.8444 -1.9764
  160SOL    HW2  480   1.270   1.320   0.086 -0.6205 -2.3014 -0.0310
  161SOL     OW  481   0.037   2.108   2.813 -0.0217 -0.2216 -0.4995
  161SOL    HW1  482   0.038   2.195   2.871 -0.4259  1.4396  1.9875
  161SOL    HW2  483   0.101   2.040   2.848 -1.6852  1.4847  2.0976
  162SOL     OW  484   0.677   2.661   1.007 -0.0223 -0.1376 -0.3901
  162SOL    HW1  485   0.741   2.748   1.001  1.5872  3.4251 -2.6895
  162SOL    HW2  486   0.614   2.662   1.091 -0.3533  1.5688 -0.4461
  163SOL     OW  487   3.001   1.137   3.059  0.5651  0.3633  0.1171
  163SOL    HW1  488   2.945   1.062   3.018  0.7328  0.1589  3.6064
  163SOL    HW2  489   2.982   1.149   0.038 -0.1939  0.1053  1.4623
  164SOL     OW  490   0.111   3.015   2.860 -0.4006  0.3377  0.8610
  164SOL    HW1  491   0.078   2.924   2.894 -1.7839  0.3059 -1.5738
  164SOL    HW2  492   0.192   3.045   2.908  1.6371  0.6603 -0.3389
  165SOL     OW  493   1.943   0.243   1.454 -0.3813  0.0103 -0.0701
  165SOL    HW1  494   1.909   0.334   1.419  2.6810  0.7413 -0.8806
  165SOL    HW2  495   1.882   0.173   1.412 -1.9192 -0.7913  2.0986
  166SOL     OW  496   1.726   0.210   1.240  0.3611  0.1466  0.2888
  166SOL    HW1  497   1.661   0.167   1.306  0.6439  2.0354  2.8337
  166SOL    HW2  498   1.704   0.176   1.146 -1.8236 -0.7210  1.1188
  167SOL     OW  499   0.993   0.335   1.879 -0.3432  1.2478 -0.0201
  167SOL    HW1  500   1.024   0.414   1.930 -1.7424 -0.0919 -1.3974
  167SOL    HW2  501   1.065   0.279   1.838  2.6341 -0.4503 -0.9816
  168SOL     OW  502   2.545   0.569   1.958 -0.3158 -0.2577 -0.1818
  168SOL    HW1  503   2.630   0.596   1.906  2.0210  1.1810 -4.1795
  168SOL    HW2  504   2.509   0.488   1.912 -2.0166 -2.9071 -1.0365
  169SOL     OW  505   0.281   1.525   0.119 -0.0994 -0.1161 -0.5145
  169SOL    HW1  506   0.268   1.528   0.017  0.5118 -0.3104  1.6662
  169SOL    HW2  507   0.231   1.444   0.162  0.3942 -1.8617  0.5946
  170SOL     OW  508   0.241   1.455   1.646  0.5320 -0.1599  0.0867
  170SOL    HW1  509   0.242   1.376   1.705 -0.2691  0.7033 -0.8782
  170SOL    HW2  510   0.165   1.516   1.680  0.2059 -0.5022  1.0484
  171SOL     OW  511   1.198   2.402   2.169  0.0017  0.7530  0.1562
  171SOL    HW1  512   1.114   2.354   2.197 -2.1139 -1.7191 -2.1153
  171SOL    HW2  513   1.196   2.497   2.199 -1.6095  1.6862 -0.1883
  172SOL     OW  514   0.547   2.484   1.498  0.7931 -0.1826  0.1263
  172SOL    HW1  515   0.637   2.525   1.522  0.3948  0.3833 -0.6993
  172SOL    HW2  516   0.530   2.482   1.398 -0.9482 -3.3240  0.0839
  173SOL     OW  517   1.473   2.276   0.925  0.2840 -0.5186 -0.1207
  173SOL    HW1  518   1.565   2.282   0.968  0.7576 -0.7983  0.3162
  173SOL    HW2  519   1.400   2.311   0.989 -4.6047 -1.6714  2.0086
  174SOL     OW  520   1.206   3.030   0.300 -0.0583 -0.0044 -0.2302
  174SOL    HW1  521   1.243   3.105   0.362 -0.2325 -0.3670  4.3256
  174SOL    HW2  522   1.141   2.975   0.353  0.4314  3.9211  0.8557
  175SOL     OW  523   1.009   1.108   3.121 -0.1878  0.0545  0.2115
  175SOL    HW1  524   1.083   1.171   0.026  1.2046 -1.1147  2.0034
  175SOL    HW2  525   1.045   1.024   3.072  1.1654 -0.5598  2.6012
  176SOL     OW  526   1.804   0.442   0.243 -0.5734 -1.2202 -0.0898
  176SOL    HW1  527   1.787   0.537   0.220 -0.6654 -2.2278 -0.2133
  176SOL    HW2  528   1.735   0.386   0.194  3.8949  2.9160  0.9630
  177SOL     OW  529   1.308   0.764   1.034 -0.0030  0.2776 -0.4339
  177SOL    HW1  530   1.235   0.770   0.963  0.2496 -1.4057 -1.0991
  177SOL    HW2  531   1.334   0.859   1.061 -0.3505  1.7650  0.0128
  178SOL     OW  532   2.707   1.666   2.856  0.1900  0.9066 -0.7044
  178SOL    HW1  533   2.642   1.617   2.924  0.8638 -1.6195  1.7357
  178SOL    HW2  534   2.777   1.600   2.824 -0.4679 -2.2807 -1.4919
  179SOL     OW  535   0.612   2.678   2.984 -0.4929  1.1915  0.6696
  179SOL    HW1  536   0.644   2.688   2.889  0.5570  1.8862  0.0323
  179SOL    HW2  537   0.680   2.717   3.054  0.8632  0.2773  1.5417
  180SOL     OW  538   1.802   1.560   1.583  0.1942 -0.0451 -0.7895
  180SOL    HW1  539   1.900   1.590   1.585  0.9165 -2.5584  0.1230
  180SOL    HW2  540   1.797   1.465   1.622 -3.8257 -2.0594  0.7441
  181SOL     OW  541   1.185   1.312   2.287  0.1900  0.3130  0.2300
  181SOL    HW1  542   1.116   1.265   2.228 -0.7770  0.2226  0.2018
  181SOL    HW2  543   1.209   1.398   2.240  0.3842 -1.6865  1.6028
  182SOL     OW  544   0.204   0.788   2.492 -0.6643 -0.3400  0.2103
  182SOL    HW1  545   0.233   0.881   2.517 -4.2454  3.1316 -0.1360
  182SOL    HW2  546   0.113   0.774   2.536  2.8184  2.2726  0.1820
  183SOL     OW  547   1.604   0.539   2.390 -0.1057 -0.0567 -0.2343
  183SOL    HW1  548   1.507   0.512   2.401  0.8440  0.8023  1.2463
  183SOL    HW2  549   1.642   0.578   2.478 -1.9877  1.2142 -0.4489
  184SOL     OW  550   0.133   0.439   1.394 -0.4529  0.8112  0.1590
  184SOL    HW1  551   0.148   0.505   1.318 -1.6044  4.5564  3.6138
  184SOL    HW2  552   0.040   0.396   1.385 -1.4676 -1.7550  0.8346
  185SOL     OW  553   2.532   1.803   0.944 -0.0923  0.0984 -0.1286
  185SOL    HW1  554   2.571   1.889   0.910  1.1505  0.7422 -1.7824
  185SOL    HW2  555   2.605   1.731   0.944 -0.2614  2.7214  2.6734
  186SOL     OW  556   0.610   1.966   2.539 -0.2342 -0.4924 -0.3978
  186SOL    HW1  557   0.540   1.897   2.539 -0.7921  0.5092  0.2583
  186SOL    HW2  558   0.615   2.014   2.632 -0.0630  1.4206  1.9449
  187SOL     OW  559   2.543   2.241   3.053 -0.0954  0.2813  0.4254
  187SOL    HW1  560   2.644   2.238   3.070 -2.9980  1.1513  0.9250
  187SOL    HW2  561   2.494   2.275   0.011 -1.6339  0.1395 -5.0521
  188SOL     OW  562   0.923   2.307   0.318 -0.2668 -0.1374 -0.3453
  188SOL    HW1  563   0.926   2.205   0.313  1.0837  0.9087  1.2306
  188SOL    HW2  564   0.822   2.331   0.306 -5.8047 -0.3197 -1.1057
  189SOL     OW  565   2.467   0.911   3.036  0.0885  0.1665  0.2667
  189SOL    HW1  566   2.412   0.905   2.951  1.3946  0.6587  0.6005
  189SOL    HW2  567   2.443   0.982   3.102  0.5887  0.6517 -0.7349
  190SOL     OW  568   1.082   1.916   1.965 -0.1787  0.6176  0.1564
  190SOL    HW1  569   1.003   1.928   1.900  0.0980  1.5497  0.0081
  190SOL    HW2  570   1.130   2.004   1.979 -0.3566 -2.4280 -1.8084
  191SOL     OW  571   2.104   0.719   1.401 -0.2105  0.6306 -0.5329
  191SOL    HW1  572   2.129   0.652   1.473 -0.3553 -0.8116  0.4567
  191SOL    HW2  573   2.084   0.676   1.308  0.2523 -0.0191 -1.4922
  192SOL     OW  574   2.080   0.155   1.935 -0.2607 -0.2310  0.2615
  192SOL    HW1  575   2.043   0.159   2.032 -1.2743  1.8242  4.7596
  192SOL    HW2  576   2.015   0.123   1.863 -3.0489 -2.0126 -0.8812
  193SOL     OW  577   0.081   0.726   0.780  0.0037 -0.6286 -0.2722
  193SOL    HW1  578   0.131   0.675   0.846 -2.5916  2.1994 -0.5993
  193SOL    HW2  579   0.091   0.688   0.689 -0.7239  0.4244 -0.4421
  194SOL     OW  580   1.823   2.558   1.470  0.4912  0.1563 -0.2602
  194SOL    HW1  581   1.743   2.541   1.409 -0.8590  1.2779 -2.4292
  194SOL    HW2  582   1.841   2.473   1.527 -0.3309  0.4482  2.0108
  195SOL     OW  583   2.565   0.863   0.727  0.0469  0.1653  0.0792
  195SOL    HW1  584   2.486   0.821   0.675  1.3732  0.8547  1.2178
  195SOL    HW2  585   2.627   0.786   0.761  2.0862 -1.3004  0.6035
  196SOL     OW  586   1.312   2.111   1.974  0.6997  0.2300  0.0242
  196SOL    HW1  587   1.343   2.096   2.072 -0.8518 -0.0223 -0.5647
  196SOL    HW2  588   1.319   2.026   1.914  2.5861 -1.6903 -2.1557
  197SOL     OW  589   3.036   0.045   2.751 -0.0134 -0.7712  0.3096
  197SOL    HW1  590   3.109   3.102   2.765 -1.8438  1.9605  0.1879
  197SOL    HW2  591   3.007   0.092   2.838 -1.4895 -0.5805 -0.0837
  198SOL     OW  592   1.123   1.176   0.767  0.2384 -0.3331 -0.1728
  198SOL    HW1  593   1.219   1.144   0.792 -1.3506  0.4405  0.6649
  198SOL    HW2  594   1.056   1.105   0.746  0.1352 -0.4673  0.4655
  199SOL     OW  595   2.688   0.947   1.754  0.0109  0.3222  0.4263
  199SOL    HW1  596   2.744   0.909   1.675 -2.1736  0.4311  0.2826
  199SOL    HW2  597   2.596   0.907   1.748  1.9532 -2.9204 -0.1730
  200SOL     OW  598   2.198   2.786   2.372 -0.2881 -0.1917 -0.1874
  200SOL    HW1  599   2.125   2.844   2.330 -0.4295  1.3715  1.2508
  200SOL    HW2  600   2.233   2.713   2.309  0.1469 -4.7503 -0.8690
  201SOL     OW  601   2.597   0.355   1.589  0.0076  0.0060  0.2443
  201SOL    HW1  602   2.664   0.287   1.607 -0.3063  2.7654 -1.2095
  201SOL    HW2  603   2.585   0.367   1.490  0.3272  2.3251 -0.2666
  202SOL     OW  604   2.357   0.070   0.432 -0.4119 -0.1733  0.2152
  202SOL    HW1  605   2.270   0.097   0.468  1.6307 -0.1326  0.0208
  202SOL    HW2  606   2.360   0.100   0.333 -0.3780 -0.9644  1.8418
  203SOL     OW  607   1.235   2.130   2.409  0.0163  0.2495 -0.4026
  203SOL    HW1  608   1.133   2.126   2.386  0.2173 -1.9390  0.3318
  203SOL    HW2  609   1.254   2.216   2.461 -0.1313 -1.6500  1.3085
  204SOL     OW  610   0.772   1.550   2.473 -0.1582 -0.3146 -0.9025
  204SOL    HW1  611   0.804   1.477   2.536  0.1673  0.0056 -0.0162
  204SOL    HW2  612   0.815   1.541   2.381 -0.0830 -1.5457 -0.0192
  205SOL     OW  613   1.028   1.416   1.500  0.5310 -0.3193  0.1556
  205SOL    HW1  614   1.036   1.457   1.405  2.9639 -0.8057 -1.1760
  205SOL    HW2  615   1.105   1.352   1.518  0.7704 -0.6125 -1.6827
  206SOL     OW  616   0.245   0.490   2.779 -0.1355 -0.4463 -0.0953
  206SOL    HW1  617   0.205   0.415   2.722 -0.5579 -1.2056 -2.2447
  206SOL    HW2  618   0.283   0.437   2.861  1.7957 -0.3289 -0.5241
  207SOL     OW  619   1.883   2.620   2.459  0.8566 -0.2183 -0.1993
  207SOL    HW1  620   1.906   2.522   2.443 -2.3296  0.8246  0.4651
  207SOL    HW2  621   1.956   2.687   2.441 -2.3580  1.2550  0.8393
  208SOL     OW  622   0.760   2.318   1.223  0.2130  0.0908 -0.3170
  208SOL    HW1  623   0.819   2.400   1.243  0.2736  1.6128  2.1046
  208SOL    HW2  624   0.816   2.250   1.177  2.9945  0.5368 -0.4858
  209SOL     OW  625   1.100   1.067   2.471  0.1763  0.0099 -0.1490
  209SOL    HW1  626   1.115   1.163   2.439  0.1762  0.1111  0.1426
  209SOL    HW2  627   1.018   1.050   2.526  0.8234 -4.4958  0.1386
  210SOL     OW  628   1.955   1.068   1.037 -0.4067  0.7375  0.2456
  210SOL    HW1  629   1.909   1.057   1.132 -2.3340  2.6445 -0.0163
  210SOL    HW2  630   1.883   1.053   0.968  1.1551  0.8045 -0.8788
  211SOL     OW  631   0.873   2.571   0.513  0.8284  0.3859 -0.0970
  211SOL    HW1  632   0.810   2.505   0.471  1.1211  2.2184  1.0383
  211SOL    HW2  633   0.961   2.569   0.475 -5.3621  2.9106  0.3788
  212SOL     OW  634   1.879   1.858   0.233  0.4309 -0.1046 -0.0932
  212SOL    HW1  635   1.781   1.877   0.203 -3.4160  1.7098 -2.5433
  212SOL    HW2  636   1.904   1.893   0.325  2.3730  0.0691  0.7570
  213SOL     OW  637   1.765   0.415   2.975  0.0501  0.6512  0.0216
  213SOL    HW1  638   1.737   0.381   3.065 -1.2416 -0.5996 -0.6245
  213SOL    HW2  639   1.841   0.359   2.939  1.2945 -1.1418  0.1489
  214SOL     OW  640   1.227   1.817   2.198  0.4342 -0.1737 -0.3192
  214SOL    HW1  641   1.185   1.822   2.104 -2.0511  0.0604  0.7486
  214SOL    HW2  642   1.155   1.804   2.270 -0.7240 -0.9844 -1.3037
  215SOL     OW  643   0.829   1.801   0.236  0.1754  0.4253  0.4715
  215SOL    HW1  644   0.774   1.830   0.158 -1.2331  3.0401 -0.0233
  215SOL    HW2  645   0.778   1.732   0.284  1.4227  2.3448 -0.0987
  216SOL     OW  646   0.300   2.777   2.525  0.1065 -0.7882  0.6399
  216SOL    HW1  647   0.379   2.715   2.528  0.6611  1.3536  0.8031
  216SOL    HW2  648   0.234   2.759   2.446  0.7314 -1.1101 -3.8701
  217SOL     OW  649   2.413   0.861   0.989  0.2243 -0.5828  0.5613
  217SOL    HW1  650   2.461   0.880   0.898  0.5173  1.4545  0.1069
  217SOL    HW2  651   2.426   0.762   1.010  0.4698  0.2594 -0.0063
  218SOL     OW  652   1.998   1.551   1.981  0.0394 -0.0346 -0.0923
  218SOL    HW1  653   2.024   1.588   2.070 -1.9233 -1.7273 -2.5536
  218SOL    HW2  654   2.021   1.451   1.968  0.4661  0.1642  0.0084
  219SOL     OW  655   1.963   1.591   0.232 -0.6031 -0.6261  0.4426
  219SOL    HW1  656   1.921   1.565   0.143  1.2675 -2.7439 -2.0237
  219SOL    HW2  657   1.932   1.684   0.259 -4.2779 -0.3580 -0.5003
  220SOL     OW  658   1.608   1.160   0.684 -0.0776 -0.3667 -0.2776
  220SOL    HW1  659   1.530   1.215   0.649  3.0995  0.0211 -1.2838
  220SOL    HW2  660   1.700   1.204   0.655  3.0133  1.4423 -1.4417
  221SOL     OW  661   0.521   0.548   2.838  0.0737  0.1765  0.7862
  221SOL    HW1  662   0.566   0.606   2.904 -0.0329 -2.1957 -1.2749
  221SOL    HW2  663   0.419   0.568   2.829 -0.7010  1.9893  0.0381
  222SOL     OW  664   1.424   1.320   0.240  0.4628  0.0372 -0.3509
  222SOL    HW1  665   1.476   1.364   0.316 -3.5793  1.9288  0.3661
  222SOL    HW2  666   1.329   1.294   0.273 -1.5330  0.1225 -0.6115
  223SOL     OW  667   1.054   0.080   0.150  0.3143 -0.2896  0.8274
  223SOL    HW1  668   1.110   0.011   0.205 -0.2533 -0.7843  2.1175
  223SOL    HW2  669   0.979   0.119   0.209  1.2738  2.1795 -0.8252
  224SOL     OW  670   2.220   0.130   1.489 -0.6657  0.1312  0.0505
  224SOL    HW1  671   2.131   0.186   1.500  1.7079 -0.9518  0.6790
  224SOL    HW2  672   2.242   0.082   1.575 -0.5413  1.0255 -2.3249
  225SOL     OW  673   0.326   3.038   1.186 -0.1105 -0.0283 -0.3617
  225SOL    HW1  674   0.351   0.006   1.230  3.2868 -1.4481  2.4130
  225SOL    HW2  675   0.260   3.040   1.106 -2.3663 -0.4412 -0.1338
  226SOL     OW  676   1.185   1.243   2.898 -0.6593  0.1742 -0.1849
  226SOL    HW1  677   1.242   1.182   2.840 -1.2771  0.5858  1.1206
  226SOL    HW2  678   1.240   1.300   2.972  1.8127  2.1361  3.1791
  227SOL     OW  679   1.221   1.595   0.897 -0.1993  0.1869 -0.2645
  227SOL    HW1  680   1.283   1.657   0.843 -2.5362 -0.8014 -0.7598
  227SOL    HW2  681   1.270   1.520   0.945 -1.0111  0.7502 -1.8350
  228SOL     OW  682   0.458   1.668   0.542  0.3120  0.5177  0.6359
  228SOL    HW1  683   0.446   1.583   0.490  0.3985  0.0135 -2.5135
  228SOL    HW2  684   0.385   1.684   0.610  1.5872  3.4547  1.4731
  229SOL     OW  685   1.371   0.415   0.022  0.1706  0.4018  0.1822
  229SOL    HW1  686   1.383   0.478   3.063  3.2283 -2.0833 -0.8287
  229SOL    HW2  687   1.296   0.345   0.002 -3.7891  0.0116  0.2674
  230SOL     OW  688   1.768   0.604   2.619  0.2340 -0.3648  0.0435
  230SOL    HW1  689   1.836   0.529   2.610  1.6001  1.2815 -0.1741
  230SOL    HW2  690   1.821   0.688   2.630  1.6368 -3.2508 -1.6712
  231SOL     OW  691   1.319   1.914   2.603  0.3728  0.0252  0.0501
  231SOL    HW1  692   1.239   1.938   2.654 -0.9513  1.4705 -3.0582
  231SOL    HW2  693   1.311   1.967   2.518  1.0428 -2.0159 -0.5557
  232SOL     OW  694   2.414   2.213   0.723  0.3938  0.2133 -0.6644
  232SOL    HW1  695   2.341   2.278   0.758  0.3690 -0.5037  1.5409
  232SOL    HW2  696   2.380   2.168   0.636 -0.3727  1.0953 -2.0774
  233SOL     OW  697   2.666   2.846   0.373  0.1923  0.5427  0.4875
  233SOL    HW1  698   2.634   2.830   0.277 -0.1688  1.6326  0.2450
  233SOL    HW2  699   2.599   2.896   0.431 -1.6119 -3.5109 -4.2193
  234SOL     OW  700   0.758   0.422   2.808 -0.1784 -0.0073  1.0906
  234SOL    HW1  701   0.675   0.480   2.801 -1.9767  2.4696 -0.2433
  234SOL    HW2  702   0.800   0.434   2.898 -0.7309 -1.2692 -1.7050
  235SOL     OW  703   2.774   0.321   2.580 -0.1661 -0.0539  0.4528
  235SOL    HW1  704   2.727   0.314   2.489 -0.7242 -1.9912  3.1826
  235SOL    HW2  705   2.709   0.369   2.644  0.4090  1.4196 -0.5902
  236SOL     OW  706   2.015   2.853   1.668 -0.6817  0.0648 -0.5201
  236SOL    HW1  707   1.927   2.830   1.713  1.2055  1.3960  1.4170
  236SOL    HW2  708   2.082   2.869   1.740 -2.5884 -1.5830 -0.9607
  237SOL     OW  709   0.556   1.567   2.104  0.4564  0.5712  0.4150
  237SOL    HW1  710   0.532   1.661   2.131  0.8360 -2.4919 -1.1531
  237SOL    HW2  711   0.542   1.497   2.178  0.8437 -1.5466 -0.7433
  238SOL     OW  712   1.616   0.212   2.836 -0.2294  0.0769 -0.0222
  238SOL    HW1  713   1.640   0.310   2.841 -0.1944 -1.2496  0.8571
  238SOL    HW2  714   1.676   0.163   2.772 -1.9710 -1.6663  0.5062
  239SOL     OW  715   0.215   2.206   1.613 -0.0141 -0.5000  0.2229
  239SOL    HW1  716   0.249   2.251   1.697 -2.2407 -0.2543 -1.2823
  239SOL    HW2  717   0.220   2.106   1.624  1.8408 -0.6427 -0.6955
  240SOL     OW  718   3.031   2.396   0.942 -0.6318  0.6793 -0.0875
  240SOL    HW1  719   3.005   2.494   0.920 -0.4751 -0.4039 -1.3240
  240SOL    HW2  720   3.089   2.390   1.027  0.9074 -1.4871 -0.5446
  241SOL     OW  721   2.413   1.167   0.732 -0.0167 -0.0526 -0.6069
  241SOL    HW1  722   2.330   1.107   0.733 -0.5011 -2.5386  1.5990
  241SOL    HW2  723   2.405   1.269   0.712  0.2185  2.0241 -0.2782
  242SOL     OW  724   2.081   2.000   2.707 -0.4338  0.1999 -0.2187
  242SOL    HW1  725   2.056   2.032   2.609  0.5938  0.6868 -4.2024
  242SOL    HW2  726   2.135   1.914   2.709 -0.8109 -1.2044  1.0736
  243SOL     OW  727   0.782   2.604   1.555  0.2741 -0.4136 -0.0987
  243SOL    HW1  728   0.831   2.662   1.489 -0.3224  0.9890  0.4246
  243SOL    HW2  729   0.784   2.644   1.646  0.5087 -2.9087 -2.6850
  244SOL     OW  730   2.208   0.029   3.063  0.1342  0.2717  0.5142
  244SOL    HW1  731   2.162   3.108   0.017  1.0578 -0.1016 -0.4758
  244SOL    HW2  732   2.216   3.089   2.984 -1.1479  1.5198  0.4208
  245SOL     OW  733   1.256   2.986   1.336 -0.0619 -0.4550  0.0723
  245SOL    HW1  734   1.210   3.056   1.390  0.3404  1.1403  0.0805
  245SOL    HW2  735   1.312   2.931   1.399  3.3369  0.7442 -2.3185
  246SOL     OW  736   1.683   2.525   0.282  0.0261  0.0821 -0.1877
  246SOL    HW1  737   1.705   2.432   0.250  0.4916  0.2544  0.0629
  246SOL    HW2  738   1.762   2.586   0.267  1.6921 -3.1997  0.6838
  247SOL     OW  739   1.402   0.367   2.422  0.0117  0.4130 -0.3005
  247SOL    HW1  740   1.309   0.413   2.413 -1.1062 -1.2458 -3.7817
  247SOL    HW2  741   1.402   0.311   2.511 -2.2491  0.1636  1.0876
  248SOL     OW  742   0.544   1.905   1.827 -0.0176  0.0524 -0.2760
  248SOL    HW1  743   0.519   1.970   1.753  1.2078  0.6424  0.3863
  248SOL    HW2  744   0.518   1.811   1.796 -1.7512 -0.3207 -0.0706
  249SOL     OW  745   2.154   0.289   0.472 -0.2289  0.2224 -0.0776
  249SOL    HW1  746   2.100   0.276   0.383  0.7834  0.8076 -2.2857
  249SOL    HW2  747   2.146   0.379   0.516  2.8754  1.8076  0.0447
  250SOL     OW  748   0.109   0.613   0.523 -0.7938 -0.5600  0.0642
  250SOL    HW1  749   0.192   0.643   0.475 -0.8031  0.6681 -0.3881
  250SOL    HW2  750   0.026   0.628   0.468 -0.1393 -0.8322  0.8100
  251SOL     OW  751   1.420   0.616   2.967 -0.1311 -0.9043 -0.4252
  251SOL    HW1  752   1.451   0.714   2.981 -0.5923  0.1718 -2.1883
  251SOL    HW2  753   1.464   0.582   2.881 -1.1699  2.0816  0.2627
  252SOL     OW  754   1.715   1.824   2.084  0.5358  0.4803  0.2307
  252SOL    HW1  755   1.756   1.784   2.000 -1.1496  2.5986  2.7261
  252SOL    HW2  756   1.650   1.756   2.132 -1.4390  1.4816  1.5921
  253SOL     OW  757   2.571   2.380   1.681 -0.0116 -0.3859 -0.0297
  253SOL    HW1  758   2.531   2.362   1.776  1.8369  0.6109 -0.8329
  253SOL    HW2  759   2.620   2.295   1.657 -1.7090  0.5869 -1.5096
  254SOL     OW  760   2.792   1.326   1.072  0.1474  0.3313 -0.2123
  254SOL    HW1  761   2.773   1.417   1.035 -2.0944 -1.5972 -1.3958
  254SOL    HW2  762   2.831   1.331   1.165  1.5778  0.2576  1.0547
  255SOL     OW  763   1.025   0.479   1.177  0.0107 -0.6727  0.6509
  255SOL    HW1  764   0.937   0.481   1.228 -1.4554 -2.9407  2.2754
  255SOL    HW2  765   1.101   0.520   1.229 -2.0970  1.0780  0.0589
  256SOL     OW  766   1.889   2.323   1.617  0.6252  0.4024 -0.1239
  256SOL    HW1  767   1.974   2.294   1.562 -1.1572  0.4916  1.0001
  256SOL    HW2  768   1.845   2.246   1.667  1.8174  3.8822  1.2631
  257SOL     OW  769   0.724   2.939   2.430  0.2705  0.2501  0.4195
  257SOL    HW1  770   0.804   2.934   2.496  2.1962  1.1729 -2.0137
  257SOL    HW2  771   0.756   2.911   2.339 -1.2533  0.3094 -2.0523
  258SOL     OW  772   1.070   2.253   0.075 -0.4055 -0.3430 -0.2057
  258SOL    HW1  773   0.978   2.224   0.051  2.8831 -0.9433 -2.6704
  258SOL    HW2  774   1.074   2.295   0.166  1.7247 -0.0677 -0.4245
  259SOL     OW  775   1.216   2.926   2.638  0.2914  0.3858 -0.6719
  259SOL    HW1  776   1.227   2.825   2.662  0.8937 -2.1703 -0.9671
  259SOL    HW2  777   1.307   2.955   2.609  0.8297 -0.0161  1.4324
  260SOL     OW  778   1.734   0.614   1.063 -0.0896  0.1590 -0.3489
  260SOL    HW1  779   1.707   0.668   0.979 -1.3948  1.7435 -0.1246
  260SOL    HW2  780   1.677   0.528   1.073  0.9139 -1.4229  0.9661
  261SOL     OW  781   0.466   0.290   2.536  0.2907 -0.3086  0.1131
  261SOL    HW1  782   0.392   0.309   2.463 -0.0735 -3.7674  3.3771
  261SOL    HW2  783   0.556   0.340   2.519 -0.6948 -0.5752  2.5557
  262SOL     OW  784   0.260   2.014   1.999 -0.0638  0.4471 -0.0711
  262SOL    HW1  785   0.290   2.047   2.093 -2.9546  1.3549  1.8979
  262SOL    HW2  786   0.273   2.088   1.929  0.5832 -0.7600 -1.7229
  263SOL     OW  787   2.579   1.318   2.343 -0.1230  0.3816 -0.3952
  263SOL    HW1  788   2.539   1.233   2.387 -0.6935  0.9855 -0.1075
  263SOL    HW2  789   2.608   1.377   2.422 -0.7824 -1.2177 -1.7215
  264SOL     OW  790   0.913   1.230   0.944 -0.6005  0.4084 -0.1002
  264SOL    HW1  791   0.845   1.201   0.878 -0.5463 -1.6496  1.4962
  264SOL    HW2  792   1.004   1.239   0.903  0.7191 -0.3790 -0.3732
  265SOL     OW  793   1.274   2.427   1.107  0.0804  0.3382 -0.3359
  265SOL    HW1  794   1.220   2.371   1.168 -1.5344 -2.5317 -4.6896
  265SOL    HW2  795   1.342   2.478   1.164  0.8078 -2.3940 -0.3566
  266SOL     OW  796   1.624   1.120   1.206  0.3954  0.0299 -0.3813
  266SOL    HW1  797   1.709   1.066   1.220 -1.4914  0.0270  0.5631
  266SOL    HW2  798   1.627   1.175   1.125 -1.4003  0.9328  0.0110
  267SOL     OW  799   2.571   1.236   3.001  0.3794 -0.4363 -0.4167
  267SOL    HW1  800   2.608   1.165   2.937 -1.1569 -3.8263 -0.9882
  267SOL    HW2  801   2.544   1.195   3.089  2.8210  0.7250  0.7263
  268SOL     OW  802   1.278   0.414   0.295 -0.1766 -0.1480  0.0952
  268SOL    HW1  803   1.340   0.349   0.338 -0.3721 -1.3915  0.5250
  268SOL    HW2  804   1.299   0.422   0.192  1.1118 -0.0933  1.3384
  269SOL     OW  805   2.587   0.452   2.755 -0.2269 -0.4162 -0.2515
  269SOL    HW1  806   2.607   0.541   2.805  3.7066  2.8092  1.4407
  269SOL    HW2  807   2.490   0.448   2.719 -1.7504  1.4119 -4.3751
  270SOL     OW  808   0.285   1.018   2.828  0.2675 -0.2013 -0.7703
  270SOL    HW1  809   0.354   0.955   2.787  0.3925  0.4382 -0.2058
  270SOL    HW2  810   0.326   1.059   2.910 -0.3326 -1.7226  0.1472
  271SOL     OW  811   2.948   1.075   0.199 -0.3335 -0.2673  0.6130
  271SOL    HW1  812   2.864   1.021   0.215 -1.2237  2.4811 -1.3375
  271SOL    HW2  813   2.963   1.150   0.267  0.1111  2.8551 -0.9076
  272SOL     OW  814   2.850   2.625   2.583  0.2843 -0.1648  0.3850
  272SOL    HW1  815   2.910   2.666   2.513 -2.2821  1.1265 -0.7584
  272SOL    HW2  816   2.888   2.532   2.605  0.5027 -0.9292 -1.2562
  273SOL     OW  817   2.909   2.941   2.839 -0.1068  0.3736 -0.4177
  273SOL    HW1  818   2.926   3.042   2.853  0.0975 -2.0431  2.4995
  273SOL    HW2  819   2.978   2.888   2.891  3.2107  0.1336 -2.8843
  274SOL     OW  820   0.807   2.413   0.927  0.9585 -0.2050  0.4590
  274SOL    HW1  821   0.756   2.503   0.948 -3.3397  1.4778 -1.3396
  274SOL    HW2  822   0.893   2.434   0.878  0.8307 -1.9359  0.2205
  275SOL     OW  823   2.366   1.074   0.366 -0.4083  0.2346 -0.3728
  275SOL    HW1  824   2.323   1.154   0.414  1.6297  0.7657 -1.5003
  275SOL    HW2  825   2.413   1.010   0.430 -3.0718  0.5419 -1.2945
  276SOL     OW  826   2.829   1.172   1.801  0.1363  0.1872  0.4046
  276SOL    HW1  827   2.780   1.087   1.777 -0.3466 -0.2227 -0.1277
  276SOL    HW2  828   2.769   1.252   1.791  0.5231 -3.9034  3.0903
  277SOL     OW  829   2.209   0.097   1.104  0.5737 -0.3637  0.1018
  277SOL    HW1  830   2.148   0.030   1.145 -1.0899  0.4496 -1.1873
  277SOL    HW2  831   2.307   0.077   1.137  0.9410  0.1769  1.8824
  278SOL     OW  832   1.672   2.546   2.615 -0.5012 -0.1168  0.5818
  278SOL    HW1  833   1.750   2.574   2.558  0.3439 -0.2318 -0.8917
  278SOL    HW2  834   1.606   2.493   2.562  0.8482 -3.8342 -0.1182
  279SOL     OW  835   1.665   1.965   1.060  0.0869  0.3681  0.2571
  279SOL    HW1  836   1.661   1.936   1.157  0.4945 -2.9758 -0.2931
  279SOL    HW2  837   1.735   2.031   1.046 -0.2337 -4.1811 -0.4331
  280SOL     OW  838   0.426   1.426   0.789 -0.0164 -0.1705 -0.2256
  280SOL    HW1  839   0.359   1.500   0.783  0.9062 -1.5732 -0.1153
  280SOL    HW2  840   0.443   1.405   0.885 -0.5344  1.0817 -1.1436
  281SOL     OW  841   2.899   1.208   2.393  0.3717 -0.0526 -0.6969
  281SOL    HW1  842   2.837   1.212   2.315  1.8239  1.1445  1.7213
  281SOL    HW2  843   2.964   1.289   2.396  2.9902  0.7089  2.6570
  282SOL     OW  844   0.517   1.566   3.094 -0.2242  0.5402 -0.0773
  282SOL    HW1  845   0.452   1.534   0.034  3.6984  1.3154  2.7240
  282SOL    HW2  846   0.600   1.508   3.103 -2.0693 -0.4867 -1.7534
  283SOL     OW  847   2.361   2.571   0.209 -0.5269  0.0002 -0.3151
  283SOL    HW1  848   2.310   2.660   0.195  0.5169  1.7412  0.8126
  283SOL    HW2  849   2.403   2.542   0.117  2.3210  0.5358  2.4291
  284SOL     OW  850   0.825   0.099   0.724  0.2573  0.7566 -0.1226
  284SOL    HW1  851   0.906   0.062   0.673  2.7830  0.3024 -1.8738
  284SOL    HW2  852   0.738   0.093   0.669  1.7222  2.7471 -0.1709
  285SOL     OW  853   2.322   1.169   2.663 -0.1181 -0.3932  0.0179
  285SOL    HW1  854   2.383   1.095   2.704  2.0018 -4.0802  1.6612
  285SOL    HW2  855   2.228   1.177   2.706 -1.7895  0.0391 -3.0350
  286SOL     OW  856   1.947   2.582   0.998 -0.3207 -0.0510 -0.3095
  286SOL    HW1  857   1.959   2.571   1.101 -1.0440 -2.2417  2.0625
  286SOL    HW2  858   2.025   2.620   0.951 -0.8621 -1.2379  0.9127
  287SOL     OW  859   1.105   0.312   0.755 -0.5613  0.0169  0.0838
  287SOL    HW1  860   1.064   0.296   0.663 -2.1217  0.7765 -0.6164
  287SOL    HW2  861   1.065   0.395   0.804  1.0719 -0.7093 -0.0770
  288SOL     OW  862   0.881   2.404   2.843  0.2714 -0.2083  0.3626
  288SOL    HW1  863   0.846   2.498   2.818 -1.6809  0.7308  0.1320
  288SOL    HW2  864   0.965   2.409   2.900  1.4509 -0.6725  0.9008
  289SOL     OW  865   3.013   1.589   0.950  0.0138 -0.1507  0.4971
  289SOL    HW1  866   3.082   1.605   0.870  2.7820 -1.0346 -0.2371
  289SOL    HW2  867   3.063   1.590   1.040 -0.6412  0.4716 -0.8100
  290SOL     OW  868   1.411   1.947   0.993  0.2741 -0.0710  0.0201
  290SOL    HW1  869   1.510   1.950   1.008 -0.6267  1.9548 -4.5068
  290SOL    HW2  870   1.383   2.037   0.948  0.1509  1.2327  1.8951
  291SOL     OW  871   1.490   3.005   0.189  0.0131 -0.0631  0.2451
  291SOL    HW1  872   1.391   2.979   0.191  1.3754 -1.3486 -2.3183
  291SOL    HW2  873   1.537   2.963   0.105 -0.8285  1.5713  0.3032
  292SOL     OW  874   0.464   0.194   1.931 -0.1782  0.2652  0.0417
  292SOL    HW1  875   0.522   0.251   1.996  2.4997  1.8939 -1.0067
  292SOL    HW2  876   0.528   0.149   1.863 -1.1049 -0.3193 -1.3335
  293SOL     OW  877   2.466   1.956   1.354 -0.3396  0.2997  0.1485
  293SOL    HW1  878   2.557   2.000   1.378 -1.6355  1.7797  0.0457
  293SOL    HW2  879   2.404   2.034   1.330 -1.6078 -0.7077 -1.7644
  294SOL     OW  880   1.052   0.218   2.427  0.0259  0.5471  0.2479
  294SOL    HW1  881   1.095   0.293   2.481 -0.9190  1.2688 -2.0951
  294SOL    HW2  882   0.975   0.178   2.472  0.3203 -0.1798 -3.4205
  295SOL     OW  883   1.642   1.692   1.268 -0.0866  0.1202 -0.4850
  295SOL    HW1  884   1.676   1.615   1.332  0.1849 -1.4195 -0.0933
  295SOL    HW2  885   1.651   1.781   1.316 -0.9309 -0.8917  1.4879
  296SOL     OW  886   2.507   1.850   0.261  0.7992  0.0868  0.1165
  296SOL    HW1  887   2.492   1.954   0.257  0.9596  2.8852 -2.0102
  296SOL    HW2  888   2.596   1.827   0.225 -2.1006  2.4432  0.2978
  297SOL     OW  889   2.741   0.176   0.379  0.5030  0.1110 -0.4864
  297SOL    HW1  890   2.749   0.099   0.310 -3.7594  3.5978  2.5521
  297SOL    HW2  891   2.755   0.270   0.344  1.6384 -1.1173  1.1140
  298SOL     OW  892   0.876   3.120   2.795  0.4741 -0.0100  0.3775
  298SOL    HW1  893   0.887   3.071   2.884 -1.0745  1.2711  1.7190
  298SOL    HW2  894   0.809   0.071   2.809  1.7522 -2.1090 -0.5546
  299SOL     OW  895   0.756   2.169   2.134  0.2652 -0.1415 -0.6499
  299SOL    HW1  896   0.757   2.091   2.072 -2.4932  1.1970  1.2286
  299SOL    HW2  897   0.707   2.143   2.221 -1.9022 -0.0874  2.0586
  300SOL     OW  898   2.800   3.031   2.355  0.5936  0.4166  0.1748
  300SOL    HW1  899   2.855   3.087   2.292 -3.1831  0.8305  1.2115
  300SOL    HW2  900   2.850   2.945   2.375  1.5749 -1.2262 -1.0671
  301SOL     OW  901   1.009   0.807   1.946  0.1418  0.1058  0.1584
  301SOL    HW1  902   1.091   0.772   1.894  1.9531 -0.0326 -0.4825
  301SOL    HW2  903   1.041   0.869   2.019 -1.7925 -1.6987 -1.3307
  302SOL     OW  904   0.051   2.193   0.335  0.3629 -0.0969  0.2656
  302SOL    HW1  905   0.079   2.276   0.384  1.1657 -0.6347  0.9691
  302SOL    HW2  906   3.114   2.136   0.394 -1.5738 -0.1796  1.0224
  303SOL     OW  907   2.416   2.691   1.675 -0.5299 -0.3731 -0.0539
  303SOL    HW1  908   2.483   2.650   1.611 -1.3536 -0.9058 -1.8633
  303SOL    HW2  909   2.457   2.763   1.734 -0.0100 -0.9093 -0.0759
  304SOL     OW  910   2.891   0.837   1.568  0.0358 -0.4243  0.2746
  304SOL    HW1  911   2.889   0.740   1.546  1.1337  1.2469  2.0196
  304SOL    HW2  912   2.980   0.854   1.612 -1.8948  0.3947 -1.1518
  305SOL     OW  913   0.878   1.680   1.157 -0.1534 -0.7475  0.5287
  305SOL    HW1  914   0.816   1.710   1.082 -1.9652 -0.9782 -1.6220
  305SOL    HW2  915   0.828   1.697   1.245 -0.8423  0.7995  2.9913
  306SOL     OW  916   0.332   1.222   2.273 -0.7000 -0.5458 -0.4017
  306SOL    HW1  917   0.301   1.234   2.178  1.8377 -1.2846  0.3574
  306SOL    HW2  918   0.389   1.307   2.301  0.8549 -0.7426  2.2852
  307SOL     OW  919   0.776   0.333   1.743 -0.4584  0.2246  0.8036
  307SOL    HW1  920   0.862   0.334   1.796 -1.6817  2.1535 -1.2333
  307SOL    HW2  921   0.793   0.352   1.646  0.3625  1.3650 -2.1298
  308SOL     OW  922   0.005   1.034   1.005 -0.1026  0.0789  0.1817
  308SOL    HW1  923   0.023   0.987   1.094 -0.0625 -1.9831  1.2362
  308SOL    HW2  924   3.028   1.050   0.990 -1.6380  0.8507  0.5465
  309SOL     OW  925   2.647   1.131   1.234 -0.1525  0.2203 -0.2662
  309SOL    HW1  926   2.636   1.172   1.325 -1.0766 -1.1190 -1.1046
  309SOL    HW2  927   2.689   1.189   1.160  0.9364 -0.2584 -1.3375
  310SOL     OW  928   3.077   2.020   2.392 -0.5409 -0.1132 -0.2229
  310SOL    HW1  929   3.012   2.031   2.465 -0.6325 -0.0670 -0.5809
  310SOL    HW2  930   0.050   2.054   2.415  1.5502  1.6523 -1.4694
  311SOL     OW  931   2.819   2.625   2.247  0.0258  0.2774  0.3619
  311SOL    HW1  932   2.839   2.631   2.147 -1.3836  0.5696 -0.5200
  311SOL    HW2  933   2.901   2.662   2.299  0.4791  0.1146  0.3388
  312SOL     OW  934   2.173   2.131   0.037 -0.2530 -0.0397 -0.9532
  312SOL    HW1  935   2.090   2.187   0.048  1.5701  0.5843  1.2685
  312SOL    HW2  936   2.147   2.030   0.027  0.6745 -1.9156  2.1673
  313SOL     OW  937   2.947   3.028   0.617 -0.1235 -0.1677 -0.7561
  313SOL    HW1  938   2.868   3.090   0.604 -0.2868 -0.4941 -0.7114
  313SOL    HW2  939   2.939   2.953   0.551 -1.4235 -3.5236  0.4389
  314SOL     OW  940   1.815   1.137   2.990  0.1657 -1.0779 -0.1088
  314SOL    HW1  941   1.747   1.161   3.061  0.4028  1.4272 -0.9946
  314SOL    HW2  942   1.892   1.207   2.990  2.6182  0.7488  0.3873
  315SOL     OW  943   1.450   2.990   2.550 -0.2718 -0.3003 -0.3460
  315SOL    HW1  944   1.494   3.059   2.484  1.2254  3.7321 -0.0099
  315SOL    HW2  945   1.518   2.921   2.589  1.5963 -0.8425 -1.7264
  316SOL     OW  946   3.099   1.462   0.355  0.7590 -0.3856 -0.3845
  316SOL    HW1  947   3.068   1.385   0.413  0.0530 -0.3835  0.6392
  316SOL    HW2  948   0.073   1.451   0.331  0.2805 -2.5780 -0.0585
  317SOL     OW  949   0.424   2.844   3.077 -0.1749  0.4364 -0.1022
  317SOL    HW1  950   0.421   2.901   2.994  0.0958 -0.9472  0.9533
  317SOL    HW2  951   0.496   2.776   3.065  0.2495 -1.0462 -0.7038
  318SOL     OW  952   2.511   2.506   0.861 -0.4169  0.3244 -0.0733
  318SOL    HW1  953   2.593   2.470   0.812 -0.0031  1.0404 -0.0050
  318SOL    HW2  954   2.428   2.444   0.864 -2.0313 -0.0544 -1.4152
  319SOL     OW  955   1.199   2.006   2.893 -0.3924 -0.1209 -0.0097
  319SOL    HW1  956   1.130   1.997   2.822  0.1616 -1.1742  1.5095
  319SOL    HW2  957   1.177   1.944   2.971 -0.7384 -3.3425  1.6157
  320SOL     OW  958   0.614   2.042   1.105  0.7326 -0.1972 -0.6137
  320SOL    HW1  959   0.700   2.077   1.061 -2.0850 -0.5413 -0.9542
  320SOL    HW2  960   0.601   2.075   1.201  2.4028  0.9343 -0.4547
  321SOL     OW  961   1.233   2.684   2.757  0.4302  0.2544  0.1252
  321SOL    HW1  962   1.304   2.611   2.747  0.7402 -0.2917  1.3082
  321SOL    HW2  963   1.141   2.636   2.760 -1.7741  0.3540 -0.9484
  322SOL     OW  964   2.505   1.462   2.118 -0.1358  0.8831 -0.4815
  322SOL    HW1  965   2.530   1.449   2.217 -4.5140  3.6842 -2.0644
  322SOL    HW2  966   2.467   1.556   2.096 -1.6118  0.3654  0.2588
  323SOL     OW  967   2.712   0.833   1.075 -0.1628  0.0948  0.1461
  323SOL    HW1  968   2.634   0.808   1.018 -1.7111 -1.1739  0.1720
  323SOL    HW2  969   2.676   0.858   1.168  1.6632  0.1588 -0.5017
  324SOL     OW  970   2.533   3.046   2.404 -0.1347  0.2685 -0.3283
  324SOL    HW1  971   2.492   2.959   2.442 -1.8339 -0.0833  1.0210
  324SOL    HW2  972   2.636   3.048   2.400  3.5273 -0.8907 -1.8831
  325SOL     OW  973   1.166   0.499   2.428  0.0865 -0.9503  0.1785
  325SOL    HW1  974   1.115   0.460   2.509 -0.9625  3.2658  1.4747
  325SOL    HW2  975   1.104   0.539   2.361  0.5156 -0.8744  0.8131
  326SOL     OW  976   1.960   2.736   2.163  0.0505 -0.2723 -0.3069
  326SOL    HW1  977   2.006   2.829   2.146 -0.5191  1.5040 -0.8794
  326SOL    HW2  978   1.861   2.746   2.148  1.3028 -0.3553  0.0803
  327SOL     OW  979   2.270   0.351   2.998 -0.3852 -0.1404 -0.0359
  327SOL    HW1  980   2.361   0.298   3.002  1.6596  0.0776 -1.3221
  327SOL    HW2  981   2.280   0.453   3.006 -2.6917  0.9660  0.4752
  328SOL     OW  982   3.046   1.449   2.373  0.6787 -0.5129 -0.1824
  328SOL    HW1  983   3.087   1.472   2.280  1.0426 -2.3389 -3.2693
  328SOL    HW2  984   3.066   1.522   2.446  3.2586  0.4786 -1.4767
  329SOL     OW  985   1.878   0.104   1.730  0.6173 -0.0998  0.0775
  329SOL    HW1  986   1.821   0.165   1.788 -1.1936 -0.0804  0.9263
  329SOL    HW2  987   1.934   0.154   1.663 -2.6477 -2.8097  1.3514
  330SOL     OW  988   0.246   1.214   0.799 -0.1479  0.8484 -0.2519
  330SOL    HW1  989   0.147   1.227   0.801 -1.8824  1.6341  0.7436
  330SOL    HW2  990   0.297   1.299   0.794  0.1263 -0.4882  0.0052
  331SOL     OW  991   0.075   1.411   2.078  0.1953 -0.3760 -0.0753
  331SOL    HW1  992   0.145   1.357   2.032  0.0388  3.1378  3.0398
  331SOL    HW2  993   0.126   1.494   2.118  1.4038 -0.1740 -1.0474
  332SOL     OW  994   3.011   2.697   1.672 -0.0499 -0.2871  0.4579
  332SOL    HW1  995   2.939   2.736   1.609  0.2235  0.3237 -2.2908
  332SOL    HW2  996   3.000   2.598   1.681  0.6864  0.7076 -0.3147
  333SOL     OW  997   2.487   0.194   0.793  0.3496  0.2052  0.5424
  333SOL    HW1  998   2.512   0.099   0.782 -0.3320  1.8391  0.4502
  333SOL    HW2  999   2.491   0.230   0.891 -0.7708  1.4339  0.3062
  334SOL     OW 1000   0.739   1.754   0.650 -0.2125 -0.4368  0.3725
  334SOL    HW1 1001   0.799   1.707   0.583 -0.6434  2.0334  1.6944
  334SOL    HW2 1002   0.640   1.742   0.621 -2.6488 -1.6475 -2.2975
  335SOL     OW 1003   0.145   2.577   2.896  0.1155  0.3675 -0.1369
  335SOL    HW1 1004   0.120   2.601   2.795 -1.4781  0.4307 -5.0903
  335SOL    HW2 1005   0.250   2.579   2.911  3.5410 -1.1345  2.1442
  336SOL     OW 1006   0.156   2.684   2.313  0.1989  0.1230 -0.5453
  336SOL    HW1 1007   0.184   2.724   2.222  2.8068 -0.2758 -1.7726
  336SOL    HW2 1008   0.153   2.581   2.308 -1.2545 -0.5662 -2.7456
  337SOL     OW 1009   2.085   2.502   2.189 -0.0842 -0.6817 -0.4889
  337SOL    HW1 1010   2.043   2.597   2.186 -0.5204  0.0028 -1.1544
  337SOL    HW2 1011   2.070   2.451   2.278  0.1419  2.7013  1.5615
  338SOL     OW 1012   0.501   0.071   0.370  0.1385 -0.3066  0.1711
  338SOL    HW1 1013   0.492   0.154   0.317  2.9119 -3.4536 -0.2121
  338SOL    HW2 1014   0.518   3.114   0.310  0.1138  0.6325  0.8022
  339SOL     OW 1015   0.366   0.942   2.201 -0.5366 -0.5168 -0.5810
  339SOL    HW1 1016   0.286   0.885   2.239 -1.0072  1.2750 -1.2060
  339SOL    HW2 1017   0.354   1.038   2.225  2.5068 -2.1856 -0.8626
  340SOL     OW 1018   1.944   0.047   0.175 -0.2854  0.6127 -0.2477
  340SOL    HW1 1019   1.991   0.136   0.170  0.5262  0.5988  1.6213
  340SOL    HW2 1020   1.847   0.058   0.205 -1.0745  0.6652  2.3374
  341SOL     OW 1021   2.176   1.166   0.914 -0.8533 -0.1545 -0.2752
  341SOL    HW1 1022   2.088   1.140   0.947  2.1760  3.0258 -4.2192
  341SOL    HW2 1023   2.240   1.180   0.987  0.3405  0.3403 -4.5928
  342SOL     OW 1024   2.585   0.031   0.184 -0.8191  0.2933  0.0411
  342SOL    HW1 1025   2.494   0.070   0.169  2.7404 -2.4751  0.7445
  342SOL    HW2 1026   2.580   3.049   0.172  0.7457  2.5872 -0.5255
  343SOL     OW 1027   1.103   2.342   1.803 -0.1040 -0.6177 -0.1965
  343SOL    HW1 1028   1.133   2.441   1.815  0.2568  0.2929  1.5080
  343SOL    HW2 1029   1.155   2.287   1.872  1.7270 -0.5866  0.7567
  344SOL     OW 1030   2.552   2.858   1.080  0.2686 -0.0902 -0.4046
  344SOL    HW1 1031   2.537   2.821   0.985 -2.3925  0.3806 -1.2891
  344SOL    HW2 1032   2.509   2.800   1.149 -0.1387 -0.8198  2.2095
  345SOL     OW 1033   2.798   2.218   0.008  0.0509  0.4109  0.1003
  345SOL    HW1 1034   2.873   2.283   0.031  0.7322  2.0034 -2.3313
  345SOL    HW2 1035   2.761   2.182   0.095 -1.6220 -0.0019 -0.8221
  346SOL     OW 1036   2.606   2.042   0.836  0.2336  0.5731 -0.0001
  346SOL    HW1 1037   2.529   2.100   0.806  0.4983  2.4064 -0.4505
  346SOL    HW2 1038   2.679   2.101   0.876 -1.1621 -0.3182 -2.0365
  347SOL     OW 1039   1.452   2.181   1.600  0.1185 -0.6625  0.5197
  347SOL    HW1 1040   1.470   2.217   1.696  1.0669  0.8279 -0.5203
  347SOL    HW2 1041   1.396   2.101   1.601  0.3554  2.9762 -2.0297
  348SOL     OW 1042   0.500   1.666   2.486 -0.3758  0.2058 -0.5958
  348SOL    HW1 1043   0.446   1.654   2.568  0.2015  2.1290 -0.3306
  348SOL    HW2 1044   0.595   1.627   2.496  0.4053 -0.8847  2.2465
  349SOL     OW 1045   2.503   1.420   1.009  0.2183 -0.7651  1.2490
  349SOL    HW1 1046   2.548   1.492   1.060 -1.1459 -2.5274 -1.0809
  349SOL    HW2 1047   2.470   1.458   0.917 -0.9642  1.4659 -0.4617
  350SOL     OW 1048   2.858   2.584   1.141 -0.2540  0.1993  0.4600
  350SOL    HW1 1049   2.882   2.679   1.162 -2.2427 -2.2656 -0.2558
  350SOL    HW2 1050   2.927   2.515   1.179  2.1777 -2.5749  1.6584
  351SOL     OW 1051   0.527   2.843   1.990  0.3523  0.6599 -0.6658
  351SOL    HW1 1052   0.427   2.867   1.988  0.1367  0.8129 -0.9810
  351SOL    HW2 1053   0.576   2.915   2.042  0.3740  0.8472  0.3816
  352SOL     OW 1054   1.088   1.564   1.275 -0.9074  0.5207  0.0627
  352SOL    HW1 1055   1.003   1.598   1.228 -0.8921 -1.9297  0.7109
  352SOL    HW2 1056   1.171   1.621   1.266  0.1520  1.4041  0.9752
  353SOL     OW 1057   1.248   1.596   2.719 -0.4669 -0.4179  0.0698
  353SOL    HW1 1058   1.212   1.680   2.676 -0.1510  0.5797 -0.6460
  353SOL    HW2 1059   1.171   1.529   2.732 -2.0692  1.4337 -2.0395
  354SOL     OW 1060   1.481   3.052   1.193 -0.4147  0.2933  0.1582
  354SOL    HW1 1061   1.563   2.996   1.189 -4.1626  1.4366 -0.8107
  354SOL    HW2 1062   1.398   2.998   1.218  1.5873  1.3766  0.8593
  355SOL     OW 1063   2.495   1.498   0.732  0.4107  0.4521 -0.4319
  355SOL    HW1 1064   2.423   1.551   0.678  2.4011  3.7383  0.3042
  355SOL    HW2 1065   2.584   1.512   0.680  0.9683 -4.6868 -2.0848
  356SOL     OW 1066   2.602   1.766   2.214 -0.3617 -0.2005  0.1195
  356SOL    HW1 1067   2.600   1.747   2.113  0.4247  0.4815  0.3351
  356SOL    HW2 1068   2.672   1.705   2.257  1.4939  0.9246 -0.0340
  357SOL     OW 1069   0.532   2.782   1.532  0.3532 -0.1055  0.9736
  357SOL    HW1 1070   0.458   2.785   1.463 -1.0176 -0.6387  0.4013
  357SOL    HW2 1071   0.627   2.783   1.494  1.4000  0.5345 -0.1544
  358SOL     OW 1072   2.444   0.840   1.711  0.2400 -0.0549 -0.3926
  358SOL    HW1 1073   2.355   0.878   1.741  1.3738  0.2357 -0.6201
  358SOL    HW2 1074   2.434   0.749   1.667 -0.6960 -0.1586 -0.8974
  359SOL     OW 1075   2.281   2.580   2.692  0.5158  0.3771  0.4788
  359SOL    HW1 1076   2.326   2.514   2.632 -1.1198  0.1166  3.7022
  359SOL    HW2 1077   2.289   2.545   2.790  1.0291 -0.8302  0.7307
  360SOL     OW 1078   0.722   0.484   0.825 -0.0478  0.3278 -0.0698
  360SOL    HW1 1079   0.823   0.498   0.838 -0.9209  2.2402 -0.3686
  360SOL    HW2 1080   0.669   0.570   0.812  0.1070 -3.9251  1.6033
  361SOL     OW 1081   1.933   3.001   0.955  0.2973 -0.0125  0.3707
  361SOL    HW1 1082   1.944   2.949   1.041  2.4337  2.0605 -1.6730
  361SOL    HW2 1083   2.017   3.010   0.900 -0.5025  0.5061  1.3188
  362SOL     OW 1084   1.378   1.127   0.835 -0.2505 -0.0556 -0.6800
  362SOL    HW1 1085   1.473   1.124   0.786  0.5243  1.8636 -1.4386
  362SOL    HW2 1086   1.382   1.093   0.935 -0.3772 -2.6693  3.3106
  363SOL     OW 1087   2.382   1.454   2.702  0.0173  0.2374  0.0397
  363SOL    HW1 1088   2.340   1.475   2.789 -0.0855 -4.7994 -3.8849
  363SOL    HW2 1089   2.350   1.360   2.676 -1.0672 -1.9139  0.3797
  364SOL     OW 1090   0.087   0.201   1.080 -0.5290 -0.1853  0.4690
  364SOL    HW1 1091   0.182   0.216   1.119  3.3636 -0.4503 -0.6070
  364SOL    HW2 1092   0.034   0.137   1.137  2.7688  1.0692  0.6916
  365SOL     OW 1093   3.110   2.815   2.971 -0.2330  0.0941 -0.0663
  365SOL    HW1 1094   0.031   2.730   2.939  2.7128  0.9466  2.0818
  365SOL    HW2 1095   3.054   2.796   3.057 -2.1643 -1.8771  3.0942
  366SOL     OW 1096   2.358   2.304   0.126 -0.3322  0.0917  0.1690
  366SOL    HW1 1097   2.286   2.243   0.086 -4.1301 -2.3306 -0.1126
  366SOL    HW2 1098   2.322   2.375   0.184 -0.0239 -0.6255 -0.7800
  367SOL     OW 1099   2.902   2.434   2.925 -0.3843 -0.0159  0.5442
  367SOL    HW1 1100   2.911   2.392   2.836 -0.8450  0.3665 -1.1375
  367SOL    HW2 1101   2.962   2.391   2.994 -1.7372  0.8896 -0.2768
  368SOL     OW 1102   0.301   1.918   0.825 -0.4633 -0.1872  0.3710
  368SOL    HW1 1103   0.335   2.008   0.798  1.1600 -2.1104 -1.9939
  368SOL    HW2 1104   0.206   1.915   0.865 -0.3762 -1.7814 -0.3387
  369SOL     OW 1105   0.704   2.687   2.703 -0.0130  0.1503 -0.1614
  369SOL    HW1 1106   0.668   2.783   2.697  0.8725 -0.4544  0.2709
  369SOL    HW2 1107   0.807   2.679   2.698 -0.9520  2.1251 -0.3304
  370SOL     OW 1108   0.257   0.899   0.954  0.7379  0.4856 -0.3355
  370SOL    HW1 1109   0.193   0.980   0.954  0.2698  1.1394  0.1632
  370SOL    HW2 1110   0.229   0.833   0.881 -3.2268 -0.9848 -0.3453
  371SOL     OW 1111   1.911   2.355   0.846 -0.0563  0.8615 -0.6332
  371SOL    HW1 1112   1.906   2.439   0.901  1.4277  1.1767  1.8141
  371SOL    HW2 1113   1.877   2.273   0.900 -0.0212 -2.0605  0.8556
  372SOL     OW 1114   0.461   0.863   2.723  0.0462  0.1764  0.3085
  372SOL    HW1 1115   0.498   0.899   2.633 -0.4883  0.2220  0.1586
  372SOL    HW2 1116   0.538   0.827   2.778  3.2634  1.1908 -0.3563
  373SOL     OW 1117   0.001   1.918   0.844  1.0024 -0.7635 -0.3598
  373SOL    HW1 1118   3.119   2.017   0.821 -1.4668  0.8828  0.3636
  373SOL    HW2 1119   3.110   1.915   0.944 -0.0528  2.3622 -0.4127
  374SOL     OW 1120   0.139   2.641   0.252  0.1199 -0.0240  0.4033
  374SOL    HW1 1121   0.227   2.605   0.214  2.2429 -0.5778  0.1363
  374SOL    HW2 1122   0.097   2.704   0.178 -2.7926 -0.0685 -0.2347
  375SOL     OW 1123   0.398   0.468   0.253 -0.2592  0.2127  0.6708
  375SOL    HW1 1124   0.420   0.474   0.353  0.8934  2.0807  0.1489
  375SOL    HW2 1125   0.330   0.535   0.229 -1.7716  1.7297 -0.0020
  376SOL     OW 1126   0.048   2.488   1.905 -0.1914  0.3549  0.1460
  376SOL    HW1 1127   3.098   2.442   1.848 -1.2208 -0.8186 -0.1137
  376SOL    HW2 1128   0.086   2.562   1.853 -0.7448 -2.2682  2.7470
  377SOL     OW 1129   1.592   2.434   3.109 -0.3781 -0.9789 -0.2704
  377SOL    HW1 1130   1.600   2.442   3.008  1.4327  0.1876 -1.0647
  377SOL    HW2 1131   1.553   2.516   0.028 -0.1693  0.0456 -3.3639
  378SOL     OW 1132   0.677   0.667   0.500 -0.3114  0.2892 -0.0262
  378SOL    HW1 1133   0.758   0.611   0.473 -0.5505  1.2057 -1.7255
  378SOL    HW2 1134   0.690   0.755   0.446  1.1237  1.6765 -2.8351
  379SOL     OW 1135   0.686   1.552   0.321 -0.0042  0.1001  0.4041
  379SOL    HW1 1136   0.598   1.504   0.314 -1.1863  3.6872  1.8990
  379SOL    HW2 1137   0.739   1.512   0.398  0.7590 -1.0143  2.9283
  380SOL     OW 1138   0.274   1.938   1.504 -0.3160 -0.1785 -0.3215
  380SOL    HW1 1139   0.363   1.970   1.547 -1.0416 -0.9602  0.5141
  380SOL    HW2 1140   0.276   1.958   1.406  1.5702  0.0566  1.8125
  381SOL     OW 1141   0.490   1.283   1.865 -0.2831 -0.0794  0.4153
  381SOL    HW1 1142   0.555   1.361   1.845  1.5450  1.9722 -0.3295
  381SOL    HW2 1143   0.525   1.186   1.849 -2.7032 -2.9448  0.2391
  382SOL     OW 1144   2.261   1.884   0.550 -0.3948  0.2282  0.1114
  382SOL    HW1 1145   2.310   1.832   0.480 -0.4604  0.3723  1.2994
  382SOL    HW2 1146   2.282   1.865   0.646  1.1709  1.4904 -1.5405
  383SOL     OW 1147   2.776   1.711   2.436 -0.0512 -0.3243 -0.4307
  383SOL    HW1 1148   2.736   1.800   2.467 -0.2670 -2.3603  2.4966
  383SOL    HW2 1149   2.855   1.719   2.373 -1.1216  2.7931 -1.6767
  384SOL     OW 1150   0.205   2.097   2.451 -0.6617  0.7045 -0.0310
  384SOL    HW1 1151   0.231   2.175   2.509 -1.1845  0.7338 -3.5685
  384SOL    HW2 1152   0.273   2.085   2.372  2.8073  0.1011 -2.7919
  385SOL     OW 1153   2.771   2.252   0.948 -0.5891  0.4606  0.0890
  385SOL    HW1 1154   2.873   2.262   0.937 -2.0624  0.5686 -1.4606
  385SOL    HW2 1155   2.724   2.292   0.864  2.0684 -0.4994 -0.6913
  386SOL     OW 1156   1.743   1.004   0.874 -0.2816  0.1698 -0.6740
  386SOL    HW1 1157   1.717   0.904   0.889 -0.3450 -1.3706  0.2895
  386SOL    HW2 1158   1.728   1.037   0.781 -1.1100 -0.1335  1.3706
  387SOL     OW 1159   0.446   0.650   1.988  1.1257 -0.4866 -0.4806
  387SOL    HW1 1160   0.411   0.745   1.975 -0.8145 -0.1344  1.1749
  387SOL    HW2 1161   0.526   0.629   1.928 -2.3512  2.5316  0.4552
  388SOL     OW 1162   2.320   0.880   2.314 -0.4859 -0.1111  0.2992
  388SOL    HW1 1163   2.223   0.892   2.279 -0.6552  0.9700 -2.7762
  388SOL    HW2 1164   2.379   0.823   2.254  0.1628  0.4812 -1.5926
  389SOL     OW 1165   1.894   1.256   2.145 -0.9978  0.1204 -0.3318
  389SOL    HW1 1166   1.958   1.269   2.067  1.6669 -2.5933 -0.5201
  389SOL    HW2 1167   1.947   1.240   2.232 -0.0082  0.0565  1.5106
  390SOL     OW 1168   1.861   2.728   0.204 -0.0712  0.3162  0.1804
  390SOL    HW1 1169   1.886   2.824   0.217  0.9290 -1.0032 -1.4042
  390SOL    HW2 1170   1.878   2.701   0.109 -0.7898  1.6343  2.5811
  391SOL     OW 1171   2.117   2.097   1.203  0.0751 -0.4843 -0.1891
  391SOL    HW1 1172   2.147   2.061   1.112 -0.1006 -2.6267 -0.1545
  391SOL    HW2 1173   2.056   2.029   1.248 -0.7272  1.1551 -2.2939
  392SOL     OW 1174   2.917   2.830   1.334  0.1668 -0.2491 -0.3846
  392SOL    HW1 1175   2.881   2.803   1.426 -2.2326  2.0161  2.6844
  392SOL    HW2 1176   2.857   2.899   1.285 -0.2494 -1.1489 -0.9912
  393SOL     OW 1177   2.051   1.885   0.028 -0.4933 -0.0569 -0.8014
  393SOL    HW1 1178   2.005   1.870   0.120  2.6477  0.8490  0.5821
  393SOL    HW2 1179   1.978   1.879   3.077 -1.2600 -1.9521  1.6342
  394SOL     OW 1180   0.102   0.311   2.598  0.1837  0.2015  0.0551
  394SOL    HW1 1181   0.082   0.224   2.548 -1.2558 -1.5910 -1.6050
  394SOL    HW2 1182   0.059   0.391   2.552  1.5550 -1.3987  2.4677
  395SOL     OW 1183   1.066   0.796   0.886 -0.1343 -0.0544  0.1324
  395SOL    HW1 1184   1.029   0.815   0.979 -0.1984 -1.1995 -0.6115
  395SOL    HW2 1185   1.025   0.852   0.811  0.5446  1.0959 -1.6073
  396SOL     OW 1186   1.270   0.693   0.054 -0.2305 -0.1478 -0.3335
  396SOL    HW1 1187   1.323   0.652   3.097  3.3700 -1.4860  0.0790
  396SOL    HW2 1188   1.332   0.762   0.098  3.2511  0.8955  0.7483
  397SOL     OW 1189   0.524   0.407   2.107  0.9682 -0.4640 -0.2131
  397SOL    HW1 1190   0.475   0.377   2.191 -1.0265 -2.3470 -0.6070
  397SOL    HW2 1191   0.483   0.487   2.062  1.3241  1.6231 -0.4528
  398SOL     OW 1192   0.828   0.133   0.282 -0.3063 -0.2362 -0.7679
  398SOL    HW1 1193   0.809   0.050   0.344 -0.3076  2.0938  1.3641
  398SOL    HW2 1194   0.757   0.135   0.208  0.2369 -1.7027 -1.0073
  399SOL     OW 1195   2.272   3.108   1.714 -0.3123 -0.1775 -0.0948
  399SOL    HW1 1196   2.210   3.032   1.755 -3.1987 -1.0057  1.7683
  399SOL    HW2 1197   2.366   3.103   1.757  0.9196 -0.3510  0.1296
  400SOL     OW 1198   0.530   1.839   2.115  0.4252  0.1235  0.2077
  400SOL    HW1 1199   0.453   1.877   2.167 -1.4821  0.8103  2.4251
  400SOL    HW2 1200   0.526   1.879   2.021 -1.4089  1.7577 -0.1781
  401SOL     OW 1201   0.729   0.377   2.514 -0.2773 -0.1755 -0.0922
  401SOL    HW1 1202   0.744   0.355   2.611 -0.7589 -0.1299  0.2021
  401SOL    HW2 1203   0.702   0.476   2.499 -0.0462  1.9719  2.4294
  402SOL     OW 1204   2.970   2.164   1.773  0.2802  0.2703  0.1385
  402SOL    HW1 1205   3.024   2.118   1.851  2.4547 -1.8740  1.7229
  402SOL    HW2 1206   3.034   2.174   1.693 -1.6052  0.7276  0.9730
  403SOL     OW 1207   0.374   0.913   1.928 -0.6140  0.5734 -0.0120
  403SOL    HW1 1208   0.291   0.943   1.885  1.7375 -0.7437 -1.1302
  403SOL    HW2 1209   0.383   0.947   2.024 -1.7674  1.0182 -0.3234
  404SOL     OW 1210   0.137   2.720   1.785  0.4784 -0.2581 -0.5297
  404SOL    HW1 1211   0.200   2.677   1.716 -0.7777  1.1066  2.2512
  404SOL    HW2 1212   0.039   2.731   1.751 -0.7956 -2.8005 -2.7637
  405SOL     OW 1213   0.293   0.462   1.857  0.3029  0.5380  0.0597
  405SOL    HW1 1214   0.321   0.546   1.904 -0.5896 -2.6680  0.0216
  405SOL    HW2 1215   0.356   0.385   1.879  0.1946 -0.9846 -0.6903
  406SOL     OW 1216   1.999   2.330   2.928 -0.3196 -0.3455 -0.0193
  406SOL    HW1 1217   1.984   2.339   3.032 -0.7476 -2.1262  3.0924
  406SOL    HW2 1218   1.938   2.260   2.891  2.0646  0.9040  1.1908
  407SOL     OW 1219   1.354   1.570   2.227  0.0012 -0.0527  0.0767
  407SOL    HW1 1220   1.307   1.661   2.211 -0.3605  2.0576  1.5429
  407SOL    HW2 1221   1.364   1.556   2.328  1.7994  0.0458  1.2309
  408SOL     OW 1222   0.422   0.174   2.781  0.0843  0.3414 -0.5276
  408SOL    HW1 1223   0.439   0.213   2.685 -2.1548 -1.2148  1.7257
  408SOL    HW2 1224   0.366   0.234   2.850  1.7100  1.7325  0.7810
  409SOL     OW 1225   0.377   1.845   0.338 -0.4268  0.0585  0.6782
  409SOL    HW1 1226   0.427   1.777   0.397 -0.9653  0.7092 -1.9128
  409SOL    HW2 1227   0.318   1.903   0.394  1.1851 -3.7766  1.2732
  410SOL     OW 1228   2.683   1.498   0.189 -0.2425  0.8335 -0.9322
  410SOL    HW1 1229   2.708   1.593   0.213  0.7995 -1.8016  2.2770
  410SOL    HW2 1230   2.773   1.453   0.169  0.2394 -1.8755 -0.3797
  411SOL     OW 1231   3.035   0.361   0.959  0.0539 -0.5122  0.4096
  411SOL    HW1 1232   2.953   0.305   0.922 -1.2172  0.0701 -2.1416
  411SOL    HW2 1233   3.112   0.296   0.991  1.0444 -0.9262  2.8233
  412SOL     OW 1234   1.369   1.013   1.124  0.2351  0.0223 -0.6599
  412SOL    HW1 1235   1.459   1.051   1.143 -0.4035 -0.0484 -0.1049
  412SOL    HW2 1236   1.307   1.026   1.202  2.6460 -2.0504 -0.3539
  413SOL     OW 1237   0.307   2.795   1.342  0.0634 -0.3338  0.3651
  413SOL    HW1 1238   0.301   2.884   1.295 -1.0038 -2.3566 -0.1543
  413SOL    HW2 1239   0.214   2.755   1.361 -0.1405  1.8040  0.8371
  414SOL     OW 1240   0.145   1.889   2.636  0.1883 -0.0758 -0.0963
  414SOL    HW1 1241   0.095   1.951   2.703 -1.6037  0.3471  1.1613
  414SOL    HW2 1242   0.201   1.945   2.571 -0.7609 -1.4541 -1.2330
  415SOL     OW 1243   0.417   2.245   2.968 -0.0487 -0.2437  0.1801
  415SOL    HW1 1244   0.467   2.227   3.056 -0.9343 -1.2176  1.1138
  415SOL    HW2 1245   0.322   2.210   2.973  2.4367  1.2853  0.5789
  416SOL     OW 1246   1.512   0.324   0.505  0.1451 -0.1041 -0.3371
  416SOL    HW1 1247   1.498   0.419   0.482 -0.0595  0.6354  1.8185
  416SOL    HW2 1248   1.444   0.297   0.572  1.9750 -1.1740 -0.2701
  417SOL     OW 1249   0.342   1.015   0.619  0.3088  0.0332 -0.0914
  417SOL    HW1 1250   0.310   1.060   0.707 -0.0577  1.3980 -1.9513
  417SOL    HW2 1251   0.273   1.043   0.550 -1.8584  1.1672 -1.4167
  418SOL     OW 1252   2.317   1.009   2.048  0.5285 -0.5217 -0.3605
  418SOL    HW1 1253   2.328   0.907   2.031  1.3998 -0.5651  1.1606
  418SOL    HW2 1254   2.240   1.030   2.111 -3.7918  1.0917 -0.0794
  419SOL     OW 1255   0.118   0.394   0.683  0.5877 -0.0579 -0.7241
  419SOL    HW1 1256   0.181   0.386   0.759 -1.3390  2.3199 -2.2668
  419SOL    HW2 1257   0.151   0.469   0.623 -0.7126 -0.7498  1.9176
  420SOL     OW 1258   0.427   1.458   0.362 -0.4737  0.1371 -0.0266
  420SOL    HW1 1259   0.380   1.479   0.274 -2.5603  0.1727 -1.9679
  420SOL    HW2 1260   0.412   1.363   0.386 -2.9015 -1.2522 -0.9727
  421SOL     OW 1261   1.033   2.516   0.749 -0.1254 -0.1919  0.1367
  421SOL    HW1 1262   1.061   2.428   0.700  1.0673 -0.9507 -1.3710
  421SOL    HW2 1263   0.958   2.570   0.701 -0.2448 -1.3482  0.3782
  422SOL     OW 1264   0.012   0.954   1.266 -0.0062 -0.3348  0.3048
  422SOL    HW1 1265   3.121   1.030   1.330 -0.4134 -1.3218  1.9175
  422SOL    HW2 1266   0.111   0.933   1.250 -0.7723  1.0476 -0.6742
  423SOL     OW 1267   1.350   1.595   1.575 -0.5757 -0.1804 -0.3530
  423SOL    HW1 1268   1.332   1.495   1.598  1.0883 -0.9947 -0.3882
  423SOL    HW2 1269   1.392   1.598   1.481  2.1422  1.8995 -2.7087
  424SOL     OW 1270   2.071   1.209   2.759  0.4680 -0.1830 -0.7240
  424SOL    HW1 1271   2.072   1.268   2.846  1.5326  1.4283  2.2760
  424SOL    HW2 1272   2.001   1.241   2.692 -2.7360 -2.3943 -1.3915
  425SOL     OW 1273   3.060   0.378   1.974  0.5504  0.3243 -0.0109
  425SOL    HW1 1274   3.114   0.392   1.887  2.2324  1.1692 -0.5496
  425SOL    HW2 1275   2.979   0.320   1.953 -0.9499 -0.5453 -1.0378
  426SOL     OW 1276   2.477   2.803   2.540 -0.5419  0.1989 -0.1277
  426SOL    HW1 1277   2.558   2.788   2.597  1.1055 -1.8637  0.1148
  426SOL    HW2 1278   2.399   2.793   2.602 -0.7687  0.9801 -0.3626
  427SOL     OW 1279   0.954   0.569   2.254 -0.0851  0.4049 -0.0672
  427SOL    HW1 1280   0.941   0.468   2.260  0.0678  1.3364 -2.0884
  427SOL    HW2 1281   0.877   0.612   2.207  0.5768 -1.1046  3.1382
  428SOL     OW 1282   2.158   0.856   1.784  0.5544 -0.5199  0.1470
  428SOL    HW1 1283   2.170   0.926   1.856  1.3348 -0.7824  2.0622
  428SOL    HW2 1284   2.079   0.882   1.720  0.5921 -1.9996 -4.8911
  429SOL     OW 1285   2.919   2.780   0.454  0.1863 -0.5958  0.1591
  429SOL    HW1 1286   2.976   2.813   0.382 -3.8529 -1.0489  0.6120
  429SOL    HW2 1287   2.822   2.793   0.432  0.4348  0.4568  1.7699
  430SOL     OW 1288   1.727   1.742   2.508 -0.1508  0.5301  0.6031
  430SOL    HW1 1289   1.684   1.652   2.478 -0.1566 -0.6473  0.0736
  430SOL    HW2 1290   1.662   1.797   2.556  0.8421 -2.7955 -3.5603
  431SOL     OW 1291   3.094   1.747   1.277  0.4955  0.0301 -0.1502
  431SOL    HW1 1292   0.003   1.648   1.250  2.4162  0.1470  1.5327
  431SOL    HW2 1293   0.000   1.775   1.370 -0.3993 -0.8269 -0.6588
  432SOL     OW 1294   1.628   2.811   2.641  0.1618  0.0445 -0.2920
  432SOL    HW1 1295   1.728   2.840   2.653  0.5393 -0.6124 -4.1114
  432SOL    HW2 1296   1.625   2.712   2.618 -0.2283  1.3099  1.9873
  433SOL     OW 1297   1.651   0.007   2.390  0.2120 -0.0106 -0.1377
  433SOL    HW1 1298   1.619   0.012   2.291  0.2239  1.2461  1.0762
  433SOL    HW2 1299   1.749   3.100   2.403 -0.0950 -1.6016 -0.7570
  434SOL     OW 1300   0.470   2.587   2.102 -0.3611  0.6923  0.1995
  434SOL    HW1 1301   0.396   2.517   2.104  0.5331  1.6350  0.4434
  434SOL    HW2 1302   0.444   2.670   2.050 -1.6575  0.6773 -0.0606
  435SOL     OW 1303   0.181   2.325   0.122 -0.0543  0.0586  0.2435
  435SOL    HW1 1304   0.252   2.392   0.150  0.0698  0.1904 -0.9348
  435SOL    HW2 1305   0.145   2.277   0.200  0.8550 -0.0845  1.1216
  436SOL     OW 1306   0.657   0.589   1.822  0.0510 -0.0292  1.6658
  436SOL    HW1 1307   0.697   0.497   1.793 -1.1289  0.5025  1.2904
  436SOL    HW2 1308   0.603   0.626   1.736 -1.4919  1.0704 -3.5585
  437SOL     OW 1309   0.518   2.602   2.511  0.2114 -0.1460  0.0911
  437SOL    HW1 1310   0.585   2.592   2.438  0.1775 -1.2714  0.8155
  437SOL    HW2 1311   0.562   2.609   2.604  0.7880 -1.0315  0.6587
  438SOL     OW 1312   0.691   1.697   1.367  0.2014  0.0392 -1.1536
  438SOL    HW1 1313   0.692   1.790   1.410 -0.8023  1.7271  3.0525
  438SOL    HW2 1314   0.635   1.632   1.420 -1.0056  1.2725 -0.5805
  439SOL     OW 1315   2.075   0.941   2.813 -0.1822 -0.1370 -0.1289
  439SOL    HW1 1316   2.174   0.915   2.817 -0.1671 -1.0656 -0.8106
  439SOL    HW2 1317   2.070   1.041   2.824 -2.8842 -0.0570 -0.0350
  440SOL     OW 1318   0.650   0.706   3.041  0.1294 -0.2017 -0.4434
  440SOL    HW1 1319   0.680   0.697   0.016  2.4011  0.6043  0.7201
  440SOL    HW2 1320   0.701   0.788   2.999  0.2542  0.8595 -1.5531
  441SOL     OW 1321   0.843   2.159   1.427 -0.2395  0.0668 -0.2390
  441SOL    HW1 1322   0.846   2.200   1.519  1.3881  1.6599  0.6340
  441SOL    HW2 1323   0.813   2.227   1.359  1.8387 -3.9945  2.7909
  442SOL     OW 1324   2.831   1.618   0.739  0.2958 -0.0128 -0.4134
  442SOL    HW1 1325   2.820   1.717   0.708  0.6774 -0.4172 -0.3534
  442SOL    HW2 1326   2.878   1.606   0.832 -0.8555  0.0364 -1.6125
  443SOL     OW 1327   2.854   2.060   2.560 -0.1433  0.1716 -0.2562
  443SOL    HW1 1328   2.799   2.076   2.475  1.4091 -2.7909  1.6539
  443SOL    HW2 1329   2.804   1.992   2.618 -0.2152  2.0908  0.3946
  444SOL     OW 1330   1.485   1.175   2.996 -0.3613  0.1103  0.0185
  444SOL    HW1 1331   1.542   1.190   3.080 -2.0673 -0.6223 -1.1155
  444SOL    HW2 1332   1.469   1.258   2.942 -1.3376 -2.4264  2.5763
  445SOL     OW 1333   2.527   3.113   1.814 -0.0816 -0.1502  0.2566
  445SOL    HW1 1334   2.619   0.031   1.780 -0.6280  0.6357  1.7997
  445SOL    HW2 1335   2.517   0.015   1.909  1.1616 -1.8710 -3.9666
  446SOL     OW 1336   0.467   1.022   1.052 -0.7879  0.8609 -0.2633
  446SOL    HW1 1337   0.450   1.123   1.056  0.9256 -0.6473  0.4563
  446SOL    HW2 1338   0.387   0.972   1.009 -0.3735 -0.2080 -0.7180
  447SOL     OW 1339   1.081   1.786   1.018 -0.2931 -0.5451 -0.3643
  447SOL    HW1 1340   1.002   1.739   1.065  2.4906 -2.3414 -0.7643
  447SOL    HW2 1341   1.140   1.717   0.972  1.7903  1.5672  4.9631
  448SOL     OW 1342   0.938   1.136   1.680  0.7173  0.0720 -0.0853
  448SOL    HW1 1343   0.875   1.169   1.611  0.2982 -1.1149 -0.6310
  448SOL    HW2 1344   0.915   1.043   1.719 -0.0016  2.7606 -3.1270
  449SOL     OW 1345   2.837   2.130   2.067  0.0983 -0.4965 -0.3217
  449SOL    HW1 1346   2.820   2.227   2.041  1.4185 -0.9671 -0.1027
  449SOL    HW2 1347   2.901   2.096   2.003 -0.6703 -1.3331  4.2070
  450SOL     OW 1348   0.078   1.633   1.775 -0.0225 -0.2865 -0.6839
  450SOL    HW1 1349   3.111   1.601   1.819 -1.1189 -1.7832  0.5292
  450SOL    HW2 1350   0.138   1.682   1.841 -0.1009  2.0396 -0.4388
  451SOL     OW 1351   2.021   0.629   1.162 -0.0348 -0.2837 -0.1394
  451SOL    HW1 1352   1.929   0.620   1.125 -1.9113  0.2815 -0.1219
  451SOL    HW2 1353   2.065   0.712   1.125 -0.2000  0.6977  0.1232
  452SOL     OW 1354   0.618   1.360   0.627 -0.1233 -0.2654 -0.1510
  452SOL    HW1 1355   0.678   1.439   0.640 -1.4718 -1.0656 -1.0457
  452SOL    HW2 1356   0.540   1.364   0.693  0.2118  1.0388 -3.8257
  453SOL     OW 1357   1.298   2.140   0.764 -0.4783  0.0224  0.0859
  453SOL    HW1 1358   1.293   2.137   0.664 -3.2315  2.8122 -0.0112
  453SOL    HW2 1359   1.380   2.196   0.793  1.0476  3.0339  0.1852
  454SOL     OW 1360   0.633   1.802   0.005 -0.6047  0.1474  0.2597
  454SOL    HW1 1361   0.605   1.708   3.110  1.9816  1.8884  2.3994
  454SOL    HW2 1362   0.554   1.861   0.026 -1.0152  0.4472  1.3747
  455SOL     OW 1363   1.351   0.777   0.512 -0.0972 -0.6473 -0.2543
  455SOL    HW1 1364   1.293   0.842   0.458  1.0883  1.1311  1.0492
  455SOL    HW2 1365   1.286   0.724   0.576  0.6398 -0.6421  0.5382
  456SOL     OW 1366   2.279   2.198   1.389 -0.2413 -0.4300 -0.0565
  456SOL    HW1 1367   2.216   2.160   1.319 -1.3216 -1.3497 -0.3001
  456SOL    HW2 1368   2.244   2.188   1.484  1.0315  1.8025  0.1540
  457SOL     OW 1369   1.869   3.022   3.073  0.1758 -0.3415  0.5352
  457SOL    HW1 1370   1.897   3.060   0.039  0.7671 -0.2095 -1.0595
  457SOL    HW2 1371   1.904   3.076   2.997 -1.5621 -2.2359  0.5701
  458SOL     OW 1372   2.418   0.612   0.361  0.0231  0.2460  0.1052
  458SOL    HW1 1373   2.430   0.522   0.409 -1.5331 -0.2637  2.4696
  458SOL    HW2 1374   2.387   0.676   0.434 -1.7293  0.5284 -1.5246
  459SOL     OW 1375   3.086   0.506   2.473  0.0628 -0.4690  0.5713
  459SOL    HW1 1376   3.083   0.607   2.505  1.5279 -0.2474 -0.2740
  459SOL    HW2 1377   3.006   0.484   2.413 -0.1823 -0.2136  0.2420
  460SOL     OW 1378   0.129   1.189   0.025 -0.5856 -0.1269 -0.0977
  460SOL    HW1 1379   0.198   1.136   3.102 -1.1814 -0.2083 -1.5606
  460SOL    HW2 1380   0.036   1.153   3.121 -0.4088  1.6715 -0.1820
  461SOL     OW 1381   2.872   2.638   0.868 -0.4381 -0.0261  0.7442
  461SOL    HW1 1382   2.833   2.596   0.951 -1.1135  0.0647 -0.7074
  461SOL    HW2 1383   2.844   2.736   0.864 -0.0341 -0.0472 -2.1001
  462SOL     OW 1384   3.004   0.014   1.645  0.5188  0.6212  0.0450
  462SOL    HW1 1385   3.037   0.109   1.653  0.2535 -2.1685 -0.3060
  462SOL    HW2 1386   3.065   3.083   1.581  1.3618 -2.5088 -0.8457
  463SOL     OW 1387   2.059   2.032   2.415 -0.7061 -0.0866 -0.3337
  463SOL    HW1 1388   2.159   2.034   2.379  0.3622  0.3780  2.3156
  463SOL    HW2 1389   2.012   1.947   2.386 -0.2978 -0.4759  1.7159
  464SOL     OW 1390   0.762   3.010   1.488 -0.5683 -0.2242 -0.5920
  464SOL    HW1 1391   0.764   3.028   1.589  0.2706  0.0529  1.4460
  464SOL    HW2 1392   0.678   3.045   1.437 -0.3703  0.5472  1.4340
  465SOL     OW 1393   0.640   0.101   1.765 -0.5691 -0.2209 -0.0318
  465SOL    HW1 1394   0.698   0.019   1.757 -1.4851 -1.1437 -2.1734
  465SOL    HW2 1395   0.691   0.190   1.760 -2.8202  2.1209 -0.9464
  466SOL     OW 1396   1.675   2.727   2.090  0.5217 -0.5121 -0.4334
  466SOL    HW1 1397   1.599   2.797   2.093  1.2390  1.6077 -0.2277
  466SOL    HW2 1398   1.652   2.647   2.151  0.2638 -1.8500  1.6106
  467SOL     OW 1399   0.237   2.007   1.234  0.1758 -0.2406  0.9060
  467SOL    HW1 1400   0.144   1.998   1.196 -1.1332 -1.1577  2.0035
  467SOL    HW2 1401   0.286   2.079   1.179 -1.3846  2.3758 -2.5889
  468SOL     OW 1402   2.642   1.492   2.550  0.9379  0.1116 -0.6049
  468SOL    HW1 1403   2.663   1.590   2.530 -1.3851 -3.8565  1.1996
  468SOL    HW2 1404   2.573   1.482   2.629 -1.7050  1.4619  1.8261
  469SOL     OW 1405   1.172   1.860   0.603  0.1959 -0.1636  0.7529
  469SOL    HW1 1406   1.269   1.883   0.592 -0.7964  1.8177 -0.8296
  469SOL    HW2 1407   1.132   1.917   0.681 -0.7586  0.9419  1.9639
  470SOL     OW 1408   2.569   1.207   1.485 -0.9900 -0.1638 -0.6004
  470SOL    HW1 1409   2.596   1.252   1.572 -1.1116 -0.7097  0.4701
  470SOL    HW2 1410   2.494   1.147   1.510  1.8965  0.9363  1.4998
  471SOL     OW 1411   0.391   2.521   2.979  0.0978 -0.3262  0.4018
  471SOL    HW1 1412   0.404   2.420   2.996 -1.0563 -0.3452  2.1309
  471SOL    HW2 1413   0.480   2.572   2.983  1.0457 -1.5600  1.2793
  472SOL     OW 1414   2.927   1.795   1.982 -0.4997 -0.1259  0.3948
  472SOL    HW1 1415   2.953   1.697   1.974  0.7736  0.3885  1.1802
  472SOL    HW2 1416   2.826   1.808   1.974  0.4699 -1.1166  0.7955
  473SOL     OW 1417   0.723   2.996   0.417  0.3847  0.5672 -0.4607
  473SOL    HW1 1418   0.816   2.954   0.442  0.2424 -0.2356  0.8880
  473SOL    HW2 1419   0.713   2.982   0.318 -1.2965 -1.5738  0.2558
  474SOL     OW 1420   2.538   3.045   0.806 -0.3238 -0.5301  0.0712
  474SOL    HW1 1421   2.490   3.020   0.719 -2.2448 -1.1317 -0.7889
  474SOL    HW2 1422   2.534   2.961   0.871  0.0298  0.1327  0.1218
  475SOL     OW 1423   1.783   3.005   1.602  0.2711 -0.0241  0.0322
  475SOL    HW1 1424   1.776   3.099   1.640 -1.3650 -1.7963  2.3987
  475SOL    HW2 1425   1.878   2.972   1.596 -0.0246 -1.2965 -1.7624
  476SOL     OW 1426   0.601   0.708   0.773  0.0383 -0.1786  0.2316
  476SOL    HW1 1427   0.615   0.708   0.669 -0.7798 -0.2034 -1.7336
  476SOL    HW2 1428   0.591   0.806   0.805  0.1908  1.2390  0.4235
  477SOL     OW 1429   0.843   2.162   0.986 -0.1992 -0.3519 -0.3121
  477SOL    HW1 1430   0.825   2.262   0.973 -0.3782 -0.1388  0.8208
  477SOL    HW2 1431   0.930   2.146   0.933  1.4123  1.3878 -0.2500
  478SOL     OW 1432   0.145   2.408   2.292  0.0920 -0.5559  0.2820
  478SOL    HW1 1433   0.092   2.325   2.254 -0.8927 -1.8725 -0.8763
  478SOL    HW2 1434   0.178   2.390   2.385 -1.9612 -0.6972 -0.6468
  479SOL     OW 1435   0.100   0.510   1.662  0.3228  0.3914 -0.5414
  479SOL    HW1 1436   0.179   0.520   1.725 -1.0736  0.8530  0.5065
  479SOL    HW2 1437   0.119   0.513   1.564 -3.2300 -1.9576  2.0233
  480SOL     OW 1438   3.040   2.366   0.009  0.0713  0.3829 -0.3484
  480SOL    HW1 1439   3.045   2.403   0.101 -1.3430  1.5740 -0.7604
  480SOL    HW2 1440   0.013   2.330   3.108  3.8396 -0.2444  1.1315
  481SOL     OW 1441   1.662   2.097   2.142 -0.1970 -0.1576 -0.4069
  481SOL    HW1 1442   1.708   2.009   2.123  0.0133 -2.2653  1.0373
  481SOL    HW2 1443   1.569   2.080   2.180  0.3782 -1.7812  1.2829
  482SOL     OW 1444   1.680   2.303   2.842 -0.2020  0.0203  0.3726
  482SOL    HW1 1445   1.658   2.257   2.755  2.4946  1.6015  0.7279
  482SOL    HW2 1446   1.764   2.259   2.885  1.3177  2.3522  2.6593
  483SOL     OW 1447   0.598   2.158   2.361  0.4753  0.2508 -0.4174
  483SOL    HW1 1448   0.625   2.076   2.412 -1.7562  0.0026 -0.1071
  483SOL    HW2 1449   0.599   2.239   2.423 -0.5146 -0.9433 -0.2322
  484SOL     OW 1450   0.042   0.577   1.112  0.2653  0.6883  0.0926
  484SOL    HW1 1451   0.014   0.502   1.048 -2.1081 -1.4567  1.0007
  484SOL    HW2 1452   3.090   0.643   1.115  1.6472 -0.2924  0.0359
  485SOL     OW 1453   2.340   0.760   0.584  0.0755  0.1444  0.6450
  485SOL    HW1 1454   2.323   0.678   0.641 -0.2483 -0.5890 -1.5521
  485SOL    HW2 1455   2.281   0.843   0.613 -1.8390 -0.1964 -2.6126
  486SOL     OW 1456   1.909   3.038   2.470  0.0049  0.0216  0.4860
  486SOL    HW1 1457   1.995   3.087   2.499 -0.0765 -0.0082 -2.0802
  486SOL    HW2 1458   1.884   2.961   2.526  0.0407 -1.3946  0.0103
  487SOL     OW 1459   1.383   1.360   1.003  0.0784 -0.8853 -0.6187
  487SOL    HW1 1460   1.413   1.282   0.941  0.3308 -2.6116  0.1410
  487SOL    HW2 1461   1.454   1.428   1.039  0.7288  0.6951  1.6098
  488SOL     OW 1462   2.250   1.318   0.067  0.5319 -0.3561  0.3521
  488SOL    HW1 1463   2.327   1.354   0.016 -1.9080  0.4995 -0.7077
  488SOL    HW2 1464   2.247   1.362   0.163  1.1711  0.2445  3.4415
  489SOL     OW 1465   2.412   0.354   0.446 -0.0922 -0.2852  0.0817
  489SOL    HW1 1466   2.318   0.316   0.465  0.5885 -2.4975 -0.5202
  489SOL    HW2 1467   2.469   0.279   0.401 -0.6179 -4.1366 -1.6718
  490SOL     OW 1468   1.604   2.930   0.416  0.2604 -0.1406 -0.4114
  490SOL    HW1 1469   1.577   2.943   0.316 -1.8919  0.0617 -0.6446
  490SOL    HW2 1470   1.527   2.957   0.476  0.9121  1.3898  0.4189
  491SOL     OW 1471   0.954   0.958   0.682 -0.3494  0.6370  0.0058
  491SOL    HW1 1472   0.875   1.022   0.686  1.7161  0.8645 -0.2319
  491SOL    HW2 1473   0.941   0.883   0.609 -0.4648 -2.2599  0.7333
  492SOL     OW 1474   1.613   0.301   0.100 -0.4227  0.2286  0.2783
  492SOL    HW1 1475   1.630   0.206   0.141  1.3370 -2.8197 -0.6529
  492SOL    HW2 1476   1.518   0.319   0.080 -0.0195  0.9731  1.4843
  493SOL     OW 1477   1.951   2.270   0.089 -0.1343 -0.2588  0.6456
  493SOL    HW1 1478   2.006   2.349   0.127  1.3575  1.2829  0.2031
  493SOL    HW2 1479   1.870   2.252   0.143  4.6650 -0.3105 -3.4634
  494SOL     OW 1480   0.494   1.188   0.474 -0.1608 -0.7093 -0.5904
  494SOL    HW1 1481   0.457   1.126   0.545 -0.9796 -0.5192 -1.2257
  494SOL    HW2 1482   0.560   1.250   0.518 -3.6446  0.6764 -0.7414
  495SOL     OW 1483   3.122   2.767   1.050 -0.7206 -0.3929 -0.1642
  495SOL    HW1 1484   0.029   2.785   0.955  0.6980 -3.0503  1.6292
  495SOL    HW2 1485   0.063   2.700   1.091  0.4228 -0.5123  0.5187
  496SOL     OW 1486   2.417   0.372   1.831  0.0066 -0.0171 -0.5509
  496SOL    HW1 1487   2.451   0.340   1.742 -1.7836 -1.7620  0.8495
  496SOL    HW2 1488   2.318   0.401   1.826 -1.3098  0.8459  0.4498
  497SOL     OW 1489   1.862   1.652   2.763  0.2432 -0.5522  0.0594
  497SOL    HW1 1490   1.833   1.686   2.669  1.3450 -1.4024 -1.2390
  497SOL    HW2 1491   1.962   1.636   2.768 -0.0745 -1.7462 -0.7154
  498SOL     OW 1492   0.823   2.016   0.656 -0.1031  0.5314 -0.7089
  498SOL    HW1 1493   0.774   1.925   0.648 -0.2729 -0.8266 -1.0584
  498SOL    HW2 1494   0.912   1.993   0.701 -1.5748  2.8412  1.3532
  499SOL     OW 1495   0.511   1.800   1.004  0.2637 -0.2379 -0.0487
  499SOL    HW1 1496   0.556   1.880   1.056  0.4470  1.5463  0.1767
  499SOL    HW2 1497   0.418   1.822   0.971  3.3022  0.1318 -0.1430
  500SOL     OW 1498   1.391   1.920   0.275 -0.0291 -0.3627 -0.1478
  500SOL    HW1 1499   1.305   1.961   0.238 -2.0233 -1.0387 -1.5868
  500SOL    HW2 1500   1.387   1.825   0.302  1.6939  2.7739 -0.3838
  501SOL     OW 1501   2.341   2.746   1.248  0.3091  0.1876  0.4343
  501SOL    HW1 1502   2.352   2.644   1.258 -0.5615 -0.7758 -2.0090
  501SOL    HW2 1503   2.302   2.784   1.334 -1.7172  0.6483  1.4232
  502SOL     OW 1504   0.272   0.841   1.544  0.1333  0.1159  0.1991
  502SOL    HW1 1505   0.194   0.856   1.609 -1.2382 -3.6883 -0.5450
  502SOL    HW2 1506   0.251   0.884   1.460  1.8525 -0.8398  3.6951
  503SOL     OW 1507   1.800   0.462   1.375  0.1305  0.3744 -0.5291
  503SOL    HW1 1508   1.769   0.410   1.293  0.8543 -2.1384 -0.3814
  503SOL    HW2 1509   1.848   0.547   1.345  0.3541 -0.2375 -0.8329
  504SOL     OW 1510   1.436   0.827   2.180 -0.5872 -0.0993  0.4162
  504SOL    HW1 1511   1.377   0.825   2.267  2.8821  0.4693 -0.2260
  504SOL    HW2 1512   1.411   0.905   2.122  0.1170  1.7985 -1.6086
  505SOL     OW 1513   1.181   0.101   2.701 -0.2703  0.4630  0.6263
  505SOL    HW1 1514   1.209   0.031   2.632  0.9467 -1.2283 -1.6308
  505SOL    HW2 1515   1.099   0.069   2.750 -0.3676  2.5103  0.1030
  506SOL     OW 1516   0.394   0.323   1.458  0.0328  0.1477 -0.1253
  506SOL    HW1 1517   0.406   0.238   1.506 -1.0591  3.4085 -2.2273
  506SOL    HW2 1518   0.298   0.340   1.422  0.0553  0.7195 -1.5482
  507SOL     OW 1519   1.426   3.114   2.958 -0.3942 -0.8753  0.0386
  507SOL    HW1 1520   1.501   3.090   3.019  1.4423 -0.2499 -1.2013
  507SOL    HW2 1521   1.464   0.033   2.871 -2.9495  0.7088 -1.2188
  508SOL     OW 1522   2.286   0.599   2.714  0.7052  0.0916 -0.1530
  508SOL    HW1 1523   2.265   0.506   2.676 -0.3015 -0.7361 -2.7828
  508SOL    HW2 1524   2.329   0.658   2.643 -0.8863 -0.5218  0.2054
  509SOL     OW 1525   0.707   1.495   1.881  0.3554  0.0165  0.0197
  509SOL    HW1 1526   0.793   1.549   1.884  0.6778  1.4482 -0.6980
  509SOL    HW2 1527   0.634   1.515   1.954 -0.5963  1.2426 -1.3487
  510SOL     OW 1528   3.092   1.277   0.837  0.7594 -0.1296 -0.0659
  510SOL    HW1 1529   3.017   1.347   0.829 -0.0470  1.7973  0.6620
  510SOL    HW2 1530   3.089   1.252   0.937 -0.5199 -0.7702  0.8114
  511SOL     OW 1531   1.809   1.703   0.863  0.1929 -0.0487  0.1879
  511SOL    HW1 1532   1.793   1.797   0.904  1.5454  3.8473  1.3006
  511SOL    HW2 1533   1.901   1.668   0.865 -0.7337 -1.2043  2.0341
  512SOL     OW 1534   0.832   1.125   0.400 -0.1311 -0.3669 -0.0899
  512SOL    HW1 1535   0.820   1.168   0.306 -0.7940 -2.0987 -1.9956
  512SOL    HW2 1536   0.908   1.164   0.456  1.8979 -0.6898  1.8328
  513SOL     OW 1537   0.529   2.428   0.542  0.1814 -0.7957 -0.1671
  513SOL    HW1 1538   0.572   2.515   0.573  0.5422 -0.5238  0.7573
  513SOL    HW2 1539   0.547   2.348   0.596 -1.1665  3.0277 -4.0988
  514SOL     OW 1540   2.731   2.108   2.325 -0.5725  0.2325 -0.0682
  514SOL    HW1 1541   2.727   2.209   2.326 -2.3636 -0.1230  0.5902
  514SOL    HW2 1542   2.764   2.077   2.231 -1.1695 -2.0551 -2.5381
  515SOL     OW 1543   2.608   0.689   0.183  0.6622  0.3017  0.4393
  515SOL    HW1 1544   2.609   0.791   0.172  1.1817 -0.6566 -0.8466
  515SOL    HW2 1545   2.528   0.669   0.243 -0.2610  0.0266  1.0974
  516SOL     OW 1546   2.187   3.024   0.831 -0.1558  0.1308 -0.5020
  516SOL    HW1 1547   2.200   0.001   0.827 -1.1570 -3.3137 -1.1713
  516SOL    HW2 1548   2.229   2.967   0.752  0.1752 -2.6303 -0.4791
  517SOL     OW 1549   1.470   2.019   2.929  0.3233  0.2093  0.4337
  517SOL    HW1 1550   1.517   1.928   2.935  0.4097 -0.2020  1.8386
  517SOL    HW2 1551   1.372   2.005   2.910 -2.3998  0.3904  0.8800
  518SOL     OW 1552   0.827   0.902   1.767  0.0310 -0.1490 -0.6704
  518SOL    HW1 1553   0.833   0.846   1.683 -0.5874 -1.5647  1.9027
  518SOL    HW2 1554   0.891   0.861   1.837 -0.2071  0.5639 -2.6229
  519SOL     OW 1555   2.893   1.703   0.436 -0.0266 -0.0854  0.6779
  519SOL    HW1 1556   2.863   1.688   0.531  1.0045  0.9297 -2.6183
  519SOL    HW2 1557   2.966   1.640   0.412  1.2909 -0.1297  0.7649
  520SOL     OW 1558   2.332   2.104   1.871  0.7983 -0.5155  0.2707
  520SOL    HW1 1559   2.386   2.186   1.902 -2.4130 -2.0497 -0.3980
  520SOL    HW2 1560   2.233   2.101   1.907  1.2161  1.6079 -0.9524
  521SOL     OW 1561   0.947   2.975   2.599 -0.7225  0.2469  0.2705
  521SOL    HW1 1562   0.911   3.028   2.680  3.5393 -0.8431 -1.2032
  521SOL    HW2 1563   1.047   2.996   2.593  1.0862 -0.4549  2.0450
  522SOL     OW 1564   2.270   0.534   2.308 -0.0037 -0.2273 -0.1213
  522SOL    HW1 1565   2.370   0.554   2.301  0.5710  1.6415 -0.9592
  522SOL    HW2 1566   2.221   0.553   2.217 -3.6742 -0.5387 -0.5654
  523SOL     OW 1567   2.007   2.605   1.267 -0.5239  0.0084 -0.3013
  523SOL    HW1 1568   1.944   2.591   1.347 -0.7468  0.0135  1.5635
  523SOL    HW2 1569   2.096   2.566   1.293 -1.5201  1.3560  0.4671
  524SOL     OW 1570   1.635   2.160   3.112 -0.0564  0.0226 -0.2309
  524SOL    HW1 1571   1.614   2.255   3.091  0.5604 -1.2876 -0.9532
  524SOL    HW2 1572   1.560   2.102   3.080  0.8612 -1.8406  1.0545
  525SOL     OW 1573   0.162   0.878   3.096  0.2139 -0.1227  0.2336
  525SOL    HW1 1574   0.249   0.824   3.089 -2.0220  0.0846  0.6559
  525SOL    HW2 1575   0.101   0.854   3.020 -0.2838 -0.5951  1.3484
  526SOL     OW 1576   1.113   2.764   0.612 -0.1226 -0.3976  0.5115
  526SOL    HW1 1577   1.157   2.671   0.599 -1.0612 -2.0802 -1.4145
  526SOL    HW2 1578   1.087   2.782   0.710 -1.9015 -0.5063  2.7939
  527SOL     OW 1579   2.713   1.850   0.617  0.1251  0.1238 -0.2310
  527SOL    HW1 1580   2.684   1.930   0.680  0.6797  2.6659  2.0601
  527SOL    HW2 1581   2.626   1.807   0.577  2.5274  2.4752 -0.2287
  528SOL     OW 1582   0.667   0.798   2.228  0.0084  0.1796  0.5642
  528SOL    HW1 1583   0.567   0.807   2.217 -1.1777 -1.2145  0.1545
  528SOL    HW2 1584   0.711   0.758   2.142  1.5156 -1.2034  1.6809
  529SOL     OW 1585   1.574   1.893   2.687  0.1892  0.2072 -0.0473
  529SOL    HW1 1586   1.557   1.945   2.771 -1.2801 -0.4550  1.2471
  529SOL    HW2 1587   1.486   1.863   2.644  0.1217 -0.4416 -1.1309
  530SOL     OW 1588   1.638   0.999   2.288 -0.3907 -0.1606 -0.1540
  530SOL    HW1 1589   1.575   1.075   2.266 -1.4519 -1.1517  0.4996
  530SOL    HW2 1590   1.592   0.912   2.266 -1.2583 -0.1091  2.2909
  531SOL     OW 1591   0.596   2.318   2.591 -0.2938 -0.1005 -0.0455
  531SOL    HW1 1592   0.523   2.382   2.590  0.4221  0.2083 -0.3387
  531SOL    HW2 1593   0.575   2.245   2.656 -0.6791 -1.2542  0.1191
  532SOL     OW 1594   2.609   1.056   0.550  0.2353  0.1030  0.1629
  532SOL    HW1 1595   2.576   1.143   0.592  0.2034 -0.7202 -0.5669
  532SOL    HW2 1596   2.581   0.980   0.607 -0.9568  1.5608  0.4524
  533SOL     OW 1597   3.069   0.290   1.633  0.0621 -0.1720 -0.0406
  533SOL    HW1 1598   0.012   0.366   1.646 -0.9389  1.5754 -1.1788
  533SOL    HW2 1599   3.035   0.303   1.536 -0.3132 -0.4270  0.3953
  534SOL     OW 1600   0.631   0.109   0.036 -0.7324  0.4705  0.6147
  534SOL    HW1 1601   0.560   0.172   0.067 -0.0525  2.2909 -0.1700
  534SOL    HW2 1602   0.651   0.113   3.057 -0.2592 -0.7286 -1.6958
  535SOL     OW 1603   0.261   0.038   0.198 -0.3101 -0.2791  0.4058
  535SOL    HW1 1604   0.218   0.041   0.109  2.2012  0.8297  3.0996
  535SOL    HW2 1605   0.205   0.084   0.272  1.8093 -1.1614  0.7925
  536SOL     OW 1606   0.493   1.602   1.211 -0.0290  0.0959 -0.1017
  536SOL    HW1 1607   0.483   1.649   1.122 -0.2882  1.2946  1.4306
  536SOL    HW2 1608   0.541   1.669   1.273  1.2795 -0.2325  0.0551
  537SOL     OW 1609   0.938   2.859   1.880  0.1877  0.3109  0.1563
  537SOL    HW1 1610   1.021   2.912   1.853 -2.1601 -0.1861  1.9246
  537SOL    HW2 1611   0.960   2.763   1.915  1.2147 -0.9176  0.6108
  538SOL     OW 1612   0.219   1.954   2.952  0.4886 -0.0589 -0.4364
  538SOL    HW1 1613   0.180   1.913   3.040  1.1254 -0.6814  1.1605
  538SOL    HW2 1614   0.302   1.905   2.912 -1.8571  1.4848  0.7471
  539SOL     OW 1615   2.430   0.938   2.773 -0.1124  0.2363 -0.1861
  539SOL    HW1 1616   2.434   0.876   2.691  0.5352  1.3275  0.3749
  539SOL    HW2 1617   2.523   0.959   2.821  0.7704  3.3028  1.8920
  540SOL     OW 1618   1.906   0.357   2.630  0.2806 -0.5281 -0.2425
  540SOL    HW1 1619   1.930   0.369   2.725  2.2199 -0.7794 -3.7451
  540SOL    HW2 1620   1.995   0.354   2.579 -0.4683  0.4809  0.4926
  541SOL     OW 1621   0.662   3.076   2.086  0.1270 -0.5950 -0.1473
  541SOL    HW1 1622   0.627   0.016   2.162  0.2532  2.3935  3.5439
  541SOL    HW2 1623   0.718   0.004   2.018 -0.4649  0.2403 -4.2482
  542SOL     OW 1624   1.908   2.750   3.043  0.0276  0.0758  0.0662
  542SOL    HW1 1625   1.855   2.685   2.984 -2.3543 -4.1438 -1.0417
  542SOL    HW2 1626   1.880   2.844   3.016  0.0673 -0.5779 -0.3771
  543SOL     OW 1627   1.043   0.280   0.487  0.7130  0.0413 -0.0955
  543SOL    HW1 1628   1.089   0.350   0.431  1.7028 -0.8062  3.0281
  543SOL    HW2 1629   0.946   0.266   0.473  3.8666  0.1699 -0.2303
  544SOL     OW 1630   2.407   1.279   1.935  0.0621  0.0221 -0.3222
  544SOL    HW1 1631   2.384   1.189   1.969 -1.8479  3.0079  1.6713
  544SOL    HW2 1632   2.437   1.338   2.014  3.5482 -1.1899  1.6144
  545SOL     OW 1633   2.062   1.742   1.195 -0.3365 -0.2125 -0.2893
  545SOL    HW1 1634   2.148   1.777   1.161 -2.3667 -1.4505  1.8057
  545SOL    HW2 1635   2.062   1.641   1.202 -1.5486  0.2149 -1.9329
  546SOL     OW 1636   0.134   3.106   2.117  0.1746 -0.2036  0.0140
  546SOL    HW1 1637   0.148   0.069   2.057 -0.7244 -0.0006 -1.6018
  546SOL    HW2 1638   0.189   3.111   2.198 -0.6882 -0.4433 -0.3496
  547SOL     OW 1639   1.381   0.547   0.881  0.3656  0.3809 -0.2596
  547SOL    HW1 1640   1.366   0.619   0.953  1.5510 -0.6352  0.5151
  547SOL    HW2 1641   1.446   0.474   0.917 -0.1278 -1.7857 -3.5233
  548SOL     OW 1642   1.445   2.532   2.811 -0.1011  0.0142  0.0771
  548SOL    HW1 1643   1.419   2.441   2.853 -0.6543  1.2084  0.6433
  548SOL    HW2 1644   1.536   2.521   2.773 -2.4850 -0.6052  1.0284
  549SOL     OW 1645   2.256   0.455   0.158 -0.0043 -0.1106  0.0072
  549SOL    HW1 1646   2.231   0.516   0.086  1.0968  2.0421 -1.5846
  549SOL    HW2 1647   2.311   0.506   0.227  0.5742 -1.4725 -1.8870
  550SOL     OW 1648   2.883   2.008   0.445 -0.6926  0.5593 -0.0587
  550SOL    HW1 1649   2.827   1.940   0.493  1.5350  3.2303  0.7934
  550SOL    HW2 1650   2.983   1.980   0.440  1.2547  1.0008 -2.2929
  551SOL     OW 1651   1.254   2.904   2.327  0.3135 -0.1730 -0.4320
  551SOL    HW1 1652   1.284   2.910   2.425 -2.1375  0.6968 -2.2359
  551SOL    HW2 1653   1.226   2.994   2.283  0.6218  0.3781 -1.3501
  552SOL     OW 1654   3.013   2.398   2.507 -0.1018 -0.1100  0.1876
  552SOL    HW1 1655   2.980   2.367   2.418 -2.1707  3.1247 -0.4227
  552SOL    HW2 1656   2.980   2.342   2.586 -0.1423 -0.8856  3.4114
  553SOL     OW 1657   0.189   3.090   0.923  0.1549  0.1530  0.2689
  553SOL    HW1 1658   0.122   0.045   0.931  1.1303  1.2297  3.2081
  553SOL    HW2 1659   0.151   3.004   0.877 -1.2532 -0.2244 -1.8888
  554SOL     OW 1660   2.180   2.209   1.646 -0.4143 -0.2572  0.1687
  554SOL    HW1 1661   2.183   2.134   1.710 -0.7947  1.6288 -1.3492
  554SOL    HW2 1662   2.254   2.277   1.667  0.2956  0.2836  0.3687
  555SOL     OW 1663   1.692   2.352   2.020  0.6916 -0.4307  0.3616
  555SOL    HW1 1664   1.666   2.262   2.063 -0.1710 -1.3011 -0.3248
  555SOL    HW2 1665   1.786   2.335   1.987 -0.7371 -1.6837  1.0047
  556SOL     OW 1666   1.287   1.350   1.268  0.4719 -0.0864  0.4214
  556SOL    HW1 1667   1.308   1.340   1.170 -0.1086 -0.9802  0.4556
  556SOL    HW2 1668   1.304   1.450   1.291 -0.7634  2.7372  1.0185
  557SOL     OW 1669   2.164   2.910   1.882 -0.5302  0.2892  0.1220
  557SOL    HW1 1670   2.235   2.845   1.905 -2.3969  1.8341 -2.8642
  557SOL    HW2 1671   2.141   2.957   1.968  5.0957  0.0626 -0.8959
  558SOL     OW 1672   0.217   2.821   2.036  0.2380  0.3087 -0.3305
  558SOL    HW1 1673   0.185   2.918   2.048 -1.1298 -2.2233 -0.6152
  558SOL    HW2 1674   0.170   2.773   1.956 -0.4930  0.1655 -1.5874
  559SOL     OW 1675   2.002   0.133   0.675  0.2294  0.0179 -0.7058
  559SOL    HW1 1676   2.082   0.155   0.731 -0.6908 -0.7187 -0.7220
  559SOL    HW2 1677   1.991   0.202   0.597  1.6527 -2.2285  0.8208
  560SOL     OW 1678   1.771   2.845   0.601 -0.4550 -0.0254 -0.0486
  560SOL    HW1 1679   1.728   2.864   0.691 -2.4559  1.2044 -0.4291
  560SOL    HW2 1680   1.709   2.877   0.525 -1.0237  1.4434  0.3537
  561SOL     OW 1681   0.747   0.241   0.941 -0.2268  0.5478  0.1793
  561SOL    HW1 1682   0.733   0.330   0.898 -0.8580 -0.2018  1.9413
  561SOL    HW2 1683   0.797   0.178   0.873  0.2878 -2.6734 -0.3486
  562SOL     OW 1684   0.555   0.945   2.439  0.0626 -0.1273 -0.0837
  562SOL    HW1 1685   0.453   0.942   2.441 -1.0397 -1.7760 -0.7450
  562SOL    HW2 1686   0.596   0.919   2.351 -2.0446  2.2453  1.1858
  563SOL     OW 1687   1.826   2.151   2.343 -0.2052 -0.3225  0.0373
  563SOL    HW1 1688   1.904   2.091   2.342 -1.8234  2.7394 -0.8408
  563SOL    HW2 1689   1.751   2.125   2.276 -0.6422  0.5694  0.0076
  564SOL     OW 1690   2.866   0.997   0.896  0.0774 -0.2947 -0.3406
  564SOL    HW1 1691   2.817   0.958   0.971  2.5249  0.2212 -0.9616
  564SOL    HW2 1692   2.806   1.067   0.848 -0.9894 -1.3523 -1.7601
  565SOL     OW 1693   0.954   0.906   0.215  0.0730 -0.3335 -0.1227
  565SOL    HW1 1694   0.868   0.857   0.190  1.1033 -0.6070 -0.0646
  565SOL    HW2 1695   0.977   0.991   0.159  0.7373 -1.1227 -2.5391
  566SOL     OW 1696   2.291   0.288   2.692  0.1526 -0.2554 -0.0680
  566SOL    HW1 1697   2.340   0.208   2.667 -1.5437  1.6240  0.9898
  566SOL    HW2 1698   2.236   0.285   2.777 -0.5275  1.4040 -2.2095
  567SOL     OW 1699   1.719   0.684   0.622  0.5520 -0.0239  0.4688
  567SOL    HW1 1700   1.654   0.655   0.550  0.2542 -0.3213 -0.0152
  567SOL    HW2 1701   1.781   0.755   0.576  1.0943 -1.1215 -1.4718
  568SOL     OW 1702   1.821   1.839   2.969  0.1253  0.0421 -0.1948
  568SOL    HW1 1703   1.732   1.800   2.999 -1.0896  1.9732 -1.4401
  568SOL    HW2 1704   1.848   1.801   2.881 -2.0359  2.8369  1.8122
  569SOL     OW 1705   2.044   1.341   3.010 -0.3699  1.0529 -0.2663
  569SOL    HW1 1706   1.973   1.415   3.019 -0.4524 -0.9690  0.8014
  569SOL    HW2 1707   2.118   1.345   3.083 -2.0786  2.8485 -0.3496
  570SOL     OW 1708   0.340   2.240   1.848  0.1077 -0.2194 -0.2258
  570SOL    HW1 1709   0.423   2.281   1.803 -2.2870  0.5383  2.3488
  570SOL    HW2 1710   0.332   2.294   1.935 -0.3439 -0.0016  0.2036
  571SOL     OW 1711   0.268   1.233   1.989 -0.1377  0.0027  0.0072
  571SOL    HW1 1712   0.356   1.251   1.941  0.4009 -1.3501  1.0284
  571SOL    HW2 1713   0.218   1.160   1.940  0.6503 -0.6722 -0.0573
  572SOL     OW 1714   1.532   1.834   0.542 -0.2248  0.8432  0.2097
  572SOL    HW1 1715   1.480   1.815   0.455 -2.5717 -1.1944 -1.7040
  572SOL    HW2 1716   1.622   1.794   0.541 -2.7238  1.5886 -1.7787
  573SOL     OW 1717   1.909   2.212   0.480  0.0050  0.4537  0.4667
  573SOL    HW1 1718   1.857   2.210   0.390 -0.8174 -0.9747 -2.7235
  573SOL    HW2 1719   1.868   2.293   0.533  0.3418 -0.8614 -0.7156
  574SOL     OW 1720   0.744   0.205   1.286  0.3466 -0.5280  0.3667
  574SOL    HW1 1721   0.699   0.142   1.349  0.5790  0.7221 -2.0521
  574SOL    HW2 1722   0.680   0.218   1.211 -1.1020  0.2844  3.6897
  575SOL     OW 1723   0.572   1.184   1.556 -0.0223  0.9938  0.0960
  575SOL    HW1 1724   0.649   1.230   1.512  0.5922  1.8497 -0.6786
  575SOL    HW2 1725   0.601   1.151   1.648  3.6360 -1.7509 -0.5250
  576SOL     OW 1726   2.715   3.004   1.265 -0.0817 -0.0303 -0.0151
  576SOL    HW1 1727   2.669   2.949   1.192 -3.3360 -0.2813 -1.6829
  576SOL    HW2 1728   2.716   3.109   1.246  1.4241  1.5216  2.5770
  577SOL     OW 1729   0.942   1.222   2.168  0.3765  0.3658 -0.1182
  577SOL    HW1 1730   0.903   1.214   2.071  0.1103 -0.1994 -3.6068
  577SOL    HW2 1731   0.918   1.131   2.211 -1.8054 -0.2200  1.3701
  578SOL     OW 1732   1.800   1.109   2.495  0.3676 -0.1297  0.3433
  578SOL    HW1 1733   1.748   1.081   2.410  0.0351  0.7598 -0.1620
  578SOL    HW2 1734   1.810   1.210   2.489 -0.4067 -1.9865 -1.6637
  579SOL     OW 1735   1.527   2.233   1.858 -0.0432  0.2916 -0.4537
  579SOL    HW1 1736   1.582   2.302   1.909 -0.5544  2.2113 -0.7055
  579SOL    HW2 1737   1.450   2.199   1.918  0.6040 -1.0602  0.7271
  580SOL     OW 1738   1.442   1.651   0.322 -0.3869 -0.0430 -0.0387
  580SOL    HW1 1739   1.511   1.584   0.350  3.2568 -1.1588  0.5572
  580SOL    HW2 1740   1.369   1.609   0.260  0.0042 -0.7824  1.5630
  581SOL     OW 1741   1.106   0.958   2.173 -0.0873 -0.0086 -0.1547
  581SOL    HW1 1742   1.014   0.953   2.224 -0.9327  0.9378  1.2958
  581SOL    HW2 1743   1.169   0.895   2.223 -0.3327 -1.6769 -1.6728
  582SOL     OW 1744   0.831   1.246   1.451  0.1191  0.0154  0.1583
  582SOL    HW1 1745   0.905   1.315   1.486 -0.2236  1.9913 -0.2114
  582SOL    HW2 1746   0.859   1.216   1.357  1.6109  0.6131 -0.1307
  583SOL     OW 1747   0.853   1.260   1.907  0.6392  0.2153 -0.2783
  583SOL    HW1 1748   0.889   1.219   1.824  0.4456  2.0175  1.0894
  583SOL    HW2 1749   0.797   1.347   1.884 -2.2665 -1.2501  2.2974
  584SOL     OW 1750   2.541   2.766   0.787 -0.5928  0.6066 -0.5722
  584SOL    HW1 1751   2.498   2.672   0.789 -3.3792 -1.0777 -0.3458
  584SOL    HW2 1752   2.553   2.792   0.690 -0.0621  0.0309  0.5785
  585SOL     OW 1753   1.995   0.286   2.901 -0.2384  0.3122  0.3605
  585SOL    HW1 1754   2.078   0.302   2.958  0.5371  3.3896  1.4729
  585SOL    HW2 1755   1.972   0.187   2.907  2.3193 -1.3817  0.4009
  586SOL     OW 1756   0.239   2.353   0.824  0.1425 -0.2479  0.0268
  586SOL    HW1 1757   0.214   2.443   0.777  0.6247 -1.9391  2.1465
  586SOL    HW2 1758   0.158   2.301   0.842  1.6481  1.2690  1.5913
  587SOL     OW 1759   1.555   1.778   3.054  0.3392  0.2769 -0.2759
  587SOL    HW1 1760   1.596   1.830   0.012 -2.7818  0.2719 -2.0491
  587SOL    HW2 1761   1.540   1.678   3.069 -0.6488  0.4100  0.0596
  588SOL     OW 1762   0.333   0.188   1.226  0.2888 -0.4056  0.1631
  588SOL    HW1 1763   0.415   0.201   1.163  2.6813  0.1192  0.1669
  588SOL    HW2 1764   0.359   0.229   1.318 -2.3362 -3.2003 -0.0790
  589SOL     OW 1765   1.385   0.243   0.727  0.2882  0.4075 -0.6801
  589SOL    HW1 1766   1.286   0.263   0.736 -2.2153  0.2705  0.7445
  589SOL    HW2 1767   1.444   0.282   0.799 -0.1204  0.6974  1.6231
  590SOL     OW 1768   1.098   0.878   3.052  0.1976  0.1535  0.3085
  590SOL    HW1 1769   1.134   0.860   2.960  0.7563  0.0683  0.9083
  590SOL    HW2 1770   1.151   0.822   3.119  3.9831 -0.0890  1.8139
  591SOL     OW 1771   2.729   2.383   2.317 -0.1740 -0.1264  0.8248
  591SOL    HW1 1772   2.639   2.385   2.367  0.6948 -0.8394 -0.8444
  591SOL    HW2 1773   2.766   2.475   2.302 -0.2170 -0.2196  1.9078
  592SOL     OW 1774   1.961   1.940   1.347 -0.4275  0.3668 -0.0436
  592SOL    HW1 1775   1.985   1.949   1.445 -0.0513 -1.7357 -0.7358
  592SOL    HW2 1776   2.005   1.856   1.305 -0.9449 -1.9978 -1.0377
  593SOL     OW 1777   1.171   0.755   1.490  0.4617  0.0123  0.6408
  593SOL    HW1 1778   1.069   0.765   1.491  0.2138 -0.7423 -0.7306
  593SOL    HW2 1779   1.193   0.715   1.395  0.7896  0.5485 -1.9577
  594SOL     OW 1780   2.449   1.101   2.414 -0.2942 -0.2035  0.9065
  594SOL    HW1 1781   2.397   1.135   2.493  0.1736 -0.3080 -1.7301
  594SOL    HW2 1782   2.401   1.022   2.378  1.1664  0.2883 -1.6678
  595SOL     OW 1783   0.225   0.195   0.456 -0.4847 -0.2135 -0.3046
  595SOL    HW1 1784   0.205   0.192   0.555 -1.5378  1.4070  2.3144
  595SOL    HW2 1785   0.325   0.160   0.432  4.1630 -0.8807  2.6105
  596SOL     OW 1786   0.001   1.477   1.192 -0.0602 -0.4400 -0.4156
  596SOL    HW1 1787   0.093   1.440   1.210 -2.2970 -0.4063 -0.4129
  596SOL    HW2 1788   3.057   1.413   1.237  0.7604 -1.1763  0.2792
  597SOL     OW 1789   1.840   1.512   0.454  0.1170  0.5793  0.3858
  597SOL    HW1 1790   1.827   1.601   0.496 -0.7947 -0.4023  0.7979
  597SOL    HW2 1791   1.905   1.521   0.378 -1.0526 -0.9010 -0.8072
  598SOL     OW 1792   0.284   2.573   1.611  0.4571  0.0536 -0.0593
  598SOL    HW1 1793   0.261   2.525   1.525 -0.8808 -2.8951 -1.8748
  598SOL    HW2 1794   0.382   2.573   1.620 -4.1173  0.1369 -1.5719
  599SOL     OW 1795   2.716   1.080   2.557  0.0495  0.1020 -0.0673
  599SOL    HW1 1796   2.791   1.118   2.496  0.8871  1.8550  0.0650
  599SOL    HW2 1797   2.627   1.069   2.509 -1.1756  2.5325 -4.7912
  600SOL     OW 1798   0.537   1.124   0.225  0.4057  0.1544 -0.4331
  600SOL    HW1 1799   0.622   1.172   0.197  0.7356 -1.1524  1.5094
  600SOL    HW2 1800   0.510   1.160   0.321 -1.2437  1.0419  1.5814
  601SOL     OW 1801   0.560   0.972   0.789  0.3760  0.2710  0.7217
  601SOL    HW1 1802   0.538   1.011   0.876  2.7922 -4.1099 -1.8808
  601SOL    HW2 1803   0.474   0.974   0.733 -0.9838 -1.0345  2.6564
  602SOL     OW 1804   1.480   2.400   0.414 -0.7910  0.1240 -0.7326
  602SOL    HW1 1805   1.499   2.379   0.512  1.2317 -0.0443 -2.4896
  602SOL    HW2 1806   1.564   2.436   0.363  0.6520  2.5022 -1.9797
  603SOL     OW 1807   1.009   2.638   2.031 -0.4102 -0.2413 -0.2777
  603SOL    HW1 1808   1.044   2.659   2.123 -0.2707 -2.6400 -3.9690
  603SOL    HW2 1809   0.934   2.571   2.038  1.7405  1.0017  1.6762
  604SOL     OW 1810   0.337   0.288   2.288 -0.0091  0.0187  0.6120
  604SOL    HW1 1811   0.319   0.186   2.282  2.4961 -0.6839 -0.8770
  604SOL    HW2 1812   0.253   0.334   2.245 -2.6716 -0.4176 -0.3993
  605SOL     OW 1813   2.961   1.121   1.537  0.0420 -0.2507  0.5083
  605SOL    HW1 1814   2.942   1.153   1.637 -0.6757  2.1292  2.2452
  605SOL    HW2 1815   2.936   1.022   1.524  2.6319 -0.5655  0.9640
  606SOL     OW 1816   0.832   1.796   2.600  0.2272  0.2451 -0.2454
  606SOL    HW1 1817   0.762   1.858   2.560  2.5081  0.8183 -2.7934
  606SOL    HW2 1818   0.824   1.695   2.570  0.7386 -1.9073  0.2491
  607SOL     OW 1819   0.458   2.952   0.219  0.7329 -0.9539 -0.3073
  607SOL    HW1 1820   0.464   2.897   0.130 -3.1380 -0.7381 -0.1632
  607SOL    HW2 1821   0.374   3.016   0.218 -1.3682  0.5558 -1.8970
  608SOL     OW 1822   2.298   1.632   1.973 -0.0708  0.1856  0.0131
  608SOL    HW1 1823   2.254   1.546   1.934  0.3451 -1.0665 -0.2988
  608SOL    HW2 1824   2.228   1.674   2.035 -1.0927  1.4240 -2.5609
  609SOL     OW 1825   2.652   0.477   1.097 -0.3122 -0.1549  0.9370
  609SOL    HW1 1826   2.636   0.574   1.068  0.3521  0.1114 -0.5373
  609SOL    HW2 1827   2.571   0.419   1.077 -0.9868 -0.0621 -0.7062
  610SOL     OW 1828   0.247   2.744   0.492 -0.0647 -0.2181 -0.3482
  610SOL    HW1 1829   0.341   2.779   0.465 -0.2353  1.1370  2.9766
  610SOL    HW2 1830   0.196   2.705   0.412 -1.4833  0.9411  1.7630
  611SOL     OW 1831   1.647   1.146   0.108  0.5537 -0.6687 -0.5061
  611SOL    HW1 1832   1.719   1.084   0.147  1.0270 -0.8543 -2.2129
  611SOL    HW2 1833   1.602   1.206   0.174 -1.7392  1.8076  1.4371
  612SOL     OW 1834   0.677   2.431   1.857  0.5328  0.2461 -0.5102
  612SOL    HW1 1835   0.728   2.412   1.945 -1.6863  1.0968 -1.4468
  612SOL    HW2 1836   0.659   2.527   1.838  0.2918 -0.7223 -0.5125
  613SOL     OW 1837   0.644   2.699   0.652  0.1931  0.5511 -0.2130
  613SOL    HW1 1838   0.647   2.777   0.713 -1.7794 -1.4067  0.1615
  613SOL    HW2 1839   0.740   2.674   0.626  0.8814 -0.0657  1.0994
  614SOL     OW 1840   2.247   2.810   1.507  0.1194  0.0861  0.3451
  614SOL    HW1 1841   2.296   2.726   1.542  0.9447 -0.5143  1.2388
  614SOL    HW2 1842   2.157   2.819   1.555 -3.1699  2.4751  2.5579
  615SOL     OW 1843   1.798   0.946   0.195 -0.2159  0.2826  0.2146
  615SOL    HW1 1844   1.728   0.886   0.234 -0.2723  2.7779  1.5627
  615SOL    HW2 1845   1.886   0.893   0.175  1.1043  0.9269 -0.9794
  616SOL     OW 1846   2.075   0.813   0.280  0.1903  0.1793  0.3564
  616SOL    HW1 1847   2.085   0.915   0.267  0.6546 -2.4257  2.3262
  616SOL    HW2 1848   2.104   0.767   0.194 -0.0958 -0.9014 -0.2287
  617SOL     OW 1849   0.996   0.606   2.807  0.5179  0.3655  0.3313
  617SOL    HW1 1850   1.046   0.692   2.791  1.2021  0.1650  0.2719
  617SOL    HW2 1851   0.963   0.587   2.899 -0.2894 -2.6777 -2.0560
  618SOL     OW 1852   0.993   3.047   2.076  0.1751  0.4129  0.4413
  618SOL    HW1 1853   0.969   2.989   2.000 -0.8256  2.9191 -1.3195
  618SOL    HW2 1854   0.952   0.017   2.065 -0.0833  0.9462  0.1687
  619SOL     OW 1855   2.926   1.333   1.330  0.1830  0.3235 -0.2570
  619SOL    HW1 1856   2.859   1.403   1.364  2.2738  0.8324  0.6941
  619SOL    HW2 1857   2.928   1.248   1.392 -1.0748 -1.5246  2.4802
  620SOL     OW 1858   0.014   0.918   2.830  0.3636 -0.2660  0.2592
  620SOL    HW1 1859   0.013   0.818   2.843  1.2270  1.0597 -1.2118
  620SOL    HW2 1860   0.107   0.955   2.816 -0.8275  1.2489 -0.5055
  621SOL     OW 1861   2.274   2.105   2.242  0.5212  0.0443 -0.3985
  621SOL    HW1 1862   2.224   2.062   2.162  1.3047 -0.0145  0.4181
  621SOL    HW2 1863   2.327   2.186   2.217 -0.6198  0.4394 -0.0770
  622SOL     OW 1864   1.116   0.537   2.034  0.4753  0.3605  0.0906
  622SOL    HW1 1865   1.080   0.556   2.127  0.1325  0.0304  0.2251
  622SOL    HW2 1866   1.218   0.539   2.032 -1.3455 -0.0277 -0.9292
  623SOL     OW 1867   0.856   0.984   2.288 -0.1202  0.4462 -0.0057
  623SOL    HW1 1868   0.786   0.915   2.258  1.3920  0.4954 -0.2155
  623SOL    HW2 1869   0.871   0.983   2.390 -0.0927 -2.5763  1.6350
  624SOL     OW 1870   2.701   0.968   0.308 -0.5052 -0.2851  0.6061
  624SOL    HW1 1871   2.680   1.011   0.398 -1.1176 -0.9154 -3.4387
  624SOL    HW2 1872   2.738   0.874   0.322  1.2971  1.3740  0.2299
  625SOL     OW 1873   0.898   1.495   0.800  0.4184 -0.0075  0.6385
  625SOL    HW1 1874   0.874   1.584   0.850  1.6435  0.4310  2.2140
  625SOL    HW2 1875   0.918   1.421   0.866  0.9407  0.0215  1.5803
  626SOL     OW 1876   1.865   0.897   2.646  0.2833  0.6531  0.4173
  626SOL    HW1 1877   1.946   0.915   2.707 -1.2066 -0.5734 -0.2521
  626SOL    HW2 1878   1.837   0.980   2.595 -2.5568 -1.7686  2.7696
  627SOL     OW 1879   1.235   2.915   2.976  0.6382 -0.4386 -0.1580
  627SOL    HW1 1880   1.313   2.983   2.973  0.7813  1.8485  0.7095
  627SOL    HW2 1881   1.234   2.877   2.880 -1.8720 -2.0605  0.2944
  628SOL     OW 1882   2.153   0.017   2.489 -0.1950 -0.3219 -0.0916
  628SOL    HW1 1883   2.174   0.022   2.587  1.0156  1.5508  1.1088
  628SOL    HW2 1884   2.225   0.057   2.436 -3.0869  1.0928  1.2614
  629SOL     OW 1885   0.675   0.181   2.875 -0.6032 -0.0861 -0.6413
  629SOL    HW1 1886   0.576   0.186   2.851  0.1630  0.6793 -0.6961
  629SOL    HW2 1887   0.714   0.267   2.836  0.7011 -1.0196 -3.0187
  630SOL     OW 1888   1.089   0.387   2.658  0.5073 -0.1752  0.0978
  630SOL    HW1 1889   1.122   0.307   2.713 -4.1264  0.5149  0.2250
  630SOL    HW2 1890   1.045   0.457   2.714  1.3024  1.6331  0.9925
  631SOL     OW 1891   2.180   1.418   0.766 -0.0388 -0.4068  0.0448
  631SOL    HW1 1892   2.150   1.343   0.823  3.2569  0.8620  0.2071
  631SOL    HW2 1893   2.230   1.392   0.684 -2.1852  1.3941  2.9011
  632SOL     OW 1894   1.996   0.956   1.596 -0.2799  0.5135  0.2803
  632SOL    HW1 1895   2.080   0.959   1.541 -0.7751  2.0637  1.1608
  632SOL    HW2 1896   1.916   0.921   1.541 -1.5104 -0.1951  0.2106
  633SOL     OW 1897   1.193   1.627   0.197  0.3696 -0.0460 -0.2233
  633SOL    HW1 1898   1.146   1.697   0.139 -0.1835 -0.4782  0.6609
  633SOL    HW2 1899   1.150   1.613   0.288  1.9555 -1.2007  0.0033
  634SOL     OW 1900   2.474   0.063   1.415  0.5386  0.1185  0.2478
  634SOL    HW1 1901   2.382   0.084   1.443 -0.3478 -0.0614 -0.2064
  634SOL    HW2 1902   2.507   3.109   1.471 -1.4776  0.0087  0.4149
  635SOL     OW 1903   1.804   0.299   0.942  0.3959 -0.1097  0.2891
  635SOL    HW1 1904   1.844   0.381   0.889  0.6069  3.9689  0.4379
  635SOL    HW2 1905   1.824   0.214   0.893 -0.7977  2.3314  1.0999
  636SOL     OW 1906   0.802   1.208   0.143 -0.1166 -0.3253 -0.4021
  636SOL    HW1 1907   0.795   1.309   0.120  0.2034  0.5883  0.2811
  636SOL    HW2 1908   0.873   1.151   0.093  3.3439 -3.2615 -3.2702
  637SOL     OW 1909   2.899   2.084   2.907 -0.3803  1.1294 -1.1163
  637SOL    HW1 1910   2.868   2.143   2.978 -0.6978 -1.9386 -0.7542
  637SOL    HW2 1911   2.995   2.108   2.871  1.3065  1.2386  0.3244
  638SOL     OW 1912   1.505   2.806   2.885  0.5546 -0.1882 -0.0128
  638SOL    HW1 1913   1.519   2.835   2.788  0.1030 -1.6736 -2.2196
  638SOL    HW2 1914   1.473   2.710   2.876  2.3807 -1.8918 -0.0040
  639SOL     OW 1915   1.382   1.615   1.300 -0.3121 -0.1955  0.0324
  639SOL    HW1 1916   1.354   1.711   1.297 -1.5584 -1.5124 -3.3855
  639SOL    HW2 1917   1.482   1.603   1.278  1.0786 -1.4169  0.9035
  640SOL     OW 1918   2.255   2.856   0.611 -0.3779  0.1259  0.0124
  640SOL    HW1 1919   2.173   2.900   0.578  1.8879 -1.1788 -1.7464
  640SOL    HW2 1920   2.263   2.759   0.569 -0.5086  0.3035  0.2036
  641SOL     OW 1921   2.970   0.118   3.067 -0.1462 -0.2731 -0.2257
  641SOL    HW1 1922   2.908   0.198   3.068  0.6424  0.0491  0.5785
  641SOL    HW2 1923   2.985   0.084   0.043 -0.7084  0.9396  2.4069
  642SOL     OW 1924   2.966   0.745   1.171  0.5073  0.4140 -0.4763
  642SOL    HW1 1925   2.880   0.784   1.130 -1.0163  1.3692  0.8964
  642SOL    HW2 1926   3.017   0.813   1.224 -0.2632  0.0765 -1.6107
  643SOL     OW 1927   0.820   1.827   2.105  0.3242  0.2705  0.1585
  643SOL    HW1 1928   0.724   1.787   2.114  2.1608  1.4133 -0.4470
  643SOL    HW2 1929   0.830   1.873   2.015  0.8942 -1.2206  1.3419
  644SOL     OW 1930   1.816   2.430   0.587 -0.0273 -0.1241 -0.1190
  644SOL    HW1 1931   1.874   2.421   0.670  0.9362  0.0134  2.7139
  644SOL    HW2 1932   1.845   2.509   0.529  1.3280  0.6771 -0.4459
  645SOL     OW 1933   2.171   2.053   0.941 -0.1186  0.7777 -0.1252
  645SOL    HW1 1934   2.130   2.120   0.882 -1.0043 -2.4561  0.8452
  645SOL    HW2 1935   2.231   1.991   0.895  1.2916  0.6343  1.1835
  646SOL     OW 1936   1.085   2.435   2.998  0.0803  0.4130  0.0149
  646SOL    HW1 1937   1.131   2.510   3.046 -1.7596 -0.7146 -0.7914
  646SOL    HW2 1938   1.070   2.358   3.067 -1.3624 -1.1673  2.4203
  647SOL     OW 1939   0.646   2.695   1.785 -0.0357 -0.1499 -0.0060
  647SOL    HW1 1940   0.593   2.746   1.853 -1.2111 -0.0243  0.2475
  647SOL    HW2 1941   0.602   2.699   1.696  3.2404 -1.5226  1.5333
  648SOL     OW 1942   1.738   0.472   1.934 -0.1019  0.3520 -0.2616
  648SOL    HW1 1943   1.742   0.519   1.846  0.2509 -0.8615 -0.2609
  648SOL    HW2 1944   1.699   0.537   2.002  0.6751 -0.2572 -0.2728
  649SOL     OW 1945   1.737   2.229   0.253 -0.0189  0.1941  0.0162
  649SOL    HW1 1946   1.686   2.185   0.332 -0.2913 -1.0689 -0.0661
  649SOL    HW2 1947   1.694   2.209   0.161 -0.6266  1.8181 -1.2269
  650SOL     OW 1948   1.801   1.687   1.847  0.2156 -0.0570 -0.3921
  650SOL    HW1 1949   1.873   1.631   1.898  2.4526  1.8605  0.4474
  650SOL    HW2 1950   1.778   1.641   1.760 -0.7736 -1.5906  2.0902
  651SOL     OW 1951   1.501   2.651   0.090 -0.3465 -0.9403 -0.6974
  651SOL    HW1 1952   1.564   2.620   0.166  2.2932 -0.5208  0.2597
  651SOL    HW2 1953   1.529   2.746   0.065 -1.2133  2.8810  1.2577
  652SOL     OW 1954   0.639   2.358   0.307  0.1826 -0.6586  0.5625
  652SOL    HW1 1955   0.591   2.363   0.394 -1.4442 -0.2816 -2.6278
  652SOL    HW2 1956   0.613   2.432   0.248 -0.0401 -1.9829  1.6419
  653SOL     OW 1957   2.529   2.308   1.328 -0.2889  0.9011 -0.2900
  653SOL    HW1 1958   2.451   2.261   1.371  2.0707  1.1783  1.4006
  653SOL    HW2 1959   2.500   2.369   1.254  2.1262  0.1685  2.1443
  654SOL     OW 1960   2.771   2.781   1.558  0.2887 -0.5159 -0.4400
  654SOL    HW1 1961   2.740   2.875   1.576  0.2460 -0.7168  0.7854
  654SOL    HW2 1962   2.686   2.719   1.543 -2.7139 -2.4702 -1.0033
  655SOL     OW 1963   3.096   1.948   1.119  0.6128  0.1502 -0.2071
  655SOL    HW1 1964   3.099   1.858   1.167  2.2710 -0.8463 -1.1728
  655SOL    HW2 1965   3.039   2.017   1.169  0.8469  3.2884 -1.3108
  656SOL     OW 1966   3.029   2.799   2.342  0.3062  0.0841  0.4787
  656SOL    HW1 1967   3.035   2.853   2.253  0.7494 -1.4513 -0.4072
  656SOL    HW2 1968   3.117   2.753   2.357  1.2376  1.6258  1.0700
  657SOL     OW 1969   3.112   1.357   2.881 -0.1801 -0.3291 -0.8939
  657SOL    HW1 1970   3.049   1.302   2.937 -2.0995 -1.6683  0.8906
  657SOL    HW2 1971   3.061   1.426   2.821 -1.5812  2.4779  1.2598
  658SOL     OW 1972   1.790   1.736   0.593 -0.1285 -1.2636  0.5406
  658SOL    HW1 1973   1.859   1.804   0.579 -3.5523 -5.9584 -1.1176
  658SOL    HW2 1974   1.785   1.708   0.689  0.3919 -1.8020 -0.2804
  659SOL     OW 1975   1.247   0.634   1.271  0.1244  0.1288  0.1013
  659SOL    HW1 1976   1.268   0.691   1.189 -0.9239 -0.0855  0.4697
  659SOL    HW2 1977   1.302   0.548   1.276  2.1568  3.1457 -0.4665
  660SOL     OW 1978   1.590   1.461   3.120 -0.0405  0.4072 -0.0483
  660SOL    HW1 1979   1.536   1.422   0.080 -1.8572 -1.1226  3.2199
  660SOL    HW2 1980   1.545   1.431   3.034  1.8546 -0.4992 -1.8449
  661SOL     OW 1981   0.253   2.365   0.477 -0.1170  0.6094  0.8988
  661SOL    HW1 1982   0.353   2.371   0.497 -1.9536 -0.6563  0.3129
  661SOL    HW2 1983   0.193   2.410   0.543  0.9865  0.2653  0.3849
  662SOL     OW 1984   0.166   0.749   2.223 -0.6195  0.0278  0.6503
  662SOL    HW1 1985   0.179   0.743   2.324  1.5620  1.1663 -2.0122
  662SOL    HW2 1986   0.160   0.653   2.183  1.1640  0.8561  0.4536
  663SOL     OW 1987   1.894   1.386   0.919  0.0196  0.4765 -0.3001
  663SOL    HW1 1988   1.951   1.319   0.967  1.9075 -0.7414 -0.5386
  663SOL    HW2 1989   1.881   1.468   0.974 -0.2569  0.1777  0.4045
  664SOL     OW 1990   0.971   0.807   1.133 -0.4370 -0.0581 -0.1839
  664SOL    HW1 1991   0.968   0.712   1.169  0.1549 -0.2476  0.8692
  664SOL    HW2 1992   0.902   0.864   1.183  0.1235  1.1982  1.3979
  665SOL     OW 1993   0.994   3.035   3.044  0.0422 -0.2605  0.2895
  665SOL    HW1 1994   1.025   3.115   3.092 -0.9697 -0.0724  0.3953
  665SOL    HW2 1995   1.074   2.968   3.035  1.7113 -2.3220  1.7999
  666SOL     OW 1996   3.013   0.168   2.502 -0.0974 -0.0429  0.2422
  666SOL    HW1 1997   3.011   0.108   2.585 -0.4145 -2.0422  0.1795
  666SOL    HW2 1998   2.924   0.227   2.503 -2.1174 -0.6890 -0.7476
  667SOL     OW 1999   2.264   1.402   2.414  0.1505 -0.5385 -0.0788
  667SOL    HW1 2000   2.316   1.480   2.365 -0.4469  2.8288 -1.2165
  667SOL    HW2 2001   2.321   1.378   2.493  0.0122 -0.8375 -2.4925
  668SOL     OW 2002   0.625   1.234   2.501 -0.2407 -0.0248  0.2295
  668SOL    HW1 2003   0.535   1.260   2.546  0.1818 -0.9936 -1.4222
  668SOL    HW2 2004   0.617   1.137   2.468  2.6489  0.6789  0.7106
  669SOL     OW 2005   2.151   2.299   2.613  0.1186 -0.4620  0.0606
  669SOL    HW1 2006   2.145   2.217   2.672  0.9313 -2.0984 -0.8116
  669SOL    HW2 2007   2.108   2.380   2.658 -0.0976  1.5167  2.0435
  670SOL     OW 2008   2.049   1.239   2.352 -0.4042  0.3891  0.2872
  670SOL    HW1 2009   2.020   1.180   2.430  0.6067  0.4974 -0.3924
  670SOL    HW2 2010   2.130   1.303   2.373  2.2236  2.6798 -4.3851
  671SOL     OW 2011   2.575   1.507   3.051 -0.3623 -0.1701 -0.3410
  671SOL    HW1 2012   2.593   1.414   3.009  3.4455 -1.5478 -0.6612
  671SOL    HW2 2013   2.600   1.502   0.025 -2.0164 -0.3289 -0.6907
  672SOL     OW 2014   2.601   1.011   2.041 -0.3819 -0.1964  0.0959
  672SOL    HW1 2015   2.650   0.982   1.955  0.4821  0.6018  0.6319
  672SOL    HW2 2016   2.501   0.998   2.048  4.0638  2.3034  3.7285
  673SOL     OW 2017   2.623   0.887   1.339  0.6148 -0.2138  0.6517
  673SOL    HW1 2018   2.651   0.978   1.308 -1.9891 -0.7338 -0.1415
  673SOL    HW2 2019   2.693   0.844   1.398 -1.0754 -2.8898  2.0236
  674SOL     OW 2020   1.954   1.931   1.849  0.6993 -0.3008  0.9224
  674SOL    HW1 2021   1.899   1.854   1.873  1.7780  2.7501 -0.8829
  674SOL    HW2 2022   1.898   2.012   1.809 -2.0616  4.4228  0.8585
  675SOL     OW 2023   0.403   0.586   0.909  0.0439  0.1546 -0.0889
  675SOL    HW1 2024   0.490   0.605   0.866 -1.5728 -1.8429  1.3071
  675SOL    HW2 2025   0.366   0.496   0.878 -0.8682 -0.6418 -0.7663
  676SOL     OW 2026   1.885   1.028   1.280  0.2907  0.0613  0.0445
  676SOL    HW1 2027   1.914   1.123   1.310  0.1428  2.1565  0.5208
  676SOL    HW2 2028   1.843   0.975   1.357  0.4241  1.6975 -0.4221
  677SOL     OW 2029   2.096   1.561   2.570  0.5329 -0.2132 -0.0021
  677SOL    HW1 2030   2.144   1.646   2.608  1.0003  4.2072 -2.9542
  677SOL    HW2 2031   2.150   1.515   2.502  1.1305  1.4022 -0.2407
  678SOL     OW 2032   0.018   1.719   0.665 -0.4450  0.5657  0.0701
  678SOL    HW1 2033   0.009   1.796   0.732  0.7195 -0.9037 -1.2744
  678SOL    HW2 2034   3.110   1.749   0.573  1.0862 -2.7709 -1.7030
  679SOL     OW 2035   2.952   2.583   0.615  0.3145 -0.4131 -0.0458
  679SOL    HW1 2036   2.964   2.675   0.569  0.5212  2.4920  0.7195
  679SOL    HW2 2037   2.923   2.605   0.712  1.4072 -0.7463 -1.3579
  680SOL     OW 2038   0.053   2.385   1.202 -0.4054  0.0380  0.6308
  680SOL    HW1 2039   0.130   2.374   1.265  0.1272  0.9797  0.9022
  680SOL    HW2 2040   3.110   2.307   1.222  2.3720  0.1077  3.1972
  681SOL     OW 2041   0.434   1.299   1.073 -0.4046 -0.3849  0.1273
  681SOL    HW1 2042   0.528   1.324   1.112 -2.5698 -2.7001  0.7147
  681SOL    HW2 2043   0.361   1.347   1.122  2.1038  1.0777 -0.0410
  682SOL     OW 2044   1.692   2.724   0.919  0.1615  0.3582  0.3137
  682SOL    HW1 2045   1.786   2.694   0.912  0.5675 -1.6637  2.1193
  682SOL    HW2 2046   1.681   2.799   0.984 -0.1287 -0.0410  0.9113
  683SOL     OW 2047   2.295   1.303   1.142 -0.2508  0.2046  0.2784
  683SOL    HW1 2048   2.345   1.356   1.067  0.3892  1.0883  0.4707
  683SOL    HW2 2049   2.312   1.204   1.142  0.9510 -0.0314  0.9320
  684SOL     OW 2050   0.840   1.968   1.834 -0.7359  0.7557  0.1716
  684SOL    HW1 2051   0.836   2.064   1.794  1.1871  1.3236 -0.5152
  684SOL    HW2 2052   0.764   1.915   1.792 -0.9822 -1.4101 -0.5571
  685SOL     OW 2053   2.223   1.475   0.282  0.6254  0.2658  0.4184
  685SOL    HW1 2054   2.270   1.561   0.255  1.5919  2.8901 -0.4530
  685SOL    HW2 2055   2.120   1.488   0.289  1.2992 -0.6976  2.5724
  686SOL     OW 2056   3.079   0.709   0.315 -0.1697  1.1494 -0.0755
  686SOL    HW1 2057   3.119   0.804   0.315 -4.3421 -1.6969  0.0360
  686SOL    HW2 2058   2.976   0.718   0.317 -1.3618 -0.0171  0.4323
  687SOL     OW 2059   0.988   2.882   0.387 -0.0743  0.0121 -0.4076
  687SOL    HW1 2060   1.013   2.823   0.467 -3.6517 -0.1375 -1.2718
  687SOL    HW2 2061   0.981   2.812   0.311 -1.0543  1.6017  2.1565
  688SOL     OW 2062   1.921   1.823   2.313 -0.4796 -0.1794  0.2643
  688SOL    HW1 2063   1.846   1.804   2.380  0.9271 -2.5047  0.1204
  688SOL    HW2 2064   1.885   1.813   2.220  0.8911  0.5002  1.0004
  689SOL     OW 2065   2.604   0.835   2.248 -0.3074  0.0184  0.1020
  689SOL    HW1 2066   2.585   0.921   2.195 -1.3219  0.6309 -2.9807
  689SOL    HW2 2067   2.699   0.849   2.287  2.5523  0.5503 -0.4133
  690SOL     OW 2068   1.555   0.392   1.000 -0.0428 -0.1292 -0.2371
  690SOL    HW1 2069   1.504   0.319   1.047 -0.1260 -4.4216 -1.7693
  690SOL    HW2 2070   1.650   0.358   0.976  2.3174 -2.0720 -0.8342
  691SOL     OW 2071   0.961   1.713   1.617 -0.0162  0.1037 -0.5515
  691SOL    HW1 2072   0.949   1.623   1.575 -0.1028 -1.5691 -0.2484
  691SOL    HW2 2073   1.050   1.758   1.587  0.6547 -2.4388 -1.6607
  692SOL     OW 2074   1.774   0.218   1.953 -0.3244  0.0142 -0.0645
  692SOL    HW1 2075   1.740   0.314   1.949 -1.1363  1.5243 -0.3563
  692SOL    HW2 2076   1.843   0.206   2.029 -0.6549  1.2432  2.9994
  693SOL     OW 2077   0.670   1.086   2.971  0.3876  0.1537 -0.0531
  693SOL    HW1 2078   0.717   1.178   2.986 -3.6559  0.3282  0.5908
  693SOL    HW2 2079   0.733   1.007   2.949  1.2854 -0.8738  2.8948
  694SOL     OW 2080   2.151   2.630   0.824 -0.6764 -0.3740  0.5016
  694SOL    HW1 2081   2.209   2.688   0.880 -1.8678 -1.9058 -1.8550
  694SOL    HW2 2082   2.153   2.648   0.724 -0.8393 -2.3370  0.8956
  695SOL     OW 2083   1.368   1.475   2.499  0.1903 -0.0454  0.2560
  695SOL    HW1 2084   1.321   1.518   2.579 -1.7318 -0.8001  0.4927
  695SOL    HW2 2085   1.314   1.395   2.469  1.6502  1.6410  0.0495
  696SOL     OW 2086   1.352   0.383   1.300 -0.7221 -0.3162  0.1235
  696SOL    HW1 2087   1.356   0.296   1.245 -1.1373 -1.8575 -0.8839
  696SOL    HW2 2088   1.433   0.389   1.365 -0.8693 -0.7431  0.3728
  697SOL     OW 2089   1.195   0.137   1.857 -0.2362  0.2706  0.1234
  697SOL    HW1 2090   1.196   0.039   1.864  1.4069  1.4115 -1.5248
  697SOL    HW2 2091   1.239   0.170   1.944 -1.1745 -1.2217  0.1211
  698SOL     OW 2092   1.625   1.499   2.422 -0.7498 -0.2353 -0.4221
  698SOL    HW1 2093   1.638   1.453   2.332  1.0855  0.4039 -0.5121
  698SOL    HW2 2094   1.532   1.488   2.453  4.2710 -1.2835 -1.3961
  699SOL     OW 2095   1.524   1.201   1.444  0.0163  0.2498  0.0120
  699SOL    HW1 2096   1.566   1.156   1.361  0.1075 -2.4979  1.1739
  699SOL    HW2 2097   1.429   1.223   1.422 -1.4451 -2.1868 -0.6809
  700SOL     OW 2098   1.612   0.107   0.309  0.0176  0.2589  0.4585
  700SOL    HW1 2099   1.581   0.149   0.392  0.1029 -3.1076  0.0888
  700SOL    HW2 2100   1.560   0.020   0.288 -0.4771 -1.7416 -0.2040
  701SOL     OW 2101   0.259   2.996   1.678 -0.1548 -0.1716 -0.3938
  701SOL    HW1 2102   0.286   2.897   1.707 -0.2661 -3.5648 -0.1464
  701SOL    HW2 2103   0.177   2.996   1.623 -1.9235  0.6514  2.4486
  702SOL     OW 2104   1.372   2.782   1.043  0.2032 -0.3639  0.3218
  702SOL    HW1 2105   1.375   2.728   0.955  1.3541 -0.0157 -0.2977
  702SOL    HW2 2106   1.369   2.880   1.021  1.5657 -0.9169 -1.7126
  703SOL     OW 2107   2.441   0.153   2.043  0.2580  0.0065  0.1841
  703SOL    HW1 2108   2.441   0.203   1.956 -0.3063 -0.0763  0.0963
  703SOL    HW2 2109   2.526   0.176   2.096 -0.9830 -0.8839  0.4802
  704SOL     OW 2110   1.280   1.855   1.244  0.1130 -0.1418  0.0327
  704SOL    HW1 2111   1.209   1.877   1.174  0.2801  0.1036  2.1066
  704SOL    HW2 2112   1.367   1.908   1.227 -0.0050  0.4054  1.9139
  705SOL     OW 2113   2.748   1.417   1.988  0.1716  0.0566 -0.5380
  705SOL    HW1 2114   2.655   1.430   2.020  4.3392  1.5611 -0.6023
  705SOL    HW2 2115   2.772   1.328   2.025 -1.0921 -0.6579 -0.5197
  706SOL     OW 2116   1.237   0.097   0.515  0.1040  0.6501 -0.2306
  706SOL    HW1 2117   1.155   0.156   0.520 -0.1401  0.1337 -0.1152
  706SOL    HW2 2118   1.289   0.097   0.601 -1.0422  0.1714 -0.2789
  707SOL     OW 2119   1.086   2.500   2.468  0.1260 -0.0153  0.7463
  707SOL    HW1 2120   0.996   2.453   2.449  0.1459 -0.0790 -0.6304
  707SOL    HW2 2121   1.151   2.426   2.494 -0.7280  2.1975 -1.5618
  708SOL     OW 2122   0.236   2.364   1.393 -0.0700 -0.4027 -0.1302
  708SOL    HW1 2123   0.224   2.318   1.483  0.4406 -0.2591  2.4286
  708SOL    HW2 2124   0.331   2.362   1.353 -2.3134 -0.4788  0.8948
  709SOL     OW 2125   2.160   0.613   2.048 -0.1713 -0.0241 -0.2988
  709SOL    HW1 2126   2.085   0.667   2.094  1.4217  2.0539 -1.0357
  709SOL    HW2 2127   2.125   0.522   2.009  2.2792  2.4308  0.3797
  710SOL     OW 2128   2.767   0.565   1.535  0.1814  0.0644  0.7975
  710SOL    HW1 2129   2.676   0.531   1.560  3.2164  1.3081 -1.0394
  710SOL    HW2 2130   2.792   0.541   1.438  0.0317 -1.6932 -1.2376
  711SOL     OW 2131   0.103   2.530   0.620  0.0453  0.0014 -0.0376
  711SOL    HW1 2132   0.118   2.621   0.575  0.4871  2.0071  0.5568
  711SOL    HW2 2133   0.007   2.522   0.641  2.0061  0.9071  0.4561
  712SOL     OW 2134   0.304   2.423   2.517 -0.2488 -0.3731 -0.1217
  712SOL    HW1 2135   0.377   2.493   2.496 -0.8315  2.4921  2.5287
  712SOL    HW2 2136   0.224   2.471   2.560  1.0877 -1.9884 -2.4178
  713SOL     OW 2137   1.629   0.688   0.196 -0.6627  0.0343  1.0779
  713SOL    HW1 2138   1.545   0.735   0.172  1.5110 -1.2842 -0.1143
  713SOL    HW2 2139   1.678   0.680   0.109 -3.3055 -0.7251  1.3168
  714SOL     OW 2140   1.615   2.112   0.479  0.0892 -0.6211 -0.3400
  714SOL    HW1 2141   1.574   2.024   0.501  0.3033  2.2824  2.6567
  714SOL    HW2 2142   1.590   2.181   0.550  1.4184 -3.1018  1.3277
  715SOL     OW 2143   3.109   0.272   0.356 -0.1586 -0.1585  0.3520
  715SOL    HW1 2144   3.045   0.296   0.434  0.5974  0.0664  1.4198
  715SOL    HW2 2145   0.075   0.235   0.395 -1.1052  0.1622  0.2017
  716SOL     OW 2146   0.573   0.079   2.359 -0.0441  0.1580 -0.2770
  716SOL    HW1 2147   0.517   0.140   2.425  0.8697  2.2342 -0.3172
  716SOL    HW2 2148   0.640   0.018   2.411  0.7035 -1.6455  0.2772
  717SOL     OW 2149   0.024   0.646   2.838  0.4612  0.1375  0.5813
  717SOL    HW1 2150   0.118   0.612   2.812 -0.8746 -0.1958  3.8147
  717SOL    HW2 2151   3.079   0.571   2.853  0.4477  0.0640  0.4055
  718SOL     OW 2152   1.108   0.560   0.436  0.2345  0.7073  0.1158
  718SOL    HW1 2153   1.137   0.558   0.534  1.9199  2.4059 -2.7135
  718SOL    HW2 2154   1.183   0.514   0.387  2.0805  0.9440 -1.5137
  719SOL     OW 2155   2.849   2.294   2.682 -0.0484  0.6827 -0.5328
  719SOL    HW1 2156   2.753   2.316   2.704  2.7927 -1.4598 -0.4463
  719SOL    HW2 2157   2.860   2.197   2.651 -1.2727  1.1665  0.4537
  720SOL     OW 2158   1.681   0.653   1.730 -0.0491 -0.1496 -0.4519
  720SOL    HW1 2159   1.704   0.747   1.753  2.6521 -1.0823  1.9664
  720SOL    HW2 2160   1.587   0.646   1.692  0.2505 -0.4747  2.3663
  721SOL     OW 2161   2.687   0.636   0.837 -0.4857 -0.0930  0.2774
  721SOL    HW1 2162   2.638   0.549   0.809  1.8536 -4.2520 -3.8967
  721SOL    HW2 2163   2.787   0.635   0.808  3.5316  0.0213 -1.6916
  722SOL     OW 2164   1.541   2.362   2.443  0.4631  0.7509  0.0633
  722SOL    HW1 2165   1.584   2.419   2.373 -2.2217 -0.0634  0.6486
  722SOL    HW2 2166   1.582   2.272   2.469  2.1815 -1.4200 -2.0967
  723SOL     OW 2167   0.526   0.328   0.689 -0.1709  0.3282  0.3326
  723SOL    HW1 2168   0.593   0.377   0.747  0.7917 -1.9752 -2.9078
  723SOL    HW2 2169   0.475   0.389   0.621 -2.1303  0.9472 -0.9647
  724SOL     OW 2170   0.975   2.205   2.379 -0.6616 -0.0195 -0.2739
  724SOL    HW1 2171   0.961   2.102   2.364 -1.3418 -0.9797 -0.2035
  724SOL    HW2 2172   0.891   2.247   2.344  2.6339 -0.6262  1.9801
  725SOL     OW 2173   0.275   0.906   1.246  0.0309  0.2459 -0.2069
  725SOL    HW1 2174   0.343   0.971   1.209  3.1705 -2.2938 -2.6217
  725SOL    HW2 2175   0.291   0.815   1.205 -1.8458  0.8037  1.6156
  726SOL     OW 2176   1.865   0.474   0.718  0.1106 -0.3435 -0.0345
  726SOL    HW1 2177   1.784   0.534   0.693  0.4745  1.1260 -1.8410
  726SOL    HW2 2178   1.881   0.411   0.640 -0.7371  0.9499 -0.6547
  727SOL     OW 2179   1.802   1.029   2.031  0.2912  0.2974 -0.3632
  727SOL    HW1 2180   1.827   1.114   2.074 -2.5403 -2.1769 -1.4602
  727SOL    HW2 2181   1.733   0.970   2.081  1.6364 -2.3554 -1.0331
  728SOL     OW 2182   1.671   2.798   1.489  0.4231 -0.0502 -0.9794
  728SOL    HW1 2183   1.706   2.886   1.533 -0.5191  0.0693  2.5174
  728SOL    HW2 2184   1.727   2.715   1.494 -1.1576 -0.5818  0.0657
  729SOL     OW 2185   1.352   0.447   1.768 -0.1919 -0.3303  0.1417
  729SOL    HW1 2186   1.317   0.355   1.732  2.8430 -1.6349 -0.5633
  729SOL    HW2 2187   1.374   0.440   1.866 -1.6045 -1.6805  0.4642
  730SOL     OW 2188   0.770   1.904   1.519  0.0242  0.3241  0.4974
  730SOL    HW1 2189   0.815   1.994   1.500 -3.3960  0.4068  2.7097
  730SOL    HW2 2190   0.836   1.841   1.571  1.9725 -3.6358 -0.6333
  731SOL     OW 2191   0.413   0.257   0.106  0.0545  0.2890 -0.0749
  731SOL    HW1 2192   0.398   0.338   0.169  0.5678  0.6983 -0.8629
  731SOL    HW2 2193   0.345   0.184   0.131 -1.0545 -0.5916 -1.8068
  732SOL     OW 2194   0.419   0.877   0.240  0.2413  0.1098 -0.0797
  732SOL    HW1 2195   0.394   0.823   0.160 -3.0816 -1.5052  0.5247
  732SOL    HW2 2196   0.444   0.976   0.218 -1.0141 -0.1739 -0.5498
  733SOL     OW 2197   1.479   1.715   1.772  0.2656 -0.2882 -0.5901
  733SOL    HW1 2198   1.494   1.672   1.863 -0.6754  0.4451  1.9427
  733SOL    HW2 2199   1.452   1.647   1.703 -0.9480  0.5729  1.1455
  734SOL     OW 2200   2.963   2.681   2.019 -0.0130  0.1552 -0.2510
  734SOL    HW1 2201   3.034   2.609   2.011 -1.5840 -2.0875 -0.7569
  734SOL    HW2 2202   3.004   2.773   2.027 -0.8198  0.4640 -2.2148
  735SOL     OW 2203   1.123   2.856   0.873  0.3383 -0.3639 -0.0338
  735SOL    HW1 2204   1.121   2.812   0.964  1.1718  0.7031  1.0789
  735SOL    HW2 2205   1.199   2.923   0.875  2.0541 -2.9032  1.5990
  736SOL     OW 2206   1.166   0.844   2.794 -0.2330 -0.2840  0.0306
  736SOL    HW1 2207   1.224   0.797   2.718  1.5641  0.6507 -1.7591
  736SOL    HW2 2208   1.165   0.942   2.777 -0.4901  0.0542 -0.4742
  737SOL     OW 2209   0.058   0.958   0.227 -1.1165 -0.2395  0.0858
  737SOL    HW1 2210   0.103   0.916   0.145 -1.0062 -1.1394 -2.2516
  737SOL    HW2 2211   3.094   0.998   0.202  0.6735 -2.3828  0.5684
  738SOL     OW 2212   0.045   2.713   1.339  0.0141 -0.4027  1.0257
  738SOL    HW1 2213   0.062   2.612   1.340  0.5266 -0.2287 -2.6914
  738SOL    HW2 2214   3.071   2.739   1.328  0.5401 -1.1587  1.7497
  739SOL     OW 2215   1.396   2.887   0.637 -0.1213  0.1521 -0.3049
  739SOL    HW1 2216   1.409   2.978   0.673 -0.1790 -0.2584  2.5105
  739SOL    HW2 2217   1.301   2.853   0.641  3.0084 -1.6578 -1.1220
  740SOL     OW 2218   1.692   2.896   1.227 -0.2588  0.7358  0.2046
  740SOL    HW1 2219   1.788   2.932   1.227 -0.6632 -0.2370  0.9191
  740SOL    HW2 2220   1.672   2.859   1.319 -2.4970 -0.8130  1.7789
  741SOL     OW 2221   2.101   0.545   0.549 -0.1050 -0.1981  0.2305
  741SOL    HW1 2222   2.018   0.536   0.602  0.4910 -1.1382  1.7302
  741SOL    HW2 2223   2.108   0.638   0.505  0.4553 -1.4954 -0.4015
  742SOL     OW 2224   1.240   2.588   1.883 -0.5083  0.1067  0.1792
  742SOL    HW1 2225   1.169   2.632   1.939  1.6755 -0.7356  0.6134
  742SOL    HW2 2226   1.314   2.557   1.941  1.9375  0.7970  1.0692
  743SOL     OW 2227   2.366   0.757   2.029 -0.6367 -0.1358  0.4376
  743SOL    HW1 2228   2.286   0.701   2.029  3.6336  1.0812  0.2176
  743SOL    HW2 2229   2.442   0.703   1.984  0.9948  1.2661 -0.6026
  744SOL     OW 2230   2.393   0.599   1.105  0.7691 -0.3912 -0.4999
  744SOL    HW1 2231   2.319   0.531   1.097 -0.6654 -0.8520  0.1082
  744SOL    HW2 2232   2.402   0.630   1.199 -0.2100 -1.2146  1.3562
  745SOL     OW 2233   2.083   1.294   1.953 -0.0189  0.1180 -0.2353
  745SOL    HW1 2234   2.183   1.292   1.938 -2.4243 -1.5464  4.3573
  745SOL    HW2 2235   2.034   1.240   1.880  0.1190 -0.4535  4.8072
  746SOL     OW 2236   1.465   1.449   0.666  0.1683  0.4331  0.3016
  746SOL    HW1 2237   1.452   1.544   0.696  0.4476 -1.3388 -1.0706
  746SOL    HW2 2238   1.368   1.415   0.660  0.0528  0.3758  0.3101
  747SOL     OW 2239   2.073   1.475   1.204 -0.5038  0.1151  0.4239
  747SOL    HW1 2240   2.025   1.418   1.273  0.3500  0.8580 -2.4496
  747SOL    HW2 2241   2.152   1.423   1.175 -0.6476 -0.8293  0.2625
  748SOL     OW 2242   3.105   2.910   0.296  0.4195 -0.2774 -0.2327
  748SOL    HW1 2243   0.041   2.974   0.360  1.8860  1.0125  1.3570
  748SOL    HW2 2244   0.029   2.875   0.210  0.8506  1.5984  0.0997
  749SOL     OW 2245   0.086   0.441   2.185  0.1800  0.0047  0.1957
  749SOL    HW1 2246   0.027   0.445   2.270 -2.7000  0.1479  3.3042
  749SOL    HW2 2247   0.025   0.418   2.107 -0.1065 -0.3953  0.7087
  750SOL     OW 2248   1.806   2.824   1.821  0.1040  0.1440  0.0985
  750SOL    HW1 2249   1.732   2.887   1.779 -3.1561  0.6545 -1.2889
  750SOL    HW2 2250   1.775   2.768   1.901  1.1753 -0.1607 -1.6100
  751SOL     OW 2251   2.774   0.499   0.514 -0.3189  0.5203 -0.3833
  751SOL    HW1 2252   2.688   0.472   0.565  4.1527  2.6160  1.5129
  751SOL    HW2 2253   2.857   0.444   0.544  2.9648  0.1259  0.2312
  752SOL     OW 2254   0.360   2.621   0.956 -0.2523  0.1681 -0.4113
  752SOL    HW1 2255   0.338   2.697   0.893  0.1124 -0.8607 -0.4827
  752SOL    HW2 2256   0.420   2.554   0.908  2.3376 -1.3540 -1.8662
  753SOL     OW 2257   0.903   0.338   1.489 -0.0351  0.0989 -0.0139
  753SOL    HW1 2258   0.860   0.273   1.427  2.3506 -0.8051  1.8406
  753SOL    HW2 2259   1.004   0.326   1.493  0.1360  1.8353 -2.8654
  754SOL     OW 2260   0.795   2.846   2.171  0.3513 -0.2855 -0.1572
  754SOL    HW1 2261   0.746   2.908   2.105  0.9009 -1.1740  2.1269
  754SOL    HW2 2262   0.894   2.847   2.145 -0.1500  0.8644 -3.6759
  755SOL     OW 2263   2.109   1.084   0.248  0.3956 -0.2434  0.4537
  755SOL    HW1 2264   2.186   1.071   0.308 -1.2047 -1.6460  0.1198
  755SOL    HW2 2265   2.132   1.123   0.154 -1.2969  0.6861 -4.5450
  756SOL     OW 2266   2.470   1.826   2.596  0.7183 -0.0612  0.5718
  756SOL    HW1 2267   2.555   1.820   2.647 -0.5999  1.1340  0.3178
  756SOL    HW2 2268   2.472   1.903   2.526 -0.2174 -0.6053 -2.2032
  757SOL     OW 2269   1.395   0.182   1.115  0.4180  0.4037 -0.3927
  757SOL    HW1 2270   1.314   0.162   1.054 -2.9992 -1.1765 -0.3355
  757SOL    HW2 2271   1.430   0.091   1.149 -2.6936 -2.6590  1.6799
  758SOL     OW 2272   1.425   2.666   0.789  0.1870 -0.0747  0.5359
  758SOL    HW1 2273   1.510   2.673   0.843 -0.7319  0.2113 -2.2296
  758SOL    HW2 2274   1.425   2.717   0.704 -1.4044 -2.4230  0.7413
  759SOL     OW 2275   2.438   0.699   1.355 -0.3069  0.1423  0.0942
  759SOL    HW1 2276   2.433   0.653   1.452 -1.3556 -1.7120  1.5786
  759SOL    HW2 2277   2.490   0.788   1.349  0.7764 -2.8380 -0.4960
  760SOL     OW 2278   2.372   1.051   1.173  0.6289 -0.4090  0.5638
  760SOL    HW1 2279   2.458   1.084   1.206 -2.2987  1.3412 -0.1210
  760SOL    HW2 2280   2.394   0.977   1.100  0.5253 -0.0651  0.0020
  761SOL     OW 2281   0.445   0.534   0.503  0.4302  0.2932 -0.5578
  761SOL    HW1 2282   0.542   0.571   0.501  0.5593 -1.2304  2.2730
  761SOL    HW2 2283   0.389   0.610   0.538 -0.3385  1.1589  1.0961
  762SOL     OW 2284   1.657   1.953   1.342  0.3791 -0.3502 -0.6678
  762SOL    HW1 2285   1.758   1.973   1.334  2.8438 -2.2075 -2.2311
  762SOL    HW2 2286   1.642   1.928   1.438  0.0951  0.4754 -1.0932
  763SOL     OW 2287   1.293   1.377   1.698  0.0922  0.0526  0.4355
  763SOL    HW1 2288   1.268   1.290   1.657  1.2031 -0.0599 -0.5316
  763SOL    HW2 2289   1.234   1.400   1.781  0.7839  2.0317  1.5189
  764SOL     OW 2290   3.021   1.768   2.289 -0.4114  0.3325  0.2785
  764SOL    HW1 2291   2.969   1.766   2.199 -1.2640  2.9969  0.0692
  764SOL    HW2 2292   3.048   1.868   2.311  2.2852  1.1745  1.5468
  765SOL     OW 2293   1.599   2.451   1.358  0.8061 -0.1696 -0.3041
  765SOL    HW1 2294   1.594   2.368   1.411  1.0725 -1.9109  0.6491
  765SOL    HW2 2295   1.508   2.498   1.358  0.1765 -2.2817  1.0367
  766SOL     OW 2296   0.087   2.565   2.620 -0.2145 -0.5135 -0.1223
  766SOL    HW1 2297   0.052   2.660   2.606  1.5472  1.2635  2.0610
  766SOL    HW2 2298   0.013   2.503   2.583 -2.6307 -0.2180  0.6206
  767SOL     OW 2299   1.319   0.688   2.587 -0.1840 -0.4277 -0.2380
  767SOL    HW1 2300   1.385   0.648   2.654 -1.6130  2.3044 -1.7591
  767SOL    HW2 2301   1.266   0.622   2.530  0.0349 -0.6189 -2.2775
  768SOL     OW 2302   1.176   2.047   0.200  0.3225  0.0169 -0.6739
  768SOL    HW1 2303   1.092   2.048   0.264 -4.5260 -0.6511  3.1935
  768SOL    HW2 2304   1.164   2.124   0.136  1.5194  0.5972  2.3827
  769SOL     OW 2305   0.475   2.646   1.194 -0.2657  0.1024 -0.0149
  769SOL    HW1 2306   0.431   2.652   1.101  0.1630 -1.9208 -0.8607
  769SOL    HW2 2307   0.422   2.706   1.257  0.5878  0.2416 -0.3869
  770SOL     OW 2308   1.491   0.894   3.020  0.0264 -0.4429  0.4471
  770SOL    HW1 2309   1.464   0.984   2.978  0.7496 -2.7516  1.4140
  770SOL    HW2 2310   1.584   0.870   2.983  0.3819 -1.1381  3.0474
  771SOL     OW 2311   0.298   0.022   2.329  0.2619  0.2622  0.3012
  771SOL    HW1 2312   0.264   3.120   2.422 -0.9189  0.6755 -3.2000
  771SOL    HW2 2313   0.404   0.012   2.330  1.3546  0.8589 -0.1073
  772SOL     OW 2314   2.097   2.972   2.150 -0.2286 -0.0214  0.1273
  772SOL    HW1 2315   2.189   3.006   2.183  3.2290 -0.3876 -1.0117
  772SOL    HW2 2316   2.021   3.039   2.141 -2.4229  0.9848  0.4646
  773SOL     OW 2317   0.864   2.241   1.728 -0.1052 -0.1826 -0.0268
  773SOL    HW1 2318   0.960   2.260   1.751 -2.4343 -2.7902 -2.3106
  773SOL    HW2 2319   0.798   2.319   1.753 -1.9480  3.0806  0.9642
  774SOL     OW 2320   1.571   0.058   2.089 -0.3002 -0.2468  0.6039
  774SOL    HW1 2321   1.498   0.124   2.106 -1.8255 -0.7938 -0.9834
  774SOL    HW2 2322   1.640   0.094   2.022 -0.0765  0.4448 -1.8650
  775SOL     OW 2323   2.256   2.816   0.167 -0.9005 -0.1162 -0.4525
  775SOL    HW1 2324   2.214   2.757   0.093 -1.8841  1.1117  2.4801
  775SOL    HW2 2325   2.181   2.862   0.216 -0.0085 -0.0430 -1.0698
  776SOL     OW 2326   2.688   0.728   2.564 -0.2032 -0.3545  0.8259
  776SOL    HW1 2327   2.707   0.634   2.529 -0.4985  0.0812  2.1616
  776SOL    HW2 2328   2.769   0.772   2.611  0.7738 -2.3541 -1.8144
  777SOL     OW 2329   2.399   1.635   2.330  0.4341 -0.2390 -0.1548
  777SOL    HW1 2330   2.394   1.684   2.416  0.5791 -0.1227 -1.6707
  777SOL    HW2 2331   2.476   1.684   2.284 -2.9608 -0.1752 -1.4188
  778SOL     OW 2332   2.073   0.960   2.225  0.4746  0.3095 -0.0627
  778SOL    HW1 2333   2.015   0.887   2.180  0.3164 -1.3788 -2.8348
  778SOL    HW2 2334   2.022   1.046   2.244  1.2238 -0.3502 -2.3889
  779SOL     OW 2335   0.064   0.366   0.124 -0.1642  0.3103 -0.0550
  779SOL    HW1 2336   0.099   0.463   0.134 -1.8223  0.8418  0.5902
  779SOL    HW2 2337   0.023   0.337   0.213  0.7767 -2.1659  0.3661
  780SOL     OW 2338   2.848   0.666   3.116 -0.2612 -0.2184 -0.1100
  780SOL    HW1 2339   2.889   0.578   3.086 -0.1766  1.4818  1.1983
  780SOL    HW2 2340   2.783   0.656   0.069  0.6358  2.5588 -1.0681
  781SOL     OW 2341   0.052   3.006   1.475 -0.3001  0.2795 -0.1546
  781SOL    HW1 2342   0.054   3.071   1.395  0.5105 -2.2474  1.0134
  781SOL    HW2 2343   0.044   2.912   1.446  1.8517  0.6237 -0.4378
  782SOL     OW 2344   1.933   2.644   0.454  0.9374 -0.7978  0.6155
  782SOL    HW1 2345   1.908   2.657   0.355  0.3430 -0.8701  0.5780
  782SOL    HW2 2346   1.873   2.709   0.515  0.1029 -0.1986 -1.6338
  783SOL     OW 2347   0.690   1.379   1.167  0.0913 -0.4497  0.3408
  783SOL    HW1 2348   0.681   1.470   1.211 -0.1714 -1.2896  0.3306
  783SOL    HW2 2349   0.788   1.350   1.168 -0.7587 -3.3006 -1.0370
  784SOL     OW 2350   1.515   0.533   2.732  0.1300  0.1482 -0.2258
  784SOL    HW1 2351   1.493   0.445   2.686  0.9881  1.7775 -3.1375
  784SOL    HW2 2352   1.613   0.561   2.704  0.0433 -0.9852  2.2853
  785SOL     OW 2353   2.564   0.417   1.339  0.6057  0.0975 -0.0868
  785SOL    HW1 2354   2.468   0.451   1.354  1.6530  1.9040 -0.7694
  785SOL    HW2 2355   2.596   0.429   1.241  0.7331  0.8577 -0.4685
  786SOL     OW 2356   1.262   2.625   1.615 -0.1919 -0.7177  0.4465
  786SOL    HW1 2357   1.222   2.543   1.572  0.1184 -0.5008 -0.4641
  786SOL    HW2 2358   1.261   2.617   1.716 -1.4434  0.6258  0.2080
  787SOL     OW 2359   1.539   0.070   1.396  0.3819 -0.4375  0.0949
  787SOL    HW1 2360   1.482   0.029   1.320  1.4460 -3.0333 -0.2562
  787SOL    HW2 2361   1.539   0.012   1.480 -1.6668  3.0526  1.7514
  788SOL     OW 2362   2.937   1.225   0.431 -0.1947 -0.0641  0.0003
  788SOL    HW1 2363   2.866   1.285   0.472 -0.8885 -3.3370  1.0302
  788SOL    HW2 2364   2.983   1.169   0.504  0.6498  1.6617 -1.7469
  789SOL     OW 2365   0.507   2.028   1.576 -0.0730 -0.1649 -0.0026
  789SOL    HW1 2366   0.594   1.998   1.535 -0.5642 -1.8713  2.8461
  789SOL    HW2 2367   0.495   2.130   1.585  0.0003  1.7088 -1.1444
  790SOL     OW 2368   0.785   0.320   2.252 -0.5591  0.6327  0.3851
  790SOL    HW1 2369   0.774   0.313   2.355  0.2503  0.8117 -2.2039
  790SOL    HW2 2370   0.702   0.353   2.202 -1.6823 -1.1648 -1.1058
  791SOL     OW 2371   2.306   0.509   0.736  0.2632 -0.6533 -0.3848
  791SOL    HW1 2372   2.222   0.520   0.681  1.2079  1.3064  0.8833
  791SOL    HW2 2373   2.287   0.458   0.821  0.2020  0.9683 -2.7012
  792SOL     OW 2374   1.181   2.973   1.821 -0.1677 -0.0712  0.2954
  792SOL    HW1 2375   1.275   2.970   1.861  1.6504  0.7035 -1.9601
  792SOL    HW2 2376   1.174   2.931   1.731 -0.2244 -1.4800  4.3586
  793SOL     OW 2377   0.291   0.013   0.684  0.5695 -0.3509 -0.0373
  793SOL    HW1 2378   0.391   0.024   0.667 -0.0979 -0.6435  1.9194
  793SOL    HW2 2379   0.278   3.109   0.778 -0.6344  1.5891  0.9475
  794SOL     OW 2380   0.136   1.059   1.825  0.8210 -0.0120  0.1066
  794SOL    HW1 2381   0.044   1.033   1.858 -1.7718 -0.8920  3.6696
  794SOL    HW2 2382   0.143   1.051   1.728  2.8920 -1.4181  0.3371
  795SOL     OW 2383   0.363   2.127   2.217  0.2823  0.0478 -0.6075
  795SOL    HW1 2384   0.349   2.217   2.175  2.3238 -0.9517  1.1702
  795SOL    HW2 2385   0.455   2.126   2.264 -0.7490  0.2053 -0.5204
  796SOL     OW 2386   2.553   0.556   2.221  0.3278 -0.1608  0.0881
  796SOL    HW1 2387   2.570   0.653   2.248  0.1238  0.8508  1.0555
  796SOL    HW2 2388   2.561   0.546   2.118  0.4754 -0.8345 -0.9488
  797SOL     OW 2389   2.406   2.333   2.517 -0.3275  0.5914  0.0294
  797SOL    HW1 2390   2.453   2.323   2.605  2.3504 -1.8932  0.2234
  797SOL    HW2 2391   2.311   2.299   2.527 -1.6878  0.2666 -2.2969
  798SOL     OW 2392   3.031   2.954   2.114 -0.6906 -0.7386  0.5557
  798SOL    HW1 2393   0.001   2.999   2.108  2.1785  2.4498 -2.8710
  798SOL    HW2 2394   2.982   2.973   2.028 -0.5053  0.7481  1.0701
  799SOL     OW 2395   0.264   2.406   2.062  0.0142  0.0446  0.6653
  799SOL    HW1 2396   0.218   2.412   2.159 -0.3885 -2.0920  1.8827
  799SOL    HW2 2397   0.194   2.430   1.990  1.6261  0.1143  0.1392
  800SOL     OW 2398   0.128   1.988   0.098 -0.1186  0.6551 -0.2154
  800SOL    HW1 2399   0.120   2.076   0.151 -3.4927  2.2052 -1.2094
  800SOL    HW2 2400   0.101   1.914   0.157 -0.0127  0.9573 -0.8037
  801SOL     OW 2401   1.675   1.416   1.380 -0.3918 -0.5825 -0.0547
  801SOL    HW1 2402   1.608   1.345   1.391 -0.3512  0.0545 -1.9226
  801SOL    HW2 2403   1.704   1.463   1.467  1.0446 -2.0605  0.6654
  802SOL     OW 2404   0.155   1.107   0.430 -0.2058  0.1822 -0.3866
  802SOL    HW1 2405   0.084   1.117   0.502  1.1883 -0.3268 -2.1336
  802SOL    HW2 2406   0.129   1.037   0.353  1.9426  0.4988 -2.2864
  803SOL     OW 2407   1.125   1.405   1.911 -0.0891 -0.2830 -0.5395
  803SOL    HW1 2408   1.076   1.490   1.913 -2.6888 -0.4717  0.1300
  803SOL    HW2 2409   1.058   1.340   1.947 -1.3410  1.8699  1.0955
  804SOL     OW 2410   2.112   1.621   0.916  0.0541  0.4464 -0.0350
  804SOL    HW1 2411   2.143   1.595   1.009  1.4324  1.6348 -0.4879
  804SOL    HW2 2412   2.109   1.534   0.867 -0.3266  0.5409 -0.2278
  805SOL     OW 2413   2.944   1.512   2.726 -0.6652  0.3429 -0.0600
  805SOL    HW1 2414   2.992   1.588   2.690 -0.6653  2.5862 -1.5038
  805SOL    HW2 2415   2.876   1.478   2.653 -0.8386  0.7650  0.8764
  806SOL     OW 2416   0.356   2.539   0.133  0.1083 -0.1363  0.6561
  806SOL    HW1 2417   0.356   2.539   0.025 -3.4862  1.0870 -2.1572
  806SOL    HW2 2418   0.445   2.557   0.171 -0.2115 -0.9202 -2.1534
  807SOL     OW 2419   2.307   1.643   2.961 -0.5243 -0.2762  0.3106
  807SOL    HW1 2420   2.387   1.592   3.006  0.3295 -1.2039  2.9882
  807SOL    HW2 2421   2.243   1.677   3.027  2.8141 -3.2135 -2.2597
  808SOL     OW 2422   1.211   2.232   1.297 -0.1030  0.0620  0.1475
  808SOL    HW1 2423   1.144   2.158   1.269 -0.5560 -1.8773  0.1372
  808SOL    HW2 2424   1.308   2.195   1.288  0.3318  0.0383  0.4812
  809SOL     OW 2425   2.842   0.755   0.424 -0.0366 -0.3503 -0.2910
  809SOL    HW1 2426   2.880   0.801   0.514  0.9070  1.9269  4.0366
  809SOL    HW2 2427   2.825   0.657   0.443  0.6970  0.0726 -0.8633
  810SOL     OW 2428   0.878   1.524   0.521 -0.1274  0.3745  0.3463
  810SOL    HW1 2429   0.878   1.525   0.622  1.4481  2.9265  2.2728
  810SOL    HW2 2430   0.975   1.539   0.488  1.6963  2.7822  0.2284
  811SOL     OW 2431   1.687   2.405   1.096 -0.0501 -0.1292  0.4947
  811SOL    HW1 2432   1.714   2.493   1.056  1.9406  0.6378 -1.8459
  811SOL    HW2 2433   1.642   2.409   1.184 -3.2362 -0.0100 -1.6129
  812SOL     OW 2434   1.414   2.837   1.482  0.3427 -0.1794 -0.1514
  812SOL    HW1 2435   1.517   2.805   1.474  3.3550 -1.7715 -1.1400
  812SOL    HW2 2436   1.366   2.760   1.534 -2.2246 -1.4310  2.8748
  813SOL     OW 2437   0.721   2.981   1.765 -0.1930 -0.1762 -0.3756
  813SOL    HW1 2438   0.635   2.957   1.808  3.0489 -0.6403  0.2018
  813SOL    HW2 2439   0.795   2.927   1.814  0.7840  0.7219  1.6065
  814SOL     OW 2440   1.136   2.659   2.279  0.5428 -0.7283 -0.7862
  814SOL    HW1 2441   1.196   2.738   2.297  1.7680 -2.8469 -1.4721
  814SOL    HW2 2442   1.125   2.604   2.369 -2.5515 -0.9410  0.7691
  815SOL     OW 2443   0.430   3.053   2.876  0.0440  0.2854 -0.0514
  815SOL    HW1 2444   0.513   3.025   2.827  0.7600 -1.1712  1.5276
  815SOL    HW2 2445   0.399   0.019   2.834  0.0518  2.5221  1.6473
  816SOL     OW 2446   2.326   0.631   3.007 -0.2368  0.3291  0.3385
  816SOL    HW1 2447   2.337   0.595   2.910 -0.8129  0.9563 -3.0327
  816SOL    HW2 2448   2.408   0.687   3.027  0.5282 -1.7584 -1.6514
  817SOL     OW 2449   2.500   2.668   2.282 -0.2379 -0.3273 -0.5070
  817SOL    HW1 2450   2.600   2.645   2.264  0.5257  0.5912 -2.3447
  817SOL    HW2 2451   2.499   2.726   2.363 -0.9178 -0.9775 -2.3339
  818SOL     OW 2452   0.948   0.790   0.475 -0.0865 -0.4086  0.3232
  818SOL    HW1 2453   1.011   0.710   0.458  1.9467 -0.9564 -1.8619
  818SOL    HW2 2454   0.940   0.842   0.387 -0.5588 -0.0955  0.1085
  819SOL     OW 2455   1.663   1.450   2.759  0.2924  0.6187 -0.2398
  819SOL    HW1 2456   1.738   1.515   2.770 -1.0995 -2.1282  0.2117
  819SOL    HW2 2457   1.674   1.398   2.674 -3.2461 -0.9188  2.3186
  820SOL     OW 2458   3.111   1.684   2.531 -0.0858 -0.2599  0.0353
  820SOL    HW1 2459   0.038   1.751   2.587 -0.8801  0.9602 -2.5922
  820SOL    HW2 2460   3.080   1.722   2.443  1.6675 -0.9746  1.4576
  821SOL     OW 2461   0.357   2.808   0.758  0.4375 -0.1640  0.3231
  821SOL    HW1 2462   0.448   2.847   0.766  0.0959 -0.3442  0.0403
  821SOL    HW2 2463   0.346   2.782   0.661  0.8961 -1.3099  1.7412
  822SOL     OW 2464   2.291   2.491   2.954 -0.1190 -0.1331 -0.2906
  822SOL    HW1 2465   2.279   2.392   2.936  1.5104  2.6055  2.2851
  822SOL    HW2 2466   2.385   2.514   2.991 -0.5638 -2.4579 -1.7712
  823SOL     OW 2467   1.783   0.112   2.643 -0.5436 -0.2475 -0.1126
  823SOL    HW1 2468   1.822   0.205   2.626  2.1163  0.4111 -0.4763
  823SOL    HW2 2469   1.745   0.062   2.565  0.8381  0.1351  2.3855
  824SOL     OW 2470   2.748   2.379   2.019  0.1805 -0.0572 -0.1845
  824SOL    HW1 2471   2.728   2.463   1.963  0.2345  1.6571 -0.6979
  824SOL    HW2 2472   2.727   2.397   2.117  0.0458 -1.4394 -2.3389
  825SOL     OW 2473   3.087   2.244   2.218  1.0982  0.4564  0.2944
  825SOL    HW1 2474   3.057   2.160   2.272  1.8292 -2.0880  0.6689
  825SOL    HW2 2475   3.065   2.236   2.120  0.0544 -0.8664  5.3099
  826SOL     OW 2476   2.021   0.680   2.733 -0.0408  0.2620  0.2215
  826SOL    HW1 2477   2.000   0.774   2.765 -1.1800  0.2725  0.1776
  826SOL    HW2 2478   2.121   0.651   2.744 -0.1616  1.7417  0.0452
  827SOL     OW 2479   2.703   1.593   1.707 -0.3747  0.0088  0.2934
  827SOL    HW1 2480   2.648   1.640   1.773  3.3755 -2.4022 -1.9273
  827SOL    HW2 2481   2.777   1.556   1.761 -1.0236 -1.5013 -1.5291
  828SOL     OW 2482   3.050   0.047   1.275 -0.0707  0.8633 -0.2817
  828SOL    HW1 2483   3.036   3.098   1.200 -2.1212 -0.0416 -1.0909
  828SOL    HW2 2484   2.958   0.077   1.304  0.1481 -1.4768  0.6470
  829SOL     OW 2485   1.030   1.951   2.675  0.3606  0.3966  0.0485
  829SOL    HW1 2486   0.978   2.040   2.655  0.7581 -0.6541  0.6755
  829SOL    HW2 2487   0.982   1.877   2.632  1.3327  1.5833  2.1818
  830SOL     OW 2488   0.647   0.903   1.498 -0.2064  0.0156 -0.2590
  830SOL    HW1 2489   0.624   1.003   1.520 -0.7057  1.5393  1.9083
  830SOL    HW2 2490   0.575   0.849   1.541  2.0190 -0.1316 -1.7460
  831SOL     OW 2491   2.715   1.917   2.761 -0.0843  0.3184 -0.3402
  831SOL    HW1 2492   2.716   1.832   2.817  1.9903 -0.6903 -1.0076
  831SOL    HW2 2493   2.772   1.986   2.811  0.2292  1.0265  2.0125
  832SOL     OW 2494   1.840   2.578   2.844  0.5695 -0.4251  0.4072
  832SOL    HW1 2495   1.900   2.504   2.876  1.1053  0.4341 -1.4280
  832SOL    HW2 2496   1.790   2.540   2.765 -0.7035 -0.5590 -0.9654
  833SOL     OW 2497   0.846   0.159   2.023 -0.2092  0.4813  0.2936
  833SOL    HW1 2498   0.890   0.225   1.958  1.0967  0.5326  0.4863
  833SOL    HW2 2499   0.814   0.205   2.104  1.2758 -0.1956  0.1972
  834SOL     OW 2500   3.021   0.324   1.362 -0.4040  0.2172 -0.1880
  834SOL    HW1 2501   3.055   0.259   1.296 -2.8318  3.7216  2.1668
  834SOL    HW2 2502   2.975   0.401   1.308 -3.1703  2.7152 -1.1770
  835SOL     OW 2503   2.740   0.439   0.242  0.2145  0.6011 -0.5043
  835SOL    HW1 2504   2.666   0.503   0.208 -1.4623  1.6256  0.0408
  835SOL    HW2 2505   2.766   0.471   0.337  1.1298 -2.1600  3.9061
  836SOL     OW 2506   1.649   1.942   0.155 -0.0185  0.1402  0.3750
  836SOL    HW1 2507   1.564   1.933   0.209  3.1655 -0.3926 -0.7088
  836SOL    HW2 2508   1.658   2.034   0.107 -1.3763  1.3717 -1.1501
  837SOL     OW 2509   1.968   1.942   0.503 -0.1560 -0.2473 -0.4104
  837SOL    HW1 2510   2.065   1.918   0.520  0.3982  2.4020 -1.7799
  837SOL    HW2 2511   1.955   2.044   0.502  0.3879 -0.3215 -0.8074
  838SOL     OW 2512   1.267   0.862   2.372 -0.4784 -0.5708 -0.1056
  838SOL    HW1 2513   1.277   0.801   2.451  2.1154  1.5991 -1.4158
  838SOL    HW2 2514   1.217   0.945   2.402 -3.5616  0.5912  3.0354
  839SOL     OW 2515   0.510   1.412   2.321  0.1120 -0.2518 -0.0051
  839SOL    HW1 2516   0.489   1.500   2.370  0.4154  2.1070  1.6677
  839SOL    HW2 2517   0.583   1.351   2.359 -0.6365 -1.2916 -0.5083
  840SOL     OW 2518   1.153   1.593   0.483 -0.1545 -0.0035  0.1188
  840SOL    HW1 2519   1.177   1.686   0.516 -0.5512  1.4430  0.6441
  840SOL    HW2 2520   1.176   1.528   0.556 -0.1064 -1.0592 -0.1564
  841SOL     OW 2521   1.563   2.341   0.653 -0.5662  0.1378  0.0323
  841SOL    HW1 2522   1.653   2.381   0.621 -3.7201  2.9782 -0.3031
  841SOL    HW2 2523   1.550   2.343   0.752  1.3203 -0.4999 -2.4237
  842SOL     OW 2524   0.393   0.721   3.119  0.1983 -0.4641 -0.6712
  842SOL    HW1 2525   0.377   0.628   0.032  0.6407  0.6550 -2.4619
  842SOL    HW2 2526   0.486   0.726   3.078 -0.2083 -0.7874 -0.0748
  843SOL     OW 2527   0.558   0.074   0.636  0.7082  0.2904 -0.7271
  843SOL    HW1 2528   0.561   0.071   0.533  2.4733  1.1218 -3.0752
  843SOL    HW2 2529   0.522   0.168   0.665 -0.8532 -1.7573  0.7991
  844SOL     OW 2530   2.474   0.118   2.584 -0.3609  0.3500  0.1594
  844SOL    HW1 2531   2.546   0.100   2.648 -4.0074 -1.1748 -0.5660
  844SOL    HW2 2532   2.478   0.055   2.503 -2.6458  2.0308 -1.5217
  845SOL     OW 2533   2.930   2.437   1.756  0.7979  0.1229  0.7440
  845SOL    HW1 2534   2.851   2.495   1.766  3.6230  0.0607  1.6444
  845SOL    HW2 2535   2.904   2.340   1.777  0.6849  2.3303 -1.9044
  846SOL     OW 2536   1.869   1.418   2.536 -0.4215 -0.0737  0.2329
  846SOL    HW1 2537   1.953   1.482   2.540  1.2752  2.5832 -0.8135
  846SOL    HW2 2538   1.797   1.457   2.478  0.7450  1.6371  0.6055
  847SOL     OW 2539   0.808   0.676   2.036  0.3556 -0.3798 -0.1637
  847SOL    HW1 2540   0.748   0.642   1.962 -0.0617  2.1830  0.2692
  847SOL    HW2 2541   0.898   0.716   2.001  3.2374  3.0975 -0.1851
  848SOL     OW 2542   2.476   0.008   2.849 -0.2227 -0.2255 -0.1590
  848SOL    HW1 2543   2.513   3.048   2.902 -0.2289 -0.5697 -1.1718
  848SOL    HW2 2544   2.485   0.101   2.894  0.3555  0.4452  1.0901
  849SOL     OW 2545   0.159   2.848   0.075 -0.8244  0.0653  0.1240
  849SOL    HW1 2546   0.099   2.885   0.004  1.1314  2.8221  0.3626
  849SOL    HW2 2547   0.257   2.852   0.050  0.2700  0.2142  0.7089
  850SOL     OW 2548   1.102   2.612   1.015  0.4529 -0.2849  0.2366
  850SOL    HW1 2549   1.161   2.536   1.048  0.7740 -0.3838  1.6017
  850SOL    HW2 2550   1.067   2.593   0.925 -1.4579  0.8394 -0.6533
  851SOL     OW 2551   2.125   0.372   2.477  0.4934 -0.1810  0.2648
  851SOL    HW1 2552   2.140   0.458   2.427  2.1158  2.3178 -1.2976
  851SOL    HW2 2553   2.209   0.333   2.517  0.2650  1.0348 -0.1954
  852SOL     OW 2554   1.398   0.264   2.663 -0.0063 -0.3959 -0.3471
  852SOL    HW1 2555   1.470   0.233   2.724 -0.2542 -0.4056 -2.3704
  852SOL    HW2 2556   1.314   0.207   2.684 -1.5880  2.3045  0.0278
  853SOL     OW 2557   2.923   2.702   0.038  0.2286  0.2737  0.0389
  853SOL    HW1 2558   2.932   2.624   0.106 -2.6712  0.4715 -1.1382
  853SOL    HW2 2559   2.849   2.678   3.095  0.4463  0.6024 -0.4611
  854SOL     OW 2560   1.957   0.724   2.419 -0.1224 -0.0829  0.4843
  854SOL    HW1 2561   1.870   0.769   2.455  2.2981  0.1377 -0.1974
  854SOL    HW2 2562   2.024   0.727   2.497  0.9602  0.1707  1.7391
  855SOL     OW 2563   0.600   2.615   0.221  0.1394 -0.9284 -0.3873
  855SOL    HW1 2564   0.573   2.674   0.301 -1.0900  1.0203  1.2744
  855SOL    HW2 2565   0.677   2.662   0.173  2.9245  1.7103 -0.0486
  856SOL     OW 2566   0.248   3.050   2.588  0.3500  0.1448  0.2519
  856SOL    HW1 2567   0.265   2.954   2.554 -0.0676 -0.8890  0.6028
  856SOL    HW2 2568   0.189   3.054   2.671 -0.8299  0.1688  1.3947
  857SOL     OW 2569   1.030   0.070   1.356  0.0086 -0.0937  0.2268
  857SOL    HW1 2570   1.071   0.152   1.399 -0.5361 -0.6002 -1.2147
  857SOL    HW2 2571   0.951   0.027   1.409  2.8660 -0.8080  1.4304
  858SOL     OW 2572   2.525   1.938   1.806 -0.0445 -0.2740 -0.0060
  858SOL    HW1 2573   2.602   1.994   1.768  1.8825  0.6635 -1.2228
  858SOL    HW2 2574   2.450   1.991   1.852  0.8513  0.2833 -3.3399
  859SOL     OW 2575   1.981   2.350   1.991 -0.0363  0.4396  0.1539
  859SOL    HW1 2576   1.976   2.409   1.907 -0.1567  0.8629 -0.9235
  859SOL    HW2 2577   2.005   2.410   2.069  2.2187 -2.8656 -2.7861
  860SOL     OW 2578   1.798   0.306   0.518  0.2379  0.3548 -0.1449
  860SOL    HW1 2579   1.801   0.364   0.434 -1.1690 -1.4059 -0.3805
  860SOL    HW2 2580   1.701   0.279   0.534  2.1984 -1.8353  1.0710
  861SOL     OW 2581   2.990   0.336   0.587 -0.6953  0.6233 -0.2156
  861SOL    HW1 2582   3.080   0.370   0.620  0.3570 -2.4354  0.2383
  861SOL    HW2 2583   2.949   0.285   0.669 -0.4799 -0.8048  2.0359
  862SOL     OW 2584   0.955   2.664   2.660 -0.1294 -0.4527 -0.2666
  862SOL    HW1 2585   0.976   2.759   2.633 -0.7330  0.3554  0.9293
  862SOL    HW2 2586   0.991   2.596   2.598 -3.6553 -1.2305  1.7556
  863SOL     OW 2587   0.499   0.553   1.350 -0.4019 -0.0800 -0.0389
  863SOL    HW1 2588   0.489   0.461   1.389  3.3965 -2.0626  1.4921
  863SOL    HW2 2589   0.426   0.570   1.284  3.7149 -0.0653 -1.6706
  864SOL     OW 2590   2.949   2.936   1.853  0.0387 -0.3709  0.8692
  864SOL    HW1 2591   2.964   3.029   1.814  0.4298 -2.8358 -0.6029
  864SOL    HW2 2592   2.935   2.863   1.787  0.4987  0.8886 -0.3588
  865SOL     OW 2593   0.411   1.411   2.895  0.1269 -0.4481  0.0347
  865SOL    HW1 2594   0.398   1.323   2.942  0.7573  4.3356 -0.8511
  865SOL    HW2 2595   0.466   1.478   2.953 -1.4305 -2.3267  1.1378
  866SOL     OW 2596   0.125   0.149   3.113  0.3112  0.1287 -0.2880
  866SOL    HW1 2597   0.099   0.233   0.040  1.8096  0.8416  0.3577
  866SOL    HW2 2598   0.042   0.096   3.090  0.5673 -0.7294  0.2276
  867SOL     OW 2599   2.699   2.794   2.725  0.1867  0.1941 -0.0053
  867SOL    HW1 2600   2.779   2.841   2.767  0.8340 -0.5520  0.1580
  867SOL    HW2 2601   2.737   2.723   2.662 -1.7351 -1.0605  1.7929
  868SOL     OW 2602   1.210   0.946   0.349 -0.2683 -0.0424  0.1157
  868SOL    HW1 2603   1.116   0.909   0.345 -1.2209  1.2870  1.2922
  868SOL    HW2 2604   1.264   0.923   0.267  0.3342  1.5327  0.1731
  869SOL     OW 2605   2.781   1.380   0.631 -0.2485 -0.5245  0.1446
  869SOL    HW1 2606   2.813   1.471   0.667 -0.3130 -1.7537 -1.6354
  869SOL    HW2 2607   2.765   1.322   0.716 -0.0524 -3.3462  1.2341
  870SOL     OW 2608   2.494   1.725   0.485 -0.1286  1.0280 -0.1894
  870SOL    HW1 2609   2.508   1.781   0.398  1.3883 -0.8457 -2.5999
  870SOL    HW2 2610   2.499   1.622   0.459  0.2319 -2.3058 -1.2471
  871SOL     OW 2611   1.182   1.424   0.691  0.0507  0.6270 -0.3308
  871SOL    HW1 2612   1.185   1.333   0.741  2.0246 -2.6982  0.0180
  871SOL    HW2 2613   1.179   1.505   0.755 -1.3901  2.6489  0.0810
  872SOL     OW 2614   1.306   1.950   1.745  0.1662 -0.4872  0.4708
  872SOL    HW1 2615   1.249   1.946   1.659 -0.0598 -3.5310 -4.4461
  872SOL    HW2 2616   1.328   1.856   1.772 -3.5897  2.3333 -0.5395
  873SOL     OW 2617   0.950   1.911   2.312  0.0818  0.3582 -0.3591
  873SOL    HW1 2618   0.925   1.848   2.384 -1.7362  1.9403 -2.4942
  873SOL    HW2 2619   0.913   1.876   2.223  2.7398  0.5209  4.7741
  874SOL     OW 2620   1.088   1.991   0.846  0.4036 -0.0943  0.4824
  874SOL    HW1 2621   1.173   2.047   0.833  1.1082  0.5572  0.3955
  874SOL    HW2 2622   1.104   1.917   0.910 -0.2162  3.8668 -1.0466
  875SOL     OW 2623   2.430   0.302   1.029  0.1203  0.0253 -0.6014
  875SOL    HW1 2624   2.341   0.351   1.052 -1.3135 -0.4142  3.8001
  875SOL    HW2 2625   2.436   0.221   1.091 -2.9161  0.0650 -2.0238
  876SOL     OW 2626   0.730   0.696   0.192  0.0204  0.2551  0.1396
  876SOL    HW1 2627   0.690   0.762   0.256 -0.2258 -0.0214  2.2748
  876SOL    HW2 2628   0.755   0.606   0.238 -0.0692  0.2582 -2.0231
  877SOL     OW 2629   2.864   0.506   1.258  0.2999  0.0609  0.0725
  877SOL    HW1 2630   2.790   0.482   1.193  2.1672  0.8785 -0.2309
  877SOL    HW2 2631   2.913   0.594   1.227  1.3707  3.9565 -2.8567
  878SOL     OW 2632   2.142   2.325   0.470  0.7545 -0.3001 -0.1577
  878SOL    HW1 2633   2.047   2.283   0.483  1.4260 -1.1320 -0.2278
  878SOL    HW2 2634   2.212   2.256   0.453 -0.1248  1.8136 -0.5012
  879SOL     OW 2635   2.756   1.532   1.444 -0.5585  0.1750  0.6563
  879SOL    HW1 2636   2.677   1.553   1.382  0.8136  0.0631 -1.4564
  879SOL    HW2 2637   2.734   1.554   1.541 -1.2775  0.7164 -0.8469
  880SOL     OW 2638   1.385   2.625   1.276  0.4129  0.2165 -0.3562
  880SOL    HW1 2639   1.378   2.684   1.192 -2.6868  1.8967  3.4211
  880SOL    HW2 2640   1.348   2.670   1.362 -0.0121 -0.1481  0.8590
  881SOL     OW 2641   1.094   2.520   0.346 -0.0778 -0.0679 -0.4162
  881SOL    HW1 2642   1.045   2.432   0.359 -0.6995  0.0105  0.1480
  881SOL    HW2 2643   1.159   2.540   0.418 -2.7696  2.5641 -2.8232
  882SOL     OW 2644   1.745   0.882   1.495  0.1163  0.3556  0.1847
  882SOL    HW1 2645   1.740   0.906   1.596 -0.3431 -3.0883  3.1360
  882SOL    HW2 2646   1.673   0.821   1.467  2.2893  2.1586  2.4804
  883SOL     OW 2647   1.359   0.206   2.212  0.0854  0.1125  0.1492
  883SOL    HW1 2648   1.382   0.242   2.304  0.8018  0.3617  1.9714
  883SOL    HW2 2649   1.286   0.132   2.221 -1.9004 -0.0039 -0.2450
  884SOL     OW 2650   0.162   0.624   0.179 -0.3626 -0.0452  0.4901
  884SOL    HW1 2651   0.095   0.649   0.253 -0.6933 -0.3070 -1.2482
  884SOL    HW2 2652   0.167   0.694   0.109 -0.8873  1.4848  1.9947
  885SOL     OW 2653   0.840   1.296   2.947  0.3321  0.6239 -0.5995
  885SOL    HW1 2654   0.859   1.389   2.980  1.9805 -3.0658  0.1791
  885SOL    HW2 2655   0.915   1.229   2.957  0.4612 -1.1174 -1.8278
  886SOL     OW 2656   1.434   1.406   2.866  0.8565  0.3649  0.7410
  886SOL    HW1 2657   1.372   1.465   2.806 -1.3360  4.5201 -4.7860
  886SOL    HW2 2658   1.529   1.409   2.833 -3.4960 -0.3446  0.6924
  887SOL     OW 2659   1.238   0.696   1.745 -0.1563  0.1983  0.1669
  887SOL    HW1 2660   1.205   0.700   1.650  0.5510  0.7775  0.5671
  887SOL    HW2 2661   1.278   0.605   1.763 -1.1221  0.8239  1.2304
  888SOL     OW 2662   2.817   0.553   1.822  0.6686 -0.2224  0.2782
  888SOL    HW1 2663   2.873   0.619   1.875  0.7023  1.4229 -1.4512
  888SOL    HW2 2664   2.814   0.575   1.722  0.0876  0.3470  1.9475
  889SOL     OW 2665   0.110   2.883   0.790  0.3801 -0.1027  0.0886
  889SOL    HW1 2666   0.054   2.888   0.704 -2.2335 -1.6317 -2.4172
  889SOL    HW2 2667   0.207   2.856   0.764 -0.8319 -3.6452  2.0144
  890SOL     OW 2668   3.008   2.511   0.241 -0.4011 -0.1875 -0.1748
  890SOL    HW1 2669   3.095   2.555   0.269  1.8124  2.1214  0.9160
  890SOL    HW2 2670   2.953   2.492   0.325 -0.5705  0.8819 -0.6242
  891SOL     OW 2671   1.019   1.575   3.055 -0.4270 -0.0358 -0.2668
  891SOL    HW1 2672   1.027   1.675   3.079  1.8950  0.6523  0.6413
  891SOL    HW2 2673   1.110   1.530   3.041 -1.2865 -1.6757 -2.0948
  892SOL     OW 2674   2.817   3.007   0.865  0.0420 -0.1491  0.3955
  892SOL    HW1 2675   2.876   3.017   0.781 -1.3965  1.1358  0.1515
  892SOL    HW2 2676   2.728   3.043   0.848  2.1449  1.2199 -0.4102
  893SOL     OW 2677   0.930   0.006   1.105  0.6225  0.0512 -0.3755
  893SOL    HW1 2678   0.963   0.031   1.198 -0.5416  0.1140 -0.1941
  893SOL    HW2 2679   0.882   0.088   1.069  1.3602 -2.1967 -1.2584
  894SOL     OW 2680   3.091   1.118   0.615  0.2944 -0.0743  0.1513
  894SOL    HW1 2681   3.067   1.024   0.654  1.3730  1.2784  0.7251
  894SOL    HW2 2682   3.095   1.190   0.688  2.6535  0.5454  0.1185
  895SOL     OW 2683   2.607   2.840   1.842 -0.4891 -0.3405  0.3749
  895SOL    HW1 2684   2.515   2.843   1.887  2.2276  0.2235  0.8267
  895SOL    HW2 2685   2.630   2.928   1.802  1.0276 -0.8597 -0.5264
  896SOL     OW 2686   1.158   0.295   1.484 -0.3952 -0.0818 -0.4423
  896SOL    HW1 2687   1.214   0.327   1.405  1.4813 -1.2992  0.8989
  896SOL    HW2 2688   1.225   0.246   1.543  0.0839  0.2869 -0.8849
  897SOL     OW 2689   0.982   1.657   1.895  0.0765  0.2654 -0.0811
  897SOL    HW1 2690   0.999   1.689   1.799  1.6871  1.0197 -1.4135
  897SOL    HW2 2691   1.003   1.728   1.965  0.3346  2.1261  0.2346
  898SOL     OW 2692   1.959   2.529   1.790  0.0188  0.0111 -0.2294
  898SOL    HW1 2693   1.921   2.466   1.726  1.4527  0.9887 -0.3690
  898SOL    HW2 2694   1.935   2.633   1.774 -0.5213  4.8102  0.3382
  899SOL     OW 2695   0.977   0.505   0.902  0.0626  0.6277  0.0909
  899SOL    HW1 2696   0.987   0.479   1.003  0.5562  1.7367  0.4797
  899SOL    HW2 2697   1.019   0.594   0.890  0.1473  0.3843  0.5030
  900SOL     OW 2698   1.994   2.366   2.410 -0.7418  0.3407  0.1781
  900SOL    HW1 2699   1.920   2.297   2.397 -0.8168 -4.1293  0.9614
  900SOL    HW2 2700   2.057   2.339   2.484 -0.0387  1.6856  1.8466
  901SOL     OW 2701   0.907   2.187   2.664  0.3588  0.7411 -0.0183
  901SOL    HW1 2702   0.944   2.221   2.578 -0.6548  0.8026  4.7733
  901SOL    HW2 2703   0.865   2.264   2.718 -0.2347 -3.1871  1.8315
  902SOL     OW 2704   2.206   0.964   0.694  0.5447  0.2774 -0.1000
  902SOL    HW1 2705   2.153   1.045   0.668 -2.4288 -1.2140 -0.4163
  902SOL    HW2 2706   2.181   0.931   0.786  0.2072  3.4566  0.3935
  903SOL     OW 2707   1.903   0.853   0.516  0.0060  0.0158  0.1008
  903SOL    HW1 2708   1.969   0.816   0.451 -1.6336  1.6710  2.9559
  903SOL    HW2 2709   1.938   0.942   0.554 -1.8332 -0.5346 -2.0174
  904SOL     OW 2710   0.828   0.873   2.922  0.4729  0.2232 -0.8530
  904SOL    HW1 2711   0.908   0.842   2.976  0.7137 -2.2293 -0.8233
  904SOL    HW2 2712   0.827   0.845   2.822 -2.9837  1.2765 -2.1891
  905SOL     OW 2713   2.208   0.172   0.822  0.1569  0.0686 -0.3437
  905SOL    HW1 2714   2.301   0.196   0.783 -0.3995 -1.0189 -1.2947
  905SOL    HW2 2715   2.220   0.143   0.915 -0.0700 -0.2654 -4.1925
  906SOL     OW 2716   3.002   2.159   1.258 -0.7628  0.5975  0.2180
  906SOL    HW1 2717   3.031   2.160   1.359 -0.9127  0.0301  2.6860
  906SOL    HW2 2718   2.902   2.171   1.238  2.1843  0.0479  0.0913
  907SOL     OW 2719   1.045   0.572   0.127  0.4814 -0.0866  0.1585
  907SOL    HW1 2720   1.041   0.611   0.221 -1.0927 -0.3783 -0.5359
  907SOL    HW2 2721   1.134   0.580   0.079  1.8118 -0.0014  0.1989
  908SOL     OW 2722   2.272   2.822   0.988  0.6339 -0.8926 -0.2180
  908SOL    HW1 2723   2.299   2.819   1.090  0.9398  0.8076 -0.8214
  908SOL    HW2 2724   2.252   2.917   0.962  0.9645  3.0810  0.4425
  909SOL     OW 2725   2.198   0.973   1.409  0.5613 -0.4346 -0.1581
  909SOL    HW1 2726   2.158   0.881   1.405  0.0809  1.2789 -1.8277
  909SOL    HW2 2727   2.269   0.990   1.332 -0.3751  1.9080 -3.0372
  910SOL     OW 2728   1.410   2.794   2.133 -0.2352  0.1709  0.1274
  910SOL    HW1 2729   1.372   2.831   2.222  1.6677  1.0210 -1.3462
  910SOL    HW2 2730   1.373   2.707   2.102 -0.8325  0.7967  0.5800
  911SOL     OW 2731   2.917   0.399   2.293  0.3604 -0.8355 -0.3682
  911SOL    HW1 2732   2.899   0.428   2.199  0.6947  0.6417  2.8934
  911SOL    HW2 2733   2.944   0.303   2.302  2.5203  1.5389 -0.0514
  912SOL     OW 2734   0.164   1.147   1.557 -0.9632  0.3525  0.3466
  912SOL    HW1 2735   0.244   1.184   1.504  2.3288  0.6283 -1.7413
  912SOL    HW2 2736   0.074   1.150   1.516  1.3336 -0.3340  5.2708
  913SOL     OW 2737   2.712   2.119   1.682  0.4268 -0.2818  0.0003
  913SOL    HW1 2738   2.805   2.154   1.715  0.9381 -0.9109  0.6233
  913SOL    HW2 2739   2.722   2.077   1.589 -0.6684 -0.6507 -2.1074
  914SOL     OW 2740   1.522   0.724   1.437 -0.3981  0.3546  0.3371
  914SOL    HW1 2741   1.529   0.627   1.465  0.4016  1.7631 -0.5647
  914SOL    HW2 2742   1.427   0.752   1.418  1.2866 -1.5822 -1.1202
  915SOL     OW 2743   1.545   0.467   1.524  0.0074 -0.2364  0.3518
  915SOL    HW1 2744   1.502   0.459   1.616 -0.4958  1.3238  2.4894
  915SOL    HW2 2745   1.632   0.416   1.515  0.4351 -0.3526  1.1091
  916SOL     OW 2746   2.571   2.583   1.484  0.2348  0.3588 -0.4728
  916SOL    HW1 2747   2.560   2.569   1.384  1.1747  1.7750  1.2095
  916SOL    HW2 2748   2.562   2.498   1.540  3.7639  1.4253 -0.1225
  917SOL     OW 2749   2.498   2.120   0.280  0.1998  0.0832  0.0262
  917SOL    HW1 2750   2.446   2.196   0.242  0.2339 -2.5620  0.6987
  917SOL    HW2 2751   2.599   2.141   0.282 -2.1945 -0.8970 -2.0126
  918SOL     OW 2752   1.913   2.818   2.688  0.9422  0.1443  0.2512
  918SOL    HW1 2753   2.014   2.830   2.685  0.4040  0.5643 -0.4251
  918SOL    HW2 2754   1.885   2.751   2.757 -1.1742 -0.9750 -1.2529
  919SOL     OW 2755   1.150   2.386   1.502  0.0144 -0.4978  0.3126
  919SOL    HW1 2756   1.112   2.331   1.576 -0.2418  0.6705  0.3589
  919SOL    HW2 2757   1.177   2.324   1.426 -2.0029  1.2275  1.0483
  920SOL     OW 2758   2.959   0.104   2.233  0.3370 -0.2626  0.0730
  920SOL    HW1 2759   2.979   0.105   2.336  0.7774 -0.0867  2.1841
  920SOL    HW2 2760   3.034   0.123   2.171 -0.2809  2.0541  2.5476
  921SOL     OW 2761   3.117   0.836   1.688 -0.8843  0.4914  0.0383
  921SOL    HW1 2762   3.096   0.857   1.783  0.2582  3.1272  0.5002
  921SOL    HW2 2763   0.026   0.740   1.681  0.5085  2.0206  0.7789
  922SOL     OW 2764   2.311   2.130   0.469  0.2528 -0.0812  0.3196
  922SOL    HW1 2765   2.393   2.129   0.404  3.6732 -0.8940  0.1035
  922SOL    HW2 2766   2.264   2.039   0.475  1.7365 -1.1511 -1.1182
  923SOL     OW 2767   0.875   1.964   3.046  0.4646  0.1656 -0.1131
  923SOL    HW1 2768   0.779   1.934   3.057  0.2373 -1.4934  0.3313
  923SOL    HW2 2769   0.886   2.065   3.035  0.4658  4.9317 -2.4579
  924SOL     OW 2770   0.860   0.510   0.344 -0.0497 -0.2731  0.2627
  924SOL    HW1 2771   0.887   0.478   0.257 -1.8869 -0.3370  2.0330
  924SOL    HW2 2772   0.935   0.523   0.410  0.0119 -1.2718  1.5021
  925SOL     OW 2773   2.564   0.432   0.697  0.7759 -0.3443 -0.0088
  925SOL    HW1 2774   2.476   0.477   0.669 -0.9231 -0.6058 -0.5575
  925SOL    HW2 2775   2.547   0.337   0.725 -1.1764  0.7435 -2.4894
  926SOL     OW 2776   0.297   0.590   1.163  0.7150  0.2163  0.4876
  926SOL    HW1 2777   0.328   0.576   1.070  0.2538 -1.0440 -0.6783
  926SOL    HW2 2778   0.197   0.613   1.163  0.0509  0.9937 -1.4448
  927SOL     OW 2779   0.193   1.411   2.521  0.2582  0.0821 -0.2384
  927SOL    HW1 2780   0.165   1.407   2.420 -1.9101  0.8194 -0.5825
  927SOL    HW2 2781   0.133   1.358   2.577  1.1080 -0.5474 -3.0323
  928SOL     OW 2782   2.877   0.875   2.931  0.3829  0.2513  0.8316
  928SOL    HW1 2783   2.874   0.788   2.990  0.9399 -1.3342  2.2528
  928SOL    HW2 2784   2.973   0.893   2.894  2.2779  0.4417  0.2553
  929SOL     OW 2785   2.740   0.169   1.315 -0.2326  0.6935  0.4079
  929SOL    HW1 2786   2.776   0.256   1.351 -1.1483 -2.6124  0.0610
  929SOL    HW2 2787   2.638   0.177   1.318  0.3959  0.3959 -0.5762
  930SOL     OW 2788   1.932   1.134   1.801 -0.2385 -0.4097 -0.1115
  930SOL    HW1 2789   1.870   1.087   1.871 -2.6443 -1.1509  0.5856
  930SOL    HW2 2790   1.946   1.075   1.721 -2.9150 -0.3478 -0.1230
  931SOL     OW 2791   2.011   1.121   0.528 -0.2101 -0.4880  0.0397
  931SOL    HW1 2792   2.029   1.130   0.425  2.2002 -1.1962 -3.3658
  931SOL    HW2 2793   1.934   1.179   0.564 -1.3611  1.5725 -0.9011
  932SOL     OW 2794   2.677   1.202   0.840  0.1238 -0.5656 -0.0404
  932SOL    HW1 2795   2.579   1.182   0.815  1.7428 -0.7399  0.3551
  932SOL    HW2 2796   2.691   1.253   0.928 -1.8501 -0.5931 -2.9406
  933SOL     OW 2797   2.569   1.599   1.263  0.2571 -0.3333 -0.1882
  933SOL    HW1 2798   2.505   1.673   1.234  2.3793  0.1084  1.5944
  933SOL    HW2 2799   2.524   1.518   1.297  1.5464  1.6941  0.2206
  934SOL     OW 2800   1.837   0.352   2.340 -1.0244 -0.0522  0.3371
  934SOL    HW1 2801   1.760   0.412   2.362 -0.8162 -1.6406 -0.4127
  934SOL    HW2 2802   1.911   0.366   2.414 -1.4185 -0.7882 -0.4151
  935SOL     OW 2803   0.270   1.651   0.757 -0.1889 -0.0642 -0.2500
  935SOL    HW1 2804   0.174   1.639   0.726 -1.6293  0.8939 -0.0574
  935SOL    HW2 2805   0.291   1.745   0.781 -1.0991 -4.8734 -1.9467
  936SOL     OW 2806   0.331   0.783   0.480  0.1729 -0.2909 -0.3144
  936SOL    HW1 2807   0.369   0.813   0.391  1.3585 -0.1728 -1.0060
  936SOL    HW2 2808   0.338   0.855   0.551 -0.4345  0.9067  2.8526
  937SOL     OW 2809   2.466   0.038   1.152  0.1134  0.1185 -0.4474
  937SOL    HW1 2810   2.513   3.087   1.104  2.4461 -0.3231 -1.6955
  937SOL    HW2 2811   2.488   0.040   1.249  0.8458 -1.1998 -2.8974
  938SOL     OW 2812   2.810   2.410   0.464  0.1960 -0.7504 -0.4010
  938SOL    HW1 2813   2.853   2.475   0.530  1.1926 -2.5312 -1.6718
  938SOL    HW2 2814   2.736   2.454   0.406 -2.6579  2.8114  1.1449
  939SOL     OW 2815   0.948   2.015   0.352 -0.2352  0.0605 -0.1607
  939SOL    HW1 2816   0.905   1.936   0.306 -2.2363 -1.4307  0.5851
  939SOL    HW2 2817   0.916   2.024   0.447  0.4574 -3.2370  3.8206
  940SOL     OW 2818   3.025   0.317   2.799  0.1140 -0.4209  0.1966
  940SOL    HW1 2819   3.097   0.301   2.727 -1.3929 -1.7799 -1.5036
  940SOL    HW2 2820   2.933   0.316   2.751 -1.9205  0.4211 -0.1431
  941SOL     OW 2821   1.166   0.242   3.091 -0.0911  0.8571 -0.0350
  941SOL    HW1 2822   1.220   0.197   3.017  1.2327 -2.0868 -3.7152
  941SOL    HW2 2823   1.123   0.180   0.042  0.1888 -0.4790  2.3699
  942SOL     OW 2824   1.154   1.105   1.303 -0.5443  0.0502  0.0785
  942SOL    HW1 2825   1.203   1.196   1.288 -0.3610  0.6945 -1.1704
  942SOL    HW2 2826   1.057   1.120   1.273 -1.3638  1.3248 -1.0848
  943SOL     OW 2827   1.334   1.044   2.038  0.0581 -0.4126 -0.0997
  943SOL    HW1 2828   1.312   1.013   1.943 -0.2219 -0.9743  1.7580
  943SOL    HW2 2829   1.242   1.049   2.081 -0.7488  1.6126 -1.0046
  944SOL     OW 2830   1.715   0.938   1.769 -0.7120 -0.1624  0.3570
  944SOL    HW1 2831   1.667   1.019   1.733 -1.0776 -2.9407  0.7232
  944SOL    HW2 2832   1.741   0.952   1.863 -0.9603  1.6789 -3.0605
  945SOL     OW 2833   3.058   0.044   0.181 -0.3960  0.3459 -0.6117
  945SOL    HW1 2834   3.083   3.072   0.211  0.8531  1.3010 -0.2787
  945SOL    HW2 2835   3.081   0.113   0.252  3.8622 -1.2147  1.8720
  946SOL     OW 2836   2.814   0.761   2.020 -0.6329 -0.0612  0.1272
  946SOL    HW1 2837   2.904   0.795   2.051  1.8583 -0.6270  0.3699
  946SOL    HW2 2838   2.731   0.780   2.079 -1.1300  1.4218  0.1163
  947SOL     OW 2839   0.510   2.772   0.419 -0.4909 -0.1623 -0.0603
  947SOL    HW1 2840   0.553   2.785   0.509 -3.7862 -1.3170 -1.7225
  947SOL    HW2 2841   0.503   2.856   0.364 -1.1483  1.4594  3.0382
  948SOL     OW 2842   2.315   1.148   1.618 -0.7696 -0.3802  0.4939
  948SOL    HW1 2843   2.283   1.227   1.670  0.4039 -0.9736  2.4690
  948SOL    HW2 2844   2.251   1.126   1.543 -1.7939 -1.4997 -0.5505
  949SOL     OW 2845   0.638   0.626   2.461 -0.0006  0.2541  0.5606
  949SOL    HW1 2846   0.632   0.632   2.361  1.9275  1.9531  2.2484
  949SOL    HW2 2847   0.544   0.623   2.505 -2.2272 -0.2498  0.4949
  950SOL     OW 2848   0.497   0.166   1.005 -0.1314 -0.2483  0.6152
  950SOL    HW1 2849   0.591   0.172   0.968 -1.8247  0.3963  1.9935
  950SOL    HW2 2850   0.449   0.094   0.955  1.2246 -1.0116  1.3179
  951SOL     OW 2851   0.908   1.501   2.220  0.2348  0.4598  0.1064
  951SOL    HW1 2852   0.940   1.537   2.131 -1.1492 -2.1502 -1.1359
  951SOL    HW2 2853   0.936   1.404   2.233  1.5302 -1.1442  2.5799
  952SOL     OW 2854   0.766   1.466   0.050 -0.1506 -0.8437  0.6576
  952SOL    HW1 2855   0.843   1.511   0.001  1.5231  0.6582 -1.3047
  952SOL    HW2 2856   0.745   1.515   0.138  0.0632  0.7709  0.9723
  953SOL     OW 2857   2.566   0.315   2.393  0.3269 -0.1214 -0.0681
  953SOL    HW1 2858   2.513   0.391   2.356  2.2430  0.0767  3.8797
  953SOL    HW2 2859   2.506   0.262   2.460 -0.6584 -1.6741 -1.0875
  954SOL     OW 2860   1.644   1.246   0.969  0.6085 -0.3943 -0.0158
  954SOL    HW1 2861   1.658   1.164   0.908  1.1100 -0.9886 -0.8301
  954SOL    HW2 2862   1.702   1.326   0.946  1.4781 -0.6151 -2.2297
  955SOL     OW 2863   0.501   2.114   2.757  0.2924 -0.2576  0.4035
  955SOL    HW1 2864   0.477   2.023   2.794  1.4541  1.7751 -2.2519
  955SOL    HW2 2865   0.478   2.186   2.824  0.4824  0.3422 -0.3533
  956SOL     OW 2866   1.657   0.635   2.134  0.1166 -0.3147 -0.4852
  956SOL    HW1 2867   1.682   0.584   2.221  1.3681 -0.1074  0.8799
  956SOL    HW2 2868   1.583   0.701   2.156 -0.8271  1.5262 -0.8402
  957SOL     OW 2869   1.875   2.096   2.882 -0.3871 -0.1447  0.0524
  957SOL    HW1 2870   1.843   2.028   2.949 -0.1352 -0.2176 -1.2083
  957SOL    HW2 2871   1.953   2.058   2.828 -0.8079  1.1350  0.3150
  958SOL     OW 2872   1.201   1.814   1.510 -0.3250 -0.0210  0.1834
  958SOL    HW1 2873   1.255   1.732   1.542 -2.7080  0.3937  0.4146
  958SOL    HW2 2874   1.231   1.841   1.416  0.2003 -1.3090  1.3593
  959SOL     OW 2875   2.319   2.231   2.911  0.2464  1.0350  0.0134
  959SOL    HW1 2876   2.408   2.206   2.959  1.3040  0.0153  0.7210
  959SOL    HW2 2877   2.238   2.187   2.952  0.2035  0.6310  1.0355
  960SOL     OW 2878   3.058   0.743   2.581 -0.2693 -0.1748 -0.1862
  960SOL    HW1 2879   3.080   0.729   2.679 -2.0417 -1.6240 -1.2406
  960SOL    HW2 2880   3.033   0.843   2.562  0.9313 -0.7550 -0.4357
  961SOL     OW 2881   0.793   0.745   2.657 -0.1917 -0.1224  0.4120
  961SOL    HW1 2882   0.734   0.706   2.584 -0.4343 -1.3261  0.0935
  961SOL    HW2 2883   0.840   0.663   2.702 -1.2846  1.8681 -2.1363
  962SOL     OW 2884   0.820   1.293   2.675  0.6531  0.3409 -0.4499
  962SOL    HW1 2885   0.785   1.297   2.771 -0.0613  0.2202  0.3027
  962SOL    HW2 2886   0.746   1.283   2.604 -0.3433  2.5843 -2.1113
  963SOL     OW 2887   2.619   2.544   0.336 -0.1072  0.0301  0.3590
  963SOL    HW1 2888   2.524   2.551   0.308  0.0968  1.5888  1.4526
  963SOL    HW2 2889   2.669   2.635   0.333  0.3840  1.1027  0.7111
  964SOL     OW 2890   0.961   2.494   1.290  0.0930 -0.7619 -0.2009
  964SOL    HW1 2891   1.037   2.457   1.354  3.4601 -0.9103  0.2334
  964SOL    HW2 2892   0.985   2.584   1.248  2.0593 -0.0928 -0.1125
  965SOL     OW 2893   1.595   1.418   0.427 -0.5715 -0.0784 -0.1003
  965SOL    HW1 2894   1.690   1.458   0.447  0.3220  0.6045 -2.4883
  965SOL    HW2 2895   1.549   1.401   0.520 -2.0238 -1.8777  4.4412
  966SOL     OW 2896   0.105   1.749   0.256  0.6809 -0.1900 -0.0622
  966SOL    HW1 2897   0.197   1.714   0.267 -1.8865  3.0780  0.1956
  966SOL    HW2 2898   0.052   1.700   0.185  2.1143  3.0424 -0.3864
  967SOL     OW 2899   1.938   0.149   2.182 -0.0707  0.0544  0.3299
  967SOL    HW1 2900   2.013   0.121   2.245 -2.1800 -3.6449  0.0284
  967SOL    HW2 2901   1.883   0.223   2.225  0.9018  1.2569  0.6610
  968SOL     OW 2902   1.616   0.788   0.861  0.1370  0.0800 -0.4250
  968SOL    HW1 2903   1.649   0.745   0.775  0.0431  3.0420 -1.2107
  968SOL    HW2 2904   1.515   0.792   0.859  2.0851 -0.7256 -0.9780
  969SOL     OW 2905   0.304   1.044   2.492 -0.0666 -0.6091  0.4956
  969SOL    HW1 2906   0.293   1.108   2.411 -2.4176  0.4624 -0.8225
  969SOL    HW2 2907   0.296   1.091   2.578  0.7939  1.9831 -0.2741
  970SOL     OW 2908   2.421   1.403   1.367 -0.0820 -0.1550  0.0472
  970SOL    HW1 2909   2.474   1.324   1.406  0.4090  0.7003 -0.8830
  970SOL    HW2 2910   2.357   1.376   1.293  5.5205 -0.6423  3.1277
  971SOL     OW 2911   3.021   3.024   1.051 -0.2216  0.3752 -0.0811
  971SOL    HW1 2912   3.050   2.928   1.066 -1.8092  0.2264 -1.8513
  971SOL    HW2 2913   2.940   3.019   0.989  1.3278  0.8189  0.8681
  972SOL     OW 2914   0.383   0.590   2.553 -0.4565  0.4914 -0.0963
  972SOL    HW1 2915   0.344   0.525   2.626  0.0446 -0.0309 -0.7074
  972SOL    HW2 2916   0.313   0.654   2.517 -0.3314  0.8749 -0.0080
  973SOL     OW 2917   0.295   0.332   0.906  0.2197 -0.4033  0.7604
  973SOL    HW1 2918   0.216   0.313   0.968 -1.3935  1.3554  0.0592
  973SOL    HW2 2919   0.377   0.278   0.917 -2.0393  1.7420 -0.3782
  974SOL     OW 2920   2.166   0.602   1.695  0.3720  0.6652  0.2339
  974SOL    HW1 2921   2.177   0.695   1.727 -0.2439 -3.4161 -1.4543
  974SOL    HW2 2922   2.108   0.557   1.761  1.8400  0.6392  0.0177
  975SOL     OW 2923   2.693   0.240   0.030 -0.0607  0.0879  1.0882
  975SOL    HW1 2924   2.729   0.309   0.088 -0.6809  0.3268 -0.6905
  975SOL    HW2 2925   2.671   0.160   0.086  0.5311  1.1885 -1.6331
  976SOL     OW 2926   0.273   1.431   1.236 -0.1325  0.0950  0.0651
  976SOL    HW1 2927   0.279   1.386   1.323  3.3787  0.2810 -1.0352
  976SOL    HW2 2928   0.349   1.506   1.229 -1.2759 -0.4244 -1.2025
  977SOL     OW 2929   1.290   2.207   0.431  0.1812 -0.2407 -0.5083
  977SOL    HW1 2930   1.294   2.128   0.366 -0.2606 -2.5709 -0.3118
  977SOL    HW2 2931   1.365   2.268   0.406 -2.4217 -0.6773  1.9527
  978SOL     OW 2932   0.412   1.150   3.043 -0.8277  0.5212  0.1748
  978SOL    HW1 2933   0.423   1.158   0.025  1.1738 -2.3284  1.3210
  978SOL    HW2 2934   0.504   1.130   3.001 -1.9839  2.1019  0.4036
  979SOL     OW 2935   2.296   1.804   0.811 -0.4564  0.3955 -0.2403
  979SOL    HW1 2936   2.221   1.741   0.838  0.7163 -0.0779  0.2176
  979SOL    HW2 2937   2.384   1.788   0.868  0.4788 -3.0484 -1.3334
  980SOL     OW 2938   0.471   1.648   1.759 -0.0751 -0.7011  0.4381
  980SOL    HW1 2939   0.410   1.599   1.694  0.0507 -3.1320 -0.5272
  980SOL    HW2 2940   0.548   1.590   1.791 -1.3289  1.3435 -0.5249
  981SOL     OW 2941   2.938   1.442   0.158  0.2052  1.1242  0.1255
  981SOL    HW1 2942   3.011   1.433   0.233  2.6262 -1.3918  1.9696
  981SOL    HW2 2943   2.970   1.522   0.104 -0.6654 -2.5666 -0.2035
  982SOL     OW 2944   2.391   2.818   2.023 -0.0323 -0.0343  0.6413
  982SOL    HW1 2945   2.369   2.891   2.093 -0.7714 -1.9249  2.1567
  982SOL    HW2 2946   2.424   2.734   2.073  1.8264  1.2810  2.4271
  983SOL     OW 2947   1.165   0.118   0.936 -0.3682 -0.0814  0.0264
  983SOL    HW1 2948   1.106   0.111   1.020 -1.7951  0.3076  0.5012
  983SOL    HW2 2949   1.146   0.205   0.883 -0.3513 -0.3450 -0.8161
  984SOL     OW 2950   1.241   2.652   3.111 -0.1042  0.1291  0.2503
  984SOL    HW1 2951   1.236   2.746   3.070 -4.1749  0.3795  1.1021
  984SOL    HW2 2952   1.333   2.639   0.034  1.9471  0.6192 -2.8253
  985SOL     OW 2953   1.776   2.105   1.750  0.2270  0.6450  0.0098
  985SOL    HW1 2954   1.702   2.138   1.805  2.5005 -0.8613  1.2095
  985SOL    HW2 2955   1.732   2.056   1.672  0.8844  1.6381 -0.0238
  986SOL     OW 2956   2.230   3.072   2.752  0.2565  0.0862  0.2290
  986SOL    HW1 2957   2.210   2.974   2.725 -0.4540  0.4488 -0.6803
  986SOL    HW2 2958   2.330   3.089   2.764  0.6767  1.6989 -1.3195
  987SOL     OW 2959   2.735   1.196   2.157 -0.0605  0.3986 -0.1926
  987SOL    HW1 2960   2.692   1.117   2.109  2.4854 -0.5637  0.0797
  987SOL    HW2 2961   2.670   1.246   2.221 -1.4155 -0.4521 -0.1136
  988SOL     OW 2962   2.410   0.771   2.547 -0.1870  0.2253 -0.1412
  988SOL    HW1 2963   2.514   0.773   2.544  1.4616 -2.6218 -0.2882
  988SOL    HW2 2964   2.363   0.820   2.470 -0.1281  1.4776 -0.4960
  989SOL     OW 2965   1.646   1.382   2.177  0.1373 -0.2383  0.1448
  989SOL    HW1 2966   1.579   1.314   2.162  2.0921  1.7260 -0.7352
  989SOL    HW2 2967   1.734   1.353   2.147 -0.4963  2.2254 -2.5331
  990SOL     OW 2968   0.208   1.300   0.250 -0.4905 -0.0711 -0.2813
  990SOL    HW1 2969   0.192   1.222   0.319 -1.4906  1.8535 -0.1010
  990SOL    HW2 2970   0.174   1.266   0.158  1.5757 -0.8945  1.1763
  991SOL     OW 2971   0.464   1.846   2.836 -0.3312 -0.4883 -0.2044
  991SOL    HW1 2972   0.404   1.777   2.792  0.8089 -1.3824 -0.2960
  991SOL    HW2 2973   0.555   1.807   2.864 -1.1432 -1.0345 -0.3796
  992SOL     OW 2974   2.552   1.724   1.956 -0.4230 -0.2246 -0.0557
  992SOL    HW1 2975   2.557   1.809   1.899  0.3451 -0.8639  0.0639
  992SOL    HW2 2976   2.459   1.694   1.968  0.2923  3.4049  1.2329
  993SOL     OW 2977   0.159   3.020   0.490 -0.3274 -0.2680  0.1037
  993SOL    HW1 2978   0.212   3.070   0.560 -0.8858  1.9210  3.0722
  993SOL    HW2 2979   0.185   2.923   0.498  1.2008 -0.8917 -1.7840
  994SOL     OW 2980   0.040   1.835   1.540  0.2957 -0.1724 -0.3103
  994SOL    HW1 2981   0.044   1.768   1.612 -0.9340  0.6589 -2.1730
  994SOL    HW2 2982   0.132   1.863   1.516 -0.1197  2.6821  0.2368
  995SOL     OW 2983   2.225   1.766   2.726 -0.6407  0.3551 -0.2678
  995SOL    HW1 2984   2.297   1.797   2.657  0.3659  1.7094 -0.2804
  995SOL    HW2 2985   2.270   1.732   2.811  0.0434 -0.2768 -2.4741
  996SOL     OW 2986   1.848   1.518   3.097 -0.1688  0.3695  0.1217
  996SOL    HW1 2987   1.749   1.487   3.107 -1.7009  0.8041 -0.2291
  996SOL    HW2 2988   1.852   1.603   3.039  0.5096  0.1503  0.0195
  997SOL     OW 2989   1.551   1.158   1.696  0.5046  0.4121 -0.2551
  997SOL    HW1 2990   1.551   1.177   1.593  0.7452 -2.2171 -0.6283
  997SOL    HW2 2991   1.454   1.171   1.731  0.4044 -2.8100  0.6315
  998SOL     OW 2992   2.743   2.213   1.209 -0.0990 -0.0561 -0.2133
  998SOL    HW1 2993   2.667   2.255   1.263  0.5065  2.4088  0.9103
  998SOL    HW2 2994   2.737   2.225   1.113  0.0310 -0.1594  4.7242
  999SOL     OW 2995   2.123   2.438   0.234  0.2905 -1.1254 -0.3155
  999SOL    HW1 2996   2.178   2.527   0.221  2.3420  0.5809 -2.0258
  999SOL    HW2 2997   2.141   2.400   0.326 -0.4363 -0.1867 -1.6900
 1000SOL     OW 2998   0.765   3.023   0.144  0.4174  0.1790 -0.3495
 1000SOL    HW1 2999   0.852   3.012   0.089  1.0966 -1.2559  0.7018
 1000SOL    HW2 3000   0.716   3.108   0.124  1.3783 -1.1902  0.0225
   3.12245   3.12245   3.12245
