1000 SPC/Fw water molecules t=  37.00000 step= 37000
 3000
    1SOL     OW    1   2.034   2.628   0.519  0.0601  0.0929  0.5315
    1SOL    HW1    2   2.076   2.642   0.422  1.8016  0.3530 -0.6044
    1SOL    HW2    3   1.962   2.557   0.515  4.2269 -0.3005 -0.2385
    2SOL     OW    4   1.306   0.644   2.198  0.7095 -0.4876  0.4717
    2SOL    HW1    5   1.389   0.621   2.255  0.6989 -0.6837  1.6694
    2SOL    HW2    6   1.220   0.644   2.253  0.8657 -0.7561  0.6532
    3SOL     OW    7   1.083   2.800   2.799 -0.2480 -0.0620 -0.0844
    3SOL    HW1    8   1.094   2.809   2.901  1.2284  0.6374 -0.3517
    3SOL    HW2    9   1.035   2.714   2.775  0.5926 -0.1905  0.3533
    4SOL     OW   10   1.107   1.404   2.979 -0.5148  0.4808 -0.1053
    4SOL    HW1   11   1.127   1.372   2.886  0.3164 -0.3538 -0.4728
    4SOL    HW2   12   1.184   1.468   3.015 -0.1408  3.3696  0.0803
    5SOL     OW   13   0.677   1.224   2.238  0.4865  0.1900  0.4727
    5SOL    HW1   14   0.734   1.174   2.168  0.3738 -1.9872  0.4465
    5SOL    HW2   15   0.626   1.307   2.194 -3.1853  3.1046 -3.2995
    6SOL     OW   16   2.091   0.813   2.564  0.0586  0.6237 -0.0747
    6SOL    HW1   17   2.078   0.719   2.611 -1.8105 -1.3650  1.4978
    6SOL    HW2   18   2.178   0.803   2.507  0.4290  0.0365 -0.5512
    7SOL     OW   19   0.618   0.906   1.531  0.1860 -0.4440 -0.2811
    7SOL    HW1   20   0.583   0.882   1.437  2.0123 -0.1667 -0.8820
    7SOL    HW2   21   0.567   0.845   1.593 -2.3687 -0.9485  1.3358
    8SOL     OW   22   2.203   2.911   1.854 -0.3391 -0.2741  0.1183
    8SOL    HW1   23   2.165   3.004   1.851  4.0669 -1.9602  1.3151
    8SOL    HW2   24   2.282   2.904   1.794  0.2496  1.2604 -0.6567
    9SOL     OW   25   0.075   0.075   0.816  0.3958  0.0787 -0.0768
    9SOL    HW1   26   0.105   0.141   0.743  2.6494  1.2760 -1.1851
    9SOL    HW2   27   3.099   0.096   0.860 -0.9814 -1.4632 -0.5800
   10SOL     OW   28   0.121   2.274   2.320  0.1642  0.2277 -0.6156
   10SOL    HW1   29   0.187   2.276   2.398 -1.2610  0.2594 -1.4690
   10SOL    HW2   30   0.070   2.185   2.326  0.9073  1.0155 -1.8646
   11SOL     OW   31   0.781   1.620   3.038  0.0984 -0.2875  0.3995
   11SOL    HW1   32   0.722   1.556   3.094  1.8558 -1.0380  3.1687
   11SOL    HW2   33   0.874   1.639   3.071 -2.5340  2.0850 -1.4473
   12SOL     OW   34   2.233   2.698   1.214 -0.1698 -0.0444 -0.1321
   12SOL    HW1   35   2.307   2.774   1.208  3.4665  1.7806  0.1611
   12SOL    HW2   36   2.200   2.674   1.123  0.4450  0.6059  1.1683
   13SOL     OW   37   0.292   2.862   3.035  0.4813 -0.2146  0.5366
   13SOL    HW1   38   0.245   2.899   0.003 -0.6407 -0.1522  0.4141
   13SOL    HW2   39   0.380   2.910   3.019 -1.2636 -1.4269  0.9797
   14SOL     OW   40   1.272   1.302   1.653 -0.9455  0.1663  0.0909
   14SOL    HW1   41   1.320   1.356   1.730 -1.6792  3.3546 -0.1861
   14SOL    HW2   42   1.290   1.344   1.560 -0.8281  1.4824 -2.6336
   15SOL     OW   43   0.466   1.477   2.424 -0.0114 -0.1886 -0.6682
   15SOL    HW1   44   0.424   1.499   2.334 -1.7111  0.3391 -0.4649
   15SOL    HW2   45   0.484   1.378   2.440 -0.1329 -0.6046  0.7216
   16SOL     OW   46   1.715   0.557   2.745 -0.0886  0.1796 -0.5142
   16SOL    HW1   47   1.614   0.542   2.743  2.0017 -0.5063 -2.1344
   16SOL    HW2   48   1.743   0.654   2.757 -0.6712 -0.0021  1.1374
   17SOL     OW   49   3.073   2.771   2.349  0.0756  0.2678  0.1573
   17SOL    HW1   50   0.038   2.733   2.396  2.0158  1.5860  0.1173
   17SOL    HW2   51   2.993   2.711   2.359 -1.1473  0.1344 -0.8255
   18SOL     OW   52   1.408   1.128   0.487  0.6559  0.2139 -0.3218
   18SOL    HW1   53   1.503   1.092   0.508  0.6991  0.3991  1.7393
   18SOL    HW2   54   1.344   1.122   0.566 -2.6882 -0.7304  2.0899
   19SOL     OW   55   0.062   1.464   2.259 -0.4788 -0.1035  0.0206
   19SOL    HW1   56   0.094   1.372   2.233 -0.6894  2.1905 -0.2136
   19SOL    HW2   57   0.053   1.524   2.176  0.1972 -0.1453 -1.8536
   20SOL     OW   58   2.118   2.361   2.588 -0.2196  0.0438  0.3953
   20SOL    HW1   59   2.212   2.320   2.570  1.0917  0.0552 -1.5084
   20SOL    HW2   60   2.055   2.314   2.528  0.4977  0.5484  1.3090
   21SOL     OW   61   1.704   2.019   0.801  0.0708 -0.2233  0.0362
   21SOL    HW1   62   1.760   2.096   0.760 -1.4689 -0.8318  0.0075
   21SOL    HW2   63   1.660   2.054   0.890 -1.0297  2.4086 -2.2117
   22SOL     OW   64   2.431   1.940   1.252  0.1617  0.4177 -0.1828
   22SOL    HW1   65   2.468   1.939   1.158 -4.0189 -1.0772 -1.4784
   22SOL    HW2   66   2.339   1.976   1.258  0.4628  1.3898  2.5071
   23SOL     OW   67   3.110   1.386   1.384 -0.3668  0.5297  0.2356
   23SOL    HW1   68   0.026   1.425   1.295  0.7308  1.8724 -2.3553
   23SOL    HW2   69   3.022   1.330   1.376  0.9575 -0.6525 -0.5133
   24SOL     OW   70   1.639   1.300   1.928  0.0982 -0.8206  0.3154
   24SOL    HW1   71   1.667   1.204   1.907  0.3100 -0.1081  1.5920
   24SOL    HW2   72   1.723   1.365   1.931  0.2207  2.4925  1.1978
   25SOL     OW   73   1.956   0.014   2.232 -0.3280  0.4553  0.0370
   25SOL    HW1   74   1.898   3.078   2.297  0.4180 -0.9805 -0.4095
   25SOL    HW2   75   2.056   3.096   2.236  1.0823 -1.3072 -0.2624
   26SOL     OW   76   0.898   0.344   0.567 -0.4556 -0.0706  0.0138
   26SOL    HW1   77   0.851   0.353   0.476 -1.2336  1.7479  0.7180
   26SOL    HW2   78   0.982   0.402   0.562  1.4091  1.1550  0.8247
   27SOL     OW   79   1.134   1.371   0.804  0.4862  0.2747  0.1885
   27SOL    HW1   80   1.115   1.444   0.735 -1.5703  0.4381 -2.3578
   27SOL    HW2   81   1.155   1.413   0.892  1.3185  0.9437 -2.0055
   28SOL     OW   82   2.525   2.250   1.133 -0.1414  0.6029 -0.0654
   28SOL    HW1   83   2.463   2.205   1.200  0.9884  0.8573  2.7373
   28SOL    HW2   84   2.507   2.350   1.114  2.3268  0.3661 -1.6957
   29SOL     OW   85   2.194   2.992   2.329  0.3405 -0.5522  0.4435
   29SOL    HW1   86   2.166   2.945   2.415 -2.7788  1.6828  0.2061
   29SOL    HW2   87   2.199   2.932   2.248  0.1464 -0.9265  1.2247
   30SOL     OW   88   0.141   2.985   1.912 -0.5929  0.6367 -0.1825
   30SOL    HW1   89   0.044   2.976   1.873 -3.5280 -1.2723  0.2293
   30SOL    HW2   90   0.218   2.971   1.846 -1.6812 -2.2694  0.6521
   31SOL     OW   91   0.005   1.847   2.185  0.2124  0.3014  0.4628
   31SOL    HW1   92   3.097   1.929   2.125 -1.6194 -2.9951 -0.9555
   31SOL    HW2   93   3.079   1.767   2.146  0.2460  2.5282 -0.6683
   32SOL     OW   94   1.597   2.404   2.224 -0.1079  0.0350 -0.6746
   32SOL    HW1   95   1.591   2.464   2.138  3.2584  3.3498 -0.0197
   32SOL    HW2   96   1.571   2.462   2.302  0.9618  1.8354 -0.6105
   33SOL     OW   97   0.339   0.205   2.936 -0.1308 -0.3207  0.4434
   33SOL    HW1   98   0.265   0.159   2.984  1.2106  2.1186 -1.4816
   33SOL    HW2   99   0.307   0.283   2.874  1.1774  0.3183 -2.2483
   34SOL     OW  100   2.557   0.044   0.273  0.1453  0.2831  0.2273
   34SOL    HW1  101   2.616   0.043   0.357 -2.1101 -1.5923  0.2272
   34SOL    HW2  102   2.591   0.116   0.207 -0.4970  0.5196 -0.1098
   35SOL     OW  103   2.881   2.584   1.571 -0.5428 -0.5160 -0.3595
   35SOL    HW1  104   2.780   2.610   1.587  0.9140  1.3129  0.8818
   35SOL    HW2  105   2.895   2.540   1.482 -0.7307 -0.9020  0.6916
   36SOL     OW  106   2.634   3.084   2.293  0.3514 -0.1216 -0.1432
   36SOL    HW1  107   2.554   0.011   2.342  2.0061 -0.4103 -0.6635
   36SOL    HW2  108   2.686   0.023   2.222  1.3375 -0.7368 -1.6372
   37SOL     OW  109   1.602   3.002   0.022  0.5702  0.3142  0.1954
   37SOL    HW1  110   1.647   2.987   0.119  2.1315 -0.7432  4.5186
   37SOL    HW2  111   1.520   2.943   0.014 -2.4567  0.5621  2.0332
   38SOL     OW  112   0.337   0.436   0.097 -0.4591 -0.2940  0.8901
   38SOL    HW1  113   0.387   0.510   0.141 -1.5003 -2.9136  1.6268
   38SOL    HW2  114   0.402   0.357   0.081  1.0845 -3.8242  2.0686
   39SOL     OW  115   1.189   1.711   2.206 -0.1349  0.2109 -0.5380
   39SOL    HW1  116   1.241   1.628   2.181  0.2982 -1.2137 -1.6081
   39SOL    HW2  117   1.243   1.767   2.266 -0.8968 -1.6849 -1.0425
   40SOL     OW  118   0.056   0.490   2.505  0.4608  0.5740 -0.1059
   40SOL    HW1  119   0.077   0.587   2.522 -1.6855 -0.3888 -0.6160
   40SOL    HW2  120   0.111   0.455   2.431  0.4262 -0.2646 -0.8517
   41SOL     OW  121   1.335   1.057   2.002 -0.7117  0.4206 -0.2866
   41SOL    HW1  122   1.312   1.053   1.905  2.0307  2.7231  1.3287
   41SOL    HW2  123   1.396   0.979   2.026  0.2716  1.0575 -0.6737
   42SOL     OW  124   2.783   0.059   1.355  0.0745  0.5800 -0.6844
   42SOL    HW1  125   2.700   0.086   1.405 -0.4310 -1.7101  1.3772
   42SOL    HW2  126   2.771   3.105   1.277  1.1554 -0.2412 -1.9739
   43SOL     OW  127   1.357   1.013   1.724  0.2979 -0.4965  0.0479
   43SOL    HW1  128   1.312   1.098   1.693 -2.9311 -2.2929 -0.8258
   43SOL    HW2  129   1.436   0.992   1.663  0.6603 -1.6410  0.4814
   44SOL     OW  130   0.119   0.095   0.002  0.2261 -0.2661 -0.1549
   44SOL    HW1  131   0.154   0.160   0.073  0.0912 -1.0913  0.1895
   44SOL    HW2  132   0.115   3.114   0.031 -1.4215 -1.2997  0.4438
   45SOL     OW  133   0.361   1.898   1.606 -0.2165  0.1604 -1.0258
   45SOL    HW1  134   0.445   1.847   1.645  1.7805 -0.8943 -0.6461
   45SOL    HW2  135   0.358   1.886   1.505 -1.4018 -0.9734 -1.3489
   46SOL     OW  136   2.399   2.869   1.666 -0.0193 -0.3467  0.0180
   46SOL    HW1  137   2.460   2.949   1.691  0.1375  0.0474 -0.7358
   46SOL    HW2  138   2.424   2.793   1.728 -0.2077  4.7223 -0.3658
   47SOL     OW  139   0.466   1.927   1.217 -0.1701 -0.3154  0.5756
   47SOL    HW1  140   0.507   1.877   1.295  1.4375  1.1943 -1.8656
   47SOL    HW2  141   0.381   1.881   1.187  1.1071  1.6579  0.3002
   48SOL     OW  142   0.582   2.806   2.839 -0.0792 -0.3645  0.3945
   48SOL    HW1  143   0.518   2.737   2.799 -0.0380  0.2168  1.9763
   48SOL    HW2  144   0.615   2.780   2.936 -0.4278  0.2252 -0.5686
   49SOL     OW  145   2.920   1.469   1.802  0.2836 -0.2203  0.2616
   49SOL    HW1  146   3.007   1.429   1.763  1.5328 -0.8854 -0.3108
   49SOL    HW2  147   2.860   1.518   1.734  0.5570 -0.4712 -1.2307
   50SOL     OW  148   1.368   2.795   0.641  0.6689 -0.2932  0.4648
   50SOL    HW1  149   1.387   2.713   0.697 -1.8405  0.2774 -2.1136
   50SOL    HW2  150   1.298   2.860   0.682 -0.1854  2.9592  0.3927
   51SOL     OW  151   0.957   0.237   1.005  0.4942 -0.1694 -0.3839
   51SOL    HW1  152   0.873   0.264   0.953  0.6093  1.4711 -0.6017
   51SOL    HW2  153   1.041   0.241   0.948  2.4358  2.2699 -2.1725
   52SOL     OW  154   0.645   1.271   0.295  0.1513 -0.0355  0.1823
   52SOL    HW1  155   0.621   1.176   0.262  0.3384  1.1663 -0.0845
   52SOL    HW2  156   0.592   1.291   0.377  4.4293  1.6009  1.0941
   53SOL     OW  157   1.313   2.733   2.668  0.0232 -0.4638  0.3631
   53SOL    HW1  158   1.395   2.762   2.725  2.3608 -1.2324  0.9914
   53SOL    HW2  159   1.228   2.772   2.709 -0.6478 -1.7357  1.9959
   54SOL     OW  160   1.989   0.351   1.865  0.0716  0.4906 -0.3001
   54SOL    HW1  161   1.961   0.366   1.769  1.0168  0.8639  1.1348
   54SOL    HW2  162   2.089   0.379   1.869  0.7998  1.1836 -4.4445
   55SOL     OW  163   2.928   2.542   0.449  0.1910 -0.1277 -0.0710
   55SOL    HW1  164   2.848   2.548   0.389 -1.7943 -0.4243  0.0398
   55SOL    HW2  165   3.005   2.588   0.401 -1.1004 -2.1627 -4.7518
   56SOL     OW  166   1.073   2.951   1.577 -0.4192 -0.1545  0.3179
   56SOL    HW1  167   1.075   2.990   1.673 -1.6420 -2.6296  2.2228
   56SOL    HW2  168   0.974   2.913   1.563 -1.6890  1.0228  0.6966
   57SOL     OW  169   1.874   1.018   2.503 -0.2397  0.0869 -0.3553
   57SOL    HW1  170   1.951   0.953   2.525 -0.9166  0.5053 -2.1475
   57SOL    HW2  171   1.878   1.041   2.400 -1.6996  0.8314 -1.6442
   58SOL     OW  172   0.031   0.817   2.128  0.3962 -0.9556 -0.1747
   58SOL    HW1  173   3.113   0.719   2.122  0.5026  2.2907 -0.2066
   58SOL    HW2  174   0.071   0.839   2.038  0.4132 -1.7553 -1.3942
   59SOL     OW  175   0.981   2.623   1.806  0.1066  0.5135  0.4086
   59SOL    HW1  176   0.881   2.594   1.801 -0.4655  1.0004  0.5477
   59SOL    HW2  177   1.027   2.612   1.716 -1.4937  0.2054  2.8207
   60SOL     OW  178   2.232   2.636   0.283 -0.2343 -0.1700 -0.6450
   60SOL    HW1  179   2.311   2.593   0.234 -2.7705  1.9301  1.3587
   60SOL    HW2  180   2.152   2.665   0.227 -0.1007  1.6559  1.2004
   61SOL     OW  181   1.635   2.520   0.693 -0.1163 -0.4287 -0.0860
   61SOL    HW1  182   1.662   2.447   0.762 -1.1329 -0.3642  3.6593
   61SOL    HW2  183   1.564   2.579   0.732 -3.6807 -1.4078  1.4647
   62SOL     OW  184   1.850   3.054   3.008  0.8259 -0.2935  0.3597
   62SOL    HW1  185   1.777   2.993   3.054 -1.8936 -2.2372  5.0256
   62SOL    HW2  186   1.815   0.034   3.004 -1.1212  0.2231  0.8152
   63SOL     OW  187   2.504   0.509   0.130  0.3378  0.2706  0.1220
   63SOL    HW1  188   2.486   0.604   0.104 -0.0383 -1.7188  0.6591
   63SOL    HW2  189   2.550   0.460   0.055 -3.5644  2.2931 -0.8994
   64SOL     OW  190   1.444   0.866   2.927 -0.4080  0.1766 -0.5241
   64SOL    HW1  191   1.372   0.789   2.918 -0.4176 -0.4259  0.1057
   64SOL    HW2  192   1.506   0.869   2.846 -1.4683  0.3866  0.4841
   65SOL     OW  193   0.611   2.638   1.471  0.0187  0.6723  0.8841
   65SOL    HW1  194   0.689   2.589   1.431 -0.3101  1.5653 -1.4162
   65SOL    HW2  195   0.608   2.734   1.440 -0.4123 -1.8713 -0.1257
   66SOL     OW  196   0.951   1.448   1.528 -0.1095  1.0878  0.1248
   66SOL    HW1  197   0.969   1.360   1.576 -0.8341  1.7292  0.8244
   66SOL    HW2  198   1.032   1.507   1.535 -2.5300  0.6406  0.7444
   67SOL     OW  199   2.381   2.173   1.880 -0.2587  0.2650  0.5001
   67SOL    HW1  200   2.360   2.254   1.817 -0.4238 -4.0302  0.7460
   67SOL    HW2  201   2.316   2.099   1.855  0.2204  1.2143  1.9222
   68SOL     OW  202   0.591   1.449   2.126 -0.0323  0.0786  0.1014
   68SOL    HW1  203   0.526   1.525   2.150  1.3848  2.1394 -0.3343
   68SOL    HW2  204   0.625   1.462   2.031  0.3011 -3.4322 -1.4538
   69SOL     OW  205   2.934   2.583   0.078  0.3957  0.6683  0.3579
   69SOL    HW1  206   2.963   2.640   3.113  1.4116  0.5241 -0.5349
   69SOL    HW2  207   2.875   2.644   0.138  1.4188  1.7491  2.1994
   70SOL     OW  208   2.330   0.832   2.436 -0.1291  0.3537 -0.0193
   70SOL    HW1  209   2.425   0.792   2.433  0.9908 -0.0007  1.4055
   70SOL    HW2  210   2.332   0.932   2.429  1.3967 -2.6540  1.0663
   71SOL     OW  211   0.516   2.057   0.736  0.0666  0.0391  0.4978
   71SOL    HW1  212   0.523   2.040   0.836  0.4571  2.9751  1.8908
   71SOL    HW2  213   0.456   2.141   0.721 -2.0569  0.1671  0.6641
   72SOL     OW  214   2.605   2.052   0.624  0.3098 -0.1032 -0.3087
   72SOL    HW1  215   2.598   2.105   0.537 -0.8339 -0.5291  1.7343
   72SOL    HW2  216   2.626   2.113   0.702  0.3997  1.6028 -2.2985
   73SOL     OW  217   1.126   0.498   0.641 -0.1320 -0.4635 -0.2268
   73SOL    HW1  218   1.114   0.516   0.539  0.6257 -0.5677 -1.0447
   73SOL    HW2  219   1.225   0.511   0.670  2.9426  1.3410  2.8112
   74SOL     OW  220   2.630   2.050   1.888  0.4439  0.3127  0.5453
   74SOL    HW1  221   2.619   1.950   1.871 -0.8916 -1.2988 -1.3529
   74SOL    HW2  222   2.540   2.090   1.873  0.3354 -1.2724  1.8988
   75SOL     OW  223   1.640   1.724   1.829 -0.3974 -0.1658 -0.4320
   75SOL    HW1  224   1.562   1.736   1.893  1.3230 -0.0981 -0.0980
   75SOL    HW2  225   1.683   1.630   1.844 -0.3601  0.4031 -0.0826
   76SOL     OW  226   1.152   1.742   1.005  0.2699 -0.1664 -0.0783
   76SOL    HW1  227   1.248   1.714   0.976  3.3533  1.3930 -1.2052
   76SOL    HW2  228   1.106   1.657   1.036 -0.0736 -0.4395  1.2150
   77SOL     OW  229   2.727   1.300   1.917 -0.5344  0.0872  0.4517
   77SOL    HW1  230   2.721   1.336   2.015  0.2314  2.9897 -1.1904
   77SOL    HW2  231   2.812   1.343   1.874 -0.1465  1.1706 -0.3909
   78SOL     OW  232   1.721   0.830   0.277  0.4470 -0.5004 -0.4582
   78SOL    HW1  233   1.694   0.756   0.213 -0.6478 -2.0619  0.4673
   78SOL    HW2  234   1.766   0.795   0.360 -0.2003  0.4853  3.8491
   79SOL     OW  235   1.306   1.479   2.096 -0.0225 -0.1623  0.6631
   79SOL    HW1  236   1.372   1.402   2.097 -2.0432  0.3648 -1.1002
   79SOL    HW2  237   1.209   1.442   2.100 -1.0311 -1.1893  2.1718
   80SOL     OW  238   1.050   0.351   1.719 -0.0998  0.1862  0.6568
   80SOL    HW1  239   1.012   0.445   1.695  0.3608 -2.9240 -0.1167
   80SOL    HW2  240   1.145   0.358   1.758 -0.6885 -2.9782 -0.2893
   81SOL     OW  241   0.680   2.561   0.185 -0.2487 -0.1879 -0.0978
   81SOL    HW1  242   0.582   2.586   0.169 -0.5549 -0.7431  2.8144
   81SOL    HW2  243   0.714   2.488   0.123  1.3974  0.0790 -0.1293
   82SOL     OW  244   1.291   0.392   1.877  0.6431  0.0702 -0.0427
   82SOL    HW1  245   1.364   0.354   1.813  1.0548 -0.9220  2.5787
   82SOL    HW2  246   1.284   0.333   1.961  0.7680  1.9431  0.0511
   83SOL     OW  247   0.372   2.273   0.843  0.0078 -0.2988  0.1069
   83SOL    HW1  248   0.443   2.332   0.891  3.1658 -0.4235  0.4692
   83SOL    HW2  249   0.303   2.232   0.903  0.2150  0.3805 -3.7726
   84SOL     OW  250   2.858   1.681   0.534 -0.1897 -0.4898 -0.5522
   84SOL    HW1  251   2.895   1.589   0.523  2.1063 -1.1441  0.2922
   84SOL    HW2  252   2.846   1.714   0.439  0.1802  0.2213 -0.1043
   85SOL     OW  253   2.558   1.882   1.482 -0.2737 -0.1029  0.5545
   85SOL    HW1  254   2.515   1.882   1.391  3.4372 -1.6057  1.6924
   85SOL    HW2  255   2.658   1.873   1.473 -1.6289 -0.8669 -1.3167
   86SOL     OW  256   1.682   2.444   1.309 -0.1286  0.3724  0.7200
   86SOL    HW1  257   1.742   2.414   1.231 -1.1623 -1.0060 -1.3291
   86SOL    HW2  258   1.670   2.370   1.381 -1.0367  1.2780 -1.3796
   87SOL     OW  259   2.156   1.482   0.460 -0.4372  0.4446 -0.2329
   87SOL    HW1  260   2.069   1.520   0.427  1.2074 -1.9861 -0.6393
   87SOL    HW2  261   2.230   1.495   0.389  0.7368 -1.5016  1.7378
   88SOL     OW  262   0.566   0.113   0.858 -0.6514  0.0269  0.4442
   88SOL    HW1  263   0.551   0.023   0.817 -0.5237 -1.7038 -0.2905
   88SOL    HW2  264   0.656   0.159   0.841 -0.8127 -1.3431  2.4449
   89SOL     OW  265   0.806   0.241   1.741  0.1157 -0.0750 -0.1420
   89SOL    HW1  266   0.892   0.293   1.741 -1.9863  0.0961 -1.1015
   89SOL    HW2  267   0.814   0.157   1.681 -1.2985 -2.5250 -2.2365
   90SOL     OW  268   3.114   1.946   0.300  0.5697  0.2760  0.2161
   90SOL    HW1  269   3.115   2.000   0.215  1.1118  1.4410 -0.1824
   90SOL    HW2  270   3.047   1.980   0.368 -0.6025  1.6535  0.2677
   91SOL     OW  271   1.120   1.758   0.737  0.5553 -0.2664  0.2721
   91SOL    HW1  272   1.032   1.809   0.717 -0.6218  0.6580  1.2411
   91SOL    HW2  273   1.145   1.759   0.834  3.0093  1.7304  1.0818
   92SOL     OW  274   2.294   0.065   1.374 -0.7245  0.5574  0.4300
   92SOL    HW1  275   2.382   0.089   1.418 -1.1111 -0.6129  0.3471
   92SOL    HW2  276   2.267   3.093   1.418 -0.4684  0.3413  1.0289
   93SOL     OW  277   0.323   1.190   2.900  0.3766 -0.7710 -0.3285
   93SOL    HW1  278   0.385   1.246   2.955  1.8448 -1.9236  2.6336
   93SOL    HW2  279   0.361   1.169   2.806  1.6004 -0.8644 -2.0658
   94SOL     OW  280   2.564   3.072   1.755 -0.5115 -0.2003 -0.0638
   94SOL    HW1  281   2.489   0.010   1.794 -2.6655  2.0198 -0.4319
   94SOL    HW2  282   2.651   3.090   1.805  1.3524 -3.1973 -1.1249
   95SOL     OW  283   1.929   0.685   1.737 -0.4824  0.1597  0.1167
   95SOL    HW1  284   1.881   0.749   1.676 -0.2043  0.9037 -1.5195
   95SOL    HW2  285   1.937   0.592   1.695  0.8262  2.0428  1.8489
   96SOL     OW  286   2.850   0.358   1.973  0.0229  0.2044  0.2099
   96SOL    HW1  287   2.767   0.382   1.911 -1.6565  4.3510 -0.9943
   96SOL    HW2  288   2.876   0.437   2.028 -3.2206  1.0037  0.6922
   97SOL     OW  289   2.162   0.302   1.319 -0.2336  0.1295 -0.2492
   97SOL    HW1  290   2.097   0.272   1.245 -0.3985  0.4229 -0.0604
   97SOL    HW2  291   2.211   0.224   1.359  1.0206 -0.2748 -0.4781
   98SOL     OW  292   2.202   2.612   1.796 -0.1063 -0.3785  0.2936
   98SOL    HW1  293   2.304   2.609   1.778 -1.7467  1.3509  2.7479
   98SOL    HW2  294   2.179   2.711   1.808  0.4092 -0.3552  1.5332
   99SOL     OW  295   0.323   0.742   1.126  0.2614 -0.2813  0.4912
   99SOL    HW1  296   0.237   0.694   1.153 -0.5487 -0.9479 -0.4255
   99SOL    HW2  297   0.308   0.784   1.036 -1.0727  1.5243  1.2916
  100SOL     OW  298   2.625   1.758   1.867  0.1135 -0.2586 -0.3907
  100SOL    HW1  299   2.542   1.736   1.815  1.1673 -1.2191 -2.5368
  100SOL    HW2  300   2.710   1.766   1.811  1.9947  0.0716  1.4019
  101SOL     OW  301   2.142   3.090   0.268  0.7673  0.5728  0.5520
  101SOL    HW1  302   2.211   0.033   0.307 -0.2088  1.3171 -2.7350
  101SOL    HW2  303   2.157   3.077   0.166 -1.2030 -1.7940  0.0657
  102SOL     OW  304   0.426   0.375   1.179  0.0643  0.5083 -0.0333
  102SOL    HW1  305   0.381   0.395   1.270 -0.1224  0.4296 -0.2957
  102SOL    HW2  306   0.354   0.367   1.107  1.0548 -2.2800 -0.5614
  103SOL     OW  307   3.095   0.061   2.692  0.2033  0.9046 -0.4042
  103SOL    HW1  308   3.032   0.013   2.633  2.3779  0.7733 -2.4903
  103SOL    HW2  309   0.070   0.019   2.685  2.8393  0.0456 -0.7698
  104SOL     OW  310   0.419   2.140   1.365  0.2633 -0.6255  0.3451
  104SOL    HW1  311   0.427   2.050   1.311 -0.0153  0.3369  0.3545
  104SOL    HW2  312   0.350   2.208   1.326  0.5663 -2.1257  3.4475
  105SOL     OW  313   0.720   1.735   2.233  0.2146 -0.2653 -0.4636
  105SOL    HW1  314   0.798   1.770   2.284  0.0521 -2.3309 -0.9629
  105SOL    HW2  315   0.721   1.772   2.138  0.9670  0.8231 -0.4856
  106SOL     OW  316   2.153   0.301   0.733  0.4992 -0.0474 -0.6176
  106SOL    HW1  317   2.112   0.330   0.824  2.0761  0.4994  0.2459
  106SOL    HW2  318   2.088   0.241   0.678 -1.0189 -0.4990  0.2604
  107SOL     OW  319   0.495   1.334   1.255  0.5073  0.1458  0.0532
  107SOL    HW1  320   0.484   1.325   1.156  0.8705 -2.7224 -0.8066
  107SOL    HW2  321   0.580   1.283   1.275 -2.4560  1.4952  0.7931
  108SOL     OW  322   2.714   0.949   2.370 -0.1058  0.0552 -0.2163
  108SOL    HW1  323   2.802   0.944   2.321 -2.6759 -1.8775  1.5267
  108SOL    HW2  324   2.677   0.854   2.389  0.3981  1.4750  0.3446
  109SOL     OW  325   1.924   2.963   2.770 -0.1661 -0.3888 -0.3718
  109SOL    HW1  326   1.931   3.032   2.695  0.2538 -1.2018 -1.7693
  109SOL    HW2  327   1.914   3.010   2.861  1.1754  0.2169 -0.1935
  110SOL     OW  328   0.221   2.023   3.096  0.1888  0.1228 -0.4163
  110SOL    HW1  329   0.121   2.013   0.013 -1.4108  0.3485 -1.4206
  110SOL    HW2  330   0.277   1.943   0.014  0.1380 -0.5574  0.8926
  111SOL     OW  331   2.576   0.700   2.432 -0.2000  0.5717  0.6691
  111SOL    HW1  332   2.612   0.623   2.373  1.5709 -1.7339 -1.0427
  111SOL    HW2  333   2.553   0.660   2.526 -1.8941 -2.8247 -0.7600
  112SOL     OW  334   2.022   2.758   1.384 -0.1437  0.1673  0.4523
  112SOL    HW1  335   1.935   2.727   1.351 -0.1668  0.4879 -0.6407
  112SOL    HW2  336   2.093   2.727   1.313  1.4455 -0.1772 -2.2146
  113SOL     OW  337   1.979   2.197   2.227 -0.1228  0.3976 -0.0090
  113SOL    HW1  338   1.963   2.094   2.230  1.0249  0.5784 -0.2131
  113SOL    HW2  339   2.066   2.218   2.176 -0.9793 -0.2397  0.8795
  114SOL     OW  340   0.424   0.362   0.390  0.2519 -0.4256 -0.2408
  114SOL    HW1  341   0.362   0.284   0.381  2.0068  3.1801 -2.9028
  114SOL    HW2  342   0.518   0.341   0.361 -0.8348  0.4699 -0.0808
  115SOL     OW  343   2.805   1.547   2.994  0.9080 -0.1406  0.1026
  115SOL    HW1  344   2.869   1.600   3.052  1.9030 -0.9179  0.5845
  115SOL    HW2  345   2.854   1.461   2.972  2.3950  1.0963 -1.6162
  116SOL     OW  346   0.083   0.742   1.494 -0.7073 -0.1126 -0.0464
  116SOL    HW1  347   0.050   0.650   1.450  0.0255 -2.2279  1.3495
  116SOL    HW2  348   0.026   0.816   1.462  3.4041 -2.9216 -0.7934
  117SOL     OW  349   2.340   0.414   1.162  0.3599 -0.6621  0.1799
  117SOL    HW1  350   2.319   0.511   1.172 -0.7878 -0.6776  1.8376
  117SOL    HW2  351   2.281   0.368   1.232 -0.2467 -1.2275 -0.9911
  118SOL     OW  352   2.795   2.195   2.064  0.1067 -0.1261  0.1546
  118SOL    HW1  353   2.823   2.298   2.058 -0.2161  1.4624  1.3616
  118SOL    HW2  354   2.756   2.167   1.977  1.0722  2.3075 -0.5676
  119SOL     OW  355   0.779   1.798   0.915  0.1937  0.0557 -0.8163
  119SOL    HW1  356   0.815   1.881   0.960 -0.6469  1.7043  1.8853
  119SOL    HW2  357   0.748   1.727   0.987 -1.7528 -3.6107 -1.9507
  120SOL     OW  358   0.460   1.604   1.240  0.1706 -0.3529 -0.5112
  120SOL    HW1  359   0.386   1.651   1.183 -0.6680 -3.1842 -4.2434
  120SOL    HW2  360   0.453   1.502   1.228 -1.9713 -0.5954  0.4564
  121SOL     OW  361   1.369   1.047   0.933 -0.3731 -0.3022  0.2297
  121SOL    HW1  362   1.394   1.126   0.992  2.1303 -0.5180 -2.1065
  121SOL    HW2  363   1.307   1.066   0.852 -2.4654  0.2664 -1.9191
  122SOL     OW  364   2.031   2.414   2.839  0.1673  0.7924  0.3760
  122SOL    HW1  365   1.942   2.465   2.827 -1.4913 -0.8074 -2.5092
  122SOL    HW2  366   2.075   2.387   2.751  0.9204  0.9423 -2.0608
  123SOL     OW  367   2.949   0.003   0.446 -0.1777  0.1785  0.0395
  123SOL    HW1  368   2.891   0.010   0.529  2.1136  0.3670  2.0704
  123SOL    HW2  369   3.002   0.091   0.420 -0.4008 -0.1423 -0.2132
  124SOL     OW  370   1.462   1.278   0.257  0.0359 -0.2524 -0.3323
  124SOL    HW1  371   1.512   1.215   0.196 -6.1161 -0.5450  2.4381
  124SOL    HW2  372   1.445   1.233   0.350  2.4901  1.2331 -0.0295
  125SOL     OW  373   0.055   0.876   2.384 -0.0391  0.2005  0.1329
  125SOL    HW1  374   0.062   0.979   2.384  0.4245  1.5181  0.3545
  125SOL    HW2  375   0.053   0.851   2.286 -0.6351 -0.2299  0.5079
  126SOL     OW  376   0.039   2.445   0.138 -0.1518  0.2016  0.1226
  126SOL    HW1  377   0.096   2.470   0.219 -0.8372  0.2270 -2.8342
  126SOL    HW2  378   3.072   2.507   0.129  0.0317 -0.6721  0.3922
  127SOL     OW  379   2.842   1.779   0.280 -0.1364 -0.4193  0.0192
  127SOL    HW1  380   2.946   1.770   0.282  2.3378 -0.9627  0.5367
  127SOL    HW2  381   2.816   1.846   0.206  2.6233 -2.6049 -1.3537
  128SOL     OW  382   1.445   0.834   0.808 -0.2870 -0.9018 -0.1867
  128SOL    HW1  383   1.404   0.907   0.857  0.7131 -1.6811 -1.1457
  128SOL    HW2  384   1.391   0.809   0.723 -2.5469 -0.6077  1.5925
  129SOL     OW  385   2.717   1.905   1.030  0.4540 -0.1937  0.7529
  129SOL    HW1  386   2.803   1.914   0.979 -3.7867 -0.0254  1.4320
  129SOL    HW2  387   2.728   1.952   1.122  1.1163 -1.0648  0.0874
  130SOL     OW  388   2.018   1.044   0.515  0.0843  0.2500  0.5624
  130SOL    HW1  389   2.083   1.118   0.543  2.3108  0.3304 -2.5381
  130SOL    HW2  390   1.939   1.088   0.465 -0.4754  1.7611  1.1000
  131SOL     OW  391   2.953   1.151   2.541 -0.4601 -0.1068  0.2618
  131SOL    HW1  392   2.880   1.151   2.612 -1.1413  2.2742  2.6936
  131SOL    HW2  393   2.965   1.242   2.499  2.1660 -4.9198  1.0954
  132SOL     OW  394   1.049   1.405   2.099  0.1786  0.2183  0.4513
  132SOL    HW1  395   1.009   1.439   2.183 -0.8088  0.1931 -0.8753
  132SOL    HW2  396   1.063   1.300   2.099  1.6352  0.1757 -0.5715
  133SOL     OW  397   0.145   1.195   0.283  0.6858  0.2128  0.1669
  133SOL    HW1  398   0.196   1.271   0.238  0.6331  0.1445 -1.7653
  133SOL    HW2  399   0.073   1.158   0.215  2.0252 -1.4230 -3.2989
  134SOL     OW  400   2.755   1.046   0.140  0.3856  0.0317 -0.0838
  134SOL    HW1  401   2.731   0.987   0.060 -1.2353  2.4877 -2.8121
  134SOL    HW2  402   2.741   1.146   0.122  3.7741  0.8243 -0.1280
  135SOL     OW  403   1.649   0.600   0.050  0.1714 -0.4112 -0.2325
  135SOL    HW1  404   1.727   0.631   3.107  1.9632 -1.2778 -1.9915
  135SOL    HW2  405   1.681   0.516   0.100 -1.4726 -0.7419  0.9444
  136SOL     OW  406   1.974   1.803   1.786  0.4172  0.1755  0.3087
  136SOL    HW1  407   1.942   1.789   1.692 -1.8947  0.8900 -0.0899
  136SOL    HW2  408   2.002   1.715   1.827 -0.6529  0.4995  1.7655
  137SOL     OW  409   2.311   2.471   0.907 -0.1621 -0.3453 -0.4505
  137SOL    HW1  410   2.222   2.520   0.921 -1.4168 -0.1915 -1.1025
  137SOL    HW2  411   2.301   2.374   0.930 -0.7677 -0.1503 -2.4564
  138SOL     OW  412   2.351   0.570   1.632  0.9257 -0.4552 -0.4228
  138SOL    HW1  413   2.356   0.669   1.655  2.5195 -0.2481  1.8187
  138SOL    HW2  414   2.261   0.555   1.586  0.2576  0.2296  2.4398
  139SOL     OW  415   2.384   2.838   2.765  0.1845  0.5053 -0.0523
  139SOL    HW1  416   2.443   2.779   2.823 -0.9194 -1.2039  0.2612
  139SOL    HW2  417   2.285   2.805   2.766 -0.1250 -1.5665 -2.4737
  140SOL     OW  418   1.417   1.945   2.413  0.1222 -0.1087 -0.6352
  140SOL    HW1  419   1.497   1.876   2.406  1.6282  0.7287 -1.2559
  140SOL    HW2  420   1.340   1.901   2.468 -0.4352 -0.5109  0.4889
  141SOL     OW  421   0.863   1.084   2.550  0.4751  0.5704  0.7133
  141SOL    HW1  422   0.778   1.034   2.523 -1.7136  0.8214 -4.9708
  141SOL    HW2  423   0.881   1.085   2.645 -2.4781 -2.5971 -2.6500
  142SOL     OW  424   2.737   2.657   2.128  0.1611 -0.2055  1.0938
  142SOL    HW1  425   2.751   2.762   2.124 -0.6592 -2.5346  1.8542
  142SOL    HW2  426   2.641   2.642   2.095 -0.6604 -0.6873 -1.9901
  143SOL     OW  427   1.154   2.395   0.316 -0.2176  0.1999  0.1072
  143SOL    HW1  428   1.167   2.495   0.309  0.1897  2.0616 -1.4558
  143SOL    HW2  429   1.117   2.377   0.410  0.9362  1.9564 -2.7605
  144SOL     OW  430   1.052   2.660   0.644 -0.4224  0.0889 -0.1265
  144SOL    HW1  431   1.011   2.714   0.726 -2.3424  0.6887  0.3777
  144SOL    HW2  432   1.055   2.719   0.560 -1.9163  1.8121 -1.3269
  145SOL     OW  433   1.524   2.554   2.476  0.0196 -0.2310  0.2171
  145SOL    HW1  434   1.610   2.525   2.511  0.5092 -2.0453  1.8548
  145SOL    HW2  435   1.515   2.660   2.473 -0.7771 -1.7161 -1.7425
  146SOL     OW  436   2.143   3.097   3.103 -0.4296  0.1008 -0.1984
  146SOL    HW1  437   2.162   0.075   3.064  0.8919 -1.3356  0.5147
  146SOL    HW2  438   2.055   3.060   3.076  1.2942  2.1338  0.9824
  147SOL     OW  439   0.065   1.641   1.237  0.2502 -0.0622 -0.1779
  147SOL    HW1  440   0.039   1.644   1.137 -0.7405  0.5880  0.6493
  147SOL    HW2  441   3.104   1.626   1.301 -0.2687 -0.6784  1.0269
  148SOL     OW  442   1.929   3.027   0.410 -0.6725  0.2884  0.3274
  148SOL    HW1  443   1.945   2.952   0.479  0.8288 -0.8541  0.9571
  148SOL    HW2  444   2.012   3.051   0.353 -2.7355  0.0501  0.5151
  149SOL     OW  445   0.627   1.849   2.980  0.0432  0.3887 -0.5103
  149SOL    HW1  446   0.665   1.754   2.979  0.5602 -2.1822 -0.6939
  149SOL    HW2  447   0.625   1.883   2.885 -0.5946 -3.0799 -1.1638
  150SOL     OW  448   0.373   2.761   0.929 -0.3899  0.4917 -0.3982
  150SOL    HW1  449   0.386   2.778   1.024  0.4298  0.0846  1.2318
  150SOL    HW2  450   0.326   2.839   0.882 -1.8387  2.1394 -0.1412
  151SOL     OW  451   0.116   1.040   2.948  0.1991 -0.3602 -0.0393
  151SOL    HW1  452   0.200   1.094   2.923  0.6413  0.8264 -2.3479
  151SOL    HW2  453   0.053   1.028   2.868 -1.7515 -0.2961  0.2727
  152SOL     OW  454   2.959   1.969   0.917 -0.1752  0.5446 -0.2001
  152SOL    HW1  455   2.935   2.043   0.853  0.6512 -0.9242  3.4645
  152SOL    HW2  456   2.963   1.880   0.863 -1.3205 -0.6678 -0.4628
  153SOL     OW  457   1.699   2.332   0.909  0.3800 -0.4036  0.0749
  153SOL    HW1  458   1.728   2.274   0.827  0.1526 -3.2167 -1.2523
  153SOL    HW2  459   1.659   2.270   0.980 -0.6473 -1.3612  0.9191
  154SOL     OW  460   0.599   2.886   1.345  0.3500 -0.0073 -0.2609
  154SOL    HW1  461   0.567   2.980   1.372  2.0364 -0.6410  0.5544
  154SOL    HW2  462   0.650   2.887   1.257  1.8785 -0.0397 -1.0948
  155SOL     OW  463   2.901   2.178   0.750 -0.1679  0.4808 -0.1823
  155SOL    HW1  464   2.978   2.241   0.740  1.8809  0.1447 -3.8181
  155SOL    HW2  465   2.817   2.228   0.771  0.1101  2.0989 -0.6711
  156SOL     OW  466   2.496   2.009   0.095  0.0799  0.3162 -0.1469
  156SOL    HW1  467   2.588   2.051   0.117 -2.8792 -1.0866 -1.6922
  156SOL    HW2  468   2.447   1.974   0.176  1.4014  0.9260 -2.1737
  157SOL     OW  469   0.449   2.405   1.727  0.3249  0.1814 -0.6336
  157SOL    HW1  470   0.395   2.322   1.704  0.0457  2.1919 -0.5723
  157SOL    HW2  471   0.517   2.392   1.796 -1.1356  1.7060 -2.8953
  158SOL     OW  472   1.332   0.414   1.026  0.0291 -0.2392  0.4251
  158SOL    HW1  473   1.339   0.311   1.035  0.7750  0.4846  4.5956
  158SOL    HW2  474   1.397   0.468   1.078 -2.0055 -1.7978 -1.0361
  159SOL     OW  475   1.746   1.009   0.062 -0.5349  0.5637 -0.4399
  159SOL    HW1  476   1.749   0.949   0.147 -0.5202  0.1042 -0.3888
  159SOL    HW2  477   1.654   1.048   0.047  0.2095 -1.5302 -3.4770
  160SOL     OW  478   1.276   1.953   0.345  0.6164  0.0694  0.1590
  160SOL    HW1  479   1.309   2.049   0.323  1.7815  2.0826 -1.8412
  160SOL    HW2  480   1.204   1.918   0.277 -1.6896 -1.1337 -2.7121
  161SOL     OW  481   2.583   2.243   2.476 -0.2759 -0.5989  0.4063
  161SOL    HW1  482   2.670   2.182   2.490  4.3275 -3.7070  1.3603
  161SOL    HW2  483   2.595   2.324   2.536 -1.1454 -1.4250  0.7772
  162SOL     OW  484   0.220   2.342   1.431  0.1328 -0.0615 -0.2741
  162SOL    HW1  485   0.133   2.365   1.475  1.6101  1.6285  0.0756
  162SOL    HW2  486   0.238   2.403   1.355  0.1312 -2.0049  2.3966
  163SOL     OW  487   0.262   0.405   2.709  0.0629  0.1289 -0.2628
  163SOL    HW1  488   0.221   0.382   2.618  0.8717 -1.1717  0.4968
  163SOL    HW2  489   0.188   0.457   2.755  1.6142 -1.3255 -0.9777
  164SOL     OW  490   0.163   2.546   2.815  0.4105  0.0992  0.3092
  164SOL    HW1  491   0.188   2.635   2.773  0.0664  0.6764 -2.8194
  164SOL    HW2  492   0.161   2.561   2.918  2.2015  1.2686 -2.2784
  165SOL     OW  493   2.779   1.030   1.385  0.2823 -0.0268  0.4976
  165SOL    HW1  494   2.708   1.043   1.456 -1.2131  2.8375 -1.2291
  165SOL    HW2  495   2.783   0.934   1.348  0.2643 -0.6589 -1.6023
  166SOL     OW  496   2.159   1.861   1.516  0.2237  0.1510 -0.3700
  166SOL    HW1  497   2.218   1.786   1.552  2.0932  0.4138  3.0968
  166SOL    HW2  498   2.067   1.822   1.510 -0.2969  1.6328  1.5667
  167SOL     OW  499   0.377   0.522   2.392  0.2243 -0.3603 -0.3981
  167SOL    HW1  500   0.391   0.524   2.288  0.1788 -1.2988 -0.1687
  167SOL    HW2  501   0.347   0.608   2.437 -2.6778 -1.5189 -0.1636
  168SOL     OW  502   2.388   0.159   2.151  0.0184  0.4047 -0.0959
  168SOL    HW1  503   2.387   0.117   2.058 -2.9383  1.1305  0.2764
  168SOL    HW2  504   2.426   0.095   2.223  0.5346 -2.4371  1.3511
  169SOL     OW  505   0.507   1.012   3.079 -0.1829 -0.2629 -0.2115
  169SOL    HW1  506   0.423   1.061   3.044 -2.4010 -0.0624  0.1608
  169SOL    HW2  507   0.571   1.000   2.999 -0.5853 -0.7900 -0.9742
  170SOL     OW  508   0.861   1.471   1.279  0.1273  0.1761  0.0241
  170SOL    HW1  509   0.904   1.483   1.372 -0.5040  1.5851  0.9031
  170SOL    HW2  510   0.828   1.376   1.270 -3.5144  1.0925 -0.0571
  171SOL     OW  511   1.124   2.620   1.575  0.3551 -0.0786 -0.3108
  171SOL    HW1  512   1.113   2.717   1.556 -0.1437  2.7895  2.7727
  171SOL    HW2  513   1.115   2.567   1.487  0.1152 -0.5420 -0.5293
  172SOL     OW  514   1.225   3.102   2.058 -0.4237 -0.4329  0.2410
  172SOL    HW1  515   1.262   3.031   2.122  0.5267 -3.0239  1.0006
  172SOL    HW2  516   1.274   0.074   2.071 -2.2734 -1.5093 -0.7523
  173SOL     OW  517   1.179   2.466   0.883  0.0712 -0.9791  0.0590
  173SOL    HW1  518   1.083   2.461   0.859  1.6678 -1.6660 -2.3735
  173SOL    HW2  519   1.224   2.389   0.839 -2.6223  0.3938 -1.6583
  174SOL     OW  520   2.197   3.071   0.566  0.6379  0.5321  0.1778
  174SOL    HW1  521   2.104   3.108   0.589 -1.2885 -1.0044 -0.8643
  174SOL    HW2  522   2.254   0.021   0.516  0.9950 -0.7443  2.2676
  175SOL     OW  523   1.238   1.127   0.716 -0.2209  0.0692  0.1149
  175SOL    HW1  524   1.207   1.225   0.728  0.2288  1.9074 -2.6809
  175SOL    HW2  525   1.175   1.078   0.647  2.1371 -0.8781 -1.6154
  176SOL     OW  526   0.947   1.695   0.435  0.4874 -0.5806  0.1042
  176SOL    HW1  527   0.912   1.714   0.523  2.7966 -1.5484 -3.0857
  176SOL    HW2  528   1.004   1.611   0.426  0.1241 -2.0505  0.0260
  177SOL     OW  529   1.456   1.426   0.812  0.6946  0.3473 -0.3241
  177SOL    HW1  530   1.380   1.390   0.752  0.0756 -2.4398 -0.2036
  177SOL    HW2  531   1.547   1.396   0.776 -0.0771 -0.1238  0.8241
  178SOL     OW  532   2.151   1.711   0.169 -0.3642  0.2963 -0.5866
  178SOL    HW1  533   2.144   1.787   0.235  1.6474  0.1613 -0.7135
  178SOL    HW2  534   2.222   1.644   0.196  1.5849  0.7153  3.5398
  179SOL     OW  535   1.387   2.820   0.008  0.1172 -0.2939  0.0790
  179SOL    HW1  536   1.401   2.735   0.062  0.5930 -0.3465  0.6721
  179SOL    HW2  537   1.288   2.839   3.106  3.1504  0.2089 -2.3743
  180SOL     OW  538   1.971   1.265   1.561 -0.8532 -0.6515  0.0892
  180SOL    HW1  539   2.009   1.273   1.661 -0.8710 -0.6834  0.2349
  180SOL    HW2  540   2.021   1.321   1.494 -2.0133 -2.1579  3.1065
  181SOL     OW  541   1.132   0.667   1.962 -0.4546 -0.2478  0.2865
  181SOL    HW1  542   1.201   0.662   2.037  0.3391  1.1853  1.5210
  181SOL    HW2  543   1.043   0.621   1.990 -0.8559 -1.2162 -0.9539
  182SOL     OW  544   0.127   1.160   2.489  0.7297 -0.0215  0.3258
  182SOL    HW1  545   0.038   1.183   2.528  0.6698 -1.8716  0.7970
  182SOL    HW2  546   0.135   1.194   2.392  2.8753  2.4826  0.4534
  183SOL     OW  547   1.480   0.583   2.406 -0.3291  0.0915  0.2808
  183SOL    HW1  548   1.563   0.553   2.353  0.7516 -0.1064  2.4647
  183SOL    HW2  549   1.440   0.500   2.454  0.1564 -3.6306  0.3243
  184SOL     OW  550   0.652   0.491   1.019 -0.6611 -0.2922  0.4584
  184SOL    HW1  551   0.708   0.547   1.076 -0.8684 -0.1029 -1.2021
  184SOL    HW2  552   0.584   0.431   1.070 -0.1028 -1.4114  3.0823
  185SOL     OW  553   2.235   1.510   0.720 -0.2094 -0.3273  0.2514
  185SOL    HW1  554   2.287   1.431   0.756  1.8608 -1.0258  2.7236
  185SOL    HW2  555   2.223   1.508   0.615  1.5793 -0.4628 -1.0912
  186SOL     OW  556   0.267   1.950   0.373 -0.0298 -0.5205  0.3214
  186SOL    HW1  557   0.312   1.855   0.377 -0.1925 -0.9185 -0.4883
  186SOL    HW2  558   0.165   1.943   0.352 -2.6701  1.4393 -3.1404
  187SOL     OW  559   2.011   2.257   3.064  0.3299 -0.1902  0.0696
  187SOL    HW1  560   2.076   2.183   3.081 -0.5374  2.8963  1.7457
  187SOL    HW2  561   2.031   2.301   2.973 -1.0344 -1.7563  0.7816
  188SOL     OW  562   1.275   2.052   1.363  0.1728  0.1954  0.0051
  188SOL    HW1  563   1.328   1.964   1.365  0.9019  0.8086  2.3053
  188SOL    HW2  564   1.182   2.030   1.329  3.4884 -1.2887 -1.0402
  189SOL     OW  565   2.160   1.543   2.491 -0.0463 -0.0191  0.3503
  189SOL    HW1  566   2.092   1.476   2.511  2.9954  0.1821 -2.0960
  189SOL    HW2  567   2.116   1.629   2.457  0.6890 -0.5474 -3.4416
  190SOL     OW  568   0.820   2.505   2.283 -0.2241 -0.3263  0.1337
  190SOL    HW1  569   0.903   2.537   2.228  2.4736 -1.9872 -0.0299
  190SOL    HW2  570   0.747   2.575   2.293 -0.6270  2.6787 -1.0615
  191SOL     OW  571   2.461   1.156   1.260 -0.1506  0.4139  0.3051
  191SOL    HW1  572   2.490   1.169   1.355 -0.6651 -0.4299 -1.8996
  191SOL    HW2  573   2.531   1.102   1.206 -1.7463 -0.4822  2.5195
  192SOL     OW  574   2.717   0.661   1.795  0.8587 -0.8327 -0.0221
  192SOL    HW1  575   2.689   0.562   1.788  0.2034  0.9717 -0.5580
  192SOL    HW2  576   2.812   0.674   1.815 -0.5762  1.3052  1.3195
  193SOL     OW  577   0.928   0.246   0.175 -0.0134  0.0529 -0.1745
  193SOL    HW1  578   1.021   0.221   0.199 -0.3754  1.9960  1.0287
  193SOL    HW2  579   0.912   0.254   0.076  0.0816 -0.4670  2.7496
  194SOL     OW  580   1.091   2.456   1.365 -0.1285 -0.1478  0.1995
  194SOL    HW1  581   1.094   2.364   1.410  2.3389  0.3356 -2.4339
  194SOL    HW2  582   1.144   2.442   1.276 -0.1647 -0.3000  0.6994
  195SOL     OW  583   2.581   1.252   0.362 -0.0706  0.1158 -0.5518
  195SOL    HW1  584   2.571   1.190   0.444 -0.1434  0.1766  0.9373
  195SOL    HW2  585   2.567   1.348   0.390  2.4377 -0.2876  1.6609
  196SOL     OW  586   0.595   2.302   1.506  0.0157 -0.8583  0.0861
  196SOL    HW1  587   0.522   2.241   1.463 -1.9322  0.8577 -0.6868
  196SOL    HW2  588   0.547   2.375   1.563 -3.2416  0.8626 -0.2687
  197SOL     OW  589   3.047   0.589   2.089  0.4943  0.7684 -0.1030
  197SOL    HW1  590   0.012   0.539   2.049 -2.4822 -1.4545  0.1946
  197SOL    HW2  591   3.022   0.552   2.181  0.6246 -0.0183 -1.4549
  198SOL     OW  592   1.819   1.196   0.368  0.0140  0.5937  0.0761
  198SOL    HW1  593   1.858   1.215   0.279  0.1645  2.8282  0.0736
  198SOL    HW2  594   1.817   1.284   0.422  1.8752  1.7729  1.0773
  199SOL     OW  595   2.508   0.366   1.599 -0.4494 -0.0679 -0.3548
  199SOL    HW1  596   2.435   0.436   1.608  0.1670  0.6695  1.1572
  199SOL    HW2  597   2.573   0.389   1.523  1.0890  0.2606 -0.9991
  200SOL     OW  598   2.235   0.222   3.035 -0.6872  0.5403 -0.2244
  200SOL    HW1  599   2.329   0.194   3.008 -1.9354 -1.7611  0.6478
  200SOL    HW2  600   2.209   0.312   2.993 -2.8553  2.1106  2.1026
  201SOL     OW  601   2.767   0.226   1.079  0.1936  0.3327  0.0370
  201SOL    HW1  602   2.810   0.240   1.162 -1.0020 -1.2914 -4.2072
  201SOL    HW2  603   2.676   0.274   1.066  2.4502 -1.0490  2.7160
  202SOL     OW  604   3.114   2.688   0.309  0.1175  0.2667 -0.0068
  202SOL    HW1  605   0.097   2.669   0.288 -1.6991  1.6899  0.0347
  202SOL    HW2  606   3.095   2.778   0.348  1.5875 -1.5790 -2.7678
  203SOL     OW  607   1.445   1.751   0.317 -0.3881  0.4013  0.0923
  203SOL    HW1  608   1.392   1.840   0.327 -3.1455  2.1661  0.4549
  203SOL    HW2  609   1.481   1.715   0.408  0.8281 -3.0106  2.0184
  204SOL     OW  610   0.514   2.012   2.171  0.6054  0.4017 -0.4999
  204SOL    HW1  611   0.525   2.011   2.069  0.1449  1.1778 -1.3135
  204SOL    HW2  612   0.445   1.939   2.197  3.4572 -0.5588  0.8034
  205SOL     OW  613   0.907   0.613   0.810 -0.6145 -0.3384  0.0415
  205SOL    HW1  614   0.897   0.640   0.909 -0.5431 -0.0650  0.9249
  205SOL    HW2  615   0.999   0.567   0.797  1.5356  0.8029 -1.3992
  206SOL     OW  616   0.447   0.611   2.802 -0.3161  0.0312 -0.1181
  206SOL    HW1  617   0.404   0.703   2.786  1.6778  1.4155 -1.2726
  206SOL    HW2  618   0.388   0.540   2.764  3.4897  4.4424  0.4333
  207SOL     OW  619   1.346   2.485   1.539  0.1056  0.1216 -0.4417
  207SOL    HW1  620   1.435   2.519   1.578 -0.7144 -0.8899  2.1553
  207SOL    HW2  621   1.262   2.515   1.586 -1.9565  3.6692  0.0782
  208SOL     OW  622   2.986   3.079   1.525  0.0380  0.0622 -0.2254
  208SOL    HW1  623   3.054   3.009   1.495  1.4823 -0.3645 -2.3533
  208SOL    HW2  624   2.909   3.093   1.463  0.7118  0.8066  0.8478
  209SOL     OW  625   1.636   1.109   0.798  0.0566  0.3038 -0.2695
  209SOL    HW1  626   1.561   1.084   0.861  3.1615  1.7845 -3.4334
  209SOL    HW2  627   1.621   1.064   0.710 -1.3077  1.0940 -0.0290
  210SOL     OW  628   2.673   0.914   0.357  0.1809  0.3887 -0.0284
  210SOL    HW1  629   2.660   0.975   0.436  1.8368 -0.3009  0.0244
  210SOL    HW2  630   2.721   0.967   0.288 -3.2088 -0.4721  1.0686
  211SOL     OW  631   1.259   0.091   0.278  0.0082 -0.1523  0.4405
  211SOL    HW1  632   1.242   0.133   0.186 -1.2132 -0.6980 -0.0431
  211SOL    HW2  633   1.363   0.069   0.289  2.5739 -1.7682  0.5424
  212SOL     OW  634   1.879   2.221   0.680  0.5390  0.4029  0.3868
  212SOL    HW1  635   1.980   2.231   0.671 -1.6932  0.1306 -1.8023
  212SOL    HW2  636   1.839   2.229   0.587 -0.0783 -0.1734 -2.1030
  213SOL     OW  637   2.447   0.147   2.891 -0.9515  0.6564 -0.2612
  213SOL    HW1  638   2.517   0.078   2.864  0.1478  0.1467 -1.3181
  213SOL    HW2  639   2.481   0.240   2.862  1.1708  1.7010 -0.9197
  214SOL     OW  640   1.020   2.020   2.201 -0.3321 -0.3280 -1.1277
  214SOL    HW1  641   1.111   2.048   2.162  2.5160  0.9533 -0.0116
  214SOL    HW2  642   0.964   2.102   2.228 -0.8758 -0.1177  1.8636
  215SOL     OW  643   0.270   1.380   0.873 -0.2492 -0.5027  0.5867
  215SOL    HW1  644   0.248   1.468   0.917 -3.1107 -0.3341  2.2937
  215SOL    HW2  645   0.358   1.338   0.901  1.9787  0.4685 -0.2695
  216SOL     OW  646   0.169   2.246   2.697 -0.3528 -0.2463 -0.8609
  216SOL    HW1  647   0.235   2.258   2.621 -1.2730 -0.3506  1.6373
  216SOL    HW2  648   0.146   2.335   2.740  2.3426  4.2515  0.2411
  217SOL     OW  649   2.886   1.276   1.258 -0.5582 -0.3090 -0.0436
  217SOL    HW1  650   2.896   1.223   1.170 -1.8773 -1.4551  2.3859
  217SOL    HW2  651   2.851   1.214   1.332 -2.2494 -0.1380  1.3839
  218SOL     OW  652   0.922   2.360   1.970  0.0279 -0.1074 -0.1302
  218SOL    HW1  653   1.012   2.409   1.956  2.7144  1.3703  0.2191
  218SOL    HW2  654   0.922   2.311   2.060  1.6897 -0.6711  1.0579
  219SOL     OW  655   1.924   1.667   0.453  0.1578 -0.3950  0.0026
  219SOL    HW1  656   1.922   1.712   0.361 -1.4902 -1.5394 -0.5242
  219SOL    HW2  657   1.893   1.725   0.531 -0.2701  0.8304  2.8777
  220SOL     OW  658   2.051   0.804   0.399  0.2300  0.1224 -0.6915
  220SOL    HW1  659   2.038   0.899   0.441 -0.4749  4.9444 -0.2572
  220SOL    HW2  660   1.958   0.761   0.400  2.1182  1.9165  1.0314
  221SOL     OW  661   3.022   0.587   0.180  0.0764 -0.6653  0.2296
  221SOL    HW1  662   2.960   0.589   0.259  0.3370 -1.5432 -0.1055
  221SOL    HW2  663   3.110   0.550   0.208 -0.2236  1.7481 -1.0065
  222SOL     OW  664   1.505   1.618   0.575  0.6463 -0.4997 -0.0143
  222SOL    HW1  665   1.407   1.592   0.587  1.1807  2.1899 -0.9836
  222SOL    HW2  666   1.547   1.644   0.666 -1.3751  0.5012 -1.6368
  223SOL     OW  667   1.094   3.055   2.970  0.1289 -0.2288 -0.8394
  223SOL    HW1  668   1.032   3.070   2.888 -1.5968  0.2161 -1.5717
  223SOL    HW2  669   1.084   2.963   3.021  1.6231  0.5231 -3.9652
  224SOL     OW  670   0.831   3.115   1.155 -0.2748 -0.1997 -0.3423
  224SOL    HW1  671   0.773   0.084   1.149 -0.5456  0.5744 -0.3950
  224SOL    HW2  672   0.898   3.115   1.233  1.0120  1.5848  0.2633
  225SOL     OW  673   0.451   2.698   1.925 -0.2582  0.0321  0.3326
  225SOL    HW1  674   0.502   2.623   1.974 -1.6874 -0.2716 -0.2457
  225SOL    HW2  675   0.379   2.665   1.854 -0.8903  0.8338  0.8895
  226SOL     OW  676   1.442   1.518   0.152 -0.6415  0.1412  0.1593
  226SOL    HW1  677   1.437   1.586   0.229  1.4528 -1.0566  0.9047
  226SOL    HW2  678   1.452   1.421   0.186  0.1776 -0.5554 -1.6983
  227SOL     OW  679   0.416   1.806   0.816  0.5587  0.5225 -0.2245
  227SOL    HW1  680   0.437   1.899   0.785  1.8866 -0.6092  1.8706
  227SOL    HW2  681   0.498   1.745   0.815 -0.7416  1.0328 -0.2168
  228SOL     OW  682   0.066   2.025   0.644 -0.0002 -0.0897  0.6279
  228SOL    HW1  683   3.091   2.021   0.589 -0.3766 -0.5936 -3.6841
  228SOL    HW2  684   0.115   2.115   0.631 -0.4973 -0.0406  1.0816
  229SOL     OW  685   2.753   0.135   2.983  0.1363  0.7491 -0.1361
  229SOL    HW1  686   2.708   0.085   3.058 -0.2054 -0.7895 -3.2783
  229SOL    HW2  687   2.856   0.112   2.989  0.4967 -0.3483 -1.8098
  230SOL     OW  688   2.334   1.004   0.604 -0.2437 -0.1558  0.2675
  230SOL    HW1  689   2.321   1.094   0.566  0.3470 -0.6471  2.0458
  230SOL    HW2  690   2.302   0.999   0.703 -0.0641  0.2454 -1.2056
  231SOL     OW  691   1.475   1.305   2.988  0.1527  0.1615  0.2668
  231SOL    HW1  692   1.422   1.331   2.904 -2.0551  0.1328  0.0225
  231SOL    HW2  693   1.541   1.383   3.010  0.4674  0.3340  0.3502
  232SOL     OW  694   2.453   1.956   0.935 -0.5848 -0.1620  0.0803
  232SOL    HW1  695   2.405   1.883   0.884 -1.1147  0.6990  3.4039
  232SOL    HW2  696   2.551   1.942   0.951  0.7557 -0.3049 -1.1600
  233SOL     OW  697   0.391   2.822   1.192 -0.7069 -0.1195  0.1515
  233SOL    HW1  698   0.472   2.823   1.258  3.1363 -1.2211  1.3979
  233SOL    HW2  699   0.328   2.897   1.211  4.5952  2.0022  0.4257
  234SOL     OW  700   0.850   0.003   2.567  0.5761 -0.0709  0.0482
  234SOL    HW1  701   0.935   3.061   2.554  0.5978  1.1891 -1.6790
  234SOL    HW2  702   0.779   3.068   2.627 -2.8187  0.9475  1.2476
  235SOL     OW  703   2.917   0.944   2.199 -0.3259  0.5081 -0.0341
  235SOL    HW1  704   2.886   0.971   2.106 -1.2018 -1.2772  0.8659
  235SOL    HW2  705   3.010   0.897   2.202  2.2277 -0.3943  1.1978
  236SOL     OW  706   1.438   2.887   1.775  0.4447 -0.0483 -0.0863
  236SOL    HW1  707   1.438   2.985   1.802 -0.1734 -1.1217  0.7868
  236SOL    HW2  708   1.389   2.856   1.687  0.2482 -1.4941 -0.8600
  237SOL     OW  709   0.723   1.413   2.614  0.3787  0.2398  0.1279
  237SOL    HW1  710   0.698   1.385   2.519 -2.3387  2.7473 -0.1577
  237SOL    HW2  711   0.757   1.509   2.603 -0.5759 -0.3615 -1.5450
  238SOL     OW  712   1.105   0.497   2.484 -0.1435  0.3949  0.6144
  238SOL    HW1  713   1.084   0.592   2.445 -2.5229  2.4204 -3.6206
  238SOL    HW2  714   1.047   0.479   2.562  1.8222  1.1431 -1.6622
  239SOL     OW  715   0.333   2.178   1.965 -0.7575  0.2677 -0.4009
  239SOL    HW1  716   0.343   2.163   1.867 -2.9542  1.3777  0.1365
  239SOL    HW2  717   0.414   2.163   2.026  1.3630 -1.6501  1.7515
  240SOL     OW  718   2.593   3.015   0.694 -0.5431  0.0276 -0.3806
  240SOL    HW1  719   2.508   3.046   0.749 -2.6463  0.5344  0.5018
  240SOL    HW2  720   2.577   2.915   0.679 -3.1129  0.3821  1.5516
  241SOL     OW  721   0.104   0.873   0.069 -0.1870  0.1677  0.7535
  241SOL    HW1  722   0.107   0.770   0.062  1.4478  0.4123 -1.5707
  241SOL    HW2  723   0.134   0.920   3.096 -1.2704  0.3017 -2.8326
  242SOL     OW  724   1.814   2.496   1.811  0.1493  0.0753  0.0289
  242SOL    HW1  725   1.841   2.406   1.845  0.8007  0.2043  1.4554
  242SOL    HW2  726   1.873   2.528   1.734 -1.7164 -2.4971 -1.3651
  243SOL     OW  727   0.670   2.436   1.922  0.0156 -0.3184  0.1950
  243SOL    HW1  728   0.764   2.398   1.930  0.0951  0.8511  0.0516
  243SOL    HW2  729   0.615   2.422   2.009  0.7499 -1.1200  0.8238
  244SOL     OW  730   2.300   0.538   2.458  0.8109  0.1607 -0.0860
  244SOL    HW1  731   2.292   0.503   2.361  1.1323  2.0801  0.6004
  244SOL    HW2  732   2.294   0.639   2.447 -1.6655 -0.3294  0.8993
  245SOL     OW  733   1.480   2.968   1.204 -0.2840 -0.0684  0.5257
  245SOL    HW1  734   1.574   2.990   1.247  0.3644 -0.5390  2.2565
  245SOL    HW2  735   1.487   2.985   1.099  1.0642  0.0213 -1.0747
  246SOL     OW  736   1.619   2.888   0.579  0.2058  0.0093 -0.3704
  246SOL    HW1  737   1.612   2.931   0.487 -0.2341  1.2872 -0.8226
  246SOL    HW2  738   1.533   2.837   0.599  0.6134 -0.0111 -1.8209
  247SOL     OW  739   1.775   0.584   1.968 -0.6177  0.1013 -0.2734
  247SOL    HW1  740   1.714   0.506   1.948  0.2257  0.4882  2.0729
  247SOL    HW2  741   1.845   0.602   1.895 -1.5806 -1.0348  1.9259
  248SOL     OW  742   3.035   2.015   1.839  0.0945 -0.0696  0.2815
  248SOL    HW1  743   3.044   2.032   1.938 -0.4493 -1.4318 -1.6109
  248SOL    HW2  744   0.007   1.968   1.800  1.1060  1.1182 -1.1634
  249SOL     OW  745   3.005   0.271   0.313  0.0690  0.0015 -0.4922
  249SOL    HW1  746   2.976   0.357   0.360 -0.3808 -0.3376 -2.4678
  249SOL    HW2  747   3.090   0.285   0.259 -1.0632  0.2751  0.2311
  250SOL     OW  748   2.676   0.065   2.603  0.5649  0.1502  0.0188
  250SOL    HW1  749   2.640   0.015   2.684 -1.7042  0.0988 -0.0535
  250SOL    HW2  750   2.606   0.069   2.528  1.3602 -1.5164  1.3569
  251SOL     OW  751   1.379   0.661   0.076  0.6878  0.1466 -0.4163
  251SOL    HW1  752   1.318   0.598   0.021 -1.0902  0.8072  1.1775
  251SOL    HW2  753   1.474   0.628   0.064  0.1323 -0.0718  0.5363
  252SOL     OW  754   1.238   2.551   2.125 -0.0119  0.3234 -0.0631
  252SOL    HW1  755   1.282   2.489   2.187 -1.7099  0.7826 -1.7976
  252SOL    HW2  756   1.306   2.585   2.060 -3.3621 -2.6674 -1.1581
  253SOL     OW  757   2.106   2.663   0.968  0.2353 -0.3843 -0.5399
  253SOL    HW1  758   2.165   2.692   0.889 -0.7672 -0.2081  1.5188
  253SOL    HW2  759   2.010   2.651   0.942 -1.6742 -0.2357  0.7626
  254SOL     OW  760   2.395   1.389   1.161 -0.3025 -0.1102  0.2942
  254SOL    HW1  761   2.406   1.383   1.057  0.4870 -1.2660  0.4394
  254SOL    HW2  762   2.431   1.299   1.200 -1.6179 -5.1617  1.0209
  255SOL     OW  763   0.745   2.866   1.114 -0.1584 -0.6433  0.1236
  255SOL    HW1  764   0.809   2.942   1.132  0.8499  0.8126 -0.2747
  255SOL    HW2  765   0.802   2.785   1.075  3.4589 -1.7618 -2.6394
  256SOL     OW  766   2.243   2.147   1.528 -0.5835  0.2457 -0.0817
  256SOL    HW1  767   2.220   2.049   1.531  0.5570 -2.2141 -1.4513
  256SOL    HW2  768   2.346   2.171   1.524  1.1354  0.9291  1.1230
  257SOL     OW  769   0.339   2.320   2.487 -0.0509  0.3165 -0.3888
  257SOL    HW1  770   0.418   2.284   2.432 -1.6740 -2.2501 -0.0261
  257SOL    HW2  771   0.372   2.364   2.575  1.9484 -0.3832  2.0288
  258SOL     OW  772   0.658   2.831   0.843 -0.1884  0.6512 -0.0129
  258SOL    HW1  773   0.656   2.841   0.946  2.1643  0.3148  0.4820
  258SOL    HW2  774   0.585   2.886   0.793 -1.7212  0.6633  0.6514
  259SOL     OW  775   1.423   0.487   2.761 -0.3497 -0.2861  0.1185
  259SOL    HW1  776   1.392   0.415   2.827  1.8849 -0.7814  1.8722
  259SOL    HW2  777   1.403   0.584   2.786  2.5303 -0.8729  0.0505
  260SOL     OW  778   0.084   0.993   1.167 -0.0795 -0.2159  0.0003
  260SOL    HW1  779   0.128   1.039   1.245  1.0860 -0.8559 -2.3284
  260SOL    HW2  780   0.154   0.972   1.096 -0.4792 -5.0027 -2.4580
  261SOL     OW  781   0.565   0.172   2.241  0.3774 -0.1805 -0.3229
  261SOL    HW1  782   0.589   0.228   2.163  0.8645 -1.5271  2.5344
  261SOL    HW2  783   0.639   0.109   2.270  0.0907  1.3218  1.9397
  262SOL     OW  784   0.985   2.640   2.099  0.1832  0.0026  0.0159
  262SOL    HW1  785   0.965   2.627   2.002 -1.0742 -0.2900  2.0893
  262SOL    HW2  786   1.082   2.621   2.123 -1.0986  2.9720 -1.7163
  263SOL     OW  787   0.710   2.282   0.036  0.0050  0.2510 -0.0831
  263SOL    HW1  788   0.796   2.233   0.055  0.4488 -2.8637  1.0076
  263SOL    HW2  789   0.634   2.242   0.097  1.0954 -1.6184 -2.5511
  264SOL     OW  790   1.088   1.505   1.107  0.2416  0.2576 -0.2464
  264SOL    HW1  791   1.166   1.523   1.164  0.2074 -1.6800  0.4559
  264SOL    HW2  792   1.018   1.464   1.160  2.8000 -0.9485 -0.2198
  265SOL     OW  793   1.041   2.377   0.555 -0.5243  0.0603  0.6773
  265SOL    HW1  794   1.056   2.307   0.631 -1.3686 -2.1937 -0.5491
  265SOL    HW2  795   1.043   2.470   0.590 -2.7454 -0.5416 -0.7096
  266SOL     OW  796   2.616   1.058   1.076 -0.1060 -0.2695 -0.4804
  266SOL    HW1  797   2.546   0.992   1.041  1.2543  1.5694 -1.6736
  266SOL    HW2  798   2.709   1.016   1.082  1.6364 -0.7219  1.0568
  267SOL     OW  799   2.961   1.369   2.896  0.0603  0.3848  0.7478
  267SOL    HW1  800   3.022   1.331   2.968  1.7743  1.2308  2.7404
  267SOL    HW2  801   3.020   1.385   2.810  0.5974  0.0735 -3.7076
  268SOL     OW  802   1.527   0.069   0.328 -0.0637 -0.6597 -0.1128
  268SOL    HW1  803   1.586   3.105   0.316 -1.2444  1.1555 -1.3423
  268SOL    HW2  804   1.581   0.152   0.343 -0.2803  0.8929 -1.1085
  269SOL     OW  805   2.962   0.703   2.409  0.4424 -0.3064  0.5798
  269SOL    HW1  806   2.878   0.725   2.352  0.4032  0.2027 -0.0069
  269SOL    HW2  807   3.029   0.783   2.399  3.0085 -0.1739 -0.4345
  270SOL     OW  808   3.115   1.254   3.075 -0.8240  0.1216  0.3216
  270SOL    HW1  809   3.074   1.188   0.026  1.4960 -0.6207  1.4086
  270SOL    HW2  810   0.050   1.204   3.001 -4.2539  1.5964  1.0345
  271SOL     OW  811   2.789   1.615   2.503 -0.4478  0.5976  0.3499
  271SOL    HW1  812   2.764   1.629   2.600  2.1085  0.1144 -2.2276
  271SOL    HW2  813   2.850   1.694   2.478 -1.3314  1.4260  0.2865
  272SOL     OW  814   2.487   2.648   1.819 -0.1863  0.3650 -0.5508
  272SOL    HW1  815   2.565   2.588   1.798  0.5215 -0.5542  0.8876
  272SOL    HW2  816   2.452   2.623   1.913  0.0335  1.6097  0.8851
  273SOL     OW  817   0.258   2.560   0.265  0.1145 -0.0670 -0.2851
  273SOL    HW1  818   0.288   2.564   0.364  1.8890  1.8899  1.4395
  273SOL    HW2  819   0.337   2.591   0.203  1.1645 -1.6177 -3.2841
  274SOL     OW  820   0.909   2.415   0.916 -0.0984  0.5078 -0.2915
  274SOL    HW1  821   0.834   2.415   0.846  0.1908  0.6853 -0.7173
  274SOL    HW2  822   0.912   2.330   0.970  0.2107  1.1906 -0.9063
  275SOL     OW  823   2.066   1.761   3.049  0.3434  0.0800  0.6372
  275SOL    HW1  824   2.107   1.737   0.025 -0.2260  1.0969 -0.6717
  275SOL    HW2  825   2.078   1.858   3.019  2.7002 -1.1626 -1.1895
  276SOL     OW  826   2.464   1.248   1.786 -0.6736 -0.2178  0.0639
  276SOL    HW1  827   2.397   1.238   1.864 -2.1476  0.3899 -1.5232
  276SOL    HW2  828   2.560   1.247   1.825  0.5392  1.2203  2.6265
  277SOL     OW  829   2.527   0.332   1.008  0.1767 -0.1542 -0.1033
  277SOL    HW1  830   2.503   0.329   0.909  1.9496 -0.1318 -0.5671
  277SOL    HW2  831   2.443   0.351   1.068 -4.3368  0.0330  1.0807
  278SOL     OW  832   1.806   0.411   2.538 -0.2148 -0.3083 -0.2395
  278SOL    HW1  833   1.783   0.480   2.614  0.6589 -0.4785  1.2298
  278SOL    HW2  834   1.911   0.399   2.533  1.3126 -0.9307  0.3635
  279SOL     OW  835   1.058   3.064   0.983 -0.2743 -0.6061  0.9823
  279SOL    HW1  836   1.091   2.994   1.046  0.2961  2.3579  0.8146
  279SOL    HW2  837   1.017   0.031   1.031  0.0247 -2.4641 -1.8257
  280SOL     OW  838   1.133   1.072   0.286 -0.6539 -0.4166  0.0960
  280SOL    HW1  839   1.231   1.102   0.289  3.7252  1.7692 -3.9450
  280SOL    HW2  840   1.131   1.002   0.213  2.0729 -0.4469 -1.3842
  281SOL     OW  841   2.345   1.524   0.261  0.0027 -0.3737  0.2541
  281SOL    HW1  842   2.443   1.525   0.297  1.0405  0.8558 -1.4917
  281SOL    HW2  843   2.332   1.458   0.184  0.9546 -0.6001 -3.7291
  282SOL     OW  844   2.716   1.324   0.129  0.3579  0.5826 -0.1131
  282SOL    HW1  845   2.663   1.311   0.217 -1.1201  1.5689 -0.5078
  282SOL    HW2  846   2.801   1.373   0.147 -1.1278 -1.6769 -1.9431
  283SOL     OW  847   1.707   2.787   2.725  0.7438 -0.2651 -0.1593
  283SOL    HW1  848   1.662   2.790   2.633 -0.7904  3.3693  1.1114
  283SOL    HW2  849   1.775   2.866   2.726 -1.4500 -1.5963  1.8864
  284SOL     OW  850   0.743   0.038   3.105  0.4005 -0.2723 -0.0141
  284SOL    HW1  851   0.751   0.127   3.055  0.1379  0.1989  0.5381
  284SOL    HW2  852   0.826   0.007   0.041  0.4276  0.0978  1.6369
  285SOL     OW  853   1.971   1.964   2.714  0.1389  0.5098 -0.4155
  285SOL    HW1  854   2.057   1.945   2.665 -0.9558  0.9226 -0.8153
  285SOL    HW2  855   1.908   2.017   2.653  2.0075 -1.3709 -1.5628
  286SOL     OW  856   1.401   1.642   0.964 -0.2057 -0.0631  0.5048
  286SOL    HW1  857   1.420   1.727   0.912  3.0593 -2.2186  1.1278
  286SOL    HW2  858   1.432   1.559   0.912 -0.4648 -0.4792  1.7161
  287SOL     OW  859   1.680   0.052   1.449  0.1810  0.1946  0.2251
  287SOL    HW1  860   1.729   0.078   1.534 -1.5447  0.8667 -3.6987
  287SOL    HW2  861   1.585   0.030   1.481  2.5331  1.0480 -2.1050
  288SOL     OW  862   0.620   2.661   2.339 -0.2411 -0.1459 -0.2282
  288SOL    HW1  863   0.610   2.763   2.329  0.3804 -2.0823  0.9006
  288SOL    HW2  864   0.536   2.617   2.297 -4.2068 -0.2516 -0.5547
  289SOL     OW  865   0.268   1.307   0.600 -0.3057 -0.2048 -0.0513
  289SOL    HW1  866   0.178   1.259   0.590  1.0660  0.2785  2.9421
  289SOL    HW2  867   0.273   1.350   0.693 -2.3830 -0.6890 -0.5561
  290SOL     OW  868   1.093   1.891   1.628  0.3050  0.0884 -0.4622
  290SOL    HW1  869   1.062   1.905   1.534 -1.1228  1.1225  2.3299
  290SOL    HW2  870   1.140   1.978   1.658 -0.7261 -2.1251 -0.0017
  291SOL     OW  871   1.987   0.128   0.613  0.6393 -0.1338  0.3717
  291SOL    HW1  872   1.924   0.111   0.691  0.9519 -1.3755 -0.9771
  291SOL    HW2  873   1.941   0.111   0.523  1.0226  0.9612  1.0054
  292SOL     OW  874   0.315   0.403   1.444  0.0325 -0.3686 -0.6571
  292SOL    HW1  875   0.217   0.409   1.415  1.5579 -0.6584  0.0325
  292SOL    HW2  876   0.323   0.443   1.535 -2.0056 -0.7957 -2.3268
  293SOL     OW  877   2.326   1.765   0.785 -0.2044  0.4003 -0.5062
  293SOL    HW1  878   2.419   1.745   0.748 -2.8018  0.5548  0.6298
  293SOL    HW2  879   2.269   1.682   0.771  0.9228 -1.0561 -0.8258
  294SOL     OW  880   0.233   0.216   2.186  0.2337 -0.0670  0.0810
  294SOL    HW1  881   0.155   0.179   2.137  2.0582 -0.4344 -0.7352
  294SOL    HW2  882   0.323   0.175   2.167  0.0880 -1.5065  0.1050
  295SOL     OW  883   0.946   1.293   0.412 -0.4320  0.2826 -0.1235
  295SOL    HW1  884   0.968   1.197   0.393  3.4498  0.0194  0.1716
  295SOL    HW2  885   0.855   1.319   0.379  2.6790 -0.8519 -0.1975
  296SOL     OW  886   2.053   1.981   1.091  0.4727 -0.2426  0.2348
  296SOL    HW1  887   2.091   1.889   1.064  1.9378  0.5336 -0.4709
  296SOL    HW2  888   2.117   2.026   1.160 -0.6906 -0.5882  2.4739
  297SOL     OW  889   1.894   0.471   2.956 -0.4821  0.0514 -0.3768
  297SOL    HW1  890   1.991   0.505   2.963  0.7376 -0.0366  0.8880
  297SOL    HW2  891   1.839   0.494   2.870 -0.0019 -0.2415 -1.0428
  298SOL     OW  892   1.513   3.082   2.782 -0.3321  0.2117  0.6007
  298SOL    HW1  893   1.498   2.987   2.822 -1.1639 -2.3381  1.3504
  298SOL    HW2  894   1.546   0.024   2.857 -1.0066 -0.9492 -0.6677
  299SOL     OW  895   0.978   0.131   2.100  0.3241  0.0543  0.2332
  299SOL    HW1  896   1.006   0.164   2.195 -0.0134 -0.2911  2.8299
  299SOL    HW2  897   1.060   0.086   2.060 -0.4641  0.0464  0.9977
  300SOL     OW  898   2.526   0.094   1.514 -0.1049  0.3378  0.1643
  300SOL    HW1  899   2.540   0.033   1.591 -1.7584  0.5524 -0.5785
  300SOL    HW2  900   2.508   0.192   1.539  1.4179 -0.9054 -3.3078
  301SOL     OW  901   2.137   0.838   1.836 -0.0909 -0.2756 -0.2321
  301SOL    HW1  902   2.227   0.857   1.781  3.1129 -0.2109 -1.0094
  301SOL    HW2  903   2.072   0.792   1.775  1.6955 -0.2532 -0.8145
  302SOL     OW  904   0.677   2.898   0.188  0.1625 -0.7723  0.0093
  302SOL    HW1  905   0.637   2.988   0.226 -0.8217 -0.5881 -0.8249
  302SOL    HW2  906   0.685   2.833   0.263  2.9345  1.1200 -1.0740
  303SOL     OW  907   1.837   1.905   2.002  0.2958  0.0129 -0.2835
  303SOL    HW1  908   1.884   1.885   1.913 -0.0623  0.0590 -1.4851
  303SOL    HW2  909   1.759   1.967   1.984  1.5119  1.7234 -1.5018
  304SOL     OW  910   0.364   0.318   0.814 -0.3090 -0.2506 -0.7628
  304SOL    HW1  911   0.436   0.251   0.809  0.2014  2.4686  0.9990
  304SOL    HW2  912   0.395   0.407   0.778 -3.2846  1.7130 -1.4032
  305SOL     OW  913   0.784   0.950   0.527  0.0681  0.2242 -0.4266
  305SOL    HW1  914   0.780   0.941   0.429 -0.3685 -2.5804 -1.8563
  305SOL    HW2  915   0.730   0.880   0.575  1.6537  0.6362 -1.7442
  306SOL     OW  916   0.471   1.353   3.055 -0.2622  0.0687 -0.3764
  306SOL    HW1  917   0.553   1.317   3.096 -1.0710 -0.4366  0.8007
  306SOL    HW2  918   0.405   1.377   0.009  1.0937  0.3912 -1.6102
  307SOL     OW  919   0.804   0.332   2.017 -0.3396  0.5780 -0.2894
  307SOL    HW1  920   0.803   0.313   1.917  1.1153 -1.4577 -1.7645
  307SOL    HW2  921   0.859   0.262   2.064 -0.5366 -3.3961  1.6048
  308SOL     OW  922   0.756   0.325   0.832  0.2982 -0.1638  0.1550
  308SOL    HW1  923   0.727   0.394   0.903 -0.5524 -1.4236 -0.5343
  308SOL    HW2  924   0.816   0.365   0.754  3.0946 -0.4455 -1.2947
  309SOL     OW  925   2.234   1.217   0.467 -0.0510  0.1025 -0.7325
  309SOL    HW1  926   2.196   1.308   0.470 -0.6683 -1.7959 -0.2028
  309SOL    HW2  927   2.231   1.183   0.369 -1.6320 -3.4436  2.5006
  310SOL     OW  928   0.853   1.308   3.081 -0.0802  0.3543 -0.0051
  310SOL    HW1  929   0.952   1.338   3.065 -1.9234 -2.3237 -1.8580
  310SOL    HW2  930   0.797   1.377   0.014  1.1145  0.4271  1.4858
  311SOL     OW  931   2.058   2.634   2.191  0.4386 -0.2349 -0.4762
  311SOL    HW1  932   2.051   2.560   2.124 -0.4713  2.8886 -0.5221
  311SOL    HW2  933   1.965   2.685   2.195 -1.8026 -0.3852 -0.3349
  312SOL     OW  934   2.372   2.942   3.090 -0.3517 -0.3443  0.2088
  312SOL    HW1  935   2.281   2.985   3.115  2.3252  0.7319  2.4108
  312SOL    HW2  936   2.396   2.989   3.005  2.1867  0.2455 -1.0311
  313SOL     OW  937   0.673   0.479   2.960 -0.0290 -0.2927 -0.0560
  313SOL    HW1  938   0.710   0.550   3.027  2.2326 -1.6924  1.1130
  313SOL    HW2  939   0.587   0.505   2.914  1.4364 -3.2577 -0.3403
  314SOL     OW  940   2.629   1.384   2.778  0.0297  0.0695  0.0445
  314SOL    HW1  941   2.595   1.384   2.873 -0.9664 -0.5841  0.7785
  314SOL    HW2  942   2.647   1.484   2.761  0.1187  0.0557  0.9603
  315SOL     OW  943   1.690   0.754   2.157 -0.5904 -0.3807 -0.4787
  315SOL    HW1  944   1.729   0.682   2.098 -0.9116 -0.9126  1.2653
  315SOL    HW2  945   1.712   0.744   2.254 -2.2340 -1.1843  0.0403
  316SOL     OW  946   2.870   1.098   0.511 -0.2854  0.2695  0.0474
  316SOL    HW1  947   2.780   1.135   0.495  1.1848 -1.6719 -1.3589
  316SOL    HW2  948   2.870   1.011   0.566  0.4141 -2.1652  0.5426
  317SOL     OW  949   0.560   0.018   0.267 -0.5280  0.2819  0.0810
  317SOL    HW1  950   0.590   0.074   0.188 -1.4783 -0.6281  3.3852
  317SOL    HW2  951   0.609   0.043   0.354  0.8834  0.6131  0.1148
  318SOL     OW  952   1.760   2.710   1.316  0.7302 -0.3469  0.6322
  318SOL    HW1  953   1.711   2.739   1.402  2.1556  0.5096 -4.1173
  318SOL    HW2  954   1.743   2.611   1.296  2.2045 -0.4630 -0.8146
  319SOL     OW  955   1.106   1.485   0.371 -0.3863  0.1767 -0.0816
  319SOL    HW1  956   1.052   1.397   0.385 -2.0871 -1.2543 -0.0814
  319SOL    HW2  957   1.133   1.496   0.277  0.2491 -0.9787 -0.6623
  320SOL     OW  958   0.579   2.083   1.025  0.3285 -0.5893  0.4178
  320SOL    HW1  959   0.535   2.017   1.085  3.5049 -0.4116 -0.9332
  320SOL    HW2  960   0.640   2.142   1.079  2.1361 -1.2564 -1.4164
  321SOL     OW  961   2.447   2.645   2.092  0.0764 -0.1918 -0.0737
  321SOL    HW1  962   2.434   2.556   2.140 -1.3114  0.9864  3.1384
  321SOL    HW2  963   2.367   2.704   2.097  1.4294  0.0115  1.3991
  322SOL     OW  964   2.465   2.393   2.272 -0.4152  0.0475  0.2386
  322SOL    HW1  965   2.525   2.333   2.333  1.1667  2.6706  0.5086
  322SOL    HW2  966   2.431   2.472   2.323  1.1491 -1.0359 -0.7063
  323SOL     OW  967   2.449   0.889   0.965  0.2244 -0.0832  0.0518
  323SOL    HW1  968   2.364   0.936   0.923  0.0767  0.2350 -0.9744
  323SOL    HW2  969   2.499   0.834   0.896 -1.5724 -2.3520  3.0317
  324SOL     OW  970   2.270   2.278   2.107 -0.7560 -0.6519  0.1425
  324SOL    HW1  971   2.349   2.306   2.170  2.1957 -0.7025  2.3877
  324SOL    HW2  972   2.304   2.229   2.022 -2.3431 -2.9049 -2.7706
  325SOL     OW  973   1.352   0.353   2.511  0.2356  0.5246  0.3894
  325SOL    HW1  974   1.260   0.393   2.500  0.0567 -1.5395  0.5196
  325SOL    HW2  975   1.382   0.366   2.606 -1.5813  2.8894 -1.9975
  326SOL     OW  976   2.554   2.517   1.039  0.1667  0.2629 -0.1317
  326SOL    HW1  977   2.612   2.599   1.020  0.3284 -0.0141  2.8461
  326SOL    HW2  978   2.460   2.521   1.001 -0.7788  1.0832 -1.7667
  327SOL     OW  979   2.563   2.892   0.183  0.5706 -0.5768 -0.5278
  327SOL    HW1  980   2.472   2.884   0.135  0.1626  1.3849  1.3358
  327SOL    HW2  981   2.570   2.988   0.214  1.2592  2.6566 -0.5756
  328SOL     OW  982   0.701   0.616   0.615 -0.5163 -0.4518  0.1748
  328SOL    HW1  983   0.786   0.599   0.668 -0.4816  0.3096 -1.0684
  328SOL    HW2  984   0.620   0.597   0.675 -3.1894  2.3726 -1.3472
  329SOL     OW  985   1.889   0.665   1.283 -0.0641 -0.4824  0.5567
  329SOL    HW1  986   1.846   0.742   1.232 -3.8726  2.5835  1.3599
  329SOL    HW2  987   1.991   0.656   1.275 -0.1801 -0.2371  1.1701
  330SOL     OW  988   0.737   0.621   0.342 -0.6546  0.1783  0.2361
  330SOL    HW1  989   0.832   0.649   0.329 -1.2426 -1.2903 -2.5576
  330SOL    HW2  990   0.723   0.624   0.444  0.0334  0.5449  1.0913
  331SOL     OW  991   0.789   1.824   1.937 -0.5957  0.0757 -0.1438
  331SOL    HW1  992   0.867   1.785   1.987 -2.1007 -0.3842 -0.8204
  331SOL    HW2  993   0.811   1.813   1.836 -0.3332  0.3279 -0.0563
  332SOL     OW  994   2.085   2.446   1.986 -0.4894  0.4303  0.1757
  332SOL    HW1  995   2.160   2.382   2.014 -1.9933 -1.2495 -1.0273
  332SOL    HW2  996   2.111   2.514   1.911  0.4477  0.9203  3.5999
  333SOL     OW  997   0.023   0.075   1.146 -0.0601 -0.1396  0.4294
  333SOL    HW1  998   3.084   0.062   1.228  2.6971  0.4354 -2.6841
  333SOL    HW2  999   0.031   3.111   1.089 -2.0586  0.0090  1.6901
  334SOL     OW 1000   3.001   1.717   0.737  0.1437  0.1725 -0.0353
  334SOL    HW1 1001   2.942   1.713   0.652  0.9674  2.3152 -1.0402
  334SOL    HW2 1002   3.096   1.704   0.708  1.3958  0.4503 -1.4591
  335SOL     OW 1003   0.409   2.480   2.752 -0.3526 -0.2038 -0.5585
  335SOL    HW1 1004   0.441   2.471   2.845 -0.5239  0.3886 -1.2637
  335SOL    HW2 1005   0.313   2.504   2.746  3.9922  0.8523  0.9261
  336SOL     OW 1006   0.121   2.753   2.116  0.0894 -0.1285  0.0313
  336SOL    HW1 1007   0.055   2.770   2.196 -1.0049  0.0453 -0.3825
  336SOL    HW2 1008   0.126   2.832   2.052  1.1726 -0.4780  1.4992
  337SOL     OW 1009   1.237   2.110   1.781  0.1911  0.3454 -0.4262
  337SOL    HW1 1010   1.282   2.168   1.710  1.1909  1.8318  1.9201
  337SOL    HW2 1011   1.312   2.064   1.842  4.0849 -2.9504 -0.3031
  338SOL     OW 1012   1.187   0.058   2.483 -0.5825 -0.4709  0.1974
  338SOL    HW1 1013   1.147   3.087   2.510 -0.0840  2.9407 -2.1145
  338SOL    HW2 1014   1.280   0.052   2.449  2.3003  0.3494  2.5925
  339SOL     OW 1015   0.223   0.729   2.551  0.2028  0.7674  0.0379
  339SOL    HW1 1016   0.168   0.779   2.483  1.2891  0.6257  3.6921
  339SOL    HW2 1017   0.275   0.783   2.620 -1.8904  1.3896 -1.0195
  340SOL     OW 1018   2.138   0.581   1.423  0.5058 -0.3800 -0.5436
  340SOL    HW1 1019   2.203   0.637   1.367 -1.3811 -1.6975  1.7271
  340SOL    HW2 1020   2.133   0.486   1.375  0.6344 -1.6975  1.5190
  341SOL     OW 1021   2.083   1.401   1.333 -0.1158 -0.1569  0.0178
  341SOL    HW1 1022   2.159   1.434   1.390 -0.0721 -0.4662  0.7006
  341SOL    HW2 1023   2.112   1.365   1.240  1.6815  0.1172  1.1307
  342SOL     OW 1024   2.117   2.776   2.803  0.4897  0.5225  0.0262
  342SOL    HW1 1025   2.035   2.839   2.799 -0.6451  1.2658  0.8533
  342SOL    HW2 1026   2.116   2.726   2.892  0.4914  2.8665 -0.9697
  343SOL     OW 1027   3.087   2.534   1.112 -0.6936  0.1868 -0.1461
  343SOL    HW1 1028   0.069   2.502   1.120  2.7773  0.7072 -0.3537
  343SOL    HW2 1029   3.077   2.621   1.170 -0.2091  2.2655  2.9514
  344SOL     OW 1030   2.254   3.101   1.099 -0.5056 -0.2312  0.0924
  344SOL    HW1 1031   2.267   0.024   1.191  2.5344 -1.2024  0.3069
  344SOL    HW2 1032   2.158   3.076   1.079  1.2721 -2.2289  0.1713
  345SOL     OW 1033   2.551   2.180   0.386 -0.5572 -0.2138 -0.3286
  345SOL    HW1 1034   2.583   2.214   0.296 -2.3574  0.4083 -1.4758
  345SOL    HW2 1035   2.460   2.222   0.409 -0.8465  1.6805  0.8037
  346SOL     OW 1036   1.622   2.104   1.668 -0.4220  0.7880  0.8516
  346SOL    HW1 1037   1.621   2.105   1.769  1.3643 -1.5483  1.7841
  346SOL    HW2 1038   1.544   2.148   1.616  0.6519 -0.1308 -3.7352
  347SOL     OW 1039   1.354   1.587   1.225 -0.7725  0.4986 -0.7309
  347SOL    HW1 1040   1.409   1.664   1.270  0.2363 -1.4908  1.2870
  347SOL    HW2 1041   1.377   1.570   1.125 -0.7854  0.4165 -2.7057
  348SOL     OW 1042   0.552   1.754   1.752 -0.8688  0.3941  0.3239
  348SOL    HW1 1043   0.604   1.817   1.813 -1.4277 -0.6368  1.9419
  348SOL    HW2 1044   0.614   1.716   1.681 -2.0567  1.1094  0.1564
  349SOL     OW 1045   1.553   1.548   1.508 -0.5708  0.1079 -0.4566
  349SOL    HW1 1046   1.540   1.527   1.608 -0.8001 -2.5266 -2.5057
  349SOL    HW2 1047   1.582   1.648   1.494  0.5092  2.1408  0.1370
  350SOL     OW 1048   2.330   2.297   0.486  0.0818 -0.0975 -0.0474
  350SOL    HW1 1049   2.397   2.353   0.540  2.4735 -0.4595 -1.4796
  350SOL    HW2 1050   2.264   2.365   0.451  0.4325  1.8349 -0.9319
  351SOL     OW 1051   0.336   2.983   1.668  0.0095 -0.5641  0.0771
  351SOL    HW1 1052   0.309   2.893   1.635 -0.3913 -2.1910  0.5236
  351SOL    HW2 1053   0.315   3.061   1.606 -0.3576  0.3239  0.2025
  352SOL     OW 1054   0.675   1.115   0.698 -0.1129  0.2372  0.2291
  352SOL    HW1 1055   0.745   1.166   0.758 -2.9945 -1.1954 -0.8212
  352SOL    HW2 1056   0.728   1.072   0.618  1.7374  3.5597 -1.2807
  353SOL     OW 1057   1.168   1.849   2.778 -0.2651 -0.2254  0.6166
  353SOL    HW1 1058   1.080   1.897   2.799  0.2550  0.3320 -2.8190
  353SOL    HW2 1059   1.153   1.748   2.770  1.1475  3.2291  1.0692
  354SOL     OW 1060   1.898   2.758   1.909 -0.1328 -0.4774 -0.1571
  354SOL    HW1 1061   1.853   2.765   2.006 -0.1084  0.3241  2.6234
  354SOL    HW2 1062   1.905   2.663   1.877  1.6902 -0.0853  0.4326
  355SOL     OW 1063   2.237   1.136   0.190 -0.2800  0.1213  0.4283
  355SOL    HW1 1064   2.289   1.214   0.141 -0.5546  2.3712  0.1340
  355SOL    HW2 1065   2.136   1.149   0.174 -0.3724 -1.2493  2.3462
  356SOL     OW 1066   0.199   2.172   1.039 -0.1615 -0.0221  0.5139
  356SOL    HW1 1067   0.114   2.122   1.069 -2.6430 -0.6648  0.6569
  356SOL    HW2 1068   0.271   2.134   1.098  2.0972  1.7856  1.7778
  357SOL     OW 1069   3.018   2.978   1.787  0.0655  0.1893  0.1886
  357SOL    HW1 1070   3.016   2.872   1.786  0.9990 -2.7378 -0.6833
  357SOL    HW2 1071   3.026   3.014   1.693 -1.4017  1.6787 -2.5404
  358SOL     OW 1072   2.409   1.748   1.682 -0.3399 -0.0462  0.4018
  358SOL    HW1 1073   2.451   1.798   1.598  0.6297  0.7947 -1.8574
  358SOL    HW2 1074   2.408   1.646   1.665 -2.2299 -5.8105  0.0144
  359SOL     OW 1075   2.163   2.823   2.532  0.2113  0.1407  0.4857
  359SOL    HW1 1076   2.133   2.816   2.628  0.6046 -0.8863 -1.3652
  359SOL    HW2 1077   2.181   2.734   2.488 -0.8047 -0.0516 -1.5107
  360SOL     OW 1078   0.947   2.854   0.839  0.2897  0.1733 -0.3968
  360SOL    HW1 1079   0.852   2.871   0.812  0.3920  0.0033 -0.4363
  360SOL    HW2 1080   0.986   2.926   0.902  3.2989  2.8825 -1.2945
  361SOL     OW 1081   1.854   0.428   0.540 -0.3173 -0.2475 -0.1557
  361SOL    HW1 1082   1.942   0.376   0.532  2.5389 -0.5910  0.3297
  361SOL    HW2 1083   1.835   0.451   0.643 -3.1595  1.3185  2.2501
  362SOL     OW 1084   1.442   0.720   1.372  0.2958 -0.0670 -0.2103
  362SOL    HW1 1085   1.443   0.779   1.293 -1.3973 -1.4869 -2.2447
  362SOL    HW2 1086   1.350   0.733   1.415  1.9847  0.9237  3.7969
  363SOL     OW 1087   1.935   1.538   2.275 -0.3323 -0.4286  0.0086
  363SOL    HW1 1088   1.947   1.465   2.346  0.6594  0.6535  1.1409
  363SOL    HW2 1089   2.024   1.575   2.240 -0.8827 -0.8299 -0.8130
  364SOL     OW 1090   0.516   0.814   1.288  0.1304  0.4369 -0.0287
  364SOL    HW1 1091   0.432   0.798   1.229 -0.9938  0.6966 -0.2966
  364SOL    HW2 1092   0.596   0.761   1.247  2.0473 -2.1454 -1.8575
  365SOL     OW 1093   0.464   0.260   2.484 -0.0511 -0.2336 -0.0745
  365SOL    HW1 1094   0.415   0.347   2.481  1.3554 -1.2252  0.1899
  365SOL    HW2 1095   0.497   0.234   2.392 -0.6617  3.6555  2.2334
  366SOL     OW 1096   2.209   1.937   2.625  0.1452  0.5095  0.1050
  366SOL    HW1 1097   2.299   1.883   2.652  4.3041 -2.4778 -2.0579
  366SOL    HW2 1098   2.236   2.033   2.596  2.6542  0.5946 -1.1774
  367SOL     OW 1099   2.669   2.479   0.042 -0.1145  0.4118  0.5637
  367SOL    HW1 1100   2.770   2.487   0.053 -0.0317 -2.2576 -0.5637
  367SOL    HW2 1101   2.641   2.519   3.072 -1.6337 -0.7147  4.0843
  368SOL     OW 1102   0.010   1.630   0.978  0.0517 -0.2343 -0.0778
  368SOL    HW1 1103   0.004   1.528   0.967 -0.5904 -0.4202  0.9009
  368SOL    HW2 1104   3.092   1.681   0.895  1.3475 -0.1428 -1.3412
  369SOL     OW 1105   0.592   2.937   2.412 -0.0684 -0.6245  0.0483
  369SOL    HW1 1106   0.621   2.957   2.508  0.2767  0.7660  1.2083
  369SOL    HW2 1107   0.649   2.990   2.347 -2.2354 -0.5199  2.7961
  370SOL     OW 1108   2.869   0.258   0.634  0.0762  0.5291 -0.0118
  370SOL    HW1 1109   2.907   0.338   0.580  0.8167 -1.9209 -1.3322
  370SOL    HW2 1110   2.772   0.243   0.601 -1.2280 -1.3787 -1.3029
  371SOL     OW 1111   1.368   2.207   1.569  0.2989 -0.1521  0.9021
  371SOL    HW1 1112   1.340   2.159   1.482 -1.2509 -0.9839  2.5109
  371SOL    HW2 1113   1.361   2.309   1.562  4.4743 -0.4698  0.7788
  372SOL     OW 1114   2.940   0.445   2.327 -0.6440  0.2219 -0.6493
  372SOL    HW1 1115   2.954   0.346   2.344  1.6678 -1.4734 -1.3813
  372SOL    HW2 1116   2.948   0.505   2.415  0.5965 -0.7276  2.9731
  373SOL     OW 1117   0.180   2.293   0.628 -0.3817  0.5479 -0.8925
  373SOL    HW1 1118   0.245   2.292   0.710  0.2069 -3.0679 -0.5494
  373SOL    HW2 1119   0.088   2.334   0.653 -0.3702  1.8888  1.3320
  374SOL     OW 1120   0.200   3.033   2.585  0.3777 -0.4886  0.2444
  374SOL    HW1 1121   0.270   3.078   2.639 -2.4035  1.6722  0.2234
  374SOL    HW2 1122   0.236   3.002   2.495  0.2443 -2.3694  0.5749
  375SOL     OW 1123   0.413   0.061   2.705  0.3849  0.6807  0.0834
  375SOL    HW1 1124   0.389   0.101   2.793  0.7683 -0.6189 -0.1564
  375SOL    HW2 1125   0.435   0.133   2.635  2.3725  0.2552  0.4594
  376SOL     OW 1126   2.829   2.180   1.752 -0.0441 -0.3580  0.0117
  376SOL    HW1 1127   2.910   2.129   1.775 -1.6682  1.5812 -0.0374
  376SOL    HW2 1128   2.749   2.139   1.798 -1.2122  0.3370 -0.1380
  377SOL     OW 1129   1.487   2.833   2.862 -0.1375 -0.2881 -0.3242
  377SOL    HW1 1130   1.476   2.812   2.965  0.7940 -1.6243  1.0576
  377SOL    HW2 1131   1.578   2.791   2.827  1.1552 -1.5781  0.3781
  378SOL     OW 1132   3.061   0.331   2.681 -0.2787 -0.1590 -0.7638
  378SOL    HW1 1133   0.000   0.377   2.612 -0.0756 -4.4097  1.4689
  378SOL    HW2 1134   3.070   0.232   2.672 -0.3646 -1.4490 -1.6946
  379SOL     OW 1135   0.538   1.031   0.228 -0.1429 -0.1248  0.8424
  379SOL    HW1 1136   0.540   1.040   0.129  1.4663 -1.2752  2.7345
  379SOL    HW2 1137   0.454   0.978   0.251  3.2135  1.9513 -0.7862
  380SOL     OW 1138   0.347   1.625   1.931 -0.0488  0.3561 -0.5646
  380SOL    HW1 1139   0.393   1.691   1.866 -2.9438  0.6170 -2.1960
  380SOL    HW2 1140   0.375   1.637   2.029 -2.6695  0.0667 -0.4706
  381SOL     OW 1141   0.136   1.203   2.221  0.5449  0.6073  0.5210
  381SOL    HW1 1142   0.210   1.155   2.174 -1.8704 -2.0726  1.8922
  381SOL    HW2 1143   0.051   1.211   2.156 -1.3507 -2.7577 -1.0426
  382SOL     OW 1144   2.156   1.887   0.381  0.2591  0.1566  0.1444
  382SOL    HW1 1145   2.255   1.864   0.360  1.4743 -1.6254 -1.8826
  382SOL    HW2 1146   2.137   1.913   0.481 -1.0230 -2.8245 -0.5709
  383SOL     OW 1147   0.382   1.805   0.025  0.3882 -0.0927 -0.5529
  383SOL    HW1 1148   0.390   1.768   0.119 -0.3090 -0.3789 -2.4040
  383SOL    HW2 1149   0.475   1.819   3.100  0.2896 -1.7281 -0.5294
  384SOL     OW 1150   0.748   2.188   2.559 -0.0834  0.2233  0.5180
  384SOL    HW1 1151   0.701   2.140   2.629  0.1388 -0.0738 -1.4580
  384SOL    HW2 1152   0.756   2.286   2.580  0.5229  0.8913  0.1263
  385SOL     OW 1153   2.135   1.937   0.635  0.0943 -0.0776 -0.5721
  385SOL    HW1 1154   2.200   1.884   0.697 -0.0082 -2.3115 -2.3179
  385SOL    HW2 1155   2.129   2.040   0.645 -1.8826  1.1849 -2.4830
  386SOL     OW 1156   2.284   1.163   1.527  0.5377 -0.1019  0.3094
  386SOL    HW1 1157   2.262   1.220   1.450 -1.3615  0.8551  1.0572
  386SOL    HW2 1158   2.280   1.217   1.613 -2.1650  2.8200  0.8663
  387SOL     OW 1159   2.745   1.403   2.163 -0.1385 -0.1794  0.3966
  387SOL    HW1 1160   2.691   1.488   2.140 -0.7085 -1.9271  0.1479
  387SOL    HW2 1161   2.826   1.425   2.214  5.2575  0.7874  5.3061
  388SOL     OW 1162   0.442   1.658   2.194 -0.2765  0.3166  0.5403
  388SOL    HW1 1163   0.526   1.715   2.212  3.0254  0.8769  2.8128
  388SOL    HW2 1164   0.365   1.703   2.246 -1.5801 -1.9424  0.6139
  389SOL     OW 1165   0.828   1.098   2.032  0.6610 -0.1043 -0.0839
  389SOL    HW1 1166   0.814   1.021   1.969  1.0222 -1.5402 -2.4232
  389SOL    HW2 1167   0.926   1.118   2.041 -0.0307  0.6573 -1.3265
  390SOL     OW 1168   2.370   3.085   0.840 -0.0684 -0.0251 -0.1761
  390SOL    HW1 1169   2.282   3.082   0.785 -1.0542 -1.0483  0.9293
  390SOL    HW2 1170   2.350   0.007   0.929  1.0659  3.3511 -2.3913
  391SOL     OW 1171   1.897   1.587   1.266  0.3756  0.0432  0.1937
  391SOL    HW1 1172   1.958   1.514   1.303 -1.1906 -1.6902  1.7149
  391SOL    HW2 1173   1.933   1.637   1.185 -0.5334  0.5422  1.0036
  392SOL     OW 1174   2.761   2.715   0.270 -0.3074 -0.1710 -0.1460
  392SOL    HW1 1175   2.669   2.754   0.250  1.6432 -3.0858  1.8931
  392SOL    HW2 1176   2.781   2.743   0.367  0.8043  3.3328  0.9808
  393SOL     OW 1177   1.755   2.334   3.035  0.2111  0.3493 -0.0083
  393SOL    HW1 1178   1.755   2.399   2.956 -1.4423 -0.9638 -1.7764
  393SOL    HW2 1179   1.846   2.296   3.056  1.1128  0.4579  0.1997
  394SOL     OW 1180   2.977   2.377   2.459  0.1233 -0.0376  0.9427
  394SOL    HW1 1181   3.011   2.411   2.550 -0.8550  0.1985  1.0302
  394SOL    HW2 1182   3.054   2.341   2.400  0.3099  1.8623 -0.6082
  395SOL     OW 1183   0.165   0.255   0.636 -0.4543 -0.5160 -0.5350
  395SOL    HW1 1184   0.123   0.340   0.605 -0.5029 -1.7287  0.2209
  395SOL    HW2 1185   0.240   0.269   0.702 -2.0933 -1.6462 -0.1705
  396SOL     OW 1186   1.802   0.688   0.473 -0.3784  0.3761  0.3563
  396SOL    HW1 1187   1.781   0.733   0.559 -0.0459 -0.5027 -0.3842
  396SOL    HW2 1188   1.795   0.589   0.483  0.7073  1.1553 -1.8855
  397SOL     OW 1189   0.384   0.570   2.121 -0.2068 -0.5092 -0.3494
  397SOL    HW1 1190   0.461   0.519   2.079 -0.6324 -1.0333 -1.7489
  397SOL    HW2 1191   0.300   0.529   2.079 -0.0083  1.7371  0.5176
  398SOL     OW 1192   1.029   3.069   0.378 -0.1282  0.1089 -0.2523
  398SOL    HW1 1193   1.109   3.114   0.339 -0.9128 -3.1083 -0.9468
  398SOL    HW2 1194   0.999   0.009   0.461  0.9480  1.5604  1.4125
  399SOL     OW 1195   2.255   0.405   1.867  0.6226  0.3577 -0.5314
  399SOL    HW1 1196   2.295   0.463   1.792 -0.4827  0.0122  0.6855
  399SOL    HW2 1197   2.278   0.446   1.958  1.3133  2.2790  0.9052
  400SOL     OW 1198   0.998   2.103   2.493  0.5419  0.0198 -0.1051
  400SOL    HW1 1199   0.902   2.141   2.509 -1.1791 -1.3180  1.7694
  400SOL    HW2 1200   0.999   2.004   2.464  0.4291 -1.5811  2.3336
  401SOL     OW 1201   0.631   0.916   2.545  0.5081  0.8480  0.0753
  401SOL    HW1 1202   0.654   0.830   2.596 -1.5001 -0.4939  0.5919
  401SOL    HW2 1203   0.608   0.901   2.445  1.4848  0.0179  2.1973
  402SOL     OW 1204   0.329   2.544   0.531 -0.4796  0.1761  0.1332
  402SOL    HW1 1205   0.408   2.480   0.551  0.5921 -2.7537  2.9901
  402SOL    HW2 1206   0.252   2.520   0.595  1.4296  2.1873 -0.0265
  403SOL     OW 1207   3.070   1.255   2.003  0.2542  0.4565 -0.2553
  403SOL    HW1 1208   0.010   1.278   1.922  0.1290 -1.3738  0.5054
  403SOL    HW2 1209   2.997   1.186   1.983 -0.7169  0.9614  1.5989
  404SOL     OW 1210   2.837   2.593   2.368 -0.4442 -0.6402 -0.3001
  404SOL    HW1 1211   2.803   2.607   2.274  1.2458 -0.1327 -0.2542
  404SOL    HW2 1212   2.864   2.498   2.390 -1.0608  0.7673 -0.2771
  405SOL     OW 1213   0.232   0.278   1.838  0.1460 -0.6970 -0.2771
  405SOL    HW1 1214   0.307   0.212   1.826 -1.1123 -3.1633  1.1293
  405SOL    HW2 1215   0.141   0.252   1.800 -0.8946  1.8567  2.0991
  406SOL     OW 1216   1.305   1.337   2.774  0.0498  0.4553  0.2789
  406SOL    HW1 1217   1.317   1.442   2.773 -0.8098  0.6059  0.7516
  406SOL    HW2 1218   1.368   1.283   2.713 -1.3223  0.8975  0.6909
  407SOL     OW 1219   1.653   0.849   2.693  0.2165 -0.4245 -0.2643
  407SOL    HW1 1220   1.711   0.860   2.778  0.5831 -1.1384  0.7330
  407SOL    HW2 1221   1.706   0.837   2.604 -0.1816  1.3773 -1.9298
  408SOL     OW 1222   0.324   2.966   2.369  0.1791 -0.2493 -0.1695
  408SOL    HW1 1223   0.420   2.971   2.396 -2.2575 -1.0407  0.7682
  408SOL    HW2 1224   0.319   2.969   2.270 -0.4093 -0.7109  2.6257
  409SOL     OW 1225   3.104   2.028   1.127 -0.1565 -0.2524  0.1712
  409SOL    HW1 1226   3.048   2.017   1.042  4.1003  0.8264  2.6390
  409SOL    HW2 1227   3.062   2.102   1.186  0.7266 -0.6536  1.7821
  410SOL     OW 1228   2.597   1.534   0.356 -0.0940  0.2168  0.3914
  410SOL    HW1 1229   2.603   1.517   0.455  1.3892  0.5399  0.1351
  410SOL    HW2 1230   2.691   1.561   0.321 -0.1022  1.0352 -0.4366
  411SOL     OW 1231   2.898   0.300   1.317 -0.0783  0.8469 -0.3449
  411SOL    HW1 1232   2.880   0.203   1.343 -0.9872  0.9585  0.3661
  411SOL    HW2 1233   2.819   0.358   1.355 -1.6279  1.2979 -1.2573
  412SOL     OW 1234   1.961   0.455   1.589 -0.2159  0.0230  0.4190
  412SOL    HW1 1235   1.869   0.458   1.541  0.3743  0.9321 -0.0082
  412SOL    HW2 1236   2.030   0.502   1.530 -1.2231  0.4603 -0.6872
  413SOL     OW 1237   0.530   0.392   1.984 -0.0557  0.5001  0.0247
  413SOL    HW1 1238   0.500   0.311   1.930  1.1703  0.9999  0.1922
  413SOL    HW2 1239   0.627   0.389   2.011  0.5363 -0.4524 -0.8055
  414SOL     OW 1240   2.787   1.165   2.783  0.0530 -0.8532  0.7685
  414SOL    HW1 1241   2.870   1.205   2.816 -2.9133 -1.1319 -0.9575
  414SOL    HW2 1242   2.713   1.237   2.776  0.9877 -0.1265  0.5289
  415SOL     OW 1243   0.691   2.749   3.068 -0.5172  0.0689 -1.1880
  415SOL    HW1 1244   0.769   2.685   3.046  1.3808 -0.4216 -1.5798
  415SOL    HW2 1245   0.705   2.795   0.042  0.2503 -0.9067 -0.8222
  416SOL     OW 1246   1.454   0.060   2.518 -0.1971  0.2621  0.0473
  416SOL    HW1 1247   1.491   0.025   2.607  1.2800 -1.1312 -0.2538
  416SOL    HW2 1248   1.414   0.151   2.524 -1.7983 -0.1211 -0.0411
  417SOL     OW 1249   0.105   0.519   0.607 -0.0872  0.0695 -0.0297
  417SOL    HW1 1250   0.200   0.557   0.593  0.1156  4.0543  1.1091
  417SOL    HW2 1251   0.063   0.543   0.700 -1.8114 -1.0022  1.1265
  418SOL     OW 1252   2.624   0.131   0.559 -0.2622  0.1857 -0.1839
  418SOL    HW1 1253   2.605   0.035   0.594 -2.5397 -4.1235 -0.4923
  418SOL    HW2 1254   2.556   0.194   0.602 -2.0307  2.0143  1.6406
  419SOL     OW 1255   0.072   2.956   0.413  0.4984 -0.1059  0.7021
  419SOL    HW1 1256   0.161   3.000   0.437 -2.0114  1.3554  0.8899
  419SOL    HW2 1257   3.108   3.017   0.438  0.2707  1.2611 -3.1678
  420SOL     OW 1258   0.229   1.385   1.933  0.3723  0.2185  0.1128
  420SOL    HW1 1259   0.270   1.474   1.946 -0.7050 -0.6699 -0.4772
  420SOL    HW2 1260   0.304   1.318   1.914 -1.0607  2.4624 -0.0977
  421SOL     OW 1261   1.836   2.429   1.103 -0.4789 -0.2597 -0.1164
  421SOL    HW1 1262   1.842   2.532   1.101 -0.6880  1.5765  0.8879
  421SOL    HW2 1263   1.792   2.390   1.017  1.1768  1.9919  1.8855
  422SOL     OW 1264   0.588   0.524   1.495 -0.4088 -0.6043  0.2311
  422SOL    HW1 1265   0.685   0.528   1.469 -0.2163 -0.4706  1.5643
  422SOL    HW2 1266   0.531   0.566   1.424  3.4083 -2.3757  2.1595
  423SOL     OW 1267   0.641   1.463   1.850 -0.1094 -0.2199 -0.1632
  423SOL    HW1 1268   0.644   1.541   1.789 -1.2454 -1.9200  0.9888
  423SOL    HW2 1269   0.702   1.385   1.812 -0.3090 -0.1519 -1.0929
  424SOL     OW 1270   1.763   2.212   0.435 -0.0871 -0.1054  0.1071
  424SOL    HW1 1271   1.820   2.225   0.351  2.0982 -0.1135 -0.9299
  424SOL    HW2 1272   1.680   2.158   0.426 -0.9137 -0.5884 -0.9072
  425SOL     OW 1273   2.799   3.100   1.910  0.1544 -0.1295 -0.3453
  425SOL    HW1 1274   2.822   0.050   1.984 -0.2151 -2.4614  0.5401
  425SOL    HW2 1275   2.881   3.059   1.867  0.0459 -0.2603  0.9778
  426SOL     OW 1276   3.048   2.453   2.703  0.3217 -0.3117  0.6079
  426SOL    HW1 1277   0.025   2.496   2.725  0.6506  2.1099  0.3822
  426SOL    HW2 1278   2.990   2.422   2.783  0.1553  2.1994 -0.0446
  427SOL     OW 1279   1.213   0.482   3.049  0.2360 -0.4690 -0.2973
  427SOL    HW1 1280   1.130   0.458   3.105  0.3365  1.2536  4.2900
  427SOL    HW2 1281   1.268   0.397   3.026 -0.0917  0.4365  2.7078
  428SOL     OW 1282   2.830   0.772   1.313 -0.4626 -0.1284 -0.3148
  428SOL    HW1 1283   2.914   0.751   1.260  0.6316 -0.6365  0.1351
  428SOL    HW2 1284   2.826   0.722   1.408  0.0227 -0.9559  2.1156
  429SOL     OW 1285   1.975   3.056   1.076  0.4055  0.7008  0.4296
  429SOL    HW1 1286   1.900   3.018   1.136 -0.8322  0.1038  2.9552
  429SOL    HW2 1287   1.977   3.010   0.985 -2.6650 -0.3851 -0.6148
  430SOL     OW 1288   1.075   1.420   2.432 -0.6376  0.3672  0.4798
  430SOL    HW1 1289   1.039   1.397   2.523  0.5791  3.5453  0.2506
  430SOL    HW2 1290   1.002   1.455   2.370  1.4670  1.1061 -0.9185
  431SOL     OW 1291   2.624   1.642   1.129  0.1822  0.1118  0.1583
  431SOL    HW1 1292   2.557   1.626   1.205 -1.8742 -0.0814 -0.5026
  431SOL    HW2 1293   2.662   1.736   1.112 -1.3170 -1.8554  2.4186
  432SOL     OW 1294   1.216   2.715   2.431  0.1073  0.1548 -0.6530
  432SOL    HW1 1295   1.232   2.620   2.401  2.5471 -0.2203  0.0907
  432SOL    HW2 1296   1.241   2.728   2.531 -1.6989  0.8934  3.2953
  433SOL     OW 1297   1.728   0.489   2.293  0.2589 -0.2342 -0.5487
  433SOL    HW1 1298   1.753   0.464   2.391  0.1396  1.6511  0.1458
  433SOL    HW2 1299   1.806   0.463   2.234  0.2287  0.9677  1.1511
  434SOL     OW 1300   0.524   2.432   2.130  0.3354 -0.0697 -0.5050
  434SOL    HW1 1301   0.465   2.515   2.147  1.5351 -1.4228  0.3453
  434SOL    HW2 1302   0.517   2.375   2.213 -2.1083 -1.3606 -0.2945
  435SOL     OW 1303   0.244   0.157   0.400 -0.2996  0.3419 -0.0451
  435SOL    HW1 1304   0.299   0.072   0.397 -0.8454  1.6539 -0.5331
  435SOL    HW2 1305   0.211   0.175   0.499  1.9147  0.6184  1.4508
  436SOL     OW 1306   0.430   0.845   2.093 -0.3124 -0.4934  0.1054
  436SOL    HW1 1307   0.477   0.846   2.002 -0.2239 -0.9823 -1.1336
  436SOL    HW2 1308   0.405   0.754   2.119 -2.6875  3.9945 -1.7008
  437SOL     OW 1309   0.651   2.493   2.621 -0.4784  0.2377  0.1271
  437SOL    HW1 1310   0.647   2.520   2.525 -0.4830  0.0350 -1.2021
  437SOL    HW2 1311   0.557   2.493   2.665 -2.5771 -2.9541  1.6262
  438SOL     OW 1312   0.933   1.223   1.117  0.2955 -0.3206  0.0878
  438SOL    HW1 1313   1.033   1.234   1.143  0.5672 -1.9437  1.6631
  438SOL    HW2 1314   0.909   1.242   1.020 -1.4488  0.3092  0.4683
  439SOL     OW 1315   2.534   1.653   2.437 -0.1933  0.2897 -0.5957
  439SOL    HW1 1316   2.636   1.646   2.451  0.7441  0.6876  0.1632
  439SOL    HW2 1317   2.490   1.563   2.458  2.2525 -1.6120  1.6457
  440SOL     OW 1318   0.044   0.549   2.828  0.2474  0.7276 -0.3801
  440SOL    HW1 1319   0.006   0.629   2.781 -1.1812 -0.4477  0.8727
  440SOL    HW2 1320   0.006   0.459   2.794 -2.0235 -0.8720 -0.2338
  441SOL     OW 1321   1.001   2.203   1.465 -0.1296  0.5792  0.1302
  441SOL    HW1 1322   0.969   2.111   1.424  0.9104 -2.3770 -0.5844
  441SOL    HW2 1323   0.987   2.201   1.565  1.0030 -1.7737 -0.2473
  442SOL     OW 1324   1.691   1.511   1.037  0.8570  0.2171 -0.3224
  442SOL    HW1 1325   1.715   1.463   1.121 -2.1019  1.9889 -0.7735
  442SOL    HW2 1326   1.703   1.450   0.957  1.0936 -0.5064  3.2689
  443SOL     OW 1327   2.414   2.192   2.825 -0.2477 -0.3148  0.1796
  443SOL    HW1 1328   2.413   2.112   2.881 -1.5679  0.3930 -4.0650
  443SOL    HW2 1329   2.376   2.273   2.873  1.4551 -0.2989  0.8007
  444SOL     OW 1330   1.937   1.550   2.936 -0.0604 -0.4211 -0.2154
  444SOL    HW1 1331   1.884   1.584   2.851 -0.3018  2.6447 -0.7158
  444SOL    HW2 1332   1.993   1.626   2.974  0.6433 -0.1484  1.4153
  445SOL     OW 1333   0.005   2.555   1.964  0.1057 -0.4265 -0.3241
  445SOL    HW1 1334   0.049   2.475   2.009 -2.5966  0.9604  2.7586
  445SOL    HW2 1335   0.034   2.633   2.023 -3.4207 -1.0350  0.4087
  446SOL     OW 1336   1.167   0.817   1.731  0.2249 -0.1651 -0.0578
  446SOL    HW1 1337   1.232   0.895   1.739 -0.9756  0.6999  1.6329
  446SOL    HW2 1338   1.148   0.774   1.827  2.6456  1.3761  1.7156
  447SOL     OW 1339   0.806   0.866   0.936 -0.0044  0.1782  0.5896
  447SOL    HW1 1340   0.803   0.824   0.840 -0.6964  1.7923  0.3406
  447SOL    HW2 1341   0.858   0.955   0.925 -1.0827  2.5040  0.9519
  448SOL     OW 1342   1.062   1.143   2.365  0.3222  0.5891  0.5863
  448SOL    HW1 1343   0.992   1.109   2.431 -2.4194 -2.5043 -1.0627
  448SOL    HW2 1344   1.084   1.243   2.394  0.5933  1.3009  1.5218
  449SOL     OW 1345   0.019   2.025   2.381  0.0584  0.0501 -0.0559
  449SOL    HW1 1346   0.079   1.983   2.454 -1.7411  2.3027  0.0725
  449SOL    HW2 1347   0.007   1.963   2.305 -0.8213  2.9670  3.4871
  450SOL     OW 1348   2.153   1.624   2.160  0.0224 -0.2286 -0.3278
  450SOL    HW1 1349   2.222   1.548   2.191  0.5011 -2.6795  3.7662
  450SOL    HW2 1350   2.201   1.716   2.151  1.7590  1.2536 -2.4525
  451SOL     OW 1351   2.784   1.554   1.574  0.0804 -0.3454  0.7591
  451SOL    HW1 1352   2.794   1.655   1.584  0.9336  1.0411  0.1640
  451SOL    HW2 1353   2.786   1.535   1.474 -1.3446 -0.5342 -3.8973
  452SOL     OW 1354   0.545   1.167   1.633 -0.0901 -0.3199 -0.2500
  452SOL    HW1 1355   0.546   1.067   1.611  1.3888 -0.6420  0.0151
  452SOL    HW2 1356   0.565   1.233   1.556 -2.5693  4.2426  2.5531
  453SOL     OW 1357   0.665   1.583   0.658 -0.0784 -0.6390 -0.0735
  453SOL    HW1 1358   0.674   1.662   0.597 -0.9989  0.8748 -0.2670
  453SOL    HW2 1359   0.619   1.502   0.612 -0.0487 -2.8370 -1.8598
  454SOL     OW 1360   1.057   1.838   0.207 -0.0554  0.0900 -0.0571
  454SOL    HW1 1361   1.040   1.790   0.120 -0.7497 -0.1835  0.1258
  454SOL    HW2 1362   1.022   1.777   0.284 -2.5009 -0.3597 -0.0942
  455SOL     OW 1363   1.534   0.533   1.202 -0.3341  0.2693 -0.0253
  455SOL    HW1 1364   1.640   0.542   1.205  1.1770  0.9898  0.8279
  455SOL    HW2 1365   1.490   0.590   1.274  0.0187 -1.2418  0.3759
  456SOL     OW 1366   1.845   2.641   0.900  0.2316 -0.7478 -0.6975
  456SOL    HW1 1367   1.829   2.628   0.804 -0.2914  1.0523  3.7894
  456SOL    HW2 1368   1.765   2.695   0.936 -0.0034  0.8628  0.6676
  457SOL     OW 1369   2.076   0.576   2.685 -0.1177 -0.0902 -0.2902
  457SOL    HW1 1370   2.090   0.554   2.784 -0.4458  0.1380 -0.8241
  457SOL    HW2 1371   2.124   0.519   2.623 -0.3063  4.7200 -0.1210
  458SOL     OW 1372   2.620   0.724   2.725  0.0147 -0.1219  0.1455
  458SOL    HW1 1373   2.650   0.818   2.680 -0.0024 -2.0742 -2.7972
  458SOL    HW2 1374   2.696   0.671   2.766 -0.9838 -0.3351 -0.2929
  459SOL     OW 1375   2.570   1.618   2.097 -0.2789 -0.4932  0.3475
  459SOL    HW1 1376   2.596   1.658   2.009  0.0363  0.9545  1.1787
  459SOL    HW2 1377   2.550   1.692   2.168 -1.4066  0.9914 -0.4532
  460SOL     OW 1378   0.754   0.644   0.046 -0.0137 -0.2733  0.7176
  460SOL    HW1 1379   0.783   0.731   3.113  0.8417  0.3675 -1.1862
  460SOL    HW2 1380   0.783   0.644   0.145  0.6272 -1.8259  0.5929
  461SOL     OW 1381   0.314   2.264   0.040  0.1544 -0.5548 -0.9114
  461SOL    HW1 1382   0.247   2.332   0.077  0.5999  0.7059 -1.4765
  461SOL    HW2 1383   0.275   2.179   3.109  2.4550  0.1449 -1.6004
  462SOL     OW 1384   0.253   2.589   1.774 -0.4301  0.7745 -0.0758
  462SOL    HW1 1385   0.167   2.540   1.796 -0.6637 -0.9132  0.5670
  462SOL    HW2 1386   0.334   2.527   1.752  4.3969 -1.6136  0.8971
  463SOL     OW 1387   1.684   2.138   1.952 -0.5035  0.0291  0.4445
  463SOL    HW1 1388   1.772   2.184   1.929  1.3148 -0.1436 -0.5635
  463SOL    HW2 1389   1.654   2.160   2.047 -0.0559 -0.1269 -0.8951
  464SOL     OW 1390   2.626   2.764   0.919 -0.0593 -0.0545  0.1791
  464SOL    HW1 1391   2.723   2.783   0.926 -0.7956 -0.3244  0.7048
  464SOL    HW2 1392   2.593   2.793   0.826 -1.1554 -0.0364  0.2047
  465SOL     OW 1393   0.301   0.124   1.452 -0.0304  0.1309 -0.3615
  465SOL    HW1 1394   0.212   0.128   1.499 -1.2089  3.6698 -1.9622
  465SOL    HW2 1395   0.336   0.219   1.454  2.3961 -0.0458  0.1907
  466SOL     OW 1396   1.302   2.439   2.390 -0.0453 -0.1664 -0.5105
  466SOL    HW1 1397   1.392   2.485   2.419  0.9736  0.1073  2.5394
  466SOL    HW2 1398   1.299   2.343   2.421 -1.4195  1.9084 -1.9276
  467SOL     OW 1399   2.926   2.029   0.541 -0.5959 -0.2140  0.0633
  467SOL    HW1 1400   2.925   2.090   0.625  1.5144 -0.9037  2.1674
  467SOL    HW2 1401   2.838   1.979   0.530  0.3907  1.2738  0.3475
  468SOL     OW 1402   2.135   1.994   2.933 -0.4123 -0.6116  0.0097
  468SOL    HW1 1403   2.098   1.986   2.837  0.7248  1.9382  1.2839
  468SOL    HW2 1404   2.232   1.968   2.944  2.1965  1.1374  1.6988
  469SOL     OW 1405   1.391   2.312   0.752  0.5021  0.5151  0.1395
  469SOL    HW1 1406   1.413   2.255   0.669 -0.5476  2.1759 -1.8470
  469SOL    HW2 1407   1.462   2.385   0.767  1.8547  1.3723  2.4136
  470SOL     OW 1408   1.890   1.079   1.229  0.0296  0.9970  0.4437
  470SOL    HW1 1409   1.830   1.002   1.195  0.9989 -1.7277  1.0032
  470SOL    HW2 1410   1.932   1.058   1.323  2.1422 -1.9609 -1.2943
  471SOL     OW 1411   0.500   2.147   0.196 -0.2064  0.0423  0.0304
  471SOL    HW1 1412   0.472   2.158   0.292 -1.3626  1.8732  0.2046
  471SOL    HW2 1413   0.443   2.206   0.130 -1.6454 -2.8441 -1.8106
  472SOL     OW 1414   2.465   1.830   2.644 -0.4800 -0.0472 -0.6493
  472SOL    HW1 1415   2.549   1.878   2.682  0.8006  0.1544  0.4568
  472SOL    HW2 1416   2.483   1.796   2.552  0.1181  1.0009 -1.7959
  473SOL     OW 1417   1.261   2.082   0.889 -0.0295  0.7921  0.1050
  473SOL    HW1 1418   1.322   2.129   0.829 -0.6648 -0.3990  1.7308
  473SOL    HW2 1419   1.276   2.106   0.985  1.7383  0.9311 -2.5834
  474SOL     OW 1420   2.891   0.488   0.952  0.1045  0.2893 -0.1112
  474SOL    HW1 1421   2.882   0.386   0.985  0.9481 -1.4117 -0.3446
  474SOL    HW2 1422   2.806   0.538   0.965  1.9808 -0.5489 -2.4536
  475SOL     OW 1423   2.214   2.958   1.502 -0.4116 -0.0438 -0.4383
  475SOL    HW1 1424   2.284   2.902   1.547 -1.0895  2.1425 -1.1813
  475SOL    HW2 1425   2.144   2.899   1.454 -1.8789 -2.5580  1.2459
  476SOL     OW 1426   0.372   0.569   0.541  0.1827  0.0824 -0.3381
  476SOL    HW1 1427   0.396   0.486   0.482 -0.0235 -1.8131 -1.2650
  476SOL    HW2 1428   0.429   0.578   0.627 -0.8275 -0.7975 -0.0026
  477SOL     OW 1429   1.045   1.958   1.137 -0.0379 -0.1135  0.2749
  477SOL    HW1 1430   1.084   1.877   1.091  0.5816  0.1116  1.3535
  477SOL    HW2 1431   1.006   2.014   1.062  1.6699 -3.4783 -2.5048
  478SOL     OW 1432   1.099   2.215   2.738 -0.4318  0.0583 -0.8467
  478SOL    HW1 1433   1.064   2.165   2.653  0.4107 -2.0918 -0.0163
  478SOL    HW2 1434   1.159   2.295   2.712  0.8419  3.1238 -1.2893
  479SOL     OW 1435   2.877   1.052   1.961 -0.1443  0.2819 -0.1456
  479SOL    HW1 1436   2.798   1.109   1.944  3.8035 -3.5324  1.7320
  479SOL    HW2 1437   2.914   1.009   1.875 -0.5450 -0.4305 -0.6765
  480SOL     OW 1438   2.950   2.352   2.957  0.0050  0.0346 -0.5725
  480SOL    HW1 1439   2.991   2.262   2.922 -0.6797 -0.5087  1.6473
  480SOL    HW2 1440   2.986   2.387   3.045  1.0667  0.3461 -0.6421
  481SOL     OW 1441   1.629   0.012   2.089 -0.9945 -0.5333 -0.0868
  481SOL    HW1 1442   1.728   0.005   2.073 -1.4413  0.0358  0.2528
  481SOL    HW2 1443   1.610   0.106   2.124  0.9758 -1.1200  0.7132
  482SOL     OW 1444   1.610   2.154   2.874 -0.3376 -0.4367  0.2864
  482SOL    HW1 1445   1.671   2.219   2.919 -1.1574  0.1774 -0.2757
  482SOL    HW2 1446   1.646   2.062   2.895 -1.6825  1.0161  0.7206
  483SOL     OW 1447   0.915   2.563   2.722 -0.2826 -0.2828  0.2497
  483SOL    HW1 1448   0.815   2.554   2.724 -0.9846 -2.2871  0.0038
  483SOL    HW2 1449   0.946   2.524   2.635 -1.4534  1.1471  2.3077
  484SOL     OW 1450   0.062   2.919   1.436 -0.1864 -0.2512  0.2029
  484SOL    HW1 1451   0.107   2.850   1.499  0.2758 -1.5050  0.2018
  484SOL    HW2 1452   0.139   2.956   1.373  0.5138 -1.5415 -1.7001
  485SOL     OW 1453   2.271   0.747   0.564  0.2715 -0.3398 -0.2254
  485SOL    HW1 1454   2.233   0.748   0.470 -0.3767  1.2015 -0.2648
  485SOL    HW2 1455   2.330   0.829   0.582  0.0137  1.3347 -1.7637
  486SOL     OW 1456   2.463   2.896   2.482  0.2640  0.5465  0.1397
  486SOL    HW1 1457   2.443   2.949   2.406  0.6521 -0.2999  0.2170
  486SOL    HW2 1458   2.386   2.912   2.548  1.7657  2.1458  1.2681
  487SOL     OW 1459   1.319   0.822   0.569 -0.0593  0.2131  0.2280
  487SOL    HW1 1460   1.358   0.815   0.470 -0.2994  0.2921 -2.4448
  487SOL    HW2 1461   1.239   0.882   0.571  0.1872 -0.3026 -2.6940
  488SOL     OW 1462   2.576   3.040   2.814  0.4193  0.7080 -0.1169
  488SOL    HW1 1463   2.525   2.955   2.780 -2.4753 -4.5513 -1.4857
  488SOL    HW2 1464   2.649   3.016   2.887  0.6771  0.8031  1.0287
  489SOL     OW 1465   1.703   2.963   0.266 -0.2443  0.1607 -0.6784
  489SOL    HW1 1466   1.691   2.860   0.276  0.7386  0.7696  2.6954
  489SOL    HW2 1467   1.788   2.996   0.322  0.9462 -0.5952  0.0811
  490SOL     OW 1468   1.785   0.242   3.064  0.6927 -0.4993 -0.3574
  490SOL    HW1 1469   1.757   0.294   0.032  1.6372 -1.0711  1.9029
  490SOL    HW2 1470   1.828   0.313   3.005  0.2720 -1.7930 -3.8295
  491SOL     OW 1471   0.613   0.163   1.159 -0.2488 -0.7583  0.0078
  491SOL    HW1 1472   0.552   0.243   1.180  0.0538  1.8113 -0.4907
  491SOL    HW2 1473   0.601   0.136   1.063 -1.9700  0.6734 -3.5539
  492SOL     OW 1474   1.647   3.095   0.743  0.0132 -0.0697  0.2918
  492SOL    HW1 1475   1.737   0.013   0.783  3.0151 -0.3247 -0.0096
  492SOL    HW2 1476   1.658   3.015   0.676  2.2946  0.5492 -0.4909
  493SOL     OW 1477   1.161   2.192   3.010 -0.5776 -0.1573  0.1894
  493SOL    HW1 1478   1.249   2.144   3.031 -0.3721  1.3170 -0.6541
  493SOL    HW2 1479   1.153   2.194   2.909  3.0479 -0.9788  0.4261
  494SOL     OW 1480   0.549   1.013   1.013  0.0443  0.0469  0.2162
  494SOL    HW1 1481   0.558   1.012   1.115  0.4179 -0.7285  0.7890
  494SOL    HW2 1482   0.615   0.947   0.973 -1.2734 -0.4045  2.5780
  495SOL     OW 1483   2.853   0.631   1.526 -0.5540  0.2236  0.5896
  495SOL    HW1 1484   2.924   0.584   1.574 -3.1165  2.6847 -2.9244
  495SOL    HW2 1485   2.806   0.690   1.591 -1.9787  0.4704  0.4833
  496SOL     OW 1486   2.448   2.603   2.450 -0.1043  0.8132  0.1586
  496SOL    HW1 1487   2.479   2.698   2.438 -2.9954 -0.9995  0.5320
  496SOL    HW2 1488   2.343   2.598   2.445  0.5801  0.5358  1.8207
  497SOL     OW 1489   1.789   0.936   2.910  0.0488  0.2935 -0.0802
  497SOL    HW1 1490   1.822   1.023   2.869  0.5943  1.2949  0.5802
  497SOL    HW2 1491   1.776   0.951   3.005  2.4890  0.5598  0.6017
  498SOL     OW 1492   0.902   2.139   0.950  0.4517 -0.3689  0.0516
  498SOL    HW1 1493   0.963   2.165   0.867 -0.1914  1.7657 -0.2274
  498SOL    HW2 1494   0.804   2.153   0.924 -2.6762  1.0249 -0.4078
  499SOL     OW 1495   0.147   1.780   0.708  0.3642  0.6460 -0.4239
  499SOL    HW1 1496   0.107   1.869   0.690  0.2845 -2.5340  0.1271
  499SOL    HW2 1497   0.234   1.784   0.760  1.9810 -0.5301  0.7690
  500SOL     OW 1498   1.268   2.685   0.359  0.5986  0.3168 -0.4301
  500SOL    HW1 1499   1.174   2.727   0.369 -0.8982  0.6748 -3.3507
  500SOL    HW2 1500   1.322   2.705   0.449 -0.5864  2.7881  0.0405
  501SOL     OW 1501   1.904   2.839   0.612  0.2688  0.2985 -0.0332
  501SOL    HW1 1502   1.803   2.839   0.593 -0.6187 -2.2855 -0.9223
  501SOL    HW2 1503   1.948   2.749   0.591 -1.4194  0.0333  2.6055
  502SOL     OW 1504   0.104   0.561   1.133 -0.7276  0.1769 -0.5376
  502SOL    HW1 1505   0.148   0.478   1.088  0.4761 -4.7752 -1.6287
  502SOL    HW2 1506   0.078   0.524   1.228  0.1272 -1.2332  0.6542
  503SOL     OW 1507   2.199   0.035   1.690 -0.0821  0.3319  0.0359
  503SOL    HW1 1508   2.129   0.109   1.670 -0.5929  2.3074 -1.9340
  503SOL    HW2 1509   2.195   3.080   1.613  0.8500 -0.1163  2.6146
  504SOL     OW 1510   1.982   1.062   1.883  0.1803 -0.4003 -0.1760
  504SOL    HW1 1511   2.026   0.973   1.857 -2.6111 -2.7971  2.9050
  504SOL    HW2 1512   1.882   1.063   1.862 -1.5379  0.3717  0.0144
  505SOL     OW 1513   1.531   2.826   2.505  0.3877 -0.2827 -0.1436
  505SOL    HW1 1514   1.441   2.859   2.543 -4.7929  3.8341 -1.8050
  505SOL    HW2 1515   1.559   2.877   2.418  0.9565 -0.0541 -0.6493
  506SOL     OW 1516   0.550   0.686   1.694  0.0944 -0.1594 -0.2859
  506SOL    HW1 1517   0.568   0.603   1.634  0.1960  3.4308  3.8339
  506SOL    HW2 1518   0.608   0.687   1.780  2.7536 -0.9603  1.5176
  507SOL     OW 1519   1.764   0.386   0.181 -0.0077 -0.2127 -0.1882
  507SOL    HW1 1520   1.696   0.363   0.255  0.0231 -0.2426  0.7368
  507SOL    HW2 1521   1.862   0.401   0.208  3.9804 -0.3873  2.9408
  508SOL     OW 1522   2.092   0.687   2.065  0.3965 -0.0100 -0.2694
  508SOL    HW1 1523   2.096   0.749   2.147 -1.5606 -1.5588 -0.0532
  508SOL    HW2 1524   2.093   0.743   1.977 -2.1142  0.3851 -1.1001
  509SOL     OW 1525   0.816   1.662   2.546 -0.4736 -0.2097 -0.4968
  509SOL    HW1 1526   0.721   1.685   2.543  0.8380  0.9648  0.8538
  509SOL    HW2 1527   0.872   1.707   2.469  2.6139  1.2189 -1.7190
  510SOL     OW 1528   2.848   0.832   0.650 -0.5648 -0.2201 -0.0208
  510SOL    HW1 1529   2.827   0.764   0.581 -0.3999 -0.3153 -0.3515
  510SOL    HW2 1530   2.941   0.823   0.691  1.1286 -0.8509  0.4506
  511SOL     OW 1531   1.706   1.309   1.516  0.2673  0.1332 -0.0612
  511SOL    HW1 1532   1.681   1.407   1.513  0.1988  1.0547  2.6515
  511SOL    HW2 1533   1.800   1.297   1.552  1.0969 -1.4578 -1.1517
  512SOL     OW 1534   0.633   1.780   0.481 -0.7185  0.3227 -0.1719
  512SOL    HW1 1535   0.671   1.746   0.391 -0.0874  0.5068 -1.4397
  512SOL    HW2 1536   0.673   1.866   0.513  0.5174  0.1963 -0.8587
  513SOL     OW 1537   0.534   2.544   0.955  0.1945 -0.7531  0.1601
  513SOL    HW1 1538   0.482   2.625   0.933  0.3903 -0.7154  0.2918
  513SOL    HW2 1539   0.596   2.572   1.029 -2.7962 -1.3797  0.0756
  514SOL     OW 1540   0.584   2.343   0.522  0.3818  0.2374 -0.3406
  514SOL    HW1 1541   0.509   2.299   0.477  1.1809 -0.6808  2.2597
  514SOL    HW2 1542   0.671   2.300   0.491  1.3672  2.1404  1.3318
  515SOL     OW 1543   0.112   2.959   0.130 -0.6052  0.1472 -0.4945
  515SOL    HW1 1544   0.141   2.967   0.229 -1.1096 -0.3256  0.7062
  515SOL    HW2 1545   0.009   2.959   0.126 -0.8161 -0.6078  1.7043
  516SOL     OW 1546   1.946   0.205   1.142 -0.4980 -0.3156 -0.0602
  516SOL    HW1 1547   1.871   0.231   1.210  1.3255 -1.2452  1.2369
  516SOL    HW2 1548   1.951   0.103   1.119  2.2853  0.7351 -1.0336
  517SOL     OW 1549   1.504   1.826   0.784 -0.4291  0.5980 -0.7169
  517SOL    HW1 1550   1.423   1.845   0.726 -1.7412  1.1819 -0.7477
  517SOL    HW2 1551   1.571   1.903   0.779  3.3288  1.9418 -0.7869
  518SOL     OW 1552   1.469   3.020   0.932 -0.2346 -0.5971 -0.7257
  518SOL    HW1 1553   1.378   3.007   0.889 -0.0844 -1.9103 -2.6076
  518SOL    HW2 1554   1.540   3.034   0.858 -0.8775  1.6273 -2.6880
  519SOL     OW 1555   2.973   2.242   0.263  0.5484  0.1431  0.2898
  519SOL    HW1 1556   2.932   2.213   0.351 -3.4746 -1.0693 -2.5600
  519SOL    HW2 1557   3.034   2.322   0.267 -0.0804 -1.3433  1.2826
  520SOL     OW 1558   1.767   2.272   2.369  0.2664 -0.1824  0.4184
  520SOL    HW1 1559   1.857   2.249   2.323  1.6080  0.1886  1.0069
  520SOL    HW2 1560   1.716   2.332   2.299 -1.0071  1.3205  0.1988
  521SOL     OW 1561   1.248   2.868   2.191  0.3059  0.2739  0.0953
  521SOL    HW1 1562   1.148   2.889   2.167  2.0990  1.2924 -0.0301
  521SOL    HW2 1563   1.243   2.818   2.279  0.7428  1.7340 -0.0660
  522SOL     OW 1564   0.386   2.643   2.211  0.1340 -0.0475 -0.4485
  522SOL    HW1 1565   0.350   2.685   2.127  0.1372 -1.2109  1.5717
  522SOL    HW2 1566   0.326   2.675   2.288  0.8711 -0.3153 -0.6170
  523SOL     OW 1567   0.983   2.207   1.742 -0.1599  0.0251 -0.1764
  523SOL    HW1 1568   0.958   2.256   1.829  0.0430 -3.0587  2.5550
  523SOL    HW2 1569   1.080   2.170   1.754 -1.0419 -1.1272 -0.7010
  524SOL     OW 1570   2.329   2.227   0.134 -0.8185  0.0821 -0.4757
  524SOL    HW1 1571   2.379   2.140   0.114  1.0443 -0.3165  0.0133
  524SOL    HW2 1572   2.233   2.206   0.150  3.0151  0.8865 -2.9068
  525SOL     OW 1573   2.943   0.465   3.061 -0.1377  0.6492 -0.2276
  525SOL    HW1 1574   2.996   0.505   0.026 -2.3664  1.8928  0.6770
  525SOL    HW2 1575   2.973   0.366   3.035 -0.8238 -0.3433 -1.7280
  526SOL     OW 1576   0.252   3.001   0.771  0.0453  0.0220  0.3571
  526SOL    HW1 1577   0.202   3.083   0.800  1.3197 -0.8033  1.1930
  526SOL    HW2 1578   0.331   3.021   0.714 -3.8964 -1.2544  1.6791
  527SOL     OW 1579   3.009   1.415   0.567  0.5280  0.3586 -0.0206
  527SOL    HW1 1580   3.077   1.343   0.574  0.0507  2.4959  0.7408
  527SOL    HW2 1581   2.936   1.388   0.633  0.6747 -0.5633 -4.1664
  528SOL     OW 1582   0.780   0.720   2.295  0.1503 -0.0409  0.2781
  528SOL    HW1 1583   0.749   0.655   2.368  0.1445  2.9290  0.8299
  528SOL    HW2 1584   0.707   0.791   2.289  0.0900 -1.0619  0.1091
  529SOL     OW 1585   0.689   1.463   0.112  0.0297  0.4015 -0.0146
  529SOL    HW1 1586   0.709   1.555   0.148 -0.8108 -3.5553 -0.9429
  529SOL    HW2 1587   0.667   1.391   0.177 -1.7655  0.7183 -4.1229
  530SOL     OW 1588   1.082   1.133   2.097 -0.4865  0.5849 -0.2781
  530SOL    HW1 1589   1.166   1.082   2.067  1.4623 -1.4863  0.7334
  530SOL    HW2 1590   1.074   1.131   2.201 -2.0281  0.1540  1.6970
  531SOL     OW 1591   1.036   2.383   0.046  0.1946 -0.2927 -0.2412
  531SOL    HW1 1592   1.083   2.312   3.102  1.6618 -0.0260 -0.4439
  531SOL    HW2 1593   1.074   2.384   0.143 -0.3862 -1.0334  1.2450
  532SOL     OW 1594   2.425   1.230   2.643 -0.3115 -0.5361 -0.3968
  532SOL    HW1 1595   2.504   1.271   2.695 -1.4810  1.2489 -0.5750
  532SOL    HW2 1596   2.362   1.182   2.705 -2.3804  1.4967 -1.6779
  533SOL     OW 1597   3.058   0.226   1.837  0.5107 -0.3395  0.3034
  533SOL    HW1 1598   3.079   0.161   1.918 -0.6330  0.8712 -1.5877
  533SOL    HW2 1599   2.965   0.267   1.871 -2.0699  0.3551  0.9717
  534SOL     OW 1600   2.324   0.112   0.390 -0.0644  0.2852  0.5951
  534SOL    HW1 1601   2.413   0.079   0.347  1.0682 -1.5152  0.9401
  534SOL    HW2 1602   2.320   0.207   0.360  0.2202  0.5586 -1.8223
  535SOL     OW 1603   0.501   0.242   0.022  0.7472 -0.0163 -0.2514
  535SOL    HW1 1604   0.596   0.238   3.103  1.1328 -0.1954  2.5229
  535SOL    HW2 1605   0.434   0.231   3.063 -2.0461 -1.7561  1.0391
  536SOL     OW 1606   0.841   1.865   1.674 -0.1984  0.3455  0.1750
  536SOL    HW1 1607   0.800   1.956   1.679 -0.0309 -3.1090  1.5295
  536SOL    HW2 1608   0.946   1.874   1.679  2.0700 -0.5973 -0.8689
  537SOL     OW 1609   3.025   2.724   1.763  0.0492 -0.5283 -0.4825
  537SOL    HW1 1610   2.967   2.675   1.694 -0.8675 -1.4306  1.7532
  537SOL    HW2 1611   3.077   2.654   1.818  0.4890 -1.4732  0.4779
  538SOL     OW 1612   0.364   2.189   0.440 -0.1364  0.1421  0.5101
  538SOL    HW1 1613   0.297   2.220   0.510  1.6583 -2.1437  1.0625
  538SOL    HW2 1614   0.321   2.099   0.399 -1.9117 -1.6216 -1.6747
  539SOL     OW 1615   2.383   1.104   2.376 -0.4511  0.1461  0.0249
  539SOL    HW1 1616   2.404   1.150   2.465 -0.5785 -1.7455 -3.9192
  539SOL    HW2 1617   2.470   1.112   2.319  2.5493  1.5514  2.8436
  540SOL     OW 1618   1.929   0.743   0.001  0.0050  0.3849 -0.4219
  540SOL    HW1 1619   1.942   0.763   3.019 -1.7616  1.5677  2.9708
  540SOL    HW2 1620   1.900   0.827   0.051  0.2675  0.9301  0.7104
  541SOL     OW 1621   0.652   0.578   2.481 -0.0559 -0.1994 -0.4633
  541SOL    HW1 1622   0.554   0.552   2.481  0.3601  1.8830  0.0020
  541SOL    HW2 1623   0.681   0.625   2.568  4.0198 -0.2856  3.1282
  542SOL     OW 1624   1.594   2.557   2.006 -0.0615 -0.3864  0.0806
  542SOL    HW1 1625   1.523   2.628   1.981 -0.7195  0.6500  2.2205
  542SOL    HW2 1626   1.665   2.543   1.935 -0.7250 -3.0774  3.4139
  543SOL     OW 1627   0.781   2.722   0.368  0.0535  0.1709 -0.2226
  543SOL    HW1 1628   0.745   2.649   0.302 -0.4162  0.5669 -0.1282
  543SOL    HW2 1629   0.774   2.688   0.463  2.4017 -1.7784 -0.0363
  544SOL     OW 1630   2.916   1.817   2.397  0.2267 -0.4071  0.0210
  544SOL    HW1 1631   2.851   1.876   2.344  2.6835 -3.1772 -1.4374
  544SOL    HW2 1632   3.010   1.822   2.357 -0.1859  1.6183 -1.9749
  545SOL     OW 1633   1.412   1.726   1.953  0.8455  0.1228 -0.1350
  545SOL    HW1 1634   1.402   1.644   2.010  2.3452 -0.8648  2.8759
  545SOL    HW2 1635   1.333   1.732   1.888  2.0091 -0.8651 -1.2415
  546SOL     OW 1636   0.146   0.219   2.457  0.1327  0.2728 -0.4931
  546SOL    HW1 1637   0.196   0.206   2.372 -1.9265  0.1379  1.2002
  546SOL    HW2 1638   0.149   0.133   2.502 -2.9526  3.0137 -0.7128
  547SOL     OW 1639   1.152   0.258   0.780  0.4991  0.1168 -0.3276
  547SOL    HW1 1640   1.114   0.348   0.748  0.6423  1.7786 -2.1886
  547SOL    HW2 1641   1.215   0.214   0.715 -1.8231  0.7294  2.1928
  548SOL     OW 1642   1.414   2.051   3.040  0.1139 -1.1069  0.0282
  548SOL    HW1 1643   1.471   2.003   3.111  0.2944 -2.7939  0.3333
  548SOL    HW2 1644   1.472   2.099   2.974  0.5974  0.1546  1.0486
  549SOL     OW 1645   2.419   0.906   0.242  0.5119  0.6222 -0.2454
  549SOL    HW1 1646   2.357   0.986   0.236  1.4138  1.1057  1.7740
  549SOL    HW2 1647   2.497   0.916   0.310 -0.0029 -0.9566 -2.0521
  550SOL     OW 1648   2.636   2.253   0.817  0.1660  0.0804  0.4798
  550SOL    HW1 1649   2.571   2.311   0.773  0.2511  0.3393  3.8933
  550SOL    HW2 1650   2.625   2.257   0.921 -0.2403 -0.3767  1.1772
  551SOL     OW 1651   0.866   0.526   1.409 -0.1261  0.3683  0.0283
  551SOL    HW1 1652   0.913   0.460   1.346  1.0549  1.1850 -2.5409
  551SOL    HW2 1653   0.918   0.558   1.488  2.7157  2.0933  2.6375
  552SOL     OW 1654   3.107   1.696   2.808 -0.1488  1.2325 -0.2993
  552SOL    HW1 1655   3.075   1.609   2.774  2.8619  2.5331  1.9308
  552SOL    HW2 1656   0.084   1.693   2.845  0.3560  4.3953 -0.8970
  553SOL     OW 1657   2.546   2.745   0.624 -0.0299  0.2909 -0.6442
  553SOL    HW1 1658   2.635   2.778   0.580  1.7163  3.0399 -3.2261
  553SOL    HW2 1659   2.467   2.764   0.560 -3.1224  0.4055 -0.8256
  554SOL     OW 1660   2.013   1.004   1.461 -0.2909 -0.0249 -0.7588
  554SOL    HW1 1661   2.103   0.988   1.424  0.3177  0.6873 -1.0282
  554SOL    HW2 1662   2.000   1.086   1.528 -2.7302 -0.4464  2.4108
  555SOL     OW 1663   1.274   2.094   2.172 -0.2668  0.0906 -0.0744
  555SOL    HW1 1664   1.335   2.084   2.088  1.3039 -1.2709 -2.6342
  555SOL    HW2 1665   1.320   2.147   2.251  2.6492  0.8258 -0.8576
  556SOL     OW 1666   0.799   1.251   1.806 -0.0610 -0.0079  0.1261
  556SOL    HW1 1667   0.874   1.235   1.736  4.1102  0.1544 -0.9775
  556SOL    HW2 1668   0.807   1.190   1.890 -2.4936 -1.7667  0.3265
  557SOL     OW 1669   1.439   0.002   1.551 -0.1586  0.1955  0.1963
  557SOL    HW1 1670   1.399   3.023   1.535 -1.3030 -0.5933  2.0727
  557SOL    HW2 1671   1.411   0.042   1.641 -0.7987  1.9088 -0.1247
  558SOL     OW 1672   0.771   3.074   2.265  0.6068  0.2998  0.0656
  558SOL    HW1 1673   0.811   3.105   2.355 -0.6280 -0.1016 -3.1760
  558SOL    HW2 1674   0.838   3.020   2.207 -1.4306 -3.0324 -0.6917
  559SOL     OW 1675   1.714   2.700   0.306 -0.5690 -0.2050 -0.0209
  559SOL    HW1 1676   1.627   2.684   0.253  0.8936  0.7499 -0.5844
  559SOL    HW2 1677   1.727   2.627   0.372  0.4171  2.0515 -1.4816
  560SOL     OW 1678   1.624   2.087   0.226 -0.4892  0.4882 -0.2440
  560SOL    HW1 1679   1.596   2.013   0.162  0.7244  1.1918 -0.9708
  560SOL    HW2 1680   1.600   2.174   0.178  1.4087  0.4431 -2.6212
  561SOL     OW 1681   1.546   0.238   0.703 -0.2127  0.0908 -0.0950
  561SOL    HW1 1682   1.565   0.137   0.708  0.8415 -0.5637 -1.7518
  561SOL    HW2 1683   1.608   0.260   0.628  0.6638  2.4129  0.9243
  562SOL     OW 1684   0.310   1.090   2.060  0.1306 -0.3006  0.3680
  562SOL    HW1 1685   0.369   1.142   1.997 -0.4776  0.4876  0.5336
  562SOL    HW2 1686   0.354   1.008   2.105 -0.7833 -0.5659 -0.2636
  563SOL     OW 1687   1.475   2.266   2.650  0.3472 -0.2318  0.3612
  563SOL    HW1 1688   1.401   2.218   2.595 -0.1353  1.8930 -1.6440
  563SOL    HW2 1689   1.533   2.201   2.705 -0.8925 -1.3533  2.6544
  564SOL     OW 1690   2.863   0.877   0.982  0.4217 -0.3194 -0.8549
  564SOL    HW1 1691   2.897   0.807   1.046 -0.8230 -0.4083 -1.0993
  564SOL    HW2 1692   2.911   0.866   0.891 -0.4460 -0.1024  0.1773
  565SOL     OW 1693   0.927   1.061   3.110 -0.4893  0.6083  0.1264
  565SOL    HW1 1694   0.896   1.156   3.090 -2.0194  1.3980 -1.4030
  565SOL    HW2 1695   1.030   1.052   3.099 -0.0108  0.9956 -1.3339
  566SOL     OW 1696   2.321   2.651   3.084 -0.2473  0.1684  0.7832
  566SOL    HW1 1697   2.375   2.601   0.041  1.1125 -3.4759  2.3191
  566SOL    HW2 1698   2.344   2.754   3.084  0.8971  0.7806  0.4293
  567SOL     OW 1699   1.395   1.114   1.361 -0.5764  0.1655 -0.2999
  567SOL    HW1 1700   1.388   1.216   1.372  2.3638 -1.8711 -1.1380
  567SOL    HW2 1701   1.475   1.084   1.414  1.7859  1.2944 -0.5126
  568SOL     OW 1702   1.461   1.177   2.648 -0.2745  0.3413  0.0993
  568SOL    HW1 1703   1.528   1.123   2.702  2.5507 -1.4375 -0.8038
  568SOL    HW2 1704   1.492   1.169   2.552  0.5701  0.6203 -1.0164
  569SOL     OW 1705   1.882   1.828   0.674  0.0117  0.4244 -0.1600
  569SOL    HW1 1706   1.977   1.855   0.662  0.1305  0.8983 -0.1749
  569SOL    HW2 1707   1.822   1.896   0.724  0.6343 -0.5991 -1.3613
  570SOL     OW 1708   2.739   2.017   2.279 -0.6468  0.0484  0.2828
  570SOL    HW1 1709   2.722   2.085   2.208 -5.2301  0.2434 -2.1868
  570SOL    HW2 1710   2.795   2.056   2.355  1.4506 -2.7593 -0.8296
  571SOL     OW 1711   2.860   1.838   1.735 -0.1173  0.3165  0.6806
  571SOL    HW1 1712   2.865   1.870   1.638 -1.3684  1.9694  0.2254
  571SOL    HW2 1713   2.910   1.903   1.792  0.6906  0.7003  0.3490
  572SOL     OW 1714   1.476   2.630   0.180 -0.0457 -0.8074 -0.1321
  572SOL    HW1 1715   1.395   2.659   0.235  3.9858  1.1072  0.2811
  572SOL    HW2 1716   1.480   2.530   0.170 -0.3066  0.5139 -0.8952
  573SOL     OW 1717   1.617   1.771   1.156 -0.1125 -0.1864  0.4166
  573SOL    HW1 1718   1.553   1.799   1.082  1.3304  1.4500  1.5892
  573SOL    HW2 1719   1.651   1.681   1.133  0.2153  1.2997 -0.9943
  574SOL     OW 1720   1.050   3.101   1.317 -0.2400 -0.1873  0.0605
  574SOL    HW1 1721   1.129   0.052   1.307 -0.3131  2.1048 -0.5194
  574SOL    HW2 1722   1.067   3.038   1.392 -1.8562 -0.3629  0.3658
  575SOL     OW 1723   0.777   0.668   1.198 -0.1257  0.0194  0.6078
  575SOL    HW1 1724   0.823   0.744   1.142 -0.0200  0.3664  0.6834
  575SOL    HW2 1725   0.828   0.641   1.278  0.9440 -0.3199  2.4638
  576SOL     OW 1726   2.687   0.451   1.403 -0.0270  0.1846  0.0194
  576SOL    HW1 1727   2.627   0.507   1.345  0.3260 -0.4900 -1.3364
  576SOL    HW2 1728   2.749   0.515   1.451 -0.0820  0.1253  1.7503
  577SOL     OW 1729   2.429   0.641   2.911 -0.0200 -0.1267 -0.3396
  577SOL    HW1 1730   2.460   0.673   3.001 -0.8242  1.3712 -2.3310
  577SOL    HW2 1731   2.482   0.690   2.830  0.8692  0.8205 -1.8377
  578SOL     OW 1732   1.743   1.660   2.161 -0.5329  0.6215  0.3873
  578SOL    HW1 1733   1.814   1.607   2.222  0.6703  2.3385  1.4716
  578SOL    HW2 1734   1.782   1.750   2.131  2.9311  2.4172 -1.9946
  579SOL     OW 1735   0.724   1.455   0.883  0.1323  0.9930  0.0999
  579SOL    HW1 1736   0.702   1.501   0.791 -0.2157 -0.9983  0.1212
  579SOL    HW2 1737   0.712   1.517   0.967 -1.1963  1.4467  1.5450
  580SOL     OW 1738   1.365   2.418   3.031  0.0500 -0.3874  0.2492
  580SOL    HW1 1739   1.279   2.371   3.062 -2.2503  0.6685  0.4730
  580SOL    HW2 1740   1.360   2.422   2.927  2.0971  2.0306 -3.2618
  581SOL     OW 1741   0.883   0.584   2.068  0.8099 -0.1105  0.3569
  581SOL    HW1 1742   0.845   0.633   2.151  0.0648  0.1976  1.2340
  581SOL    HW2 1743   0.861   0.483   2.060  2.2841  0.0267 -0.5172
  582SOL     OW 1744   0.542   0.867   0.708  0.3266 -0.2493  0.0343
  582SOL    HW1 1745   0.471   0.881   0.638 -0.0508 -1.1281 -0.4223
  582SOL    HW2 1746   0.589   0.952   0.733 -0.7151  0.0016 -0.9730
  583SOL     OW 1747   1.022   1.694   1.998  0.0997 -0.3006 -0.0467
  583SOL    HW1 1748   1.070   1.724   2.084  2.6979 -0.5253  0.1405
  583SOL    HW2 1749   0.975   1.602   2.022 -1.8038 -1.0976  1.6209
  584SOL     OW 1750   2.336   2.801   0.480 -0.3676 -0.2469  0.5545
  584SOL    HW1 1751   2.293   2.739   0.414  1.3881  0.6335  3.7031
  584SOL    HW2 1752   2.295   2.895   0.471 -1.6627  0.5294 -2.3474
  585SOL     OW 1753   2.108   0.564   0.072 -0.1289  0.4022  0.1917
  585SOL    HW1 1754   2.036   0.631   0.041  2.5163  0.6578  1.2812
  585SOL    HW2 1755   2.162   0.603   0.149  2.6691 -2.1294  0.3105
  586SOL     OW 1756   0.387   1.673   0.329 -0.7214  0.6040 -0.1011
  586SOL    HW1 1757   0.337   1.625   0.403 -0.9616  1.5557  2.1589
  586SOL    HW2 1758   0.464   1.721   0.376  1.4148 -4.0585  0.2739
  587SOL     OW 1759   1.616   2.102   1.042  0.3913  0.4241  0.2586
  587SOL    HW1 1760   1.662   2.086   1.123  1.2627 -0.6120 -3.4621
  587SOL    HW2 1761   1.515   2.119   1.064 -2.1773 -1.2694  1.6804
  588SOL     OW 1762   0.499   0.604   0.797  0.2926 -0.5434 -0.4214
  588SOL    HW1 1763   0.531   0.564   0.887  2.2741 -1.1157  0.1220
  588SOL    HW2 1764   0.520   0.705   0.799  1.4301 -0.2965  0.4741
  589SOL     OW 1765   1.411   0.155   1.033 -0.4126  0.9848 -0.0819
  589SOL    HW1 1766   1.445   0.063   1.000  0.0688 -4.1678  0.7271
  589SOL    HW2 1767   1.366   0.138   1.127  3.3283 -0.8234  2.0401
  590SOL     OW 1768   1.458   0.784   0.325  0.3578  0.0718  0.0918
  590SOL    HW1 1769   1.540   0.845   0.311  4.0395 -0.2212 -0.5016
  590SOL    HW2 1770   1.440   0.738   0.234 -0.9667 -1.4781 -0.4404
  591SOL     OW 1771   2.395   2.386   1.678  0.1638  0.3379  0.0568
  591SOL    HW1 1772   2.475   2.439   1.715  0.7331  0.1950 -0.2605
  591SOL    HW2 1773   2.426   2.312   1.616 -1.2257  1.2360  0.7457
  592SOL     OW 1774   1.469   1.822   1.370  0.3035 -0.1487 -0.4057
  592SOL    HW1 1775   1.507   1.860   1.455 -0.3781  2.5769 -1.3268
  592SOL    HW2 1776   1.552   1.815   1.309  0.2224 -2.8376  3.0699
  593SOL     OW 1777   0.942   0.081   0.604  0.5786  0.3409  0.2599
  593SOL    HW1 1778   0.937   0.183   0.610 -0.7203 -2.1966  1.1799
  593SOL    HW2 1779   1.004   0.041   0.673 -2.3779  0.7949 -1.4555
  594SOL     OW 1780   0.158   0.904   1.896 -0.2419 -0.3904 -0.4443
  594SOL    HW1 1781   0.203   0.865   1.811  0.7969 -0.6901  1.3827
  594SOL    HW2 1782   0.212   0.976   1.948 -0.0902 -1.7514 -0.1154
  595SOL     OW 1783   2.890   2.805   0.872  0.2404 -0.1727 -0.9476
  595SOL    HW1 1784   2.871   2.897   0.828  1.9253  1.1901  1.3920
  595SOL    HW2 1785   2.985   2.778   0.836  1.9433 -0.6831  1.3230
  596SOL     OW 1786   3.060   0.490   1.661 -0.4579  0.0043 -0.2359
  596SOL    HW1 1787   3.055   0.570   1.729  0.5017  3.4851  1.1755
  596SOL    HW2 1788   3.065   0.405   1.715  0.3825  0.5362 -0.7331
  597SOL     OW 1789   2.037   1.382   0.864 -0.4385  0.6008  0.6552
  597SOL    HW1 1790   2.087   1.453   0.808  1.6285 -1.1321  1.2413
  597SOL    HW2 1791   1.941   1.376   0.853 -0.2179 -0.5216  1.3171
  598SOL     OW 1792   0.809   0.002   1.937  0.1546 -0.1467  0.4401
  598SOL    HW1 1793   0.842   0.053   2.016  1.6292  0.1382  3.1120
  598SOL    HW2 1794   0.721   0.044   1.898  0.3581 -0.7840 -0.7886
  599SOL     OW 1795   2.632   1.747   3.032  0.4863 -0.1754  0.1165
  599SOL    HW1 1796   2.686   1.661   3.038 -0.8507  0.8808 -2.3850
  599SOL    HW2 1797   2.545   1.735   2.976 -0.7340 -0.9359 -1.2736
  600SOL     OW 1798   0.819   0.849   2.983 -0.2240  0.4555  0.0631
  600SOL    HW1 1799   0.728   0.870   2.941  3.4278  0.5169 -3.0435
  600SOL    HW2 1800   0.862   0.940   3.012 -1.3266  2.2921  2.2551
  601SOL     OW 1801   1.167   1.104   2.685 -0.0229 -0.1062  0.6304
  601SOL    HW1 1802   1.269   1.118   2.685 -1.4869  2.2995  0.3696
  601SOL    HW2 1803   1.120   1.195   2.704 -1.4123  1.9699  1.7718
  602SOL     OW 1804   1.320   2.770   1.282  0.3779 -0.1337 -0.5572
  602SOL    HW1 1805   1.341   2.674   1.255 -0.3806  2.0821  0.5548
  602SOL    HW2 1806   1.377   2.840   1.228 -2.0621 -1.8091 -1.4842
  603SOL     OW 1807   1.058   2.932   2.552 -0.5568 -0.0629 -0.5155
  603SOL    HW1 1808   1.053   2.898   2.648 -1.3737  0.2794  0.5691
  603SOL    HW2 1809   1.100   2.864   2.490  2.2819 -1.9578  1.5117
  604SOL     OW 1810   3.013   0.175   2.377 -0.1480 -0.1155  1.1388
  604SOL    HW1 1811   2.972   0.100   2.434 -0.1502  1.2462 -1.6702
  604SOL    HW2 1812   3.113   0.190   2.399 -0.3192 -2.1510  0.3426
  605SOL     OW 1813   2.397   2.508   1.388  0.4891  0.0950  0.7671
  605SOL    HW1 1814   2.312   2.485   1.439 -1.6764  2.0779 -3.5911
  605SOL    HW2 1815   2.381   2.587   1.329 -1.3804 -1.1522 -0.8122
  606SOL     OW 1816   0.252   1.674   2.950  0.3476  0.4641  0.0696
  606SOL    HW1 1817   0.203   1.597   2.998 -2.9287  2.2185 -1.3680
  606SOL    HW2 1818   0.304   1.732   3.018  1.7693  1.5647 -0.3527
  607SOL     OW 1819   1.081   0.549   0.382  0.0057  0.0676 -0.3042
  607SOL    HW1 1820   1.146   0.483   0.348 -2.6239  1.2164  0.8681
  607SOL    HW2 1821   1.059   0.627   0.321  1.2272 -4.2425 -0.6245
  608SOL     OW 1822   1.719   1.326   2.567  0.2274 -0.1077  0.4519
  608SOL    HW1 1823   1.662   1.269   2.508 -0.2274  1.1339  1.3235
  608SOL    HW2 1824   1.680   1.422   2.574  0.4042  2.0674 -1.7697
  609SOL     OW 1825   2.645   0.595   0.989 -0.2444  1.1097  0.1220
  609SOL    HW1 1826   2.648   0.666   0.912  0.2189  1.6368 -0.6308
  609SOL    HW2 1827   2.585   0.513   0.966  0.9000 -2.5713 -0.9108
  610SOL     OW 1828   0.493   2.406   2.988  0.0975 -0.2363  0.1418
  610SOL    HW1 1829   0.589   2.393   3.018 -1.1542  0.5465  1.2961
  610SOL    HW2 1830   0.432   2.340   3.035  1.3603  0.2253  0.8043
  611SOL     OW 1831   1.784   1.430   0.519  0.1380  0.3013 -0.0406
  611SOL    HW1 1832   1.837   1.512   0.499 -0.4518  0.4167  1.3354
  611SOL    HW2 1833   1.686   1.442   0.498  4.4690  0.8329  3.0158
  612SOL     OW 1834   1.012   2.461   2.503  0.0006 -0.5628 -0.0286
  612SOL    HW1 1835   1.105   2.441   2.464  1.8022  0.3545  0.6337
  612SOL    HW2 1836   0.941   2.483   2.433 -1.8743 -0.3665 -0.3595
  613SOL     OW 1837   1.296   1.582   3.053  0.2312 -0.3267 -0.7366
  613SOL    HW1 1838   1.334   1.574   0.030 -0.9648 -2.6498 -1.5473
  613SOL    HW2 1839   1.351   1.656   3.007  1.2709  0.2044 -0.4773
  614SOL     OW 1840   2.678   2.457   1.773 -0.4037 -0.1927 -0.4040
  614SOL    HW1 1841   2.712   2.469   1.871 -1.7280 -1.1318  2.2678
  614SOL    HW2 1842   2.729   2.382   1.728 -1.9560 -0.5108  1.1646
  615SOL     OW 1843   2.314   1.375   0.048  0.3847 -0.6811 -0.3477
  615SOL    HW1 1844   2.240   1.416   3.108 -0.3070  1.0858  0.6147
  615SOL    HW2 1845   2.399   1.363   3.109 -3.9000 -1.1627  0.3221
  616SOL     OW 1846   1.679   0.319   0.937 -0.1908  0.0152 -0.5775
  616SOL    HW1 1847   1.652   0.337   1.032  0.0951  2.0600 -3.0909
  616SOL    HW2 1848   1.595   0.291   0.886 -0.4891 -1.9143  0.1572
  617SOL     OW 1849   0.624   0.991   2.848  0.2387  0.0484  0.0800
  617SOL    HW1 1850   0.563   0.948   2.776 -0.3755 -0.5664 -1.0779
  617SOL    HW2 1851   0.691   1.057   2.802  1.3465 -0.8385 -3.1469
  618SOL     OW 1852   0.774   0.749   1.855  0.8301 -0.1755 -0.2684
  618SOL    HW1 1853   0.809   0.841   1.838 -0.8257 -3.5204 -1.0780
  618SOL    HW2 1854   0.809   0.709   1.942 -1.5549  1.6738 -1.3778
  619SOL     OW 1855   0.283   0.808   1.670  0.2250  0.5614 -0.8639
  619SOL    HW1 1856   0.210   0.781   1.606  2.8803 -2.4438  2.8619
  619SOL    HW2 1857   0.368   0.760   1.649 -2.0681  2.1639 -2.0518
  620SOL     OW 1858   1.956   1.157   0.109  0.6254  0.2259  0.7504
  620SOL    HW1 1859   1.874   1.095   0.088 -1.8085 -4.2200 -4.4358
  620SOL    HW2 1860   1.996   1.199   0.026  0.4211 -1.2634  0.1432
  621SOL     OW 1861   2.780   3.005   1.124 -0.2731 -0.1362 -0.2415
  621SOL    HW1 1862   2.846   2.962   1.061 -0.0376  0.9011  1.2961
  621SOL    HW2 1863   2.751   3.099   1.101 -1.4129 -0.1225 -0.1510
  622SOL     OW 1864   1.466   0.820   2.051 -0.2700  0.0569  0.5403
  622SOL    HW1 1865   1.558   0.796   2.090 -0.6665  0.2658  0.6489
  622SOL    HW2 1866   1.395   0.765   2.097  1.1996  2.6226  0.9565
  623SOL     OW 1867   0.957   0.414   2.741  0.1182 -0.0014  0.0590
  623SOL    HW1 1868   0.880   0.343   2.745  2.0852 -1.3397  1.9371
  623SOL    HW2 1869   0.942   0.498   2.793  0.2443 -1.2801 -1.4103
  624SOL     OW 1870   1.637   0.319   0.412 -0.1910 -0.3279  0.2067
  624SOL    HW1 1871   1.553   0.373   0.427  0.1885 -1.6928  0.2409
  624SOL    HW2 1872   1.715   0.365   0.460 -1.3018 -0.7512 -2.3322
  625SOL     OW 1873   0.880   1.240   0.838  0.1463 -0.0625  0.1210
  625SOL    HW1 1874   0.975   1.269   0.800 -1.3288  0.4721 -0.1220
  625SOL    HW2 1875   0.819   1.322   0.848 -0.2957  2.1728 -0.5728
  626SOL     OW 1876   1.491   1.060   3.111 -0.3929 -1.0425 -0.0311
  626SOL    HW1 1877   1.481   1.151   3.061  0.3189 -0.1629 -0.4018
  626SOL    HW2 1878   1.473   0.977   3.057  0.1253  4.1646  1.3027
  627SOL     OW 1879   1.060   3.053   1.827  0.2075 -0.9036 -0.6401
  627SOL    HW1 1880   1.132   3.079   1.893  0.9344  0.2654  0.5233
  627SOL    HW2 1881   0.980   0.001   1.834 -0.8491  1.2988  0.8946
  628SOL     OW 1882   2.533   0.374   2.081 -0.0482  0.2417 -0.3038
  628SOL    HW1 1883   2.485   0.293   2.115  1.6116  2.2879 -0.8579
  628SOL    HW2 1884   2.472   0.455   2.063 -2.5809 -2.1969 -1.7451
  629SOL     OW 1885   0.766   1.248   2.826 -0.2251 -0.1278 -0.1670
  629SOL    HW1 1886   0.763   1.293   2.915  0.5091  0.2025  0.6402
  629SOL    HW2 1887   0.729   1.309   2.754 -1.6061 -1.4281 -0.7577
  630SOL     OW 1888   1.099   0.260   2.304  0.2940  0.0573  0.2900
  630SOL    HW1 1889   1.120   0.353   2.338 -0.5556 -2.9146  0.5884
  630SOL    HW2 1890   1.098   0.190   2.376  1.4063 -1.4092  0.4250
  631SOL     OW 1891   2.640   1.177   0.844 -0.0672 -0.6209  0.7710
  631SOL    HW1 1892   2.726   1.230   0.851 -1.0242  0.4264 -1.3909
  631SOL    HW2 1893   2.602   1.150   0.937 -2.5921  0.4915  1.9181
  632SOL     OW 1894   2.461   1.410   0.880 -0.1450 -0.5555  0.9967
  632SOL    HW1 1895   2.506   1.352   0.813 -0.9270 -1.5831 -0.9859
  632SOL    HW2 1896   2.526   1.478   0.906 -1.7870  0.1562  0.0463
  633SOL     OW 1897   1.367   0.894   1.171 -0.0828  0.4591  0.5053
  633SOL    HW1 1898   1.373   0.925   1.070  0.6713  2.1913  0.0911
  633SOL    HW2 1899   1.376   0.972   1.237 -1.4520 -1.4948 -0.9592
  634SOL     OW 1900   1.852   0.120   0.861 -0.0207  0.6324 -0.4785
  634SOL    HW1 1901   1.785   0.194   0.874 -0.4861 -2.9764 -0.5040
  634SOL    HW2 1902   1.897   0.091   0.952  3.9585 -0.9974  2.5033
  635SOL     OW 1903   1.732   0.491   1.449 -0.0824  0.1229  0.0723
  635SOL    HW1 1904   1.778   0.566   1.399  1.2876 -1.1500  1.5525
  635SOL    HW2 1905   1.663   0.534   1.510  0.7854  0.0994 -0.1028
  636SOL     OW 1906   1.079   0.999   0.551 -0.5008 -0.0015  0.2159
  636SOL    HW1 1907   1.083   1.029   0.453  1.6946  0.4674 -1.8576
  636SOL    HW2 1908   1.009   0.928   0.564 -0.9227  0.4897 -1.0352
  637SOL     OW 1909   1.565   2.316   0.084 -0.0795  0.1714 -0.5547
  637SOL    HW1 1910   1.493   2.360   0.022 -1.1101 -0.7483 -0.9279
  637SOL    HW2 1911   1.653   2.314   0.027  2.4866 -0.4823 -2.0147
  638SOL     OW 1912   1.049   2.806   3.082 -0.2813  0.2721 -0.7353
  638SOL    HW1 1913   0.982   2.868   0.021  0.3929  2.4006  1.1528
  638SOL    HW2 1914   1.028   2.707   3.095  0.1985 -2.1612 -1.2746
  639SOL     OW 1915   0.931   1.957   1.380  0.3471  0.1732 -0.1367
  639SOL    HW1 1916   0.957   1.959   1.281  0.0950  3.7188 -0.4205
  639SOL    HW2 1917   0.859   1.891   1.396  1.0855  0.5531  2.9144
  640SOL     OW 1918   0.343   3.007   0.385 -0.2537  0.3490 -0.0134
  640SOL    HW1 1919   0.376   2.917   0.418  1.4333 -2.4892 -1.0386
  640SOL    HW2 1920   0.411   3.044   0.318 -0.8272  1.7824 -0.2404
  641SOL     OW 1921   0.140   0.295   0.201 -0.0923 -0.1606  0.4389
  641SOL    HW1 1922   0.163   0.247   0.290  2.0537  0.0847 -0.2562
  641SOL    HW2 1923   0.211   0.361   0.171 -1.6974 -5.0869  0.0179
  642SOL     OW 1924   0.307   1.709   1.045  0.0609  0.7130  0.0517
  642SOL    HW1 1925   0.344   1.751   0.961  2.3994  0.1969  0.9772
  642SOL    HW2 1926   0.203   1.717   1.054 -3.3614  1.0053  2.8688
  643SOL     OW 1927   0.950   1.821   2.364 -0.2339 -0.6020  0.0626
  643SOL    HW1 1928   1.044   1.794   2.392 -0.7779 -1.2185  1.1572
  643SOL    HW2 1929   0.954   1.902   2.296  0.4763  2.0683 -2.6074
  644SOL     OW 1930   1.784   2.495   0.485  0.2872  0.5920  0.5140
  644SOL    HW1 1931   1.752   2.402   0.452  0.4028  0.2380 -2.5398
  644SOL    HW2 1932   1.742   2.516   0.573 -0.0742  1.2940  0.2453
  645SOL     OW 1933   1.757   2.232   1.457  0.3888 -0.2999 -0.2158
  645SOL    HW1 1934   1.767   2.198   1.552 -2.2574  0.7720 -3.1258
  645SOL    HW2 1935   1.808   2.182   1.388 -0.6270  1.3323 -0.4137
  646SOL     OW 1936   1.038   2.803   0.404 -0.1247 -0.5240 -0.3989
  646SOL    HW1 1937   1.024   2.906   0.402 -0.5613 -5.2512  0.7134
  646SOL    HW2 1938   0.950   2.761   0.376  0.9065  0.6387  1.2309
  647SOL     OW 1939   0.596   3.016   1.734  0.3308  0.0236  0.0744
  647SOL    HW1 1940   0.633   2.924   1.760 -1.0847 -0.3044  1.5837
  647SOL    HW2 1941   0.507   3.011   1.685  0.6659 -0.7121 -0.2667
  648SOL     OW 1942   2.583   1.064   0.573 -0.7617 -0.4466  0.7667
  648SOL    HW1 1943   2.493   1.018   0.571  0.5242  1.0187 -0.0111
  648SOL    HW2 1944   2.605   1.066   0.677 -1.3695  0.1909  0.6390
  649SOL     OW 1945   1.772   2.527   2.821  0.0121  0.5042  0.6528
  649SOL    HW1 1946   1.748   2.473   2.740 -0.4866  1.7195  0.2111
  649SOL    HW2 1947   1.756   2.626   2.806  2.1722  2.2050  1.4473
  650SOL     OW 1948   2.297   1.254   2.001 -0.0505  0.3428 -0.2374
  650SOL    HW1 1949   2.343   1.326   2.058  1.0463  2.2930 -1.4738
  650SOL    HW2 1950   2.259   1.185   2.062 -1.3352  0.9185 -0.7939
  651SOL     OW 1951   1.520   1.558   2.830 -0.4081 -0.2752  0.3549
  651SOL    HW1 1952   1.555   1.522   2.921 -0.4088 -0.4368  2.0686
  651SOL    HW2 1953   1.482   1.652   2.833  0.8071 -0.8932  0.5335
  652SOL     OW 1954   0.629   3.016   2.679  0.6948 -0.8194 -0.1789
  652SOL    HW1 1955   0.616   2.928   2.732 -0.8889 -1.3075 -2.4601
  652SOL    HW2 1956   0.548   3.078   2.701 -0.5918  1.4557  1.8475
  653SOL     OW 1957   2.285   2.188   0.917 -0.5216 -0.4623  0.0299
  653SOL    HW1 1958   2.357   2.114   0.923 -1.8156  0.4245  1.3889
  653SOL    HW2 1959   2.206   2.182   0.981  0.4893  0.4070 -0.3698
  654SOL     OW 1960   2.753   2.925   2.105 -0.1310 -0.0915 -0.1250
  654SOL    HW1 1961   2.708   2.990   2.164 -0.2985  0.5985 -0.0115
  654SOL    HW2 1962   2.779   2.958   2.010 -0.5903  0.1555 -1.7656
  655SOL     OW 1963   2.739   2.070   1.253 -0.0709 -0.0761 -0.3662
  655SOL    HW1 1964   2.704   2.140   1.187  1.7672 -2.0673 -0.6631
  655SOL    HW2 1965   2.747   2.099   1.347 -3.0222 -2.2290 -2.3317
  656SOL     OW 1966   3.001   1.917   2.660 -0.7756 -0.3715  0.3991
  656SOL    HW1 1967   2.969   1.883   2.571  2.6170  1.1129  0.2435
  656SOL    HW2 1968   3.050   1.837   2.706  0.2228 -5.0243 -0.4765
  657SOL     OW 1969   3.022   1.077   0.119 -0.2308  0.0024  0.0280
  657SOL    HW1 1970   2.924   1.044   0.133 -1.9729 -2.6981  1.9571
  657SOL    HW2 1971   3.089   0.999   0.109  1.7004 -0.1638 -1.8614
  658SOL     OW 1972   1.356   1.380   1.412 -0.3715  0.2806 -0.3712
  658SOL    HW1 1973   1.436   1.429   1.445 -2.3063 -2.5370 -2.5962
  658SOL    HW2 1974   1.297   1.446   1.359 -2.7826 -0.2527  1.4306
  659SOL     OW 1975   0.958   0.315   1.261 -0.1622  0.4289 -0.6485
  659SOL    HW1 1976   0.947   0.253   1.178  0.0201 -1.2011 -3.3343
  659SOL    HW2 1977   0.972   0.261   1.346 -2.1483  0.1560  1.9496
  660SOL     OW 1978   2.087   1.183   1.036  0.0115  0.1822 -0.3910
  660SOL    HW1 1979   2.072   1.269   0.984  0.2324  0.6017  1.2263
  660SOL    HW2 1980   2.016   1.171   1.104  0.2676  1.4974 -0.4444
  661SOL     OW 1981   0.323   1.433   0.160  0.1971 -0.2429  0.2650
  661SOL    HW1 1982   0.387   1.493   0.215 -0.7927 -2.9067  1.8866
  661SOL    HW2 1983   0.242   1.482   0.135  1.7692 -0.5006 -1.9345
  662SOL     OW 1984   2.626   0.710   2.070  0.3479  0.1788  0.3787
  662SOL    HW1 1985   2.637   0.645   2.150 -0.5279  0.9144  1.4069
  662SOL    HW2 1986   2.664   0.667   1.985  0.4315 -2.1250 -0.4613
  663SOL     OW 1987   2.318   1.477   1.476 -0.0686 -0.8521 -0.0011
  663SOL    HW1 1988   2.350   1.533   1.396  0.0425  0.0554  0.1413
  663SOL    HW2 1989   2.391   1.477   1.551 -0.4306  0.2868  0.4782
  664SOL     OW 1990   0.591   0.046   1.417 -0.1225  0.0313  0.2398
  664SOL    HW1 1991   0.581   0.110   1.496  1.8379  2.0959 -0.0310
  664SOL    HW2 1992   0.619   0.091   1.330  1.5457 -0.9729 -0.2199
  665SOL     OW 1993   1.553   0.123   3.000  0.2913 -0.4468 -0.0118
  665SOL    HW1 1994   1.645   0.175   2.999  4.0549  2.1472  1.4873
  665SOL    HW2 1995   1.564   0.044   3.065 -0.7534 -2.5883  2.8505
  666SOL     OW 1996   0.472   0.136   1.836  0.0504  0.7239 -0.5344
  666SOL    HW1 1997   0.484   0.166   1.737  2.2982 -1.2755 -5.5416
  666SOL    HW2 1998   0.514   0.045   1.850  0.2374  1.4670  1.1045
  667SOL     OW 1999   1.796   1.523   1.914 -0.4863 -0.8708 -0.3202
  667SOL    HW1 2000   1.894   1.543   1.906 -0.4949 -0.5456 -1.1193
  667SOL    HW2 2001   1.760   1.570   2.000  0.3425  0.2524  2.1774
  668SOL     OW 2002   0.209   1.612   2.455 -0.4488 -0.1361  0.8807
  668SOL    HW1 2003   0.251   1.550   2.525 -0.2678  2.0093  2.2187
  668SOL    HW2 2004   0.159   1.559   2.382 -0.3498  0.7657  3.6026
  669SOL     OW 2005   2.275   3.088   2.742  0.0118 -0.1477 -0.7211
  669SOL    HW1 2006   2.298   2.994   2.741 -0.2407  2.7173  2.8235
  669SOL    HW2 2007   2.336   0.022   2.807  0.0051 -0.2667 -2.0858
  670SOL     OW 2008   2.608   1.172   2.229 -0.0986  0.0307 -0.3185
  670SOL    HW1 2009   2.666   1.114   2.286 -1.2754  2.0169 -1.5456
  670SOL    HW2 2010   2.642   1.265   2.217 -1.2835  0.3289 -3.8202
  671SOL     OW 2011   2.483   1.886   0.343  0.2304 -0.2686 -0.1448
  671SOL    HW1 2012   2.571   1.842   0.317  0.7806 -0.6344 -0.7665
  671SOL    HW2 2013   2.496   1.956   0.416 -0.8310 -0.2602 -1.0993
  672SOL     OW 2014   1.498   1.229   2.155  0.3003 -0.5738 -0.1415
  672SOL    HW1 2015   1.560   1.258   2.078 -1.4004 -1.0750 -0.1411
  672SOL    HW2 2016   1.418   1.178   2.119 -1.3824 -0.2867 -0.4468
  673SOL     OW 2017   3.105   1.927   1.488  0.6693 -0.3437  0.1794
  673SOL    HW1 2018   0.068   1.931   1.421  3.1052  0.8151 -0.8539
  673SOL    HW2 2019   0.030   1.924   1.578  2.5788  1.8191 -1.6137
  674SOL     OW 2020   1.184   1.699   1.781  0.3620  0.0345 -0.2912
  674SOL    HW1 2021   1.129   1.705   1.872  1.9640  2.5528  2.3098
  674SOL    HW2 2022   1.155   1.777   1.722 -1.9131  1.5299  2.6668
  675SOL     OW 2023   3.069   0.824   0.790 -0.0023 -0.5371  0.0842
  675SOL    HW1 2024   0.026   0.891   0.755  1.4321  0.1942 -0.3141
  675SOL    HW2 2025   3.111   0.735   0.805  1.1879  1.8796  0.3596
  676SOL     OW 2026   3.107   1.357   0.938 -0.4062  0.2321 -0.1699
  676SOL    HW1 2027   0.085   1.353   0.901 -2.3852  1.6529  1.9739
  676SOL    HW2 2028   3.077   1.274   0.992  0.0115 -2.2126  2.0521
  677SOL     OW 2029   1.611   1.760   2.396  0.0717 -0.6871  0.1196
  677SOL    HW1 2030   1.665   1.709   2.328 -0.2023 -2.7147 -1.1638
  677SOL    HW2 2031   1.608   1.703   2.481 -0.5347  0.9884  1.6040
  678SOL     OW 2032   2.681   1.568   0.849 -0.2733  0.3561  0.0858
  678SOL    HW1 2033   2.669   1.659   0.805 -0.6686 -1.4287  1.3805
  678SOL    HW2 2034   2.683   1.582   0.950  0.1658 -2.4756 -1.3147
  679SOL     OW 2035   0.700   2.645   0.609  0.4558 -0.0069  0.2366
  679SOL    HW1 2036   0.712   2.545   0.608 -0.9540 -2.5693  0.4161
  679SOL    HW2 2037   0.679   2.670   0.704  1.5964 -1.9939 -0.1770
  680SOL     OW 2038   0.175   1.888   1.287  0.0684 -0.1896 -0.0559
  680SOL    HW1 2039   0.117   1.961   1.243  2.4825  2.6759  0.7003
  680SOL    HW2 2040   0.137   1.796   1.266  0.8760 -0.7588  0.3413
  681SOL     OW 2041   1.079   0.506   1.036 -0.3004  0.8202 -0.5168
  681SOL    HW1 2042   1.034   0.429   1.087 -0.9182 -0.5706 -0.9262
  681SOL    HW2 2043   1.178   0.485   1.028  2.0064 -0.3304 -3.2080
  682SOL     OW 2044   1.603   2.807   1.514 -0.0974 -0.3197  0.0869
  682SOL    HW1 2045   1.504   2.835   1.497  1.1840 -0.4294  0.1616
  682SOL    HW2 2046   1.649   2.852   1.592  2.0933 -0.3598 -1.1392
  683SOL     OW 2047   2.513   1.484   1.663 -0.8404 -0.2422 -0.4898
  683SOL    HW1 2048   2.506   1.393   1.708 -0.3456 -0.7095  1.1115
  683SOL    HW2 2049   2.605   1.506   1.623  2.4996  0.6060  0.0269
  684SOL     OW 2050   0.118   1.602   1.803 -0.3379 -0.8029  0.4258
  684SOL    HW1 2051   0.102   1.522   1.742 -1.8080  2.2588  2.2733
  684SOL    HW2 2052   0.212   1.604   1.842  1.2618  0.0655  0.5559
  685SOL     OW 2053   1.831   1.884   0.308  0.1965  0.1456  0.2890
  685SOL    HW1 2054   1.760   1.954   0.280  0.4235 -0.1062 -1.1673
  685SOL    HW2 2055   1.850   1.896   0.407  0.4345  1.1558  0.9101
  686SOL     OW 2056   3.045   0.753   1.144 -0.2041 -0.1537  0.1598
  686SOL    HW1 2057   3.111   0.836   1.145  1.2018  0.6270  0.0578
  686SOL    HW2 2058   3.096   0.664   1.134  0.0231 -0.5856  0.8075
  687SOL     OW 2059   1.918   0.033   2.576  0.4204  0.2474 -0.4753
  687SOL    HW1 2060   1.977   0.110   2.616  0.0824  1.3034 -0.6501
  687SOL    HW2 2061   1.847   0.065   2.513  0.0300 -2.3838 -0.5818
  688SOL     OW 2062   1.268   2.170   2.483  0.4505 -0.2747 -0.4472
  688SOL    HW1 2063   1.333   2.106   2.439 -0.9409 -0.5763  0.1076
  688SOL    HW2 2064   1.168   2.150   2.456 -1.3206  0.4291  0.2647
  689SOL     OW 2065   2.109   1.280   1.817  0.0925  0.1557 -0.4386
  689SOL    HW1 2066   2.195   1.284   1.874 -1.7409  0.4506  1.2566
  689SOL    HW2 2067   2.063   1.194   1.836  0.1747  2.1738 -0.4907
  690SOL     OW 2068   1.912   1.782   1.495 -0.2730 -0.1178  0.0473
  690SOL    HW1 2069   1.821   1.835   1.503 -2.0738 -0.0136  2.7093
  690SOL    HW2 2070   1.901   1.721   1.413 -1.2839  1.7166 -3.7917
  691SOL     OW 2071   0.224   1.574   0.506  0.3225  0.1050  0.4678
  691SOL    HW1 2072   0.194   1.630   0.582 -0.9556 -2.0591  2.0339
  691SOL    HW2 2073   0.225   1.475   0.536 -2.5211  0.6554  2.3758
  692SOL     OW 2074   2.698   2.792   2.544 -0.8308 -0.6318 -0.4584
  692SOL    HW1 2075   2.600   2.815   2.528 -0.3995 -0.7449  0.1560
  692SOL    HW2 2076   2.742   2.741   2.471 -1.5168 -0.2562  2.7550
  693SOL     OW 2077   2.978   1.417   2.429 -0.2884  0.5046  0.1517
  693SOL    HW1 2078   2.906   1.486   2.454 -1.2380 -2.2878 -0.9085
  693SOL    HW2 2079   3.044   1.441   2.352  2.7344 -0.3900 -2.8761
  694SOL     OW 2080   2.392   0.147   1.848 -0.6273 -0.3997 -0.0325
  694SOL    HW1 2081   2.358   0.246   1.855  0.2085  3.2506 -1.1869
  694SOL    HW2 2082   2.323   0.100   1.789  3.2293  2.0875 -1.0940
  695SOL     OW 2083   1.073   0.731   2.340 -0.4823 -0.4286 -0.8271
  695SOL    HW1 2084   0.979   0.767   2.317 -2.7757  2.9474 -2.7459
  695SOL    HW2 2085   1.144   0.803   2.347  1.5094  1.5906 -0.9124
  696SOL     OW 2086   1.779   0.073   1.745  0.2279 -0.1052 -0.0042
  696SOL    HW1 2087   1.850   0.079   1.819  3.9779  2.0716  0.4992
  696SOL    HW2 2088   1.745   3.091   1.744  0.7753 -1.6093  0.2861
  697SOL     OW 2089   1.582   0.293   2.131  0.2592 -0.1441 -0.0115
  697SOL    HW1 2090   1.619   0.364   2.193 -0.4926 -0.0211  0.3706
  697SOL    HW2 2091   1.597   0.316   2.029 -0.8828 -1.3590 -1.0328
  698SOL     OW 2092   2.076   1.787   2.432  0.1899  0.1096 -0.2163
  698SOL    HW1 2093   2.132   1.854   2.477  1.0679 -0.3849 -0.2321
  698SOL    HW2 2094   2.029   1.825   2.352  2.0809 -0.7139  1.9869
  699SOL     OW 2095   2.248   0.698   0.261  0.6254 -0.3757 -0.5077
  699SOL    HW1 2096   2.168   0.745   0.302 -2.3194 -0.2059 -0.4785
  699SOL    HW2 2097   2.323   0.762   0.256 -3.1971  0.1720 -0.2198
  700SOL     OW 2098   1.316   0.140   0.596 -0.4429  0.1367 -0.3183
  700SOL    HW1 2099   1.390   0.196   0.642  0.4028  1.3136  2.9112
  700SOL    HW2 2100   1.345   0.090   0.514  1.0426 -0.5295 -2.1486
  701SOL     OW 2101   0.162   0.996   0.693  0.0398 -0.0923  0.0498
  701SOL    HW1 2102   0.231   0.937   0.644 -0.7514 -0.2861 -2.8069
  701SOL    HW2 2103   0.109   1.058   0.628  0.5714  1.6148 -1.0365
  702SOL     OW 2104   1.928   0.112   1.959  0.2325 -0.1707 -0.4417
  702SOL    HW1 2105   1.939   0.085   2.057 -2.8440 -1.3948  0.7647
  702SOL    HW2 2106   1.955   0.207   1.938  1.1300 -0.0099  0.6390
  703SOL     OW 2107   3.016   1.122   1.034  0.0386 -0.5138  0.1897
  703SOL    HW1 2108   2.958   1.058   0.977  1.6498  0.2704 -0.8256
  703SOL    HW2 2109   3.074   1.068   1.098  1.9850  2.0602  1.7343
  704SOL     OW 2110   0.822   2.520   1.278  0.2211 -0.2080  0.1300
  704SOL    HW1 2111   0.841   2.573   1.195  0.3475  0.2420  2.2893
  704SOL    HW2 2112   0.914   2.487   1.314  2.8850 -0.8675  0.1314
  705SOL     OW 2113   0.260   1.457   2.719 -0.3211  0.2221  0.2823
  705SOL    HW1 2114   0.297   1.361   2.702 -1.4690 -0.3591  1.0638
  705SOL    HW2 2115   0.324   1.508   2.780  3.2272  0.0537  1.3659
  706SOL     OW 2116   2.935   2.977   0.165 -0.1341 -0.0213 -0.2492
  706SOL    HW1 2117   2.876   2.894   0.159 -1.1064 -0.7081 -1.7780
  706SOL    HW2 2118   2.926   3.032   0.248 -0.6473 -0.8124  0.2969
  707SOL     OW 2119   1.560   2.895   2.237  0.3062  0.0601  0.2159
  707SOL    HW1 2120   1.560   2.996   2.218 -1.4073 -1.0349  1.0371
  707SOL    HW2 2121   1.492   2.848   2.175  1.3994 -2.3511 -0.0225
  708SOL     OW 2122   0.233   2.749   1.563  0.3815  0.5905  0.1319
  708SOL    HW1 2123   0.272   2.678   1.497 -2.4408 -2.4332  0.4198
  708SOL    HW2 2124   0.216   2.701   1.651 -2.5788 -1.3447  0.0824
  709SOL     OW 2125   2.979   0.673   1.834 -0.3301 -0.1446 -0.2562
  709SOL    HW1 2126   3.008   0.767   1.807  1.9053 -0.7196 -0.5192
  709SOL    HW2 2127   3.004   0.653   1.931 -1.8750  0.3552 -1.7614
  710SOL     OW 2128   0.293   0.968   0.961  0.1203  0.2156  0.2136
  710SOL    HW1 2129   0.397   0.987   0.971  0.3689  0.3875  0.0883
  710SOL    HW2 2130   0.266   0.995   0.862  0.8452  0.6812 -3.1507
  711SOL     OW 2131   2.799   2.840   1.343 -0.2172 -0.4281 -0.0848
  711SOL    HW1 2132   2.734   2.800   1.408  1.2133 -1.2187  0.1302
  711SOL    HW2 2133   2.758   2.891   1.268  1.6613 -3.2733  1.2349
  712SOL     OW 2134   0.219   2.723   2.473 -0.1112 -0.0070  0.7271
  712SOL    HW1 2135   0.203   2.671   2.557 -1.2128  1.5984 -1.8132
  712SOL    HW2 2136   0.262   2.813   2.497 -0.3878  2.9631  0.3684
  713SOL     OW 2137   2.417   0.337   0.751  0.1114  0.3693 -0.3836
  713SOL    HW1 2138   2.315   0.317   0.746 -1.6100 -2.0163 -1.1262
  713SOL    HW2 2139   2.439   0.427   0.721 -1.9363 -1.1945  0.6108
  714SOL     OW 2140   1.771   1.932   2.929 -0.2716  0.0497  0.0934
  714SOL    HW1 2141   1.823   1.890   3.009  4.5823 -0.3904  0.9315
  714SOL    HW2 2142   1.833   1.938   2.848 -0.0961 -2.4999 -1.7332
  715SOL     OW 2143   0.012   0.549   0.858 -0.8248 -0.4184 -0.4248
  715SOL    HW1 2144   0.058   0.562   0.948 -1.9515  1.8697  2.3266
  715SOL    HW2 2145   3.032   0.519   0.881 -0.1373  1.8475  1.0121
  716SOL     OW 2146   0.958   0.610   1.658 -0.6738  0.0992  0.6251
  716SOL    HW1 2147   0.885   0.605   1.725  3.5433 -2.2585 -0.7275
  716SOL    HW2 2148   1.029   0.683   1.674  0.1461  0.7823 -0.3131
  717SOL     OW 2149   0.773   0.224   2.731  0.1119 -0.2736 -0.1775
  717SOL    HW1 2150   0.797   0.152   2.663 -3.0186 -2.5756 -0.0688
  717SOL    HW2 2151   0.675   0.244   2.724  0.8771  0.9337 -2.4286
  718SOL     OW 2152   1.245   0.369   0.310  0.5454  0.3468 -0.0922
  718SOL    HW1 2153   1.321   0.417   0.363  1.3245  1.8269  0.6477
  718SOL    HW2 2154   1.242   0.267   0.332  1.7757 -1.3836  0.0050
  719SOL     OW 2155   2.840   2.146   2.494  0.6544 -0.5921  0.5456
  719SOL    HW1 2156   2.899   2.088   2.552 -1.7200 -1.7579 -1.4867
  719SOL    HW2 2157   2.880   2.241   2.476  2.4142 -0.3787  0.9968
  720SOL     OW 2158   1.202   0.468   1.358 -0.4323 -0.1159 -0.8045
  720SOL    HW1 2159   1.177   0.549   1.414 -0.4435 -1.2137 -0.2679
  720SOL    HW2 2160   1.122   0.425   1.317  1.7222  2.1813 -0.3469
  721SOL     OW 2161   0.028   2.920   1.079  0.7323 -0.0900  0.2920
  721SOL    HW1 2162   0.063   2.873   0.999  1.2102  2.3289 -1.9535
  721SOL    HW2 2163   3.097   2.854   1.140 -1.2142 -3.5750  1.7874
  722SOL     OW 2164   1.008   1.342   2.712 -0.0479 -0.1517  0.4919
  722SOL    HW1 2165   0.929   1.288   2.744  1.1244  0.4080  1.4604
  722SOL    HW2 2166   1.000   1.442   2.731 -2.4527 -1.5318 -2.3064
  723SOL     OW 2167   2.303   0.733   1.263 -0.5915 -0.7868  0.2425
  723SOL    HW1 2168   2.404   0.727   1.283  3.4935 -0.2990  1.1052
  723SOL    HW2 2169   2.267   0.827   1.241  1.6987  2.7175  1.9862
  724SOL     OW 2170   0.880   2.063   0.243  0.3582  0.1569 -0.3757
  724SOL    HW1 2171   0.814   1.998   0.195  0.6474  0.0749 -1.9031
  724SOL    HW2 2172   0.976   2.033   0.232  0.5366 -0.7430 -0.4973
  725SOL     OW 2173   0.247   1.094   1.632 -0.2352 -0.1166 -0.3901
  725SOL    HW1 2174   0.272   0.997   1.650  0.0570 -0.6041  1.8872
  725SOL    HW2 2175   0.327   1.148   1.664 -2.3795 -2.8132 -2.0974
  726SOL     OW 2176   2.464   1.107   2.936  0.4200  0.5752 -0.0185
  726SOL    HW1 2177   2.509   1.022   2.959 -0.9627  1.2447  0.8869
  726SOL    HW2 2178   2.364   1.096   2.907  1.0180 -1.0900 -0.5052
  727SOL     OW 2179   1.849   1.149   2.746  0.3646  0.4217 -0.5911
  727SOL    HW1 2180   1.783   1.214   2.707  2.0633 -0.3213 -1.0183
  727SOL    HW2 2181   1.872   1.088   2.668 -1.8419  2.8400  0.7004
  728SOL     OW 2182   1.430   2.518   1.268  0.0818 -0.4622 -0.1847
  728SOL    HW1 2183   1.390   2.514   1.365  0.7099 -1.0310  5.8467
  728SOL    HW2 2184   1.523   2.482   1.267 -1.2960  3.8995 -1.2929
  729SOL     OW 2185   2.064   0.835   2.286  0.3309  0.1169 -0.2050
  729SOL    HW1 2186   2.058   0.799   2.382  0.5688  0.6529 -1.3074
  729SOL    HW2 2187   2.036   0.935   2.288 -2.0405  3.8813  2.0246
  730SOL     OW 2188   1.113   0.759   1.114  0.2073  0.2840 -0.0237
  730SOL    HW1 2189   1.211   0.782   1.127  1.4321  1.1959  3.0184
  730SOL    HW2 2190   1.108   0.663   1.074 -0.5340 -0.1425 -0.8153
  731SOL     OW 2191   0.844   0.281   3.021 -0.5883  0.4486  1.4488
  731SOL    HW1 2192   0.912   0.254   2.950 -0.2089  0.3327  1.2104
  731SOL    HW2 2193   0.778   0.343   2.974 -2.1136 -2.7407 -1.2251
  732SOL     OW 2194   0.512   0.632   0.181  0.8761 -0.0407  0.4002
  732SOL    HW1 2195   0.566   0.634   0.266 -1.1885 -0.6244 -3.3177
  732SOL    HW2 2196   0.574   0.644   0.100 -3.0942 -1.6239  1.3124
  733SOL     OW 2197   1.640   1.588   2.607 -0.3803  0.7154  0.0198
  733SOL    HW1 2198   1.586   1.567   2.691  1.1775 -0.2437  0.1512
  733SOL    HW2 2199   1.734   1.620   2.625  2.2299  1.7509  0.1965
  734SOL     OW 2200   0.323   2.022   2.820  1.0935 -0.1731 -0.0409
  734SOL    HW1 2201   0.302   2.012   2.920 -3.1557 -2.4933  2.3916
  734SOL    HW2 2202   0.275   2.102   2.774  1.2075 -1.3790 -0.1456
  735SOL     OW 2203   2.140   0.656   1.051 -0.5457  0.6299 -0.5995
  735SOL    HW1 2204   2.175   0.659   0.957  0.3519  0.6340  2.7655
  735SOL    HW2 2205   2.214   0.696   1.115  0.2356  1.0694 -2.2593
  736SOL     OW 2206   1.894   1.707   2.652 -0.2516  0.1333  0.5060
  736SOL    HW1 2207   1.914   1.804   2.683 -0.2813  2.0517  1.2977
  736SOL    HW2 2208   1.948   1.678   2.570 -0.4950  0.6684 -1.0356
  737SOL     OW 2209   2.992   0.487   0.492 -0.0879 -0.8820  0.7904
  737SOL    HW1 2210   2.936   0.577   0.486 -1.4132  3.7250 -0.1581
  737SOL    HW2 2211   3.090   0.502   0.527 -0.1065 -1.2691  1.5350
  738SOL     OW 2212   0.716   2.118   1.673 -0.7522  0.4395  0.6161
  738SOL    HW1 2213   0.804   2.172   1.666 -0.9246  0.4748 -0.0844
  738SOL    HW2 2214   0.664   2.144   1.590  0.4720 -0.4059 -0.8860
  739SOL     OW 2215   1.391   2.733   2.010  0.3608 -0.8077  0.2936
  739SOL    HW1 2216   1.407   2.802   1.933 -0.9487 -0.0611 -0.9244
  739SOL    HW2 2217   1.324   2.777   2.074 -1.0876  0.9876  1.1499
  740SOL     OW 2218   2.154   2.381   1.420 -0.7538  0.0801 -0.4343
  740SOL    HW1 2219   2.172   2.286   1.458  0.0937 -2.2266  0.9095
  740SOL    HW2 2220   2.078   2.416   1.478 -2.1036 -1.2372  1.0309
  741SOL     OW 2221   2.300   0.393   0.383  0.5169  0.7512 -0.1902
  741SOL    HW1 2222   2.202   0.408   0.395 -3.0440 -2.2951  0.1955
  741SOL    HW2 2223   2.343   0.448   0.309 -0.9373 -1.9550  1.1998
  742SOL     OW 2224   0.886   2.570   3.020 -0.1638 -0.1615  0.4896
  742SOL    HW1 2225   0.904   2.547   2.921 -3.2897  0.0993 -1.7277
  742SOL    HW2 2226   0.946   2.509   3.075  1.3954  1.3831 -2.0190
  743SOL     OW 2227   2.579   0.973   2.011 -0.0682  0.4235 -0.1002
  743SOL    HW1 2228   2.585   1.045   2.083 -1.0821 -0.1834 -1.1490
  743SOL    HW2 2229   2.585   0.878   2.049 -0.0541 -0.8228  0.9651
  744SOL     OW 2230   2.618   0.763   0.786  0.1352 -0.1745  0.1952
  744SOL    HW1 2231   2.574   0.698   0.721 -0.4320  0.6863 -0.8764
  744SOL    HW2 2232   2.700   0.812   0.742  1.7667  0.0744 -0.5579
  745SOL     OW 2233   2.610   1.090   1.620 -0.3804  0.1253  0.5763
  745SOL    HW1 2234   2.599   1.005   1.677  1.6683 -3.8349  1.7438
  745SOL    HW2 2235   2.564   1.167   1.671  1.4752  1.4736 -1.0076
  746SOL     OW 2236   1.241   1.550   0.596  0.0811  0.7510 -0.3208
  746SOL    HW1 2237   1.210   1.642   0.634  0.5436  0.4971 -0.0640
  746SOL    HW2 2238   1.195   1.524   0.509 -0.2670 -1.7859  1.1310
  747SOL     OW 2239   1.154   1.612   1.516  0.3603 -0.8013 -0.5245
  747SOL    HW1 2240   1.174   1.616   1.619  0.2393 -1.5886 -1.8079
  747SOL    HW2 2241   1.217   1.684   1.476  0.4799  1.0887  0.9651
  748SOL     OW 2242   0.166   2.577   3.071  0.6858  0.0235 -0.4568
  748SOL    HW1 2243   0.248   2.627   3.113  0.0017  1.3482  1.7933
  748SOL    HW2 2244   0.112   2.531   0.032  0.5540  2.2984  1.8420
  749SOL     OW 2245   0.362   1.116   2.628  0.1909  0.1049  0.6243
  749SOL    HW1 2246   0.277   1.104   2.578  1.2182  0.8418  2.8067
  749SOL    HW2 2247   0.439   1.153   2.574 -1.8808  0.2699  1.7197
  750SOL     OW 2248   1.713   1.035   1.839  0.3290 -0.4790  0.1091
  750SOL    HW1 2249   1.661   1.025   1.749  0.5337  1.1482  0.4624
  750SOL    HW2 2250   1.677   0.982   1.912 -0.2072  2.9210 -1.6103
  751SOL     OW 2251   2.802   0.681   0.400 -0.3615 -0.2793  0.1620
  751SOL    HW1 2252   2.738   0.607   0.379  2.6752  0.1974 -0.1650
  751SOL    HW2 2253   2.768   0.770   0.364 -1.8196  0.6641  0.6194
  752SOL     OW 2254   3.046   2.751   1.271 -0.1255 -0.6256  0.5602
  752SOL    HW1 2255   3.100   2.814   1.326  1.7014 -0.5228 -2.8673
  752SOL    HW2 2256   2.949   2.778   1.294 -0.3545  0.4566  3.4397
  753SOL     OW 2257   0.715   2.235   1.190 -0.2638  0.5598 -0.0871
  753SOL    HW1 2258   0.804   2.266   1.214 -3.6154 -2.0474 -0.6428
  753SOL    HW2 2259   0.644   2.277   1.244 -0.2141  1.3384 -1.0796
  754SOL     OW 2260   0.024   0.080   2.057  0.8743  0.4677 -0.0704
  754SOL    HW1 2261   3.080   0.033   2.128 -0.2331  1.6140  1.8275
  754SOL    HW2 2262   0.083   0.012   2.009  4.3111 -2.6437  1.6954
  755SOL     OW 2263   2.510   0.576   0.605 -0.2848  0.2809  0.0475
  755SOL    HW1 2264   2.552   0.538   0.519 -0.6527  1.7575  3.1931
  755SOL    HW2 2265   2.431   0.636   0.579 -0.5056  2.7428 -1.9268
  756SOL     OW 2266   2.328   2.428   2.889 -1.2042  0.1664 -0.1016
  756SOL    HW1 2267   2.351   2.462   2.981 -3.8180  1.9659 -4.4981
  756SOL    HW2 2268   2.234   2.455   2.862 -1.5856 -0.7211 -2.0045
  757SOL     OW 2269   2.246   0.601   0.804  0.0329 -0.1289  0.3873
  757SOL    HW1 2270   2.259   0.634   0.708  1.3670 -1.8065  3.1172
  757SOL    HW2 2271   2.207   0.507   0.804 -0.0983  1.3050  2.9079
  758SOL     OW 2272   2.343   0.883   1.668 -0.2466 -0.1790 -0.3558
  758SOL    HW1 2273   2.337   0.960   1.595  0.0794 -0.3036 -2.8150
  758SOL    HW2 2274   2.440   0.879   1.703 -0.3491 -0.7274 -0.8297
  759SOL     OW 2275   2.581   0.667   1.278  0.0496  0.3021 -0.2901
  759SOL    HW1 2276   2.649   0.741   1.290 -0.4304 -0.2345 -0.8544
  759SOL    HW2 2277   2.574   0.636   1.180  1.6413 -2.2120 -0.3380
  760SOL     OW 2278   2.790   1.521   1.310  0.3392  0.3887  0.0247
  760SOL    HW1 2279   2.821   1.426   1.288  0.0317  0.3140 -0.9979
  760SOL    HW2 2280   2.741   1.557   1.227 -0.2639 -1.4753 -0.1012
  761SOL     OW 2281   0.967   0.765   0.259  0.1725 -0.0323  0.4193
  761SOL    HW1 2282   0.899   0.845   0.259 -0.5548  0.3252 -0.8856
  761SOL    HW2 2283   1.052   0.802   0.218 -0.1033 -1.9642 -1.2392
  762SOL     OW 2284   0.880   1.856   0.687  0.3666  0.2514 -0.5705
  762SOL    HW1 2285   0.823   1.926   0.641  2.4666 -2.3044 -2.8040
  762SOL    HW2 2286   0.835   1.824   0.775 -0.6313 -1.6979  1.7829
  763SOL     OW 2287   1.170   0.767   1.465  0.2296  0.8032  0.1914
  763SOL    HW1 2288   1.147   0.797   1.556  1.3447 -2.4840 -1.3661
  763SOL    HW2 2289   1.139   0.830   1.391  1.6524 -1.2729  0.4351
  764SOL     OW 2290   0.580   1.972   2.745  0.3376 -0.0015  0.3061
  764SOL    HW1 2291   0.604   1.918   2.662  1.1080  0.6538 -1.5398
  764SOL    HW2 2292   0.478   1.973   2.763 -0.7913  0.2075 -1.0241
  765SOL     OW 2293   0.820   2.828   1.560 -0.3918 -0.2246  0.2654
  765SOL    HW1 2294   0.814   2.734   1.600 -0.3712  5.6654 -2.4253
  765SOL    HW2 2295   0.734   2.848   1.507 -1.5472 -1.0997  0.7222
  766SOL     OW 2296   2.520   1.846   2.239  0.2756 -0.1108 -0.0356
  766SOL    HW1 2297   2.575   1.926   2.270 -1.1280 -0.4419  1.6818
  766SOL    HW2 2298   2.500   1.787   2.317 -1.5051 -1.3870  1.9389
  767SOL     OW 2299   1.602   1.140   2.382  0.0660 -0.6126  0.0173
  767SOL    HW1 2300   1.573   1.042   2.403 -0.8870 -1.5607  0.0669
  767SOL    HW2 2301   1.584   1.161   2.284 -0.7736 -0.2456 -1.0028
  768SOL     OW 2302   1.571   1.873   0.073  0.3197  0.5367  0.0215
  768SOL    HW1 2303   1.504   1.818   0.133  2.2993  1.2398  0.6772
  768SOL    HW2 2304   1.668   1.830   0.074  1.4083 -0.6591  0.5384
  769SOL     OW 2305   0.516   1.284   0.973 -0.1232 -0.5988 -0.1838
  769SOL    HW1 2306   0.607   1.326   0.946  1.8475  1.1808  0.9612
  769SOL    HW2 2307   0.530   1.184   0.981 -1.7119  2.3177  0.5500
  770SOL     OW 2308   1.487   0.870   2.476 -0.1743 -0.2189  0.0264
  770SOL    HW1 2309   1.530   0.882   2.569 -0.9830 -0.0561 -3.5622
  770SOL    HW2 2310   1.484   0.772   2.448 -0.2788  1.7706 -1.0513
  771SOL     OW 2311   2.918   3.076   2.509 -0.3297  0.2217  0.1226
  771SOL    HW1 2312   2.828   3.107   2.551  2.7753 -2.2596 -0.4511
  771SOL    HW2 2313   2.910   2.983   2.471  0.5993  1.6175 -0.6458
  772SOL     OW 2314   2.020   1.924   2.193 -0.3675 -0.2627  0.5793
  772SOL    HW1 2315   1.951   1.906   2.114 -1.5662  1.5295  2.4177
  772SOL    HW2 2316   2.117   1.900   2.164 -1.0559 -0.3105  0.7923
  773SOL     OW 2317   0.615   1.763   1.401 -0.3001 -0.7628  0.7591
  773SOL    HW1 2318   0.660   1.700   1.471  0.3980 -1.5488  0.1348
  773SOL    HW2 2319   0.551   1.709   1.346  1.1232  2.0961  0.7480
  774SOL     OW 2320   1.248   0.684   2.862  0.8079 -0.2485  0.0176
  774SOL    HW1 2321   1.158   0.712   2.829 -0.8682  2.4689  0.6062
  774SOL    HW2 2322   1.237   0.604   2.931 -0.1944 -2.1437  3.2324
  775SOL     OW 2323   1.959   2.607   0.202 -0.0990 -0.0875 -0.3747
  775SOL    HW1 2324   1.868   2.636   0.235  0.5765  0.4308  0.7021
  775SOL    HW2 2325   1.977   2.630   0.105  2.4330 -0.3463 -1.2933
  776SOL     OW 2326   0.274   0.515   1.689  0.5661 -0.4177  0.3099
  776SOL    HW1 2327   0.271   0.429   1.749  0.4717 -1.3995  0.1646
  776SOL    HW2 2328   0.339   0.589   1.719  1.1035  2.2146  1.0725
  777SOL     OW 2329   2.278   1.870   2.104  0.0421  0.1616  0.0838
  777SOL    HW1 2330   2.368   1.875   2.155  0.2940  0.4604  0.8958
  777SOL    HW2 2331   2.291   1.892   2.004 -1.5394  0.0223 -2.5811
  778SOL     OW 2332   1.945   1.081   2.236  0.1562  0.4211 -0.2142
  778SOL    HW1 2333   1.924   1.073   2.137 -1.6480  0.7634  0.8438
  778SOL    HW2 2334   2.020   1.147   2.243 -0.0334 -1.8762 -0.5019
  779SOL     OW 2335   2.944   0.833   3.033  0.1830  0.3184  0.5812
  779SOL    HW1 2336   2.994   0.787   3.110  1.5877  0.2855 -0.3184
  779SOL    HW2 2337   3.008   0.866   2.961 -1.7901  0.0643 -0.3605
  780SOL     OW 2338   2.377   0.295   2.550  0.2855 -0.1338 -0.3035
  780SOL    HW1 2339   2.425   0.310   2.638  0.8473 -0.6102  3.4623
  780SOL    HW2 2340   2.359   0.387   2.510 -1.2787  1.2122  0.0003
  781SOL     OW 2341   0.121   1.858   1.717 -0.3424 -0.0516 -0.2048
  781SOL    HW1 2342   0.213   1.872   1.679  2.5418 -0.9307  0.8332
  781SOL    HW2 2343   0.101   1.758   1.734 -2.8160 -3.6921 -3.2197
  782SOL     OW 2344   2.675   2.188   2.903  0.8490 -0.2304 -0.2608
  782SOL    HW1 2345   2.732   2.266   2.894 -0.7017  1.0553  0.8506
  782SOL    HW2 2346   2.584   2.226   2.868 -1.2223  0.7341  0.7937
  783SOL     OW 2347   0.748   1.221   1.308  0.3626 -0.2535  0.5225
  783SOL    HW1 2348   0.784   1.178   1.392  1.3625  2.0536 -1.1581
  783SOL    HW2 2349   0.816   1.208   1.232  0.7632 -1.0303  0.9580
  784SOL     OW 2350   2.531   0.768   0.016  0.7857  0.5137  0.3675
  784SOL    HW1 2351   2.614   0.792   3.080  1.7676 -0.2357  0.9970
  784SOL    HW2 2352   2.510   0.827   0.094 -0.7770 -1.9111 -2.7093
  785SOL     OW 2353   2.191   2.734   0.722 -0.0254  0.4162 -0.2868
  785SOL    HW1 2354   2.138   2.698   0.643  2.9399  0.1682 -2.3493
  785SOL    HW2 2355   2.249   2.812   0.693 -0.1768 -0.8478  1.2412
  786SOL     OW 2356   0.545   2.215   2.356  0.1837  0.6424 -0.0024
  786SOL    HW1 2357   0.625   2.201   2.423  2.1907 -1.3404  3.8912
  786SOL    HW2 2358   0.534   2.144   2.286  1.7979  1.5543  2.1425
  787SOL     OW 2359   1.422   0.316   1.374 -0.4373 -0.0001 -0.3331
  787SOL    HW1 2360   1.340   0.374   1.378 -0.5013 -1.1423 -0.1314
  787SOL    HW2 2361   1.490   0.347   1.306 -0.9772 -0.3097 -0.9695
  788SOL     OW 2362   0.349   0.849   0.244  0.0764  0.0453  0.7955
  788SOL    HW1 2363   0.403   0.770   0.215 -1.9639 -1.3007 -0.2129
  788SOL    HW2 2364   0.271   0.860   0.178 -0.5040 -0.0468 -2.2761
  789SOL     OW 2365   3.038   2.229   1.280 -0.4055  0.5907  0.2134
  789SOL    HW1 2366   3.009   2.191   1.367 -0.9402  1.2715 -1.2780
  789SOL    HW2 2367   3.054   2.329   1.277  1.5109 -0.3960 -1.5603
  790SOL     OW 2368   1.424   0.651   1.845 -0.4114  0.2327 -0.3727
  790SOL    HW1 2369   1.427   0.729   1.910  0.0280  1.5701 -3.4419
  790SOL    HW2 2370   1.362   0.577   1.880  0.5243 -1.9710  2.4796
  791SOL     OW 2371   1.444   0.512   0.451  0.3367 -0.2320  0.1395
  791SOL    HW1 2372   1.425   0.518   0.554 -0.5433 -1.3156 -0.9595
  791SOL    HW2 2373   1.456   0.605   0.410  0.6298  1.2963 -0.9177
  792SOL     OW 2374   1.704   2.898   1.766 -0.1806  0.3112 -0.0929
  792SOL    HW1 2375   1.616   2.888   1.810  2.3234  2.9249 -0.7968
  792SOL    HW2 2376   1.780   2.833   1.801  0.8594 -0.5188  1.5805
  793SOL     OW 2377   0.516   3.011   0.680 -0.5222  0.4564  0.4663
  793SOL    HW1 2378   0.565   3.080   0.620 -0.2886 -1.3823  0.3625
  793SOL    HW2 2379   0.475   2.932   0.623 -0.8431  0.6943  0.9888
  794SOL     OW 2380   0.597   0.950   2.275  0.3337 -0.2567  0.2281
  794SOL    HW1 2381   0.607   1.048   2.260 -1.4588 -2.1624  2.8114
  794SOL    HW2 2382   0.533   0.902   2.206  1.1481 -0.8343 -0.8539
  795SOL     OW 2383   0.283   1.871   2.246  0.4256  0.1577 -0.0256
  795SOL    HW1 2384   0.188   1.850   2.206 -2.1440 -0.5977 -0.4386
  795SOL    HW2 2385   0.277   1.872   2.343 -2.1561  0.7282 -1.1965
  796SOL     OW 2386   2.173   1.228   2.260  0.0074 -0.1694  0.2502
  796SOL    HW1 2387   2.207   1.314   2.225 -3.0460 -1.3671 -0.1360
  796SOL    HW2 2388   2.252   1.171   2.298 -2.0803  0.7204 -0.8003
  797SOL     OW 2389   2.834   2.732   2.776 -0.2720 -0.3237  0.4901
  797SOL    HW1 2390   2.908   2.698   2.712 -1.7522 -0.5045  1.1423
  797SOL    HW2 2391   2.759   2.765   2.707 -2.2794 -1.0884 -1.1202
  798SOL     OW 2392   3.043   2.088   2.109 -0.2771  0.3572  0.5655
  798SOL    HW1 2393   2.945   2.112   2.112 -0.1886 -1.0373 -1.0922
  798SOL    HW2 2394   3.108   2.164   2.089 -0.0938 -2.2503  0.6448
  799SOL     OW 2395   3.054   2.117   2.862  0.1069 -0.2177 -0.1274
  799SOL    HW1 2396   0.019   2.167   2.821 -0.3178  0.2928 -1.5268
  799SOL    HW2 2397   3.032   2.052   2.786 -1.1430  1.3655 -0.8935
  800SOL     OW 2398   1.290   1.911   0.610  0.0169  0.2159 -0.3373
  800SOL    HW1 2399   1.256   1.927   0.521  2.3124  0.8613  1.5233
  800SOL    HW2 2400   1.224   1.845   0.652  0.2000  4.6306 -0.1920
  801SOL     OW 2401   2.018   0.890   0.727  0.0960 -0.5298  0.1322
  801SOL    HW1 2402   1.988   0.946   0.643 -1.9299 -0.4865 -0.7927
  801SOL    HW2 2403   2.079   0.820   0.689  0.6144  1.8405  0.7928
  802SOL     OW 2404   2.923   1.460   0.256 -0.0048 -0.1312 -0.0241
  802SOL    HW1 2405   2.929   1.392   0.336 -2.1738 -4.1840  2.9771
  802SOL    HW2 2406   2.982   1.541   0.262 -1.0739  0.7575 -2.4494
  803SOL     OW 2407   1.393   1.798   2.910  0.1235  0.0593  0.0047
  803SOL    HW1 2408   1.414   1.871   2.982  1.4579 -0.6677  3.0694
  803SOL    HW2 2409   1.312   1.836   2.856 -1.9690 -0.5246 -1.1234
  804SOL     OW 2410   1.821   1.767   0.075  0.2415  0.4058 -0.0712
  804SOL    HW1 2411   1.840   1.800   0.169 -0.7628  0.5424 -0.8952
  804SOL    HW2 2412   1.909   1.741   0.027 -0.4695 -1.2652  0.1895
  805SOL     OW 2413   2.412   1.656   2.860  0.5983 -0.4081  0.0841
  805SOL    HW1 2414   2.452   1.709   2.784 -0.5111  0.8283 -0.3076
  805SOL    HW2 2415   2.344   1.587   2.829 -0.5364 -2.4712 -0.4820
  806SOL     OW 2416   0.670   0.071   0.516  0.2156  0.0136 -0.4499
  806SOL    HW1 2417   0.685   0.171   0.507 -0.5186 -0.2114 -0.2468
  806SOL    HW2 2418   0.759   0.026   0.546 -0.0521  0.4580  1.4535
  807SOL     OW 2419   1.989   1.283   2.943  0.2719  0.1793 -0.1057
  807SOL    HW1 2420   1.971   1.377   2.966 -1.8994  2.8570  0.8584
  807SOL    HW2 2421   1.928   1.260   2.862  0.3314  1.2055 -1.1024
  808SOL     OW 2422   3.109   1.657   0.367  0.4777  0.2768 -0.3835
  808SOL    HW1 2423   0.081   1.612   0.395 -1.1345 -0.6871 -0.1836
  808SOL    HW2 2424   0.006   1.753   0.338 -1.7927 -0.9614  0.1156
  809SOL     OW 2425   2.699   0.942   2.979  0.0611 -0.2841  0.8495
  809SOL    HW1 2426   2.791   0.889   2.996  0.9486 -1.0463  1.1811
  809SOL    HW2 2427   2.709   1.018   2.909  1.9162  0.2497  0.2228
  810SOL     OW 2428   0.813   0.982   0.246  0.1132  0.1070 -0.1734
  810SOL    HW1 2429   0.872   1.034   0.182  0.8390  1.0000 -1.6693
  810SOL    HW2 2430   0.713   0.980   0.216  0.0043  1.6749 -0.2711
  811SOL     OW 2431   1.230   2.421   1.139 -0.2628 -0.3212 -0.3700
  811SOL    HW1 2432   1.209   2.436   1.043  0.6625 -2.0371  1.4674
  811SOL    HW2 2433   1.312   2.475   1.177  1.7307  0.1212  1.1614
  812SOL     OW 2434   0.711   2.620   1.731  0.0464  0.2577 -0.0137
  812SOL    HW1 2435   0.654   2.622   1.648 -1.7103 -0.0931 -1.2404
  812SOL    HW2 2436   0.671   2.548   1.798  0.5652 -1.8230  0.7762
  813SOL     OW 2437   1.295   0.265   2.111  0.4582 -0.0898 -0.1375
  813SOL    HW1 2438   1.392   0.280   2.147  1.6299  1.8386 -1.5883
  813SOL    HW2 2439   1.229   0.259   2.188  1.6110 -0.1712 -1.7659
  814SOL     OW 2440   1.286   2.468   2.747 -0.0766  0.4608 -0.3998
  814SOL    HW1 2441   1.299   2.565   2.739  0.6487 -1.1228  0.8439
  814SOL    HW2 2442   1.353   2.421   2.687  1.0561  0.0723  0.2335
  815SOL     OW 2443   0.567   0.234   1.616  0.0518  0.1903  0.9137
  815SOL    HW1 2444   0.553   0.314   1.560 -0.1427  0.0679  2.8623
  815SOL    HW2 2445   0.653   0.246   1.672  1.0117  2.5077 -1.5209
  816SOL     OW 2446   2.184   0.484   2.939 -0.5076  0.4410  0.2410
  816SOL    HW1 2447   2.280   0.505   2.906  0.3522  1.1407 -1.0028
  816SOL    HW2 2448   2.172   0.503   3.041  0.3154  0.6163 -3.3026
  817SOL     OW 2449   2.069   0.344   2.489 -0.6381  0.0175 -0.5659
  817SOL    HW1 2450   2.125   0.335   2.407 -0.0944  0.4226 -0.8928
  817SOL    HW2 2451   2.098   0.275   2.561  1.7626 -0.7430  0.0844
  818SOL     OW 2452   2.042   0.339   0.228 -0.0137 -0.0339 -0.0537
  818SOL    HW1 2453   2.054   0.248   0.186  1.2000 -0.3931  1.4374
  818SOL    HW2 2454   2.052   0.414   0.156 -0.3326  3.0649 -0.8361
  819SOL     OW 2455   2.404   1.920   2.940  0.3755  0.0011  0.1903
  819SOL    HW1 2456   2.399   1.823   2.911 -1.8482  1.4850 -0.9881
  819SOL    HW2 2457   2.458   1.931   3.021 -1.3272 -1.0797 -0.7420
  820SOL     OW 2458   3.052   2.021   0.026 -0.0695 -0.1705 -0.0048
  820SOL    HW1 2459   3.069   2.052   3.045  0.6388 -0.8026  1.0957
  820SOL    HW2 2460   2.949   2.016   0.039 -1.4863 -0.4429 -1.6559
  821SOL     OW 2461   0.223   2.442   1.074  0.2423  0.1391 -0.5235
  821SOL    HW1 2462   0.210   2.339   1.068  3.5473 -0.3457  1.7646
  821SOL    HW2 2463   0.295   2.467   1.145 -1.6734  0.6562  0.5665
  822SOL     OW 2464   2.645   2.555   2.877  0.2189 -0.1630  0.4101
  822SOL    HW1 2465   2.723   2.630   2.865  1.4307  3.3481  1.3236
  822SOL    HW2 2466   2.624   2.492   2.798  0.5929  0.3793 -2.1797
  823SOL     OW 2467   1.706   0.161   2.440 -0.5232 -0.2744  0.3387
  823SOL    HW1 2468   1.627   0.114   2.482 -2.1034  2.7038  0.7280
  823SOL    HW2 2469   1.731   0.253   2.483  1.1907  1.7137  0.0256
  824SOL     OW 2470   2.839   1.903   1.446 -0.7321  0.0115  0.3874
  824SOL    HW1 2471   2.803   1.933   1.355 -0.1692 -0.2095 -3.3878
  824SOL    HW2 2472   2.944   1.896   1.440 -0.8844  1.2320  1.9028
  825SOL     OW 2473   2.691   1.946   2.746 -0.4527  0.2369 -0.2863
  825SOL    HW1 2474   2.666   2.029   2.799 -0.7048  0.2875  1.2464
  825SOL    HW2 2475   2.788   1.955   2.714 -0.8895  2.6965  0.1411
  826SOL     OW 2476   2.345   1.449   2.194  0.4695  0.0754  0.4873
  826SOL    HW1 2477   2.375   1.440   2.290 -2.3484  1.4608  0.4586
  826SOL    HW2 2478   2.406   1.506   2.144 -1.0450 -0.7961  0.2264
  827SOL     OW 2479   2.226   2.127   1.249  0.6885 -0.3207  0.5692
  827SOL    HW1 2480   2.177   2.211   1.215 -1.5108  1.7680  1.1990
  827SOL    HW2 2481   2.237   2.139   1.348 -0.5893 -0.7539  1.6336
  828SOL     OW 2482   2.611   2.676   1.484  0.1012  0.3825  0.4179
  828SOL    HW1 2483   2.616   2.605   1.409 -1.4501  1.0005 -0.1580
  828SOL    HW2 2484   2.518   2.672   1.523  1.1234 -1.1360  0.0209
  829SOL     OW 2485   1.712   2.391   2.600  0.0794 -0.3520  0.5923
  829SOL    HW1 2486   1.622   2.358   2.632  1.1041 -2.0790 -2.6144
  829SOL    HW2 2487   1.741   2.329   2.523 -2.1595  1.0216  3.1372
  830SOL     OW 2488   1.401   0.547   0.741 -0.9693 -0.0961  0.5523
  830SOL    HW1 2489   1.426   0.638   0.774 -2.1713 -0.3665  0.0391
  830SOL    HW2 2490   1.385   0.482   0.818  0.5228 -0.9300 -2.4533
  831SOL     OW 2491   2.547   1.346   3.034  0.1638 -0.1113 -0.2742
  831SOL    HW1 2492   2.608   1.342   0.002  1.6385 -1.3780  2.1857
  831SOL    HW2 2493   2.519   1.258   3.002  1.6866  2.6233  1.6242
  832SOL     OW 2494   1.438   2.026   1.945 -0.2013  0.3152 -0.0236
  832SOL    HW1 2495   1.441   1.938   1.993  0.1210 -0.5776  1.3739
  832SOL    HW2 2496   1.527   2.076   1.929 -0.8008  0.0687 -0.4511
  833SOL     OW 2497   2.998   2.992   2.206  0.0802  0.3811 -0.2074
  833SOL    HW1 2498   3.051   2.929   2.264 -0.0838 -1.7216  0.8965
  833SOL    HW2 2499   2.914   2.945   2.167 -0.9221 -1.8953 -0.3513
  834SOL     OW 2500   0.897   0.990   1.776 -0.3313 -0.1157 -0.0660
  834SOL    HW1 2501   0.992   0.967   1.762 -1.2092 -0.8409 -1.9693
  834SOL    HW2 2502   0.862   1.040   1.695 -1.8328  2.1021  2.6519
  835SOL     OW 2503   3.005   0.722   2.692  0.1073 -0.0746  0.3708
  835SOL    HW1 2504   2.991   0.695   2.596  0.9990  1.3966 -1.0815
  835SOL    HW2 2505   2.925   0.688   2.744  2.2446 -1.7796  0.0956
  836SOL     OW 2506   1.060   2.128   0.720 -0.3986 -0.2137  0.1558
  836SOL    HW1 2507   1.041   2.060   0.650 -1.4989  0.4912  2.1552
  836SOL    HW2 2508   1.132   2.094   0.786  1.8673  2.6836  1.8474
  837SOL     OW 2509   1.677   1.278   1.234  0.1050  0.5658  0.3946
  837SOL    HW1 2510   1.670   1.303   1.329 -1.4673 -0.4149  0.2745
  837SOL    HW2 2511   1.732   1.193   1.231 -1.3116 -0.6970  1.8532
  838SOL     OW 2512   1.209   1.815   2.509 -0.0645  0.0077 -0.0942
  838SOL    HW1 2513   1.231   1.712   2.505  1.8583 -2.5646  1.1356
  838SOL    HW2 2514   1.199   1.846   2.609 -0.4953 -2.3828  0.4863
  839SOL     OW 2515   0.771   2.109   2.888 -0.2071 -0.1620  0.0813
  839SOL    HW1 2516   0.696   2.054   2.851  1.5856 -0.1141  1.1538
  839SOL    HW2 2517   0.748   2.177   2.961  2.9921 -2.5388  0.6106
  840SOL     OW 2518   0.441   2.622   0.082 -0.1751  0.4143 -0.4023
  840SOL    HW1 2519   0.452   2.554   0.008 -0.4822  1.3527 -0.5987
  840SOL    HW2 2520   0.480   2.714   0.066  4.0456 -0.2252 -2.8920
  841SOL     OW 2521   1.913   2.329   0.210  0.1588  0.2227  0.3730
  841SOL    HW1 2522   1.932   2.292   0.119 -0.2806 -2.5392  0.6290
  841SOL    HW2 2523   1.916   2.433   0.210  0.1740  0.2520  1.5303
  842SOL     OW 2524   0.958   0.689   2.817 -0.0404 -0.0925 -0.0919
  842SOL    HW1 2525   0.917   0.738   2.898 -0.9083  1.2938  1.9424
  842SOL    HW2 2526   0.992   0.754   2.746  1.2634  0.7187  1.3512
  843SOL     OW 2527   1.234   3.060   0.771 -0.0846  0.0791 -0.5816
  843SOL    HW1 2528   1.262   0.024   0.716  0.2338 -1.9954  0.5515
  843SOL    HW2 2529   1.157   3.077   0.837  0.2735  0.0493 -1.8225
  844SOL     OW 2530   2.399   0.070   2.412 -0.1472  0.4565  0.0595
  844SOL    HW1 2531   2.373   0.160   2.450  2.0912 -1.4049 -0.3222
  844SOL    HW2 2532   2.318   0.022   2.380  0.7025  0.3591 -0.8410
  845SOL     OW 2533   2.642   2.469   1.312 -0.2541 -0.3344 -0.2275
  845SOL    HW1 2534   2.543   2.480   1.345  0.1795  0.8605  0.1008
  845SOL    HW2 2535   2.644   2.505   1.217 -1.8202  0.6812  1.8366
  846SOL     OW 2536   0.209   1.877   2.541 -0.0621  0.1316 -0.1595
  846SOL    HW1 2537   0.215   1.773   2.527  0.0153  0.5589 -1.3571
  846SOL    HW2 2538   0.217   1.900   2.642 -1.2016  0.5827  3.5158
  847SOL     OW 2539   1.549   0.631   1.600  0.2945  0.3974  0.2848
  847SOL    HW1 2540   1.502   0.682   1.524 -7.0962  0.8113 -1.7552
  847SOL    HW2 2541   1.502   0.656   1.689 -2.8505  2.1803  1.1575
  848SOL     OW 2542   2.755   0.255   0.211  0.3714  0.1605  0.5583
  848SOL    HW1 2543   2.729   0.335   0.156  2.1018 -1.0885  1.6814
  848SOL    HW2 2544   2.851   0.259   0.246 -1.9223  1.8835  1.7318
  849SOL     OW 2545   0.522   3.024   3.012  0.0322 -0.2821 -0.0225
  849SOL    HW1 2546   0.569   2.982   2.925  3.8098 -1.0261 -1.8693
  849SOL    HW2 2547   0.588   3.092   3.054 -1.3552  1.1190 -1.9620
  850SOL     OW 2548   0.892   2.658   1.024  0.3345  0.3611  0.4184
  850SOL    HW1 2549   0.919   2.564   0.989 -0.2296 -1.6625 -1.8698
  850SOL    HW2 2550   0.931   2.726   0.964 -0.7820 -0.7655  2.1939
  851SOL     OW 2551   2.819   0.142   2.143 -0.2264  0.4341 -0.2520
  851SOL    HW1 2552   2.906   0.143   2.198  1.8516  0.4407  2.9458
  851SOL    HW2 2553   2.808   0.226   2.091  0.7847 -0.8789 -0.9232
  852SOL     OW 2554   1.974   1.332   2.454  0.3540 -0.3109 -0.2647
  852SOL    HW1 2555   1.887   1.313   2.503  2.1439 -0.7207  2.2673
  852SOL    HW2 2556   2.026   1.255   2.416  0.0052 -0.5338 -1.2953
  853SOL     OW 2557   2.816   2.804   0.547  0.1426  0.5201 -0.2370
  853SOL    HW1 2558   2.870   2.720   0.574 -0.4260  2.3381 -0.6186
  853SOL    HW2 2559   2.847   2.884   0.602 -2.3378  3.1108 -0.1547
  854SOL     OW 2560   2.228   0.995   1.205 -0.1451  0.1751 -0.4262
  854SOL    HW1 2561   2.314   1.038   1.181 -3.1679 -1.4462 -1.1304
  854SOL    HW2 2562   2.151   1.049   1.166 -1.5039 -0.0433 -0.0659
  855SOL     OW 2563   1.463   2.137   0.551 -0.2978 -0.5078 -0.1322
  855SOL    HW1 2564   1.419   2.172   0.464 -0.7848 -0.7655  1.6930
  855SOL    HW2 2565   1.413   2.049   0.576 -0.2170 -1.4234 -0.7642
  856SOL     OW 2566   3.018   0.166   2.977  0.1397 -0.6013 -0.3768
  856SOL    HW1 2567   3.057   0.127   2.893 -0.3658 -2.4190 -0.5023
  856SOL    HW2 2568   3.082   0.135   3.051  1.3054  0.3972 -0.7758
  857SOL     OW 2569   1.493   0.044   1.846 -0.0305 -0.0467  0.2522
  857SOL    HW1 2570   1.549   0.117   1.811 -2.4731 -0.1209 -1.0970
  857SOL    HW2 2571   1.523   0.023   1.940  1.0033 -0.1409  0.8760
  858SOL     OW 2572   2.511   2.209   1.505 -0.5649 -0.4805 -0.5383
  858SOL    HW1 2573   2.585   2.266   1.468 -2.2390  0.4927  0.4975
  858SOL    HW2 2574   2.551   2.117   1.509  2.2563 -0.3946  2.4022
  859SOL     OW 2575   1.356   2.173   1.115 -0.1843  1.0074  0.2318
  859SOL    HW1 2576   1.316   2.262   1.144  3.1358 -2.2015  1.0856
  859SOL    HW2 2577   1.344   2.102   1.186  0.8913 -0.7089 -0.2672
  860SOL     OW 2578   2.413   2.481   0.152  0.4256  0.4056  0.1169
  860SOL    HW1 2579   2.516   2.488   0.139 -0.3142 -0.4506  1.9615
  860SOL    HW2 2580   2.390   2.388   0.162  1.7669  0.7983 -0.3199
  861SOL     OW 2581   1.648   2.797   1.020  0.6685  0.2682 -0.3518
  861SOL    HW1 2582   1.590   2.874   1.000  1.5282 -3.1616  0.2052
  861SOL    HW2 2583   1.707   2.817   1.100  1.1384  0.5715  4.0875
  862SOL     OW 2584   1.926   2.878   2.432  0.1622  0.0434  0.2815
  862SOL    HW1 2585   2.005   2.848   2.493 -1.3633  2.0740  2.2598
  862SOL    HW2 2586   1.890   2.962   2.478 -0.9140  0.1798  0.8813
  863SOL     OW 2587   0.326   0.830   0.517 -0.0176  0.7506 -0.1125
  863SOL    HW1 2588   0.331   0.725   0.520 -1.7402 -0.5925  0.2496
  863SOL    HW2 2589   0.331   0.861   0.419  0.4417  1.5209 -1.3352
  864SOL     OW 2590   2.871   2.448   2.012  0.1992 -0.1786 -0.2467
  864SOL    HW1 2591   2.957   2.484   1.972 -1.6989 -2.0201 -0.1707
  864SOL    HW2 2592   2.813   2.525   2.055 -0.2896  0.1196 -0.4148
  865SOL     OW 2593   0.484   1.599   2.834 -0.1608  0.6275  0.1343
  865SOL    HW1 2594   0.399   1.620   2.887 -1.8652  2.1091 -1.3485
  865SOL    HW2 2595   0.554   1.545   2.882  1.2239  1.0608 -1.4007
  866SOL     OW 2596   2.823   0.556   2.832  0.4623  0.1568  0.3211
  866SOL    HW1 2597   2.816   0.479   2.765 -2.0512  0.4076  1.7670
  866SOL    HW2 2598   2.883   0.530   2.911 -1.0364  0.1556 -0.2713
  867SOL     OW 2599   0.212   2.821   2.773  0.1556 -0.1932  0.2574
  867SOL    HW1 2600   0.238   2.837   2.873  1.9512  0.7029 -2.6721
  867SOL    HW2 2601   0.201   2.910   2.728  1.4558 -1.2636  0.3109
  868SOL     OW 2602   1.414   2.619   0.849 -0.1261  0.5282 -0.1159
  868SOL    HW1 2603   1.465   2.625   0.934  0.8349 -4.0769  0.3510
  868SOL    HW2 2604   1.329   2.563   0.865 -0.4943  0.2385  0.1550
  869SOL     OW 2605   1.457   1.268   1.068 -0.5739  0.1581 -0.2317
  869SOL    HW1 2606   1.488   1.331   0.993 -0.5190 -0.3848  0.4927
  869SOL    HW2 2607   1.537   1.251   1.133 -0.6349 -1.2173  1.6677
  870SOL     OW 2608   1.790   2.008   1.224 -0.1616  0.0774 -0.0827
  870SOL    HW1 2609   1.880   2.005   1.173  0.4983 -1.0825 -1.7472
  870SOL    HW2 2610   1.733   1.922   1.202  3.3023 -0.9114  0.2433
  871SOL     OW 2611   0.744   1.634   1.603  0.0928 -0.1158  0.0721
  871SOL    HW1 2612   0.791   1.722   1.626 -1.1097  1.2627 -1.8023
  871SOL    HW2 2613   0.810   1.567   1.567 -0.8170 -0.3854  1.1194
  872SOL     OW 2614   1.203   1.194   1.177  0.0806  0.1784  0.3764
  872SOL    HW1 2615   1.261   1.172   1.257  1.6480  0.9027 -0.4657
  872SOL    HW2 2616   1.261   1.236   1.103  0.7936  2.7242 -3.1993
  873SOL     OW 2617   1.228   0.927   2.403  0.7180 -0.0056  0.5096
  873SOL    HW1 2618   1.171   1.012   2.404  0.3749 -0.6391  0.6752
  873SOL    HW2 2619   1.321   0.934   2.443 -0.2714 -5.4792 -2.3819
  874SOL     OW 2620   0.145   1.145   1.367  0.2140  0.0056 -0.5524
  874SOL    HW1 2621   0.156   1.248   1.367 -3.5608 -0.9022  3.0033
  874SOL    HW2 2622   0.160   1.125   1.464 -3.4824  1.0941  0.5225
  875SOL     OW 2623   2.845   3.017   0.733 -0.2970  0.2048  0.4463
  875SOL    HW1 2624   2.886   3.096   0.780 -1.9247 -0.1931  0.4663
  875SOL    HW2 2625   2.748   3.030   0.719  3.4012  0.8454  2.2321
  876SOL     OW 2626   1.181   0.242   2.750  0.1486 -0.0148  0.0208
  876SOL    HW1 2627   1.196   0.174   2.676 -0.7110 -0.7327  0.8336
  876SOL    HW2 2628   1.103   0.296   2.718  0.3346 -0.2859 -1.8451
  877SOL     OW 2629   0.237   3.040   1.271 -0.2867 -0.1160 -0.4012
  877SOL    HW1 2630   0.286   3.106   1.330  0.7753  0.1400 -1.8631
  877SOL    HW2 2631   0.164   3.086   1.215  0.1438 -1.0519 -1.1460
  878SOL     OW 2632   2.049   2.630   3.050  0.1736  0.1967 -0.3021
  878SOL    HW1 2633   2.030   2.547   2.991 -2.7593 -2.5193 -5.2593
  878SOL    HW2 2634   2.155   2.637   3.056  0.2913  1.0938 -0.6632
  879SOL     OW 2635   2.248   1.926   1.819  0.4299  0.4921 -0.3625
  879SOL    HW1 2636   2.313   1.872   1.763 -0.3494  0.6806  1.6493
  879SOL    HW2 2637   2.150   1.889   1.814 -0.8525  2.7405 -0.2227
  880SOL     OW 2638   0.873   1.018   1.478 -0.2667 -0.3616  0.0749
  880SOL    HW1 2639   0.900   0.984   1.384  0.6111 -1.2041 -0.7008
  880SOL    HW2 2640   0.788   0.967   1.499 -0.9928  0.3975 -0.5983
  881SOL     OW 2641   1.044   1.694   3.051  0.0045  0.1096  0.4264
  881SOL    HW1 2642   1.028   1.781   2.997 -0.7168 -1.5860  1.2529
  881SOL    HW2 2643   1.138   1.660   3.043  1.8740 -2.0985 -1.7407
  882SOL     OW 2644   1.838   0.496   0.790 -0.4530 -0.4150  0.3047
  882SOL    HW1 2645   1.767   0.427   0.824 -0.4575 -1.1127  0.4735
  882SOL    HW2 2646   1.925   0.496   0.842  0.1862  2.4237 -1.2469
  883SOL     OW 2647   1.973   0.453   2.140 -0.1217 -0.6446  0.0979
  883SOL    HW1 2648   2.014   0.542   2.117  0.2225 -2.7010 -1.1389
  883SOL    HW2 2649   1.922   0.424   2.061  0.1419  0.2906 -0.6775
  884SOL     OW 2650   2.637   0.467   0.364 -0.2575  0.0752 -0.0310
  884SOL    HW1 2651   2.691   0.382   0.348  2.7409  3.0819 -1.6119
  884SOL    HW2 2652   2.581   0.491   0.280  1.4573 -0.6155 -0.9724
  885SOL     OW 2653   0.715   2.019   0.571 -0.0117 -0.9432  0.0741
  885SOL    HW1 2654   0.750   2.094   0.512  0.4494 -0.5851 -1.3813
  885SOL    HW2 2655   0.637   2.049   0.637  0.0853 -0.0344  3.4987
  886SOL     OW 2656   1.630   1.528   3.060  0.0826 -0.6214 -0.4540
  886SOL    HW1 2657   1.566   1.523   0.022  2.3869  1.0944 -1.7411
  886SOL    HW2 2658   1.692   1.603   3.068 -2.3574 -0.8887  0.0047
  887SOL     OW 2659   1.462   0.349   1.664 -0.1049  0.4077  0.1741
  887SOL    HW1 2660   1.455   0.316   1.570  1.3420 -0.9792 -2.4933
  887SOL    HW2 2661   1.465   0.451   1.659  1.6327 -2.7203  3.6986
  888SOL     OW 2662   3.040   1.000   1.483  0.0598  0.2117  0.1457
  888SOL    HW1 2663   0.008   1.036   1.439  0.1761  0.0904  3.9469
  888SOL    HW2 2664   2.947   1.022   1.445  1.3666  0.7005 -0.2197
  889SOL     OW 2665   2.956   2.532   0.869 -0.4025  0.2082  0.0961
  889SOL    HW1 2666   2.889   2.606   0.873 -0.3754 -1.7725  0.5796
  889SOL    HW2 2667   2.997   2.514   0.964  1.9763  0.3330 -1.7522
  890SOL     OW 2668   0.118   2.315   2.069 -0.1842 -0.0635  0.1153
  890SOL    HW1 2669   0.134   2.305   2.166  1.3720 -2.5610 -3.0021
  890SOL    HW2 2670   0.203   2.283   2.018 -0.6920  1.1904 -1.2062
  891SOL     OW 2671   0.714   1.703   0.246 -0.2544 -0.3472 -0.2934
  891SOL    HW1 2672   0.695   1.796   0.208 -0.3646  2.5515 -2.5385
  891SOL    HW2 2673   0.806   1.699   0.282  1.0536  0.8950 -1.7204
  892SOL     OW 2674   3.114   2.438   1.556 -0.6059 -0.0326 -0.1374
  892SOL    HW1 2675   0.029   2.394   1.644  2.2120 -1.8988  0.8253
  892SOL    HW2 2676   3.044   2.510   1.575 -2.9140 -0.2968  0.0906
  893SOL     OW 2677   0.098   0.110   1.628  0.7400 -0.6080 -0.3425
  893SOL    HW1 2678   0.039   0.165   1.691  0.9912  0.6355  0.2159
  893SOL    HW2 2679   0.030   0.045   1.591 -0.9341  0.6627  0.3361
  894SOL     OW 2680   2.656   1.799   0.730 -0.3861 -0.7005  0.9182
  894SOL    HW1 2681   2.730   1.766   0.664  0.5310 -2.7409 -0.0529
  894SOL    HW2 2682   2.632   1.894   0.702 -0.6922  2.3160 -1.4378
  895SOL     OW 2683   1.990   2.569   1.598 -0.4647  0.3559 -0.4752
  895SOL    HW1 2684   2.087   2.545   1.618 -1.7216  2.4083 -1.9702
  895SOL    HW2 2685   1.979   2.644   1.531  1.3310 -0.6457  1.3795
  896SOL     OW 2686   0.821   0.013   1.598 -0.0937 -0.3280 -0.4153
  896SOL    HW1 2687   0.766   0.016   1.514  1.7246 -1.2070  0.8237
  896SOL    HW2 2688   0.784   3.060   1.667 -2.9900 -1.8520  1.9827
  897SOL     OW 2689   1.015   1.198   1.630  0.5129 -0.0587  0.0263
  897SOL    HW1 2690   0.993   1.130   1.556  1.5501 -2.3150 -1.6826
  897SOL    HW2 2691   1.115   1.215   1.640  1.1465 -2.5436 -0.7817
  898SOL     OW 2692   1.332   2.876   1.519  0.0991  0.0672 -0.5842
  898SOL    HW1 2693   1.234   2.906   1.535  0.4682  0.1576  2.4059
  898SOL    HW2 2694   1.334   2.841   1.425 -0.4428  2.8453  2.3564
  899SOL     OW 2695   1.367   0.297   2.936 -0.3393 -0.1481  0.1836
  899SOL    HW1 2696   1.452   0.236   2.956  0.7786 -1.6472  2.4215
  899SOL    HW2 2697   1.309   0.264   2.860  1.6033  4.0129  0.6021
  900SOL     OW 2698   0.982   2.909   2.140  0.0871  0.4926 -0.0667
  900SOL    HW1 2699   0.961   2.811   2.126 -1.2058  0.5454  0.0149
  900SOL    HW2 2700   0.969   2.964   2.056  1.2528 -2.0093  0.4205
  901SOL     OW 2701   0.833   2.234   0.441  0.3924 -0.0438 -0.0152
  901SOL    HW1 2702   0.908   2.301   0.461  0.5620  1.6578 -1.7257
  901SOL    HW2 2703   0.857   2.163   0.375 -1.9025  1.9248  0.6333
  902SOL     OW 2704   1.738   0.861   1.155  0.5145 -0.3172  0.4069
  902SOL    HW1 2705   1.638   0.865   1.132  1.9762  1.1727 -2.5324
  902SOL    HW2 2706   1.793   0.828   1.073  1.8345  2.9844 -0.1147
  903SOL     OW 2707   2.714   0.948   2.632  0.1971 -0.1891  0.1365
  903SOL    HW1 2708   2.735   1.020   2.697 -1.3786 -2.6200 -0.7876
  903SOL    HW2 2709   2.707   0.985   2.536 -0.0329 -0.9716  0.3964
  904SOL     OW 2710   1.172   0.985   3.005  0.1896 -0.5754 -0.4432
  904SOL    HW1 2711   1.265   0.961   2.990 -1.4170  1.1289  2.6016
  904SOL    HW2 2712   1.121   0.992   2.917  0.0901 -1.4519 -0.0635
  905SOL     OW 2713   1.762   2.977   1.241 -0.2184  0.2152  0.5942
  905SOL    HW1 2714   1.751   3.031   1.327  3.0338 -0.1894 -0.1886
  905SOL    HW2 2715   1.780   2.883   1.264 -0.8435  1.5416  2.3347
  906SOL     OW 2716   2.452   2.866   1.125 -0.1474  0.2371  0.1934
  906SOL    HW1 2717   2.513   2.837   1.045 -3.1259 -0.6769 -0.6918
  906SOL    HW2 2718   2.410   2.956   1.110 -1.5863 -1.7214 -1.0941
  907SOL     OW 2719   1.659   1.031   0.529  0.4326 -0.2412  0.0782
  907SOL    HW1 2720   1.694   0.939   0.560 -0.7148  0.5346 -2.5817
  907SOL    HW2 2721   1.709   1.064   0.446 -0.3111  0.2269 -1.1471
  908SOL     OW 2722   1.722   0.271   1.305 -0.1321 -0.1162  0.1933
  908SOL    HW1 2723   1.700   0.183   1.356  2.3004 -0.4402  1.1772
  908SOL    HW2 2724   1.737   0.351   1.362 -1.2552 -0.7930 -3.7247
  909SOL     OW 2725   2.042   0.425   0.958 -0.3324 -0.5801  0.1855
  909SOL    HW1 2726   1.992   0.366   1.017 -1.1848  2.8330 -0.8338
  909SOL    HW2 2727   2.088   0.493   1.014  1.4574  0.5980 -1.8134
  910SOL     OW 2728   2.365   0.585   2.061 -0.3953 -0.1791 -0.2388
  910SOL    HW1 2729   2.421   0.676   2.072  0.3721  1.6452 -0.1238
  910SOL    HW2 2730   2.268   0.612   2.077 -0.6059 -0.8052 -0.0263
  911SOL     OW 2731   2.531   0.393   2.774 -0.0762  0.3403 -0.1353
  911SOL    HW1 2732   2.522   0.461   2.851  0.1417 -1.0262  2.7663
  911SOL    HW2 2733   2.627   0.395   2.742 -2.6529 -1.6628 -0.6420
  912SOL     OW 2734   0.448   1.235   1.863  0.3788 -0.0438 -0.5650
  912SOL    HW1 2735   0.496   1.318   1.900  2.4692 -2.2201 -0.7830
  912SOL    HW2 2736   0.491   1.204   1.774 -1.0145 -1.0170 -0.3942
  913SOL     OW 2737   2.822   2.237   1.478 -0.0184 -0.4807  0.5599
  913SOL    HW1 2738   2.841   2.201   1.573  0.9068 -1.5520 -1.8202
  913SOL    HW2 2739   2.876   2.324   1.461 -0.6292  2.4553 -0.5419
  914SOL     OW 2740   1.796   0.852   1.538 -0.2096  0.2987  0.0880
  914SOL    HW1 2741   1.867   0.884   1.468  0.5143  1.1212 -1.9978
  914SOL    HW2 2742   1.743   0.778   1.488 -0.2522  0.7545 -0.1417
  915SOL     OW 2743   2.858   1.362   0.810  0.3406 -0.9851 -0.0909
  915SOL    HW1 2744   2.794   1.441   0.829 -1.9978 -1.0355  0.4542
  915SOL    HW2 2745   2.944   1.358   0.866  1.7454  0.8490 -2.5849
  916SOL     OW 2746   2.079   2.337   1.152  0.2727  0.5454 -0.6042
  916SOL    HW1 2747   1.990   2.376   1.130  1.7428 -0.5352  0.6002
  916SOL    HW2 2748   2.109   2.375   1.244  0.8051 -0.7867 -1.1927
  917SOL     OW 2749   1.825   2.800   2.199  0.2139  0.4392 -0.0366
  917SOL    HW1 2750   1.729   2.831   2.200  0.5455  1.9789 -0.4056
  917SOL    HW2 2751   1.877   2.831   2.281  1.1323 -2.5511 -1.3920
  918SOL     OW 2752   2.182   2.576   2.414  0.1699  0.0162  0.3672
  918SOL    HW1 2753   2.122   2.584   2.332 -1.2368  0.6501 -0.3069
  918SOL    HW2 2754   2.138   2.507   2.476  0.6744  1.3379  2.2943
  919SOL     OW 2755   1.026   0.221   1.502  0.0132  0.1437 -0.2953
  919SOL    HW1 2756   1.044   0.122   1.513 -0.5070  0.3096  1.9465
  919SOL    HW2 2757   1.027   0.272   1.589 -1.6935 -0.7660 -2.2278
  920SOL     OW 2758   2.685   0.517   2.261 -0.4588  0.2883 -0.5364
  920SOL    HW1 2759   2.626   0.438   2.227 -0.9256  0.0741 -1.9219
  920SOL    HW2 2760   2.779   0.497   2.289 -2.8993 -1.2081 -0.8712
  921SOL     OW 2761   3.022   0.942   1.763  0.0389 -0.1691  0.0238
  921SOL    HW1 2762   3.112   0.961   1.805  0.9590  0.3274  1.1865
  921SOL    HW2 2763   3.019   0.977   1.665  0.2101  3.2389  0.6138
  922SOL     OW 2764   2.434   2.460   0.652 -0.3133  0.0451 -0.1109
  922SOL    HW1 2765   2.472   2.554   0.636 -0.7886  0.8169  0.7029
  922SOL    HW2 2766   2.378   2.458   0.740 -0.7915 -0.6969 -1.0593
  923SOL     OW 2767   0.693   2.391   0.769  0.1316 -0.0777 -0.0200
  923SOL    HW1 2768   0.661   2.359   0.677  0.9521 -0.5302  0.7171
  923SOL    HW2 2769   0.621   2.441   0.820  2.0664  1.3595 -1.1897
  924SOL     OW 2770   1.109   0.861   2.662  0.7015 -0.0875 -0.3370
  924SOL    HW1 2771   1.128   0.961   2.675 -2.0465 -3.2419 -0.1191
  924SOL    HW2 2772   1.139   0.839   2.572 -0.1367  0.9801  0.6627
  925SOL     OW 2773   2.633   1.414   0.611 -0.4164  0.5201  0.1997
  925SOL    HW1 2774   2.655   1.479   0.692 -0.5577  2.5195 -2.1375
  925SOL    HW2 2775   2.688   1.328   0.616 -0.3438 -0.4941  2.3805
  926SOL     OW 2776   0.173   0.302   1.046 -0.4404 -0.1305  0.1654
  926SOL    HW1 2777   0.220   0.265   0.963  0.1795  2.2702 -1.6562
  926SOL    HW2 2778   0.102   0.242   1.089 -0.6465  1.1765  0.9337
  927SOL     OW 2779   0.534   1.701   2.590 -0.2198  0.3703  0.3778
  927SOL    HW1 2780   0.500   1.671   2.684 -0.6110 -0.7410  0.8901
  927SOL    HW2 2781   0.501   1.632   2.522 -0.3793  2.6511  2.4476
  928SOL     OW 2782   0.157   0.454   2.027  0.0085 -0.2905 -0.0110
  928SOL    HW1 2783   0.163   0.378   2.095 -0.2023  0.7878  1.7712
  928SOL    HW2 2784   0.163   0.421   1.931  2.3227  0.7906  0.8919
  929SOL     OW 2785   2.896   2.488   1.331  0.2671  0.1128  0.7682
  929SOL    HW1 2786   2.939   2.547   1.256  0.7637  3.3657 -0.0365
  929SOL    HW2 2787   2.798   2.477   1.318  1.9914 -0.2161 -0.4077
  930SOL     OW 2788   2.205   0.360   2.259 -0.3129  0.2387 -0.0288
  930SOL    HW1 2789   2.112   0.384   2.228  2.9395 -2.6951  0.8776
  930SOL    HW2 2790   2.247   0.274   2.214  1.5028 -2.9574  3.8282
  931SOL     OW 2791   2.214   1.112   2.854 -0.8229  0.0447  0.7529
  931SOL    HW1 2792   2.139   1.176   2.878 -0.4861  0.4064 -0.5365
  931SOL    HW2 2793   2.178   1.016   2.856  0.9120 -2.3962  1.1693
  932SOL     OW 2794   1.748   1.349   0.788 -0.2014  0.6259  0.7316
  932SOL    HW1 2795   1.728   1.246   0.781 -0.8182 -0.4028 -1.6640
  932SOL    HW2 2796   1.777   1.376   0.692  1.5204 -0.1874 -2.5978
  933SOL     OW 2797   2.157   1.726   1.009  0.4389 -0.1117  0.1893
  933SOL    HW1 2798   2.065   1.712   0.971  0.6262  0.9305 -2.0204
  933SOL    HW2 2799   2.223   1.741   0.933 -0.1979 -0.8231  0.6910
  934SOL     OW 2800   2.156   0.820   2.832 -0.4360  0.6756 -0.5440
  934SOL    HW1 2801   2.152   0.840   2.731  1.8834  0.6324 -3.1246
  934SOL    HW2 2802   2.228   0.756   2.858  1.4895 -1.3820  3.1302
  935SOL     OW 2803   0.022   1.177   0.531 -0.2219  0.7622  0.0322
  935SOL    HW1 2804   0.075   1.179   0.439 -0.1711  0.8839 -0.1000
  935SOL    HW2 2805   3.035   1.167   0.510 -2.1683 -0.6230  0.3397
  936SOL     OW 2806   0.044   2.802   0.794  0.0677 -0.2683 -0.3867
  936SOL    HW1 2807   0.101   2.879   0.768 -1.3195 -1.4214 -0.3037
  936SOL    HW2 2808   0.098   2.723   0.769 -0.1126  2.1165 -1.3947
  937SOL     OW 2809   0.100   2.288   1.783 -0.1009 -0.1832 -0.2325
  937SOL    HW1 2810   0.090   2.265   1.883  0.2385 -1.7943 -0.5004
  937SOL    HW2 2811   0.186   2.245   1.740  1.1499  0.1985  0.4955
  938SOL     OW 2812   2.728   2.215   0.137 -0.2112  0.2763 -0.1538
  938SOL    HW1 2813   2.825   2.216   0.172  0.0782  1.7462  2.9112
  938SOL    HW2 2814   2.713   2.283   0.062 -1.9325 -0.6520 -0.5815
  939SOL     OW 2815   0.989   0.958   1.236  0.7107 -0.2957  0.0980
  939SOL    HW1 2816   1.019   1.041   1.188 -0.5779 -0.2020 -0.0309
  939SOL    HW2 2817   1.032   0.873   1.190 -0.1111 -1.6743  1.0096
  940SOL     OW 2818   2.794   0.330   2.694 -0.4243  0.2788  0.4458
  940SOL    HW1 2819   2.741   0.245   2.695  1.2599  0.5753 -2.0586
  940SOL    HW2 2820   2.895   0.320   2.677 -1.8075  3.4507  0.0536
  941SOL     OW 2821   2.631   2.466   2.599  0.1772 -0.5897 -0.3383
  941SOL    HW1 2822   2.721   2.509   2.586 -2.9137  0.5093  1.3791
  941SOL    HW2 2823   2.551   2.523   2.552 -3.5193  0.4980 -2.6845
  942SOL     OW 2824   1.290   0.089   1.313  0.4847 -0.4858 -0.5516
  942SOL    HW1 2825   1.348   0.016   1.351  2.8485 -0.9179 -0.0146
  942SOL    HW2 2826   1.332   0.177   1.352  1.2567 -0.4367 -2.9306
  943SOL     OW 2827   0.847   1.477   2.281 -0.1419  0.3963 -0.0690
  943SOL    HW1 2828   0.800   1.396   2.251  0.7682  1.6047  1.8704
  943SOL    HW2 2829   0.794   1.562   2.270 -1.1643 -0.3495 -2.6203
  944SOL     OW 2830   2.229   1.008   0.863 -0.3186  0.6816 -0.2310
  944SOL    HW1 2831   2.148   0.984   0.805 -2.2386 -1.8156 -2.2995
  944SOL    HW2 2832   2.203   1.069   0.942  1.9822 -1.9688 -0.4336
  945SOL     OW 2833   2.953   2.784   3.016  0.5044  0.0060 -0.4521
  945SOL    HW1 2834   2.910   2.764   2.923  1.1226  1.2144  1.2417
  945SOL    HW2 2835   3.013   2.864   3.019  1.6010 -1.5872  0.4559
  946SOL     OW 2836   0.026   1.382   1.653 -0.3218  0.2287  0.0527
  946SOL    HW1 2837   0.005   1.386   1.555  1.7987  0.9041 -4.2810
  946SOL    HW2 2838   0.084   1.303   1.671 -1.8389  1.8455 -0.8216
  947SOL     OW 2839   0.918   2.979   0.121  0.0742 -0.0373 -0.0949
  947SOL    HW1 2840   0.964   3.019   0.200 -1.5384 -0.8723 -0.9010
  947SOL    HW2 2841   0.824   2.954   0.139  0.9716 -1.3087 -0.5250
  948SOL     OW 2842   2.384   1.633   1.260  0.6431 -0.1965  0.1278
  948SOL    HW1 2843   2.385   1.545   1.201 -0.1624 -1.2092  1.8096
  948SOL    HW2 2844   2.307   1.687   1.220 -1.7009  1.2949 -0.0835
  949SOL     OW 2845   0.347   0.873   2.759  0.7562 -0.6793 -0.2439
  949SOL    HW1 2846   0.275   0.899   2.826 -0.8008  0.6718  0.2275
  949SOL    HW2 2847   0.388   0.948   2.703  1.7818  1.9932  2.5527
  950SOL     OW 2848   0.375   2.538   1.291 -0.1473 -0.2770  0.1309
  950SOL    HW1 2849   0.363   2.633   1.253 -0.8897  0.1311 -2.0678
  950SOL    HW2 2850   0.458   2.534   1.352  2.0205  0.9472 -0.9593
  951SOL     OW 2851   0.983   1.643   2.786 -0.2990  0.3490  0.5662
  951SOL    HW1 2852   0.922   1.623   2.866 -0.8084  1.7808 -3.0564
  951SOL    HW2 2853   0.929   1.649   2.697 -1.7468 -3.6704  0.2668
  952SOL     OW 2854   0.541   1.348   0.583 -0.0246  0.2111 -0.1464
  952SOL    HW1 2855   0.587   1.269   0.633  2.5720 -2.4414  0.9730
  952SOL    HW2 2856   0.447   1.329   0.556  0.4733 -0.4486 -0.5230
  953SOL     OW 2857   2.332   2.209   2.549  0.0892 -0.4592  0.7322
  953SOL    HW1 2858   2.407   2.224   2.483  0.3914 -0.2242  0.2232
  953SOL    HW2 2859   2.370   2.202   2.643  1.8531 -0.5205 -2.3991
  954SOL     OW 2860   1.713   0.797   0.683 -0.0787 -0.1989 -0.1990
  954SOL    HW1 2861   1.619   0.792   0.722 -0.2430 -1.1144  0.2096
  954SOL    HW2 2862   1.780   0.764   0.756  1.1681 -1.7529 -0.8713
  955SOL     OW 2863   0.683   1.934   0.105 -0.1153 -0.1733 -0.2019
  955SOL    HW1 2864   0.619   2.008   0.139 -2.1105  1.9234 -2.6865
  955SOL    HW2 2865   0.669   1.924   0.003 -2.6819 -1.7774 -0.9591
  956SOL     OW 2866   2.647   0.406   1.820  0.4934 -1.0110  0.4184
  956SOL    HW1 2867   2.597   0.390   1.727 -0.0020 -0.2588  0.8429
  956SOL    HW2 2868   2.586   0.388   1.898 -0.7206  0.9085  0.6051
  957SOL     OW 2869   1.914   2.254   1.884  0.2457  0.1301 -0.4479
  957SOL    HW1 2870   1.983   2.318   1.922  1.5023 -1.6439 -2.2668
  957SOL    HW2 2871   1.956   2.160   1.873  0.9920  0.2571 -0.5371
  958SOL     OW 2872   1.605   1.041   1.560 -0.8122  0.3156 -0.0572
  958SOL    HW1 2873   1.646   1.133   1.550 -1.9015 -2.2888  0.6559
  958SOL    HW2 2874   1.677   0.967   1.548  0.7130 -1.0901  1.3861
  959SOL     OW 2875   1.609   2.082   2.233  0.6432  0.2362 -0.0349
  959SOL    HW1 2876   1.537   2.043   2.296  2.8580 -3.1700  0.2697
  959SOL    HW2 2877   1.647   2.170   2.263  0.8722 -0.7849  3.2910
  960SOL     OW 2878   0.681   0.702   2.713 -0.0334 -0.1091  0.0498
  960SOL    HW1 2879   0.599   0.658   2.756 -1.1432  0.1138  1.4135
  960SOL    HW2 2880   0.762   0.672   2.764 -4.4199 -1.4891 -1.3695
  961SOL     OW 2881   3.088   0.962   2.722 -0.3311 -0.3488 -0.6155
  961SOL    HW1 2882   3.056   0.865   2.704 -2.1050 -2.4745 -2.7255
  961SOL    HW2 2883   3.054   1.027   2.650 -1.5727 -2.6128 -2.2570
  962SOL     OW 2884   0.984   1.954   2.955  0.6024  0.3107  0.0230
  962SOL    HW1 2885   0.892   1.981   2.923  0.4133 -0.8568 -0.7204
  962SOL    HW2 2886   1.042   2.036   2.984  2.4266 -0.0684  1.0820
  963SOL     OW 2887   2.782   1.937   0.050 -0.0950 -0.2379  0.5531
  963SOL    HW1 2888   2.722   1.871   3.110  0.6994  0.4686  0.9500
  963SOL    HW2 2889   2.753   2.032   0.032  0.1485 -0.1556 -1.6606
  964SOL     OW 2890   0.832   2.223   2.181  0.1597  0.4550  0.0670
  964SOL    HW1 2891   0.760   2.182   2.130 -1.6859  0.6722 -0.7837
  964SOL    HW2 2892   0.811   2.313   2.217  1.6552 -1.4690  0.2434
  965SOL     OW 2893   1.647   1.851   1.583  0.1862 -0.1334 -0.2615
  965SOL    HW1 2894   1.675   1.947   1.596 -0.5110  0.0618 -2.4862
  965SOL    HW2 2895   1.650   1.804   1.678 -2.3304 -0.0366  2.5713
  966SOL     OW 2896   3.019   1.722   3.077 -0.1695  0.0848  0.3849
  966SOL    HW1 2897   2.995   1.805   0.013  0.2363 -3.7617  2.6741
  966SOL    HW2 2898   3.045   1.753   2.984  2.4129  0.6897 -1.6648
  967SOL     OW 2899   2.238   2.824   2.115 -0.2356 -0.2542 -0.0316
  967SOL    HW1 2900   2.178   2.747   2.140  0.5820  1.6714  0.4620
  967SOL    HW2 2901   2.209   2.876   2.032  0.1927  1.6344  0.8900
  968SOL     OW 2902   1.176   0.846   0.114 -0.0978 -0.1551  0.3628
  968SOL    HW1 2903   1.167   0.883   0.016  2.2446  0.6332 -4.1437
  968SOL    HW2 2904   1.246   0.778   0.109 -1.9176  0.7298 -1.4723
  969SOL     OW 2905   0.585   1.192   2.493 -0.1418 -0.0381  0.1313
  969SOL    HW1 2906   0.625   1.201   2.403  0.0623 -3.3670  0.9939
  969SOL    HW2 2907   0.599   1.101   2.527 -2.2466  0.8839 -2.2296
  970SOL     OW 2908   1.983   2.921   0.854 -0.2638 -0.1930 -0.5402
  970SOL    HW1 2909   2.078   2.889   0.872 -2.9846 -2.7786 -0.2129
  970SOL    HW2 2910   1.958   2.905   0.758  1.6345 -0.4405 -2.2093
  971SOL     OW 2911   2.152   2.199   0.676  0.6707 -0.3037  0.6782
  971SOL    HW1 2912   2.183   2.204   0.774  0.6160  0.7414 -0.6073
  971SOL    HW2 2913   2.224   2.235   0.614  0.9287 -1.1589  0.4696
  972SOL     OW 2914   3.113   1.409   2.661  0.3064  0.0528  0.1850
  972SOL    HW1 2915   3.064   1.422   2.568 -0.6778  0.4355 -2.0955
  972SOL    HW2 2916   0.093   1.442   2.650 -0.4421  0.6775  0.0779
  973SOL     OW 2917   0.706   0.347   0.351  0.2278 -0.2209 -0.2911
  973SOL    HW1 2918   0.751   0.274   0.298 -0.1110 -0.4377  2.8336
  973SOL    HW2 2919   0.722   0.440   0.304  2.4512 -0.3020 -0.9791
  974SOL     OW 2920   2.584   0.879   1.768  0.5927 -0.2535  0.4866
  974SOL    HW1 2921   2.644   0.799   1.758 -0.0675  1.1201  1.1786
  974SOL    HW2 2922   2.580   0.916   1.861  1.4132 -1.1878  3.0484
  975SOL     OW 2923   2.925   0.108   0.878  0.3792  0.3548 -0.2955
  975SOL    HW1 2924   2.874   0.136   0.962 -1.3626 -1.7187  0.4200
  975SOL    HW2 2925   2.913   0.176   0.804  0.3688  1.0871  2.1862
  976SOL     OW 2926   0.720   1.610   1.112 -0.0655  0.6130  0.5671
  976SOL    HW1 2927   0.638   1.640   1.162 -0.2764  1.9005 -0.7798
  976SOL    HW2 2928   0.793   1.560   1.170  3.6124 -0.2941  0.9964
  977SOL     OW 2929   1.348   2.199   0.314  0.0327 -0.7786  0.7604
  977SOL    HW1 2930   1.423   2.214   0.248  2.2803 -2.4972 -1.1996
  977SOL    HW2 2931   1.269   2.266   0.308 -2.2227  0.6531 -1.8318
  978SOL     OW 2932   0.158   0.627   3.070 -0.2535 -0.0158 -0.8054
  978SOL    HW1 2933   0.149   0.595   2.975  1.1202  0.4706  2.9261
  978SOL    HW2 2934   0.217   0.567   0.010 -0.3688  3.6137 -2.5654
  979SOL     OW 2935   1.906   1.718   0.946  0.6046 -0.4489  0.1086
  979SOL    HW1 2936   1.834   1.651   0.968 -0.6154  1.5557 -1.5836
  979SOL    HW2 2937   1.878   1.760   0.853 -0.1983 -1.8993 -0.9252
  980SOL     OW 2938   0.596   2.040   1.884 -0.3743 -0.1448 -0.1377
  980SOL    HW1 2939   0.673   1.996   1.940  4.4994 -0.0352  0.4819
  980SOL    HW2 2940   0.634   2.073   1.794 -1.5089  0.1493 -4.0969
  981SOL     OW 2941   2.377   1.413   2.455  0.2032  0.2238  0.4086
  981SOL    HW1 2942   2.388   1.344   2.531  0.2166  4.5486  3.7324
  981SOL    HW2 2943   2.295   1.472   2.480 -1.7945 -2.0557  1.7495
  982SOL     OW 2944   0.298   2.173   1.650  0.2539 -0.8743  0.3891
  982SOL    HW1 2945   0.255   2.219   1.567 -2.2266 -0.7692 -4.0849
  982SOL    HW2 2946   0.321   2.075   1.629  1.1812  0.9583  0.9620
  983SOL     OW 2947   1.654   0.325   1.854  0.1362  0.2163 -0.0119
  983SOL    HW1 2948   1.585   0.349   1.780 -1.3979 -0.5117 -3.0224
  983SOL    HW2 2949   1.717   0.254   1.821 -1.5171  2.5312  0.9681
  984SOL     OW 2950   2.699   2.894   3.024 -0.1688  0.1802 -0.5227
  984SOL    HW1 2951   2.789   2.846   3.024  2.4635  1.1400  3.0759
  984SOL    HW2 2952   2.654   2.868   3.112  0.4028 -0.8766 -3.1340
  985SOL     OW 2953   1.452   1.461   1.779 -0.1943 -0.1129  0.1310
  985SOL    HW1 2954   1.398   1.498   1.853  0.8562  0.0603  0.0499
  985SOL    HW2 2955   1.520   1.399   1.808 -4.7167  1.5246 -0.3165
  986SOL     OW 2956   2.115   0.187   2.704 -0.3426  0.0442  0.0193
  986SOL    HW1 2957   2.168   0.105   2.687 -1.4873  3.2307 -1.3519
  986SOL    HW2 2958   2.147   0.220   2.795  2.0077 -3.2314 -2.9848
  987SOL     OW 2959   2.708   1.657   2.763 -0.1734 -0.2230 -0.1217
  987SOL    HW1 2960   2.741   1.607   2.849  0.2327 -1.1616  0.8680
  987SOL    HW2 2961   2.704   1.753   2.778 -1.2146  0.3942  0.7989
  988SOL     OW 2962   0.011   0.460   1.366  0.2755  0.1947 -0.3091
  988SOL    HW1 2963   3.050   0.391   1.351 -0.3132  0.6989 -1.4054
  988SOL    HW2 2964   0.010   0.483   1.466  0.5368  0.1441 -0.0191
  989SOL     OW 2965   1.923   0.790   0.964  0.1177 -0.3115 -0.0126
  989SOL    HW1 2966   1.995   0.727   0.999 -3.2966  2.2443 -1.0971
  989SOL    HW2 2967   1.959   0.852   0.892  1.0974 -0.7978 -0.9744
  990SOL     OW 2968   2.647   0.391   3.065 -0.3559 -0.3582 -0.7639
  990SOL    HW1 2969   2.722   0.459   3.049 -2.4029 -0.5438  0.0752
  990SOL    HW2 2970   2.674   0.302   3.020  2.9727  1.9862 -0.2747
  991SOL     OW 2971   0.095   1.509   0.004  0.0615 -0.0287  0.7117
  991SOL    HW1 2972   0.050   1.417   3.106  0.1368  0.2499 -0.2975
  991SOL    HW2 2973   0.018   1.580   0.011 -1.6760  1.0114  2.8940
  992SOL     OW 2974   2.064   1.566   1.902  0.1158  0.0584  0.3337
  992SOL    HW1 2975   2.101   1.592   1.996 -3.2070  0.6547  0.9555
  992SOL    HW2 2976   2.079   1.470   1.885  1.5374 -0.5397 -1.9669
  993SOL     OW 2977   0.208   2.559   0.817  0.5359  0.4278  0.4769
  993SOL    HW1 2978   0.189   2.477   0.869  0.2958  0.1947 -3.7599
  993SOL    HW2 2979   0.249   2.625   0.876 -1.4051 -1.5618  0.0814
  994SOL     OW 2980   3.079   1.614   2.043  0.4378  0.1801 -0.4697
  994SOL    HW1 2981   2.994   1.570   2.031  0.0131  0.4478  2.2159
  994SOL    HW2 2982   0.009   1.632   1.950  3.9715  3.5838 -1.3465
  995SOL     OW 2983   1.811   2.060   2.517  0.3923  0.3374  0.5117
  995SOL    HW1 2984   1.793   2.146   2.470 -0.2488 -0.9571  1.5623
  995SOL    HW2 2985   1.777   1.977   2.465 -2.6369 -1.4239  0.4112
  996SOL     OW 2986   2.095   2.121   0.191  0.6815 -0.2444 -0.7015
  996SOL    HW1 2987   2.020   2.183   0.218 -0.6570 -0.8817 -0.1526
  996SOL    HW2 2988   2.086   2.035   0.238 -0.3771  1.3526 -3.8893
  997SOL     OW 2989   1.284   1.556   2.539  0.1459  0.5470  0.5873
  997SOL    HW1 2990   1.216   1.482   2.512 -0.5996 -0.9119 -0.3443
  997SOL    HW2 2991   1.380   1.519   2.536  1.5380  0.7386 -1.8488
  998SOL     OW 2992   3.045   2.405   0.665  0.0003  0.0688 -0.6002
  998SOL    HW1 2993   3.043   2.466   0.747  0.5543 -0.3486 -0.4000
  998SOL    HW2 2994   3.001   2.446   0.581 -3.5443 -0.1099  0.9573
  999SOL     OW 2995   0.483   2.792   0.510 -0.3154  0.4787  0.2412
  999SOL    HW1 2996   0.577   2.764   0.538 -0.7650 -0.2397 -1.4733
  999SOL    HW2 2997   0.428   2.710   0.537  0.7694  1.8735  0.4545
 1000SOL     OW 2998   1.212   0.140   0.005 -0.2098  0.0979 -0.0318
 1000SOL    HW1 2999   1.158   0.063   3.076 -1.0636  0.1821  1.5087
 1000SOL    HW2 3000   1.270   0.183   3.050 -1.3408 -1.7570  1.6235
   3.11524   3.11524   3.11524
