1000 SPC/Fw water molecules t= 445.00000 step= 445000
 3000
    1SOL     OW    1   0.121   0.058   1.477  0.2642 -0.3862  0.2926
    1SOL    HW1    2   0.136   0.067   1.375  1.9512 -1.8830  1.6378
    1SOL    HW2    3   0.193   3.093   1.519  0.0183 -0.4125  0.2974
    2SOL     OW    4   2.801   0.085   3.036  0.0456 -0.1034  0.1435
    2SOL    HW1    5   2.885   0.041   3.084 -0.3626  2.0750 -1.9236
    2SOL    HW2    6   2.720   0.053   3.088 -0.1132 -0.6137  0.8602
    3SOL     OW    7   1.202   2.766   0.088  0.5551  0.2572  0.2063
    3SOL    HW1    8   1.198   2.693   0.011  3.1951  0.5417  0.2752
    3SOL    HW2    9   1.296   2.784   0.121 -0.5782 -0.5801 -1.8319
    4SOL     OW   10   1.286   2.758   2.376  0.3713 -0.5148 -0.0739
    4SOL    HW1   11   1.340   2.673   2.386 -0.0223 -0.6118  0.3740
    4SOL    HW2   12   1.186   2.748   2.406  0.5441 -0.1056  0.1618
    5SOL     OW   13   2.448   0.465   1.718 -0.7921 -0.2188  0.3699
    5SOL    HW1   14   2.362   0.456   1.665  0.4474 -0.5624 -3.5436
    5SOL    HW2   15   2.521   0.409   1.671  2.4730 -0.3105  2.8672
    6SOL     OW   16   2.491   2.103   1.045  0.4680 -0.2364  0.1391
    6SOL    HW1   17   2.519   2.006   1.059 -0.0960 -2.8305  2.4276
    6SOL    HW2   18   2.557   2.178   1.069  0.0144  0.7714 -0.7912
    7SOL     OW   19   1.438   1.826   0.582  0.0218 -0.0613 -1.0120
    7SOL    HW1   20   1.367   1.839   0.510 -1.6490 -0.0416  1.4292
    7SOL    HW2   21   1.404   1.811   0.679 -0.8541 -0.6283 -0.6829
    8SOL     OW   22   0.301   0.940   0.771  0.0617  0.1899  0.4982
    8SOL    HW1   23   0.348   1.033   0.768 -0.0866  0.1038 -2.1028
    8SOL    HW2   24   0.351   0.884   0.710 -1.1572  0.8151 -0.9515
    9SOL     OW   25   0.321   3.046   1.606  0.9333 -0.0510  0.4047
    9SOL    HW1   26   0.373   0.026   1.651 -4.6432 -1.3962  0.9832
    9SOL    HW2   27   0.328   2.953   1.653 -0.1969 -2.7426  2.4893
   10SOL     OW   28   1.168   2.323   0.598 -0.6538 -0.1121  0.0522
   10SOL    HW1   29   1.268   2.317   0.629  1.9095  1.0910  0.8068
   10SOL    HW2   30   1.122   2.394   0.656 -1.8795  0.4317  1.3201
   11SOL     OW   31   2.053   1.261   1.093  0.5171  0.0744 -0.0264
   11SOL    HW1   32   1.955   1.266   1.074  2.0992  1.5631  0.3890
   11SOL    HW2   33   2.111   1.231   1.011  0.2870  0.6620 -1.6007
   12SOL     OW   34   0.085   1.015   2.024  0.1699 -0.2151  0.0844
   12SOL    HW1   35   0.014   0.998   1.947 -3.2847 -0.0247  0.3063
   12SOL    HW2   36   0.160   0.946   2.009  0.2899 -1.3261 -1.1758
   13SOL     OW   37   2.349   3.006   0.112  0.0220  0.3917  0.1081
   13SOL    HW1   38   2.293   2.934   0.159  1.1146 -0.3444  2.1266
   13SOL    HW2   39   2.293   3.051   0.037 -0.8245  1.4042  0.3037
   14SOL     OW   40   1.343   2.001   0.157 -0.2882 -0.2728  0.3029
   14SOL    HW1   41   1.356   1.972   0.257  0.4418 -0.1491  1.0430
   14SOL    HW2   42   1.332   2.100   0.147 -1.3794  0.7597  0.1828
   15SOL     OW   43   2.939   2.323   1.814 -0.2108  0.1960 -1.0370
   15SOL    HW1   44   2.980   2.383   1.743  0.1128 -3.0113  0.4921
   15SOL    HW2   45   2.958   2.370   1.909 -0.4617  2.3442  2.0373
   16SOL     OW   46   2.840   0.527   0.946 -0.1868 -0.1941  0.0063
   16SOL    HW1   47   2.870   0.441   0.900  2.1729 -1.8964 -0.5859
   16SOL    HW2   48   2.887   0.522   1.031 -1.9338 -0.7949 -1.7592
   17SOL     OW   49   0.785   0.271   0.822 -0.5144 -0.6337  0.0805
   17SOL    HW1   50   0.852   0.316   0.753 -1.0355  0.7858 -2.3588
   17SOL    HW2   51   0.812   0.174   0.845 -2.2655  1.2142  1.4668
   18SOL     OW   52   0.601   3.055   0.591 -0.5813  0.5713 -0.3908
   18SOL    HW1   53   0.693   3.090   0.612 -3.9399  1.6156 -2.7759
   18SOL    HW2   54   0.555   0.010   0.517 -0.5643 -2.0117  1.6283
   19SOL     OW   55   1.546   1.044   1.068  0.2892 -0.1004  0.2293
   19SOL    HW1   56   1.458   1.054   1.010 -2.2098  0.5620 -0.9232
   19SOL    HW2   57   1.529   1.070   1.166  0.7631  1.9663  0.2549
   20SOL     OW   58   2.205   1.645   2.676  0.1370  0.4673 -0.1220
   20SOL    HW1   59   2.133   1.690   2.613 -3.7487  0.7302  0.8467
   20SOL    HW2   60   2.286   1.705   2.689  1.2896 -1.2369  0.7159
   21SOL     OW   61   1.492   2.909   0.460 -0.0194  0.1000 -0.3122
   21SOL    HW1   62   1.456   2.897   0.366  0.2139  1.4305  1.9438
   21SOL    HW2   63   1.578   2.970   0.462  0.7945  0.4901 -0.5619
   22SOL     OW   64   2.604   0.804   0.385  0.1416  0.1319 -0.0660
   22SOL    HW1   65   2.540   0.791   0.457 -0.4844 -0.1934  1.0367
   22SOL    HW2   66   2.580   0.891   0.336  1.8277 -0.1052  0.0259
   23SOL     OW   67   0.945   0.368   2.004  0.3069  0.3885  0.0287
   23SOL    HW1   68   1.036   0.369   1.959  1.4386 -1.0013  0.4132
   23SOL    HW2   69   0.880   0.413   1.934 -1.1432  0.4469 -1.8752
   24SOL     OW   70   1.857   2.395   0.464 -0.0412  0.0986 -0.1557
   24SOL    HW1   71   1.936   2.336   0.497 -3.5946  0.9785  0.2402
   24SOL    HW2   72   1.780   2.334   0.432  1.2871  2.0299  0.6138
   25SOL     OW   73   1.804   0.323   2.504 -0.0694  0.2198 -0.4573
   25SOL    HW1   74   1.788   0.218   2.495  0.1091 -1.5992 -1.8435
   25SOL    HW2   75   1.787   0.371   2.415 -2.6005 -0.4758 -3.1211
   26SOL     OW   76   1.453   2.749   2.808  0.0893  0.2315 -0.5659
   26SOL    HW1   77   1.513   2.721   2.883 -0.1272  1.5932  0.2871
   26SOL    HW2   78   1.451   2.672   2.738  1.0007  0.2434 -1.5097
   27SOL     OW   79   1.293   0.330   1.235  0.1540 -0.2686  0.6049
   27SOL    HW1   80   1.222   0.400   1.211  0.8894 -0.9068  1.9837
   27SOL    HW2   81   1.260   0.246   1.285 -0.7006  0.3118  1.6848
   28SOL     OW   82   0.523   1.628   0.920 -0.0751  0.2897  0.1266
   28SOL    HW1   83   0.563   1.552   0.976 -2.8261  1.5852  0.2823
   28SOL    HW2   84   0.467   1.686   0.981  1.5624 -0.7028 -2.0173
   29SOL     OW   85   2.587   0.517   1.238  0.3814  0.7382  0.0241
   29SOL    HW1   86   2.615   0.557   1.151 -0.2153 -2.5196  0.2048
   29SOL    HW2   87   2.669   0.478   1.287 -2.0415  0.8825 -1.9187
   30SOL     OW   88   1.667   2.476   1.367  0.2381 -0.0008  0.2330
   30SOL    HW1   89   1.736   2.405   1.365 -0.5375  1.7012 -1.3964
   30SOL    HW2   90   1.580   2.448   1.323 -0.6046  0.5082  0.8875
   31SOL     OW   91   1.642   2.837   1.276  0.1982 -0.0632 -0.2454
   31SOL    HW1   92   1.729   2.796   1.311  0.6719 -1.9417 -0.5362
   31SOL    HW2   93   1.642   2.848   1.175 -0.6530  0.6049 -0.2122
   32SOL     OW   94   1.987   1.481   2.050  0.6565  0.0756 -0.3037
   32SOL    HW1   95   1.999   1.396   1.993  0.8274 -3.0764  1.3559
   32SOL    HW2   96   2.054   1.553   2.023  0.3194  1.5823 -0.7933
   33SOL     OW   97   2.535   3.014   2.317  0.0190  0.5118  0.0339
   33SOL    HW1   98   2.550   0.022   2.308  1.2985 -0.2763  0.8041
   33SOL    HW2   99   2.449   2.983   2.269  0.1814 -0.4901  0.7732
   34SOL     OW  100   2.079   0.322   0.698  0.7671 -0.1760  0.0372
   34SOL    HW1  101   2.091   0.348   0.601  0.7251 -3.0001  1.2840
   34SOL    HW2  102   1.990   0.361   0.731  0.8947  2.5945 -0.9309
   35SOL     OW  103   0.102   1.740   1.634 -0.2711 -0.3014  0.1711
   35SOL    HW1  104   0.121   1.645   1.658  1.8650  0.6999 -1.7041
   35SOL    HW2  105   0.163   1.751   1.556  2.1117  0.3886  0.0186
   36SOL     OW  106   2.587   2.228   2.848  0.6224  0.5348  0.6806
   36SOL    HW1  107   2.624   2.277   2.767 -0.5428  1.0647  0.2764
   36SOL    HW2  108   2.539   2.291   2.910  1.3857 -1.8740  1.9049
   37SOL     OW  109   1.266   2.966   1.732 -0.6423 -0.4193  0.0878
   37SOL    HW1  110   1.269   3.041   1.805 -0.9246  1.0934  3.3927
   37SOL    HW2  111   1.359   2.939   1.702 -2.0650 -0.8302  1.6098
   38SOL     OW  112   0.840   0.760   2.462 -0.2353 -0.1676 -0.6646
   38SOL    HW1  113   0.932   0.737   2.489 -4.3477  0.1225 -1.9735
   38SOL    HW2  114   0.846   0.811   2.374  2.4290  0.8276  1.8110
   39SOL     OW  115   1.855   0.877   1.553  0.1101  0.6726  0.3487
   39SOL    HW1  116   1.954   0.894   1.531  0.0185 -1.4441 -3.3041
   39SOL    HW2  117   1.815   0.944   1.618  1.2131  0.6404 -1.0197
   40SOL     OW  118   0.858   2.287   0.752 -0.2239  0.4847 -0.4707
   40SOL    HW1  119   0.907   2.231   0.682 -0.1535  0.2055  1.5523
   40SOL    HW2  120   0.797   2.231   0.812 -1.6604  0.3815  0.2482
   41SOL     OW  121   2.249   2.155   1.141 -0.3793 -0.3679  0.1911
   41SOL    HW1  122   2.223   2.225   1.073  3.9445 -2.7469  1.5182
   41SOL    HW2  123   2.339   2.113   1.109  1.8598 -2.0046 -0.7170
   42SOL     OW  124   2.712   0.553   0.453 -0.9699  0.2534  0.6183
   42SOL    HW1  125   2.672   0.462   0.427 -1.6479 -4.7509 -1.3119
   42SOL    HW2  126   2.683   0.635   0.395 -1.5063  0.5661 -0.8327
   43SOL     OW  127   0.842   0.961   2.648 -0.3473  0.0344  0.7286
   43SOL    HW1  128   0.823   0.871   2.600  1.0574 -3.8822  1.5641
   43SOL    HW2  129   0.771   1.033   2.634  1.9844 -1.2284 -3.7722
   44SOL     OW  130   1.885   2.654   1.356  0.2651 -0.0103  0.7561
   44SOL    HW1  131   1.800   2.597   1.366 -1.2747 -2.0361  0.6151
   44SOL    HW2  132   1.951   2.602   1.299 -1.6500 -0.8553 -0.5798
   45SOL     OW  133   0.739   2.640   2.926  0.0266  0.4006  0.5275
   45SOL    HW1  134   0.691   2.679   3.002  1.9043  1.4374 -3.9988
   45SOL    HW2  135   0.719   2.684   2.835  0.8990  0.6211  4.1951
   46SOL     OW  136   0.417   2.654   2.064  0.0556  0.2537 -0.0011
   46SOL    HW1  137   0.480   2.735   2.068 -0.5636  1.6249  0.3749
   46SOL    HW2  138   0.342   2.670   2.132  0.3509  0.4323  0.9633
   47SOL     OW  139   0.645   1.910   0.528  0.0812  0.2075  0.4500
   47SOL    HW1  140   0.723   1.848   0.532  0.5750 -2.7494 -0.4131
   47SOL    HW2  141   0.586   1.906   0.608  0.1956  2.3454 -0.8247
   48SOL     OW  142   0.789   2.948   1.218 -0.3747 -0.3203  0.2298
   48SOL    HW1  143   0.793   2.881   1.294 -0.9202 -1.1675 -0.1742
   48SOL    HW2  144   0.780   2.899   1.127  3.5577 -2.6620 -3.8580
   49SOL     OW  145   2.909   2.802   2.797 -0.7127  0.2635  0.0971
   49SOL    HW1  146   2.815   2.801   2.762 -1.3104 -0.8691 -2.2109
   49SOL    HW2  147   2.933   2.899   2.824 -0.1523  1.2381  3.0811
   50SOL     OW  148   1.284   1.156   0.196 -0.2527 -0.8157  0.5849
   50SOL    HW1  149   1.203   1.187   0.145  0.6379 -4.2233  2.9743
   50SOL    HW2  150   1.342   1.094   0.136 -0.1883 -0.9359 -0.7160
   51SOL     OW  151   1.992   3.088   0.540  0.0332  0.5104  0.5103
   51SOL    HW1  152   2.011   0.071   0.478 -1.2301  1.7425 -0.1071
   51SOL    HW2  153   2.017   0.012   0.637  0.3620 -2.0568 -1.6960
   52SOL     OW  154   0.594   1.578   0.651 -0.6261 -0.2406 -0.0287
   52SOL    HW1  155   0.585   1.597   0.753 -0.5413 -2.3786  2.7147
   52SOL    HW2  156   0.666   1.637   0.610 -1.6569 -0.9710 -0.0482
   53SOL     OW  157   0.258   1.255   2.876  0.0123 -0.3264  0.3039
   53SOL    HW1  158   0.169   1.224   2.838  0.6359 -1.5150 -0.8649
   53SOL    HW2  159   0.282   1.202   2.959 -1.2849 -0.7885  1.9239
   54SOL     OW  160   2.488   2.020   3.015  0.1321 -0.0709  0.0855
   54SOL    HW1  161   2.534   1.949   3.074  2.4394  0.0667 -1.0030
   54SOL    HW2  162   2.557   2.091   2.982  0.3535 -0.9727 -0.1696
   55SOL     OW  163   2.761   2.209   1.110  0.2922 -0.3397  0.5487
   55SOL    HW1  164   2.789   2.111   1.113 -0.1461  1.7690  0.0541
   55SOL    HW2  165   2.822   2.269   1.164  0.4853  1.0374  0.0464
   56SOL     OW  166   1.738   0.160   1.592 -0.0553 -0.2168 -0.5257
   56SOL    HW1  167   1.684   0.232   1.553  1.0422 -1.8189  2.1225
   56SOL    HW2  168   1.787   0.199   1.672  1.1250  2.4698  1.6812
   57SOL     OW  169   1.760   1.731   1.035  0.8945 -0.1861  0.4624
   57SOL    HW1  170   1.794   1.814   1.079 -0.4187 -2.2691  0.1634
   57SOL    HW2  171   1.754   1.647   1.101 -1.3801 -4.0777 -0.4982
   58SOL     OW  172   2.599   0.379   1.983 -0.2281  0.2270 -0.0246
   58SOL    HW1  173   2.665   0.322   2.040 -2.1558  1.5910 -0.0599
   58SOL    HW2  174   2.557   0.454   2.038  0.6564  1.0831  1.9567
   59SOL     OW  175   1.134   2.504   2.110  0.4131  0.1305 -0.3815
   59SOL    HW1  176   1.085   2.521   2.196  0.8934  1.5989  2.3864
   59SOL    HW2  177   1.068   2.468   2.036 -2.0807 -3.3134 -1.2811
   60SOL     OW  178   0.747   2.810   2.682 -0.0903  0.0566 -0.4515
   60SOL    HW1  179   0.765   2.791   2.583 -0.5538  1.8249 -0.4983
   60SOL    HW2  180   0.797   2.891   2.716 -0.9734  1.6341  0.4125
   61SOL     OW  181   0.578   2.184   0.470 -0.3939 -0.3431 -0.3418
   61SOL    HW1  182   0.605   2.180   0.373 -2.4341  0.1945  2.0642
   61SOL    HW2  183   0.605   2.098   0.517 -0.9936  0.9104 -1.2499
   62SOL     OW  184   1.064   1.567   1.772 -0.2525 -0.1258 -0.0798
   62SOL    HW1  185   0.992   1.609   1.714 -0.0887  0.1658 -4.1678
   62SOL    HW2  186   1.064   1.600   1.867  1.2038 -1.6383  2.4817
   63SOL     OW  187   1.041   1.938   0.680  0.0700  0.3420 -0.5621
   63SOL    HW1  188   1.039   1.837   0.652  1.6331  0.3985 -1.3100
   63SOL    HW2  189   1.021   2.006   0.607  0.5541  0.1730 -1.9290
   64SOL     OW  190   1.272   1.563   2.830  0.2733 -0.1317  0.4631
   64SOL    HW1  191   1.207   1.640   2.849  0.4364 -0.0419  1.6763
   64SOL    HW2  192   1.224   1.483   2.785  1.9068 -1.5723 -1.3760
   65SOL     OW  193   1.527   2.148   2.282 -0.1431  0.1118  0.2090
   65SOL    HW1  194   1.561   2.063   2.230  0.3013 -0.9222 -0.8192
   65SOL    HW2  195   1.517   2.124   2.381  0.2834  1.0222  0.2351
   66SOL     OW  196   0.077   0.783   1.066  0.3292 -0.5394 -0.1344
   66SOL    HW1  197   0.061   0.773   0.968  2.6603 -0.0446  4.2909
   66SOL    HW2  198   3.090   0.745   1.116  0.9468 -2.0081  2.3441
   67SOL     OW  199   2.311   2.363   0.415 -0.4011  0.7356  0.7671
   67SOL    HW1  200   2.300   2.258   0.412 -0.2513  0.1549  0.0783
   67SOL    HW2  201   2.308   2.404   0.324  1.1882 -0.1488  0.6777
   68SOL     OW  202   2.595   2.548   1.413  0.3021 -0.5310 -0.0791
   68SOL    HW1  203   2.652   2.625   1.445  1.1370  0.0264 -2.1000
   68SOL    HW2  204   2.627   2.466   1.466 -1.3133  0.0247 -2.5649
   69SOL     OW  205   2.584   2.648   2.987  0.4181 -0.4287  0.6425
   69SOL    HW1  206   2.509   2.692   2.935  1.7312 -0.0341 -0.5728
   69SOL    HW2  207   2.613   2.715   3.055  0.6497 -1.7822 -1.1639
   70SOL     OW  208   0.448   1.361   2.679  0.1451  0.3398 -0.5223
   70SOL    HW1  209   0.518   1.295   2.646 -1.1054 -0.4919  2.6106
   70SOL    HW2  210   0.382   1.325   2.751  1.4052 -3.3707 -0.9146
   71SOL     OW  211   0.896   1.156   2.110  0.0676  0.0393  0.1254
   71SOL    HW1  212   0.794   1.142   2.098 -3.4349 -0.0562 -0.9384
   71SOL    HW2  213   0.929   1.206   2.028 -1.2721 -2.4767  2.4551
   72SOL     OW  214   2.531   1.301   1.794 -0.3460 -0.5116  0.0907
   72SOL    HW1  215   2.577   1.221   1.833 -2.2801  1.3550 -2.5176
   72SOL    HW2  216   2.560   1.384   1.848  0.3319 -0.0202 -1.8195
   73SOL     OW  217   0.618   1.939   2.689 -0.1625 -0.5958 -0.1208
   73SOL    HW1  218   0.581   1.995   2.612 -3.8967  1.0024 -0.0940
   73SOL    HW2  219   0.652   1.844   2.658  1.6281 -0.1383  1.0608
   74SOL     OW  220   1.550   2.897   1.752  0.1407  0.5377 -0.3428
   74SOL    HW1  221   1.515   2.906   1.846  0.8262  1.4954 -1.1388
   74SOL    HW2  222   1.645   2.858   1.750 -0.7668 -1.0305  0.9622
   75SOL     OW  223   1.127   2.606   0.971  0.6764  0.3957  0.8871
   75SOL    HW1  224   1.062   2.545   1.021 -0.4996 -0.0174 -0.5284
   75SOL    HW2  225   1.217   2.609   1.016 -0.2741  1.4011 -1.4220
   76SOL     OW  226   0.408   1.832   2.830  0.4570  0.0964  0.1199
   76SOL    HW1  227   0.479   1.901   2.808  0.1865 -1.3462 -2.1827
   76SOL    HW2  228   0.428   1.749   2.776  0.6757 -0.1962 -1.8776
   77SOL     OW  229   0.524   2.572   1.077  0.3492 -0.0244  0.0700
   77SOL    HW1  230   0.480   2.647   1.131 -2.1000 -1.7695  0.5603
   77SOL    HW2  231   0.566   2.501   1.136 -0.2576  0.9088 -1.3240
   78SOL     OW  232   2.653   1.262   0.202  0.2722 -0.2616 -0.0860
   78SOL    HW1  233   2.749   1.230   0.183  1.0868  0.4189 -2.6119
   78SOL    HW2  234   2.653   1.361   0.227  1.0686  1.1332 -0.5613
   79SOL     OW  235   0.369   1.710   3.083  0.0839  0.3498  0.2009
   79SOL    HW1  236   0.372   1.615   3.050 -0.0735  2.8312  1.9357
   79SOL    HW2  237   0.374   1.768   2.999  0.9518 -1.1621 -1.4683
   80SOL     OW  238   1.824   1.789   1.527  0.4628  0.0673 -0.5969
   80SOL    HW1  239   1.769   1.738   1.599 -0.3455 -0.0496  0.6250
   80SOL    HW2  240   1.762   1.812   1.448 -1.9972 -0.3206 -0.5715
   81SOL     OW  241   2.261   0.920   2.338  0.1749  0.4892  0.1423
   81SOL    HW1  242   2.190   0.847   2.354 -0.2299 -2.3539  1.7701
   81SOL    HW2  243   2.330   0.918   2.412 -1.0904 -0.1379 -0.3111
   82SOL     OW  244   1.559   1.691   1.618 -0.4363 -0.2882 -0.3293
   82SOL    HW1  245   1.597   1.611   1.670 -1.2996 -2.4662  0.0011
   82SOL    HW2  246   1.467   1.722   1.663 -0.3453  2.5015 -0.5444
   83SOL     OW  247   0.195   0.167   2.888 -0.1785  0.0347 -0.1394
   83SOL    HW1  248   0.137   0.119   2.817 -2.0114 -0.2114 -0.9653
   83SOL    HW2  249   0.243   0.104   2.957  1.6433  0.5178  0.8579
   84SOL     OW  250   0.721   1.174   0.200  0.9339 -0.5619  0.5439
   84SOL    HW1  251   0.737   1.072   0.191 -0.2384 -1.6163 -0.2413
   84SOL    HW2  252   0.805   1.227   0.202  0.6333 -3.2435 -2.8887
   85SOL     OW  253   2.092   1.648   1.166 -0.2978  0.0998 -0.1104
   85SOL    HW1  254   2.061   1.694   1.082 -2.0852  0.1836  1.4703
   85SOL    HW2  255   2.175   1.591   1.166 -0.1147  0.6282 -1.0177
   86SOL     OW  256   0.736   0.720   1.113 -0.3855 -0.3088  0.0565
   86SOL    HW1  257   0.704   0.817   1.115 -0.2730 -1.7828  2.9658
   86SOL    HW2  258   0.767   0.694   1.205 -1.4265  1.7286 -1.1712
   87SOL     OW  259   2.468   2.232   2.462 -0.3467 -0.0771  0.1190
   87SOL    HW1  260   2.439   2.279   2.544  3.1354 -1.8648 -1.3336
   87SOL    HW2  261   2.413   2.148   2.446 -0.9026  0.7420  0.4836
   88SOL     OW  262   0.150   2.874   0.034  0.3766  0.4516  0.2298
   88SOL    HW1  263   0.210   2.925   3.063  1.3877 -1.9246 -0.2994
   88SOL    HW2  264   0.193   2.869   0.128 -2.3157  2.9697  2.2668
   89SOL     OW  265   1.602   0.111   0.299 -0.7504 -0.0174 -0.3865
   89SOL    HW1  266   1.504   0.134   0.332 -2.9892 -0.4072 -1.7764
   89SOL    HW2  267   1.665   0.071   0.364 -0.2054 -0.3331  0.2693
   90SOL     OW  268   2.999   1.522   2.277  0.4304  0.3004 -0.0918
   90SOL    HW1  269   2.998   1.523   2.376 -0.0839  0.1540 -1.5030
   90SOL    HW2  270   2.982   1.426   2.238  0.4367 -3.1750 -0.7662
   91SOL     OW  271   2.090   2.773   1.051 -0.3148 -0.2198  0.0521
   91SOL    HW1  272   2.167   2.762   1.120  0.6447 -0.8413  0.1357
   91SOL    HW2  273   2.135   2.739   0.968 -0.1739  0.2079  1.8030
   92SOL     OW  274   1.599   1.410   0.708  0.4494  0.2637 -0.5845
   92SOL    HW1  275   1.572   1.313   0.735  0.7505 -1.4917 -1.4541
   92SOL    HW2  276   1.571   1.468   0.787 -0.3161 -0.3061  1.6285
   93SOL     OW  277   0.253   1.574   0.206  0.1411  0.6147  0.3922
   93SOL    HW1  278   0.232   1.654   0.264 -0.2770 -0.7699 -2.4028
   93SOL    HW2  279   0.306   1.605   0.122 -0.4011  0.5031 -0.2102
   94SOL     OW  280   0.904   2.529   1.361  0.3340 -0.0535  0.0076
   94SOL    HW1  281   1.003   2.546   1.353  1.7741 -0.8049 -2.0906
   94SOL    HW2  282   0.860   2.625   1.374  0.4193  1.7825 -2.0612
   95SOL     OW  283   0.030   0.738   0.802 -0.0286 -0.2210  0.1973
   95SOL    HW1  284   0.093   0.814   0.768 -1.2709  1.2650 -0.9853
   95SOL    HW2  285   0.075   0.645   0.780 -1.4214 -0.5122 -1.2404
   96SOL     OW  286   0.594   2.839   1.769  0.1543  0.3732  0.2154
   96SOL    HW1  287   0.668   2.898   1.727  0.0810 -0.4589  0.4858
   96SOL    HW2  288   0.538   2.791   1.699  2.0158  0.0791 -0.9273
   97SOL     OW  289   2.342   0.552   0.830  0.1576  0.5651 -0.3228
   97SOL    HW1  290   2.263   0.506   0.878  2.2835 -2.1139 -0.6898
   97SOL    HW2  291   2.322   0.653   0.841 -0.5808 -0.2160  0.9812
   98SOL     OW  292   3.048   2.468   1.615 -0.3302  0.2294  0.5046
   98SOL    HW1  293   3.019   2.475   1.520 -1.4818 -0.5461  1.1072
   98SOL    HW2  294   0.021   2.544   1.641  0.6853  2.7598  1.6538
   99SOL     OW  295   2.966   0.380   1.570  0.0697  0.4108  0.1959
   99SOL    HW1  296   3.009   0.307   1.627  2.7784 -0.3102  0.4850
   99SOL    HW2  297   2.907   0.440   1.626 -0.2934 -1.4176 -1.1522
  100SOL     OW  298   2.011   0.345   2.681  0.0429 -0.0995 -0.5786
  100SOL    HW1  299   2.101   0.358   2.637  0.4894 -0.3103  0.2898
  100SOL    HW2  300   1.931   0.352   2.619  0.9362  1.8036  1.1471
  101SOL     OW  301   0.908   3.093   2.170 -0.4157  0.7095  0.0896
  101SOL    HW1  302   0.915   2.991   2.169 -1.7774  2.0030 -3.5601
  101SOL    HW2  303   0.997   0.046   2.201  1.6675  1.8904 -0.2879
  102SOL     OW  304   0.941   0.873   1.852 -0.0101  0.3264 -0.0113
  102SOL    HW1  305   0.997   0.785   1.855  0.0426 -0.0246 -1.4199
  102SOL    HW2  306   0.860   0.873   1.795  2.3517  1.3049  2.5986
  103SOL     OW  307   1.030   0.576   2.814 -0.3784  0.2217  0.0471
  103SOL    HW1  308   1.067   0.589   2.718  0.5772 -0.5979 -1.3591
  103SOL    HW2  309   0.953   0.639   2.832 -2.1906 -0.4482  1.4002
  104SOL     OW  310   0.478   0.156   1.974  0.2231 -0.4265  0.1262
  104SOL    HW1  311   0.568   0.160   2.028 -1.1001 -2.1280  0.1672
  104SOL    HW2  312   0.438   0.060   1.983 -1.6641 -2.6594  0.8419
  105SOL     OW  313   2.720   2.311   1.498 -0.0230  0.0223 -0.1111
  105SOL    HW1  314   2.762   2.223   1.462  3.5025 -2.5030  1.0635
  105SOL    HW2  315   2.692   2.298   1.595 -0.4854 -1.6213 -0.1304
  106SOL     OW  316   1.186   0.074   0.655  0.0805 -0.4149 -0.0969
  106SOL    HW1  317   1.246   0.113   0.581  3.3204 -1.0184 -1.4754
  106SOL    HW2  318   1.239   0.017   0.719  2.3631 -0.5893 -0.4329
  107SOL     OW  319   2.849   1.937   1.129  0.4751  0.1344  0.2241
  107SOL    HW1  320   2.916   1.905   1.196 -1.3403  0.3909 -0.7059
  107SOL    HW2  321   2.872   1.913   1.033  1.3256 -0.1990  0.9532
  108SOL     OW  322   0.122   2.145   0.568 -0.5231 -0.3431  0.2775
  108SOL    HW1  323   0.189   2.100   0.506  1.6519  0.3994 -0.0968
  108SOL    HW2  324   0.171   2.229   0.598 -1.1760 -0.5845 -1.0757
  109SOL     OW  325   1.566   0.059   0.718  0.0649  0.3555  0.3440
  109SOL    HW1  326   1.470   0.035   0.739 -0.8476 -0.3813 -2.1263
  109SOL    HW2  327   1.576   0.161   0.710  3.0132  0.8376 -0.5764
  110SOL     OW  328   1.516   1.523   0.960 -0.3892  0.1401 -0.0820
  110SOL    HW1  329   1.511   1.615   1.004 -0.2992  2.4914  0.0900
  110SOL    HW2  330   1.434   1.468   0.979  0.0032  1.5190  0.4351
  111SOL     OW  331   1.681   2.511   1.761  0.2992 -0.1278  0.4092
  111SOL    HW1  332   1.704   2.409   1.765  0.3621  1.9971  1.3387
  111SOL    HW2  333   1.646   2.540   1.852 -1.2862 -1.3855  1.5794
  112SOL     OW  334   1.718   2.152   2.617  1.0718  0.0814  0.1024
  112SOL    HW1  335   1.757   2.160   2.709  0.3230 -0.8663 -3.0118
  112SOL    HW2  336   1.730   2.240   2.565  1.9395  0.7395  1.5215
  113SOL     OW  337   2.027   1.916   1.942 -0.3256  0.7315 -0.3322
  113SOL    HW1  338   2.079   1.834   1.970  0.9848  2.2153 -0.9445
  113SOL    HW2  339   2.045   1.941   1.847 -2.7770  0.2134 -0.5601
  114SOL     OW  340   0.072   1.066   1.112  0.1243 -0.4739 -0.1735
  114SOL    HW1  341   0.079   0.966   1.086  0.7440  2.9725 -0.1073
  114SOL    HW2  342   0.043   1.126   1.035  1.4749 -0.1691 -0.6332
  115SOL     OW  343   2.822   0.757   2.701 -0.2207 -0.5081 -0.3834
  115SOL    HW1  344   2.882   0.803   2.634  0.9091  0.5383 -1.3949
  115SOL    HW2  345   2.724   0.769   2.669 -1.4593 -0.8030 -1.3488
  116SOL     OW  346   2.814   0.476   2.691 -0.0459  0.1772 -0.2890
  116SOL    HW1  347   2.814   0.578   2.692  0.3010  2.7190  1.5192
  116SOL    HW2  348   2.739   0.442   2.632 -1.1916  1.9847  0.5961
  117SOL     OW  349   2.496   2.640   0.486  0.5018  0.4764 -0.4030
  117SOL    HW1  350   2.467   2.589   0.567  3.4986  4.4447  1.0647
  117SOL    HW2  351   2.505   2.585   0.399  0.5217 -0.0410 -2.0579
  118SOL     OW  352   0.542   2.060   2.230  0.0687  0.6538 -0.1673
  118SOL    HW1  353   0.484   2.127   2.277 -0.8687 -0.2976 -1.4328
  118SOL    HW2  354   0.567   2.090   2.137 -0.6064 -1.5486 -1.4415
  119SOL     OW  355   0.552   2.770   0.358  0.0560 -0.1072 -0.4083
  119SOL    HW1  356   0.636   2.825   0.354  0.5394 -0.7013  1.3424
  119SOL    HW2  357   0.520   2.749   0.452  2.4228  0.7581  0.3231
  120SOL     OW  358   1.422   0.789   0.437  0.3071 -0.3350  0.5497
  120SOL    HW1  359   1.381   0.812   0.532  2.2013  0.3017  2.3162
  120SOL    HW2  360   1.481   0.867   0.408  1.2048 -1.4647  0.9752
  121SOL     OW  361   1.842   0.462   0.781 -0.1806 -0.1911 -0.4007
  121SOL    HW1  362   1.841   0.443   0.882 -1.3448 -3.3774  0.8814
  121SOL    HW2  363   1.841   0.565   0.755  1.4694  2.3268 -0.3472
  122SOL     OW  364   2.040   1.312   2.262 -0.2574  0.4842 -0.2601
  122SOL    HW1  365   2.023   1.380   2.336  1.1609 -1.5212 -3.6040
  122SOL    HW2  366   2.008   1.355   2.173  1.4869  0.6540 -5.5299
  123SOL     OW  367   0.931   1.115   1.040 -0.0503 -0.4619 -0.4231
  123SOL    HW1  368   0.981   1.025   1.029  0.6819 -0.3366 -0.4076
  123SOL    HW2  369   0.896   1.151   0.950 -0.0469 -1.5349 -1.7672
  124SOL     OW  370   0.718   0.514   2.701  0.3495 -0.6708  0.0215
  124SOL    HW1  371   0.618   0.509   2.686 -2.5693  1.7210  0.3288
  124SOL    HW2  372   0.746   0.446   2.772  1.9993 -0.4175  0.7750
  125SOL     OW  373   0.813   0.199   0.137 -0.6793  0.1090  0.1658
  125SOL    HW1  374   0.822   0.099   0.135 -0.1573  0.3752 -1.0498
  125SOL    HW2  375   0.849   0.234   0.231  0.9521  2.0409  1.7577
  126SOL     OW  376   0.646   1.633   0.312 -0.2086 -0.0220 -0.7212
  126SOL    HW1  377   0.603   1.552   0.272  0.4215  1.0085 -1.8361
  126SOL    HW2  378   0.698   1.623   0.399 -1.6761  1.9988  1.6514
  127SOL     OW  379   1.020   2.553   1.676 -0.2268 -0.1034 -0.0031
  127SOL    HW1  380   0.994   2.647   1.653 -1.5575  1.3343 -0.0110
  127SOL    HW2  381   1.115   2.554   1.709 -4.0527  2.3680  5.0849
  128SOL     OW  382   0.976   1.860   0.352 -0.5119 -0.2967  0.1125
  128SOL    HW1  383   0.978   1.783   0.288 -0.0316  1.2632 -0.5220
  128SOL    HW2  384   0.943   1.948   0.312  1.2970 -4.3991 -0.1580
  129SOL     OW  385   1.762   1.570   2.211 -0.1034 -0.4254  0.6068
  129SOL    HW1  386   1.684   1.512   2.185  1.0120 -0.8503  2.4730
  129SOL    HW2  387   1.840   1.559   2.147 -0.0523  0.1390  1.5993
  130SOL     OW  388   2.066   1.868   1.659 -0.5913 -0.0574 -0.4608
  130SOL    HW1  389   2.096   1.960   1.625  1.3540  1.1223 -0.4145
  130SOL    HW2  390   1.974   1.841   1.622 -2.5476 -0.2056 -0.8215
  131SOL     OW  391   0.293   2.227   2.073 -0.4849  0.3423  0.2848
  131SOL    HW1  392   0.263   2.133   2.049  1.4003 -0.4241 -1.3858
  131SOL    HW2  393   0.230   2.296   2.030 -0.5020 -0.3453  0.2057
  132SOL     OW  394   2.474   1.644   0.635  0.2423  0.3037  0.2488
  132SOL    HW1  395   2.482   1.549   0.600 -0.6447 -0.1201 -1.9288
  132SOL    HW2  396   2.549   1.701   0.595  0.6629 -0.3727  0.5277
  133SOL     OW  397   0.398   1.109   1.805 -0.5617 -0.3172  0.2029
  133SOL    HW1  398   0.416   1.152   1.897  3.8711 -1.5939  2.1545
  133SOL    HW2  399   0.306   1.137   1.772  0.7626 -0.1858  0.9058
  134SOL     OW  400   2.781   1.245   0.596 -0.1400  0.2396 -0.7308
  134SOL    HW1  401   2.822   1.151   0.603  0.6339  0.8349 -1.2783
  134SOL    HW2  402   2.827   1.297   0.518 -2.4583 -0.2208 -1.8796
  135SOL     OW  403   1.918   1.115   2.831  0.1963  0.4623 -0.0534
  135SOL    HW1  404   1.867   1.204   2.858  1.7307 -0.0953 -0.5536
  135SOL    HW2  405   1.850   1.064   2.773 -0.0198 -0.1484  1.0808
  136SOL     OW  406   2.774   1.587   0.955 -0.2763 -0.1176 -0.2083
  136SOL    HW1  407   2.728   1.671   0.923  0.9708  1.9079  0.8727
  136SOL    HW2  408   2.713   1.536   1.017  1.5490  0.2139 -1.6776
  137SOL     OW  409   2.234   1.647   0.529  0.5405  0.1698 -0.5906
  137SOL    HW1  410   2.174   1.565   0.557 -2.7833  0.2032 -1.7665
  137SOL    HW2  411   2.328   1.640   0.560 -1.3069  0.4142 -0.4113
  138SOL     OW  412   2.610   0.297   0.489  0.0010  0.3066  0.0871
  138SOL    HW1  413   2.609   0.194   0.487  0.9764 -0.4686 -0.8062
  138SOL    HW2  414   2.528   0.335   0.528  1.2803 -1.1427  0.0515
  139SOL     OW  415   2.886   3.088   2.783 -0.0768 -0.1547  0.3470
  139SOL    HW1  416   2.844   0.038   2.867  0.6583  1.0529 -1.1942
  139SOL    HW2  417   2.820   3.087   2.699 -2.7078  0.7092  0.3384
  140SOL     OW  418   0.694   1.382   1.623 -0.7441  0.4385 -0.3414
  140SOL    HW1  419   0.724   1.403   1.719 -0.0648 -0.8012  1.8463
  140SOL    HW2  420   0.637   1.453   1.579  1.7241 -1.5163 -2.2117
  141SOL     OW  421   1.245   1.516   0.778 -0.4868 -0.2067 -0.3179
  141SOL    HW1  422   1.233   1.477   0.874  2.4201 -0.3272 -0.0645
  141SOL    HW2  423   1.299   1.600   0.785 -0.3727 -1.2380 -1.3078
  142SOL     OW  424   1.417   0.789   1.183  0.5748 -0.2126 -0.6235
  142SOL    HW1  425   1.389   0.719   1.249 -0.6023 -0.2655 -3.7118
  142SOL    HW2  426   1.502   0.838   1.209  1.0015  3.3314  1.2763
  143SOL     OW  427   0.769   0.732   2.836 -0.2533 -0.3258 -0.2664
  143SOL    HW1  428   0.686   0.794   2.833 -0.6189 -1.8325  1.3599
  143SOL    HW2  429   0.750   0.648   2.782  0.7767  1.9131 -2.1209
  144SOL     OW  430   2.615   3.046   0.157 -0.4199  0.1220 -0.0909
  144SOL    HW1  431   2.518   3.038   0.132  0.3143 -1.3936  0.9897
  144SOL    HW2  432   2.626   0.012   0.235 -0.7050 -3.3281 -0.3621
  145SOL     OW  433   2.209   3.054   2.526 -0.2446  0.9462  0.2239
  145SOL    HW1  434   2.241   0.007   2.613 -0.4354 -1.8165 -0.3155
  145SOL    HW2  435   2.124   3.091   2.486  1.3749 -0.1036  0.0692
  146SOL     OW  436   2.966   2.926   0.317 -0.0480 -0.7662 -0.0603
  146SOL    HW1  437   2.976   2.874   0.231  0.3219  0.6172  2.6232
  146SOL    HW2  438   2.946   3.024   0.294 -0.4756  0.7689 -1.3992
  147SOL     OW  439   1.406   0.824   2.672 -0.4796  0.3684 -0.4969
  147SOL    HW1  440   1.478   0.825   2.748  2.1703 -0.6931 -0.0958
  147SOL    HW2  441   1.330   0.889   2.696 -0.1181  0.8300 -0.6579
  148SOL     OW  442   1.351   0.217   0.445 -0.3683  0.1829 -0.1593
  148SOL    HW1  443   1.346   0.270   0.530 -1.6458  0.0549  0.2956
  148SOL    HW2  444   1.269   0.229   0.381 -1.8519  1.5195 -3.0171
  149SOL     OW  445   1.358   0.860   2.219  0.2152  0.2126 -0.3233
  149SOL    HW1  446   1.280   0.929   2.224  2.1349  1.4108 -1.4369
  149SOL    HW2  447   1.410   0.852   2.304 -1.1219 -0.0847 -3.6910
  150SOL     OW  448   1.834   3.064   2.793 -0.5559 -0.2078  0.3249
  150SOL    HW1  449   1.883   0.030   2.863  0.6692  1.5507 -0.1654
  150SOL    HW2  450   1.872   2.966   2.803  0.2950 -0.4024  2.2908
  151SOL     OW  451   0.551   1.402   0.210 -0.0661 -0.3728  0.5313
  151SOL    HW1  452   0.451   1.377   0.203 -3.2718 -0.8417  1.4737
  151SOL    HW2  453   0.609   1.319   0.217  2.7885 -2.4151 -2.7774
  152SOL     OW  454   0.810   0.669   1.411  0.0210  0.0216 -0.7976
  152SOL    HW1  455   0.717   0.684   1.446  1.0156  2.3082  1.5187
  152SOL    HW2  456   0.852   0.585   1.450  1.3389  0.2884 -0.8545
  153SOL     OW  457   2.466   2.947   2.014  0.1930  0.3477 -0.0680
  153SOL    HW1  458   2.541   3.013   1.999 -0.7799  1.3153  2.1263
  153SOL    HW2  459   2.381   2.997   1.981 -3.8537  1.1079 -0.4469
  154SOL     OW  460   2.226   3.033   1.922  1.0098 -0.7090  0.1445
  154SOL    HW1  461   2.162   0.008   1.879  0.6528 -0.6269 -1.6873
  154SOL    HW2  462   2.195   2.941   1.896  3.3530  1.4271  3.1901
  155SOL     OW  463   0.048   1.040   0.747  0.0257  0.7450  0.0703
  155SOL    HW1  464   0.016   1.098   0.828 -0.4319  2.0401 -1.5624
  155SOL    HW2  465   0.137   0.996   0.759 -1.5915 -0.5706  0.5489
  156SOL     OW  466   2.070   1.433   0.569 -0.0800 -0.3654  0.7573
  156SOL    HW1  467   2.094   1.336   0.551 -2.1794  2.3732 -2.6538
  156SOL    HW2  468   1.985   1.454   0.519  0.7764  2.3540  1.3941
  157SOL     OW  469   0.761   0.133   2.899  0.2285 -0.0413  0.2460
  157SOL    HW1  470   0.694   0.090   2.963  3.0848  2.1600 -1.5084
  157SOL    HW2  471   0.745   0.233   2.900 -2.1218 -1.0686  1.0158
  158SOL     OW  472   1.886   1.093   1.295 -0.0918 -0.1062  0.2177
  158SOL    HW1  473   1.862   1.120   1.389 -1.3441  0.4042  1.4015
  158SOL    HW2  474   1.876   1.173   1.229  0.0945 -0.4173 -3.2897
  159SOL     OW  475   3.067   0.331   0.316 -0.7671 -0.0710 -0.3617
  159SOL    HW1  476   0.068   0.293   0.321  0.4423  1.1880 -2.3937
  159SOL    HW2  477   3.035   0.363   0.407 -1.4018  0.5866  1.3073
  160SOL     OW  478   2.429   2.104   1.790 -0.9128 -0.0638  0.1136
  160SOL    HW1  479   2.493   2.184   1.774  2.2897  0.2206 -0.2034
  160SOL    HW2  480   2.380   2.121   1.881  2.0455  2.6468 -1.2325
  161SOL     OW  481   0.442   0.736   3.023  0.2291 -0.0467  0.1286
  161SOL    HW1  482   0.463   0.821   2.976  0.6477 -2.4533  2.0770
  161SOL    HW2  483   0.344   0.709   3.003  0.8745  1.1877  0.3270
  162SOL     OW  484   0.798   0.503   1.811  0.3812 -0.3140  0.1189
  162SOL    HW1  485   0.725   0.492   1.743 -0.7655 -0.4791  3.6267
  162SOL    HW2  486   0.763   0.558   1.890  2.8733 -2.4364 -0.0658
  163SOL     OW  487   2.802   2.932   2.336  0.3529  0.1326  0.3963
  163SOL    HW1  488   2.827   2.838   2.305  1.6114  0.0048 -0.3978
  163SOL    HW2  489   2.711   2.956   2.304  5.1296 -1.8508  0.0039
  164SOL     OW  490   2.158   1.656   0.264  0.1478 -0.4495  0.0576
  164SOL    HW1  491   2.113   1.744   0.261  1.6029  1.3272  1.0610
  164SOL    HW2  492   2.202   1.633   0.353  0.8170 -1.6927 -1.0742
  165SOL     OW  493   0.433   0.031   1.011 -0.4284 -0.5170  0.0413
  165SOL    HW1  494   0.407   0.100   0.943  0.1927 -1.7354 -0.2834
  165SOL    HW2  495   0.502   0.065   1.083  0.6815  2.4350  2.6525
  166SOL     OW  496   2.784   0.366   3.004 -0.2634  0.4085  0.0827
  166SOL    HW1  497   2.791   0.389   2.909  0.7900 -2.9774  3.1926
  166SOL    HW2  498   2.805   0.268   3.017  0.1236 -0.2860 -3.6966
  167SOL     OW  499   2.079   0.593   0.272  0.4550  0.3854 -0.4463
  167SOL    HW1  500   2.039   0.683   0.302 -0.0684  1.0047 -0.8467
  167SOL    HW2  501   2.154   0.607   0.204  0.6307 -2.6446 -2.4761
  168SOL     OW  502   1.558   0.016   2.283  0.0918  0.0996  0.8286
  168SOL    HW1  503   1.544   3.091   2.382  1.9458  3.1006 -2.5676
  168SOL    HW2  504   1.501   3.039   2.230 -0.3597 -0.8152 -0.8427
  169SOL     OW  505   0.464   1.914   0.719 -0.0793 -0.4277 -0.0364
  169SOL    HW1  506   0.382   1.881   0.777 -2.1778 -0.6699  2.0277
  169SOL    HW2  507   0.482   2.013   0.735  1.9092  2.5796 -0.3334
  170SOL     OW  508   0.352   0.342   1.581 -0.2548 -0.3589  0.1801
  170SOL    HW1  509   0.274   0.374   1.638 -0.7140  1.2265 -0.5216
  170SOL    HW2  510   0.383   0.250   1.615 -0.2423  2.6508 -0.7095
  171SOL     OW  511   2.640   1.585   2.535 -0.4943 -0.2328 -0.0027
  171SOL    HW1  512   2.627   1.524   2.451  0.5150 -0.7545 -0.2842
  171SOL    HW2  513   2.654   1.684   2.508 -0.3136 -1.5415  0.4292
  172SOL     OW  514   0.829   1.679   1.142  0.2568  0.2774  0.2321
  172SOL    HW1  515   0.859   1.606   1.078  0.2811  3.8416  1.0254
  172SOL    HW2  516   0.861   1.647   1.236  2.3886  0.0921  2.1049
  173SOL     OW  517   1.797   2.138   2.913  0.1046  0.3599 -0.0245
  173SOL    HW1  518   1.770   2.038   2.907  2.4539 -0.3269 -1.1920
  173SOL    HW2  519   1.794   2.161   3.013 -0.2573  1.8647  0.9170
  174SOL     OW  520   1.773   0.666   3.072 -0.1545 -0.1538 -0.0195
  174SOL    HW1  521   1.694   0.674   3.012 -0.7205 -0.7908  2.2943
  174SOL    HW2  522   1.737   0.671   0.077 -1.0965  1.4512  3.0070
  175SOL     OW  523   0.549   1.748   1.898  0.1067  0.1893  0.0066
  175SOL    HW1  524   0.533   1.785   1.806  0.6501  0.2876 -0.4535
  175SOL    HW2  525   0.458   1.743   1.947  1.4291 -0.6193  1.0349
  176SOL     OW  526   0.734   0.453   0.493  0.0362 -0.3623  0.2105
  176SOL    HW1  527   0.774   0.545   0.483 -1.1613  1.7147  0.2393
  176SOL    HW2  528   0.686   0.443   0.585  2.2011  0.0112 -0.5636
  177SOL     OW  529   0.058   1.525   3.050  0.3029  0.5052  0.3963
  177SOL    HW1  530   3.090   1.450   3.007  0.8075  2.5203 -0.7274
  177SOL    HW2  531   0.121   1.491   0.033  0.6085 -0.5979 -1.4318
  178SOL     OW  532   0.009   2.109   2.307 -0.1702  0.4971  0.0519
  178SOL    HW1  533   0.097   2.069   2.320  1.3897 -1.5567  0.2494
  178SOL    HW2  534   3.048   2.068   2.229 -1.5493 -1.0486 -0.7141
  179SOL     OW  535   2.330   0.043   2.754  0.5922  0.2618  0.2919
  179SOL    HW1  536   2.350   0.142   2.730 -1.0452  1.9921 -0.0881
  179SOL    HW2  537   2.353   0.025   2.853 -0.7524 -0.9668 -1.5406
  180SOL     OW  538   2.579   0.361   0.883  0.1498 -0.3300  0.0616
  180SOL    HW1  539   2.519   0.431   0.837 -1.7611  0.9197  0.7277
  180SOL    HW2  540   2.607   0.281   0.823 -0.9596  1.0090  1.9849
  181SOL     OW  541   3.038   3.032   2.395  0.0655  0.0211 -0.2108
  181SOL    HW1  542   2.944   3.006   2.363  0.3030 -0.5421 -1.5002
  181SOL    HW2  543   0.000   2.949   2.410 -0.4669  0.4895 -0.0537
  182SOL     OW  544   2.212   2.381   2.389 -0.3434 -0.0957 -0.4301
  182SOL    HW1  545   2.259   2.427   2.465  2.8936 -1.1132  1.3862
  182SOL    HW2  546   2.275   2.303   2.353  1.0621 -1.1844  0.7963
  183SOL     OW  547   2.543   1.223   1.495 -0.5738  0.0631 -0.5110
  183SOL    HW1  548   2.559   1.272   1.585 -0.3284  1.1241 -1.6632
  183SOL    HW2  549   2.448   1.180   1.491  0.1705  3.2635  0.2575
  184SOL     OW  550   2.829   1.335   0.848  0.3287 -0.4795 -0.9884
  184SOL    HW1  551   2.810   1.437   0.855  0.0244 -2.9562 -0.9265
  184SOL    HW2  552   2.811   1.300   0.754 -0.6688  0.6185  0.0933
  185SOL     OW  553   0.038   0.139   0.868 -0.5781 -0.6884 -0.0008
  185SOL    HW1  554   0.107   0.155   0.798 -0.4548  0.0874 -1.1172
  185SOL    HW2  555   0.020   0.041   0.880  1.4023  3.0810 -2.0301
  186SOL     OW  556   2.104   2.587   2.246  0.3067 -0.7210 -0.1406
  186SOL    HW1  557   2.040   2.650   2.294 -0.3838 -0.2488  0.1400
  186SOL    HW2  558   2.103   2.493   2.288  2.1907 -3.4621  1.6785
  187SOL     OW  559   0.359   1.635   0.491 -0.1217 -0.0331  0.7790
  187SOL    HW1  560   0.393   1.626   0.396 -0.4665 -1.0618  0.9742
  187SOL    HW2  561   0.424   1.622   0.565 -1.8052  0.7548 -3.4268
  188SOL     OW  562   1.684   1.745   0.488  0.3858 -0.0384  0.5669
  188SOL    HW1  563   1.684   1.645   0.484  1.5735  1.1114  0.1652
  188SOL    HW2  564   1.587   1.776   0.506 -3.3989 -2.1162 -0.0521
  189SOL     OW  565   2.990   1.316   2.989 -0.5943 -0.1929  0.2638
  189SOL    HW1  566   3.025   1.265   2.908 -1.9007  1.3289 -0.5433
  189SOL    HW2  567   2.899   1.350   2.962  1.6482 -0.3747  1.9628
  190SOL     OW  568   2.566   0.189   2.289 -0.0008  0.6910  0.7934
  190SOL    HW1  569   2.583   0.238   2.374 -0.3304  1.9161  0.4610
  190SOL    HW2  570   2.649   0.191   2.226  0.8118  1.8480 -1.2776
  191SOL     OW  571   0.876   0.918   2.252 -0.2082  0.3262 -0.2719
  191SOL    HW1  572   0.861   0.872   2.164 -2.5288  2.0635 -0.7237
  191SOL    HW2  573   0.881   1.018   2.238  0.4719  0.0476 -0.5457
  192SOL     OW  574   1.535   1.395   2.172  0.0209  0.2179 -0.6284
  192SOL    HW1  575   1.499   1.423   2.081 -0.5976 -1.7243 -0.3510
  192SOL    HW2  576   1.576   1.305   2.161 -1.1002 -1.2916 -0.9816
  193SOL     OW  577   1.364   2.694   1.049 -0.1219  0.2921 -0.0723
  193SOL    HW1  578   1.388   2.790   1.062  1.6893 -1.6534 -0.0478
  193SOL    HW2  579   1.401   2.653   0.966 -1.6167 -1.3116  0.2817
  194SOL     OW  580   1.490   1.480   1.906  0.0667 -0.5098 -0.2687
  194SOL    HW1  581   1.568   1.464   1.846 -0.8064 -0.2491 -0.9377
  194SOL    HW2  582   1.408   1.462   1.847 -1.5609  0.4255  1.7627
  195SOL     OW  583   2.043   0.078   0.816  0.4732  0.0385 -0.5447
  195SOL    HW1  584   2.069   0.166   0.762  1.1183  1.4933 -0.6055
  195SOL    HW2  585   2.107   0.059   0.891 -2.8670  2.6093  4.1696
  196SOL     OW  586   1.212   1.247   2.414 -0.1649  0.5692 -0.5240
  196SOL    HW1  587   1.140   1.262   2.344  0.0124  2.9799  0.1993
  196SOL    HW2  588   1.194   1.161   2.465 -0.0991  1.5069 -1.2006
  197SOL     OW  589   0.433   0.204   2.263  0.1064 -0.4416 -0.0336
  197SOL    HW1  590   0.383   0.245   2.179 -0.3715  1.8624 -0.8885
  197SOL    HW2  591   0.464   0.108   2.241 -2.0785 -1.2027  1.8702
  198SOL     OW  592   3.066   1.218   0.914 -0.1786  0.2589  0.3177
  198SOL    HW1  593   2.970   1.256   0.900 -1.2454  1.5576  0.2881
  198SOL    HW2  594   0.047   1.284   0.886  2.2402  1.1970  1.7889
  199SOL     OW  595   0.461   2.221   0.883 -0.0755  0.1067 -0.1111
  199SOL    HW1  596   0.483   2.281   0.804 -2.9135  0.2961 -1.1148
  199SOL    HW2  597   0.411   2.285   0.951  0.0377  2.6717  1.4931
  200SOL     OW  598   2.441   1.819   2.730  0.4333 -0.1425 -0.7751
  200SOL    HW1  599   2.529   1.874   2.728 -1.3867  1.4548 -0.2765
  200SOL    HW2  600   2.437   1.756   2.808 -2.5445  1.3702  0.1722
  201SOL     OW  601   0.847   1.983   1.308  0.3292 -0.3201 -0.3772
  201SOL    HW1  602   0.883   1.947   1.395 -2.6712  0.6185  0.3476
  201SOL    HW2  603   0.743   2.001   1.322 -0.5079  2.3516  0.8477
  202SOL     OW  604   1.022   2.372   0.058  0.0583  0.2587  0.2256
  202SOL    HW1  605   0.969   2.416   0.135 -0.7711  1.1890  1.1382
  202SOL    HW2  606   1.098   2.430   0.023 -0.1260 -1.2325 -1.1921
  203SOL     OW  607   2.080   0.404   2.151  0.1364 -0.0543 -0.1174
  203SOL    HW1  608   2.128   0.391   2.060  1.4711  0.7756 -0.4240
  203SOL    HW2  609   2.053   0.316   2.197  0.4568  0.2630 -1.1862
  204SOL     OW  610   0.137   1.313   1.416 -0.0074 -0.1167 -0.1017
  204SOL    HW1  611   0.036   1.339   1.407 -1.3889  3.0288  2.8800
  204SOL    HW2  612   0.158   1.216   1.430  2.7711 -0.8055 -0.5229
  205SOL     OW  613   2.565   1.511   2.784 -0.2884 -0.1811  0.5511
  205SOL    HW1  614   2.588   1.551   2.693 -0.2762 -0.3358 -0.3486
  205SOL    HW2  615   2.497   1.568   2.833 -2.2144 -0.8831  0.3226
  206SOL     OW  616   2.897   2.088   2.482 -0.6178 -0.4683 -0.3681
  206SOL    HW1  617   2.860   1.998   2.509 -0.5200 -1.5540  0.4318
  206SOL    HW2  618   2.984   2.089   2.427  1.8464  0.8066 -0.4032
  207SOL     OW  619   0.801   2.960   1.632 -0.4930  0.6114 -0.6867
  207SOL    HW1  620   0.903   2.931   1.616  4.6564 -2.1489 -1.0123
  207SOL    HW2  621   0.790   3.043   1.690 -0.0950  0.5995 -1.0391
  208SOL     OW  622   0.584   2.578   1.501  0.5931  0.2871  0.3508
  208SOL    HW1  623   0.570   2.531   1.590  0.5168  1.2275 -0.0088
  208SOL    HW2  624   0.607   2.509   1.432 -0.2714 -1.2404 -0.9354
  209SOL     OW  625   1.053   2.753   2.567 -0.7598 -0.0145 -0.4319
  209SOL    HW1  626   0.971   2.805   2.545  0.7040  0.2211 -1.3130
  209SOL    HW2  627   1.114   2.808   2.630 -3.2783  0.1234 -1.6507
  210SOL     OW  628   2.788   1.622   2.145  0.1527 -0.0651  0.0394
  210SOL    HW1  629   2.875   1.578   2.181 -0.5078  0.3456 -2.1202
  210SOL    HW2  630   2.778   1.719   2.178  1.4336 -0.6402  0.0017
  211SOL     OW  631   1.310   0.031   1.932  0.3016  0.2674 -0.1207
  211SOL    HW1  632   1.347   3.064   2.007  1.5104 -0.1448  1.4698
  211SOL    HW2  633   1.309   0.129   1.957 -2.4580 -0.7831  0.1341
  212SOL     OW  634   1.285   2.642   1.769  0.2155  0.5311 -0.7115
  212SOL    HW1  635   1.346   2.622   1.851  1.9118  0.3227  3.1122
  212SOL    HW2  636   1.331   2.613   1.687 -0.8815  1.5865 -1.3297
  213SOL     OW  637   2.566   0.917   1.742  0.1292 -0.0883  0.3985
  213SOL    HW1  638   2.472   0.938   1.709  1.2084 -2.6595 -0.6007
  213SOL    HW2  639   2.630   0.889   1.670  0.0614  1.0820  0.8185
  214SOL     OW  640   0.911   1.961   1.593  0.3899 -0.4175 -0.1908
  214SOL    HW1  641   0.830   2.024   1.575 -3.5006  0.2089 -1.5522
  214SOL    HW2  642   0.920   1.949   1.693 -1.3855 -1.6781 -1.2561
  215SOL     OW  643   2.375   2.013   0.656 -0.6600  0.2568 -0.2775
  215SOL    HW1  644   2.383   2.096   0.715  0.1365 -0.8753 -0.9473
  215SOL    HW2  645   2.319   1.942   0.706  1.8943 -1.5941 -0.4467
  216SOL     OW  646   0.131   0.804   1.387  0.4492  0.0924  0.3613
  216SOL    HW1  647   0.068   0.723   1.386  0.4273  3.1778 -1.5626
  216SOL    HW2  648   0.085   0.893   1.353 -1.2160  1.1151  0.3377
  217SOL     OW  649   2.119   0.274   1.297 -0.1186 -0.5148  0.0593
  217SOL    HW1  650   2.203   0.309   1.246  3.8971  1.2310 -2.2715
  217SOL    HW2  651   2.090   0.188   1.257  1.3022  1.9637 -0.6487
  218SOL     OW  652   1.656   2.373   0.991 -0.2176 -0.0738 -0.0704
  218SOL    HW1  653   1.683   2.466   0.949 -1.3682  2.4524 -0.0343
  218SOL    HW2  654   1.587   2.392   1.065  2.0483 -0.6252 -1.5509
  219SOL     OW  655   1.301   2.246   0.104  0.3104  0.4732  0.4733
  219SOL    HW1  656   1.391   2.294   0.065  2.8311  1.5103 -0.3568
  219SOL    HW2  657   1.276   2.296   0.189 -0.6638 -1.2492  0.0729
  220SOL     OW  658   1.578   2.332   2.813 -0.5882  0.5529 -0.0486
  220SOL    HW1  659   1.514   2.391   2.758 -1.5261 -0.5302  1.7634
  220SOL    HW2  660   1.563   2.234   2.792  0.4923  2.0258 -1.2511
  221SOL     OW  661   0.205   2.553   1.284  0.2618 -0.6589 -0.0528
  221SOL    HW1  662   0.274   2.628   1.294  1.8132 -0.1482  0.5816
  221SOL    HW2  663   0.244   2.463   1.312 -2.4806  2.1350  0.4617
  222SOL     OW  664   2.097   2.492   0.732 -0.0811 -0.6525  0.2136
  222SOL    HW1  665   1.997   2.503   0.705 -1.1284 -0.6918 -0.2729
  222SOL    HW2  666   2.142   2.579   0.744 -1.4157 -2.0747  0.2106
  223SOL     OW  667   0.736   2.277   2.009 -0.7424  0.2334  0.2400
  223SOL    HW1  668   0.699   2.182   1.978 -3.1877  3.0981  1.4465
  223SOL    HW2  669   0.652   2.334   2.022 -2.2809  0.4745 -2.0777
  224SOL     OW  670   2.908   2.457   1.349 -0.5838 -0.2020  0.8557
  224SOL    HW1  671   2.917   2.559   1.332 -3.3589  2.1066  0.1856
  224SOL    HW2  672   2.827   2.423   1.395 -0.9529 -0.7030 -2.1862
  225SOL     OW  673   2.269   2.094   0.429  0.3495 -0.2346  0.2439
  225SOL    HW1  674   2.334   2.069   0.504  0.8089 -1.1162  1.7896
  225SOL    HW2  675   2.194   2.019   0.432 -0.8079 -0.8377 -2.3925
  226SOL     OW  676   1.454   2.376   0.402  0.4158  0.7740 -0.6256
  226SOL    HW1  677   1.362   2.390   0.363  1.5544 -2.1200 -0.9365
  226SOL    HW2  678   1.454   2.373   0.507 -0.1969 -0.8764 -1.5722
  227SOL     OW  679   1.922   1.102   0.831  0.5532  0.3135 -0.1342
  227SOL    HW1  680   1.896   1.042   0.910 -0.9972 -1.1567 -0.4845
  227SOL    HW2  681   1.866   1.064   0.755 -0.1053 -0.0609 -1.7412
  228SOL     OW  682   1.501   0.490   2.241  0.0076  0.2610 -0.6696
  228SOL    HW1  683   1.460   0.569   2.290 -0.8023  0.5923 -2.2627
  228SOL    HW2  684   1.596   0.480   2.275  0.5970 -1.1963  3.6354
  229SOL     OW  685   0.030   1.169   2.775 -0.1986  0.0605 -0.1008
  229SOL    HW1  686   0.020   1.067   2.768  1.8641  0.0369  2.1377
  229SOL    HW2  687   3.085   1.217   2.695 -4.4505 -1.9781  2.1484
  230SOL     OW  688   0.666   1.346   1.297  0.4089  0.5131 -0.2823
  230SOL    HW1  689   0.662   1.243   1.288  0.7293 -0.8185  0.5297
  230SOL    HW2  690   0.749   1.369   1.356  1.6516  0.4427  0.6308
  231SOL     OW  691   2.472   2.939   2.581  0.2589 -0.1862  0.1651
  231SOL    HW1  692   2.404   3.010   2.589  1.7324 -1.0292  0.6072
  231SOL    HW2  693   2.500   2.944   2.482  2.3224 -0.6738 -1.6450
  232SOL     OW  694   0.296   2.296   0.405 -0.1705  0.4281 -0.7055
  232SOL    HW1  695   0.381   2.344   0.443 -1.5828  1.9155 -2.1978
  232SOL    HW2  696   0.320   2.238   0.326  0.4370  0.6474  2.8856
  233SOL     OW  697   1.140   2.249   2.230  0.0498  0.1737 -0.2678
  233SOL    HW1  698   1.161   2.338   2.183  0.7499  0.6251  2.3306
  233SOL    HW2  699   1.180   2.240   2.326  0.5743  0.9628  0.9434
  234SOL     OW  700   1.309   1.491   1.656 -0.0606 -0.3595 -0.0357
  234SOL    HW1  701   1.302   1.530   1.559 -1.0830  0.7920 -2.2318
  234SOL    HW2  702   1.228   1.528   1.708 -3.1313 -1.4340 -0.1486
  235SOL     OW  703   0.909   1.904   1.860  0.3749  0.0523 -0.2255
  235SOL    HW1  704   0.999   1.951   1.863 -0.0340  1.2031 -0.0383
  235SOL    HW2  705   0.892   1.854   1.948 -1.6095 -2.3959  0.6383
  236SOL     OW  706   1.575   2.983   2.820  0.3585 -0.5281 -0.3174
  236SOL    HW1  707   1.676   2.983   2.825 -1.2488 -2.5671 -0.9370
  236SOL    HW2  708   1.535   2.894   2.828  0.9288  0.1702  0.3461
  237SOL     OW  709   1.237   0.435   1.534  0.4113  0.2442 -0.1373
  237SOL    HW1  710   1.264   0.468   1.627  0.2603 -0.4458  1.1880
  237SOL    HW2  711   1.262   0.338   1.514 -1.1576  0.3688  0.8383
  238SOL     OW  712   1.422   0.538   2.893  0.1264  0.6660  0.5347
  238SOL    HW1  713   1.406   0.500   2.800 -2.2849  0.5577  1.0205
  238SOL    HW2  714   1.328   0.541   2.940 -1.8608  1.7596 -2.4167
  239SOL     OW  715   3.002   0.889   2.535  0.2552 -0.7679  0.0996
  239SOL    HW1  716   2.926   0.958   2.527  0.1067 -0.2079 -4.4971
  239SOL    HW2  717   3.062   0.898   2.621  0.4279  0.3565 -0.6671
  240SOL     OW  718   2.417   2.450   0.663 -0.3709 -0.3975  0.2824
  240SOL    HW1  719   2.415   2.371   0.728  0.8293  0.3848 -2.5261
  240SOL    HW2  720   2.359   2.421   0.580 -0.8126  0.0460  0.3666
  241SOL     OW  721   1.064   1.308   1.179  0.5115  0.3277 -0.0989
  241SOL    HW1  722   1.035   1.306   1.273 -0.8534 -2.5911 -0.6471
  241SOL    HW2  723   1.021   1.227   1.131  1.2186 -1.4422 -0.8017
  242SOL     OW  724   0.571   0.685   0.753 -0.1469  0.2995  0.0253
  242SOL    HW1  725   0.558   0.738   0.836 -1.9332 -2.0184 -2.1260
  242SOL    HW2  726   0.508   0.724   0.688 -3.2056  2.0009 -0.8079
  243SOL     OW  727   0.429   0.535   0.981 -0.4987  0.3696 -1.0531
  243SOL    HW1  728   0.406   0.626   1.031 -1.4261  2.9265  0.5262
  243SOL    HW2  729   0.530   0.509   0.996 -0.1555 -1.1749 -2.5243
  244SOL     OW  730   0.883   0.254   0.386 -0.3758 -0.0944 -0.4940
  244SOL    HW1  731   0.842   0.330   0.449 -1.8443  0.3773  3.0958
  244SOL    HW2  732   0.985   0.271   0.381  2.6955  1.9927  0.3453
  245SOL     OW  733   1.973   0.846   0.289  0.7781 -0.3296 -0.1143
  245SOL    HW1  734   1.941   0.868   0.196  0.2787  0.0432  0.9852
  245SOL    HW2  735   2.062   0.892   0.310 -0.2213  0.4268  0.8665
  246SOL     OW  736   0.206   0.722   1.658  0.0547  0.1112  0.0387
  246SOL    HW1  737   0.289   0.764   1.702 -0.0201  0.7813  0.6679
  246SOL    HW2  738   0.171   0.774   1.579  1.1390 -2.2166  0.3648
  247SOL     OW  739   0.641   2.840   2.036  0.4417  0.2369 -0.1122
  247SOL    HW1  740   0.637   2.832   1.935 -0.8808  0.9159 -0.4159
  247SOL    HW2  741   0.731   2.836   2.075 -2.4754  1.2092 -1.8858
  248SOL     OW  742   0.614   1.471   2.377  0.2191 -0.2164  0.5370
  248SOL    HW1  743   0.680   1.500   2.450  1.4219  0.6731  0.2429
  248SOL    HW2  744   0.593   1.371   2.375  0.6770 -0.3087 -0.8239
  249SOL     OW  745   0.660   2.941   3.019  0.4379 -0.5276  0.3476
  249SOL    HW1  746   0.605   2.958   2.931 -1.8756  1.9424  0.8967
  249SOL    HW2  747   0.640   2.853   3.063  0.5203  2.4793  2.0453
  250SOL     OW  748   0.588   0.326   2.458  0.7204 -0.5734 -0.0024
  250SOL    HW1  749   0.678   0.366   2.431  0.2290  1.5669  0.9215
  250SOL    HW2  750   0.550   0.257   2.389 -0.6313 -0.4537 -1.2776
  251SOL     OW  751   3.023   1.588   1.068  0.2348 -0.3072 -0.0321
  251SOL    HW1  752   2.937   1.613   1.014  1.3441  0.2459 -0.1578
  251SOL    HW2  753   3.006   1.497   1.109  0.1885  0.9824 -0.9732
  252SOL     OW  754   1.946   3.025   1.771  0.3051 -0.1845  0.1804
  252SOL    HW1  755   1.911   2.935   1.794  2.0568 -0.0952  0.1987
  252SOL    HW2  756   1.976   3.037   1.672  0.6515 -0.7576 -1.0648
  253SOL     OW  757   2.143   1.381   2.682 -0.0161  0.7442 -0.1697
  253SOL    HW1  758   2.118   1.342   2.773  0.5369  0.8316 -1.6046
  253SOL    HW2  759   2.158   1.479   2.679 -0.7581  0.1675  0.8195
  254SOL     OW  760   0.688   1.529   1.984 -0.2855 -0.1651  0.0960
  254SOL    HW1  761   0.644   1.617   1.949 -0.6264 -0.1148  2.3646
  254SOL    HW2  762   0.619   1.465   2.020  1.0934  1.6146  2.3885
  255SOL     OW  763   0.776   0.131   1.764  0.0118 -0.3368  0.1822
  255SOL    HW1  764   0.866   0.175   1.739  2.1779  1.2922 -1.7217
  255SOL    HW2  765   0.742   0.152   1.858  2.9843 -1.1158 -2.0820
  256SOL     OW  766   0.189   2.378   0.763  0.2665  0.7697 -0.0062
  256SOL    HW1  767   0.282   2.365   0.799 -1.1033  3.1151  0.3512
  256SOL    HW2  768   0.117   2.335   0.820  3.4420  1.6048 -0.7983
  257SOL     OW  769   0.226   2.609   2.263  0.2886  0.1648 -0.3631
  257SOL    HW1  770   0.173   2.527   2.251  2.1532  2.1398  1.6508
  257SOL    HW2  771   0.305   2.597   2.328  0.7503 -0.7285  0.8237
  258SOL     OW  772   1.543   1.745   1.930  0.0419  0.1272 -0.2336
  258SOL    HW1  773   1.505   1.653   1.941 -0.0025  0.3023 -1.8475
  258SOL    HW2  774   1.479   1.797   1.874  1.0724  0.4984 -0.0883
  259SOL     OW  775   1.193   1.487   2.188 -0.0556  0.1568 -0.1409
  259SOL    HW1  776   1.195   1.557   2.110 -0.1851 -0.2264 -1.2255
  259SOL    HW2  777   1.279   1.468   2.237 -0.4303 -0.8472  0.0602
  260SOL     OW  778   2.344   0.481   2.293  0.2418  0.1912  0.6517
  260SOL    HW1  779   2.328   0.397   2.235  0.9515  1.7508  2.6814
  260SOL    HW2  780   2.408   0.547   2.246  0.4440  0.5065  0.2042
  261SOL     OW  781   0.842   1.234   0.805 -0.2024  0.2979  0.6491
  261SOL    HW1  782   0.756   1.271   0.768  1.6996 -0.2104 -1.4343
  261SOL    HW2  783   0.899   1.189   0.732  1.7481 -0.9602  0.2986
  262SOL     OW  784   2.191   2.018   2.643  0.5141  0.2088  0.0796
  262SOL    HW1  785   2.212   1.929   2.686  0.2791  0.3242 -0.4749
  262SOL    HW2  786   2.139   2.084   2.699 -0.2910  0.4967 -0.8739
  263SOL     OW  787   0.826   2.202   1.097 -0.6145  0.6746 -0.3637
  263SOL    HW1  788   0.846   2.115   1.147 -1.2608  3.3170 -0.3001
  263SOL    HW2  789   0.800   2.174   1.002 -2.4208 -0.6948  0.9830
  264SOL     OW  790   0.031   2.238   0.293  0.0888 -0.1346 -0.2369
  264SOL    HW1  791   3.055   2.284   0.348  0.8156 -1.3438 -0.4103
  264SOL    HW2  792   0.127   2.226   0.336  3.4524  0.8782  0.8053
  265SOL     OW  793   1.290   1.183   2.936  0.3152  0.0559 -0.3012
  265SOL    HW1  794   1.350   1.132   3.000  0.8576 -0.4450  0.8411
  265SOL    HW2  795   1.254   1.112   2.869  0.1031  0.4255 -0.9586
  266SOL     OW  796   0.761   1.915   2.275 -0.6640 -0.0188 -0.1413
  266SOL    HW1  797   0.826   1.992   2.283  0.5835 -1.5156 -0.1366
  266SOL    HW2  798   0.665   1.950   2.269  3.2865 -0.4461  0.2572
  267SOL     OW  799   2.520   0.987   2.516  0.0004 -0.3086 -0.0556
  267SOL    HW1  800   2.545   0.987   2.613 -0.3261  0.7386 -1.7619
  267SOL    HW2  801   2.502   1.077   2.476 -0.5243 -3.4513  0.7174
  268SOL     OW  802   0.912   1.346   0.187 -0.4375 -0.4614 -0.3590
  268SOL    HW1  803   0.985   1.325   0.116  3.4408 -1.8245  1.3071
  268SOL    HW2  804   0.962   1.360   0.275  1.5232 -2.1307  1.3660
  269SOL     OW  805   2.770   1.809   2.526 -0.2139  0.2556 -0.6664
  269SOL    HW1  806   2.740   1.878   2.592  0.1155 -4.0530 -0.6809
  269SOL    HW2  807   2.875   1.813   2.523 -0.2429 -1.8352 -0.2451
  270SOL     OW  808   0.559   2.222   3.053  0.1720  0.6420  0.4194
  270SOL    HW1  809   0.467   2.213   3.000 -2.0854 -3.9310  2.2242
  270SOL    HW2  810   0.634   2.276   3.014  1.7751 -4.2024  1.5242
  271SOL     OW  811   0.269   0.426   0.130 -0.7477 -0.2594  0.2255
  271SOL    HW1  812   0.250   0.345   0.188 -1.1411 -0.4520  0.1749
  271SOL    HW2  813   0.215   0.425   0.045  0.4924  2.5680 -0.1622
  272SOL     OW  814   2.917   0.107   0.255  0.3278  0.2194 -0.4426
  272SOL    HW1  815   2.965   0.188   0.294 -0.2052  0.3726  2.6672
  272SOL    HW2  816   2.818   0.130   0.238 -1.3503 -1.7019 -1.9520
  273SOL     OW  817   0.375   2.971   1.874 -0.7715  0.0134  0.6814
  273SOL    HW1  818   0.462   2.941   1.828 -0.6878  0.8183  2.0201
  273SOL    HW2  819   0.345   2.903   1.939  2.8604  4.0364 -1.5605
  274SOL     OW  820   3.086   0.558   1.404 -0.5372  0.0347  0.4826
  274SOL    HW1  821   3.029   0.499   1.467  0.3928 -1.3502  2.2662
  274SOL    HW2  822   0.076   0.512   1.376 -3.2678  0.8738 -0.6784
  275SOL     OW  823   0.644   1.399   1.051  0.0556  0.1879  0.5494
  275SOL    HW1  824   0.737   1.391   1.015 -2.5400  0.1466  0.5192
  275SOL    HW2  825   0.646   1.395   1.152 -1.0843  0.4145 -0.6783
  276SOL     OW  826   0.627   1.123   2.110 -0.7338  0.0168  0.2442
  276SOL    HW1  827   0.576   1.209   2.096 -3.2408 -2.1509 -0.6872
  276SOL    HW2  828   0.578   1.058   2.173  2.5657 -0.3591 -0.9774
  277SOL     OW  829   1.211   1.934   1.959 -0.4604  0.4969  0.1085
  277SOL    HW1  830   1.245   1.954   2.054 -0.5437  1.6767 -1.6761
  277SOL    HW2  831   1.200   2.030   1.916 -0.3292  3.9802 -1.0695
  278SOL     OW  832   2.348   2.687   2.137 -0.2791 -0.5386  0.1990
  278SOL    HW1  833   2.341   2.789   2.113 -0.1644  0.1491  0.0235
  278SOL    HW2  834   2.267   2.667   2.193  0.9172 -0.6007 -3.8168
  279SOL     OW  835   1.119   1.894   0.017  0.4471  0.2240 -0.0152
  279SOL    HW1  836   1.201   1.899   0.081  2.4670 -0.4072  0.4920
  279SOL    HW2  837   1.066   1.983   0.005 -1.6539  1.5541  0.7239
  280SOL     OW  838   1.291   0.607   0.296 -0.1311 -0.1008 -0.0569
  280SOL    HW1  839   1.359   0.556   0.240  0.4869  1.4154 -0.7500
  280SOL    HW2  840   1.343   0.681   0.346  0.0319 -3.8026 -2.0760
  281SOL     OW  841   0.611   0.458   1.593  0.8341  0.0789  0.7644
  281SOL    HW1  842   0.603   0.559   1.567 -0.9583 -1.4170  1.6207
  281SOL    HW2  843   0.516   0.419   1.602 -1.5463 -0.2398 -1.2288
  282SOL     OW  844   0.122   2.584   0.583 -0.2882 -0.0713  0.1192
  282SOL    HW1  845   0.151   2.515   0.649 -0.1273 -2.0750 -0.9728
  282SOL    HW2  846   0.147   2.548   0.492 -0.2634  0.4973 -1.6109
  283SOL     OW  847   1.340   1.829   1.748 -0.2493  0.0081 -0.2320
  283SOL    HW1  848   1.259   1.817   1.681  3.1505  0.0795 -1.4636
  283SOL    HW2  849   1.303   1.861   1.839  0.3384 -1.2749  2.4182
  284SOL     OW  850   2.783   2.724   1.534  0.0598  0.8450 -0.2684
  284SOL    HW1  851   2.784   2.807   1.592 -0.8702 -1.4691 -0.7477
  284SOL    HW2  852   2.836   2.743   1.448 -2.8456  2.9670  0.1729
  285SOL     OW  853   0.193   2.557   0.317 -0.1586  0.5762 -0.1192
  285SOL    HW1  854   0.113   2.549   0.256  0.5760  2.5032 -0.8080
  285SOL    HW2  855   0.238   2.467   0.322 -2.2192  0.2161 -2.5872
  286SOL     OW  856   0.390   2.741   1.247 -0.1283 -0.4775  0.0994
  286SOL    HW1  857   0.437   2.820   1.290  0.2055 -1.4415  0.3736
  286SOL    HW2  858   0.323   2.777   1.177  0.2324  1.4931 -1.0197
  287SOL     OW  859   0.637   1.304   0.663 -0.2556 -0.1924 -0.2224
  287SOL    HW1  860   0.616   1.257   0.576 -3.4103  0.3724 -0.9879
  287SOL    HW2  861   0.628   1.403   0.663  3.6836 -3.9267  1.6531
  288SOL     OW  862   1.454   2.048   2.532  0.3258 -0.2090 -0.1645
  288SOL    HW1  863   1.403   1.966   2.559 -0.6477  0.6262 -0.0358
  288SOL    HW2  864   1.529   2.070   2.596 -1.2269 -1.1524  1.3044
  289SOL     OW  865   2.434   1.676   0.184 -0.0211 -0.7084 -0.5623
  289SOL    HW1  866   2.331   1.689   0.194 -4.1345  0.8724  0.4949
  289SOL    HW2  867   2.450   1.601   0.121  2.5403  3.5829 -1.4026
  290SOL     OW  868   1.295   1.406   1.077  0.1422  0.4221 -0.3129
  290SOL    HW1  869   1.365   1.389   1.151 -1.8506  1.0064 -1.5277
  290SOL    HW2  870   1.207   1.396   1.124  0.6872  2.3035 -1.0212
  291SOL     OW  871   1.416   1.015   3.093  0.1802 -0.8098  0.5292
  291SOL    HW1  872   1.391   0.918   3.085  0.4858  1.7718 -3.2494
  291SOL    HW2  873   1.509   1.027   3.063 -1.7715 -1.1888  0.1135
  292SOL     OW  874   1.240   1.640   0.187 -0.0504  0.0487  0.4675
  292SOL    HW1  875   1.138   1.640   0.165 -0.1136 -1.3012  1.8582
  292SOL    HW2  876   1.304   1.619   0.106 -0.9312 -0.8975 -0.5872
  293SOL     OW  877   1.521   0.043   1.274 -0.3012  0.1381 -0.2221
  293SOL    HW1  878   1.526   0.013   1.372 -0.3412  0.8799  0.0709
  293SOL    HW2  879   1.432   0.087   1.257 -1.9981 -0.2774 -0.4978
  294SOL     OW  880   2.111   0.983   2.685  0.1338  0.6463  0.3328
  294SOL    HW1  881   2.050   1.031   2.750  1.3489 -1.8460 -0.9811
  294SOL    HW2  882   2.123   1.042   2.601  0.4059 -0.6785  1.0851
  295SOL     OW  883   1.672   1.891   2.924 -0.1920 -0.1738 -0.8135
  295SOL    HW1  884   1.612   1.862   3.005  0.7959 -3.2929  0.5040
  295SOL    HW2  885   1.734   1.814   2.904  0.0544  2.3395 -1.0366
  296SOL     OW  886   1.314   1.056   1.304  0.2704 -0.3545  0.2476
  296SOL    HW1  887   1.224   1.054   1.350 -0.2157  1.5931 -3.0337
  296SOL    HW2  888   1.360   0.968   1.322  3.0538  2.4862 -2.7417
  297SOL     OW  889   0.288   0.837   2.060 -0.2101  0.0624  0.1300
  297SOL    HW1  890   0.364   0.778   2.023  0.2596  1.2022  0.9527
  297SOL    HW2  891   0.263   0.819   2.157  1.4458  1.3287  1.6464
  298SOL     OW  892   1.419   1.870   1.339 -0.3032 -0.1665  0.0667
  298SOL    HW1  893   1.325   1.909   1.329  1.1384 -0.3071 -0.5262
  298SOL    HW2  894   1.491   1.935   1.372 -0.2433 -0.4851 -0.2556
  299SOL     OW  895   1.100   3.071   2.556 -0.1938 -0.1318  0.3025
  299SOL    HW1  896   1.147   3.017   2.630 -3.0765 -0.3349 -3.4324
  299SOL    HW2  897   1.012   0.021   2.584  1.0250  1.5735 -1.4720
  300SOL     OW  898   2.754   2.124   0.408  0.1771 -0.0387  0.3760
  300SOL    HW1  899   2.831   2.120   0.473 -1.8797 -0.7535 -1.9518
  300SOL    HW2  900   2.692   2.202   0.433 -1.5750 -2.9473 -0.7768
  301SOL     OW  901   2.235   0.339   2.525 -0.5805  0.0325  0.0137
  301SOL    HW1  902   2.262   0.401   2.449  0.0505  2.0605  1.7101
  301SOL    HW2  903   2.319   0.316   2.582  1.8373  0.4680 -0.4188
  302SOL     OW  904   2.298   2.212   2.959  0.5103 -0.5986  0.0407
  302SOL    HW1  905   2.358   2.138   2.934 -2.0648  0.8627  1.4641
  302SOL    HW2  906   2.340   2.285   3.017  0.2126 -1.5679  0.5784
  303SOL     OW  907   3.067   2.511   2.508 -0.0059  0.3009  0.1331
  303SOL    HW1  908   0.003   2.597   2.552  0.4151  0.0641 -0.7338
  303SOL    HW2  909   3.072   2.431   2.572 -1.9687  0.4362 -1.0594
  304SOL     OW  910   0.206   1.599   0.989 -0.6502 -0.0800 -0.0613
  304SOL    HW1  911   0.106   1.607   1.013  1.4286 -1.8915  1.4307
  304SOL    HW2  912   0.257   1.670   1.043  0.7752  0.3329 -0.7076
  305SOL     OW  913   2.977   0.712   1.773  0.1023 -0.1838  0.1861
  305SOL    HW1  914   3.068   0.675   1.744  0.7485 -4.4516 -1.4549
  305SOL    HW2  915   2.900   0.648   1.756  0.5455  3.1417 -0.6111
  306SOL     OW  916   1.288   1.327   0.560 -0.3524  0.5274  0.0355
  306SOL    HW1  917   1.299   1.390   0.639  0.5613 -0.3582  1.0236
  306SOL    HW2  918   1.350   1.357   0.484  1.5803  0.9007 -0.9094
  307SOL     OW  919   0.297   0.013   0.590  0.1314  0.1819  0.2512
  307SOL    HW1  920   0.210   3.080   0.543  2.8800 -0.2914  1.1067
  307SOL    HW2  921   0.335   3.027   0.642 -0.4527  2.2925  1.3271
  308SOL     OW  922   0.153   1.261   2.111  0.6134 -0.6494  0.8389
  308SOL    HW1  923   0.197   1.246   2.201 -1.7904  0.5052 -0.3856
  308SOL    HW2  924   0.118   1.172   2.075 -2.1449  3.0724 -1.3833
  309SOL     OW  925   3.044   1.829   2.474 -0.1026  0.4898  0.6103
  309SOL    HW1  926   3.086   1.823   2.381 -2.7713  0.6227 -0.0659
  309SOL    HW2  927   3.085   1.758   2.533  1.4268  0.3142  0.7337
  310SOL     OW  928   2.259   0.611   0.076 -0.4765  0.1584 -0.4671
  310SOL    HW1  929   2.352   0.653   0.094  0.5991 -2.2754  1.1034
  310SOL    HW2  930   2.222   0.635   3.073 -0.2774  0.3316 -1.6111
  311SOL     OW  931   1.939   0.905   0.021 -0.0363 -0.1218  0.2584
  311SOL    HW1  932   2.035   0.928   0.030 -3.0196 -2.1761 -0.9474
  311SOL    HW2  933   1.929   0.810   3.077  0.8691  2.1190  0.4855
  312SOL     OW  934   1.281   1.878   2.711  0.2388 -0.6337  0.3511
  312SOL    HW1  935   1.304   1.779   2.694 -1.0966 -0.5775 -4.0841
  312SOL    HW2  936   1.182   1.900   2.693 -0.2928 -0.0987  4.0582
  313SOL     OW  937   0.279   0.562   0.576 -0.3082  0.0505 -0.0930
  313SOL    HW1  938   0.318   0.482   0.527 -0.7336  0.0649 -1.9315
  313SOL    HW2  939   0.245   0.531   0.668  3.0885 -3.0781 -1.2743
  314SOL     OW  940   0.601   1.745   1.284  0.5903 -0.2112  0.2287
  314SOL    HW1  941   0.682   1.717   1.227 -0.1947 -3.1475 -2.6066
  314SOL    HW2  942   0.604   1.702   1.378 -0.6552  0.0367  0.3064
  315SOL     OW  943   0.853   1.747   2.106  0.1261  0.0269  0.2258
  315SOL    HW1  944   0.800   1.666   2.074  1.5877  1.4254  1.2784
  315SOL    HW2  945   0.791   1.811   2.156  1.3685 -0.1894 -1.1322
  316SOL     OW  946   0.433   2.590   0.553 -0.6607  0.4004 -0.2986
  316SOL    HW1  947   0.342   2.605   0.512  0.7139 -0.4436  0.8572
  316SOL    HW2  948   0.461   2.664   0.617  0.5819 -0.8805  1.9362
  317SOL     OW  949   2.435   0.206   1.378  0.7074  0.3736  0.4891
  317SOL    HW1  950   2.426   0.128   1.310 -1.9710 -0.1340 -1.3881
  317SOL    HW2  951   2.419   0.289   1.325 -0.7459  0.4728  0.0491
  318SOL     OW  952   1.710   3.077   0.497  0.3300 -0.0984 -0.0441
  318SOL    HW1  953   1.674   0.032   0.582  1.2000  1.5526 -1.2642
  318SOL    HW2  954   1.806   3.048   0.518  0.9112  0.9978  1.1774
  319SOL     OW  955   1.717   0.541   2.709 -0.5544  0.0354 -0.1540
  319SOL    HW1  956   1.735   0.477   2.632  2.5938  2.5022  1.2844
  319SOL    HW2  957   1.784   0.523   2.784  0.4828  0.4329  1.1193
  320SOL     OW  958   2.873   2.075   1.754 -0.0515 -0.1974 -0.3352
  320SOL    HW1  959   2.916   2.169   1.771 -0.2155  2.0052 -0.0533
  320SOL    HW2  960   2.810   2.055   1.830  1.1849 -0.1690 -2.4178
  321SOL     OW  961   0.097   2.389   2.976 -0.2504 -0.1678  0.2361
  321SOL    HW1  962   0.113   2.479   3.023  0.7244  0.7124  3.4512
  321SOL    HW2  963   0.002   2.380   2.943 -0.0279 -0.7960 -2.4839
  322SOL     OW  964   2.651   0.566   2.405  0.6104  0.5491 -0.0975
  322SOL    HW1  965   2.601   0.592   2.312  1.1072  2.2933 -2.7276
  322SOL    HW2  966   2.738   0.511   2.391 -0.1922  1.4636 -1.8499
  323SOL     OW  967   2.153   1.172   0.566  0.1572 -0.2969 -0.1109
  323SOL    HW1  968   2.241   1.183   0.612 -3.7564  0.8499  0.2243
  323SOL    HW2  969   2.131   1.078   0.546  1.6589 -0.3773  1.5868
  324SOL     OW  970   0.220   0.431   1.118 -0.1660 -0.2750 -0.1777
  324SOL    HW1  971   0.292   0.477   1.063 -1.0764 -2.1967 -2.0712
  324SOL    HW2  972   0.236   0.459   1.215  0.3911 -1.0336  2.7909
  325SOL     OW  973   2.662   0.045   1.716  0.0697 -0.0653 -0.0085
  325SOL    HW1  974   2.695   0.076   1.808  0.6856 -0.3588 -0.1926
  325SOL    HW2  975   2.645   0.124   1.651 -0.6941  0.6787 -2.7625
  326SOL     OW  976   1.469   2.806   0.170  0.3680 -0.0377  0.5663
  326SOL    HW1  977   1.494   2.721   0.226 -1.0637 -1.6213 -2.3465
  326SOL    HW2  978   1.551   2.842   0.126 -0.3005 -1.5710  2.5695
  327SOL     OW  979   1.695   1.934   0.286  0.1482 -0.2221  0.0395
  327SOL    HW1  980   1.692   2.034   0.304 -1.4856 -0.8374  1.1054
  327SOL    HW2  981   1.698   1.877   0.373  1.1707 -0.6819 -0.4119
  328SOL     OW  982   2.950   1.987   2.093 -0.3239  0.3883 -0.1004
  328SOL    HW1  983   2.873   2.042   2.064 -1.2512  0.3778  0.9674
  328SOL    HW2  984   3.018   1.968   2.017  0.4693  1.0701  2.2188
  329SOL     OW  985   3.058   2.267   1.203  0.5864 -0.1688  0.4481
  329SOL    HW1  986   3.012   2.328   1.274 -2.0342 -1.7492  0.8530
  329SOL    HW2  987   3.075   2.172   1.241  1.1551  0.3216  1.6616
  330SOL     OW  988   2.544   0.711   2.605  0.0478 -0.3676 -0.1438
  330SOL    HW1  989   2.554   0.629   2.544  0.1033 -1.0756  2.4207
  330SOL    HW2  990   2.500   0.791   2.560 -0.0138 -0.3517  0.1740
  331SOL     OW  991   2.400   1.743   0.869  0.4023  0.0908 -0.6069
  331SOL    HW1  992   2.311   1.796   0.873  1.9322 -0.2276  1.7883
  331SOL    HW2  993   2.409   1.695   0.783  0.7209  0.8108  0.0894
  332SOL     OW  994   0.480   2.866   0.965 -0.1555 -0.5350 -0.7080
  332SOL    HW1  995   0.457   2.968   0.968 -0.6472  1.4399  1.5208
  332SOL    HW2  996   0.396   2.809   0.974 -0.3580  1.1184 -0.6992
  333SOL     OW  997   2.772   1.857   2.240  0.0786 -0.3156 -0.2255
  333SOL    HW1  998   2.849   1.915   2.203  1.3181  1.9912 -2.3094
  333SOL    HW2  999   2.764   1.863   2.341 -2.1170  0.6990 -0.6582
  334SOL     OW 1000   0.607   0.953   0.848 -0.5447  0.1088 -0.4518
  334SOL    HW1 1001   0.616   0.961   0.949  0.1697 -0.6005 -0.5170
  334SOL    HW2 1002   0.624   1.046   0.809  2.2268  3.5419  0.1326
  335SOL     OW 1003   0.082   1.740   2.228  0.1227  0.2022  0.3432
  335SOL    HW1 1004   0.169   1.742   2.174 -0.9169 -0.6385 -2.0183
  335SOL    HW2 1005   0.022   1.664   2.199 -2.5800  1.4100 -0.7420
  336SOL     OW 1006   2.263   2.973   2.251  0.1690 -0.2834 -0.1270
  336SOL    HW1 1007   2.257   2.986   2.353 -1.6198 -1.5823 -0.2936
  336SOL    HW2 1008   2.180   3.018   2.208 -1.5199 -0.5124 -0.8888
  337SOL     OW 1009   0.900   0.682   0.873  0.4330  0.3358  0.0373
  337SOL    HW1 1010   0.807   0.715   0.895  0.2717 -0.8161  2.1688
  337SOL    HW2 1011   0.947   0.638   0.952 -0.2967 -0.2385 -2.5437
  338SOL     OW 1012   1.471   1.750   1.101 -0.0521 -0.2549  0.4995
  338SOL    HW1 1013   1.440   1.796   1.189 -0.0064  3.2882  0.7014
  338SOL    HW2 1014   1.562   1.784   1.066 -0.1013 -1.1566  1.3599
  339SOL     OW 1015   0.376   1.765   1.142  0.5715  0.2246  0.0266
  339SOL    HW1 1016   0.456   1.746   1.199 -0.1501 -0.1512 -1.5558
  339SOL    HW2 1017   0.357   1.866   1.136 -0.0773  2.0536 -0.1411
  340SOL     OW 1018   1.074   2.792   1.910  0.2348  0.2583  0.5423
  340SOL    HW1 1019   1.143   2.743   1.856  0.3052 -1.2261 -0.1491
  340SOL    HW2 1020   1.086   2.889   1.885  2.0499 -0.1064 -0.6936
  341SOL     OW 1021   2.099   1.458   0.844 -0.4124 -0.1415  0.3242
  341SOL    HW1 1022   2.011   1.412   0.861  0.2486 -2.9113  0.9557
  341SOL    HW2 1023   2.116   1.453   0.743 -0.6344  0.9883  0.1988
  342SOL     OW 1024   2.205   0.985   0.329 -0.2638 -0.5093  0.1616
  342SOL    HW1 1025   2.307   0.981   0.320  0.2228  0.7453 -1.2443
  342SOL    HW2 1026   2.176   1.056   0.258  1.3073  3.0456 -1.0353
  343SOL     OW 1027   2.201   3.052   1.046 -0.0802 -0.3094  0.4300
  343SOL    HW1 1028   2.117   3.085   1.085  0.5921 -0.6585  2.7844
  343SOL    HW2 1029   2.181   2.967   0.993 -2.7827  1.2003 -1.0490
  344SOL     OW 1030   2.557   0.443   0.072 -0.8915  0.1390 -0.1701
  344SOL    HW1 1031   2.616   0.429   3.080 -2.7182  0.0794 -0.8821
  344SOL    HW2 1032   2.473   0.392   0.057 -0.7049  1.3069  0.0711
  345SOL     OW 1033   0.970   2.400   1.913  0.1991 -0.2605  0.4594
  345SOL    HW1 1034   0.964   2.451   1.823  1.3534  1.6646  0.9197
  345SOL    HW2 1035   0.881   2.343   1.935 -1.5168 -2.4216  0.4898
  346SOL     OW 1036   2.380   2.242   0.812  0.2690  0.4792 -0.1407
  346SOL    HW1 1037   2.298   2.290   0.849 -0.3532 -1.8949 -2.2861
  346SOL    HW2 1038   2.428   2.197   0.891  2.4728 -0.4718 -0.7340
  347SOL     OW 1039   2.029   3.064   1.528  0.4364  0.2731 -0.5987
  347SOL    HW1 1040   2.101   0.047   1.532 -1.7617  3.4814 -1.6104
  347SOL    HW2 1041   1.981   3.063   1.439  0.4827 -2.4398 -1.0201
  348SOL     OW 1042   0.865   0.924   1.537 -0.3473  0.0530 -0.1013
  348SOL    HW1 1043   0.781   0.969   1.568 -1.8566  0.2166  2.4043
  348SOL    HW2 1044   0.835   0.837   1.498  0.9528 -0.8058 -1.2844
  349SOL     OW 1045   2.356   0.480   2.870 -0.6287  0.0274  0.5159
  349SOL    HW1 1046   2.424   0.553   2.854  1.8576 -1.8445  1.8073
  349SOL    HW2 1047   2.376   0.427   2.958  2.2526  0.8239 -0.0720
  350SOL     OW 1048   2.061   2.174   2.817  0.0541 -0.5790  0.0695
  350SOL    HW1 1049   1.972   2.184   2.863  0.0302  0.7009  1.4008
  350SOL    HW2 1050   2.145   2.164   2.874 -0.1168 -1.6081  1.3276
  351SOL     OW 1051   1.103   0.504   0.463  0.3040  0.8337  0.0925
  351SOL    HW1 1052   1.074   0.571   0.534 -1.0562  1.1335 -0.1175
  351SOL    HW2 1053   1.183   0.540   0.414 -1.3678 -1.4275  1.9849
  352SOL     OW 1054   1.454   2.030   2.846 -0.3399 -0.3416 -0.8060
  352SOL    HW1 1055   1.550   2.000   2.861  1.1435  1.4173  0.2106
  352SOL    HW2 1056   1.393   1.959   2.803 -1.2579 -0.0744 -1.1545
  353SOL     OW 1057   0.534   0.942   2.899  0.0229  0.3632 -0.1714
  353SOL    HW1 1058   0.513   0.972   2.802 -0.5029  1.1993  0.6718
  353SOL    HW2 1059   0.544   1.019   2.961  2.3372 -0.1313  1.3485
  354SOL     OW 1060   0.468   2.642   2.688 -0.4336  0.3057 -0.2232
  354SOL    HW1 1061   0.502   2.547   2.712 -0.8665  1.4650  0.0414
  354SOL    HW2 1062   0.544   2.709   2.692 -1.5541  1.1175 -3.1331
  355SOL     OW 1063   2.667   2.569   1.737  0.0387 -0.6797 -0.3310
  355SOL    HW1 1064   2.689   2.618   1.827 -1.5715 -1.2953 -0.2794
  355SOL    HW2 1065   2.684   2.612   1.647  0.2961 -0.6056 -4.0877
  356SOL     OW 1066   2.746   1.162   1.285  0.4644  0.2015 -0.2252
  356SOL    HW1 1067   2.685   1.169   1.367  0.2147 -0.9410 -0.0845
  356SOL    HW2 1068   2.690   1.188   1.202 -1.5914 -1.9384 -3.2127
  357SOL     OW 1069   2.822   0.391   1.353  0.5533  0.6055  0.7683
  357SOL    HW1 1070   2.892   0.380   1.425  0.4041 -0.0299 -0.4127
  357SOL    HW2 1071   2.814   0.307   1.298  0.2324 -1.0044 -0.7053
  358SOL     OW 1072   0.546   1.886   1.648 -0.2290  0.0089  0.0293
  358SOL    HW1 1073   0.631   1.936   1.616  1.7223  1.4602  2.7368
  358SOL    HW2 1074   0.475   1.956   1.675 -2.6682 -0.6084 -0.0031
  359SOL     OW 1075   2.664   2.765   2.674  0.6927 -0.3300 -0.3283
  359SOL    HW1 1076   2.582   2.816   2.643  2.4556 -0.3549  0.1566
  359SOL    HW2 1077   2.648   2.667   2.653  0.4179 -1.9315 -1.7691
  360SOL     OW 1078   1.168   1.002   1.730 -0.1362  0.1800 -0.1688
  360SOL    HW1 1079   1.083   0.977   1.777  0.3580 -0.0159 -1.5349
  360SOL    HW2 1080   1.239   0.932   1.747 -2.5092 -0.1108 -0.7594
  361SOL     OW 1081   2.396   0.127   0.699  0.6489  0.8129 -0.3108
  361SOL    HW1 1082   2.365   0.221   0.716  1.5821  3.4898  1.2647
  361SOL    HW2 1083   2.405   0.106   0.601 -1.8722  2.0030  1.1242
  362SOL     OW 1084   0.877   0.029   0.541 -0.2800  0.2949 -0.1275
  362SOL    HW1 1085   0.884   0.100   0.468  1.3854  0.0874  0.0365
  362SOL    HW2 1086   0.963   0.008   0.594  0.4119 -1.2683  3.5895
  363SOL     OW 1087   0.999   1.532   0.629  0.0973  0.4362 -0.3985
  363SOL    HW1 1088   1.003   1.473   0.548  0.7685  1.5797  1.5585
  363SOL    HW2 1089   1.094   1.534   0.672  1.2301  2.9812 -1.8852
  364SOL     OW 1090   0.455   0.850   1.743  0.2666 -0.1095  0.1181
  364SOL    HW1 1091   0.488   0.800   1.827  2.0118 -0.9204 -0.9234
  364SOL    HW2 1092   0.419   0.943   1.771 -1.8497  0.3492  0.7032
  365SOL     OW 1093   2.823   0.850   0.795 -0.2997  0.4500  0.5672
  365SOL    HW1 1094   2.909   0.830   0.844 -1.0149 -0.2178 -0.1318
  365SOL    HW2 1095   2.773   0.762   0.778  1.2682 -2.6888  0.9931
  366SOL     OW 1096   2.546   1.374   0.557 -0.0650  0.5003 -0.7639
  366SOL    HW1 1097   2.581   1.439   0.492 -2.1998 -1.7631  0.2102
  366SOL    HW2 1098   2.623   1.310   0.588  3.0346  1.5925 -0.0844
  367SOL     OW 1099   2.104   2.108   2.158 -0.6333 -0.0480 -0.2995
  367SOL    HW1 1100   2.079   2.055   2.074  2.2888  1.3112 -0.2406
  367SOL    HW2 1101   2.033   2.170   2.192  0.7908 -0.9175 -0.5628
  368SOL     OW 1102   2.661   1.808   0.818 -0.0686  0.2670 -0.1244
  368SOL    HW1 1103   2.565   1.769   0.830 -0.5277 -1.8901 -0.2866
  368SOL    HW2 1104   2.674   1.852   0.726  0.0644  1.3465 -3.7256
  369SOL     OW 1105   2.016   2.438   2.751  0.4083 -0.3301  0.4024
  369SOL    HW1 1106   2.029   2.339   2.759 -0.1242  5.4421 -0.8662
  369SOL    HW2 1107   1.919   2.467   2.737 -0.9167  0.8215 -1.8154
  370SOL     OW 1108   0.195   0.064   1.181 -0.1897 -0.0685 -0.0499
  370SOL    HW1 1109   0.134   0.135   1.150  1.8468  1.3600  2.4097
  370SOL    HW2 1110   0.280   0.053   1.122  1.7567 -0.4988  1.7525
  371SOL     OW 1111   0.622   2.102   0.192  0.1849 -0.4586  0.2554
  371SOL    HW1 1112   0.588   2.156   0.114 -0.5479 -2.0422  1.5205
  371SOL    HW2 1113   0.616   2.009   0.155 -0.9689  1.3471 -1.6038
  372SOL     OW 1114   1.078   1.213   0.008 -0.8527 -0.5170  0.6453
  372SOL    HW1 1115   1.143   1.212   3.023 -0.5836  0.3476 -1.3857
  372SOL    HW2 1116   0.988   1.204   3.058  0.2585 -2.7665  0.1048
  373SOL     OW 1117   1.437   2.543   2.384 -0.0839  0.6178  0.4798
  373SOL    HW1 1118   1.373   2.464   2.375  0.0081  1.2145  1.5677
  373SOL    HW2 1119   1.522   2.522   2.330  0.8327  0.4836  1.2144
  374SOL     OW 1120   0.313   2.247   2.895  0.7654 -0.7441  0.1457
  374SOL    HW1 1121   0.279   2.152   2.875  2.5725 -0.8771  1.8581
  374SOL    HW2 1122   0.245   2.319   2.908  0.9614  3.3431  1.0663
  375SOL     OW 1123   0.625   1.087   1.597  0.0156  0.3317  0.4512
  375SOL    HW1 1124   0.618   1.187   1.591  1.8551  1.9154 -0.1663
  375SOL    HW2 1125   0.575   1.052   1.678  1.0843  1.0175 -0.1140
  376SOL     OW 1126   0.594   2.383   1.740 -0.0066  0.2368 -0.3733
  376SOL    HW1 1127   0.553   2.400   1.833  1.7266  1.5290  3.1939
  376SOL    HW2 1128   0.545   2.305   1.692 -0.6157  0.7905  0.0620
  377SOL     OW 1129   2.926   1.507   2.598  0.0941 -0.1655  0.2491
  377SOL    HW1 1130   2.831   1.529   2.575  1.1661 -1.3842 -0.5211
  377SOL    HW2 1131   2.948   1.407   2.605 -0.5079 -2.4937  1.1031
  378SOL     OW 1132   1.320   0.058   0.133 -0.4807 -0.3221  0.1189
  378SOL    HW1 1133   1.365   0.084   0.049 -0.0291 -2.9694  3.6982
  378SOL    HW2 1134   1.315   3.051   0.136 -0.5068  0.5100 -0.4036
  379SOL     OW 1135   1.857   0.730   0.800 -0.3332 -0.7296 -0.3935
  379SOL    HW1 1136   1.843   0.817   0.851 -2.4317  3.7681  2.4601
  379SOL    HW2 1137   1.827   0.736   0.700  1.9074 -0.2020 -1.2930
  380SOL     OW 1138   0.241   2.066   1.276  0.1493  1.4261 -0.3648
  380SOL    HW1 1139   0.163   2.043   1.339 -1.8781 -0.7309 -0.2483
  380SOL    HW2 1140   0.216   2.042   1.180 -1.4135  1.6928  1.9022
  381SOL     OW 1141   2.398   1.773   2.417  0.1169 -0.5463 -0.0289
  381SOL    HW1 1142   2.416   1.829   2.500 -2.5068 -3.9420  1.6282
  381SOL    HW2 1143   2.392   1.674   2.443  1.5918 -0.0086 -0.6187
  382SOL     OW 1144   3.065   0.194   2.448 -0.5526 -0.4910 -0.1451
  382SOL    HW1 1145   3.042   0.098   2.429 -3.0315  0.9546  3.2840
  382SOL    HW2 1146   0.073   0.215   2.447  1.0178 -0.8813  0.3460
  383SOL     OW 1147   1.798   1.325   2.906 -0.1934  0.2557 -0.2978
  383SOL    HW1 1148   1.845   1.406   2.945 -0.4065 -0.7752 -0.6662
  383SOL    HW2 1149   1.710   1.319   2.957 -1.9716 -0.7380  1.8326
  384SOL     OW 1150   1.086   2.208   1.488 -0.4380  0.2557  0.1315
  384SOL    HW1 1151   0.998   2.223   1.538 -0.2605  0.3064  0.5647
  384SOL    HW2 1152   1.170   2.223   1.545 -1.2304 -1.0704 -1.3059
  385SOL     OW 1153   1.718   2.629   0.887  0.5885 -0.1245 -0.0815
  385SOL    HW1 1154   1.745   2.717   0.932  3.3685  0.9091 -1.3793
  385SOL    HW2 1155   1.763   2.624   0.794 -1.5969  1.3092 -2.0792
  386SOL     OW 1156   1.842   2.181   1.046 -0.5255 -0.4147 -0.2594
  386SOL    HW1 1157   1.922   2.162   0.983  2.2266  0.7635 -1.5873
  386SOL    HW2 1158   1.786   2.265   1.028 -0.0191 -1.5792  0.2655
  387SOL     OW 1159   2.815   2.065   1.487  1.2295  0.3429  0.0232
  387SOL    HW1 1160   2.826   2.059   1.590  1.9808  1.5327  2.4261
  387SOL    HW2 1161   2.721   2.031   1.459 -1.7165 -3.1949  0.0926
  388SOL     OW 1162   2.648   0.704   1.592 -0.3038 -0.1337  0.1266
  388SOL    HW1 1163   2.716   0.759   1.534 -0.9530  4.3530  1.1473
  388SOL    HW2 1164   2.567   0.687   1.530 -1.3962 -2.2007 -1.4999
  389SOL     OW 1165   1.844   0.786   0.527 -0.4191 -0.1208 -0.5205
  389SOL    HW1 1166   1.878   0.813   0.436 -1.8764  2.0188  1.6277
  389SOL    HW2 1167   1.764   0.723   0.516 -0.9822  1.9147 -0.2349
  390SOL     OW 1168   1.012   1.942   2.686  0.1504 -0.6348 -0.2593
  390SOL    HW1 1169   0.927   1.990   2.716 -0.3094  1.1838  0.9348
  390SOL    HW2 1170   1.000   1.900   2.590  0.2300 -0.6205 -1.2804
  391SOL     OW 1171   0.977   2.122   3.078  0.0170  0.3175  0.5036
  391SOL    HW1 1172   1.012   2.217   0.000 -1.1684  1.4490 -1.3290
  391SOL    HW2 1173   0.921   2.119   2.993  2.7315  1.1578  0.3399
  392SOL     OW 1174   0.103   2.698   1.690  0.6454  0.4864 -0.1990
  392SOL    HW1 1175   0.183   2.661   1.742  1.4474 -0.9566  1.1772
  392SOL    HW2 1176   0.040   2.747   1.754 -1.3434  0.2789  0.6678
  393SOL     OW 1177   1.586   2.582   0.285  0.2502 -0.6718 -0.2588
  393SOL    HW1 1178   1.647   2.548   0.211 -1.0735 -0.5107 -1.0495
  393SOL    HW2 1179   1.538   2.502   0.327 -0.4261 -0.7559 -0.7783
  394SOL     OW 1180   0.529   0.478   2.190  0.3844  0.6621 -0.1484
  394SOL    HW1 1181   0.469   0.463   2.108 -0.7697  2.8385  0.1932
  394SOL    HW2 1182   0.512   0.412   2.265 -0.8377 -1.1999 -0.3605
  395SOL     OW 1183   0.318   1.105   1.210 -0.0900  0.3169  1.1358
  395SOL    HW1 1184   0.220   1.123   1.183  3.4201 -0.5314  1.3689
  395SOL    HW2 1185   0.381   1.141   1.136  0.4222  3.0066  1.5431
  396SOL     OW 1186   1.905   1.087   2.232  0.3354 -0.3355 -0.1307
  396SOL    HW1 1187   1.973   1.158   2.265  0.5283 -0.6220  0.8671
  396SOL    HW2 1188   1.908   0.996   2.279  1.5164  0.2669 -1.3602
  397SOL     OW 1189   0.742   0.408   2.938 -0.7226 -0.8015 -0.0586
  397SOL    HW1 1190   0.783   0.482   2.994  0.0146  1.3215  0.3294
  397SOL    HW2 1191   0.645   0.389   2.968  0.8247  1.2273  0.0910
  398SOL     OW 1192   0.806   2.131   2.803  0.0250 -0.1440 -0.0041
  398SOL    HW1 1193   0.764   2.212   2.837  3.2732 -2.8653  1.4663
  398SOL    HW2 1194   0.736   2.059   2.789  0.4733 -2.4147  0.4089
  399SOL     OW 1195   2.412   1.266   2.740 -0.4223 -0.5393  0.7149
  399SOL    HW1 1196   2.463   1.350   2.764  0.6545 -0.1923  2.0384
  399SOL    HW2 1197   2.312   1.279   2.726  0.1368  0.5099  1.5140
  400SOL     OW 1198   2.237   1.290   1.297 -0.4594 -0.2577 -0.3314
  400SOL    HW1 1199   2.326   1.303   1.246  0.2626  1.4966 -2.8640
  400SOL    HW2 1200   2.166   1.270   1.229 -0.7593 -0.4191 -1.5884
  401SOL     OW 1201   1.141   1.710   1.321 -0.2685  0.0471 -0.0162
  401SOL    HW1 1202   1.222   1.652   1.337  0.7210 -3.7965 -1.4785
  401SOL    HW2 1203   1.056   1.661   1.348 -0.4932 -0.7312 -2.2292
  402SOL     OW 1204   0.149   2.393   1.912  0.3354  0.5591 -0.0179
  402SOL    HW1 1205   0.058   2.414   1.954  0.4420 -0.1569 -0.8938
  402SOL    HW2 1206   0.196   2.482   1.892 -1.5482  0.8796  0.1973
  403SOL     OW 1207   0.188   1.172   2.372 -0.2891  0.5190  0.9266
  403SOL    HW1 1208   0.212   1.268   2.408 -1.3759  0.3632 -0.9946
  403SOL    HW2 1209   0.209   1.102   2.446 -1.2012  2.0559 -1.0588
  404SOL     OW 1210   2.110   1.946   1.264  0.0552  0.1766 -0.7245
  404SOL    HW1 1211   2.179   1.993   1.207 -1.3341  0.5706  1.3852
  404SOL    HW2 1212   2.132   1.847   1.281  1.0673  0.4085  0.1778
  405SOL     OW 1213   2.652   0.288   2.550  0.2329 -0.0753 -0.9849
  405SOL    HW1 1214   2.717   0.328   2.484  0.5929 -1.3546  0.5783
  405SOL    HW2 1215   2.692   0.209   2.600 -0.2134  0.9464 -1.4524
  406SOL     OW 1216   0.591   1.175   3.024 -0.6038  0.3467 -0.2690
  406SOL    HW1 1217   0.623   1.189   0.028  3.4696 -3.7846  3.5013
  406SOL    HW2 1218   0.673   1.184   2.968 -0.3883  1.0960  1.1641
  407SOL     OW 1219   1.746   2.531   2.716 -0.4861  0.5796  0.2305
  407SOL    HW1 1220   1.704   2.456   2.766  1.1774  2.7249 -0.5973
  407SOL    HW2 1221   1.757   2.611   2.773 -0.2081  0.0909 -2.6293
  408SOL     OW 1222   0.341   3.040   2.999 -0.0217 -0.6226  0.5289
  408SOL    HW1 1223   0.399   3.090   3.063  0.1327 -0.3822  0.3022
  408SOL    HW2 1224   0.403   3.008   2.921  0.6741 -2.1893 -1.3058
  409SOL     OW 1225   2.310   1.503   1.005  0.2133  0.2527 -0.5371
  409SOL    HW1 1226   2.234   1.458   0.948 -0.7693 -0.9650 -1.0306
  409SOL    HW2 1227   2.347   1.581   0.954 -1.2338 -0.8354 -1.4492
  410SOL     OW 1228   2.224   1.907   3.016 -0.1450 -0.5751  0.3896
  410SOL    HW1 1229   2.229   1.924   0.025 -1.9468  1.1277  0.5424
  410SOL    HW2 1230   2.314   1.941   2.975  1.4995  0.6017 -1.3900
  411SOL     OW 1231   0.176   1.391   0.815  0.1659 -0.2147 -0.2016
  411SOL    HW1 1232   0.188   1.475   0.873  2.1390  3.0504  1.5358
  411SOL    HW2 1233   0.261   1.341   0.805 -0.4099  2.1832  0.0055
  412SOL     OW 1234   1.686   2.715   0.482  0.0491 -0.0371  0.4100
  412SOL    HW1 1235   1.618   2.789   0.502 -1.8111  1.0840 -1.8988
  412SOL    HW2 1236   1.646   2.668   0.399 -1.3633 -2.3331  1.1606
  413SOL     OW 1237   2.021   0.675   2.068 -0.2979  0.6892  0.2469
  413SOL    HW1 1238   1.943   0.695   2.001 -0.7799  1.6764 -1.0786
  413SOL    HW2 1239   2.006   0.573   2.091 -2.5060 -2.2751  0.2798
  414SOL     OW 1240   2.948   0.428   0.548  0.0430 -0.3853 -0.0129
  414SOL    HW1 1241   2.867   0.478   0.519  0.8837 -1.7905  1.1376
  414SOL    HW2 1242   2.937   0.393   0.643  1.0746  1.3178  0.0100
  415SOL     OW 1243   0.806   1.686   1.654  0.2777  0.4956 -0.2835
  415SOL    HW1 1244   0.859   1.765   1.692 -0.2893 -0.6314  0.7282
  415SOL    HW2 1245   0.708   1.701   1.645  2.1548 -1.1094 -0.5842
  416SOL     OW 1246   0.536   2.994   2.790 -0.2310  0.0784  0.0134
  416SOL    HW1 1247   0.581   3.078   2.756  0.9046 -0.4285  0.6989
  416SOL    HW2 1248   0.460   2.965   2.724 -2.6992 -1.7032 -3.2646
  417SOL     OW 1249   2.605   2.905   1.073 -0.0036 -0.7181  0.2105
  417SOL    HW1 1250   2.589   2.810   1.109  0.1391 -0.1832 -0.3089
  417SOL    HW2 1251   2.701   2.925   1.094 -0.0640 -1.0923 -0.6395
  418SOL     OW 1252   0.448   0.512   2.587  0.0610 -0.5173 -0.1556
  418SOL    HW1 1253   0.378   0.474   2.655 -2.4477 -3.6210  0.4792
  418SOL    HW2 1254   0.495   0.432   2.540 -0.8367  1.4303 -1.2648
  419SOL     OW 1255   2.990   1.408   1.402  0.5009 -0.0008 -0.1060
  419SOL    HW1 1256   2.931   1.490   1.424  0.7618  0.0049  2.4533
  419SOL    HW2 1257   2.996   1.385   1.303 -0.3305 -0.4153  2.2598
  420SOL     OW 1258   0.707   1.839   0.943 -0.2271 -0.2706 -0.3114
  420SOL    HW1 1259   0.755   1.803   1.025  0.6388 -1.2357 -1.0474
  420SOL    HW2 1260   0.666   1.754   0.902 -1.6911 -0.5888  0.3946
  421SOL     OW 1261   1.944   2.239   2.327 -0.1739  0.3607  0.5032
  421SOL    HW1 1262   1.857   2.285   2.354  1.2603 -1.8380  3.1075
  421SOL    HW2 1263   2.025   2.276   2.376  2.9509  0.4938  0.9290
  422SOL     OW 1264   3.090   0.430   2.629 -0.1359 -0.0176 -0.7479
  422SOL    HW1 1265   3.058   0.343   2.584 -1.8137  0.8947 -0.8707
  422SOL    HW2 1266   3.017   0.463   2.691  3.7980 -0.9278  3.1349
  423SOL     OW 1267   1.382   2.060   1.043  0.3345  0.0456  0.1302
  423SOL    HW1 1268   1.305   2.042   0.971  1.2393  1.4543  0.6667
  423SOL    HW2 1269   1.343   2.050   1.134 -0.3520  2.1276  2.8873
  424SOL     OW 1270   0.538   1.583   1.532 -0.6181 -0.1700 -0.5108
  424SOL    HW1 1271   0.497   1.676   1.533  1.4397 -0.0639 -1.4933
  424SOL    HW2 1272   0.469   1.516   1.496 -2.6998  0.8380  1.6878
  425SOL     OW 1273   3.068   2.718   2.081 -0.4449  0.0377 -0.6815
  425SOL    HW1 1274   3.081   2.618   2.070 -1.6800  0.9064  1.8889
  425SOL    HW2 1275   3.044   2.764   1.987  1.0865  2.2543 -3.2055
  426SOL     OW 1276   1.635   0.314   0.675  0.0538  0.0720  0.5141
  426SOL    HW1 1277   1.647   0.328   0.574  1.0981 -3.9169 -0.4260
  426SOL    HW2 1278   1.714   0.361   0.720 -0.1743  3.2714 -0.9094
  427SOL     OW 1279   1.195   0.534   3.017  0.3900  0.2081 -0.2533
  427SOL    HW1 1280   1.142   0.471   3.076 -2.7641 -1.2397 -3.0009
  427SOL    HW2 1281   1.136   0.568   2.941  3.5956  0.4977  1.0774
  428SOL     OW 1282   1.604   1.256   0.156  0.6469  0.5664  0.7396
  428SOL    HW1 1283   1.568   1.337   0.200  2.2810 -0.0580  1.2288
  428SOL    HW2 1284   1.585   1.264   0.055  0.9819  0.4688 -0.3173
  429SOL     OW 1285   2.964   2.643   0.520 -0.4984 -0.2330 -0.4749
  429SOL    HW1 1286   3.052   2.622   0.558 -2.5488  2.4524 -2.4136
  429SOL    HW2 1287   2.973   2.708   0.443 -0.3267 -1.8988 -1.6644
  430SOL     OW 1288   0.510   3.042   2.176 -0.5272  0.4011  0.4425
  430SOL    HW1 1289   0.506   3.015   2.274  0.9251 -0.0046 -0.0541
  430SOL    HW2 1290   0.552   2.971   2.110 -2.2777  1.1218 -0.6048
  431SOL     OW 1291   2.371   0.929   1.295  0.2962  0.1108 -0.0930
  431SOL    HW1 1292   2.379   0.840   1.349 -2.6501 -0.9647  1.2993
  431SOL    HW2 1293   2.329   0.995   1.358 -0.4088  0.3084 -2.0909
  432SOL     OW 1294   2.042   2.575   1.967  0.0358  0.4585 -0.2335
  432SOL    HW1 1295   2.094   2.563   2.054  3.6344 -0.0533  0.3567
  432SOL    HW2 1296   2.080   2.513   1.897  0.8862  0.4111 -1.7822
  433SOL     OW 1297   1.432   2.365   0.680  0.8879  0.0426  0.2730
  433SOL    HW1 1298   1.463   2.282   0.725 -1.4657  1.1503 -4.5476
  433SOL    HW2 1299   1.443   2.446   0.742 -1.5602  0.6205 -2.3328
  434SOL     OW 1300   0.214   1.985   1.987 -0.4910 -0.0148  0.4976
  434SOL    HW1 1301   0.264   1.899   2.018 -1.6919 -0.6188  0.0665
  434SOL    HW2 1302   0.123   1.961   1.955  2.0319 -1.1187  1.0238
  435SOL     OW 1303   0.255   0.900   0.261  0.0222 -0.4506 -0.3613
  435SOL    HW1 1304   0.201   0.815   0.265 -1.8779  1.6457 -0.8442
  435SOL    HW2 1305   0.354   0.881   0.287  1.9323 -2.0639  0.7779
  436SOL     OW 1306   0.313   2.594   1.805 -0.0548  0.0932  0.0011
  436SOL    HW1 1307   0.344   2.630   1.895  2.6225  3.5233 -0.2557
  436SOL    HW2 1308   0.381   2.635   1.740  1.7863 -0.6377  1.7701
  437SOL     OW 1309   1.473   2.544   1.576 -0.2698  0.4411 -0.0273
  437SOL    HW1 1310   1.514   2.542   1.483 -0.6831  0.8598  2.3093
  437SOL    HW2 1311   1.545   2.525   1.650 -1.1224  0.3933  0.8801
  438SOL     OW 1312   0.170   1.829   0.281 -0.1314  0.1011  0.1915
  438SOL    HW1 1313   0.224   1.883   0.350  2.2770  3.1949 -2.3103
  438SOL    HW2 1314   0.120   1.899   0.224 -1.8521  1.0472  1.3613
  439SOL     OW 1315   0.176   0.498   0.830  0.3554  0.0411  0.4845
  439SOL    HW1 1316   0.256   0.507   0.895 -0.8345  1.2747  2.6671
  439SOL    HW2 1317   0.125   0.409   0.835 -2.5659 -0.7148  2.3663
  440SOL     OW 1318   0.111   2.821   2.406 -0.1008 -0.3522 -0.4452
  440SOL    HW1 1319   0.077   2.804   2.500 -0.5111  2.8909 -0.2979
  440SOL    HW2 1320   0.146   2.733   2.361  0.4973 -3.2914 -0.5171
  441SOL     OW 1321   2.908   0.289   0.794  0.3737  0.1584 -0.2113
  441SOL    HW1 1322   2.980   0.215   0.792  3.1338 -1.8647 -0.3280
  441SOL    HW2 1323   2.817   0.241   0.792  2.0535  0.4690 -2.0620
  442SOL     OW 1324   1.253   2.246   2.470 -0.1800  0.2046 -0.4832
  442SOL    HW1 1325   1.197   2.253   2.554 -1.2033 -0.1489 -1.0512
  442SOL    HW2 1326   1.331   2.181   2.482  2.0030 -0.9338 -0.5362
  443SOL     OW 1327   0.719   0.916   0.135 -0.1807  0.1564  0.9634
  443SOL    HW1 1328   0.726   0.821   0.170  1.6420  2.4444  1.4406
  443SOL    HW2 1329   0.818   0.935   0.108  2.6437  1.0264  0.4399
  444SOL     OW 1330   1.758   1.395   2.622  0.5704  0.1983 -0.9511
  444SOL    HW1 1331   1.671   1.443   2.651 -0.7707  0.2995 -0.3723
  444SOL    HW2 1332   1.803   1.361   2.703  0.1056  1.5854 -1.3611
  445SOL     OW 1333   3.036   2.972   0.851  0.1917  0.9663  0.0132
  445SOL    HW1 1334   0.012   2.939   0.780  0.1185 -0.4076 -0.1624
  445SOL    HW2 1335   2.941   2.973   0.809 -3.0528 -0.1835 -0.2021
  446SOL     OW 1336   2.177   0.402   0.957  0.0074 -0.7925 -0.4604
  446SOL    HW1 1337   2.154   0.387   0.864  1.6754  1.8757  0.6627
  446SOL    HW2 1338   2.091   0.422   1.014 -1.8777  0.2493 -0.3609
  447SOL     OW 1339   0.196   0.661   2.986 -0.1300  0.1076 -0.6695
  447SOL    HW1 1340   0.171   0.565   3.014  0.7495 -1.3174 -0.5016
  447SOL    HW2 1341   0.144   0.731   3.037  2.6566 -1.7886  2.3313
  448SOL     OW 1342   1.458   2.042   1.615 -0.6412 -0.8290  0.2701
  448SOL    HW1 1343   1.545   2.035   1.568 -2.5986 -0.8616  0.8271
  448SOL    HW2 1344   1.422   1.952   1.655 -1.0097 -1.7620  0.0938
  449SOL     OW 1345   0.907   1.437   1.002  0.4130  0.6939 -0.1560
  449SOL    HW1 1346   0.989   1.414   1.056 -0.4135 -0.6722 -1.9561
  449SOL    HW2 1347   0.889   1.363   0.928 -1.5090 -1.8419 -1.2223
  450SOL     OW 1348   2.769   2.423   2.217  0.1571  0.4262 -0.5596
  450SOL    HW1 1349   2.674   2.402   2.183  1.2293 -0.2722 -2.8396
  450SOL    HW2 1350   2.781   2.379   2.311 -2.1244 -1.8421  1.2846
  451SOL     OW 1351   2.592   1.048   2.774  0.3656 -0.2739  0.0257
  451SOL    HW1 1352   2.636   1.061   2.865  1.4721 -0.5588  0.1289
  451SOL    HW2 1353   2.539   1.132   2.760  0.3538 -3.4335  0.8075
  452SOL     OW 1354   1.950   0.859   1.229  0.0355  1.0017 -0.1178
  452SOL    HW1 1355   1.936   0.956   1.262 -1.0254  0.9965 -1.0037
  452SOL    HW2 1356   2.025   0.817   1.276 -0.1084 -1.1814 -0.5411
  453SOL     OW 1357   2.121   0.873   1.543  0.0152 -0.0062  0.2899
  453SOL    HW1 1358   2.200   0.903   1.594  1.5260  0.0644 -0.9082
  453SOL    HW2 1359   2.151   0.786   1.490  2.7332 -2.8891 -1.1185
  454SOL     OW 1360   0.011   1.018   0.235 -0.3457  0.1997  0.7967
  454SOL    HW1 1361   0.107   0.982   0.232  2.0696 -0.3603 -0.4488
  454SOL    HW2 1362   3.041   0.944   0.265  3.3388 -0.1836 -0.3051
  455SOL     OW 1363   2.453   1.322   1.143 -0.0148  0.2223  0.0958
  455SOL    HW1 1364   2.524   1.273   1.086 -2.4394  2.1927  2.0902
  455SOL    HW2 1365   2.387   1.372   1.085 -1.5727 -1.0835  0.5688
  456SOL     OW 1366   0.939   0.444   1.520 -0.1488  0.5306  0.4614
  456SOL    HW1 1367   0.904   0.433   1.613  2.9185  0.7465 -4.0988
  456SOL    HW2 1368   1.040   0.425   1.520  1.4786 -0.6767 -0.2576
  457SOL     OW 1369   1.806   2.839   1.010 -0.0556 -0.1013 -0.7560
  457SOL    HW1 1370   1.902   2.831   1.042 -2.5595  2.6359 -0.8484
  457SOL    HW2 1371   1.786   2.931   0.971 -1.7951  1.5854 -0.5121
  458SOL     OW 1372   2.699   0.262   0.216  0.0259 -0.3035 -0.2865
  458SOL    HW1 1373   2.644   0.331   0.158 -1.4140 -1.0711 -2.4255
  458SOL    HW2 1374   2.663   0.264   0.312  1.2829 -0.8879  1.5710
  459SOL     OW 1375   1.644   0.663   0.209  0.8332  0.5454  0.4870
  459SOL    HW1 1376   1.602   0.746   0.255  1.3986 -0.5239 -0.3046
  459SOL    HW2 1377   1.585   0.584   0.228 -0.4318 -0.2459  1.6970
  460SOL     OW 1378   0.027   2.748   2.649 -0.2407 -0.1575 -0.0864
  460SOL    HW1 1379   3.040   2.776   2.703  3.1875  1.8252  0.4207
  460SOL    HW2 1380   0.107   2.718   2.708  1.7158 -0.5121 -0.1914
  461SOL     OW 1381   0.572   1.837   0.121  0.0630  0.2843  0.0490
  461SOL    HW1 1382   0.602   1.768   0.190  1.9531  0.7169  0.1868
  461SOL    HW2 1383   0.495   1.805   0.064  0.2154  3.3738  0.6252
  462SOL     OW 1384   2.070   2.254   0.595 -0.1179  0.1618  0.1523
  462SOL    HW1 1385   2.150   2.197   0.561  0.3587 -3.1834 -1.2912
  462SOL    HW2 1386   2.094   2.353   0.607 -2.0029  2.2150 -0.8511
  463SOL     OW 1387   3.009   0.688   0.542  0.0530 -0.2856  0.0106
  463SOL    HW1 1388   3.008   0.710   0.640  0.1000 -3.7595 -2.6662
  463SOL    HW2 1389   3.007   0.584   0.533 -0.3617 -0.1353  0.7255
  464SOL     OW 1390   0.616   2.488   0.334  0.8468 -0.2583 -0.5280
  464SOL    HW1 1391   0.578   2.578   0.368  0.6937  0.5578 -0.0571
  464SOL    HW2 1392   0.675   2.434   0.401 -0.7978 -0.8396 -0.2909
  465SOL     OW 1393   2.388   0.406   0.584 -0.5750 -0.5821  0.4548
  465SOL    HW1 1394   2.374   0.481   0.651 -2.8235 -0.2265 -0.0325
  465SOL    HW2 1395   2.300   0.409   0.530  2.3644  2.3613  0.5365
  466SOL     OW 1396   2.063   0.169   0.343  0.5244 -0.2635 -0.3745
  466SOL    HW1 1397   1.995   0.244   0.334  0.4197 -1.8570 -1.9111
  466SOL    HW2 1398   2.033   0.095   0.279  1.3128  2.4012 -2.7924
  467SOL     OW 1399   1.349   0.293   2.032 -0.0107  0.2765 -0.4469
  467SOL    HW1 1400   1.322   0.287   2.132 -1.1387 -2.8083 -0.0812
  467SOL    HW2 1401   1.426   0.356   2.002  2.3175 -0.5612 -0.2502
  468SOL     OW 1402   3.044   0.908   2.246  0.6949  0.1796  0.4208
  468SOL    HW1 1403   0.049   0.916   2.219  0.5304 -2.4755 -0.3078
  468SOL    HW2 1404   3.033   0.898   2.346 -2.3516 -3.2875  0.1940
  469SOL     OW 1405   0.844   2.401   2.397  0.9748 -0.1580 -0.3206
  469SOL    HW1 1406   0.844   2.391   2.500  0.3332 -1.6011  0.8544
  469SOL    HW2 1407   0.862   2.310   2.352  0.0632  0.4570  2.3936
  470SOL     OW 1408   2.061   1.252   1.919 -0.4251 -0.0772 -0.1402
  470SOL    HW1 1409   2.141   1.277   1.858  0.1096 -1.0487 -2.2832
  470SOL    HW2 1410   2.081   1.191   1.999 -0.8595 -0.8504  0.5156
  471SOL     OW 1411   2.906   1.185   0.127  0.0749 -0.2097  0.0994
  471SOL    HW1 1412   2.957   1.251   0.066 -1.3777 -0.9302  0.1496
  471SOL    HW2 1413   2.969   1.119   0.175 -0.5554  2.2072  0.5378
  472SOL     OW 1414   0.278   2.812   0.277 -1.0583 -0.1861 -0.0329
  472SOL    HW1 1415   0.247   2.721   0.307 -0.9301  2.5709 -1.3935
  472SOL    HW2 1416   0.377   2.829   0.304  3.4689  0.3143  1.4190
  473SOL     OW 1417   0.983   2.613   2.321  0.3057  0.0092 -0.1554
  473SOL    HW1 1418   0.915   2.535   2.325  3.2248 -1.2155 -1.0626
  473SOL    HW2 1419   0.990   2.650   2.417 -3.8882  0.7408  1.9808
  474SOL     OW 1420   1.378   0.153   2.533  0.0759 -0.2835 -0.2107
  474SOL    HW1 1421   1.360   0.052   2.520 -0.7571 -2.5987  0.3893
  474SOL    HW2 1422   1.467   0.166   2.587  0.7903  1.8075  0.9847
  475SOL     OW 1423   0.935   2.477   0.284 -0.2349  0.8923 -0.1979
  475SOL    HW1 1424   0.957   2.578   0.298 -0.3613 -4.4474 -1.0794
  475SOL    HW2 1425   0.870   2.445   0.354 -0.5986  0.3266  0.2592
  476SOL     OW 1426   0.684   0.462   1.018 -0.0587  0.3192 -0.7837
  476SOL    HW1 1427   0.737   0.540   1.053  0.3148 -4.9979  0.6922
  476SOL    HW2 1428   0.726   0.395   0.950  0.3947 -0.8664 -2.1122
  477SOL     OW 1429   1.832   1.970   1.192  0.8146  0.3370 -0.6387
  477SOL    HW1 1430   1.824   2.048   1.128 -0.7528 -0.8810  1.9687
  477SOL    HW2 1431   1.930   1.963   1.221 -0.8973  0.9394 -0.0430
  478SOL     OW 1432   0.037   0.896   2.784  0.3537 -0.2008  0.2117
  478SOL    HW1 1433   0.121   0.852   2.749 -0.8579 -1.1862 -0.1922
  478SOL    HW2 1434   0.022   0.894   2.886  0.6590  1.8750  1.2286
  479SOL     OW 1435   0.891   3.084   0.905 -0.3613 -0.2206 -0.0993
  479SOL    HW1 1436   0.835   3.000   0.904  2.2841 -1.8315  0.7802
  479SOL    HW2 1437   0.991   3.067   0.900  0.2909  0.3543  1.1039
  480SOL     OW 1438   2.534   2.605   0.213 -0.8653 -0.3691  0.9405
  480SOL    HW1 1439   2.602   2.685   0.190  0.9240  2.0063 -3.9161
  480SOL    HW2 1440   2.581   2.521   0.178  2.1999  1.1378 -2.9553
  481SOL     OW 1441   2.957   0.690   1.190 -0.0392  0.0180  0.2087
  481SOL    HW1 1442   2.889   0.746   1.244  1.4375  1.0206  2.5792
  481SOL    HW2 1443   2.979   0.613   1.253 -2.0469 -0.2642 -1.0575
  482SOL     OW 1444   1.184   2.573   1.378 -0.2876  0.5213 -0.3537
  482SOL    HW1 1445   1.190   2.492   1.315  2.1672  0.9021 -1.1574
  482SOL    HW2 1446   1.226   2.549   1.467 -1.0978  1.1434  0.3837
  483SOL     OW 1447   0.406   1.466   2.982  0.0340  0.5020  0.0613
  483SOL    HW1 1448   0.493   1.416   2.984 -0.9889 -0.8827  0.5740
  483SOL    HW2 1449   0.329   1.410   2.941 -4.0994 -1.5577 -0.1380
  484SOL     OW 1450   1.385   1.462   2.402 -0.1513  0.3581  0.3011
  484SOL    HW1 1451   1.322   1.382   2.427 -2.2801 -0.2331  0.6752
  484SOL    HW2 1452   1.456   1.431   2.335  2.1005 -3.0782 -0.5758
  485SOL     OW 1453   0.219   0.295   2.433 -0.0025 -0.0846  0.2323
  485SOL    HW1 1454   0.256   0.384   2.469 -2.0970  0.8158  0.7997
  485SOL    HW2 1455   0.281   0.246   2.372  0.3966  1.5464 -1.4699
  486SOL     OW 1456   1.328   2.830   0.681 -0.3087 -0.3057  0.0497
  486SOL    HW1 1457   1.337   2.904   0.756 -1.6198 -0.1680  1.1089
  486SOL    HW2 1458   1.378   2.866   0.598 -1.1754 -1.3525  1.0657
  487SOL     OW 1459   1.530   2.977   1.047 -0.1236 -0.6553  0.5065
  487SOL    HW1 1460   1.508   3.012   1.140  0.2178  1.7753  1.2082
  487SOL    HW2 1461   1.626   2.999   1.016 -1.9662 -0.1329 -0.2943
  488SOL     OW 1462   2.270   0.804   0.838 -0.0772  0.4627  0.6103
  488SOL    HW1 1463   2.288   0.869   0.913 -1.1352  0.8611 -0.1326
  488SOL    HW2 1464   2.202   0.844   0.776  0.7876  1.6874  2.4638
  489SOL     OW 1465   1.153   0.000   1.327  0.2029  1.0288 -0.2063
  489SOL    HW1 1466   1.163   2.990   1.336  1.3784 -0.7688  1.1779
  489SOL    HW2 1467   1.078   0.022   1.262 -0.7820  0.1887  2.6610
  490SOL     OW 1468   0.815   0.731   0.491 -0.8485 -0.1113 -0.3990
  490SOL    HW1 1469   0.766   0.821   0.505  0.2751 -1.8271  0.1994
  490SOL    HW2 1470   0.907   0.724   0.534 -0.6520  0.7831  0.4735
  491SOL     OW 1471   1.033   2.750   0.300  0.3722 -0.3524  0.1467
  491SOL    HW1 1472   1.101   2.738   0.378 -0.8548  0.0586  1.2292
  491SOL    HW2 1473   1.083   2.766   0.212 -0.0732 -1.1929  2.1548
  492SOL     OW 1474   0.979   1.377   2.272 -0.3812 -0.1017  0.1646
  492SOL    HW1 1475   1.063   1.436   2.250  1.5455 -0.0421  0.1642
  492SOL    HW2 1476   0.946   1.313   2.198 -2.0899  1.5392  2.6059
  493SOL     OW 1477   3.046   1.930   0.136  0.2170 -0.1050 -0.1540
  493SOL    HW1 1478   0.009   1.986   0.077 -2.4093 -1.6703  1.7472
  493SOL    HW2 1479   2.944   1.950   0.124 -2.7997  0.5024 -2.8001
  494SOL     OW 1480   1.866   1.406   0.412  0.4056 -0.0757  0.5649
  494SOL    HW1 1481   1.775   1.442   0.438  0.1003  1.0836  1.9155
  494SOL    HW2 1482   1.857   1.305   0.391 -0.9457  0.4518 -1.7688
  495SOL     OW 1483   0.541   1.216   2.381  0.0261  0.2750  0.1362
  495SOL    HW1 1484   0.521   1.132   2.320  1.5708  0.7811 -0.4644
  495SOL    HW2 1485   0.456   1.237   2.435 -0.7553  1.5798  1.3637
  496SOL     OW 1486   0.160   0.114   2.117  0.5604  0.2057  0.2705
  496SOL    HW1 1487   0.176   0.054   2.198  0.4721  0.6977  2.1310
  496SOL    HW2 1488   0.158   0.066   2.032  0.3060  0.8591  2.5952
  497SOL     OW 1489   2.096   0.890   0.655 -0.4283  0.3019  0.3719
  497SOL    HW1 1490   2.149   0.862   0.572 -1.0219  1.9986  0.1003
  497SOL    HW2 1491   2.004   0.842   0.654 -2.2769 -1.6452 -1.4644
  498SOL     OW 1492   2.796   2.570   2.883 -0.3577  0.1896  0.6511
  498SOL    HW1 1493   2.712   2.599   2.929  3.0303  0.5405 -0.0338
  498SOL    HW2 1494   2.834   2.651   2.839 -1.4569 -0.1108  0.2529
  499SOL     OW 1495   1.836   2.589   0.645 -0.9463 -0.0025  0.2363
  499SOL    HW1 1496   1.773   2.655   0.594  0.1164  0.0755 -1.7444
  499SOL    HW2 1497   1.835   2.503   0.590 -0.5906  0.4638 -1.4514
  500SOL     OW 1498   1.365   0.608   2.499  0.2694 -0.1687  0.1815
  500SOL    HW1 1499   1.372   0.521   2.545 -1.8119  3.2801  1.5710
  500SOL    HW2 1500   1.386   0.683   2.566  1.0199  0.1519  1.8334
  501SOL     OW 1501   1.276   0.163   1.480 -0.4801  0.2806 -0.3683
  501SOL    HW1 1502   1.349   0.107   1.528  0.6190 -1.5754  0.0915
  501SOL    HW2 1503   1.233   0.098   1.417  2.9257  2.1029 -0.1908
  502SOL     OW 1504   0.099   3.050   1.852  0.1547  0.4496  0.4641
  502SOL    HW1 1505   0.195   3.019   1.855 -0.5644  1.0717 -0.1772
  502SOL    HW2 1506   0.096   0.023   1.775  2.0808  2.1138  2.3770
  503SOL     OW 1507   1.568   2.389   2.157 -0.2005  0.2425 -0.4287
  503SOL    HW1 1508   1.666   2.412   2.161 -2.8124  0.7712  0.9355
  503SOL    HW2 1509   1.552   2.303   2.207 -1.3704  0.7278  1.0659
  504SOL     OW 1510   2.114   0.234   1.796 -0.5036 -0.3268 -0.2032
  504SOL    HW1 1511   2.108   0.231   1.690  0.4335  0.5614 -3.7031
  504SOL    HW2 1512   2.023   0.210   1.844 -2.4492  1.7661  1.1217
  505SOL     OW 1513   2.569   1.511   1.397 -0.5209  0.9323 -0.6215
  505SOL    HW1 1514   2.531   1.419   1.406 -1.6363  0.5668 -2.0485
  505SOL    HW2 1515   2.502   1.572   1.439  2.8559 -1.2358 -0.9582
  506SOL     OW 1516   0.210   1.495   1.966  0.6549 -0.0500 -0.2006
  506SOL    HW1 1517   0.197   1.402   2.016 -0.8816 -0.8392  2.1426
  506SOL    HW2 1518   0.189   1.495   1.866 -2.5109 -1.1759 -0.2319
  507SOL     OW 1519   0.147   2.901   1.163  0.6270 -0.1626  0.3353
  507SOL    HW1 1520   0.163   3.002   1.162  0.2768  2.6798  0.6960
  507SOL    HW2 1521   0.135   2.878   1.262  0.9723 -0.2710  0.1958
  508SOL     OW 1522   1.475   0.732   1.540 -0.1477  0.1515 -0.2422
  508SOL    HW1 1523   1.407   0.712   1.460 -1.9066 -0.3407 -0.8969
  508SOL    HW2 1524   1.426   0.733   1.629  2.0013 -1.1801  0.2305
  509SOL     OW 1525   1.319   2.260   1.674 -0.1994 -0.3896  0.0718
  509SOL    HW1 1526   1.370   2.352   1.689  2.9540  1.7319  0.7185
  509SOL    HW2 1527   1.387   2.188   1.650 -0.4915 -1.5501  1.2914
  510SOL     OW 1528   2.442   1.444   0.038 -0.2284  0.2897 -0.3906
  510SOL    HW1 1529   2.530   1.414   0.078  0.2755 -1.1474  2.4535
  510SOL    HW2 1530   2.370   1.374   0.042 -1.8264 -1.6957 -1.7223
  511SOL     OW 1531   0.376   1.403   1.448 -0.5098 -0.1697  0.0414
  511SOL    HW1 1532   0.446   1.363   1.389  1.8685 -0.6135  3.0843
  511SOL    HW2 1533   0.291   1.348   1.438  0.0783 -1.2404  1.5330
  512SOL     OW 1534   2.687   2.374   0.178  0.0837  0.1265  0.2172
  512SOL    HW1 1535   2.772   2.319   0.157 -0.9431  0.1727  1.6610
  512SOL    HW2 1536   2.656   2.357   0.274  0.1676 -0.1576 -2.3074
  513SOL     OW 1537   0.732   1.690   2.629 -0.3800 -0.3497 -0.1834
  513SOL    HW1 1538   0.773   1.671   2.722 -0.6001 -2.7490  3.5683
  513SOL    HW2 1539   0.804   1.721   2.563 -0.6315 -0.5409  4.6960
  514SOL     OW 1540   0.059   2.401   2.268 -0.5716 -0.4511 -0.1774
  514SOL    HW1 1541   0.077   2.304   2.280  2.3627 -0.1286  0.4255
  514SOL    HW2 1542   0.016   2.440   2.355  0.1999 -0.9488 -0.9051
  515SOL     OW 1543   1.901   1.315   1.699  0.0824 -0.0450 -0.4502
  515SOL    HW1 1544   1.968   1.295   1.777  2.1811  0.2893  1.3489
  515SOL    HW2 1545   1.949   1.311   1.609  0.3053  1.6711 -2.1204
  516SOL     OW 1546   1.752   2.477   0.083 -0.1719 -0.4634  0.3681
  516SOL    HW1 1547   1.767   2.525   3.087  0.5363 -2.1604 -1.4964
  516SOL    HW2 1548   1.779   2.380   0.074 -1.6814  1.9776 -2.1745
  517SOL     OW 1549   0.825   1.700   0.524  0.4888  0.5850  0.5933
  517SOL    HW1 1550   0.874   1.768   0.464  1.1828 -1.1152  1.4143
  517SOL    HW2 1551   0.894   1.636   0.567  0.7121 -1.7075 -0.6009
  518SOL     OW 1552   1.947   2.472   1.607 -0.3111 -0.1293  0.3320
  518SOL    HW1 1553   1.942   2.572   1.593 -0.6265  1.7906  0.7232
  518SOL    HW2 1554   1.876   2.432   1.667 -3.1182  2.7529 -0.0529
  519SOL     OW 1555   2.187   2.364   0.965  0.4862 -0.2843 -0.1503
  519SOL    HW1 1556   2.160   2.415   1.048  0.2442 -1.6453 -2.9221
  519SOL    HW2 1557   2.156   2.415   0.877 -0.1829  1.6908  1.0165
  520SOL     OW 1558   2.741   2.283   2.446 -0.5015 -0.1994 -0.3406
  520SOL    HW1 1559   2.642   2.256   2.443 -1.1961 -0.4872  0.1064
  520SOL    HW2 1560   2.806   2.201   2.455  1.0941 -0.0091 -1.6772
  521SOL     OW 1561   2.719   1.215   2.335 -0.2858 -0.2791  1.0958
  521SOL    HW1 1562   2.793   1.223   2.271 -1.0756  0.4495  0.2471
  521SOL    HW2 1563   2.661   1.299   2.330  1.3147 -1.6914  1.0631
  522SOL     OW 1564   0.964   0.561   2.215 -0.1186  0.1493  0.5972
  522SOL    HW1 1565   1.024   0.642   2.204 -1.3817 -1.3570 -0.1354
  522SOL    HW2 1566   0.990   0.485   2.155 -2.0766 -0.2719  1.3529
  523SOL     OW 1567   0.191   2.003   1.029 -0.5462  0.5837 -0.0230
  523SOL    HW1 1568   0.204   1.935   0.956 -0.4615  0.6992 -0.2188
  523SOL    HW2 1569   0.129   2.079   0.996 -1.4449  2.7695  0.1191
  524SOL     OW 1570   1.971   2.825   0.199 -0.3603  0.2922  0.9501
  524SOL    HW1 1571   1.961   2.765   0.277 -1.5379 -1.6679  0.5828
  524SOL    HW2 1572   2.033   2.778   0.132  0.5149 -2.3643 -2.1994
  525SOL     OW 1573   2.130   0.646   1.321 -0.4184 -0.7170 -0.0104
  525SOL    HW1 1574   2.043   0.591   1.326 -0.7898  2.0456 -0.9438
  525SOL    HW2 1575   2.206   0.592   1.277  0.3923 -1.8016 -0.4503
  526SOL     OW 1576   1.027   2.516   0.719  0.2982  0.2273  0.3677
  526SOL    HW1 1577   1.078   2.546   0.802  1.0804 -2.8933  0.1494
  526SOL    HW2 1578   0.959   2.452   0.757  2.1357  1.7508 -0.7813
  527SOL     OW 1579   2.368   2.870   0.591  0.2529  0.0060  0.5540
  527SOL    HW1 1580   2.454   2.902   0.637  2.3673  0.8076 -1.7418
  527SOL    HW2 1581   2.390   2.815   0.508 -0.0260  2.3986  1.6491
  528SOL     OW 1582   1.652   0.606   0.541 -0.8207  0.4725  0.2169
  528SOL    HW1 1583   1.563   0.644   0.526 -0.3606 -0.0322 -0.0029
  528SOL    HW2 1584   1.669   0.520   0.481 -1.1397 -0.3349 -2.8459
  529SOL     OW 1585   1.545   1.555   2.723  0.4063 -0.5557  0.3315
  529SOL    HW1 1586   1.452   1.542   2.765 -0.2895  1.2138  1.5267
  529SOL    HW2 1587   1.543   1.639   2.663 -0.8450 -1.2897  0.6453
  530SOL     OW 1588   2.318   0.333   0.003  0.2787  0.3413 -0.0986
  530SOL    HW1 1589   2.258   0.394   0.059 -0.4294  1.0320  0.0974
  530SOL    HW2 1590   2.273   0.253   3.064  0.5778  0.7251 -0.4258
  531SOL     OW 1591   1.609   0.764   2.819  0.5689  0.2487 -0.3898
  531SOL    HW1 1592   1.681   0.828   2.777  1.0490 -2.2491  0.8151
  531SOL    HW2 1593   1.624   0.667   2.784  0.5294 -2.2595  0.8986
  532SOL     OW 1594   1.621   0.655   1.070  0.7676  0.1080  0.5450
  532SOL    HW1 1595   1.540   0.711   1.047  1.1582  3.5347 -1.3570
  532SOL    HW2 1596   1.710   0.703   1.082 -2.1889  0.1620  0.0978
  533SOL     OW 1597   0.472   1.017   2.643 -0.0759 -0.0792 -0.0615
  533SOL    HW1 1598   0.528   0.939   2.602  1.0535  1.0042 -0.5266
  533SOL    HW2 1599   0.541   1.088   2.669  1.9727 -0.9636 -0.1572
  534SOL     OW 1600   1.585   0.154   2.690 -0.2487 -0.6769  0.1243
  534SOL    HW1 1601   1.666   0.135   2.633 -1.8142 -0.5723  2.0387
  534SOL    HW2 1602   1.564   0.076   2.751 -0.6785  1.6649 -0.0786
  535SOL     OW 1603   0.298   2.953   2.646  0.4686  0.3612 -0.1981
  535SOL    HW1 1604   0.277   2.881   2.715  0.2118  0.1190 -0.7758
  535SOL    HW2 1605   0.241   3.034   2.665 -1.0022 -0.9026  0.5818
  536SOL     OW 1606   0.380   0.327   0.480  1.1005 -0.1580 -0.3333
  536SOL    HW1 1607   0.429   0.326   0.393  0.5528  0.4774  1.4163
  536SOL    HW2 1608   0.455   0.337   0.554  0.6794 -0.0885 -0.6760
  537SOL     OW 1609   1.478   0.397   0.191 -0.3713 -0.0110  0.1921
  537SOL    HW1 1610   1.509   0.377   0.095  0.4889  0.2253  0.0006
  537SOL    HW2 1611   1.406   0.337   0.224  1.3374  1.8170 -2.1155
  538SOL     OW 1612   2.693   1.982   2.721  0.0686  0.6097 -0.0249
  538SOL    HW1 1613   2.759   1.937   2.787  1.3041 -1.5647 -0.9898
  538SOL    HW2 1614   2.676   2.078   2.743  0.3995 -2.8544 -0.5222
  539SOL     OW 1615   1.937   1.834   0.190  0.1185 -0.4945  0.1015
  539SOL    HW1 1616   1.848   1.864   0.228 -1.5419 -2.0523  1.6596
  539SOL    HW2 1617   1.932   1.803   0.092  0.9176  0.3264 -0.2571
  540SOL     OW 1618   0.393   2.766   1.598  0.1408 -0.0667 -0.4158
  540SOL    HW1 1619   0.460   2.702   1.553 -1.1187 -2.3687  1.0834
  540SOL    HW2 1620   0.315   2.773   1.535 -1.0505  2.0352 -0.9388
  541SOL     OW 1621   2.333   0.207   2.164 -0.3284 -0.4525 -0.4998
  541SOL    HW1 1622   2.429   0.203   2.199  2.5650  0.4113 -0.9355
  541SOL    HW2 1623   2.322   0.259   2.076  0.7948 -0.4537  1.8003
  542SOL     OW 1624   0.246   0.714   2.704  0.9428  0.1430  0.3007
  542SOL    HW1 1625   0.314   0.643   2.672  1.7263 -0.1078  2.7677
  542SOL    HW2 1626   0.205   0.690   2.793 -0.6502 -1.6160 -1.1368
  543SOL     OW 1627   0.386   0.782   1.321 -0.2528 -0.3445  0.1070
  543SOL    HW1 1628   0.398   0.793   1.218 -0.2053  1.1355 -1.5249
  543SOL    HW2 1629   0.284   0.788   1.345  2.7223  0.3265  0.4929
  544SOL     OW 1630   2.577   0.666   1.007  0.4969  0.3840  0.0137
  544SOL    HW1 1631   2.671   0.660   0.966  2.4007 -1.3508  1.1559
  544SOL    HW2 1632   2.496   0.624   0.954 -2.0519 -0.6058 -1.5619
  545SOL     OW 1633   1.684   2.102   0.620  0.1948  0.0300 -0.4225
  545SOL    HW1 1634   1.771   2.053   0.630 -0.2043  0.6940 -0.8063
  545SOL    HW2 1635   1.624   2.100   0.705 -0.5266 -1.9410  0.2091
  546SOL     OW 1636   2.238   2.869   1.530  0.2689 -0.7411  0.1400
  546SOL    HW1 1637   2.300   2.910   1.597 -0.7675  0.8007 -2.8369
  546SOL    HW2 1638   2.170   2.933   1.495  0.3651  1.9373  1.0515
  547SOL     OW 1639   0.483   3.005   2.434  0.0853 -0.1581 -0.1751
  547SOL    HW1 1640   0.413   2.995   2.511 -1.0301 -2.4380  1.2034
  547SOL    HW2 1641   0.563   3.060   2.465  1.5810  2.0855 -0.9792
  548SOL     OW 1642   1.674   1.031   3.010 -0.0447  0.1199 -0.3341
  548SOL    HW1 1643   1.701   1.010   2.913  2.2678  1.9479 -2.1577
  548SOL    HW2 1644   1.753   0.999   3.070  1.9365  1.1967 -0.1495
  549SOL     OW 1645   2.893   0.831   0.336  0.3278 -0.0700  0.0384
  549SOL    HW1 1646   2.939   0.786   0.412 -2.2865 -1.2962  1.8715
  549SOL    HW2 1647   2.796   0.858   0.353 -0.9768  1.8637  0.3062
  550SOL     OW 1648   1.885   1.911   0.621 -0.2274 -0.0567 -0.2905
  550SOL    HW1 1649   1.803   1.878   0.568  1.1117  1.6597 -1.3027
  550SOL    HW2 1650   1.938   1.833   0.661  1.5249  2.1399 -0.4517
  551SOL     OW 1651   1.327   3.016   0.878  0.4435 -0.8892 -0.3596
  551SOL    HW1 1652   1.391   3.016   0.957 -0.3998 -3.5049 -0.8549
  551SOL    HW2 1653   1.238   2.981   0.910  2.0586  1.5734  0.2649
  552SOL     OW 1654   2.859   2.691   2.250  0.7161 -0.1370  0.3027
  552SOL    HW1 1655   2.839   2.593   2.240  1.4375  1.7943  1.2861
  552SOL    HW2 1656   2.949   2.713   2.207  2.1125 -2.4513 -1.1917
  553SOL     OW 1657   0.250   3.020   2.302  0.6908 -0.6176  0.0129
  553SOL    HW1 1658   0.194   2.941   2.333 -0.3419  0.1043  2.4031
  553SOL    HW2 1659   0.341   3.025   2.349  1.4293 -0.2099  1.5917
  554SOL     OW 1660   0.590   0.070   1.217  0.1942 -0.3176  0.1555
  554SOL    HW1 1661   0.626   0.164   1.237  1.5207  0.5685 -1.3750
  554SOL    HW2 1662   0.659   3.092   1.247  1.0969  0.7911 -0.4007
  555SOL     OW 1663   2.522   2.336   2.171 -0.0951  0.4393  0.1060
  555SOL    HW1 1664   2.480   2.290   2.252 -3.7801  0.3311 -0.8426
  555SOL    HW2 1665   2.448   2.328   2.100 -1.2341 -0.0843 -1.3126
  556SOL     OW 1666   1.274   0.182   2.792  0.0115  0.1383  0.3866
  556SOL    HW1 1667   1.185   0.230   2.801 -0.7228  0.4678 -1.2485
  556SOL    HW2 1668   1.281   0.155   2.695  0.2671  0.2388  3.0728
  557SOL     OW 1669   0.437   1.657   2.263 -0.0119 -0.7183 -0.0047
  557SOL    HW1 1670   0.380   1.690   2.345 -2.4989  1.2339  1.5665
  557SOL    HW2 1671   0.515   1.599   2.297  1.2467 -0.8046 -0.5095
  558SOL     OW 1672   2.400   0.896   3.069  0.0737  0.0928  0.2403
  558SOL    HW1 1673   2.391   0.840   2.985 -1.4218 -2.1708  1.1363
  558SOL    HW2 1674   2.453   0.839   0.045  2.4681  0.6796 -0.4181
  559SOL     OW 1675   2.470   1.897   1.627 -0.0190 -0.1415  0.2985
  559SOL    HW1 1676   2.500   1.940   1.538  0.1738  3.7013 -0.4820
  559SOL    HW2 1677   2.448   1.964   1.696  1.7980 -3.8502  2.0421
  560SOL     OW 1678   2.613   1.066   1.963  0.1838  0.5087  0.0946
  560SOL    HW1 1679   2.593   0.991   1.893 -2.5449  0.3506 -2.4575
  560SOL    HW2 1680   2.698   1.048   2.012  0.5824  1.6293 -2.7733
  561SOL     OW 1681   0.040   0.013   2.697 -0.1241  0.5001  0.6736
  561SOL    HW1 1682   0.041   0.016   2.594  0.0526  1.0680 -1.4287
  561SOL    HW2 1683   3.041   0.015   2.737  0.8030 -0.5867  2.1981
  562SOL     OW 1684   0.916   1.308   1.428 -0.0662 -0.1456  0.0330
  562SOL    HW1 1685   0.985   1.230   1.446  2.1686 -1.1944  0.6985
  562SOL    HW2 1686   0.837   1.296   1.487  1.0967  1.1664  0.4361
  563SOL     OW 1687   1.446   0.083   2.978 -0.3208  0.3143  0.4646
  563SOL    HW1 1688   1.498   3.093   2.948  1.2779 -0.5277 -0.7629
  563SOL    HW2 1689   1.382   0.114   2.904 -0.6995  3.2604 -3.5877
  564SOL     OW 1690   0.032   2.249   0.955  0.2345 -0.7705 -0.4563
  564SOL    HW1 1691   0.014   2.261   1.056  0.5871  0.0692 -0.6293
  564SOL    HW2 1692   3.036   2.219   0.907 -1.3878 -2.2904  1.4343
  565SOL     OW 1693   0.671   2.105   1.537  0.0349 -0.0081  0.3256
  565SOL    HW1 1694   0.720   2.197   1.540  0.2523  1.5370  1.7423
  565SOL    HW2 1695   0.610   2.086   1.457 -0.2455 -0.8377  0.8096
  566SOL     OW 1696   1.402   2.556   2.004 -0.0425 -0.2955  0.5872
  566SOL    HW1 1697   1.306   2.547   2.036  2.0235  0.6034  4.9723
  566SOL    HW2 1698   1.466   2.496   2.063  1.8158 -1.1091  0.5957
  567SOL     OW 1699   2.260   2.745   0.841  0.1138 -0.3062 -0.2876
  567SOL    HW1 1700   2.355   2.731   0.878  0.5299  0.2966  1.2233
  567SOL    HW2 1701   2.258   2.804   0.756  0.4264 -1.7869 -2.1075
  568SOL     OW 1702   1.737   1.036   0.588 -0.0650 -0.1903  0.4926
  568SOL    HW1 1703   1.759   0.941   0.563 -0.2111 -0.1715 -1.5518
  568SOL    HW2 1704   1.770   1.104   0.520 -0.5094 -1.0623 -0.3598
  569SOL     OW 1705   0.087   1.652   2.623  0.2152 -0.3458  0.0756
  569SOL    HW1 1706   0.076   1.704   2.712 -0.5300  1.8356  4.3546
  569SOL    HW2 1707   3.086   1.610   2.610 -2.6572  1.7095 -0.6974
  570SOL     OW 1708   2.949   3.082   1.468  0.3364 -0.0400 -0.4882
  570SOL    HW1 1709   2.909   0.040   1.390 -2.1440  0.9870  3.3799
  570SOL    HW2 1710   3.050   0.008   1.483 -0.8228  0.2549 -2.0458
  571SOL     OW 1711   0.162   0.455   1.727 -0.2874 -0.3105 -0.2179
  571SOL    HW1 1712   0.141   0.464   1.827 -0.1634 -0.4075  2.1559
  571SOL    HW2 1713   0.182   0.549   1.694 -1.0653  1.7395  0.2104
  572SOL     OW 1714   3.090   2.566   1.040 -0.7385  0.0725  0.0585
  572SOL    HW1 1715   0.038   2.484   1.001  0.6852 -0.4896  1.1111
  572SOL    HW2 1716   0.007   2.572   1.141  0.2278  2.9539  2.4313
  573SOL     OW 1717   1.023   0.376   0.093 -0.9473 -0.6460  0.6628
  573SOL    HW1 1718   0.986   0.456   0.148 -1.9123  0.4825  0.6319
  573SOL    HW2 1719   0.948   0.306   0.089 -2.0387 -0.1095 -0.5049
  574SOL     OW 1720   2.705   2.799   0.087 -0.2410  0.1814  0.4263
  574SOL    HW1 1721   2.805   2.788   0.071  0.7561 -1.0556  0.0664
  574SOL    HW2 1722   2.680   2.894   0.103 -0.2838 -1.4840  1.8912
  575SOL     OW 1723   1.443   2.450   1.164 -0.4384 -0.2342  0.2966
  575SOL    HW1 1724   1.356   2.398   1.179  0.8854  1.6672  1.2082
  575SOL    HW2 1725   1.413   2.542   1.135  1.9908 -0.0977 -0.8267
  576SOL     OW 1726   1.125   2.890   1.021  0.4194  0.0235  0.1422
  576SOL    HW1 1727   1.120   2.794   0.984 -1.7294 -1.1755  1.0617
  576SOL    HW2 1728   1.063   2.890   1.096  0.2914 -0.6083 -2.8060
  577SOL     OW 1729   2.389   1.179   0.709 -0.7312 -0.4260  0.7036
  577SOL    HW1 1730   2.435   1.255   0.658 -0.5327  1.7537 -1.0919
  577SOL    HW2 1731   2.465   1.122   0.743  2.4445 -0.1898 -0.6345
  578SOL     OW 1732   1.358   0.401   0.689 -0.1182  0.7325 -0.2926
  578SOL    HW1 1733   1.458   0.422   0.691 -0.5137 -0.7861  1.2161
  578SOL    HW2 1734   1.313   0.447   0.768 -0.5682  0.7592 -0.9126
  579SOL     OW 1735   2.165   0.655   2.921 -0.2872  0.1050 -0.0853
  579SOL    HW1 1736   2.205   0.571   2.890 -1.7294  0.2431  0.0280
  579SOL    HW2 1737   2.196   0.732   2.858 -0.0741  0.7640 -3.4628
  580SOL     OW 1738   1.778   0.714   2.361 -0.1069 -0.0487  0.2921
  580SOL    HW1 1739   1.838   0.774   2.420 -1.1407 -3.7402  0.5893
  580SOL    HW2 1740   1.686   0.757   2.355 -0.9750 -0.3076  1.2182
  581SOL     OW 1741   0.343   0.792   1.044  0.3447 -0.5622  0.2896
  581SOL    HW1 1742   0.347   0.859   0.966 -1.8889  0.4012 -0.6711
  581SOL    HW2 1743   0.245   0.775   1.071  0.9610  4.8044  2.6265
  582SOL     OW 1744   3.022   0.213   1.990  0.0908 -0.5293  0.4900
  582SOL    HW1 1745   0.007   0.183   2.046 -3.1067  2.6394 -1.7078
  582SOL    HW2 1746   3.018   0.184   1.893  0.6272 -1.7639 -0.0020
  583SOL     OW 1747   0.374   0.420   1.971  0.1779 -0.0258 -0.3713
  583SOL    HW1 1748   0.274   0.424   1.955 -1.5542  0.4126  2.6687
  583SOL    HW2 1749   0.415   0.335   1.932  1.8910  0.6207 -3.9511
  584SOL     OW 1750   1.269   2.211   2.911  0.1474  0.4333  0.1645
  584SOL    HW1 1751   1.347   2.153   2.877 -0.5715  0.5419 -0.9894
  584SOL    HW2 1752   1.268   2.213   3.015 -0.0196  1.2331  1.8250
  585SOL     OW 1753   0.245   2.722   2.820  0.3638  0.0277 -0.0581
  585SOL    HW1 1754   0.234   2.657   2.898  0.1155  1.2403  1.0671
  585SOL    HW2 1755   0.330   2.697   2.765  3.3125 -0.1852 -2.2586
  586SOL     OW 1756   1.953   1.737   2.561  0.0723 -0.2375 -0.1170
  586SOL    HW1 1757   1.962   1.809   2.487 -1.1675 -0.6995 -2.1857
  586SOL    HW2 1758   1.931   1.646   2.522 -2.7240  3.0331 -0.1482
  587SOL     OW 1759   2.100   2.204   0.097 -0.0398  0.3069  0.1249
  587SOL    HW1 1760   2.156   2.217   0.007  1.5779 -1.9760 -2.1240
  587SOL    HW2 1761   2.101   2.106   0.124 -1.1198 -0.1935 -0.7646
  588SOL     OW 1762   2.662   0.217   1.092  0.1775  0.0450  0.0433
  588SOL    HW1 1763   2.587   0.159   1.117  2.4600  0.5345  0.6212
  588SOL    HW2 1764   2.629   0.295   1.035  1.4184 -0.5439  0.6508
  589SOL     OW 1765   0.413   0.799   0.561 -0.4820 -0.2261 -0.1232
  589SOL    HW1 1766   0.449   0.831   0.471  2.4533 -0.6910 -1.5173
  589SOL    HW2 1767   0.357   0.716   0.551 -0.0211  1.9792  0.4960
  590SOL     OW 1768   2.202   1.958   0.187  0.3248  0.4104 -0.2244
  590SOL    HW1 1769   2.267   1.995   0.255 -2.1530  0.3013 -0.1403
  590SOL    HW2 1770   2.107   1.937   0.222  1.1425  1.0794 -2.3079
  591SOL     OW 1771   0.322   2.420   1.016  0.1285  0.1508 -0.0463
  591SOL    HW1 1772   0.268   2.412   1.100 -0.6172 -4.3059 -1.1055
  591SOL    HW2 1773   0.397   2.490   1.011 -2.0808  0.0955  0.9948
  592SOL     OW 1774   1.282   0.646   1.377  0.0152  0.2336 -0.3298
  592SOL    HW1 1775   1.201   0.687   1.335  1.5379  1.4142 -0.2980
  592SOL    HW2 1776   1.260   0.555   1.422 -2.6804  0.4109  3.1851
  593SOL     OW 1777   0.923   1.579   1.424 -0.2182 -0.2911  0.7559
  593SOL    HW1 1778   0.927   1.479   1.430 -3.7433  2.8812 -0.9210
  593SOL    HW2 1779   0.875   1.611   1.508 -2.8549 -0.4452 -1.8280
  594SOL     OW 1780   0.986   2.176   0.508 -0.5484 -0.3055  0.2703
  594SOL    HW1 1781   0.983   2.156   0.405  1.0152 -0.0910  0.8371
  594SOL    HW2 1782   1.071   2.227   0.540  0.7950 -1.4388 -0.8557
  595SOL     OW 1783   1.725   0.639   1.551  0.6797 -0.3815 -0.1050
  595SOL    HW1 1784   1.776   0.728   1.534 -0.3730  0.0861 -3.5569
  595SOL    HW2 1785   1.623   0.650   1.546 -1.3304 -1.0398 -1.3145
  596SOL     OW 1786   2.796   0.830   1.399  0.6388  0.0285  0.9499
  596SOL    HW1 1787   2.852   0.913   1.400 -0.4492 -2.2309  0.8204
  596SOL    HW2 1788   2.730   0.827   1.320  2.6880 -0.9035  0.7150
  597SOL     OW 1789   0.572   2.473   2.309 -0.3466 -0.0284 -0.1526
  597SOL    HW1 1790   0.530   2.562   2.337  0.5417 -0.6287 -0.3600
  597SOL    HW2 1791   0.671   2.473   2.332 -0.5085  0.2472  0.6837
  598SOL     OW 1792   2.379   1.676   1.479 -0.0366  0.2512  0.6255
  598SOL    HW1 1793   2.397   1.769   1.513  0.3313 -0.9660 -0.3874
  598SOL    HW2 1794   2.291   1.645   1.517  0.4244 -0.4528 -1.4181
  599SOL     OW 1795   0.867   3.022   0.101 -0.5880  0.2835 -0.4250
  599SOL    HW1 1796   0.791   2.997   0.043  2.2641  0.6237  1.5864
  599SOL    HW2 1797   0.849   2.988   0.198 -1.7925  0.1840 -1.3774
  600SOL     OW 1798   3.048   2.264   2.675 -0.8167  0.2873 -0.3458
  600SOL    HW1 1799   3.003   2.254   2.763  0.5480 -0.0617 -1.0325
  600SOL    HW2 1800   3.001   2.214   2.601  1.2670 -2.4113  2.8190
  601SOL     OW 1801   0.569   0.708   1.519 -0.4690  0.1801  0.1692
  601SOL    HW1 1802   0.510   0.734   1.443 -2.5467 -0.1913  0.8295
  601SOL    HW2 1803   0.530   0.747   1.604  0.5649 -0.1348 -2.3259
  602SOL     OW 1804   0.546   0.385   0.688  0.1640 -0.1485  0.3216
  602SOL    HW1 1805   0.524   0.478   0.722  3.6422 -3.3185  0.3337
  602SOL    HW2 1806   0.626   0.348   0.740  2.1224 -1.9397  0.3568
  603SOL     OW 1807   0.257   0.410   2.734 -0.2256  0.0121 -0.2028
  603SOL    HW1 1808   0.159   0.425   2.703  0.1897 -1.1870  1.9629
  603SOL    HW2 1809   0.248   0.330   2.798 -0.4656  1.9483 -0.6865
  604SOL     OW 1810   0.779   2.770   1.422  0.1371 -0.2900  0.0609
  604SOL    HW1 1811   0.786   2.841   1.495 -0.4400 -1.7209 -2.4252
  604SOL    HW2 1812   0.701   2.708   1.446  0.0463  0.0810  2.9858
  605SOL     OW 1813   1.476   1.134   2.350  0.1805 -1.1712  0.5075
  605SOL    HW1 1814   1.382   1.165   2.324  1.5960  0.4442 -0.5537
  605SOL    HW2 1815   1.551   1.143   2.281 -0.1090 -1.2882  2.0985
  606SOL     OW 1816   2.148   2.807   2.998 -0.2618  0.2671 -0.1540
  606SOL    HW1 1817   2.186   2.737   3.065 -1.5680 -0.7348  1.7676
  606SOL    HW2 1818   2.224   2.844   2.939  1.2581  1.0045  2.0503
  607SOL     OW 1819   0.994   0.354   1.255 -0.0288  0.3031 -0.2853
  607SOL    HW1 1820   0.930   0.381   1.331  1.2696  1.5478  1.0755
  607SOL    HW2 1821   0.979   0.254   1.232  0.4242 -3.8619  1.4314
  608SOL     OW 1822   0.308   1.733   2.500 -0.4302  0.4816 -0.0072
  608SOL    HW1 1823   0.383   1.702   2.564  3.4207  1.0445  0.1036
  608SOL    HW2 1824   0.215   1.708   2.541  0.7416 -2.7659  4.4947
  609SOL     OW 1825   1.377   1.410   0.320 -0.3258 -0.1448 -0.7292
  609SOL    HW1 1826   1.321   1.482   0.278 -0.5321  0.7169 -1.2928
  609SOL    HW2 1827   1.359   1.319   0.280 -0.6180 -1.8143 -0.4963
  610SOL     OW 1828   3.080   0.290   1.105 -0.2179  0.3112 -0.2361
  610SOL    HW1 1829   3.082   0.244   1.012 -2.1801 -0.9838 -2.2040
  610SOL    HW2 1830   0.059   0.359   1.114 -1.8150 -0.4900  0.9092
  611SOL     OW 1831   1.259   1.059   0.628 -0.0690 -0.3217  0.6611
  611SOL    HW1 1832   1.290   1.150   0.588 -0.7754 -0.0021 -0.9663
  611SOL    HW2 1833   1.203   1.005   0.557 -3.5023 -1.0838  1.3996
  612SOL     OW 1834   2.036   1.404   0.198 -0.0016  0.3287  0.4171
  612SOL    HW1 1835   1.974   1.391   0.275  0.6094 -0.4230 -0.1469
  612SOL    HW2 1836   2.081   1.493   0.211  1.6443 -0.3334 -1.1078
  613SOL     OW 1837   1.579   0.991   0.318  0.5100 -0.4392 -0.3163
  613SOL    HW1 1838   1.561   1.079   0.266  1.1700 -0.6680 -1.6200
  613SOL    HW2 1839   1.676   0.988   0.327 -0.0706 -1.0234 -1.9970
  614SOL     OW 1840   2.783   0.245   2.131  0.8539  0.3115  0.2684
  614SOL    HW1 1841   2.870   0.228   2.075  3.6487 -0.2471  0.1506
  614SOL    HW2 1842   2.800   0.305   2.212  0.5128 -3.8775 -0.6625
  615SOL     OW 1843   0.702   2.095   0.879  0.0155  0.1670 -0.2511
  615SOL    HW1 1844   0.704   1.990   0.881 -0.1180 -0.4212 -1.1994
  615SOL    HW2 1845   0.606   2.132   0.883 -4.9943  0.7224 -1.5909
  616SOL     OW 1846   1.790   0.901   2.700 -0.1860  0.9482 -0.0429
  616SOL    HW1 1847   1.757   0.981   2.647 -0.2742 -0.5214 -2.1298
  616SOL    HW2 1848   1.857   0.845   2.644  1.8133 -1.5543 -0.7647
  617SOL     OW 1849   1.148   0.202   0.263 -0.2364 -0.2809  1.2242
  617SOL    HW1 1850   1.096   0.266   0.199  0.3783  2.7619  0.4116
  617SOL    HW2 1851   1.210   0.141   0.207  1.2260 -3.4061  1.2215
  618SOL     OW 1852   2.260   2.071   2.387 -0.1506  0.2253  0.1197
  618SOL    HW1 1853   2.186   2.053   2.318 -1.2908 -0.0340 -1.3772
  618SOL    HW2 1854   2.227   2.038   2.479 -0.3102 -1.3167  1.7235
  619SOL     OW 1855   2.184   1.895   0.861 -0.3059  0.4307 -0.0780
  619SOL    HW1 1856   2.148   1.991   0.871  1.2479 -0.4508 -0.2272
  619SOL    HW2 1857   2.102   1.843   0.841 -0.3321  2.3971  0.4869
  620SOL     OW 1858   2.191   2.786   1.850  0.3003 -0.4395 -0.1597
  620SOL    HW1 1859   2.292   2.765   1.851  3.0860  1.4118 -1.1588
  620SOL    HW2 1860   2.153   2.705   1.899  0.6523 -0.3259  1.3954
  621SOL     OW 1861   3.054   1.717   0.709  0.5375  0.1092  0.2200
  621SOL    HW1 1862   0.007   1.629   0.683  0.2613  1.9517  0.3017
  621SOL    HW2 1863   3.031   1.772   0.627 -2.0376  0.1347 -0.9008
  622SOL     OW 1864   1.042   1.756   2.884  0.0494  0.1161 -0.0274
  622SOL    HW1 1865   1.033   1.820   2.805  0.1438  1.7404  1.5030
  622SOL    HW2 1866   1.082   1.809   2.961 -0.1239  2.0609 -2.0719
  623SOL     OW 1867   2.529   2.665   2.366 -0.2512 -0.4150 -0.0660
  623SOL    HW1 1868   2.468   2.666   2.282 -1.4812 -1.3944 -3.8620
  623SOL    HW2 1869   2.615   2.708   2.343  1.4081  0.1695 -0.5519
  624SOL     OW 1870   0.806   2.392   0.501 -0.5829 -0.4205 -0.1376
  624SOL    HW1 1871   0.774   2.408   0.593 -0.6434 -1.0303  1.2175
  624SOL    HW2 1872   0.872   2.314   0.502 -0.1197  0.7024  1.5146
  625SOL     OW 1873   0.237   1.989   2.389  0.0921 -0.5746  0.3087
  625SOL    HW1 1874   0.234   1.890   2.398 -1.2199  0.9241 -0.2106
  625SOL    HW2 1875   0.326   2.020   2.347 -0.3363  3.5207 -0.5436
  626SOL     OW 1876   0.578   2.700   0.058  0.2910 -0.3070  0.5911
  626SOL    HW1 1877   0.553   2.741   0.148 -1.2936 -2.9862  2.9105
  626SOL    HW2 1878   0.555   2.602   0.054  0.4557  0.1972 -1.4366
  627SOL     OW 1879   1.419   1.589   3.063 -0.6655  0.0864  0.9176
  627SOL    HW1 1880   1.382   1.593   2.969  3.7515  0.3939  1.4798
  627SOL    HW2 1881   1.451   1.677   0.006 -1.2587 -0.9814  1.3182
  628SOL     OW 1882   1.552   2.158   0.858  0.7582 -0.3787 -0.1793
  628SOL    HW1 1883   1.488   2.111   0.921  1.3276  2.6257 -1.8278
  628SOL    HW2 1884   1.605   2.228   0.912  0.7714 -0.7298  3.5284
  629SOL     OW 1885   0.488   0.165   1.708  0.1992 -0.1156  0.1319
  629SOL    HW1 1886   0.476   0.155   1.806  2.0121 -2.5756 -0.7304
  629SOL    HW2 1887   0.586   0.159   1.680  1.5661  2.7538  0.5433
  630SOL     OW 1888   2.441   0.670   1.427 -0.0906  0.0584 -0.0185
  630SOL    HW1 1889   2.394   0.593   1.479 -0.3302 -2.7625  1.9327
  630SOL    HW2 1890   2.497   0.631   1.349 -1.4040 -2.0600 -0.9815
  631SOL     OW 1891   1.562   0.429   1.237 -0.4127 -0.6116  0.4439
  631SOL    HW1 1892   1.582   0.496   1.159  0.2435  1.9341 -1.1217
  631SOL    HW2 1893   1.466   0.409   1.247  0.4582  1.3710  3.2761
  632SOL     OW 1894   2.875   1.047   2.079 -0.1327 -0.0483  0.3353
  632SOL    HW1 1895   2.898   1.024   1.978  0.6081  2.1591 -3.7434
  632SOL    HW2 1896   2.936   0.995   2.143 -1.5054  2.5408 -2.5151
  633SOL     OW 1897   1.391   0.748   3.055 -0.3983  0.3237 -0.3188
  633SOL    HW1 1898   1.330   0.670   3.077  0.4368  1.5063 -0.1035
  633SOL    HW2 1899   1.450   0.729   2.971  3.4126 -1.1056 -0.8361
  634SOL     OW 1900   0.439   2.475   0.122 -0.8774  0.2175  0.1572
  634SOL    HW1 1901   0.510   2.474   0.200 -0.2684 -0.5349  1.1988
  634SOL    HW2 1902   0.437   2.389   0.069  0.0974  1.2294 -0.6425
  635SOL     OW 1903   2.828   1.626   1.428  0.6207  0.0188 -0.4658
  635SOL    HW1 1904   2.744   1.578   1.384 -2.2850 -0.8775  0.4279
  635SOL    HW2 1905   2.809   1.641   1.530  1.9587 -0.9218  2.6708
  636SOL     OW 1906   2.963   1.674   0.088 -0.0839  0.6034 -0.4792
  636SOL    HW1 1907   3.037   1.615   0.047  3.5915 -2.3377  0.8483
  636SOL    HW2 1908   2.996   1.767   0.123 -2.6082 -0.6715 -3.7957
  637SOL     OW 1909   2.950   2.391   0.434  0.3679  0.2920  0.2962
  637SOL    HW1 1910   2.950   2.484   0.473  0.6986 -2.3621 -0.4166
  637SOL    HW2 1911   2.871   2.338   0.471 -2.6612 -1.4453 -0.5406
  638SOL     OW 1912   2.987   2.775   0.094  0.2354 -0.4200 -0.7598
  638SOL    HW1 1913   3.004   2.674   0.116  2.3894  0.3667 -2.6097
  638SOL    HW2 1914   3.074   2.810   0.056  0.2555 -1.7400 -2.2521
  639SOL     OW 1915   1.545   0.346   3.033  0.0931 -0.4112 -0.8648
  639SOL    HW1 1916   1.523   0.420   2.966  0.3505  0.2355 -0.1020
  639SOL    HW2 1917   1.499   0.264   2.995  2.8881  0.1670 -3.7854
  640SOL     OW 1918   2.356   2.243   1.380 -0.1789 -0.4415  0.0699
  640SOL    HW1 1919   2.328   2.210   1.290  0.4758 -2.5888 -1.1677
  640SOL    HW2 1920   2.291   2.305   1.425  3.4192 -1.2939  1.7894
  641SOL     OW 1921   2.899   2.966   1.121  0.6553 -0.1069 -0.4539
  641SOL    HW1 1922   2.880   3.058   1.165  1.8659 -0.1303  1.5875
  641SOL    HW2 1923   2.976   2.967   1.052 -0.1813  2.0082  1.3770
  642SOL     OW 1924   1.652   1.297   1.374 -0.1191  0.0424 -0.4122
  642SOL    HW1 1925   1.680   1.323   1.280  2.5264 -0.0520 -1.7456
  642SOL    HW2 1926   1.709   1.344   1.441 -1.6941  1.5371 -1.8647
  643SOL     OW 1927   0.927   1.819   2.470  0.0867 -0.0532  0.8863
  643SOL    HW1 1928   1.027   1.808   2.449 -0.9671  0.2978 -1.0933
  643SOL    HW2 1929   0.877   1.837   2.383 -0.3535  0.9209 -2.1004
  644SOL     OW 1930   1.896   3.018   2.293  0.1627  0.4381 -0.3113
  644SOL    HW1 1931   1.926   0.008   2.240 -2.3771  2.7746  0.9545
  644SOL    HW2 1932   1.820   2.966   2.239 -0.5060  1.1533 -1.8672
  645SOL     OW 1933   1.563   1.129   1.907  0.5194  0.1932  0.1358
  645SOL    HW1 1934   1.478   1.172   1.876  0.2174  0.6079 -0.2701
  645SOL    HW2 1935   1.628   1.112   1.832 -2.3730  0.4534 -0.7892
  646SOL     OW 1936   1.234   2.577   2.994 -0.3983  0.6957 -0.0379
  646SOL    HW1 1937   1.220   2.587   2.894  2.3395 -1.5791  3.0397
  646SOL    HW2 1938   1.318   2.521   3.014 -1.2435  0.4267 -1.0199
  647SOL     OW 1939   1.200   2.355   1.216  0.7813 -0.3292  0.0748
  647SOL    HW1 1940   1.109   2.373   1.175  1.0495  0.6108  1.3895
  647SOL    HW2 1941   1.210   2.259   1.249  1.9005 -1.3476  1.9338
  648SOL     OW 1942   2.922   2.773   1.309  0.5052  0.3492 -0.5331
  648SOL    HW1 1943   2.995   2.821   1.369  0.5817  0.9596  1.8751
  648SOL    HW2 1944   2.909   2.818   1.221 -2.8511  0.1131  1.0963
  649SOL     OW 1945   0.867   2.408   2.674  0.4407  0.2905  0.1249
  649SOL    HW1 1946   0.912   2.323   2.712  0.3061  0.4006  2.1569
  649SOL    HW2 1947   0.815   2.455   2.748 -0.4362 -1.1839  0.8482
  650SOL     OW 1948   2.869   1.873   2.905  0.0683 -0.0802  0.8980
  650SOL    HW1 1949   2.818   1.803   2.957 -0.6474  0.2626 -1.5644
  650SOL    HW2 1950   2.962   1.837   2.886 -2.8111 -1.6477 -0.1446
  651SOL     OW 1951   2.314   2.252   1.999  0.4091 -0.0106 -0.0909
  651SOL    HW1 1952   2.232   2.218   2.050 -1.4218 -2.0093  2.7873
  651SOL    HW2 1953   2.291   2.325   1.934 -0.7161  1.2429 -0.5193
  652SOL     OW 1954   2.278   2.733   1.219 -0.0559 -0.2500  0.4544
  652SOL    HW1 1955   2.265   2.796   1.298  0.5186  0.4384  0.2508
  652SOL    HW2 1956   2.372   2.700   1.211 -3.2654 -2.6089  0.3087
  653SOL     OW 1957   2.926   1.334   1.132 -0.0699 -0.1447  0.0926
  653SOL    HW1 1958   2.862   1.298   1.202 -1.7532 -1.2936 -2.8918
  653SOL    HW2 1959   2.935   1.274   1.048 -1.2658 -1.0964 -0.2761
  654SOL     OW 1960   1.009   0.271   2.822  0.1919 -0.2355  0.2065
  654SOL    HW1 1961   0.992   0.364   2.863 -1.0868 -0.0712 -1.0763
  654SOL    HW2 1962   0.983   0.201   2.887 -1.2920 -1.0513 -1.3473
  655SOL     OW 1963   1.033   0.548   1.095 -0.1877  0.0919  0.0329
  655SOL    HW1 1964   1.040   0.628   1.164 -1.6067  1.2389 -0.0572
  655SOL    HW2 1965   1.021   0.455   1.143 -0.5089 -1.4307 -0.6791
  656SOL     OW 1966   0.488   2.387   2.002  0.1443  0.6366 -0.3293
  656SOL    HW1 1967   0.408   2.320   2.005 -1.3905 -1.1521  1.7048
  656SOL    HW2 1968   0.467   2.483   2.029  5.2709 -0.1549 -0.7959
  657SOL     OW 1969   2.474   1.069   0.247 -0.0255  0.3530  0.5448
  657SOL    HW1 1970   2.423   1.061   0.159  2.6566 -0.5181 -0.3798
  657SOL    HW2 1971   2.548   1.136   0.225 -1.0314 -2.1033 -3.1398
  658SOL     OW 1972   1.672   2.009   1.403 -0.8910  0.6557  0.1018
  658SOL    HW1 1973   1.727   2.058   1.475  1.0772  1.8996  0.7307
  658SOL    HW2 1974   1.712   2.013   1.306 -0.5305 -0.7262 -3.2291
  659SOL     OW 1975   2.622   1.838   0.065 -0.1293  0.4053  0.7565
  659SOL    HW1 1976   2.671   1.773   3.093  1.4402 -0.2086  0.6524
  659SOL    HW2 1977   2.550   1.779   0.116 -2.0410 -4.6281  0.1672
  660SOL     OW 1978   1.031   0.316   0.681 -0.3400 -0.1293 -0.6034
  660SOL    HW1 1979   1.099   0.240   0.684 -1.3416 -0.2457  2.9762
  660SOL    HW2 1980   1.042   0.365   0.593 -0.2005  0.7762 -0.3766
  661SOL     OW 1981   1.683   0.374   0.402 -0.1239  0.6186 -0.1359
  661SOL    HW1 1982   1.604   0.345   0.343  0.9624  0.1214 -0.2035
  661SOL    HW2 1983   1.771   0.346   0.353 -1.4602 -0.7654  0.4047
  662SOL     OW 1984   0.351   0.187   0.782 -0.5040 -0.5870 -0.1038
  662SOL    HW1 1985   0.407   0.268   0.752 -0.0121  1.4584  3.8555
  662SOL    HW2 1986   0.335   0.120   0.706  1.6589 -0.6650  2.4827
  663SOL     OW 1987   1.331   2.946   2.197  0.5321  0.4847 -0.7842
  663SOL    HW1 1988   1.265   3.023   2.211  0.0854 -2.4003 -3.3457
  663SOL    HW2 1989   1.306   2.874   2.263  1.6334  0.2112 -2.0621
  664SOL     OW 1990   0.858   2.292   1.589 -0.3541 -0.0210 -0.9912
  664SOL    HW1 1991   0.795   2.337   1.658  1.1473  2.4186  0.1244
  664SOL    HW2 1992   0.905   2.363   1.532  2.7353  1.0757  1.1420
  665SOL     OW 1993   1.122   2.165   1.841  0.3710  0.0129  0.8506
  665SOL    HW1 1994   1.064   2.235   1.886  0.4328 -0.8270 -1.5465
  665SOL    HW2 1995   1.186   2.211   1.776 -0.8742  1.3599  0.0041
  666SOL     OW 1996   0.819   2.844   2.401  0.2857 -0.1460  0.3406
  666SOL    HW1 1997   0.840   2.817   2.308  0.2749  0.4790  0.1692
  666SOL    HW2 1998   0.775   2.939   2.399  0.3274 -0.7023  0.7656
  667SOL     OW 1999   2.293   1.103   1.496  0.0058 -0.2541 -0.0218
  667SOL    HW1 2000   2.280   1.165   1.418  0.5006  0.0342 -0.0913
  667SOL    HW2 2001   2.233   1.125   1.574 -1.4007  0.9258  1.5076
  668SOL     OW 2002   1.843   0.164   1.879 -0.3184  0.1392  0.2910
  668SOL    HW1 2003   1.876   0.075   1.838  0.1917  1.8423  2.1756
  668SOL    HW2 2004   1.766   0.150   1.945 -0.3517 -0.7476 -0.4379
  669SOL     OW 2005   2.536   2.644   1.138 -0.2006 -0.5130 -0.4463
  669SOL    HW1 2006   2.583   2.587   1.209  0.1084  1.1021 -1.5415
  669SOL    HW2 2007   2.544   2.608   1.043  2.1794  2.8566 -0.5301
  670SOL     OW 2008   1.416   2.523   2.666  0.0127  0.1186  0.3577
  670SOL    HW1 2009   1.317   2.519   2.695  0.0471 -2.5284  1.2039
  670SOL    HW2 2010   1.423   2.532   2.566 -1.0364  0.1976 -0.7887
  671SOL     OW 2011   0.563   1.186   0.438 -0.1472 -0.6926 -0.3752
  671SOL    HW1 2012   0.606   1.167   0.349  1.4053  2.0065  0.9539
  671SOL    HW2 2013   0.462   1.164   0.446 -1.6369  1.1864  1.2110
  672SOL     OW 2014   2.696   1.094   3.028  0.2527 -0.8147 -0.3760
  672SOL    HW1 2015   2.764   1.117   0.004 -0.4892  0.3102 -0.1203
  672SOL    HW2 2016   2.717   0.999   2.994 -1.0199 -1.3308 -1.2555
  673SOL     OW 2017   3.078   2.021   1.404 -0.0515 -0.0987  0.0285
  673SOL    HW1 2018   2.990   2.057   1.443  1.6491  2.4687  2.4577
  673SOL    HW2 2019   3.062   1.924   1.370 -4.4293 -1.4415  3.1645
  674SOL     OW 2020   0.880   2.176   2.216 -0.1634  0.1109 -0.5476
  674SOL    HW1 2021   0.982   2.185   2.218  1.0671 -1.3377 -2.3443
  674SOL    HW2 2022   0.832   2.236   2.149  1.8691  0.1167  1.8156
  675SOL     OW 2023   1.095   1.088   1.490 -0.4222 -0.3262 -0.2150
  675SOL    HW1 2024   1.146   1.088   1.578  0.1966  2.5602 -1.7210
  675SOL    HW2 2025   1.008   1.032   1.495 -0.3214 -1.7676  2.6392
  676SOL     OW 2026   1.979   0.060   1.162 -0.4612 -0.1904 -0.0442
  676SOL    HW1 2027   1.907   0.109   1.108  0.2861  0.8946 -0.5184
  676SOL    HW2 2028   1.932   0.016   1.242  2.6984 -0.4187  0.8378
  677SOL     OW 2029   2.985   0.730   0.099 -0.2243 -0.9568 -0.0393
  677SOL    HW1 2030   2.998   0.628   0.113  1.2552  1.0372 -0.2758
  677SOL    HW2 2031   2.924   0.775   0.168 -0.8700  0.4202 -1.7350
  678SOL     OW 2032   2.657   1.202   1.031  0.2666  0.4190 -0.2179
  678SOL    HW1 2033   2.705   1.263   0.967 -1.2552 -2.5544  0.0555
  678SOL    HW2 2034   2.636   1.111   0.988  1.3096  0.0854 -2.8840
  679SOL     OW 2035   2.563   0.682   2.879  0.1221 -0.3930  0.2234
  679SOL    HW1 2036   2.553   0.700   2.781 -3.7440 -0.3395  2.5062
  679SOL    HW2 2037   2.645   0.723   2.916 -0.8386  1.1511 -1.0693
  680SOL     OW 2038   0.462   1.380   2.071  0.2151 -0.5808 -0.5920
  680SOL    HW1 2039   0.428   1.392   2.167 -0.3259  3.2655  0.8644
  680SOL    HW2 2040   0.385   1.411   2.010 -0.8634 -1.6245  0.7406
  681SOL     OW 2041   2.524   2.024   1.407 -0.4319 -0.0144 -0.1913
  681SOL    HW1 2042   2.463   2.109   1.400 -1.4594  1.9472  0.9084
  681SOL    HW2 2043   2.535   1.974   1.319  1.7303  0.6462 -1.8296
  682SOL     OW 2044   0.103   2.112   0.007  0.0522 -0.3237 -0.3568
  682SOL    HW1 2045   0.084   2.216   0.006 -2.7582  2.4311  1.1384
  682SOL    HW2 2046   0.098   2.082   3.003 -2.6113 -2.0518  0.5708
  683SOL     OW 2047   2.884   2.165   0.861  0.0394 -0.3094 -0.2899
  683SOL    HW1 2048   2.879   2.064   0.844  0.8194  2.8867 -0.2646
  683SOL    HW2 2049   2.830   2.181   0.946  1.1392 -1.1952  0.9083
  684SOL     OW 2050   2.986   1.266   2.192  0.1384  0.0248  0.3280
  684SOL    HW1 2051   3.078   1.290   2.158 -1.4115 -1.0902 -2.6356
  684SOL    HW2 2052   2.935   1.189   2.140 -2.1899  3.9832  0.9517
  685SOL     OW 2053   1.294   0.732   0.950 -0.1949  0.0322 -0.3272
  685SOL    HW1 2054   1.267   0.633   0.930  0.1012 -1.4107  0.4428
  685SOL    HW2 2055   1.341   0.757   1.040 -3.3679 -0.7689 -1.2880
  686SOL     OW 2056   0.551   0.348   0.283 -0.0903  0.2374 -0.1847
  686SOL    HW1 2057   0.627   0.377   0.346 -1.1539 -1.0909  0.3822
  686SOL    HW2 2058   0.590   0.333   0.189  1.9193  0.0063 -0.6550
  687SOL     OW 2059   0.466   2.152   2.531 -0.4391 -0.4520 -0.5392
  687SOL    HW1 2060   0.439   2.206   2.449  0.4968 -2.6013  1.1171
  687SOL    HW2 2061   0.385   2.126   2.586  0.3031  1.7630  0.7247
  688SOL     OW 2062   1.922   0.406   1.549  1.1937 -0.3345  0.2085
  688SOL    HW1 2063   1.881   0.350   1.470 -2.2943 -0.5727 -1.4925
  688SOL    HW2 2064   1.865   0.491   1.553 -0.8183  1.9241  2.2441
  689SOL     OW 2065   1.791   0.926   1.002 -0.0923 -0.2561  0.0920
  689SOL    HW1 2066   1.849   0.888   1.077  0.5428 -0.1383  1.3762
  689SOL    HW2 2067   1.713   0.976   1.044 -0.6716 -1.0202  2.2397
  690SOL     OW 2068   2.988   1.063   1.355  0.3943  0.1998  0.1743
  690SOL    HW1 2069   3.054   1.082   1.276  0.2117  0.1306 -0.9725
  690SOL    HW2 2070   2.903   1.122   1.337 -1.0574 -1.1799  0.3522
  691SOL     OW 2071   2.878   1.403   1.749  0.0204 -0.3468 -0.1629
  691SOL    HW1 2072   2.902   1.493   1.706  2.2614  0.8072 -0.3288
  691SOL    HW2 2073   2.801   1.410   1.815  0.4188 -0.1190  0.2325
  692SOL     OW 2074   1.129   0.652   1.866 -0.6092 -0.6696 -0.1532
  692SOL    HW1 2075   1.219   0.681   1.824 -0.0379 -0.2410 -1.5031
  692SOL    HW2 2076   1.120   0.550   1.856  0.1291 -3.3015 -1.7425
  693SOL     OW 2077   0.846   1.223   2.453 -0.2427 -0.2332 -0.0700
  693SOL    HW1 2078   0.894   1.300   2.401 -0.8915 -1.5913 -1.2532
  693SOL    HW2 2079   0.759   1.193   2.399 -3.2628  1.7359 -0.2664
  694SOL     OW 2080   1.614   1.472   0.441 -0.3203 -0.1596 -0.1331
  694SOL    HW1 2081   1.600   1.447   0.538  2.0407  1.2646 -0.4517
  694SOL    HW2 2082   1.530   1.456   0.384  0.0787 -0.8221 -0.2768
  695SOL     OW 2083   0.592   1.057   1.331  0.9229 -0.0387 -0.8915
  695SOL    HW1 2084   0.499   1.029   1.307 -0.1033 -0.9077  2.2948
  695SOL    HW2 2085   0.607   1.048   1.432 -0.1331  4.0641  0.1933
  696SOL     OW 2086   0.126   3.015   0.377 -0.0714 -0.0284  0.1155
  696SOL    HW1 2087   0.026   2.994   0.355 -0.9042  1.7267  2.0042
  696SOL    HW2 2088   0.187   2.940   0.344  1.2996 -0.9878 -0.5850
  697SOL     OW 2089   1.922   0.408   1.073 -0.0976  0.2993  0.4185
  697SOL    HW1 2090   1.912   0.457   1.159  3.9074  1.1944 -2.4876
  697SOL    HW2 2091   1.866   0.324   1.079  2.1762  3.1022 -1.0937
  698SOL     OW 2092   1.718   1.501   1.735 -0.0642 -0.0672 -0.0805
  698SOL    HW1 2093   1.765   1.590   1.767 -1.5353  0.3429 -2.4677
  698SOL    HW2 2094   1.782   1.423   1.716  2.4023  1.9317  2.4986
  699SOL     OW 2095   0.082   0.445   1.984  0.1477 -0.0962  0.7032
  699SOL    HW1 2096   0.034   0.534   2.013 -0.3556  1.6800 -1.2089
  699SOL    HW2 2097   0.013   0.367   1.997 -2.3079 -3.2354  0.7621
  700SOL     OW 2098   1.459   2.581   0.815 -0.0768  0.4709 -1.0136
  700SOL    HW1 2099   1.552   2.601   0.850 -1.3141  0.0004 -1.0597
  700SOL    HW2 2100   1.425   2.655   0.758  2.1898  0.4476  0.6699
  701SOL     OW 2101   0.254   1.409   2.452 -0.1279  0.2186  0.9701
  701SOL    HW1 2102   0.206   1.480   2.397 -1.4094  0.5096 -0.8351
  701SOL    HW2 2103   0.295   1.440   2.536 -3.2717  1.7174  0.5528
  702SOL     OW 2104   0.507   0.346   3.043 -0.0849  0.2107 -0.5880
  702SOL    HW1 2105   0.434   0.414   3.059  1.1453 -1.4679 -2.1823
  702SOL    HW2 2106   0.480   0.257   3.084 -1.4419 -2.2259  1.7233
  703SOL     OW 2107   1.791   0.055   2.551 -0.1831 -0.2831 -0.0059
  703SOL    HW1 2108   1.829   0.017   2.640  2.8237  2.4556  2.6668
  703SOL    HW2 2109   1.820   0.007   2.470  1.7989  2.3040  2.5819
  704SOL     OW 2110   2.628   1.891   0.565  0.3414 -0.4146 -0.3199
  704SOL    HW1 2111   2.533   1.921   0.575 -0.7411 -2.6028 -0.3754
  704SOL    HW2 2112   2.683   1.966   0.522 -1.7327 -1.7620  0.8051
  705SOL     OW 2113   2.721   2.143   2.047  0.1370  0.0639  0.2526
  705SOL    HW1 2114   2.654   2.069   2.043 -0.6366  1.4602  1.4880
  705SOL    HW2 2115   2.672   2.221   2.086 -0.7567 -0.7336 -1.7961
  706SOL     OW 2116   2.783   2.626   0.728 -0.1338 -0.3347  0.2088
  706SOL    HW1 2117   2.834   2.636   0.818 -0.2144  0.1213  1.9614
  706SOL    HW2 2118   2.846   2.634   0.649  0.2772 -1.0521 -0.4594
  707SOL     OW 2119   0.816   2.906   0.342  0.2288  0.1451  0.2756
  707SOL    HW1 2120   0.902   2.852   0.333 -0.2820 -1.4355  2.4329
  707SOL    HW2 2121   0.820   2.948   0.437 -1.8397 -1.4173  2.8315
  708SOL     OW 2122   0.284   2.313   1.361  0.4965 -0.5539 -0.2834
  708SOL    HW1 2123   0.350   2.304   1.434 -1.6646 -0.5821  0.5945
  708SOL    HW2 2124   0.264   2.219   1.324 -2.6675 -1.0561  2.5251
  709SOL     OW 2125   1.511   2.846   2.033 -0.1507 -0.2314 -1.0218
  709SOL    HW1 2126   1.501   2.741   2.027 -1.2063 -3.8403 -0.6638
  709SOL    HW2 2127   1.437   2.880   2.095 -1.5969 -3.6230 -2.3158
  710SOL     OW 2128   1.791   2.550   2.257  0.8118  0.0807  0.0469
  710SOL    HW1 2129   1.845   2.617   2.314  1.0220 -2.2844  0.8058
  710SOL    HW2 2130   1.762   2.590   2.170  0.1877 -2.5270 -0.0177
  711SOL     OW 2131   1.159   2.546   2.726  0.0388 -0.2889  0.0800
  711SOL    HW1 2132   1.108   2.611   2.662 -3.2643 -1.5176  0.0942
  711SOL    HW2 2133   1.108   2.460   2.731 -1.8652  3.0057 -2.4231
  712SOL     OW 2134   1.094   2.257   2.717  0.1723  0.4036 -0.0919
  712SOL    HW1 2135   1.157   2.249   2.799  2.9545  1.0172  0.0373
  712SOL    HW2 2136   1.030   2.174   2.718  0.4883 -0.3435  0.6703
  713SOL     OW 2137   1.311   1.245   1.796 -0.3872  0.4553  0.3805
  713SOL    HW1 2138   1.315   1.305   1.715 -1.4751 -0.2821 -0.6078
  713SOL    HW2 2139   1.246   1.169   1.784  0.3555 -0.4379  0.6117
  714SOL     OW 2140   1.395   1.305   1.287  0.0796 -0.3252  0.0745
  714SOL    HW1 2141   1.343   1.214   1.287  1.2514 -1.2855  0.1518
  714SOL    HW2 2142   1.481   1.292   1.340  2.0111 -3.6705 -1.8437
  715SOL     OW 2143   2.687   2.858   0.495 -0.3775  0.0267 -0.2802
  715SOL    HW1 2144   2.770   2.856   0.434  0.0674 -2.7018 -1.7165
  715SOL    HW2 2145   2.650   2.764   0.514  1.3772  1.0667 -1.2868
  716SOL     OW 2146   0.748   2.832   0.976  0.1300 -0.6611  0.2181
  716SOL    HW1 2147   0.779   2.754   0.925 -0.8422  2.1765  0.3148
  716SOL    HW2 2148   0.650   2.842   0.958  2.4036  0.7236  0.0937
  717SOL     OW 2149   2.997   0.462   0.095 -0.2770  0.0297 -0.1842
  717SOL    HW1 2150   2.910   0.426   0.059 -0.4320  2.1520  0.0584
  717SOL    HW2 2151   3.009   0.421   0.186  0.6405  0.9693  1.0078
  718SOL     OW 2152   1.767   1.564   1.259  0.2485  0.0377 -1.0601
  718SOL    HW1 2153   1.844   1.562   1.327 -0.5701  3.3839  0.0228
  718SOL    HW2 2154   1.680   1.581   1.305  2.6601 -0.0154  1.5663
  719SOL     OW 2155   3.028   2.516   0.185 -0.0105  0.2735 -0.1651
  719SOL    HW1 2156   3.021   2.460   0.097 -3.3594 -0.9301 -0.7716
  719SOL    HW2 2157   2.995   2.458   0.266  1.3133 -0.0971 -0.8891
  720SOL     OW 2158   1.132   0.938   1.030  0.0245  0.1905  0.0700
  720SOL    HW1 2159   1.205   0.873   0.989  1.9137 -0.2086  2.9506
  720SOL    HW2 2160   1.184   1.025   1.044 -0.5630  0.7417 -2.0225
  721SOL     OW 2161   1.704   0.226   1.135 -0.2320 -0.2503  0.1221
  721SOL    HW1 2162   1.660   0.312   1.160 -1.5487 -0.6159 -0.5412
  721SOL    HW2 2163   1.647   0.143   1.154 -0.1965  0.1929  0.3726
  722SOL     OW 2164   1.106   1.694   2.033 -0.7948  0.3801 -0.2093
  722SOL    HW1 2165   1.018   1.709   2.082 -0.7251 -5.3209 -0.5450
  722SOL    HW2 2166   1.161   1.776   2.005  1.6941  1.0834  0.3285
  723SOL     OW 2167   1.065   0.171   1.689  0.5814 -0.3516  0.3127
  723SOL    HW1 2168   1.120   0.163   1.602 -0.0414 -1.7306 -2.1480
  723SOL    HW2 2169   1.038   0.072   1.701  0.6654 -0.1802 -0.0946
  724SOL     OW 2170   1.773   2.055   1.958 -0.0517 -1.0954  0.0524
  724SOL    HW1 2171   1.706   2.049   2.034  0.8733  1.3186 -0.7088
  724SOL    HW2 2172   1.861   2.002   1.973 -2.6629 -0.3679  2.0381
  725SOL     OW 2173   1.216   2.841   1.348 -0.1075 -0.2985 -0.7111
  725SOL    HW1 2174   1.309   2.836   1.398 -1.4857 -1.5622  0.0001
  725SOL    HW2 2175   1.185   2.745   1.330 -2.9918 -0.2842  0.6048
  726SOL     OW 2176   1.711   2.905   0.079  0.1816 -0.5440 -0.0697
  726SOL    HW1 2177   1.723   3.007   0.063 -0.9601 -3.4165 -0.9506
  726SOL    HW2 2178   1.787   2.860   0.131  0.7813  0.4526 -0.1265
  727SOL     OW 2179   1.356   1.778   0.863 -0.1833 -0.0592 -0.3613
  727SOL    HW1 2180   1.300   1.858   0.847  0.6678  0.3211 -2.0109
  727SOL    HW2 2181   1.390   1.781   0.960  0.0464 -2.6146  0.5210
  728SOL     OW 2182   1.931   2.765   2.421  0.4853  0.1922 -0.2694
  728SOL    HW1 2183   1.929   2.861   2.387  0.1085 -0.4392 -2.4512
  728SOL    HW2 2184   1.999   2.763   2.497  0.1360  0.7893 -0.8162
  729SOL     OW 2185   2.121   2.105   1.552  0.1279 -0.1751  0.0325
  729SOL    HW1 2186   2.165   2.198   1.552  1.5730 -1.8231  2.1419
  729SOL    HW2 2187   2.140   2.062   1.463 -2.5427  0.2084 -1.4640
  730SOL     OW 2188   2.134   0.688   2.317  0.2450 -0.2976 -0.0947
  730SOL    HW1 2189   2.101   0.704   2.220 -0.3360  0.1199  0.3704
  730SOL    HW2 2190   2.205   0.617   2.314 -1.0327 -3.0834  3.2851
  731SOL     OW 2191   0.638   0.338   1.273 -0.0669 -0.4340 -0.0503
  731SOL    HW1 2192   0.634   0.390   1.359 -1.6574 -0.9320 -2.6848
  731SOL    HW2 2193   0.636   0.399   1.194  0.0513  0.2851  1.6206
  732SOL     OW 2194   1.772   3.075   0.873 -0.1565 -0.2160 -0.5496
  732SOL    HW1 2195   1.696   0.025   0.824  1.2998 -0.4359  2.8581
  732SOL    HW2 2196   1.866   0.029   0.872  4.8899  0.7731  3.0036
  733SOL     OW 2197   0.704   0.994   1.107 -0.1180  0.5234  0.1196
  733SOL    HW1 2198   0.660   1.021   1.197  0.0436  0.4950  2.4404
  733SOL    HW2 2199   0.786   1.048   1.083  0.5624  0.9320 -1.1077
  734SOL     OW 2200   2.609   2.332   0.476  0.1570 -0.4558  0.2398
  734SOL    HW1 2201   2.512   2.360   0.467 -3.4650  0.6316  1.1414
  734SOL    HW2 2202   2.643   2.354   0.571 -2.6678  0.0676  0.2897
  735SOL     OW 2203   0.474   0.612   0.162  0.0754 -0.0185  0.1857
  735SOL    HW1 2204   0.479   0.668   0.075  1.7366 -1.5788 -1.0551
  735SOL    HW2 2205   0.409   0.534   0.149  1.0319 -0.8680 -1.3846
  736SOL     OW 2206   1.748   2.397   2.485  0.3909  0.2058  0.0038
  736SOL    HW1 2207   1.748   2.458   2.405  0.0188  3.1623  1.0941
  736SOL    HW2 2208   1.765   2.448   2.574  1.6732  0.2503 -0.4418
  737SOL     OW 2209   1.200   2.079   1.281  0.3130  0.0371 -0.0382
  737SOL    HW1 2210   1.140   2.008   1.235 -0.7281  1.7952  0.8189
  737SOL    HW2 2211   1.155   2.111   1.370  0.5347 -0.6443 -1.2693
  738SOL     OW 2212   1.748   2.948   2.078 -0.4600  0.5383  0.1751
  738SOL    HW1 2213   1.656   2.910   2.090  2.2195  0.8605 -1.3080
  738SOL    HW2 2214   1.752   3.028   2.017 -1.6771 -3.4203 -0.6798
  739SOL     OW 2215   1.280   2.008   2.206 -0.4121 -0.1574 -0.3096
  739SOL    HW1 2216   1.365   2.056   2.236  0.1332 -1.4867  1.1914
  739SOL    HW2 2217   1.209   2.079   2.192 -0.3507  0.6029 -2.3077
  740SOL     OW 2218   1.849   2.162   1.535 -0.0292 -0.2269 -0.1080
  740SOL    HW1 2219   1.949   2.139   1.558  2.6531  1.9575 -0.2073
  740SOL    HW2 2220   1.850   2.220   1.452 -1.6672 -1.0683  3.3764
  741SOL     OW 2221   2.002   1.759   3.007 -0.1143 -0.6953  0.2215
  741SOL    HW1 2222   1.955   1.746   2.916 -1.6313  2.6017  0.4841
  741SOL    HW2 2223   2.084   1.818   3.002 -1.1390  3.0862  0.9035
  742SOL     OW 2224   0.880   1.178   2.935 -0.1564 -0.6676  0.6930
  742SOL    HW1 2225   0.900   1.237   2.850  1.0110  0.7578 -1.2409
  742SOL    HW2 2226   0.926   1.090   2.919 -2.5285  3.7897 -2.0842
  743SOL     OW 2227   2.345   0.893   2.791 -0.1132  0.1302  0.6561
  743SOL    HW1 2228   2.413   0.969   2.790 -0.5209 -0.0869 -1.0853
  743SOL    HW2 2229   2.256   0.917   2.750 -0.0178  0.1090 -1.3769
  744SOL     OW 2230   1.987   2.752   1.595 -0.0776 -0.7223 -0.2711
  744SOL    HW1 2231   1.974   2.744   1.492 -0.0121  1.7246 -1.6527
  744SOL    HW2 2232   2.084   2.766   1.623 -1.2656 -0.5028  0.8328
  745SOL     OW 2233   2.566   1.878   1.174 -0.1785 -0.2648  0.4386
  745SOL    HW1 2234   2.667   1.892   1.161  0.7546 -1.8821 -1.8264
  745SOL    HW2 2235   2.542   1.779   1.170 -1.1679 -0.9470 -1.0558
  746SOL     OW 2236   2.907   1.886   0.864  0.1150  0.0565 -0.6499
  746SOL    HW1 2237   2.812   1.847   0.852 -0.0622  2.5013 -2.2229
  746SOL    HW2 2238   2.975   1.831   0.813  2.6296 -0.9746 -1.6612
  747SOL     OW 2239   2.000   2.611   0.372 -0.5830  0.1795  0.3012
  747SOL    HW1 2240   1.927   2.544   0.395 -0.5599 -1.2743  0.2147
  747SOL    HW2 2241   2.044   2.656   0.447 -0.1007  0.8870 -2.5990
  748SOL     OW 2242   0.896   2.119   0.260 -0.1916  0.3677  0.1517
  748SOL    HW1 2243   0.911   2.156   0.167  1.0690 -2.2744  1.5192
  748SOL    HW2 2244   0.798   2.092   0.283  2.4509 -0.8787  1.0865
  749SOL     OW 2245   2.855   0.375   2.376 -0.3064  0.0916 -0.0388
  749SOL    HW1 2246   2.930   0.301   2.395 -1.0406  0.2358  2.2479
  749SOL    HW2 2247   2.908   0.455   2.334  1.9209  0.2408 -1.4928
  750SOL     OW 2248   1.373   0.733   1.790 -0.7275  0.0936 -0.6186
  750SOL    HW1 2249   1.405   0.775   1.881  1.4243  2.9751 -0.2861
  750SOL    HW2 2250   1.405   0.635   1.787 -2.6507 -2.4901  1.4305
  751SOL     OW 2251   2.240   2.446   1.799 -0.2786 -0.2357  0.4653
  751SOL    HW1 2252   2.193   2.442   1.710  0.7209 -0.6245  2.5342
  751SOL    HW2 2253   2.308   2.525   1.796  0.1317  4.0771 -1.9555
  752SOL     OW 2254   1.976   1.735   0.825 -0.3176  0.4455  0.0233
  752SOL    HW1 2255   1.900   1.753   0.884 -0.4003 -1.0419  0.3765
  752SOL    HW2 2256   1.999   1.636   0.834  2.2366 -2.0232 -1.4593
  753SOL     OW 2257   1.530   0.869   2.419 -0.5797 -0.3850  0.4237
  753SOL    HW1 2258   1.524   0.970   2.398  1.9174 -0.1327 -0.5633
  753SOL    HW2 2259   1.517   0.857   2.520  0.5833  0.2246 -2.8304
  754SOL     OW 2260   0.202   2.773   0.959  0.3326  0.0535 -0.0477
  754SOL    HW1 2261   0.167   2.831   1.035 -0.2995 -0.2690  1.6190
  754SOL    HW2 2262   0.156   2.683   0.959 -0.9764 -0.1839 -0.9650
  755SOL     OW 2263   2.227   0.137   1.543 -0.5695  0.0126  0.2054
  755SOL    HW1 2264   2.274   0.086   1.620  0.2040 -1.5026 -0.0589
  755SOL    HW2 2265   2.293   0.170   1.471 -1.3408  1.6909 -0.5904
  756SOL     OW 2266   1.703   1.136   2.574 -0.5062 -0.5843 -0.0277
  756SOL    HW1 2267   1.719   1.236   2.589 -0.0046  1.9211  0.0963
  756SOL    HW2 2268   1.636   1.111   2.502 -0.4916 -1.7359  1.1446
  757SOL     OW 2269   3.038   2.845   1.850  0.1270 -0.0061 -0.2835
  757SOL    HW1 2270   0.004   2.932   1.854  0.5669 -0.6890  0.6503
  757SOL    HW2 2271   2.956   2.855   1.796  2.6329 -2.8378  1.3427
  758SOL     OW 2272   0.450   2.978   1.391  0.1699  0.1241  0.1137
  758SOL    HW1 2273   0.392   2.988   1.476 -2.0385  0.3295  0.6066
  758SOL    HW2 2274   0.482   3.067   1.348  1.0239  1.5115  1.0026
  759SOL     OW 2275   2.182   1.169   0.893 -0.0240 -0.8051 -0.4275
  759SOL    HW1 2276   2.257   1.182   0.827  2.2217 -0.7321  1.9589
  759SOL    HW2 2277   2.095   1.134   0.846 -3.6988 -0.1009  0.2227
  760SOL     OW 2278   1.633   0.155   2.062  0.2732 -0.4979 -0.7719
  760SOL    HW1 2279   1.551   0.179   2.014  4.5568 -0.8243  0.4435
  760SOL    HW2 2280   1.617   0.142   2.160  0.6209 -0.6663 -2.0336
  761SOL     OW 2281   2.156   0.407   0.446  0.1609  0.2813 -0.1342
  761SOL    HW1 2282   2.164   0.320   0.390 -0.7872 -0.7263 -1.8805
  761SOL    HW2 2283   2.124   0.486   0.387 -1.1378  1.1505  1.1601
  762SOL     OW 2284   2.266   2.680   0.098  0.1387 -0.3006  0.2034
  762SOL    HW1 2285   2.361   2.671   0.134 -0.6652 -0.6860 -0.0376
  762SOL    HW2 2286   2.213   2.595   0.111  1.1706  0.1115 -1.4523
  763SOL     OW 2287   1.063   0.779   1.244  0.6192  1.2321  0.5382
  763SOL    HW1 2288   1.090   0.838   1.163 -2.0020  0.0732  0.6857
  763SOL    HW2 2289   1.011   0.825   1.318  1.3412 -2.7160 -1.2697
  764SOL     OW 2290   2.243   2.583   2.739  0.4998  0.6673  0.3010
  764SOL    HW1 2291   2.306   2.544   2.670 -0.2712 -0.1368  1.0645
  764SOL    HW2 2292   2.158   2.523   2.743  1.6158 -1.6893  0.4546
  765SOL     OW 2293   0.221   0.802   2.306  0.2951 -0.3342 -0.2794
  765SOL    HW1 2294   0.170   0.720   2.346  0.4199  1.1190  1.4709
  765SOL    HW2 2295   0.221   0.873   2.381 -2.1559  1.2587 -0.1180
  766SOL     OW 2296   2.723   1.378   2.957  0.0357  0.3029 -0.6261
  766SOL    HW1 2297   2.667   1.422   2.888  2.8199 -1.8044  2.3813
  766SOL    HW2 2298   2.679   1.292   2.994 -0.6149  0.0302 -0.3035
  767SOL     OW 2299   3.081   1.946   1.852  0.1994  0.3031  0.0480
  767SOL    HW1 2300   3.014   2.007   1.803 -0.3924  1.2740  0.9367
  767SOL    HW2 2301   0.051   1.902   1.784 -0.0697  0.6494  1.7947
  768SOL     OW 2302   0.974   0.951   0.097 -0.3847  0.6749  0.0587
  768SOL    HW1 2303   1.017   0.864   0.125 -0.3484  4.1554  0.6409
  768SOL    HW2 2304   1.037   1.028   0.097 -2.0850  0.5188  0.2549
  769SOL     OW 2305   1.720   2.718   2.952  0.2182  0.2999 -0.2092
  769SOL    HW1 2306   1.811   2.742   2.909 -1.0186 -0.9127  1.3495
  769SOL    HW2 2307   1.714   2.780   3.035 -2.7292  1.3340 -2.6735
  770SOL     OW 2308   0.740   0.006   2.395  0.2101  0.4305 -0.0186
  770SOL    HW1 2309   0.782   0.025   2.307  0.1111 -1.8893 -0.8443
  770SOL    HW2 2310   0.800   0.038   2.470 -0.8720  1.6856 -3.4371
  771SOL     OW 2311   0.664   2.596   0.836 -0.4365  0.2054 -0.0117
  771SOL    HW1 2312   0.641   2.506   0.799 -1.3601 -0.1278 -1.4223
  771SOL    HW2 2313   0.623   2.616   0.925 -2.8951 -0.7906 -0.2150
  772SOL     OW 2314   0.120   0.670   0.290  0.4992 -0.1853 -0.0521
  772SOL    HW1 2315   0.157   0.589   0.246 -0.3873  0.9896 -0.2201
  772SOL    HW2 2316   0.061   0.636   0.369 -0.0773 -0.3973  0.9508
  773SOL     OW 2317   1.881   0.986   1.980 -0.2845  0.0591  0.3937
  773SOL    HW1 2318   1.853   0.892   1.952  0.7182  0.8400  0.1952
  773SOL    HW2 2319   1.898   0.998   2.079 -0.3328 -2.3525 -0.7006
  774SOL     OW 2320   0.680   0.963   0.555 -0.2510 -0.2946 -0.4003
  774SOL    HW1 2321   0.645   1.057   0.530 -0.5985 -0.1202 -2.3554
  774SOL    HW2 2322   0.623   0.919   0.627  1.0261 -0.4013 -2.6888
  775SOL     OW 2323   1.739   0.094   0.052  0.1814 -0.1260 -0.0486
  775SOL    HW1 2324   1.664   0.106   0.123  1.6216 -0.5057 -0.3879
  775SOL    HW2 2325   1.775   0.182   0.011  1.2851 -0.1745 -1.9113
  776SOL     OW 2326   2.104   0.169   2.309 -0.5448  0.0500  0.2970
  776SOL    HW1 2327   2.135   0.210   2.398 -0.7551  0.3775  1.7484
  776SOL    HW2 2328   2.182   0.157   2.247 -0.8311  2.1148  0.8049
  777SOL     OW 2329   0.718   1.509   0.009 -0.1508  0.2505 -0.4548
  777SOL    HW1 2330   0.760   1.447   0.081  0.1919 -1.5774  0.5991
  777SOL    HW2 2331   0.619   1.521   0.029 -0.5444  0.4174 -1.6000
  778SOL     OW 2332   0.231   2.619   3.087 -0.0533  0.1783 -0.1507
  778SOL    HW1 2333   0.201   2.711   0.023 -1.7570 -1.5806 -1.7756
  778SOL    HW2 2334   0.311   2.587   0.045 -0.0030  3.7791 -1.1977
  779SOL     OW 2335   0.242   1.102   0.033 -0.2162  0.1171  0.0905
  779SOL    HW1 2336   0.266   1.179   0.093  0.1437 -0.3058  1.1040
  779SOL    HW2 2337   0.265   1.009   0.066  2.1218 -1.4283 -0.8119
  780SOL     OW 2338   2.307   0.362   1.936  0.3847 -0.5567 -0.3500
  780SOL    HW1 2339   2.367   0.413   1.871  1.0594 -0.8480 -1.5400
  780SOL    HW2 2340   2.240   0.300   1.887  1.6019 -0.8670  0.9539
  781SOL     OW 2341   1.788   1.087   1.744 -0.4167  0.3658 -0.2045
  781SOL    HW1 2342   1.843   1.177   1.737  0.8834  2.5397 -0.3200
  781SOL    HW2 2343   1.820   1.042   1.833  2.7229 -2.8713  1.4280
  782SOL     OW 2344   1.676   1.789   2.377 -0.2644  0.1697 -0.2218
  782SOL    HW1 2345   1.749   1.856   2.396 -1.5422  0.7153 -2.2416
  782SOL    HW2 2346   1.717   1.712   2.318 -2.1224  1.8247 -1.0871
  783SOL     OW 2347   1.521   0.003   1.570  0.0864  0.3241  0.6470
  783SOL    HW1 2348   1.581   0.078   1.609 -1.3059  1.5693  2.6064
  783SOL    HW2 2349   1.540   3.009   1.622  2.2759 -0.8886 -2.7746
  784SOL     OW 2350   1.966   0.826   2.510 -0.1383  0.1432 -0.3106
  784SOL    HW1 2351   2.027   0.872   2.573 -0.3826  0.9452 -0.1710
  784SOL    HW2 2352   2.014   0.751   2.465 -1.6001  3.3639  0.4994
  785SOL     OW 2353   1.900   0.384   0.237  0.4660  0.8506  0.8316
  785SOL    HW1 2354   1.870   0.379   0.138  0.0094 -0.2957 -1.5621
  785SOL    HW2 2355   1.962   0.457   0.252  0.0257 -4.2406  0.6287
  786SOL     OW 2356   2.987   1.882   0.472 -0.0352 -0.2954 -0.1234
  786SOL    HW1 2357   2.967   1.970   0.511  1.6883  1.7690 -1.9650
  786SOL    HW2 2358   3.069   1.885   0.409 -2.4046 -3.0258  0.2282
  787SOL     OW 2359   1.662   2.212   0.373 -0.2725  0.0115  0.0470
  787SOL    HW1 2360   1.653   2.165   0.468 -0.7169  0.9658  0.7275
  787SOL    HW2 2361   1.585   2.275   0.358  3.2896  0.1529  1.6057
  788SOL     OW 2362   1.978   1.586   1.419 -0.2486  0.3357  0.0459
  788SOL    HW1 2363   2.013   1.613   1.326  0.0039  1.6329  0.6825
  788SOL    HW2 2364   1.953   1.667   1.472 -0.0096  1.4675  0.6577
  789SOL     OW 2365   3.019   1.235   2.532 -0.4042 -0.4246 -0.1905
  789SOL    HW1 2366   3.084   1.225   2.453  2.7700  1.5643 -1.0435
  789SOL    HW2 2367   2.936   1.174   2.525  0.1736  0.6679 -1.5351
  790SOL     OW 2368   0.614   0.115   2.613 -0.3125  0.1070  0.2326
  790SOL    HW1 2369   0.582   0.193   2.557 -2.4873 -2.5567  1.5889
  790SOL    HW2 2370   0.716   0.111   2.620 -1.4132  1.0205 -1.0641
  791SOL     OW 2371   0.885   3.028   2.774  0.4889  0.2118  0.5632
  791SOL    HW1 2372   0.831   0.009   2.820  0.0306  0.0620 -0.6630
  791SOL    HW2 2373   0.932   2.979   2.848  0.3946  0.0921 -2.9551
  792SOL     OW 2374   1.785   0.454   2.284 -0.0646 -0.6922 -0.7998
  792SOL    HW1 2375   1.826   0.439   2.191 -3.2712  0.9209  0.8691
  792SOL    HW2 2376   1.796   0.554   2.309 -1.7335  0.4052 -1.2567
  793SOL     OW 2377   2.786   0.522   1.726  0.0625 -0.1446 -0.1028
  793SOL    HW1 2378   2.739   0.585   1.659  0.7404 -2.5852  1.3034
  793SOL    HW2 2379   2.718   0.497   1.795 -0.8620 -2.7765 -0.3609
  794SOL     OW 2380   0.483   0.666   1.936  1.0213  0.1324  0.3866
  794SOL    HW1 2381   0.582   0.668   1.965  1.3473 -0.2562 -0.7838
  794SOL    HW2 2382   0.442   0.574   1.945  1.4110  0.6904 -3.1477
  795SOL     OW 2383   2.949   1.434   0.464 -0.9340  0.3124 -0.2554
  795SOL    HW1 2384   2.883   1.501   0.429  0.0217 -3.2569  0.3666
  795SOL    HW2 2385   3.031   1.470   0.516  1.7281  0.3719 -1.2521
  796SOL     OW 2386   2.945   2.338   2.938  0.4173  0.3257  0.6389
  796SOL    HW1 2387   2.902   2.279   3.009 -1.7550 -1.4288 -2.1125
  796SOL    HW2 2388   2.889   2.422   2.920 -1.4463 -0.3120 -0.9273
  797SOL     OW 2389   2.158   2.465   0.195 -0.4271  0.2620 -0.5044
  797SOL    HW1 2390   2.095   2.504   0.262  4.4974  1.6123 -0.6723
  797SOL    HW2 2391   2.130   2.369   0.169 -1.0579 -0.1596 -0.3242
  798SOL     OW 2392   0.257   1.068   1.471  0.0573  0.0764 -0.0330
  798SOL    HW1 2393   0.333   1.015   1.513 -1.3661 -1.4434  2.0044
  798SOL    HW2 2394   0.272   1.072   1.371 -2.3163  0.4378 -0.7240
  799SOL     OW 2395   2.996   0.555   2.260  0.2498 -0.5869  0.4598
  799SOL    HW1 2396   3.069   0.598   2.321 -0.0349 -0.9807  0.7857
  799SOL    HW2 2397   2.989   0.610   2.177 -1.0990  2.6112 -1.7528
  800SOL     OW 2398   2.960   2.120   0.589  0.3859 -0.5515  0.5665
  800SOL    HW1 2399   3.058   2.135   0.582 -3.1023 -0.1681  0.3936
  800SOL    HW2 2400   2.924   2.156   0.672  0.5770 -1.0527 -1.4286
  801SOL     OW 2401   1.317   1.117   0.902  0.1808 -0.6327 -0.2026
  801SOL    HW1 2402   1.278   1.091   0.812  0.3178 -1.1595  1.5449
  801SOL    HW2 2403   1.282   1.206   0.939  0.0825 -1.7751 -0.3123
  802SOL     OW 2404   1.140   1.824   1.556 -0.3024  0.3526 -0.1903
  802SOL    HW1 2405   1.143   1.780   1.463 -0.3863  1.3069  1.1835
  802SOL    HW2 2406   1.070   1.892   1.553  3.4618 -2.0304 -4.1280
  803SOL     OW 2407   2.836   1.688   0.353  0.2858 -0.1190  0.2157
  803SOL    HW1 2408   2.874   1.683   0.253  1.0333 -0.0435 -0.1044
  803SOL    HW2 2409   2.889   1.762   0.400  1.3817 -1.1659 -0.3725
  804SOL     OW 2410   0.967   2.454   1.102  0.3259  0.1247  0.8996
  804SOL    HW1 2411   0.930   2.497   1.190  0.6331  1.9028 -0.5011
  804SOL    HW2 2412   0.905   2.373   1.064 -2.8749 -3.7817 -0.7308
  805SOL     OW 2413   1.539   1.340   2.998  0.0221 -0.4215  0.0592
  805SOL    HW1 2414   1.495   1.429   3.021 -1.3154 -0.2523 -1.4854
  805SOL    HW2 2415   1.478   1.285   2.936  1.3406  3.3400 -2.4680
  806SOL     OW 2416   1.473   2.813   1.482 -0.2495  0.0721  0.3179
  806SOL    HW1 2417   1.511   2.746   1.550 -1.1816 -0.4107  3.1271
  806SOL    HW2 2418   1.530   2.813   1.397  2.5206  0.6965 -0.3851
  807SOL     OW 2419   1.947   2.792   2.816 -1.2388 -0.1437  0.2974
  807SOL    HW1 2420   1.985   2.781   2.724 -2.4043 -0.3660 -0.5624
  807SOL    HW2 2421   2.025   2.782   2.883  1.7990 -1.5993  1.5159
  808SOL     OW 2422   0.286   1.311   0.214 -0.3542 -0.8305  0.3239
  808SOL    HW1 2423   0.241   1.258   0.282  2.4404  0.9348 -0.2968
  808SOL    HW2 2424   0.267   1.409   0.220  1.7164 -3.0725  1.6062
  809SOL     OW 2425   2.590   0.881   2.287 -0.1019  0.0116 -0.3073
  809SOL    HW1 2426   2.634   0.960   2.249  1.5153 -0.2582  2.6521
  809SOL    HW2 2427   2.567   0.895   2.384 -0.8943 -3.3989 -0.6014
  810SOL     OW 2428   2.636   0.095   1.968  0.1154  0.0756  0.1805
  810SOL    HW1 2429   2.702   0.118   2.041  0.6857 -0.2054  1.7083
  810SOL    HW2 2430   2.565   0.164   1.959  0.0915 -1.4655 -3.0674
  811SOL     OW 2431   2.161   2.387   1.496 -0.1884 -0.0206 -0.0168
  811SOL    HW1 2432   2.062   2.413   1.525 -3.5649 -0.4173  0.1078
  811SOL    HW2 2433   2.221   2.467   1.517  2.5156  1.5379  0.5553
  812SOL     OW 2434   1.820   0.352   3.069  0.0615  0.8342 -0.0721
  812SOL    HW1 2435   1.718   0.379   3.069  1.5019 -0.5828  0.9476
  812SOL    HW2 2436   1.873   0.415   3.007 -1.4329  0.1426 -0.1432
  813SOL     OW 2437   1.830   0.427   1.983 -0.1743 -0.2495 -0.1098
  813SOL    HW1 2438   1.897   0.473   1.924  0.1994 -0.0370  0.6052
  813SOL    HW2 2439   1.836   0.325   1.980  0.8089  1.8211  0.8134
  814SOL     OW 2440   2.035   1.332   1.482  0.0607  0.8905  0.3589
  814SOL    HW1 2441   2.104   1.276   1.427  1.7109  3.0804 -2.5796
  814SOL    HW2 2442   2.045   1.427   1.446  1.2239 -2.4058 -2.0676
  815SOL     OW 2443   0.298   1.128   0.457  0.1166 -0.7711 -0.0201
  815SOL    HW1 2444   0.216   1.189   0.456  0.6606  1.0977  0.4632
  815SOL    HW2 2445   0.283   1.039   0.409 -0.1787 -0.0287  0.9521
  816SOL     OW 2446   1.834   1.709   2.813 -0.6960  0.7320 -0.1345
  816SOL    HW1 2447   1.885   1.742   2.730 -1.1771  0.7063  0.8395
  816SOL    HW2 2448   1.811   1.609   2.800 -0.1753 -1.6169  1.8271
  817SOL     OW 2449   0.115   2.846   0.674  0.1711  0.1704 -0.2153
  817SOL    HW1 2450   0.186   2.840   0.747  0.7683  0.5771  3.8892
  817SOL    HW2 2451   0.099   2.757   0.623 -1.8334 -0.5187 -1.1367
  818SOL     OW 2452   1.455   0.407   2.669 -0.3109  0.3822 -0.0535
  818SOL    HW1 2453   1.534   0.464   2.657 -0.9329 -0.7234 -1.6205
  818SOL    HW2 2454   1.467   0.311   2.704 -1.1330 -2.1720 -0.4995
  819SOL     OW 2455   0.927   1.123   0.560  0.2124 -0.0043 -0.0718
  819SOL    HW1 2456   0.996   1.078   0.499  1.1806 -3.4172 -1.4234
  819SOL    HW2 2457   0.852   1.060   0.576  0.9852 -0.4387  1.5804
  820SOL     OW 2458   2.351   0.983   1.021 -0.4266  0.2505 -0.1931
  820SOL    HW1 2459   2.356   0.982   1.125  0.9878 -2.9484  2.9054
  820SOL    HW2 2460   2.296   1.060   0.994 -0.3187 -1.4179 -2.5585
  821SOL     OW 2461   2.321   0.046   0.347  0.0538  0.0874  0.9216
  821SOL    HW1 2462   2.331   0.006   0.256  0.3584 -0.2022  1.3189
  821SOL    HW2 2463   2.232   0.092   0.372  0.6003 -1.6681  1.1840
  822SOL     OW 2464   0.454   2.698   2.408  0.0592  0.5913 -0.0911
  822SOL    HW1 2465   0.437   2.675   2.507  1.5742 -1.5397  1.1003
  822SOL    HW2 2466   0.489   2.791   2.394  3.2747 -1.9173 -0.5030
  823SOL     OW 2467   0.234   2.303   1.682 -0.3222  0.0342 -0.4881
  823SOL    HW1 2468   0.173   2.333   1.611  2.8080  0.6437 -0.5988
  823SOL    HW2 2469   0.208   2.346   1.773 -0.3514 -0.2597 -1.0440
  824SOL     OW 2470   0.912   2.801   2.135  0.5061 -0.1087  0.1195
  824SOL    HW1 2471   0.962   2.804   2.044  0.5976 -0.2120 -0.1556
  824SOL    HW2 2472   0.943   2.720   2.189 -2.7647  3.1673 -0.1680
  825SOL     OW 2473   1.247   1.838   0.390  0.4826  0.0677  0.4971
  825SOL    HW1 2474   1.255   1.751   0.336 -1.1695 -5.6096 -2.5805
  825SOL    HW2 2475   1.153   1.872   0.374  1.7531 -1.0289  2.7101
  826SOL     OW 2476   1.057   2.922   2.977 -0.5340  0.2440 -0.6264
  826SOL    HW1 2477   1.009   2.998   3.032 -0.0798  0.3238  0.2349
  826SOL    HW2 2478   1.098   2.852   3.041  0.9527 -2.0502  0.0365
  827SOL     OW 2479   0.293   1.674   1.401 -0.3276  0.0571  0.3940
  827SOL    HW1 2480   0.291   1.702   1.303  1.4780 -3.9344  0.7064
  827SOL    HW2 2481   0.297   1.573   1.416  0.6797  0.0238  0.0735
  828SOL     OW 2482   2.572   1.583   1.131 -0.2269 -0.0557 -0.5067
  828SOL    HW1 2483   2.496   1.539   1.079  1.0149 -0.4901 -0.3293
  828SOL    HW2 2484   2.560   1.569   1.230 -2.1808 -2.2072 -0.1573
  829SOL     OW 2485   2.932   2.242   0.108 -0.3193  0.0652  0.2741
  829SOL    HW1 2486   3.021   2.223   0.150  0.4045  1.0726  0.8689
  829SOL    HW2 2487   2.875   2.159   0.123  1.6661  0.1483  0.3970
  830SOL     OW 2488   1.037   0.706   0.639 -0.2465 -0.2244  0.1232
  830SOL    HW1 2489   1.118   0.758   0.644  0.1035  0.1661  0.4637
  830SOL    HW2 2490   0.989   0.699   0.726  0.9360 -0.7260 -2.7160
  831SOL     OW 2491   2.785   2.034   0.173  0.2755 -0.2347  0.0500
  831SOL    HW1 2492   2.708   1.985   0.131  0.4282 -1.4189 -0.4804
  831SOL    HW2 2493   2.762   2.071   0.265 -2.0204  0.8434 -0.6502
  832SOL     OW 2494   1.163   2.668   0.535 -0.2198  0.9271  0.3630
  832SOL    HW1 2495   1.103   2.605   0.591 -2.1660 -0.8141 -0.4624
  832SOL    HW2 2496   1.228   2.727   0.587 -2.5221 -1.3961 -1.9360
  833SOL     OW 2497   1.107   0.718   2.485  0.0453  0.1241  0.0818
  833SOL    HW1 2498   1.113   0.818   2.486  0.0308  0.6284 -0.5562
  833SOL    HW2 2499   1.193   0.673   2.500  1.6230  2.4674 -1.6706
  834SOL     OW 2500   2.659   0.607   0.707  0.3614 -0.0515 -0.2534
  834SOL    HW1 2501   2.681   0.577   0.612 -2.7457 -2.5445  2.5614
  834SOL    HW2 2502   2.705   0.547   0.775 -0.5743  0.3304 -2.0157
  835SOL     OW 2503   2.537   0.633   2.170  0.3178 -0.2324 -0.7746
  835SOL    HW1 2504   2.536   0.637   2.068  1.4605  1.3555 -1.1553
  835SOL    HW2 2505   2.568   0.721   2.212  0.1224  0.6820 -0.1361
  836SOL     OW 2506   0.524   2.363   0.659  0.0892 -0.0388 -0.0211
  836SOL    HW1 2507   0.491   2.443   0.613  1.4310 -2.7802  2.4228
  836SOL    HW2 2508   0.559   2.298   0.590  0.6900  1.9792  0.4271
  837SOL     OW 2509   2.326   1.851   2.168 -0.3488 -0.8468 -1.0508
  837SOL    HW1 2510   2.356   1.809   2.258  0.6614  0.4965 -2.6194
  837SOL    HW2 2511   2.286   1.941   2.182 -0.0690 -1.9725 -0.6404
  838SOL     OW 2512   0.107   1.445   1.724  0.4338 -0.6543 -0.1723
  838SOL    HW1 2513   0.115   1.414   1.626  1.0835 -1.5224 -0.1221
  838SOL    HW2 2514   0.025   1.404   1.770 -3.2024  0.5863  1.3254
  839SOL     OW 2515   0.218   0.192   0.295  0.1055  0.4764  0.0616
  839SOL    HW1 2516   0.265   0.220   0.381 -0.0318 -2.6632 -4.5815
  839SOL    HW2 2517   0.168   0.106   0.309 -0.7069 -0.3087 -2.4125
  840SOL     OW 2518   0.044   0.632   2.467 -0.0007  0.1548 -0.0661
  840SOL    HW1 2519   3.082   0.714   2.496 -0.9807  0.2800 -0.3214
  840SOL    HW2 2520   0.039   0.554   2.528 -2.4027  4.1785 -0.9975
  841SOL     OW 2521   0.529   2.387   2.752  0.1539  0.1181  0.3382
  841SOL    HW1 2522   0.452   2.344   2.798  4.1476  2.9060  0.4357
  841SOL    HW2 2523   0.572   2.334   2.677 -2.9451  3.2775  1.9048
  842SOL     OW 2524   0.929   0.071   1.168 -0.6767  1.0964 -0.5224
  842SOL    HW1 2525   0.875   3.085   1.200  1.2245 -0.3121 -1.8899
  842SOL    HW2 2526   0.905   0.081   1.071  0.7541  2.5511 -0.7957
  843SOL     OW 2527   0.470   1.622   2.681 -0.0503  0.5110  0.0573
  843SOL    HW1 2528   0.560   1.657   2.649 -0.1753 -1.3411  1.6657
  843SOL    HW2 2529   0.469   1.519   2.693  3.2977  0.8563  1.3184
  844SOL     OW 2530   1.188   1.818   2.379  0.1954  0.2380 -0.2761
  844SOL    HW1 2531   1.216   1.878   2.304  1.9465  0.5904 -0.5887
  844SOL    HW2 2532   1.276   1.778   2.420  1.4506 -2.0083  0.5057
  845SOL     OW 2533   2.399   2.797   2.839  0.4315  0.5095 -0.4071
  845SOL    HW1 2534   2.418   2.870   2.775 -0.6309  0.8029  0.3262
  845SOL    HW2 2535   2.342   2.721   2.798  0.8090 -1.4604 -0.8478
  846SOL     OW 2536   1.986   1.487   3.038 -0.1607  0.1626 -0.2422
  846SOL    HW1 2537   2.007   1.585   3.027  1.2474  2.1116  0.5900
  846SOL    HW2 2538   1.987   1.459   0.046  3.3570 -0.9824  1.0416
  847SOL     OW 2539   2.427   0.279   2.698 -0.0542  0.3603  0.0387
  847SOL    HW1 2540   2.511   0.293   2.646 -1.4372  2.4736  0.1039
  847SOL    HW2 2541   2.395   0.359   2.751  0.9496 -1.9785 -0.6746
  848SOL     OW 2542   0.033   0.892   3.048 -0.4988  0.4856  0.4238
  848SOL    HW1 2543   0.053   0.982   3.092 -1.2716 -0.7862  0.2926
  848SOL    HW2 2544   3.074   0.830   0.018 -2.2369  0.7733  2.8432
  849SOL     OW 2545   1.317   0.289   2.304  0.2672  0.6106  0.1628
  849SOL    HW1 2546   1.319   0.257   2.402 -0.5072  1.3546 -0.7557
  849SOL    HW2 2547   1.395   0.357   2.286  0.9290  0.3172 -0.8118
  850SOL     OW 2548   2.912   0.991   0.585 -0.0279 -0.1315  0.3530
  850SOL    HW1 2549   2.858   0.925   0.646  1.2603 -2.6072  2.2256
  850SOL    HW2 2550   2.992   1.030   0.633 -1.6151  0.9774 -3.1481
  851SOL     OW 2551   0.372   1.191   0.723 -0.7521  0.0099 -0.4617
  851SOL    HW1 2552   0.310   1.193   0.645  0.8028 -0.1826 -0.8860
  851SOL    HW2 2553   0.462   1.237   0.701  2.6616  1.7173 -1.8452
  852SOL     OW 2554   1.226   1.226   2.049  0.0451 -0.3193  0.3084
  852SOL    HW1 2555   1.179   1.305   2.082  1.7530 -2.6023  0.1253
  852SOL    HW2 2556   1.278   1.246   1.962  0.9184  0.6977 -3.2961
  853SOL     OW 2557   2.138   1.152   0.131  0.1039  0.5981  0.2930
  853SOL    HW1 2558   2.208   1.168   0.060  0.4829 -1.7520  0.4750
  853SOL    HW2 2559   2.081   1.234   0.144  2.5779 -3.7928  1.2588
  854SOL     OW 2560   1.662   1.160   2.155  0.1817  0.3027  0.2174
  854SOL    HW1 2561   1.762   1.158   2.169 -0.7219 -0.3860  1.3859
  854SOL    HW2 2562   1.633   1.144   2.061 -0.9437  3.5626  0.1196
  855SOL     OW 2563   0.396   2.276   2.310  0.4703 -0.1156  0.7042
  855SOL    HW1 2564   0.346   2.273   2.223 -0.8699 -2.0447 -1.6828
  855SOL    HW2 2565   0.470   2.348   2.310  1.4213 -0.6636 -0.0123
  856SOL     OW 2566   1.133   1.023   2.225 -0.5013  0.7793 -0.3545
  856SOL    HW1 2567   1.065   0.958   2.178 -0.5057  0.6645 -0.1538
  856SOL    HW2 2568   1.159   1.098   2.162 -0.8473  1.1773  0.0332
  857SOL     OW 2569   1.103   0.992   2.494  0.7010  0.1308  0.3210
  857SOL    HW1 2570   1.011   1.012   2.538  1.0455 -0.5683  1.4454
  857SOL    HW2 2571   1.090   0.982   2.392 -0.9467  0.0330  1.9910
  858SOL     OW 2572   2.977   0.979   1.828  0.0023 -0.4463 -0.0693
  858SOL    HW1 2573   2.979   1.034   1.746 -1.7758 -2.0240  1.4106
  858SOL    HW2 2574   2.987   0.880   1.798  2.0104 -2.9112 -0.9146
  859SOL     OW 2575   2.505   2.954   0.830  0.1156  0.0273 -0.1836
  859SOL    HW1 2576   2.468   3.053   0.824 -1.0695  2.6115 -0.7187
  859SOL    HW2 2577   2.544   2.937   0.924  1.7583  3.0359 -0.7238
  860SOL     OW 2578   1.624   0.397   1.488  0.1023  0.1689  0.1751
  860SOL    HW1 2579   1.665   0.488   1.502 -2.2647 -4.1888 -1.8926
  860SOL    HW2 2580   1.590   0.389   1.393  0.6436  1.1537  0.1881
  861SOL     OW 2581   1.875   0.562   1.285 -0.6334  0.2773  1.0040
  861SOL    HW1 2582   1.885   0.638   1.214  1.3465 -2.3188 -1.6459
  861SOL    HW2 2583   1.803   0.588   1.355  0.3447  1.9387 -0.6129
  862SOL     OW 2584   1.461   2.986   2.540 -0.0964 -0.3877 -0.5172
  862SOL    HW1 2585   1.399   2.914   2.507  0.2710  2.3334  0.6418
  862SOL    HW2 2586   1.506   2.971   2.629 -0.4985 -0.9322  1.7051
  863SOL     OW 2587   2.833   2.943   1.674 -0.3855  0.3175  0.0812
  863SOL    HW1 2588   2.753   3.002   1.702  1.7633 -0.2222  2.1538
  863SOL    HW2 2589   2.876   2.995   1.598 -0.0520  2.5600  0.2185
  864SOL     OW 2590   2.685   2.764   1.986 -0.2221 -0.0921  0.5569
  864SOL    HW1 2591   2.745   2.749   2.070 -1.0873  1.6212 -0.6101
  864SOL    HW2 2592   2.605   2.821   2.015  1.2531  0.1747  0.7285
  865SOL     OW 2593   1.205   0.998   2.731  0.1837 -0.3925  0.0017
  865SOL    HW1 2594   1.127   0.991   2.796 -0.6387  3.1273  0.3958
  865SOL    HW2 2595   1.178   0.995   2.632 -0.3369  0.8716  1.7196
  866SOL     OW 2596   2.443   0.017   1.161  0.8198 -0.2661 -0.7864
  866SOL    HW1 2597   2.346   3.085   1.141 -0.8499 -1.1106 -1.3669
  866SOL    HW2 2598   2.505   3.042   1.115 -1.0066  2.3820  0.7504
  867SOL     OW 2599   2.874   2.721   0.980  0.0683 -0.4045 -0.0093
  867SOL    HW1 2600   2.962   2.675   0.998 -0.5408  0.1289 -1.0534
  867SOL    HW2 2601   2.873   2.813   1.025  0.6549  0.6557 -0.2523
  868SOL     OW 2602   2.989   1.796   1.301 -0.2181  0.1113 -0.0754
  868SOL    HW1 2603   3.028   1.728   1.236 -0.1142 -0.9355 -1.9344
  868SOL    HW2 2604   2.922   1.745   1.361 -1.2767  0.7099 -0.8671
  869SOL     OW 2605   1.869   1.989   2.444  0.3083  0.0894 -0.7047
  869SOL    HW1 2606   1.815   2.014   2.525  1.0695 -0.8978  0.4263
  869SOL    HW2 2607   1.906   2.066   2.385 -1.0349 -0.3056  1.0152
  870SOL     OW 2608   1.302   0.795   0.693 -0.0129  0.4824 -0.0164
  870SOL    HW1 2609   1.323   0.896   0.690 -3.4474 -1.4238  1.0619
  870SOL    HW2 2610   1.299   0.756   0.790 -1.4291  0.7696  0.5310
  871SOL     OW 2611   2.653   1.779   1.812  0.4640 -0.1700 -0.1737
  871SOL    HW1 2612   2.615   1.823   1.729  0.6469 -0.0439  1.5668
  871SOL    HW2 2613   2.646   1.837   1.894 -0.5403  1.3559  0.7711
  872SOL     OW 2614   0.814   1.612   2.875  0.3146 -0.1488 -0.3124
  872SOL    HW1 2615   0.897   1.655   2.912 -1.9881  0.9483 -0.5565
  872SOL    HW2 2616   0.765   1.565   2.952  0.6230  0.8554  0.8836
  873SOL     OW 2617   0.917   1.387   1.919 -0.1865 -0.0667  0.4952
  873SOL    HW1 2618   0.840   1.448   1.947  0.7843  0.5099 -0.0307
  873SOL    HW2 2619   0.988   1.437   1.864  2.9827  1.3619  2.3813
  874SOL     OW 2620   1.592   0.928   1.367 -0.1722  0.4857 -0.0789
  874SOL    HW1 2621   1.682   0.973   1.377  1.8541  1.5807 -2.9610
  874SOL    HW2 2622   1.573   0.862   1.446  0.3280 -0.2423  1.0858
  875SOL     OW 2623   2.728   3.093   2.557 -0.1075 -0.1854  0.6465
  875SOL    HW1 2624   2.655   3.041   2.604  3.4836 -1.2667  0.0299
  875SOL    HW2 2625   2.787   3.036   2.495  0.8107  1.6542  0.6655
  876SOL     OW 2626   1.022   1.334   0.434  0.0698 -0.3621 -0.0189
  876SOL    HW1 2627   0.953   1.288   0.493 -1.2018 -0.6636 -0.2653
  876SOL    HW2 2628   1.114   1.331   0.472 -0.3498 -0.5380 -1.9024
  877SOL     OW 2629   2.100   2.817   0.566 -0.3041 -0.4833  0.4994
  877SOL    HW1 2630   2.059   2.913   0.558  0.3842  0.9812  2.6543
  877SOL    HW2 2631   2.203   2.838   0.561 -0.4418 -0.1427  0.9115
  878SOL     OW 2632   1.806   2.205   0.086  0.3746 -0.1307 -0.2880
  878SOL    HW1 2633   1.905   2.177   0.087  0.9922  0.0153 -1.6454
  878SOL    HW2 2634   1.763   2.185   0.179 -2.5888 -0.2160  0.2248
  879SOL     OW 2635   0.378   2.074   1.778  0.0828  0.3010 -0.4178
  879SOL    HW1 2636   0.344   2.163   1.739 -3.7068  1.1070 -0.1265
  879SOL    HW2 2637   0.328   2.046   1.866 -0.6238 -0.1812  2.7567
  880SOL     OW 2638   0.224   1.808   0.833  0.0868 -0.0586 -0.3735
  880SOL    HW1 2639   0.220   1.714   0.873  1.2683  1.2628 -0.1908
  880SOL    HW2 2640   0.148   1.827   0.766 -0.2648  0.7166 -0.5254
  881SOL     OW 2641   1.158   0.050   2.301  0.0740 -0.2605  0.5206
  881SOL    HW1 2642   1.153   0.003   2.392  3.9272  1.2569 -2.7432
  881SOL    HW2 2643   1.204   0.138   2.309  2.7931 -1.8271  0.8070
  882SOL     OW 2644   2.572   1.027   0.837 -0.6525 -0.5706 -0.1956
  882SOL    HW1 2645   2.654   0.978   0.798  3.1208 -0.0788 -0.6611
  882SOL    HW2 2646   2.517   0.964   0.901 -0.8702  0.7383  3.9525
  883SOL     OW 2647   1.564   0.464   1.971  0.0562 -0.4491  0.4335
  883SOL    HW1 2648   1.531   0.492   2.060 -0.0843 -1.5839 -2.0225
  883SOL    HW2 2649   1.668   0.466   1.968 -0.1579 -1.5936  0.5054
  884SOL     OW 2650   0.039   0.208   1.707 -0.4797 -0.2063 -0.5068
  884SOL    HW1 2651   0.068   0.162   1.622  0.4182  2.2660  1.3745
  884SOL    HW2 2652   0.094   0.293   1.718 -0.1279 -0.3040 -0.1947
  885SOL     OW 2653   2.117   1.165   2.487  0.2193 -0.1933 -0.0255
  885SOL    HW1 2654   2.128   1.254   2.538  2.0695  2.8988 -0.1571
  885SOL    HW2 2655   2.147   1.175   2.390  1.6083 -3.1017  0.7956
  886SOL     OW 2656   1.952   0.173   2.913  0.5652  0.4878 -0.0086
  886SOL    HW1 2657   1.962   0.233   2.830 -2.2169  0.3811  0.7665
  886SOL    HW2 2658   1.908   0.216   2.994  2.9095 -2.1627  1.7741
  887SOL     OW 2659   1.053   2.889   1.587 -0.1432 -0.1471  0.4567
  887SOL    HW1 2660   1.129   2.909   1.651  0.9117  0.4073 -0.5211
  887SOL    HW2 2661   1.092   2.881   1.490  0.4791  2.6711 -2.1002
  888SOL     OW 2662   2.196   1.648   1.984  0.0622 -0.3787 -0.7372
  888SOL    HW1 2663   2.259   1.695   2.053  1.2671 -0.8226  3.5495
  888SOL    HW2 2664   2.227   1.647   1.892 -1.7755 -1.2351  4.2337
  889SOL     OW 2665   1.900   2.309   1.294 -0.3836 -0.2501  0.8584
  889SOL    HW1 2666   1.997   2.334   1.301 -0.8841 -1.5753 -0.0090
  889SOL    HW2 2667   1.877   2.271   1.204 -1.9030  1.1719  1.3287
  890SOL     OW 2668   1.167   2.005   0.901  0.2855 -0.3187 -0.2872
  890SOL    HW1 2669   1.106   1.985   0.980 -0.1401  2.8919 -2.0588
  890SOL    HW2 2670   1.104   2.001   0.816  0.8140  2.9645 -2.2144
  891SOL     OW 2671   0.051   1.257   0.408 -0.6108  0.2699  0.4284
  891SOL    HW1 2672   0.021   1.179   0.349  0.2076 -1.6166  0.4085
  891SOL    HW2 2673   3.073   1.327   0.412  2.9902  0.1082  0.8797
  892SOL     OW 2674   2.392   1.651   2.937  0.3464 -0.1125 -0.6611
  892SOL    HW1 2675   2.412   1.577   3.008 -1.1740  0.8586  0.2705
  892SOL    HW2 2676   2.310   1.707   2.954  1.9825  0.9118  1.9835
  893SOL     OW 2677   2.135   2.482   1.213  0.0644 -0.5244  0.0304
  893SOL    HW1 2678   2.183   2.568   1.201  0.5050  0.0746  1.4951
  893SOL    HW2 2679   2.171   2.440   1.299 -0.2794  3.6933  2.4706
  894SOL     OW 2680   2.668   0.140   0.784  0.1302  0.3749 -0.1323
  894SOL    HW1 2681   2.719   0.051   0.774 -2.2347  1.6540  0.4622
  894SOL    HW2 2682   2.569   0.125   0.772  0.0272  0.2517  0.6436
  895SOL     OW 2683   2.434   2.514   2.561  0.4094 -0.4055  0.2319
  895SOL    HW1 2684   2.445   2.578   2.484 -1.1189  0.9979  2.0619
  895SOL    HW2 2685   2.525   2.474   2.593  0.7018 -1.6086 -1.0007
  896SOL     OW 2686   2.132   2.795   2.593 -0.2696 -0.5196 -0.1614
  896SOL    HW1 2687   2.202   2.727   2.622 -0.8418  0.5885  0.0562
  896SOL    HW2 2688   2.170   2.892   2.590 -0.8355 -1.2088  0.7316
  897SOL     OW 2689   0.294   1.744   2.053  0.5157  0.0614 -0.6822
  897SOL    HW1 2690   0.262   1.656   2.017 -1.6184  1.2395  0.3204
  897SOL    HW2 2691   0.351   1.722   2.135  1.0519 -1.0286  2.3895
  898SOL     OW 2692   2.876   1.666   1.679 -0.2159 -0.3159 -0.0947
  898SOL    HW1 2693   2.816   1.709   1.750  1.2934  0.1153 -1.2993
  898SOL    HW2 2694   2.969   1.710   1.675 -0.9305 -1.2744 -0.9637
  899SOL     OW 2695   1.795   3.089   1.389 -0.0656 -0.2654  0.1845
  899SOL    HW1 2696   1.760   0.060   1.457 -0.0757  0.5297  0.4119
  899SOL    HW2 2697   1.721   3.022   1.366 -0.9083 -2.9140  0.3816
  900SOL     OW 2698   1.125   0.978   0.409  0.1045  0.7725 -0.1144
  900SOL    HW1 2699   1.115   0.884   0.374 -0.3162 -1.9628  1.1816
  900SOL    HW2 2700   1.187   1.035   0.347 -0.9770 -0.0500 -0.8954
  901SOL     OW 2701   1.003   0.942   2.909 -0.2919  0.3578 -0.8058
  901SOL    HW1 2702   1.009   0.918   3.004 -0.6998  0.6836 -1.8978
  901SOL    HW2 2703   0.919   0.908   2.861 -0.4480  0.7683 -0.7805
  902SOL     OW 2704   2.752   2.346   0.695  0.6726 -0.2836  0.1755
  902SOL    HW1 2705   2.779   2.439   0.731  0.5339  1.3165  2.1925
  902SOL    HW2 2706   2.773   2.278   0.767  0.9271 -1.0493 -0.4943
  903SOL     OW 2707   2.673   1.499   1.920  0.1916  0.3460 -0.3965
  903SOL    HW1 2708   2.668   1.579   1.859 -0.0550  0.2922  1.8176
  903SOL    HW2 2709   2.715   1.531   2.010  1.2141 -1.1946  1.5936
  904SOL     OW 2710   1.580   1.167   0.780 -0.6065  0.4393  0.4073
  904SOL    HW1 2711   1.511   1.113   0.828  1.6542  2.4551 -1.4195
  904SOL    HW2 2712   1.623   1.108   0.708  0.5988 -2.0395  0.8187
  905SOL     OW 2713   2.328   2.598   1.494 -0.6665 -0.7596  0.3297
  905SOL    HW1 2714   2.309   2.691   1.534 -1.2302 -0.3725 -0.9372
  905SOL    HW2 2715   2.426   2.596   1.462  0.9242 -1.3039 -1.2341
  906SOL     OW 2716   1.473   2.416   3.070  0.2417 -0.3277  0.5663
  906SOL    HW1 2717   1.552   2.446   0.031 -2.3834 -1.8937  0.4224
  906SOL    HW2 2718   1.503   2.390   2.976 -1.0575  0.9281  1.2416
  907SOL     OW 2719   0.480   2.835   0.676 -0.1337 -0.2323 -0.5124
  907SOL    HW1 2720   0.530   2.920   0.648  0.0035  0.1149  0.6778
  907SOL    HW2 2721   0.511   2.804   0.770  1.0286  0.5680  3.7142
  908SOL     OW 2722   0.743   0.159   2.034 -0.1371  0.0307 -0.0695
  908SOL    HW1 2723   0.809   0.099   2.076 -2.7904 -0.8773  1.3971
  908SOL    HW2 2724   0.774   0.252   2.063 -0.3384 -0.0483  0.6722
  909SOL     OW 2725   2.248   0.455   1.527 -0.2553  0.0568  0.3529
  909SOL    HW1 2726   2.230   0.355   1.515 -1.3688  1.8789  0.4539
  909SOL    HW2 2727   2.166   0.505   1.498  1.1245  0.0545 -0.5941
  910SOL     OW 2728   1.059   0.742   0.234 -0.0758  0.4113 -0.0173
  910SOL    HW1 2729   0.978   0.690   0.268  0.2633 -0.6653  0.4065
  910SOL    HW2 2730   1.143   0.690   0.255  0.2901 -0.4219 -0.0134
  911SOL     OW 2731   0.090   0.393   3.024  0.5400  0.2629 -0.1574
  911SOL    HW1 2732   0.002   0.411   3.076 -1.1892  0.4722 -2.1517
  911SOL    HW2 2733   0.087   0.300   2.976  0.9764 -2.8735 -3.6400
  912SOL     OW 2734   2.682   2.445   2.661  0.2356 -0.2617 -0.0051
  912SOL    HW1 2735   2.741   2.473   2.741  0.9388 -1.8737  3.3149
  912SOL    HW2 2736   2.742   2.394   2.596 -1.9582  0.9399 -0.0133
  913SOL     OW 2737   2.502   2.386   3.082  0.6744  0.4565 -0.5349
  913SOL    HW1 2738   2.565   2.360   0.063  0.4653  0.0072  0.6002
  913SOL    HW2 2739   2.500   2.486   3.057 -0.3138  0.4878  0.1340
  914SOL     OW 2740   1.801   1.724   1.863 -0.7199  0.0305  0.5418
  914SOL    HW1 2741   1.706   1.723   1.889  1.7798 -0.8452  0.4050
  914SOL    HW2 2742   1.857   1.801   1.906  0.5052 -0.0501 -1.3864
  915SOL     OW 2743   2.993   2.440   2.062  0.5153 -0.2756  0.4706
  915SOL    HW1 2744   3.057   2.423   2.144  1.5569  1.5507  0.8993
  915SOL    HW2 2745   2.895   2.440   2.101  0.4427  2.9086  0.1757
  916SOL     OW 2746   2.983   1.175   1.642  0.0305 -0.6670 -0.2416
  916SOL    HW1 2747   2.938   1.262   1.673 -0.1846 -0.3989  0.3695
  916SOL    HW2 2748   2.983   1.157   1.542  1.5854 -0.2054 -1.8098
  917SOL     OW 2749   2.170   0.092   3.049  0.3303 -0.3000 -0.4997
  917SOL    HW1 2750   2.109   0.069   0.037 -3.0189  1.1039  3.7236
  917SOL    HW2 2751   2.107   0.125   2.976  1.2926 -1.2759  3.2711
  918SOL     OW 2752   1.777   2.656   2.023 -0.6026 -0.0328  0.1384
  918SOL    HW1 2753   1.866   2.613   1.997 -1.4983 -1.0379 -0.8514
  918SOL    HW2 2754   1.773   2.757   2.018  0.5900 -2.1860  1.4578
  919SOL     OW 2755   1.757   2.257   1.766 -0.3390 -0.4060 -0.7535
  919SOL    HW1 2756   1.786   2.223   1.675 -2.1856 -2.9422 -0.0344
  919SOL    HW2 2757   1.781   2.190   1.839 -0.0109 -0.3086  1.3236
  920SOL     OW 2758   0.502   0.838   0.283 -0.0528 -0.7590  0.7287
  920SOL    HW1 2759   0.572   0.875   0.214  2.4312  1.2859 -2.5984
  920SOL    HW2 2760   0.479   0.748   0.246  0.1416  0.8881  0.4373
  921SOL     OW 2761   2.797   1.071   2.583 -0.0057 -0.0781  0.4004
  921SOL    HW1 2762   2.738   1.056   2.664 -2.8681  0.5766 -1.3583
  921SOL    HW2 2763   2.740   1.130   2.526 -0.5475 -0.8016 -0.5416
  922SOL     OW 2764   0.321   2.140   0.178  0.2911  0.4061  0.1243
  922SOL    HW1 2765   0.244   2.095   0.121  0.6061 -0.0534 -0.0278
  922SOL    HW2 2766   0.412   2.094   0.155  0.6271 -0.4482 -1.1118
  923SOL     OW 2767   0.499   0.968   2.295 -0.4227  0.7494  0.6200
  923SOL    HW1 2768   0.421   0.906   2.267 -2.9334  0.4269  1.9124
  923SOL    HW2 2769   0.556   0.917   2.363  1.3287  0.3645  0.0386
  924SOL     OW 2770   1.200   2.900   2.744 -0.1035 -0.3703 -0.3178
  924SOL    HW1 2771   1.134   2.901   2.824 -0.9933 -0.8700  2.1968
  924SOL    HW2 2772   1.290   2.863   2.781  1.9370  0.6998  0.7733
  925SOL     OW 2773   1.853   1.357   0.849 -0.0068 -0.4584  0.5202
  925SOL    HW1 2774   1.771   1.408   0.810 -0.0494  0.7859 -0.4757
  925SOL    HW2 2775   1.866   1.260   0.816 -2.6617  1.0300 -0.2593
  926SOL     OW 2776   1.791   0.746   1.927 -0.0313 -0.1695  0.1538
  926SOL    HW1 2777   1.823   0.695   1.845  0.9756  1.8899  0.4547
  926SOL    HW2 2778   1.687   0.737   1.933  2.6036 -0.2623  2.1244
  927SOL     OW 2779   2.624   2.314   1.777  0.7921  0.3553 -0.3202
  927SOL    HW1 2780   2.716   2.286   1.817 -0.7550  0.9362 -0.6833
  927SOL    HW2 2781   2.620   2.415   1.749  0.5985 -0.3487 -1.4748
  928SOL     OW 2782   0.236   0.950   2.536  0.3154  0.0724 -0.0574
  928SOL    HW1 2783   0.216   0.870   2.591 -0.0234  3.0318  0.6953
  928SOL    HW2 2784   0.333   0.982   2.556 -0.6613  0.1211  1.6893
  929SOL     OW 2785   2.803   2.960   0.727  0.1107 -0.2915  0.6272
  929SOL    HW1 2786   2.737   2.892   0.768  1.0672 -2.6447  2.0414
  929SOL    HW2 2787   2.811   2.942   0.626 -1.3079  0.8157 -0.0811
  930SOL     OW 2788   2.624   0.307   1.550 -0.6284  0.1511 -0.4967
  930SOL    HW1 2789   2.575   0.256   1.476  1.4329  0.0129  0.7012
  930SOL    HW2 2790   2.675   0.384   1.503  1.1643  1.8854 -2.1666
  931SOL     OW 2791   2.349   1.165   3.059  0.1286 -0.2390 -0.2108
  931SOL    HW1 2792   2.363   1.068   3.037 -0.1371 -2.6200  0.7899
  931SOL    HW2 2793   2.279   1.206   2.995  1.8965 -3.7534 -0.9185
  932SOL     OW 2794   2.137   1.608   1.675  0.3508  0.1704 -0.1718
  932SOL    HW1 2795   2.112   1.708   1.682 -1.5533  0.5351 -0.4681
  932SOL    HW2 2796   2.059   1.541   1.665 -1.7592  0.2056  1.4739
  933SOL     OW 2797   0.168   2.783   1.442 -0.4160  0.4577  0.3967
  933SOL    HW1 2798   0.147   2.704   1.375 -1.8986 -2.5082 -2.9357
  933SOL    HW2 2799   0.146   2.760   1.537  1.3983  0.2789  0.4915
  934SOL     OW 2800   0.654   2.410   1.255 -0.0197  0.3482 -0.1690
  934SOL    HW1 2801   0.660   2.338   1.183 -2.2742  1.5396 -0.5586
  934SOL    HW2 2802   0.746   2.433   1.292 -2.2973 -0.3680 -0.8932
  935SOL     OW 2803   2.335   1.397   2.174  0.1397 -0.1728  0.3324
  935SOL    HW1 2804   2.260   1.448   2.129  0.7941  1.9095  0.7737
  935SOL    HW2 2805   2.346   1.313   2.118  1.6922 -0.0015 -0.3055
  936SOL     OW 2806   2.255   1.264   1.731 -0.1502  0.1063 -0.1132
  936SOL    HW1 2807   2.232   1.328   1.659  0.0087  0.1231  0.7645
  936SOL    HW2 2808   2.353   1.281   1.758  1.2087  1.1128  0.3206
  937SOL     OW 2809   2.169   1.019   2.110 -0.1341  0.0845 -0.2960
  937SOL    HW1 2810   2.140   0.930   2.066 -0.8635 -0.6398 -0.3891
  937SOL    HW2 2811   2.200   0.992   2.205  2.6040  1.7652  1.6968
  938SOL     OW 2812   0.771   2.366   2.948 -0.0052  0.5580 -0.2969
  938SOL    HW1 2813   0.858   2.369   3.003 -1.1332  1.0864 -3.3909
  938SOL    HW2 2814   0.745   2.465   2.937 -1.5486  0.0986  1.4691
  939SOL     OW 2815   2.805   0.837   2.976  0.3960 -1.2067 -0.5593
  939SOL    HW1 2816   2.823   0.804   2.884 -2.3544  0.0510  0.2743
  939SOL    HW2 2817   2.868   0.802   3.046  1.3278 -0.6809  1.4028
  940SOL     OW 2818   1.032   1.918   1.132 -0.1478  0.3871  0.6436
  940SOL    HW1 2819   1.046   1.819   1.143 -0.4862 -0.3406 -1.9813
  940SOL    HW2 2820   0.956   1.948   1.189  1.2447 -1.4150 -0.4771
  941SOL     OW 2821   0.635   2.057   1.925 -0.1028 -0.1515  0.0752
  941SOL    HW1 2822   0.542   2.043   1.885  2.5103  1.2149 -1.7501
  941SOL    HW2 2823   0.677   1.965   1.928 -0.7674 -1.4254  1.0563
  942SOL     OW 2824   0.189   1.986   2.872 -0.5738 -0.2756 -0.4446
  942SOL    HW1 2825   0.179   2.034   2.779  1.9194 -3.3791 -2.2696
  942SOL    HW2 2826   0.269   1.917   2.870 -0.2185 -2.6212  0.3702
  943SOL     OW 2827   1.792   2.791   1.764  0.2081 -0.4616 -0.1191
  943SOL    HW1 2828   1.779   2.695   1.786  0.2248  0.2003  2.8589
  943SOL    HW2 2829   1.869   2.794   1.695 -0.0059  1.9637 -4.3586
  944SOL     OW 2830   0.971   1.645   0.176 -0.2026  0.0615 -0.2369
  944SOL    HW1 2831   0.968   1.699   0.087  0.8999  0.6930 -2.4993
  944SOL    HW2 2832   0.887   1.597   0.200  1.5676  2.1086 -1.3872
  945SOL     OW 2833   2.560   2.578   0.876  0.2653 -0.1217  0.0070
  945SOL    HW1 2834   2.651   2.600   0.844 -2.6209 -2.7297  1.5890
  945SOL    HW2 2835   2.504   2.536   0.800  1.0048 -0.0395 -1.1834
  946SOL     OW 2836   0.914   1.390   2.761  0.0459  0.2206  0.0163
  946SOL    HW1 2837   0.999   1.407   2.707  3.2013  1.2034 -2.6777
  946SOL    HW2 2838   0.884   1.480   2.793  1.6544 -2.6509  2.5107
  947SOL     OW 2839   3.065   0.707   2.022  0.7861  0.0834 -0.2991
  947SOL    HW1 2840   3.048   0.801   2.038  0.6728  0.8025 -3.0450
  947SOL    HW2 2841   3.037   0.687   1.926 -1.6018 -0.1129 -2.3951
  948SOL     OW 2842   0.116   1.530   0.581  0.6918 -0.3688 -0.6400
  948SOL    HW1 2843   0.197   1.575   0.535 -0.5336  0.7321  0.2765
  948SOL    HW2 2844   0.144   1.459   0.653 -0.5124  0.3152  2.0773
  949SOL     OW 2845   0.576   0.774   2.518 -0.1645 -0.4061  0.3793
  949SOL    HW1 2846   0.530   0.688   2.532  0.7013 -0.4480  2.2227
  949SOL    HW2 2847   0.672   0.755   2.496 -2.2477  1.5418  0.5286
  950SOL     OW 2848   0.256   0.468   1.367  0.1959 -0.8489 -0.4834
  950SOL    HW1 2849   0.296   0.550   1.411  1.2709 -0.8946  0.6963
  950SOL    HW2 2850   0.303   0.387   1.406  1.3264  1.4179 -2.5022
  951SOL     OW 2851   0.689   1.197   2.672  0.0125  0.0784  0.1196
  951SOL    HW1 2852   0.719   1.250   2.755  3.6374  1.8193 -0.6251
  951SOL    HW2 2853   0.742   1.219   2.588 -1.7080  0.2704 -1.5250
  952SOL     OW 2854   2.000   2.096   0.805 -0.0159  0.2269 -0.0908
  952SOL    HW1 2855   1.941   2.019   0.776  0.0446  1.0661  0.8874
  952SOL    HW2 2856   2.007   2.167   0.733  1.8468  1.6688 -0.9678
  953SOL     OW 2857   0.714   0.655   0.246  0.0835  0.2721  0.4570
  953SOL    HW1 2858   0.740   0.661   0.343  0.0855 -0.7674 -0.1792
  953SOL    HW2 2859   0.623   0.617   0.227  0.5015 -1.0738 -0.1392
  954SOL     OW 2860   2.354   0.365   1.168 -0.0486 -1.3069 -0.3975
  954SOL    HW1 2861   2.443   0.419   1.170 -2.2332  3.1328  0.8423
  954SOL    HW2 2862   2.325   0.343   1.074 -1.6674 -0.4603 -1.5370
  955SOL     OW 2863   1.829   1.129   0.336  0.0290 -0.3146 -0.7470
  955SOL    HW1 2864   1.909   1.087   0.293 -1.9744 -0.3558 -1.3909
  955SOL    HW2 2865   1.766   1.165   0.263 -0.9859  2.2454  0.3715
  956SOL     OW 2866   1.140   0.749   2.114 -0.2852  0.2888  0.3186
  956SOL    HW1 2867   1.141   0.721   2.014 -0.0690 -2.2527  1.8192
  956SOL    HW2 2868   1.233   0.765   2.151 -1.2862 -3.0147  0.5627
  957SOL     OW 2869   1.463   0.480   1.728  0.3801 -0.6892 -0.0931
  957SOL    HW1 2870   1.516   0.467   1.814 -0.3643  0.3228  0.6785
  957SOL    HW2 2871   1.514   0.458   1.646  0.7339 -0.2380  3.5735
  958SOL     OW 2872   0.315   1.934   0.465  0.9310 -0.0279 -0.3996
  958SOL    HW1 2873   0.392   1.986   0.424  1.8024 -2.4027  0.2910
  958SOL    HW2 2874   0.341   1.881   0.551  0.2401 -3.2502  0.5510
  959SOL     OW 2875   2.294   0.983   1.760  0.0523  0.5421 -0.2468
  959SOL    HW1 2876   2.272   1.079   1.792  1.0397  0.9599  1.9638
  959SOL    HW2 2877   2.274   0.918   1.836  1.2086 -1.0009 -0.0672
  960SOL     OW 2878   0.032   1.736   2.892 -0.3160  0.0999 -0.1157
  960SOL    HW1 2879   0.089   1.823   2.902  0.9711  0.9337  0.6549
  960SOL    HW2 2880   0.072   1.661   2.942  0.1941  1.6669 -0.8024
  961SOL     OW 2881   0.573   2.030   1.287 -0.4357 -0.2490  0.3288
  961SOL    HW1 2882   0.493   2.078   1.249  0.4220 -1.7635  0.5659
  961SOL    HW2 2883   0.569   1.926   1.278 -0.6622 -0.7685  1.0257
  962SOL     OW 2884   0.468   1.176   1.010  0.1933 -0.1519  0.0371
  962SOL    HW1 2885   0.405   1.187   0.932  2.3206  1.0191  1.3977
  962SOL    HW2 2886   0.532   1.254   1.015  2.0420 -0.1776  0.7870
  963SOL     OW 2887   1.432   1.725   2.468 -0.0427  0.1003  0.3379
  963SOL    HW1 2888   1.426   1.630   2.444  0.4448  3.2856 -0.4045
  963SOL    HW2 2889   1.521   1.763   2.433 -1.8795 -1.6374  0.2529
  964SOL     OW 2890   0.238   2.866   2.077 -0.2728 -0.7853  0.3370
  964SOL    HW1 2891   0.161   2.812   2.110  2.2491 -1.1278 -0.5470
  964SOL    HW2 2892   0.252   2.951   2.136  1.7191 -1.3773 -0.6603
  965SOL     OW 2893   0.173   2.096   2.628  0.5851 -0.6322 -0.8015
  965SOL    HW1 2894   0.106   2.174   2.622 -1.9786  2.3331  2.9591
  965SOL    HW2 2895   0.178   2.052   2.540 -0.6604  2.1999 -0.2478
  966SOL     OW 2896   2.759   1.646   3.030  0.6458  0.4208 -0.5806
  966SOL    HW1 2897   2.750   1.546   2.998 -2.1028 -1.6779 -1.3444
  966SOL    HW2 2898   2.838   1.668   0.002  1.9804  1.3286 -0.9258
  967SOL     OW 2899   1.979   3.086   0.138 -0.3292  0.1584  0.2220
  967SOL    HW1 2900   1.985   2.993   0.183  0.8035  1.9088  0.3791
  967SOL    HW2 2901   1.889   0.005   0.088  0.2057  0.7519  0.6068
  968SOL     OW 2902   2.593   0.021   0.440  0.5450 -0.2092 -0.7581
  968SOL    HW1 2903   2.630   3.030   0.480  1.9653 -0.8846 -2.7234
  968SOL    HW2 2904   2.496   3.091   0.411 -1.7295  0.9892 -0.8105
  969SOL     OW 2905   0.146   1.125   1.724  0.1776  0.2193  0.0121
  969SOL    HW1 2906   0.175   1.130   1.630  0.7226 -0.2319  1.7988
  969SOL    HW2 2907   0.046   1.144   1.730  4.3901  2.2421  0.2467
  970SOL     OW 2908   1.522   1.834   0.047 -0.1401  0.4797  0.4161
  970SOL    HW1 2909   1.589   1.848   0.125 -2.7076  0.2872  1.4493
  970SOL    HW2 2910   1.437   1.888   0.061  1.4808 -1.2513 -2.2129
  971SOL     OW 2911   2.386   3.059   1.707 -0.3244 -0.1205 -0.1119
  971SOL    HW1 2912   2.484   3.088   1.715  0.4611 -0.4634 -0.7964
  971SOL    HW2 2913   2.336   3.043   1.797 -2.4900 -0.2158 -0.3057
  972SOL     OW 2914   2.884   0.140   1.209  0.8445  0.1703  0.4402
  972SOL    HW1 2915   2.965   0.195   1.183 -2.7496 -0.0340  0.5239
  972SOL    HW2 2916   2.802   0.158   1.148  0.0449  0.4961  1.5620
  973SOL     OW 2917   0.825   0.413   2.417 -0.3900  0.3436 -0.2824
  973SOL    HW1 2918   0.905   0.437   2.361  0.5775 -1.8978  1.2803
  973SOL    HW2 2919   0.800   0.497   2.464 -0.3010 -4.0887 -1.2735
  974SOL     OW 2920   2.582   1.450   2.300  0.4334  0.0907 -0.0616
  974SOL    HW1 2921   2.486   1.434   2.260  0.9231 -2.4195 -1.3203
  974SOL    HW2 2922   2.625   1.531   2.260  1.6258  3.3082 -0.1955
  975SOL     OW 2923   1.171   0.381   1.830  0.1287  0.5547 -0.3883
  975SOL    HW1 2924   1.246   0.361   1.903 -1.4730 -0.0968  1.1736
  975SOL    HW2 2925   1.139   0.296   1.781 -2.5548 -0.4133  1.0594
  976SOL     OW 2926   1.366   1.572   1.406  0.5922  0.2234  0.5851
  976SOL    HW1 2927   1.438   1.641   1.424  3.2673  1.3192  1.3379
  976SOL    HW2 2928   1.399   1.483   1.357 -0.4821 -3.6354  0.2868
  977SOL     OW 2929   0.437   0.126   0.088 -0.1611 -0.1294 -0.3011
  977SOL    HW1 2930   0.353   0.118   0.153 -5.1515  0.4893  0.5213
  977SOL    HW2 2931   0.520   0.148   0.143  1.0904  0.5484 -0.3815
  978SOL     OW 2932   2.352   1.194   2.017  0.1215  0.0173  0.2189
  978SOL    HW1 2933   2.439   1.148   1.998 -0.3570 -1.7272  1.0276
  978SOL    HW2 2934   2.286   1.129   2.065 -0.8422 -0.0336  1.1663
  979SOL     OW 2935   1.478   0.855   1.996 -0.4014  0.0738  0.1290
  979SOL    HW1 2936   1.427   0.866   2.087 -3.4224 -0.9793  0.1622
  979SOL    HW2 2937   1.496   0.949   1.957 -0.4596  7.0121 -0.2251
  980SOL     OW 2938   1.901   1.489   2.416 -0.4994  0.2547  0.1033
  980SOL    HW1 2939   1.840   1.521   2.336 -1.6048 -2.8974 -1.6653
  980SOL    HW2 2940   1.853   1.440   2.491 -0.5831 -0.9915 -1.1691
  981SOL     OW 2941   1.999   0.544   1.792 -0.1826 -0.0920  0.4298
  981SOL    HW1 2942   1.992   0.468   1.720 -0.1514 -2.6615 -1.3608
  981SOL    HW2 2943   2.089   0.584   1.793 -1.4364 -2.0225  0.3128
  982SOL     OW 2944   0.830   0.604   0.011 -0.3102 -0.1974  0.6464
  982SOL    HW1 2945   0.777   0.629   0.100  2.2199  2.9172  2.7541
  982SOL    HW2 2946   0.804   0.666   3.029 -0.0512 -0.7588 -1.0636
  983SOL     OW 2947   2.491   0.701   0.162 -0.0204  0.2642  0.4349
  983SOL    HW1 2948   2.542   0.750   0.234 -0.6553 -0.8810 -0.9466
  983SOL    HW2 2949   2.534   0.613   0.145  1.3413  3.7331 -0.3743
  984SOL     OW 2950   0.899   0.190   2.589  0.1713  0.5678  0.2874
  984SOL    HW1 2951   0.944   0.221   2.676  1.8589  2.1009  2.8496
  984SOL    HW2 2952   0.888   0.266   2.521  0.9980 -0.4897  1.7009
  985SOL     OW 2953   1.585   1.933   2.150  0.6442 -0.1247 -0.3055
  985SOL    HW1 2954   1.595   1.892   2.056 -1.1391  0.3077 -1.3211
  985SOL    HW2 2955   1.602   1.866   2.226  0.5321 -0.2965  3.2067
  986SOL     OW 2956   2.407   2.644   1.870 -0.2484 -0.1942 -0.1562
  986SOL    HW1 2957   2.505   2.652   1.852  0.0716 -2.4478 -1.7419
  986SOL    HW2 2958   2.390   2.653   1.967  0.3215 -0.3600 -1.3392
  987SOL     OW 2959   1.771   1.255   1.098  0.2098  0.1626  0.2482
  987SOL    HW1 2960   1.787   1.315   1.016  2.2666  3.5239 -0.0873
  987SOL    HW2 2961   1.686   1.192   1.087 -1.2614 -1.2551 -0.3068
  988SOL     OW 2962   2.560   1.912   2.060 -0.2406  0.5517  0.1929
  988SOL    HW1 2963   2.633   1.877   2.123  0.4652 -0.4855  0.1642
  988SOL    HW2 2964   2.466   1.878   2.090 -3.6980 -3.1204 -0.5676
  989SOL     OW 2965   1.204   2.391   0.332  0.1924  0.0553 -0.1037
  989SOL    HW1 2966   1.115   2.435   0.305 -2.1505  1.0937 -0.6556
  989SOL    HW2 2967   1.196   2.355   0.430 -0.8101 -2.7038  0.8528
  990SOL     OW 2968   1.943   0.490   2.885  0.0732  0.3536 -0.6652
  990SOL    HW1 2969   2.003   0.567   2.915  1.3405 -0.4321  0.1540
  990SOL    HW2 2970   1.985   0.435   2.813  0.3435  1.2424  1.9232
  991SOL     OW 2971   1.179   0.495   0.863 -0.5697  0.2447 -0.0136
  991SOL    HW1 2972   1.137   0.442   0.788 -1.5687 -0.1830  0.2456
  991SOL    HW2 2973   1.118   0.500   0.948 -0.6819  1.5306 -1.2345
  992SOL     OW 2974   2.618   0.849   1.195  0.2477 -0.7207  0.6231
  992SOL    HW1 2975   2.552   0.919   1.228 -2.0055 -0.0597  0.2290
  992SOL    HW2 2976   2.582   0.801   1.113 -1.4296 -1.6180 -0.4059
  993SOL     OW 2977   2.491   0.681   1.887 -0.3792  0.2717  0.0775
  993SOL    HW1 2978   2.491   0.608   1.818 -2.2357 -0.2792  1.4903
  993SOL    HW2 2979   2.555   0.752   1.859  1.6890  2.2159 -1.7515
  994SOL     OW 2980   1.131   1.459   2.595  0.2790  0.8101  0.2902
  994SOL    HW1 2981   1.184   1.378   2.565  1.6476  0.0674 -1.0603
  994SOL    HW2 2982   1.106   1.517   2.515 -0.1570  1.4576 -2.8475
  995SOL     OW 2983   2.130   1.270   2.924  0.1992  0.6109 -0.1200
  995SOL    HW1 2984   2.061   1.196   2.898 -2.6629 -3.6987  1.4322
  995SOL    HW2 2985   2.080   1.345   2.974 -1.7789 -2.5679 -1.7381
  996SOL     OW 2986   2.106   1.886   0.465 -0.2631  0.3551 -0.6699
  996SOL    HW1 2987   2.006   1.885   0.488  0.7015  0.8176 -0.6673
  996SOL    HW2 2988   2.151   1.795   0.483  1.0022 -2.9825 -0.0530
  997SOL     OW 2989   2.227   0.675   1.842  0.0341 -0.0760  0.1714
  997SOL    HW1 2990   2.174   0.675   1.925  0.1619  5.3628 -3.5877
  997SOL    HW2 2991   2.322   0.699   1.863  1.5512  0.2800  0.3735
  998SOL     OW 2992   2.441   0.755   0.587 -0.1970  0.3353  0.4645
  998SOL    HW1 2993   2.513   0.697   0.623  2.3396  0.8525  0.2251
  998SOL    HW2 2994   2.368   0.773   0.657  0.6672 -0.2767 -2.0964
  999SOL     OW 2995   2.634   1.538   0.317  0.1425  0.1823  0.2608
  999SOL    HW1 2996   2.560   1.593   0.278 -0.2315  0.2202  1.8414
  999SOL    HW2 2997   2.714   1.603   0.336 -1.5833  1.2620 -0.3040
 1000SOL     OW 2998   0.725   0.637   2.062  0.3932  0.3841 -0.2563
 1000SOL    HW1 2999   0.809   0.608   2.112  3.9198  0.1494  0.3162
 1000SOL    HW2 3000   0.645   0.633   2.126 -1.4051  1.4427 -0.7844
   3.09337   3.09337   3.09337
