1000 SPC/Fw water molecules t=  45.00000 step= 45000
 3000
    1SOL     OW    1   2.036   2.642   0.665  0.4945  0.7140 -0.3144
    1SOL    HW1    2   2.015   2.566   0.604  1.4515  1.8326 -2.5988
    1SOL    HW2    3   2.014   2.729   0.621  2.1045  1.3643 -0.3409
    2SOL     OW    4   1.332   0.765   2.234  0.4884  0.2139  0.0070
    2SOL    HW1    5   1.428   0.725   2.246 -2.4302  0.1865 -0.7671
    2SOL    HW2    6   1.288   0.774   2.324  1.6261 -2.0458 -0.0604
    3SOL     OW    7   1.179   2.832   2.801  0.2213 -0.5870  0.4094
    3SOL    HW1    8   1.252   2.794   2.860 -3.3465  1.0996 -1.7888
    3SOL    HW2    9   1.119   2.754   2.765 -1.2086  0.2147 -0.6805
    4SOL     OW   10   1.225   1.462   2.814  0.3534 -0.7203  0.5358
    4SOL    HW1   11   1.312   1.415   2.780  2.1516 -1.9591 -3.8493
    4SOL    HW2   12   1.245   1.540   2.876  1.1594  2.8837  0.5111
    5SOL     OW   13   1.025   1.065   2.231 -0.4899  0.4088  0.1539
    5SOL    HW1   14   0.954   1.004   2.187  0.6911 -1.8641  1.1696
    5SOL    HW2   15   1.008   1.163   2.225  0.0778 -0.9079 -0.3405
    6SOL     OW   16   2.152   0.739   2.472 -0.1493 -0.9111 -0.4598
    6SOL    HW1   17   2.185   0.660   2.408  1.0905 -0.8360 -0.7552
    6SOL    HW2   18   2.192   0.725   2.566  0.1402  2.2329  0.5297
    7SOL     OW   19   0.423   0.821   1.608 -0.2412 -0.2029  0.4078
    7SOL    HW1   20   0.405   0.790   1.515 -1.8915 -1.6624  0.8275
    7SOL    HW2   21   0.430   0.735   1.667  0.1714 -1.5316 -1.1018
    8SOL     OW   22   1.902   2.948   1.902  0.1885 -0.4941 -0.0693
    8SOL    HW1   23   1.800   2.947   1.916 -0.6043 -0.0939 -1.8568
    8SOL    HW2   24   1.934   3.027   1.852 -2.4437 -0.7099  2.7110
    9SOL     OW   25   0.363   0.032   0.660 -0.7560 -0.7508  0.3921
    9SOL    HW1   26   0.436   0.104   0.680 -1.0683  1.7167  0.3054
    9SOL    HW2   27   0.272   0.067   0.683  1.2178 -1.1779  0.3357
   10SOL     OW   28   0.097   2.301   2.542  0.2018 -0.6045 -0.5040
   10SOL    HW1   29   0.046   2.222   2.501  1.0527 -1.1948  1.7678
   10SOL    HW2   30   0.113   2.288   2.639 -0.4884 -1.9710 -1.5939
   11SOL     OW   31   0.784   1.583   2.924 -0.1014  0.0236  0.2646
   11SOL    HW1   32   0.698   1.559   2.972 -1.9887 -1.7100 -2.9033
   11SOL    HW2   33   0.849   1.502   2.916  0.2850 -0.1893 -0.6723
   12SOL     OW   34   2.422   2.471   1.243 -0.5043 -0.3702  0.3489
   12SOL    HW1   35   2.408   2.522   1.157 -0.2594  0.4276  0.8263
   12SOL    HW2   36   2.331   2.431   1.273  0.1269 -0.9311  0.1457
   13SOL     OW   37   0.544   2.818   2.926  0.1076  0.5061 -0.0048
   13SOL    HW1   38   0.592   2.887   2.981 -1.6410 -1.2649 -1.9701
   13SOL    HW2   39   0.584   2.727   2.935 -2.9674 -1.4765  1.2221
   14SOL     OW   40   1.283   1.676   1.474 -0.6835 -0.0420 -0.3491
   14SOL    HW1   41   1.241   1.604   1.532 -0.9946  0.0134 -0.4868
   14SOL    HW2   42   1.364   1.712   1.517 -1.3844 -2.2948 -1.1417
   15SOL     OW   43   0.356   1.437   2.308 -0.7508  0.4990 -0.5718
   15SOL    HW1   44   0.373   1.505   2.237  1.6646 -1.5732 -1.2209
   15SOL    HW2   45   0.257   1.424   2.326  1.2124 -0.1303  0.8510
   16SOL     OW   46   1.721   0.718   2.704  0.3976  0.0274  0.6766
   16SOL    HW1   47   1.657   0.697   2.780  0.2898  1.0120  0.3585
   16SOL    HW2   48   1.704   0.816   2.694  0.2563 -0.7464 -1.5753
   17SOL     OW   49   3.117   2.802   2.464  0.2313  0.2732  0.4142
   17SOL    HW1   50   3.105   2.788   2.560  0.1129 -0.6124 -0.4280
   17SOL    HW2   51   0.089   2.780   2.447 -0.7350  0.3870  0.8338
   18SOL     OW   52   1.430   0.931   0.634  0.0951 -0.3202  0.0246
   18SOL    HW1   53   1.348   0.985   0.618  0.9068  1.5301  0.7312
   18SOL    HW2   54   1.501   0.992   0.671 -0.4478  0.1706 -1.2277
   19SOL     OW   55   3.033   1.681   2.320 -0.2640 -0.5957 -0.2165
   19SOL    HW1   56   3.074   1.735   2.238  0.6531 -1.2541 -0.6431
   19SOL    HW2   57   3.109   1.661   2.385  0.9620  0.8957  1.7933
   20SOL     OW   58   2.350   2.411   2.525 -0.3125  0.1815  0.3709
   20SOL    HW1   59   2.246   2.411   2.507 -1.3808 -3.9996  0.3507
   20SOL    HW2   60   2.399   2.494   2.499 -0.9664 -1.1719 -2.3362
   21SOL     OW   61   1.624   1.926   0.740 -0.0446  0.4498 -0.4618
   21SOL    HW1   62   1.700   1.963   0.689 -2.5512 -2.3076 -0.5097
   21SOL    HW2   63   1.611   1.972   0.828  2.4275  1.0509 -0.9024
   22SOL     OW   64   2.371   1.973   1.304 -0.5567  0.5707 -0.2383
   22SOL    HW1   65   2.449   1.901   1.302  2.5204 -2.3556  1.2790
   22SOL    HW2   66   2.286   1.938   1.276  2.9082  1.2717  1.9692
   23SOL     OW   67   3.047   1.288   1.300 -0.2640 -0.1457  0.0034
   23SOL    HW1   68   0.020   1.309   1.276  1.6474  0.1142 -0.6877
   23SOL    HW2   69   2.991   1.370   1.269  1.3527  3.4490 -2.3527
   24SOL     OW   70   2.070   1.336   1.989  0.4952  0.9435  0.6129
   24SOL    HW1   71   2.008   1.386   2.052  0.0966  3.8529 -1.3753
   24SOL    HW2   72   2.166   1.362   2.003  0.4287 -1.0756 -1.5501
   25SOL     OW   73   1.788   3.073   2.356 -0.1003 -0.3779 -0.1584
   25SOL    HW1   74   1.855   0.019   2.387  0.4021 -0.2665 -0.5422
   25SOL    HW2   75   1.831   3.014   2.285 -0.8079 -1.2570 -0.1415
   26SOL     OW   76   0.798   0.425   0.428 -0.1157  0.3496  0.1284
   26SOL    HW1   77   0.737   0.413   0.349 -0.2360 -0.6296  1.2439
   26SOL    HW2   78   0.887   0.460   0.399  1.2195 -0.3807  1.6512
   27SOL     OW   79   0.949   1.468   0.864  0.7152  0.4679 -0.3917
   27SOL    HW1   80   0.871   1.500   0.806  1.2194 -1.0098 -0.3131
   27SOL    HW2   81   0.960   1.526   0.945  2.6090  1.3762  0.4806
   28SOL     OW   82   2.238   2.189   0.888 -0.2370 -0.1224  0.0301
   28SOL    HW1   83   2.281   2.191   0.983  0.4665 -1.5988 -0.0473
   28SOL    HW2   84   2.303   2.240   0.826  0.6508  1.0817  1.4549
   29SOL     OW   85   2.284   3.088   2.050 -0.2121  0.6288  0.2013
   29SOL    HW1   86   2.262   0.026   1.972 -4.5138  1.7510 -1.5738
   29SOL    HW2   87   2.364   3.033   2.023 -2.1852  2.5324 -2.0034
   30SOL     OW   88   0.246   2.797   1.550  0.1829 -0.3198  0.6125
   30SOL    HW1   89   0.221   2.700   1.546 -0.3334  1.2460 -3.0370
   30SOL    HW2   90   0.213   2.834   1.462 -2.4615  1.7180 -0.9611
   31SOL     OW   91   3.116   1.864   2.143  0.3945  0.1872  0.8406
   31SOL    HW1   92   3.084   1.959   2.163 -0.2048  3.0665  3.1069
   31SOL    HW2   93   0.038   1.865   2.054  0.7959  0.9225 -0.4509
   32SOL     OW   94   1.602   2.434   2.324 -0.4942 -0.1157  0.1989
   32SOL    HW1   95   1.566   2.520   2.288  2.0708 -0.9086  2.8934
   32SOL    HW2   96   1.600   2.432   2.425 -0.1909 -0.7064 -0.1134
   33SOL     OW   97   0.406   0.132   2.851  0.3767  0.7407 -0.0127
   33SOL    HW1   98   0.478   0.107   2.788 -2.6321 -0.8649  0.2642
   33SOL    HW2   99   0.325   0.073   2.835 -0.2943 -2.1598 -1.5612
   34SOL     OW  100   2.598   0.054   0.277 -0.0801 -0.1874  0.5430
   34SOL    HW1  101   2.674   0.075   0.343 -3.1172  1.0849 -0.8620
   34SOL    HW2  102   2.505   0.090   0.312  2.1743 -0.9309 -2.4520
   35SOL     OW  103   2.814   3.069   1.674  0.0594  0.9849 -0.2871
   35SOL    HW1  104   2.883   0.012   1.637  2.3207  1.3617 -0.7304
   35SOL    HW2  105   2.725   3.081   1.635  2.7996  0.9331  0.6107
   36SOL     OW  106   2.662   3.116   2.358  0.2294 -0.5092  0.6716
   36SOL    HW1  107   2.672   0.025   2.455 -1.2077  0.1612  0.6426
   36SOL    HW2  108   2.675   0.074   2.289  1.1675  0.5962 -0.5784
   37SOL     OW  109   1.466   0.008   3.106 -0.0782  0.2631  0.7186
   37SOL    HW1  110   1.538   0.052   0.036  0.1275 -0.9932 -0.6525
   37SOL    HW2  111   1.410   3.070   0.033  0.1941  1.2503 -2.9628
   38SOL     OW  112   0.193   0.595   0.019  0.2469  0.2317 -0.4131
   38SOL    HW1  113   0.098   0.575   3.115 -0.1179 -0.7657 -1.1688
   38SOL    HW2  114   0.244   0.639   3.068  0.6368  0.4588  0.5187
   39SOL     OW  115   1.274   1.952   2.099  0.7112  0.8954 -0.1107
   39SOL    HW1  116   1.233   1.870   2.057  1.8229  2.8920 -0.0963
   39SOL    HW2  117   1.258   1.953   2.199 -3.3004 -1.3847 -1.3696
   40SOL     OW  118   0.365   0.468   2.543 -0.2531  0.8820  0.8185
   40SOL    HW1  119   0.443   0.515   2.500 -0.2605  1.7459 -0.6128
   40SOL    HW2  120   0.363   0.369   2.521 -1.7005  1.6428 -0.0291
   41SOL     OW  121   1.716   1.132   2.101 -0.1779 -0.0040 -0.3680
   41SOL    HW1  122   1.779   1.130   2.022 -0.1471  0.8831  0.6600
   41SOL    HW2  123   1.748   1.188   2.180 -2.3545 -2.3972 -2.0241
   42SOL     OW  124   3.030   0.123   1.590  0.2209 -0.2906 -0.5013
   42SOL    HW1  125   2.999   0.219   1.576  0.9433  2.7721  0.4633
   42SOL    HW2  126   3.073   0.121   1.685 -0.6484 -1.1795  1.5664
   43SOL     OW  127   1.288   1.317   1.884  0.9983 -0.6198  0.4069
   43SOL    HW1  128   1.385   1.313   1.890 -1.2497  0.8758 -2.0401
   43SOL    HW2  129   1.248   1.237   1.925 -1.0685 -1.1633  2.7520
   44SOL     OW  130   3.095   0.129   3.112  0.6356  0.1409 -0.2769
   44SOL    HW1  131   0.065   0.107   3.117 -1.8817  0.6073  0.6764
   44SOL    HW2  132   3.042   0.045   0.005 -1.0337  0.4108  0.9537
   45SOL     OW  133   0.275   2.100   1.617 -0.6913 -0.4765  0.0941
   45SOL    HW1  134   0.271   2.160   1.533  0.3635  0.4179 -2.3317
   45SOL    HW2  135   0.354   2.133   1.677  2.5687 -0.5334 -0.0336
   46SOL     OW  136   2.509   2.946   1.970  1.0126  0.2199  0.3027
   46SOL    HW1  137   2.581   3.015   1.969 -1.5114 -1.0982  1.4416
   46SOL    HW2  138   2.550   2.853   1.979  2.1157 -0.2067  0.0537
   47SOL     OW  139   0.555   1.970   1.266  0.1386  0.2663 -0.5003
   47SOL    HW1  140   0.536   1.870   1.285 -0.9350  0.8306  0.3459
   47SOL    HW2  141   0.500   2.003   1.185 -1.9546  1.1811 -0.9006
   48SOL     OW  142   0.686   2.600   2.950  0.0747  0.2255  0.7412
   48SOL    HW1  143   0.702   2.530   2.876 -0.3118 -0.2208 -0.3636
   48SOL    HW2  144   0.737   2.566   3.029  0.3254 -1.9181  0.2877
   49SOL     OW  145   2.778   1.618   1.741  0.5817  0.2876 -1.0362
   49SOL    HW1  146   2.825   1.558   1.805 -1.2823  2.9815 -0.0900
   49SOL    HW2  147   2.794   1.584   1.645 -2.3755 -0.7561  1.6480
   50SOL     OW  148   1.459   2.789   0.680 -0.0511  0.5377  0.7019
   50SOL    HW1  149   1.494   2.718   0.749 -0.1980  0.0363  1.2725
   50SOL    HW2  150   1.416   2.864   0.731  0.0643  0.2433 -1.9905
   51SOL     OW  151   1.021   3.003   1.094 -0.3034 -0.8493 -0.2149
   51SOL    HW1  152   1.119   3.026   1.107  4.6187  0.8277 -0.1885
   51SOL    HW2  153   0.967   3.082   1.064  0.1239  0.9136 -3.7392
   52SOL     OW  154   0.694   1.200   0.416  0.5200 -0.0557 -0.3029
   52SOL    HW1  155   0.681   1.169   0.319 -0.5119  1.0352  0.8112
   52SOL    HW2  156   0.650   1.132   0.479  1.9215 -2.2498  0.4640
   53SOL     OW  157   1.245   2.872   2.542 -0.4094 -0.2183  0.2594
   53SOL    HW1  158   1.346   2.845   2.548  1.3537 -0.0254  0.9642
   53SOL    HW2  159   1.211   2.861   2.631  1.9639 -1.4816 -5.5491
   54SOL     OW  160   1.930   0.463   1.741  0.1289 -0.1023  0.2581
   54SOL    HW1  161   1.835   0.480   1.711  2.1713 -2.8849  0.3209
   54SOL    HW2  162   1.966   0.378   1.701 -1.3025  0.3049  2.0723
   55SOL     OW  163   0.016   2.537   0.565  0.5864  0.6199 -0.0249
   55SOL    HW1  164   3.111   2.633   0.547 -1.6853  1.0100  2.6817
   55SOL    HW2  165   0.098   2.506   0.508  0.0439  0.8856  2.6803
   56SOL     OW  166   0.965   2.869   1.741  0.0055  0.6093  0.2372
   56SOL    HW1  167   0.940   2.958   1.784  0.9622 -0.6071 -1.9589
   56SOL    HW2  168   0.881   2.808   1.730 -1.5638  1.8040 -0.7947
   57SOL     OW  169   1.982   0.949   2.409 -0.3358  0.3246  0.5369
   57SOL    HW1  170   2.044   0.869   2.435 -0.5066 -1.2567  0.8984
   57SOL    HW2  171   2.015   0.984   2.320  2.1451 -0.1804  0.3246
   58SOL     OW  172   0.197   0.958   2.131  0.2323 -0.6354  0.2547
   58SOL    HW1  173   0.188   0.861   2.146  1.1545  3.4894  0.5391
   58SOL    HW2  174   0.121   0.987   2.069 -0.0868  1.5765 -0.3297
   59SOL     OW  175   0.970   2.419   1.879 -0.1954  0.0665 -0.0173
   59SOL    HW1  176   0.944   2.436   1.783 -0.5634 -1.6030 -0.3349
   59SOL    HW2  177   1.061   2.458   1.907  1.7558  1.5518 -1.3741
   60SOL     OW  178   2.329   2.513   0.228 -0.1512 -0.0486  0.3104
   60SOL    HW1  179   2.368   2.513   0.138  1.9528  1.2148  0.8687
   60SOL    HW2  180   2.323   2.610   0.264  2.5907  2.2730 -1.6763
   61SOL     OW  181   1.472   2.406   0.665 -0.2232  0.1487  0.0775
   61SOL    HW1  182   1.476   2.504   0.692  0.9265  0.3536 -1.9220
   61SOL    HW2  183   1.456   2.343   0.741  0.5038 -2.4675 -0.3080
   62SOL     OW  184   1.587   2.927   2.982  0.0645  0.4349  0.0184
   62SOL    HW1  185   1.651   2.890   3.047 -0.4772  1.0967 -1.6540
   62SOL    HW2  186   1.545   3.015   3.017 -3.0356 -0.9914  1.4927
   63SOL     OW  187   2.343   0.614   3.071  0.4220 -0.0539  0.2271
   63SOL    HW1  188   2.359   0.655   0.040  2.2121  1.1868  2.9199
   63SOL    HW2  189   2.434   0.603   3.024 -2.2082  2.2675 -0.1418
   64SOL     OW  190   1.353   0.952   3.013 -0.2408 -0.1415 -0.2173
   64SOL    HW1  191   1.286   0.893   2.967 -0.0156  0.2492  0.4762
   64SOL    HW2  192   1.309   1.007   3.083  1.1950  0.8161 -2.0881
   65SOL     OW  193   0.642   2.872   1.532 -0.2187 -0.7797  0.3624
   65SOL    HW1  194   0.722   2.818   1.509  1.6427 -2.3035 -1.7951
   65SOL    HW2  195   0.561   2.847   1.474 -1.1756  0.6142 -0.0821
   66SOL     OW  196   0.896   1.047   1.481  0.4141 -0.4376 -0.0521
   66SOL    HW1  197   0.983   1.056   1.429 -1.5144 -1.0118  0.8797
   66SOL    HW2  198   0.815   1.059   1.419  0.0510  0.6190 -1.2420
   67SOL     OW  199   2.191   2.311   1.870  0.2564 -0.0686 -0.0226
   67SOL    HW1  200   2.185   2.404   1.908 -2.4473  0.1023 -0.0280
   67SOL    HW2  201   2.221   2.313   1.772 -1.1684 -0.2624  1.1723
   68SOL     OW  202   0.883   1.402   2.105 -0.2841  0.1488 -0.3816
   68SOL    HW1  203   0.799   1.445   2.150 -2.0547  1.1228  1.1697
   68SOL    HW2  204   0.884   1.408   2.003  0.3805 -1.0492  0.0089
   69SOL     OW  205   2.808   2.630   0.334 -0.5325 -0.0742 -0.7513
   69SOL    HW1  206   2.883   2.688   0.290  0.0446 -0.8504 -1.5056
   69SOL    HW2  207   2.748   2.697   0.387  1.4147 -0.3929  0.0624
   70SOL     OW  208   2.507   0.710   2.306  0.5134  0.6253  0.0024
   70SOL    HW1  209   2.527   0.800   2.347  0.9182  0.2504  0.1960
   70SOL    HW2  210   2.589   0.651   2.315 -2.8399  0.3753 -1.0369
   71SOL     OW  211   0.504   1.978   0.851  0.0462  0.3210  0.2502
   71SOL    HW1  212   0.443   1.950   0.930  1.7997 -0.9970  1.3363
   71SOL    HW2  213   0.479   2.075   0.815  0.6842  0.1830  0.5914
   72SOL     OW  214   2.520   1.867   0.663  0.8654 -0.2841  0.3023
   72SOL    HW1  215   2.484   1.828   0.574 -1.0603 -0.8428 -1.7040
   72SOL    HW2  216   2.526   1.969   0.663 -0.5518  1.1399  0.5257
   73SOL     OW  217   1.168   0.387   0.598  0.2275 -0.0645 -0.5275
   73SOL    HW1  218   1.139   0.447   0.520  0.9366  0.1569  1.9419
   73SOL    HW2  219   1.198   0.448   0.676  0.1735 -0.6254 -0.9761
   74SOL     OW  220   2.704   2.239   1.961  0.3662  0.3490  0.4051
   74SOL    HW1  221   2.651   2.190   2.032 -0.5556 -0.9314 -0.9189
   74SOL    HW2  222   2.643   2.287   1.888 -0.5620  0.1680  0.1636
   75SOL     OW  223   1.391   1.764   1.873  0.0697  0.3576  0.0515
   75SOL    HW1  224   1.390   1.864   1.897  1.7975  3.3669 -0.6196
   75SOL    HW2  225   1.434   1.715   1.951 -0.1121 -0.6676 -0.0001
   76SOL     OW  226   1.066   1.815   1.157 -0.2432  0.2071  0.1783
   76SOL    HW1  227   1.164   1.778   1.156  2.9382 -0.9246 -0.7106
   76SOL    HW2  228   1.001   1.740   1.170  0.3161  0.2518  2.0423
   77SOL     OW  229   2.773   1.339   1.834  0.1796  0.1939  0.5922
   77SOL    HW1  230   2.786   1.372   1.933  0.0907 -0.2748 -0.5759
   77SOL    HW2  231   2.862   1.323   1.794  0.0076 -0.4787  2.0079
   78SOL     OW  232   1.743   0.743   0.397  0.3771  0.3855  0.1762
   78SOL    HW1  233   1.720   0.643   0.389 -3.4674 -1.2296 -0.4504
   78SOL    HW2  234   1.732   0.768   0.498  0.1306 -2.6075  1.5437
   79SOL     OW  235   1.523   1.656   2.085  0.4368 -0.5236 -0.0875
   79SOL    HW1  236   1.614   1.637   2.044  1.3376 -0.8769  0.3550
   79SOL    HW2  237   1.491   1.583   2.143 -0.8867  2.7512 -1.3230
   80SOL     OW  238   0.991   0.512   1.792 -0.1831  0.0275 -0.2183
   80SOL    HW1  239   1.031   0.440   1.730 -0.0509 -2.2964  2.2014
   80SOL    HW2  240   1.068   0.536   1.856  0.3322 -0.6116  0.5809
   81SOL     OW  241   0.813   2.319   0.486  0.1729 -0.1816 -0.2491
   81SOL    HW1  242   0.820   2.398   0.426  0.9511 -2.6315  1.5065
   81SOL    HW2  243   0.912   2.278   0.484  3.2903 -1.5397  1.1912
   82SOL     OW  244   1.237   0.538   1.914 -0.7881  0.0728 -0.3144
   82SOL    HW1  245   1.307   0.562   1.841 -0.4512 -0.2411 -0.4906
   82SOL    HW2  246   1.283   0.484   1.989 -1.0825 -0.1618 -1.5957
   83SOL     OW  247   0.460   2.226   0.762 -0.0825 -0.4311  0.2462
   83SOL    HW1  248   0.511   2.300   0.811  0.2869 -2.1772 -0.1446
   83SOL    HW2  249   0.431   2.255   0.669  2.1064 -1.6454 -1.7409
   84SOL     OW  250   2.826   1.566   0.625  0.4197  0.4686  0.2449
   84SOL    HW1  251   2.857   1.471   0.610 -0.0238 -0.0962  2.6418
   84SOL    HW2  252   2.729   1.573   0.657 -0.4475  2.3154 -3.3807
   85SOL     OW  253   2.389   2.018   1.574  0.5050 -0.0969  0.0865
   85SOL    HW1  254   2.433   2.010   1.483  0.2537 -0.8692  0.4871
   85SOL    HW2  255   2.447   1.980   1.648  0.4747  1.2434 -0.3513
   86SOL     OW  256   1.426   2.359   1.191 -0.1724 -0.1077  0.7124
   86SOL    HW1  257   1.487   2.355   1.111 -0.0181 -0.7883  0.7183
   86SOL    HW2  258   1.475   2.411   1.262 -0.4361  0.9769  1.3244
   87SOL     OW  259   2.358   1.452   0.612  1.0520 -0.5057  0.8317
   87SOL    HW1  260   2.258   1.462   0.602 -0.1385 -0.1411  0.3571
   87SOL    HW2  261   2.406   1.465   0.526 -1.4806 -0.6714  0.4127
   88SOL     OW  262   0.823   0.041   1.000  0.0418  0.3750 -0.5628
   88SOL    HW1  263   0.758   0.012   0.925  1.5921  0.3141 -1.7693
   88SOL    HW2  264   0.877   0.124   0.968  0.6056 -0.3917  0.4682
   89SOL     OW  265   0.790   0.160   1.732  0.0074  0.9707 -0.0318
   89SOL    HW1  266   0.755   0.246   1.692 -2.0817 -0.8327  0.9070
   89SOL    HW2  267   0.722   0.124   1.798  0.7399 -1.4783  0.1171
   90SOL     OW  268   0.194   2.071   0.482  0.2825  0.0169  0.5164
   90SOL    HW1  269   0.183   2.080   0.581 -0.7985 -1.8639  0.5677
   90SOL    HW2  270   0.211   1.976   0.457 -3.0526  0.7944  2.4403
   91SOL     OW  271   0.879   1.629   1.148 -0.1968  0.3215 -0.2346
   91SOL    HW1  272   0.777   1.610   1.146  1.4222 -0.9311  0.0642
   91SOL    HW2  273   0.919   1.553   1.197  1.7821  1.6318 -0.5062
   92SOL     OW  274   2.500   2.907   1.531  0.0419 -0.1854  0.8408
   92SOL    HW1  275   2.544   2.995   1.525 -2.3454 -4.5058  1.5662
   92SOL    HW2  276   2.570   2.839   1.562  0.4290  0.9751  0.4635
   93SOL     OW  277   0.407   1.171   2.760  0.3901 -0.4312 -0.3798
   93SOL    HW1  278   0.466   1.244   2.791  0.5794  2.3090 -0.1348
   93SOL    HW2  279   0.416   1.157   2.661 -0.1921  2.9455 -1.4490
   94SOL     OW  280   2.690   0.053   1.960 -0.0489  0.3186 -0.3625
   94SOL    HW1  281   2.704   0.120   2.037 -1.2470 -0.5431  0.5376
   94SOL    HW2  282   2.768   3.112   1.944  4.3929 -3.4367  2.7421
   95SOL     OW  283   1.985   0.749   1.810  0.1890 -0.3750 -0.5084
   95SOL    HW1  284   1.892   0.790   1.786  0.5098 -0.9825  0.0620
   95SOL    HW2  285   1.980   0.653   1.781 -2.2570 -3.0814  1.7978
   96SOL     OW  286   2.925   0.361   1.894 -0.2600 -0.6252  0.2858
   96SOL    HW1  287   2.827   0.389   1.904 -0.1801  0.9233  3.8216
   96SOL    HW2  288   2.982   0.434   1.845  2.2912  1.2102 -0.5907
   97SOL     OW  289   2.400   0.150   1.380  0.1781 -0.0308  0.0689
   97SOL    HW1  290   2.304   0.157   1.351  1.6117 -0.0026  0.8390
   97SOL    HW2  291   2.447   0.075   1.335 -2.2683  0.4634  2.2229
   98SOL     OW  292   2.072   2.640   1.587 -0.2192 -0.4903 -0.2738
   98SOL    HW1  293   2.105   2.700   1.661  1.4901 -1.2871  1.1990
   98SOL    HW2  294   1.982   2.596   1.610 -0.6853  0.3150 -1.1608
   99SOL     OW  295   0.000   0.651   1.015  0.1180  0.6525 -0.0330
   99SOL    HW1  296   3.124   0.663   1.116 -0.4021 -1.3857 -0.0140
   99SOL    HW2  297   0.071   0.712   0.978 -1.5672 -0.5313  3.9105
  100SOL     OW  298   2.465   1.887   1.803 -0.1107  0.3290  0.2114
  100SOL    HW1  299   2.421   1.960   1.863  0.4261  0.7059  0.5611
  100SOL    HW2  300   2.553   1.861   1.841  0.4753  2.0609 -1.0172
  101SOL     OW  301   2.193   0.198   0.049 -0.0145 -0.1925  0.0567
  101SOL    HW1  302   2.269   0.268   0.068 -1.7350 -0.0637 -0.1205
  101SOL    HW2  303   2.195   0.156   3.082 -1.9997  2.4952 -0.0083
  102SOL     OW  304   0.754   0.415   1.290  0.2530  0.7255  0.2135
  102SOL    HW1  305   0.762   0.386   1.388 -1.3995 -1.3561 -2.8891
  102SOL    HW2  306   0.687   0.362   1.243  2.5606  0.1199  2.2498
  103SOL     OW  307   2.986   0.045   2.645 -0.6447  0.1212 -0.1603
  103SOL    HW1  308   3.000   0.000   2.732 -0.6958  2.8190 -0.4485
  103SOL    HW2  309   3.051   0.017   2.570 -0.2946  0.1544  0.0635
  104SOL     OW  310   0.360   2.197   1.370  0.1770 -0.4826  0.7038
  104SOL    HW1  311   0.423   2.118   1.381  1.2396  2.9320 -1.1252
  104SOL    HW2  312   0.419   2.278   1.354 -0.9362 -1.1200  1.4973
  105SOL     OW  313   0.617   1.724   2.038  0.1191  0.2833 -0.3178
  105SOL    HW1  314   0.705   1.766   2.075 -0.8927  0.7806 -0.4243
  105SOL    HW2  315   0.626   1.717   1.939 -0.8434 -1.5294 -0.3706
  106SOL     OW  316   1.807   0.538   0.666 -0.5732 -0.6810 -0.6251
  106SOL    HW1  317   1.815   0.633   0.699 -0.1897  0.2227 -1.8550
  106SOL    HW2  318   1.719   0.494   0.685  0.9294  0.2436 -0.7652
  107SOL     OW  319   0.710   1.073   1.306 -0.1207  0.5044 -0.0782
  107SOL    HW1  320   0.644   1.013   1.267  1.1093  2.4293 -1.9326
  107SOL    HW2  321   0.694   1.168   1.269  0.7574 -2.1296 -0.3962
  108SOL     OW  322   2.824   0.804   2.174 -0.5080  0.6014  0.5251
  108SOL    HW1  323   2.900   0.774   2.107  0.3000  0.8116 -2.7670
  108SOL    HW2  324   2.791   0.717   2.215 -2.2661 -0.9778  1.0391
  109SOL     OW  325   1.903   0.027   2.760 -0.1524 -0.0456 -0.4403
  109SOL    HW1  326   1.924   0.023   2.863 -0.6350  3.0874  2.7306
  109SOL    HW2  327   1.821   3.092   2.738 -0.1749  1.7189  0.3972
  110SOL     OW  328   0.268   1.931   3.048 -0.6207 -0.4048  0.2225
  110SOL    HW1  329   0.209   1.964   3.123 -0.0527  1.1305 -2.4066
  110SOL    HW2  330   0.363   1.972   3.045  2.6236  0.7973 -2.3312
  111SOL     OW  331   2.724   0.539   2.246  0.3451  0.2966 -0.3816
  111SOL    HW1  332   2.654   0.463   2.256 -0.1395 -0.2689 -0.8305
  111SOL    HW2  333   2.815   0.498   2.248 -4.2930 -0.5109 -0.4873
  112SOL     OW  334   2.660   2.565   1.318  0.0851  0.2869 -0.2214
  112SOL    HW1  335   2.571   2.526   1.293  1.5950  2.0872  0.4812
  112SOL    HW2  336   2.731   2.545   1.250  1.6718 -0.2408  4.0539
  113SOL     OW  337   1.971   2.201   2.073 -0.3568 -0.1766 -0.5704
  113SOL    HW1  338   1.890   2.268   2.072 -2.1443  1.2975 -0.7172
  113SOL    HW2  339   2.037   2.221   2.003 -2.8028 -1.6279 -0.4124
  114SOL     OW  340   0.313   0.147   0.345  0.1498 -0.0759  0.1538
  114SOL    HW1  341   0.361   0.197   0.422  0.7864 -0.2243 -0.4577
  114SOL    HW2  342   0.350   0.054   0.346 -0.4876 -1.6588  1.5076
  115SOL     OW  343   2.849   1.668   0.160 -0.1441 -0.3179 -0.6216
  115SOL    HW1  344   2.935   1.699   0.120 -1.0406 -1.7565 -0.3675
  115SOL    HW2  345   2.806   1.590   0.113 -1.6170  0.2441  0.2851
  116SOL     OW  346   3.113   0.842   1.505 -0.0998 -0.0935 -0.6690
  116SOL    HW1  347   3.109   0.769   1.577 -0.3026 -0.6298 -1.5636
  116SOL    HW2  348   3.038   0.909   1.507 -1.3189  0.6626 -0.2609
  117SOL     OW  349   2.643   0.269   1.320  0.1741 -0.3209  0.0890
  117SOL    HW1  350   2.545   0.245   1.339 -0.8219 -0.1777  1.0967
  117SOL    HW2  351   2.690   0.302   1.403 -1.5673  1.1614  1.2689
  118SOL     OW  352   2.860   2.300   2.194  0.3977 -0.1002 -0.1463
  118SOL    HW1  353   2.875   2.388   2.241 -1.7848  0.9388 -1.3068
  118SOL    HW2  354   2.819   2.305   2.100 -1.5690  0.9427 -0.5328
  119SOL     OW  355   0.627   1.608   1.088  0.6287  0.2972 -0.1171
  119SOL    HW1  356   0.655   1.659   1.004  0.7337 -2.5740 -2.0859
  119SOL    HW2  357   0.550   1.651   1.139 -1.1525 -1.1443 -0.1109
  120SOL     OW  358   0.301   1.728   1.505  0.4693 -0.0581  0.4456
  120SOL    HW1  359   0.236   1.649   1.535 -0.3866 -0.1263 -1.5331
  120SOL    HW2  360   0.255   1.780   1.427  1.0628  1.0972 -1.3498
  121SOL     OW  361   1.735   1.346   1.113 -0.2432 -0.4780  0.5610
  121SOL    HW1  362   1.810   1.377   1.179  2.8663 -0.1698  1.1950
  121SOL    HW2  363   1.714   1.247   1.121 -1.9002 -0.1954 -0.5896
  122SOL     OW  364   1.888   2.491   2.641 -0.3525 -0.1112 -0.1977
  122SOL    HW1  365   1.946   2.508   2.723 -2.1575  1.5286 -1.8013
  122SOL    HW2  366   1.855   2.578   2.600 -0.8724 -0.2462 -1.3237
  123SOL     OW  367   2.932   3.086   0.309 -0.2199 -0.1499  0.3336
  123SOL    HW1  368   3.025   3.069   0.342 -3.1859 -2.8633 -2.2846
  123SOL    HW2  369   2.911   0.056   0.281 -1.1654 -0.1685  1.0161
  124SOL     OW  370   1.139   1.299   0.345 -0.0408  0.0295  0.7270
  124SOL    HW1  371   1.072   1.290   0.420 -0.4639  1.5915  0.1963
  124SOL    HW2  372   1.125   1.222   0.280  1.9593  2.5185  4.3402
  125SOL     OW  373   0.211   1.125   2.353 -0.2792  0.3360  0.2439
  125SOL    HW1  374   0.183   1.221   2.338  0.7326 -0.7302  0.0734
  125SOL    HW2  375   0.212   1.077   2.263  2.4013  0.3275  0.3700
  126SOL     OW  376   3.124   2.462   0.175  0.3866  0.4486  0.1871
  126SOL    HW1  377   0.012   2.369   0.214 -0.2880 -0.6240  0.8041
  126SOL    HW2  378   3.075   2.527   0.238 -2.1879 -0.5850  0.5192
  127SOL     OW  379   2.976   1.610   0.398  0.5415 -0.0912 -0.2335
  127SOL    HW1  380   2.921   1.630   0.481  0.7507  1.4223  0.6950
  127SOL    HW2  381   2.912   1.610   0.321  1.0300 -0.8218  1.5769
  128SOL     OW  382   1.249   0.830   0.852  0.0100  0.4324 -0.1102
  128SOL    HW1  383   1.303   0.880   0.780  0.6127  1.5660 -1.3489
  128SOL    HW2  384   1.173   0.882   0.890  0.4903  1.6310  0.8875
  129SOL     OW  385   2.789   1.975   0.996  0.5256 -0.4697 -0.5119
  129SOL    HW1  386   2.840   2.005   0.913  1.0952  0.4599  0.2304
  129SOL    HW2  387   2.755   2.052   1.053 -0.8892  2.0420  0.5732
  130SOL     OW  388   2.035   1.131   0.636  0.5125 -0.2476 -0.2422
  130SOL    HW1  389   2.002   1.062   0.567  1.0010 -1.2134  1.9911
  130SOL    HW2  390   2.102   1.087   0.704  0.0313 -2.4051  2.4120
  131SOL     OW  391   3.020   1.228   2.426  0.0966  0.1586 -0.1149
  131SOL    HW1  392   2.957   1.302   2.396  0.9486 -0.0521 -0.1280
  131SOL    HW2  393   3.008   1.151   2.359 -0.9374  0.5071  2.7870
  132SOL     OW  394   1.432   1.440   2.248 -0.0710  0.0499 -0.2310
  132SOL    HW1  395   1.352   1.391   2.214 -0.8936  2.0927 -3.7047
  132SOL    HW2  396   1.484   1.392   2.319 -1.3829 -0.1455 -0.2415
  133SOL     OW  397   0.078   1.250   0.262 -0.5515 -0.1649  0.7327
  133SOL    HW1  398   0.106   1.347   0.253  0.5051 -1.8147  0.2326
  133SOL    HW2  399   0.098   1.198   0.177  0.0068 -0.4797  3.0893
  134SOL     OW  400   2.676   0.822   0.213  0.6585 -0.0533 -0.5569
  134SOL    HW1  401   2.709   0.754   0.145 -0.0413  1.5548  1.0974
  134SOL    HW2  402   2.663   0.915   0.173  0.5820 -2.0032 -0.6841
  135SOL     OW  403   1.569   0.824   0.002  0.0573 -0.2038 -0.2152
  135SOL    HW1  404   1.602   0.761   3.059  0.5658 -0.2359 -0.2237
  135SOL    HW2  405   1.498   0.885   3.089 -1.3822  5.0412 -0.9224
  136SOL     OW  406   1.811   1.684   1.766 -0.0046 -0.5758 -0.0927
  136SOL    HW1  407   1.771   1.677   1.675 -0.8298  0.0225  1.0995
  136SOL    HW2  408   1.913   1.706   1.767  0.7188  0.9982  0.0309
  137SOL     OW  409   2.442   2.293   0.732 -0.1004 -0.2631 -0.8347
  137SOL    HW1  410   2.533   2.255   0.700  1.6214  0.4726  0.3182
  137SOL    HW2  411   2.411   2.379   0.682 -2.9267  0.7283 -1.9148
  138SOL     OW  412   2.408   0.535   1.463 -0.2680 -0.4576  0.1565
  138SOL    HW1  413   2.351   0.611   1.499  0.2286 -0.9257 -0.7564
  138SOL    HW2  414   2.360   0.485   1.392  1.5502  1.1677  1.8392
  139SOL     OW  415   2.438   2.960   2.957  0.2321 -0.2038 -0.2056
  139SOL    HW1  416   2.408   2.893   2.885 -0.2028  0.6184  1.6934
  139SOL    HW2  417   2.370   3.033   2.971 -1.1386  1.1123  0.3982
  140SOL     OW  418   1.462   2.031   2.418  0.2844 -0.6741  0.2404
  140SOL    HW1  419   1.516   1.950   2.392  0.3878  2.1087 -2.9107
  140SOL    HW2  420   1.366   2.014   2.430  1.1446  0.4594 -0.8737
  141SOL     OW  421   0.867   1.012   2.492 -0.1043 -0.6293 -0.2233
  141SOL    HW1  422   0.854   1.084   2.559 -1.5529  0.7721 -0.0924
  141SOL    HW2  423   0.902   1.049   2.404  1.8613 -1.6069  0.7069
  142SOL     OW  424   2.553   2.706   2.249 -0.3486  0.3993  0.2884
  142SOL    HW1  425   2.609   2.785   2.220 -0.3171  0.2698  2.2073
  142SOL    HW2  426   2.528   2.651   2.165  0.2264 -1.9409 -1.6042
  143SOL     OW  427   1.245   2.160   0.299  0.2065 -0.0657  0.3706
  143SOL    HW1  428   1.313   2.163   0.371  0.3827 -0.9632  0.3885
  143SOL    HW2  429   1.152   2.176   0.341 -1.7097 -0.1619 -1.3821
  144SOL     OW  430   1.106   2.546   0.552 -0.1763  0.7351 -0.1989
  144SOL    HW1  431   1.180   2.604   0.510 -0.8522 -0.6734  1.1096
  144SOL    HW2  432   1.149   2.470   0.602 -0.8487  0.0513 -0.1838
  145SOL     OW  433   1.459   2.604   2.542 -0.1767 -0.4553 -0.1820
  145SOL    HW1  434   1.372   2.572   2.504  0.4664 -0.1433 -0.6971
  145SOL    HW2  435   1.519   2.529   2.577 -1.2348 -0.9736 -0.5564
  146SOL     OW  436   1.952   3.066   3.021 -0.0482 -0.5989  0.5750
  146SOL    HW1  437   2.009   0.021   3.003  1.2716  0.3265 -0.8997
  146SOL    HW2  438   1.906   3.061   3.115 -2.7659 -0.9344  2.7291
  147SOL     OW  439   2.915   1.502   1.212  0.4603 -0.1208 -0.3655
  147SOL    HW1  440   2.875   1.442   1.137 -2.6146 -1.3741  0.4720
  147SOL    HW2  441   2.899   1.601   1.191  1.2231 -3.3194  0.7236
  148SOL     OW  442   2.072   2.775   0.166  0.2252  0.5370 -0.1261
  148SOL    HW1  443   2.161   2.763   0.215 -2.2487 -0.2360 -1.3266
  148SOL    HW2  444   2.070   2.773   0.061 -3.1456 -1.0472 -1.4270
  149SOL     OW  445   0.680   1.841   2.882 -0.2626  0.1290 -0.4133
  149SOL    HW1  446   0.724   1.748   2.895 -2.7007 -2.9609  0.9714
  149SOL    HW2  447   0.613   1.842   2.807 -1.0525 -0.7416  1.0835
  150SOL     OW  448   0.537   2.790   0.952  0.4612  0.0311  0.1759
  150SOL    HW1  449   0.476   2.742   1.012  1.1909  0.5704 -1.4486
  150SOL    HW2  450   0.547   2.888   0.977 -1.4093 -3.7348 -2.4244
  151SOL     OW  451   0.074   1.110   0.004  0.1524 -0.3953 -0.5879
  151SOL    HW1  452   0.153   1.065   0.047 -0.9869 -1.6284 -1.2760
  151SOL    HW2  453   0.063   1.080   3.032  2.7111 -0.6677  1.8528
  152SOL     OW  454   2.914   2.116   0.784 -0.4810 -0.0812 -0.5995
  152SOL    HW1  455   2.988   2.172   0.752 -2.1844 -3.7173  1.6685
  152SOL    HW2  456   2.892   2.049   0.707  0.3645  1.8733 -0.8498
  153SOL     OW  457   1.617   2.365   1.007 -0.0020  0.2583  0.6967
  153SOL    HW1  458   1.700   2.335   1.059 -0.8891 -1.1374 -1.7173
  153SOL    HW2  459   1.601   2.312   0.922  0.1051  1.0549  1.9273
  154SOL     OW  460   0.536   2.804   1.272 -0.6384  0.3302  0.2281
  154SOL    HW1  461   0.500   2.899   1.271  3.5381 -2.5015 -2.6478
  154SOL    HW2  462   0.638   2.797   1.293  0.5173 -0.5078  1.4492
  155SOL     OW  463   2.855   1.932   0.592  0.6061 -0.3199  0.1229
  155SOL    HW1  464   2.896   1.922   0.502 -1.0556 -0.9673  1.0858
  155SOL    HW2  465   2.757   1.907   0.584  0.3080  0.9949 -1.2827
  156SOL     OW  466   2.666   2.096   0.353  0.0788  0.0924  0.5928
  156SOL    HW1  467   2.725   2.167   0.313 -1.8067  1.5209 -1.1418
  156SOL    HW2  468   2.668   2.004   0.304  1.1931 -2.5518 -2.5390
  157SOL     OW  469   0.209   2.444   1.764 -0.1422  0.0038  0.7478
  157SOL    HW1  470   0.122   2.421   1.803  4.8732 -0.4439 -1.0717
  157SOL    HW2  471   0.287   2.449   1.832  1.4019  1.4999  1.2667
  158SOL     OW  472   1.434   0.394   0.971 -0.3155 -0.2882  0.3946
  158SOL    HW1  473   1.365   0.318   0.976 -2.4169 -0.1381 -2.8505
  158SOL    HW2  474   1.446   0.440   1.059 -0.4776 -0.6930  1.6063
  159SOL     OW  475   1.782   0.866   0.156 -0.4052 -0.1675 -0.1490
  159SOL    HW1  476   1.764   0.829   0.247 -0.2010 -1.7903 -3.0136
  159SOL    HW2  477   1.693   0.854   0.109  1.1305  0.6622  0.5506
  160SOL     OW  478   1.098   1.676   0.329  0.4834 -0.6100 -0.2526
  160SOL    HW1  479   1.133   1.747   0.265 -1.1307  0.8440  1.4631
  160SOL    HW2  480   1.026   1.625   0.281  0.9369  1.9287 -2.1463
  161SOL     OW  481   2.746   2.379   2.638  0.5130  0.3204 -0.2017
  161SOL    HW1  482   2.677   2.383   2.715 -0.1902  0.5052  0.3687
  161SOL    HW2  483   2.817   2.311   2.642 -3.2870  0.0122 -1.9873
  162SOL     OW  484   0.095   2.253   1.274  0.3062 -0.1271  0.1964
  162SOL    HW1  485   0.035   2.285   1.351  1.3861  0.5386  0.1703
  162SOL    HW2  486   0.190   2.255   1.311  0.6702 -1.2430  1.6269
  163SOL     OW  487   0.364   0.427   2.816 -0.3943  0.5203  0.0382
  163SOL    HW1  488   0.363   0.329   2.842 -1.5574  0.4246 -0.4165
  163SOL    HW2  489   0.347   0.441   2.717  1.1465 -1.8614  0.5975
  164SOL     OW  490   0.246   2.756   2.451  0.4521 -0.2591  0.4295
  164SOL    HW1  491   0.327   2.814   2.462 -2.2040 -0.9038 -0.8035
  164SOL    HW2  492   0.238   2.679   2.516 -0.8867  0.0426  0.1636
  165SOL     OW  493   2.825   0.749   1.736  0.6676  0.0486  0.5960
  165SOL    HW1  494   2.871   0.836   1.758  1.3182  1.8002  0.5894
  165SOL    HW2  495   2.826   0.689   1.816  0.0760  1.8363 -3.7426
  166SOL     OW  496   1.940   1.967   1.479 -0.0266 -0.2056  0.0686
  166SOL    HW1  497   2.027   1.929   1.513 -3.3015  1.5094  1.6592
  166SOL    HW2  498   1.880   1.890   1.454  0.7518  1.9113  2.0217
  167SOL     OW  499   0.544   0.622   2.408  0.4530 -0.0922 -0.3696
  167SOL    HW1  500   0.520   0.609   2.309 -1.3041 -0.2551  0.8802
  167SOL    HW2  501   0.540   0.725   2.430 -0.0626  2.1456  0.5157
  168SOL     OW  502   2.269   0.282   2.203  0.5025  0.1279 -0.2477
  168SOL    HW1  503   2.228   0.254   2.288  2.1182 -0.5215 -3.7260
  168SOL    HW2  504   2.235   0.231   2.123  0.2867  1.0232 -0.5232
  169SOL     OW  505   0.271   0.948   0.064  0.2484 -0.0104 -0.2157
  169SOL    HW1  506   0.300   0.920   0.156  2.0941 -1.6572  0.0181
  169SOL    HW2  507   0.345   0.924   0.002 -1.2144  0.5501 -0.1949
  170SOL     OW  508   0.912   1.467   1.525  0.0387 -0.3935  0.0196
  170SOL    HW1  509   0.948   1.409   1.597 -1.1250 -0.3306 -0.4788
  170SOL    HW2  510   0.930   1.563   1.554  2.9022 -3.2414 -0.4830
  171SOL     OW  511   1.189   2.565   1.928  0.2283  0.3586  0.0572
  171SOL    HW1  512   1.167   2.554   1.832 -1.3264 -2.3792 -0.5211
  171SOL    HW2  513   1.281   2.529   1.953 -0.3477  1.8465 -0.2712
  172SOL     OW  514   1.161   3.122   2.010 -0.2655 -0.5502 -0.1359
  172SOL    HW1  515   1.243   3.074   2.044  2.1503  0.3339 -2.1353
  172SOL    HW2  516   1.126   0.069   2.074  1.8932  1.4046 -0.2802
  173SOL     OW  517   1.500   2.174   0.821  0.8054  0.1318  0.2357
  173SOL    HW1  518   1.493   2.106   0.743  1.5632 -0.7862  1.7851
  173SOL    HW2  519   1.556   2.138   0.897  0.3757 -1.0897 -0.9105
  174SOL     OW  520   2.178   2.939   0.376  0.1179  0.3426  0.3039
  174SOL    HW1  521   2.100   2.915   0.432  2.1290  1.0997 -0.5329
  174SOL    HW2  522   2.167   3.022   0.316  0.5018  2.7770  0.0208
  175SOL     OW  523   1.293   1.331   0.566 -0.3031  0.2605  0.2156
  175SOL    HW1  524   1.237   1.359   0.646  1.0898 -2.1171  0.1518
  175SOL    HW2  525   1.243   1.311   0.482  2.8901  0.8113  1.9046
  176SOL     OW  526   0.713   1.478   0.458 -0.3397 -0.6757  0.1608
  176SOL    HW1  527   0.749   1.492   0.553  0.2572 -0.3065  0.3396
  176SOL    HW2  528   0.710   1.379   0.433 -0.9786 -1.0451  3.2491
  177SOL     OW  529   1.279   1.170   0.937 -0.3029 -0.0652  0.3977
  177SOL    HW1  530   1.259   1.268   0.911 -1.0367  0.6551 -0.4360
  177SOL    HW2  531   1.375   1.152   0.969  3.0779  0.7941 -1.6879
  178SOL     OW  532   2.466   1.762   0.427 -0.4857 -0.6431 -0.4971
  178SOL    HW1  533   2.382   1.808   0.389  3.2096 -2.6411 -1.1333
  178SOL    HW2  534   2.456   1.665   0.409  1.1725  2.3797  3.5245
  179SOL     OW  535   1.361   2.930   0.135 -0.5498 -0.1211  0.2433
  179SOL    HW1  536   1.290   2.959   0.205 -3.0930 -0.5971 -0.0660
  179SOL    HW2  537   1.416   2.856   0.167 -3.0057  0.1720 -1.0334
  180SOL     OW  538   1.997   1.434   1.723  0.2604  0.8112  0.0202
  180SOL    HW1  539   2.053   1.394   1.799 -1.4215 -1.4882  5.3457
  180SOL    HW2  540   1.990   1.535   1.720 -3.2523  1.7198  0.4699
  181SOL     OW  541   1.160   0.769   2.033  0.5987  0.1633  0.1963
  181SOL    HW1  542   1.216   0.773   2.114 -2.5150  1.2521 -2.2791
  181SOL    HW2  543   1.180   0.680   1.981 -0.8836  0.0021  0.2097
  182SOL     OW  544   0.100   1.367   2.305  0.6459  0.2580  0.1563
  182SOL    HW1  545   0.007   1.342   2.344  0.6770 -0.6386 -1.4010
  182SOL    HW2  546   0.084   1.380   2.206  2.1692  0.7641  0.8036
  183SOL     OW  547   1.603   0.740   2.358  0.1898 -0.0408 -0.5095
  183SOL    HW1  548   1.682   0.675   2.376  0.5329 -1.1639 -1.6967
  183SOL    HW2  549   1.543   0.753   2.439  0.9667  0.3535 -0.4633
  184SOL     OW  550   0.675   0.655   1.363 -0.1670  0.3635  0.1038
  184SOL    HW1  551   0.728   0.710   1.430 -0.5891 -1.0113 -0.4360
  184SOL    HW2  552   0.717   0.563   1.349  0.8962 -0.3605  0.5420
  185SOL     OW  553   2.261   1.650   0.831  0.8645  0.2057 -0.3059
  185SOL    HW1  554   2.262   1.637   0.731 -0.3245  0.2947  2.5560
  185SOL    HW2  555   2.164   1.625   0.865 -5.2927 -2.8151 -0.6308
  186SOL     OW  556   0.284   2.091   0.207 -0.2676 -0.2553  0.0207
  186SOL    HW1  557   0.313   2.184   0.219 -0.1872 -2.0235 -2.4349
  186SOL    HW2  558   0.310   2.026   0.278  0.4139 -0.6022 -2.3732
  187SOL     OW  559   2.086   2.323   3.098 -0.6332  0.4122  0.1289
  187SOL    HW1  560   2.029   2.307   0.054  2.4878 -0.1367 -0.2516
  187SOL    HW2  561   2.182   2.306   3.124 -1.8496  1.3654 -2.4998
  188SOL     OW  562   1.086   2.095   1.151 -0.4635 -0.3719 -0.4050
  188SOL    HW1  563   0.998   2.129   1.191  0.4784  1.4235 -4.5471
  188SOL    HW2  564   1.072   1.998   1.131 -2.1202  3.0637  0.1454
  189SOL     OW  565   2.268   1.597   2.474  0.3469  0.2316  0.2726
  189SOL    HW1  566   2.183   1.630   2.425 -1.5019 -1.0100 -0.3659
  189SOL    HW2  567   2.296   1.660   2.548 -1.8671  0.8369 -1.1735
  190SOL     OW  568   0.901   2.541   2.222 -0.7961  0.6024 -0.1729
  190SOL    HW1  569   0.961   2.610   2.171  3.3772  2.6399 -2.3190
  190SOL    HW2  570   0.817   2.582   2.255  1.6584  1.0047 -0.2733
  191SOL     OW  571   2.542   0.908   1.193 -0.2200  0.9223  0.7883
  191SOL    HW1  572   2.622   0.865   1.235 -0.6198  0.8557 -2.1953
  191SOL    HW2  573   2.510   0.844   1.116 -2.0123 -0.4612 -5.9479
  192SOL     OW  574   2.653   0.629   1.537 -0.2962 -0.2231  0.1868
  192SOL    HW1  575   2.556   0.616   1.516  1.0974  2.9817  1.0777
  192SOL    HW2  576   2.666   0.684   1.620 -2.2827 -1.6202 -5.5833
  193SOL     OW  577   0.659   0.399   0.202 -0.0473 -0.6531  0.1195
  193SOL    HW1  578   0.571   0.351   0.207  0.2323  1.0521  0.5735
  193SOL    HW2  579   0.658   0.468   0.132  0.9997  2.2084  1.0865
  194SOL     OW  580   0.994   2.380   1.477  0.1544 -0.0717 -0.1262
  194SOL    HW1  581   1.001   2.281   1.497  1.2060  2.1250 -0.5763
  194SOL    HW2  582   1.081   2.424   1.504 -0.7856  2.3851 -0.5995
  195SOL     OW  583   2.580   1.254   0.267 -0.0226 -0.0669  0.3332
  195SOL    HW1  584   2.596   1.243   0.367  0.8886  0.0626  1.3062
  195SOL    HW2  585   2.605   1.171   0.218  0.4580  0.2299  3.0224
  196SOL     OW  586   0.531   2.458   1.627  0.1469  0.4813  0.1363
  196SOL    HW1  587   0.547   2.456   1.526  0.4802  0.4580  0.7685
  196SOL    HW2  588   0.503   2.553   1.656  2.2078  2.6796 -0.4533
  197SOL     OW  589   0.147   0.681   2.192  0.2215 -0.0790 -0.1780
  197SOL    HW1  590   0.188   0.591   2.167  0.9557  1.1947  1.0026
  197SOL    HW2  591   0.134   0.684   2.293 -1.2924 -0.8923 -1.7033
  198SOL     OW  592   1.770   1.111   0.431 -0.2174  0.0915  0.3658
  198SOL    HW1  593   1.728   1.042   0.365  0.6117 -0.5078 -3.7206
  198SOL    HW2  594   1.818   1.182   0.370  0.0154  0.3855 -1.6231
  199SOL     OW  595   2.718   0.352   1.556 -0.1938 -0.1167  0.1294
  199SOL    HW1  596   2.690   0.302   1.639  1.9330  1.3279 -4.4165
  199SOL    HW2  597   2.684   0.449   1.559  1.1808  0.0459  3.0910
  200SOL     OW  598   2.150   0.143   2.921  0.0059 -0.6876  0.8250
  200SOL    HW1  599   2.206   0.114   2.834  1.5266  1.9142 -1.0705
  200SOL    HW2  600   2.114   0.238   2.900  1.1686 -2.6994  1.1924
  201SOL     OW  601   2.539   0.167   1.051 -0.1280  0.2815 -0.0425
  201SOL    HW1  602   2.576   0.231   1.118 -1.1543 -2.9753  1.1886
  201SOL    HW2  603   2.526   0.205   0.961  0.2229 -3.4359  3.0950
  202SOL     OW  604   3.021   2.744   0.281 -0.1854  0.0830 -0.0476
  202SOL    HW1  605   3.059   2.759   0.376  1.3368 -2.1454  3.1949
  202SOL    HW2  606   3.081   2.787   0.210 -2.1338  0.3776 -0.1702
  203SOL     OW  607   1.278   1.615   3.035  0.1064  0.9909 -0.3950
  203SOL    HW1  608   1.270   1.548   3.113 -0.5735 -0.6052 -0.8688
  203SOL    HW2  609   1.373   1.640   3.016 -1.2516  1.0785  1.0153
  204SOL     OW  610   0.401   2.111   2.213  0.2930 -0.0981 -0.5352
  204SOL    HW1  611   0.452   2.091   2.129  0.3888 -2.8038 -0.0113
  204SOL    HW2  612   0.353   2.025   2.243  2.2931 -0.2970  1.2754
  205SOL     OW  613   0.978   0.554   0.920  0.6074  0.6937 -0.0304
  205SOL    HW1  614   0.971   0.499   1.012 -3.2308 -0.5880  1.5832
  205SOL    HW2  615   1.073   0.558   0.883 -1.7243 -1.0700 -0.7097
  206SOL     OW  616   0.297   0.719   2.941  0.2505  0.0703 -0.0252
  206SOL    HW1  617   0.248   0.803   2.913 -1.4545 -1.1775  2.5235
  206SOL    HW2  618   0.304   0.642   2.874 -1.4390  0.1053 -1.1027
  207SOL     OW  619   1.456   2.453   1.756 -0.3776 -0.3195 -0.3668
  207SOL    HW1  620   1.529   2.526   1.746 -1.8387  0.0051 -0.4880
  207SOL    HW2  621   1.452   2.423   1.852  1.1385  1.1907 -2.6445
  208SOL     OW  622   0.248   2.951   1.075 -0.0228 -0.2675  0.1360
  208SOL    HW1  623   0.326   2.930   1.011 -0.5153 -2.7973  1.4988
  208SOL    HW2  624   0.243   3.050   1.090  0.7514  0.1798  0.3215
  209SOL     OW  625   1.658   1.095   0.678 -0.4178  0.1490 -0.0252
  209SOL    HW1  626   1.731   1.068   0.742 -0.1036 -0.0883  0.6199
  209SOL    HW2  627   1.694   1.093   0.580  0.7919 -0.4890 -0.1893
  210SOL     OW  628   2.566   0.791   0.506 -0.0002 -0.4525  0.4248
  210SOL    HW1  629   2.539   0.711   0.567 -1.9398 -0.3020 -0.3537
  210SOL    HW2  630   2.663   0.796   0.480  1.7491 -1.7388  1.3398
  211SOL     OW  631   1.408   0.192   0.243  0.0800 -0.5974  0.6585
  211SOL    HW1  632   1.333   0.162   0.179 -1.8637 -0.2346 -1.6029
  211SOL    HW2  633   1.498   0.160   0.203 -1.4718  0.6904 -1.9707
  212SOL     OW  634   1.806   2.036   0.574  0.6678 -0.1127  0.1067
  212SOL    HW1  635   1.830   2.135   0.597 -1.5966 -1.9289 -0.9669
  212SOL    HW2  636   1.766   2.028   0.481  1.0060 -0.7686 -2.7626
  213SOL     OW  637   2.348   0.183   2.683 -0.3174 -0.3815  0.2441
  213SOL    HW1  638   2.441   0.166   2.724  1.1455  0.6395 -0.5875
  213SOL    HW2  639   2.337   0.282   2.661 -2.2346  1.3465 -1.2059
  214SOL     OW  640   0.922   2.065   2.158  0.3010 -0.7591 -0.3198
  214SOL    HW1  641   1.014   2.096   2.116  2.0887  0.0937 -2.5418
  214SOL    HW2  642   0.856   2.143   2.150 -0.5420  0.1999 -1.2128
  215SOL     OW  643   0.193   1.299   1.233 -0.6275 -0.2366 -0.6014
  215SOL    HW1  644   0.199   1.403   1.229  0.7347 -1.4346  1.7286
  215SOL    HW2  645   0.266   1.268   1.300  1.3925 -0.0279  0.8916
  216SOL     OW  646   0.161   2.262   2.796  0.0656  0.2899 -0.3648
  216SOL    HW1  647   0.069   2.243   2.835  2.8397  0.9852 -1.2541
  216SOL    HW2  648   0.217   2.315   2.865 -2.3018  1.1127  3.6330
  217SOL     OW  649   2.743   1.123   1.483 -0.4196 -0.0670 -0.5612
  217SOL    HW1  650   2.728   1.039   1.430 -2.3440  0.8480  1.5484
  217SOL    HW2  651   2.710   1.111   1.581 -0.0026 -1.9333  0.2801
  218SOL     OW  652   0.677   2.417   1.944  0.0450 -0.1647  0.1016
  218SOL    HW1  653   0.769   2.449   1.919 -2.1396  0.3474 -0.1527
  218SOL    HW2  654   0.675   2.373   2.034 -2.4874  0.7928 -0.1999
  219SOL     OW  655   2.052   1.529   0.324  0.3760  0.3359  0.2264
  219SOL    HW1  656   2.117   1.571   0.255 -1.6730  0.2893 -2.1038
  219SOL    HW2  657   2.079   1.542   0.422 -0.1303 -2.1308  1.2195
  220SOL     OW  658   2.024   0.842   0.528  0.0757 -0.1927  0.1563
  220SOL    HW1  659   2.015   0.830   0.427 -1.4238 -0.8310 -1.1393
  220SOL    HW2  660   1.930   0.834   0.575 -1.8582  0.4354  1.4127
  221SOL     OW  661   2.700   0.392   0.183 -0.3499  0.0056 -0.5516
  221SOL    HW1  662   2.675   0.434   0.272  0.9981 -1.4060 -1.0371
  221SOL    HW2  663   2.771   0.320   0.179 -0.1512  2.2840 -0.7041
  222SOL     OW  664   1.563   1.347   0.653 -0.0223  0.0988 -0.2646
  222SOL    HW1  665   1.605   1.256   0.654  0.1997  3.3127 -2.4218
  222SOL    HW2  666   1.466   1.348   0.625  0.1823 -2.6256  0.2560
  223SOL     OW  667   1.154   3.092   2.899  0.0005 -0.0094  0.2453
  223SOL    HW1  668   1.213   0.009   2.825 -1.3241 -0.9401 -1.0380
  223SOL    HW2  669   1.156   2.990   2.887  0.6116  2.4955  0.2928
  224SOL     OW  670   1.039   2.879   1.348 -0.1681 -0.2141 -0.0409
  224SOL    HW1  671   1.017   2.906   1.253  1.1509 -1.1046  1.7901
  224SOL    HW2  672   1.087   2.955   1.400  2.4249  2.0650  2.5818
  225SOL     OW  673   0.401   2.729   1.969  0.0839 -0.0752  0.1930
  225SOL    HW1  674   0.335   2.753   2.043 -2.0361  0.4756 -0.6585
  225SOL    HW2  675   0.405   2.627   1.957  0.4289  2.1327 -2.6219
  226SOL     OW  676   1.497   1.253   0.172  0.1645  0.2658 -0.8276
  226SOL    HW1  677   1.531   1.294   0.259  1.4855 -3.6536  1.4785
  226SOL    HW2  678   1.428   1.314   0.133  2.0595  0.8791  2.4319
  227SOL     OW  679   0.399   1.493   0.743  0.9055  0.0402  0.3634
  227SOL    HW1  680   0.431   1.544   0.663 -1.1493  0.4920  3.1564
  227SOL    HW2  681   0.369   1.394   0.723 -1.2518 -1.4905  0.1541
  228SOL     OW  682   0.149   1.839   0.829 -0.0479 -0.5606 -0.2844
  228SOL    HW1  683   0.053   1.822   0.801 -1.4252  0.9338 -0.0147
  228SOL    HW2  684   0.178   1.929   0.792  0.0790  0.3586  1.0180
  229SOL     OW  685   2.751   0.345   3.010 -0.1258  0.3099  0.3918
  229SOL    HW1  686   2.702   0.272   3.058  1.1630  2.5179  2.3656
  229SOL    HW2  687   2.851   0.340   3.035  0.7928  0.0282 -2.0534
  230SOL     OW  688   2.217   1.092   0.856 -0.1249 -0.1647  0.8446
  230SOL    HW1  689   2.273   1.176   0.850 -1.1463  1.1463 -2.6632
  230SOL    HW2  690   2.150   1.097   0.933 -1.2153 -0.1159 -2.0348
  231SOL     OW  691   1.655   1.437   2.894  0.1919  0.2598 -0.4987
  231SOL    HW1  692   1.594   1.522   2.886 -0.6390  1.2982 -0.8274
  231SOL    HW2  693   1.691   1.438   2.987 -3.4319  1.9341 -1.8904
  232SOL     OW  694   2.159   1.930   0.834  0.6384  0.3087  0.3766
  232SOL    HW1  695   2.217   1.847   0.825 -1.8552  0.5580 -0.7990
  232SOL    HW2  696   2.207   2.017   0.842 -0.5687 -1.9053 -1.5756
  233SOL     OW  697   0.500   3.055   0.995  0.3293  0.1543  0.3071
  233SOL    HW1  698   0.441   3.085   1.066  0.2182  0.8589 -2.4255
  233SOL    HW2  699   0.534   0.004   0.931  1.0953 -0.7497  1.1547
  234SOL     OW  700   0.861   0.187   2.744  1.0446  0.5678 -0.0586
  234SOL    HW1  701   0.949   0.154   2.696  4.8065  0.8987 -1.7091
  234SOL    HW2  702   0.876   0.239   2.829  0.4137 -0.1008  1.5527
  235SOL     OW  703   2.953   1.029   2.240  0.2739  0.3899 -0.1770
  235SOL    HW1  704   2.897   0.948   2.230  3.3883  1.0191  1.1532
  235SOL    HW2  705   3.024   1.033   2.173 -1.7098 -3.0596  3.0933
  236SOL     OW  706   1.462   2.944   1.671 -0.2436 -0.1756 -0.0414
  236SOL    HW1  707   1.361   2.972   1.669 -0.1339  0.8380  1.5612
  236SOL    HW2  708   1.475   2.851   1.630 -0.4270  2.2989 -0.5176
  237SOL     OW  709   0.774   1.371   2.464  0.1048  0.2803 -0.6483
  237SOL    HW1  710   0.694   1.348   2.403 -0.6345 -1.1196  0.6881
  237SOL    HW2  711   0.801   1.465   2.449 -0.1845  0.4204 -0.0928
  238SOL     OW  712   0.996   0.482   2.425 -0.0531 -0.2514 -0.0509
  238SOL    HW1  713   0.961   0.549   2.358  0.9486 -0.5533 -2.2747
  238SOL    HW2  714   0.917   0.424   2.458  0.6748  2.5749 -0.4242
  239SOL     OW  715   0.161   2.211   2.059  0.0050 -0.6708 -0.1552
  239SOL    HW1  716   0.189   2.124   2.027 -3.4786  4.3471  2.0553
  239SOL    HW2  717   0.229   2.287   2.028  2.7200 -1.5784  1.8951
  240SOL     OW  718   2.359   3.075   0.591 -0.3591 -0.2928  0.0083
  240SOL    HW1  719   2.318   3.039   0.675 -2.1118  1.1555  1.4791
  240SOL    HW2  720   2.306   3.041   0.507 -2.2604  0.2574 -2.8123
  241SOL     OW  721   3.069   0.924   0.344  0.3525 -0.6096 -0.1055
  241SOL    HW1  722   3.095   0.839   0.305  3.4338  1.8062  1.0035
  241SOL    HW2  723   0.004   0.997   0.310 -3.2384 -0.3213  1.4278
  242SOL     OW  724   1.701   2.571   1.788  0.6216  0.1735 -0.4440
  242SOL    HW1  725   1.798   2.533   1.786 -2.2265 -1.2525  2.3346
  242SOL    HW2  726   1.685   2.633   1.868  0.8035 -0.3495 -1.1956
  243SOL     OW  727   0.396   2.462   1.973  0.9298  0.4244 -0.2047
  243SOL    HW1  728   0.491   2.430   1.968 -3.9719 -1.2466  2.0520
  243SOL    HW2  729   0.357   2.446   2.069  1.0530 -1.3737 -2.6522
  244SOL     OW  730   2.522   0.348   2.257 -0.0679 -0.0384  0.3001
  244SOL    HW1  731   2.536   0.359   2.357 -1.7280 -0.0565 -3.0451
  244SOL    HW2  732   2.424   0.327   2.233  1.1085  0.3828  2.4167
  245SOL     OW  733   1.287   3.056   1.137 -0.0625 -0.2555 -0.7642
  245SOL    HW1  734   1.335   3.116   1.203 -0.2803 -2.3583 -2.8042
  245SOL    HW2  735   1.306   3.086   1.040  0.2271 -0.3744  0.5567
  246SOL     OW  736   1.683   2.877   0.518 -0.4393 -0.1805 -0.3367
  246SOL    HW1  737   1.688   2.807   0.448  2.9049  2.8234 -0.1777
  246SOL    HW2  738   1.620   2.849   0.594  0.6557  0.0582  2.6919
  247SOL     OW  739   1.607   0.572   1.955 -0.4645  0.0827 -0.1192
  247SOL    HW1  740   1.521   0.529   1.989  0.4340  1.7448 -1.6020
  247SOL    HW2  741   1.697   0.537   1.995  2.1163 -0.1800 -2.3409
  248SOL     OW  742   3.013   2.117   1.691 -0.6764 -0.1774 -0.0717
  248SOL    HW1  743   3.091   2.065   1.731 -1.1185  1.8175  0.2525
  248SOL    HW2  744   2.925   2.073   1.724 -0.3526 -0.6235  2.0694
  249SOL     OW  745   2.926   0.226   0.192  0.3659  0.6898  0.6740
  249SOL    HW1  746   2.984   0.280   0.258 -1.1520  1.3939 -1.8654
  249SOL    HW2  747   2.981   0.183   0.115 -0.2523 -0.5459  0.2475
  250SOL     OW  748   2.688   0.107   2.607 -0.2403 -0.0638  0.8477
  250SOL    HW1  749   2.779   0.067   2.623  1.6492  1.5059  2.8921
  250SOL    HW2  750   2.633   0.114   2.690  0.8824  1.0121 -1.3306
  251SOL     OW  751   1.453   0.688   0.215 -0.2671  0.3195  0.0421
  251SOL    HW1  752   1.496   0.721   0.130  0.2112  0.3740  0.2951
  251SOL    HW2  753   1.526   0.656   0.280  0.1995 -2.2463 -0.4291
  252SOL     OW  754   1.448   2.439   2.014  0.0547 -0.7391  0.4851
  252SOL    HW1  755   1.499   2.363   2.055 -4.2533  1.8776 -0.3561
  252SOL    HW2  756   1.443   2.517   2.082 -0.0369  3.5061  2.1908
  253SOL     OW  757   2.401   2.625   1.010 -0.0879  0.1995 -0.0202
  253SOL    HW1  758   2.467   2.554   0.991 -1.5891  0.3507  2.1788
  253SOL    HW2  759   2.408   2.701   0.938 -0.1532 -0.9955 -0.8757
  254SOL     OW  760   2.380   1.302   0.878  0.9013  0.0424  0.4073
  254SOL    HW1  761   2.365   1.394   0.836 -1.8557 -0.8660  3.1653
  254SOL    HW2  762   2.450   1.313   0.956  1.2590 -0.5629  1.1518
  255SOL     OW  763   0.800   2.760   1.337 -0.1018 -0.0204  0.0731
  255SOL    HW1  764   0.887   2.803   1.359 -2.7056  1.8421 -1.1224
  255SOL    HW2  765   0.819   2.660   1.335 -2.3149 -0.0149  0.9742
  256SOL     OW  766   1.854   2.210   1.591 -0.0704 -0.4007 -0.2734
  256SOL    HW1  767   1.882   2.116   1.568  0.5185  3.2585 -1.0292
  256SOL    HW2  768   1.762   2.228   1.551 -0.6067 -0.1556 -2.0053
  257SOL     OW  769   0.561   2.478   2.444  0.2289  0.3476 -0.1121
  257SOL    HW1  770   0.537   2.514   2.539 -2.3393  0.4895  2.6765
  257SOL    HW2  771   0.593   2.550   2.377  0.0756 -0.3919 -2.5204
  258SOL     OW  772   0.766   2.657   0.819  0.8032  0.5871  0.0039
  258SOL    HW1  773   0.854   2.690   0.854  0.7315 -2.1091 -0.0813
  258SOL    HW2  774   0.689   2.707   0.864  0.7762  0.9815 -1.6577
  259SOL     OW  775   1.488   0.680   2.859  0.0866  0.5745 -0.4826
  259SOL    HW1  776   1.524   0.594   2.908  2.3324 -0.0727  1.2034
  259SOL    HW2  777   1.387   0.683   2.877  1.3656  1.0762  1.7782
  260SOL     OW  778   3.007   1.026   1.230  0.0214 -0.2791 -0.0151
  260SOL    HW1  779   3.030   1.116   1.273  0.9550  2.5189 -0.5801
  260SOL    HW2  780   3.091   0.981   1.186  2.5531  1.3173 -1.4331
  261SOL     OW  781   0.798   0.325   2.522  0.1691  0.4295  0.3326
  261SOL    HW1  782   0.839   0.268   2.599  1.5848  0.4661  1.9046
  261SOL    HW2  783   0.724   0.276   2.472 -0.2689  1.2985 -0.5998
  262SOL     OW  784   1.277   2.230   2.252  0.1515  0.2264 -0.2611
  262SOL    HW1  785   1.227   2.233   2.164 -0.1692 -0.6024  0.1627
  262SOL    HW2  786   1.377   2.213   2.234 -1.3914  2.1095  1.0642
  263SOL     OW  787   0.601   2.256   2.989 -0.3361  0.1224 -0.9982
  263SOL    HW1  788   0.690   2.257   3.041 -2.1099  2.0425 -1.8275
  263SOL    HW2  789   0.566   2.159   2.991  3.3189 -1.7155 -1.0630
  264SOL     OW  790   0.980   1.429   1.275  0.1012  0.4076 -0.0356
  264SOL    HW1  791   1.074   1.390   1.282  0.9726 -1.1315 -0.7296
  264SOL    HW2  792   0.942   1.439   1.373 -0.7851  0.4986 -0.5344
  265SOL     OW  793   1.061   2.203   0.500  0.0756 -0.9632  0.2802
  265SOL    HW1  794   1.027   2.109   0.505  0.4178 -0.6559 -0.2941
  265SOL    HW2  795   1.089   2.234   0.591 -0.1562 -3.1019  1.2263
  266SOL     OW  796   2.517   0.747   0.959  0.0960  0.2478 -0.2892
  266SOL    HW1  797   2.617   0.732   0.966  0.6597 -0.3359  1.8180
  266SOL    HW2  798   2.491   0.801   0.880  0.4239 -0.3852  1.9619
  267SOL     OW  799   2.971   1.395   2.859 -0.0047  0.1125  0.0195
  267SOL    HW1  800   2.993   1.395   2.960 -2.8246 -2.2029  0.4023
  267SOL    HW2  801   3.035   1.335   2.805 -0.6676 -0.5968  0.2950
  268SOL     OW  802   1.643   0.109   0.141 -0.3683  0.1000  0.1463
  268SOL    HW1  803   1.697   0.057   0.210  0.3361  0.1973  3.1391
  268SOL    HW2  804   1.683   0.201   0.121  3.0230 -0.3060 -0.7161
  269SOL     OW  805   2.981   0.947   2.530 -0.0867 -1.0581 -0.0908
  269SOL    HW1  806   2.954   1.028   2.471 -0.5793  1.7987  1.7752
  269SOL    HW2  807   3.069   0.913   2.501 -1.2964 -0.3267  0.4410
  270SOL     OW  808   3.026   1.326   0.005 -0.0602  0.4198 -0.0886
  270SOL    HW1  809   2.998   1.346   0.101 -2.6161  1.8530  0.8018
  270SOL    HW2  810   3.080   1.240   3.124  2.2264 -0.9386  0.7156
  271SOL     OW  811   2.693   1.647   2.525  0.1058  0.0089  0.6564
  271SOL    HW1  812   2.666   1.643   2.624  0.4308 -1.8618 -2.2856
  271SOL    HW2  813   2.653   1.564   2.477  1.1705  0.5480 -1.9280
  272SOL     OW  814   2.556   2.383   1.778  0.4712 -0.3578 -0.0913
  272SOL    HW1  815   2.471   2.361   1.728  0.6438  2.1187  1.1424
  272SOL    HW2  816   2.631   2.392   1.703  1.5300  1.3930 -2.3980
  273SOL     OW  817   0.198   2.527   0.010  1.0011  0.8105  0.2929
  273SOL    HW1  818   0.224   2.620   3.106  1.5175 -3.3860  1.0541
  273SOL    HW2  819   0.124   2.513   0.076  3.1276 -1.0316 -1.3723
  274SOL     OW  820   1.097   2.339   0.774  0.0215 -0.4404 -0.1866
  274SOL    HW1  821   1.010   2.387   0.789  6.0952  0.8068 -0.8611
  274SOL    HW2  822   1.153   2.337   0.861  0.2583 -0.6295  0.3911
  275SOL     OW  823   2.249   1.606   0.149  0.2900  0.1509  0.4014
  275SOL    HW1  824   2.198   1.687   0.131 -0.1040 -3.3412  1.1400
  275SOL    HW2  825   2.294   1.568   0.068  1.1149 -2.0612 -0.1284
  276SOL     OW  826   2.512   1.583   1.435  0.1682  0.0692  0.0646
  276SOL    HW1  827   2.580   1.514   1.448 -0.3256  0.0827  1.0638
  276SOL    HW2  828   2.549   1.649   1.371 -1.6151 -3.9405  2.6930
  277SOL     OW  829   2.248   0.364   0.873 -0.1301 -0.6635  0.5858
  277SOL    HW1  830   2.164   0.402   0.820 -3.8641 -0.6274 -0.5104
  277SOL    HW2  831   2.229   0.270   0.910 -1.1589 -0.1875  1.8932
  278SOL     OW  832   1.840   0.582   2.463  0.0307 -0.5713  0.2514
  278SOL    HW1  833   1.842   0.647   2.544  0.6267  1.4322  3.4922
  278SOL    HW2  834   1.789   0.502   2.496 -0.6463  1.2896  2.5280
  279SOL     OW  835   1.211   2.695   1.419  0.0050  0.4232 -0.1129
  279SOL    HW1  836   1.269   2.688   1.333 -0.5821  0.3191  0.7902
  279SOL    HW2  837   1.126   2.746   1.401  2.1727 -0.9038  2.4482
  280SOL     OW  838   1.037   0.767   0.382 -0.2731  0.3721  0.5506
  280SOL    HW1  839   0.980   0.841   0.422  0.4837 -1.4905 -0.2012
  280SOL    HW2  840   1.129   0.802   0.364  0.9510  1.5056 -1.2969
  281SOL     OW  841   2.475   1.765   2.939  0.2170 -0.1261 -0.3712
  281SOL    HW1  842   2.550   1.807   2.884  1.6139  1.5523 -0.6906
  281SOL    HW2  843   2.439   1.834   3.011  1.3211  2.5105  3.1747
  282SOL     OW  844   2.724   1.410   0.073 -0.0631 -0.0959 -0.1409
  282SOL    HW1  845   2.652   1.370   0.132  1.2649  1.3785 -2.0009
  282SOL    HW2  846   2.814   1.362   0.081  2.0428 -1.0909  2.7595
  283SOL     OW  847   1.669   2.963   2.728  0.5568 -0.9441  0.0516
  283SOL    HW1  848   1.606   2.941   2.654  0.1482 -0.2888  0.8542
  283SOL    HW2  849   1.617   2.958   2.813  2.0041  1.2212 -1.9470
  284SOL     OW  850   0.920   0.010   3.055  0.8476  0.4546  0.0059
  284SOL    HW1  851   0.892   0.105   3.038  1.0732  1.7044  0.7929
  284SOL    HW2  852   1.008   3.114   3.010  0.4542  0.2999 -0.6810
  285SOL     OW  853   1.934   2.097   2.600 -0.2254  0.5698  1.1101
  285SOL    HW1  854   1.963   2.141   2.512  0.9984  1.8329  0.4741
  285SOL    HW2  855   1.942   2.163   2.675  0.9699  0.7360 -0.6522
  286SOL     OW  856   1.258   1.728   0.761 -0.4069  0.0588  0.0926
  286SOL    HW1  857   1.256   1.829   0.773  0.0740  0.8803 -0.0705
  286SOL    HW2  858   1.288   1.685   0.847 -0.7082 -0.5025  0.0736
  287SOL     OW  859   1.708   0.269   1.508  0.7654 -0.2307  0.4466
  287SOL    HW1  860   1.678   0.181   1.556 -2.5652 -1.6203  1.4901
  287SOL    HW2  861   1.686   0.347   1.567  0.8704 -1.9372 -1.3515
  288SOL     OW  862   0.677   2.668   2.275  0.1033  0.1083 -0.0342
  288SOL    HW1  863   0.730   2.743   2.325  1.0200  2.0856  0.5064
  288SOL    HW2  864   0.668   2.691   2.176 -0.3907  0.3399  2.2783
  289SOL     OW  865   0.209   1.182   0.964  0.2925  0.6406 -0.0577
  289SOL    HW1  866   0.140   1.106   0.968  0.0209 -2.4718  2.3592
  289SOL    HW2  867   0.203   1.238   1.051  0.9380  1.0379 -1.0031
  290SOL     OW  868   1.022   2.109   1.580 -0.4218 -0.0094  0.1776
  290SOL    HW1  869   1.084   2.105   1.663 -0.9194 -1.0754 -1.7667
  290SOL    HW2  870   1.048   2.044   1.506  2.0608 -0.1191 -1.0719
  291SOL     OW  871   1.962   2.911   0.552  0.2779 -1.1632  0.1993
  291SOL    HW1  872   1.955   2.933   0.654 -1.1276  1.0065 -0.3603
  291SOL    HW2  873   1.869   2.876   0.520  1.1373 -0.9415  1.0856
  292SOL     OW  874   0.392   0.359   1.528  0.3194 -0.1426 -0.0554
  292SOL    HW1  875   0.361   0.370   1.429  2.0075  0.9569 -0.3636
  292SOL    HW2  876   0.346   0.424   1.594 -1.9204  2.0265 -1.2783
  293SOL     OW  877   2.396   1.648   1.074 -0.1217 -0.6122  0.0715
  293SOL    HW1  878   2.479   1.702   1.054 -1.9638 -1.4691  0.5273
  293SOL    HW2  879   2.333   1.646   0.994 -0.4434 -0.3367  0.8114
  294SOL     OW  880   0.675   0.298   2.187 -0.0440  0.3148 -0.2490
  294SOL    HW1  881   0.765   0.318   2.141  2.5426  0.2717  2.3661
  294SOL    HW2  882   0.691   0.257   2.282  1.5465 -0.9287 -0.7965
  295SOL     OW  883   0.973   1.191   0.542 -0.1806  0.3457  0.0899
  295SOL    HW1  884   0.919   1.108   0.519 -0.2477  1.5231  1.6636
  295SOL    HW2  885   0.930   1.255   0.610 -3.1945  0.6136  0.8712
  296SOL     OW  886   2.140   1.914   1.140 -0.1503 -0.1507 -0.4635
  296SOL    HW1  887   2.081   1.848   1.185  0.1219  2.4218 -3.0136
  296SOL    HW2  888   2.138   1.903   1.039 -1.3135 -1.9068  2.0410
  297SOL     OW  889   2.078   0.390   2.824  0.4648 -0.1920  0.0114
  297SOL    HW1  890   2.154   0.411   2.753  1.3795 -0.0050  0.7479
  297SOL    HW2  891   2.081   0.468   2.891  1.0547  0.3889 -1.7174
  298SOL     OW  892   1.320   0.069   2.713 -0.2825 -0.0625  0.0659
  298SOL    HW1  893   1.368   0.072   2.619 -0.8639 -0.2837  0.2228
  298SOL    HW2  894   1.362   0.118   2.788 -1.1741  0.1202 -2.5255
  299SOL     OW  895   1.057   0.227   2.136 -0.1413  0.0454 -0.4166
  299SOL    HW1  896   1.135   0.279   2.176  1.7761 -0.3582  0.9046
  299SOL    HW2  897   1.012   0.164   2.204  0.6465  0.4462 -1.6002
  300SOL     OW  898   2.577   0.062   1.570  0.2228  0.5285  0.0308
  300SOL    HW1  899   2.608   0.118   1.646 -3.1971  0.1685 -0.7732
  300SOL    HW2  900   2.499   0.100   1.520 -0.1704 -1.3320  0.7613
  301SOL     OW  901   2.369   0.300   1.667  0.5900 -0.2497 -0.0014
  301SOL    HW1  902   2.448   0.277   1.720 -0.6400 -0.0018 -1.3701
  301SOL    HW2  903   2.377   0.388   1.616  2.7429  0.1785  2.1926
  302SOL     OW  904   0.755   2.601   0.305 -0.2994  0.0106  0.3029
  302SOL    HW1  905   0.804   2.639   0.385  0.2157 -3.2561  2.0305
  302SOL    HW2  906   0.752   2.673   0.229  0.3697  1.9566 -1.7282
  303SOL     OW  907   1.724   1.948   2.021  0.4787  0.3786  0.3354
  303SOL    HW1  908   1.716   1.863   1.963  0.2343  0.0717  0.5750
  303SOL    HW2  909   1.727   2.035   1.963  2.4119  0.3407  0.7650
  304SOL     OW  910   0.697   0.381   0.904 -0.1959  0.4949  0.6209
  304SOL    HW1  911   0.625   0.365   0.974 -1.4224  1.0738 -0.4950
  304SOL    HW2  912   0.710   0.480   0.886 -0.3102  0.8325 -1.8682
  305SOL     OW  913   0.777   0.717   0.811  0.2629 -0.1510  0.0242
  305SOL    HW1  914   0.735   0.679   0.727 -1.9407 -0.2313  3.2264
  305SOL    HW2  915   0.841   0.644   0.848  1.7565 -0.7520  1.9050
  306SOL     OW  916   0.616   1.338   2.831  0.2711  0.2120 -0.5327
  306SOL    HW1  917   0.702   1.305   2.791  1.9284 -0.0756 -0.1357
  306SOL    HW2  918   0.616   1.328   2.932  2.3735  1.0663  2.4939
  307SOL     OW  919   0.880   0.401   2.034  1.1167  0.2749 -0.1763
  307SOL    HW1  920   0.913   0.453   1.957  0.8921 -4.6914  0.9607
  307SOL    HW2  921   0.942   0.323   2.066  0.9355 -2.0991 -2.0784
  308SOL     OW  922   0.956   0.251   0.872 -1.1394  0.0213 -0.1164
  308SOL    HW1  923   0.907   0.322   0.916  1.9079  0.7028 -0.1627
  308SOL    HW2  924   0.944   0.252   0.773 -1.7609 -0.3584  1.5390
  309SOL     OW  925   2.452   0.990   0.368  0.0658 -0.6690 -0.2716
  309SOL    HW1  926   2.451   1.070   0.422 -0.1434 -0.2177 -3.4353
  309SOL    HW2  927   2.481   0.907   0.420 -0.8354 -1.7807  0.2183
  310SOL     OW  928   0.964   1.371   2.880 -0.1978  0.0393 -0.2663
  310SOL    HW1  929   1.051   1.414   2.849 -0.7577 -0.4173  0.2439
  310SOL    HW2  930   0.965   1.350   2.982 -2.4763  0.4198 -0.9798
  311SOL     OW  931   1.944   2.589   2.144 -0.4305 -0.3651  0.0583
  311SOL    HW1  932   2.035   2.574   2.099 -0.9385  1.2569  2.6648
  311SOL    HW2  933   1.960   2.651   2.227 -1.6510 -0.8989  0.6614
  312SOL     OW  934   2.078   2.818   3.035 -0.8285 -0.3949 -0.2046
  312SOL    HW1  935   2.006   2.785   2.969 -2.3779  1.5354 -1.0140
  312SOL    HW2  936   2.075   2.919   3.026  1.3349  0.5464  0.5671
  313SOL     OW  937   0.542   0.169   3.106 -0.5213 -0.1028 -0.2826
  313SOL    HW1  938   0.543   0.268   3.082 -0.5053 -1.2309  2.5429
  313SOL    HW2  939   0.496   0.126   3.024 -2.5017 -0.6459 -0.4149
  314SOL     OW  940   2.538   1.561   2.744 -0.1513  0.0754 -0.5403
  314SOL    HW1  941   2.598   1.547   2.826 -1.0212 -0.6951  1.5436
  314SOL    HW2  942   2.472   1.637   2.759  2.0081 -1.3923  2.4974
  315SOL     OW  943   1.986   0.556   2.238 -0.4238  0.0261 -0.3040
  315SOL    HW1  944   1.939   0.587   2.326 -1.6337  0.0929  1.0459
  315SOL    HW2  945   2.042   0.626   2.204 -1.5965 -2.4879  0.0445
  316SOL     OW  946   2.967   1.055   0.559  0.1957  0.2178  0.0615
  316SOL    HW1  947   2.938   1.010   0.645  0.8315 -0.8123  0.8733
  316SOL    HW2  948   3.000   0.989   0.486  0.0151  0.6510 -0.5128
  317SOL     OW  949   0.707   2.828   0.156  0.3066 -0.6752  0.1580
  317SOL    HW1  950   0.701   2.905   0.228 -0.2648  4.0131  2.2665
  317SOL    HW2  951   0.689   2.867   0.061 -1.4998  2.1442 -0.7964
  318SOL     OW  952   2.002   2.591   1.288  0.0366 -0.7173  0.5922
  318SOL    HW1  953   1.999   2.625   1.386  0.4221 -0.2166 -0.4086
  318SOL    HW2  954   2.076   2.637   1.238  3.4273 -2.5922  1.1362
  319SOL     OW  955   1.288   1.432   0.142  0.3345  0.5422  0.0935
  319SOL    HW1  956   1.339   1.503   0.194  1.7912  2.1173 -2.6764
  319SOL    HW2  957   1.194   1.406   0.177 -0.7614 -0.4353 -2.3427
  320SOL     OW  958   0.666   1.768   0.878 -0.0112  0.5041 -0.0422
  320SOL    HW1  959   0.750   1.812   0.921  0.4269 -1.8959 -0.2767
  320SOL    HW2  960   0.587   1.836   0.860 -0.9155 -1.0002  0.4153
  321SOL     OW  961   2.109   2.800   1.814 -0.2672 -0.2640  0.2173
  321SOL    HW1  962   2.185   2.864   1.791 -1.4743 -0.4330 -0.1213
  321SOL    HW2  963   2.033   2.849   1.858 -0.8951 -0.0983  0.2047
  322SOL     OW  964   1.981   2.204   2.333 -0.2475 -0.2166 -0.2501
  322SOL    HW1  965   2.007   2.304   2.357  0.8738  1.6161 -2.7242
  322SOL    HW2  966   1.973   2.200   2.234  1.1026 -0.3693  1.2054
  323SOL     OW  967   2.514   0.300   0.803  0.4218 -0.1197  0.0267
  323SOL    HW1  968   2.419   0.338   0.805 -1.6374 -2.6088 -2.3896
  323SOL    HW2  969   2.576   0.338   0.729 -0.3192  0.2063 -0.0453
  324SOL     OW  970   2.488   2.391   2.208 -0.3458  0.8405  0.0761
  324SOL    HW1  971   2.462   2.296   2.230 -0.6231  0.8194  1.6175
  324SOL    HW2  972   2.562   2.420   2.275  0.0687  3.9427  1.7334
  325SOL     OW  973   1.424   0.699   2.576 -0.4946 -0.1332  0.6857
  325SOL    HW1  974   1.329   0.727   2.556  0.4333  1.3877  0.4899
  325SOL    HW2  975   1.438   0.709   2.675 -0.0534  2.2190 -4.2808
  326SOL     OW  976   2.587   2.375   0.967 -0.1286 -0.0805 -0.3666
  326SOL    HW1  977   2.524   2.366   0.884 -0.7397 -1.7071 -1.8790
  326SOL    HW2  978   2.606   2.282   1.005 -0.1630  0.3699 -0.3080
  327SOL     OW  979   2.605   2.910   0.223  0.3831  0.1619  0.4016
  327SOL    HW1  980   2.624   2.878   0.128  0.7436  0.5947 -0.3879
  327SOL    HW2  981   2.612   3.012   0.228  2.0379 -0.1712 -1.1692
  328SOL     OW  982   0.693   0.784   1.117 -0.1404 -0.2840  0.1575
  328SOL    HW1  983   0.697   0.728   1.204 -1.1404 -1.0189  0.6277
  328SOL    HW2  984   0.783   0.791   1.074  1.4215  0.2243  0.1400
  329SOL     OW  985   2.096   0.526   1.459 -0.5134  0.3554  0.1397
  329SOL    HW1  986   2.135   0.598   1.518 -1.4952 -1.8140  0.7818
  329SOL    HW2  987   2.155   0.491   1.383 -0.6320 -1.8306 -1.7665
  330SOL     OW  988   0.682   0.622   0.570 -0.5393 -0.3406 -0.4291
  330SOL    HW1  989   0.665   0.683   0.492 -0.0722  1.1474 -3.7113
  330SOL    HW2  990   0.723   0.535   0.533  1.7126 -0.0124  1.0943
  331SOL     OW  991   0.747   1.942   1.822  0.5138 -0.4666  0.0669
  331SOL    HW1  992   0.755   2.034   1.786 -2.1133 -0.2730 -2.4211
  331SOL    HW2  993   0.689   1.886   1.761  0.5447  0.4227  2.0275
  332SOL     OW  994   2.157   2.570   1.957 -0.6171 -0.5436  0.3254
  332SOL    HW1  995   2.217   2.588   2.039  0.7035 -1.9912 -2.6001
  332SOL    HW2  996   2.146   2.655   1.900 -0.0141  0.1300 -0.0497
  333SOL     OW  997   3.091   0.087   0.929  0.8151 -0.1547 -0.0634
  333SOL    HW1  998   0.010   0.052   1.011  0.8180  0.2467 -0.0559
  333SOL    HW2  999   2.995   0.047   0.920 -3.0878 -0.8520 -0.6767
  334SOL     OW 1000   3.004   1.319   0.816  0.0343 -0.2397 -0.2384
  334SOL    HW1 1001   2.958   1.304   0.724 -1.0739  0.9656 -1.0147
  334SOL    HW2 1002   3.069   1.403   0.811  0.2133  2.8390  0.8760
  335SOL     OW 1003   0.458   2.538   2.708 -1.1241  0.1457 -0.6664
  335SOL    HW1 1004   0.472   2.502   2.798 -1.0377 -0.0673  0.5237
  335SOL    HW2 1005   0.360   2.546   2.685 -0.4980 -0.7212 -1.4444
  336SOL     OW 1006   2.823   2.751   2.437 -0.3054 -0.0468 -0.2162
  336SOL    HW1 1007   2.892   2.820   2.454 -0.2441 -4.8389  1.0681
  336SOL    HW2 1008   2.771   2.765   2.351  0.5072  0.0309  0.2981
  337SOL     OW 1009   1.191   2.089   1.789  0.0873 -0.3052  0.2711
  337SOL    HW1 1010   1.120   2.021   1.812  0.3222 -2.1645 -1.6337
  337SOL    HW2 1011   1.284   2.078   1.827 -0.0612  0.9743 -1.3312
  338SOL     OW 1012   1.045   0.084   2.593 -0.4466  0.1031 -0.8083
  338SOL    HW1 1013   1.034   0.057   2.499  1.4417 -0.6450  1.3642
  338SOL    HW2 1014   1.140   0.062   2.622 -0.0110 -0.4341  1.0016
  339SOL     OW 1015   0.138   0.927   2.539 -0.2795  0.1769 -0.2254
  339SOL    HW1 1016   0.166   1.008   2.487 -0.3446 -1.5151  1.6948
  339SOL    HW2 1017   0.139   0.947   2.638 -0.0984  1.5445 -0.4026
  340SOL     OW 1018   2.240   0.420   1.268 -0.6953  0.6401 -0.4368
  340SOL    HW1 1019   2.273   0.458   1.181  1.1903  0.5411  0.5322
  340SOL    HW2 1020   2.224   0.321   1.263 -0.2700  0.0151 -1.3603
  341SOL     OW 1021   2.524   1.388   1.104 -0.1549  0.2199  0.2435
  341SOL    HW1 1022   2.477   1.477   1.118 -2.6767  1.1482 -0.2996
  341SOL    HW2 1023   2.543   1.348   1.194 -0.6384  1.6539 -0.2168
  342SOL     OW 1024   1.919   2.863   2.811 -0.1365 -0.0098  0.3461
  342SOL    HW1 1025   1.938   2.949   2.854 -0.4409 -0.1467  0.4566
  342SOL    HW2 1026   1.824   2.855   2.773  2.5424  0.0291 -2.7070
  343SOL     OW 1027   0.067   2.341   0.997 -0.1898 -0.0982  0.5158
  343SOL    HW1 1028   0.063   2.324   1.092  0.2988  2.2164 -2.4085
  343SOL    HW2 1029   0.155   2.388   0.971  0.9183  0.1170 -3.0490
  344SOL     OW 1030   2.599   2.819   1.238 -0.2643  0.4973 -0.1165
  344SOL    HW1 1031   2.601   2.718   1.252  1.4293  1.1483  1.2477
  344SOL    HW2 1032   2.529   2.862   1.295  0.3581 -2.2290 -1.7091
  345SOL     OW 1033   2.396   2.125   0.335 -0.1106 -0.9512 -0.4878
  345SOL    HW1 1034   2.500   2.130   0.354  2.1116 -0.5966 -0.5218
  345SOL    HW2 1035   2.355   2.202   0.381  1.3769  1.3090  0.6369
  346SOL     OW 1036   1.553   2.286   1.563  0.3903  0.0513  0.3768
  346SOL    HW1 1037   1.505   2.193   1.557 -0.8126 -1.1690  1.7813
  346SOL    HW2 1038   1.509   2.348   1.634 -0.8020 -0.5807  1.9654
  347SOL     OW 1039   1.064   1.863   1.425  0.2120 -0.1210 -0.2538
  347SOL    HW1 1040   1.125   1.785   1.453 -2.2160 -0.2830  1.3948
  347SOL    HW2 1041   1.078   1.895   1.331  0.1565  0.1057  0.4155
  348SOL     OW 1042   0.191   1.966   1.967  0.2052 -0.6059 -0.4723
  348SOL    HW1 1043   0.289   1.960   1.964 -0.1568  0.8508 -0.8364
  348SOL    HW2 1044   0.141   1.942   1.881 -1.4407  0.0733  2.5762
  349SOL     OW 1045   1.495   1.769   1.608 -0.2705  0.1895  0.6407
  349SOL    HW1 1046   1.448   1.780   1.698 -2.3524 -0.0582 -0.1022
  349SOL    HW2 1047   1.561   1.849   1.586 -2.5179  2.4551 -0.9880
  350SOL     OW 1048   2.033   2.413   0.481 -0.2801  0.3830  0.2862
  350SOL    HW1 1049   1.992   2.449   0.396 -0.0444 -0.1736 -1.6467
  350SOL    HW2 1050   2.128   2.373   0.467  1.4970  1.0418  1.4913
  351SOL     OW 1051   0.484   3.029   1.798  0.2488 -0.1711  0.3969
  351SOL    HW1 1052   0.543   2.957   1.756  0.5121 -1.9327  0.8496
  351SOL    HW2 1053   0.387   3.023   1.774 -0.2845 -2.2599  1.3472
  352SOL     OW 1054   0.699   0.977   0.761 -0.7268  0.4017  0.1522
  352SOL    HW1 1055   0.724   1.062   0.809 -1.8047 -1.4002 -1.2594
  352SOL    HW2 1056   0.736   0.895   0.809  0.0482 -3.1396  1.7662
  353SOL     OW 1057   1.230   1.973   2.727  0.2642  0.1414  0.0394
  353SOL    HW1 1058   1.255   2.052   2.671 -1.8890 -2.2881 -1.4231
  353SOL    HW2 1059   1.134   1.977   2.752  1.7700 -1.9746 -1.2852
  354SOL     OW 1060   1.700   2.711   2.045 -0.5736 -0.2837 -0.1868
  354SOL    HW1 1061   1.793   2.681   2.073 -0.1395  2.2930 -0.8868
  354SOL    HW2 1062   1.694   2.795   1.989  0.7470 -1.9318  0.4447
  355SOL     OW 1063   2.208   1.288   0.143 -0.3549  0.6866  0.5587
  355SOL    HW1 1064   2.264   1.370   0.159 -0.1118 -2.1279 -0.5565
  355SOL    HW2 1065   2.133   1.315   0.085 -0.5630 -1.0936 -0.8891
  356SOL     OW 1066   0.362   1.920   1.088  0.1517  0.4020 -0.3285
  356SOL    HW1 1067   0.375   1.821   1.070 -2.9113  0.5905  0.6383
  356SOL    HW2 1068   0.262   1.943   1.084  1.2507  0.4838  1.2667
  357SOL     OW 1069   0.133   2.905   1.325  0.1103  0.6208  0.2579
  357SOL    HW1 1070   0.063   2.981   1.340  3.1552 -3.3187 -0.3353
  357SOL    HW2 1071   0.183   2.922   1.239 -2.0142  2.1695  0.6739
  358SOL     OW 1072   2.168   1.814   1.532 -0.1183 -0.1072  0.5618
  358SOL    HW1 1073   2.248   1.860   1.572  0.8002  1.9869  2.0467
  358SOL    HW2 1074   2.200   1.730   1.487 -1.3065 -1.1907 -0.9188
  359SOL     OW 1075   2.197   2.946   2.709 -0.0925 -0.3527 -0.2761
  359SOL    HW1 1076   2.100   2.917   2.722  1.1140 -2.4322 -1.5397
  359SOL    HW2 1077   2.262   2.880   2.745  1.7945 -1.3906 -3.1427
  360SOL     OW 1078   0.983   2.766   0.956  0.2393 -0.6215  0.5687
  360SOL    HW1 1079   1.021   2.685   1.003  1.5467 -1.4455  0.9432
  360SOL    HW2 1080   0.999   2.851   1.014 -3.1597  2.4159  1.6795
  361SOL     OW 1081   1.905   0.368   0.450 -0.4606  0.5406  0.1233
  361SOL    HW1 1082   1.963   0.434   0.395 -1.2289 -1.0665  0.1214
  361SOL    HW2 1083   1.874   0.409   0.540  0.0910 -1.3256  0.9119
  362SOL     OW 1084   1.511   0.918   1.199 -0.3265  0.6381 -0.5930
  362SOL    HW1 1085   1.551   0.835   1.240  2.8488 -0.0183 -1.4443
  362SOL    HW2 1086   1.411   0.906   1.196  0.6359  3.0084 -0.7695
  363SOL     OW 1087   2.402   1.491   2.267  0.5865  0.1332  0.2415
  363SOL    HW1 1088   2.327   1.527   2.330 -1.0102  2.7591  2.2352
  363SOL    HW2 1089   2.373   1.443   2.181 -1.8034  0.0685  1.0578
  364SOL     OW 1090   0.404   0.719   1.338 -0.1034  0.5984  0.1785
  364SOL    HW1 1091   0.412   0.788   1.266  1.2511 -0.0863 -0.5538
  364SOL    HW2 1092   0.496   0.682   1.359 -1.2569 -1.1519  1.4827
  365SOL     OW 1093   0.617   0.126   2.426 -0.1846  0.2171 -0.3375
  365SOL    HW1 1094   0.622   0.079   2.520 -1.5071  2.6740 -1.8761
  365SOL    HW2 1095   0.611   0.057   2.347 -0.8158 -0.7879 -1.8028
  366SOL     OW 1096   2.282   2.142   2.414 -0.2081 -0.1841 -0.2596
  366SOL    HW1 1097   2.186   2.126   2.390  0.8409  0.3044 -0.3980
  366SOL    HW2 1098   2.292   2.235   2.456  2.8291  0.8470 -2.2189
  367SOL     OW 1099   2.708   2.555   0.071 -0.5069  0.6835  0.4571
  367SOL    HW1 1100   2.706   2.591   0.168 -1.6176  0.6673 -0.1850
  367SOL    HW2 1101   2.755   2.617   3.124  0.5801  0.0571 -1.3224
  368SOL     OW 1102   2.823   1.378   0.996 -0.6118  0.3077  0.2877
  368SOL    HW1 1103   2.732   1.399   0.959  2.4900 -0.7577  1.3551
  368SOL    HW2 1104   2.880   1.329   0.927 -0.0458  2.4734  1.1497
  369SOL     OW 1105   0.822   2.846   2.413 -0.1077 -0.1508 -0.4305
  369SOL    HW1 1106   0.787   2.872   2.507 -0.9598  0.5066  1.4372
  369SOL    HW2 1107   0.886   2.915   2.381 -1.8564 -1.1090  0.0115
  370SOL     OW 1108   2.776   0.119   0.506 -0.6781 -0.5526  0.3531
  370SOL    HW1 1109   2.813   0.212   0.528 -1.3098  1.2804  0.4386
  370SOL    HW2 1110   2.703   0.090   0.563 -1.6441 -1.3867 -0.7611
  371SOL     OW 1111   1.336   2.118   1.299 -1.1311 -0.1055  0.2378
  371SOL    HW1 1112   1.352   2.216   1.297 -0.7078 -1.8341  0.0472
  371SOL    HW2 1113   1.258   2.104   1.233  0.9535 -0.0678 -1.5703
  372SOL     OW 1114   0.150   0.652   2.484 -0.0913  0.3939 -0.1384
  372SOL    HW1 1115   0.229   0.601   2.522 -0.2191  3.3875  1.1222
  372SOL    HW2 1116   0.161   0.749   2.513 -0.1693 -1.2473 -1.6383
  373SOL     OW 1117   0.172   2.103   0.742 -0.1139 -0.8541 -0.3945
  373SOL    HW1 1118   0.252   2.150   0.783 -1.5872 -2.8402 -1.9446
  373SOL    HW2 1119   0.095   2.169   0.746  0.4008  0.2863  0.7970
  374SOL     OW 1120   0.489   2.922   2.488  0.2746 -0.1988  0.0984
  374SOL    HW1 1121   0.565   2.889   2.540 -0.8550 -0.1173 -0.9603
  374SOL    HW2 1122   0.511   2.975   2.402  0.2859  0.9378  1.1323
  375SOL     OW 1123   0.615   0.059   2.681 -0.3054  0.2124  0.0899
  375SOL    HW1 1124   0.603   3.084   2.702  0.1155 -1.1967  0.7059
  375SOL    HW2 1125   0.708   0.094   2.706  1.0908 -1.3250  0.7127
  376SOL     OW 1126   2.768   2.069   1.769 -0.2986 -0.3442 -0.1861
  376SOL    HW1 1127   2.743   1.977   1.798 -0.6955  6.2063 -0.7853
  376SOL    HW2 1128   2.740   2.138   1.842  0.2976  0.8065  1.4996
  377SOL     OW 1129   1.727   2.567   3.026  0.6471 -0.1773  0.1123
  377SOL    HW1 1130   1.730   2.654   3.079  0.2818  0.2702  1.9310
  377SOL    HW2 1131   1.641   2.553   2.978 -1.8841 -0.2833  0.0932
  378SOL     OW 1132   0.132   0.295   2.333  0.1418 -0.1176  0.4533
  378SOL    HW1 1133   0.205   0.260   2.395 -2.4138  0.3138 -2.7181
  378SOL    HW2 1134   0.071   0.359   2.379  0.3660 -0.8795  0.0311
  379SOL     OW 1135   0.420   0.968   0.317 -0.4401  0.1785  0.1492
  379SOL    HW1 1136   0.450   1.022   0.400 -2.4388  1.0480  0.0230
  379SOL    HW2 1137   0.365   0.887   0.349 -3.4698 -0.0684 -0.2521
  380SOL     OW 1138   0.266   1.527   1.963  0.3207  1.1917 -0.3447
  380SOL    HW1 1139   0.324   1.508   1.880 -0.0165  3.4885 -0.7268
  380SOL    HW2 1140   0.318   1.583   2.034  0.6051 -2.7346  1.5500
  381SOL     OW 1141   0.576   1.131   2.043 -0.1599 -0.1468 -0.0745
  381SOL    HW1 1142   0.558   1.048   2.102  1.2246 -1.6844  1.0761
  381SOL    HW2 1143   0.658   1.117   1.984  1.3578 -2.2092 -0.7233
  382SOL     OW 1144   2.248   1.903   0.393 -0.3332 -0.2554  0.0321
  382SOL    HW1 1145   2.298   1.992   0.373 -1.7009 -0.1580  0.4445
  382SOL    HW2 1146   2.175   1.910   0.464  0.8546 -3.0824  1.5682
  383SOL     OW 1147   0.547   1.990   3.068 -0.2682  0.0676 -0.0723
  383SOL    HW1 1148   0.575   1.977   0.039 -0.5422 -0.4189 -1.2855
  383SOL    HW2 1149   0.605   1.928   3.009 -1.5517 -0.5685  1.4490
  384SOL     OW 1150   0.899   2.218   2.654  0.0545 -0.5207 -0.9093
  384SOL    HW1 1151   0.842   2.142   2.613 -2.9991 -1.6212 -1.9163
  384SOL    HW2 1152   0.836   2.282   2.703 -1.3256  2.1163 -1.9737
  385SOL     OW 1153   2.051   1.852   0.595  0.2420 -0.4139 -0.3883
  385SOL    HW1 1154   2.087   1.881   0.686  0.2197  0.9419  0.9139
  385SOL    HW2 1155   1.962   1.895   0.569 -0.5867  0.2102  0.9523
  386SOL     OW 1156   2.442   0.874   1.665 -0.0088 -0.0168 -0.3825
  386SOL    HW1 1157   2.496   0.907   1.745  1.2087 -0.4436 -1.6774
  386SOL    HW2 1158   2.367   0.941   1.643 -0.8070  2.7321 -2.5679
  387SOL     OW 1159   2.729   1.460   2.073  0.5520  0.4104 -0.5086
  387SOL    HW1 1160   2.700   1.563   2.081 -1.8687  2.6905  0.4875
  387SOL    HW2 1161   2.792   1.445   2.151  0.0730 -2.2135  0.9857
  388SOL     OW 1162   0.390   1.665   2.160  0.0936  0.3520  0.2092
  388SOL    HW1 1163   0.476   1.694   2.107 -0.1810  3.7386 -3.9191
  388SOL    HW2 1164   0.358   1.741   2.216  0.3528  1.3057  2.9008
  389SOL     OW 1165   1.214   1.114   2.042  0.1876 -0.5402  0.6930
  389SOL    HW1 1166   1.143   1.068   2.098 -1.8019 -0.2080  0.4598
  389SOL    HW2 1167   1.303   1.069   2.048 -3.5138  2.5393 -1.2426
  390SOL     OW 1168   2.258   0.130   1.035 -0.4048 -0.1373  0.8002
  390SOL    HW1 1169   2.357   0.136   1.053  1.8202 -1.3279  2.3846
  390SOL    HW2 1170   2.207   0.123   1.124  1.4974  2.4145  3.6641
  391SOL     OW 1171   1.891   1.488   1.317 -0.0646  0.4784 -0.5249
  391SOL    HW1 1172   1.978   1.435   1.338  0.2176 -0.0746  1.5148
  391SOL    HW2 1173   1.815   1.447   1.378 -1.7601 -1.0826  3.2711
  392SOL     OW 1174   2.708   2.840   0.469  0.1193  0.7410 -0.1663
  392SOL    HW1 1175   2.656   2.870   0.386  1.7494  1.2504  0.2969
  392SOL    HW2 1176   2.781   2.904   0.493 -1.0463 -2.4832 -1.4538
  393SOL     OW 1177   1.936   2.216   2.876 -0.1097 -0.4163 -0.3740
  393SOL    HW1 1178   1.945   2.318   2.881 -0.6711 -0.5212 -1.7070
  393SOL    HW2 1179   2.001   2.174   2.944  0.8216 -0.2031 -1.4688
  394SOL     OW 1180   0.203   2.564   2.618  0.4549 -0.1274 -0.2284
  394SOL    HW1 1181   0.159   2.576   2.707  0.2204 -0.0986 -1.4821
  394SOL    HW2 1182   0.169   2.480   2.575  0.3521  1.3618  0.9487
  395SOL     OW 1183   0.541   0.253   0.698  0.7426 -0.3797 -0.3495
  395SOL    HW1 1184   0.465   0.317   0.663  0.7877 -1.3256 -3.1853
  395SOL    HW2 1185   0.597   0.278   0.779  1.5968 -1.3403  1.3494
  396SOL     OW 1186   1.829   0.829   0.701  0.0402  0.1872  0.6461
  396SOL    HW1 1187   1.858   0.897   0.769 -2.9135  0.4673 -1.2952
  396SOL    HW2 1188   1.730   0.806   0.725 -1.9468  2.0285  1.0642
  397SOL     OW 1189   0.494   0.589   2.146 -0.2924 -0.5314  0.1655
  397SOL    HW1 1190   0.551   0.545   2.072  0.6766  0.0552 -0.0503
  397SOL    HW2 1191   0.409   0.534   2.150 -1.6685  0.4905 -0.4310
  398SOL     OW 1192   0.861   3.080   0.541  0.1059  0.1343 -0.0612
  398SOL    HW1 1193   0.885   0.046   0.565 -2.2442 -0.0030 -2.1233
  398SOL    HW2 1194   0.906   3.017   0.605  1.9680  0.5957  0.9939
  399SOL     OW 1195   2.228   0.073   1.738  0.1735  0.0235  0.4239
  399SOL    HW1 1196   2.281   0.145   1.687 -0.2921 -1.4538 -0.3354
  399SOL    HW2 1197   2.273   3.107   1.735 -0.7557  1.0251 -0.4504
  400SOL     OW 1198   0.966   2.004   2.408  0.1247 -0.0932  0.5784
  400SOL    HW1 1199   0.875   2.007   2.458 -1.8099 -2.3655  0.8376
  400SOL    HW2 1200   0.947   2.031   2.307 -0.4428  2.4144 -2.8594
  401SOL     OW 1201   0.445   0.850   2.668  0.0950  0.0731  0.0648
  401SOL    HW1 1202   0.476   0.902   2.585 -0.0726 -0.8406  1.4695
  401SOL    HW2 1203   0.346   0.868   2.688 -0.9202  1.5373 -1.0527
  402SOL     OW 1204   0.377   2.282   0.511 -0.0396 -0.5912 -0.7216
  402SOL    HW1 1205   0.309   2.209   0.493 -0.0528  1.4486  0.3490
  402SOL    HW2 1206   0.351   2.373   0.472  0.5662 -0.6564  1.2585
  403SOL     OW 1207   3.119   1.109   2.004 -0.7295  0.2740 -0.0788
  403SOL    HW1 1208   0.061   1.174   1.962  0.6148  0.1520 -0.2311
  403SOL    HW2 1209   3.057   1.072   1.934 -0.4910  0.5427 -0.4362
  404SOL     OW 1210   2.656   2.490   2.409  0.2500  0.0286 -0.1257
  404SOL    HW1 1211   2.684   2.430   2.486  0.5574  1.4293 -0.3538
  404SOL    HW2 1212   2.681   2.590   2.423  1.4758  4.5436  1.5376
  405SOL     OW 1213   0.249   0.288   1.888  0.4112 -0.1430 -0.3940
  405SOL    HW1 1214   0.315   0.269   1.968 -0.4358 -1.4059  0.7453
  405SOL    HW2 1215   0.167   0.225   1.885  0.0616 -1.9707 -1.6453
  406SOL     OW 1216   1.599   1.633   2.531  0.5099 -0.8059 -0.1144
  406SOL    HW1 1217   1.541   1.667   2.610 -1.1621  0.7518  2.2894
  406SOL    HW2 1218   1.607   1.708   2.456  0.1677  4.0902 -2.5379
  407SOL     OW 1219   1.660   1.044   2.707  0.2446 -0.0030 -0.1304
  407SOL    HW1 1220   1.728   1.117   2.738  1.5833  0.1821  1.4777
  407SOL    HW2 1221   1.665   1.025   2.609 -0.8441  1.1171  1.5696
  408SOL     OW 1222   0.581   3.058   2.258 -0.2287  0.5350  0.1207
  408SOL    HW1 1223   0.669   3.045   2.205  1.0851 -2.4397 -0.7963
  408SOL    HW2 1224   0.504   3.058   2.193  3.4247 -1.0250  0.4432
  409SOL     OW 1225   0.095   2.010   1.164  0.4794  0.2925 -0.2854
  409SOL    HW1 1226   0.042   2.014   1.077  0.0195  0.0657 -0.0146
  409SOL    HW2 1227   0.103   2.102   1.206 -0.6372  0.5479 -0.5490
  410SOL     OW 1228   2.453   1.497   0.314 -0.1598 -0.0738 -0.4977
  410SOL    HW1 1229   2.370   1.515   0.257 -1.6079 -0.2052 -2.2494
  410SOL    HW2 1230   2.507   1.414   0.286 -2.4644 -1.8345 -0.6232
  411SOL     OW 1231   0.269   0.076   1.128 -0.3485  0.2918 -0.3260
  411SOL    HW1 1232   0.309   0.046   1.219 -0.6615 -2.5083  4.0754
  411SOL    HW2 1233   0.229   0.168   1.137  1.8042 -2.0182 -0.5445
  412SOL     OW 1234   1.668   0.465   1.686 -0.2377  0.8224  0.3351
  412SOL    HW1 1235   1.624   0.465   1.776 -1.8868  2.6495 -2.7102
  412SOL    HW2 1236   1.641   0.548   1.633 -0.2283 -2.9235  0.7931
  413SOL     OW 1237   0.610   0.425   1.921  0.2750  0.1530 -0.1591
  413SOL    HW1 1238   0.570   0.336   1.908  2.4085  2.1084  1.8512
  413SOL    HW2 1239   0.700   0.409   1.963  0.5283 -1.4038 -0.9195
  414SOL     OW 1240   2.976   1.645   2.698  0.0447  0.1989 -0.0097
  414SOL    HW1 1241   2.973   1.554   2.742 -0.1812  0.1085  0.3048
  414SOL    HW2 1242   2.893   1.653   2.645 -0.0570  1.9809  1.4131
  415SOL     OW 1243   0.863   2.514   0.049 -0.1979  0.3375 -0.1399
  415SOL    HW1 1244   0.952   2.520   3.120  1.9492 -0.6573  1.9958
  415SOL    HW2 1245   0.877   2.539   0.148 -2.4222  0.2123  1.4435
  416SOL     OW 1246   1.840   0.310   2.732 -0.0805 -0.5479 -0.4301
  416SOL    HW1 1247   1.841   0.216   2.752  2.9497  3.9887  0.0700
  416SOL    HW2 1248   1.926   0.350   2.771 -1.3281 -1.6807  2.5806
  417SOL     OW 1249   0.360   0.410   0.615 -0.2436  0.1170  0.0419
  417SOL    HW1 1250   0.392   0.506   0.625 -1.5050  1.3593 -2.9295
  417SOL    HW2 1251   0.259   0.396   0.600 -1.3756  1.8608 -0.8872
  418SOL     OW 1252   2.593   0.058   0.699  0.3508 -0.1125 -0.0602
  418SOL    HW1 1253   2.515   0.008   0.657  1.0554  0.5686  0.8001
  418SOL    HW2 1254   2.567   0.144   0.742  4.1411 -2.7077 -1.6743
  419SOL     OW 1255   0.002   2.808   0.518 -0.6274  0.5705 -0.1768
  419SOL    HW1 1256   0.100   2.831   0.537  4.4637 -2.7859  1.1021
  419SOL    HW2 1257   3.065   2.886   0.526 -0.2991 -1.0759  0.1793
  420SOL     OW 1258   0.158   1.289   1.883 -0.1138  0.0462 -0.0857
  420SOL    HW1 1259   0.188   1.381   1.913 -0.8491 -3.7762 -0.8465
  420SOL    HW2 1260   0.232   1.235   1.845 -0.0940  0.8447  0.1326
  421SOL     OW 1261   1.523   2.618   0.895  0.6522  0.2320 -0.0784
  421SOL    HW1 1262   1.542   2.692   0.969 -1.3540  0.5200  1.6190
  421SOL    HW2 1263   1.553   2.527   0.930  0.4363 -3.5826 -0.7243
  422SOL     OW 1264   0.705   0.387   1.585 -0.0674  0.3429 -0.6227
  422SOL    HW1 1265   0.721   0.471   1.639  0.9234  1.8246  2.5553
  422SOL    HW2 1266   0.607   0.376   1.558 -1.6343  3.9852 -1.8608
  423SOL     OW 1267   0.946   1.419   1.830 -0.4391  0.3339 -0.8902
  423SOL    HW1 1268   1.039   1.460   1.838  1.3965  1.1500 -2.7871
  423SOL    HW2 1269   0.955   1.318   1.817  0.1127 -2.2931 -0.9767
  424SOL     OW 1270   1.886   2.301   0.171  0.0919 -0.0867 -0.4185
  424SOL    HW1 1271   1.901   2.398   0.197  4.1595  0.0122 -1.2034
  424SOL    HW2 1272   1.785   2.271   0.174 -2.5864  0.3395 -0.0373
  425SOL     OW 1273   2.888   2.965   1.924 -0.4449  0.2223  0.1551
  425SOL    HW1 1274   2.982   2.989   1.946  0.2584  1.0420 -2.1997
  425SOL    HW2 1275   2.867   2.968   1.826 -1.1631  0.6777 -0.1247
  426SOL     OW 1276   0.104   2.661   2.872 -0.2160  0.0674  0.0080
  426SOL    HW1 1277   0.165   2.734   2.911  2.9685  2.4737 -1.7044
  426SOL    HW2 1278   0.047   2.617   2.946 -3.5683  0.1590 -0.3665
  427SOL     OW 1279   1.150   0.564   3.079  0.1863  0.3105 -0.1473
  427SOL    HW1 1280   1.199   0.549   0.043  0.7152 -0.9710 -0.1252
  427SOL    HW2 1281   1.169   0.477   3.017  1.5974 -4.0138 -4.4059
  428SOL     OW 1282   2.808   0.594   1.312 -0.0417  0.1047 -0.1566
  428SOL    HW1 1283   2.874   0.518   1.328  0.1963  0.2058 -0.8173
  428SOL    HW2 1284   2.735   0.599   1.384 -0.1006 -0.3260  1.3117
  429SOL     OW 1285   2.145   2.976   1.251  0.2012 -0.3184 -0.2335
  429SOL    HW1 1286   2.172   2.916   1.332  0.1043  0.5405  1.6220
  429SOL    HW2 1287   2.146   2.917   1.170  1.1604  1.3689  2.0240
  430SOL     OW 1288   1.242   1.648   2.315 -0.2048  0.1412 -0.3249
  430SOL    HW1 1289   1.210   1.623   2.415 -0.0446  1.4122  1.6367
  430SOL    HW2 1290   1.328   1.607   2.281  0.3293  0.3707  0.9183
  431SOL     OW 1291   2.604   1.804   1.311 -0.0750 -0.4413 -0.1514
  431SOL    HW1 1292   2.656   1.774   1.233 -1.2264  0.3812 -0.8243
  431SOL    HW2 1293   2.673   1.838   1.379 -0.0533 -1.5086  3.0353
  432SOL     OW 1294   1.196   3.080   2.366 -0.4657  0.0314  0.3237
  432SOL    HW1 1295   1.204   3.001   2.432  1.7703  0.9328  2.3954
  432SOL    HW2 1296   1.262   0.028   2.395  1.3935 -1.0078 -0.9103
  433SOL     OW 1297   1.962   0.263   2.280 -0.1208  0.3857 -0.3684
  433SOL    HW1 1298   1.993   0.215   2.364  0.4204  3.7575 -3.5210
  433SOL    HW2 1299   1.970   0.364   2.297  0.7961  1.0101  1.0752
  434SOL     OW 1300   0.333   2.406   2.226  0.1267  0.1045 -0.3501
  434SOL    HW1 1301   0.361   2.430   2.319 -3.0345  0.2642 -1.9422
  434SOL    HW2 1302   0.324   2.307   2.214  2.1128  0.8393 -0.2260
  435SOL     OW 1303   0.073   3.089   0.358 -0.2359 -0.6777  0.1797
  435SOL    HW1 1304   0.142   0.028   0.322 -1.5585  0.8912 -0.2325
  435SOL    HW2 1305   0.106   3.029   0.434 -1.3107 -2.3727  2.4063
  436SOL     OW 1306   0.479   0.857   2.178  0.3481 -0.1606 -0.0450
  436SOL    HW1 1307   0.393   0.891   2.133 -4.2507  1.2005 -0.7294
  436SOL    HW2 1308   0.473   0.759   2.185 -1.8645  1.9612  0.5221
  437SOL     OW 1309   0.710   2.399   2.777 -0.2304  0.3945  0.2555
  437SOL    HW1 1310   0.639   2.415   2.703  1.2695  0.1489 -1.2483
  437SOL    HW2 1311   0.671   2.328   2.839 -0.7985  2.1452 -0.1506
  438SOL     OW 1312   1.070   1.018   0.946 -0.2688 -0.5443 -0.4598
  438SOL    HW1 1313   0.995   1.074   0.910 -2.1412 -3.2215  1.4264
  438SOL    HW2 1314   1.157   1.071   0.965  0.3608 -0.9256  0.5470
  439SOL     OW 1315   2.628   1.414   2.400  0.2739 -0.2662  0.4842
  439SOL    HW1 1316   2.653   1.315   2.388  1.5978 -0.8840  1.9279
  439SOL    HW2 1317   2.537   1.431   2.354 -4.2189  0.0443 -1.7249
  440SOL     OW 1318   3.044   0.545   2.996  0.4537 -0.8158  0.2363
  440SOL    HW1 1319   3.019   0.597   2.917  2.9333 -0.2520  0.7186
  440SOL    HW2 1320   3.057   0.450   2.973  2.5759  0.7760 -3.2893
  441SOL     OW 1321   0.770   1.839   1.405  0.5563 -0.0215  0.2336
  441SOL    HW1 1322   0.733   1.930   1.374 -1.3283  0.7389  0.4641
  441SOL    HW2 1323   0.870   1.845   1.420 -2.6425  0.8356  0.2174
  442SOL     OW 1324   1.609   1.495   0.881 -0.4204 -0.8649 -0.2230
  442SOL    HW1 1325   1.640   1.437   0.962 -2.4504 -0.2931 -1.4466
  442SOL    HW2 1326   1.581   1.438   0.800  0.6566  1.3282 -0.8000
  443SOL     OW 1327   2.311   2.096   2.821 -0.3484 -0.6477 -0.4742
  443SOL    HW1 1328   2.384   2.078   2.754  0.3652  2.4803 -3.3213
  443SOL    HW2 1329   2.292   2.196   2.820  0.9537 -0.3234 -1.3702
  444SOL     OW 1330   1.986   1.695   2.819 -0.3557  0.3548  0.1374
  444SOL    HW1 1331   1.926   1.719   2.897 -2.1431  0.8041 -2.7398
  444SOL    HW2 1332   2.028   1.780   2.778  0.6796 -1.0044 -0.4567
  445SOL     OW 1333   2.802   2.623   2.031 -0.1200  0.7492 -0.2419
  445SOL    HW1 1334   2.817   2.640   2.130 -1.3041 -2.9868 -2.8950
  445SOL    HW2 1335   2.706   2.615   1.999  2.1499 -2.5584 -1.8294
  446SOL     OW 1336   1.083   0.929   1.807 -0.5072 -0.2603 -0.1669
  446SOL    HW1 1337   1.129   0.920   1.900  2.0550  1.0585  1.6289
  446SOL    HW2 1338   1.017   0.853   1.791  1.4547 -0.1204 -0.2422
  447SOL     OW 1339   0.945   0.803   1.041  0.0699 -0.2779  0.1315
  447SOL    HW1 1340   0.965   0.732   0.977  1.7343  2.1997  0.2241
  447SOL    HW2 1341   1.004   0.886   1.018  0.1389  0.1450  1.5615
  448SOL     OW 1342   1.180   1.332   2.474 -0.2799 -0.1412 -0.1949
  448SOL    HW1 1343   1.159   1.335   2.374 -1.4222 -1.9511  3.0119
  448SOL    HW2 1344   1.168   1.430   2.504  0.5666  0.6801  0.6152
  449SOL     OW 1345   3.081   2.067   2.478 -0.2232 -0.1831 -0.5206
  449SOL    HW1 1346   0.039   2.004   2.487  0.0366 -0.6867 -0.8617
  449SOL    HW2 1347   3.061   2.090   2.379 -3.5680 -0.9596 -0.8588
  450SOL     OW 1348   2.310   1.654   1.908  0.6981  0.0409  0.2004
  450SOL    HW1 1349   2.377   1.641   1.834 -1.5767 -1.0882  6.1377
  450SOL    HW2 1350   2.348   1.709   1.983  0.9769 -0.5321  2.1666
  451SOL     OW 1351   2.807   1.529   1.496  0.1092 -0.0036  0.5515
  451SOL    HW1 1352   2.876   1.562   1.430 -2.9823 -0.2722  2.1233
  451SOL    HW2 1353   2.803   1.427   1.491  0.1004 -0.5264 -0.8452
  452SOL     OW 1354   0.592   1.016   1.589 -0.1534 -0.0967 -0.1269
  452SOL    HW1 1355   0.515   0.950   1.585  0.6529  0.8993 -0.6132
  452SOL    HW2 1356   0.680   0.966   1.582  2.8713  0.1355  0.3637
  453SOL     OW 1357   0.298   1.243   0.729  0.5914 -0.2918  0.6447
  453SOL    HW1 1358   0.251   1.209   0.648  1.1423  0.9006 -0.0661
  453SOL    HW2 1359   0.246   1.216   0.811 -0.0645  1.5597 -0.7594
  454SOL     OW 1360   0.841   1.523   0.219  0.1271 -0.1313 -0.4997
  454SOL    HW1 1361   0.847   1.607   0.166  0.8420 -2.5020  2.5543
  454SOL    HW2 1362   0.775   1.532   0.300 -2.5300  0.6910 -0.5263
  455SOL     OW 1363   1.673   0.678   1.276 -0.0878 -0.1229  0.5371
  455SOL    HW1 1364   1.661   0.682   1.377 -1.0951 -1.0975  0.2607
  455SOL    HW2 1365   1.754   0.625   1.243  0.5240 -1.8271 -0.5654
  456SOL     OW 1366   1.874   2.858   1.148 -0.4159  0.2009  0.6196
  456SOL    HW1 1367   1.911   2.782   1.095  1.8272  2.0998  0.2497
  456SOL    HW2 1368   1.917   2.869   1.242 -2.0861 -0.0599  0.8935
  457SOL     OW 1369   2.263   0.451   2.642 -0.2730 -0.6692 -0.2315
  457SOL    HW1 1370   2.313   0.529   2.691  1.9041 -0.1742  3.0161
  457SOL    HW2 1371   2.274   0.450   2.536  2.5128  0.3646 -2.5940
  458SOL     OW 1372   2.583   0.774   2.660 -0.3330  0.1092 -0.4700
  458SOL    HW1 1373   2.561   0.842   2.593 -0.2876 -1.5508  2.1007
  458SOL    HW2 1374   2.675   0.799   2.702  0.1890 -1.9654  0.6512
  459SOL     OW 1375   2.695   1.744   2.121  0.2380  0.1761  0.1708
  459SOL    HW1 1376   2.740   1.766   2.211 -2.4982  0.7671  0.6322
  459SOL    HW2 1377   2.596   1.760   2.136  1.6024  0.0334  0.3897
  460SOL     OW 1378   0.482   0.852   3.064  0.1257 -0.2704  0.5107
  460SOL    HW1 1379   0.543   0.891   2.990  0.5531 -0.1432 -1.7771
  460SOL    HW2 1380   0.412   0.800   3.017  2.1923 -2.2344  2.5358
  461SOL     OW 1381   0.008   2.239   0.334  0.1839  0.1791  0.0717
  461SOL    HW1 1382   3.048   2.280   0.375 -0.5413 -0.1292  0.1491
  461SOL    HW2 1383   0.064   2.175   0.387 -0.3991 -3.1770 -1.5130
  462SOL     OW 1384   0.194   2.522   1.492 -0.1509 -0.4437  0.4318
  462SOL    HW1 1385   0.093   2.548   1.493 -2.8218  1.4797  0.4982
  462SOL    HW2 1386   0.221   2.485   1.582  0.5039 -0.0157 -0.5241
  463SOL     OW 1387   1.684   2.192   1.906  0.0293  0.1966 -0.2354
  463SOL    HW1 1388   1.689   2.216   1.807 -0.4221 -0.5040 -0.2188
  463SOL    HW2 1389   1.699   2.279   1.965  0.9008  1.1029  2.2030
  464SOL     OW 1390   2.926   2.814   0.833 -0.3579  0.1333 -0.5014
  464SOL    HW1 1391   2.908   2.915   0.818  0.5020 -1.4679  1.5305
  464SOL    HW2 1392   3.026   2.801   0.848  1.1793 -4.3320 -1.0715
  465SOL     OW 1393   0.317   0.070   1.544 -0.0664  0.0491 -0.3456
  465SOL    HW1 1394   0.252   0.049   1.615 -2.4678  1.6682  1.3017
  465SOL    HW2 1395   0.349   0.165   1.546 -1.2212 -0.3518 -0.9230
  466SOL     OW 1396   1.230   2.502   2.395 -0.0737  0.1362 -0.1798
  466SOL    HW1 1397   1.229   2.418   2.340 -1.4098 -0.2448 -1.3021
  466SOL    HW2 1398   1.133   2.530   2.420 -0.4331 -0.9234  2.4945
  467SOL     OW 1399   3.004   1.761   0.754  0.4088 -0.2763  0.8685
  467SOL    HW1 1400   2.961   1.815   0.678 -1.2344 -0.8238  1.1748
  467SOL    HW2 1401   2.946   1.682   0.774  1.1556 -0.6679  1.0361
  468SOL     OW 1402   2.095   1.932   2.753 -0.3080  0.0730 -0.6212
  468SOL    HW1 1403   2.029   1.986   2.694  1.8397 -2.1529 -0.7273
  468SOL    HW2 1404   2.174   1.995   2.779  0.8679 -0.9082 -0.4897
  469SOL     OW 1405   1.279   1.992   0.628 -0.0888 -0.7209 -0.3089
  469SOL    HW1 1406   1.317   2.075   0.593  0.4979 -0.5826  2.5074
  469SOL    HW2 1407   1.322   1.913   0.587  0.5038  1.3499 -1.2713
  470SOL     OW 1408   1.731   1.329   1.480  0.7008  0.4914  0.3448
  470SOL    HW1 1409   1.674   1.253   1.446 -1.1506  0.2466 -1.6054
  470SOL    HW2 1410   1.790   1.287   1.556  3.2241 -0.1663  3.0123
  471SOL     OW 1411   0.334   2.382   0.189 -0.1670 -0.0759 -0.4231
  471SOL    HW1 1412   0.289   2.433   0.109 -0.5977  0.9108  2.2118
  471SOL    HW2 1413   0.435   2.372   0.168 -0.1506 -2.7416 -1.1962
  472SOL     OW 1414   2.360   1.891   2.461  0.4455 -0.5565 -0.2329
  472SOL    HW1 1415   2.344   1.988   2.445 -1.8830  0.2532 -2.5079
  472SOL    HW2 1416   2.345   1.870   2.560  0.5657 -1.2376 -1.0694
  473SOL     OW 1417   1.060   2.059   0.807 -0.3191 -0.4624  0.2272
  473SOL    HW1 1418   1.141   2.030   0.756 -0.0196 -0.1492 -0.9460
  473SOL    HW2 1419   1.055   2.159   0.810  1.3387 -2.9807  1.2861
  474SOL     OW 1420   3.031   0.430   1.296 -0.1678 -0.0174 -0.1233
  474SOL    HW1 1421   3.034   0.393   1.389 -0.4498  0.3755  1.0486
  474SOL    HW2 1422   2.985   0.367   1.232 -0.0429  2.3705  0.8700
  475SOL     OW 1423   2.356   2.952   1.743  0.0376  0.3938  0.4394
  475SOL    HW1 1424   2.423   2.957   1.819  1.1378 -0.4371 -0.5229
  475SOL    HW2 1425   2.404   2.940   1.654 -1.6686  0.3785 -0.0069
  476SOL     OW 1426   0.441   0.664   0.718 -0.2021 -0.1881 -0.0589
  476SOL    HW1 1427   0.515   0.639   0.655 -1.0571  2.9640 -0.3160
  476SOL    HW2 1428   0.475   0.732   0.786  0.5026 -1.1511 -0.0564
  477SOL     OW 1429   0.893   1.936   0.962  0.3252 -0.0188  0.5038
  477SOL    HW1 1430   0.961   1.872   0.999 -2.7518  0.6252  1.1575
  477SOL    HW2 1431   0.937   1.992   0.887 -1.9041  1.0560  2.2126
  478SOL     OW 1432   1.106   2.319   2.815 -0.1169  0.1170 -0.1516
  478SOL    HW1 1433   1.028   2.276   2.772  0.6445  0.5133  2.5850
  478SOL    HW2 1434   1.177   2.330   2.743  1.7905  0.7734 -0.4360
  479SOL     OW 1435   2.947   1.026   1.764  0.3269 -0.2003  0.1758
  479SOL    HW1 1436   2.847   1.053   1.782  1.5827  2.3322  2.7189
  479SOL    HW2 1437   2.989   1.076   1.686  1.1533 -2.2184 -0.1462
  480SOL     OW 1438   3.023   2.513   3.028  0.3709 -0.1831  0.8567
  480SOL    HW1 1439   3.049   2.508   0.002  0.4675 -0.0953 -0.2233
  480SOL    HW2 1440   3.025   2.418   2.982  3.6956 -3.4322 -0.8965
  481SOL     OW 1441   1.574   0.066   2.237 -0.5029  0.0234  0.0018
  481SOL    HW1 1442   1.652   0.020   2.287  1.9253 -2.0853  0.5772
  481SOL    HW2 1443   1.604   0.149   2.181  0.9024  1.5054 -1.3474
  482SOL     OW 1444   1.717   2.063   2.876  0.2726  0.0608 -0.3642
  482SOL    HW1 1445   1.790   2.136   2.874  0.4691 -1.3058  1.5052
  482SOL    HW2 1446   1.660   2.053   2.790 -0.8888 -3.3489 -1.4690
  483SOL     OW 1447   1.001   2.654   2.717 -0.0779 -0.0142  0.2757
  483SOL    HW1 1448   0.956   2.614   2.799 -1.4452 -1.9639 -0.0482
  483SOL    HW2 1449   1.000   2.588   2.639 -0.1089 -0.9149  1.9877
  484SOL     OW 1450   0.324   2.620   1.227 -0.3410 -0.1256  0.2712
  484SOL    HW1 1451   0.272   2.602   1.312 -0.2133  0.3956 -0.2725
  484SOL    HW2 1452   0.393   2.696   1.242  1.3966  1.0542  1.4741
  485SOL     OW 1453   2.242   0.704   0.590 -0.2636  0.3871  0.2728
  485SOL    HW1 1454   2.158   0.749   0.554 -2.3636 -0.2384 -0.5827
  485SOL    HW2 1455   2.310   0.769   0.630  1.6126  1.8933 -2.5599
  486SOL     OW 1456   2.253   2.853   2.462 -1.0494  0.5024  0.3985
  486SOL    HW1 1457   2.304   2.919   2.406  0.4545 -0.4883  2.4510
  486SOL    HW2 1458   2.252   2.893   2.557 -2.3133 -0.3566  2.3149
  487SOL     OW 1459   1.207   1.061   0.594  0.5380  0.0503 -0.0564
  487SOL    HW1 1460   1.105   1.076   0.584  2.8223  0.1929 -1.3094
  487SOL    HW2 1461   1.250   1.156   0.604 -3.3638  2.7340 -0.1127
  488SOL     OW 1462   2.569   0.187   2.838 -0.5248 -0.3307 -0.0494
  488SOL    HW1 1463   2.522   0.183   2.928 -0.3549  0.7146 -1.2760
  488SOL    HW2 1464   2.660   0.233   2.841 -0.2598 -3.0607  2.5013
  489SOL     OW 1465   1.911   0.119   0.330 -0.4931 -0.2831 -0.0994
  489SOL    HW1 1466   2.013   0.110   0.316 -0.6952  1.2625 -1.5825
  489SOL    HW2 1467   1.898   0.213   0.363  0.2710 -0.8863  0.5370
  490SOL     OW 1468   1.617   0.411   2.941  0.1929 -0.1765  0.1393
  490SOL    HW1 1469   1.647   0.378   3.036  2.0818 -2.4552  1.7615
  490SOL    HW2 1470   1.684   0.397   2.868 -1.0054 -1.4432 -0.4894
  491SOL     OW 1471   0.669   0.085   1.226  0.0199  0.2549 -0.1168
  491SOL    HW1 1472   0.715   0.070   1.318  3.8423  0.8503  0.3519
  491SOL    HW2 1473   0.738   0.066   1.148  0.1909  2.6285 -0.7821
  492SOL     OW 1474   1.701   0.022   0.509 -0.1896 -0.0052  0.1070
  492SOL    HW1 1475   1.796   0.045   0.480 -2.5017 -2.1423  0.3885
  492SOL    HW2 1476   1.687   3.050   0.516 -2.8500  1.3854  1.7018
  493SOL     OW 1477   1.313   2.127   2.936  0.0137  0.2846 -0.0730
  493SOL    HW1 1478   1.287   2.047   2.877 -1.3290 -2.4663  0.4337
  493SOL    HW2 1479   1.278   2.210   2.889  1.4265 -2.8756 -1.0376
  494SOL     OW 1480   0.503   0.935   1.194  0.1355 -0.0413  0.2859
  494SOL    HW1 1481   0.455   0.995   1.130 -0.8169  1.6523  0.8106
  494SOL    HW2 1482   0.573   0.874   1.148  0.1796 -2.1085  0.1021
  495SOL     OW 1483   2.992   0.382   1.542  0.1959 -0.0191 -0.2154
  495SOL    HW1 1484   3.038   0.431   1.617 -0.1571 -0.2124 -3.1713
  495SOL    HW2 1485   2.891   0.391   1.550  0.6532 -1.5150 -1.7191
  496SOL     OW 1486   2.270   2.578   2.202  0.0911  0.6449 -0.5724
  496SOL    HW1 1487   2.301   2.671   2.235 -1.6495 -2.1188  0.8056
  496SOL    HW2 1488   2.344   2.512   2.219  1.8165 -0.8677 -0.5613
  497SOL     OW 1489   1.836   1.263   2.757  0.5413 -0.1846  0.2077
  497SOL    HW1 1490   1.934   1.292   2.753  1.9371 -2.0348  0.2599
  497SOL    HW2 1491   1.779   1.342   2.782  0.3347 -1.1510  3.2425
  498SOL     OW 1492   0.944   1.958   0.523  0.1624 -0.2490 -0.4890
  498SOL    HW1 1493   0.965   1.868   0.564 -0.2902  0.3243 -1.9709
  498SOL    HW2 1494   0.863   1.996   0.573 -1.3316  0.9458  0.1926
  499SOL     OW 1495   0.332   1.669   0.939 -0.6414 -0.1474  0.1914
  499SOL    HW1 1496   0.266   1.731   0.892  0.2204  0.5110 -1.1868
  499SOL    HW2 1497   0.372   1.600   0.871  1.1072 -0.7815  2.3091
  500SOL     OW 1498   1.274   2.730   0.460 -0.4624  0.5261 -1.3283
  500SOL    HW1 1499   1.231   2.816   0.431 -0.9668  2.2464  1.6123
  500SOL    HW2 1500   1.333   2.749   0.536  0.5344 -0.0164 -0.6290
  501SOL     OW 1501   1.924   2.649   0.960  0.1156 -0.6569  0.3270
  501SOL    HW1 1502   1.964   2.668   0.867  2.2435 -2.3079  0.7272
  501SOL    HW2 1503   1.906   2.548   0.974  1.7158  0.4259 -1.4268
  502SOL     OW 1504   0.349   0.449   1.278  0.1738 -0.1276 -0.2062
  502SOL    HW1 1505   0.301   0.421   1.192  0.6383 -1.2034  1.4845
  502SOL    HW2 1506   0.360   0.552   1.291  1.5159 -0.5707 -1.0075
  503SOL     OW 1507   1.969   0.045   1.657 -0.4277 -0.3136 -0.1468
  503SOL    HW1 1508   1.972   0.110   1.581 -0.5565  0.8314 -0.1835
  503SOL    HW2 1509   2.059   0.056   1.697  2.1617 -2.0548  1.6548
  504SOL     OW 1510   2.159   0.958   1.893 -0.2851 -0.2284 -0.2798
  504SOL    HW1 1511   2.081   0.891   1.872  0.8825 -3.5505 -0.9397
  504SOL    HW2 1512   2.135   1.024   1.965 -0.1165 -1.6359 -2.8146
  505SOL     OW 1513   1.408   0.130   2.448 -0.3591 -0.7769 -0.2338
  505SOL    HW1 1514   1.425   0.225   2.477 -0.1299  1.2718 -0.0973
  505SOL    HW2 1515   1.460   0.111   2.364 -0.9054 -3.0452  1.6084
  506SOL     OW 1516   0.502   0.631   1.774  0.2293  0.1273 -0.3466
  506SOL    HW1 1517   0.512   0.544   1.830 -0.9392 -0.3673 -1.6726
  506SOL    HW2 1518   0.555   0.706   1.817 -0.6912 -0.4371 -1.5666
  507SOL     OW 1519   1.722   0.374   0.101 -0.0163 -0.1719 -0.0698
  507SOL    HW1 1520   1.691   0.429   0.180  2.4924 -0.5380 -1.2022
  507SOL    HW2 1521   1.823   0.389   0.081 -0.3169 -0.6317 -0.5053
  508SOL     OW 1522   2.113   0.498   1.935  0.0925 -0.0991 -0.0817
  508SOL    HW1 1523   2.092   0.537   2.031 -2.1045  1.4523  2.3233
  508SOL    HW2 1524   2.035   0.482   1.875  2.0680 -0.2805  0.3266
  509SOL     OW 1525   0.775   1.658   2.455  0.0623 -0.0753  0.5238
  509SOL    HW1 1526   0.675   1.654   2.464  0.7324 -0.8211 -1.6502
  509SOL    HW2 1527   0.804   1.745   2.411  2.3340  0.1768  2.2823
  510SOL     OW 1528   2.927   0.542   0.526 -0.6064  0.5029  0.4020
  510SOL    HW1 1529   2.886   0.632   0.487 -1.3362 -0.0048  0.2436
  510SOL    HW2 1530   2.978   0.563   0.608 -2.2474  1.1994 -1.6656
  511SOL     OW 1531   1.534   1.513   1.506 -0.0005  0.3799 -0.5936
  511SOL    HW1 1532   1.545   1.613   1.524  0.5406  0.0296 -2.4213
  511SOL    HW2 1533   1.616   1.457   1.512 -2.6684  2.5526 -0.0145
  512SOL     OW 1534   0.501   1.625   0.520 -0.0819 -0.4988  0.1223
  512SOL    HW1 1535   0.572   1.561   0.496 -3.4343  1.2856 -0.2635
  512SOL    HW2 1536   0.556   1.710   0.542  2.3884  0.1438  0.8165
  513SOL     OW 1537   0.578   2.428   0.933  0.1204 -0.1332 -0.6956
  513SOL    HW1 1538   0.634   2.429   0.851 -2.9143  1.5357 -0.4065
  513SOL    HW2 1539   0.632   2.395   1.017  2.0939 -4.8462  2.5361
  514SOL     OW 1540   0.574   2.151   0.359 -0.5809  0.0174 -0.5363
  514SOL    HW1 1541   0.509   2.208   0.404  2.4215  2.0637  0.4329
  514SOL    HW2 1542   0.666   2.168   0.396 -0.7179 -0.9931 -0.3702
  515SOL     OW 1543   0.292   2.927   0.100 -0.3530 -0.8431  0.1775
  515SOL    HW1 1544   0.356   2.927   0.175 -0.4206 -0.3506 -0.7652
  515SOL    HW2 1545   0.250   3.021   0.084 -1.4387 -0.7795 -1.5744
  516SOL     OW 1546   2.116   0.137   1.270  0.0253  0.2379 -0.0737
  516SOL    HW1 1547   2.059   0.175   1.344 -0.8803 -0.1033  0.3080
  516SOL    HW2 1548   2.095   0.042   1.252  0.4896 -0.1807 -0.3778
  517SOL     OW 1549   1.578   1.432   0.370  0.5193 -0.5448 -0.4448
  517SOL    HW1 1550   1.487   1.484   0.369 -2.3616  1.2843 -0.4498
  517SOL    HW2 1551   1.590   1.378   0.456  1.6276 -1.4038  1.8342
  518SOL     OW 1552   1.349   0.031   0.887  0.4817 -0.2193 -0.1186
  518SOL    HW1 1553   1.294   0.115   0.908  0.7322  0.5085  2.6847
  518SOL    HW2 1554   1.307   3.093   0.819  1.9864  0.1937  1.5703
  519SOL     OW 1555   2.911   2.406   0.453 -0.4049  0.6545  0.0298
  519SOL    HW1 1556   2.992   2.436   0.510  1.7838 -0.5783  0.9300
  519SOL    HW2 1557   2.854   2.488   0.432 -1.2816 -0.1404 -0.1946
  520SOL     OW 1558   1.778   2.387   2.077  0.4194 -0.2078  0.0579
  520SOL    HW1 1559   1.846   2.454   2.097 -4.2011 -0.5374  0.3983
  520SOL    HW2 1560   1.702   2.400   2.144  2.4688 -2.5181 -1.8604
  521SOL     OW 1561   1.396   3.030   2.108  0.1267 -0.2125  0.2945
  521SOL    HW1 1562   1.361   2.958   2.170 -2.1503  0.6230 -0.6550
  521SOL    HW2 1563   1.464   3.087   2.157 -1.7506 -0.8101 -0.6018
  522SOL     OW 1564   0.005   2.704   2.057  0.1453 -0.4154 -0.4697
  522SOL    HW1 1565   0.032   2.640   1.986 -0.1797  1.2108  0.8615
  522SOL    HW2 1566   3.056   2.655   2.117  3.7081 -0.6592  0.8612
  523SOL     OW 1567   0.783   2.170   1.702 -0.3350 -0.3348  0.1632
  523SOL    HW1 1568   0.803   2.239   1.770 -4.1850 -2.4053 -1.2618
  523SOL    HW2 1569   0.860   2.155   1.638 -0.4292  0.0659  0.2507
  524SOL     OW 1570   2.360   2.247   0.057  0.0658  0.6774 -0.1276
  524SOL    HW1 1571   2.383   2.162   0.006 -3.3887 -2.1107 -0.7087
  524SOL    HW2 1572   2.359   2.222   0.155  0.0335 -0.3472  1.9482
  525SOL     OW 1573   2.819   0.632   0.051 -0.1230  0.7982  0.0838
  525SOL    HW1 1574   2.780   0.545   0.083  1.1126  1.0616  0.6589
  525SOL    HW2 1575   2.894   0.620   3.109 -1.3099  0.4033  1.8204
  526SOL     OW 1576   0.553   2.866   0.664  0.4578 -0.1962  0.1714
  526SOL    HW1 1577   0.580   2.856   0.759 -2.1959 -0.1325 -3.9657
  526SOL    HW2 1578   0.543   2.967   0.649  1.6363 -1.7020  1.0982
  527SOL     OW 1579   2.847   1.292   0.571 -0.3656  0.1515  0.4421
  527SOL    HW1 1580   2.904   1.207   0.554  1.9827  0.4151 -2.3173
  527SOL    HW2 1581   2.744   1.286   0.556 -3.0973  1.4687 -2.6591
  528SOL     OW 1582   0.899   0.750   2.406 -0.0315 -0.1049  0.3051
  528SOL    HW1 1583   0.861   0.693   2.480 -0.8734  3.5362  0.1000
  528SOL    HW2 1584   0.913   0.852   2.429  1.3404 -0.9756  0.6485
  529SOL     OW 1585   0.571   1.563   3.090  0.3123 -0.4052 -0.4905
  529SOL    HW1 1586   0.597   1.604   0.058  1.3309 -0.5024  1.8064
  529SOL    HW2 1587   0.479   1.596   3.063  0.1291 -0.1851  1.3375
  530SOL     OW 1588   1.468   0.985   2.108 -0.1807 -0.3490  0.1427
  530SOL    HW1 1589   1.559   1.015   2.132 -0.5532 -2.7691  0.7186
  530SOL    HW2 1590   1.424   0.918   2.170  2.1385  0.3986 -1.9187
  531SOL     OW 1591   1.245   2.280   0.044  0.7598 -0.3799 -0.5211
  531SOL    HW1 1592   1.274   2.219   3.097 -0.5345  0.5738  0.3634
  531SOL    HW2 1593   1.235   2.227   0.134 -1.6017 -0.8336  0.7913
  532SOL     OW 1594   2.362   1.107   2.550 -0.6581 -0.6925 -0.3339
  532SOL    HW1 1595   2.268   1.074   2.572  0.8473  1.6639  0.2805
  532SOL    HW2 1596   2.374   1.205   2.583  1.5135  1.8978 -0.1728
  533SOL     OW 1597   3.110   0.149   1.876  0.2504  0.4608  0.3166
  533SOL    HW1 1598   0.014   0.098   1.959  0.3201  3.2873 -0.9936
  533SOL    HW2 1599   3.024   0.206   1.889  0.7674  0.2427  0.3020
  534SOL     OW 1600   2.193   0.070   0.282 -0.0621  0.1822  0.3926
  534SOL    HW1 1601   2.189   0.103   0.185 -1.2350 -1.8306 -1.8983
  534SOL    HW2 1602   2.273   0.102   0.329  1.2359  1.9253 -1.7436
  535SOL     OW 1603   0.679   3.023   3.067 -0.3486  0.1787 -0.2643
  535SOL    HW1 1604   0.778   3.035   3.049  0.8120  0.1759 -2.1175
  535SOL    HW2 1605   0.631   3.110   3.093 -1.1405  0.2270 -0.6319
  536SOL     OW 1606   0.559   1.797   1.595  0.0892  0.1678  0.2571
  536SOL    HW1 1607   0.458   1.791   1.572 -1.9496 -1.2517  1.2405
  536SOL    HW2 1608   0.621   1.823   1.519  2.2775 -0.5401  0.1282
  537SOL     OW 1609   3.055   2.581   1.579 -0.6423  0.0817 -0.4257
  537SOL    HW1 1610   3.014   2.623   1.495  0.4925 -0.9512 -1.4375
  537SOL    HW2 1611   2.987   2.569   1.656 -0.5601  1.6652 -0.8147
  538SOL     OW 1612   3.023   1.897   0.389  0.3560 -0.2062  0.0085
  538SOL    HW1 1613   3.054   1.959   0.312  1.4111  0.7349  0.5639
  538SOL    HW2 1614   3.028   1.799   0.362  1.6515  1.8979  0.2970
  539SOL     OW 1615   2.556   0.947   2.452 -0.6934 -0.1772 -0.0675
  539SOL    HW1 1616   2.482   1.011   2.494  1.3151  1.2786  1.8392
  539SOL    HW2 1617   2.632   1.005   2.409 -1.1589  1.7989 -1.8432
  540SOL     OW 1618   1.954   1.109   2.980 -0.0800 -0.1444  0.0545
  540SOL    HW1 1619   1.901   1.133   2.900 -0.3393 -1.9473 -1.1631
  540SOL    HW2 1620   1.971   1.188   3.038  0.8746 -0.9641 -2.6454
  541SOL     OW 1621   0.759   0.585   2.585  0.2979 -0.1698  0.1872
  541SOL    HW1 1622   0.767   0.490   2.609 -0.3212  0.9540  0.0390
  541SOL    HW2 1623   0.697   0.597   2.508  2.1365  1.0334 -0.6402
  542SOL     OW 1624   1.487   2.657   2.203  0.4125 -0.2563  0.6063
  542SOL    HW1 1625   1.402   2.715   2.201 -3.6373 -0.9186  1.2887
  542SOL    HW2 1626   1.562   2.686   2.138  1.4931 -1.2901 -1.1356
  543SOL     OW 1627   0.871   2.673   0.541  0.4468  0.6518 -0.0524
  543SOL    HW1 1628   0.957   2.615   0.543  1.3889  0.1780 -0.3251
  543SOL    HW2 1629   0.818   2.670   0.630  2.0535  0.9560 -0.8570
  544SOL     OW 1630   2.815   1.840   2.337  0.2365 -0.0429 -0.0857
  544SOL    HW1 1631   2.763   1.786   2.409 -0.1904 -2.0302 -0.3001
  544SOL    HW2 1632   2.910   1.807   2.330  2.0371  1.6158 -0.0064
  545SOL     OW 1633   1.401   2.037   1.577  0.2025 -0.1835 -0.0784
  545SOL    HW1 1634   1.328   2.022   1.647  3.3970 -0.7215  3.2788
  545SOL    HW2 1635   1.369   2.063   1.483  3.0443  1.8778 -0.3278
  546SOL     OW 1636   0.348   0.197   2.493 -0.1518  0.3006  0.0641
  546SOL    HW1 1637   0.447   0.188   2.472 -1.3840  0.8913  1.3628
  546SOL    HW2 1638   0.303   0.114   2.532 -2.0371 -0.1431 -0.9129
  547SOL     OW 1639   0.916   0.225   0.598 -0.7572 -0.0328  0.0735
  547SOL    HW1 1640   0.833   0.255   0.545  1.0945  1.1720  0.1053
  547SOL    HW2 1641   1.001   0.285   0.589  1.6881  2.1977 -1.2815
  548SOL     OW 1642   1.517   2.062   3.093  0.0115  0.0919 -0.3121
  548SOL    HW1 1643   1.433   2.086   3.041  0.7830  0.7335 -1.1870
  548SOL    HW2 1644   1.593   2.042   3.027 -2.1806 -1.1501 -0.1168
  549SOL     OW 1645   2.253   1.005   0.188 -0.3931  0.2683 -0.0984
  549SOL    HW1 1646   2.233   1.105   0.188 -0.5100 -0.5154  1.1973
  549SOL    HW2 1647   2.335   0.995   0.251  0.2894  0.8988  0.8328
  550SOL     OW 1648   2.685   2.181   0.621 -0.2734  0.0222 -0.2435
  550SOL    HW1 1649   2.713   2.184   0.524  1.8349 -1.0756 -0.1416
  550SOL    HW2 1650   2.764   2.202   0.676 -0.8789 -0.5519 -2.2738
  551SOL     OW 1651   1.058   0.304   1.618  0.0107 -0.3701 -0.1003
  551SOL    HW1 1652   1.137   0.250   1.656  0.8896 -0.1777 -0.0749
  551SOL    HW2 1653   1.010   0.234   1.559  1.1511 -1.5275  2.5761
  552SOL     OW 1654   2.946   1.866   2.875 -0.2306 -0.5894  0.0092
  552SOL    HW1 1655   2.948   1.777   2.818 -1.6041 -0.8313 -1.5363
  552SOL    HW2 1656   2.994   1.850   2.962  1.0014  2.7811 -1.8912
  553SOL     OW 1657   2.644   2.691   0.675 -0.1478  0.2884  0.2196
  553SOL    HW1 1658   2.658   2.724   0.580 -1.3190  1.5596 -0.1347
  553SOL    HW2 1659   2.726   2.701   0.734 -1.6503  1.5605 -0.4282
  554SOL     OW 1660   1.918   1.203   1.623  0.2658 -0.0088 -0.3078
  554SOL    HW1 1661   1.963   1.155   1.545 -0.5589  0.3073 -1.6909
  554SOL    HW2 1662   1.950   1.298   1.632 -1.1586 -0.6431 -2.9718
  555SOL     OW 1663   1.114   2.226   2.042  0.0593 -0.4099  0.8222
  555SOL    HW1 1664   1.046   2.293   2.005  0.1585 -4.1623 -1.1954
  555SOL    HW2 1665   1.157   2.170   1.969  0.1146  2.6682 -2.2012
  556SOL     OW 1666   1.197   1.569   1.868 -0.0881 -0.3857  0.0023
  556SOL    HW1 1667   1.276   1.634   1.864  0.6434  1.0490 -4.0279
  556SOL    HW2 1668   1.227   1.471   1.876  0.2469  0.6488  1.2625
  557SOL     OW 1669   1.619   0.019   1.595 -0.8413 -0.2154 -0.2371
  557SOL    HW1 1670   1.580   3.066   1.648 -0.1835 -2.1610  4.1621
  557SOL    HW2 1671   1.647   3.094   1.510  0.6597  1.5762  2.5022
  558SOL     OW 1672   0.789   3.000   2.086 -0.3676  0.0639 -0.0014
  558SOL    HW1 1673   0.748   2.906   2.078 -1.2511 -0.8874 -0.9687
  558SOL    HW2 1674   0.840   3.036   2.001  0.8851 -2.5647 -2.3873
  559SOL     OW 1675   1.681   2.673   0.337 -0.5204 -0.0622  0.6324
  559SOL    HW1 1676   1.587   2.693   0.302  0.4759 -0.5240  0.9922
  559SOL    HW2 1677   1.672   2.579   0.384 -2.1551 -3.9533 -0.7296
  560SOL     OW 1678   1.622   2.064   0.354 -0.0706  0.1400 -0.1632
  560SOL    HW1 1679   1.596   1.980   0.300  1.4251  1.6130 -0.4627
  560SOL    HW2 1680   1.643   2.143   0.295 -1.3047  0.7424  0.2317
  561SOL     OW 1681   1.514   0.240   0.501 -0.5680  0.3044 -0.6044
  561SOL    HW1 1682   1.560   0.152   0.522 -0.8495 -0.4984  0.4981
  561SOL    HW2 1683   1.458   0.228   0.422 -0.2169 -2.1401  0.2961
  562SOL     OW 1684   0.415   1.125   1.819 -0.0928  0.2435 -0.2788
  562SOL    HW1 1685   0.478   1.115   1.740 -2.3787  2.8327  1.4566
  562SOL    HW2 1686   0.464   1.159   1.902 -4.5027  0.5487  0.0989
  563SOL     OW 1687   1.363   2.311   2.699  0.5365  0.0003 -0.4354
  563SOL    HW1 1688   1.322   2.261   2.620 -1.1155  0.7851 -1.2845
  563SOL    HW2 1689   1.457   2.340   2.681 -0.2561 -0.4979  0.2488
  564SOL     OW 1690   2.911   0.879   0.787  0.3358 -0.2278  0.0712
  564SOL    HW1 1691   2.966   0.944   0.847  0.5729 -0.6002 -2.4542
  564SOL    HW2 1692   2.960   0.791   0.778  0.7287  2.3076  2.1248
  565SOL     OW 1693   0.664   1.303   3.118 -0.5999  0.3674  0.2369
  565SOL    HW1 1694   0.634   1.399   3.119  1.7907 -0.7475 -0.9383
  565SOL    HW2 1695   0.765   1.307   0.012  1.4645  1.1966  0.6684
  566SOL     OW 1696   2.254   2.587   2.957  0.1370  0.2233  0.2688
  566SOL    HW1 1697   2.315   2.530   3.015  1.8575  0.4643 -0.5854
  566SOL    HW2 1698   2.209   2.667   3.004  0.5153 -0.8714  3.3500
  567SOL     OW 1699   1.286   1.415   1.605  0.4038  0.5507 -0.3166
  567SOL    HW1 1700   1.377   1.448   1.581 -2.3592  1.3440  0.4563
  567SOL    HW2 1701   1.285   1.356   1.685 -2.7750 -0.7557 -0.8042
  568SOL     OW 1702   1.464   1.340   2.743  0.4058 -0.0886 -0.1577
  568SOL    HW1 1703   1.441   1.242   2.744  0.0141  3.9438  0.6534
  568SOL    HW2 1704   1.549   1.353   2.801 -0.7910  0.4925  2.4073
  569SOL     OW 1705   2.109   1.580   0.573 -1.1970  0.2111  0.3814
  569SOL    HW1 1706   2.106   1.683   0.573  0.0452  1.6828 -3.5211
  569SOL    HW2 1707   2.032   1.546   0.625  1.2526 -0.6060 -0.6661
  570SOL     OW 1708   2.699   2.080   2.330 -0.0635 -0.2785  0.2985
  570SOL    HW1 1709   2.763   2.157   2.319 -1.0856 -1.2982 -1.0282
  570SOL    HW2 1710   2.741   1.991   2.349 -2.8398 -0.9508 -0.9609
  571SOL     OW 1711   2.706   1.844   1.880 -0.2504 -0.4232 -0.1057
  571SOL    HW1 1712   2.719   1.761   1.820 -0.4121  0.2680 -1.0222
  571SOL    HW2 1713   2.715   1.815   1.975  0.3210 -1.1707 -1.9463
  572SOL     OW 1714   1.431   2.682   0.248  0.3455 -0.1846 -0.1110
  572SOL    HW1 1715   1.349   2.698   0.311  0.8286  1.0633 -2.0499
  572SOL    HW2 1716   1.435   2.590   0.206 -0.6926 -2.9380  1.0291
  573SOL     OW 1717   1.438   1.786   0.560 -0.1847  0.4170  0.0722
  573SOL    HW1 1718   1.528   1.828   0.582 -1.9508 -1.2883  0.8564
  573SOL    HW2 1719   1.400   1.727   0.639  1.3655  0.1279 -0.9476
  574SOL     OW 1720   1.121   3.043   1.573 -0.4680 -0.4587  0.0369
  574SOL    HW1 1721   1.170   3.106   1.633 -0.1924  0.5732  0.4319
  574SOL    HW2 1722   1.072   2.973   1.621  1.1330  0.0645 -2.5467
  575SOL     OW 1723   1.018   0.736   1.316 -0.3291 -0.5524  0.4689
  575SOL    HW1 1724   0.973   0.755   1.227 -0.7192 -2.3917  0.7206
  575SOL    HW2 1725   0.945   0.743   1.389 -0.8444  0.0337 -0.2187
  576SOL     OW 1726   2.874   0.265   1.149  0.1971  0.2062  0.3869
  576SOL    HW1 1727   2.858   0.310   1.058 -1.2253 -0.0988  0.9900
  576SOL    HW2 1728   2.789   0.275   1.198  1.3539 -1.5958 -1.3986
  577SOL     OW 1729   2.343   0.679   2.731 -0.5180  0.3479  0.1895
  577SOL    HW1 1730   2.289   0.733   2.798  1.8026  0.9084 -1.2245
  577SOL    HW2 1731   2.427   0.729   2.696  1.8773  2.9190 -0.5440
  578SOL     OW 1732   2.035   1.685   2.326  0.4013  0.5465 -0.0774
  578SOL    HW1 1733   1.956   1.661   2.387  2.8712  4.6976  0.1747
  578SOL    HW2 1734   2.024   1.773   2.281 -0.5609 -3.4136  0.3779
  579SOL     OW 1735   0.545   1.381   0.975 -0.6683 -0.1435  0.0129
  579SOL    HW1 1736   0.532   1.465   1.033 -0.6977 -1.7402  1.3882
  579SOL    HW2 1737   0.517   1.391   0.881  1.8866 -1.0286  2.8906
  580SOL     OW 1738   1.465   2.448   0.072  0.0395  0.4631  0.2278
  580SOL    HW1 1739   1.380   2.391   0.067 -0.0401 -2.2396  1.9931
  580SOL    HW2 1740   1.510   2.453   3.110  0.3891  0.2988  2.8474
  581SOL     OW 1741   0.888   0.856   2.156  0.5805  0.1868  0.0502
  581SOL    HW1 1742   0.877   0.809   2.246  3.2104 -2.0871  2.7984
  581SOL    HW2 1743   0.979   0.821   2.122  1.5637  1.6075 -1.3130
  582SOL     OW 1744   0.473   1.116   0.970  0.2496  0.0297  0.5623
  582SOL    HW1 1745   0.372   1.141   0.974  2.4590 -0.8823 -0.8393
  582SOL    HW2 1746   0.532   1.203   0.964  0.9125  0.5023  0.3796
  583SOL     OW 1747   1.100   1.726   2.083 -0.3000  0.5195  0.7005
  583SOL    HW1 1748   1.155   1.679   2.157 -0.3923  2.0128 -1.4932
  583SOL    HW2 1749   1.118   1.674   1.996  0.3867  0.7147 -1.7035
  584SOL     OW 1750   2.366   2.769   0.285  0.2701 -0.0128 -0.2083
  584SOL    HW1 1751   2.446   2.814   0.239  0.0895  1.5897 -1.4484
  584SOL    HW2 1752   2.304   2.832   0.337  0.5947  0.1778 -0.0603
  585SOL     OW 1753   1.917   0.826   3.011  0.1886 -0.2140 -0.3517
  585SOL    HW1 1754   1.950   0.916   2.992  0.3310  4.2704  1.4915
  585SOL    HW2 1755   1.844   0.827   3.085  1.5618 -1.8655 -1.0017
  586SOL     OW 1756   0.260   1.779   0.434 -0.2209 -0.1807  0.1530
  586SOL    HW1 1757   0.175   1.719   0.452 -1.9236 -2.2880 -0.6392
  586SOL    HW2 1758   0.343   1.726   0.464  2.2942  1.5829 -0.3107
  587SOL     OW 1759   1.706   2.088   0.965  0.0930  0.1571  0.4475
  587SOL    HW1 1760   1.793   2.135   0.935  4.4119  1.2919 -2.9605
  587SOL    HW2 1761   1.715   2.025   1.044 -1.5747  1.0182 -0.9305
  588SOL     OW 1762   0.449   0.829   0.928 -0.0550 -0.3660 -0.0930
  588SOL    HW1 1763   0.537   0.778   0.938 -0.6863  1.6418  1.3607
  588SOL    HW2 1764   0.464   0.929   0.961  2.1925  3.6678  1.7385
  589SOL     OW 1765   1.209   0.254   0.986  0.3912 -0.1204  0.3896
  589SOL    HW1 1766   1.132   0.297   0.939  1.3190  0.4287  0.1131
  589SOL    HW2 1767   1.180   0.227   1.078  0.5264 -1.9015 -2.1113
  590SOL     OW 1768   1.314   0.860   0.359  0.1333  0.0993  0.3993
  590SOL    HW1 1769   1.358   0.885   0.446 -1.5042  1.2624 -1.2911
  590SOL    HW2 1770   1.373   0.795   0.306 -1.3610  0.3587 -0.1003
  591SOL     OW 1771   2.525   2.581   1.984  0.3973  0.3304 -0.5876
  591SOL    HW1 1772   2.531   2.552   1.882  0.4604 -2.2534 -0.1364
  591SOL    HW2 1773   2.503   2.494   2.036  1.8196 -1.4399  0.2361
  592SOL     OW 1774   1.522   1.895   1.252  0.1970  0.3952 -0.3773
  592SOL    HW1 1775   1.621   1.923   1.250  0.4710 -0.5446  0.1023
  592SOL    HW2 1776   1.456   1.968   1.270 -2.1734  0.8905 -0.6378
  593SOL     OW 1777   1.001   2.871   0.693  0.0834 -0.1760 -0.7630
  593SOL    HW1 1778   0.972   2.820   0.775  1.8686  1.6083 -4.9595
  593SOL    HW2 1779   1.007   2.811   0.609  1.4267  0.3863 -1.5187
  594SOL     OW 1780   0.255   0.908   1.780 -0.0047 -0.0155  0.2914
  594SOL    HW1 1781   0.322   0.867   1.716 -0.7022  0.7429 -0.3934
  594SOL    HW2 1782   0.292   0.998   1.817  0.8641  3.6496  0.5490
  595SOL     OW 1783   0.067   2.816   0.878  0.3530  0.3023  0.0300
  595SOL    HW1 1784   0.137   2.794   0.807 -0.7964  0.5784 -0.3226
  595SOL    HW2 1785   0.114   2.840   0.963 -0.4693 -0.3401 -6.5709
  596SOL     OW 1786   3.083   0.529   1.747  0.1305 -0.4272 -0.5237
  596SOL    HW1 1787   0.056   0.512   1.723  0.1840  1.2021  1.4673
  596SOL    HW2 1788   3.072   0.612   1.810  0.6025  1.4701 -0.2959
  597SOL     OW 1789   1.988   1.586   0.924  0.0166 -0.1474  0.5589
  597SOL    HW1 1790   1.920   1.650   0.882 -1.8529  0.9056  0.4039
  597SOL    HW2 1791   1.962   1.489   0.907  2.4847 -1.7401  1.3064
  598SOL     OW 1792   0.667   2.773   2.021 -0.2594  0.1170 -0.2091
  598SOL    HW1 1793   0.725   2.743   1.939  0.5439  0.4870 -0.5318
  598SOL    HW2 1794   0.569   2.766   2.003  0.0369 -1.1168  2.8508
  599SOL     OW 1795   2.771   1.926   0.005  0.2280 -0.1450 -0.3303
  599SOL    HW1 1796   2.837   1.853   3.099 -0.3432 -1.9177  1.8763
  599SOL    HW2 1797   2.725   1.893   0.089 -1.5434  2.6246  0.4307
  600SOL     OW 1798   0.839   0.950   0.019  0.3344 -0.0674  0.1319
  600SOL    HW1 1799   0.844   0.977   3.047  1.6211 -2.3617  1.6811
  600SOL    HW2 1800   0.768   1.005   0.073 -4.1813 -0.1269 -2.4789
  601SOL     OW 1801   1.084   1.110   0.120  0.0630 -0.3264  0.0105
  601SOL    HW1 1802   1.002   1.051   0.107  0.2308  1.4075  2.3064
  601SOL    HW2 1803   1.174   1.072   0.145 -0.0074  0.2435  0.0387
  602SOL     OW 1804   1.361   2.739   1.162 -0.0890  0.2925 -0.1136
  602SOL    HW1 1805   1.460   2.757   1.133  0.8409  1.7407  0.1920
  602SOL    HW2 1806   1.312   2.823   1.152  1.2823 -3.1327 -2.1833
  603SOL     OW 1807   0.956   3.123   2.262  0.5474 -0.0213  0.0095
  603SOL    HW1 1808   0.896   3.079   2.194  1.2154 -1.7898  2.2139
  603SOL    HW2 1809   1.046   3.077   2.260 -0.1920 -0.2797 -2.3491
  604SOL     OW 1810   0.050   0.055   2.192  0.1392 -0.1762 -0.7172
  604SOL    HW1 1811   0.063   3.116   2.273  0.7108  2.9636  2.2552
  604SOL    HW2 1812   0.060   0.145   2.240  0.9526 -2.4066  0.9911
  605SOL     OW 1813   2.578   2.245   1.378  0.0051  0.6166  0.0686
  605SOL    HW1 1814   2.521   2.325   1.355 -0.3164  1.8550 -5.3904
  605SOL    HW2 1815   2.624   2.256   1.465 -2.7286 -1.6425  0.9091
  606SOL     OW 1816   0.332   1.642   2.978  0.4321 -0.1497 -0.1464
  606SOL    HW1 1817   0.247   1.602   3.027 -1.1340  0.0645  0.5933
  606SOL    HW2 1818   0.348   1.737   3.005  1.0887  1.3896  1.3398
  607SOL     OW 1819   1.082   0.519   0.375 -0.5879  0.2411  0.2674
  607SOL    HW1 1820   1.135   0.503   0.293 -1.0181  1.7675 -0.5044
  607SOL    HW2 1821   1.071   0.622   0.384  0.3717 -2.7778  0.4700
  608SOL     OW 1822   2.045   1.327   2.407  0.2692  0.5071  0.0385
  608SOL    HW1 1823   1.953   1.284   2.398  0.5947 -0.6111  0.5930
  608SOL    HW2 1824   2.071   1.368   2.494  2.4592  0.1700  0.8899
  609SOL     OW 1825   3.097   0.346   0.840 -0.0223 -0.3571 -0.0900
  609SOL    HW1 1826   3.105   0.257   0.881 -0.1016 -0.3100 -0.2799
  609SOL    HW2 1827   3.018   0.402   0.882 -0.5470  1.6222 -0.5634
  610SOL     OW 1828   0.378   2.395   2.935  0.0904 -0.2035 -0.3168
  610SOL    HW1 1829   0.460   2.344   2.969  0.6015  0.2283 -1.8584
  610SOL    HW2 1830   0.355   2.470   3.001  1.8310  1.3022 -0.4428
  611SOL     OW 1831   1.886   1.304   0.298  0.2327 -0.2052  0.3863
  611SOL    HW1 1832   1.914   1.285   0.204 -0.3869  2.2172 -1.2627
  611SOL    HW2 1833   1.943   1.377   0.344  1.1181 -1.8634 -0.8985
  612SOL     OW 1834   0.974   2.481   2.494  0.5795  0.0562  0.0877
  612SOL    HW1 1835   0.935   2.388   2.511  1.8082  0.7097  1.6966
  612SOL    HW2 1836   0.938   2.511   2.399 -0.5816 -2.3447 -0.7470
  613SOL     OW 1837   1.108   1.859   3.054 -0.5197  0.5030  0.1856
  613SOL    HW1 1838   1.137   1.767   3.032 -0.1421  0.0679  1.5455
  613SOL    HW2 1839   1.083   1.907   2.969 -0.6602 -0.1084  1.6115
  614SOL     OW 1840   2.685   2.721   1.598  0.6409  0.2589 -0.0426
  614SOL    HW1 1841   2.730   2.685   1.677 -0.2744  2.6561  2.1659
  614SOL    HW2 1842   2.700   2.659   1.518  2.0046 -1.1067  0.0340
  615SOL     OW 1843   2.355   1.524   3.046 -0.3632  0.0240 -0.1579
  615SOL    HW1 1844   2.275   1.503   2.990  0.1837  1.2550 -1.1963
  615SOL    HW2 1845   2.419   1.585   2.999 -1.3547 -4.9222  0.1053
  616SOL     OW 1846   1.605   3.007   0.847  0.1589 -0.0877  0.5935
  616SOL    HW1 1847   1.539   3.079   0.845 -2.0873 -1.3274  1.1364
  616SOL    HW2 1848   1.697   3.032   0.812  1.9261 -1.5998 -2.3035
  617SOL     OW 1849   0.809   0.992   2.858  0.6783  0.0553 -0.4920
  617SOL    HW1 1850   0.760   0.914   2.825  3.8042  1.1757  2.6476
  617SOL    HW2 1851   0.805   1.073   2.790 -2.0731  2.1282 -1.7463
  618SOL     OW 1852   0.643   0.832   1.898  0.5029 -0.2704  0.3314
  618SOL    HW1 1853   0.668   0.923   1.857 -0.3183  1.3612  0.8745
  618SOL    HW2 1854   0.607   0.848   1.992  1.1304  1.9194 -0.4422
  619SOL     OW 1855   0.163   1.031   1.424 -0.0043  0.0082  0.0411
  619SOL    HW1 1856   0.099   0.970   1.472 -2.5044  1.4195 -1.8615
  619SOL    HW2 1857   0.164   1.006   1.321 -1.2729 -2.5255 -2.6774
  620SOL     OW 1858   1.991   1.371   0.001 -0.3045 -0.1599  0.4767
  620SOL    HW1 1859   1.888   1.391   0.002 -1.7757 -0.5872  0.0690
  620SOL    HW2 1860   2.042   1.409   3.049  0.3915 -0.4027  0.5439
  621SOL     OW 1861   2.518   3.007   1.024 -0.4218  0.0985 -0.0206
  621SOL    HW1 1862   2.552   3.105   1.023  1.8744  0.7557  0.3508
  621SOL    HW2 1863   2.572   2.955   1.089 -1.0354 -2.0401 -3.2501
  622SOL     OW 1864   1.716   0.983   2.448  0.2907  0.7327  0.7279
  622SOL    HW1 1865   1.816   0.978   2.433 -0.9401  0.1574  0.7668
  622SOL    HW2 1866   1.670   0.900   2.415 -2.1957  2.5601 -0.0908
  623SOL     OW 1867   0.903   0.282   3.012 -0.0559 -0.0275 -0.1312
  623SOL    HW1 1868   1.003   0.285   3.010 -2.6269 -1.0534 -2.4838
  623SOL    HW2 1869   0.862   0.377   3.007  0.5037 -0.0762  1.2045
  624SOL     OW 1870   1.665   0.464   0.361 -0.3013 -0.2194 -0.7927
  624SOL    HW1 1871   1.582   0.428   0.402  0.7015  0.6449 -1.0704
  624SOL    HW2 1872   1.749   0.411   0.383  1.1974 -0.8333  0.7012
  625SOL     OW 1873   0.866   1.199   0.904 -0.1620  0.2876  0.1769
  625SOL    HW1 1874   0.883   1.299   0.897  0.1385  1.7831  1.6738
  625SOL    HW2 1875   0.821   1.180   0.991  0.3435 -2.3535 -1.1729
  626SOL     OW 1876   1.334   1.031   0.158 -0.2527 -0.1487  0.1394
  626SOL    HW1 1877   1.422   1.083   0.165 -0.2227  1.3623 -1.4886
  626SOL    HW2 1878   1.315   0.971   0.240  0.4191 -1.3460 -1.0877
  627SOL     OW 1879   0.937   3.101   1.888  0.0245 -0.2555 -0.3594
  627SOL    HW1 1880   1.029   3.109   1.934  3.2225  0.1701  0.8567
  627SOL    HW2 1881   0.910   0.055   1.826  0.2222  2.4170 -1.7017
  628SOL     OW 1882   2.722   0.214   2.170  0.3910 -0.3675 -0.3507
  628SOL    HW1 1883   2.810   0.264   2.166  1.8777 -0.1263 -0.8701
  628SOL    HW2 1884   2.645   0.270   2.203  0.9807 -1.3485 -1.7533
  629SOL     OW 1885   0.845   1.221   2.672 -0.0057  0.0596  0.0276
  629SOL    HW1 1886   0.923   1.262   2.719 -0.0465 -1.2760 -0.8542
  629SOL    HW2 1887   0.816   1.283   2.602 -1.9559 -0.4883  0.7452
  630SOL     OW 1888   1.251   0.449   2.308  0.3777  0.2015 -0.4176
  630SOL    HW1 1889   1.161   0.485   2.340 -1.0782  0.9219 -0.0409
  630SOL    HW2 1890   1.322   0.444   2.383 -0.1196  0.8544  1.0273
  631SOL     OW 1891   2.659   1.044   0.739 -0.0188 -0.5282 -0.1530
  631SOL    HW1 1892   2.639   1.078   0.834  1.3141  0.4157 -1.6034
  631SOL    HW2 1893   2.745   0.994   0.734 -2.1064  1.3302  1.6813
  632SOL     OW 1894   2.248   1.015   1.290  0.6055 -0.3770  0.5167
  632SOL    HW1 1895   2.336   0.969   1.299 -1.5436  3.0618  0.5590
  632SOL    HW2 1896   2.252   1.095   1.228 -1.5833 -0.4752 -0.3713
  633SOL     OW 1897   1.528   1.104   0.996 -0.0950 -0.4048 -0.1185
  633SOL    HW1 1898   1.584   1.068   0.919 -1.9544  0.2356  2.8854
  633SOL    HW2 1899   1.526   1.043   1.077  0.7050  2.2827 -0.6980
  634SOL     OW 1900   1.941   2.978   0.819  0.2092 -0.0450 -0.5745
  634SOL    HW1 1901   1.902   2.960   0.909 -0.3017 -0.6590  0.6000
  634SOL    HW2 1902   2.040   3.001   0.832 -1.9976 -3.9602  0.2418
  635SOL     OW 1903   1.647   0.686   1.535 -0.3705  0.2197 -0.1681
  635SOL    HW1 1904   1.722   0.742   1.576 -2.8796  0.8468  3.4769
  635SOL    HW2 1905   1.558   0.731   1.552  2.2054 -1.8775  0.8428
  636SOL     OW 1906   0.858   0.928   0.514 -0.0874 -0.2774 -0.5249
  636SOL    HW1 1907   0.790   0.892   0.450 -2.1319 -1.0973  0.7269
  636SOL    HW2 1908   0.810   0.938   0.604 -0.1679  2.2034 -0.5066
  637SOL     OW 1909   1.625   2.262   0.155 -0.5084 -0.1387  0.0451
  637SOL    HW1 1910   1.572   2.349   0.149 -0.6166  0.9353 -0.3044
  637SOL    HW2 1911   1.586   2.198   0.083 -0.4972 -1.8543 -2.5590
  638SOL     OW 1912   1.342   2.761   3.009 -0.8875  0.1670 -0.5821
  638SOL    HW1 1913   1.323   2.759   3.108 -0.7968 -0.3290 -2.9345
  638SOL    HW2 1914   1.421   2.824   2.993 -0.5754 -1.3972 -0.3843
  639SOL     OW 1915   0.783   2.088   1.189 -0.2599 -0.5412 -0.1600
  639SOL    HW1 1916   0.826   2.030   1.122 -1.2034 -0.3103  1.9862
  639SOL    HW2 1917   0.707   2.037   1.232  2.3245  1.9814  0.5566
  640SOL     OW 1918   0.410   2.993   0.350 -0.1200 -0.3282 -0.1118
  640SOL    HW1 1919   0.355   2.939   0.417  0.2810  0.3959 -0.7518
  640SOL    HW2 1920   0.507   2.991   0.366 -2.1494  1.3985  1.8801
  641SOL     OW 1921   0.262   0.076   0.063  0.0487  0.5815 -0.3047
  641SOL    HW1 1922   0.259   0.114   0.159  4.0950 -0.2441  0.7587
  641SOL    HW2 1923   0.318   0.126   3.120 -0.9310  1.4850 -2.2291
  642SOL     OW 1924   0.157   1.565   1.236  0.2874  0.1583  0.5572
  642SOL    HW1 1925   0.085   1.545   1.166 -1.0998 -0.1965  1.8584
  642SOL    HW2 1926   0.163   1.660   1.257 -1.2493  0.7858  2.8483
  643SOL     OW 1927   0.863   1.799   2.162 -0.2000  0.0617 -0.2431
  643SOL    HW1 1928   0.950   1.749   2.141  0.4466  0.1463 -0.3689
  643SOL    HW2 1929   0.889   1.896   2.168 -0.7473 -2.4159  1.1925
  644SOL     OW 1930   1.678   2.444   0.477  0.2859  0.4317  0.3558
  644SOL    HW1 1931   1.757   2.378   0.491  2.2624 -3.8849 -2.1108
  644SOL    HW2 1932   1.611   2.431   0.551  3.0577 -2.2922 -1.5754
  645SOL     OW 1933   1.582   2.491   1.394  0.2358  0.2297 -0.3161
  645SOL    HW1 1934   1.680   2.522   1.399  1.4239  0.3786 -2.6564
  645SOL    HW2 1935   1.565   2.413   1.458 -1.5196 -1.6184 -0.5427
  646SOL     OW 1936   1.177   2.970   0.370 -0.0987 -0.5379 -0.1152
  646SOL    HW1 1937   1.097   2.986   0.296 -0.1034 -3.2534 -1.5166
  646SOL    HW2 1938   1.182   3.044   0.443 -3.4402  2.1082  0.6133
  647SOL     OW 1939   0.378   3.018   2.084 -0.2312 -0.5086  0.0021
  647SOL    HW1 1940   0.327   2.930   2.113  0.9400 -1.2510  3.5858
  647SOL    HW2 1941   0.406   3.019   1.983 -1.4247  1.3324 -1.5712
  648SOL     OW 1942   2.385   0.905   0.727 -0.0156 -0.4867  0.4537
  648SOL    HW1 1943   2.320   0.962   0.776  1.9445 -2.0538  0.6378
  648SOL    HW2 1944   2.468   0.960   0.715  0.4624 -1.6084  1.3861
  649SOL     OW 1945   1.976   2.494   2.925 -0.3333 -0.3022  0.6605
  649SOL    HW1 1946   2.042   2.473   2.998  2.6827  0.9412  0.6069
  649SOL    HW2 1947   1.879   2.494   2.955 -0.6610  0.0031  0.5919
  650SOL     OW 1948   2.455   1.637   1.706 -0.4709  0.1596 -0.3414
  650SOL    HW1 1949   2.460   1.735   1.717  0.5015 -2.3131 -0.9385
  650SOL    HW2 1950   2.458   1.610   1.607  0.7190 -1.7281 -1.6033
  651SOL     OW 1951   1.525   1.707   2.935 -0.0624 -0.5054  0.6003
  651SOL    HW1 1952   1.611   1.765   2.942  2.7243 -0.0045 -0.3686
  651SOL    HW2 1953   1.478   1.710   2.843  1.3655  1.1793 -1.0718
  652SOL     OW 1954   0.937   2.981   2.709 -0.3286 -0.2893 -0.5141
  652SOL    HW1 1955   1.008   2.916   2.729 -1.3291  3.0443 -2.0087
  652SOL    HW2 1956   0.982   3.072   2.714 -0.0635 -1.1631 -1.3248
  653SOL     OW 1957   1.942   2.246   0.916 -0.4707 -0.5247  0.2059
  653SOL    HW1 1958   1.934   2.294   1.003  0.9609  2.4795 -0.0528
  653SOL    HW2 1959   2.035   2.228   0.899 -2.0540  0.8452  1.7407
  654SOL     OW 1960   2.743   2.891   2.223 -0.0969 -0.1206  0.1363
  654SOL    HW1 1961   2.699   2.952   2.290  1.7141  1.9897  0.1714
  654SOL    HW2 1962   2.795   2.941   2.148  0.3282  0.4803 -0.9696
  655SOL     OW 1963   2.749   2.200   1.146 -0.2567  0.2067 -0.1574
  655SOL    HW1 1964   2.800   2.282   1.113 -2.1099  2.6268 -0.5179
  655SOL    HW2 1965   2.706   2.209   1.241 -0.4750 -0.7986  1.7188
  656SOL     OW 1966   2.930   2.101   2.710 -0.2699 -0.0846  0.4598
  656SOL    HW1 1967   2.980   2.087   2.622  0.2074  0.8677 -0.6651
  656SOL    HW2 1968   2.922   2.021   2.767  0.7009 -0.6750 -3.1115
  657SOL     OW 1969   2.850   0.769   0.412 -0.4333 -0.1188  0.4243
  657SOL    HW1 1970   2.798   0.782   0.327 -1.5114  0.6283  3.8295
  657SOL    HW2 1971   2.925   0.840   0.419 -0.1134  1.0333 -1.5842
  658SOL     OW 1972   1.335   1.694   1.202  0.7385 -0.1514 -0.0377
  658SOL    HW1 1973   1.314   1.664   1.297 -0.0682  0.2180 -3.6492
  658SOL    HW2 1974   1.420   1.752   1.208 -1.2488  0.2953 -0.2198
  659SOL     OW 1975   1.151   0.262   1.294 -0.2879  0.2398 -0.1493
  659SOL    HW1 1976   1.247   0.228   1.309  0.2303  1.1630  1.8707
  659SOL    HW2 1977   1.085   0.196   1.336 -1.3972 -1.7104 -1.6815
  660SOL     OW 1978   2.238   1.250   1.146  0.2934 -0.5635  0.0387
  660SOL    HW1 1979   2.310   1.304   1.091 -0.1741  0.5129 -0.0257
  660SOL    HW2 1980   2.202   1.307   1.222 -1.5555 -1.1084 -0.5816
  661SOL     OW 1981   0.218   1.518   0.254  0.1881  0.1657 -0.0231
  661SOL    HW1 1982   0.162   1.527   0.340 -0.2867 -2.5888 -2.9201
  661SOL    HW2 1983   0.309   1.562   0.257 -1.9735 -0.2883 -1.5475
  662SOL     OW 1984   2.675   0.517   1.937  0.1060  0.3663 -0.0929
  662SOL    HW1 1985   2.586   0.564   1.918  0.0483 -0.7899  0.7069
  662SOL    HW2 1986   2.683   0.503   2.036 -0.8396  3.2349  0.8322
  663SOL     OW 1987   2.132   1.389   1.368  0.8604 -0.2872 -0.6903
  663SOL    HW1 1988   2.169   1.481   1.348 -0.4788  0.9168  0.8537
  663SOL    HW2 1989   2.199   1.345   1.434  2.4398  0.3752  0.7436
  664SOL     OW 1990   0.443   3.080   1.302 -1.3763 -0.1730 -0.1059
  664SOL    HW1 1991   0.400   3.080   1.394  0.2575  1.6980 -2.1786
  664SOL    HW2 1992   0.529   0.012   1.305 -1.4872  1.5599  0.0790
  665SOL     OW 1993   1.387   0.229   2.947  0.1209  0.2607  0.0658
  665SOL    HW1 1994   1.471   0.284   2.939  2.0934  1.4957 -1.7393
  665SOL    HW2 1995   1.394   0.161   3.023 -0.6581  0.6705 -0.0195
  666SOL     OW 1996   0.428   0.200   2.115  0.2391  0.1594  0.2908
  666SOL    HW1 1997   0.369   0.132   2.167 -1.1493 -0.2490  1.8493
  666SOL    HW2 1998   0.507   0.235   2.168  0.8380 -2.3917  0.7822
  667SOL     OW 1999   1.728   1.520   1.968 -0.0052 -0.0601  0.5302
  667SOL    HW1 2000   1.756   1.577   1.892 -1.6248 -1.2007 -0.5090
  667SOL    HW2 2001   1.803   1.483   2.031  0.4830  0.2197 -0.8103
  668SOL     OW 2002   0.101   1.633   2.539 -0.8771  0.3513  0.2985
  668SOL    HW1 2003   0.016   1.642   2.595  0.7894  0.6689  0.8403
  668SOL    HW2 2004   0.151   1.548   2.557 -1.7810  1.4641  2.1278
  669SOL     OW 2005   2.252   0.119   2.443 -0.4610  0.2062 -0.3983
  669SOL    HW1 2006   2.307   0.042   2.398  0.5183 -3.3153  1.4609
  669SOL    HW2 2007   2.299   0.152   2.526  0.5732  0.5173 -2.4448
  670SOL     OW 2008   2.707   1.161   2.320  0.1858  0.3602 -0.4434
  670SOL    HW1 2009   2.793   1.143   2.269 -0.1411  1.7752  1.7384
  670SOL    HW2 2010   2.630   1.162   2.259  3.4634 -0.6336 -0.3529
  671SOL     OW 2011   2.658   1.832   0.247  0.4463  0.1761  0.4669
  671SOL    HW1 2012   2.721   1.754   0.220 -3.3264  2.8498  0.4632
  671SOL    HW2 2013   2.592   1.804   0.318 -0.3904  2.2663 -2.9671
  672SOL     OW 2014   1.955   1.478   2.179  0.0302  0.0099 -0.3040
  672SOL    HW1 2015   1.943   1.429   2.269  0.6507  0.0855  0.7033
  672SOL    HW2 2016   1.980   1.578   2.193  0.0486  3.1876 -1.4977
  673SOL     OW 2017   2.898   1.786   1.206 -0.2577 -0.5369  0.6701
  673SOL    HW1 2018   2.886   1.864   1.143 -1.3266 -0.2032  0.6692
  673SOL    HW2 2019   2.947   1.813   1.290  3.9260  1.4984 -0.9714
  674SOL     OW 2020   1.020   1.895   1.861  0.0478 -0.5058  0.2482
  674SOL    HW1 2021   1.037   1.840   1.945  0.0982  0.4188  0.2427
  674SOL    HW2 2022   0.925   1.926   1.852  1.3067 -1.9642 -0.3706
  675SOL     OW 2023   3.069   0.647   0.744  0.1397  0.1483 -0.4542
  675SOL    HW1 2024   0.030   0.679   0.701 -2.2853 -2.1858  0.7745
  675SOL    HW2 2025   3.083   0.622   0.845 -0.3947 -0.1677  0.2323
  676SOL     OW 2026   3.040   1.095   0.945 -0.0014 -0.1361 -0.4768
  676SOL    HW1 2027   3.055   1.193   0.916 -2.3221 -1.6120  0.3118
  676SOL    HW2 2028   2.999   1.096   1.035  1.7269  1.0101 -0.9605
  677SOL     OW 2029   1.629   1.803   2.315 -0.8863  0.3229  0.2311
  677SOL    HW1 2030   1.580   1.770   2.234 -2.7744  0.7875 -1.7671
  677SOL    HW2 2031   1.675   1.895   2.303 -1.6169  1.6305 -2.5042
  678SOL     OW 2032   2.580   1.551   0.739  0.4837 -0.0758  0.8113
  678SOL    HW1 2033   2.588   1.610   0.820  1.5625  0.1106 -1.1321
  678SOL    HW2 2034   2.493   1.552   0.688 -0.2084 -0.5658 -1.5100
  679SOL     OW 2035   0.787   2.404   0.760 -0.1166 -0.5072 -0.3683
  679SOL    HW1 2036   0.792   2.393   0.660 -1.0265 -0.4092 -0.9821
  679SOL    HW2 2037   0.789   2.504   0.781 -2.5090  2.6128 -0.2991
  680SOL     OW 2038   0.127   1.805   1.334 -0.2542  0.1591  0.1949
  680SOL    HW1 2039   0.105   1.891   1.275 -1.7629  0.6626 -1.9392
  680SOL    HW2 2040   0.047   1.775   1.388  1.7681  0.4993 -0.3565
  681SOL     OW 2041   0.978   0.412   1.147 -0.6147  0.2005 -0.6123
  681SOL    HW1 2042   0.889   0.421   1.191  1.2892 -1.5054 -0.7721
  681SOL    HW2 2043   1.033   0.353   1.207 -0.2729 -0.6611  2.2787
  682SOL     OW 2044   1.842   2.921   1.520 -0.6283 -0.1038  0.0468
  682SOL    HW1 2045   1.868   2.990   1.583 -0.8310 -0.5340  0.3657
  682SOL    HW2 2046   1.791   2.960   1.443 -0.6603 -1.9752  1.2870
  683SOL     OW 2047   2.350   1.278   1.545 -0.0402 -1.1540  0.6256
  683SOL    HW1 2048   2.383   1.312   1.631  0.3168 -1.3242 -3.4745
  683SOL    HW2 2049   2.334   1.179   1.553 -0.4959 -1.5665  2.1432
  684SOL     OW 2050   0.083   1.647   1.722  0.3897 -0.3407 -0.3707
  684SOL    HW1 2051   0.088   1.573   1.651  2.4993  0.6344 -0.0800
  684SOL    HW2 2052   0.110   1.616   1.814  2.5361  1.6905 -0.5370
  685SOL     OW 2053   1.941   2.019   0.126 -0.5918  0.5213  0.0100
  685SOL    HW1 2054   1.931   2.116   0.151 -1.8613  1.0357 -1.1537
  685SOL    HW2 2055   1.856   1.962   0.126  1.8071 -0.9376  0.5345
  686SOL     OW 2056   2.809   0.403   0.910 -0.0465 -0.7884 -0.3328
  686SOL    HW1 2057   2.801   0.506   0.920  1.6601 -2.6715 -1.7023
  686SOL    HW2 2058   2.728   0.362   0.859 -0.1139 -0.0059 -0.5291
  687SOL     OW 2059   1.688   0.365   2.515 -0.1093  0.0548 -0.1157
  687SOL    HW1 2060   1.731   0.286   2.474 -0.5394  0.0318 -1.4300
  687SOL    HW2 2061   1.719   0.369   2.611 -1.1518 -1.1102 -0.8860
  688SOL     OW 2062   1.201   2.185   2.527  0.6640  0.0668 -0.3607
  688SOL    HW1 2063   1.240   2.203   2.437 -0.1081 -0.9859  0.7860
  688SOL    HW2 2064   1.107   2.144   2.527 -1.5093 -1.7826  1.7997
  689SOL     OW 2065   2.506   1.384   1.781  0.1768  0.3462  0.1937
  689SOL    HW1 2066   2.492   1.482   1.763 -0.7189  0.1654  0.7214
  689SOL    HW2 2067   2.604   1.368   1.806 -1.3217  0.5785 -1.4176
  690SOL     OW 2068   1.781   1.699   1.464 -0.4014 -0.4557  0.0013
  690SOL    HW1 2069   1.699   1.720   1.410  2.8687  0.0165 -0.2738
  690SOL    HW2 2070   1.828   1.627   1.409  2.8569  0.5595 -1.3499
  691SOL     OW 2071   0.088   1.501   0.736  0.1452 -0.3052  0.1434
  691SOL    HW1 2072   0.071   1.589   0.789 -1.4691  1.8119  2.5122
  691SOL    HW2 2073   0.184   1.468   0.755 -2.0025 -0.0410 -0.4062
  692SOL     OW 2074   2.457   2.673   2.505 -0.3524  0.3317 -0.1225
  692SOL    HW1 2075   2.374   2.724   2.484 -1.0574 -2.2548  1.3682
  692SOL    HW2 2076   2.514   2.671   2.421 -0.6539 -1.7966 -0.7293
  693SOL     OW 2077   2.895   1.450   2.316  0.1552  0.2522  0.2659
  693SOL    HW1 2078   2.803   1.454   2.353  0.3605 -1.6944 -0.6322
  693SOL    HW2 2079   2.941   1.544   2.325  0.1940  1.8528  2.1010
  694SOL     OW 2080   2.199   0.227   1.961  0.4182 -0.1347 -0.4655
  694SOL    HW1 2081   2.228   0.189   1.874  1.2788  1.5517  3.0620
  694SOL    HW2 2082   2.182   0.325   1.947  0.9523 -0.5079  0.3834
  695SOL     OW 2083   1.197   0.819   2.462 -0.5404 -0.3223  0.9013
  695SOL    HW1 2084   1.103   0.789   2.447  1.0322 -1.7005  0.5728
  695SOL    HW2 2085   1.201   0.917   2.487 -2.7045  0.4720 -1.5874
  696SOL     OW 2086   1.710   0.158   1.828 -0.2119 -0.0395 -0.0264
  696SOL    HW1 2087   1.811   0.167   1.839  1.1705 -0.7770  1.2736
  696SOL    HW2 2088   1.683   0.090   1.756 -0.6663 -0.2872 -2.0316
  697SOL     OW 2089   1.613   0.283   2.066 -0.2316  0.4819  0.2361
  697SOL    HW1 2090   1.679   0.354   2.077 -0.3931 -0.7264 -0.9117
  697SOL    HW2 2091   1.640   0.227   1.986  2.5089 -0.5762  0.4375
  698SOL     OW 2092   1.773   2.042   2.274  0.0438  0.1371 -0.7901
  698SOL    HW1 2093   1.843   2.114   2.302  1.3631  1.3228  0.7759
  698SOL    HW2 2094   1.778   2.017   2.176 -0.7775 -1.7627 -1.1125
  699SOL     OW 2095   2.061   0.819   0.242  0.0860  0.0938 -0.5173
  699SOL    HW1 2096   1.971   0.843   0.206  1.0894 -1.7656 -1.0299
  699SOL    HW2 2097   2.121   0.900   0.221  0.4594  1.4114  0.4974
  700SOL     OW 2098   1.237   0.067   0.502 -0.4556 -0.1598 -0.5074
  700SOL    HW1 2099   1.223   0.165   0.527 -0.8937 -0.0189 -1.1746
  700SOL    HW2 2100   1.306   0.058   0.428  0.0848  0.8379  0.7299
  701SOL     OW 2101   0.179   0.835   0.908  0.3612  0.1449  0.0079
  701SOL    HW1 2102   0.279   0.830   0.931  1.5063 -1.1788 -2.0937
  701SOL    HW2 2103   0.171   0.824   0.809  1.0356  1.0189  3.4134
  702SOL     OW 2104   1.977   0.268   1.475  0.4737 -0.1505 -0.0277
  702SOL    HW1 2105   2.030   0.350   1.472 -2.1408 -4.8844  1.1325
  702SOL    HW2 2106   1.877   0.285   1.472  1.3712 -0.7931  2.2346
  703SOL     OW 2107   2.779   0.872   1.335 -0.5816  0.0649 -0.1220
  703SOL    HW1 2108   2.862   0.922   1.298  3.6227 -0.5050  0.7066
  703SOL    HW2 2109   2.805   0.771   1.336 -0.1346  0.1610 -1.5081
  704SOL     OW 2110   0.922   2.524   1.260  0.3200  0.1684  0.5918
  704SOL    HW1 2111   0.999   2.565   1.207  0.4301  0.4825  0.9896
  704SOL    HW2 2112   0.954   2.473   1.344 -0.2119  2.3052 -0.2747
  705SOL     OW 2113   0.235   1.389   2.601  0.1688 -0.1662  0.5366
  705SOL    HW1 2114   0.296   1.353   2.526 -0.6205  2.5768 -0.3596
  705SOL    HW2 2115   0.302   1.436   2.668  1.9933  2.2216  1.3744
  706SOL     OW 2116   2.941   3.028   0.043 -0.2713  0.6273  0.2991
  706SOL    HW1 2117   2.860   2.982   0.013 -0.5629  1.8674 -0.3526
  706SOL    HW2 2118   2.936   3.047   0.142 -1.6002 -0.5047 -0.2710
  707SOL     OW 2119   1.537   2.860   2.516 -0.3316  0.0884  0.8176
  707SOL    HW1 2120   1.525   2.899   2.421 -0.2922  0.0290 -1.7421
  707SOL    HW2 2121   1.533   2.756   2.525 -0.9212 -0.3674  1.1183
  708SOL     OW 2122   0.469   2.704   1.707  0.5061 -0.5818  0.1225
  708SOL    HW1 2123   0.433   2.699   1.804 -1.8675  1.3663 -2.1732
  708SOL    HW2 2124   0.403   2.756   1.650  0.6823  1.1570 -0.4284
  709SOL     OW 2125   3.047   0.747   2.048  0.2243  0.5275 -0.1992
  709SOL    HW1 2126   3.090   0.784   1.966 -1.8595 -1.0927  0.9598
  709SOL    HW2 2127   3.120   0.703   2.108 -0.9962  0.5608  0.9891
  710SOL     OW 2128   0.146   0.918   1.164 -0.1143 -0.4190 -0.0472
  710SOL    HW1 2129   0.144   0.888   1.065 -1.1193  0.1679  0.7150
  710SOL    HW2 2130   0.121   0.837   1.225  0.1990  1.5579 -0.0178
  711SOL     OW 2131   2.851   2.916   1.289  0.4855  0.4661  0.0721
  711SOL    HW1 2132   2.922   2.845   1.306  1.3147 -0.5421 -0.2905
  711SOL    HW2 2133   2.762   2.874   1.261 -0.7987 -0.7329  1.8369
  712SOL     OW 2134   0.279   3.084   2.621 -0.1003 -0.2994  0.0898
  712SOL    HW1 2135   0.247   3.065   2.718 -0.4195  0.7565 -2.4057
  712SOL    HW2 2136   0.343   3.013   2.584  0.5463 -0.2876 -0.6420
  713SOL     OW 2137   2.383   0.170   0.412  0.3081 -0.2220 -0.7157
  713SOL    HW1 2138   2.338   0.258   0.437  3.5130  0.7822  1.3103
  713SOL    HW2 2139   2.390   0.109   0.494 -0.0254 -2.0938 -0.4606
  714SOL     OW 2140   1.735   1.828   0.119 -0.1414  0.5728  0.0121
  714SOL    HW1 2141   1.634   1.840   0.138 -0.2035  0.7711  3.4346
  714SOL    HW2 2142   1.781   1.755   0.171 -0.8516  2.8560  0.4540
  715SOL     OW 2143   0.098   0.343   0.601 -0.3540  0.5272  0.6277
  715SOL    HW1 2144   0.112   0.245   0.609  1.6057  0.1665  0.7165
  715SOL    HW2 2145   0.047   0.377   0.686 -0.8990  0.9828  2.9014
  716SOL     OW 2146   0.868   0.750   1.786 -0.4470 -0.0242 -0.1010
  716SOL    HW1 2147   0.897   0.655   1.786 -1.4079  0.3654  2.6470
  716SOL    HW2 2148   0.806   0.771   1.867  0.3411 -1.2328 -0.3330
  717SOL     OW 2149   0.537   0.419   3.045  0.3565  0.0761 -0.2804
  717SOL    HW1 2150   0.466   0.460   2.984 -0.1593  0.0020 -1.5055
  717SOL    HW2 2151   0.625   0.468   3.029 -0.6984 -0.9192  0.7341
  718SOL     OW 2152   1.267   0.476   0.172 -0.2916  0.0833  0.4082
  718SOL    HW1 2153   1.331   0.555   0.193 -1.1629  5.1234  0.7803
  718SOL    HW2 2154   1.310   0.389   0.201  0.4131  1.6694  1.3704
  719SOL     OW 2155   2.597   2.377   2.855  0.4760 -0.0445  0.2669
  719SOL    HW1 2156   2.612   2.289   2.905 -1.4598 -1.8928 -1.6349
  719SOL    HW2 2157   2.542   2.450   2.905 -0.8984  0.3536  0.3368
  720SOL     OW 2158   1.226   0.523   1.350  0.7635 -0.2742 -0.3031
  720SOL    HW1 2159   1.176   0.604   1.315 -0.7256  0.1405  0.7034
  720SOL    HW2 2160   1.171   0.438   1.335 -0.7387  2.2375 -0.8866
  721SOL     OW 2161   2.854   3.098   1.068 -0.4187  0.1236  0.1999
  721SOL    HW1 2162   2.851   0.071   1.101 -2.9002  1.5681 -0.5435
  721SOL    HW2 2163   2.862   3.033   1.147 -1.3832 -3.3091  1.4667
  722SOL     OW 2164   1.150   1.593   2.567 -0.7609  0.2087  0.0402
  722SOL    HW1 2165   1.056   1.623   2.580  2.6400 -0.6802 -0.7392
  722SOL    HW2 2166   1.173   1.527   2.642  1.6321 -0.6916  1.2202
  723SOL     OW 2167   2.330   0.560   1.047 -0.1764 -0.8872  0.3253
  723SOL    HW1 2168   2.304   0.500   0.967 -0.5113 -0.9373 -0.8064
  723SOL    HW2 2169   2.389   0.635   1.019 -1.0759  0.9376 -0.3077
  724SOL     OW 2170   0.827   2.247   0.029 -0.3802 -0.6601  0.3650
  724SOL    HW1 2171   0.880   2.191   0.099 -0.6034 -2.2648  3.0415
  724SOL    HW2 2172   0.859   2.345   0.035 -0.7962  0.2775  2.1628
  725SOL     OW 2173   0.251   1.270   1.557 -0.0374 -0.0800 -0.2137
  725SOL    HW1 2174   0.222   1.182   1.513  0.8682 -0.5748  0.0710
  725SOL    HW2 2175   0.351   1.267   1.579 -0.1058  0.0377  0.5903
  726SOL     OW 2176   2.413   0.723   0.198  0.2970  0.3840  0.1432
  726SOL    HW1 2177   2.341   0.769   0.249 -1.9750 -2.1309 -0.8318
  726SOL    HW2 2178   2.508   0.756   0.219  0.6623  1.3397  1.1759
  727SOL     OW 2179   2.102   1.307   2.691  0.1317  0.2912  0.7679
  727SOL    HW1 2180   2.193   1.347   2.673 -0.9602 -1.0087 -2.1623
  727SOL    HW2 2181   2.103   1.207   2.666  1.4956  0.4706  1.3863
  728SOL     OW 2182   1.769   2.668   1.553  1.0565 -0.2195  0.0027
  728SOL    HW1 2183   1.726   2.646   1.646 -2.1091 -0.1598  1.0659
  728SOL    HW2 2184   1.789   2.767   1.538 -1.8707  1.0808 -0.9174
  729SOL     OW 2185   2.125   0.770   2.134  0.0408  0.2122 -0.3735
  729SOL    HW1 2186   2.217   0.761   2.089  1.8193 -0.6009  0.2396
  729SOL    HW2 2187   2.094   0.870   2.119 -2.0091  2.2501  1.7528
  730SOL     OW 2188   1.260   0.831   1.189 -0.6335 -0.0237 -0.5593
  730SOL    HW1 2189   1.201   0.797   1.261  1.4222  0.0984 -0.0996
  730SOL    HW2 2190   1.233   0.797   1.099  1.7368  1.8510 -1.2102
  731SOL     OW 2191   0.655   0.660   0.073 -0.5243  0.0858 -0.0296
  731SOL    HW1 2192   0.754   0.669   0.042  0.0383 -1.6913 -0.0204
  731SOL    HW2 2193   0.591   0.731   0.035 -2.7711 -2.2691 -0.8113
  732SOL     OW 2194   0.392   0.606   0.209 -0.1903 -0.5974 -0.0325
  732SOL    HW1 2195   0.338   0.587   0.125 -1.0423 -0.9076 -0.6581
  732SOL    HW2 2196   0.493   0.601   0.187  2.1151  0.5111 -0.6163
  733SOL     OW 2197   1.878   1.641   2.550  0.0801 -0.1613  0.1221
  733SOL    HW1 2198   1.779   1.632   2.558  0.3153 -2.0462 -2.0298
  733SOL    HW2 2199   1.927   1.659   2.641  0.9799  0.5654  0.8628
  734SOL     OW 2200   0.269   1.994   2.755  0.4054  0.7654 -0.2440
  734SOL    HW1 2201   0.257   1.940   2.839  0.2879  0.0081  1.1138
  734SOL    HW2 2202   0.231   2.086   2.767  0.9465 -0.5376  1.0433
  735SOL     OW 2203   2.046   0.599   1.005 -0.0497  0.5942 -0.8591
  735SOL    HW1 2204   2.052   0.570   0.906  1.3029 -0.9303 -2.2460
  735SOL    HW2 2205   2.138   0.606   1.040  0.9064  1.0134 -0.9128
  736SOL     OW 2206   1.783   1.807   2.978  0.0033  0.8501 -0.5994
  736SOL    HW1 2207   1.765   1.811   3.078  1.6049  1.0736  0.7084
  736SOL    HW2 2208   1.774   1.901   2.939  1.6940  0.3666  3.2369
  737SOL     OW 2209   3.073   0.410   0.363  0.0697 -0.0084 -0.0680
  737SOL    HW1 2210   3.016   0.471   0.422  1.3035  1.6673  0.8306
  737SOL    HW2 2211   0.015   0.366   0.428 -1.7404 -2.2551  2.3355
  738SOL     OW 2212   0.485   2.223   1.741 -0.1378  0.5912 -0.4165
  738SOL    HW1 2213   0.571   2.175   1.712 -0.5793 -1.1278 -1.9382
  738SOL    HW2 2214   0.486   2.319   1.706 -1.0242  2.4234  0.6303
  739SOL     OW 2215   1.256   2.820   2.231  0.3412  0.1902 -0.3999
  739SOL    HW1 2216   1.178   2.793   2.178  2.1792  0.4100  1.8179
  739SOL    HW2 2217   1.234   2.819   2.334  2.2411 -0.6120  1.9993
  740SOL     OW 2218   2.162   2.359   1.419  0.7376 -0.4068  0.1935
  740SOL    HW1 2219   2.123   2.286   1.370  2.1784  1.5955 -1.2215
  740SOL    HW2 2220   2.118   2.447   1.390 -0.8097  2.0095 -0.5456
  741SOL     OW 2221   2.035   0.541   0.297 -0.0839 -0.2431 -0.4897
  741SOL    HW1 2222   2.020   0.496   0.207  1.2898  0.2973 -1.5724
  741SOL    HW2 2223   2.050   0.638   0.280 -1.5292 -3.9298 -1.6607
  742SOL     OW 2224   1.083   2.458   3.034  0.2080  0.2891 -0.1828
  742SOL    HW1 2225   1.080   2.418   2.941  2.8499 -0.0886 -1.6311
  742SOL    HW2 2226   1.156   2.413   3.091 -2.0980  0.1728 -1.8932
  743SOL     OW 2227   2.441   1.014   1.904  0.5710  0.3661 -0.0201
  743SOL    HW1 2228   2.475   1.067   1.985  1.5145  0.5146 -1.7240
  743SOL    HW2 2229   2.343   0.985   1.910 -2.0384  0.8545 -0.9363
  744SOL     OW 2230   2.692   0.404   0.609 -0.5218 -0.2045  0.1307
  744SOL    HW1 2231   2.624   0.439   0.537 -0.1858 -0.1850  0.8603
  744SOL    HW2 2232   2.778   0.450   0.591 -0.5683 -2.3382  1.9074
  745SOL     OW 2233   2.693   1.095   1.763 -0.0889 -0.1267 -0.4621
  745SOL    HW1 2234   2.597   1.074   1.799 -2.8312  0.3827  2.0477
  745SOL    HW2 2235   2.723   1.186   1.793 -1.1083 -3.3512  0.2909
  746SOL     OW 2236   1.196   1.397   0.833 -0.6428  0.1891 -0.1595
  746SOL    HW1 2237   1.245   1.468   0.886 -0.0658  2.8331  0.4039
  746SOL    HW2 2238   1.094   1.410   0.844  0.5977  0.9754  1.1695
  747SOL     OW 2239   1.030   1.685   1.668 -0.2854 -0.4580 -0.1007
  747SOL    HW1 2240   1.010   1.782   1.700 -0.3888  3.6073  1.7271
  747SOL    HW2 2241   1.092   1.635   1.728 -0.5529  1.6106  0.4166
  748SOL     OW 2242   0.272   2.821   2.985  0.4675  0.1291 -0.0998
  748SOL    HW1 2243   0.356   2.800   2.931 -0.6231 -0.4248  0.1554
  748SOL    HW2 2244   0.295   2.860   3.076  0.3914 -2.3860 -0.8711
  749SOL     OW 2245   0.439   1.147   2.498  0.0849 -0.2787  0.0626
  749SOL    HW1 2246   0.359   1.125   2.441  3.9604  0.5580  1.5554
  749SOL    HW2 2247   0.508   1.209   2.452 -0.2276 -1.9413  0.1955
  750SOL     OW 2248   1.872   1.176   1.887 -0.4096  0.4270  0.0376
  750SOL    HW1 2249   1.876   1.183   1.790  1.0290 -0.0512  2.3633
  750SOL    HW2 2250   1.941   1.239   1.932 -0.2316  0.7611  2.2883
  751SOL     OW 2251   2.565   0.523   0.396 -0.3713  0.1790 -0.5611
  751SOL    HW1 2252   2.465   0.526   0.410  1.6274  1.2955 -2.6516
  751SOL    HW2 2253   2.600   0.614   0.370 -0.9292 -0.4188  0.8849
  752SOL     OW 2254   0.302   2.523   0.964  0.4633 -0.4846 -0.1733
  752SOL    HW1 2255   0.289   2.589   1.040 -0.9070 -1.2584 -1.2391
  752SOL    HW2 2256   0.398   2.489   0.961  0.3082  1.1830  1.6935
  753SOL     OW 2257   0.730   2.363   1.170  0.1706  0.6429 -0.4268
  753SOL    HW1 2258   0.801   2.429   1.199 -2.1819  0.4582 -1.0587
  753SOL    HW2 2259   0.756   2.269   1.191  1.4382  3.5709  0.8874
  754SOL     OW 2260   0.233   2.774   2.169 -0.1822 -0.0401  0.8658
  754SOL    HW1 2261   0.141   2.749   2.129  0.1030 -2.3335  0.3415
  754SOL    HW2 2262   0.227   2.759   2.269  0.4725  1.2180 -0.4769
  755SOL     OW 2263   2.306   0.493   0.418 -0.1495 -0.7598 -0.1074
  755SOL    HW1 2264   2.236   0.510   0.347 -0.5712  1.3372  0.4692
  755SOL    HW2 2265   2.270   0.536   0.503 -2.0578 -0.2022 -0.3834
  756SOL     OW 2266   2.254   2.345   2.788 -0.2828 -0.6085 -0.0238
  756SOL    HW1 2267   2.231   2.430   2.838  2.2178  0.4493 -3.7972
  756SOL    HW2 2268   2.283   2.369   2.695  0.7108  0.8304  1.8170
  757SOL     OW 2269   2.083   0.520   0.741  0.0687 -0.4064 -0.2807
  757SOL    HW1 2270   2.139   0.584   0.690 -2.6925 -3.6015  0.3108
  757SOL    HW2 2271   1.984   0.532   0.712 -4.1095  2.7789  0.1503
  758SOL     OW 2272   2.229   0.683   1.643  0.3967  0.2558 -0.1263
  758SOL    HW1 2273   2.309   0.740   1.649 -2.1490 -1.7147  1.0029
  758SOL    HW2 2274   2.162   0.701   1.714 -0.5497 -1.6822 -1.2752
  759SOL     OW 2275   2.796   0.694   0.981 -0.0719 -0.0797 -0.1440
  759SOL    HW1 2276   2.856   0.661   1.056  2.3451 -0.8253 -0.8874
  759SOL    HW2 2277   2.828   0.780   0.938 -0.6977 -1.1396  1.5839
  760SOL     OW 2278   2.541   1.290   1.345  0.4584 -0.1339 -0.0938
  760SOL    HW1 2279   2.474   1.306   1.422 -1.7475  0.0494 -0.8618
  760SOL    HW2 2280   2.609   1.224   1.378 -2.0311 -0.4043 -1.6384
  761SOL     OW 2281   0.666   0.807   0.342 -0.2935 -0.3967  0.2002
  761SOL    HW1 2282   0.697   0.762   0.256  1.2544 -3.0719  0.2549
  761SOL    HW2 2283   0.583   0.863   0.324 -0.3562  1.5277 -2.7544
  762SOL     OW 2284   0.796   1.598   0.695 -0.5494 -0.0901 -0.0995
  762SOL    HW1 2285   0.885   1.643   0.659  0.1110  0.5153  1.2868
  762SOL    HW2 2286   0.728   1.662   0.738  0.4115  1.5981  2.3047
  763SOL     OW 2287   1.260   1.015   1.623  0.2389 -0.3636 -0.2113
  763SOL    HW1 2288   1.196   0.984   1.699 -0.2143  1.2392  3.0046
  763SOL    HW2 2289   1.208   1.026   1.539  1.2618 -0.4205 -1.2184
  764SOL     OW 2290   0.516   1.868   2.672 -0.0960 -0.3256 -0.1644
  764SOL    HW1 2291   0.529   1.793   2.600  0.4332  0.2466 -0.3419
  764SOL    HW2 2292   0.432   1.924   2.663  0.7749  2.6197  1.1963
  765SOL     OW 2293   0.739   2.696   1.773 -0.0994 -0.4872  0.0758
  765SOL    HW1 2294   0.772   2.599   1.756  1.3312 -1.8543  1.0421
  765SOL    HW2 2295   0.668   2.719   1.706  0.9799  0.2479  1.9690
  766SOL     OW 2296   2.456   2.123   2.224  0.0246 -0.4868 -0.4453
  766SOL    HW1 2297   2.550   2.104   2.269 -1.3856  1.9630  1.6775
  766SOL    HW2 2298   2.390   2.124   2.302  0.5681  1.9424  0.0062
  767SOL     OW 2299   1.781   1.238   2.362  0.3962  0.0428  0.0283
  767SOL    HW1 2300   1.746   1.153   2.409 -2.3168 -2.6044  0.3218
  767SOL    HW2 2301   1.722   1.318   2.384 -1.5701  0.9259 -1.9498
  768SOL     OW 2302   1.484   1.886   0.174 -0.1929  0.3322  0.2613
  768SOL    HW1 2303   1.407   1.827   0.212 -1.3690  0.1760  1.0683
  768SOL    HW2 2304   1.457   1.943   0.099  0.9902 -1.0779  1.5227
  769SOL     OW 2305   0.511   1.273   1.580 -0.1890 -0.0471 -0.0737
  769SOL    HW1 2306   0.544   1.345   1.512 -0.0648  1.6240 -0.8613
  769SOL    HW2 2307   0.533   1.182   1.541 -0.7008  0.7901  1.1546
  770SOL     OW 2308   1.409   1.077   2.788 -0.1815  0.4159 -0.4731
  770SOL    HW1 2309   1.390   1.028   2.879 -0.1870  2.1242  1.2505
  770SOL    HW2 2310   1.503   1.053   2.756 -3.0282 -1.8688 -0.3348
  771SOL     OW 2311   0.049   3.080   2.439  0.1139  0.0001 -0.3784
  771SOL    HW1 2312   0.008   2.987   2.440 -1.9067 -1.3776 -0.9962
  771SOL    HW2 2313   0.120   3.094   2.507  1.4334  2.1899 -1.6416
  772SOL     OW 2314   2.009   1.863   2.120  0.1239 -0.5474  1.0072
  772SOL    HW1 2315   2.079   1.894   2.051  3.3602 -0.0924 -0.3315
  772SOL    HW2 2316   1.925   1.899   2.084  1.6494 -1.1712  0.1745
  773SOL     OW 2317   0.450   1.470   1.757  0.0652 -0.2282  0.1287
  773SOL    HW1 2318   0.516   1.540   1.758  2.6505 -0.4401 -0.3250
  773SOL    HW2 2319   0.472   1.398   1.689  1.8011 -1.3320  2.8277
  774SOL     OW 2320   1.233   0.713   2.897 -0.9692  0.2416 -0.1778
  774SOL    HW1 2321   1.166   0.772   2.845  2.7322  1.5949  0.6392
  774SOL    HW2 2322   1.186   0.666   2.976 -1.0685  0.5290 -0.8000
  775SOL     OW 2323   1.893   3.022   0.159 -0.4933  0.4723 -0.0640
  775SOL    HW1 2324   1.886   3.086   0.244  0.9194  1.7598  3.2706
  775SOL    HW2 2325   1.955   2.945   0.181  1.6228  0.1878  1.4668
  776SOL     OW 2326   0.240   0.494   1.711 -0.1438  0.1687 -0.5323
  776SOL    HW1 2327   0.253   0.412   1.771  1.0464  2.5743 -0.6391
  776SOL    HW2 2328   0.302   0.566   1.739 -2.1611 -0.9581 -1.1444
  777SOL     OW 2329   2.369   2.090   1.962 -0.4595 -0.1763  0.2814
  777SOL    HW1 2330   2.403   2.098   2.056 -0.2284 -0.7602  2.2035
  777SOL    HW2 2331   2.309   2.171   1.946  0.5442  0.6620 -1.2219
  778SOL     OW 2332   2.072   1.063   2.166  0.4014 -0.4269 -0.0273
  778SOL    HW1 2333   2.018   1.118   2.098  0.7916  0.4766  2.4526
  778SOL    HW2 2334   2.143   1.121   2.212  0.6859 -0.7782 -0.5111
  779SOL     OW 2335   2.678   1.058   0.065 -0.1188  0.6914  0.6089
  779SOL    HW1 2336   2.765   1.048   0.013 -0.1342  0.3860  2.6987
  779SOL    HW2 2337   2.606   1.106   0.008  2.0605  0.5447  0.1357
  780SOL     OW 2338   2.585   0.338   2.510 -0.2202  0.5748 -0.3397
  780SOL    HW1 2339   2.587   0.413   2.582 -1.2148  0.1620 -0.3691
  780SOL    HW2 2340   2.632   0.253   2.544 -0.0843  2.4448 -1.0085
  781SOL     OW 2341   0.066   1.924   1.727  0.0662  0.4703  0.1671
  781SOL    HW1 2342   0.141   1.950   1.663 -1.0375  2.3118 -2.1872
  781SOL    HW2 2343   0.042   1.824   1.726 -0.6529 -0.2010 -1.0923
  782SOL     OW 2344   2.588   2.142   2.975  0.1240  0.0691 -0.1751
  782SOL    HW1 2345   2.612   2.119   3.072  0.4858  0.9498 -0.0882
  782SOL    HW2 2346   2.579   2.052   2.923  1.0496 -0.7383  0.8785
  783SOL     OW 2347   0.654   1.450   1.421  0.2236  0.0386 -0.1201
  783SOL    HW1 2348   0.750   1.444   1.458 -1.3718  0.4396 -0.0150
  783SOL    HW2 2349   0.651   1.402   1.332 -1.4338  3.1447  0.2968
  784SOL     OW 2350   2.111   0.855   2.809  0.6498  0.1790 -0.1849
  784SOL    HW1 2351   2.148   0.903   2.888 -0.7710  1.8984 -2.0129
  784SOL    HW2 2352   2.013   0.829   2.830  0.3389  0.2680  0.5432
  785SOL     OW 2353   2.401   2.544   0.627  0.8459  0.1700 -0.3861
  785SOL    HW1 2354   2.489   2.577   0.660 -3.6665  0.1771 -0.7613
  785SOL    HW2 2355   2.331   2.618   0.637 -1.2242  0.6201  0.4043
  786SOL     OW 2356   0.579   2.217   2.404  0.3932  0.5664 -0.4532
  786SOL    HW1 2357   0.499   2.167   2.359 -4.2468 -2.9776 -1.7993
  786SOL    HW2 2358   0.568   2.317   2.418  1.3737 -2.1385  1.2929
  787SOL     OW 2359   1.486   0.489   1.222  0.2876 -0.2816 -0.4885
  787SOL    HW1 2360   1.414   0.488   1.294  0.8456 -0.9462 -0.2932
  787SOL    HW2 2361   1.561   0.558   1.244  0.8575  0.8127 -0.3960
  788SOL     OW 2362   0.251   0.749   0.375  0.0927 -0.6563  0.3109
  788SOL    HW1 2363   0.327   0.693   0.335  1.6882 -1.8796  0.3958
  788SOL    HW2 2364   0.162   0.714   0.351  3.8659 -0.6829  0.3348
  789SOL     OW 2365   2.915   2.090   1.353  0.2442  0.0952 -0.0316
  789SOL    HW1 2366   2.989   2.157   1.385  3.0357  0.4572 -1.4283
  789SOL    HW2 2367   2.866   2.119   1.272  0.8182 -1.7565 -0.7121
  790SOL     OW 2368   1.520   0.826   1.888 -0.1937 -0.5032 -0.1019
  790SOL    HW1 2369   1.566   0.736   1.910  1.4954 -1.0709 -0.7325
  790SOL    HW2 2370   1.490   0.881   1.970 -1.1270  2.0833  1.9144
  791SOL     OW 2371   1.566   0.409   0.713 -0.1623  0.3083 -0.3428
  791SOL    HW1 2372   1.536   0.335   0.647 -0.8907 -2.5468  3.1997
  791SOL    HW2 2373   1.541   0.391   0.813  0.9076 -1.7232 -0.2239
  792SOL     OW 2374   1.606   2.931   1.905  0.0705  0.4652  0.6128
  792SOL    HW1 2375   1.541   2.967   1.975  2.4956 -1.3183 -0.7917
  792SOL    HW2 2376   1.555   2.921   1.815  0.8420  1.2608  0.9699
  793SOL     OW 2377   0.679   0.023   0.760 -0.2228 -0.5913 -0.3710
  793SOL    HW1 2378   0.746   3.104   0.700 -0.8465  2.3608 -1.3048
  793SOL    HW2 2379   0.636   0.097   0.710 -0.2472 -1.9205  0.6359
  794SOL     OW 2380   0.580   0.909   2.423 -0.5144 -0.2332  0.2480
  794SOL    HW1 2381   0.675   0.950   2.446  4.9213  2.1280 -0.2232
  794SOL    HW2 2382   0.541   0.931   2.331 -2.4448  2.3311  0.6506
  795SOL     OW 2383   0.240   1.877   2.279 -0.3295 -0.3362 -0.0344
  795SOL    HW1 2384   0.156   1.848   2.223 -0.7055 -0.7913  1.4153
  795SOL    HW2 2385   0.206   1.909   2.373 -0.6851  1.7201  2.4831
  796SOL     OW 2386   2.534   1.233   2.104  0.3304 -0.2500 -0.0104
  796SOL    HW1 2387   2.585   1.321   2.084  1.2408  0.0859 -0.2494
  796SOL    HW2 2388   2.438   1.243   2.144 -3.4225  1.5954 -0.7978
  797SOL     OW 2389   3.045   2.782   2.735 -0.0406 -0.6529  0.1947
  797SOL    HW1 2390   3.116   2.722   2.782 -0.6446 -0.0259 -0.5377
  797SOL    HW2 2391   2.956   2.732   2.727 -0.8096  0.6785 -2.5785
  798SOL     OW 2392   3.050   2.128   2.219 -0.8617  0.0478  0.6221
  798SOL    HW1 2393   2.972   2.192   2.219 -1.0594 -0.2438  0.7206
  798SOL    HW2 2394   0.009   2.185   2.194 -1.5076  0.5775  0.7499
  799SOL     OW 2395   3.007   2.265   2.928 -0.0858 -0.2501  0.1549
  799SOL    HW1 2396   2.990   2.216   3.013  0.6000 -1.1819 -0.6193
  799SOL    HW2 2397   2.970   2.196   2.863  0.5011  1.9587 -1.3393
  800SOL     OW 2398   1.351   1.605   0.350 -0.2259 -0.1726 -0.0502
  800SOL    HW1 2399   1.251   1.602   0.345  1.7609  1.2420 -1.5767
  800SOL    HW2 2400   1.385   1.664   0.428 -0.8456 -0.2270  1.7834
  801SOL     OW 2401   1.986   1.146   1.112 -0.1120 -0.4542 -0.7420
  801SOL    HW1 2402   2.073   1.207   1.106  0.7256  1.9455  0.0466
  801SOL    HW2 2403   2.012   1.066   1.168  1.5046  0.4566  1.2486
  802SOL     OW 2404   2.953   1.332   0.278 -0.3461 -0.3746 -0.3850
  802SOL    HW1 2405   2.907   1.335   0.365 -0.7027  0.0293 -2.6340
  802SOL    HW2 2406   3.044   1.288   0.294 -0.7742  0.3796 -0.3605
  803SOL     OW 2407   1.378   1.739   2.710  0.2976  0.0852 -0.2760
  803SOL    HW1 2408   1.347   1.839   2.715  1.8842  0.3019  1.7423
  803SOL    HW2 2409   1.319   1.684   2.653  2.3415  2.5338  0.6265
  804SOL     OW 2410   1.800   1.581   0.224  0.4415  0.0631  0.1881
  804SOL    HW1 2411   1.744   1.507   0.273 -1.6365 -0.3595  0.0394
  804SOL    HW2 2412   1.895   1.574   0.254 -1.9793 -1.8950 -2.2490
  805SOL     OW 2413   2.323   1.768   2.711  0.0219 -0.2326  0.5528
  805SOL    HW1 2414   2.359   1.780   2.808 -0.4384 -1.5789  1.9397
  805SOL    HW2 2415   2.230   1.810   2.699 -0.3414  5.3241 -0.4408
  806SOL     OW 2416   0.681   3.025   0.348  0.1461  0.2104  0.0167
  806SOL    HW1 2417   0.651   3.115   0.309 -0.1492  1.5882 -2.5808
  806SOL    HW2 2418   0.746   3.037   0.429  1.8803 -0.3161  1.7544
  807SOL     OW 2419   2.101   1.464   2.906  0.0768  0.0028 -0.0297
  807SOL    HW1 2420   2.067   1.554   2.868 -0.5725  0.2885 -0.2294
  807SOL    HW2 2421   2.112   1.394   2.835  1.8524  0.1581  0.0679
  808SOL     OW 2422   0.086   1.559   0.480  0.0275  0.2431 -0.1732
  808SOL    HW1 2423   0.080   1.537   0.580 -1.8322 -0.3233 -0.0040
  808SOL    HW2 2424   0.003   1.606   0.448 -0.9316  1.6024 -0.1719
  809SOL     OW 2425   2.457   1.186   3.078 -0.3450 -0.1509  0.4426
  809SOL    HW1 2426   2.378   1.128   3.072 -1.5116  0.9577  1.0997
  809SOL    HW2 2427   2.433   1.285   3.088 -0.3859 -2.9065  1.9829
  810SOL     OW 2428   0.631   1.083   0.155 -0.1948 -0.3340 -0.3285
  810SOL    HW1 2429   0.631   1.167   0.098  1.3521 -0.1224  0.4175
  810SOL    HW2 2430   0.541   1.055   0.187  1.3880 -2.7988 -1.1701
  811SOL     OW 2431   1.207   2.507   1.647  0.3426 -0.1850 -0.2368
  811SOL    HW1 2432   1.210   2.582   1.581  0.1685  1.7578  1.9829
  811SOL    HW2 2433   1.300   2.483   1.676 -2.1890 -2.3327  2.4549
  812SOL     OW 2434   0.804   2.445   1.655 -0.1715  0.7843 -0.1611
  812SOL    HW1 2435   0.846   2.420   1.566 -1.9068  0.9628 -2.0534
  812SOL    HW2 2436   0.705   2.435   1.651  3.0924  0.1245  1.2657
  813SOL     OW 2437   1.390   0.422   2.092 -0.2209  0.5001 -0.0291
  813SOL    HW1 2438   1.463   0.352   2.081 -0.0327 -0.0565 -0.8725
  813SOL    HW2 2439   1.341   0.421   2.185  2.2236 -1.0828  0.1318
  814SOL     OW 2440   1.488   2.502   2.903 -0.2951 -0.0872 -0.2976
  814SOL    HW1 2441   1.412   2.571   2.917 -0.8251  0.2044  0.1377
  814SOL    HW2 2442   1.449   2.433   2.843 -2.4851  1.5049  0.5848
  815SOL     OW 2443   0.597   0.136   1.916  0.3822  0.5360 -0.2320
  815SOL    HW1 2444   0.536   0.153   2.000 -3.5373  1.3492 -0.4955
  815SOL    HW2 2445   0.555   0.056   1.861  1.7061 -1.0225 -0.6777
  816SOL     OW 2446   2.082   0.601   3.016 -0.6031  0.9411  0.2675
  816SOL    HW1 2447   2.175   0.627   3.052 -1.7836 -1.0449 -2.4714
  816SOL    HW2 2448   2.026   0.685   3.010 -0.3528 -0.5816  0.1690
  817SOL     OW 2449   2.295   0.527   2.389 -0.7272  0.4089  0.4260
  817SOL    HW1 2450   2.388   0.566   2.373  0.4135 -0.7343  0.2806
  817SOL    HW2 2451   2.269   0.482   2.306  1.5989  0.2109  0.0022
  818SOL     OW 2452   2.006   0.407   0.072 -0.2695 -0.1319 -0.0151
  818SOL    HW1 2453   2.059   0.322   0.064  0.7956  2.2401  1.2081
  818SOL    HW2 2454   2.025   0.473   3.117  1.3243  0.6501  0.3340
  819SOL     OW 2455   2.342   1.955   3.073  0.1563 -0.0130  0.1131
  819SOL    HW1 2456   2.322   2.009   2.986  0.9930  0.9773  2.7039
  819SOL    HW2 2457   2.254   1.932   0.001  2.2413 -0.3638  2.1153
  820SOL     OW 2458   0.035   2.000   0.129  0.3035  0.6068  0.0377
  820SOL    HW1 2459   3.081   2.067   0.110 -0.1335 -0.5902  0.5647
  820SOL    HW2 2460   0.114   2.054   0.162  0.5143 -1.2332 -2.9495
  821SOL     OW 2461   0.278   2.685   0.722 -0.1344  0.0202  0.1178
  821SOL    HW1 2462   0.269   2.638   0.818  0.8245  0.5842  2.4558
  821SOL    HW2 2463   0.329   2.619   0.661 -2.3036 -1.5571  0.1742
  822SOL     OW 2464   2.809   2.679   2.975  0.4959 -0.8651 -0.3917
  822SOL    HW1 2465   2.787   2.674   2.879 -1.9472  1.1531  1.5699
  822SOL    HW2 2466   2.873   2.602   2.996  0.1268  2.7547 -0.9458
  823SOL     OW 2467   1.425   0.421   2.509  0.4588 -0.4521 -0.4324
  823SOL    HW1 2468   1.525   0.398   2.500 -0.1465 -1.4095 -1.5908
  823SOL    HW2 2469   1.417   0.517   2.537 -1.9720  3.2529  2.4556
  824SOL     OW 2470   2.801   1.875   1.495 -0.2791 -0.0396 -0.3315
  824SOL    HW1 2471   2.761   1.876   1.588 -1.1359 -2.3062  1.4470
  824SOL    HW2 2472   2.843   1.965   1.475 -3.1141 -1.3535  1.5331
  825SOL     OW 2473   2.544   2.116   2.646 -0.3718 -0.4888  0.3816
  825SOL    HW1 2474   2.553   2.196   2.711  2.1308  0.2237  1.6935
  825SOL    HW2 2475   2.583   2.136   2.554  1.2636  1.4791  0.0787
  826SOL     OW 2476   2.429   1.753   2.180  0.1456 -0.0081  0.5542
  826SOL    HW1 2477   2.428   1.670   2.230  1.4496  0.5657  1.5243
  826SOL    HW2 2478   2.408   1.839   2.233 -1.0945 -1.3156 -1.2133
  827SOL     OW 2479   2.362   2.185   1.142 -0.1418 -0.0085  0.2408
  827SOL    HW1 2480   2.443   2.240   1.172  0.5840  1.1863  0.4800
  827SOL    HW2 2481   2.357   2.101   1.200 -0.6303 -0.6730  0.2155
  828SOL     OW 2482   3.057   3.087   1.371  0.0543 -0.0963  0.1984
  828SOL    HW1 2483   2.975   3.030   1.344 -1.6573  0.6680  1.2031
  828SOL    HW2 2484   3.036   0.027   1.446  2.7667 -1.6427  0.3845
  829SOL     OW 2485   1.621   2.406   2.597 -0.0460 -0.3342 -0.6210
  829SOL    HW1 2486   1.634   2.306   2.587 -0.7861  2.5643  1.1598
  829SOL    HW2 2487   1.710   2.442   2.630 -2.6527  0.5855 -2.4021
  830SOL     OW 2488   1.239   0.551   0.837 -0.4631  0.0426  0.1439
  830SOL    HW1 2489   1.255   0.651   0.846  0.8743  0.1285  1.9461
  830SOL    HW2 2490   1.311   0.492   0.872 -1.9789 -0.5493  0.3230
  831SOL     OW 2491   2.724   1.482   2.932 -0.3941  0.3720 -0.2219
  831SOL    HW1 2492   2.722   1.452   3.029 -1.5563 -0.1599  0.0224
  831SOL    HW2 2493   2.813   1.459   2.892 -0.6757  0.3523  1.1645
  832SOL     OW 2494   1.424   2.079   1.899 -0.2247  0.5294  0.3020
  832SOL    HW1 2495   1.388   2.072   1.992  0.2003 -0.8198 -0.7443
  832SOL    HW2 2496   1.522   2.098   1.903  0.3203 -1.5675  0.3627
  833SOL     OW 2497   0.039   2.977   2.005 -0.0383 -0.2274  0.2167
  833SOL    HW1 2498   0.003   2.889   2.047  2.6358  0.8948  1.2689
  833SOL    HW2 2499   0.059   3.052   2.071 -0.6767 -0.1493  2.0865
  834SOL     OW 2500   0.987   1.175   1.727  0.6611  0.3467 -0.3383
  834SOL    HW1 2501   0.967   1.160   1.628  1.1186 -2.0048  0.2785
  834SOL    HW2 2502   1.039   1.096   1.766 -1.7831 -0.8157  0.5116
  835SOL     OW 2503   2.841   0.984   2.944  0.3389 -0.3703  0.2790
  835SOL    HW1 2504   2.775   1.062   2.923 -1.9430  2.3122  1.0200
  835SOL    HW2 2505   2.850   0.911   2.873  0.5893 -1.1243  0.8942
  836SOL     OW 2506   1.025   1.684   0.589 -0.0325 -0.0439  0.6444
  836SOL    HW1 2507   1.102   1.667   0.650  0.8148 -1.7896 -3.2562
  836SOL    HW2 2508   1.061   1.674   0.493 -2.6287  1.6633  0.8406
  837SOL     OW 2509   1.492   1.397   1.263  0.2656  0.1464 -0.2498
  837SOL    HW1 2510   1.506   1.414   1.366  2.1545 -0.9755  1.2220
  837SOL    HW2 2511   1.581   1.412   1.214  0.9754 -0.3215  1.5873
  838SOL     OW 2512   1.230   1.907   2.381 -0.0713 -0.2750  0.2459
  838SOL    HW1 2513   1.221   1.811   2.356 -1.7062 -2.3957 -1.7972
  838SOL    HW2 2514   1.136   1.948   2.390 -1.1937 -1.8444  1.8631
  839SOL     OW 2515   0.727   2.020   2.538  0.5111 -0.2559  0.1955
  839SOL    HW1 2516   0.662   1.959   2.586 -1.4624 -0.5551  1.1854
  839SOL    HW2 2517   0.676   2.091   2.479  0.6011  0.9392 -1.3470
  840SOL     OW 2518   0.596   2.403   0.137 -0.0306 -0.1255  0.1212
  840SOL    HW1 2519   0.653   2.468   0.195  3.4906 -1.0321 -0.1040
  840SOL    HW2 2520   0.658   2.358   0.071 -2.2439  2.3910  0.1898
  841SOL     OW 2521   1.931   2.568   0.280  0.5961 -0.0420 -0.3915
  841SOL    HW1 2522   1.847   2.614   0.320 -3.2328 -0.5251  0.0191
  841SOL    HW2 2523   1.982   2.641   0.231 -0.1576  1.2244 -0.2217
  842SOL     OW 2524   0.809   0.539   2.974 -0.4117 -0.1467 -0.1188
  842SOL    HW1 2525   0.785   0.565   2.877 -0.4350 -1.4740  0.0244
  842SOL    HW2 2526   0.868   0.609   3.016  0.5140 -1.5446 -2.1037
  843SOL     OW 2527   1.242   2.988   0.700 -0.1384 -0.0787  0.0682
  843SOL    HW1 2528   1.221   3.060   0.624 -2.9622  0.6364  0.2607
  843SOL    HW2 2529   1.153   2.946   0.730  0.1080  2.8658  0.0291
  844SOL     OW 2530   2.409   3.028   2.304  0.5619  0.2557  0.1193
  844SOL    HW1 2531   2.509   3.045   2.317  1.0739  1.1431  0.9608
  844SOL    HW2 2532   2.378   3.051   2.214  0.7069  4.2547 -2.2943
  845SOL     OW 2533   2.821   2.487   1.104  0.6294  0.0386  0.1490
  845SOL    HW1 2534   2.904   2.544   1.099 -1.0925 -2.3368  1.4531
  845SOL    HW2 2535   2.771   2.481   1.017  2.4842 -1.9918 -0.1902
  846SOL     OW 2536   0.154   1.903   2.542 -0.4766  0.0446 -0.2742
  846SOL    HW1 2537   0.156   1.803   2.557 -1.6174  2.3574  0.7927
  846SOL    HW2 2538   0.188   1.959   2.624  0.1825  0.9586 -0.4849
  847SOL     OW 2539   1.418   0.793   1.649  0.0946 -0.4281  0.3504
  847SOL    HW1 2540   1.345   0.863   1.630 -0.5200 -0.1217  0.5763
  847SOL    HW2 2541   1.461   0.821   1.736 -2.7512 -2.4968 -2.1516
  848SOL     OW 2542   2.579   0.162   3.114  0.0854 -0.1065  0.2663
  848SOL    HW1 2543   2.530   0.245   0.013 -0.2876 -1.9700 -0.4128
  848SOL    HW2 2544   2.605   0.102   0.066 -0.5832  0.2369  1.2969
  849SOL     OW 2545   0.680   2.886   2.682  0.0830 -0.5384 -1.1694
  849SOL    HW1 2546   0.635   2.873   2.773 -0.1782 -0.1323  1.3926
  849SOL    HW2 2547   0.783   2.899   2.696  0.6437 -0.3347  1.1839
  850SOL     OW 2548   1.132   2.584   1.109  0.3678  0.2135  0.2854
  850SOL    HW1 2549   1.132   2.489   1.074  0.2774  0.0804 -1.5208
  850SOL    HW2 2550   1.227   2.624   1.115  2.6320  2.3940 -0.4285
  851SOL     OW 2551   2.951   0.351   2.175  0.6335 -0.4268 -0.0689
  851SOL    HW1 2552   3.038   0.361   2.226 -1.5179  1.2523 -0.8202
  851SOL    HW2 2553   2.971   0.353   2.076  0.5820  1.7614  1.0975
  852SOL     OW 2554   2.309   1.214   2.281 -0.3331  0.3539 -0.3673
  852SOL    HW1 2555   2.241   1.288   2.299  1.0561  1.5777 -0.5271
  852SOL    HW2 2556   2.347   1.170   2.363 -1.3680  2.3262 -0.3897
  853SOL     OW 2557   2.984   3.041   0.589 -0.4120 -0.2085  0.2150
  853SOL    HW1 2558   2.938   3.081   0.507 -1.4212 -0.1503 -1.3742
  853SOL    HW2 2559   2.931   3.047   0.672 -0.2255  0.6614  0.5368
  854SOL     OW 2560   2.240   1.042   1.648 -0.1501  0.2407  0.4643
  854SOL    HW1 2561   2.198   1.021   1.737 -0.2662 -2.1470 -4.2445
  854SOL    HW2 2562   2.168   1.045   1.576  0.6797 -2.5051 -3.0350
  855SOL     OW 2563   1.432   2.196   0.496  0.2492  0.6011 -0.1340
  855SOL    HW1 2564   1.471   2.266   0.557 -0.9942  2.0482  1.5216
  855SOL    HW2 2565   1.498   2.142   0.442 -1.0046  2.8447 -2.8577
  856SOL     OW 2566   3.028   0.291   2.893  0.1080 -0.0381 -0.7157
  856SOL    HW1 2567   3.031   0.238   2.803  0.3945 -2.6576 -2.7367
  856SOL    HW2 2568   3.073   0.228   2.963  0.6670 -3.3102 -0.1740
  857SOL     OW 2569   1.239   0.096   1.749  0.5482  0.0054  0.1468
  857SOL    HW1 2570   1.323   0.157   1.740 -1.0689 -1.0909  1.2233
  857SOL    HW2 2571   1.227   0.059   1.839 -0.0209  2.3142 -1.1171
  858SOL     OW 2572   2.329   2.283   1.618 -0.7874  0.6613  0.1697
  858SOL    HW1 2573   2.348   2.185   1.599 -1.2932  0.6989 -0.5708
  858SOL    HW2 2574   2.274   2.313   1.541 -0.5040  0.4276  0.5629
  859SOL     OW 2575   1.198   2.316   1.034 -0.7175 -0.3054  0.0272
  859SOL    HW1 2576   1.280   2.323   1.099  1.1606 -0.1266 -0.5905
  859SOL    HW2 2577   1.140   2.233   1.050  2.9192  0.1860 -2.5115
  860SOL     OW 2578   2.463   2.492   3.097  0.1976  0.3856 -0.1144
  860SOL    HW1 2579   2.561   2.511   3.119  1.1125 -2.2786 -1.3403
  860SOL    HW2 2580   2.433   2.407   0.017  0.3124  1.1315  0.7858
  861SOL     OW 2581   2.226   3.038   0.856 -0.2451 -0.1001 -0.2324
  861SOL    HW1 2582   2.220   3.117   0.921 -0.0475 -0.4711 -1.0782
  861SOL    HW2 2583   2.312   2.990   0.873 -2.5097  1.8552  0.0393
  862SOL     OW 2584   2.021   2.766   2.320 -0.3374  0.3167  0.0178
  862SOL    HW1 2585   2.094   2.795   2.386  0.6171 -0.5842  1.9305
  862SOL    HW2 2586   2.006   2.843   2.257  1.4799  0.6961 -1.0779
  863SOL     OW 2587   0.189   0.749   0.646  0.3184  0.3802  0.0613
  863SOL    HW1 2588   0.279   0.738   0.692 -0.1967 -1.6615  0.6685
  863SOL    HW2 2589   0.196   0.747   0.539 -2.1560 -0.2680 -1.2229
  864SOL     OW 2590   2.984   2.581   2.269  0.3128 -0.2249 -0.4437
  864SOL    HW1 2591   3.059   2.516   2.292  0.8247 -1.2128  0.0198
  864SOL    HW2 2592   2.996   2.657   2.336  0.7049 -1.3963 -2.4955
  865SOL     OW 2593   0.418   1.531   2.743 -0.0049 -0.2203 -0.1306
  865SOL    HW1 2594   0.377   1.569   2.829  0.1953 -0.0457 -2.1784
  865SOL    HW2 2595   0.489   1.461   2.763 -2.5892 -0.5919 -0.6722
  866SOL     OW 2596   2.834   0.798   2.740  0.2631  0.4376 -0.3034
  866SOL    HW1 2597   2.884   0.852   2.668 -0.4380  2.5426 -0.0916
  866SOL    HW2 2598   2.890   0.715   2.761  1.5275 -0.9166 -1.1086
  867SOL     OW 2599   0.188   3.042   2.864  0.1476  0.5243  0.2337
  867SOL    HW1 2600   0.220   2.955   2.911 -0.2607 -2.3998  0.5012
  867SOL    HW2 2601   0.095   3.055   2.894  0.2364  0.4502  2.3868
  868SOL     OW 2602   1.587   2.857   1.082 -0.0937  0.1960  0.1531
  868SOL    HW1 2603   1.580   2.909   0.997  1.8717  0.5822  2.1901
  868SOL    HW2 2604   1.682   2.873   1.123  3.3461  0.1987 -0.7387
  869SOL     OW 2605   1.358   1.565   0.970 -0.4488 -0.1588  0.2144
  869SOL    HW1 2606   1.454   1.539   0.960  0.8174  0.0179  1.8577
  869SOL    HW2 2607   1.334   1.607   1.061  0.0809  2.0101 -2.5940
  870SOL     OW 2608   2.029   2.152   1.291  0.0284 -0.5149 -0.1938
  870SOL    HW1 2609   2.082   2.113   1.219 -0.3590 -1.3775  2.7544
  870SOL    HW2 2610   2.033   2.094   1.375  2.1527  0.4258 -2.2241
  871SOL     OW 2611   0.683   1.636   1.769 -0.0065  0.0609  0.6455
  871SOL    HW1 2612   0.643   1.696   1.695 -0.6512  0.4066  2.5371
  871SOL    HW2 2613   0.775   1.599   1.746 -3.0159  1.0331  0.2024
  872SOL     OW 2614   1.227   1.325   1.367 -0.6259  0.1984  0.0324
  872SOL    HW1 2615   1.317   1.357   1.323  1.2041 -0.4770  1.9934
  872SOL    HW2 2616   1.238   1.343   1.471  0.1464  0.3063  1.3621
  873SOL     OW 2617   1.175   1.072   2.585 -0.3648 -0.0309 -0.1717
  873SOL    HW1 2618   1.159   1.160   2.532  0.3264  3.6765 -0.6128
  873SOL    HW2 2619   1.251   1.087   2.654  1.4902 -0.7072  3.3976
  874SOL     OW 2620   0.074   1.472   1.513 -0.6353  0.5267 -0.3851
  874SOL    HW1 2621   0.080   1.504   1.416 -1.9060  1.0804 -0.6173
  874SOL    HW2 2622   0.147   1.403   1.541  1.4287 -1.5894  2.2993
  875SOL     OW 2623   2.829   3.083   0.802 -0.1633 -0.6553  0.2537
  875SOL    HW1 2624   2.822   3.091   0.902  2.0504 -1.1636  0.0657
  875SOL    HW2 2625   2.750   3.122   0.751  2.4031  0.2085 -0.1552
  876SOL     OW 2626   1.169   0.365   2.623 -0.0218  0.1242 -0.3600
  876SOL    HW1 2627   1.265   0.333   2.613  0.7126 -0.2663 -3.0806
  876SOL    HW2 2628   1.133   0.389   2.530 -3.9389 -1.6353 -5.2002
  877SOL     OW 2629   0.128   0.354   1.118  0.1950  0.2927  0.1832
  877SOL    HW1 2630   0.069   0.385   1.197  2.8048 -1.9235  1.0901
  877SOL    HW2 2631   0.093   0.402   1.033  0.8953 -0.2639 -0.3895
  878SOL     OW 2632   1.747   2.801   0.066  0.3683 -0.0834 -0.1153
  878SOL    HW1 2633   1.770   2.899   0.091 -1.0139  1.8351 -0.5825
  878SOL    HW2 2634   1.715   2.743   0.146  0.3023 -0.5999  0.7268
  879SOL     OW 2635   2.082   1.731   1.769 -0.1453 -0.2161  0.2288
  879SOL    HW1 2636   2.107   1.763   1.677 -0.1596  0.7708 -2.4169
  879SOL    HW2 2637   2.162   1.706   1.825 -1.2823  0.5568  1.3789
  880SOL     OW 2638   0.838   0.800   1.517 -0.5840  0.2446  1.0585
  880SOL    HW1 2639   0.843   0.760   1.614  0.2533  1.0247 -1.8106
  880SOL    HW2 2640   0.865   0.898   1.517  0.5384  1.4728  2.5023
  881SOL     OW 2641   0.892   1.733   0.044 -0.3528 -0.2463  0.2202
  881SOL    HW1 2642   0.856   1.687   3.088  0.4555 -2.0060  0.1513
  881SOL    HW2 2643   0.966   1.798   0.020 -1.3030 -2.1971 -0.0933
  882SOL     OW 2644   1.834   0.784   0.985 -0.1370  0.0370  0.6179
  882SOL    HW1 2645   1.755   0.736   1.023  3.2937  0.9874 -1.9711
  882SOL    HW2 2646   1.913   0.727   0.990 -0.3563 -0.5866 -0.6863
  883SOL     OW 2647   1.828   0.444   2.050 -0.8215 -0.1432 -0.0721
  883SOL    HW1 2648   1.899   0.500   2.100 -0.9211 -1.8894 -0.7106
  883SOL    HW2 2649   1.882   0.361   2.013  1.1708 -0.3203 -0.1105
  884SOL     OW 2650   2.390   0.365   0.084 -0.2619  0.4457  0.0256
  884SOL    HW1 2651   2.410   0.436   0.016 -0.1112  1.4022 -3.3368
  884SOL    HW2 2652   2.438   0.382   0.173  0.6635 -0.5488  0.6944
  885SOL     OW 2653   0.626   1.865   0.531  0.0035 -0.1583  0.2977
  885SOL    HW1 2654   0.636   1.898   0.436 -0.1601  0.5311 -0.6626
  885SOL    HW2 2655   0.662   1.937   0.597  3.6070  0.7122  0.5089
  886SOL     OW 2656   1.743   1.418   0.019 -0.0144  0.0057  0.3377
  886SOL    HW1 2657   1.667   1.360   0.053  2.7208  0.8336 -1.4104
  886SOL    HW2 2658   1.760   1.497   0.083  0.7158  0.6566  1.0212
  887SOL     OW 2659   1.352   0.509   1.612  0.2982 -0.0605  0.3919
  887SOL    HW1 2660   1.312   0.491   1.520 -1.2258  1.4036  0.5135
  887SOL    HW2 2661   1.375   0.608   1.614 -2.0127  0.9999  2.0674
  888SOL     OW 2662   3.005   1.165   1.520 -0.1617  0.1777  0.2026
  888SOL    HW1 2663   3.050   1.210   1.440  0.4204  0.0516  0.1293
  888SOL    HW2 2664   2.902   1.162   1.503  0.8755 -0.3023  1.4032
  889SOL     OW 2665   3.076   2.600   1.038 -0.3235  0.7669  0.0847
  889SOL    HW1 2666   3.109   2.665   0.969 -0.4149 -0.2068  1.5740
  889SOL    HW2 2667   3.105   2.502   1.028 -0.1123  1.7238 -0.4312
  890SOL     OW 2668   0.054   2.403   2.300 -0.1483  0.2953  0.0544
  890SOL    HW1 2669   0.076   2.382   2.398 -0.5403  0.2438 -0.1568
  890SOL    HW2 2670   0.127   2.386   2.239  0.9839 -1.5978  0.9388
  891SOL     OW 2671   0.602   1.700   0.206 -0.0570  0.1389 -0.3593
  891SOL    HW1 2672   0.623   1.798   0.191 -2.5611 -1.6665 -1.5073
  891SOL    HW2 2673   0.562   1.681   0.295 -0.8449 -1.7503 -0.4121
  892SOL     OW 2674   3.046   2.311   1.492 -0.2057 -0.5257 -0.2625
  892SOL    HW1 2675   3.048   2.236   1.562  0.6150 -0.1073 -3.1635
  892SOL    HW2 2676   3.034   2.400   1.536  1.5946 -1.7786 -1.1300
  893SOL     OW 2677   0.231   2.981   1.743 -0.0897 -0.1403  0.0840
  893SOL    HW1 2678   0.159   2.964   1.812 -1.6039  1.0305 -0.5417
  893SOL    HW2 2679   0.212   2.931   1.654 -0.6501  2.6058  0.4021
  894SOL     OW 2680   2.597   1.776   0.925 -0.2183 -0.2345  0.0997
  894SOL    HW1 2681   2.660   1.851   0.959  1.1665  1.7143 -0.3620
  894SOL    HW2 2682   2.555   1.816   0.841 -0.8062 -0.6861 -0.3506
  895SOL     OW 2683   2.302   2.767   1.400  0.5309  0.8079  0.5326
  895SOL    HW1 2684   2.233   2.709   1.444  0.3619  0.5388 -2.0794
  895SOL    HW2 2685   2.378   2.803   1.458  1.1025  1.7304  1.1365
  896SOL     OW 2686   0.727   0.015   1.506  0.0349  0.4107  0.1374
  896SOL    HW1 2687   0.761   0.036   1.602  0.8131  0.9609  2.5949
  896SOL    HW2 2688   0.682   3.047   1.500  0.9616  2.0563  0.0124
  897SOL     OW 2689   0.703   1.302   1.188  0.0208  0.3984 -0.0829
  897SOL    HW1 2690   0.803   1.327   1.193  1.1466  0.5291 -0.3285
  897SOL    HW2 2691   0.651   1.352   1.119  0.3107  0.2316  2.3475
  898SOL     OW 2692   1.449   2.699   1.573  0.2980  0.4101 -0.3357
  898SOL    HW1 2693   1.530   2.653   1.541 -0.5825  2.8505 -0.0521
  898SOL    HW2 2694   1.376   2.694   1.502 -0.6260 -1.0759 -1.5724
  899SOL     OW 2695   1.158   0.361   2.920  0.3669 -0.4324  0.3882
  899SOL    HW1 2696   1.229   0.292   2.916  1.0490 -0.5268  0.4304
  899SOL    HW2 2697   1.165   0.410   2.829 -3.9903  0.8518  1.3954
  900SOL     OW 2698   1.029   2.738   2.059  0.0948 -0.0328 -0.1893
  900SOL    HW1 2699   1.085   2.666   2.011 -0.8675  0.9925  1.9467
  900SOL    HW2 2700   0.986   2.804   1.997  0.4690  0.0310  0.0284
  901SOL     OW 2701   0.952   2.026   0.247 -0.0565  0.2561  0.0331
  901SOL    HW1 2702   0.960   1.986   0.343  1.6744 -0.1764 -0.7005
  901SOL    HW2 2703   1.025   1.985   0.190 -1.0961  0.2456  1.7504
  902SOL     OW 2704   1.599   1.136   1.313  0.2348  0.2071  0.3801
  902SOL    HW1 2705   1.572   1.046   1.277 -0.3957  1.7065  0.0084
  902SOL    HW2 2706   1.543   1.213   1.267 -2.8998  1.1682 -0.5793
  903SOL     OW 2707   2.664   1.175   2.887 -0.2650  0.1350  0.4606
  903SOL    HW1 2708   2.683   1.246   2.820 -2.9520 -1.3924 -1.2614
  903SOL    HW2 2709   2.585   1.202   2.944  1.1112  4.1303 -2.0799
  904SOL     OW 2710   0.939   1.345   0.023 -0.2551  0.5722 -0.0571
  904SOL    HW1 2711   0.899   1.398   0.103 -0.3485  0.0193  2.3544
  904SOL    HW2 2712   0.986   1.261   0.055  0.8343 -0.9907  0.5573
  905SOL     OW 2713   1.626   3.023   1.360  0.4100  0.4341 -0.2025
  905SOL    HW1 2714   1.641   3.114   1.320 -3.9010 -2.9929  2.0359
  905SOL    HW2 2715   1.586   2.953   1.296 -0.7345 -0.9563 -0.4555
  906SOL     OW 2716   2.449   2.819   0.835  0.4473 -0.1289 -0.1499
  906SOL    HW1 2717   2.518   2.805   0.760  0.2010 -1.0465  0.9916
  906SOL    HW2 2718   2.480   2.889   0.905  0.0220  0.3861  2.1948
  907SOL     OW 2719   1.585   0.721   0.698 -0.4888  0.0797 -0.8821
  907SOL    HW1 2720   1.543   0.629   0.689 -1.1195  1.7404 -0.1435
  907SOL    HW2 2721   1.517   0.795   0.699 -0.8763 -2.2022  2.4491
  908SOL     OW 2722   1.658   0.157   1.272  0.0560  0.2081 -0.4194
  908SOL    HW1 2723   1.709   0.193   1.193 -3.1620  0.5518  0.5810
  908SOL    HW2 2724   1.677   0.215   1.355 -0.3411 -0.5035  4.7389
  909SOL     OW 2725   1.908   0.558   1.254  0.3867 -0.0947  0.2207
  909SOL    HW1 2726   1.954   0.575   1.162 -0.0383  1.3353  1.7045
  909SOL    HW2 2727   1.970   0.572   1.333 -0.8007  0.2646 -1.2906
  910SOL     OW 2728   2.405   0.550   1.892 -0.0957 -0.2374 -0.0492
  910SOL    HW1 2729   2.397   0.625   1.954  0.0858 -0.7435 -2.4003
  910SOL    HW2 2730   2.315   0.514   1.874 -1.9164  0.9212 -0.0036
  911SOL     OW 2731   2.618   0.508   2.712  0.0661 -0.1538  0.1872
  911SOL    HW1 2732   2.620   0.600   2.662  1.8678  1.7548  0.0899
  911SOL    HW2 2733   2.576   0.507   2.800  1.1868  2.3609 -0.4845
  912SOL     OW 2734   0.736   1.099   1.827 -0.0909 -0.2010  0.1371
  912SOL    HW1 2735   0.832   1.127   1.824 -1.3779 -0.8977  0.7144
  912SOL    HW2 2736   0.679   1.160   1.769  0.5881 -0.4572  2.1471
  913SOL     OW 2737   2.736   2.299   1.592 -0.4601  0.3069 -0.0519
  913SOL    HW1 2738   2.703   2.223   1.652  0.3320 -2.4459 -0.2632
  913SOL    HW2 2739   2.826   2.336   1.622  3.4869  1.1615  3.3703
  914SOL     OW 2740   1.784   0.877   1.672 -0.3615  0.4074  0.2974
  914SOL    HW1 2741   1.855   0.925   1.618  0.3326 -0.8950 -0.3469
  914SOL    HW2 2742   1.714   0.943   1.710  1.1158  1.4741  3.7804
  915SOL     OW 2743   2.598   1.112   0.996  0.4048  0.4383 -0.0600
  915SOL    HW1 2744   2.580   1.049   1.080 -1.1711 -2.0931  1.4015
  915SOL    HW2 2745   2.630   1.204   1.023  0.9667 -1.1342 -0.6548
  916SOL     OW 2746   1.896   2.374   1.149  0.1248 -0.0275 -0.1559
  916SOL    HW1 2747   1.874   2.463   1.193  0.0224 -0.3751  1.0058
  916SOL    HW2 2748   1.950   2.318   1.215  0.7446 -0.7008  0.9043
  917SOL     OW 2749   2.087   2.435   2.452 -0.4232  0.5228 -0.0724
  917SOL    HW1 2750   2.022   2.477   2.519  2.5199 -0.2801  0.8410
  917SOL    HW2 2751   2.120   2.505   2.379 -1.1176  1.0625  1.5305
  918SOL     OW 2752   1.834   2.754   2.524  0.5755  0.0249  0.1015
  918SOL    HW1 2753   1.767   2.818   2.565 -0.8466  1.6783  0.5898
  918SOL    HW2 2754   1.869   2.781   2.432 -1.0316 -1.1522 -1.7793
  919SOL     OW 2755   0.982   0.101   1.423 -0.0004  0.2711  0.0559
  919SOL    HW1 2756   0.884   0.086   1.440  2.8841 -0.6455  0.5249
  919SOL    HW2 2757   1.043   0.025   1.459  0.3706  1.0743  2.5638
  920SOL     OW 2758   3.062   0.476   2.432  1.1993 -0.3341 -0.3439
  920SOL    HW1 2759   2.982   0.448   2.488  1.6313  2.2053  1.2681
  920SOL    HW2 2760   3.118   0.556   2.469  0.5802  1.3807  1.3624
  921SOL     OW 2761   0.004   0.833   1.806 -0.0113  0.3335  0.1145
  921SOL    HW1 2762   0.095   0.874   1.796  0.6504  0.7656 -2.1464
  921SOL    HW2 2763   3.052   0.888   1.767  0.3635 -1.5868 -1.9269
  922SOL     OW 2764   2.309   2.357   0.442  0.3367  0.0631  0.2956
  922SOL    HW1 2765   2.362   2.422   0.500  2.2499 -0.4844 -1.2391
  922SOL    HW2 2766   2.312   2.393   0.346  1.5098  0.9521 -0.4310
  923SOL     OW 2767   0.730   2.055   0.694 -0.5934  0.4864 -0.1423
  923SOL    HW1 2768   0.725   2.154   0.677 -1.2452  0.1325  0.1304
  923SOL    HW2 2769   0.679   2.031   0.779  0.1999 -0.1368  3.1676
  924SOL     OW 2770   1.066   0.897   2.789 -0.1279 -0.1507  0.7275
  924SOL    HW1 2771   1.105   0.954   2.706 -1.1453  0.4818 -2.0407
  924SOL    HW2 2772   0.971   0.923   2.809 -0.0062  0.0442  1.6362
  925SOL     OW 2773   2.582   1.210   0.522 -0.0689  0.3190  0.1533
  925SOL    HW1 2774   2.616   1.132   0.576 -0.3024  2.5620 -0.3449
  925SOL    HW2 2775   2.514   1.254   0.579 -0.2385  0.7297  0.7616
  926SOL     OW 2776   0.535   0.331   1.118 -0.5247 -0.2282  0.3431
  926SOL    HW1 2777   0.550   0.235   1.144 -2.5222  0.1511  2.7661
  926SOL    HW2 2778   0.472   0.368   1.189 -0.3214  1.0704  1.6766
  927SOL     OW 2779   0.506   1.651   2.507  0.5159 -0.1568  0.8326
  927SOL    HW1 2780   0.453   1.615   2.583 -1.8697  1.5668 -0.5739
  927SOL    HW2 2781   0.458   1.623   2.419  0.9408 -0.5241 -2.7679
  928SOL     OW 2782   0.265   0.446   2.121 -0.0226  0.2381  0.1563
  928SOL    HW1 2783   0.203   0.388   2.182 -1.5686 -0.4680  0.3994
  928SOL    HW2 2784   0.244   0.412   2.030  0.3276 -0.3980  0.8922
  929SOL     OW 2785   3.069   2.714   1.306 -0.3598  0.5048  0.1516
  929SOL    HW1 2786   3.076   2.634   1.243  1.7148 -0.5138  2.5561
  929SOL    HW2 2787   0.022   2.777   1.307  0.4551  0.6990 -2.4620
  930SOL     OW 2788   1.941   0.195   2.014 -0.3838 -0.5365 -0.0438
  930SOL    HW1 2789   2.033   0.205   1.974 -0.5700  0.9552 -1.3826
  930SOL    HW2 2790   1.942   0.197   2.118  2.5529 -1.7724 -0.3808
  931SOL     OW 2791   2.193   1.021   3.036  0.3082 -0.4662  0.0812
  931SOL    HW1 2792   2.195   0.993   0.009  0.7080 -0.0634 -2.1290
  931SOL    HW2 2793   2.102   1.063   3.010 -1.0991 -0.9617  1.2076
  932SOL     OW 2794   1.908   1.382   0.696  0.6521  0.5248  0.0367
  932SOL    HW1 2795   1.952   1.294   0.664  1.7247 -0.5147 -0.7192
  932SOL    HW2 2796   1.810   1.390   0.677 -0.1109  0.5517  1.6839
  933SOL     OW 2797   1.953   1.710   1.176  0.0774 -0.6520 -0.7676
  933SOL    HW1 2798   1.963   1.656   1.091  1.6589  0.4093 -1.9705
  933SOL    HW2 2799   1.933   1.646   1.249  0.1260 -0.4043 -1.8641
  934SOL     OW 2800   2.107   1.047   2.636 -0.5439  0.4974  0.5937
  934SOL    HW1 2801   2.120   0.964   2.689 -0.1334  2.9220 -0.3647
  934SOL    HW2 2802   2.035   1.034   2.564  0.2094  0.9412 -0.3985
  935SOL     OW 2803   0.132   1.197   0.530  0.0602 -0.2238  0.0437
  935SOL    HW1 2804   0.145   1.227   0.433  1.1573  2.2850 -1.1742
  935SOL    HW2 2805   0.041   1.157   0.539  2.0028  2.3680 -2.7083
  936SOL     OW 2806   0.262   2.914   0.569 -0.2398  0.2048 -0.3827
  936SOL    HW1 2807   0.287   3.008   0.603  0.4166  1.0747  0.9647
  936SOL    HW2 2808   0.282   2.836   0.634  0.0060 -0.1127 -1.4097
  937SOL     OW 2809   2.897   2.489   1.802  0.6464 -0.3433  0.3168
  937SOL    HW1 2810   2.856   2.536   1.885 -1.6488  0.7179 -0.2019
  937SOL    HW2 2811   2.984   2.440   1.819  2.1006 -1.7265 -0.6256
  938SOL     OW 2812   2.795   2.314   0.184  0.4197  0.0946 -0.0370
  938SOL    HW1 2813   2.749   2.372   0.112  0.1135  2.3485 -1.9789
  938SOL    HW2 2814   2.821   2.379   0.258 -2.3696 -0.9507 -0.0372
  939SOL     OW 2815   1.137   1.054   1.345 -0.5972 -0.1438  0.2462
  939SOL    HW1 2816   1.167   1.151   1.352 -1.0400  0.0555  0.8318
  939SOL    HW2 2817   1.161   1.006   1.261  1.3319  0.8001 -0.6441
  940SOL     OW 2818   2.915   0.496   2.736  0.2362 -0.0472  0.4200
  940SOL    HW1 2819   2.831   0.483   2.679  1.5520  0.7232  2.3515
  940SOL    HW2 2820   2.916   0.427   2.811 -1.2134  0.2612  0.8777
  941SOL     OW 2821   2.807   2.647   2.694  0.5320  0.6156  0.1109
  941SOL    HW1 2822   2.795   2.692   2.600  0.1624  0.6620 -0.6582
  941SOL    HW2 2823   2.776   2.551   2.698  0.0384  1.6577 -1.1400
  942SOL     OW 2824   1.382   0.112   1.338  0.2841  0.6603  0.4546
  942SOL    HW1 2825   1.393   0.071   1.429 -2.7023  1.3004 -1.0629
  942SOL    HW2 2826   1.464   0.166   1.311  0.9684  0.0284 -0.8436
  943SOL     OW 2827   1.148   1.336   2.200  0.5116 -0.0914  0.1803
  943SOL    HW1 2828   1.191   1.282   2.125  0.9888  0.2087 -1.8866
  943SOL    HW2 2829   1.059   1.377   2.175 -0.9590 -1.1870  2.0220
  944SOL     OW 2830   2.047   1.038   1.447  0.6060 -0.0069  0.0532
  944SOL    HW1 2831   1.964   0.995   1.410  1.0652  0.7143  0.7295
  944SOL    HW2 2832   2.120   1.035   1.376 -2.2662  0.1024  1.0001
  945SOL     OW 2833   3.038   3.006   2.887  0.3826 -0.1992  0.0693
  945SOL    HW1 2834   3.036   2.912   2.859  0.6108  2.4182 -0.5699
  945SOL    HW2 2835   3.010   3.015   2.985 -0.9650 -3.0991 -0.3663
  946SOL     OW 2836   3.043   1.355   1.739  0.1046 -0.5961 -0.3369
  946SOL    HW1 2837   3.057   1.339   1.641  0.0587  2.4933  1.9321
  946SOL    HW2 2838   0.001   1.337   1.787  0.6920 -1.9570 -1.7977
  947SOL     OW 2839   0.968   3.053   0.184  0.5312 -0.0031  0.1442
  947SOL    HW1 2840   0.950   3.084   0.088 -1.2636  0.4756 -0.1090
  947SOL    HW2 2841   0.884   3.020   0.230  0.5114  0.3046  1.8279
  948SOL     OW 2842   2.266   1.622   1.321 -0.2991  0.3442 -0.3177
  948SOL    HW1 2843   2.343   1.600   1.384 -0.0446  1.9248 -1.9246
  948SOL    HW2 2844   2.309   1.655   1.238  0.0070  1.7100  2.7255
  949SOL     OW 2845   0.227   0.968   2.823  0.5799 -0.0850  0.7199
  949SOL    HW1 2846   0.137   0.986   2.868  0.1232 -1.4791  1.9841
  949SOL    HW2 2847   0.275   1.057   2.801  2.0525 -0.2917 -1.4850
  950SOL     OW 2848   0.533   2.446   1.357  0.4287 -0.0036  0.8309
  950SOL    HW1 2849   0.467   2.513   1.317  0.2691 -0.9372 -0.7843
  950SOL    HW2 2850   0.603   2.414   1.289  1.5269  0.2131 -1.3273
  951SOL     OW 2851   0.906   1.667   2.692  0.4225  0.2057  0.2910
  951SOL    HW1 2852   0.868   1.614   2.772  2.4608 -1.3527  0.7162
  951SOL    HW2 2853   0.832   1.673   2.622 -1.4233  2.3614  1.7044
  952SOL     OW 2854   0.499   1.041   0.577  0.4270  0.0480 -0.3557
  952SOL    HW1 2855   0.551   1.004   0.654  2.4537  1.0081 -1.4751
  952SOL    HW2 2856   0.419   1.087   0.614  1.2672 -2.0639 -3.1693
  953SOL     OW 2857   2.357   2.735   2.754 -0.1000 -0.3728 -0.2763
  953SOL    HW1 2858   2.412   2.711   2.678 -3.4019  2.9333  1.4067
  953SOL    HW2 2859   2.333   2.656   2.811 -0.3566  0.4434 -2.6707
  954SOL     OW 2860   1.860   1.030   0.883  0.3696  0.2928  0.3364
  954SOL    HW1 2861   1.848   0.937   0.932  0.0279 -2.8476  0.6772
  954SOL    HW2 2862   1.886   1.097   0.957 -0.4867  0.3398  0.4831
  955SOL     OW 2863   0.660   1.972   0.196  0.1528 -0.3238  0.2637
  955SOL    HW1 2864   0.760   1.991   0.179 -0.1570  1.2611 -1.5333
  955SOL    HW2 2865   0.616   2.048   0.254 -1.5173 -1.9299 -1.4248
  956SOL     OW 2866   2.621   0.242   1.786 -0.7638 -0.2629 -0.4980
  956SOL    HW1 2867   2.622   0.314   1.857  0.2143 -2.5490 -0.2015
  956SOL    HW2 2868   2.630   0.147   1.829 -1.2670 -1.9845  3.0604
  957SOL     OW 2869   1.925   2.450   1.735 -0.0827 -0.1206  0.1478
  957SOL    HW1 2870   2.012   2.435   1.785 -3.2085  0.4994 -0.2359
  957SOL    HW2 2871   1.891   2.363   1.683 -3.2363 -0.1757 -3.1864
  958SOL     OW 2872   1.607   1.115   1.696 -0.1815 -0.2510 -0.2753
  958SOL    HW1 2873   1.512   1.107   1.674  2.0409 -0.5385 -2.2806
  958SOL    HW2 2874   1.628   1.167   1.785  2.3980 -0.3547  1.1159
  959SOL     OW 2875   1.524   2.207   2.188  0.3340 -0.1000  0.1549
  959SOL    HW1 2876   1.583   2.265   2.243  0.8307 -0.7311 -0.0396
  959SOL    HW2 2877   1.545   2.109   2.208 -1.7485  3.5917 -0.7371
  960SOL     OW 2878   0.691   0.763   2.761  0.4333  0.0096  0.3143
  960SOL    HW1 2879   0.594   0.783   2.738 -0.4355  0.1118 -0.0816
  960SOL    HW2 2880   0.732   0.703   2.687  2.1304  2.3057  1.1843
  961SOL     OW 2881   3.101   1.051   2.887  0.1366  0.2185 -0.0331
  961SOL    HW1 2882   3.006   1.043   2.922  1.9696 -1.5304 -0.4097
  961SOL    HW2 2883   3.107   1.087   2.789 -0.5480 -0.9311 -0.3016
  962SOL     OW 2884   0.982   1.918   2.822 -0.1345 -0.7540 -0.3242
  962SOL    HW1 2885   0.993   1.842   2.758  0.4709  0.3238 -1.3736
  962SOL    HW2 2886   0.883   1.943   2.838  2.9566  0.5990  0.9762
  963SOL     OW 2887   2.944   2.134   0.041  0.1124 -0.0305 -0.0916
  963SOL    HW1 2888   2.879   2.059   0.019  1.0219  2.6061 -0.6422
  963SOL    HW2 2889   2.895   2.205   0.097  1.3473 -1.0168 -1.4922
  964SOL     OW 2890   0.742   2.317   2.198  0.3331 -0.1826 -0.2530
  964SOL    HW1 2891   0.718   2.285   2.293 -1.4273  1.2264 -1.5260
  964SOL    HW2 2892   0.799   2.404   2.199  2.6127 -0.7456  0.8472
  965SOL     OW 2893   1.809   1.943   1.224 -0.4729 -0.9265 -0.1264
  965SOL    HW1 2894   1.872   2.015   1.259  0.9737 -3.2270  0.9470
  965SOL    HW2 2895   1.854   1.852   1.214 -0.9266 -1.0330 -1.1554
  966SOL     OW 2896   3.058   1.783   0.022 -0.0298 -0.3979 -0.5059
  966SOL    HW1 2897   3.103   1.867   0.057 -1.7625  1.3192 -0.7481
  966SOL    HW2 2898   0.008   1.716   3.121  3.1161 -1.0762 -0.3153
  967SOL     OW 2899   1.973   2.983   2.176 -0.2268 -0.0540 -0.1940
  967SOL    HW1 2900   2.041   3.062   2.184 -0.3831 -0.0599  1.2164
  967SOL    HW2 2901   1.946   2.958   2.081 -1.7893 -0.5466  0.5549
  968SOL     OW 2902   0.923   0.708   0.027 -0.4259 -0.4501  0.0689
  968SOL    HW1 2903   0.912   0.813   0.029 -0.8890 -0.6796  1.3196
  968SOL    HW2 2904   1.025   0.688   0.022 -2.7927  1.3261 -0.9678
  969SOL     OW 2905   0.576   1.288   2.284  0.4499 -0.4850 -0.2459
  969SOL    HW1 2906   0.494   1.352   2.295 -1.1910 -1.0321  0.1396
  969SOL    HW2 2907   0.560   1.225   2.207  2.0586  0.5430 -1.0680
  970SOL     OW 2908   2.166   2.730   1.105  0.4150  0.3272  0.1501
  970SOL    HW1 2909   2.121   2.703   1.016 -1.4081  0.1828 -2.8521
  970SOL    HW2 2910   2.255   2.682   1.116  2.1266 -0.2939  0.1075
  971SOL     OW 2911   1.864   2.292   0.656 -0.1969  0.5818  0.1663
  971SOL    HW1 2912   1.887   2.277   0.755  0.3704 -1.9599 -3.5488
  971SOL    HW2 2913   1.941   2.337   0.604  1.1391 -0.1491 -1.2303
  972SOL     OW 2914   0.014   1.215   2.676 -0.0533 -0.1404 -0.3890
  972SOL    HW1 2915   3.082   1.190   2.595 -2.1409 -1.2667 -1.1357
  972SOL    HW2 2916   0.080   1.288   2.645  1.0692  1.5443 -1.6987
  973SOL     OW 2917   0.598   0.124   0.243  0.1814  0.2281 -0.4107
  973SOL    HW1 2918   0.653   0.210   0.260  1.2394 -1.6332  0.2775
  973SOL    HW2 2919   0.564   0.125   0.145  4.3905  0.7514 -1.3017
  974SOL     OW 2920   2.393   0.776   2.049  0.6279 -0.3909 -0.8240
  974SOL    HW1 2921   2.427   0.762   2.146  1.0185 -0.2097  0.2509
  974SOL    HW2 2922   2.434   0.854   2.007 -1.0208 -2.4099 -1.5288
  975SOL     OW 2923   0.091   0.076   0.667 -0.2775  0.5052  0.3687
  975SOL    HW1 2924   0.057   0.091   0.762  2.4257  0.7222  0.8393
  975SOL    HW2 2925   0.010   0.034   0.615  1.3724 -0.9598  0.2826
  976SOL     OW 2926   0.498   1.696   1.299 -0.1537  0.7877 -0.0716
  976SOL    HW1 2927   0.423   1.710   1.366  2.2343  0.0093 -2.9288
  976SOL    HW2 2928   0.574   1.639   1.340 -1.3560 -2.9159 -1.1616
  977SOL     OW 2929   1.186   1.898   0.179 -0.3401 -0.6276  0.5386
  977SOL    HW1 2930   1.192   1.881   0.076 -1.2011 -0.8953 -0.5266
  977SOL    HW2 2931   1.230   1.979   0.217  0.2912 -0.7745 -0.0308
  978SOL     OW 2932   0.022   0.670   0.239  0.0821 -0.1949  0.3905
  978SOL    HW1 2933   0.013   0.578   0.280 -0.8331 -1.3927 -1.1713
  978SOL    HW2 2934   0.077   0.669   0.153  0.9349 -1.5186  0.4772
  979SOL     OW 2935   1.768   1.726   0.825 -0.3499 -0.6619  0.1436
  979SOL    HW1 2936   1.700   1.658   0.850  1.1082 -0.4776 -0.3085
  979SOL    HW2 2937   1.723   1.810   0.785 -0.6840  0.0164 -0.9485
  980SOL     OW 2938   0.492   2.054   1.952 -0.1511  0.3135 -0.1507
  980SOL    HW1 2939   0.575   1.993   1.959  2.9788 -0.2384  0.5942
  980SOL    HW2 2940   0.494   2.108   1.870 -1.3891  0.5322  1.2328
  981SOL     OW 2941   2.351   1.392   2.630 -0.2955  0.6130  0.0778
  981SOL    HW1 2942   2.415   1.452   2.687 -0.0999  0.9660  1.3273
  981SOL    HW2 2943   2.330   1.451   2.551 -0.5198 -0.8527 -2.9667
  982SOL     OW 2944   3.119   2.333   1.872  0.0364  0.2269  0.1658
  982SOL    HW1 2945   3.066   2.260   1.821 -0.4954 -0.4543 -0.6766
  982SOL    HW2 2946   0.057   2.282   1.931 -1.8139  1.8492 -2.2691
  983SOL     OW 2947   1.427   0.275   1.695 -0.7042  0.0952 -0.4349
  983SOL    HW1 2948   1.396   0.369   1.670  2.2933 -0.1988 -1.1363
  983SOL    HW2 2949   1.519   0.284   1.746  3.2234  1.9261  1.5078
  984SOL     OW 2950   2.684   2.890   3.084 -0.1221  0.5280 -0.0334
  984SOL    HW1 2951   2.740   2.824   3.031 -0.9530 -0.8833  3.3511
  984SOL    HW2 2952   2.588   2.903   3.041 -1.5878  0.5606  2.2162
  985SOL     OW 2953   1.557   1.298   1.923  0.5532  0.2352  0.3586
  985SOL    HW1 2954   1.603   1.388   1.942 -1.3803  0.7366  1.6142
  985SOL    HW2 2955   1.596   1.224   1.983  0.8710  1.3151  0.1784
  986SOL     OW 2956   2.008   0.045   2.491  0.0649 -0.0690  0.2848
  986SOL    HW1 2957   2.108   0.069   2.485  1.3119 -1.2047  1.8826
  986SOL    HW2 2958   1.982   0.035   2.591  0.7819 -1.2825  0.6501
  987SOL     OW 2959   2.664   1.885   2.789  0.0659  0.5017 -0.4904
  987SOL    HW1 2960   2.761   1.905   2.814  2.8231  0.5887 -3.4924
  987SOL    HW2 2961   2.639   1.933   2.711 -1.1466 -2.3429  2.4246
  988SOL     OW 2962   0.046   0.669   1.286  0.0043  0.1850 -0.1823
  988SOL    HW1 2963   3.116   0.583   1.302  2.0851  1.8983 -1.1605
  988SOL    HW2 2964   0.053   0.724   1.369  0.8525  0.0637  0.4320
  989SOL     OW 2965   1.830   0.956   1.348 -0.2484  0.4920 -0.5906
  989SOL    HW1 2966   1.782   0.889   1.286 -2.7148 -1.7803 -0.0296
  989SOL    HW2 2967   1.756   1.016   1.390  0.7963 -0.1785  1.2123
  990SOL     OW 2968   2.595   0.581   2.988  0.3631  0.2151  0.0194
  990SOL    HW1 2969   2.640   0.666   2.960 -2.7129 -3.0065  2.0047
  990SOL    HW2 2970   2.664   0.504   2.993  4.7888 -1.5586  1.0524
  991SOL     OW 2971   0.115   1.539   3.117 -0.0082  0.3320 -0.5089
  991SOL    HW1 2972   0.043   1.466   3.094  0.2140 -4.2736  0.5191
  991SOL    HW2 2973   0.147   1.524   0.089  0.7434 -1.9294 -1.1070
  992SOL     OW 2974   2.349   1.403   1.993  0.6068  0.5584  0.2303
  992SOL    HW1 2975   2.316   1.501   1.972  2.1897  1.9603  2.3042
  992SOL    HW2 2976   2.410   1.362   1.926 -1.1097  1.4596 -0.4436
  993SOL     OW 2977   0.450   2.613   0.516  0.1543  0.4071 -0.1542
  993SOL    HW1 2978   0.534   2.591   0.468  1.2143 -0.3321  0.2994
  993SOL    HW2 2979   0.466   2.701   0.564  2.9191  0.3714 -0.3439
  994SOL     OW 2980   3.038   1.729   1.470  0.1670  0.1325  0.4326
  994SOL    HW1 2981   3.084   1.681   1.545  2.2660 -3.6200  0.9888
  994SOL    HW2 2982   2.947   1.782   1.496 -3.1644  2.3081 -0.3402
  995SOL     OW 2983   1.638   2.141   2.584  0.4874 -0.1701  0.5072
  995SOL    HW1 2984   1.728   2.097   2.567 -1.3567 -0.3730 -0.1637
  995SOL    HW2 2985   1.558   2.124   2.518 -0.4477  0.5860  0.7801
  996SOL     OW 2986   2.150   1.860   0.134  0.5899  0.0998  0.3509
  996SOL    HW1 2987   2.074   1.927   0.131 -0.1590 -1.6527  1.2088
  996SOL    HW2 2988   2.192   1.863   0.225 -3.6287  0.6906 -4.6797
  997SOL     OW 2989   1.565   1.366   2.473  0.2048 -0.4379 -0.4453
  997SOL    HW1 2990   1.534   1.323   2.560 -0.5592  2.1580  0.4126
  997SOL    HW2 2991   1.566   1.467   2.482  0.3018 -2.5679 -0.6365
  998SOL     OW 2992   3.113   2.321   0.736 -0.2383 -0.8984 -0.2837
  998SOL    HW1 2993   0.004   2.407   0.678 -1.9450  0.9527 -1.2972
  998SOL    HW2 2994   3.113   2.345   0.835  0.5880  1.3180  2.8408
  999SOL     OW 2995   0.240   2.509   0.394  0.3924 -0.0131 -0.4241
  999SOL    HW1 2996   0.270   2.465   0.306 -1.9161 -1.2543 -1.5461
  999SOL    HW2 2997   0.311   2.568   0.436 -1.8048 -2.2387 -1.4988
 1000SOL     OW 2998   1.195   0.118   0.105  0.1115 -0.0015 -0.0764
 1000SOL    HW1 2999   1.102   0.113   0.147 -0.5874  1.0796  1.1259
 1000SOL    HW2 3000   1.204   0.077   0.012 -0.7011  0.7657 -2.1919
   3.12460   3.12460   3.12460
