1000 SPC/Fw water molecules t= 298.00000 step= 298000
 3000
    1SOL     OW    1   2.461   0.026   0.855 -0.0349  0.5233  0.0889
    1SOL    HW1    2   2.482   3.061   0.777  0.8555  2.2647  2.5692
    1SOL    HW2    3   2.545   0.066   0.891 -0.7783 -2.5439  0.0690
    2SOL     OW    4   0.000   2.382   0.967  0.1019  0.0052  0.8916
    2SOL    HW1    5   0.070   2.312   0.963 -2.0397  1.1632  1.4084
    2SOL    HW2    6   0.025   2.473   0.926  0.1366 -0.2840 -2.0994
    3SOL     OW    7   0.654   2.770   2.806  0.1440  0.4859  0.3236
    3SOL    HW1    8   0.656   2.705   2.886  1.2394 -2.0512  0.0545
    3SOL    HW2    9   0.568   2.758   2.745 -1.5664  1.0597  0.7102
    4SOL     OW   10   2.129   2.357   1.616 -0.5090  0.5426 -0.3311
    4SOL    HW1   11   2.172   2.426   1.553 -0.5419 -0.5280 -0.4111
    4SOL    HW2   12   2.172   2.263   1.606  1.3868 -0.4273  2.7660
    5SOL     OW   13   1.666   0.838   1.305  0.5050  0.2676 -0.1362
    5SOL    HW1   14   1.668   0.745   1.266  3.3083 -0.4287 -0.7436
    5SOL    HW2   15   1.589   0.862   1.366  0.8899 -0.9152  0.2652
    6SOL     OW   16   1.882   2.691   0.027  0.0083 -0.1421 -0.3391
    6SOL    HW1   17   1.921   2.779   0.001 -1.1740  0.5691 -1.8098
    6SOL    HW2   18   1.790   2.701   0.070  0.3382  0.3152 -0.8167
    7SOL     OW   19   2.738   1.244   1.220  0.3829  0.1685 -0.3639
    7SOL    HW1   20   2.792   1.315   1.267 -3.7359 -1.6733 -1.4424
    7SOL    HW2   21   2.643   1.276   1.216  1.9095  0.5393  0.2912
    8SOL     OW   22   1.511   2.346   1.037 -0.7387 -0.2791  0.4299
    8SOL    HW1   23   1.555   2.415   1.100  0.9926  1.3333  1.4036
    8SOL    HW2   24   1.521   2.252   1.073  0.4102 -1.0996  1.7185
    9SOL     OW   25   1.405   2.799   2.339 -0.3677 -0.4528 -0.0560
    9SOL    HW1   26   1.443   2.757   2.422  0.2159 -0.6656 -3.2300
    9SOL    HW2   27   1.350   2.730   2.288  0.3360 -0.1629  1.6042
   10SOL     OW   28   0.728   2.229   1.250  0.2762  0.0019  0.5121
   10SOL    HW1   29   0.764   2.147   1.295 -3.9229  1.4860 -2.6115
   10SOL    HW2   30   0.791   2.249   1.171  1.8022 -0.0290  0.4594
   11SOL     OW   31   1.892   1.591   1.018 -0.2371  0.3817  0.0766
   11SOL    HW1   32   1.967   1.647   1.056  1.0802  2.2006  0.7286
   11SOL    HW2   33   1.844   1.536   1.089 -1.9279 -0.9909  2.0571
   12SOL     OW   34   2.515   2.716   1.721  0.2434  0.6997 -0.2449
   12SOL    HW1   35   2.584   2.761   1.666 -0.1766  1.2153 -1.0566
   12SOL    HW2   36   2.441   2.780   1.748 -0.8438 -0.9763  2.0752
   13SOL     OW   37   2.221   2.844   0.242  0.1967  0.1821  0.2009
   13SOL    HW1   38   2.129   2.863   0.273  0.9377  0.7475 -0.5547
   13SOL    HW2   39   2.260   2.922   0.185 -0.1379 -0.8358 -1.0201
   14SOL     OW   40   2.001   2.270   0.683  0.3283 -0.4298 -0.1166
   14SOL    HW1   41   1.986   2.311   0.590  0.9949  0.9571 -2.7009
   14SOL    HW2   42   1.963   2.175   0.677 -0.2840 -2.0829  0.0248
   15SOL     OW   43   2.931   2.049   2.001 -0.4894  0.0685  0.4026
   15SOL    HW1   44   3.009   2.107   1.977 -0.9615  1.1238  0.6003
   15SOL    HW2   45   2.915   2.035   2.103  0.2974  0.2670  1.7687
   16SOL     OW   46   2.029   2.778   0.679  0.0138  0.5530  0.6695
   16SOL    HW1   47   2.117   2.815   0.656 -2.0353 -0.2475  0.0889
   16SOL    HW2   48   2.028   2.684   0.721 -0.2250  0.1687  2.0562
   17SOL     OW   49   0.781   0.089   1.150 -0.9311 -0.0156 -0.2404
   17SOL    HW1   50   0.687   0.058   1.128 -1.4645 -0.6617 -0.5491
   17SOL    HW2   51   0.807   0.103   1.246  2.3861  0.3006 -2.1221
   18SOL     OW   52   1.476   1.112   0.006 -0.2922  0.1875 -0.2171
   18SOL    HW1   53   1.401   1.068   0.058  5.0140 -0.8775 -2.8440
   18SOL    HW2   54   1.513   1.045   3.041 -0.1760  0.8448  2.1334
   19SOL     OW   55   1.651   1.978   0.299  0.0126  0.1552  0.5014
   19SOL    HW1   56   1.696   1.886   0.309  1.1413 -1.4729 -0.9425
   19SOL    HW2   57   1.553   1.971   0.331 -1.0993 -1.1247  1.3663
   20SOL     OW   58   2.578   1.781   2.176  0.8096 -0.6451  0.2045
   20SOL    HW1   59   2.507   1.851   2.163 -0.5140  0.4007  1.7385
   20SOL    HW2   60   2.581   1.747   2.274 -0.8098  0.0914 -0.0233
   21SOL     OW   61   1.302   1.132   0.686 -0.1022 -0.3173  0.1610
   21SOL    HW1   62   1.351   1.192   0.624 -0.7861 -0.7247  1.9256
   21SOL    HW2   63   1.233   1.078   0.632 -1.0661  0.5225 -0.3288
   22SOL     OW   64   2.069   3.031   1.364 -0.3040  0.3155  0.4947
   22SOL    HW1   65   2.036   3.021   1.458  2.7308 -1.2815 -0.3958
   22SOL    HW2   66   2.127   0.018   1.354  0.6342  2.3090 -0.3363
   23SOL     OW   67   2.931   0.632   1.838 -0.1432  0.1504  0.1558
   23SOL    HW1   68   2.877   0.701   1.890 -0.5707  1.8911 -0.5578
   23SOL    HW2   69   2.965   0.682   1.752  1.9409  0.0378 -1.4877
   24SOL     OW   70   2.401   2.651   0.212 -0.3442 -0.0723  0.7974
   24SOL    HW1   71   2.323   2.709   0.221  2.2693 -0.1876 -2.1995
   24SOL    HW2   72   2.478   2.700   0.160  2.0797  2.2630 -1.2322
   25SOL     OW   73   1.086   0.046   2.165 -0.2348 -0.3459  0.5098
   25SOL    HW1   74   1.146   0.029   2.247  2.0518 -1.0670  0.5332
   25SOL    HW2   75   1.126   0.125   2.113  1.3613 -0.7871  1.2410
   26SOL     OW   76   1.933   2.369   0.442  0.5842  0.3425  0.1181
   26SOL    HW1   77   2.002   2.324   0.388 -1.7690  1.3945  0.9297
   26SOL    HW2   78   1.841   2.316   0.436  0.9193 -0.9016  0.5854
   27SOL     OW   79   2.237   1.561   0.116 -0.7543 -0.2332  0.4838
   27SOL    HW1   80   2.181   1.519   0.042 -1.7438 -0.9711 -1.4011
   27SOL    HW2   81   2.338   1.551   0.095  0.2790  0.4449  1.5276
   28SOL     OW   82   0.637   1.493   1.652  0.5441 -0.3208 -0.2881
   28SOL    HW1   83   0.684   1.475   1.741  0.0931 -2.4597  0.4037
   28SOL    HW2   84   0.700   1.473   1.571 -1.3484 -0.3572 -0.8805
   29SOL     OW   85   2.507   2.292   1.405 -0.6271 -0.2952  0.1198
   29SOL    HW1   86   2.566   2.332   1.335 -2.1525 -0.5971 -0.0220
   29SOL    HW2   87   2.440   2.359   1.444  1.5467 -1.0739  1.2596
   30SOL     OW   88   1.567   0.467   0.543  0.0707  0.1026  0.0391
   30SOL    HW1   89   1.514   0.462   0.633  1.1988 -1.7807  1.2654
   30SOL    HW2   90   1.670   0.460   0.556 -1.2685 -0.2993 -1.5340
   31SOL     OW   91   1.976   2.737   1.786  0.7362 -0.2448  0.1420
   31SOL    HW1   92   1.884   2.694   1.792 -1.4903  0.2711  0.0264
   31SOL    HW2   93   2.042   2.671   1.821 -1.1108  1.0010  0.5065
   32SOL     OW   94   0.726   1.779   0.980  0.1632  0.3187 -0.2360
   32SOL    HW1   95   0.624   1.786   0.981  0.1182  0.3350  5.4428
   32SOL    HW2   96   0.763   1.723   0.902 -1.0069  0.4758  2.1994
   33SOL     OW   97   0.151   0.319   2.583 -0.1355  0.1354  0.1456
   33SOL    HW1   98   0.215   0.266   2.636 -2.2545 -1.2378 -0.9466
   33SOL    HW2   99   0.146   0.281   2.488 -3.3250 -1.4157 -3.2771
   34SOL     OW  100   1.973   2.901   0.361 -0.1354 -0.5497 -0.4207
   34SOL    HW1  101   1.999   2.965   0.436 -1.3907 -0.9784  2.0530
   34SOL    HW2  102   1.878   2.922   0.339  1.2599 -2.5885  2.6370
   35SOL     OW  103   2.126   2.593   1.293  0.3753 -0.0589  0.2405
   35SOL    HW1  104   2.153   2.686   1.258  1.0984  4.3605 -1.1254
   35SOL    HW2  105   2.023   2.587   1.311 -0.4323 -0.3313  1.2368
   36SOL     OW  106   1.815   2.330   2.376  0.3048  0.3549 -0.6151
   36SOL    HW1  107   1.859   2.238   2.355  1.5207 -4.8233  0.6288
   36SOL    HW2  108   1.889   2.398   2.401 -0.6574 -0.0543 -0.5442
   37SOL     OW  109   0.787   3.025   1.837  0.2187 -0.2282 -0.2844
   37SOL    HW1  110   0.692   3.062   1.839 -0.1166 -3.1878 -1.0647
   37SOL    HW2  111   0.815   3.010   1.936 -0.8405  0.6971 -0.8841
   38SOL     OW  112   2.985   0.311   2.629 -0.5981 -0.4455  0.2111
   38SOL    HW1  113   2.927   0.259   2.692  1.4461 -1.4206  0.5273
   38SOL    HW2  114   3.083   0.325   2.658 -0.8035  2.3677  0.0821
   39SOL     OW  115   2.181   0.943   1.574 -0.2168 -0.0536 -0.6001
   39SOL    HW1  116   2.187   0.957   1.676  2.2918  1.2368 -0.7354
   39SOL    HW2  117   2.201   1.026   1.529  0.2017 -1.1873  1.8486
   40SOL     OW  118   1.227   2.805   3.030 -0.2511 -0.0916 -0.8436
   40SOL    HW1  119   1.169   2.886   3.013  2.1332 -1.7568  3.3440
   40SOL    HW2  120   1.318   2.844   3.062 -1.7921 -0.3548 -1.1558
   41SOL     OW  121   2.464   1.395   1.039  0.0420  0.2158  0.2196
   41SOL    HW1  122   2.499   1.435   1.122  0.1555 -0.0464 -1.0705
   41SOL    HW2  123   2.541   1.358   0.981 -1.4162 -1.1450  1.6198
   42SOL     OW  124   0.358   0.220   1.146 -0.1210  0.4187 -0.5936
   42SOL    HW1  125   0.451   0.255   1.179  1.1245  0.1652  1.8249
   42SOL    HW2  126   0.371   0.194   1.049  0.0732 -0.6582 -0.2852
   43SOL     OW  127   2.824   1.589   2.562  0.4285 -0.2303 -0.3938
   43SOL    HW1  128   2.757   1.627   2.624  0.2968  3.0300  1.6396
   43SOL    HW2  129   2.790   1.502   2.527  1.2086 -0.2918 -0.2023
   44SOL     OW  130   2.462   0.068   1.860 -0.3193  0.4169  0.4295
   44SOL    HW1  131   2.529   0.060   1.783 -2.0276 -0.2467 -1.0500
   44SOL    HW2  132   2.511   0.083   1.949  0.2320 -0.4748  0.9087
   45SOL     OW  133   0.780   2.811   1.677  0.1502 -0.6515  0.4932
   45SOL    HW1  134   0.744   2.747   1.750 -1.4920  0.8258  0.1845
   45SOL    HW2  135   0.809   2.895   1.723  1.3619 -2.1929  0.9585
   46SOL     OW  136   1.303   2.770   2.714 -0.1301  0.4758  0.0180
   46SOL    HW1  137   1.206   2.732   2.715  1.4514  0.2751  0.3346
   46SOL    HW2  138   1.297   2.873   2.729  1.6433  3.9019 -1.8033
   47SOL     OW  139   1.673   2.072   0.705 -0.3151 -0.2343 -0.6073
   47SOL    HW1  140   1.575   2.044   0.710  0.0025 -0.9645 -1.1781
   47SOL    HW2  141   1.733   2.032   0.780 -0.4480 -1.3807  0.8734
   48SOL     OW  142   0.966   2.261   0.592  0.3189 -0.1176 -0.3589
   48SOL    HW1  143   0.979   2.359   0.612  0.6850 -0.1444  1.5619
   48SOL    HW2  144   0.877   2.225   0.630 -1.9935  0.0370  0.9047
   49SOL     OW  145   2.171   2.930   2.487  0.1483 -0.3291  0.1410
   49SOL    HW1  146   2.249   2.985   2.458  1.5129 -1.0483 -0.2104
   49SOL    HW2  147   2.206   2.840   2.522  1.6910  0.5812  0.8752
   50SOL     OW  148   1.680   0.190   0.128 -0.2061 -0.1996 -0.3993
   50SOL    HW1  149   1.687   0.283   0.172 -2.1600  0.7696  3.8065
   50SOL    HW2  150   1.590   0.189   0.076 -0.9746  1.2522 -0.9417
   51SOL     OW  151   2.116   0.918   0.669  0.5293 -0.1256 -0.7067
   51SOL    HW1  152   2.049   0.907   0.598  1.9123  0.2392 -0.3220
   51SOL    HW2  153   2.064   0.912   0.757 -3.3727  0.1838 -0.8571
   52SOL     OW  154   1.208   1.515   1.234  0.0824 -0.3821 -0.1086
   52SOL    HW1  155   1.290   1.471   1.270  3.6242  0.2965  0.5790
   52SOL    HW2  156   1.163   1.449   1.173  0.7819  1.4624  1.1289
   53SOL     OW  157   1.081   1.703   2.440  0.1640 -0.4072 -0.1759
   53SOL    HW1  158   1.031   1.681   2.353  2.0843  2.4094  1.3941
   53SOL    HW2  159   1.032   1.761   2.509  4.5009  0.3183  0.6104
   54SOL     OW  160   2.487   0.315   1.686 -0.6559 -0.4405 -0.1328
   54SOL    HW1  161   2.545   0.235   1.664 -1.3538 -1.0679 -1.8253
   54SOL    HW2  162   2.485   0.369   1.601  0.9996  0.2519 -1.1116
   55SOL     OW  163   2.913   2.094   0.701  0.1042 -0.5327  0.0921
   55SOL    HW1  164   2.879   2.088   0.797 -1.2013  3.1026  0.0946
   55SOL    HW2  165   2.841   2.123   0.634 -2.3636  0.6454 -1.3039
   56SOL     OW  166   0.999   0.552   2.252  0.6385  0.6526 -0.4939
   56SOL    HW1  167   1.083   0.502   2.283  0.1692 -0.1233 -0.7908
   56SOL    HW2  168   1.037   0.619   2.189  0.2383 -2.1626  1.2539
   57SOL     OW  169   1.239   1.361   2.990  0.2626 -0.6583 -0.2689
   57SOL    HW1  170   1.176   1.280   3.012 -3.7452 -0.6089 -1.9094
   57SOL    HW2  171   1.321   1.326   2.948 -0.0655 -1.0204  0.7677
   58SOL     OW  172   0.308   0.939   1.465  0.0864 -0.0552  0.3457
   58SOL    HW1  173   0.230   1.001   1.471  0.4003 -0.6655  0.9480
   58SOL    HW2  174   0.291   0.861   1.398  0.0364 -0.1850  2.2129
   59SOL     OW  175   1.448   2.964   0.006  0.2056  0.0438 -0.0357
   59SOL    HW1  176   1.527   2.930   3.050 -0.8089 -1.5608 -2.1092
   59SOL    HW2  177   1.434   3.068   0.005 -1.8542  0.3281 -1.9992
   60SOL     OW  178   3.028   1.812   0.300 -0.3240 -0.1946 -0.2954
   60SOL    HW1  179   2.976   1.818   0.385  1.3709 -0.6799 -0.7037
   60SOL    HW2  180   3.034   1.712   0.274  0.6662  2.8596  5.4879
   61SOL     OW  181   1.420   2.900   0.672 -0.1404  0.3205 -1.0475
   61SOL    HW1  182   1.459   2.861   0.755  0.2514  1.1743  1.1658
   61SOL    HW2  183   1.491   2.936   0.603  1.1958  1.6386 -2.0765
   62SOL     OW  184   2.095   1.878   2.612 -0.7438 -0.4688  0.2796
   62SOL    HW1  185   2.043   1.814   2.556  1.0569 -0.1858  1.2462
   62SOL    HW2  186   2.081   1.971   2.575 -2.7127 -0.4901  1.1743
   63SOL     OW  187   2.477   2.575   0.665  0.0774 -0.4462  0.0466
   63SOL    HW1  188   2.440   2.642   0.600  2.3266 -1.8894  0.9298
   63SOL    HW2  189   2.413   2.496   0.676 -2.7272 -4.9591 -0.1582
   64SOL     OW  190   1.640   1.073   2.553  0.0482 -0.4163  0.2773
   64SOL    HW1  191   1.641   1.151   2.620 -1.1793 -2.6517  0.3492
   64SOL    HW2  192   1.564   1.089   2.484  0.1610 -0.6217  0.2952
   65SOL     OW  193   1.714   1.788   2.683  0.3844  0.2369  0.0808
   65SOL    HW1  194   1.680   1.710   2.734  2.0087  1.9189  0.4116
   65SOL    HW2  195   1.637   1.832   2.634 -0.2041 -0.4582  0.1571
   66SOL     OW  196   0.196   0.810   1.693  0.1100 -0.0705 -0.0541
   66SOL    HW1  197   0.223   0.867   1.612 -0.7612 -0.0054  0.7839
   66SOL    HW2  198   0.265   0.737   1.714  0.0375 -1.5855  2.2435
   67SOL     OW  199   2.401   2.791   2.852  0.7189 -0.2675 -0.2480
   67SOL    HW1  200   2.343   2.782   2.935 -0.7044  1.9011  0.7994
   67SOL    HW2  201   2.407   2.883   2.816  0.3533  0.6985  1.5561
   68SOL     OW  202   1.308   2.512   1.135  0.0472  0.1807 -0.6905
   68SOL    HW1  203   1.240   2.557   1.077  0.7934  0.5942  0.9145
   68SOL    HW2  204   1.348   2.430   1.086 -2.7305 -0.7312  1.7228
   69SOL     OW  205   0.642   2.510   0.238 -0.4334  0.1374 -0.5546
   69SOL    HW1  206   0.694   2.421   0.222 -0.4864 -0.5634 -1.5322
   69SOL    HW2  207   0.548   2.485   0.263 -0.0041  0.2520  0.5596
   70SOL     OW  208   2.405   0.109   2.609  0.7953 -0.1611 -0.4522
   70SOL    HW1  209   2.346   0.195   2.601 -2.8779  1.2507 -0.5735
   70SOL    HW2  210   2.390   0.056   2.521 -0.2265  1.0637  0.1993
   71SOL     OW  211   0.612   1.331   2.426  0.1534  0.5775 -0.2526
   71SOL    HW1  212   0.520   1.304   2.460  0.6058 -2.8829 -1.0718
   71SOL    HW2  213   0.608   1.424   2.382 -1.5002 -0.0027  0.5306
   72SOL     OW  214   3.050   1.870   0.027 -0.7648  0.1823 -0.1355
   72SOL    HW1  215   3.038   1.862   0.129  2.6820 -0.3078  0.5969
   72SOL    HW2  216   2.975   1.926   3.083  1.6340  2.4335 -0.1046
   73SOL     OW  217   1.395   1.294   0.480  0.3125 -0.2942  0.7835
   73SOL    HW1  218   1.423   1.389   0.498 -0.6302 -0.5207 -0.6614
   73SOL    HW2  219   1.405   1.267   0.380  0.3600 -1.4254 -0.5577
   74SOL     OW  220   2.258   2.696   2.620 -0.5143 -0.4252  0.1663
   74SOL    HW1  221   2.183   2.657   2.684 -2.9859 -1.0808  1.3652
   74SOL    HW2  222   2.334   2.750   2.658  1.0475  0.0444  2.0497
   75SOL     OW  223   2.451   1.934   0.862  0.6421 -0.0209 -0.4443
   75SOL    HW1  224   2.439   2.035   0.886 -0.5676  2.2075  0.9998
   75SOL    HW2  225   2.479   1.877   0.945  3.8818 -0.1983  2.3375
   76SOL     OW  226   1.865   2.432   1.551  0.3793  0.1093  0.0968
   76SOL    HW1  227   1.886   2.509   1.488 -1.3466 -4.2449  0.4210
   76SOL    HW2  228   1.948   2.393   1.592 -1.2746 -0.2164  0.1534
   77SOL     OW  229   2.193   3.069   2.182  0.1188  0.0380 -0.1092
   77SOL    HW1  230   2.123   2.999   2.158  3.3215  0.0677 -1.0897
   77SOL    HW2  231   2.218   0.012   2.091 -0.4551  1.0068 -0.2623
   78SOL     OW  232   1.549   0.967   2.900 -0.0430 -0.2828  0.0494
   78SOL    HW1  233   1.475   0.903   2.893  0.7604  2.9373  0.3914
   78SOL    HW2  234   1.619   0.952   2.833 -3.9712  1.5343  3.7984
   79SOL     OW  235   2.453   1.622   2.531 -0.0388  0.0669  0.5709
   79SOL    HW1  236   2.428   1.712   2.494 -1.4658  1.0303  1.0667
   79SOL    HW2  237   2.416   1.602   2.623 -3.2372  0.4094 -1.0168
   80SOL     OW  238   1.888   1.512   1.582  0.3858 -0.2230 -0.7064
   80SOL    HW1  239   1.920   1.590   1.526  0.3808 -2.9531  0.2589
   80SOL    HW2  240   1.903   1.417   1.542 -2.1075 -0.7251  2.8850
   81SOL     OW  241   1.437   0.477   1.160  0.1495 -0.0053 -0.4580
   81SOL    HW1  242   1.390   0.422   1.231 -2.9470 -0.4543 -2.1392
   81SOL    HW2  243   1.434   0.427   1.075  0.1368  0.3285  0.8653
   82SOL     OW  244   1.415   2.671   1.738 -0.4795 -0.2582  0.1225
   82SOL    HW1  245   1.366   2.619   1.812  2.2169 -1.2101  2.2674
   82SOL    HW2  246   1.366   2.660   1.652 -1.2887  1.7434 -1.6335
   83SOL     OW  247   0.333   0.142   0.579  0.0651 -0.2090 -0.1252
   83SOL    HW1  248   0.342   0.051   0.526  2.8482 -2.0869 -2.6472
   83SOL    HW2  249   0.239   0.174   0.569 -0.4047 -0.4730 -0.7329
   84SOL     OW  250   0.614   1.147   0.059 -0.2116 -0.6164 -0.1825
   84SOL    HW1  251   0.590   1.246   0.066  0.1154 -0.2989  0.8549
   84SOL    HW2  252   0.595   1.092   0.143 -0.4773  3.5134  0.0813
   85SOL     OW  253   2.765   1.785   1.592  0.5541  0.5840  0.2753
   85SOL    HW1  254   2.769   1.843   1.678 -1.0702 -0.2846  0.3171
   85SOL    HW2  255   2.679   1.733   1.597  0.3214 -0.6838 -0.0741
   86SOL     OW  256   0.169   2.839   1.466  0.5513 -0.3867 -0.3959
   86SOL    HW1  257   0.261   2.818   1.489 -1.0268 -1.3809  0.6681
   86SOL    HW2  258   0.134   2.755   1.423  1.5316 -0.0317  1.4775
   87SOL     OW  259   0.531   0.336   2.350  0.1136  0.7761  0.1709
   87SOL    HW1  260   0.616   0.337   2.294  1.8715 -1.0357 -0.8894
   87SOL    HW2  261   0.493   0.242   2.379 -2.5954 -0.0666 -1.5680
   88SOL     OW  262   0.459   2.147   1.212 -0.5874 -0.4530 -0.4335
   88SOL    HW1  263   0.551   2.186   1.241  1.4304  0.6496 -0.5291
   88SOL    HW2  264   0.382   2.203   1.241  0.4555  0.2276 -0.5959
   89SOL     OW  265   0.922   0.380   1.669 -0.2724  0.3385 -0.2366
   89SOL    HW1  266   0.987   0.341   1.736  0.6134  3.1197 -0.3805
   89SOL    HW2  267   0.874   0.306   1.619 -0.4000 -0.3547 -1.2835
   90SOL     OW  268   2.774   1.354   1.734  0.0025  0.0718 -0.3815
   90SOL    HW1  269   2.809   1.442   1.760 -1.8885  0.1118  0.5301
   90SOL    HW2  270   2.704   1.329   1.802  2.6666  0.1728 -2.4403
   91SOL     OW  271   1.406   0.928   1.120 -0.0672 -0.3077 -0.4048
   91SOL    HW1  272   1.342   0.849   1.133 -0.8810 -2.2435  1.7242
   91SOL    HW2  273   1.439   0.935   1.025 -0.0499  0.2441  1.7200
   92SOL     OW  274   2.550   1.011   0.945  0.0294  0.1821  0.0424
   92SOL    HW1  275   2.582   1.096   0.905  3.4448 -0.5133 -1.4402
   92SOL    HW2  276   2.508   0.949   0.878 -1.5469  0.3902 -0.1166
   93SOL     OW  277   2.334   0.808   2.477  0.6610 -0.6171  0.1620
   93SOL    HW1  278   2.378   0.769   2.393 -2.6130 -2.0794  2.1927
   93SOL    HW2  279   2.262   0.886   2.463 -0.4507  2.8655 -0.5565
   94SOL     OW  280   2.368   1.889   2.464 -0.1492  0.2438  0.4619
   94SOL    HW1  281   2.363   1.936   2.377 -0.2395 -0.3104  0.7703
   94SOL    HW2  282   2.289   1.908   2.525 -2.9120 -0.3763  0.0300
   95SOL     OW  283   2.144   0.689   0.891  0.0048 -0.1612  0.5795
   95SOL    HW1  284   2.099   0.605   0.933  0.6869 -1.5232 -0.6477
   95SOL    HW2  285   2.238   0.699   0.922 -0.6669  0.9485 -0.7863
   96SOL     OW  286   2.529   2.912   2.052 -0.0862 -0.2128 -0.2917
   96SOL    HW1  287   2.438   2.912   2.005 -1.0032  1.3868  0.0993
   96SOL    HW2  288   2.561   3.008   2.072 -1.3591 -0.3508  0.7705
   97SOL     OW  289   2.525   0.764   1.179  0.4234  0.1287  0.2567
   97SOL    HW1  290   2.616   0.762   1.228 -2.5656 -0.8200 -1.9916
   97SOL    HW2  291   2.450   0.788   1.248  0.4249 -0.0408  0.6375
   98SOL     OW  292   1.471   2.180   1.616 -0.1883 -0.3782  0.2344
   98SOL    HW1  293   1.554   2.118   1.596  3.4759  0.5935 -0.4160
   98SOL    HW2  294   1.503   2.279   1.622 -0.1212  0.7336  1.2536
   99SOL     OW  295   2.717   2.397   1.582 -0.4774  0.1303 -0.3232
   99SOL    HW1  296   2.745   2.297   1.615 -1.3756 -1.4668  2.1534
   99SOL    HW2  297   2.678   2.387   1.486 -0.8194 -0.3726  0.0335
  100SOL     OW  298   0.969   0.808   2.790 -0.0828 -0.5736  0.1199
  100SOL    HW1  299   0.895   0.832   2.718 -1.4119  1.0767 -2.6432
  100SOL    HW2  300   1.016   0.893   2.819 -0.3336  0.9184 -0.3023
  101SOL     OW  301   2.204   0.226   2.858  0.0829  0.2069  0.2207
  101SOL    HW1  302   2.113   0.182   2.829 -1.9390 -1.3787  0.7924
  101SOL    HW2  303   2.184   0.313   2.910  2.2317  1.9798 -1.4577
  102SOL     OW  304   0.366   0.637   1.744  0.0712  0.4214  0.0334
  102SOL    HW1  305   0.457   0.665   1.785 -0.3962  0.7735  0.9631
  102SOL    HW2  306   0.331   0.553   1.793 -0.0769 -1.0482  0.5633
  103SOL     OW  307   0.201   0.611   2.831 -0.0338 -0.3084 -0.2502
  103SOL    HW1  308   0.299   0.590   2.821  0.4066  1.1735  0.3818
  103SOL    HW2  309   0.151   0.602   2.741 -1.6620  0.2500  2.2070
  104SOL     OW  310   0.702   0.455   2.528 -0.4231 -0.1794 -0.6402
  104SOL    HW1  311   0.783   0.417   2.477 -0.7264  3.3190 -2.2816
  104SOL    HW2  312   0.613   0.416   2.487 -0.1257 -1.3541 -1.3644
  105SOL     OW  313   2.254   1.845   1.914  0.3319  0.6135  0.2919
  105SOL    HW1  314   2.202   1.886   1.993  3.5985 -0.2843 -1.5086
  105SOL    HW2  315   2.342   1.896   1.888  3.5695  2.9339  0.7386
  106SOL     OW  316   1.813   0.461   0.386  0.0003 -0.0285  0.4497
  106SOL    HW1  317   1.902   0.418   0.412 -4.2496  0.2774 -0.9462
  106SOL    HW2  318   1.827   0.552   0.341 -0.4234 -1.0276  1.4664
  107SOL     OW  319   2.910   1.832   1.083 -0.5954 -0.2521 -0.2205
  107SOL    HW1  320   2.894   1.862   1.178 -0.1290  0.7669 -0.4605
  107SOL    HW2  321   3.004   1.798   1.075 -2.2001  1.5676 -1.0786
  108SOL     OW  322   2.684   2.831   1.528  0.0082 -0.4223 -0.5772
  108SOL    HW1  323   2.635   2.904   1.478 -1.1632 -0.4295  0.5130
  108SOL    HW2  324   2.783   2.854   1.551  4.0115 -1.1812 -1.3780
  109SOL     OW  325   1.962   2.774   1.024  0.2050  0.1094 -0.2460
  109SOL    HW1  326   1.982   2.865   0.988  0.1532 -0.5368 -0.6898
  109SOL    HW2  327   2.011   2.701   0.975 -1.4736  0.7439  2.3621
  110SOL     OW  328   0.465   2.008   2.573 -0.0652  0.0394 -0.7793
  110SOL    HW1  329   0.364   2.029   2.563 -1.4011 -0.6211 -0.1580
  110SOL    HW2  330   0.513   2.050   2.495 -1.5673 -1.5657 -0.4552
  111SOL     OW  331   1.522   2.373   2.050 -0.1651 -0.4544 -0.1475
  111SOL    HW1  332   1.450   2.434   2.010 -0.1079  0.8890  1.9111
  111SOL    HW2  333   1.613   2.418   2.043 -1.0124  0.6107 -0.1287
  112SOL     OW  334   2.163   1.958   0.008  0.1825  0.5037  0.3006
  112SOL    HW1  335   2.241   2.021   0.034  0.3676  0.2414 -1.9221
  112SOL    HW2  336   2.089   2.013   3.072  3.1793 -3.0787  0.9430
  113SOL     OW  337   1.478   1.932   1.320 -0.0598 -0.1562  0.3491
  113SOL    HW1  338   1.376   1.931   1.311  2.0716  0.3881  4.2047
  113SOL    HW2  339   1.513   1.843   1.342 -1.1964  1.5198  1.7616
  114SOL     OW  340   2.953   0.984   0.844 -0.0864  0.4355  0.2303
  114SOL    HW1  341   2.938   1.012   0.744 -1.4758 -0.0908 -0.9960
  114SOL    HW2  342   2.940   1.061   0.906 -0.8418  0.7643  0.4477
  115SOL     OW  343   0.812   0.826   0.198  0.2765  0.4495 -0.2171
  115SOL    HW1  344   0.882   0.889   0.167 -2.3671  0.3015  0.6034
  115SOL    HW2  345   0.727   0.873   0.209  2.5032 -0.5491  1.3048
  116SOL     OW  346   2.741   1.376   2.465 -0.3723  0.0523  0.4251
  116SOL    HW1  347   2.765   1.289   2.517  0.7391  1.4834 -0.0508
  116SOL    HW2  348   2.689   1.354   2.383  0.2525  2.6099  0.4822
  117SOL     OW  349   0.189   3.038   0.843  0.0083  0.2824  0.2491
  117SOL    HW1  350   0.261   2.973   0.821 -1.3091 -1.7007 -1.7693
  117SOL    HW2  351   0.125   3.053   0.766 -0.1004 -0.8039  0.8088
  118SOL     OW  352   0.964   1.858   2.619  0.5789  0.2294  0.3005
  118SOL    HW1  353   1.003   1.939   2.668  1.8448  2.7587  1.1492
  118SOL    HW2  354   0.888   1.825   2.678  0.7535  0.7463 -1.1801
  119SOL     OW  355   0.395   2.386   0.281 -0.0234 -0.3387  0.5618
  119SOL    HW1  356   0.357   2.294   0.304  0.2160 -2.5215 -5.5298
  119SOL    HW2  357   0.333   2.429   0.212  0.7413 -1.4761  1.4666
  120SOL     OW  358   1.309   0.859   2.905 -0.0076 -0.7538 -0.2100
  120SOL    HW1  359   1.305   0.779   2.849 -1.2821  1.4185 -0.9984
  120SOL    HW2  360   1.229   0.920   2.900 -1.0214 -1.5684  0.9209
  121SOL     OW  361   1.511   2.834   0.929 -0.3013 -0.2039  0.4007
  121SOL    HW1  362   1.550   2.916   0.977  0.0653 -0.2356  1.3310
  121SOL    HW2  363   1.577   2.759   0.941 -0.6983  0.8734 -0.8165
  122SOL     OW  364   2.321   2.477   1.460 -0.2374 -0.4718  0.0465
  122SOL    HW1  365   2.372   2.564   1.490 -0.1157  0.0910  0.8184
  122SOL    HW2  366   2.244   2.511   1.396 -1.4659  0.7715  1.4527
  123SOL     OW  367   0.461   2.209   0.645 -0.2942 -0.1966  0.0630
  123SOL    HW1  368   0.495   2.236   0.743  1.5369  1.0389  1.5356
  123SOL    HW2  369   0.431   2.289   0.592  1.2134 -1.3991 -1.2549
  124SOL     OW  370   2.519   0.666   0.170  0.1119 -0.0549 -0.4585
  124SOL    HW1  371   2.501   0.573   0.211  0.6713  0.9115 -1.0905
  124SOL    HW2  372   2.617   0.678   0.150 -2.1929  1.4661  0.2535
  125SOL     OW  373   0.676   1.145   0.464  0.7233  0.8041  0.0698
  125SOL    HW1  374   0.638   1.064   0.513  1.1380 -0.3509  1.4149
  125SOL    HW2  375   0.777   1.146   0.463  0.2959 -0.1906  2.5901
  126SOL     OW  376   0.173   1.577   1.027  0.0704  0.2066 -0.4224
  126SOL    HW1  377   0.273   1.571   1.046  0.8751 -3.2772 -0.1437
  126SOL    HW2  378   0.123   1.637   1.094 -3.0055 -1.1801 -0.8024
  127SOL     OW  379   0.946   2.061   2.412  0.5039 -0.0567 -0.2074
  127SOL    HW1  380   1.028   2.035   2.362 -3.7324  0.3831  1.3295
  127SOL    HW2  381   0.941   2.002   2.496  0.6220 -3.2954 -2.6242
  128SOL     OW  382   0.836   1.102   3.019 -0.4229 -0.0178  0.0676
  128SOL    HW1  383   0.918   1.123   3.079 -0.7012 -0.2286 -2.0809
  128SOL    HW2  384   0.752   1.102   3.073  1.4508  0.2752  0.2589
  129SOL     OW  385   2.447   1.650   0.739 -0.1227  0.2057  0.3909
  129SOL    HW1  386   2.350   1.658   0.770 -2.4268 -2.5296  2.4843
  129SOL    HW2  387   2.501   1.737   0.749 -0.5400  1.9612 -3.0172
  130SOL     OW  388   2.560   1.467   1.301 -0.1944  0.0982  0.1909
  130SOL    HW1  389   2.633   1.534   1.277 -0.0611 -2.2367 -0.4672
  130SOL    HW2  390   2.559   1.443   1.400  0.0575  1.5119  0.4826
  131SOL     OW  391   0.039   2.929   0.025 -0.2432 -0.4661  0.3655
  131SOL    HW1  392   0.007   3.020   0.062  1.3063  0.2145 -3.0329
  131SOL    HW2  393   0.136   2.914   0.056 -2.8771 -0.3350 -0.5723
  132SOL     OW  394   0.478   1.527   0.755 -0.3638  0.0053 -0.2899
  132SOL    HW1  395   0.557   1.477   0.710 -0.0868  2.1234 -0.8016
  132SOL    HW2  396   0.404   1.530   0.685 -0.6876 -0.8099 -2.2109
  133SOL     OW  397   0.845   0.425   1.176 -0.0813 -0.1715  0.1186
  133SOL    HW1  398   0.878   0.499   1.234 -2.1826 -0.2104 -0.6874
  133SOL    HW2  399   0.909   0.392   1.108 -1.2386  0.0434 -0.5543
  134SOL     OW  400   0.102   1.674   3.029  0.2130 -0.2181 -0.1973
  134SOL    HW1  401   0.054   1.649   2.942 -2.1248  0.4530 -1.1985
  134SOL    HW2  402   0.035   1.742   3.066  1.0240  0.4738 -0.4499
  135SOL     OW  403   1.751   0.694   1.522 -0.0948 -0.1778 -0.3207
  135SOL    HW1  404   1.732   0.778   1.467  0.6696  3.1646  0.8933
  135SOL    HW2  405   1.719   0.615   1.476  0.0032 -0.8389  3.8351
  136SOL     OW  406   0.167   1.343   0.266  0.0719 -0.1528 -0.1169
  136SOL    HW1  407   0.250   1.310   0.319  0.4039  1.0561  0.0960
  136SOL    HW2  408   0.097   1.367   0.331  3.1062 -2.1083 -2.7471
  137SOL     OW  409   0.152   1.179   0.935 -0.2828  0.0002  0.3083
  137SOL    HW1  410   0.141   1.157   0.835  1.0128 -0.9092 -0.7395
  137SOL    HW2  411   0.092   1.252   0.975  0.6098  0.1309 -0.4153
  138SOL     OW  412   1.980   0.909   0.911  0.2292  0.1045 -0.4083
  138SOL    HW1  413   2.012   0.812   0.906 -1.0727  0.9553 -1.8195
  138SOL    HW2  414   1.913   0.924   0.992 -1.4973  1.8220 -1.2191
  139SOL     OW  415   1.680   2.617   0.369 -0.1467  0.3056  0.0012
  139SOL    HW1  416   1.674   2.624   0.474  0.0962  3.0962 -0.3688
  139SOL    HW2  417   1.685   2.522   0.340 -0.5512  1.6807  0.7724
  140SOL     OW  418   1.210   1.736   1.672 -0.0786  0.2727 -0.1135
  140SOL    HW1  419   1.202   1.792   1.757 -2.3099 -0.4744 -0.6979
  140SOL    HW2  420   1.201   1.636   1.691  2.3321 -2.9250  1.7082
  141SOL     OW  421   1.712   2.194   0.462 -0.0375  0.5076  0.1291
  141SOL    HW1  422   1.713   2.110   0.399 -0.2243 -0.5956  0.0454
  141SOL    HW2  423   1.707   2.162   0.556 -0.5004  1.5347 -2.6258
  142SOL     OW  424   0.858   0.669   3.004 -0.4097  0.1480  0.2280
  142SOL    HW1  425   0.914   0.673   3.086 -2.3766 -1.3320 -3.0093
  142SOL    HW2  426   0.894   0.729   2.931 -0.7644 -2.1828 -2.7718
  143SOL     OW  427   0.293   1.930   0.096 -0.0752 -1.0271  0.3151
  143SOL    HW1  428   0.258   1.956   0.005  0.1227  3.1393 -2.3683
  143SOL    HW2  429   0.249   1.996   0.167 -1.2367  0.8160  2.1060
  144SOL     OW  430   1.462   2.751   1.306  0.1659  0.0017 -1.1961
  144SOL    HW1  431   1.398   2.712   1.379  1.0183 -3.7581 -0.9823
  144SOL    HW2  432   1.434   2.835   1.260 -1.0064  0.2985  1.5079
  145SOL     OW  433   1.952   1.037   2.997 -0.5636  0.1426  0.1062
  145SOL    HW1  434   1.972   0.985   3.083 -2.4199 -1.5926 -0.8360
  145SOL    HW2  435   1.871   1.098   3.013  2.6124 -0.8927 -0.7663
  146SOL     OW  436   0.074   2.769   1.047 -0.3963  0.4738 -0.5527
  146SOL    HW1  437   3.084   2.815   1.066  3.1016 -0.7253 -0.6715
  146SOL    HW2  438   0.099   2.781   0.950  1.1482 -2.6203  0.6561
  147SOL     OW  439   2.217   0.044   1.920 -0.0759 -0.3622  0.1380
  147SOL    HW1  440   2.163   0.109   1.864  1.0370 -0.3196 -0.4663
  147SOL    HW2  441   2.317   0.062   1.900  1.5875  0.6637 -0.0863
  148SOL     OW  442   1.055   2.863   1.996 -0.5070  0.2035  0.1524
  148SOL    HW1  443   1.064   2.892   1.897  1.1763  0.3901 -2.7166
  148SOL    HW2  444   1.002   2.934   2.043  0.3360 -0.6898 -0.0942
  149SOL     OW  445   1.896   0.208   2.491 -0.7768  0.0673 -0.1618
  149SOL    HW1  446   1.799   0.186   2.498 -3.8537  1.6131 -0.4036
  149SOL    HW2  447   1.934   0.165   2.408 -2.1617 -1.1313 -0.5115
  150SOL     OW  448   0.186   3.050   0.413  0.2461  0.4757  0.1036
  150SOL    HW1  449   0.170   0.026   0.345 -1.0911 -0.0321 -0.1290
  150SOL    HW2  450   0.107   3.047   0.480 -0.5273  0.8975 -0.0767
  151SOL     OW  451   0.309   2.127   0.299  0.0824 -0.4982 -0.0352
  151SOL    HW1  452   0.349   2.059   0.362  2.3534 -0.6097 -2.1282
  151SOL    HW2  453   0.209   2.137   0.314  0.8061 -2.4520 -1.9375
  152SOL     OW  454   2.812   0.276   0.692 -0.2341  0.4658  0.3734
  152SOL    HW1  455   2.811   0.290   0.792  0.0328 -1.7964 -2.8914
  152SOL    HW2  456   2.875   0.343   0.640  1.1027  0.1755 -1.9742
  153SOL     OW  457   2.534   0.390   1.018  0.1438  0.0573 -0.5991
  153SOL    HW1  458   2.562   0.294   1.004 -1.6316 -2.1071 -2.2893
  153SOL    HW2  459   2.608   0.460   1.000  0.1744 -0.0137  2.6286
  154SOL     OW  460   0.795   0.359   2.222 -0.3928  0.7102  0.5025
  154SOL    HW1  461   0.873   0.422   2.236  0.2907 -1.8943 -0.5158
  154SOL    HW2  462   0.767   0.368   2.126 -0.8364 -0.6545  0.8653
  155SOL     OW  463   0.374   1.752   1.235 -0.4008 -0.2036  0.3904
  155SOL    HW1  464   0.311   1.741   1.315 -2.9339 -0.2920 -0.7196
  155SOL    HW2  465   0.462   1.708   1.257  0.2937 -1.0561  1.1874
  156SOL     OW  466   2.597   2.031   0.057  0.0436 -0.5698 -0.3484
  156SOL    HW1  467   2.554   2.044   3.065  0.8473 -0.8696  1.0537
  156SOL    HW2  468   2.555   1.950   0.099 -0.8911  3.5140  0.9812
  157SOL     OW  469   0.976   0.766   0.404 -0.1988  0.1195 -0.5170
  157SOL    HW1  470   0.950   0.670   0.436 -1.3980 -0.8497 -0.7406
  157SOL    HW2  471   0.924   0.782   0.320 -0.9445  2.2205  1.1877
  158SOL     OW  472   2.423   3.078   2.827 -0.3231  0.0789 -0.2151
  158SOL    HW1  473   2.395   0.029   2.741  0.1967 -1.4180  0.4494
  158SOL    HW2  474   2.422   0.050   2.903 -1.2536 -0.4845  0.5358
  159SOL     OW  475   0.574   0.285   0.644  0.2308 -0.7822  0.3886
  159SOL    HW1  476   0.482   0.254   0.608 -0.0820  1.1397  0.3362
  159SOL    HW2  477   0.623   0.210   0.686  2.0695  1.6657 -0.3657
  160SOL     OW  478   1.302   1.705   2.590 -0.0423 -0.2369 -0.4926
  160SOL    HW1  479   1.219   1.706   2.535  1.6582  0.9057  1.4065
  160SOL    HW2  480   1.293   1.663   2.683  3.7315 -2.0568 -0.5730
  161SOL     OW  481   3.080   1.285   2.645  0.2486 -0.6753 -0.1794
  161SOL    HW1  482   0.030   1.363   2.682  1.9216  0.3212 -2.8415
  161SOL    HW2  483   2.982   1.271   2.675 -2.2122  0.1432  1.6933
  162SOL     OW  484   0.581   2.464   1.303  0.0257  0.2151 -0.3193
  162SOL    HW1  485   0.641   2.385   1.282 -0.3604 -0.4438 -2.3510
  162SOL    HW2  486   0.480   2.448   1.307 -1.9482 -0.7147 -0.3928
  163SOL     OW  487   1.985   0.123   2.261 -0.2059 -0.2846  0.0780
  163SOL    HW1  488   2.076   0.093   2.234 -0.4122  2.0361 -0.9487
  163SOL    HW2  489   1.936   0.145   2.177  1.5582  0.4657  0.0452
  164SOL     OW  490   2.078   1.550   0.576 -0.1177 -0.2098  0.4359
  164SOL    HW1  491   2.017   1.621   0.537  0.6689 -1.8590 -0.2029
  164SOL    HW2  492   2.167   1.535   0.526 -0.9872  0.8466  0.6552
  165SOL     OW  493   2.894   0.227   1.657  0.2968  0.3976 -0.4719
  165SOL    HW1  494   2.872   0.279   1.744  2.1409 -0.9078  2.0656
  165SOL    HW2  495   2.991   0.228   1.631 -0.9527 -2.1022 -0.2943
  166SOL     OW  496   2.018   0.886   0.124  0.4968  0.4146 -0.2813
  166SOL    HW1  497   2.108   0.850   0.092 -1.7726 -1.2679  1.6583
  166SOL    HW2  498   2.033   0.931   0.214  2.1046  0.6761  0.1047
  167SOL     OW  499   2.955   0.684   0.387 -0.1311  0.6852  0.3871
  167SOL    HW1  500   2.926   0.606   0.326  0.1583 -0.1188 -2.9225
  167SOL    HW2  501   2.899   0.769   0.375  0.5498  0.4452  1.4419
  168SOL     OW  502   1.540   2.739   2.589  0.2907  0.1477  0.7860
  168SOL    HW1  503   1.472   2.744   2.659  1.1053 -0.2902 -0.8424
  168SOL    HW2  504   1.564   2.641   2.578  1.8499 -1.1758  2.2148
  169SOL     OW  505   0.679   1.636   0.462 -0.0825 -0.1264 -0.2994
  169SOL    HW1  506   0.740   1.611   0.382 -0.9395 -2.3747 -0.5260
  169SOL    HW2  507   0.669   1.556   0.523 -2.3588  0.3624  1.9162
  170SOL     OW  508   0.082   0.258   1.182  0.3397 -0.0741 -0.1676
  170SOL    HW1  509   0.180   0.241   1.165  2.6419  1.4420  0.1345
  170SOL    HW2  510   0.037   0.179   1.143 -0.3440 -0.4613  0.1184
  171SOL     OW  511   1.481   2.166   2.853 -0.1714 -0.0699  0.7189
  171SOL    HW1  512   1.399   2.110   2.864  0.0107 -1.2289 -0.7330
  171SOL    HW2  513   1.567   2.126   2.888 -1.2061 -0.2241  1.2499
  172SOL     OW  514   2.721   2.991   1.285  0.4713 -0.1775  0.1013
  172SOL    HW1  515   2.642   3.022   1.338  0.7743  0.1220 -2.3171
  172SOL    HW2  516   2.809   3.026   1.326  2.2149 -3.0602  1.6852
  173SOL     OW  517   1.562   0.681   2.683  0.0405 -0.3706  0.0640
  173SOL    HW1  518   1.647   0.686   2.738 -3.0743 -0.0889 -2.8245
  173SOL    HW2  519   1.594   0.648   2.593  0.4056 -0.0813  1.2872
  174SOL     OW  520   1.554   3.051   2.803 -0.0449 -0.0091  0.0213
  174SOL    HW1  521   1.561   0.045   2.836  2.4389 -4.6616 -0.2409
  174SOL    HW2  522   1.574   3.050   2.706 -0.0132 -0.6628  2.4681
  175SOL     OW  523   2.288   2.379   0.741  0.3976  0.0620 -0.1133
  175SOL    HW1  524   2.332   2.317   0.812 -1.1398 -2.4283  1.1914
  175SOL    HW2  525   2.188   2.382   0.749  2.6354 -0.2120  0.9107
  176SOL     OW  526   1.538   0.240   2.801 -0.2283  0.0599 -0.1075
  176SOL    HW1  527   1.449   0.289   2.814  2.0666 -1.7741  1.1178
  176SOL    HW2  528   1.611   0.294   2.852  2.3695  1.9026  2.0018
  177SOL     OW  529   1.109   1.620   0.284  0.2825  0.9937 -0.3242
  177SOL    HW1  530   1.165   1.606   0.200 -1.2673 -0.4735 -2.5941
  177SOL    HW2  531   1.009   1.635   0.263 -1.0741 -0.1951 -0.3831
  178SOL     OW  532   2.666   2.226   0.229 -0.0646  0.3107  0.2373
  178SOL    HW1  533   2.655   2.145   0.166  0.4520  0.6984  1.3544
  178SOL    HW2  534   2.580   2.283   0.237 -0.6923 -1.3657 -1.7972
  179SOL     OW  535   0.038   2.739   2.911 -0.1310 -0.1437 -0.3801
  179SOL    HW1  536   3.088   2.797   2.978  0.8480 -2.0363  0.8668
  179SOL    HW2  537   0.008   2.759   2.819 -0.1327 -1.0562 -0.5593
  180SOL     OW  538   1.829   1.414   0.798  0.3191 -0.6654  0.1181
  180SOL    HW1  539   1.878   1.465   0.870 -1.5085  0.3536  0.4940
  180SOL    HW2  540   1.752   1.363   0.844  1.3064 -1.8244 -1.4555
  181SOL     OW  541   1.847   0.861   1.932 -0.0167  0.2746  0.1667
  181SOL    HW1  542   1.805   0.920   2.006  0.2430  0.4958 -1.5444
  181SOL    HW2  543   1.779   0.823   1.863  0.0027  2.3663 -4.1909
  182SOL     OW  544   2.596   2.871   2.412  0.0746  0.0394 -0.1669
  182SOL    HW1  545   2.660   2.839   2.487 -0.4073  0.9468  0.1794
  182SOL    HW2  546   2.586   2.797   2.339 -2.4913  1.5119 -0.6536
  183SOL     OW  547   1.423   0.636   2.164  0.3522 -0.2578  1.1202
  183SOL    HW1  548   1.415   0.682   2.069  0.1335  0.7945 -1.8077
  183SOL    HW2  549   1.454   0.541   2.153 -1.4219 -2.1665 -0.5542
  184SOL     OW  550   0.246   1.087   1.179 -0.4223  0.7703  0.7174
  184SOL    HW1  551   0.216   1.111   1.083  0.0726 -3.7189  1.0930
  184SOL    HW2  552   0.165   1.048   1.223  0.6541  1.0359 -2.1447
  185SOL     OW  553   2.058   0.383   0.510  0.2933  0.0980  0.6621
  185SOL    HW1  554   2.054   0.297   0.564 -1.4980  0.4237 -0.3159
  185SOL    HW2  555   2.125   0.453   0.537 -1.3331  0.1555 -3.7403
  186SOL     OW  556   0.659   2.587   2.995 -0.1772  0.6099  0.0622
  186SOL    HW1  557   0.578   2.546   2.943 -3.6781  0.4811  1.8875
  186SOL    HW2  558   0.652   2.548   3.088  1.4650  0.4220  0.0894
  187SOL     OW  559   2.544   0.926   2.886  0.4506  0.0555 -0.1003
  187SOL    HW1  560   2.508   0.923   2.789 -2.1363 -2.8147 -0.2125
  187SOL    HW2  561   2.583   0.833   2.896  0.8799  1.4287 -3.6307
  188SOL     OW  562   3.036   1.467   1.566  0.2106  0.1654  0.4898
  188SOL    HW1  563   2.991   1.410   1.635  1.9920 -1.1837 -1.0161
  188SOL    HW2  564   0.036   1.447   1.566  0.1950 -2.5356 -0.8960
  189SOL     OW  565   2.591   0.303   0.073 -0.2101  0.3150  0.0420
  189SOL    HW1  566   2.664   0.256   0.125 -0.3781 -1.2627 -1.0262
  189SOL    HW2  567   2.637   0.345   3.088  1.4942  1.8247 -4.3704
  190SOL     OW  568   1.193   1.126   2.098 -0.2132 -0.2516  0.3435
  190SOL    HW1  569   1.265   1.200   2.092 -0.2103  1.0717  0.5190
  190SOL    HW2  570   1.113   1.172   2.143 -2.3262  3.0671  1.1704
  191SOL     OW  571   2.800   0.437   1.965 -0.3845 -0.5703  0.0862
  191SOL    HW1  572   2.701   0.450   1.970 -0.9674  1.4901  1.9301
  191SOL    HW2  573   2.835   0.507   1.902  1.6837  1.4112 -0.3955
  192SOL     OW  574   2.146   1.480   1.295 -0.5417  0.0659 -0.5635
  192SOL    HW1  575   2.165   1.523   1.385 -2.3920 -1.6149  0.9605
  192SOL    HW2  576   2.109   1.386   1.320 -3.7338 -2.9480  1.3292
  193SOL     OW  577   1.248   0.666   1.192  0.2114  0.0667  0.2925
  193SOL    HW1  578   1.196   0.672   1.100 -0.1708 -1.7128 -1.4334
  193SOL    HW2  579   1.308   0.584   1.183 -2.3736 -1.1748  0.0238
  194SOL     OW  580   1.062   2.537   1.818 -0.7212 -0.3470 -0.2368
  194SOL    HW1  581   1.055   2.581   1.726  2.4069 -1.3785 -1.4298
  194SOL    HW2  582   0.980   2.555   1.879 -1.4974 -0.0742  2.3978
  195SOL     OW  583   1.803   0.265   2.966  0.5810  0.1681  0.2342
  195SOL    HW1  584   1.862   0.235   2.885 -0.6092 -2.0779 -1.1042
  195SOL    HW2  585   1.796   0.207   3.051  0.5935 -0.9633  2.3490
  196SOL     OW  586   1.087   2.271   1.799 -0.1203 -0.8890  0.2967
  196SOL    HW1  587   1.001   2.220   1.790  1.9331  0.0731  1.0776
  196SOL    HW2  588   1.070   2.370   1.768 -1.5803  0.4413 -1.9340
  197SOL     OW  589   1.256   2.907   0.946 -0.4383 -0.2672  0.4961
  197SOL    HW1  590   1.206   2.818   0.968 -2.4535  0.6189  0.0315
  197SOL    HW2  591   1.352   2.891   0.919  0.0604 -0.6381  0.1087
  198SOL     OW  592   1.007   0.844   0.823 -0.2433 -0.4316 -0.4444
  198SOL    HW1  593   0.985   0.874   0.917 -2.0125 -2.6709  1.7978
  198SOL    HW2  594   0.955   0.899   0.753 -1.9888 -0.8056  1.3769
  199SOL     OW  595   0.109   2.660   1.805  0.4620  0.1117  0.0943
  199SOL    HW1  596   0.161   2.747   1.787 -2.2193  4.4903 -1.1444
  199SOL    HW2  597   0.051   2.665   1.892 -1.6415 -0.1593 -0.0132
  200SOL     OW  598   2.065   2.220   2.126 -0.6100  0.3166  0.2569
  200SOL    HW1  599   2.145   2.215   2.062 -0.3068 -1.7819  0.0871
  200SOL    HW2  600   2.087   2.266   2.216  0.3982 -0.5315 -0.6664
  201SOL     OW  601   0.282   1.622   1.917 -0.0925  0.2091 -0.0420
  201SOL    HW1  602   0.311   1.637   1.820  1.2629 -0.3903 -1.5666
  201SOL    HW2  603   0.283   1.523   1.941 -2.3430  0.9906 -1.7306
  202SOL     OW  604   2.464   0.419   0.283  0.4562 -0.2349  0.0563
  202SOL    HW1  605   2.503   0.385   0.198 -2.4304 -2.0135 -0.2396
  202SOL    HW2  606   2.470   0.355   0.365 -1.0233 -0.4587  2.9775
  203SOL     OW  607   1.089   2.252   2.091 -0.4441  0.6863  0.0607
  203SOL    HW1  608   1.037   2.333   2.121  0.8276 -0.8365 -2.4439
  203SOL    HW2  609   1.116   2.258   1.993  1.7553 -1.4814 -0.2407
  204SOL     OW  610   1.293   2.125   1.798 -0.5484  1.0304 -0.0109
  204SOL    HW1  611   1.368   2.161   1.737 -0.6535 -0.1072  2.9834
  204SOL    HW2  612   1.210   2.193   1.801  0.3221 -0.4226  0.2468
  205SOL     OW  613   1.572   1.553   1.971  0.0640  0.3839 -0.3926
  205SOL    HW1  614   1.658   1.499   1.978 -0.6642 -0.1625 -0.0717
  205SOL    HW2  615   1.584   1.641   1.927  1.1919 -3.2042 -0.7421
  206SOL     OW  616   0.444   0.846   2.408  0.0894 -0.1104  0.6295
  206SOL    HW1  617   0.488   0.787   2.476  3.3797  0.8825 -2.3343
  206SOL    HW2  618   0.483   0.945   2.414 -0.1386  1.5907 -1.1017
  207SOL     OW  619   1.121   2.918   1.736 -0.5911  0.0678 -0.8229
  207SOL    HW1  620   1.153   3.000   1.681  0.0927 -0.9640  2.0401
  207SOL    HW2  621   1.117   2.826   1.688 -0.2356  0.4950 -0.9920
  208SOL     OW  622   0.600   2.837   2.134  0.2558  0.3020 -0.5334
  208SOL    HW1  623   0.584   2.927   2.182 -1.1122  1.3957  1.9827
  208SOL    HW2  624   0.516   2.812   2.084  0.9053 -0.0945  0.2726
  209SOL     OW  625   1.327   0.714   0.038  0.4336  0.1473 -0.4000
  209SOL    HW1  626   1.415   0.677   0.057 -2.1949  1.5063 -0.2800
  209SOL    HW2  627   1.332   0.765   3.051  2.8037  1.3072  1.7990
  210SOL     OW  628   2.970   0.452   0.567  0.0989 -0.2762 -0.4824
  210SOL    HW1  629   3.009   0.493   0.656  3.5656  1.8092  1.8306
  210SOL    HW2  630   2.920   0.524   0.511  0.3357  0.5076 -1.8323
  211SOL     OW  631   0.589   0.296   1.259  0.4515  0.1618 -0.1991
  211SOL    HW1  632   0.549   0.380   1.297 -1.5520  1.5646  0.3139
  211SOL    HW2  633   0.673   0.317   1.204 -1.5797 -0.4497  1.4209
  212SOL     OW  634   1.219   1.891   1.237  0.2737  0.0877  0.6915
  212SOL    HW1  635   1.239   1.814   1.169 -1.9921 -0.3531 -0.0127
  212SOL    HW2  636   1.144   1.868   1.302 -1.6595 -2.3460  1.6456
  213SOL     OW  637   2.212   0.323   1.801  0.4388  0.1805  0.3879
  213SOL    HW1  638   2.303   0.316   1.761  0.4769 -1.0607  0.7366
  213SOL    HW2  639   2.209   0.375   1.889 -1.3482  0.9203 -1.1774
  214SOL     OW  640   0.934   2.325   2.393 -0.1771  0.2323  0.6545
  214SOL    HW1  641   0.917   2.225   2.395  0.8483  0.8736 -1.2201
  214SOL    HW2  642   0.862   2.376   2.444 -1.4701 -1.3746  3.4446
  215SOL     OW  643   2.507   1.673   1.589 -0.4684  0.1801  0.7036
  215SOL    HW1  644   2.477   1.664   1.686  0.2633  0.6881 -0.6315
  215SOL    HW2  645   2.516   1.580   1.549  0.2466  1.5596  0.7310
  216SOL     OW  646   0.571   0.951   1.509 -0.3418  0.2646  0.1779
  216SOL    HW1  647   0.565   1.001   1.593 -0.2772 -4.4993  0.7239
  216SOL    HW2  648   0.477   0.952   1.471  0.4939  0.3336 -0.3457
  217SOL     OW  649   0.078   0.290   0.545 -0.5089 -0.1033 -0.1786
  217SOL    HW1  650   0.064   0.326   0.453  0.0430 -0.1857 -0.7393
  217SOL    HW2  651   0.020   0.343   0.608  2.5101 -0.1345 -0.1638
  218SOL     OW  652   1.733   1.775   0.882 -0.4260  0.1752 -0.4736
  218SOL    HW1  653   1.773   1.867   0.903  0.0869  0.9685  2.0313
  218SOL    HW2  654   1.794   1.704   0.922 -1.9035 -5.1216  0.0322
  219SOL     OW  655   1.529   0.414   0.273  1.0161  0.4541 -0.3163
  219SOL    HW1  656   1.453   0.348   0.270 -3.2323  0.4788  1.8867
  219SOL    HW2  657   1.560   0.433   0.369 -0.7730  0.4436  0.3162
  220SOL     OW  658   1.459   1.884   0.940 -0.3791  0.1895 -0.0248
  220SOL    HW1  659   1.552   1.845   0.920 -1.2146  0.5605 -1.6707
  220SOL    HW2  660   1.390   1.817   0.965  1.4063  0.6477 -0.3791
  221SOL     OW  661   2.807   0.946   0.365 -0.2228  0.0976  0.7831
  221SOL    HW1  662   2.772   0.999   0.284  0.4473  0.1462 -0.1126
  221SOL    HW2  663   2.729   0.929   0.421 -0.4564  2.2754 -2.4742
  222SOL     OW  664   0.961   2.631   1.331  0.0972 -0.3089  0.1218
  222SOL    HW1  665   0.857   2.637   1.333 -1.1336  0.8858 -1.7791
  222SOL    HW2  666   1.002   2.539   1.306  0.7951  1.3323  0.9673
  223SOL     OW  667   1.298   0.411   0.019  0.0072 -0.0359 -0.0246
  223SOL    HW1  668   1.313   0.390   3.020  0.3184 -0.6282  2.1235
  223SOL    HW2  669   1.300   0.507   0.042  1.7832 -2.8178  0.7366
  224SOL     OW  670   2.720   0.593   1.027 -0.6548  0.1184 -0.1229
  224SOL    HW1  671   2.742   0.689   1.012  0.5922  0.1348 -0.0841
  224SOL    HW2  672   2.712   0.568   1.123 -1.3935  1.2004  0.9603
  225SOL     OW  673   0.812   1.433   1.445 -0.2119 -0.1080 -0.0108
  225SOL    HW1  674   0.881   1.509   1.438 -0.4911  2.5907 -1.2321
  225SOL    HW2  675   0.837   1.352   1.391  1.0448 -1.3830  0.9583
  226SOL     OW  676   1.207   2.729   0.604  0.3884  0.0869  0.1099
  226SOL    HW1  677   1.134   2.784   0.563  0.3963  0.0728  2.9920
  226SOL    HW2  678   1.280   2.793   0.631  1.6507  1.9381  0.9025
  227SOL     OW  679   1.217   1.874   1.904 -0.2257  0.1434 -0.4459
  227SOL    HW1  680   1.116   1.852   1.899  0.2185 -1.9913 -0.8020
  227SOL    HW2  681   1.239   1.966   1.862  0.6948 -1.1353 -0.7525
  228SOL     OW  682   0.658   0.253   1.780 -0.1134 -0.1840 -0.3820
  228SOL    HW1  683   0.631   0.235   1.682  0.5060  1.3848  1.2415
  228SOL    HW2  684   0.622   0.174   1.837 -2.7499 -0.3274  0.4635
  229SOL     OW  685   2.779   0.605   0.082 -0.2802 -0.0796 -0.0211
  229SOL    HW1  686   2.835   0.689   0.071  1.7773  0.6707 -2.6173
  229SOL    HW2  687   2.820   0.547   0.154  0.4507  0.9094 -0.5460
  230SOL     OW  688   3.021   0.815   1.650 -0.2143 -0.2432 -0.3412
  230SOL    HW1  689   0.024   0.817   1.655  0.7085 -3.6825  1.0236
  230SOL    HW2  690   2.986   0.906   1.665 -1.8591 -2.2692  3.0234
  231SOL     OW  691   1.131   2.825   1.256  0.3509 -0.4363  0.2075
  231SOL    HW1  692   1.062   2.762   1.293  0.1146 -0.2806  2.2803
  231SOL    HW2  693   1.195   2.789   1.185  0.6643  0.5789  1.1450
  232SOL     OW  694   2.855   2.601   0.240  0.4266 -0.0041  1.1052
  232SOL    HW1  695   2.894   2.508   0.249  0.1374  1.0170 -0.1300
  232SOL    HW2  696   2.764   2.614   0.285 -1.0707  0.6445  0.6076
  233SOL     OW  697   1.369   2.571   2.945 -0.1759  0.3140  0.2584
  233SOL    HW1  698   1.313   2.503   2.896  0.0449 -3.5749 -0.1077
  233SOL    HW2  699   1.321   2.665   2.957 -0.1636  3.4243 -0.8347
  234SOL     OW  700   0.821   1.181   1.833  0.6895  0.5586  0.6142
  234SOL    HW1  701   0.785   1.278   1.843  0.4891  2.6937 -0.8247
  234SOL    HW2  702   0.840   1.130   1.919  2.2688 -0.0598 -0.1823
  235SOL     OW  703   0.012   2.311   2.765  0.4315 -0.1533  0.3002
  235SOL    HW1  704   0.096   2.340   2.712  0.9707 -2.1221 -1.4882
  235SOL    HW2  705   3.094   2.379   2.838  0.2510 -2.6737 -1.1206
  236SOL     OW  706   1.900   2.157   2.730  0.4562 -0.3613 -0.1339
  236SOL    HW1  707   1.983   2.161   2.671 -3.3276 -0.0286 -0.6535
  236SOL    HW2  708   1.819   2.172   2.667 -4.3102  2.2620 -2.5376
  237SOL     OW  709   2.131   1.190   0.952  0.1083  0.3160  0.3748
  237SOL    HW1  710   2.072   1.137   0.888  2.8799 -2.8794 -0.2455
  237SOL    HW2  711   2.198   1.253   0.896  0.7846  1.0611 -1.8771
  238SOL     OW  712   1.211   2.679   2.170 -0.0425  0.1882  0.1875
  238SOL    HW1  713   1.183   2.715   2.261 -0.9069  0.3529 -2.5828
  238SOL    HW2  714   1.153   2.725   2.095 -2.7631  1.1341  1.6995
  239SOL     OW  715   0.663   2.177   1.974 -0.4473 -0.2245  0.1774
  239SOL    HW1  716   0.740   2.123   2.014  1.7029  0.5743 -1.9222
  239SOL    HW2  717   0.706   2.227   1.895  0.4179  0.1522  1.6617
  240SOL     OW  718   0.004   0.017   0.628  0.1630 -0.5074 -0.0439
  240SOL    HW1  719   3.011   3.077   0.608  1.4376  0.9659 -1.6144
  240SOL    HW2  720   0.001   0.118   0.616 -0.5284 -1.0016 -2.1891
  241SOL     OW  721   1.130   1.857   3.068 -0.0830 -0.1428  0.0238
  241SOL    HW1  722   1.177   1.769   3.092  0.5221 -1.1984  1.6053
  241SOL    HW2  723   1.188   1.925   3.020  0.9877 -0.2418 -0.7312
  242SOL     OW  724   2.339   0.843   0.030 -0.7643 -0.1842 -0.3422
  242SOL    HW1  725   2.389   0.774   0.082 -1.4250 -0.2961  0.4919
  242SOL    HW2  726   2.376   0.935   0.054 -0.8194  1.2805  2.3867
  243SOL     OW  727   0.730   0.441   1.978 -0.1720  0.1266 -0.1614
  243SOL    HW1  728   0.820   0.486   1.973  2.0631 -0.8983 -0.0334
  243SOL    HW2  729   0.724   0.378   1.901  1.0355  0.3241  1.2766
  244SOL     OW  730   1.779   2.461   2.868 -0.0730  0.3167 -0.5636
  244SOL    HW1  731   1.697   2.522   2.859  1.0560 -0.6171  0.6571
  244SOL    HW2  732   1.781   2.426   2.962 -1.5424  1.3202  0.2383
  245SOL     OW  733   1.893   2.307   0.040 -0.5741 -0.2235  0.3825
  245SOL    HW1  734   1.812   2.272   0.093 -0.9699 -1.2950  2.4925
  245SOL    HW2  735   1.944   2.368   0.108 -2.5532  2.5005 -1.5487
  246SOL     OW  736   1.023   1.012   2.375  0.1565 -0.0456 -0.1945
  246SOL    HW1  737   1.062   1.034   2.281  2.0728  0.1305  0.5737
  246SOL    HW2  738   0.952   1.076   2.404  1.8607  0.3750  1.2111
  247SOL     OW  739   2.979   0.776   2.827 -0.1429  0.3836  0.6007
  247SOL    HW1  740   3.004   0.851   2.766  2.1780 -0.4603  0.8001
  247SOL    HW2  741   3.052   0.708   2.838 -3.6722  1.0341 -0.2141
  248SOL     OW  742   3.036   1.052   1.826 -0.1688 -0.2710  0.4444
  248SOL    HW1  743   2.948   1.079   1.869 -0.2783 -0.6908 -0.8769
  248SOL    HW2  744   0.016   1.052   1.894  0.4118 -1.0208 -1.9733
  249SOL     OW  745   0.102   0.431   0.270 -0.2175  0.2743  0.1174
  249SOL    HW1  746   0.101   0.498   0.188  2.2431  3.2108 -2.0233
  249SOL    HW2  747   0.177   0.462   0.339  0.9730  4.4466  1.1698
  250SOL     OW  748   2.820   0.200   0.208  0.0617  0.1736  0.1922
  250SOL    HW1  749   2.901   0.157   0.168 -2.5276  0.3112  1.7171
  250SOL    HW2  750   2.806   0.159   0.302  1.3369 -2.3010 -2.7057
  251SOL     OW  751   1.001   1.589   2.011  0.1781  0.4040 -0.3122
  251SOL    HW1  752   1.056   1.642   2.076 -0.8569 -2.3402 -1.3702
  251SOL    HW2  753   1.048   1.567   1.930  0.7227  1.5934  2.0942
  252SOL     OW  754   1.962   1.735   1.457  1.0207 -0.8575  0.1888
  252SOL    HW1  755   1.962   1.819   1.510 -0.0516  0.1593  0.1438
  252SOL    HW2  756   2.040   1.743   1.390 -0.9345  0.8193  0.8654
  253SOL     OW  757   1.839   2.256   1.941  0.1195 -0.4073  0.1827
  253SOL    HW1  758   1.925   2.227   1.983 -0.3997 -1.4754 -1.3242
  253SOL    HW2  759   1.814   2.347   1.974 -0.7259  1.6115 -0.2202
  254SOL     OW  760   0.618   2.115   2.378  0.3529 -0.7411 -0.2455
  254SOL    HW1  761   0.590   2.190   2.316  0.0890  0.0318 -0.7842
  254SOL    HW2  762   0.720   2.116   2.391  1.9197  1.0825 -0.2372
  255SOL     OW  763   1.722   0.171   0.542  0.0074 -0.7386 -0.4770
  255SOL    HW1  764   1.809   0.122   0.518 -0.0449 -1.2291 -3.0489
  255SOL    HW2  765   1.699   0.236   0.467  1.7550  0.7263 -0.4918
  256SOL     OW  766   1.849   2.210   1.370 -0.3029 -0.5696 -0.2820
  256SOL    HW1  767   1.858   2.286   1.437 -1.6139 -1.3413  2.7214
  256SOL    HW2  768   1.942   2.174   1.356 -0.2531  1.1850 -0.6538
  257SOL     OW  769   0.430   2.456   2.907  0.1819  0.2191  0.2570
  257SOL    HW1  770   0.414   2.357   2.889  0.6107  0.3742  1.8815
  257SOL    HW2  771   0.337   2.494   2.936 -4.0156  2.1994  0.3505
  258SOL     OW  772   0.577   0.932   1.954 -0.4027  0.3025  0.0835
  258SOL    HW1  773   0.573   0.831   1.932 -0.6525  1.1772 -1.8161
  258SOL    HW2  774   0.585   0.938   2.054 -2.3515  1.5172 -2.5978
  259SOL     OW  775   1.224   0.955   2.564  0.2098 -0.0145  0.3525
  259SOL    HW1  776   1.241   1.030   2.640  1.3134  2.3625  1.6902
  259SOL    HW2  777   1.206   0.994   2.476 -1.5913  0.7801  0.5130
  260SOL     OW  778   2.160   0.712   0.431  0.4115 -0.2429  0.0843
  260SOL    HW1  779   2.196   0.653   0.507  1.1856 -1.3445 -0.4204
  260SOL    HW2  780   2.082   0.764   0.462  2.5764 -1.3302 -0.6037
  261SOL     OW  781   1.158   0.303   0.594  0.6083 -0.2566  0.2712
  261SOL    HW1  782   1.152   0.362   0.507 -2.6743  2.4517 -1.8611
  261SOL    HW2  783   1.063   0.307   0.641 -0.6995  0.4584  2.3623
  262SOL     OW  784   1.978   2.547   2.465  0.5250  0.0699  0.0605
  262SOL    HW1  785   1.955   2.590   2.555  0.6351 -2.2027  1.0560
  262SOL    HW2  786   2.038   2.608   2.408 -3.0128 -0.8748  0.3405
  263SOL     OW  787   0.340   1.678   2.939 -0.0236  0.0193  0.1260
  263SOL    HW1  788   0.249   1.665   2.977 -0.0674 -0.1217  1.4077
  263SOL    HW2  789   0.348   1.781   2.949 -2.3144 -0.7257  1.7944
  264SOL     OW  790   0.408   1.629   1.690 -0.5489  0.0638  0.6800
  264SOL    HW1  791   0.498   1.575   1.683  3.0030 -1.7486  1.3863
  264SOL    HW2  792   0.353   1.640   1.604  0.7379 -0.8152  0.5259
  265SOL     OW  793   0.951   1.113   0.452 -0.8032  0.4385  0.0685
  265SOL    HW1  794   0.968   1.164   0.363  0.4570 -0.0512  1.2811
  265SOL    HW2  795   1.022   1.041   0.454  0.7936  0.2482  2.7310
  266SOL     OW  796   1.535   1.613   3.090  0.2735 -0.0936  0.8901
  266SOL    HW1  797   1.617   1.679   3.095  2.0254  0.6053  2.8561
  266SOL    HW2  798   1.510   1.588   0.089  1.0923 -1.6138  1.5930
  267SOL     OW  799   0.095   0.255   2.894 -0.0151 -0.0841 -0.0737
  267SOL    HW1  800   0.045   0.343   2.899  0.9871 -0.4505 -4.6716
  267SOL    HW2  801   0.191   0.264   2.862  2.1407 -1.5035  0.8741
  268SOL     OW  802   1.032   0.253   2.815 -0.0539  0.3791 -0.6147
  268SOL    HW1  803   0.964   0.304   2.873  0.0816  1.7028  1.9251
  268SOL    HW2  804   1.037   0.158   2.833 -1.3994  2.7395 -4.9145
  269SOL     OW  805   1.568   0.415   2.297  0.0393 -0.3497 -0.1620
  269SOL    HW1  806   1.605   0.344   2.232 -3.5244 -2.2917  0.5698
  269SOL    HW2  807   1.570   0.372   2.387  0.0024 -0.5506 -0.9654
  270SOL     OW  808   0.772   0.862   2.597  0.1122  0.2258 -0.4714
  270SOL    HW1  809   0.826   0.840   2.511 -3.0477 -0.0018  1.2769
  270SOL    HW2  810   0.696   0.794   2.607  2.3981  1.2191 -0.4197
  271SOL     OW  811   0.014   0.989   0.202 -0.1620  0.1972 -0.2297
  271SOL    HW1  812   0.038   1.074   0.159 -1.6168 -0.4504 -1.4399
  271SOL    HW2  813   3.024   0.947   0.168  0.3144 -0.9443 -1.6135
  272SOL     OW  814   2.156   1.202   2.891  0.0518  0.2108 -0.3260
  272SOL    HW1  815   2.136   1.196   2.791  0.9406  2.4393  1.5155
  272SOL    HW2  816   2.109   1.128   2.939  2.0063  3.1169  0.8195
  273SOL     OW  817   2.908   0.479   2.436  0.1588 -0.4735  0.1710
  273SOL    HW1  818   2.977   0.486   2.364  1.3023 -2.5436 -1.2770
  273SOL    HW2  819   2.936   0.420   2.511 -3.6901  1.7997 -1.5234
  274SOL     OW  820   2.646   0.106   1.658 -0.6129 -0.1932  0.1594
  274SOL    HW1  821   2.617   0.052   1.577 -1.1575 -0.2430 -0.2276
  274SOL    HW2  822   2.750   0.117   1.658 -0.5709  1.2200  1.9858
  275SOL     OW  823   1.924   1.413   0.285 -0.6869 -0.2382 -0.2284
  275SOL    HW1  824   1.888   1.412   0.190  0.1238  0.3885 -0.1927
  275SOL    HW2  825   1.960   1.502   0.311  0.6157  1.3916  2.1172
  276SOL     OW  826   0.178   1.086   2.655  0.2449 -0.1783 -0.2601
  276SOL    HW1  827   0.096   1.147   2.653  2.8469  2.5255  0.8487
  276SOL    HW2  828   0.157   1.000   2.606  0.5576  0.2191 -0.8759
  277SOL     OW  829   1.742   2.519   1.996  0.0627 -0.2872 -0.1404
  277SOL    HW1  830   1.750   2.584   2.071 -0.5786 -1.8880 -1.5813
  277SOL    HW2  831   1.712   2.570   1.912  0.8794  1.6645  1.0151
  278SOL     OW  832   1.879   0.202   1.169 -0.0122 -0.9639 -0.3472
  278SOL    HW1  833   1.799   0.227   1.110 -5.0103  3.0069 -1.4787
  278SOL    HW2  834   1.961   0.168   1.115  0.9848 -1.7806  0.6309
  279SOL     OW  835   0.985   1.474   2.696  0.3469  0.2581  0.1914
  279SOL    HW1  836   1.015   1.517   2.787 -0.5533  1.7726  4.1481
  279SOL    HW2  837   0.959   1.546   2.624 -0.9892  3.0287  0.2728
  280SOL     OW  838   0.669   1.900   0.480  0.1138  0.2546  0.1678
  280SOL    HW1  839   0.692   1.800   0.480  0.9448 -1.6276 -0.4315
  280SOL    HW2  840   0.685   1.938   0.386  1.7872  0.6542 -0.7126
  281SOL     OW  841   0.194   3.020   2.398  1.0483  0.2544 -0.0872
  281SOL    HW1  842   0.221   2.924   2.367 -2.5104  1.3177 -1.3304
  281SOL    HW2  843   0.103   3.020   2.440  3.5315  0.5556  3.2237
  282SOL     OW  844   0.050   1.743   1.192 -0.2254 -0.0994  0.3160
  282SOL    HW1  845   0.124   1.807   1.168  0.0138  2.1275  2.8766
  282SOL    HW2  846   0.053   1.738   1.294  2.4943 -1.1880  2.1733
  283SOL     OW  847   1.637   2.124   2.543 -0.0180 -0.0531 -0.0471
  283SOL    HW1  848   1.584   2.047   2.577  1.5261  0.0936 -1.5967
  283SOL    HW2  849   1.595   2.163   2.457  1.1927 -0.5177  0.4030
  284SOL     OW  850   1.882   0.641   0.173  0.0628 -0.2481  0.3321
  284SOL    HW1  851   1.898   0.740   0.159 -0.8144 -3.3907 -2.2802
  284SOL    HW2  852   1.902   0.600   0.084 -0.8083 -2.1142 -0.5373
  285SOL     OW  853   2.748   2.802   2.621 -0.3895  0.0970  0.3603
  285SOL    HW1  854   2.734   2.844   2.712 -1.9624 -0.6051 -0.0461
  285SOL    HW2  855   2.731   2.699   2.614  2.3109 -2.3980  0.6662
  286SOL     OW  856   1.847   2.617   1.339 -0.1439  0.0542  0.0113
  286SOL    HW1  857   1.819   2.715   1.345 -0.8200 -0.0598  0.2013
  286SOL    HW2  858   1.791   2.565   1.271 -1.3497 -2.4553 -0.7107
  287SOL     OW  859   0.674   1.002   1.072 -0.0625 -0.1419 -0.1647
  287SOL    HW1  860   0.679   1.093   1.124  2.5244  1.5947  2.4977
  287SOL    HW2  861   0.759   0.949   1.085  0.5216  3.0095 -1.9914
  288SOL     OW  862   1.449   2.471   0.079 -0.1928 -0.3527 -0.8289
  288SOL    HW1  863   1.410   2.523   0.160  0.3372  1.2762 -2.5761
  288SOL    HW2  864   1.424   2.518   3.088  0.3709  1.3507 -1.3989
  289SOL     OW  865   2.987   1.894   2.808  0.1394  0.2255  0.2341
  289SOL    HW1  866   3.000   1.792   2.780  0.9247 -2.7191 -2.2553
  289SOL    HW2  867   3.046   1.909   2.891 -0.6025  0.2596  0.8795
  290SOL     OW  868   1.198   2.184   0.735 -0.2763  0.2482  0.5311
  290SOL    HW1  869   1.121   2.199   0.667 -2.0208  1.8734 -0.3891
  290SOL    HW2  870   1.216   2.271   0.785 -0.0753 -1.0395  1.5906
  291SOL     OW  871   1.878   1.440   0.027  0.3803 -0.6279  0.1361
  291SOL    HW1  872   1.958   1.444   3.064  1.1299  0.2541 -0.1880
  291SOL    HW2  873   1.821   1.528   0.018 -3.2481  2.5945 -1.7820
  292SOL     OW  874   1.153   1.486   1.763 -0.2163  0.2841 -0.0992
  292SOL    HW1  875   1.113   1.417   1.705 -1.0954  4.0970  1.0146
  292SOL    HW2  876   1.240   1.452   1.810  0.0977  1.8489 -1.5447
  293SOL     OW  877   2.061   2.566   0.863 -0.4186 -0.1621 -0.3214
  293SOL    HW1  878   2.161   2.589   0.866 -1.4339  0.1191 -1.2392
  293SOL    HW2  879   2.043   2.471   0.892 -0.7762 -0.9371 -0.9118
  294SOL     OW  880   0.083   1.258   2.387  0.0324  0.3575  0.0802
  294SOL    HW1  881   0.070   1.254   2.486  0.5461  0.8493 -0.1295
  294SOL    HW2  882   0.104   1.357   2.362  0.0659  0.9260 -1.1085
  295SOL     OW  883   0.921   2.010   0.004 -0.6022 -0.1901 -0.4182
  295SOL    HW1  884   0.971   2.093   0.032 -1.0966 -0.0663 -0.9262
  295SOL    HW2  885   0.984   1.931   3.088  0.3218  0.6046  0.5942
  296SOL     OW  886   1.938   1.765   2.372 -0.4136  0.0497 -0.5752
  296SOL    HW1  887   1.994   1.705   2.311  1.4683  0.6524  3.2492
  296SOL    HW2  888   1.851   1.786   2.326  0.0766  2.7099  0.8213
  297SOL     OW  889   2.563   0.446   2.686 -0.2950  0.8256  0.0024
  297SOL    HW1  890   2.566   0.387   2.606 -1.3419  0.1060  3.1727
  297SOL    HW2  891   2.487   0.508   2.685  1.5265 -0.1015 -0.2547
  298SOL     OW  892   0.661   2.096   2.725 -0.2724 -0.1578 -0.5643
  298SOL    HW1  893   0.687   2.045   2.808  2.0134  2.5077 -0.9921
  298SOL    HW2  894   0.590   2.045   2.669 -3.1685 -0.6869  3.5459
  299SOL     OW  895   1.067   2.647   2.700 -0.2455  0.0116  0.0420
  299SOL    HW1  896   1.059   2.601   2.609 -0.8624  0.1981 -0.0567
  299SOL    HW2  897   1.029   2.582   2.773  0.4022  0.0907  1.2271
  300SOL     OW  898   2.931   0.465   0.254 -0.0650  0.1668  0.0999
  300SOL    HW1  899   2.897   0.377   0.229  1.6089  2.0496 -1.0684
  300SOL    HW2  900   3.035   0.458   0.249  0.3611 -0.5722  1.8703
  301SOL     OW  901   0.978   0.595   1.338 -0.1920 -0.1508  0.4008
  301SOL    HW1  902   1.070   0.553   1.341  1.8052  1.5981 -4.2466
  301SOL    HW2  903   0.990   0.692   1.358  0.5707 -0.1178 -1.2757
  302SOL     OW  904   2.967   2.110   2.627 -0.0345 -0.0991  0.0689
  302SOL    HW1  905   2.968   2.026   2.688 -1.9872 -1.3913 -1.2716
  302SOL    HW2  906   3.030   2.181   2.654 -0.5351  0.3907 -2.0400
  303SOL     OW  907   3.066   3.050   2.558 -0.1198 -0.6420 -0.0628
  303SOL    HW1  908   3.017   0.015   2.497 -0.3918  0.0059  1.2321
  303SOL    HW2  909   3.072   3.085   2.652 -0.3338  1.0014 -1.3866
  304SOL     OW  910   2.529   0.458   1.935  0.7667 -0.0719  0.6030
  304SOL    HW1  911   2.517   0.406   1.848 -3.6826  0.2411 -0.0223
  304SOL    HW2  912   2.490   0.407   2.014  2.0667  0.0089  0.3634
  305SOL     OW  913   0.382   3.042   2.610 -0.6543  0.4036 -0.0456
  305SOL    HW1  914   0.474   3.053   2.575 -0.2009 -1.2423  1.2979
  305SOL    HW2  915   0.309   3.039   2.539 -1.0227  0.3206 -0.1995
  306SOL     OW  916   2.511   1.126   1.511 -0.1600 -0.2557 -0.0103
  306SOL    HW1  917   2.580   1.051   1.512  0.2768  0.9894 -0.1612
  306SOL    HW2  918   2.505   1.166   1.416 -0.6741 -0.8119  1.1078
  307SOL     OW  919   1.823   0.580   1.172  0.0983 -0.1594 -0.7132
  307SOL    HW1  920   1.759   0.542   1.242 -0.0817  0.0505  0.2364
  307SOL    HW2  921   1.783   0.564   1.085  0.1424 -1.3750  2.9884
  308SOL     OW  922   0.134   2.209   1.452 -0.1906 -0.1800  0.2009
  308SOL    HW1  923   0.085   2.243   1.534  0.0286  0.1607 -0.1972
  308SOL    HW2  924   0.070   2.152   1.397 -0.9812 -2.3543  0.0107
  309SOL     OW  925   2.447   1.854   1.381 -0.3753  0.4606 -0.4452
  309SOL    HW1  926   2.502   1.819   1.304 -1.2856  0.5016  1.6224
  309SOL    HW2  927   2.465   1.791   1.458 -1.3816 -0.8272 -0.4390
  310SOL     OW  928   2.781   1.666   3.029 -0.0085 -0.3776  0.3722
  310SOL    HW1  929   2.798   1.767   3.006  1.7062  1.2649 -0.2053
  310SOL    HW2  930   2.771   1.643   0.026  3.5692 -0.6131 -2.1135
  311SOL     OW  931   2.118   1.495   2.721  0.2713  0.0135  0.8015
  311SOL    HW1  932   2.195   1.562   2.738 -3.0029 -3.2304  0.3880
  311SOL    HW2  933   2.038   1.542   2.677 -1.5963  1.3647  0.6452
  312SOL     OW  934   2.699   2.302   0.956 -0.0528  0.0542  0.1182
  312SOL    HW1  935   2.761   2.220   0.953  0.8712  0.9886  0.7867
  312SOL    HW2  936   2.721   2.369   0.879 -0.6259  1.9379 -1.7834
  313SOL     OW  937   2.569   2.616   1.285 -0.0555 -0.4903  0.0016
  313SOL    HW1  938   2.591   2.637   1.381  0.4189  1.4444 -0.1133
  313SOL    HW2  939   2.576   2.704   1.231  1.1529  1.9462 -1.7597
  314SOL     OW  940   0.838   1.998   1.401  0.1371 -0.0541  0.3167
  314SOL    HW1  941   0.909   1.961   1.463  0.6783  0.7038  0.4530
  314SOL    HW2  942   0.814   1.929   1.331 -1.5323  0.4399 -0.1789
  315SOL     OW  943   0.477   2.696   2.446 -0.0680  0.0607  0.2368
  315SOL    HW1  944   0.453   2.685   2.543 -0.9946  0.9703  0.1285
  315SOL    HW2  945   0.565   2.744   2.426  1.0419  0.4103 -1.1443
  316SOL     OW  946   0.073   1.579   0.783  0.0909  0.4931 -0.0465
  316SOL    HW1  947   0.114   1.572   0.876 -1.2320  0.0094 -0.1061
  316SOL    HW2  948   0.050   1.679   0.753 -0.5183  2.1106 -0.9480
  317SOL     OW  949   1.972   0.076   0.473  0.2148  0.2169  0.0594
  317SOL    HW1  950   2.030   0.108   0.399  0.3839 -1.0505 -1.7160
  317SOL    HW2  951   2.009   0.097   0.566  1.2702 -1.4506  2.8547
  318SOL     OW  952   3.025   2.784   0.379  0.4106  0.3424  0.3547
  318SOL    HW1  953   2.946   2.745   0.331  0.4061  0.0784 -0.0924
  318SOL    HW2  954   0.007   2.725   0.359 -1.7494 -0.1597  1.8018
  319SOL     OW  955   0.894   1.439   0.024  0.1158 -0.6755  0.0686
  319SOL    HW1  956   0.943   1.497   3.057 -1.6868 -0.3798  0.5823
  319SOL    HW2  957   0.791   1.437   0.010  0.1015  0.9573  0.1286
  320SOL     OW  958   0.707   2.815   2.462 -0.2388  0.4210  0.3882
  320SOL    HW1  959   0.800   2.818   2.416  0.3248 -0.3630  0.1494
  320SOL    HW2  960   0.683   2.901   2.503  0.7332 -3.1344 -0.1743
  321SOL     OW  961   1.104   3.050   3.015 -0.1752  0.1199  0.2774
  321SOL    HW1  962   1.155   3.073   0.003  0.3215  2.1379 -0.1035
  321SOL    HW2  963   1.007   3.083   3.024 -2.5576  0.5717  0.0595
  322SOL     OW  964   2.225   1.212   2.026 -0.1927  0.3878  0.3730
  322SOL    HW1  965   2.208   1.158   2.108 -1.9549  0.7950 -1.0032
  322SOL    HW2  966   2.300   1.277   2.051 -2.4151 -1.2552  1.8653
  323SOL     OW  967   2.389   0.831   0.356  0.1266 -0.1555  0.2618
  323SOL    HW1  968   2.292   0.799   0.381 -1.9742 -1.2809 -0.5359
  323SOL    HW2  969   2.439   0.760   0.298 -1.4909 -0.8464 -0.3978
  324SOL     OW  970   0.069   0.584   2.579  0.1129 -0.0530 -0.3288
  324SOL    HW1  971   3.070   0.610   2.559 -3.0070 -0.4860  1.1048
  324SOL    HW2  972   0.085   0.482   2.593 -1.1489  0.2136 -1.8175
  325SOL     OW  973   1.282   0.036   1.897  0.4270 -0.1750  0.2824
  325SOL    HW1  974   1.371   3.098   1.864  0.4901  0.1267 -3.7204
  325SOL    HW2  975   1.206   3.066   1.885 -1.9969 -0.8993 -0.9394
  326SOL     OW  976   2.517   3.088   1.446  0.5207 -0.5192 -0.0650
  326SOL    HW1  977   2.432   3.091   1.504 -2.3068 -1.9364  0.6062
  326SOL    HW2  978   2.508   0.061   1.373 -1.5606 -0.0563 -2.1410
  327SOL     OW  979   1.809   0.683   2.824 -0.0728  0.2540 -0.4204
  327SOL    HW1  980   1.830   0.636   2.913 -0.2713  0.8120  0.8055
  327SOL    HW2  981   1.894   0.733   2.789  0.4591  0.9396 -0.0372
  328SOL     OW  982   2.985   1.403   2.117  0.3932  0.2377 -0.0393
  328SOL    HW1  983   2.961   1.331   2.187 -0.3280 -3.5791  0.2415
  328SOL    HW2  984   2.918   1.479   2.118 -1.4448  3.4354 -1.1434
  329SOL     OW  985   1.667   2.694   1.818 -0.0801 -0.2643  0.0184
  329SOL    HW1  986   1.571   2.676   1.804  0.6661  0.9746 -0.9843
  329SOL    HW2  987   1.684   2.796   1.821  1.0669 -0.2097  0.9043
  330SOL     OW  988   2.417   1.637   1.866 -0.1708 -0.3005  0.4029
  330SOL    HW1  989   2.343   1.707   1.872 -0.3698  1.5401  3.6602
  330SOL    HW2  990   2.505   1.684   1.885  0.0120  1.8255  1.1274
  331SOL     OW  991   0.179   1.970   1.130  0.0631 -0.7630 -0.3130
  331SOL    HW1  992   0.267   1.950   1.177 -1.4130  1.2918  0.1326
  331SOL    HW2  993   0.201   2.026   1.044 -0.4052  0.4617 -1.0663
  332SOL     OW  994   0.711   0.677   1.126  0.1403 -0.4859 -0.3864
  332SOL    HW1  995   0.691   0.707   1.223  0.0441  1.0030  4.5094
  332SOL    HW2  996   0.768   0.594   1.117  0.8433 -1.6546 -1.9775
  333SOL     OW  997   2.094   2.762   2.282 -0.1555  0.1467  0.0667
  333SOL    HW1  998   2.050   2.825   2.215 -0.1667  1.0520 -2.7395
  333SOL    HW2  999   2.144   2.814   2.353  0.8172 -1.6228  0.0768
  334SOL     OW 1000   1.194   1.083   1.223 -0.2190 -0.1418  0.0896
  334SOL    HW1 1001   1.285   1.051   1.188  0.1733 -1.9368 -3.0083
  334SOL    HW2 1002   1.210   1.120   1.319 -0.9589  2.2877  1.2833
  335SOL     OW 1003   0.419   2.651   2.705  0.1338 -0.4180 -0.1258
  335SOL    HW1 1004   0.350   2.707   2.754 -2.7134 -3.5773 -1.0380
  335SOL    HW2 1005   0.432   2.565   2.758 -0.2867  0.6689  0.1563
  336SOL     OW 1006   2.646   2.508   1.828 -0.2282  0.0620 -0.0536
  336SOL    HW1 1007   2.582   2.585   1.805 -0.4099 -1.4003 -0.5222
  336SOL    HW2 1008   2.665   2.446   1.745  0.5545 -1.7386  1.5483
  337SOL     OW 1009   2.304   1.515   0.399  0.2349 -0.8184  0.1172
  337SOL    HW1 1010   2.340   1.602   0.425  1.7639 -0.3023 -2.4621
  337SOL    HW2 1011   2.279   1.514   0.301 -0.9010 -0.9829 -0.0775
  338SOL     OW 1012   1.095   1.917   1.509 -0.1061 -0.0139 -0.6559
  338SOL    HW1 1013   1.134   1.851   1.575 -2.4257  0.1574 -0.1364
  338SOL    HW2 1014   1.120   2.011   1.522  0.3047 -2.3937 -1.8864
  339SOL     OW 1015   2.979   0.599   1.467 -0.2160 -0.2712 -0.3084
  339SOL    HW1 1016   2.981   0.672   1.538  2.5685  1.7476 -2.0308
  339SOL    HW2 1017   3.071   0.583   1.426 -1.1261 -2.2944  1.2901
  340SOL     OW 1018   1.643   2.914   1.520 -0.3969  0.0374  0.4098
  340SOL    HW1 1019   1.597   2.866   1.442  1.0129  0.2356  1.3646
  340SOL    HW2 1020   1.741   2.909   1.506 -2.5720  0.6606  1.5711
  341SOL     OW 1021   2.292   1.371   0.805  0.7438 -0.0187 -0.1387
  341SOL    HW1 1022   2.361   1.383   0.881  0.2274 -0.2432 -0.8170
  341SOL    HW2 1023   2.276   1.464   0.775 -1.3251  0.1169  0.8250
  342SOL     OW 1024   0.462   1.801   0.935  0.1300  0.1372  0.0126
  342SOL    HW1 1025   0.430   1.776   1.030 -1.3338 -0.5663  1.5828
  342SOL    HW2 1026   0.453   1.724   0.866  0.5026 -0.4604 -0.2777
  343SOL     OW 1027   2.389   0.788   1.446 -0.3395  0.2358  0.1433
  343SOL    HW1 1028   2.340   0.700   1.417  0.6847 -3.2516  1.5275
  343SOL    HW2 1029   2.332   0.841   1.512 -0.1803  1.7567 -0.1021
  344SOL     OW 1030   2.285   0.233   0.864  0.7089 -0.4769 -0.2176
  344SOL    HW1 1031   2.296   0.327   0.827  0.9405  3.7680 -1.5664
  344SOL    HW2 1032   2.370   0.181   0.843 -0.5056  1.5185  1.6503
  345SOL     OW 1033   3.027   2.804   2.680 -0.0401  0.1889  0.7550
  345SOL    HW1 1034   2.926   2.791   2.670 -0.3579 -1.2913 -0.2086
  345SOL    HW2 1035   3.050   2.889   2.631  0.0843 -1.1605  1.9593
  346SOL     OW 1036   2.899   1.082   0.605 -0.0161  0.1530 -0.4860
  346SOL    HW1 1037   2.926   1.172   0.571  0.6323 -0.7033 -0.7393
  346SOL    HW2 1038   2.854   1.030   0.531  1.5300 -2.9257 -1.1221
  347SOL     OW 1039   1.617   2.560   1.174  0.2393  0.0701  0.1904
  347SOL    HW1 1040   1.646   2.607   1.085 -0.5940  0.5729 -2.3606
  347SOL    HW2 1041   1.575   2.624   1.244  0.2472 -0.0179  0.2021
  348SOL     OW 1042   1.282   1.018   1.873 -0.1892 -0.4744  0.0893
  348SOL    HW1 1043   1.274   1.109   1.824 -0.0827  1.2055  0.5093
  348SOL    HW2 1044   1.258   1.033   1.972  3.0312  0.0754 -2.2198
  349SOL     OW 1045   2.382   1.434   2.338 -0.1221 -0.4711 -0.5250
  349SOL    HW1 1046   2.401   1.368   2.409  2.4337  2.5266 -1.9026
  349SOL    HW2 1047   2.385   1.531   2.382  3.4299  0.6939 -0.2065
  350SOL     OW 1048   0.215   2.203   0.959  0.2281  0.0613  0.5508
  350SOL    HW1 1049   0.292   2.263   0.986 -0.7101  0.9411  1.8106
  350SOL    HW2 1050   0.245   2.131   0.894 -0.0801  3.5449 -2.9608
  351SOL     OW 1051   0.347   0.295   2.095 -0.3580 -0.2529 -0.1880
  351SOL    HW1 1052   0.443   0.293   2.061 -0.3427 -0.2549 -0.5893
  351SOL    HW2 1053   0.307   0.387   2.093 -0.9601 -0.0412  2.7474
  352SOL     OW 1054   0.990   2.665   1.589 -0.1101  0.0723 -0.2049
  352SOL    HW1 1055   0.912   2.716   1.627 -0.2307 -2.2255  1.2215
  352SOL    HW2 1056   0.975   2.649   1.488 -1.1079  0.8340 -0.3189
  353SOL     OW 1057   0.625   1.568   2.322  0.3395 -0.1889 -0.0232
  353SOL    HW1 1058   0.728   1.572   2.325 -0.2969 -0.5803  1.8805
  353SOL    HW2 1059   0.580   1.627   2.394 -2.7107 -0.9380  2.3758
  354SOL     OW 1060   1.473   1.531   0.226  0.2003  0.6131  0.1112
  354SOL    HW1 1061   1.490   1.427   0.218 -0.0773 -1.2946 -0.8293
  354SOL    HW2 1062   1.440   1.543   0.322 -2.3992 -1.2896  4.0149
  355SOL     OW 1063   2.081   0.183   0.691 -0.0947  0.3652  0.2445
  355SOL    HW1 1064   2.031   0.253   0.748  2.6342 -0.8031  2.8146
  355SOL    HW2 1065   2.171   0.163   0.743 -0.5360 -0.3226  2.2136
  356SOL     OW 1066   0.086   1.212   0.050  0.7632 -0.1629 -0.4980
  356SOL    HW1 1067   0.132   1.252   3.066  0.0167 -0.6680 -2.5891
  356SOL    HW2 1068   0.109   1.266   0.134 -0.5456 -0.5206  0.8415
  357SOL     OW 1069   2.887   0.029   2.096 -0.4399 -0.1010  0.0316
  357SOL    HW1 1070   2.937   0.114   2.118 -0.6273 -2.4190 -0.2468
  357SOL    HW2 1071   2.928   3.079   2.014  1.2989 -0.3738 -0.1049
  358SOL     OW 1072   0.363   1.284   2.525  0.1189 -0.0939  0.1973
  358SOL    HW1 1073   0.314   1.375   2.532 -3.8525  1.9910  0.4111
  358SOL    HW2 1074   0.309   1.209   2.570 -1.1571 -2.3640  0.8706
  359SOL     OW 1075   2.444   2.487   2.576 -0.1139 -0.6120  0.3221
  359SOL    HW1 1076   2.378   2.554   2.612 -1.1660 -0.2292 -0.3472
  359SOL    HW2 1077   2.435   2.481   2.476  0.3509 -0.7271 -0.6113
  360SOL     OW 1078   1.613   1.292   0.917 -0.0404  0.1484 -0.3897
  360SOL    HW1 1079   1.517   1.318   0.902 -0.5728  2.1689  0.1897
  360SOL    HW2 1080   1.621   1.243   1.006 -0.3673 -0.3614  0.9860
  361SOL     OW 1081   2.253   2.285   1.081  0.0154 -0.0438 -0.1925
  361SOL    HW1 1082   2.172   2.270   1.020 -2.6758 -1.3625 -0.9273
  361SOL    HW2 1083   2.238   2.283   1.182  1.0859 -0.1886  1.8962
  362SOL     OW 1084   1.916   1.218   0.615 -0.3261 -0.0105 -0.1827
  362SOL    HW1 1085   1.957   1.224   0.525 -1.2084 -0.1251  2.8304
  362SOL    HW2 1086   1.892   1.306   0.660  0.9673 -0.8733 -0.7413
  363SOL     OW 1087   2.690   2.118   0.522  0.3467 -0.1079 -0.1348
  363SOL    HW1 1088   2.606   2.067   0.557 -0.6578  1.3442  0.1567
  363SOL    HW2 1089   2.680   2.144   0.425 -1.2977  0.4612  1.4893
  364SOL     OW 1090   2.420   0.055   1.197 -0.3934  0.4738  0.1328
  364SOL    HW1 1091   2.347   3.085   1.180 -0.6802  1.5342 -0.5488
  364SOL    HW2 1092   2.433   0.109   1.109  2.8854 -0.6834 -3.4122
  365SOL     OW 1093   0.388   2.825   1.219  0.3105 -0.3134  0.2772
  365SOL    HW1 1094   0.402   2.833   1.117 -0.4201  0.3285 -1.1990
  365SOL    HW2 1095   0.338   2.740   1.238  2.1700 -0.1624  1.5810
  366SOL     OW 1096   2.989   1.348   0.435 -0.0402  0.0364  0.0412
  366SOL    HW1 1097   2.890   1.320   0.412  0.4610  1.4120 -3.1048
  366SOL    HW2 1098   3.016   1.342   0.533 -2.2672  0.5221 -2.6932
  367SOL     OW 1099   2.198   2.353   2.874  0.2949  0.5666  0.6000
  367SOL    HW1 1100   2.152   2.273   2.917 -3.0087 -0.5661 -0.6407
  367SOL    HW2 1101   2.270   2.319   2.810  1.2294 -0.5939 -2.2792
  368SOL     OW 1102   2.794   2.045   0.962  1.2835  0.3772 -0.0502
  368SOL    HW1 1103   2.730   2.056   1.042 -1.9628  0.8552  0.7713
  368SOL    HW2 1104   2.847   1.960   0.975  1.9529  1.6421 -0.6420
  369SOL     OW 1105   0.855   1.066   0.705  0.1142  0.1961  0.0094
  369SOL    HW1 1106   0.782   0.994   0.716 -1.2923 -0.4858  1.3114
  369SOL    HW2 1107   0.871   1.091   0.608 -2.4843 -0.2417 -1.0575
  370SOL     OW 1108   0.628   0.062   0.832  0.3458  0.4298 -0.0477
  370SOL    HW1 1109   0.579   0.033   0.917 -1.1443  1.0238  0.7418
  370SOL    HW2 1110   0.726   0.080   0.854  1.1491 -0.0374  0.7253
  371SOL     OW 1111   2.422   1.179   2.865  0.0896 -0.5401 -0.5916
  371SOL    HW1 1112   2.467   1.086   2.894  1.9206 -1.5527  2.8214
  371SOL    HW2 1113   2.320   1.179   2.872  0.8999  0.9179  0.5031
  372SOL     OW 1114   0.576   0.692   2.603  0.0500 -0.3423  0.2894
  372SOL    HW1 1115   0.638   0.613   2.589 -0.7281  1.3385  1.3207
  372SOL    HW2 1116   0.512   0.672   2.679  1.2403  0.6837  0.0327
  373SOL     OW 1117   0.460   0.590   2.825  0.6106 -0.0455 -0.2956
  373SOL    HW1 1118   0.505   0.501   2.811 -1.5128  2.3085 -0.3029
  373SOL    HW2 1119   0.494   0.639   2.907  0.1884 -1.7755 -0.6650
  374SOL     OW 1120   0.950   2.415   0.031 -0.1306  0.0856  0.6878
  374SOL    HW1 1121   0.971   2.404   3.032  2.0869  3.2199  1.5658
  374SOL    HW2 1122   1.015   2.483   0.071  0.3182  2.6769  0.8465
  375SOL     OW 1123   1.093   3.009   0.632 -0.3944 -0.1784 -0.2561
  375SOL    HW1 1124   1.162   3.029   0.703  2.9635 -2.1220  1.6422
  375SOL    HW2 1125   1.142   2.983   0.548 -1.9313 -1.1986  1.9560
  376SOL     OW 1126   0.149   2.395   2.105 -0.2026 -0.3022 -0.8262
  376SOL    HW1 1127   0.083   2.468   2.084 -0.6044  0.4131  0.0677
  376SOL    HW2 1128   0.227   2.395   2.038 -0.3902  3.3843 -1.1827
  377SOL     OW 1129   2.794   1.943   3.019 -0.1284 -0.4379 -0.2022
  377SOL    HW1 1130   2.724   2.002   3.065 -0.7788  1.9913 -0.0379
  377SOL    HW2 1131   2.810   1.968   2.922  2.2826  0.3421 -0.1830
  378SOL     OW 1132   1.792   0.599   0.681  0.0423  0.5849  0.5072
  378SOL    HW1 1133   1.862   0.532   0.713  0.9567 -0.6774 -1.1559
  378SOL    HW2 1134   1.753   0.657   0.758 -1.1469 -0.5400  2.5564
  379SOL     OW 1135   1.350   1.342   0.864 -0.3640 -0.0939 -0.3482
  379SOL    HW1 1136   1.337   1.260   0.813  1.0072  0.8877  1.4522
  379SOL    HW2 1137   1.303   1.425   0.830 -2.8453  2.2639 -0.6359
  380SOL     OW 1138   2.467   2.008   1.844  0.3456  0.1649  0.1895
  380SOL    HW1 1139   2.545   2.048   1.898  0.7237  2.4972  0.5174
  380SOL    HW2 1140   2.477   2.028   1.744 -0.5944  0.1658 -0.3874
  381SOL     OW 1141   2.896   1.160   2.229  0.1856  0.4189  0.4355
  381SOL    HW1 1142   2.967   1.101   2.277  3.2983 -3.1574  1.0973
  381SOL    HW2 1143   2.869   1.116   2.140  0.1047  1.4047  1.4813
  382SOL     OW 1144   2.938   2.251   0.279 -0.0655 -0.1709 -0.4372
  382SOL    HW1 1145   2.930   2.309   0.364 -0.7495 -1.8328  0.5623
  382SOL    HW2 1146   2.847   2.230   0.241  2.1291  0.1811  0.4512
  383SOL     OW 1147   1.454   1.108   2.347  0.1103 -0.0819  0.1215
  383SOL    HW1 1148   1.452   1.163   2.260  0.5374  0.9700  0.8422
  383SOL    HW2 1149   1.460   1.008   2.332 -0.1159  1.3155  1.4241
  384SOL     OW 1150   1.036   2.120   2.705 -0.2799 -0.4657  0.2597
  384SOL    HW1 1151   1.100   2.142   2.629  1.1013  0.2764  0.0840
  384SOL    HW2 1152   0.955   2.179   2.701  1.0407 -0.0478 -2.0390
  385SOL     OW 1153   2.328   2.197   0.079  0.4596  0.1509 -0.5129
  385SOL    HW1 1154   2.316   2.296   0.057  2.1373  0.4169  1.6558
  385SOL    HW2 1155   2.422   2.188   0.115  0.2681 -2.0566 -1.0488
  386SOL     OW 1156   1.678   1.172   0.410  0.1309  0.2724 -0.2406
  386SOL    HW1 1157   1.762   1.215   0.451 -2.2722  0.8113 -0.7943
  386SOL    HW2 1158   1.653   1.093   0.471  1.6995  0.1072 -0.0769
  387SOL     OW 1159   2.834   0.955   1.224 -0.0070  0.0621  0.0118
  387SOL    HW1 1160   2.794   1.046   1.248 -1.9129 -0.4727  0.6101
  387SOL    HW2 1161   2.788   0.911   1.144 -2.6799  1.5696 -1.0515
  388SOL     OW 1162   0.189   0.731   1.319 -0.0516 -0.5445  0.2113
  388SOL    HW1 1163   0.110   0.790   1.300  2.8596 -1.1379  1.7191
  388SOL    HW2 1164   0.151   0.640   1.340 -0.2036  2.4202 -1.5405
  389SOL     OW 1165   1.831   1.165   2.314  0.1670 -0.5890 -0.6310
  389SOL    HW1 1166   1.813   1.158   2.411 -0.2420  0.8004 -0.7620
  389SOL    HW2 1167   1.841   1.268   2.295 -2.2541  3.6371 -1.6664
  390SOL     OW 1168   1.422   2.268   0.383  0.0456  0.5197  0.1888
  390SOL    HW1 1169   1.369   2.284   0.295  0.5734  2.0476  1.1316
  390SOL    HW2 1170   1.462   2.174   0.380  0.2942 -1.4472  0.1022
  391SOL     OW 1171   1.135   2.112   1.031 -0.4149  0.0137 -0.0270
  391SOL    HW1 1172   1.155   2.031   1.090 -1.8606  0.1395  3.4789
  391SOL    HW2 1173   1.106   2.080   0.940 -0.7657 -1.0498  1.4804
  392SOL     OW 1174   2.425   2.394   1.982  0.3822  0.0225 -0.5856
  392SOL    HW1 1175   2.387   2.482   1.960  0.8499  0.2521  1.8226
  392SOL    HW2 1176   2.518   2.378   1.943  1.3388 -1.8827  1.2406
  393SOL     OW 1177   1.614   2.046   0.025  0.0011  0.5638 -0.1914
  393SOL    HW1 1178   1.683   2.014   3.061  0.3581  0.3060  0.3690
  393SOL    HW2 1179   1.646   2.032   0.121 -2.5550  0.7619 -0.0788
  394SOL     OW 1180   0.039   0.468   2.274  0.0538 -0.1386  0.1843
  394SOL    HW1 1181   0.042   0.510   2.183  0.7332 -3.6723  2.2012
  394SOL    HW2 1182   0.128   0.469   2.322 -0.3921  0.9587 -1.2371
  395SOL     OW 1183   0.365   1.002   0.756 -0.0695 -0.7834 -0.5794
  395SOL    HW1 1184   0.382   0.941   0.835  0.4477  2.7381 -1.9422
  395SOL    HW2 1185   0.446   1.008   0.697 -0.5768  1.1367  1.9083
  396SOL     OW 1186   2.488   0.972   2.627  0.6717  0.0154  0.6082
  396SOL    HW1 1187   2.404   0.917   2.607 -3.6071 -2.0679  0.1807
  396SOL    HW2 1188   2.560   0.951   2.557  0.3388 -3.1700 -1.8742
  397SOL     OW 1189   0.405   0.883   0.019 -0.4779 -0.2780  0.0109
  397SOL    HW1 1190   0.380   0.944   3.043  1.3558 -1.8508 -0.3578
  397SOL    HW2 1191   0.486   0.833   3.084  4.9369  1.0171 -1.3098
  398SOL     OW 1192   1.393   2.895   0.294 -0.6867  0.4905 -0.0704
  398SOL    HW1 1193   1.467   2.913   0.361 -1.1729  1.2245 -0.1402
  398SOL    HW2 1194   1.430   2.901   0.199 -0.7672  1.9242  0.8708
  399SOL     OW 1195   2.054   2.473   1.868 -0.5987 -0.3463  0.2560
  399SOL    HW1 1196   1.969   2.427   1.883  1.4130  1.6961 -0.1569
  399SOL    HW2 1197   2.105   2.438   1.790 -1.9471  3.0988  1.6797
  400SOL     OW 1198   3.033   1.403   1.849  0.4312  0.0166 -0.3009
  400SOL    HW1 1199   0.012   1.350   1.818  1.0767 -5.0813  1.2651
  400SOL    HW2 1200   3.017   1.391   1.951  0.5764 -2.2159  1.5307
  401SOL     OW 1201   0.578   0.951   0.602  0.2496 -0.2998  0.1297
  401SOL    HW1 1202   0.531   0.886   0.547  0.5636  1.9555 -0.2757
  401SOL    HW2 1203   0.622   0.911   0.686 -1.0869 -0.1847  3.3483
  402SOL     OW 1204   0.579   0.001   2.241  0.6569  0.5238 -0.2665
  402SOL    HW1 1205   0.642   0.066   2.285 -1.2053 -2.4006  0.8272
  402SOL    HW2 1206   0.489   0.013   2.285  0.8057 -1.1654 -0.0263
  403SOL     OW 1207   2.771   1.941   1.809 -0.2078  0.1654 -0.3808
  403SOL    HW1 1208   2.817   1.985   1.886 -0.2062 -1.5528 -1.5439
  403SOL    HW2 1209   2.705   1.867   1.844 -1.4014 -3.2870  2.5056
  404SOL     OW 1210   2.679   2.138   2.008  0.2782  0.3388 -0.6630
  404SOL    HW1 1211   2.651   2.157   2.107 -0.6954  1.0397  1.8336
  404SOL    HW2 1212   2.776   2.108   2.016  4.2772  4.2201 -0.6166
  405SOL     OW 1213   1.973   0.138   2.757  0.0360  0.5011  0.3442
  405SOL    HW1 1214   1.975   0.039   2.747  2.9701  0.5019  1.5519
  405SOL    HW2 1215   1.944   0.173   2.663 -0.8230 -2.9938 -6.7328
  406SOL     OW 1216   1.164   1.921   0.285  0.2270 -0.5116 -0.2905
  406SOL    HW1 1217   1.119   1.874   0.203 -0.4321 -2.7435 -2.9327
  406SOL    HW2 1218   1.091   1.976   0.334  0.9872  2.5786  0.4444
  407SOL     OW 1219   1.522   1.278   0.239 -0.2034 -0.1148 -0.6187
  407SOL    HW1 1220   1.505   1.214   0.164 -1.6863  1.2181  3.3944
  407SOL    HW2 1221   1.585   1.243   0.316  1.3877  0.5300 -4.0520
  408SOL     OW 1222   0.281   0.410   1.539 -0.4014 -0.2197  0.1406
  408SOL    HW1 1223   0.286   0.465   1.628  1.7427  2.0622  1.2246
  408SOL    HW2 1224   0.358   0.438   1.476 -0.0713  0.1112  1.3264
  409SOL     OW 1225   2.826   1.399   2.973  0.1500  0.3794  0.6326
  409SOL    HW1 1226   2.765   1.374   2.893 -0.9135 -0.6324 -1.6906
  409SOL    HW2 1227   2.833   1.501   2.981 -3.1459 -0.4788 -0.1239
  410SOL     OW 1228   2.708   2.745   0.673 -0.4862  0.3317 -0.0794
  410SOL    HW1 1229   2.737   2.733   0.772  3.2417 -2.6408  2.0442
  410SOL    HW2 1230   2.631   2.684   0.647  1.6287 -0.0774  0.5136
  411SOL     OW 1231   0.063   0.737   0.562  0.0640  0.3307  0.4520
  411SOL    HW1 1232   0.057   0.747   0.662 -1.9568  0.3045 -1.8889
  411SOL    HW2 1233   3.074   0.705   0.516 -0.2559 -1.3932 -2.5425
  412SOL     OW 1234   1.721   3.030   0.260 -0.9458 -0.9842  0.1558
  412SOL    HW1 1235   1.712   0.018   0.215  1.9618 -5.2356  1.7404
  412SOL    HW2 1236   1.691   2.948   0.210  0.9092 -0.2110  2.0971
  413SOL     OW 1237   1.416   0.348   1.398  0.3349 -0.1620  0.2203
  413SOL    HW1 1238   1.461   0.257   1.407 -1.4953  0.9446  0.7980
  413SOL    HW2 1239   1.333   0.361   1.455  1.8408  0.5964  1.6819
  414SOL     OW 1240   0.367   1.169   0.421 -0.1744  0.7981  0.7020
  414SOL    HW1 1241   0.298   1.093   0.405  2.0890 -0.1516 -0.4796
  414SOL    HW2 1242   0.464   1.141   0.408 -1.3068 -1.0468  0.7957
  415SOL     OW 1243   2.740   1.623   0.201  0.0789  0.2085 -0.0054
  415SOL    HW1 1244   2.831   1.586   0.220 -1.1817  0.5246  0.3957
  415SOL    HW2 1245   2.711   1.670   0.288 -1.7739  0.2676  2.0744
  416SOL     OW 1246   2.715   0.446   2.962 -0.4677 -0.5130 -0.0011
  416SOL    HW1 1247   2.660   0.481   2.888 -0.1542 -0.2388  2.1407
  416SOL    HW2 1248   2.724   0.525   3.026 -1.0750  2.6166  1.9145
  417SOL     OW 1249   2.527   2.875   0.362  0.0064  0.5104  0.0961
  417SOL    HW1 1250   2.569   2.782   0.354 -0.3682 -0.9745  0.7505
  417SOL    HW2 1251   2.587   2.950   0.320 -1.9061 -1.1199 -0.0709
  418SOL     OW 1252   0.412   0.456   0.040 -0.1975 -0.1625 -0.5666
  418SOL    HW1 1253   0.426   0.469   0.140 -0.0676  0.5504 -0.9846
  418SOL    HW2 1254   0.317   0.479   0.011  3.8046 -1.2531 -0.0891
  419SOL     OW 1255   0.678   0.864   0.847  0.0763 -0.5088 -0.1531
  419SOL    HW1 1256   0.675   0.935   0.919 -0.8905  1.5391 -1.1078
  419SOL    HW2 1257   0.651   0.777   0.887 -1.5753 -1.1743  0.2505
  420SOL     OW 1258   0.287   0.670   0.966  0.0228 -0.0986  0.0355
  420SOL    HW1 1259   0.312   0.733   1.038  0.1520 -1.6816 -0.7574
  420SOL    HW2 1260   0.209   0.705   0.912  0.4033 -0.8235 -1.6082
  421SOL     OW 1261   0.761   1.948   0.228  0.0517  0.1888  0.2059
  421SOL    HW1 1262   0.670   1.908   0.200  0.6871 -0.6091  0.3323
  421SOL    HW2 1263   0.804   1.997   0.153  0.3223 -0.5175  0.9267
  422SOL     OW 1264   2.476   0.293   2.216  0.4113 -0.2443  0.7275
  422SOL    HW1 1265   2.530   0.314   2.300  1.4997  0.6914 -0.0546
  422SOL    HW2 1266   2.388   0.262   2.240  0.2531  0.1451  0.3342
  423SOL     OW 1267   2.028   1.749   0.107 -0.2018  0.3525  0.0867
  423SOL    HW1 1268   2.099   1.678   0.092  1.9264 -2.0173  0.3269
  423SOL    HW2 1269   2.070   1.842   0.084 -0.0529  3.2903  2.5034
  424SOL     OW 1270   1.624   1.508   2.346 -0.0215 -0.0006  0.7535
  424SOL    HW1 1271   1.706   1.449   2.338 -3.2886  1.5355 -0.0131
  424SOL    HW2 1272   1.570   1.481   2.428 -1.3058  2.3572 -0.7484
  425SOL     OW 1273   3.045   2.758   2.217 -0.4614  0.4818 -0.0653
  425SOL    HW1 1274   2.991   2.833   2.254 -0.2779 -0.9091  0.9141
  425SOL    HW2 1275   3.084   2.701   2.295  0.7059  1.2531  2.7662
  426SOL     OW 1276   2.300   2.742   0.518 -0.0003  0.2696 -1.1303
  426SOL    HW1 1277   2.224   2.691   0.473 -1.4452  1.9477 -2.7244
  426SOL    HW2 1278   2.345   2.801   0.448 -1.1682 -0.1951  0.0903
  427SOL     OW 1279   0.608   1.060   2.472 -0.1002  0.0546 -0.1563
  427SOL    HW1 1280   0.633   1.157   2.453 -1.0570  2.1276 -0.9240
  427SOL    HW2 1281   0.665   1.027   2.549  1.2444 -3.3545 -0.5214
  428SOL     OW 1282   2.782   1.146   2.596  0.9017  0.1604  0.3430
  428SOL    HW1 1283   2.779   1.067   2.535 -0.5162  1.4123  0.6914
  428SOL    HW2 1284   2.800   1.110   2.689  0.7846 -3.1194 -1.2377
  429SOL     OW 1285   2.486   0.222   0.523  0.1567 -0.3524  0.3565
  429SOL    HW1 1286   2.573   0.181   0.497 -1.1443  0.3243 -1.0356
  429SOL    HW2 1287   2.404   0.171   0.488 -1.8319 -0.0755 -0.5371
  430SOL     OW 1288   1.495   1.906   2.312  0.3265  0.2271 -0.4195
  430SOL    HW1 1289   1.561   1.971   2.271 -3.0068 -1.6042  1.2432
  430SOL    HW2 1290   1.418   1.959   2.352  0.6644  0.9294 -0.2929
  431SOL     OW 1291   0.097   1.808   1.855  0.4748 -0.4893  0.1254
  431SOL    HW1 1292   0.162   1.736   1.870 -1.1856  3.4925 -1.8550
  431SOL    HW2 1293   0.132   1.877   1.791  4.4224 -1.0916  1.2309
  432SOL     OW 1294   1.248   2.131   2.524  0.2738 -0.0921 -0.0923
  432SOL    HW1 1295   1.230   2.085   2.435 -0.6726  1.4517  0.0994
  432SOL    HW2 1296   1.301   2.212   2.510 -0.6548  1.0882 -0.5134
  433SOL     OW 1297   1.029   2.534   0.584  0.0329 -0.1774 -0.1383
  433SOL    HW1 1298   0.968   2.563   0.507  0.0561  1.9589  1.7320
  433SOL    HW2 1299   1.100   2.604   0.595 -2.5758  0.6874  0.8753
  434SOL     OW 1300   0.168   2.144   2.536  0.3226  0.3814  0.1723
  434SOL    HW1 1301   0.155   2.237   2.567  1.5130 -0.5617  0.2812
  434SOL    HW2 1302   0.207   2.155   2.442 -0.1819  0.7414 -1.2148
  435SOL     OW 1303   0.266   1.400   0.567 -0.2998  0.3813  0.1353
  435SOL    HW1 1304   0.194   1.380   0.640 -1.1377 -1.0883  1.1865
  435SOL    HW2 1305   0.304   1.310   0.532  0.3056 -2.3645 -2.5392
  436SOL     OW 1306   0.460   2.399   1.719  0.7456  0.2460  0.3681
  436SOL    HW1 1307   0.376   2.438   1.671  1.1255  2.0633 -2.7436
  436SOL    HW2 1308   0.479   2.300   1.706  1.3055 -1.4640 -1.5680
  437SOL     OW 1309   1.174   0.513   0.409 -0.2800 -0.4163 -0.9918
  437SOL    HW1 1310   1.179   0.447   0.336 -1.0139  2.5897  1.5371
  437SOL    HW2 1311   1.074   0.528   0.431  1.4266 -1.0548  0.1139
  438SOL     OW 1312   0.521   2.253   0.922  0.1466 -1.1359 -0.2440
  438SOL    HW1 1313   0.607   2.290   0.952 -1.6742  0.2751  1.3020
  438SOL    HW2 1314   0.490   2.186   0.985  1.3419 -1.4665 -1.9389
  439SOL     OW 1315   0.671   2.618   1.824 -0.4765 -0.0375  0.3078
  439SOL    HW1 1316   0.594   2.579   1.875 -1.3078 -0.2817  0.3641
  439SOL    HW2 1317   0.672   2.574   1.737  2.1874 -0.5823  0.1926
  440SOL     OW 1318   1.480   0.059   1.500 -0.2658 -0.4687 -0.3422
  440SOL    HW1 1319   1.566   0.090   1.553  2.6928 -0.6629  2.9850
  440SOL    HW2 1320   1.507   0.004   1.420 -0.5865  2.2816 -0.9846
  441SOL     OW 1321   0.293   0.097   1.488 -0.2340 -0.3219  0.1291
  441SOL    HW1 1322   0.354   0.027   1.444  0.2086  1.2898 -0.4753
  441SOL    HW2 1323   0.333   0.187   1.494 -0.8500 -1.4916 -0.6637
  442SOL     OW 1324   2.036   1.984   0.576 -0.0068  0.5281 -0.1482
  442SOL    HW1 1325   1.986   1.895   0.552  1.0152 -3.7947  0.6441
  442SOL    HW2 1326   2.083   2.011   0.492 -0.5186 -2.5440 -0.2321
  443SOL     OW 1327   2.640   0.328   2.448  0.0644  0.1287 -0.2954
  443SOL    HW1 1328   2.705   0.405   2.439 -0.8473 -1.7780  2.0068
  443SOL    HW2 1329   2.685   0.238   2.482  0.5452 -2.0934  1.3772
  444SOL     OW 1330   2.207   0.988   1.842 -0.0148 -0.4991  0.4496
  444SOL    HW1 1331   2.201   1.060   1.916  0.0522  0.1528 -1.8827
  444SOL    HW2 1332   2.190   0.895   1.869  0.2658  1.0532 -1.9140
  445SOL     OW 1333   2.823   2.172   1.652 -0.2385  0.1842  0.2459
  445SOL    HW1 1334   2.814   2.080   1.705 -4.8020 -1.6890  1.0147
  445SOL    HW2 1335   2.918   2.203   1.655  0.0569 -3.7891  1.1043
  446SOL     OW 1336   2.850   1.535   0.705  0.5258 -0.0121 -0.1642
  446SOL    HW1 1337   2.778   1.495   0.646 -1.6121 -1.3271 -0.1550
  446SOL    HW2 1338   2.938   1.488   0.699 -0.4452 -2.5479 -2.6358
  447SOL     OW 1339   0.957   1.417   0.662  0.1640  0.4819 -0.3589
  447SOL    HW1 1340   0.963   1.345   0.737 -1.8699 -0.7064  0.7878
  447SOL    HW2 1341   1.029   1.407   0.595 -2.6898 -3.3108  1.6497
  448SOL     OW 1342   1.503   1.258   1.527 -0.7395 -0.6986  0.8090
  448SOL    HW1 1343   1.569   1.329   1.557  2.5465 -0.6970  0.1567
  448SOL    HW2 1344   1.487   1.273   1.428  0.3902  0.3224  1.5628
  449SOL     OW 1345   0.626   1.432   3.085 -0.1775  0.1186 -0.4052
  449SOL    HW1 1346   0.536   1.444   0.024  1.5352  1.3555 -2.0161
  449SOL    HW2 1347   0.621   1.406   2.988  0.0468  0.5953  1.1772
  450SOL     OW 1348   2.294   2.155   1.976  0.5407 -0.3451  0.1397
  450SOL    HW1 1349   2.334   2.085   1.917 -2.2223 -0.0405 -0.2916
  450SOL    HW2 1350   2.327   2.250   1.964 -2.4302 -0.2874  0.9335
  451SOL     OW 1351   1.653   2.924   2.224  0.3796 -0.3759 -0.2567
  451SOL    HW1 1352   1.559   2.886   2.222 -1.8958  2.4465 -1.2973
  451SOL    HW2 1353   1.674   2.951   2.317 -2.0604 -0.1382 -1.8371
  452SOL     OW 1354   1.118   3.097   1.350 -0.3717  0.2159 -0.1790
  452SOL    HW1 1355   1.157   3.005   1.333  2.7864  0.9674  2.0868
  452SOL    HW2 1356   1.019   3.094   1.364  0.8849  0.4093  1.3739
  453SOL     OW 1357   1.390   0.915   0.857  0.0356  0.1484  0.3008
  453SOL    HW1 1358   1.325   0.844   0.826  0.8108  2.7349  2.1609
  453SOL    HW2 1359   1.377   0.999   0.803 -0.0102 -0.0371  1.1180
  454SOL     OW 1360   0.476   1.490   1.043 -0.0177  0.0529 -0.1431
  454SOL    HW1 1361   0.467   1.482   0.941 -0.0893  1.2254 -0.7045
  454SOL    HW2 1362   0.570   1.482   1.078 -2.4536 -0.4533  2.4702
  455SOL     OW 1363   2.863   3.090   3.018 -0.1788  0.3294  0.0339
  455SOL    HW1 1364   2.791   3.023   2.994 -1.2858 -1.0930 -0.7123
  455SOL    HW2 1365   2.829   0.080   2.979 -3.4281 -1.4092  0.9054
  456SOL     OW 1366   2.670   2.374   1.203 -0.6374 -0.2615  0.0051
  456SOL    HW1 1367   2.611   2.452   1.226 -0.8832 -0.4099  1.4434
  456SOL    HW2 1368   2.663   2.347   1.103 -0.4906 -0.7167  0.5241
  457SOL     OW 1369   1.440   0.135   0.033  0.0331  0.0404  0.0310
  457SOL    HW1 1370   1.437   0.221   3.081 -0.3081  0.8939  0.6102
  457SOL    HW2 1371   1.352   0.122   0.092 -6.0330  2.0631  0.6353
  458SOL     OW 1372   2.781   0.116   0.481  0.4972  0.4206 -0.0457
  458SOL    HW1 1373   2.778   0.161   0.572 -0.7345 -1.0959  3.0409
  458SOL    HW2 1374   2.827   0.028   0.490  1.3125  2.6366 -0.2639
  459SOL     OW 1375   2.051   0.429   2.449 -0.0563 -0.2927 -0.4515
  459SOL    HW1 1376   2.139   0.400   2.496  0.2159 -1.1895 -1.3595
  459SOL    HW2 1377   1.982   0.350   2.462 -2.0973 -1.9164  0.9085
  460SOL     OW 1378   2.777   0.188   2.856 -0.1775 -0.9025  0.3340
  460SOL    HW1 1379   2.747   0.283   2.877  0.1040  1.7353 -1.7778
  460SOL    HW2 1380   2.720   0.140   2.789  3.1982  0.4449  0.9557
  461SOL     OW 1381   0.808   1.777   1.248  0.2838  0.0791 -0.4590
  461SOL    HW1 1382   0.864   1.706   1.290 -0.4908 -0.1500  1.4711
  461SOL    HW2 1383   0.805   1.780   1.147 -1.1681  2.0362  2.6586
  462SOL     OW 1384   2.292   0.064   1.597 -0.4189 -0.2861  0.0864
  462SOL    HW1 1385   2.331   0.085   1.687 -3.2918  0.9957 -1.6217
  462SOL    HW2 1386   2.200   0.026   1.595  2.7027 -0.7100  0.2076
  463SOL     OW 1387   2.750   1.252   0.410 -0.2806 -0.2894  0.0518
  463SOL    HW1 1388   2.764   1.205   0.321  0.3910  0.5480 -1.4518
  463SOL    HW2 1389   2.659   1.225   0.445 -0.3800  1.2806  0.7626
  464SOL     OW 1390   0.203   2.608   1.234  0.5696 -0.5079  0.0654
  464SOL    HW1 1391   0.152   2.648   1.157 -0.8543  0.0294 -1.7291
  464SOL    HW2 1392   0.130   2.577   1.297  1.4873  0.8470 -1.8513
  465SOL     OW 1393   0.153   1.621   0.460 -0.4607  0.0285  0.4608
  465SOL    HW1 1394   0.140   1.609   0.359 -2.8623 -0.4218  1.3138
  465SOL    HW2 1395   0.185   1.536   0.509  0.1878 -1.8952  0.1717
  466SOL     OW 1396   1.048   0.355   2.570  0.4487 -1.1180  0.1770
  466SOL    HW1 1397   1.024   0.325   2.663  1.4539  0.0471  0.1182
  466SOL    HW2 1398   1.052   0.457   2.573 -4.1990 -0.0437  1.3281
  467SOL     OW 1399   0.655   0.670   2.228  0.2540 -0.3811  0.0759
  467SOL    HW1 1400   0.714   0.652   2.149  0.1827  0.0100  1.6855
  467SOL    HW2 1401   0.655   0.598   2.304 -1.7771 -1.8349 -1.4832
  468SOL     OW 1402   0.647   0.947   2.216  0.7540 -0.5662  0.2302
  468SOL    HW1 1403   0.644   0.845   2.228 -1.0001  0.4187  1.1164
  468SOL    HW2 1404   0.642   0.986   2.309  0.7199 -1.8157  0.4723
  469SOL     OW 1405   0.049   2.057   0.327 -0.0964 -0.2916 -0.2831
  469SOL    HW1 1406   0.013   1.962   0.308 -1.2693 -1.2605 -1.3924
  469SOL    HW2 1407   3.075   2.126   0.325 -0.1996 -1.6081  1.6538
  470SOL     OW 1408   2.474   2.028   2.877  0.0236  0.2430  0.3291
  470SOL    HW1 1409   2.373   2.006   2.873 -2.4975 -1.1962 -0.2530
  470SOL    HW2 1410   2.522   1.974   2.811 -2.6128 -0.3501  3.5697
  471SOL     OW 1411   2.072   0.784   2.178  0.8174 -0.2133  0.1273
  471SOL    HW1 1412   2.120   0.873   2.173  2.0562 -3.0727 -0.9356
  471SOL    HW2 1413   2.046   0.747   2.087 -0.8499  0.4980  2.0720
  472SOL     OW 1414   0.701   2.720   1.284 -0.1072  0.0302 -0.1091
  472SOL    HW1 1415   0.632   2.646   1.277  0.1727  3.4022  0.7317
  472SOL    HW2 1416   0.751   2.744   1.198 -2.6269 -2.5785  3.6489
  473SOL     OW 1417   0.654   3.065   2.575 -0.4089  0.3599 -0.3215
  473SOL    HW1 1418   0.637   3.056   2.678 -2.4493 -0.0351  2.2424
  473SOL    HW2 1419   0.738   0.023   2.555 -0.5180 -1.2850  2.0967
  474SOL     OW 1420   1.862   0.066   1.778 -0.1303 -0.1898  0.0984
  474SOL    HW1 1421   1.809   0.104   1.703  2.3182 -0.4346  1.5850
  474SOL    HW2 1422   1.817   0.010   1.846  4.5559  0.0130 -0.5621
  475SOL     OW 1423   1.652   3.064   0.991  0.5715 -0.1812  0.2047
  475SOL    HW1 1424   1.603   0.040   0.940  0.3273  1.3515  0.3510
  475SOL    HW2 1425   1.718   3.018   0.932 -1.0222 -2.2270 -0.0154
  476SOL     OW 1426   0.531   0.581   0.922 -0.6661  0.3453 -0.3203
  476SOL    HW1 1427   0.438   0.618   0.940  1.3671 -1.1563 -2.0380
  476SOL    HW2 1428   0.591   0.599   1.005 -1.2598  1.3953  0.2971
  477SOL     OW 1429   1.318   2.453   0.536 -0.1469  0.6415 -0.3009
  477SOL    HW1 1430   1.366   2.377   0.488 -2.4642  1.0830  0.0923
  477SOL    HW2 1431   1.228   2.420   0.575 -2.5610  0.3913  0.5920
  478SOL     OW 1432   0.198   2.405   2.570 -0.0270  0.3643 -0.4624
  478SOL    HW1 1433   0.288   2.407   2.527 -2.1523 -1.5943 -0.1780
  478SOL    HW2 1434   0.131   2.470   2.532 -0.5065 -0.1096 -3.5569
  479SOL     OW 1435   2.676   0.238   1.296 -0.3877 -0.0328 -0.2882
  479SOL    HW1 1436   2.772   0.253   1.329 -0.7813  0.0492 -1.2479
  479SOL    HW2 1437   2.683   0.193   1.204  2.2095  1.1765  1.0994
  480SOL     OW 1438   0.308   2.819   0.409  0.1815 -0.4948 -0.5951
  480SOL    HW1 1439   0.288   2.919   0.407 -2.5013 -0.0096  0.2106
  480SOL    HW2 1440   0.224   2.766   0.397  0.1951  0.2135 -0.6634
  481SOL     OW 1441   2.456   2.053   1.572  0.9728 -0.0516 -0.2046
  481SOL    HW1 1442   2.452   1.969   1.510  0.0264 -0.2539  2.0554
  481SOL    HW2 1443   2.468   2.131   1.509 -1.1495  2.0576  1.7978
  482SOL     OW 1444   1.021   2.430   2.864 -0.1116 -0.0712 -0.4503
  482SOL    HW1 1445   1.104   2.375   2.843 -0.2766  0.5932  1.3969
  482SOL    HW2 1446   0.942   2.398   2.809  0.0231 -0.7801 -1.0307
  483SOL     OW 1447   0.513   2.430   2.363  0.0659 -0.0781 -0.1096
  483SOL    HW1 1448   0.514   2.530   2.372 -0.2467 -0.8336 -1.0048
  483SOL    HW2 1449   0.530   2.407   2.264  0.8836 -0.6129  0.2231
  484SOL     OW 1450   1.182   0.461   1.492 -0.3310 -0.1768 -0.2731
  484SOL    HW1 1451   1.104   0.443   1.551  1.3942 -0.7788  0.6000
  484SOL    HW2 1452   1.199   0.559   1.497  4.6401 -2.3781 -2.2795
  485SOL     OW 1453   2.142   1.003   2.481  0.5782 -0.2977  0.7414
  485SOL    HW1 1454   2.055   0.958   2.501  2.9833  0.4316 -1.3790
  485SOL    HW2 1455   2.163   1.079   2.542  1.0134 -0.7431  1.8764
  486SOL     OW 1456   2.344   2.913   0.989 -0.0271  0.0780  0.2396
  486SOL    HW1 1457   2.321   2.832   0.930  1.0704  0.4351 -0.9405
  486SOL    HW2 1458   2.360   2.995   0.934  0.0824 -0.6681  1.6531
  487SOL     OW 1459   0.789   2.242   1.724  0.7809 -0.3092 -0.1488
  487SOL    HW1 1460   0.741   2.166   1.679  0.3275  1.4912  1.0461
  487SOL    HW2 1461   0.839   2.301   1.655  1.5619  1.7888 -0.7693
  488SOL     OW 1462   2.623   1.341   2.777  0.1367 -0.2155  0.1088
  488SOL    HW1 1463   2.627   1.314   2.679  0.6105  0.1957  0.5140
  488SOL    HW2 1464   2.542   1.298   2.818 -2.6682 -2.2878  1.4485
  489SOL     OW 1465   2.040   3.011   0.875  0.0290  0.3133 -0.1139
  489SOL    HW1 1466   1.953   3.036   0.824 -1.0152 -2.3643 -2.6587
  489SOL    HW2 1467   2.118   2.991   0.812  0.0421 -1.1878 -2.3353
  490SOL     OW 1468   0.984   1.291   0.245  0.7525  0.1701  0.4677
  490SOL    HW1 1469   1.036   1.331   0.323 -0.1643 -1.1637 -1.0419
  490SOL    HW2 1470   0.919   1.354   0.198 -0.2013 -0.9454 -0.0200
  491SOL     OW 1471   0.307   2.355   1.287  0.3801 -0.3073 -0.3349
  491SOL    HW1 1472   0.289   2.448   1.254  1.4875 -0.7755 -0.0824
  491SOL    HW2 1473   0.233   2.310   1.345 -2.5166 -3.3695  1.4747
  492SOL     OW 1474   1.217   1.747   2.135 -0.1894  0.2249  0.9260
  492SOL    HW1 1475   1.292   1.683   2.153  0.0789  1.1915  1.6455
  492SOL    HW2 1476   1.231   1.817   2.059 -0.6122  3.8229 -0.3155
  493SOL     OW 1477   2.779   2.470   0.774  0.0497  0.0322  0.5313
  493SOL    HW1 1478   2.874   2.487   0.733 -1.3014 -0.3802 -1.7323
  493SOL    HW2 1479   2.753   2.539   0.842 -1.3009  2.4693  1.2018
  494SOL     OW 1480   0.106   2.146   0.594  0.2254 -0.4865 -0.1523
  494SOL    HW1 1481   0.021   2.119   0.652 -1.7498 -0.0751  2.3855
  494SOL    HW2 1482   0.100   2.107   0.500 -0.1179  0.9586 -0.2627
  495SOL     OW 1483   2.854   2.801   0.062 -0.0494  0.3249 -0.0288
  495SOL    HW1 1484   2.868   2.720   0.122  0.0856 -0.2067 -1.0761
  495SOL    HW2 1485   2.943   2.847   0.038  1.6501  0.0075  1.0998
  496SOL     OW 1486   2.533   0.426   1.421 -0.6498  0.9285 -0.1820
  496SOL    HW1 1487   2.450   0.458   1.370 -2.0592 -1.7993 -2.2483
  496SOL    HW2 1488   2.584   0.362   1.363 -0.7888  2.2940  0.1519
  497SOL     OW 1489   2.937   1.152   3.035 -0.1127  0.2946  0.1017
  497SOL    HW1 1490   3.021   1.167   3.092  0.7930 -0.8389  0.4279
  497SOL    HW2 1491   2.898   1.241   3.005  1.3985 -0.0303  1.2481
  498SOL     OW 1492   2.904   1.641   1.896 -0.1544  0.4568 -0.2073
  498SOL    HW1 1493   2.949   1.557   1.862  0.0364  3.3744 -3.1916
  498SOL    HW2 1494   2.978   1.709   1.911 -1.2592 -0.0252  2.1913
  499SOL     OW 1495   0.812   2.299   2.702  0.1307  0.4435 -0.4871
  499SOL    HW1 1496   0.792   2.368   2.629  0.5456  2.3284  0.3695
  499SOL    HW2 1497   0.741   2.230   2.716  1.9901  2.3203 -0.3784
  500SOL     OW 1498   1.885   0.522   3.033  0.2622  0.0963  0.1181
  500SOL    HW1 1499   1.985   0.519   3.034 -4.8652  1.0896 -2.6833
  500SOL    HW2 1500   1.848   0.431   3.011  0.7722  2.6657  0.9640
  501SOL     OW 1501   1.117   0.269   1.818 -0.0279 -0.7533 -0.5001
  501SOL    HW1 1502   1.169   0.348   1.853  1.9573  1.6449 -0.9946
  501SOL    HW2 1503   1.165   0.185   1.842 -3.1231  3.4571  0.7371
  502SOL     OW 1504   2.600   0.746   1.614  0.4825  0.0084  0.0909
  502SOL    HW1 1505   2.633   0.652   1.598 -0.3508 -1.8981  0.7326
  502SOL    HW2 1506   2.536   0.768   1.536  0.6956  0.7630 -0.0023
  503SOL     OW 1507   2.394   2.013   2.213  0.5259  0.5875  0.1495
  503SOL    HW1 1508   2.461   2.089   2.229 -2.5600  1.3399 -0.4185
  503SOL    HW2 1509   2.335   2.042   2.135 -0.1255  1.4713 -1.3153
  504SOL     OW 1510   1.472   0.911   1.488 -0.2538 -0.1198 -0.5782
  504SOL    HW1 1511   1.449   1.009   1.510  0.5470  2.5368  2.0180
  504SOL    HW2 1512   1.389   0.853   1.493 -2.6053  1.1527 -0.2671
  505SOL     OW 1513   0.858   0.645   1.689  0.3637 -0.0038 -0.6294
  505SOL    HW1 1514   0.937   0.704   1.660 -0.7954 -1.1249 -0.8474
  505SOL    HW2 1515   0.878   0.545   1.681 -0.2373 -0.5615  2.2745
  506SOL     OW 1516   0.317   0.170   2.740 -0.5591  0.2628  0.2243
  506SOL    HW1 1517   0.384   0.202   2.812  3.8725 -1.2421  1.3826
  506SOL    HW2 1518   0.355   0.096   2.687 -1.7505 -0.6204 -0.0578
  507SOL     OW 1519   0.156   0.150   0.229  0.1483  0.4301 -0.2920
  507SOL    HW1 1520   0.153   0.247   0.240 -1.0163  0.7267 -0.9086
  507SOL    HW2 1521   0.105   0.123   0.144 -1.2488 -1.0745  1.6493
  508SOL     OW 1522   1.049   0.856   1.674 -0.1512 -0.0527  0.4082
  508SOL    HW1 1523   1.023   0.953   1.645 -1.8659  0.1735  1.4112
  508SOL    HW2 1524   1.012   0.838   1.766 -1.7304 -0.2262  0.9316
  509SOL     OW 1525   1.556   2.089   1.110 -0.1498  0.2182 -0.0964
  509SOL    HW1 1526   1.556   2.046   1.203  0.7319  1.2206 -0.3985
  509SOL    HW2 1527   1.543   2.021   1.033  0.0677 -0.6223  3.1543
  510SOL     OW 1528   2.407   1.435   2.057  0.0171  0.3491  0.3162
  510SOL    HW1 1529   2.419   1.516   1.996  0.2253 -0.8141  2.1024
  510SOL    HW2 1530   2.403   1.455   2.157  0.8805 -0.0718  1.0664
  511SOL     OW 1531   0.947   2.324   1.533  0.1250 -0.2222 -0.3461
  511SOL    HW1 1532   0.957   2.401   1.468 -1.4503 -3.0278  0.4652
  511SOL    HW2 1533   1.024   2.257   1.537  0.3933 -2.4191 -0.8516
  512SOL     OW 1534   2.743   1.648   0.960 -0.1781  1.1131  0.0473
  512SOL    HW1 1535   2.765   1.601   0.871 -2.7362 -3.4673  1.4839
  512SOL    HW2 1536   2.816   1.709   0.997  2.2347 -1.0412  0.2965
  513SOL     OW 1537   0.153   1.469   2.811  0.0177  0.2178  0.6569
  513SOL    HW1 1538   0.207   1.498   2.730 -2.5106 -0.4557 -0.2482
  513SOL    HW2 1539   0.211   1.408   2.871  1.2157  0.0633  0.8977
  514SOL     OW 1540   2.776   2.445   2.297  0.7316 -0.1889  0.2520
  514SOL    HW1 1541   2.869   2.411   2.312  0.4428  0.2786 -0.8720
  514SOL    HW2 1542   2.769   2.502   2.215 -2.7056  0.4079  2.2093
  515SOL     OW 1543   2.289   1.166   0.629  0.7432 -0.0017  0.2039
  515SOL    HW1 1544   2.220   1.095   0.645 -0.4235 -0.8249  0.3585
  515SOL    HW2 1545   2.298   1.236   0.702  0.3445  2.7782  0.9469
  516SOL     OW 1546   2.463   1.814   0.097  0.2948  0.2998  0.0570
  516SOL    HW1 1547   2.375   1.805   0.050 -1.4174  1.9792 -0.0242
  516SOL    HW2 1548   2.529   1.735   0.091  0.3447  0.2875 -0.8996
  517SOL     OW 1549   0.662   1.022   2.817 -0.0015 -0.0045  0.0012
  517SOL    HW1 1550   0.713   0.977   2.741 -1.4966  1.3196 -2.5445
  517SOL    HW2 1551   0.725   1.062   2.888  2.3753  1.4187  2.7727
  518SOL     OW 1552   2.868   2.954   2.316 -0.1054 -0.0098  1.0361
  518SOL    HW1 1553   2.874   3.000   2.224 -1.4663 -2.4260 -0.3465
  518SOL    HW2 1554   2.778   2.959   2.358 -0.7255  0.7735 -0.0373
  519SOL     OW 1555   1.288   1.589   2.843  0.3541  0.4652  0.1480
  519SOL    HW1 1556   1.368   1.596   2.911 -1.9896 -2.9298 -1.5121
  519SOL    HW2 1557   1.219   1.536   2.894  1.3727  2.6078 -0.2762
  520SOL     OW 1558   2.561   2.695   2.204 -0.0720  0.4708  0.1147
  520SOL    HW1 1559   2.546   2.770   2.146  1.3013 -1.7567  1.1173
  520SOL    HW2 1560   2.619   2.625   2.162  0.2692 -1.1528  0.5953
  521SOL     OW 1561   0.569   1.502   2.028  0.0560 -0.1125 -0.2367
  521SOL    HW1 1562   0.551   1.525   2.123 -0.7576 -1.1560 -1.8602
  521SOL    HW2 1563   0.496   1.443   1.994  0.7159  3.9075  2.1257
  522SOL     OW 1564   0.859   2.695   2.095 -0.2853 -0.3860  0.2521
  522SOL    HW1 1565   0.777   2.750   2.110 -0.2634  1.2071  0.5040
  522SOL    HW2 1566   0.919   2.754   2.038  0.8336  1.7142 -2.6896
  523SOL     OW 1567   2.956   2.522   1.639 -0.0758 -0.2760  0.4852
  523SOL    HW1 1568   2.967   2.554   1.736  1.1217  1.1310  0.3389
  523SOL    HW2 1569   2.863   2.488   1.614  1.6354 -0.1931  0.5467
  524SOL     OW 1570   1.592   2.562   0.638  0.0981 -0.0519 -0.5876
  524SOL    HW1 1571   1.493   2.554   0.634 -0.4774  0.5914  1.1958
  524SOL    HW2 1572   1.631   2.475   0.680  3.2107 -2.1956  3.5361
  525SOL     OW 1573   2.758   0.846   0.976  0.2328 -0.6490  0.9126
  525SOL    HW1 1574   2.835   0.901   0.931  1.3825  4.6645 -2.4977
  525SOL    HW2 1575   2.670   0.893   0.953 -3.0726  0.5813 -0.0670
  526SOL     OW 1576   1.324   2.425   0.835 -0.4625 -0.5407 -0.5085
  526SOL    HW1 1577   1.388   2.356   0.871 -0.0468 -0.0238 -2.2363
  526SOL    HW2 1578   1.366   2.489   0.768 -0.8670 -1.6673  0.2739
  527SOL     OW 1579   2.433   2.201   0.915  0.2211 -0.4600  0.0535
  527SOL    HW1 1580   2.383   2.233   1.003 -1.2824  0.4738  3.2368
  527SOL    HW2 1581   2.534   2.223   0.918  0.3731  0.7990  0.2718
  528SOL     OW 1582   2.154   2.966   2.845  0.2615  0.1410  0.2966
  528SOL    HW1 1583   2.200   3.055   2.854  0.7408  1.9389  1.4658
  528SOL    HW2 1584   2.197   2.897   2.909 -0.6893  0.1376 -0.1024
  529SOL     OW 1585   1.409   1.556   2.182  1.0625  0.1879 -0.0877
  529SOL    HW1 1586   1.466   1.528   2.265  1.3827  1.8068 -1.6083
  529SOL    HW2 1587   1.475   1.576   2.107 -1.5475  0.1104 -1.6368
  530SOL     OW 1588   2.436   1.229   2.504 -0.0343  0.2487 -0.4211
  530SOL    HW1 1589   2.466   1.159   2.573  1.8162 -0.3673 -1.3322
  530SOL    HW2 1590   2.433   1.189   2.414 -1.5169 -0.8483  1.7052
  531SOL     OW 1591   0.583   0.695   3.042 -0.5747 -0.2111  0.2468
  531SOL    HW1 1592   0.686   0.687   3.032 -0.1782  0.9270  2.4351
  531SOL    HW2 1593   0.548   0.609   3.079  1.2674 -0.8825  0.2548
  532SOL     OW 1594   1.457   1.571   0.501 -0.2091 -0.2053  0.0732
  532SOL    HW1 1595   1.524   1.602   0.571  1.1806  1.3775  0.4807
  532SOL    HW2 1596   1.380   1.640   0.501 -3.1446 -1.7380 -0.3102
  533SOL     OW 1597   0.189   0.813   1.981 -0.1607  0.1974  0.0549
  533SOL    HW1 1598   0.197   0.833   1.883 -0.2336 -0.1267 -0.2101
  533SOL    HW2 1599   0.277   0.780   2.015 -0.8288 -0.4576 -2.4966
  534SOL     OW 1600   1.313   0.698   2.477  0.1122  0.8027 -0.4131
  534SOL    HW1 1601   1.409   0.727   2.455 -2.2386 -1.1728  1.7528
  534SOL    HW2 1602   1.274   0.780   2.525 -0.0645  0.4848  1.2600
  535SOL     OW 1603   0.721   0.549   0.270 -0.6744  0.5295  0.1484
  535SOL    HW1 1604   0.644   0.511   0.317 -2.0718 -0.6881 -2.6858
  535SOL    HW2 1605   0.694   0.627   0.214 -0.9894 -1.8047 -2.3676
  536SOL     OW 1606   0.870   0.394   2.973 -0.6201  0.7342  0.3644
  536SOL    HW1 1607   0.869   0.497   2.967  2.5243 -2.0704 -0.5504
  536SOL    HW2 1608   0.847   0.367   3.069  0.6728 -1.8295 -0.7956
  537SOL     OW 1609   1.205   0.026   1.596 -0.0522  0.0791 -0.3469
  537SOL    HW1 1610   1.183   0.040   1.500 -1.3808 -1.3976 -1.0451
  537SOL    HW2 1611   1.296   0.071   1.617  0.6730  1.5024  5.3639
  538SOL     OW 1612   0.306   2.886   0.091  0.3205  0.2724  0.8610
  538SOL    HW1 1613   0.324   2.969   0.031  0.0515  3.1908  0.2364
  538SOL    HW2 1614   0.397   2.851   0.134  0.6443 -1.4337  1.3322
  539SOL     OW 1615   2.590   1.277   1.919  0.0968  0.5046  0.0440
  539SOL    HW1 1616   2.543   1.208   1.861  1.5678  0.5681 -1.0040
  539SOL    HW2 1617   2.520   1.340   1.955  2.2210 -2.0370 -1.2434
  540SOL     OW 1618   2.185   2.086   1.613  0.0552 -0.1020  0.1893
  540SOL    HW1 1619   2.286   2.066   1.610  1.8688  1.8843 -0.4499
  540SOL    HW2 1620   2.125   2.036   1.679 -1.1794 -1.3652  1.1272
  541SOL     OW 1621   0.617   2.557   1.561 -0.0198 -0.1379  0.0024
  541SOL    HW1 1622   0.632   2.526   1.469  0.4701  0.7048 -0.3603
  541SOL    HW2 1623   0.544   2.511   1.614 -0.3582 -0.5999 -2.4408
  542SOL     OW 1624   2.555   0.717   1.892 -0.4947 -0.0187  0.1075
  542SOL    HW1 1625   2.570   0.736   1.797  1.0464 -1.8381  1.5956
  542SOL    HW2 1626   2.526   0.622   1.909 -0.2613  0.2694 -2.5016
  543SOL     OW 1627   0.920   0.595   0.859 -0.0260 -0.0718 -0.2172
  543SOL    HW1 1628   0.921   0.695   0.864 -1.6340 -2.8494  1.3252
  543SOL    HW2 1629   0.954   0.546   0.938 -1.5317  2.5262 -2.2650
  544SOL     OW 1630   2.092   2.099   1.339  0.0828 -0.4686  0.3712
  544SOL    HW1 1631   2.130   2.110   1.435  1.4086 -1.5455  2.0797
  544SOL    HW2 1632   2.118   2.008   1.313 -2.1925 -1.2783 -1.7181
  545SOL     OW 1633   1.476   1.294   1.264 -0.3788  0.1360  0.1992
  545SOL    HW1 1634   1.516   1.226   1.198 -0.8536  0.0568 -2.0706
  545SOL    HW2 1635   1.551   1.358   1.288 -0.7858 -0.0533 -0.2327
  546SOL     OW 1636   3.094   0.025   2.803 -0.0884 -1.1305  0.0339
  546SOL    HW1 1637   3.027   3.065   2.851 -0.0678  0.9212  0.1108
  546SOL    HW2 1638   3.098   0.122   2.839  0.4204  0.6707 -0.3099
  547SOL     OW 1639   2.246   0.349   2.608  0.0758  0.6928 -0.0037
  547SOL    HW1 1640   2.215   0.297   2.692 -1.1296  1.4834  0.6563
  547SOL    HW2 1641   2.275   0.444   2.624 -0.9014 -1.7363  1.7557
  548SOL     OW 1642   2.716   2.073   2.497 -0.1875  0.2803 -0.2218
  548SOL    HW1 1643   2.673   2.003   2.550  1.4145  2.1433 -2.3542
  548SOL    HW2 1644   2.790   2.116   2.553  0.2842 -0.7202 -0.6800
  549SOL     OW 1645   2.442   0.418   0.712 -0.1552 -0.0998 -0.1169
  549SOL    HW1 1646   2.528   0.474   0.728  0.3492 -2.4635  2.1595
  549SOL    HW2 1647   2.448   0.363   0.625 -0.2427 -0.2368 -0.7118
  550SOL     OW 1648   2.754   1.123   0.154 -0.1858 -0.0089 -0.3030
  550SOL    HW1 1649   2.822   1.126   0.081 -0.1699 -2.5758  0.2361
  550SOL    HW2 1650   2.677   1.184   0.131  1.0696  1.2137 -0.5663
  551SOL     OW 1651   1.361   2.423   1.429 -0.4254 -0.1167  0.5760
  551SOL    HW1 1652   1.355   2.432   1.325  0.6503  1.2768 -0.7454
  551SOL    HW2 1653   1.455   2.395   1.461  0.4025  0.1519  1.2352
  552SOL     OW 1654   2.743   2.468   2.831 -0.2683  0.4975 -0.0856
  552SOL    HW1 1655   2.762   2.484   2.732 -0.0532  1.3222 -1.6519
  552SOL    HW2 1656   2.644   2.474   2.853  0.9804 -1.4144  0.7221
  553SOL     OW 1657   0.653   2.947   0.662 -0.5495  0.9933 -0.1813
  553SOL    HW1 1658   0.601   3.023   0.705  0.2505  0.4417  1.1260
  553SOL    HW2 1659   0.715   2.978   0.586 -0.1972  0.3551 -0.5269
  554SOL     OW 1660   1.755   2.022   1.887 -0.9044 -0.6509 -0.3108
  554SOL    HW1 1661   1.779   2.121   1.885 -0.2862  0.0021  0.1685
  554SOL    HW2 1662   1.785   1.982   1.974  0.0082  2.3655  1.2449
  555SOL     OW 1663   1.300   2.534   1.949 -0.0199 -0.2603  0.5432
  555SOL    HW1 1664   1.213   2.541   1.898 -1.9602  0.0347 -0.2735
  555SOL    HW2 1665   1.306   2.600   2.024  2.1178 -0.3582 -0.4737
  556SOL     OW 1666   1.666   1.632   0.670  0.2154  0.5792 -0.3054
  556SOL    HW1 1667   1.674   1.691   0.755  2.7103  0.6104  2.2686
  556SOL    HW2 1668   1.733   1.555   0.684  0.3206  0.5780 -2.0107
  557SOL     OW 1669   1.391   2.104   2.087 -0.0327  0.1077  0.1527
  557SOL    HW1 1670   1.343   2.100   2.001 -2.0863 -1.3716 -3.5074
  557SOL    HW2 1671   1.442   2.193   2.103  4.6501  2.1437  1.0099
  558SOL     OW 1672   3.088   1.001   2.332  0.6376  0.4318  0.3094
  558SOL    HW1 1673   0.043   0.919   2.362 -0.5032 -1.2493  0.1220
  558SOL    HW2 1674   0.036   1.089   2.338 -0.4274 -1.8145 -2.4750
  559SOL     OW 1675   2.173   2.666   2.026  0.6258  0.4640  0.3961
  559SOL    HW1 1676   2.118   2.597   1.974 -0.8476 -0.5558 -2.1438
  559SOL    HW2 1677   2.149   2.670   2.120  2.2985 -1.2869 -3.9179
  560SOL     OW 1678   0.338   0.002   3.012 -0.1576 -0.6823 -0.0751
  560SOL    HW1 1679   0.320   0.095   2.972  0.4015 -0.8956 -3.2559
  560SOL    HW2 1680   0.319   3.026   2.940 -0.3151  1.0299 -2.6264
  561SOL     OW 1681   1.690   0.737   0.400  0.2369 -0.5800 -0.1200
  561SOL    HW1 1682   1.630   0.709   0.321  0.6083 -1.4718 -0.9262
  561SOL    HW2 1683   1.696   0.660   0.467  0.2904 -2.1246 -1.7632
  562SOL     OW 1684   0.871   1.078   2.066 -0.2693  0.6241  0.5464
  562SOL    HW1 1685   0.780   1.064   2.104  0.0798  0.4452 -0.6120
  562SOL    HW2 1686   0.922   1.161   2.100  2.4821  0.9481 -2.2029
  563SOL     OW 1687   1.664   2.371   0.228 -0.2651 -0.5600 -0.0184
  563SOL    HW1 1688   1.622   2.304   0.294  0.7071  1.3647  3.9034
  563SOL    HW2 1689   1.587   2.407   0.170 -3.2196  1.0090  0.3985
  564SOL     OW 1690   0.316   2.004   0.823 -0.6137  0.0466 -0.3383
  564SOL    HW1 1691   0.363   2.066   0.757  1.7398  0.5550 -0.2661
  564SOL    HW2 1692   0.373   1.919   0.840  1.7685 -0.5271 -1.1423
  565SOL     OW 1693   0.823   2.778   0.045  0.1221  0.2076  0.1338
  565SOL    HW1 1694   0.776   2.697   0.000  1.7484 -1.9803 -0.5974
  565SOL    HW2 1695   0.850   2.848   3.074 -0.4281 -1.3063 -3.3343
  566SOL     OW 1696   2.007   2.527   2.749 -0.3408  0.4101 -0.1115
  566SOL    HW1 1697   2.085   2.480   2.793  1.2220  0.9975  0.7476
  566SOL    HW2 1698   1.925   2.506   2.804  1.7060  0.3686 -1.8766
  567SOL     OW 1699   2.489   1.713   1.061 -0.6195  1.0783 -0.1418
  567SOL    HW1 1700   2.551   1.672   0.992 -0.9861 -0.0754  1.5051
  567SOL    HW2 1701   2.412   1.653   1.088  0.0112 -0.9043  1.1616
  568SOL     OW 1702   1.900   0.922   2.550 -0.2494  0.7461 -0.2176
  568SOL    HW1 1703   1.898   0.839   2.494 -2.0673 -0.3610 -0.3217
  568SOL    HW2 1704   1.813   0.979   2.539  0.9393  2.6052 -1.0336
  569SOL     OW 1705   2.095   1.547   2.214  0.3623 -0.4279 -0.1539
  569SOL    HW1 1706   2.087   1.570   2.117 -0.5056 -0.4925  0.1852
  569SOL    HW2 1707   2.192   1.529   2.238  0.0468  3.5217  1.1746
  570SOL     OW 1708   3.031   2.578   2.020  0.1681 -0.0270  0.1368
  570SOL    HW1 1709   3.019   2.646   2.096 -2.6512 -1.6500  0.5757
  570SOL    HW2 1710   2.946   2.526   2.003 -1.3465  2.9504 -2.6556
  571SOL     OW 1711   0.318   0.056   1.776  0.0477  0.3370 -0.2895
  571SOL    HW1 1712   0.241   0.099   1.828  1.4951 -0.2488  1.2567
  571SOL    HW2 1713   0.314   0.069   1.675  0.6620 -0.9318  3.0858
  572SOL     OW 1714   0.901   2.028   0.858 -0.0510 -0.5135  0.3492
  572SOL    HW1 1715   0.868   1.948   0.910 -1.5832  1.8206 -0.0361
  572SOL    HW2 1716   0.817   2.079   0.836  2.9387 -1.2678  3.5740
  573SOL     OW 1717   1.058   0.698   0.119  0.2862 -0.2790 -0.0161
  573SOL    HW1 1718   1.039   0.732   0.215 -0.7042 -0.2140 -2.8996
  573SOL    HW2 1719   1.156   0.697   0.098 -2.8821  1.0695  1.6465
  574SOL     OW 1720   0.421   0.176   0.280  0.4082  0.0984  0.6662
  574SOL    HW1 1721   0.461   0.086   0.300 -0.8903 -1.2537  2.6923
  574SOL    HW2 1722   0.320   0.163   0.259 -2.8679 -1.7477  0.5003
  575SOL     OW 1723   0.602   1.642   1.334  0.8583  0.0275 -0.1428
  575SOL    HW1 1724   0.676   1.709   1.322 -1.9299 -1.3034  0.1830
  575SOL    HW2 1725   0.641   1.548   1.323 -1.3965 -1.5720 -0.2928
  576SOL     OW 1726   2.608   0.055   2.110 -0.3658  0.1230  0.0400
  576SOL    HW1 1727   2.579   0.131   2.167 -0.6543  0.4884  1.9696
  576SOL    HW2 1728   2.706   0.060   2.097 -2.7742  0.8218 -0.4602
  577SOL     OW 1729   2.662   1.724   1.930  0.0619  0.1930  0.7232
  577SOL    HW1 1730   2.649   1.739   2.030  1.3712 -1.0303 -0.4987
  577SOL    HW2 1731   2.749   1.680   1.911 -2.4017 -0.1067 -0.2950
  578SOL     OW 1732   0.852   3.023   2.096  0.2407 -0.6117  0.8671
  578SOL    HW1 1733   0.923   3.085   2.125 -1.6178 -2.9065 -0.6944
  578SOL    HW2 1734   0.766   3.037   2.149  0.5419 -2.9482 -1.1163
  579SOL     OW 1735   2.094   1.944   2.124 -0.0919  0.3049  0.5693
  579SOL    HW1 1736   2.010   1.892   2.099 -0.0350 -3.5236 -1.2707
  579SOL    HW2 1737   2.086   2.037   2.157  0.7989 -0.6326 -0.4989
  580SOL     OW 1738   1.599   1.171   1.993 -0.6702 -0.1102 -0.4706
  580SOL    HW1 1739   1.618   1.137   1.898 -0.7957 -0.8804  0.0245
  580SOL    HW2 1740   1.632   1.103   2.063  0.8702  0.5801  2.7700
  581SOL     OW 1741   1.242   1.259   2.455 -0.2228  0.4730  0.1960
  581SOL    HW1 1742   1.209   1.339   2.400 -3.0606 -0.8693  1.0857
  581SOL    HW2 1743   1.314   1.205   2.410 -1.3908 -0.0180  1.4130
  582SOL     OW 1744   0.043   2.199   1.967  0.0826 -0.2114  0.1862
  582SOL    HW1 1745   0.123   2.144   1.931  2.6015 -2.0747  0.2437
  582SOL    HW2 1746   0.067   2.278   2.026 -1.1430 -0.1930 -0.4965
  583SOL     OW 1747   1.795   1.061   0.782 -0.2768 -0.0067 -0.7372
  583SOL    HW1 1748   1.876   1.022   0.829  1.4438 -1.2828  1.5714
  583SOL    HW2 1749   1.834   1.126   0.715  0.9366  1.1627  1.5224
  584SOL     OW 1750   0.892   2.590   0.374  1.0678  0.3999  0.4365
  584SOL    HW1 1751   0.792   2.563   0.356 -3.5443 -1.4346 -1.2767
  584SOL    HW2 1752   0.952   2.552   0.299  1.0154 -0.3733 -0.2363
  585SOL     OW 1753   0.202   2.468   0.097 -0.1777 -0.2029 -0.1127
  585SOL    HW1 1754   0.138   2.394   0.071  2.2950  0.5999 -1.8785
  585SOL    HW2 1755   0.218   2.534   0.022 -2.9457 -1.5137  2.2685
  586SOL     OW 1756   2.278   1.255   0.372 -0.0987 -0.4081 -0.2787
  586SOL    HW1 1757   2.306   1.212   0.457 -1.0311  1.4123 -1.3700
  586SOL    HW2 1758   2.298   1.357   0.374  0.8493  1.7733  0.7343
  587SOL     OW 1759   2.915   1.831   0.567 -0.7685 -0.1577 -0.4446
  587SOL    HW1 1760   2.939   1.759   0.627 -0.2685  1.5373 -0.4295
  587SOL    HW2 1761   2.948   1.920   0.605  3.5589  2.0618  4.2134
  588SOL     OW 1762   0.005   0.521   0.803 -0.2895  0.0566 -0.0923
  588SOL    HW1 1763   0.008   0.620   0.821  0.2893  1.3013 -0.1174
  588SOL    HW2 1764   0.092   0.473   0.808 -1.6263  0.0687  1.0701
  589SOL     OW 1765   1.587   0.134   0.779 -0.0736 -0.0793 -0.2615
  589SOL    HW1 1766   1.490   0.111   0.757  0.9094  1.1743  0.4608
  589SOL    HW2 1767   1.642   0.161   0.696  1.7638  0.5080  1.2771
  590SOL     OW 1768   2.442   2.356   0.273 -0.2693 -0.4737 -0.5034
  590SOL    HW1 1769   2.401   2.314   0.359 -0.6883  1.4802 -0.7087
  590SOL    HW2 1770   2.401   2.445   0.251  2.1859 -4.0735  0.2666
  591SOL     OW 1771   0.432   2.523   1.958  0.0359  0.1002  0.4646
  591SOL    HW1 1772   0.503   2.486   2.024  0.7023  0.0524  0.3425
  591SOL    HW2 1773   0.432   2.466   1.871 -0.2441 -2.1878 -0.1161
  592SOL     OW 1774   0.334   1.360   1.971  0.3743  0.1605  0.2639
  592SOL    HW1 1775   0.314   1.311   2.060  2.7125  0.6606  0.1890
  592SOL    HW2 1776   0.287   1.321   1.892 -0.1349  1.8387  2.4368
  593SOL     OW 1777   1.483   1.717   1.594 -0.0894  0.2207 -0.3408
  593SOL    HW1 1778   1.384   1.704   1.594  1.3936  2.3780 -1.5479
  593SOL    HW2 1779   1.513   1.775   1.672 -2.8260  1.0488 -0.7364
  594SOL     OW 1780   0.392   1.042   2.861  0.0431  0.2908  0.2583
  594SOL    HW1 1781   0.493   1.026   2.861 -1.3112 -1.6138 -1.7417
  594SOL    HW2 1782   0.350   1.040   2.767 -0.1700 -0.0765 -0.0713
  595SOL     OW 1783   1.905   0.344   0.829  0.3365 -0.9017  0.2130
  595SOL    HW1 1784   1.936   0.360   0.924 -0.8904  2.0528 -1.5947
  595SOL    HW2 1785   1.806   0.325   0.831 -0.2017 -0.6594 -1.0981
  596SOL     OW 1786   0.421   0.898   1.077  0.1859  0.0386  0.0216
  596SOL    HW1 1787   0.517   0.930   1.083 -2.6055 -2.2936  0.9622
  596SOL    HW2 1788   0.366   0.939   1.153 -2.3751  0.6326  2.1610
  597SOL     OW 1789   3.007   2.499   2.941 -0.2742  0.2709 -0.1200
  597SOL    HW1 1790   2.911   2.493   2.907 -0.1945 -2.3288 -0.0266
  597SOL    HW2 1791   3.050   2.589   2.940 -0.5758  1.2519  2.1982
  598SOL     OW 1792   2.105   2.149   2.571 -0.3918 -0.8052 -0.4438
  598SOL    HW1 1793   2.087   2.198   2.488 -0.0620 -1.5474 -0.4079
  598SOL    HW2 1794   2.198   2.181   2.606 -0.7419  1.1258 -0.9871
  599SOL     OW 1795   1.430   0.940   0.388  0.0793 -0.3726  1.1071
  599SOL    HW1 1796   1.463   0.842   0.399  1.2788 -1.6643  2.3369
  599SOL    HW2 1797   1.494   1.000   0.440  1.7268 -0.1120  0.6612
  600SOL     OW 1798   1.126   0.340   0.217 -0.6907 -0.2566  0.1267
  600SOL    HW1 1799   1.027   0.364   0.202  0.0993  2.4758 -1.7412
  600SOL    HW2 1800   1.185   0.362   0.136  0.0328 -1.6896 -0.9009
  601SOL     OW 1801   0.589   0.182   1.517  0.1826 -0.7187  0.3793
  601SOL    HW1 1802   0.684   0.146   1.531  1.3699 -0.4406  1.5063
  601SOL    HW2 1803   0.574   0.201   1.418  1.5259 -0.4774 -0.9925
  602SOL     OW 1804   0.301   2.778   0.767  0.1669 -0.2252 -0.2696
  602SOL    HW1 1805   0.368   2.713   0.722  1.3757 -0.2848 -2.2849
  602SOL    HW2 1806   0.207   2.744   0.754  1.3575 -1.2205  1.5743
  603SOL     OW 1807   0.950   2.740   2.350  0.1321  0.8529 -0.1479
  603SOL    HW1 1808   0.905   2.710   2.263 -0.3971 -1.3659 -0.6746
  603SOL    HW2 1809   1.015   2.668   2.380 -1.6138 -0.5233  1.2530
  604SOL     OW 1810   1.108   2.593   0.141  0.0759 -0.2861 -0.3049
  604SOL    HW1 1811   1.184   2.595   0.210  1.6584  0.1860  2.3828
  604SOL    HW2 1812   1.105   2.676   0.084  3.0818 -0.6407  0.8268
  605SOL     OW 1813   1.633   1.092   1.719  0.6185 -0.5857 -0.3197
  605SOL    HW1 1814   1.589   1.145   1.641  1.2595 -1.4874  0.3245
  605SOL    HW2 1815   1.735   1.101   1.716 -1.5790 -2.4979  0.2252
  606SOL     OW 1816   0.921   0.742   2.422 -0.0174  0.2137  0.0607
  606SOL    HW1 1817   0.940   0.673   2.345  3.0046 -1.8983 -4.2549
  606SOL    HW2 1818   0.967   0.831   2.402 -1.8444  1.2464  2.1805
  607SOL     OW 1819   0.397   1.305   1.217 -0.1972 -0.1467 -0.0099
  607SOL    HW1 1820   0.327   1.236   1.195 -0.0872  1.5706  0.8679
  607SOL    HW2 1821   0.419   1.362   1.134 -1.7082  0.2232  1.1395
  608SOL     OW 1822   2.637   2.212   2.292  0.2221 -0.0737  0.1702
  608SOL    HW1 1823   2.691   2.296   2.301  0.8373  1.9044  1.7348
  608SOL    HW2 1824   2.650   2.154   2.373  0.2823  0.7556 -2.8303
  609SOL     OW 1825   1.965   2.941   3.015  0.2109  0.4484  0.0422
  609SOL    HW1 1826   1.980   3.016   3.079  1.1133  1.4218 -0.8295
  609SOL    HW2 1827   2.023   2.952   2.934  0.1890 -0.6190  0.4572
  610SOL     OW 1828   0.450   2.780   1.550 -0.1829  0.2321 -0.7597
  610SOL    HW1 1829   0.492   2.696   1.514 -0.6217 -1.6340 -2.7689
  610SOL    HW2 1830   0.522   2.845   1.573  0.3291 -0.5213 -0.3234
  611SOL     OW 1831   1.191   1.557   0.750  0.3324 -0.2280  0.1876
  611SOL    HW1 1832   1.103   1.515   0.729  4.1887  0.6011  2.5891
  611SOL    HW2 1833   1.211   1.617   0.668  0.5967  1.8660  0.7218
  612SOL     OW 1834   0.784   0.132   2.364  0.0765  0.5573  0.5708
  612SOL    HW1 1835   0.823   0.216   2.327 -2.7032 -1.6067  0.6800
  612SOL    HW2 1836   0.847   0.074   2.421 -1.3043  0.9538  0.5190
  613SOL     OW 1837   2.682   1.715   0.457 -0.2967 -0.3419  0.1636
  613SOL    HW1 1838   2.689   1.617   0.477  0.2086  3.0693  0.4689
  613SOL    HW2 1839   2.758   1.772   0.498 -1.6462  0.7557 -1.8474
  614SOL     OW 1840   1.704   0.209   1.600  0.4322 -0.4053 -0.3571
  614SOL    HW1 1841   1.642   0.284   1.631  1.1865 -2.3927 -1.2232
  614SOL    HW2 1842   1.772   0.250   1.532  0.0547 -1.8574 -0.4283
  615SOL     OW 1843   1.002   1.611   1.400 -0.1538  0.0607  0.2195
  615SOL    HW1 1844   1.080   1.590   1.335 -0.0140 -1.0014  0.8983
  615SOL    HW2 1845   1.022   1.698   1.452 -1.7403 -0.2220  1.0568
  616SOL     OW 1846   1.648   1.563   2.836 -0.0538 -0.9206  0.0840
  616SOL    HW1 1847   1.630   1.474   2.792  1.2634 -2.8316 -0.7242
  616SOL    HW2 1848   1.604   1.574   2.928 -1.7787 -0.7452  1.2075
  617SOL     OW 1849   1.658   2.784   0.174 -0.2924  0.5109 -0.4484
  617SOL    HW1 1850   1.594   2.745   0.103 -2.4348  0.0832 -1.5866
  617SOL    HW2 1851   1.668   2.725   0.257 -1.9932  0.3889  1.2034
  618SOL     OW 1852   1.073   0.630   2.624 -0.1636  0.5366  0.0391
  618SOL    HW1 1853   1.066   0.683   2.710  1.0953  0.0719  1.0484
  618SOL    HW2 1854   1.019   0.678   2.553 -1.2797 -0.0835 -2.1087
  619SOL     OW 1855   2.608   1.474   0.620  0.2201  0.3361  0.2786
  619SOL    HW1 1856   2.551   1.413   0.564  2.7565  2.5315 -1.8067
  619SOL    HW2 1857   2.556   1.550   0.662 -0.9004 -1.0198  1.0726
  620SOL     OW 1858   2.523   2.588   2.970  0.6952 -0.1094  0.2735
  620SOL    HW1 1859   2.488   2.656   2.898 -1.1149  0.4819 -2.0182
  620SOL    HW2 1860   2.448   2.570   3.034  1.7284  0.5416  0.9391
  621SOL     OW 1861   2.526   1.222   0.047  0.1426  0.1327  0.3034
  621SOL    HW1 1862   2.464   1.162   0.103  2.3844  0.2576 -1.9307
  621SOL    HW2 1863   2.494   1.231   3.050  1.6904 -0.3716 -3.5164
  622SOL     OW 1864   1.352   2.389   2.502 -0.1387 -0.2373  0.3777
  622SOL    HW1 1865   1.349   2.386   2.400  0.6483 -2.3344  0.6639
  622SOL    HW2 1866   1.441   2.430   2.538 -0.4035  3.2170 -1.6027
  623SOL     OW 1867   0.835   1.647   0.228 -0.2432 -0.2233 -0.4858
  623SOL    HW1 1868   0.830   1.569   0.165 -3.2321 -0.7304 -0.1712
  623SOL    HW2 1869   0.807   1.730   0.182 -0.5324 -1.2656  3.7414
  624SOL     OW 1870   0.464   0.265   2.950  0.6132 -0.9290  0.5219
  624SOL    HW1 1871   0.442   0.336   3.017 -1.2825 -0.8241  1.5972
  624SOL    HW2 1872   0.557   0.279   2.910  0.6887 -1.8882 -1.3102
  625SOL     OW 1873   0.962   1.856   0.614  0.2546 -0.2294  0.3377
  625SOL    HW1 1874   0.956   1.925   0.686 -2.5052 -1.4476  1.8477
  625SOL    HW2 1875   0.964   1.897   0.520 -1.4642 -0.6568 -0.8943
  626SOL     OW 1876   2.664   2.929   2.874 -0.5087 -0.1772  0.1043
  626SOL    HW1 1877   2.595   3.001   2.857  1.2485  0.5430  0.9865
  626SOL    HW2 1878   2.633   2.864   2.946 -1.4056  1.3274 -1.7284
  627SOL     OW 1879   1.475   1.407   2.559 -0.3751  0.2434  0.1231
  627SOL    HW1 1880   1.418   1.485   2.593 -1.9401 -1.4488 -0.4258
  627SOL    HW2 1881   1.420   1.324   2.557  1.1733  1.0457 -0.5039
  628SOL     OW 1882   0.397   0.701   2.163  0.3868  0.1170 -0.1165
  628SOL    HW1 1883   0.381   0.786   2.207 -0.4645  0.3496 -2.8762
  628SOL    HW2 1884   0.489   0.658   2.180 -0.6339 -1.0555 -0.7691
  629SOL     OW 1885   0.068   2.872   2.003  0.2542  0.3035  0.1113
  629SOL    HW1 1886   0.013   2.844   2.085 -0.7994 -0.4453 -2.5641
  629SOL    HW2 1887   0.165   2.872   2.023  0.7469 -3.7195  1.3542
  630SOL     OW 1888   1.609   0.817   1.772 -0.3283  0.8295 -0.5379
  630SOL    HW1 1889   1.626   0.753   1.694  1.1003 -0.5521  0.3358
  630SOL    HW2 1890   1.610   0.921   1.748  0.2183 -0.1328  0.8586
  631SOL     OW 1891   2.366   1.059   0.194  0.7025 -0.2117 -0.0983
  631SOL    HW1 1892   2.360   0.969   0.236  1.8965  1.0671 -3.2402
  631SOL    HW2 1893   2.333   1.127   0.260  1.2826 -1.9483  0.6560
  632SOL     OW 1894   1.944   0.213   2.005  0.0903  0.1621  0.0011
  632SOL    HW1 1895   1.930   0.155   1.922  0.1336  1.6329  0.7937
  632SOL    HW2 1896   1.996   0.300   1.979  1.3143  0.6058 -0.3002
  633SOL     OW 1897   0.883   2.840   0.299 -0.1094 -0.0300  0.1793
  633SOL    HW1 1898   0.863   2.836   0.202  2.0677 -0.8721 -1.4738
  633SOL    HW2 1899   0.893   2.748   0.332 -0.0250  1.2769 -1.8771
  634SOL     OW 1900   1.282   2.343   2.785 -0.4130 -0.2341 -1.6614
  634SOL    HW1 1901   1.301   2.337   2.684 -1.0150 -2.1903 -1.7673
  634SOL    HW2 1902   1.358   2.297   2.835 -0.1911 -2.2824  0.2997
  635SOL     OW 1903   2.404   0.137   3.040 -0.6480  0.3333 -0.3182
  635SOL    HW1 1904   2.461   0.207   3.092  1.3143 -0.2850  1.5412
  635SOL    HW2 1905   2.330   0.176   2.983 -0.0752 -1.1107  0.7435
  636SOL     OW 1906   0.921   1.261   0.898 -0.2082  0.5453 -0.2687
  636SOL    HW1 1907   1.012   1.268   0.942 -1.3447  0.0986 -3.9269
  636SOL    HW2 1908   0.914   1.173   0.850 -2.8759  0.6802 -1.1940
  637SOL     OW 1909   0.432   2.451   0.529 -0.0951  0.3210 -0.0585
  637SOL    HW1 1910   0.481   2.542   0.550  2.6247  0.5200 -1.8019
  637SOL    HW2 1911   0.430   2.434   0.427  0.4265  0.9601 -0.8171
  638SOL     OW 1912   0.594   3.045   0.308  0.5281  0.2972  0.4977
  638SOL    HW1 1913   0.694   3.058   0.314  0.9731  1.0703 -1.2776
  638SOL    HW2 1914   0.571   2.948   0.281  0.4242 -0.6861 -2.9764
  639SOL     OW 1915   1.142   1.410   0.460  0.5023  0.2233 -0.2806
  639SOL    HW1 1916   1.238   1.379   0.474 -0.4569 -0.0812  3.5613
  639SOL    HW2 1917   1.143   1.493   0.396  0.0330  1.1873  0.2652
  640SOL     OW 1918   1.712   2.648   0.938 -0.0290 -0.2639 -0.3672
  640SOL    HW1 1919   1.714   2.562   0.887  0.8337  0.6161  2.2440
  640SOL    HW2 1920   1.808   2.693   0.932  2.3928  0.1308 -1.1549
  641SOL     OW 1921   3.003   2.502   0.616  0.2506  0.1240  0.6863
  641SOL    HW1 1922   3.093   2.462   0.590 -0.0649 -0.0854 -0.9178
  641SOL    HW2 1923   2.930   2.475   0.549  2.4723  0.8457  0.3723
  642SOL     OW 1924   0.910   0.089   1.667  0.0845  0.3193 -0.1441
  642SOL    HW1 1925   0.871   0.031   1.738  1.4095 -0.4857  0.5334
  642SOL    HW2 1926   1.012   0.095   1.686  0.6949 -0.4119  0.5162
  643SOL     OW 1927   0.741   1.870   2.228 -0.6925 -0.5340  0.0639
  643SOL    HW1 1928   0.679   1.828   2.154 -1.3751  1.9294 -0.6712
  643SOL    HW2 1929   0.685   1.925   2.296 -0.5751  0.1752  1.2015
  644SOL     OW 1930   0.862   3.042   0.480 -0.2677 -0.3004 -0.3306
  644SOL    HW1 1931   0.888   2.969   0.410  0.1232 -2.4027  1.4847
  644SOL    HW2 1932   0.922   3.041   0.561 -2.2007 -0.3730 -0.8793
  645SOL     OW 1933   0.989   1.630   2.939  0.0058 -0.2391 -0.5018
  645SOL    HW1 1934   0.919   1.675   2.879 -0.7651  0.6658  0.2811
  645SOL    HW2 1935   1.057   1.697   2.979 -0.7638  1.3283  3.1649
  646SOL     OW 1936   0.361   1.447   0.072 -0.4809 -0.0858  0.1567
  646SOL    HW1 1937   0.372   1.547   0.069  1.0420  2.9527  1.5633
  646SOL    HW2 1938   0.281   1.414   0.124  0.1184  0.5670 -0.9598
  647SOL     OW 1939   1.172   0.070   0.944 -0.3642 -0.0148 -0.3580
  647SOL    HW1 1940   1.170   0.108   1.042 -1.5732 -0.5758  1.6431
  647SOL    HW2 1941   1.193   3.070   0.959 -0.3027 -1.7585  1.0947
  648SOL     OW 1942   2.782   2.843   1.979 -0.4270 -0.2396  0.3336
  648SOL    HW1 1943   2.681   2.863   1.980 -2.4478  0.6056 -0.2700
  648SOL    HW2 1944   2.832   2.910   1.928 -1.2878 -1.4345  1.7696
  649SOL     OW 1945   0.516   2.130   0.042 -0.3184 -0.1272 -0.1688
  649SOL    HW1 1946   0.494   2.180   3.058  1.4359  0.0109  2.9249
  649SOL    HW2 1947   0.444   2.132   0.112  2.2226 -0.8144 -0.0754
  650SOL     OW 1948   0.228   1.909   1.624 -0.0026  0.3318 -0.5887
  650SOL    HW1 1949   0.230   1.829   1.563  0.5085 -0.6948 -1.1055
  650SOL    HW2 1950   0.269   1.993   1.578 -0.0055  3.8790  0.4910
  651SOL     OW 1951   0.634   0.110   0.061  0.3276  0.5860 -0.4397
  651SOL    HW1 1952   0.555   0.131   3.097 -1.8431 -0.8599 -0.4534
  651SOL    HW2 1953   0.596   0.108   0.150  1.8113  0.9536 -1.3432
  652SOL     OW 1954   2.438   1.810   0.401 -0.4712 -0.0819  0.1998
  652SOL    HW1 1955   2.529   1.775   0.428  0.7585 -0.8663  0.9068
  652SOL    HW2 1956   2.448   1.830   0.300  0.5813  1.7705 -0.9281
  653SOL     OW 1957   2.923   0.132   1.077 -0.1527 -0.2371  0.0450
  653SOL    HW1 1958   2.937   0.225   1.034 -1.9845  0.3572 -0.9863
  653SOL    HW2 1959   2.993   0.063   1.050 -0.5185  0.9555  2.7861
  654SOL     OW 1960   1.583   0.248   2.539  0.2417  0.0607  0.7305
  654SOL    HW1 1961   1.572   0.272   2.635 -0.9086  1.0062 -2.2492
  654SOL    HW2 1962   1.574   0.150   2.524  0.2775  1.2753  3.0066
  655SOL     OW 1963   1.104   2.404   1.275 -0.1076 -0.6264  0.6535
  655SOL    HW1 1964   1.144   2.335   1.338  0.6351  1.2880  1.5571
  655SOL    HW2 1965   1.173   2.454   1.216  0.1262 -0.4176 -0.5330
  656SOL     OW 1966   0.333   0.150   2.356  0.2923 -0.2842  0.1405
  656SOL    HW1 1967   0.305   0.209   2.276 -0.8173  5.2363  0.5411
  656SOL    HW2 1968   0.271   0.071   2.363  0.3484 -1.2338  0.1996
  657SOL     OW 1969   2.057   0.702   1.888  0.0498 -0.1781  0.1509
  657SOL    HW1 1970   1.964   0.741   1.915  0.9641  1.4753  0.7358
  657SOL    HW2 1971   2.055   0.688   1.790  1.0962  1.4741  0.5716
  658SOL     OW 1972   2.174   1.816   1.289 -0.1011 -0.5992 -0.2783
  658SOL    HW1 1973   2.270   1.829   1.322  0.9587  1.0850 -0.0448
  658SOL    HW2 1974   2.171   1.755   1.209  4.6137  3.9913 -1.8386
  659SOL     OW 1975   2.591   2.778   0.048 -0.0641  0.5258  0.2902
  659SOL    HW1 1976   2.689   2.791   0.072 -2.4243  1.5616 -1.0166
  659SOL    HW2 1977   2.586   2.704   3.077 -0.9076  0.0954  0.6781
  660SOL     OW 1978   0.874   1.236   2.726  0.0251 -0.1968 -0.0020
  660SOL    HW1 1979   0.926   1.327   2.716  1.1216  1.1754 -0.0804
  660SOL    HW2 1980   0.934   1.172   2.772 -3.1936 -1.5019  0.5546
  661SOL     OW 1981   2.381   2.551   1.090  0.6257 -0.3226 -0.1568
  661SOL    HW1 1982   2.434   2.598   1.159  0.2324 -1.4934 -2.6383
  661SOL    HW2 1983   2.344   2.460   1.119  1.3850 -0.6601  1.6397
  662SOL     OW 1984   0.536   0.930   0.256  0.1692  0.0566 -0.4512
  662SOL    HW1 1985   0.500   0.857   0.317 -2.4195  1.2931 -0.5460
  662SOL    HW2 1986   0.471   0.931   0.179  0.2989 -1.4179  1.6802
  663SOL     OW 1987   1.130   2.198   0.021  0.3787  0.4864  0.4287
  663SOL    HW1 1988   1.223   2.188   0.064  0.1830 -1.3097  0.5050
  663SOL    HW2 1989   1.079   2.281   0.052  0.0316 -2.1625 -2.0630
  664SOL     OW 1990   0.707   2.919   1.446 -0.5463 -0.1541 -1.1264
  664SOL    HW1 1991   0.714   2.856   1.365 -0.4258 -0.9778 -0.1534
  664SOL    HW2 1992   0.748   2.876   1.526 -1.0801 -0.4890 -0.0252
  665SOL     OW 1993   1.876   1.686   1.790  0.8054  0.4222 -0.7938
  665SOL    HW1 1994   1.905   1.769   1.747 -2.0622 -3.8301  1.9655
  665SOL    HW2 1995   1.872   1.610   1.719  1.5580 -0.0570  3.4259
  666SOL     OW 1996   0.513   2.784   0.250 -0.0067  0.0852 -1.3140
  666SOL    HW1 1997   0.437   2.799   0.313 -1.2744 -0.6158  1.3626
  666SOL    HW2 1998   0.572   2.705   0.274 -0.0151 -2.8587  0.6804
  667SOL     OW 1999   1.644   1.721   1.367  0.1337  0.1133  0.2068
  667SOL    HW1 2000   1.742   1.735   1.368  1.1848 -0.1984  0.7946
  667SOL    HW2 2001   1.601   1.721   1.457 -1.5913 -1.0289  2.9578
  668SOL     OW 2002   0.294   0.507   2.347  0.0529 -0.1624  0.4759
  668SOL    HW1 2003   0.318   0.600   2.306  2.0117  2.1130  0.9040
  668SOL    HW2 2004   0.381   0.450   2.358 -0.6927  1.0880  2.2208
  669SOL     OW 2005   1.867   2.066   2.372  0.0305 -0.0173  0.3232
  669SOL    HW1 2006   1.923   1.983   2.354 -0.8750 -0.8516  1.0955
  669SOL    HW2 2007   1.785   2.056   2.427  0.6106  0.9606  1.5237
  670SOL     OW 2008   2.353   2.254   0.499 -0.2576  0.8442 -0.0064
  670SOL    HW1 2009   2.376   2.161   0.543 -1.5637 -1.6169 -0.2679
  670SOL    HW2 2010   2.326   2.320   0.571 -0.0976  1.0066  0.0507
  671SOL     OW 2011   0.668   1.247   1.215  0.1661 -0.1440  0.3444
  671SOL    HW1 2012   0.699   1.343   1.174  3.6550  2.1032 -3.4224
  671SOL    HW2 2013   0.570   1.240   1.230 -3.5679  1.9009  0.6264
  672SOL     OW 2014   2.658   1.273   2.200  0.1994  0.3889 -0.4081
  672SOL    HW1 2015   2.642   1.305   2.106 -0.3232 -1.8601  1.8178
  672SOL    HW2 2016   2.752   1.231   2.213  1.6618 -0.8927 -0.5839
  673SOL     OW 2017   2.995   1.752   2.409  0.0931 -0.9583 -0.3574
  673SOL    HW1 2018   2.959   1.687   2.476 -0.3042  0.8468 -0.3506
  673SOL    HW2 2019   3.017   1.707   2.324 -1.9689 -0.3561  0.0340
  674SOL     OW 2020   0.887   2.426   2.137 -0.7849 -0.2393 -0.6923
  674SOL    HW1 2021   0.899   2.413   2.234  0.3380  1.3436 -2.8977
  674SOL    HW2 2022   0.872   2.526   2.113  0.1419  1.5074 -0.6850
  675SOL     OW 2023   0.632   0.680   1.495 -0.0652  0.2022 -0.0221
  675SOL    HW1 2024   0.721   0.672   1.536 -1.4073  1.3544  0.6487
  675SOL    HW2 2025   0.603   0.778   1.493 -0.9197  1.1511  2.2474
  676SOL     OW 2026   1.932   0.904   0.460 -0.6856 -0.4478 -0.1295
  676SOL    HW1 2027   1.840   0.872   0.453 -2.3759 -1.6646 -0.7132
  676SOL    HW2 2028   1.948   0.995   0.424  1.1159 -0.5858  1.3869
  677SOL     OW 2029   3.024   1.627   2.772 -0.3579  0.3858 -0.4655
  677SOL    HW1 2030   2.964   1.616   2.689  0.0233  0.0061 -1.2428
  677SOL    HW2 2031   3.095   1.556   2.782 -1.8495 -0.1293  1.6121
  678SOL     OW 2032   0.004   2.502   1.397  0.4790  0.4321 -0.2783
  678SOL    HW1 2033   3.046   2.464   1.318  1.3428 -0.7675  0.0837
  678SOL    HW2 2034   3.042   2.514   1.478  2.3859  1.3643 -0.2482
  679SOL     OW 2035   2.242   3.011   0.667  0.2292  0.3418 -0.4575
  679SOL    HW1 2036   2.207   3.081   0.607 -0.7203 -0.7528 -1.9825
  679SOL    HW2 2037   2.327   2.967   0.631  2.2619 -0.0803 -0.3648
  680SOL     OW 2038   0.109   2.568   2.348  0.8222 -0.4468  0.2766
  680SOL    HW1 2039   0.117   2.483   2.290 -0.5124  0.6175 -0.8867
  680SOL    HW2 2040   0.187   2.624   2.330 -3.4772 -0.9504  1.0469
  681SOL     OW 2041   0.269   1.414   1.429 -0.1687  0.4251  0.0528
  681SOL    HW1 2042   0.300   1.378   1.341  1.8714  0.3405 -0.0270
  681SOL    HW2 2043   0.310   1.360   1.501  0.0293  2.2783  0.9346
  682SOL     OW 2044   0.385   2.105   1.478 -0.4715 -0.1268 -0.5152
  682SOL    HW1 2045   0.393   2.026   1.413 -0.7605 -3.8628  0.5256
  682SOL    HW2 2046   0.296   2.157   1.461 -2.7380  1.2016  0.9208
  683SOL     OW 2047   3.069   1.729   1.446  0.3919  0.6900 -0.1138
  683SOL    HW1 2048   2.979   1.776   1.442 -0.2804 -0.5568 -0.4537
  683SOL    HW2 2049   3.057   1.636   1.483  0.2417  2.0633  0.0117
  684SOL     OW 2050   2.996   1.548   0.248  0.0131 -0.3816 -0.3039
  684SOL    HW1 2051   2.989   1.476   0.320 -1.0702 -0.0001  0.4157
  684SOL    HW2 2052   3.090   1.541   0.204  1.8822 -1.2924  1.0945
  685SOL     OW 2053   1.181   0.952   0.490 -0.3144 -0.6040 -0.0945
  685SOL    HW1 2054   1.128   0.871   0.474  0.0746  1.0416  2.1019
  685SOL    HW2 2055   1.275   0.937   0.456 -0.1505 -1.0811  1.2324
  686SOL     OW 2056   0.015   3.057   1.059  0.0654  0.2098 -0.1591
  686SOL    HW1 2057   0.057   3.051   1.152  0.0212  2.1592 -0.9075
  686SOL    HW2 2058   0.088   3.035   0.993 -1.8342 -0.3341 -1.1466
  687SOL     OW 2059   1.006   1.283   2.216 -0.1103 -0.4992  0.4037
  687SOL    HW1 2060   0.977   1.275   2.312 -0.7852 -0.5695 -1.0236
  687SOL    HW2 2061   1.057   1.369   2.205 -2.9295  0.9870  0.3152
  688SOL     OW 2062   0.936   1.891   1.869  0.8444 -0.1111 -0.6781
  688SOL    HW1 2063   0.858   1.873   1.809  0.7742  2.6483 -0.3445
  688SOL    HW2 2064   0.912   1.962   1.948 -0.6398  1.0349  1.0914
  689SOL     OW 2065   2.038   0.492   1.045  0.1775  0.1116  0.0055
  689SOL    HW1 2066   2.083   0.425   1.106 -0.5570  1.3167  1.5050
  689SOL    HW2 2067   1.979   0.555   1.097  1.8895 -0.8702 -1.9785
  690SOL     OW 2068   2.873   1.220   0.976  0.3569  0.2574  0.4799
  690SOL    HW1 2069   2.936   1.304   0.984  1.0214  2.0723 -2.1674
  690SOL    HW2 2070   2.818   1.208   1.061 -0.6643  0.3945  2.2262
  691SOL     OW 2071   0.225   2.493   1.604  0.0849 -0.3844  0.3273
  691SOL    HW1 2072   0.182   2.494   1.511  2.6286 -1.7562 -1.4791
  691SOL    HW2 2073   0.167   2.548   1.670  0.9390  0.5497 -0.8935
  692SOL     OW 2074   1.845   2.883   1.260 -0.5072  0.0188 -0.3897
  692SOL    HW1 2075   1.844   2.858   1.160 -1.1120 -1.4009  1.0698
  692SOL    HW2 2076   1.923   2.948   1.287  1.5740  4.4390 -0.0462
  693SOL     OW 2077   0.259   1.553   2.556  0.4244 -0.0403  0.0830
  693SOL    HW1 2078   0.323   1.630   2.566 -1.8283  1.8730 -0.1483
  693SOL    HW2 2079   0.202   1.572   2.473  0.8267  0.8886 -1.3119
  694SOL     OW 2080   1.847   0.955   1.156  0.4857 -0.4974 -0.1217
  694SOL    HW1 2081   1.922   0.982   1.224  1.1553 -2.6456  0.4991
  694SOL    HW2 2082   1.770   0.911   1.217  1.4712 -1.5092 -1.2212
  695SOL     OW 2083   0.996   0.862   1.354  0.7601 -0.0495  0.5530
  695SOL    HW1 2084   0.897   0.873   1.382 -0.4350  0.0653  0.0601
  695SOL    HW2 2085   1.067   0.917   1.404  0.0431 -0.8267  2.1964
  696SOL     OW 2086   1.821   3.025   0.733 -0.2267 -0.2443  0.2595
  696SOL    HW1 2087   1.775   2.955   0.679  0.0060 -1.6833 -0.7990
  696SOL    HW2 2088   1.771   0.015   0.721 -0.0133  1.2786 -2.6975
  697SOL     OW 2089   0.900   0.147   0.913  0.4225 -0.0065 -0.2519
  697SOL    HW1 2090   0.987   0.099   0.908 -0.2450  1.3879  1.3664
  697SOL    HW2 2091   0.860   0.151   1.007  2.3023 -0.6787 -1.5663
  698SOL     OW 2092   1.411   1.297   2.136  0.4190 -0.3050  0.6960
  698SOL    HW1 2093   1.461   1.259   2.056 -0.5377  1.0486 -0.0477
  698SOL    HW2 2094   1.404   1.401   2.139  3.4714  1.4188  0.8330
  699SOL     OW 2095   1.654   0.811   0.842 -0.3348 -0.1650 -0.2509
  699SOL    HW1 2096   1.716   0.897   0.831  0.7430  1.8662 -0.3890
  699SOL    HW2 2097   1.560   0.846   0.869  2.0916  2.1427  0.4729
  700SOL     OW 2098   1.320   2.605   0.301  0.0763  0.6702 -0.2014
  700SOL    HW1 2099   1.341   2.702   0.319  1.7435 -1.1149  0.9333
  700SOL    HW2 2100   1.320   2.559   0.392  1.1699 -0.5969  3.0797
  701SOL     OW 2101   2.286   2.453   3.096  0.2350 -0.4372 -0.1919
  701SOL    HW1 2102   2.204   2.481   0.055  0.2689 -0.7065 -0.9322
  701SOL    HW2 2103   2.254   2.413   3.011  0.9408 -1.3892  0.1467
  702SOL     OW 2104   0.919   0.355   0.700  0.2925 -0.0247 -0.0331
  702SOL    HW1 2105   0.901   0.294   0.781 -3.7131 -0.8458  0.8496
  702SOL    HW2 2106   0.913   0.455   0.723 -1.4685 -1.7833 -2.5516
  703SOL     OW 2107   2.222   0.563   2.264  0.2409 -0.6735  0.6823
  703SOL    HW1 2108   2.164   0.498   2.321 -2.7025  0.7793 -1.3731
  703SOL    HW2 2109   2.162   0.637   2.233 -0.6660 -1.4010  0.7122
  704SOL     OW 2110   0.162   2.422   0.598 -0.4845  0.3014 -0.3469
  704SOL    HW1 2111   0.152   2.329   0.641 -3.4882 -2.6971 -0.5453
  704SOL    HW2 2112   0.260   2.445   0.586  0.6301  0.7292 -2.2627
  705SOL     OW 2113   2.755   2.589   2.052  0.6731  0.3316 -0.4921
  705SOL    HW1 2114   2.774   2.687   2.041 -0.6529 -0.0102  0.0129
  705SOL    HW2 2115   2.726   2.547   1.962  0.8204  0.2604 -0.6319
  706SOL     OW 2116   2.305   2.673   0.869 -0.0420  0.0150  0.2124
  706SOL    HW1 2117   2.341   2.639   0.957  0.7065  0.4860  1.6541
  706SOL    HW2 2118   2.372   2.664   0.793  0.1178  1.9309  2.1110
  707SOL     OW 2119   0.621   2.408   2.115 -0.2000 -0.0565  1.0305
  707SOL    HW1 2120   0.617   2.325   2.060 -0.2659  1.5327  0.3302
  707SOL    HW2 2121   0.720   2.416   2.143 -3.0135  1.1847 -0.7578
  708SOL     OW 2122   2.969   2.241   2.332 -0.4477 -0.3745  0.2597
  708SOL    HW1 2123   3.058   2.250   2.380 -0.0068  1.4606 -1.2221
  708SOL    HW2 2124   2.944   2.143   2.316 -3.0583  2.4025  0.6099
  709SOL     OW 2125   1.979   2.923   2.080  0.0394  0.1904 -0.0797
  709SOL    HW1 2126   2.016   2.885   1.994  1.1380  0.0073  1.7201
  709SOL    HW2 2127   1.882   2.950   2.075  1.8331 -0.9306 -2.6333
  710SOL     OW 2128   1.521   0.846   2.316 -0.1580 -0.5864 -0.0510
  710SOL    HW1 2129   1.562   0.803   2.402 -0.3812  1.4616  0.3119
  710SOL    HW2 2130   1.492   0.787   2.238  2.5053  2.6925  0.1104
  711SOL     OW 2131   0.692   1.962   2.969 -0.3138  0.5335  0.5107
  711SOL    HW1 2132   0.787   1.977   3.007  2.3753  0.8630 -1.6882
  711SOL    HW2 2133   0.621   1.979   3.041  2.3436  2.5339  1.2132
  712SOL     OW 2134   0.760   2.504   2.505  0.0519 -0.0865  0.0205
  712SOL    HW1 2135   0.766   2.601   2.543 -1.2489  1.6230  3.8179
  712SOL    HW2 2136   0.672   2.477   2.467  0.4725  1.5319 -0.4271
  713SOL     OW 2137   1.708   1.273   2.762  0.0953 -0.7229 -0.1874
  713SOL    HW1 2138   1.787   1.286   2.700  0.0109  1.3661  2.8076
  713SOL    HW2 2139   1.737   1.248   2.856 -2.0170 -0.9098 -0.9251
  714SOL     OW 2140   1.389   1.379   1.831  0.6099  0.1374 -0.4395
  714SOL    HW1 2141   1.470   1.360   1.774 -1.4689 -0.5985  1.0760
  714SOL    HW2 2142   1.418   1.419   1.920  0.1930 -1.0740  1.4534
  715SOL     OW 2143   1.940   0.676   2.380  0.4332 -0.3611 -0.4164
  715SOL    HW1 2144   1.986   0.592   2.418  1.8740 -0.8671  0.8827
  715SOL    HW2 2145   1.984   0.717   2.295  0.4469  1.7405  1.1956
  716SOL     OW 2146   2.893   2.372   1.933 -0.1628 -0.2332  0.3564
  716SOL    HW1 2147   2.802   2.349   1.896  2.7093 -1.9716  1.3230
  716SOL    HW2 2148   2.950   2.295   1.951 -2.3467 -2.1749 -1.4219
  717SOL     OW 2149   2.633   1.275   0.855  0.4043  0.1140 -0.0834
  717SOL    HW1 2150   2.727   1.255   0.872 -1.6807 -0.2864 -1.8239
  717SOL    HW2 2151   2.624   1.345   0.785  1.6005 -1.1691  3.1337
  718SOL     OW 2152   0.884   1.650   2.249 -0.3914  0.3349 -0.1089
  718SOL    HW1 2153   0.834   1.740   2.251 -0.5962 -2.2309 -0.7658
  718SOL    HW2 2154   0.900   1.618   2.153 -0.2311 -0.0457 -2.3690
  719SOL     OW 2155   2.012   0.865   2.784 -0.6082  0.1429  0.8739
  719SOL    HW1 2156   1.961   0.895   2.698 -2.0738  1.4665 -2.0102
  719SOL    HW2 2157   1.997   0.932   2.855  2.9056  1.3066 -0.8261
  720SOL     OW 2158   0.567   0.554   0.660  0.0167  0.0689 -0.4593
  720SOL    HW1 2159   0.567   0.575   0.763  0.7838  1.9261  2.3875
  720SOL    HW2 2160   0.594   0.455   0.640  0.8488 -3.2204 -0.9972
  721SOL     OW 2161   2.614   0.880   0.560 -0.7934 -0.2189 -0.4151
  721SOL    HW1 2162   2.544   0.859   0.495 -2.3407  0.3040  1.7779
  721SOL    HW2 2163   2.574   0.874   0.652 -0.5993  1.7808 -0.6469
  722SOL     OW 2164   2.752   0.684   2.345 -0.4700 -0.0328  0.0994
  722SOL    HW1 2165   2.824   0.718   2.281  1.6201 -1.2134 -0.5440
  722SOL    HW2 2166   2.783   0.598   2.392 -0.0758  0.0680  2.8609
  723SOL     OW 2167   2.139   0.247   0.293 -0.3428 -0.0910  0.1598
  723SOL    HW1 2168   2.183   0.306   0.226 -1.1833 -1.0402 -0.9596
  723SOL    HW2 2169   2.095   0.309   0.365 -0.3658  1.8471 -2.1819
  724SOL     OW 2170   0.614   1.771   2.012 -0.1350 -0.3881  0.8157
  724SOL    HW1 2171   0.602   1.673   2.020 -2.7365  1.7047 -0.6448
  724SOL    HW2 2172   0.637   1.801   1.915 -1.9748  0.4578 -1.6006
  725SOL     OW 2173   1.572   3.003   1.243  0.0092  0.1272 -0.1971
  725SOL    HW1 2174   1.604   3.034   1.152  0.8681 -1.3991  1.4499
  725SOL    HW2 2175   1.660   2.980   1.286 -1.8122  1.5264 -0.6305
  726SOL     OW 2176   2.058   2.516   0.134  0.5098  0.4954  0.8149
  726SOL    HW1 2177   1.989   2.572   0.086  0.6422  0.1574  2.6508
  726SOL    HW2 2178   2.074   2.545   0.231  0.4849 -1.4034  2.0114
  727SOL     OW 2179   1.699   1.448   1.314  0.0423 -0.1749  0.6651
  727SOL    HW1 2180   1.788   1.406   1.335  0.8691  0.2794 -0.8092
  727SOL    HW2 2181   1.688   1.541   1.356  0.8025 -1.4074  0.9066
  728SOL     OW 2182   2.014   2.970   1.627 -0.0304 -0.1839  0.1906
  728SOL    HW1 2183   1.982   3.038   1.695 -0.4635 -0.7872 -0.1727
  728SOL    HW2 2184   1.993   2.878   1.666  1.9022 -1.0065  0.1307
  729SOL     OW 2185   2.127   1.966   0.827  0.5203  1.1329 -0.1058
  729SOL    HW1 2186   2.123   1.980   0.727  2.9202  0.3906  0.6007
  729SOL    HW2 2187   2.218   1.999   0.860 -0.1667  0.0055 -0.8322
  730SOL     OW 2188   1.331   0.622   2.762 -0.1126  0.2993 -0.0740
  730SOL    HW1 2189   1.248   0.631   2.704 -0.0991  0.7071  0.6624
  730SOL    HW2 2190   1.416   0.650   2.708  0.0943  1.5039  0.7079
  731SOL     OW 2191   0.539   3.080   1.090  0.1816  0.1644  0.1274
  731SOL    HW1 2192   0.494   3.089   1.183 -0.0927 -2.1185  1.0206
  731SOL    HW2 2193   0.510   2.995   1.043 -0.5002  3.0979 -1.2458
  732SOL     OW 2194   1.391   0.669   0.448 -0.2457 -0.0991 -0.2689
  732SOL    HW1 2195   1.297   0.632   0.427 -2.7031 -0.5788  1.8382
  732SOL    HW2 2196   1.447   0.588   0.478  0.5220 -0.4217 -0.6642
  733SOL     OW 2197   0.647   2.050   1.584 -0.3289 -0.0953 -0.2966
  733SOL    HW1 2198   0.716   2.034   1.507 -0.4752 -0.4891  0.0156
  733SOL    HW2 2199   0.558   2.089   1.545  0.8473 -0.3433  1.2140
  734SOL     OW 2200   0.124   2.618   0.331  0.6004  0.3519  0.6698
  734SOL    HW1 2201   0.141   2.543   0.396  2.4907 -0.5500  0.7640
  734SOL    HW2 2202   0.160   2.590   0.240  0.6340 -1.8635 -1.5020
  735SOL     OW 2203   1.195   0.216   1.175  0.1725  0.5515  0.5137
  735SOL    HW1 2204   1.155   0.158   1.244  0.0683  1.3682 -3.6469
  735SOL    HW2 2205   1.295   0.205   1.177  0.8181 -0.0253 -1.7105
  736SOL     OW 2206   2.138   2.201   0.336 -0.4545  0.3159 -0.4634
  736SOL    HW1 2207   2.219   2.205   0.395 -3.6475  2.9189 -2.0696
  736SOL    HW2 2208   2.158   2.191   0.237 -0.7377  3.8791  0.4349
  737SOL     OW 2209   3.078   1.381   1.091  0.3256 -0.3984 -0.5156
  737SOL    HW1 2210   0.035   1.460   1.055 -1.6665  3.4272  3.5383
  737SOL    HW2 2211   3.024   1.412   1.170  2.8902  1.7302  1.5644
  738SOL     OW 2212   2.159   2.365   2.332 -0.0968  0.1556  0.1330
  738SOL    HW1 2213   2.112   2.427   2.393 -0.2699 -0.1919  0.7205
  738SOL    HW2 2214   2.255   2.388   2.309 -0.4558 -0.2166  2.3690
  739SOL     OW 2215   1.229   2.063   2.913 -0.2669  0.1437  0.1907
  739SOL    HW1 2216   1.194   2.102   3.001 -3.0419 -0.5306 -0.4387
  739SOL    HW2 2217   1.172   2.097   2.834 -1.1761  0.5462 -2.9404
  740SOL     OW 2218   1.479   0.156   1.173 -0.0073  0.0927  0.2063
  740SOL    HW1 2219   1.555   0.204   1.132 -3.1928  0.7466  1.1135
  740SOL    HW2 2220   1.494   0.055   1.185 -1.4886 -0.1767 -2.8214
  741SOL     OW 2221   0.133   1.128   0.664  0.0882  0.7132 -0.8632
  741SOL    HW1 2222   0.230   1.095   0.655  0.0719 -1.2552 -3.2192
  741SOL    HW2 2223   0.071   1.061   0.615  0.1421  2.0062 -2.6955
  742SOL     OW 2224   0.852   1.217   2.451 -0.3146 -0.1018 -0.5284
  742SOL    HW1 2225   0.870   1.204   2.549 -0.4392 -1.3959  1.4712
  742SOL    HW2 2226   0.769   1.274   2.432  0.4665  2.8645  0.1769
  743SOL     OW 2227   0.966   0.838   1.934  0.1768 -0.5371 -0.0753
  743SOL    HW1 2228   0.936   0.935   1.939 -1.2741 -0.1497 -0.7667
  743SOL    HW2 2229   1.030   0.820   2.010  1.7432  0.7099  1.2968
  744SOL     OW 2230   1.879   0.308   1.433  0.1255  0.6707  0.5446
  744SOL    HW1 2231   1.885   0.269   1.339  1.2924 -0.3942  2.0253
  744SOL    HW2 2232   1.970   0.324   1.475 -0.4682  0.0233 -2.5626
  745SOL     OW 2233   2.226   1.163   1.427 -0.0800  0.1194 -0.2945
  745SOL    HW1 2234   2.221   1.255   1.473  0.1400 -1.1626 -0.4408
  745SOL    HW2 2235   2.313   1.149   1.376  2.2955 -0.4590 -1.8210
  746SOL     OW 2236   2.009   1.136   0.346  0.6250  0.1227 -0.2946
  746SOL    HW1 2237   1.960   1.223   0.316 -2.4237  0.2247  1.4509
  746SOL    HW2 2238   2.103   1.164   0.365  2.1266  0.8261 -1.2232
  747SOL     OW 2239   2.744   1.657   1.268  0.0254  0.0825  0.1235
  747SOL    HW1 2240   2.745   1.688   1.171 -0.1770  1.4947 -0.9823
  747SOL    HW2 2241   2.767   1.738   1.324 -1.6135 -1.7352  1.7215
  748SOL     OW 2242   0.425   1.980   0.507 -0.1185 -0.1632 -0.1201
  748SOL    HW1 2243   0.412   2.063   0.564 -0.7741 -2.2320  0.3942
  748SOL    HW2 2244   0.522   1.957   0.497  0.6083 -0.4993 -1.3264
  749SOL     OW 2245   2.729   2.546   2.551 -0.1804 -0.3857  0.0696
  749SOL    HW1 2246   2.752   2.500   2.460  1.4919  0.7685  2.0770
  749SOL    HW2 2247   2.635   2.525   2.581  1.2759 -0.0615  2.6107
  750SOL     OW 2248   2.403   0.869   0.783  0.7386  0.1250 -0.1769
  750SOL    HW1 2249   2.397   0.782   0.837 -3.2710  4.8149 -0.8338
  750SOL    HW2 2250   2.319   0.875   0.726 -2.1190 -0.9246  0.6320
  751SOL     OW 2251   2.398   3.013   0.096  0.5112 -0.3853 -0.0046
  751SOL    HW1 2252   2.413   3.095   0.042  0.1412  0.9884 -1.8953
  751SOL    HW2 2253   2.466   2.939   0.083 -1.0436 -1.4541 -0.2955
  752SOL     OW 2254   0.007   2.760   0.766  0.1939  0.4215  0.3511
  752SOL    HW1 2255   0.012   2.832   0.701 -0.9523  0.1377  1.4001
  752SOL    HW2 2256   3.039   2.686   0.745 -0.3644  1.1443 -2.8331
  753SOL     OW 2257   1.695   0.985   2.171  0.1476 -0.0523 -0.4179
  753SOL    HW1 2258   1.755   1.051   2.224  1.4550  1.5594  0.4200
  753SOL    HW2 2259   1.652   0.924   2.242  1.3610  0.3434 -0.6161
  754SOL     OW 2260   1.669   2.045   1.493  0.4975  0.0787  0.3508
  754SOL    HW1 2261   1.743   2.103   1.450  1.3572 -1.3258  0.6661
  754SOL    HW2 2262   1.614   1.991   1.425 -0.9281  0.1714 -0.3152
  755SOL     OW 2263   2.536   1.134   0.531  0.0899 -0.1878 -0.1995
  755SOL    HW1 2264   2.580   1.048   0.549 -0.0538 -0.6474  0.1250
  755SOL    HW2 2265   2.452   1.138   0.588 -0.0418 -3.2989  1.7886
  756SOL     OW 2266   0.634   1.343   2.769  0.4479  0.1546 -0.0997
  756SOL    HW1 2267   0.602   1.249   2.783  3.5497  0.4715  2.2824
  756SOL    HW2 2268   0.732   1.331   2.741 -0.1273  0.7965 -1.5793
  757SOL     OW 2269   1.619   2.328   0.774  0.1633  0.0787 -0.5346
  757SOL    HW1 2270   1.635   2.231   0.745  1.6763 -0.5938  3.0349
  757SOL    HW2 2271   1.552   2.336   0.851 -3.6297  0.3734 -0.4585
  758SOL     OW 2272   1.277   2.655   1.496 -0.0187  0.3992  0.2242
  758SOL    HW1 2273   1.185   2.679   1.475 -1.6683 -0.9614  1.9155
  758SOL    HW2 2274   1.286   2.555   1.477 -0.9542  1.0219 -0.0872
  759SOL     OW 2275   0.052   0.794   0.860  0.0458 -0.4056  0.0942
  759SOL    HW1 2276   3.087   0.872   0.847  3.0206 -0.7893 -1.7734
  759SOL    HW2 2277   0.091   0.810   0.950 -2.5521  0.2450 -2.4620
  760SOL     OW 2278   2.439   1.198   1.263 -0.1566  0.0365  0.5121
  760SOL    HW1 2279   2.408   1.106   1.228  0.3133 -0.0040 -2.1380
  760SOL    HW2 2280   2.415   1.274   1.202  0.8920 -1.9487  0.4240
  761SOL     OW 2281   2.004   0.031   0.100 -0.2870  0.0154 -0.7104
  761SOL    HW1 2282   1.925   0.019   0.164 -1.2936 -2.1088  1.2613
  761SOL    HW2 2283   2.077   0.089   0.141 -0.2259  1.6135 -0.0896
  762SOL     OW 2284   2.097   1.457   2.987 -0.2584  1.0465  0.2931
  762SOL    HW1 2285   2.136   1.368   2.971 -2.4253  0.9735  0.1692
  762SOL    HW2 2286   2.066   1.498   2.901  0.0524 -1.2238  0.1446
  763SOL     OW 2287   0.270   2.082   1.879 -0.1854 -0.6520 -0.1364
  763SOL    HW1 2288   0.316   2.029   1.955 -0.5018  0.2642 -0.1897
  763SOL    HW2 2289   0.269   2.026   1.796 -0.6532 -0.4705 -2.5086
  764SOL     OW 2290   0.000   2.296   0.065  0.0289  0.4634  0.2395
  764SOL    HW1 2291   3.042   2.256   0.138  2.4816  4.5386 -0.9011
  764SOL    HW2 2292   3.044   2.362   0.006  2.6147  3.2686 -2.2910
  765SOL     OW 2293   0.467   3.036   1.347 -0.0309  0.5074 -0.2993
  765SOL    HW1 2294   0.552   3.009   1.393 -1.0636  1.8659 -0.9424
  765SOL    HW2 2295   0.421   2.957   1.296 -1.6140 -2.7599 -2.0720
  766SOL     OW 2296   2.915   1.979   2.283 -0.4191 -0.8143  0.0223
  766SOL    HW1 2297   2.959   1.913   2.344  0.5697  1.1056  1.3460
  766SOL    HW2 2298   2.814   1.987   2.311  0.4660  1.3436 -1.3334
  767SOL     OW 2299   2.480   0.883   2.093 -0.4472  0.1564 -0.4900
  767SOL    HW1 2300   2.503   0.848   2.001 -0.2384 -0.4446 -0.0237
  767SOL    HW2 2301   2.467   0.800   2.153 -0.2537 -0.4407  0.3354
  768SOL     OW 2302   1.276   3.054   2.777  0.0837  0.4539  0.6927
  768SOL    HW1 2303   1.216   3.049   2.861 -1.3828 -1.2270  0.8438
  768SOL    HW2 2304   1.371   3.078   2.793 -0.1485 -0.8077  0.0739
  769SOL     OW 2305   2.746   2.727   0.935  0.3717  0.1589 -0.5304
  769SOL    HW1 2306   2.830   2.743   0.989  0.4192  0.3569  0.6410
  769SOL    HW2 2307   2.660   2.765   0.985 -3.0014  0.6749 -1.4392
  770SOL     OW 2308   0.594   3.041   2.858  1.1025 -0.2635 -0.8883
  770SOL    HW1 2309   0.606   2.942   2.841  0.3956 -1.7882 -0.8090
  770SOL    HW2 2310   0.537   3.051   2.944 -0.8592 -0.4408 -0.0925
  771SOL     OW 2311   1.206   2.012   2.285  0.2696 -0.1343  0.0154
  771SOL    HW1 2312   1.267   2.053   2.215 -0.2725  1.8951 -1.4864
  771SOL    HW2 2313   1.187   1.917   2.257  3.3234  2.3958 -2.2333
  772SOL     OW 2314   1.600   2.638   2.863 -0.1356 -0.1326 -0.2412
  772SOL    HW1 2315   1.509   2.610   2.889 -0.7261  2.1647 -2.9746
  772SOL    HW2 2316   1.620   2.720   2.917 -1.8269 -0.5610  2.0451
  773SOL     OW 2317   2.057   0.674   1.306  0.0142 -0.0662  0.1905
  773SOL    HW1 2318   2.081   0.773   1.293  2.8312 -0.1113 -1.5070
  773SOL    HW2 2319   1.967   0.657   1.264  0.3152  1.0748  0.5349
  774SOL     OW 2320   0.961   0.938   1.082 -0.0619  0.2911  0.0562
  774SOL    HW1 2321   0.970   1.037   1.080 -0.2186  0.0694  1.4780
  774SOL    HW2 2322   0.999   0.899   1.166 -2.5149  0.4137 -2.2473
  775SOL     OW 2323   1.818   2.711   2.643 -0.0614 -0.0266  0.3096
  775SOL    HW1 2324   1.717   2.702   2.651  3.2147  0.0216  0.8907
  775SOL    HW2 2325   1.858   2.658   2.720  0.6750  1.7016  2.1328
  776SOL     OW 2326   2.117   0.926   1.266  0.0360  0.0329  0.1776
  776SOL    HW1 2327   2.158   0.946   1.360  0.4591  1.7870  0.5797
  776SOL    HW2 2328   2.171   0.965   1.192  2.3709 -2.1095  1.8010
  777SOL     OW 2329   0.108   1.068   2.030 -0.2632 -0.2471 -0.3241
  777SOL    HW1 2330   0.139   0.973   2.028  2.5784 -2.3826  3.2809
  777SOL    HW2 2331   0.123   1.108   2.123  0.9107  2.5571  0.1079
  778SOL     OW 2332   0.191   0.793   0.144  0.8846  0.4074 -0.2967
  778SOL    HW1 2333   0.271   0.846   0.098  3.3943  1.3052 -1.6384
  778SOL    HW2 2334   0.121   0.856   0.181 -1.1266  2.4417  4.5018
  779SOL     OW 2335   0.660   0.373   2.824 -0.2429  0.3358 -0.0187
  779SOL    HW1 2336   0.738   0.366   2.890  0.4807  1.9633  0.1887
  779SOL    HW2 2337   0.694   0.373   2.730 -0.1764  1.0159 -2.0872
  780SOL     OW 2338   2.187   1.261   2.592  0.1356  0.2760 -0.0766
  780SOL    HW1 2339   2.282   1.248   2.563  0.0125  0.2898 -1.1047
  780SOL    HW2 2340   2.177   1.351   2.641  0.9763  1.7568 -0.5198
  781SOL     OW 2341   2.807   1.072   1.984  0.4311 -0.1733 -0.0910
  781SOL    HW1 2342   2.723   1.116   1.947  0.0498  1.1774  2.8953
  781SOL    HW2 2343   2.803   0.969   1.981  0.3818 -0.8695 -0.9811
  782SOL     OW 2344   0.782   1.752   2.801 -0.3319  0.3609 -0.0369
  782SOL    HW1 2345   0.711   1.683   2.776  0.9678  0.2235  0.2844
  782SOL    HW2 2346   0.740   1.822   2.861 -1.2892 -2.9676 -2.0492
  783SOL     OW 2347   1.323   2.196   1.227  0.0404 -0.2296  0.3856
  783SOL    HW1 2348   1.417   2.173   1.204 -2.3791 -2.3832 -2.8775
  783SOL    HW2 2349   1.257   2.194   1.149 -0.2303 -2.1175 -1.1201
  784SOL     OW 2350   1.658   0.645   2.431  0.3662  0.6219 -0.5092
  784SOL    HW1 2351   1.760   0.640   2.417  0.7821  0.2789 -4.1439
  784SOL    HW2 2352   1.611   0.566   2.381 -0.9391 -0.0179 -1.0325
  785SOL     OW 2353   0.067   0.149   1.922  0.7426 -0.8919 -0.4829
  785SOL    HW1 2354   0.001   0.212   1.973 -0.6333  1.6291  3.5605
  785SOL    HW2 2355   0.014   0.068   1.888 -0.6911 -2.1402  0.2161
  786SOL     OW 2356   0.948   2.034   0.405  0.2969  0.2215 -0.4435
  786SOL    HW1 2357   0.867   1.999   0.354  2.7211  0.6546 -0.7411
  786SOL    HW2 2358   0.936   2.130   0.438  0.8958 -1.6118 -1.5946
  787SOL     OW 2359   1.318   0.123   0.729  0.1191  0.0085 -0.0222
  787SOL    HW1 2360   1.253   0.189   0.680 -2.3599 -1.2527  0.9175
  787SOL    HW2 2361   1.271   0.087   0.812  0.3065 -2.1829 -1.0717
  788SOL     OW 2362   2.917   1.434   1.311 -0.0481  0.3303 -0.2819
  788SOL    HW1 2363   2.857   1.513   1.300 -0.5420 -1.0769 -1.2542
  788SOL    HW2 2364   2.956   1.429   1.406  1.2049  1.3295  1.6698
  789SOL     OW 2365   2.490   1.081   2.262  0.4274  0.4424  0.3639
  789SOL    HW1 2366   2.482   1.007   2.192 -0.2280  2.6419  0.5823
  789SOL    HW2 2367   2.563   1.150   2.226 -0.1685  0.7453 -1.1047
  790SOL     OW 2368   0.832   0.331   0.154 -0.1489 -0.0725  0.3956
  790SOL    HW1 2369   0.787   0.421   0.166 -0.1934 -1.2843 -1.6281
  790SOL    HW2 2370   0.785   0.255   0.206 -0.3114  0.5841 -0.0452
  791SOL     OW 2371   0.007   0.110   0.024  0.3554  0.3525  0.2568
  791SOL    HW1 2372   3.027   0.048   3.088  0.4407 -0.2300  0.1705
  791SOL    HW2 2373   0.015   0.188   3.062  0.9436  0.4722  2.4205
  792SOL     OW 2374   1.314   0.338   2.133  0.2428 -0.1401  0.4746
  792SOL    HW1 2375   1.400   0.282   2.140 -0.3198 -0.5856 -0.2703
  792SOL    HW2 2376   1.288   0.382   2.219  1.2449  1.1407  1.4672
  793SOL     OW 2377   2.931   0.291   1.361 -0.1091 -0.4950 -0.3181
  793SOL    HW1 2378   2.974   0.286   1.267 -1.1106 -2.8641 -0.3649
  793SOL    HW2 2379   2.963   0.377   1.405 -0.2692  0.2029 -0.0145
  794SOL     OW 2380   0.043   0.596   2.026 -0.2662  0.0023 -0.3103
  794SOL    HW1 2381   0.111   0.665   1.993 -0.5739  1.6233 -0.9430
  794SOL    HW2 2382   3.058   0.584   1.967  0.1075  1.5492  0.9322
  795SOL     OW 2383   0.685   1.404   0.643 -0.5559  0.5465  0.0928
  795SOL    HW1 2384   0.785   1.422   0.648  2.2094  1.1415 -1.0380
  795SOL    HW2 2385   0.662   1.326   0.580 -0.7586 -0.6783  0.3272
  796SOL     OW 2386   2.995   0.801   0.028  0.2345 -0.3330 -1.0093
  796SOL    HW1 2387   2.967   0.839   3.033  2.1967  1.0832 -1.1107
  796SOL    HW2 2388   3.092   0.808   0.042 -1.6351 -0.3658  0.6757
  797SOL     OW 2389   1.644   2.993   2.522 -0.8032  0.1877  0.4510
  797SOL    HW1 2390   1.744   3.004   2.539 -0.7399  0.3651 -0.5899
  797SOL    HW2 2391   1.600   2.903   2.548  0.5424 -1.8264  0.3439
  798SOL     OW 2392   2.943   0.015   1.393 -0.0841  0.5155 -0.4063
  798SOL    HW1 2393   2.923   0.116   1.397 -0.2638 -0.6552  0.6428
  798SOL    HW2 2394   3.033   3.092   1.349  0.7239 -0.9793 -0.6486
  799SOL     OW 2395   2.471   1.084   1.782  0.3385 -0.3241 -0.6012
  799SOL    HW1 2396   2.386   1.032   1.788 -0.6432  3.5318  0.8313
  799SOL    HW2 2397   2.500   1.088   1.684 -0.8058  0.0771 -2.8857
  800SOL     OW 2398   0.084   1.841   0.685 -0.1729  0.3394 -0.1864
  800SOL    HW1 2399   0.155   1.911   0.712  0.4175 -1.2915 -2.0491
  800SOL    HW2 2400   0.110   1.795   0.596  3.2798 -0.3101  0.1205
  801SOL     OW 2401   1.683   1.697   0.399 -0.6646 -0.2294 -0.1723
  801SOL    HW1 2402   1.648   1.618   0.345 -0.3729  0.5196  1.9129
  801SOL    HW2 2403   1.668   1.690   0.497 -0.1395  0.9168  0.1716
  802SOL     OW 2404   1.232   1.184   2.711 -0.2829 -0.4592  0.0338
  802SOL    HW1 2405   1.217   1.224   2.617 -3.0516  1.6693  2.9846
  802SOL    HW2 2406   1.313   1.221   2.755 -0.7247 -2.2489  0.5940
  803SOL     OW 2407   0.397   1.957   2.110 -0.5293 -0.3144  0.4665
  803SOL    HW1 2408   0.489   1.958   2.061  1.5970  0.7141  1.8555
  803SOL    HW2 2409   0.379   1.869   2.153  0.4134 -1.4812 -1.9582
  804SOL     OW 2410   1.399   1.989   0.690 -0.3936 -0.3715  0.3772
  804SOL    HW1 2411   1.428   1.923   0.762  0.8995  1.4586 -1.1987
  804SOL    HW2 2412   1.331   2.059   0.722  2.4796 -1.4565 -0.9999
  805SOL     OW 2413   2.350   2.205   2.673 -0.4964 -1.0149  0.8548
  805SOL    HW1 2414   2.404   2.129   2.717  1.0562 -0.5553 -1.5844
  805SOL    HW2 2415   2.399   2.286   2.636  0.8331  1.6140 -0.9851
  806SOL     OW 2416   0.252   0.422   0.838 -0.1699  0.1614 -0.1571
  806SOL    HW1 2417   0.288   0.328   0.849  0.1276 -0.2731 -3.3013
  806SOL    HW2 2418   0.305   0.492   0.892 -1.6804  0.6150  0.6376
  807SOL     OW 2419   2.691   0.696   2.812 -0.0980 -0.4304 -0.2969
  807SOL    HW1 2420   2.678   0.617   2.755 -0.5687  1.0220  1.9396
  807SOL    HW2 2421   2.788   0.739   2.795  5.4718 -1.2185  1.0957
  808SOL     OW 2422   0.729   2.124   0.672  0.1429 -0.5798 -0.3184
  808SOL    HW1 2423   0.729   2.037   0.624 -1.5496  3.3474  2.9340
  808SOL    HW2 2424   0.638   2.168   0.659  1.5065  1.9414 -0.2608
  809SOL     OW 2425   2.670   0.066   2.639  0.4371  0.6015  0.3057
  809SOL    HW1 2426   2.693   3.069   2.617  0.3415 -1.0756 -1.4196
  809SOL    HW2 2427   2.570   0.086   2.636 -1.9014  0.9821 -1.0320
  810SOL     OW 2428   1.623   0.977   0.572  0.6421  0.2086  0.0700
  810SOL    HW1 2429   1.661   0.999   0.664 -1.2226  0.3032  0.7738
  810SOL    HW2 2430   1.632   0.875   0.563  1.3331 -2.1033  0.8406
  811SOL     OW 2431   1.683   2.991   1.941 -0.0098  1.0280 -0.1403
  811SOL    HW1 2432   1.612   2.995   1.870 -0.6936 -0.3001 -1.6395
  811SOL    HW2 2433   1.651   2.962   2.033 -0.3202 -2.1711 -2.6261
  812SOL     OW 2434   2.049   2.634   0.412  0.1251  0.2831 -0.1258
  812SOL    HW1 2435   1.988   2.562   0.453  0.9319  0.3249  1.5742
  812SOL    HW2 2436   2.004   2.723   0.399 -0.5881 -2.7568 -0.9725
  813SOL     OW 2437   0.958   0.555   1.963 -0.1332 -1.0089  0.2457
  813SOL    HW1 2438   1.053   0.537   1.939 -1.2797  0.3506  0.1073
  813SOL    HW2 2439   0.926   0.654   1.947  0.0832  2.3872 -0.0286
  814SOL     OW 2440   0.097   3.057   1.334  0.6045 -0.3054 -0.1503
  814SOL    HW1 2441   0.158   0.029   1.371 -1.6672 -1.1551  0.3403
  814SOL    HW2 2442   0.125   2.963   1.364  0.9507  1.0703 -3.2409
  815SOL     OW 2443   0.361   0.179   0.875 -0.5240 -0.5704  0.6803
  815SOL    HW1 2444   0.430   0.195   0.801  1.2589  1.8137  0.8285
  815SOL    HW2 2445   0.308   0.093   0.858  0.9810 -0.2074  2.5407
  816SOL     OW 2446   0.050   1.803   2.160  0.6264  0.4380  0.1528
  816SOL    HW1 2447   3.081   1.873   2.192 -2.5107  1.5192 -1.6208
  816SOL    HW2 2448   0.056   1.812   2.055 -1.3534  1.2153 -2.5557
  817SOL     OW 2449   1.207   0.074   0.168  0.6996 -0.1041 -0.3989
  817SOL    HW1 2450   1.154   0.166   0.185 -1.6351  2.3641 -0.1286
  817SOL    HW2 2451   1.198   0.004   0.240  1.2615 -0.0471 -1.3377
  818SOL     OW 2452   1.605   0.605   0.090 -0.1568  0.5673 -0.2545
  818SOL    HW1 2453   1.707   0.605   0.071 -0.7194  0.6407 -2.0034
  818SOL    HW2 2454   1.578   0.525   0.148 -3.5242 -3.3270 -1.2434
  819SOL     OW 2455   2.235   2.754   3.062  0.3056 -0.8997 -0.0219
  819SOL    HW1 2456   2.183   2.669   3.063 -1.8735  2.5059  0.4325
  819SOL    HW2 2457   2.217   2.801   0.049 -0.4114 -1.6002  1.1876
  820SOL     OW 2458   1.468   1.257   2.859 -0.1988  0.2271  0.0402
  820SOL    HW1 2459   1.487   1.191   2.934 -0.1190  2.0906  1.8315
  820SOL    HW2 2460   1.557   1.275   2.814  0.5973  0.3682  0.8370
  821SOL     OW 2461   0.079   0.467   1.348  0.2025 -0.0230 -0.1247
  821SOL    HW1 2462   0.143   0.434   1.421 -1.4670 -3.0589  0.4014
  821SOL    HW2 2463   0.074   0.401   1.272  3.1610  1.1941 -0.6002
  822SOL     OW 2464   1.101   2.538   2.447  0.2667 -0.6359 -0.1080
  822SOL    HW1 2465   1.187   2.494   2.471 -0.0981  1.2135 -0.4044
  822SOL    HW2 2466   1.049   2.464   2.403  0.1001  0.8189  2.3715
  823SOL     OW 2467   0.409   1.294   1.633  0.4178 -0.0947 -0.1288
  823SOL    HW1 2468   0.453   1.386   1.648  0.9125  2.3865  0.9635
  823SOL    HW2 2469   0.476   1.222   1.661  0.1948  1.5075  0.5266
  824SOL     OW 2470   1.760   2.690   2.208 -0.0048 -0.2435  0.1967
  824SOL    HW1 2471   1.790   2.643   2.297  1.0046 -0.6179  2.2974
  824SOL    HW2 2472   1.732   2.791   2.210 -1.9092  1.9624  2.1585
  825SOL     OW 2473   1.096   1.161   0.025  0.6936  0.6124 -0.1370
  825SOL    HW1 2474   1.152   1.088   0.057 -0.5889  2.2548  1.8376
  825SOL    HW2 2475   1.064   1.213   0.109 -2.1048  3.0638  0.8968
  826SOL     OW 2476   2.190   0.704   2.906  0.5271 -0.9182  0.0787
  826SOL    HW1 2477   2.116   0.761   2.855 -2.5091 -0.0772 -2.1127
  826SOL    HW2 2478   2.246   0.760   2.965  0.7685 -0.3762  1.8083
  827SOL     OW 2479   0.422   2.193   2.843 -0.0640  0.1734  0.4280
  827SOL    HW1 2480   0.499   2.190   2.777 -1.0386  2.0064 -0.3932
  827SOL    HW2 2481   0.373   2.102   2.857 -0.3553 -1.6717  1.6699
  828SOL     OW 2482   2.741   0.495   1.648 -0.3377 -0.2430 -0.7846
  828SOL    HW1 2483   2.722   0.402   1.614  2.3476  0.4133 -1.7509
  828SOL    HW2 2484   2.837   0.513   1.639 -2.0363  1.8471  3.0024
  829SOL     OW 2485   0.748   1.433   1.033 -0.2435  0.1460  0.1956
  829SOL    HW1 2486   0.771   1.517   0.977 -0.0752  0.1104 -0.5783
  829SOL    HW2 2487   0.806   1.356   0.994  1.9215  0.2427  0.7827
  830SOL     OW 2488   0.782   1.054   1.374  0.0507  0.2533 -0.3710
  830SOL    HW1 2489   0.754   1.115   1.297 -0.5904  0.7306  2.0974
  830SOL    HW2 2490   0.700   1.027   1.431 -0.7349  0.8418 -0.9761
  831SOL     OW 2491   0.525   1.808   0.155 -0.3608  0.6956 -0.5019
  831SOL    HW1 2492   0.488   1.760   0.232  0.3678  0.2750 -2.3694
  831SOL    HW2 2493   0.450   1.858   0.109  2.2350  1.0412 -1.1968
  832SOL     OW 2494   0.845   0.001   2.996 -0.1273 -0.0298  0.3981
  832SOL    HW1 2495   0.775   0.001   2.921 -2.9072 -1.6277 -0.5147
  832SOL    HW2 2496   0.802   0.029   3.084 -1.7145  3.5907  2.4676
  833SOL     OW 2497   0.209   0.439   1.856 -0.1202 -0.0342 -0.1783
  833SOL    HW1 2498   0.238   0.349   1.889 -0.5240 -0.4847  1.0582
  833SOL    HW2 2499   0.133   0.481   1.904 -0.8465 -0.1691 -3.8660
  834SOL     OW 2500   2.902   0.392   0.939 -0.2933  0.6713 -0.5087
  834SOL    HW1 2501   2.845   0.471   0.969  1.2149  0.4526  2.8960
  834SOL    HW2 2502   2.981   0.432   0.892  0.9984  0.1540 -1.9602
  835SOL     OW 2503   2.655   0.091   1.049  0.6462 -0.1502  0.5138
  835SOL    HW1 2504   2.756   0.097   1.049 -0.2744  1.8311  0.3841
  835SOL    HW2 2505   2.640   0.025   1.119  1.8217 -0.7141 -1.9473
  836SOL     OW 2506   0.075   2.118   2.963  0.0779  0.3208  0.2379
  836SOL    HW1 2507   0.048   2.167   2.876 -0.5727  2.8445  2.1765
  836SOL    HW2 2508   0.023   2.154   3.040  0.9444  0.5980  0.7155
  837SOL     OW 2509   1.757   1.961   2.902  0.3295  0.5571 -0.0882
  837SOL    HW1 2510   1.818   2.028   2.857 -0.2112 -2.2571  3.9819
  837SOL    HW2 2511   1.735   1.899   2.824  1.8478  0.2151 -2.7758
  838SOL     OW 2512   2.729   0.970   1.501  0.3901 -0.2189 -0.0373
  838SOL    HW1 2513   2.767   0.928   1.422 -0.1860  2.6379  1.8427
  838SOL    HW2 2514   2.698   0.910   1.576 -0.7509  1.2475 -0.2121
  839SOL     OW 2515   1.229   0.739   0.726 -0.1422  0.0370  0.7479
  839SOL    HW1 2516   1.145   0.778   0.761  0.8271 -1.8841  0.9104
  839SOL    HW2 2517   1.236   0.730   0.621  1.1620 -2.7490 -5.2037
  840SOL     OW 2518   1.691   0.275   1.000  0.5160 -0.2668  0.1106
  840SOL    HW1 2519   1.640   0.222   0.927  0.3194 -1.3059  0.6482
  840SOL    HW2 2520   1.645   0.367   1.020 -1.0119  0.6251  2.0442
  841SOL     OW 2521   0.498   2.711   0.581 -0.1402 -0.3909 -0.2146
  841SOL    HW1 2522   0.427   2.754   0.525 -1.4376  1.4399 -0.1500
  841SOL    HW2 2523   0.579   2.772   0.593 -0.5347 -0.9828  1.2314
  842SOL     OW 2524   0.482   0.735   0.443  0.3598  0.7526 -0.5311
  842SOL    HW1 2525   0.540   0.686   0.517  0.5612  0.0207  2.7006
  842SOL    HW2 2526   0.396   0.687   0.426  1.7227 -1.7739 -0.9383
  843SOL     OW 2527   0.954   1.108   1.585  0.0048 -0.0692 -0.2774
  843SOL    HW1 2528   0.914   1.134   1.675 -1.6356 -0.6127  0.9923
  843SOL    HW2 2529   0.883   1.096   1.513  0.9398 -0.6402  1.2394
  844SOL     OW 2530   1.379   2.224   0.120 -0.4915 -0.5203 -0.3960
  844SOL    HW1 2531   1.441   2.163   0.072  4.2843  2.6721 -0.0375
  844SOL    HW2 2532   1.416   2.320   0.105  1.2110 -1.9098  0.2849
  845SOL     OW 2533   2.399   2.489   2.281 -0.4126  0.3175  0.6946
  845SOL    HW1 2534   2.423   2.588   2.271  0.7296 -0.8780 -0.9907
  845SOL    HW2 2535   2.421   2.434   2.198  3.0108  2.1640  1.1349
  846SOL     OW 2536   2.040   2.154   2.965 -0.0535 -1.0554 -0.2038
  846SOL    HW1 2537   1.985   2.157   2.876  2.3153 -0.3007 -3.7385
  846SOL    HW2 2538   1.998   2.213   3.041  0.9654  0.0346  3.5591
  847SOL     OW 2539   1.916   2.970   2.588  0.2441  0.2761 -0.2322
  847SOL    HW1 2540   2.007   2.985   2.546 -1.5320 -2.8450 -0.3300
  847SOL    HW2 2541   1.917   2.872   2.614  2.8128  0.3545  1.1628
  848SOL     OW 2542   0.912   0.520   0.469  0.6337 -0.4691  0.1095
  848SOL    HW1 2543   0.833   0.496   0.407 -0.0598 -1.6215 -0.9900
  848SOL    HW2 2544   0.920   0.448   0.537 -0.4106 -0.4297  1.8838
  849SOL     OW 2545   0.876   2.939   1.078 -0.1674  0.0121  0.2460
  849SOL    HW1 2546   0.829   3.024   1.105 -0.0196  1.2089 -1.0981
  849SOL    HW2 2547   0.958   2.923   1.138 -0.0544  1.0246 -1.0315
  850SOL     OW 2548   0.174   1.623   0.191 -0.4973  0.1072 -0.2550
  850SOL    HW1 2549   0.241   1.680   0.243  0.4856 -0.9046  1.3011
  850SOL    HW2 2550   0.161   1.664   0.092 -2.0165  3.2604 -4.0030
  851SOL     OW 2551   0.136   0.957   0.440  0.0501 -0.4304 -0.2819
  851SOL    HW1 2552   0.081   0.961   0.356  1.1318 -0.7420 -1.2525
  851SOL    HW2 2553   0.127   0.868   0.486  0.7694 -1.2741 -0.4816
  852SOL     OW 2554   1.870   1.940   1.653 -0.1540 -0.1956  0.2490
  852SOL    HW1 2555   1.830   1.939   1.748  0.5211 -1.1223 -0.1926
  852SOL    HW2 2556   1.796   1.980   1.591 -3.9710  1.4256 -1.2768
  853SOL     OW 2557   0.370   1.748   0.368  0.2485  0.0601  0.4111
  853SOL    HW1 2558   0.310   1.702   0.437 -1.1306 -2.2890 -3.3102
  853SOL    HW2 2559   0.409   1.834   0.411 -1.5516  1.7835 -0.0640
  854SOL     OW 2560   1.935   1.302   1.392 -0.3877  0.1511  0.3619
  854SOL    HW1 2561   1.942   1.284   1.290 -0.2943  1.5909 -0.5216
  854SOL    HW2 2562   1.952   1.215   1.447  1.0925  1.9249  0.7512
  855SOL     OW 2563   0.746   2.294   0.144 -0.1067  0.4153  0.3681
  855SOL    HW1 2564   0.826   2.327   0.092 -1.2658 -0.5844 -1.7005
  855SOL    HW2 2565   0.694   2.225   0.094 -0.5069 -2.5219 -0.4766
  856SOL     OW 2566   2.999   0.284   2.093 -0.1176 -0.1445  0.4057
  856SOL    HW1 2567   2.932   0.348   2.045 -2.5891  2.5773  0.4435
  856SOL    HW2 2568   3.030   0.322   2.181  0.1324 -0.0853 -1.5551
  857SOL     OW 2569   0.612   0.674   1.854  0.1672 -0.1946  0.4142
  857SOL    HW1 2570   0.625   0.575   1.875 -2.3715  0.0998 -0.7176
  857SOL    HW2 2571   0.695   0.707   1.804 -1.2138 -1.5021  4.2295
  858SOL     OW 2572   0.348   1.228   2.218 -0.0677 -0.3830  0.1906
  858SOL    HW1 2573   0.266   1.214   2.274  0.7191  0.5149  0.0753
  858SOL    HW2 2574   0.435   1.207   2.264  0.2791  0.1823 -0.2038
  859SOL     OW 2575   2.304   0.053   0.360 -0.3242  0.3174 -0.3731
  859SOL    HW1 2576   2.343   0.001   0.286  0.4421  2.9007  2.1560
  859SOL    HW2 2577   2.249   0.130   0.331 -0.3480 -0.2150  0.0870
  860SOL     OW 2578   1.684   2.871   2.969  0.2481 -0.0248 -0.1195
  860SOL    HW1 2579   1.657   2.923   2.882  0.9912  2.1225  1.1122
  860SOL    HW2 2580   1.782   2.876   2.975 -4.0352  0.3312 -1.5010
  861SOL     OW 2581   0.267   0.528   0.500  0.2507 -0.2705  0.1837
  861SOL    HW1 2582   0.199   0.591   0.545 -2.4547  0.2791  1.3718
  861SOL    HW2 2583   0.292   0.456   0.565 -1.1820  0.2588 -0.2700
  862SOL     OW 2584   1.616   0.214   2.128 -0.1320 -0.3232  0.1387
  862SOL    HW1 2585   1.704   0.184   2.086  0.0829 -1.0356 -1.7517
  862SOL    HW2 2586   1.550   0.138   2.138  2.8673 -0.2067 -0.8209
  863SOL     OW 2587   3.065   2.083   1.279 -0.2299  0.1992 -1.0809
  863SOL    HW1 2588   0.014   2.048   1.197  1.2643  1.4975 -0.2853
  863SOL    HW2 2589   3.029   2.177   1.260 -1.9488  0.9039  1.1422
  864SOL     OW 2590   2.300   2.861   1.878  0.0710  0.6435 -0.3221
  864SOL    HW1 2591   2.251   2.948   1.858  0.1498 -4.3295 -1.0625
  864SOL    HW2 2592   2.239   2.800   1.925 -1.9034 -0.2699 -0.9224
  865SOL     OW 2593   1.093   0.439   1.017  0.2318  0.1327  0.0869
  865SOL    HW1 2594   1.130   0.417   0.923  1.3820 -2.4341  2.0033
  865SOL    HW2 2595   1.118   0.368   1.086 -1.7159  1.4228  1.8085
  866SOL     OW 2596   2.539   2.955   0.638 -0.0860  0.5469  0.1123
  866SOL    HW1 2597   2.526   2.937   0.542  1.1869  1.2330 -0.4602
  866SOL    HW2 2598   2.627   2.918   0.679  2.5172  1.0959  1.0596
  867SOL     OW 2599   2.893   2.941   0.563  0.5674 -0.4992  0.4270
  867SOL    HW1 2600   2.929   2.899   0.486 -1.2980  0.7372  2.8303
  867SOL    HW2 2601   2.832   2.874   0.611  0.1913 -1.1803  1.1804
  868SOL     OW 2602   1.309   2.365   2.245 -0.0042 -0.0355  0.1486
  868SOL    HW1 2603   1.361   2.391   2.160  0.4478 -0.2170  0.8062
  868SOL    HW2 2604   1.238   2.291   2.223 -1.1262 -5.0453  0.5989
  869SOL     OW 2605   1.948   1.721   0.407 -0.1415  0.0149 -0.4805
  869SOL    HW1 2606   1.968   1.745   0.310 -0.2626 -2.0446 -0.6150
  869SOL    HW2 2607   1.847   1.708   0.411  0.6296  0.2633 -2.5014
  870SOL     OW 2608   2.725   2.390   0.514  0.1604  0.1894 -0.0519
  870SOL    HW1 2609   2.731   2.429   0.609 -1.6774 -0.1348 -1.7652
  870SOL    HW2 2610   2.668   2.306   0.525 -0.4991 -1.0204 -0.7318
  871SOL     OW 2611   0.098   1.133   1.463  0.8832 -0.2654 -0.3508
  871SOL    HW1 2612   0.139   1.222   1.477 -2.2644 -2.8493 -0.7396
  871SOL    HW2 2613   0.003   1.137   1.498 -0.0271 -0.8070 -1.8223
  872SOL     OW 2614   0.513   1.736   2.525 -0.3813 -0.1952  0.2577
  872SOL    HW1 2615   0.510   1.698   2.620  1.3623  0.2001 -1.1972
  872SOL    HW2 2616   0.497   1.836   2.519  1.7969 -1.1777 -2.3831
  873SOL     OW 2617   0.378   2.782   2.009  0.7357 -0.4406  0.2741
  873SOL    HW1 2618   0.390   2.681   1.988  0.1268  1.7034 -1.3634
  873SOL    HW2 2619   0.343   2.826   1.924 -0.2169  2.5390 -0.2613
  874SOL     OW 2620   1.139   0.764   2.148 -0.6444  0.3164  0.3692
  874SOL    HW1 2621   1.234   0.724   2.155  0.2884 -0.5207 -0.0672
  874SOL    HW2 2622   1.135   0.857   2.189  1.1539 -1.9739  1.7414
  875SOL     OW 2623   2.576   2.843   1.106  0.1265  0.0968  0.0422
  875SOL    HW1 2624   2.644   2.900   1.156  0.3762 -1.8758 -1.7972
  875SOL    HW2 2625   2.496   2.896   1.071  0.8655 -1.5057  0.0949
  876SOL     OW 2626   1.146   1.273   1.030  0.0108 -0.1862 -0.5499
  876SOL    HW1 2627   1.168   1.218   1.112  0.2850 -1.5646 -0.5721
  876SOL    HW2 2628   1.236   1.303   0.989  1.7151  2.2152 -0.9617
  877SOL     OW 2629   0.073   0.204   1.625 -0.7069  0.0744  0.0856
  877SOL    HW1 2630   0.108   0.277   1.683 -0.3548 -0.1860 -0.8178
  877SOL    HW2 2631   0.152   0.157   1.577  2.0602  0.7355 -0.6512
  878SOL     OW 2632   2.644   1.619   2.807 -0.1548  0.1354  0.1704
  878SOL    HW1 2633   2.676   1.642   2.900 -1.1290 -0.0179 -0.4239
  878SOL    HW2 2634   2.644   1.520   2.793 -1.9418 -0.6543  0.9015
  879SOL     OW 2635   2.640   2.082   1.188  0.1583 -0.3592  0.0099
  879SOL    HW1 2636   2.603   2.167   1.230  0.2536 -1.6797  0.3492
  879SOL    HW2 2637   2.677   2.021   1.261 -0.1627 -2.6470  2.1938
  880SOL     OW 2638   0.881   2.308   1.007 -0.3445  0.2511 -0.5075
  880SOL    HW1 2639   0.907   2.405   0.986  0.7781  0.1443  3.0590
  880SOL    HW2 2640   0.965   2.251   1.005 -0.9826 -2.0431 -0.8363
  881SOL     OW 2641   1.254   1.689   1.011  0.1042  0.6720  0.0953
  881SOL    HW1 2642   1.232   1.663   0.916 -0.7836 -0.0569  1.0069
  881SOL    HW2 2643   1.242   1.613   1.081  2.0809 -2.2261  0.0090
  882SOL     OW 2644   2.672   0.949   2.431  0.0946  0.4246 -0.2726
  882SOL    HW1 2645   2.598   0.980   2.375 -0.0503  0.9445  1.2485
  882SOL    HW2 2646   2.712   0.859   2.398  0.5383  0.0791 -0.9819
  883SOL     OW 2647   1.394   0.346   0.926 -0.0852  0.5319  0.1630
  883SOL    HW1 2648   1.387   0.400   0.838  1.4752  0.2944  0.2297
  883SOL    HW2 2649   1.332   0.267   0.929  0.8549  1.6205  1.3711
  884SOL     OW 2650   2.913   2.857   1.120  0.7088 -0.1898 -0.0134
  884SOL    HW1 2651   2.939   2.949   1.085 -0.1814 -0.3173 -1.6608
  884SOL    HW2 2652   2.837   2.864   1.189 -2.2206  1.7268 -1.0048
  885SOL     OW 2653   1.176   1.178   1.472 -0.7398 -0.7658  0.2777
  885SOL    HW1 2654   1.084   1.156   1.511  0.5646  0.1599 -1.4602
  885SOL    HW2 2655   1.236   1.232   1.532  0.9875 -1.0341  1.1416
  886SOL     OW 2656   1.092   1.025   2.882  0.8374 -0.3902 -0.1673
  886SOL    HW1 2657   1.084   1.071   2.972 -0.0128  0.6014 -2.1373
  886SOL    HW2 2658   1.140   1.083   2.814  1.5382 -1.4220 -0.4650
  887SOL     OW 2659   1.353   0.487   0.704  0.0066  0.4955  0.2194
  887SOL    HW1 2660   1.327   0.584   0.718  0.7025  1.2381  1.9979
  887SOL    HW2 2661   1.282   0.428   0.660  1.8571 -0.2521 -0.8667
  888SOL     OW 2662   2.035   1.360   1.898  0.4195 -0.0391 -0.1866
  888SOL    HW1 2663   2.059   1.459   1.914 -2.4609  0.2622  1.7853
  888SOL    HW2 2664   2.089   1.298   1.953 -2.0789 -1.9999 -2.7351
  889SOL     OW 2665   2.972   2.377   1.209 -0.4050  0.4398  0.4492
  889SOL    HW1 2666   3.021   2.389   1.119  1.3153  1.3618 -1.8116
  889SOL    HW2 2667   2.870   2.379   1.205  1.0067  0.4458  1.5812
  890SOL     OW 2668   1.398   1.984   0.402 -0.0287 -0.8024 -0.0047
  890SOL    HW1 2669   1.394   1.972   0.503  0.6675 -0.1044 -1.6828
  890SOL    HW2 2670   1.310   1.954   0.356 -0.8673 -0.0592 -2.3682
  891SOL     OW 2671   2.477   0.694   2.275 -0.1181 -0.0045  0.0043
  891SOL    HW1 2672   2.572   0.676   2.309  0.5938  1.2514  1.5560
  891SOL    HW2 2673   2.425   0.608   2.275  1.0483 -1.9646 -0.0352
  892SOL     OW 2674   0.297   2.869   1.758  0.1791 -0.0109  0.4856
  892SOL    HW1 2675   0.285   2.971   1.738 -2.7476  0.9777 -2.4158
  892SOL    HW2 2676   0.333   2.821   1.677 -0.2043  0.0729 -0.8415
  893SOL     OW 2677   1.218   0.458   2.358 -0.2538 -0.4981  0.2541
  893SOL    HW1 2678   1.182   0.378   2.413 -1.8049 -2.9878 -1.0872
  893SOL    HW2 2679   1.269   0.533   2.411 -0.0338  0.6285  0.5003
  894SOL     OW 2680   2.629   0.610   0.760  0.2097 -0.4603  0.0373
  894SOL    HW1 2681   2.682   0.678   0.702 -0.2065 -0.2950 -0.9650
  894SOL    HW2 2682   2.642   0.622   0.860  0.0064  0.3442  0.1769
  895SOL     OW 2683   1.688   1.742   2.243 -0.3980  0.3423  0.9336
  895SOL    HW1 2684   1.688   1.643   2.278  0.8733  1.3944 -1.2675
  895SOL    HW2 2685   1.601   1.788   2.266 -0.7546 -0.6412 -0.9689
  896SOL     OW 2686   1.666   0.488   1.372 -0.2962  0.2932  0.1488
  896SOL    HW1 2687   1.740   0.429   1.408 -0.2100  0.6878 -0.0168
  896SOL    HW2 2688   1.572   0.461   1.384  3.8276  1.0199  1.5515
  897SOL     OW 2689   0.675   1.829   1.751  0.3760  0.0733 -0.0912
  897SOL    HW1 2690   0.628   1.754   1.700  0.1616 -0.8927 -2.9160
  897SOL    HW2 2691   0.676   1.917   1.696  0.6707  2.1783  0.1071
  898SOL     OW 2692   1.861   1.830   2.053 -0.1047 -0.4071  0.1695
  898SOL    HW1 2693   1.832   1.768   1.975 -1.7743 -0.6361 -0.7095
  898SOL    HW2 2694   1.788   1.818   2.124 -2.9675  0.9526  0.6433
  899SOL     OW 2695   1.867   1.991   0.889  0.0165 -0.5230  0.4454
  899SOL    HW1 2696   1.963   1.975   0.857  0.3464  2.3383 -0.0647
  899SOL    HW2 2697   1.869   2.046   0.975 -0.9163  0.8798 -3.3861
  900SOL     OW 2698   0.924   3.077   2.536 -0.2660 -0.3175  0.0099
  900SOL    HW1 2699   0.898   3.006   2.606  0.6984  1.1293 -0.5627
  900SOL    HW2 2700   1.022   0.009   2.554 -0.4985  0.4131  1.4990
  901SOL     OW 2701   1.182   1.485   2.319  0.0166 -0.1275 -0.3634
  901SOL    HW1 2702   1.152   1.561   2.378  2.0384  0.7802 -1.3916
  901SOL    HW2 2703   1.272   1.506   2.278  0.4384  1.3650  2.9217
  902SOL     OW 2704   2.157   0.440   3.020 -0.2215 -0.0635 -0.1722
  902SOL    HW1 2705   2.210   0.509   2.965  0.0819  0.6039  0.1536
  902SOL    HW2 2706   2.198   0.437   0.012  0.4211 -2.1017 -1.3306
  903SOL     OW 2707   2.219   1.010   2.226 -0.3028  0.6538  0.5833
  903SOL    HW1 2708   2.321   1.021   2.234  3.0852  1.6984  1.0995
  903SOL    HW2 2709   2.178   1.026   2.317  0.3088  1.4934 -0.6438
  904SOL     OW 2710   1.942   1.183   1.703 -0.2186  0.7478 -0.1222
  904SOL    HW1 2711   2.005   1.106   1.711 -0.9216 -0.5157 -0.2861
  904SOL    HW2 2712   1.969   1.254   1.766 -0.8384 -2.1912 -3.3207
  905SOL     OW 2713   2.224   0.574   0.665 -0.0373  0.1550  0.3603
  905SOL    HW1 2714   2.290   0.507   0.701  0.3327 -1.6426  1.8366
  905SOL    HW2 2715   2.182   0.630   0.741 -0.7449  0.1968  0.1330
  906SOL     OW 2716   2.432   2.010   0.589 -0.2693 -0.0364 -0.6567
  906SOL    HW1 2717   2.432   1.933   0.524 -3.1453  1.0866 -1.5445
  906SOL    HW2 2718   2.435   1.986   0.689  1.8038  3.2277 -0.0124
  907SOL     OW 2719   1.597   2.964   0.498 -0.0843  0.3406  0.3737
  907SOL    HW1 2720   1.656   2.887   0.530  0.7832 -0.7053  2.1705
  907SOL    HW2 2721   1.638   3.002   0.415  0.1908 -2.4997  2.9604
  908SOL     OW 2722   1.590   2.228   2.293 -0.6083 -0.3040 -0.0637
  908SOL    HW1 2723   1.558   2.284   2.212 -2.6521  1.0442  1.0928
  908SOL    HW2 2724   1.678   2.274   2.334  3.2149  1.8323  1.4318
  909SOL     OW 2725   2.206   0.482   1.999  0.1220 -0.1853  0.3298
  909SOL    HW1 2726   2.208   0.500   2.097  2.3807  2.1681 -3.2028
  909SOL    HW2 2727   2.194   0.576   1.952 -0.3369  0.0988 -0.2422
  910SOL     OW 2728   1.181   0.087   2.569  0.0961 -0.1652  0.3024
  910SOL    HW1 2729   1.182   0.186   2.577  1.9653  0.3141  0.4531
  910SOL    HW2 2730   1.208   0.043   2.657 -0.3060  0.7906 -0.8182
  911SOL     OW 2731   2.814   1.041   2.835 -0.3570 -0.0692 -0.2418
  911SOL    HW1 2732   2.714   1.023   2.855  0.2465  1.3758  0.3479
  911SOL    HW2 2733   2.856   1.088   2.915  2.2645  3.1585 -0.4688
  912SOL     OW 2734   3.065   2.265   1.659  0.3901  0.2745 -0.0821
  912SOL    HW1 2735   3.042   2.364   1.654 -0.0953 -0.9465 -1.0752
  912SOL    HW2 2736   0.019   2.236   1.740 -1.4543 -1.6070 -1.2324
  913SOL     OW 2737   2.588   1.885   2.654 -0.2768  0.1365  0.4194
  913SOL    HW1 2738   2.502   1.894   2.601 -1.5542 -0.9463 -0.1728
  913SOL    HW2 2739   2.604   1.789   2.678 -0.6157  0.2838 -0.1118
  914SOL     OW 2740   2.185   1.652   0.802 -0.2073  0.6392 -0.0666
  914SOL    HW1 2741   2.107   1.615   0.744 -2.5863  1.3698 -0.8272
  914SOL    HW2 2742   2.182   1.754   0.795  1.2181 -0.0992 -1.5642
  915SOL     OW 2743   0.297   2.747   2.265  0.1404  0.1716  0.3149
  915SOL    HW1 2744   0.373   2.740   2.340 -3.1730 -0.5929  0.9234
  915SOL    HW2 2745   0.336   2.748   2.171  1.5958  2.5238  2.8554
  916SOL     OW 2746   0.783   2.814   0.860  0.5224 -0.0303 -0.2932
  916SOL    HW1 2747   0.836   2.855   0.937 -1.3005  1.0916 -2.7476
  916SOL    HW2 2748   0.740   2.895   0.802 -4.7842  2.7355 -1.5525
  917SOL     OW 2749   2.285   0.598   2.659  0.2739  0.6706 -0.3236
  917SOL    HW1 2750   2.239   0.642   2.742  0.3715 -0.5333  0.6119
  917SOL    HW2 2751   2.309   0.661   2.584 -3.1098 -2.8637 -0.6482
  918SOL     OW 2752   1.601   2.473   2.585 -0.3054 -0.1009  0.0478
  918SOL    HW1 2753   1.610   2.420   2.669  1.1294 -0.4176 -1.0022
  918SOL    HW2 2754   1.686   2.458   2.525 -1.4117 -1.6395 -1.9716
  919SOL     OW 2755   1.828   2.158   1.087  0.4869 -0.0998 -0.3707
  919SOL    HW1 2756   1.847   2.181   1.187 -3.2634 -0.4438  1.2351
  919SOL    HW2 2757   1.727   2.143   1.077 -1.8185 -0.7523 -2.0272
  920SOL     OW 2758   1.293   3.053   2.362 -0.6855  0.1280  0.3032
  920SOL    HW1 2759   1.252   3.092   2.445 -0.2542 -0.5885 -1.2235
  920SOL    HW2 2760   1.291   2.955   2.358 -1.5950 -0.5280 -2.3425
  921SOL     OW 2761   0.157   0.838   2.493 -0.0716  0.1148  0.8108
  921SOL    HW1 2762   0.254   0.856   2.467  0.0752 -3.6087 -1.1933
  921SOL    HW2 2763   0.148   0.739   2.523 -2.7292 -1.9468  0.6471
  922SOL     OW 2764   2.819   1.912   1.362 -0.0620  0.3974 -0.5322
  922SOL    HW1 2765   2.903   1.968   1.357 -0.1282 -2.6954 -1.3520
  922SOL    HW2 2766   2.785   1.901   1.459 -0.6536 -1.3492  0.3020
  923SOL     OW 2767   0.135   1.478   2.261  0.5198  0.6364  0.2928
  923SOL    HW1 2768   0.064   1.487   2.186  0.3582 -0.5441  0.2186
  923SOL    HW2 2769   0.219   1.527   2.229  1.3407  0.9907  0.8085
  924SOL     OW 2770   1.428   0.028   2.135 -0.0088  0.5026 -0.2172
  924SOL    HW1 2771   1.361   0.047   2.063 -0.6787 -2.1228  1.2107
  924SOL    HW2 2772   1.383   0.012   2.226 -2.5284  1.1691  1.6367
  925SOL     OW 2773   3.074   1.341   0.692  0.0273  0.2906  0.0179
  925SOL    HW1 2774   0.012   1.426   0.737 -0.1742  1.6567  0.7521
  925SOL    HW2 2775   0.044   1.266   0.687  0.6912  0.7464 -0.0882
  926SOL     OW 2776   2.409   0.648   0.959 -0.5689  0.0200 -0.1332
  926SOL    HW1 2777   2.457   0.560   0.968 -0.7958 -1.6618  0.3568
  926SOL    HW2 2778   2.443   0.707   1.033  2.2053  0.2538  2.5944
  927SOL     OW 2779   1.649   0.562   0.962  0.6914 -0.4318  0.0884
  927SOL    HW1 2780   1.665   0.643   0.900  0.6427 -0.3368  0.2645
  927SOL    HW2 2781   1.553   0.567   0.987 -1.3656 -1.9541  0.5318
  928SOL     OW 2782   2.972   0.770   2.215 -0.4662  0.1948  0.0190
  928SOL    HW1 2783   3.007   0.860   2.248 -1.7898  0.5268  1.5633
  928SOL    HW2 2784   3.046   0.702   2.204 -1.7353 -1.1408 -1.1967
  929SOL     OW 2785   2.294   1.031   1.099 -0.2582  0.2295  0.4418
  929SOL    HW1 2786   2.383   1.031   1.054 -2.9825 -1.3415  2.1076
  929SOL    HW2 2787   2.221   1.075   1.039 -2.4778  0.6350  0.4256
  930SOL     OW 2788   2.009   2.286   0.947 -0.5505  0.7138  0.0100
  930SOL    HW1 2789   1.967   2.286   0.856 -1.2453  3.2306  0.4148
  930SOL    HW2 2790   1.956   2.223   1.012  1.0319 -2.1381  0.6565
  931SOL     OW 2791   1.951   1.285   1.118  0.2472 -0.0012 -0.7110
  931SOL    HW1 2792   1.859   1.261   1.074  2.4104 -2.5266 -2.9759
  931SOL    HW2 2793   2.033   1.257   1.064  3.7601  2.5719 -2.0387
  932SOL     OW 2794   2.947   1.121   1.546  0.2951 -0.5105 -0.1676
  932SOL    HW1 2795   2.861   1.073   1.527 -0.8595  0.0860 -1.9586
  932SOL    HW2 2796   2.932   1.179   1.625  0.4756 -1.5377 -5.7563
  933SOL     OW 2797   2.101   1.616   1.949  0.2410 -0.0472 -0.7552
  933SOL    HW1 2798   2.010   1.630   1.903 -0.3217  2.2265 -2.7715
  933SOL    HW2 2799   2.151   1.705   1.966  1.8087  1.2496 -1.3300
  934SOL     OW 2800   1.495   2.954   1.735  0.6627 -0.7420  0.0928
  934SOL    HW1 2801   1.441   2.869   1.734  0.3224 -0.9624  1.0264
  934SOL    HW2 2802   1.553   2.953   1.652 -2.8634 -1.0104 -1.1917
  935SOL     OW 2803   0.008   0.956   1.296  0.3968 -0.1987  0.2708
  935SOL    HW1 2804   0.024   1.025   1.369  0.4739  0.9058  0.2256
  935SOL    HW2 2805   3.010   0.961   1.270 -0.8599  1.4669 -3.0767
  936SOL     OW 2806   2.730   0.606   1.338  0.0653  0.3155 -0.0942
  936SOL    HW1 2807   2.664   0.552   1.394 -1.4484  0.6877  0.3546
  936SOL    HW2 2808   2.829   0.590   1.366  0.6285  2.3837 -2.2128
  937SOL     OW 2809   0.863   0.040   1.415  0.0008  0.0538  0.4270
  937SOL    HW1 2810   0.890   0.074   1.509  2.0243 -1.1619 -0.3960
  937SOL    HW2 2811   0.797   3.059   1.418 -0.4549 -0.2185  0.3700
  938SOL     OW 2812   0.464   2.852   0.958  0.2663  0.3159 -0.1181
  938SOL    HW1 2813   0.547   2.798   0.932  1.3742  0.7045 -1.6603
  938SOL    HW2 2814   0.396   2.830   0.887 -0.6402  0.4336  1.6481
  939SOL     OW 2815   2.807   2.189   2.844  0.4023  0.7976 -0.2253
  939SOL    HW1 2816   2.872   2.162   2.769  3.2750  2.1007 -1.3121
  939SOL    HW2 2817   2.785   2.288   2.836 -2.9043 -0.6923  2.0698
  940SOL     OW 2818   1.779   1.743   3.096  0.0049  0.1228 -0.0064
  940SOL    HW1 2819   1.866   1.747   0.053  3.1041 -0.5186  1.3322
  940SOL    HW2 2820   1.782   1.812   3.019 -0.9294  0.6536 -1.3734
  941SOL     OW 2821   1.759   2.770   0.593 -0.4648  0.2804  0.1187
  941SOL    HW1 2822   1.726   2.680   0.619  2.6076  1.5886  0.5379
  941SOL    HW2 2823   1.855   2.780   0.625  0.4319 -2.9440 -1.0610
  942SOL     OW 2824   2.157   1.647   1.073  0.0087 -0.4850 -0.1562
  942SOL    HW1 2825   2.168   1.622   0.977 -1.3698 -0.4065  0.1304
  942SOL    HW2 2826   2.157   1.568   1.136 -0.6912  1.9133  0.1414
  943SOL     OW 2827   2.022   0.668   1.575 -0.7122 -0.4092 -0.2601
  943SOL    HW1 2828   1.929   0.712   1.584 -0.0871 -1.1625  0.1172
  943SOL    HW2 2829   2.048   0.653   1.478 -0.9814  0.1185 -0.3640
  944SOL     OW 2830   1.388   0.765   1.906  0.1303 -0.7018 -0.3111
  944SOL    HW1 2831   1.326   0.842   1.885  0.0194 -0.7220 -0.6514
  944SOL    HW2 2832   1.482   0.790   1.872 -0.8812 -0.1644  0.7239
  945SOL     OW 2833   2.210   2.840   1.222 -0.1544  0.2520  0.0065
  945SOL    HW1 2834   2.226   2.834   1.123 -0.9333  1.4539  0.7410
  945SOL    HW2 2835   2.159   2.921   1.248  1.3643 -1.2907  0.2252
  946SOL     OW 2836   0.854   1.658   0.770  0.5681  0.4524 -0.3064
  946SOL    HW1 2837   0.885   1.736   0.716 -1.4329 -0.8447  2.8978
  946SOL    HW2 2838   0.884   1.566   0.738  2.5249  0.0503  1.9309
  947SOL     OW 2839   1.153   2.633   0.951  0.3740 -0.0622  0.3459
  947SOL    HW1 2840   1.219   2.603   0.881  0.2643  1.8214 -0.4270
  947SOL    HW2 2841   1.057   2.602   0.926  0.5535 -1.5776 -0.5888
  948SOL     OW 2842   0.227   1.678   1.470  0.0801  0.2811 -0.6163
  948SOL    HW1 2843   0.130   1.699   1.483 -3.3281  0.0764  1.5867
  948SOL    HW2 2844   0.242   1.576   1.446 -2.6452 -1.0648  1.5727
  949SOL     OW 2845   0.566   1.089   1.730  0.4353 -0.2856  0.8174
  949SOL    HW1 2846   0.537   1.035   1.810 -0.1271  0.2136 -2.2198
  949SOL    HW2 2847   0.663   1.112   1.745  0.3857  2.1441 -0.0858
  950SOL     OW 2848   0.471   0.509   1.364 -0.0513  0.5185  0.2697
  950SOL    HW1 2849   0.528   0.573   1.417 -1.7998  2.6305  0.2491
  950SOL    HW2 2850   0.418   0.557   1.289 -1.5271  2.7296 -2.7869
  951SOL     OW 2851   0.893   2.047   2.085 -0.1586 -0.4995 -0.0390
  951SOL    HW1 2852   0.869   1.988   2.165 -0.4714  1.6295  0.6043
  951SOL    HW2 2853   0.979   2.093   2.100 -1.5524 -1.9034 -1.8618
  952SOL     OW 2854   1.233   1.596   0.029 -0.3103 -0.7806 -0.4255
  952SOL    HW1 2855   1.331   1.597   0.053  1.2009  1.2666  0.6772
  952SOL    HW2 2856   1.214   1.512   3.073 -0.4365 -0.4458  0.3173
  953SOL     OW 2857   0.895   2.879   2.722  0.0099  0.2203  0.2741
  953SOL    HW1 2858   0.802   2.834   2.730 -0.1999 -0.2670 -0.7928
  953SOL    HW2 2859   0.962   2.800   2.712 -0.4118 -0.2991 -0.7740
  954SOL     OW 2860   1.750   1.217   3.037 -0.2995 -0.1174 -0.2042
  954SOL    HW1 2861   1.664   1.182   3.083 -0.9744  0.0742  0.6053
  954SOL    HW2 2862   1.772   1.307   3.071  0.8547 -1.7252  1.5702
  955SOL     OW 2863   0.276   2.646   3.020  0.5650 -0.2676  0.2969
  955SOL    HW1 2864   0.310   2.728   3.071  0.4136  0.1555 -1.7984
  955SOL    HW2 2865   0.201   2.678   2.962 -0.0886  3.0070 -1.6559
  956SOL     OW 2866   1.251   0.742   1.509 -0.6874  0.4198  0.0991
  956SOL    HW1 2867   1.213   0.746   1.416 -1.0022 -1.4479  1.0359
  956SOL    HW2 2868   1.189   0.786   1.580  2.7549  2.4252 -0.0784
  957SOL     OW 2869   1.521   1.837   1.859  1.0020 -0.0641  0.3780
  957SOL    HW1 2870   1.577   1.922   1.857 -0.3677  1.0973  0.7323
  957SOL    HW2 2871   1.427   1.859   1.890 -0.5556  0.4378  1.0804
  958SOL     OW 2872   1.208   2.173   1.486  0.0918  0.7382 -0.2474
  958SOL    HW1 2873   1.290   2.179   1.546  1.9442  0.9283 -2.0562
  958SOL    HW2 2874   1.245   2.168   1.387 -0.0992 -0.0184 -1.7274
  959SOL     OW 2875   1.615   1.099   1.119 -0.0296 -1.2774 -0.1732
  959SOL    HW1 2876   1.707   1.058   1.122 -0.6126  1.4758 -2.6811
  959SOL    HW2 2877   1.544   1.030   1.145 -1.1400  2.0534 -0.8936
  960SOL     OW 2878   0.288   1.306   2.954 -0.2307  0.2202  0.4113
  960SOL    HW1 2879   0.319   1.368   3.030 -2.4136  0.6606  0.3279
  960SOL    HW2 2880   0.349   1.226   2.950 -0.3523  0.9992  0.4736
  961SOL     OW 2881   0.791   1.433   1.925  0.0868 -0.3877 -0.3427
  961SOL    HW1 2882   0.700   1.470   1.949  0.8035  0.9462  1.6267
  961SOL    HW2 2883   0.861   1.496   1.961  0.3034  0.5385  1.8441
  962SOL     OW 2884   1.214   1.740   0.522  0.4370  0.7582  0.1991
  962SOL    HW1 2885   1.161   1.808   0.579  1.1217  2.5831 -0.5260
  962SOL    HW2 2886   1.182   1.737   0.428  1.7333  0.5747 -0.1324
  963SOL     OW 2887   1.460   1.923   2.645 -0.2001 -0.6772 -0.2870
  963SOL    HW1 2888   1.397   2.001   2.665  1.3416  0.8902 -0.0953
  963SOL    HW2 2889   1.410   1.842   2.607  0.9574 -1.3181  0.1157
  964SOL     OW 2890   0.753   0.171   0.356 -0.3432  0.2382 -0.4414
  964SOL    HW1 2891   0.673   0.186   0.413  1.5990 -1.8876 -1.4373
  964SOL    HW2 2892   0.803   0.100   0.402  0.6075  0.5267  0.7491
  965SOL     OW 2893   0.913   2.583   0.844  0.6466  0.1937 -0.1594
  965SOL    HW1 2894   0.847   2.661   0.859 -0.8178 -0.5244 -1.3003
  965SOL    HW2 2895   0.939   2.585   0.746 -1.7673 -3.3342 -0.2047
  966SOL     OW 2896   0.269   1.948   2.901  0.4701  0.1621 -0.3763
  966SOL    HW1 2897   0.266   1.907   2.810 -1.4433 -0.7727  1.8672
  966SOL    HW2 2898   0.189   2.012   2.918  0.6022  3.2727  1.9290
  967SOL     OW 2899   0.259   2.947   2.807  0.2840  1.1903 -0.1567
  967SOL    HW1 2900   0.318   2.970   2.729  0.1502  0.1945  1.5894
  967SOL    HW2 2901   0.176   3.002   2.802 -1.0834 -0.4654 -0.4029
  968SOL     OW 2902   2.147   0.552   0.194  0.0567 -0.1440 -0.3739
  968SOL    HW1 2903   2.200   0.595   0.273  2.8022  0.9977  1.2364
  968SOL    HW2 2904   2.052   0.585   0.188 -0.0526  1.4518 -1.5851
  969SOL     OW 2905   0.159   1.254   1.763 -0.6913  0.3438  0.1489
  969SOL    HW1 2906   0.120   1.170   1.799 -0.4598  3.4281 -2.6800
  969SOL    HW2 2907   0.243   1.242   1.710 -2.5853  0.6207 -1.8422
  970SOL     OW 2908   2.571   1.380   1.551 -0.1503 -0.0219 -0.0843
  970SOL    HW1 2909   2.643   1.381   1.621 -2.2608  0.1282 -0.0317
  970SOL    HW2 2910   2.543   1.285   1.532  0.5919  0.0710  0.1283
  971SOL     OW 2911   2.094   0.126   1.026  0.1770  0.6382 -0.2309
  971SOL    HW1 2912   2.183   0.155   0.998 -1.7891 -0.1352 -0.2124
  971SOL    HW2 2913   2.067   0.038   0.979  0.4778  0.0627 -0.1455
  972SOL     OW 2914   2.973   3.009   1.866  0.2402  0.4222  0.1530
  972SOL    HW1 2915   3.046   2.954   1.906  0.5394 -0.4641 -0.4707
  972SOL    HW2 2916   2.946   2.980   1.772 -0.2562 -2.4497 -0.3982
  973SOL     OW 2917   0.173   0.573   0.005 -0.7832  0.1036 -0.6146
  973SOL    HW1 2918   0.190   0.664   0.049 -0.5724 -1.0372 -0.0122
  973SOL    HW2 2919   0.172   0.598   3.001 -0.5658  1.1616 -1.9233
  974SOL     OW 2920   1.866   1.415   2.252  0.2374  0.4586 -0.1750
  974SOL    HW1 2921   1.953   1.461   2.247 -0.1856 -1.3863 -1.5846
  974SOL    HW2 2922   1.817   1.413   2.164  1.7598 -0.7913  1.0556
  975SOL     OW 2923   2.943   2.933   1.600  0.0629  0.0729 -0.4960
  975SOL    HW1 2924   2.945   3.017   1.539 -0.9282 -0.4713  0.0023
  975SOL    HW2 2925   3.017   2.857   1.582  1.9414 -3.7943 -0.1611
  976SOL     OW 2926   0.244   2.161   2.272 -0.0317  0.7812 -0.0587
  976SOL    HW1 2927   0.207   2.231   2.208 -0.8142 -1.8854  0.1709
  976SOL    HW2 2928   0.297   2.091   2.224 -0.8667 -0.0286  2.0138
  977SOL     OW 2929   1.150   2.957   0.378 -0.2277  0.3070  0.3364
  977SOL    HW1 2930   1.073   2.899   0.339 -3.9927 -2.7794 -2.7275
  977SOL    HW2 2931   1.246   2.935   0.347  0.6609 -1.1283  0.9691
  978SOL     OW 2932   0.119   1.869   2.546  0.1988  0.0102  0.3894
  978SOL    HW1 2933   0.114   1.972   2.561 -1.9081  0.1781  3.9525
  978SOL    HW2 2934   0.030   1.834   2.509 -0.0782 -0.4414 -3.4524
  979SOL     OW 2935   1.552   2.424   1.653  0.5580 -0.1204  0.5135
  979SOL    HW1 2936   1.491   2.505   1.662  0.3476 -0.2872 -1.2223
  979SOL    HW2 2937   1.651   2.447   1.636  2.2962 -0.3450 -5.2382
  980SOL     OW 2938   0.540   1.602   2.767 -0.2862 -0.9002  0.3163
  980SOL    HW1 2939   0.563   1.506   2.757 -1.1464  1.1962  0.0802
  980SOL    HW2 2940   0.472   1.610   2.842 -2.3709  1.4295 -1.1140
  981SOL     OW 2941   2.385   3.060   2.391  0.4762  0.1185 -0.1380
  981SOL    HW1 2942   2.312   3.061   2.317 -1.5671 -1.0344 -0.7463
  981SOL    HW2 2943   2.461   2.990   2.371 -1.8614  1.1219  1.4787
  982SOL     OW 2944   3.037   0.472   2.977 -0.1514 -0.1233 -0.4123
  982SOL    HW1 2945   3.073   0.531   3.054  0.5020  0.8467  2.9750
  982SOL    HW2 2946   2.933   0.473   2.976 -0.8209 -0.9442  1.9887
  983SOL     OW 2947   1.777   1.375   2.004 -0.6311 -0.4786 -0.0815
  983SOL    HW1 2948   1.865   1.358   1.956 -1.4401 -0.2885 -0.6583
  983SOL    HW2 2949   1.718   1.297   1.983 -1.9797 -0.3725 -2.1772
  984SOL     OW 2950   1.218   0.486   1.931 -0.0370 -0.1966  0.5345
  984SOL    HW1 2951   1.255   0.435   2.007 -0.5645  1.0390 -0.8452
  984SOL    HW2 2952   1.261   0.574   1.918 -0.2471 -0.8638 -0.8850
  985SOL     OW 2953   1.626   1.467   1.676 -0.0320  0.3117 -0.0525
  985SOL    HW1 2954   1.575   1.551   1.662 -1.3538  0.8750 -1.3608
  985SOL    HW2 2955   1.726   1.471   1.664  0.5946 -1.3374 -0.6323
  986SOL     OW 2956   2.125   0.395   1.557  0.1654  0.2020 -0.1820
  986SOL    HW1 2957   2.155   0.358   1.645 -1.4416  1.1194 -1.3679
  986SOL    HW2 2958   2.095   0.489   1.572 -0.6294 -1.9882  0.2917
  987SOL     OW 2959   2.292   0.524   1.360 -0.1350 -0.0387 -0.3587
  987SOL    HW1 2960   2.246   0.458   1.420  0.0397  0.5757  0.5691
  987SOL    HW2 2961   2.224   0.569   1.296 -0.8638 -1.3770 -1.3448
  988SOL     OW 2962   2.788   0.781   1.992  0.1758 -0.3086  0.7745
  988SOL    HW1 2963   2.693   0.753   1.962  0.3721 -0.9660 -4.1250
  988SOL    HW2 2964   2.807   0.761   2.089 -0.9638 -2.1092  1.0219
  989SOL     OW 2965   2.233   1.920   2.835  0.3209 -0.1161 -0.2599
  989SOL    HW1 2966   2.190   1.915   2.744  0.5645 -0.8285  0.1048
  989SOL    HW2 2967   2.166   1.921   2.909 -0.6258 -0.7751 -1.2357
  990SOL     OW 2968   1.292   0.333   2.816 -0.0633  0.1758 -0.1152
  990SOL    HW1 2969   1.195   0.299   2.818  2.9078 -1.5065  1.1082
  990SOL    HW2 2970   1.293   0.432   2.792 -0.3331 -0.6809 -1.3309
  991SOL     OW 2971   1.285   0.986   0.162 -0.2116 -0.6136 -0.2211
  991SOL    HW1 2972   1.317   0.983   0.262 -0.6258  0.7998 -0.1206
  991SOL    HW2 2973   1.287   0.890   0.124 -1.7657 -0.5554  2.7283
  992SOL     OW 2974   2.345   1.659   2.804 -0.1671 -0.0204  0.3097
  992SOL    HW1 2975   2.436   1.638   2.838 -2.7170  1.0742 -0.3882
  992SOL    HW2 2976   2.316   1.757   2.820 -1.0683 -3.2343  0.2530
  993SOL     OW 2977   0.458   0.441   0.316 -0.5262  0.4204 -0.6324
  993SOL    HW1 2978   0.454   0.340   0.303 -1.7345  0.0573  1.1473
  993SOL    HW2 2979   0.386   0.475   0.381  0.5416  1.3257 -0.5742
  994SOL     OW 2980   0.297   1.704   2.175  0.9656 -0.1548 -0.5515
  994SOL    HW1 2981   0.202   1.740   2.201 -0.4511  0.2263  3.3922
  994SOL    HW2 2982   0.308   1.691   2.074  0.1151  3.1076  0.3294
  995SOL     OW 2983   1.913   1.329   2.604  0.8415  0.1409  0.0730
  995SOL    HW1 2984   1.909   1.430   2.584  4.3032 -2.7605 -1.9116
  995SOL    HW2 2985   1.995   1.286   2.566 -1.7991  0.8937  0.6561
  996SOL     OW 2986   1.912   1.615   2.595  0.0517  0.6680 -0.0614
  996SOL    HW1 2987   1.905   1.663   2.506 -1.8319  0.2535 -3.5187
  996SOL    HW2 2988   1.843   1.658   2.658 -2.9656  0.7550  1.1712
  997SOL     OW 2989   2.238   1.413   1.592  0.6097  0.4739  0.1749
  997SOL    HW1 2990   2.334   1.440   1.604  2.6991  0.9512  0.3611
  997SOL    HW2 2991   2.185   1.422   1.681 -0.2893 -2.3867  2.6581
  998SOL     OW 2992   2.502   1.517   0.098 -0.0879 -0.1051  0.1671
  998SOL    HW1 2993   2.509   1.423   0.056  0.3539  1.8135  0.2737
  998SOL    HW2 2994   2.588   1.528   0.155 -1.1280  1.2611  2.4042
  999SOL     OW 2995   2.606   2.621   0.399  0.4156 -0.8073 -0.0184
  999SOL    HW1 2996   2.640   2.537   0.451  2.6816 -2.4197 -0.2881
  999SOL    HW2 2997   2.527   2.604   0.333 -1.3598  1.0770 -2.5256
 1000SOL     OW 2998   0.544   0.019   1.893  0.4621 -0.2115  0.4125
 1000SOL    HW1 2999   0.459   0.051   1.848 -1.8275 -2.0964  0.4231
 1000SOL    HW2 3000   0.526   3.050   1.964 -2.2609  4.2427 -2.5524
   3.09848   3.09848   3.09848
