1000 SPC/Fw water molecules t=  73.00000 step= 73000
 3000
    1SOL     OW    1   1.974   2.735   0.876  0.0544  0.3902  0.6406
    1SOL    HW1    2   1.919   2.710   0.795  0.4111  1.4148  0.3351
    1SOL    HW2    3   2.043   2.806   0.855 -1.0928 -1.8372 -2.3695
    2SOL     OW    4   0.745   1.381   2.371  0.3009 -0.3982 -0.4959
    2SOL    HW1    5   0.687   1.403   2.453  0.3500  1.0200  0.0608
    2SOL    HW2    6   0.842   1.416   2.378  0.8986  2.0419 -1.5222
    3SOL     OW    7   1.580   2.774   2.478 -0.4176 -0.2825  0.1558
    3SOL    HW1    8   1.560   2.839   2.555  3.1611 -0.3256 -0.9778
    3SOL    HW2    9   1.546   2.682   2.495  1.1385  2.0016 -1.3745
    4SOL     OW   10   1.192   1.902   2.836  0.1827 -0.2015  0.2460
    4SOL    HW1   11   1.254   1.942   2.765  2.1334  0.2817  2.5978
    4SOL    HW2   12   1.228   1.814   2.869  1.0362  3.0247  0.0140
    5SOL     OW   13   0.721   0.676   1.741 -0.0497 -0.3081  0.1516
    5SOL    HW1   14   0.723   0.766   1.696 -1.9261 -0.0215 -0.5099
    5SOL    HW2   15   0.684   0.683   1.838 -1.5803 -3.5326  0.2147
    6SOL     OW   16   1.855   0.466   2.545  0.2049  0.3949  0.3153
    6SOL    HW1   17   1.911   0.537   2.498 -0.5978  0.1031 -1.6162
    6SOL    HW2   18   1.761   0.458   2.503  0.0819 -2.8750  0.3908
    7SOL     OW   19   0.462   0.286   1.441  0.2061  0.6525 -0.5048
    7SOL    HW1   20   0.361   0.306   1.436 -0.5444 -0.5644  1.1053
    7SOL    HW2   21   0.513   0.350   1.505  0.1142  1.5753 -0.5793
    8SOL     OW   22   1.954   0.225   2.068 -0.1596  0.0220 -0.0679
    8SOL    HW1   23   1.911   0.139   2.028 -0.1755 -4.2720  1.0189
    8SOL    HW2   24   1.974   0.299   1.998  1.2728  0.5488 -3.8931
    9SOL     OW   25   0.252   0.006   0.556  0.3065  0.2608  0.2349
    9SOL    HW1   26   0.292   0.087   0.604 -0.1721  0.0126  0.6452
    9SOL    HW2   27   0.219   3.060   0.617  2.4478  0.5158 -0.5620
   10SOL     OW   28   0.568   2.277   2.412 -0.3145  0.0719  0.2829
   10SOL    HW1   29   0.639   2.343   2.389 -1.2367 -0.6301 -0.3887
   10SOL    HW2   30   0.495   2.278   2.340  0.3628  1.2151 -0.2413
   11SOL     OW   31   0.538   1.576   0.188  0.1979 -0.1245 -0.3101
   11SOL    HW1   32   0.500   1.516   0.114 -1.2019 -0.8657  0.9820
   11SOL    HW2   33   0.637   1.556   0.191  1.2434 -1.9437 -3.1220
   12SOL     OW   34   3.114   2.936   1.368 -0.4111 -0.2916 -0.1890
   12SOL    HW1   35   3.025   2.962   1.325 -1.4933  0.8273  1.1888
   12SOL    HW2   36   0.024   2.843   1.344  0.2849  0.8584  2.6641
   13SOL     OW   37   0.844   2.855   0.482 -0.8154  0.5018 -0.3391
   13SOL    HW1   38   0.899   2.777   0.449 -0.4710  2.0521 -1.8201
   13SOL    HW2   39   0.814   2.908   0.401 -0.8482 -1.2234  2.1343
   14SOL     OW   40   1.510   1.667   1.360 -0.3587 -0.3051  0.2446
   14SOL    HW1   41   1.433   1.650   1.298 -1.2533 -0.8402  0.9426
   14SOL    HW2   42   1.602   1.644   1.314  0.2985  0.8302 -2.5187
   15SOL     OW   43   0.216   1.899   2.568 -0.5975  0.1066  0.9246
   15SOL    HW1   44   0.313   1.922   2.573 -1.3426 -0.6855  0.2506
   15SOL    HW2   45   0.152   1.962   2.617 -5.1553 -2.0223 -0.9651
   16SOL     OW   46   1.374   0.478   2.738 -0.2304 -0.4026  0.8247
   16SOL    HW1   47   1.396   0.552   2.668  2.4209  0.0277  0.1719
   16SOL    HW2   48   1.415   0.505   2.831 -0.8470  0.4996  0.0067
   17SOL     OW   49   0.027   2.382   2.473 -0.2024  0.1806  0.0583
   17SOL    HW1   50   0.085   2.395   2.556 -0.1700  0.2667 -1.7796
   17SOL    HW2   51   0.070   2.315   2.408  0.1844 -0.6943 -2.1268
   18SOL     OW   52   1.209   1.439   0.950 -0.1782 -0.3619 -0.0262
   18SOL    HW1   53   1.152   1.517   0.911  1.3516 -0.1591  1.2868
   18SOL    HW2   54   1.162   1.392   1.027 -1.4196  0.2569  1.5349
   19SOL     OW   55   2.583   2.132   2.345  0.6125  0.1501 -0.4768
   19SOL    HW1   56   2.627   2.102   2.259  0.0032 -0.8796 -2.4935
   19SOL    HW2   57   2.639   2.205   2.386  2.4025 -2.4519 -0.2978
   20SOL     OW   58   2.348   2.104   2.478  0.2144 -0.2181 -0.3487
   20SOL    HW1   59   2.430   2.113   2.422  0.4112  0.1329  0.8910
   20SOL    HW2   60   2.309   2.197   2.482 -0.5834  0.0363 -1.7788
   21SOL     OW   61   1.352   1.736   0.231 -0.0798 -0.2623 -0.0193
   21SOL    HW1   62   1.315   1.675   0.305 -3.5197  2.2227  1.5903
   21SOL    HW2   63   1.418   1.802   0.273  0.4340 -1.4089 -0.8668
   22SOL     OW   64   2.270   2.361   1.673 -0.6426 -0.1911  0.0753
   22SOL    HW1   65   2.263   2.428   1.596 -0.4365  0.6681 -0.8529
   22SOL    HW2   66   2.182   2.325   1.703 -0.9114 -2.1861 -1.3732
   23SOL     OW   67   0.041   1.265   1.130 -0.0274 -0.0467  0.1213
   23SOL    HW1   68   0.050   1.168   1.164  0.5474  1.2331 -2.2131
   23SOL    HW2   69   0.061   1.271   1.027  0.6797  1.3068 -2.3996
   24SOL     OW   70   2.558   1.487   2.020  0.1152 -0.4053  0.3891
   24SOL    HW1   71   2.546   1.493   1.919 -0.6952 -0.9392  1.2320
   24SOL    HW2   72   2.639   1.433   2.045 -0.2242  0.6590 -2.5010
   25SOL     OW   73   1.980   0.252   2.335  0.2667 -0.1452  0.0061
   25SOL    HW1   74   2.059   0.314   2.364  0.8857  2.3592 -2.1528
   25SOL    HW2   75   1.966   0.258   2.234 -2.1967  1.6483 -0.9704
   26SOL     OW   76   1.114   0.052   0.559 -0.0495 -0.4790  0.2038
   26SOL    HW1   77   1.015   0.080   0.553 -0.1866 -0.6434  3.4992
   26SOL    HW2   78   1.161   0.119   0.623  2.5743 -1.7517  0.4870
   27SOL     OW   79   0.673   1.491   0.527  0.3599  0.5821 -0.4736
   27SOL    HW1   80   0.622   1.577   0.511  1.7280  0.6459  1.2254
   27SOL    HW2   81   0.697   1.484   0.628 -1.0735  0.3657 -1.3029
   28SOL     OW   82   2.323   2.044   1.110  0.1051  0.1057 -0.1082
   28SOL    HW1   83   2.344   1.977   1.187 -0.5906 -3.1853  1.9454
   28SOL    HW2   84   2.233   2.091   1.135 -2.7070  0.1137  1.3576
   29SOL     OW   85   2.209   3.049   1.656 -0.9653  0.2125 -0.1086
   29SOL    HW1   86   2.164   2.958   1.626 -1.3557 -0.9251  0.2056
   29SOL    HW2   87   2.278   3.031   1.724  1.3624  0.5807 -0.4076
   30SOL     OW   88   0.844   2.929   1.198  0.1185 -0.0995  0.1496
   30SOL    HW1   89   0.777   2.877   1.263 -2.5651 -2.1027 -0.7841
   30SOL    HW2   90   0.869   3.021   1.237 -0.5295 -0.6714  2.3018
   31SOL     OW   91   3.043   2.028   1.782 -0.6597  0.2635 -0.0613
   31SOL    HW1   92   3.085   1.939   1.814 -0.6273  0.1298  0.5451
   31SOL    HW2   93   2.975   2.062   1.850 -2.4055  3.7853  1.6292
   32SOL     OW   94   1.298   1.626   1.854  0.0449  0.0533 -0.1810
   32SOL    HW1   95   1.206   1.637   1.815 -1.2510 -0.6685  1.6942
   32SOL    HW2   96   1.337   1.714   1.879  0.7212 -3.3221  1.5923
   33SOL     OW   97   0.327   3.087   0.005  0.0965  0.6018  0.0262
   33SOL    HW1   98   0.286   0.023   0.078  2.0636  1.1537 -1.6197
   33SOL    HW2   99   0.333   0.016   3.039  0.1824 -0.9092 -0.3470
   34SOL     OW  100   2.560   3.012   0.528 -0.0821  0.2005  0.3613
   34SOL    HW1  101   2.601   3.022   0.620  2.5626  3.6636 -1.6783
   34SOL    HW2  102   2.553   2.915   0.499  0.3746 -3.4551 -2.6719
   35SOL     OW  103   2.802   0.081   1.480 -0.3465  0.7353 -0.0481
   35SOL    HW1  104   2.777   0.154   1.546 -0.4321 -2.0111 -0.2512
   35SOL    HW2  105   2.730   0.084   1.414  0.8533  0.7471  0.6619
   36SOL     OW  106   2.839   2.749   2.709  0.0871 -0.5357  0.4100
   36SOL    HW1  107   2.850   2.838   2.756 -0.0838 -0.7300 -1.4297
   36SOL    HW2  108   2.910   2.732   2.635  0.4986 -0.7183 -2.3233
   37SOL     OW  109   1.689   2.666   3.090 -0.0013  0.3474  0.0291
   37SOL    HW1  110   1.663   2.754   3.045 -1.2990 -0.0191  0.2728
   37SOL    HW2  111   1.610   2.640   0.026 -0.4164  0.1908  1.3482
   38SOL     OW  112   2.908   0.957   3.040 -0.1659  0.0725  0.1123
   38SOL    HW1  113   2.828   0.943   3.097  0.1540  0.6804  2.4745
   38SOL    HW2  114   2.982   1.001   3.094  1.0828  1.4804  1.1043
   39SOL     OW  115   1.660   1.797   2.059 -0.0798 -0.4116  0.8127
   39SOL    HW1  116   1.704   1.878   2.107 -1.0261  0.2546  0.7661
   39SOL    HW2  117   1.681   1.702   2.088 -0.9154 -0.6736 -0.5550
   40SOL     OW  118   0.201   0.298   2.579  0.5814  0.3649  0.5232
   40SOL    HW1  119   0.116   0.274   2.630  0.4992 -4.1333 -4.0446
   40SOL    HW2  120   0.283   0.310   2.643  0.6018 -2.0508 -0.5757
   41SOL     OW  121   1.801   1.398   1.764 -0.6353 -0.5638 -0.0671
   41SOL    HW1  122   1.808   1.417   1.862  0.1134  0.7255 -2.1391
   41SOL    HW2  123   1.708   1.416   1.728 -0.7288 -1.2718  0.4922
   42SOL     OW  124   0.138   0.249   1.716  0.9609 -0.0515 -0.2586
   42SOL    HW1  125   0.068   0.231   1.652  0.8408  1.4083  0.4889
   42SOL    HW2  126   0.209   0.310   1.683 -2.6241 -0.3040  2.1442
   43SOL     OW  127   1.421   1.467   2.014 -0.6322 -0.0314 -0.1465
   43SOL    HW1  128   1.442   1.371   1.986 -0.2042  2.2057 -1.5018
   43SOL    HW2  129   1.365   1.511   1.938 -1.8613 -0.4411 -0.1539
   44SOL     OW  130   3.071   0.314   3.092  0.2786 -0.1932  0.9708
   44SOL    HW1  131   3.072   0.221   3.053 -0.0660 -1.0087  2.0014
   44SOL    HW2  132   3.016   0.307   0.053  3.0287  1.6767 -1.5878
   45SOL     OW  133   0.354   2.076   0.956 -0.6098 -0.4109 -0.2224
   45SOL    HW1  134   0.351   2.088   1.061  2.3941 -1.2720  1.8130
   45SOL    HW2  135   0.376   1.976   0.927  1.5613 -1.5106  0.0063
   46SOL     OW  136   2.484   2.797   1.680  0.6884 -0.2421 -0.5858
   46SOL    HW1  137   2.462   2.873   1.744 -3.0482 -1.2005  0.0792
   46SOL    HW2  138   2.586   2.777   1.676 -0.6748 -0.9783  0.6479
   47SOL     OW  139   0.584   1.668   1.245  0.0651  0.0939  0.2740
   47SOL    HW1  140   0.587   1.576   1.192 -0.7775 -2.5218 -2.6078
   47SOL    HW2  141   0.560   1.742   1.177  0.6745 -0.0681  0.9536
   48SOL     OW  142   0.652   2.536   0.437  0.0513 -0.2886  0.0667
   48SOL    HW1  143   0.678   2.597   0.356  1.6943 -1.8251 -3.5757
   48SOL    HW2  144   0.726   2.477   0.469 -0.1024 -1.0485  2.6593
   49SOL     OW  145   2.779   1.495   1.767  0.1215  0.6344 -0.4644
   49SOL    HW1  146   2.702   1.562   1.788  0.4111  0.6994 -1.0865
   49SOL    HW2  147   2.740   1.399   1.765  0.6773 -0.7917 -0.9201
   50SOL     OW  148   1.670   0.545   0.585 -0.1007  0.2281 -0.5067
   50SOL    HW1  149   1.757   0.519   0.543 -0.6879  2.6282 -1.3915
   50SOL    HW2  150   1.671   0.529   0.688 -3.5106  0.3525  3.7893
   51SOL     OW  151   1.253   0.572   1.059  0.4645 -0.4694 -0.2774
   51SOL    HW1  152   1.280   0.674   1.055 -0.4537 -0.6942  0.7381
   51SOL    HW2  153   1.154   0.563   1.030 -0.2481  0.8219  2.2645
   52SOL     OW  154   0.921   1.216   0.414  0.1700  0.0758  0.6016
   52SOL    HW1  155   0.985   1.141   0.449  0.3834 -0.2580 -0.4805
   52SOL    HW2  156   0.831   1.218   0.468 -0.2379  0.6652  0.4655
   53SOL     OW  157   1.255   3.115   2.423  0.5508 -0.4238 -0.2675
   53SOL    HW1  158   1.300   0.009   2.515  0.3514  2.9235 -1.1975
   53SOL    HW2  159   1.249   3.019   2.400  1.4495  2.0706 -0.4838
   54SOL     OW  160   1.708   0.819   1.754  0.0730 -0.2666 -0.2883
   54SOL    HW1  161   1.697   0.873   1.665 -2.5727  0.8323  0.4935
   54SOL    HW2  162   1.802   0.790   1.775  0.3036 -0.2352  5.6891
   55SOL     OW  163   2.924   2.762   0.408  0.0448  0.0567  0.7473
   55SOL    HW1  164   3.006   2.760   0.470 -2.4085  0.3158  0.4716
   55SOL    HW2  165   2.863   2.684   0.437 -0.2744 -0.9231  2.4211
   56SOL     OW  166   1.115   2.712   1.700 -0.1344 -0.7165 -0.4041
   56SOL    HW1  167   1.012   2.694   1.715 -0.1921  2.7923  1.5200
   56SOL    HW2  168   1.125   2.711   1.600 -3.1029  3.1311  0.6839
   57SOL     OW  169   1.620   0.856   2.657  0.1416  0.3235 -0.4064
   57SOL    HW1  170   1.591   0.877   2.752  2.6702 -2.0088  2.4664
   57SOL    HW2  171   1.545   0.802   2.609  0.9136  0.2044 -1.9926
   58SOL     OW  172   0.263   1.290   2.141  0.5531 -0.1153  0.1637
   58SOL    HW1  173   0.166   1.315   2.113 -2.6593  1.9273  0.5712
   58SOL    HW2  174   0.278   1.189   2.144  0.2526  1.3885 -1.2564
   59SOL     OW  175   0.696   2.647   1.951  0.3655 -0.3152  0.1918
   59SOL    HW1  176   0.708   2.548   1.966 -0.7980 -0.7333 -0.1922
   59SOL    HW2  177   0.701   2.699   2.039 -1.2986 -0.4449  1.4224
   60SOL     OW  178   2.506   2.569   0.282  0.0797  0.5327  0.2135
   60SOL    HW1  179   2.539   2.483   0.315  0.5454  2.8735  2.7360
   60SOL    HW2  180   2.529   2.580   0.180 -0.7530  1.6650 -0.6180
   61SOL     OW  181   0.981   2.686   0.734 -0.0509  0.3163 -0.3220
   61SOL    HW1  182   1.053   2.650   0.676  1.3341 -1.9374 -1.3745
   61SOL    HW2  183   0.991   2.789   0.748 -0.9756  0.5880 -2.1140
   62SOL     OW  184   1.545   2.337   2.740 -0.0460  0.3362  0.0546
   62SOL    HW1  185   1.617   2.267   2.754 -1.1368 -0.9027 -1.6782
   62SOL    HW2  186   1.472   2.327   2.813 -3.7279 -3.5245  1.2880
   63SOL     OW  187   1.947   0.594   3.117 -0.2287 -0.2966 -0.1554
   63SOL    HW1  188   1.943   0.554   3.024 -1.2799  0.9658  0.9873
   63SOL    HW2  189   2.039   0.587   0.038 -0.2070 -2.1878  3.2214
   64SOL     OW  190   0.989   1.432   2.899 -0.7753  0.3134  0.1653
   64SOL    HW1  191   0.912   1.480   2.945 -0.2451  2.3402  1.4617
   64SOL    HW2  192   1.040   1.374   2.964 -0.3319  0.7052 -1.7660
   65SOL     OW  193   0.982   0.028   1.299 -0.7879  0.2641 -0.0699
   65SOL    HW1  194   1.042   3.109   1.373 -2.2708  0.9308 -0.0409
   65SOL    HW2  195   1.048   0.073   1.230  4.8490 -1.1916 -0.6384
   66SOL     OW  196   0.650   1.323   1.501  0.5770 -0.1225  0.3583
   66SOL    HW1  197   0.627   1.233   1.544 -0.4314  0.8148  0.7336
   66SOL    HW2  198   0.712   1.373   1.566  0.4238  0.5368 -0.7731
   67SOL     OW  199   2.439   2.645   1.931  0.1467  0.0708 -0.0450
   67SOL    HW1  200   2.504   2.698   1.991 -0.1399  1.3763 -2.5460
   67SOL    HW2  201   2.437   2.682   1.835 -2.8671 -1.7114  0.6182
   68SOL     OW  202   0.928   1.092   1.939  0.1768  0.3247  0.1204
   68SOL    HW1  203   0.946   1.064   2.033  2.1279  1.9268 -1.5888
   68SOL    HW2  204   0.828   1.117   1.918 -1.8387  2.6322  0.6782
   69SOL     OW  205   2.760   2.657   3.108 -0.4280 -0.5263  0.0478
   69SOL    HW1  206   2.802   2.716   0.058 -1.3463  1.3848  1.3750
   69SOL    HW2  207   2.660   2.644   3.115  3.4348  0.0536 -2.0089
   70SOL     OW  208   2.242   0.466   2.735  0.6537  0.1919  0.3360
   70SOL    HW1  209   2.244   0.371   2.699 -0.7952  2.7484  1.5954
   70SOL    HW2  210   2.327   0.495   2.790 -2.1698  2.8396  1.0765
   71SOL     OW  211   0.045   2.156   0.405 -0.0122 -0.0820 -0.6820
   71SOL    HW1  212   3.121   2.171   0.315  2.1705 -0.6103 -1.6916
   71SOL    HW2  213   0.144   2.156   0.396 -0.9072 -0.0310  0.2920
   72SOL     OW  214   2.877   1.886   0.297  0.2639  0.0332 -0.3197
   72SOL    HW1  215   2.857   1.796   0.250 -0.8999 -0.6333 -1.0801
   72SOL    HW2  216   2.874   1.967   0.235  1.6787  0.0270 -0.0554
   73SOL     OW  217   1.066   0.610   0.753 -0.0651 -0.0085 -0.1165
   73SOL    HW1  218   1.166   0.608   0.747  1.8404  3.4064  0.1701
   73SOL    HW2  219   1.040   0.678   0.819  1.9479 -1.7228 -2.9821
   74SOL     OW  220   2.938   2.376   2.081  0.0527 -0.0663 -0.4937
   74SOL    HW1  221   3.021   2.320   2.089  1.4368  0.6839  0.2198
   74SOL    HW2  222   2.939   2.418   1.990  1.3976 -0.2259 -2.7392
   75SOL     OW  223   1.683   1.820   1.788  0.0637  0.5888  0.1327
   75SOL    HW1  224   1.648   1.807   1.887 -3.4145 -0.8616  2.6097
   75SOL    HW2  225   1.604   1.790   1.726 -3.5391 -2.9176 -1.3118
   76SOL     OW  226   1.285   2.067   1.302 -0.7228 -0.3571 -0.4750
   76SOL    HW1  227   1.224   2.099   1.376 -1.3838 -1.7916 -1.7049
   76SOL    HW2  228   1.223   2.033   1.227 -0.4434 -2.5817  1.2862
   77SOL     OW  229   2.820   1.778   1.900 -0.0401 -0.0045 -0.2684
   77SOL    HW1  230   2.920   1.789   1.899 -0.6052 -1.1842 -0.2285
   77SOL    HW2  231   2.788   1.774   1.996 -1.6507  0.6716 -0.1550
   78SOL     OW  232   1.714   0.524   0.855  0.3950  0.1042 -0.6440
   78SOL    HW1  233   1.701   0.425   0.871 -0.9509 -0.8836 -0.2107
   78SOL    HW2  234   1.650   0.584   0.911 -0.4203 -1.3098 -0.1434
   79SOL     OW  235   1.977   1.560   1.640  0.5429  0.7811 -0.4694
   79SOL    HW1  236   2.070   1.525   1.607 -0.5358 -3.6255 -0.7495
   79SOL    HW2  237   1.920   1.487   1.688  0.1713  1.4660  1.7421
   80SOL     OW  238   1.298   0.343   1.232  0.1850  0.1692 -0.0969
   80SOL    HW1  239   1.251   0.410   1.167  1.2160  1.0093 -2.0461
   80SOL    HW2  240   1.290   0.385   1.329 -1.3535  2.2489  0.0891
   81SOL     OW  241   0.893   2.421   0.557 -0.5140  0.2596 -0.4856
   81SOL    HW1  242   0.982   2.465   0.542 -1.7729 -2.6686  0.3963
   81SOL    HW2  243   0.901   2.325   0.591  1.6134  1.0605 -2.0000
   82SOL     OW  244   1.354   0.599   1.960 -0.1683  0.0708  0.7930
   82SOL    HW1  245   1.446   0.600   1.912  4.3311 -1.9743 -1.8804
   82SOL    HW2  246   1.328   0.505   1.975  0.4469  0.5510 -0.1303
   83SOL     OW  247   0.366   2.228   0.635  0.3192  0.3117  0.2989
   83SOL    HW1  248   0.357   2.220   0.531  0.4985 -0.1957  0.3042
   83SOL    HW2  249   0.281   2.184   0.681 -4.0056 -1.7823  2.1606
   84SOL     OW  250   2.528   1.325   3.110 -0.1008 -0.0663 -0.5235
   84SOL    HW1  251   2.600   1.375   3.063  0.3889 -3.1279  2.8060
   84SOL    HW2  252   2.454   1.395   0.019 -1.6480  0.4262  4.0231
   85SOL     OW  253   2.817   2.392   1.726 -0.1741 -0.9008 -0.3779
   85SOL    HW1  254   2.778   2.326   1.663  1.4134  1.3244  1.5408
   85SOL    HW2  255   2.913   2.370   1.753  1.2394  1.2315 -1.1806
   86SOL     OW  256   1.704   2.758   1.285 -0.1539 -0.1976 -0.0343
   86SOL    HW1  257   1.794   2.712   1.295 -1.5347  1.2530  1.5724
   86SOL    HW2  258   1.716   2.843   1.229  0.0478  3.9075  0.8758
   87SOL     OW  259   2.726   1.517   0.325 -0.1672  0.0534  0.3642
   87SOL    HW1  260   2.631   1.557   0.348 -0.8306  0.3198 -0.0473
   87SOL    HW2  261   2.729   1.413   0.335  1.9059  0.5220 -1.2780
   88SOL     OW  262   0.986   0.513   1.039  0.1761  0.1681  0.6934
   88SOL    HW1  263   0.967   0.552   1.130  1.8625 -2.6117 -1.7897
   88SOL    HW2  264   0.987   0.409   1.035 -0.4778  0.6085 -0.3080
   89SOL     OW  265   0.875   2.976   1.753  0.0157 -0.4425  0.3566
   89SOL    HW1  266   0.781   3.015   1.754  1.0565 -2.6859 -1.0024
   89SOL    HW2  267   0.870   2.872   1.743 -2.6956  1.5042  1.2671
   90SOL     OW  268   0.032   1.672   1.124  0.3435 -0.0919  0.4133
   90SOL    HW1  269   3.084   1.615   1.076 -0.7067  1.1924 -0.6165
   90SOL    HW2  270   0.015   1.771   1.108  1.6200 -1.1471 -0.5118
   91SOL     OW  271   1.264   1.696   1.149  0.1506  0.1265  0.2858
   91SOL    HW1  272   1.184   1.680   1.210  1.8233  0.3363 -0.6360
   91SOL    HW2  273   1.267   1.635   1.068 -0.7931  0.7229 -0.0412
   92SOL     OW  274   2.872   2.979   1.896  0.9090  0.4424 -0.4160
   92SOL    HW1  275   2.802   3.052   1.883  0.3453 -1.0318 -3.2903
   92SOL    HW2  276   2.958   3.013   1.845  0.9580  2.9325  0.2127
   93SOL     OW  277   0.115   1.370   2.642 -0.4801  0.1035  0.3360
   93SOL    HW1  278   0.100   1.274   2.679  1.6469 -1.5676  0.1666
   93SOL    HW2  279   0.204   1.376   2.595  0.1076 -0.0059 -0.3276
   94SOL     OW  280   2.448   2.992   1.842 -0.1972  0.1801  0.0186
   94SOL    HW1  281   2.391   2.995   1.923  0.1565 -0.9971 -1.1726
   94SOL    HW2  282   2.528   3.049   1.859 -0.9438 -0.4773  0.0990
   95SOL     OW  283   1.623   0.962   2.149  0.1046  0.3817 -0.5920
   95SOL    HW1  284   1.525   0.992   2.157 -0.4238  1.5601  1.2774
   95SOL    HW2  285   1.664   0.996   2.062 -0.0671 -0.3370  2.6162
   96SOL     OW  286   2.783   0.877   1.725  0.0515  0.6863 -0.0829
   96SOL    HW1  287   2.880   0.858   1.748  1.0955 -1.5837  0.7375
   96SOL    HW2  288   2.768   0.956   1.665  1.4145  0.3939  1.7577
   97SOL     OW  289   2.387   3.039   1.428  0.0191 -0.4165 -0.4072
   97SOL    HW1  290   2.414   2.939   1.432  1.0321  2.2102  0.0528
   97SOL    HW2  291   2.318   3.061   1.502 -0.1378  1.1589 -1.3484
   98SOL     OW  292   2.199   2.568   1.484 -0.2488 -0.3548  0.6672
   98SOL    HW1  293   2.274   2.636   1.464  1.1445 -0.1415 -0.2080
   98SOL    HW2  294   2.119   2.609   1.533 -1.5373  3.4430 -1.8499
   99SOL     OW  295   2.760   0.244   1.701  0.4742  0.0104  0.0512
   99SOL    HW1  296   2.706   0.330   1.694 -0.9574  4.1021 -0.6502
   99SOL    HW2  297   2.851   0.256   1.750 -0.5879  0.1370 -0.0026
  100SOL     OW  298   2.381   1.695   2.046 -0.6104  0.0201 -0.0671
  100SOL    HW1  299   2.440   1.611   2.032 -1.1449 -2.5437  2.6253
  100SOL    HW2  300   2.324   1.677   2.125  5.2297  0.0056 -0.7730
  101SOL     OW  301   2.187   0.049   0.133  0.2052 -0.5834  0.0027
  101SOL    HW1  302   2.248   0.053   0.215  0.7411  3.9377  2.5543
  101SOL    HW2  303   2.152   0.145   0.112 -0.7300 -2.6749 -1.9331
  102SOL     OW  304   0.719   0.647   1.192  0.2934  0.2009 -0.2584
  102SOL    HW1  305   0.660   0.584   1.245 -0.0598 -0.1335 -2.0273
  102SOL    HW2  306   0.722   0.623   1.096  2.5762  1.4818  2.4800
  103SOL     OW  307   2.830   0.031   2.443 -0.1797  0.3274 -0.2460
  103SOL    HW1  308   2.755   0.016   2.513  1.8741 -0.5805  2.6586
  103SOL    HW2  309   2.904   3.083   2.458  1.2149 -2.2921  2.0753
  104SOL     OW  310   0.040   2.750   1.667  0.2651 -0.4174  0.5014
  104SOL    HW1  311   0.060   2.684   1.738 -0.5080 -0.9063  3.8910
  104SOL    HW2  312   3.102   2.717   1.596  0.1395  1.7109  1.5753
  105SOL     OW  313   1.351   1.072   2.139  0.1481  0.4126 -0.0409
  105SOL    HW1  314   1.282   1.144   2.154  0.9258 -0.4839 -0.8242
  105SOL    HW2  315   1.301   0.985   2.132 -0.4090  1.4058 -0.1605
  106SOL     OW  316   1.953   0.557   0.956  0.3200 -0.1648  0.4106
  106SOL    HW1  317   1.940   0.569   1.060 -0.3069  0.2989  4.1321
  106SOL    HW2  318   1.860   0.534   0.914 -0.3916 -1.5767 -0.8001
  107SOL     OW  319   0.651   0.909   1.294  0.3397  0.1272  0.3531
  107SOL    HW1  320   0.642   0.806   1.294 -0.7145 -0.7670 -0.2587
  107SOL    HW2  321   0.738   0.937   1.332 -3.4134 -0.1503 -0.3130
  108SOL     OW  322   3.067   0.482   2.277 -0.3633 -0.2214 -0.3150
  108SOL    HW1  323   0.000   0.489   2.191  1.8560  1.1394  0.3264
  108SOL    HW2  324   3.055   0.389   2.309  0.7073  2.0908  1.2902
  109SOL     OW  325   2.044   3.060   3.049 -0.0727 -0.1601  0.1722
  109SOL    HW1  326   2.094   3.108   0.003  0.8085  2.6018  0.3741
  109SOL    HW2  327   2.020   3.120   2.970  0.1775 -0.5613  1.4513
  110SOL     OW  328   3.104   1.801   2.876  0.2405 -0.3382 -0.0808
  110SOL    HW1  329   3.006   1.838   2.850 -3.1319  2.8649 -0.7006
  110SOL    HW2  330   0.004   1.820   2.975 -0.5063  0.5283  0.7962
  111SOL     OW  331   2.682   0.380   2.439  0.2116 -0.4846  0.2251
  111SOL    HW1  332   2.643   0.384   2.532  4.1677  0.7454 -2.3627
  111SOL    HW2  333   2.785   0.384   2.448 -0.4939  0.8231 -1.0214
  112SOL     OW  334   2.696   2.760   0.919 -0.1800 -0.1011  0.0031
  112SOL    HW1  335   2.687   2.661   0.923 -0.1020 -0.6541 -1.0666
  112SOL    HW2  336   2.791   2.788   0.898  1.7561 -0.4866  1.6316
  113SOL     OW  337   2.347   2.249   2.151  0.0186 -0.2101 -0.1314
  113SOL    HW1  338   2.344   2.147   2.152  0.3633 -1.7689  2.1401
  113SOL    HW2  339   2.445   2.284   2.160  1.7879  0.0057 -1.9802
  114SOL     OW  340   2.706   0.053   0.389 -0.1682  0.2639 -0.3016
  114SOL    HW1  341   2.670   3.103   0.444  1.7828  1.9432 -2.7552
  114SOL    HW2  342   2.731   0.131   0.449  1.2862  2.1843  2.3369
  115SOL     OW  343   2.705   1.855   3.058  0.2672  0.0330  0.1563
  115SOL    HW1  344   2.758   1.793   0.004 -0.2644 -1.4344  0.4879
  115SOL    HW2  345   2.764   1.884   2.976 -0.1814  0.1986 -1.1444
  116SOL     OW  346   0.006   1.229   1.860  0.6290  0.6385 -0.5317
  116SOL    HW1  347   0.100   1.208   1.828  0.1202 -0.3302  0.2980
  116SOL    HW2  348   0.012   1.295   1.933  0.5327 -0.8098 -1.2806
  117SOL     OW  349   2.162   0.164   1.088  0.2326  0.0415  0.6628
  117SOL    HW1  350   2.117   0.078   1.057 -1.2977 -1.3210 -1.6012
  117SOL    HW2  351   2.099   0.219   1.145  0.2107 -0.3288 -2.5435
  118SOL     OW  352   0.142   2.243   1.691 -0.0873 -0.6102  0.5592
  118SOL    HW1  353   0.099   2.159   1.721  1.3249  1.0946 -1.1707
  118SOL    HW2  354   0.235   2.224   1.657 -0.8993 -2.4102  0.8599
  119SOL     OW  355   0.930   2.000   1.382 -0.2177  0.5279  0.1881
  119SOL    HW1  356   0.895   2.061   1.311  2.3024  0.1245  0.6794
  119SOL    HW2  357   0.863   1.923   1.401 -2.7984 -1.0419  1.1070
  120SOL     OW  358   0.257   1.782   1.448 -0.0154 -0.2282 -1.0404
  120SOL    HW1  359   0.191   1.710   1.494 -1.4561 -4.1284  3.7423
  120SOL    HW2  360   0.350   1.777   1.493 -2.9054  1.0551  0.3666
  121SOL     OW  361   1.935   1.329   1.141 -0.5086  0.0020  0.2742
  121SOL    HW1  362   1.865   1.395   1.102 -2.5974  0.7951  0.1628
  121SOL    HW2  363   2.011   1.375   1.191  2.2756  1.6367 -0.4480
  122SOL     OW  364   2.037   2.032   2.693 -0.0917  0.1422  0.7657
  122SOL    HW1  365   1.969   1.979   2.748 -0.8997 -2.5329  0.2012
  122SOL    HW2  366   2.016   2.041   2.592 -3.1908  1.0551  0.7880
  123SOL     OW  367   2.975   3.032   0.397 -0.3722  0.2474  0.2801
  123SOL    HW1  368   2.901   3.110   0.393 -2.5285  0.2569  0.7981
  123SOL    HW2  369   2.933   2.940   0.377 -0.1384 -0.7251 -0.8279
  124SOL     OW  370   0.962   0.897   0.241 -0.3023 -0.3366  0.0433
  124SOL    HW1  371   0.878   0.946   0.272  0.1603 -0.1383 -0.3325
  124SOL    HW2  372   0.981   0.922   0.145  0.2850  2.6122  3.3328
  125SOL     OW  373   0.073   1.463   2.330  0.0256  0.4265 -0.1759
  125SOL    HW1  374   0.044   1.552   2.359  2.3157 -0.7486 -0.2868
  125SOL    HW2  375   0.167   1.444   2.360  1.1326  2.1973 -0.0083
  126SOL     OW  376   0.165   2.551   0.433 -0.4791 -0.4989 -0.1848
  126SOL    HW1  377   0.194   2.631   0.374  1.0472  2.2766 -1.2134
  126SOL    HW2  378   0.248   2.517   0.483 -0.6015  0.9173  0.7278
  127SOL     OW  379   3.008   1.632   0.441 -0.2571 -0.0136  0.0942
  127SOL    HW1  380   2.924   1.591   0.407 -0.0560 -0.2628  2.4057
  127SOL    HW2  381   3.077   1.559   0.467  0.0291  2.4356 -0.9312
  128SOL     OW  382   1.183   1.210   0.779  0.3397 -0.6414  0.3090
  128SOL    HW1  383   1.194   1.295   0.833  0.4499  0.9722  0.6877
  128SOL    HW2  384   1.246   1.132   0.808 -0.1183 -2.6611 -0.5501
  129SOL     OW  385   1.992   2.203   1.444  0.2815  0.1263  0.1430
  129SOL    HW1  386   1.983   2.229   1.544  0.8426 -1.6021 -1.8695
  129SOL    HW2  387   1.910   2.161   1.405 -1.0466  1.6088 -4.5926
  130SOL     OW  388   1.915   1.008   0.802 -0.4449  0.5462 -0.1861
  130SOL    HW1  389   1.870   1.053   0.724  2.4451 -0.3066 -1.6986
  130SOL    HW2  390   1.969   1.076   0.858 -0.2121 -0.8908  0.2965
  131SOL     OW  391   2.917   0.967   2.771  0.1306  0.4712  0.3020
  131SOL    HW1  392   2.928   0.963   2.875 -1.6916 -1.5185 -2.1570
  131SOL    HW2  393   2.827   1.015   2.740 -1.8547 -1.5471 -1.2947
  132SOL     OW  394   1.589   1.262   2.319 -0.3352 -0.4976 -0.2965
  132SOL    HW1  395   1.636   1.195   2.377  1.5531  1.8928  1.0935
  132SOL    HW2  396   1.650   1.306   2.252 -1.3175 -0.3282 -1.4327
  133SOL     OW  397   3.090   1.122   0.059 -0.2246 -0.1557 -0.4414
  133SOL    HW1  398   0.002   1.186   3.112 -1.0427  1.5161 -2.1809
  133SOL    HW2  399   3.062   1.179   0.141 -1.6114  1.0436  1.3007
  134SOL     OW  400   2.606   0.873   0.590 -0.0349  0.3746  0.0797
  134SOL    HW1  401   2.534   0.937   0.619 -3.7726 -1.5407  2.4395
  134SOL    HW2  402   2.683   0.876   0.654 -2.5436 -0.8557 -1.9619
  135SOL     OW  403   1.828   0.862   3.093  0.9282 -0.4617  0.2516
  135SOL    HW1  404   1.854   0.766   3.109 -1.7667  1.6118 -2.2765
  135SOL    HW2  405   1.839   0.925   0.051  0.5309  1.6484 -1.0502
  136SOL     OW  406   1.752   2.104   1.708 -0.4782  0.1289  0.3195
  136SOL    HW1  407   1.743   2.015   1.758 -1.1860  2.5276  0.1456
  136SOL    HW2  408   1.669   2.163   1.721  3.5082 -1.5616 -2.9785
  137SOL     OW  409   2.164   2.635   0.618 -0.5118  0.5016  0.4176
  137SOL    HW1  410   2.205   2.574   0.692  3.1238  0.1496 -0.1402
  137SOL    HW2  411   2.207   2.627   0.527 -1.4968 -0.2189 -2.4151
  138SOL     OW  412   2.241   0.489   1.570  0.1500 -0.4094 -0.4445
  138SOL    HW1  413   2.210   0.392   1.585  0.0956  0.8784 -1.1685
  138SOL    HW2  414   2.299   0.526   1.648 -0.5698  2.0856 -2.6460
  139SOL     OW  415   2.668   0.077   2.629  0.1627  0.2799 -0.3538
  139SOL    HW1  416   2.569   0.102   2.657 -1.4343  1.5302 -2.7759
  139SOL    HW2  417   2.728   0.155   2.654 -0.4134  0.6102  0.0850
  140SOL     OW  418   1.199   1.846   2.150 -0.6766  0.0184  0.0669
  140SOL    HW1  419   1.210   1.749   2.179 -0.0636  2.2387  0.8429
  140SOL    HW2  420   1.280   1.876   2.090 -1.1805  0.6491  1.3198
  141SOL     OW  421   0.687   0.567   2.461 -0.2746  0.2346  0.0397
  141SOL    HW1  422   0.622   0.605   2.389 -1.7267 -1.1243  0.1933
  141SOL    HW2  423   0.771   0.630   2.467  0.5686  0.6349 -0.3513
  142SOL     OW  424   2.871   2.534   2.872  0.1089  0.8576 -0.0828
  142SOL    HW1  425   2.832   2.569   2.959 -1.3789  0.5869 -0.8299
  142SOL    HW2  426   2.875   2.610   2.802 -0.9195 -1.1812  1.9385
  143SOL     OW  427   0.935   2.028   0.299 -0.3567 -0.7126  0.2402
  143SOL    HW1  428   0.883   2.114   0.277 -1.7544  3.3126  0.3615
  143SOL    HW2  429   1.025   2.049   0.340 -0.9929  0.7867 -3.0944
  144SOL     OW  430   1.489   2.548   0.109  0.3388 -0.3369 -0.3288
  144SOL    HW1  431   1.408   2.569   0.052  1.9866 -0.0749  1.1038
  144SOL    HW2  432   1.479   2.593   0.202  0.0485 -1.0188  1.3728
  145SOL     OW  433   1.597   1.964   2.646 -0.3831  0.2746  0.2004
  145SOL    HW1  434   1.657   2.044   2.669  0.6486  0.4754 -1.1374
  145SOL    HW2  435   1.635   1.910   2.566 -1.0037 -1.3376  1.7998
  146SOL     OW  436   2.771   3.005   2.811  0.4378 -0.0310 -0.5620
  146SOL    HW1  437   2.756   3.015   2.911 -0.1607 -2.6905 -2.6446
  146SOL    HW2  438   2.714   3.072   2.760  0.0309 -0.4688  1.0590
  147SOL     OW  439   2.909   1.054   0.981  0.1969  0.1150  0.8411
  147SOL    HW1  440   2.899   1.114   1.062 -0.4445 -2.2451 -3.8715
  147SOL    HW2  441   2.903   1.108   0.894 -0.0533  1.4763 -2.0860
  148SOL     OW  442   2.276   2.790   0.079  0.1934 -0.2436 -0.1857
  148SOL    HW1  443   2.222   2.819   0.165 -0.8894 -1.3449  4.3022
  148SOL    HW2  444   2.210   2.780   0.001  0.7555  0.0179  0.7005
  149SOL     OW  445   0.536   1.811   2.778 -0.6044 -0.1412  0.5798
  149SOL    HW1  446   0.620   1.808   2.835 -0.1806  0.1745  0.1262
  149SOL    HW2  447   0.490   1.906   2.781  2.0816 -1.6237  0.4369
  150SOL     OW  448   0.423   2.510   0.595 -0.0146  0.0987 -0.2978
  150SOL    HW1  449   0.516   2.497   0.557  1.6198 -3.5766  1.0551
  150SOL    HW2  450   0.389   2.431   0.650 -1.3373  0.2631  0.3398
  151SOL     OW  451   0.387   1.143   0.373  0.1128  0.4997 -0.1964
  151SOL    HW1  452   0.376   1.042   0.364  0.6984 -0.8260  0.5857
  151SOL    HW2  453   0.377   1.169   0.471  3.6343 -1.8717 -1.6622
  152SOL     OW  454   2.665   1.858   0.468 -0.4828  0.1151  0.2128
  152SOL    HW1  455   2.752   1.880   0.413  2.1180 -0.1535 -0.3766
  152SOL    HW2  456   2.605   1.800   0.402 -0.8934 -1.3642 -1.3055
  153SOL     OW  457   1.782   2.363   0.654  0.6315  0.3130  0.2375
  153SOL    HW1  458   1.849   2.315   0.711 -0.5846  1.4755 -1.7811
  153SOL    HW2  459   1.788   2.339   0.557  0.1419  0.2138  0.1027
  154SOL     OW  460   1.039   2.577   0.983  0.3695  0.4291  0.2912
  154SOL    HW1  461   1.015   2.608   0.886 -0.6851  1.8567 -1.8691
  154SOL    HW2  462   0.961   2.523   1.015 -0.5647 -0.1247 -1.0296
  155SOL     OW  463   2.956   1.670   0.754  0.1448  0.1253  0.5187
  155SOL    HW1  464   2.855   1.670   0.740 -1.1710  0.9866  0.1681
  155SOL    HW2  465   3.012   1.684   0.671  0.8897 -0.1144  0.3573
  156SOL     OW  466   2.694   2.354   0.091  0.3514 -0.6618  0.1606
  156SOL    HW1  467   2.600   2.383   0.063  0.3436  0.2714 -0.9392
  156SOL    HW2  468   2.761   2.419   0.049  0.8410  1.2179 -1.2398
  157SOL     OW  469   0.549   2.257   1.315 -0.1452  0.5448  0.3431
  157SOL    HW1  470   0.642   2.220   1.290 -2.3594  1.9631  1.3547
  157SOL    HW2  471   0.471   2.205   1.277 -0.3684  2.0362  2.2011
  158SOL     OW  472   1.489   0.433   0.091 -0.0029 -0.3441 -0.2575
  158SOL    HW1  473   1.505   0.470   0.184  1.2884  0.2288  0.1790
  158SOL    HW2  474   1.561   0.362   0.072  0.3600  0.4562 -0.6946
  159SOL     OW  475   1.305   0.709   0.345  0.1347  0.4413  0.3012
  159SOL    HW1  476   1.372   0.640   0.375  2.0095  0.0114 -0.2677
  159SOL    HW2  477   1.214   0.661   0.331 -1.0027  1.0967  0.0920
  160SOL     OW  478   0.685   1.457   0.789  0.0732  0.0762 -0.1524
  160SOL    HW1  479   0.691   1.357   0.813  0.7604  2.0178  1.4247
  160SOL    HW2  480   0.745   1.510   0.851  0.8307  1.2616  0.4568
  161SOL     OW  481   0.172   2.413   2.693  0.1017  0.0089  0.1883
  161SOL    HW1  482   0.124   2.399   2.781  3.1376 -0.8663 -0.4421
  161SOL    HW2  483   0.276   2.401   2.703  4.8822  0.4533  2.8331
  162SOL     OW  484   0.171   2.330   1.116  0.0951  0.6068 -0.1644
  162SOL    HW1  485   0.078   2.285   1.100 -0.3677 -1.4384  5.1293
  162SOL    HW2  486   0.183   2.400   1.040 -2.0357  2.0404  1.5298
  163SOL     OW  487   0.072   0.461   2.879  0.9310 -0.0834  0.8445
  163SOL    HW1  488   0.067   0.565   2.868 -0.0522  3.8868  0.6058
  163SOL    HW2  489   0.060   0.438   2.979 -0.7243 -0.2745  1.9553
  164SOL     OW  490   0.363   2.990   2.437  0.2727 -0.7835  0.3464
  164SOL    HW1  491   0.303   3.014   2.515 -0.6508 -0.2881 -0.8222
  164SOL    HW2  492   0.377   2.893   2.442  1.2333  4.3044 -0.1321
  165SOL     OW  493   2.383   0.563   1.843  0.2649  0.4550 -0.4353
  165SOL    HW1  494   2.293   0.548   1.890  0.3212  1.8763  3.3236
  165SOL    HW2  495   2.423   0.653   1.856 -1.0822 -3.9762 -0.5335
  166SOL     OW  496   1.975   2.243   1.710 -0.1519  0.5221  0.0933
  166SOL    HW1  497   2.030   2.208   1.790  0.3400  0.3940 -2.1576
  166SOL    HW2  498   1.890   2.187   1.705  0.1613  2.0478  4.4759
  167SOL     OW  499   0.768   1.105   2.422 -0.2436  0.4173  0.2909
  167SOL    HW1  500   0.746   1.205   2.401 -1.0188  0.7665 -1.0399
  167SOL    HW2  501   0.697   1.061   2.483 -0.5042 -2.0069  0.4658
  168SOL     OW  502   2.423   0.076   2.259 -0.6175 -0.1507 -0.6041
  168SOL    HW1  503   2.462   0.170   2.254  0.4420  0.0065  1.9385
  168SOL    HW2  504   2.330   0.074   2.223 -2.3601 -0.6300 -0.4919
  169SOL     OW  505   0.281   0.869   0.349  0.2339 -0.3251 -0.1281
  169SOL    HW1  506   0.309   0.769   0.350 -0.4692 -1.5068 -0.8144
  169SOL    HW2  507   0.208   0.888   0.282  0.4396  0.2319  0.3283
  170SOL     OW  508   0.235   1.273   1.727 -0.1138  0.2489 -0.0073
  170SOL    HW1  509   0.216   1.308   1.631 -3.1814  0.0192 -0.3856
  170SOL    HW2  510   0.288   1.342   1.778 -1.1735  0.8695  1.2957
  171SOL     OW  511   1.179   2.303   1.878 -0.4738  0.0113 -0.0056
  171SOL    HW1  512   1.088   2.313   1.833  0.6312 -0.6696 -0.7577
  171SOL    HW2  513   1.229   2.386   1.887 -1.0213 -0.9068 -0.6288
  172SOL     OW  514   1.319   2.697   2.162  0.1331  0.7845  0.1806
  172SOL    HW1  515   1.292   2.695   2.061  0.7626 -2.0891 -0.7033
  172SOL    HW2  516   1.400   2.756   2.178 -3.2684 -1.0026 -1.9062
  173SOL     OW  517   1.475   2.484   0.609  0.4373 -0.5064 -0.3206
  173SOL    HW1  518   1.479   2.408   0.671  0.1880 -1.3159 -0.4836
  173SOL    HW2  519   1.445   2.569   0.658 -0.7205 -0.8631  0.8554
  174SOL     OW  520   2.401   0.023   0.303 -0.1063 -0.1938 -0.0588
  174SOL    HW1  521   2.414   3.102   0.391  1.8975 -0.8767 -0.5104
  174SOL    HW2  522   2.438   0.117   0.299 -2.3524 -1.0036 -1.3668
  175SOL     OW  523   0.948   1.478   0.428  0.2060  0.4113  0.2725
  175SOL    HW1  524   0.852   1.513   0.437 -1.8143  0.1720 -4.9409
  175SOL    HW2  525   0.952   1.373   0.442 -1.5051 -1.4785  1.3228
  176SOL     OW  526   0.550   1.758   0.498  0.2228 -0.3065  0.0410
  176SOL    HW1  527   0.573   1.838   0.439 -1.3977 -1.3803 -0.4608
  176SOL    HW2  528   0.457   1.727   0.480  3.1515 -0.1457 -0.7010
  177SOL     OW  529   1.218   1.237   1.638  0.1656  0.2693  0.5049
  177SOL    HW1  530   1.161   1.276   1.712  1.6699 -1.3465 -1.0071
  177SOL    HW2  531   1.316   1.237   1.664 -0.6071  1.6782  1.8656
  178SOL     OW  532   2.468   1.644   0.424 -0.2602 -0.5164 -0.2000
  178SOL    HW1  533   2.402   1.715   0.462 -1.4612 -0.7369 -0.0596
  178SOL    HW2  534   2.425   1.551   0.435 -0.8315 -1.8051  1.1053
  179SOL     OW  535   1.247   2.515   3.100  0.0000  0.3007  0.3599
  179SOL    HW1  536   1.302   2.471   3.029 -0.5454 -0.2642  1.1833
  179SOL    HW2  537   1.216   2.444   0.043 -1.2595  1.5660 -0.4315
  180SOL     OW  538   2.046   1.417   2.053 -0.4681 -0.3519 -0.3014
  180SOL    HW1  539   2.024   1.514   2.068 -0.4353  4.5019 -0.2222
  180SOL    HW2  540   2.143   1.394   2.063  2.2186  0.8531 -0.7301
  181SOL     OW  541   0.681   0.871   2.604 -0.4237  0.3484 -0.1228
  181SOL    HW1  542   0.709   0.798   2.536  0.5368 -3.1838 -3.4207
  181SOL    HW2  543   0.759   0.907   2.662  0.5745  2.1101 -0.4009
  182SOL     OW  544   2.907   1.051   2.399  0.7613 -0.0649  0.5624
  182SOL    HW1  545   2.846   1.052   2.477 -0.2528 -0.2488 -2.4819
  182SOL    HW2  546   3.002   1.069   2.423  2.2337 -0.9510 -0.8317
  183SOL     OW  547   1.277   0.710   2.326  0.0431  0.1065  0.4847
  183SOL    HW1  548   1.194   0.650   2.345 -2.4922  1.1688  0.6394
  183SOL    HW2  549   1.281   0.742   2.231 -0.4893  1.1660 -0.5911
  184SOL     OW  550   0.538   0.471   1.633 -0.4988  0.3953 -0.5228
  184SOL    HW1  551   0.601   0.526   1.691 -0.5455 -0.9743 -1.0839
  184SOL    HW2  552   0.476   0.529   1.583 -0.9178 -2.2987 -0.7159
  185SOL     OW  553   1.970   1.802   0.783  0.3634 -0.5283 -0.0284
  185SOL    HW1  554   2.024   1.881   0.750  1.5081  0.3724  0.2851
  185SOL    HW2  555   2.012   1.756   0.864 -0.6087 -0.3542 -1.8637
  186SOL     OW  556   0.300   1.963   0.246 -0.2686 -0.6712  0.3056
  186SOL    HW1  557   0.386   1.912   0.220 -1.1988  1.4012  0.4122
  186SOL    HW2  558   0.233   1.904   0.294  0.0576 -0.2431 -0.7248
  187SOL     OW  559   2.140   1.922   0.133 -0.4793 -0.2256 -0.3751
  187SOL    HW1  560   2.221   1.920   0.190 -2.3332  0.2746 -0.0915
  187SOL    HW2  561   2.128   2.013   0.087 -2.8986 -1.2241 -1.5077
  188SOL     OW  562   0.930   2.189   0.916 -0.6961 -0.1705 -0.0957
  188SOL    HW1  563   1.010   2.157   0.969  1.1656 -1.7672  0.3257
  188SOL    HW2  564   0.891   2.277   0.953 -0.6764  1.7426  0.2800
  189SOL     OW  565   2.209   1.202   2.870 -0.5775 -0.0231  0.5797
  189SOL    HW1  566   2.212   1.208   2.972  2.1136  4.1778 -1.1696
  189SOL    HW2  567   2.289   1.248   2.826 -2.9422 -1.7304  0.2776
  190SOL     OW  568   1.058   2.326   2.350  0.2578  0.5110  0.4298
  190SOL    HW1  569   0.993   2.254   2.376  1.3019  0.3694 -2.3760
  190SOL    HW2  570   1.049   2.346   2.254 -0.3245 -2.9907 -0.0472
  191SOL     OW  571   2.579   0.897   1.372 -0.1353 -0.4555 -0.4107
  191SOL    HW1  572   2.521   0.819   1.354  0.0188  1.7507  2.0631
  191SOL    HW2  573   2.676   0.870   1.352 -0.5559  1.7035  1.9241
  192SOL     OW  574   2.608   0.474   1.696 -0.1474 -0.0001  0.0631
  192SOL    HW1  575   2.512   0.483   1.737 -1.6444  2.3169  1.6355
  192SOL    HW2  576   2.673   0.546   1.736  0.9248  2.0077  2.8292
  193SOL     OW  577   0.716   0.021   0.707  0.3281  0.0842 -0.5868
  193SOL    HW1  578   0.769   0.082   0.648 -2.1100 -0.2979  1.0614
  193SOL    HW2  579   0.702   3.050   0.663 -1.3631 -0.0061 -2.6881
  194SOL     OW  580   1.366   2.524   1.849  0.0360 -0.8979  0.6216
  194SOL    HW1  581   1.380   2.501   1.748 -0.0838 -1.3975 -1.0054
  194SOL    HW2  582   1.322   2.616   1.859 -2.1011 -1.3414  1.0022
  195SOL     OW  583   2.437   1.067   0.726 -0.4674 -0.0727  0.0175
  195SOL    HW1  584   2.466   1.152   0.765  2.1446 -4.4815 -0.4121
  195SOL    HW2  585   2.336   1.070   0.701  0.7214  0.0519  0.0603
  196SOL     OW  586   0.938   2.303   1.744 -0.2417  0.1766  0.1750
  196SOL    HW1  587   0.948   2.374   1.672 -0.4196 -0.5640 -2.2677
  196SOL    HW2  588   0.839   2.288   1.760 -0.6824 -0.7231 -3.1393
  197SOL     OW  589   0.215   0.754   2.563  0.3243  0.3139 -0.3150
  197SOL    HW1  590   0.217   0.819   2.485 -0.1279 -0.2582 -2.3469
  197SOL    HW2  591   0.207   0.659   2.521 -1.1478  1.3350 -3.0266
  198SOL     OW  592   1.353   0.882   0.151  0.2137 -0.2170  0.2792
  198SOL    HW1  593   1.336   0.815   0.228 -1.0324  1.2876  1.8974
  198SOL    HW2  594   1.293   0.968   0.151 -0.9125  1.3967 -1.4383
  199SOL     OW  595   2.741   0.623   1.888  0.1744 -0.4652 -0.2514
  199SOL    HW1  596   2.724   0.626   1.988  1.6738  0.4147 -3.3948
  199SOL    HW2  597   2.721   0.716   1.848  0.8810 -1.2720  1.2497
  200SOL     OW  598   2.505   2.494   2.367  0.0938  0.2010 -0.1739
  200SOL    HW1  599   2.485   2.595   2.359 -0.8049  0.0468  1.7444
  200SOL    HW2  600   2.428   2.450   2.423 -2.2838  1.8307  2.1490
  201SOL     OW  601   2.563   0.107   1.344 -0.2440 -0.4771  0.1944
  201SOL    HW1  602   2.507   0.026   1.373 -2.4297  2.4713  0.1713
  201SOL    HW2  603   2.503   0.165   1.288 -0.4872  0.7622 -0.4860
  202SOL     OW  604   0.212   2.758   0.276  0.0842  0.1528  0.2555
  202SOL    HW1  605   0.166   2.832   0.325  0.3146 -0.9376  0.9031
  202SOL    HW2  606   0.305   2.790   0.254  0.1922  0.2471  1.6490
  203SOL     OW  607   1.122   2.224   2.726 -0.0551  0.3872 -0.2205
  203SOL    HW1  608   1.028   2.197   2.757 -2.2340 -1.1544  1.7333
  203SOL    HW2  609   1.181   2.143   2.703  2.4332 -2.5374  1.7910
  204SOL     OW  610   0.490   2.019   2.576 -0.1343  0.2990 -0.7044
  204SOL    HW1  611   0.511   2.110   2.539 -0.2049 -0.3744  0.8888
  204SOL    HW2  612   0.572   1.963   2.591 -0.6015 -2.3421  1.7257
  205SOL     OW  613   0.926   1.053   1.310 -0.6720  0.2436 -0.2017
  205SOL    HW1  614   0.949   0.970   1.255  0.1912  0.3233  1.4488
  205SOL    HW2  615   1.002   1.068   1.374  0.3235 -2.6692 -1.7999
  206SOL     OW  616   0.051   0.716   2.779 -0.4934  0.0109  0.5914
  206SOL    HW1  617   3.077   0.708   2.740 -1.8949 -0.1340 -1.1084
  206SOL    HW2  618   0.113   0.733   2.696  2.0182  2.6879 -0.6847
  207SOL     OW  619   1.847   2.397   2.018  0.3173 -0.5283  0.8432
  207SOL    HW1  620   1.906   2.449   1.955 -0.0214 -1.5964  0.5062
  207SOL    HW2  621   1.741   2.412   2.006  1.4442 -0.7834  0.8531
  208SOL     OW  622   0.672   2.798   1.361 -0.3559 -0.3408  0.8000
  208SOL    HW1  623   0.611   2.717   1.344  0.2778  0.9655  1.8382
  208SOL    HW2  624   0.621   2.865   1.417  0.6994  0.9066 -0.6896
  209SOL     OW  625   1.317   1.407   0.146 -0.6163 -0.1653 -0.3132
  209SOL    HW1  626   1.263   1.466   0.204  0.3396  0.9641  1.2061
  209SOL    HW2  627   1.404   1.462   0.112  2.1653  3.1837 -2.0118
  210SOL     OW  628   2.425   0.594   0.824 -0.1751 -0.2165 -0.3850
  210SOL    HW1  629   2.454   0.575   0.726 -0.3897  0.0197  1.2516
  210SOL    HW2  630   2.349   0.532   0.847  0.4927  0.0764  1.1990
  211SOL     OW  631   1.473   2.768   0.276 -0.0700 -0.2263  0.1027
  211SOL    HW1  632   1.373   2.798   0.262 -3.4473  1.0378 -0.4716
  211SOL    HW2  633   1.536   2.849   0.286  0.6349  0.6181  0.8171
  212SOL     OW  634   2.043   2.243   0.714  0.1839  0.0807 -0.5129
  212SOL    HW1  635   2.124   2.308   0.731  0.5034  0.7936 -0.4086
  212SOL    HW2  636   2.010   2.199   0.805 -1.4947 -1.7849 -0.9885
  213SOL     OW  637   1.751   0.448   2.789  0.4947  0.7329 -0.0478
  213SOL    HW1  638   1.712   0.353   2.805  1.2182 -1.6923  0.2874
  213SOL    HW2  639   1.779   0.469   2.696  1.2537 -1.5757 -1.6200
  214SOL     OW  640   0.754   1.566   1.917 -0.1804  0.4384  0.6925
  214SOL    HW1  641   0.828   1.638   1.918 -1.4379  1.9922  1.3112
  214SOL    HW2  642   0.756   1.516   1.827  1.3587  0.8675  0.3646
  215SOL     OW  643   0.084   1.414   0.432  0.7217  0.0809 -0.9051
  215SOL    HW1  644   0.178   1.413   0.393  0.8105  1.1763 -0.6704
  215SOL    HW2  645   0.066   1.346   0.509 -0.7514  0.3686  1.2447
  216SOL     OW  646   0.394   2.711   2.449  0.1590 -0.0506  0.1670
  216SOL    HW1  647   0.477   2.683   2.505  1.6158 -0.4573  0.8961
  216SOL    HW2  648   0.307   2.680   2.491  0.5784 -0.3379 -1.6436
  217SOL     OW  649   2.813   0.872   1.258 -0.1890 -0.6177  0.3427
  217SOL    HW1  650   2.787   0.851   1.164  0.8631  0.2614  0.7303
  217SOL    HW2  651   2.875   0.953   1.259  0.3616  1.5953  1.0331
  218SOL     OW  652   1.086   2.038   1.959  0.0258 -0.6470 -0.0868
  218SOL    HW1  653   1.106   2.134   1.942  0.7771 -2.0646 -1.5374
  218SOL    HW2  654   1.136   1.991   2.036  2.3828 -1.5561 -2.5668
  219SOL     OW  655   2.119   1.359   0.266  0.6032  0.0716  0.1438
  219SOL    HW1  656   2.139   1.296   0.195 -0.1700 -0.1661  1.7046
  219SOL    HW2  657   2.073   1.312   0.344 -0.2851 -0.8845 -0.8328
  220SOL     OW  658   2.079   0.954   0.372 -0.8935 -0.3802 -0.1359
  220SOL    HW1  659   2.176   0.966   0.332  2.6325  1.2791  1.8454
  220SOL    HW2  660   2.060   0.853   0.392 -1.0419 -1.2991  0.5427
  221SOL     OW  661   0.038   0.165   0.314  0.4028 -0.6635 -0.5656
  221SOL    HW1  662   0.132   0.141   0.290 -0.7192  0.7712  0.0885
  221SOL    HW2  663   0.005   0.226   0.234  1.3276  0.4521 -0.0447
  222SOL     OW  664   1.318   1.312   0.560  0.3374  0.4676  0.2368
  222SOL    HW1  665   1.357   1.380   0.624  0.8918 -1.6529  0.0206
  222SOL    HW2  666   1.262   1.247   0.612  0.5499  1.5014 -0.7672
  223SOL     OW  667   0.923   0.258   3.095  0.3890  0.4643 -0.0921
  223SOL    HW1  668   0.925   0.155   3.106 -2.1162 -1.0463 -2.5829
  223SOL    HW2  669   0.951   0.272   2.995  1.4692  1.2301 -0.2322
  224SOL     OW  670   1.636   0.268   1.418  0.5238 -0.0520 -0.0845
  224SOL    HW1  671   1.602   0.276   1.516 -1.0857 -3.4051 -2.0183
  224SOL    HW2  672   1.560   0.248   1.354 -0.2940 -1.4321 -1.8005
  225SOL     OW  673   0.214   2.470   1.342  0.0220 -0.7321  0.1108
  225SOL    HW1  674   0.216   2.408   1.259 -0.8596 -2.4636 -2.1667
  225SOL    HW2  675   0.144   2.434   1.407  0.6425 -0.9416  0.6883
  226SOL     OW  676   0.842   1.540   0.144 -0.3594 -0.1949 -0.0035
  226SOL    HW1  677   0.902   1.466   0.169 -1.8390  1.6700 -1.0404
  226SOL    HW2  678   0.901   1.627   0.143  1.7656 -1.3172  0.2416
  227SOL     OW  679   0.789   1.610   1.001 -0.0176  0.6121  0.0472
  227SOL    HW1  680   0.721   1.681   1.013 -0.0005  0.0388 -0.0555
  227SOL    HW2  681   0.756   1.531   1.053  2.6698  0.5511 -1.2196
  228SOL     OW  682   0.301   1.667   0.470 -0.4569  0.0311 -0.0872
  228SOL    HW1  683   0.219   1.685   0.406  0.7980 -0.0898 -0.5238
  228SOL    HW2  684   0.332   1.572   0.448  0.5835 -2.3815 -0.8913
  229SOL     OW  685   2.448   0.175   2.732  0.0145 -0.5031  0.1827
  229SOL    HW1  686   2.361   0.192   2.680 -0.0998  1.1932 -3.4178
  229SOL    HW2  687   2.437   0.114   2.813  1.3701  1.7978 -1.1938
  230SOL     OW  688   1.787   1.123   0.607 -0.2143  0.1662 -0.3616
  230SOL    HW1  689   1.757   1.213   0.649 -0.9676 -0.4910 -0.2108
  230SOL    HW2  690   1.716   1.087   0.548  1.0808 -1.4876  2.3261
  231SOL     OW  691   1.324   1.526   2.476  0.4688 -1.1027  0.3361
  231SOL    HW1  692   1.396   1.584   2.513 -1.5834 -0.6493  2.5893
  231SOL    HW2  693   1.357   1.429   2.462  0.7838  0.3201 -2.2307
  232SOL     OW  694   2.468   2.256   0.750 -0.2345 -0.1725 -0.1050
  232SOL    HW1  695   2.528   2.196   0.701  0.0552  2.8933 -0.8012
  232SOL    HW2  696   2.497   2.278   0.844 -0.0765  0.3891 -1.2875
  233SOL     OW  697   0.748   2.458   0.784 -0.0830 -0.5723  0.7135
  233SOL    HW1  698   0.821   2.469   0.714 -0.6257  0.7784 -1.6988
  233SOL    HW2  699   0.710   2.548   0.800  0.1170 -0.9161  0.5317
  234SOL     OW  700   0.449   0.556   2.826  0.5898 -1.0141  0.2429
  234SOL    HW1  701   0.440   0.651   2.791 -2.1854  3.0546  3.2693
  234SOL    HW2  702   0.436   0.556   2.924  2.0478 -0.9869 -2.8622
  235SOL     OW  703   2.701   0.724   2.171  0.6204 -0.2077  0.0217
  235SOL    HW1  704   2.716   0.680   2.260 -0.0684 -2.1011 -1.6507
  235SOL    HW2  705   2.779   0.784   2.156 -1.5432 -3.6656  1.8072
  236SOL     OW  706   1.587   2.876   1.482 -0.1101 -0.2059 -0.2566
  236SOL    HW1  707   1.644   2.818   1.423  1.3274  4.1617  1.0362
  236SOL    HW2  708   1.567   2.820   1.565  0.5418  0.2237  2.9682
  237SOL     OW  709   0.868   1.691   2.212  0.3963 -0.8658 -0.1641
  237SOL    HW1  710   0.787   1.730   2.264 -0.5136 -1.2566  0.1583
  237SOL    HW2  711   0.924   1.625   2.265 -2.2387 -0.7156 -1.7665
  238SOL     OW  712   0.934   0.279   2.268  0.3204 -0.0496 -0.2340
  238SOL    HW1  713   0.996   0.239   2.343  0.1893 -3.0174  0.5943
  238SOL    HW2  714   0.867   0.209   2.227 -2.2320 -0.8352 -1.1473
  239SOL     OW  715   0.409   2.314   2.158 -0.5033 -0.1209 -0.5354
  239SOL    HW1  716   0.498   2.363   2.173 -0.2600  0.7365 -0.3039
  239SOL    HW2  717   0.349   2.357   2.088  0.7203 -1.1109  1.9913
  240SOL     OW  718   2.594   2.745   0.471 -0.3339  0.6114 -0.0390
  240SOL    HW1  719   2.544   2.692   0.401  1.2581 -1.8352 -0.9955
  240SOL    HW2  720   2.606   2.686   0.551 -1.3129  0.2643  1.0575
  241SOL     OW  721   2.528   1.308   0.808 -0.2272  0.0801  0.3900
  241SOL    HW1  722   2.472   1.383   0.765 -2.2587  2.3570 -1.7857
  241SOL    HW2  723   2.563   1.324   0.903  3.2379 -0.2969  0.2313
  242SOL     OW  724   2.042   2.557   1.913 -0.0329 -0.7724 -0.6917
  242SOL    HW1  725   2.116   2.528   1.976 -1.3176 -1.4813  0.5980
  242SOL    HW2  726   2.010   2.646   1.944  0.3831  1.6871 -0.2514
  243SOL     OW  727   0.841   2.701   1.706 -0.0226  0.5181 -0.3817
  243SOL    HW1  728   0.797   2.659   1.790  0.7084 -0.3884 -1.7732
  243SOL    HW2  729   0.850   2.631   1.632 -0.1392 -0.0038 -0.7321
  244SOL     OW  730   2.005   0.507   2.868 -0.5368 -0.4619  0.4648
  244SOL    HW1  731   1.919   0.492   2.818  0.9105  2.1326  1.1567
  244SOL    HW2  732   2.087   0.490   2.810 -3.3612 -1.6797  0.1762
  245SOL     OW  733   1.504   0.545   1.223  0.5943 -0.3256  0.6970
  245SOL    HW1  734   1.540   0.587   1.138 -0.9961 -0.5935 -0.7922
  245SOL    HW2  735   1.437   0.467   1.208 -3.5697  0.3896  0.6680
  246SOL     OW  736   1.969   2.542   3.121  0.2124  0.4134  0.0691
  246SOL    HW1  737   2.017   2.628   0.000 -0.9575 -3.0740 -0.7767
  246SOL    HW2  738   1.872   2.563   3.105  3.1268 -0.4115  1.7787
  247SOL     OW  739   1.108   0.925   2.409  0.2415 -0.3411 -0.4489
  247SOL    HW1  740   1.183   0.874   2.361 -0.3980 -0.5559  1.1227
  247SOL    HW2  741   1.138   0.971   2.495 -1.5208  0.0793  4.8634
  248SOL     OW  742   0.405   2.157   1.662  0.2892 -0.0051  0.3064
  248SOL    HW1  743   0.439   2.142   1.758  4.1007 -2.3057 -0.3818
  248SOL    HW2  744   0.469   2.208   1.602  0.1301  1.6409 -0.3137
  249SOL     OW  745   2.709   0.448   0.354  0.3570 -0.1245  0.6171
  249SOL    HW1  746   2.758   0.507   0.286  0.4823  0.1457  0.3252
  249SOL    HW2  747   2.645   0.385   0.315  2.9371  1.6998  0.2602
  250SOL     OW  748   2.857   0.221   2.856  0.2144 -0.3865 -0.4443
  250SOL    HW1  749   2.857   0.313   2.908 -0.8028  6.5602  3.1585
  250SOL    HW2  750   2.886   0.149   2.926 -0.4512 -1.3515  0.6185
  251SOL     OW  751   1.361   0.717   3.027  0.6676 -0.4704 -0.2936
  251SOL    HW1  752   1.384   0.785   3.098 -1.1049 -0.3831  1.0003
  251SOL    HW2  753   1.443   0.657   3.006  2.4353 -1.3311  0.0182
  252SOL     OW  754   1.385   2.152   1.947 -0.3858  0.1361 -0.0636
  252SOL    HW1  755   1.300   2.183   1.905  0.8681  0.9330  0.9975
  252SOL    HW2  756   1.403   2.205   2.031  0.8251 -1.3193 -0.7183
  253SOL     OW  757   2.274   2.497   1.027  0.1161  0.4252 -0.7171
  253SOL    HW1  758   2.334   2.580   1.024 -2.6209  2.4451  0.3706
  253SOL    HW2  759   2.287   2.435   1.110 -0.9440  1.4875 -0.1594
  254SOL     OW  760   2.078   1.329   0.701 -0.2596 -0.2912  0.0402
  254SOL    HW1  761   2.096   1.255   0.637  1.9285  1.4349  1.8822
  254SOL    HW2  762   2.061   1.293   0.797 -1.1710  1.2127  1.2985
  255SOL     OW  763   1.522   3.080   1.160 -0.2376  0.4191 -0.4574
  255SOL    HW1  764   1.452   3.033   1.107  1.3665  0.7355  0.0844
  255SOL    HW2  765   1.508   3.082   1.262  2.4627  1.6651  1.9584
  256SOL     OW  766   1.724   2.471   1.639  0.5606 -0.2503 -0.2277
  256SOL    HW1  767   1.695   2.404   1.715 -0.0934 -3.1419  0.6717
  256SOL    HW2  768   1.713   2.430   1.548 -0.0930 -3.9102 -1.1250
  257SOL     OW  769   0.655   2.787   2.608  0.5655  0.2828 -0.9262
  257SOL    HW1  770   0.718   2.808   2.530 -1.9409  0.4262  0.0158
  257SOL    HW2  771   0.593   2.867   2.629  0.1070  1.2573  2.1460
  258SOL     OW  772   1.127   2.570   0.492 -0.1155 -0.7491  0.0761
  258SOL    HW1  773   1.082   2.621   0.418 -2.5565  0.4815  2.4516
  258SOL    HW2  774   1.197   2.506   0.452 -1.2748  2.7010  1.6902
  259SOL     OW  775   1.516   0.232   2.709 -0.5394 -0.2837  0.2923
  259SOL    HW1  776   1.565   0.213   2.797  0.8477 -0.8985  1.7783
  259SOL    HW2  777   1.470   0.325   2.703 -0.6238 -0.4039 -0.5018
  260SOL     OW  778   2.580   0.384   1.429 -0.5697  0.4718 -0.7874
  260SOL    HW1  779   2.570   0.284   1.406 -0.2175  2.0800  0.5128
  260SOL    HW2  780   2.582   0.398   1.527  1.3431  0.3789 -4.4670
  261SOL     OW  781   0.729   0.534   2.727 -0.2722 -0.1626  0.0208
  261SOL    HW1  782   0.647   0.547   2.778  2.0213 -0.6336 -0.5098
  261SOL    HW2  783   0.707   0.520   2.627 -0.6729  0.0157 -0.8736
  262SOL     OW  784   1.284   2.485   2.346 -0.1940  0.4166 -0.1641
  262SOL    HW1  785   1.205   2.430   2.372  0.5586 -0.2191  0.0009
  262SOL    HW2  786   1.263   2.555   2.276  0.1154 -1.1684  0.7468
  263SOL     OW  787   0.359   2.007   2.861  0.0932 -0.3003  0.5746
  263SOL    HW1  788   0.404   2.095   2.835 -0.6904 -1.8538 -0.4981
  263SOL    HW2  789   0.258   2.018   2.853 -2.1458 -3.6666  0.8418
  264SOL     OW  790   1.053   1.657   0.898  0.1826  0.2005 -0.3370
  264SOL    HW1  791   0.964   1.628   0.944  0.0442  1.7654 -1.3701
  264SOL    HW2  792   1.049   1.648   0.796  1.0925  2.0398  0.3193
  265SOL     OW  793   1.315   2.375   0.406  0.0718  0.7358  0.1829
  265SOL    HW1  794   1.355   2.317   0.327  0.0328 -0.0855  3.7369
  265SOL    HW2  795   1.383   2.427   0.463 -0.8014  0.4860  0.0330
  266SOL     OW  796   1.986   0.831   1.053  0.3388 -0.0207 -1.0237
  266SOL    HW1  797   1.978   0.756   1.125 -2.6589 -0.4465  0.7944
  266SOL    HW2  798   2.053   0.804   0.986  0.9354  0.3830  1.1101
  267SOL     OW  799   2.857   1.336   2.782  0.1346 -0.0673 -0.1600
  267SOL    HW1  800   2.902   1.379   2.694  1.7175 -0.5971 -2.3723
  267SOL    HW2  801   2.902   1.251   2.804 -0.4819  2.9270 -0.8802
  268SOL     OW  802   1.563   0.008   0.201 -0.0865  0.3342 -0.4261
  268SOL    HW1  803   1.609   3.046   0.239  0.2013 -4.4143  1.6307
  268SOL    HW2  804   1.501   0.043   0.275 -4.0494 -0.2530 -0.1157
  269SOL     OW  805   2.669   0.677   2.708 -0.1845 -0.8354  0.0753
  269SOL    HW1  806   2.665   0.577   2.682 -2.1647  0.0790 -1.0017
  269SOL    HW2  807   2.765   0.711   2.724 -2.8114  2.0443  1.3188
  270SOL     OW  808   3.011   1.455   0.067  0.5285  0.0650  0.7656
  270SOL    HW1  809   3.019   1.391   0.149  1.7677  0.0344 -1.9967
  270SOL    HW2  810   3.073   1.430   3.114 -1.6080  1.6380  1.6923
  271SOL     OW  811   2.690   1.054   2.605 -0.2803  0.1293 -0.0971
  271SOL    HW1  812   2.626   1.130   2.648  0.1276  1.6969  2.7641
  271SOL    HW2  813   2.644   0.968   2.576  1.0770 -1.9183 -0.1469
  272SOL     OW  814   2.944   2.470   2.338 -0.1164 -0.0327 -0.1209
  272SOL    HW1  815   3.027   2.428   2.380 -2.3263 -1.5427  0.3095
  272SOL    HW2  816   2.934   2.424   2.250  1.6917  1.0123  0.4799
  273SOL     OW  817   0.324   2.728   0.730 -0.2219  0.2173 -0.3490
  273SOL    HW1  818   0.390   2.802   0.749  2.3379 -0.2981  2.5705
  273SOL    HW2  819   0.374   2.654   0.683  0.7413 -1.0976 -2.9977
  274SOL     OW  820   0.868   2.166   0.660 -0.4890  0.5391 -0.2782
  274SOL    HW1  821   0.930   2.101   0.618  0.1938  0.7581  0.1363
  274SOL    HW2  822   0.889   2.186   0.758 -2.3872  2.6616  1.5324
  275SOL     OW  823   2.351   1.385   0.389 -0.2390 -0.0457  0.6381
  275SOL    HW1  824   2.271   1.390   0.326  0.4326  2.2758 -2.3485
  275SOL    HW2  825   2.424   1.322   0.348 -0.5565  0.9148 -0.1997
  276SOL     OW  826   2.772   1.596   1.187 -0.2947 -0.5624  0.1488
  276SOL    HW1  827   2.779   1.574   1.285  0.6202  0.6371  3.7757
  276SOL    HW2  828   2.784   1.700   1.176  2.0751  2.0606 -0.2450
  277SOL     OW  829   2.672   3.062   0.787  0.0813 -0.1424 -0.0039
  277SOL    HW1  830   2.616   3.042   0.869 -1.9796  0.3594 -2.0718
  277SOL    HW2  831   2.765   3.027   0.794 -0.0847 -1.9825 -1.5151
  278SOL     OW  832   1.433   0.333   2.439 -0.1963  0.1087  0.3533
  278SOL    HW1  833   1.336   0.323   2.462 -2.4188 -1.9472 -1.8717
  278SOL    HW2  834   1.501   0.273   2.486 -3.6431  1.9765  2.7400
  279SOL     OW  835   1.407   2.661   1.266  0.5268 -0.1804 -0.2538
  279SOL    HW1  836   1.488   2.724   1.250  0.2357  0.6378  0.9783
  279SOL    HW2  837   1.378   2.608   1.184 -1.6270  0.0835  0.2219
  280SOL     OW  838   1.003   1.028   0.696 -0.1198 -0.2003 -0.4049
  280SOL    HW1  839   0.999   0.977   0.787 -0.7961  1.0972  1.5505
  280SOL    HW2  840   1.067   1.110   0.710  2.1205  2.6092 -0.3311
  281SOL     OW  841   2.573   1.340   2.693  0.2969 -0.2673  0.0943
  281SOL    HW1  842   2.668   1.347   2.722 -1.5644  0.5719 -0.4807
  281SOL    HW2  843   2.565   1.375   2.599  0.7107 -0.8337 -0.3189
  282SOL     OW  844   3.029   1.279   0.260 -1.0151  1.0227  0.1877
  282SOL    HW1  845   2.929   1.281   0.295  2.8402  1.3326 -1.4075
  282SOL    HW2  846   3.094   1.318   0.335 -0.4670 -0.0113 -0.9282
  283SOL     OW  847   1.907   2.813   2.523  0.3043 -0.2665 -0.3585
  283SOL    HW1  848   1.865   2.789   2.431 -2.3995 -2.1985 -1.0881
  283SOL    HW2  849   1.888   2.734   2.587  1.5076 -1.0515  0.5703
  284SOL     OW  850   0.845   3.093   3.109  0.0208  0.1085  0.0516
  284SOL    HW1  851   0.755   3.112   0.031  2.4597  1.3933  0.9674
  284SOL    HW2  852   0.838   3.028   3.028 -2.1459 -1.1807 -1.0922
  285SOL     OW  853   2.303   1.520   2.621  0.1700  0.1633  0.5519
  285SOL    HW1  854   2.405   1.537   2.629  0.0516  0.1472 -1.8012
  285SOL    HW2  855   2.250   1.597   2.662  0.5830 -0.8592 -0.5359
  286SOL     OW  856   1.211   2.088   0.716 -0.5350 -0.4412 -0.8312
  286SOL    HW1  857   1.219   2.003   0.773  1.2363 -1.2029  0.9007
  286SOL    HW2  858   1.284   2.149   0.748  0.5243  1.8425  0.3008
  287SOL     OW  859   1.786   0.277   1.000  0.2361 -0.0780 -0.2216
  287SOL    HW1  860   1.863   0.305   1.063 -2.5841 -0.0131 -0.0725
  287SOL    HW2  861   1.816   0.223   0.917  1.6497 -1.0942 -0.6945
  288SOL     OW  862   0.818   2.860   2.407 -0.3154 -0.2119  0.2554
  288SOL    HW1  863   0.895   2.791   2.405 -1.6990 -0.1544  0.2077
  288SOL    HW2  864   0.769   2.863   2.319  1.7766 -0.6544  3.5944
  289SOL     OW  865   3.103   1.238   0.616  0.3810  0.1196  0.2968
  289SOL    HW1  866   3.027   1.242   0.686 -4.2003  2.0999 -1.8222
  289SOL    HW2  867   0.013   1.141   0.601  0.7269  1.7613  0.4681
  290SOL     OW  868   1.309   2.258   1.110 -0.4430 -0.4479 -0.4094
  290SOL    HW1  869   1.363   2.203   1.040  0.5034  1.6086 -1.2813
  290SOL    HW2  870   1.299   2.209   1.197  0.2058  2.7685  1.6206
  291SOL     OW  871   1.824   2.901   0.590 -0.4960  0.2978 -0.1915
  291SOL    HW1  872   1.852   2.940   0.679  1.3100 -1.4646 -0.6814
  291SOL    HW2  873   1.828   2.798   0.587 -0.1119 -0.3793 -2.2080
  292SOL     OW  874   0.431   0.163   2.141  0.2077 -0.7679 -0.1084
  292SOL    HW1  875   0.376   0.180   2.226 -1.6164 -0.2898  1.0117
  292SOL    HW2  876   0.453   0.248   2.093 -2.4390 -2.1750 -2.3749
  293SOL     OW  877   2.318   1.924   0.860  0.3362 -0.0785 -0.2666
  293SOL    HW1  878   2.354   1.831   0.863 -0.8205 -0.4467  1.0388
  293SOL    HW2  879   2.336   1.978   0.945  1.0840  3.8483 -0.2082
  294SOL     OW  880   0.792   0.072   2.132 -0.5867  0.1140 -0.3066
  294SOL    HW1  881   0.713   0.033   2.186 -0.7470  1.2148  0.5029
  294SOL    HW2  882   0.863   0.002   2.108  0.7385  1.1858 -1.6190
  295SOL     OW  883   1.377   1.328   1.224  0.0765  0.4119  0.6041
  295SOL    HW1  884   1.444   1.290   1.157 -0.5573  1.9199  1.1391
  295SOL    HW2  885   1.286   1.287   1.212  1.4373 -0.9031  1.7382
  296SOL     OW  886   2.131   1.990   0.672  0.0176  0.0212 -0.1358
  296SOL    HW1  887   2.204   1.978   0.741  2.0511 -1.1276 -0.8486
  296SOL    HW2  888   2.114   2.085   0.651  0.7485 -2.2976  2.1821
  297SOL     OW  889   2.416   3.120   2.949  0.1171 -0.3090 -0.2356
  297SOL    HW1  890   2.391   3.043   2.890  0.2982  2.8513  0.5412
  297SOL    HW2  891   2.432   3.081   3.045  1.0273  0.3674 -0.4180
  298SOL     OW  892   1.136   0.224   2.463 -0.0144  0.5634 -0.2301
  298SOL    HW1  893   1.078   0.203   2.545 -1.3943  1.5221 -0.0527
  298SOL    HW2  894   1.182   0.140   2.429  0.4637  4.1698 -1.1327
  299SOL     OW  895   1.361   3.060   1.857 -0.2829 -0.5173  0.2302
  299SOL    HW1  896   1.299   3.059   1.770 -2.7951 -0.0880 -1.3635
  299SOL    HW2  897   1.308   3.036   1.936  1.4909  1.3551 -3.3651
  300SOL     OW  898   2.678   0.050   1.875 -0.2003 -0.2289 -0.4416
  300SOL    HW1  899   2.634   0.112   1.946 -0.3490  2.5234  2.3592
  300SOL    HW2  900   2.704   0.106   1.795  0.8690  1.0349 -0.7392
  301SOL     OW  901   2.074   0.540   1.980  0.4180 -0.4172 -0.5578
  301SOL    HW1  902   2.148   0.529   2.049 -1.7307  0.2577  1.3026
  301SOL    HW2  903   2.072   0.470   1.908 -0.5293  1.9206 -1.1877
  302SOL     OW  904   0.407   2.507   0.036 -0.3307 -0.2013  0.3946
  302SOL    HW1  905   0.382   2.413   3.120 -0.3455  1.2997 -1.7365
  302SOL    HW2  906   0.321   2.561   0.042 -0.9265  0.6624 -1.1714
  303SOL     OW  907   1.734   2.078   1.441  0.4923  0.0138  0.0916
  303SOL    HW1  908   1.639   2.037   1.419 -0.9868 -2.1667  0.3986
  303SOL    HW2  909   1.756   2.086   1.542  0.1073 -0.8880 -1.3191
  304SOL     OW  910   3.040   0.737   1.159 -0.1931  0.0190  0.2393
  304SOL    HW1  911   2.950   0.769   1.193 -1.3542 -4.0773  0.7606
  304SOL    HW2  912   3.072   0.794   1.079 -0.0680  1.3459  1.2717
  305SOL     OW  913   0.718   0.850   0.897 -0.2775  0.5550 -0.2300
  305SOL    HW1  914   0.663   0.919   0.943  0.2437 -1.8412 -1.6982
  305SOL    HW2  915   0.817   0.871   0.890 -3.3604  0.0729  0.1177
  306SOL     OW  916   0.242   1.064   3.026  0.3785  0.4918  0.5009
  306SOL    HW1  917   0.329   1.074   2.967  0.6378  0.4028  0.4427
  306SOL    HW2  918   0.218   0.968   3.034  0.8539  0.3920  1.2233
  307SOL     OW  919   1.268   0.398   1.493  0.7586 -0.1393  0.4266
  307SOL    HW1  920   1.313   0.470   1.550 -0.0456 -0.0787  0.1387
  307SOL    HW2  921   1.232   0.321   1.548  0.4629  0.8397 -2.7241
  308SOL     OW  922   0.550   0.992   1.053  0.4526  0.0728 -0.1587
  308SOL    HW1  923   0.501   0.911   1.024  1.2679 -1.3479  1.0773
  308SOL    HW2  924   0.587   0.978   1.150  1.5377 -0.2791  2.4400
  309SOL     OW  925   2.485   0.848   0.885  0.4091 -0.3802  0.2649
  309SOL    HW1  926   2.435   0.758   0.856 -2.4981 -1.5225 -0.0175
  309SOL    HW2  927   2.452   0.924   0.829  1.1531  0.3357 -0.2447
  310SOL     OW  928   0.715   1.496   3.042 -0.1940 -0.2968  0.0765
  310SOL    HW1  929   0.764   1.490   0.008 -0.1926  0.2777  0.3925
  310SOL    HW2  930   0.614   1.485   3.053  1.8933  0.1581 -0.2201
  311SOL     OW  931   2.494   2.789   2.360 -0.6789 -0.0350  0.0198
  311SOL    HW1  932   2.543   2.815   2.278 -1.6232 -0.2087  2.7695
  311SOL    HW2  933   2.556   2.780   2.441  1.1875 -1.1668 -1.4782
  312SOL     OW  934   2.055   2.178   0.004 -0.6383 -0.3083 -0.0055
  312SOL    HW1  935   2.113   2.198   3.046  0.6502  2.2863  0.6947
  312SOL    HW2  936   2.062   2.260   0.071  0.2395  1.6722  1.1354
  313SOL     OW  937   0.617   0.041   0.108 -0.1288 -0.0446  0.4195
  313SOL    HW1  938   0.580   0.084   0.194 -0.2767 -0.8577 -1.7989
  313SOL    HW2  939   0.546   0.058   0.038  0.6514  0.4598  0.1525
  314SOL     OW  940   2.473   1.174   2.880 -0.6255 -0.2168  0.0928
  314SOL    HW1  941   2.471   1.232   2.961 -0.6328 -1.5576 -3.8772
  314SOL    HW2  942   2.508   1.231   2.805 -1.1400  0.5292 -0.3926
  315SOL     OW  943   1.634   0.485   2.368  0.0097 -0.5088 -0.0405
  315SOL    HW1  944   1.538   0.453   2.388 -0.4824  1.8078  0.6356
  315SOL    HW2  945   1.629   0.569   2.313  1.3190 -2.0370 -0.4187
  316SOL     OW  946   2.999   0.909   0.597  0.2227 -0.0801 -0.1170
  316SOL    HW1  947   2.926   0.878   0.659  2.1312  1.2692 -0.4162
  316SOL    HW2  948   2.987   0.875   0.502  3.1756  0.4813  2.2253
  317SOL     OW  949   0.742   2.714   0.187  0.4418 -0.3093 -0.2454
  317SOL    HW1  950   0.721   2.658   0.104 -0.7030 -1.6144 -0.3552
  317SOL    HW2  951   0.659   2.776   0.205 -0.8494 -1.2927  0.1770
  318SOL     OW  952   2.457   2.709   1.075  0.3417 -0.0383  0.4226
  318SOL    HW1  953   2.426   2.714   1.173 -0.1154  0.6796 -2.1035
  318SOL    HW2  954   2.554   2.713   1.062 -2.4420  0.6654 -0.2361
  319SOL     OW  955   1.203   1.417   2.698  0.0699 -0.0462 -0.0728
  319SOL    HW1  956   1.103   1.427   2.713 -2.4302 -0.0565  0.7575
  319SOL    HW2  957   1.236   1.470   2.618  1.3472  1.8449 -0.6018
  320SOL     OW  958   0.591   1.807   1.003  0.3237  0.9007  0.2665
  320SOL    HW1  959   0.510   1.804   0.939  0.0556  2.4845 -1.0011
  320SOL    HW2  960   0.632   1.895   0.978 -1.1357 -3.1571  1.4029
  321SOL     OW  961   1.623   2.769   1.991 -0.0812  0.5356  0.2446
  321SOL    HW1  962   1.719   2.806   1.991  1.9020 -2.4258 -0.7106
  321SOL    HW2  963   1.584   2.793   2.086  1.9331 -1.3100  0.7876
  322SOL     OW  964   2.299   1.864   2.341 -0.1552 -0.0708  0.1998
  322SOL    HW1  965   2.196   1.855   2.334  0.1160  2.1543  1.9785
  322SOL    HW2  966   2.323   1.952   2.392  2.0038 -0.3461  0.8651
  323SOL     OW  967   2.668   0.248   0.808  0.3151 -0.5394  0.5795
  323SOL    HW1  968   2.657   0.152   0.773  0.4270 -1.5927 -0.2956
  323SOL    HW2  969   2.697   0.319   0.741 -2.1652 -2.1132  0.5605
  324SOL     OW  970   3.008   2.681   2.522 -0.7197  0.5067 -0.0653
  324SOL    HW1  971   3.106   2.686   2.545 -1.3522  2.9696  3.1830
  324SOL    HW2  972   2.985   2.598   2.464  2.4605  0.2217  1.4349
  325SOL     OW  973   0.910   0.699   2.785  0.3315 -0.0507 -0.2720
  325SOL    HW1  974   0.992   0.646   2.743  1.3514 -1.8234  0.4441
  325SOL    HW2  975   0.827   0.650   2.754  0.9150  2.6909  0.1399
  326SOL     OW  976   2.544   2.324   1.320  0.1572 -0.2327  0.1616
  326SOL    HW1  977   2.444   2.347   1.317  1.0222 -1.0733  0.4163
  326SOL    HW2  978   2.572   2.306   1.414 -0.3076  0.1806 -1.4402
  327SOL     OW  979   2.426   3.001   0.055 -0.0574  0.0405 -0.6279
  327SOL    HW1  980   2.405   3.078   0.125  1.2708  0.6815  2.0111
  327SOL    HW2  981   2.367   2.918   0.072 -1.3902  1.1394  0.0620
  328SOL     OW  982   0.311   0.849   1.592 -0.0222  0.2935 -0.4740
  328SOL    HW1  983   0.332   0.761   1.540  2.1125 -1.1213 -3.9601
  328SOL    HW2  984   0.347   0.928   1.538 -0.2961  3.0812  1.3082
  329SOL     OW  985   2.057   0.767   1.559 -1.1417  0.5073  0.2224
  329SOL    HW1  986   2.010   0.767   1.650 -1.5575  1.6272 -1.7823
  329SOL    HW2  987   2.112   0.680   1.550  1.5256 -0.0297 -0.1308
  330SOL     OW  988   0.383   0.776   1.016  0.2211  0.0687  0.2155
  330SOL    HW1  989   0.418   0.683   0.999  0.0007  2.1537 -3.3364
  330SOL    HW2  990   0.326   0.770   1.098 -1.4561 -1.0996 -1.8198
  331SOL     OW  991   0.509   1.686   1.929  0.2757 -0.4550 -0.5576
  331SOL    HW1  992   0.591   1.626   1.937 -1.3276 -0.7115  2.5700
  331SOL    HW2  993   0.460   1.684   1.841 -1.4098 -2.0493 -0.0473
  332SOL     OW  994   0.013   2.419   1.513 -0.1493  0.2809  0.2230
  332SOL    HW1  995   3.060   2.380   1.459  0.3560 -1.3698  0.9520
  332SOL    HW2  996   0.057   2.359   1.582  2.1493  0.6753 -1.1298
  333SOL     OW  997   2.957   2.837   0.840  0.1441  0.4345  0.4405
  333SOL    HW1  998   2.958   2.911   0.771 -2.1641  0.8182 -1.8521
  333SOL    HW2  999   3.033   2.782   0.824 -1.7309  1.8252  0.0470
  334SOL     OW 1000   0.436   1.204   0.646 -0.0758 -0.0935  0.2852
  334SOL    HW1 1001   0.376   1.137   0.684  3.7205  2.6681 -1.3141
  334SOL    HW2 1002   0.415   1.298   0.671 -0.2745 -2.0075 -3.1320
  335SOL     OW 1003   0.613   2.634   3.038  0.0783 -0.1060 -0.0743
  335SOL    HW1 1004   0.529   2.597   3.088 -1.0535  0.1138  0.8495
  335SOL    HW2 1005   0.619   2.603   2.939 -0.5569 -1.2628 -0.4685
  336SOL     OW 1006   3.012   2.679   2.145 -0.2222  0.5088  0.0333
  336SOL    HW1 1007   3.011   2.581   2.173  1.8801 -1.1880 -0.1975
  336SOL    HW2 1008   2.923   2.693   2.097  1.4159 -3.1131 -0.8795
  337SOL     OW 1009   1.558   2.276   1.760  0.5030 -0.3335 -0.0910
  337SOL    HW1 1010   1.495   2.265   1.681 -1.6905 -2.0387  0.5899
  337SOL    HW2 1011   1.507   2.231   1.835 -1.7644  1.9706 -2.3899
  338SOL     OW 1012   0.911   0.354   2.829 -0.1389 -0.6183  0.0317
  338SOL    HW1 1013   0.840   0.412   2.784 -1.1330  0.4519  1.5228
  338SOL    HW2 1014   0.937   0.278   2.765 -0.4152 -2.1010 -0.9683
  339SOL     OW 1015   0.489   0.938   2.245  0.1929  0.5482 -0.1817
  339SOL    HW1 1016   0.427   0.967   2.171  1.5768  1.6532 -0.1987
  339SOL    HW2 1017   0.557   1.004   2.270 -0.8456 -0.2279 -1.4530
  340SOL     OW 1018   2.205   0.452   0.901 -0.3356 -0.2583  0.3757
  340SOL    HW1 1019   2.211   0.366   0.956 -0.1643  0.3139  3.5938
  340SOL    HW2 1020   2.113   0.500   0.905  0.6480  1.3844 -0.5351
  341SOL     OW 1021   2.067   1.192   0.947 -0.2523  0.3158 -0.1751
  341SOL    HW1 1022   2.012   1.242   1.013 -1.3478 -0.6565 -0.4158
  341SOL    HW2 1023   2.142   1.140   0.989  0.1401  0.1965  0.7669
  342SOL     OW 1024   2.278   2.670   2.823  0.3180  0.1600  0.1422
  342SOL    HW1 1025   2.368   2.621   2.831 -0.1198  1.2159  1.2656
  342SOL    HW2 1026   2.219   2.603   2.778  2.5351 -3.3609 -1.3049
  343SOL     OW 1027   0.842   2.476   1.541  0.3313 -0.0921  0.2828
  343SOL    HW1 1028   0.906   2.471   1.463  1.0276 -1.3261  0.6921
  343SOL    HW2 1029   0.752   2.437   1.511 -1.4164  0.1784 -2.3993
  344SOL     OW 1030   2.467   2.760   1.404 -0.1338 -0.1084 -0.2513
  344SOL    HW1 1031   2.465   2.750   1.506  1.2329 -1.8520  1.0283
  344SOL    HW2 1032   2.561   2.782   1.376 -2.5320  0.2311  1.2069
  345SOL     OW 1033   2.345   2.306   0.026 -0.4530 -0.4040  0.2894
  345SOL    HW1 1034   2.345   2.279   0.126  1.9575 -1.6720 -0.2929
  345SOL    HW2 1035   2.269   2.370   0.018  4.6898  2.3063 -1.3555
  346SOL     OW 1036   1.652   2.331   1.380 -0.5071 -0.0749 -0.2268
  346SOL    HW1 1037   1.692   2.336   1.286  0.4240  1.5768 -1.7396
  346SOL    HW2 1038   1.657   2.238   1.424  0.0667  1.6930  1.7067
  347SOL     OW 1039   1.216   1.854   1.535  0.2319  0.1055  0.1181
  347SOL    HW1 1040   1.223   1.956   1.525  0.9796  1.0083 -0.1760
  347SOL    HW2 1041   1.151   1.835   1.609  2.9797  1.1765 -3.2290
  348SOL     OW 1042   0.502   2.133   1.936 -0.2118  0.2297  0.4469
  348SOL    HW1 1043   0.436   2.182   1.995  1.0292 -1.8865  1.9391
  348SOL    HW2 1044   0.548   2.054   1.983 -0.1481  2.7321 -1.3822
  349SOL     OW 1045   1.769   1.639   1.300  0.6093 -0.2844 -0.4041
  349SOL    HW1 1046   1.785   1.548   1.347  0.6758  0.3159  2.6662
  349SOL    HW2 1047   1.828   1.714   1.332 -1.5118 -0.7914 -1.0791
  350SOL     OW 1048   2.360   2.216   0.353  0.0548  0.0546 -0.0107
  350SOL    HW1 1049   2.458   2.251   0.351  0.7347 -0.5472 -0.1052
  350SOL    HW2 1050   2.305   2.281   0.412 -0.2933 -0.0246 -1.2695
  351SOL     OW 1051   0.685   0.078   1.521  0.4565 -0.2175  0.1136
  351SOL    HW1 1052   0.684   0.068   1.622  1.1571 -0.2386 -1.1129
  351SOL    HW2 1053   0.727   0.163   1.490 -0.0949 -2.6198  0.4986
  352SOL     OW 1054   0.164   1.239   0.865 -0.3749 -0.1747  0.0852
  352SOL    HW1 1055   0.176   1.140   0.852 -0.9722 -0.5716  0.6392
  352SOL    HW2 1056   0.128   1.286   0.783  0.6355 -0.6563  2.3993
  353SOL     OW 1057   1.266   1.580   2.199  0.3157  0.1030  0.2601
  353SOL    HW1 1058   1.316   1.578   2.286 -2.4308  0.6327 -1.1063
  353SOL    HW2 1059   1.320   1.538   2.125 -0.9808  2.2188  0.9836
  354SOL     OW 1060   1.827   3.110   2.009  0.2145  0.2052  0.1130
  354SOL    HW1 1061   1.771   3.107   2.097  0.5855 -0.8385  2.0114
  354SOL    HW2 1062   1.768   3.096   1.925 -0.7510  1.3802 -0.0522
  355SOL     OW 1063   2.212   1.168   0.077 -0.1761 -0.3303 -0.0810
  355SOL    HW1 1064   2.305   1.131   0.068 -1.3947  0.2776  3.2361
  355SOL    HW2 1065   2.148   1.128   0.009 -0.3364 -2.7513 -0.9020
  356SOL     OW 1066   2.989   1.460   1.488  0.0943  0.3741  0.2553
  356SOL    HW1 1067   2.994   1.374   1.536  0.0675  1.5237 -0.0594
  356SOL    HW2 1068   3.071   1.466   1.426 -1.5187  2.1239  1.0207
  357SOL     OW 1069   0.368   2.599   1.533 -0.3741  0.0420  0.2752
  357SOL    HW1 1070   0.314   2.641   1.606  1.2632 -1.1215  0.2812
  357SOL    HW2 1071   0.315   2.561   1.454  0.7050 -4.2193 -0.0167
  358SOL     OW 1072   2.454   1.681   1.465  0.0445 -0.5978  0.7498
  358SOL    HW1 1073   2.470   1.725   1.554 -0.1313 -1.1287 -0.7954
  358SOL    HW2 1074   2.523   1.608   1.444 -0.4803 -1.9348 -0.7996
  359SOL     OW 1075   2.377   2.916   2.764 -0.5086  0.3560 -0.1949
  359SOL    HW1 1076   2.338   2.973   2.690  0.9953  2.1209 -0.7801
  359SOL    HW2 1077   2.330   2.826   2.787  0.5358 -2.3037 -0.5146
  360SOL     OW 1078   1.296   2.990   1.049  0.0119  0.5159  0.0099
  360SOL    HW1 1079   1.319   2.980   0.947  2.4463  1.4000 -0.5297
  360SOL    HW2 1080   1.212   2.935   1.076  0.0831 -2.5653  2.6972
  361SOL     OW 1081   2.273   0.396   0.358 -0.0565  0.1763 -0.1040
  361SOL    HW1 1082   2.229   0.370   0.447 -1.5850 -3.9682 -0.4626
  361SOL    HW2 1083   2.278   0.499   0.355  2.3159  1.7777  1.8763
  362SOL     OW 1084   1.579   1.128   0.839 -0.3196 -0.5779 -0.5159
  362SOL    HW1 1085   1.620   1.197   0.773 -0.5502 -1.6397  0.8675
  362SOL    HW2 1086   1.603   1.148   0.938 -0.2850  1.0054  4.2858
  363SOL     OW 1087   2.355   1.259   2.364  0.1231 -0.0435 -0.5088
  363SOL    HW1 1088   2.294   1.290   2.442  1.1251  0.7005  0.1200
  363SOL    HW2 1089   2.320   1.286   2.275 -0.3332 -3.0409  0.9344
  364SOL     OW 1090   0.251   0.366   1.045 -0.3041  0.6898 -0.6284
  364SOL    HW1 1091   0.175   0.427   1.075 -0.6709  0.3271  0.8978
  364SOL    HW2 1092   0.225   0.268   1.057 -1.9018 -0.4888 -0.5756
  365SOL     OW 1093   0.641   0.220   2.904  0.6472 -0.3986 -0.7792
  365SOL    HW1 1094   0.657   0.137   2.854  0.6054  0.4748  0.9008
  365SOL    HW2 1095   0.724   0.259   2.936  0.0420 -1.2663 -0.2109
  366SOL     OW 1096   2.076   2.446   2.833  0.2539  0.1120 -0.3417
  366SOL    HW1 1097   2.037   2.446   2.926 -0.1809 -2.4203  2.7364
  366SOL    HW2 1098   2.103   2.350   2.817 -0.3013 -0.6025  1.3852
  367SOL     OW 1099   3.051   2.456   0.293  0.0666  0.7054  0.1063
  367SOL    HW1 1100   2.990   2.487   0.368  0.2428  1.1269 -0.8465
  367SOL    HW2 1101   0.026   2.461   0.328 -0.5771 -0.0200 -0.8084
  368SOL     OW 1102   2.858   1.237   1.186 -0.8429  0.0594 -0.2693
  368SOL    HW1 1103   2.764   1.230   1.222  1.8663 -1.9657  0.1949
  368SOL    HW2 1104   2.883   1.332   1.163  1.5134 -0.4412  0.6292
  369SOL     OW 1105   0.991   0.135   2.674  0.2799  0.1534  0.2450
  369SOL    HW1 1106   0.945   0.078   2.602 -1.5414  1.0994 -0.8083
  369SOL    HW2 1107   1.063   0.087   2.733 -3.6269  0.0214  3.2893
  370SOL     OW 1108   2.802   0.285   0.566 -0.1154  0.8262 -0.0879
  370SOL    HW1 1109   2.774   0.362   0.506  1.1939  2.3167 -2.2221
  370SOL    HW2 1110   2.906   0.280   0.566  3.0136 -3.2090  1.2625
  371SOL     OW 1111   1.479   2.144   0.911  0.6805  0.4060  0.3947
  371SOL    HW1 1112   1.524   2.107   0.991 -3.0473  1.2674 -0.4717
  371SOL    HW2 1113   1.546   2.211   0.874 -1.0114  1.1860  2.2219
  372SOL     OW 1114   2.920   0.730   2.656  0.1414 -0.0683 -0.4309
  372SOL    HW1 1115   2.899   0.710   2.556 -1.1836 -1.4205 -0.6198
  372SOL    HW2 1116   2.915   0.826   2.685  1.7552 -3.4624 -0.9902
  373SOL     OW 1117   2.953   1.524   0.995  0.3746 -0.4142  0.1725
  373SOL    HW1 1118   2.955   1.587   0.914 -0.3686  0.9097  1.4303
  373SOL    HW2 1119   2.899   1.572   1.074  0.1032  2.4516  3.4365
  374SOL     OW 1120   0.702   3.067   2.793 -0.0474 -0.5470 -0.4679
  374SOL    HW1 1121   0.720   2.992   2.855 -0.7797  1.0511 -1.3401
  374SOL    HW2 1122   0.767   3.065   2.716 -0.5819  0.2423 -2.7305
  375SOL     OW 1123   3.073   3.022   0.098 -0.2941  0.1482 -0.2809
  375SOL    HW1 1124   3.096   3.063   0.191 -2.2210 -1.8802 -0.5426
  375SOL    HW2 1125   0.027   2.964   0.078 -1.8057  1.1785  2.7758
  376SOL     OW 1126   2.985   2.003   1.509 -0.1723 -0.0680 -0.0715
  376SOL    HW1 1127   3.008   2.020   1.608  0.7959  0.8943  0.0087
  376SOL    HW2 1128   2.894   1.963   1.499 -1.0633  0.2142 -0.0998
  377SOL     OW 1129   1.747   2.216   2.457  0.7096  0.5413 -0.3576
  377SOL    HW1 1130   1.647   2.199   2.428 -1.2902 -0.7815 -1.9460
  377SOL    HW2 1131   1.788   2.284   2.393 -1.4613 -0.9890  1.6786
  378SOL     OW 1132   0.406   0.301   2.785 -0.2587  0.0946  0.1322
  378SOL    HW1 1133   0.404   0.403   2.766 -0.8941 -0.7851 -0.5897
  378SOL    HW2 1134   0.495   0.273   2.826  0.6265 -2.6346  2.5082
  379SOL     OW 1135   0.473   0.649   0.400 -0.2986  0.1142  0.5130
  379SOL    HW1 1136   0.459   0.704   0.483  0.6254  0.8772 -0.6474
  379SOL    HW2 1137   0.560   0.674   0.349  0.5046  0.2234 -0.9319
  380SOL     OW 1138   0.015   1.787   1.876 -0.0948  0.2581 -0.2948
  380SOL    HW1 1139   3.101   1.690   1.879  0.4741  1.3473 -0.0231
  380SOL    HW2 1140   0.073   1.807   1.958 -1.0127 -1.3468  0.7676
  381SOL     OW 1141   0.228   1.039   2.047 -0.4638  0.4807  0.0979
  381SOL    HW1 1142   0.168   0.962   2.074 -0.7145 -0.3818 -1.3899
  381SOL    HW2 1143   0.259   1.027   1.948  1.0411  1.9467  0.0369
  382SOL     OW 1144   2.277   1.819   0.489  0.4056 -0.5850 -0.1672
  382SOL    HW1 1145   2.213   1.740   0.477 -0.1759  2.3331 -1.2784
  382SOL    HW2 1146   2.250   1.872   0.569  1.3087  1.3262 -0.4558
  383SOL     OW 1147   0.089   2.037   2.768 -0.4210 -0.1425 -0.3318
  383SOL    HW1 1148   0.030   1.954   2.794 -1.9077  0.9699 -2.2350
  383SOL    HW2 1149   0.034   2.117   2.734 -0.2954  0.2443 -1.6317
  384SOL     OW 1150   0.826   2.194   2.718  0.2212  0.3351 -0.3861
  384SOL    HW1 1151   0.799   2.176   2.816 -1.4191  3.4142 -0.4031
  384SOL    HW2 1152   0.832   2.296   2.703  1.1418  2.9951  1.3702
  385SOL     OW 1153   2.689   1.696   0.705  0.0657 -0.0639  0.2779
  385SOL    HW1 1154   2.625   1.714   0.780 -1.2837  3.2865 -1.0436
  385SOL    HW2 1155   2.668   1.757   0.625  0.5554 -1.3206  0.4248
  386SOL     OW 1156   2.237   1.512   1.541  0.0600 -0.1893  0.3977
  386SOL    HW1 1157   2.308   1.580   1.512 -1.7179 -2.6576 -0.4314
  386SOL    HW2 1158   2.276   1.419   1.550  1.3831  0.2676 -2.3488
  387SOL     OW 1159   2.844   1.273   2.207  0.2556  0.3154  0.0578
  387SOL    HW1 1160   2.850   1.201   2.280  0.5829  3.1549  2.6990
  387SOL    HW2 1161   2.834   1.364   2.255  0.2572  0.0714 -0.9885
  388SOL     OW 1162   3.027   1.557   1.876  0.4438 -0.5152  0.2267
  388SOL    HW1 1163   3.049   1.472   1.929  0.3854 -1.3182 -0.9453
  388SOL    HW2 1164   2.935   1.544   1.826  0.3648 -1.2708 -1.2947
  389SOL     OW 1165   1.976   1.149   1.834 -0.0390 -0.4577  0.5002
  389SOL    HW1 1166   1.996   1.153   1.733  1.4431  2.0651  0.4775
  389SOL    HW2 1167   1.948   1.242   1.869  0.1360 -3.5924  3.3849
  390SOL     OW 1168   1.979   0.100   0.628  0.4748  0.0532 -0.2411
  390SOL    HW1 1169   1.965   0.039   0.708  0.6016 -1.5276 -0.8846
  390SOL    HW2 1170   1.890   0.112   0.586 -0.0110  0.0982  2.0049
  391SOL     OW 1171   2.110   1.775   1.237 -0.0722 -0.2255 -0.4239
  391SOL    HW1 1172   2.201   1.814   1.263 -1.0522  0.3130  0.8851
  391SOL    HW2 1173   2.031   1.801   1.294  1.0555 -1.2870 -0.0290
  392SOL     OW 1174   2.846   2.509   0.466 -0.5856 -0.4729  0.4124
  392SOL    HW1 1175   2.856   2.515   0.565 -2.8076  1.8220 -0.3838
  392SOL    HW2 1176   2.753   2.483   0.439 -1.5421 -0.3487  0.7158
  393SOL     OW 1177   1.482   1.813   2.851 -0.6934  0.5809 -0.0544
  393SOL    HW1 1178   1.505   1.721   2.893  1.8860 -1.7713  0.4242
  393SOL    HW2 1179   1.542   1.828   2.769  2.1278 -0.4478  1.2449
  394SOL     OW 1180   0.194   3.088   2.631  0.1430 -0.4317  0.0476
  394SOL    HW1 1181   0.100   0.001   2.637 -0.5913 -0.5272  0.6282
  394SOL    HW2 1182   0.204   3.007   2.697 -0.2136  0.4817  1.1345
  395SOL     OW 1183   0.654   0.376   0.794  0.1059  0.0443  0.1037
  395SOL    HW1 1184   0.633   0.305   0.862 -1.9378  1.4551 -1.0753
  395SOL    HW2 1185   0.704   0.454   0.843 -1.0889  1.7908 -1.0580
  396SOL     OW 1186   1.378   0.871   0.560  0.2687 -0.3588 -0.2918
  396SOL    HW1 1187   1.481   0.856   0.547  0.7132  0.4440 -1.2259
  396SOL    HW2 1188   1.331   0.845   0.471 -0.3047  1.6930 -0.8163
  397SOL     OW 1189   0.542   0.661   2.252  0.2282  0.2385  0.0318
  397SOL    HW1 1190   0.466   0.588   2.243 -2.0523  1.0900 -3.3835
  397SOL    HW2 1191   0.500   0.754   2.270 -1.7108 -2.1351 -1.8990
  398SOL     OW 1192   0.861   0.165   0.537 -0.2128  0.1268  0.5061
  398SOL    HW1 1193   0.875   0.242   0.599  2.5740 -2.5665 -3.3539
  398SOL    HW2 1194   0.871   0.196   0.441  0.6236  1.1998  1.3413
  399SOL     OW 1195   1.955   2.890   1.642  0.5091 -0.0767  0.5120
  399SOL    HW1 1196   1.969   2.905   1.737 -1.5937  0.5876 -1.1454
  399SOL    HW2 1197   1.946   2.791   1.622 -0.6244 -0.1692  0.2796
  400SOL     OW 1198   0.920   1.797   1.962 -0.4569 -0.3099  0.2235
  400SOL    HW1 1199   0.899   1.761   2.054  1.4114  4.6297 -2.2978
  400SOL    HW2 1200   0.979   1.881   1.972 -1.0493  0.3614  0.3599
  401SOL     OW 1201   0.519   1.295   2.784 -0.2466  0.2932 -0.9014
  401SOL    HW1 1202   0.536   1.342   2.872  0.5738  2.5012  0.5269
  401SOL    HW2 1203   0.487   1.202   2.811  0.8961  1.0254  0.6025
  402SOL     OW 1204   2.889   1.953   0.827  0.3277  0.4238 -0.5520
  402SOL    HW1 1205   2.941   1.944   0.738  1.1626  0.0860 -2.6071
  402SOL    HW2 1206   2.851   1.868   0.865  1.8290 -1.8838  0.2497
  403SOL     OW 1207   0.247   0.914   2.355 -0.0940  0.4311 -0.5973
  403SOL    HW1 1208   0.184   0.883   2.280  0.2988 -1.7161 -1.2727
  403SOL    HW2 1209   0.345   0.921   2.326 -0.5192 -0.7217 -0.5562
  404SOL     OW 1210   0.287   2.400   1.936  0.2967 -0.1469 -0.1035
  404SOL    HW1 1211   0.224   2.378   1.856 -2.4219 -1.0859  1.7747
  404SOL    HW2 1212   0.303   2.500   1.942 -3.2318 -1.6179 -0.2291
  405SOL     OW 1213   0.274   0.398   1.944 -0.0368  0.0645  0.1122
  405SOL    HW1 1214   0.363   0.380   1.897 -3.7693 -0.7114  0.2131
  405SOL    HW2 1215   0.212   0.317   1.945 -1.5670 -1.0353  2.0670
  406SOL     OW 1216   1.542   1.643   2.571  0.1484 -0.3418  0.5703
  406SOL    HW1 1217   1.601   1.571   2.622  0.9410 -0.0636  0.2387
  406SOL    HW2 1218   1.607   1.712   2.531  0.5433 -0.2167  0.2219
  407SOL     OW 1219   1.332   1.281   2.379  0.1321  0.4910  0.1478
  407SOL    HW1 1220   1.271   1.255   2.302  0.8412 -1.1377  0.6535
  407SOL    HW2 1221   1.433   1.266   2.351 -0.2875 -2.0153 -1.6041
  408SOL     OW 1222   0.838   0.001   2.496 -0.2285 -0.2324 -0.3207
  408SOL    HW1 1223   0.744   0.039   2.472  2.1580 -0.9541 -0.0155
  408SOL    HW2 1224   0.839   3.028   2.472 -0.1261  3.5264  0.1858
  409SOL     OW 1225   0.188   1.819   0.680  0.4018  0.2089 -0.1878
  409SOL    HW1 1226   0.097   1.852   0.651  2.3023  0.3351 -0.8968
  409SOL    HW2 1227   0.231   1.767   0.605  1.1077 -1.1682  0.2370
  410SOL     OW 1228   2.510   1.209   0.246  0.1022  0.0095 -0.1013
  410SOL    HW1 1229   2.595   1.156   0.242 -0.8637  0.2555  2.9218
  410SOL    HW2 1230   2.504   1.250   0.154 -2.4554 -0.8387 -0.0521
  411SOL     OW 1231   0.166   0.103   1.070 -0.6372 -0.1107  0.2340
  411SOL    HW1 1232   0.163   0.056   1.164 -1.7959  0.1733 -1.3674
  411SOL    HW2 1233   0.212   0.037   1.006 -1.4708  0.4084  1.6343
  412SOL     OW 1234   1.652   0.990   1.515  0.7946 -0.6403  0.1742
  412SOL    HW1 1235   1.671   1.056   1.435  1.0809  1.2814 -2.1479
  412SOL    HW2 1236   1.568   0.932   1.511 -1.3429 -1.3531  3.0698
  413SOL     OW 1237   0.666   0.033   1.789  0.6300  0.0234 -0.4180
  413SOL    HW1 1238   0.573   3.111   1.797 -3.4693  0.6655 -0.4352
  413SOL    HW2 1239   0.694   0.090   1.869  0.9093 -0.1201  1.9481
  414SOL     OW 1240   2.775   1.625   2.813  0.1731  0.2257 -0.4754
  414SOL    HW1 1241   2.751   1.582   2.900  3.1334 -1.0967 -1.1495
  414SOL    HW2 1242   2.794   1.556   2.743  0.5481  2.4467  3.1489
  415SOL     OW 1243   0.947   2.348   3.019  0.8368 -0.5500 -0.4167
  415SOL    HW1 1244   0.955   2.432   2.963  0.1642  0.5210 -0.4721
  415SOL    HW2 1245   0.978   2.374   3.110  0.2108  2.0807 -2.0947
  416SOL     OW 1246   1.844   2.880   0.098  0.0314  0.0255 -0.2173
  416SOL    HW1 1247   1.906   2.940   0.043 -2.1997  0.7562 -2.5525
  416SOL    HW2 1248   1.881   2.792   0.121 -2.6428  2.1399 -1.9000
  417SOL     OW 1249   0.189   0.593   0.648 -0.4005 -0.1514  0.4953
  417SOL    HW1 1250   0.285   0.631   0.650  1.8582  0.9315 -2.3524
  417SOL    HW2 1251   0.195   0.496   0.673  0.8025  2.9267 -0.2726
  418SOL     OW 1252   2.407   0.243   1.191  0.1647  0.0627 -0.3088
  418SOL    HW1 1253   2.326   0.191   1.155  2.1625  0.4710  3.1411
  418SOL    HW2 1254   2.461   0.290   1.118 -0.4422  1.3780 -1.4501
  419SOL     OW 1255   0.132   2.932   0.708  0.3829  0.0451 -0.3026
  419SOL    HW1 1256   0.037   2.950   0.679  0.1462  0.4210  0.5639
  419SOL    HW2 1257   0.155   2.832   0.708  0.7259  1.9422 -1.8634
  420SOL     OW 1258   0.252   1.342   1.461  0.1529 -0.3858 -0.3880
  420SOL    HW1 1259   0.330   1.413   1.451  1.3528  2.0896 -0.1355
  420SOL    HW2 1260   0.171   1.363   1.400  0.8351  0.9481  1.9811
  421SOL     OW 1261   1.313   2.993   0.523  0.1453  0.2296  0.3296
  421SOL    HW1 1262   1.240   3.066   0.531  2.4176 -3.2201  1.3157
  421SOL    HW2 1263   1.287   2.919   0.456 -0.4791 -0.6055 -3.7605
  422SOL     OW 1264   0.534   0.452   1.242  0.2709 -0.7735  0.4524
  422SOL    HW1 1265   0.496   0.391   1.314  1.2441  0.1232 -1.2841
  422SOL    HW2 1266   0.483   0.442   1.155 -0.6245  0.3144 -0.7464
  423SOL     OW 1267   1.024   1.343   1.829  0.1895 -0.0474 -0.7183
  423SOL    HW1 1268   1.058   1.418   1.891  1.6925  0.9951 -0.4529
  423SOL    HW2 1269   1.008   1.255   1.883  1.9642  4.3009 -3.2617
  424SOL     OW 1270   2.030   1.714   0.027 -0.3057  0.5494  0.3574
  424SOL    HW1 1271   2.065   1.803   0.073  3.0566  2.7818  2.6460
  424SOL    HW2 1272   1.993   1.649   0.093 -2.2580  1.8348  1.3834
  425SOL     OW 1273   0.094   0.214   2.128  0.6176 -0.2679 -0.2724
  425SOL    HW1 1274   0.033   0.133   2.106  0.4041 -1.9093 -1.8937
  425SOL    HW2 1275   0.171   0.186   2.189 -0.7993 -3.0310  2.6969
  426SOL     OW 1276   0.236   2.853   2.773 -0.0225  0.5196 -0.4872
  426SOL    HW1 1277   0.184   2.873   2.857  2.5955  0.5784 -2.0229
  426SOL    HW2 1278   0.336   2.849   2.800 -0.1867  1.4945 -0.3786
  427SOL     OW 1279   0.868   0.959   2.822 -0.1982  0.1657  0.2497
  427SOL    HW1 1280   0.964   0.997   2.809  0.9884  0.9766  0.6720
  427SOL    HW2 1281   0.883   0.857   2.809 -3.4845 -0.9338 -0.7655
  428SOL     OW 1282   2.761   1.115   1.515  0.5392 -0.3393 -0.0696
  428SOL    HW1 1283   2.732   1.026   1.474  1.5709 -2.0631 -2.3425
  428SOL    HW2 1284   2.859   1.137   1.505  0.6811  3.4121  0.6159
  429SOL     OW 1285   2.217   2.884   1.016  0.5858  0.1958 -0.1888
  429SOL    HW1 1286   2.290   2.816   1.039  2.4670  0.0417 -3.2587
  429SOL    HW2 1287   2.190   2.874   0.917 -0.0502 -0.0501  1.8643
  430SOL     OW 1288   0.998   1.522   2.375  0.2543 -0.0664  0.0688
  430SOL    HW1 1289   0.996   1.537   2.475  0.8691 -0.2390  0.1562
  430SOL    HW2 1290   1.087   1.475   2.352  0.3505 -1.7556 -3.3289
  431SOL     OW 1291   2.720   1.508   1.449 -0.0475  0.0768  0.1503
  431SOL    HW1 1292   2.814   1.485   1.476  1.3168  1.3961 -1.4000
  431SOL    HW2 1293   2.673   1.422   1.421 -0.5287  1.1222 -2.4224
  432SOL     OW 1294   0.964   2.573   2.406 -0.5431 -0.0741 -0.1573
  432SOL    HW1 1295   1.026   2.632   2.462 -0.3680 -1.3409 -1.4140
  432SOL    HW2 1296   1.001   2.477   2.411 -0.6199  1.7835  0.6838
  433SOL     OW 1297   1.671   0.439   2.062 -0.2741  0.2392 -0.4149
  433SOL    HW1 1298   1.740   0.374   2.103  2.3935 -0.3581 -1.3253
  433SOL    HW2 1299   1.669   0.523   2.121  1.1345 -1.6146  0.0066
  434SOL     OW 1300   0.768   2.428   2.312 -0.0561 -0.0784 -0.0792
  434SOL    HW1 1301   0.767   2.437   2.208 -1.8894 -0.4210 -0.9567
  434SOL    HW2 1302   0.819   2.511   2.352 -0.3807  1.4032  2.7234
  435SOL     OW 1303   0.448   2.878   0.181 -0.6238 -0.1288  0.0950
  435SOL    HW1 1304   0.416   2.938   0.102  2.3156 -0.4954 -2.9102
  435SOL    HW2 1305   0.445   2.921   0.272 -0.9220 -1.7051 -1.7937
  436SOL     OW 1306   0.657   0.710   2.016 -0.1258 -0.0394 -0.1486
  436SOL    HW1 1307   0.612   0.796   1.973 -1.3507  1.0097 -1.3322
  436SOL    HW2 1308   0.600   0.675   2.095 -4.7521 -1.5995  0.7350
  437SOL     OW 1309   0.451   2.404   2.647 -0.0553 -0.1044 -1.0357
  437SOL    HW1 1310   0.490   2.362   2.565 -0.2084  1.9262  1.0593
  437SOL    HW2 1311   0.454   2.338   2.726 -2.1891 -0.6075  0.8830
  438SOL     OW 1312   0.806   1.423   1.692 -0.1063  0.4578 -0.4196
  438SOL    HW1 1313   0.832   1.497   1.628  0.4071 -1.8181 -1.5678
  438SOL    HW2 1314   0.886   1.379   1.744  1.5412  1.4644  0.0303
  439SOL     OW 1315   2.468   0.996   2.316  0.0610 -0.0259  0.1887
  439SOL    HW1 1316   2.486   0.928   2.391 -1.6903 -2.2711  0.4402
  439SOL    HW2 1317   2.433   1.087   2.359 -1.5613  3.2928  1.2162
  440SOL     OW 1318   0.264   0.565   0.203 -0.0240 -0.1728 -0.6156
  440SOL    HW1 1319   0.246   0.481   0.154  0.2315  2.0322  1.2521
  440SOL    HW2 1320   0.355   0.554   0.252  2.6850 -1.4296 -1.8643
  441SOL     OW 1321   1.348   2.247   1.610  0.1010 -0.0953  0.0497
  441SOL    HW1 1322   1.358   2.337   1.562  0.7487  0.1179  1.2213
  441SOL    HW2 1323   1.250   2.215   1.625 -1.9532  1.6515 -1.5455
  442SOL     OW 1324   1.947   1.555   0.638 -0.2099 -0.1439 -0.0882
  442SOL    HW1 1325   1.954   1.641   0.690 -0.2267  0.0596 -0.1674
  442SOL    HW2 1326   2.012   1.489   0.679  0.4631  1.1348 -0.6986
  443SOL     OW 1327   2.758   2.079   2.652 -0.1745 -0.0034  0.4415
  443SOL    HW1 1328   2.733   2.171   2.696 -1.8271 -1.0626 -0.8982
  443SOL    HW2 1329   2.692   2.065   2.579  0.1433 -1.6517  1.3274
  444SOL     OW 1330   1.504   1.552   2.961 -0.1563 -0.2099  0.0226
  444SOL    HW1 1331   1.524   1.575   3.064  0.0265  1.8278  0.5816
  444SOL    HW2 1332   1.468   1.457   2.937 -2.1691 -3.0911 -2.4088
  445SOL     OW 1333   2.622   2.805   2.100 -0.4554  0.0689  0.1238
  445SOL    HW1 1334   2.691   2.762   2.040 -0.3319 -0.2489  0.4443
  445SOL    HW2 1335   2.646   2.906   2.109 -1.4304  0.9135 -1.0997
  446SOL     OW 1336   0.817   0.916   1.588 -0.1966  0.2919 -0.4583
  446SOL    HW1 1337   0.888   0.852   1.554 -1.6406 -2.8235 -1.2835
  446SOL    HW2 1338   0.872   0.996   1.610  1.2952  1.9820  1.1983
  447SOL     OW 1339   1.027   0.817   0.949 -0.2282 -0.5579 -0.7858
  447SOL    HW1 1340   0.985   0.820   1.046 -1.3201  1.2877  2.6131
  447SOL    HW2 1341   1.128   0.798   0.953  3.4332 -0.7738  1.2308
  448SOL     OW 1342   0.969   1.051   2.224  0.2492 -0.3393 -0.0048
  448SOL    HW1 1343   0.888   1.074   2.284 -0.6580 -2.2433  0.4450
  448SOL    HW2 1344   1.023   0.983   2.272  2.1432  1.3630 -1.7645
  449SOL     OW 1345   0.087   2.118   2.343  0.3441  0.3040 -0.0608
  449SOL    HW1 1346   0.043   2.064   2.421  1.3042 -0.3918  0.6070
  449SOL    HW2 1347   0.188   2.091   2.326  2.9457  1.6898 -1.6969
  450SOL     OW 1348   2.464   1.942   2.128 -0.0793 -0.5181 -0.0947
  450SOL    HW1 1349   2.457   1.922   2.224  1.1858 -2.1225  0.3453
  450SOL    HW2 1350   2.440   1.864   2.066  1.7079 -1.2403  2.4733
  451SOL     OW 1351   2.615   1.264   1.340  0.3149 -0.2013 -0.2079
  451SOL    HW1 1352   2.519   1.267   1.315 -0.7620  2.6851  1.2056
  451SOL    HW2 1353   2.633   1.206   1.423 -0.2299 -1.5513  2.2634
  452SOL     OW 1354   0.375   1.083   1.457  0.0001  0.3723 -0.3140
  452SOL    HW1 1355   0.329   1.174   1.473  0.2036  0.7380 -2.4386
  452SOL    HW2 1356   0.395   1.086   1.356 -0.0036 -0.3411 -3.2553
  453SOL     OW 1357   0.304   1.005   0.786  0.8699  0.0652  0.0937
  453SOL    HW1 1358   0.324   0.946   0.870  0.5994 -2.7047  1.9645
  453SOL    HW2 1359   0.255   0.963   0.703 -0.1077 -0.6939 -1.9265
  454SOL     OW 1360   0.367   1.442   0.357 -0.0116  0.2290  0.2788
  454SOL    HW1 1361   0.416   1.499   0.285 -1.4934  0.0394  1.3475
  454SOL    HW2 1362   0.413   1.357   0.378 -3.5724  3.1884  0.2080
  455SOL     OW 1363   1.725   0.929   0.998 -0.1567 -0.4122  0.0306
  455SOL    HW1 1364   1.713   0.985   0.912  1.6441 -0.3962 -1.8175
  455SOL    HW2 1365   1.821   0.892   1.013  0.8537  0.4051 -0.2820
  456SOL     OW 1366   1.595   2.390   0.866 -0.3887 -0.3756 -0.1032
  456SOL    HW1 1367   1.518   2.462   0.868  1.3176 -1.0356  0.3200
  456SOL    HW2 1368   1.664   2.405   0.788  0.4229  0.4965 -0.4316
  457SOL     OW 1369   1.926   0.210   2.645 -0.0682 -0.2980  0.5158
  457SOL    HW1 1370   1.869   0.156   2.576  0.8394  0.5813  1.3353
  457SOL    HW2 1371   1.918   0.306   2.627  0.4736 -3.7185 -1.1174
  458SOL     OW 1372   2.514   0.481   3.103 -0.2529 -1.0702  0.5317
  458SOL    HW1 1373   2.506   0.380   3.110 -3.1250 -0.6855 -1.7657
  458SOL    HW2 1374   2.491   0.518   3.010 -1.0673  0.5759  0.9778
  459SOL     OW 1375   3.105   1.370   2.082 -0.1782  0.3941  0.6084
  459SOL    HW1 1376   0.018   1.423   2.160  1.9470 -1.4106 -2.6069
  459SOL    HW2 1377   3.019   1.330   2.107  1.4650 -0.0027 -0.2181
  460SOL     OW 1378   0.206   0.810   2.985  0.0832  0.1734  0.1838
  460SOL    HW1 1379   0.144   0.781   2.909 -0.8913 -0.8039  0.2782
  460SOL    HW2 1380   0.276   0.738   3.004  2.8427 -1.6628 -1.7655
  461SOL     OW 1381   0.004   2.334   0.629 -0.2328  0.1407  0.5544
  461SOL    HW1 1382   0.045   2.262   0.686 -2.3506 -1.2797  2.2187
  461SOL    HW2 1383   3.123   2.326   0.526  2.8657 -0.3480 -1.6438
  462SOL     OW 1384   3.111   3.012   1.754  0.2818  0.2404  0.0177
  462SOL    HW1 1385   0.010   2.915   1.731  1.4767 -2.6750  1.5579
  462SOL    HW2 1386   3.080   3.059   1.670  0.4631 -2.5142 -1.3640
  463SOL     OW 1387   1.912   2.149   2.040  0.4386  0.6097 -0.0874
  463SOL    HW1 1388   1.999   2.128   1.994  0.6840 -4.3222 -3.1490
  463SOL    HW2 1389   1.886   2.246   2.027 -2.2910  1.6614 -1.1876
  464SOL     OW 1390   0.327   2.847   1.150 -0.0687  0.1721 -0.1017
  464SOL    HW1 1391   0.313   2.908   1.231  0.1357 -1.7697 -1.1471
  464SOL    HW2 1392   0.289   2.891   1.063  1.8227 -0.9010  1.8806
  465SOL     OW 1393   0.358   0.059   1.585  0.6953  0.4187  0.5295
  465SOL    HW1 1394   0.366   0.056   1.688 -2.7283 -0.9837  1.9374
  465SOL    HW2 1395   0.430   0.113   1.540  0.1049  0.6948  0.6598
  466SOL     OW 1396   1.238   2.055   2.349 -0.3782  0.3058 -0.1164
  466SOL    HW1 1397   1.217   1.989   2.273  2.9423 -2.6730  0.4164
  466SOL    HW2 1398   1.172   2.130   2.357  2.3995  0.3644 -1.6587
  467SOL     OW 1399   2.899   1.289   0.800 -0.2716 -0.0792 -0.6733
  467SOL    HW1 1400   2.912   1.369   0.863  0.9053  2.4696 -0.1706
  467SOL    HW2 1401   2.833   1.313   0.728  1.1210 -0.0074  2.9867
  468SOL     OW 1402   2.399   1.918   2.657 -0.5625 -0.7643 -0.6577
  468SOL    HW1 1403   2.315   1.863   2.677 -1.2944 -0.3927  0.7433
  468SOL    HW2 1404   2.375   1.991   2.582 -1.8299  1.5069 -1.1609
  469SOL     OW 1405   1.134   2.150   0.458  0.3391 -0.3750 -0.0395
  469SOL    HW1 1406   1.186   2.234   0.434  0.5228  0.0344  0.1695
  469SOL    HW2 1407   1.146   2.131   0.562 -1.2391  0.3768  2.7680
  470SOL     OW 1408   1.921   1.876   1.387 -0.1138 -0.1796 -0.4452
  470SOL    HW1 1409   1.846   1.949   1.398 -0.7017 -0.9785 -0.6041
  470SOL    HW2 1410   1.957   1.855   1.482  1.5014 -2.1879  2.4320
  471SOL     OW 1411   0.488   2.380   0.263 -0.1370  0.1157 -0.1022
  471SOL    HW1 1412   0.546   2.444   0.316  0.2555 -1.3644  0.2703
  471SOL    HW2 1413   0.441   2.432   0.189 -0.4428 -0.1675  0.9819
  472SOL     OW 1414   2.495   1.682   2.357 -0.4141  0.4078  0.2077
  472SOL    HW1 1415   2.510   1.696   2.459  3.0399 -2.6462 -0.0858
  472SOL    HW2 1416   2.421   1.751   2.337 -2.4778  2.2661  0.8793
  473SOL     OW 1417   1.415   2.636   0.823  0.6627  0.2741 -0.0345
  473SOL    HW1 1418   1.371   2.591   0.907  1.7100 -2.5698  0.2607
  473SOL    HW2 1419   1.410   2.737   0.828 -2.6478 -0.4249  1.9688
  474SOL     OW 1420   3.063   0.073   1.525 -0.2181 -0.2239 -0.3686
  474SOL    HW1 1421   3.100   3.121   1.466 -1.3360  2.0970 -0.3063
  474SOL    HW2 1422   2.961   0.071   1.529 -0.7320  1.6445 -1.6884
  475SOL     OW 1423   2.011   2.968   1.898  0.0403 -0.3970 -0.3823
  475SOL    HW1 1424   2.107   2.999   1.923 -1.8626  0.2812 -0.1407
  475SOL    HW2 1425   1.937   3.019   1.946 -3.0787  1.6213 -0.2908
  476SOL     OW 1426   0.436   0.548   0.888  0.1033  0.0801  0.4221
  476SOL    HW1 1427   0.517   0.491   0.864  1.1067 -1.9912 -1.6413
  476SOL    HW2 1428   0.352   0.488   0.906 -0.3081 -0.8543 -2.5325
  477SOL     OW 1429   0.699   2.036   0.942  0.5555  0.5115  0.3947
  477SOL    HW1 1430   0.631   2.103   0.899  1.3134 -1.9508  0.2981
  477SOL    HW2 1431   0.798   2.064   0.916 -2.0636 -1.7863 -0.7193
  478SOL     OW 1432   0.894   2.472   2.665 -0.2613 -0.2689  0.1345
  478SOL    HW1 1433   0.945   2.519   2.593 -0.5016 -0.2513 -1.5269
  478SOL    HW2 1434   0.852   2.528   2.739  1.4974 -0.4113  3.8370
  479SOL     OW 1435   0.086   0.827   2.142 -0.0683 -0.0359  0.1641
  479SOL    HW1 1436   3.114   0.851   2.159  3.2436 -1.4756 -0.0797
  479SOL    HW2 1437   0.091   0.736   2.102 -0.1466  4.0817  2.6074
  480SOL     OW 1438   0.264   2.320   3.021  0.2973  0.5309 -0.1835
  480SOL    HW1 1439   0.232   2.236   3.072  0.6088  0.8149  0.8042
  480SOL    HW2 1440   0.179   2.365   2.983 -0.5808 -0.5111 -1.1620
  481SOL     OW 1441   1.644   3.123   2.228 -0.6060  0.1001 -0.4908
  481SOL    HW1 1442   1.697   0.018   2.316  1.4779 -0.6638 -1.9785
  481SOL    HW2 1443   1.603   0.079   2.182 -0.0276 -0.5368  1.7310
  482SOL     OW 1444   1.709   1.953   3.085  0.4103  0.0401 -0.1405
  482SOL    HW1 1445   1.700   1.915   0.053  2.0054  2.3409 -3.6915
  482SOL    HW2 1446   1.620   1.981   3.053 -0.9878  1.0364 -0.7507
  483SOL     OW 1447   1.128   2.722   2.571  0.0072  0.8433  0.5627
  483SOL    HW1 1448   1.187   2.640   2.607  2.8204 -3.1438 -0.4595
  483SOL    HW2 1449   1.084   2.772   2.654 -0.5830  1.4329  0.1260
  484SOL     OW 1450   0.632   2.706   0.838  0.3219  0.4883  0.0620
  484SOL    HW1 1451   0.689   2.778   0.880 -1.6166  1.4835  0.0292
  484SOL    HW2 1452   0.546   2.688   0.894 -1.0412  0.6234 -1.1233
  485SOL     OW 1453   2.032   0.768   0.770  0.5699  0.0106 -0.0500
  485SOL    HW1 1454   1.981   0.851   0.794 -0.1563 -0.0040 -2.3609
  485SOL    HW2 1455   2.009   0.693   0.837 -0.6453 -0.9964 -0.3358
  486SOL     OW 1456   1.944   2.775   2.091  0.4592  0.2849 -0.9097
  486SOL    HW1 1457   2.017   2.757   2.156 -2.9804 -0.9560 -1.6845
  486SOL    HW2 1458   1.968   2.843   2.019  0.4575  0.2191  0.1105
  487SOL     OW 1459   1.282   1.819   0.510 -1.0343  0.0709  0.0684
  487SOL    HW1 1460   1.203   1.759   0.492 -0.0903  2.7286 -2.7304
  487SOL    HW2 1461   1.264   1.902   0.565  0.0923 -3.3641 -1.4071
  488SOL     OW 1462   2.077   0.294   0.183 -0.5769 -0.4904  0.3210
  488SOL    HW1 1463   2.135   0.349   0.241 -0.8135 -0.3065 -0.3027
  488SOL    HW2 1464   2.067   0.330   0.088  0.8235  0.0355  0.7646
  489SOL     OW 1465   2.080   2.980   0.499 -0.3800 -0.1416  0.4731
  489SOL    HW1 1466   2.093   3.078   0.515 -0.0468  0.8076 -1.0590
  489SOL    HW2 1467   1.979   2.954   0.510  0.6642 -0.1831  0.3568
  490SOL     OW 1468   1.645   2.919   3.009 -0.1634  0.1290  0.0607
  490SOL    HW1 1469   1.699   2.910   3.096  2.1073 -1.2393  2.4483
  490SOL    HW2 1470   1.568   2.980   3.016  0.7889  2.3915 -3.7511
  491SOL     OW 1471   0.983   0.253   1.020  0.6329 -0.2960 -0.1258
  491SOL    HW1 1472   1.072   0.206   1.027 -3.3591  2.9310 -2.7458
  491SOL    HW2 1473   0.907   0.197   1.063 -1.0641 -1.3829 -0.4389
  492SOL     OW 1474   1.693   2.927   0.327  0.1660 -0.2695  0.2994
  492SOL    HW1 1475   1.736   2.945   0.418 -1.1404 -0.1217 -2.0569
  492SOL    HW2 1476   1.752   2.934   0.245 -1.7372 -1.8375  2.0313
  493SOL     OW 1477   1.857   2.594   2.716 -0.5015  0.1020  0.4185
  493SOL    HW1 1478   1.775   2.562   2.763  1.8262 -2.7748  0.6305
  493SOL    HW2 1479   1.941   2.548   2.755 -0.1344  0.1526  0.2618
  494SOL     OW 1480   0.640   1.193   0.834  0.2322 -0.6634  0.1332
  494SOL    HW1 1481   0.638   1.154   0.928 -0.4713  0.1705  0.1261
  494SOL    HW2 1482   0.567   1.159   0.771 -0.2610 -0.0015  1.1411
  495SOL     OW 1483   2.999   0.264   1.835  0.6864 -0.0208 -0.7044
  495SOL    HW1 1484   3.088   0.238   1.807 -0.6596 -0.4141  0.0774
  495SOL    HW2 1485   2.988   0.250   1.935 -1.5343 -2.2695 -1.4191
  496SOL     OW 1486   2.606   2.372   2.149 -0.4415  0.6136  0.3707
  496SOL    HW1 1487   2.708   2.369   2.134 -2.8080 -0.9668  0.7037
  496SOL    HW2 1488   2.584   2.435   2.221  1.2232 -1.6692 -1.9003
  497SOL     OW 1489   1.624   1.216   2.727  0.3437  0.0801 -0.0567
  497SOL    HW1 1490   1.628   1.198   2.625 -2.4855 -1.8840  0.5087
  497SOL    HW2 1491   1.636   1.134   2.783 -1.9090 -0.1634  1.3230
  498SOL     OW 1492   0.754   1.801   0.651 -0.1969  0.6192 -0.3687
  498SOL    HW1 1493   0.680   1.769   0.594  2.4123  1.1324  1.2748
  498SOL    HW2 1494   0.723   1.825   0.748 -2.9712 -1.4288 -0.4191
  499SOL     OW 1495   0.280   1.638   1.110 -0.3087 -0.8289  0.7319
  499SOL    HW1 1496   0.175   1.650   1.119  0.3105  2.1177  2.7178
  499SOL    HW2 1497   0.330   1.667   1.195 -0.7828  2.0276  0.9146
  500SOL     OW 1498   1.648   2.582   0.431  0.2618 -0.1058 -0.1093
  500SOL    HW1 1499   1.588   2.655   0.395  2.5959  1.2722 -1.8642
  500SOL    HW2 1500   1.594   2.532   0.502  1.8097 -0.0922 -0.0729
  501SOL     OW 1501   1.984   2.512   1.042  0.0495 -0.5421  0.5301
  501SOL    HW1 1502   2.082   2.492   1.056  2.8303 -2.1066  2.2232
  501SOL    HW2 1503   1.966   2.581   0.970  0.8620  2.0559  3.4484
  502SOL     OW 1504   0.397   0.640   1.414 -0.7223  0.4798  0.0849
  502SOL    HW1 1505   0.326   0.683   1.364  0.3194 -0.1352  2.1740
  502SOL    HW2 1506   0.458   0.581   1.354  1.0315  2.2801  0.1799
  503SOL     OW 1507   2.126   0.243   1.576 -0.1713  0.3226 -0.0682
  503SOL    HW1 1508   2.053   0.234   1.507 -0.8107 -2.7534 -0.1673
  503SOL    HW2 1509   2.163   0.148   1.581  1.5058 -2.3581 -2.1424
  504SOL     OW 1510   2.019   0.955   2.032 -0.2753  0.0579 -0.1931
  504SOL    HW1 1511   1.972   1.013   2.099  0.1531 -1.6856  0.7915
  504SOL    HW2 1512   2.045   1.003   1.947 -1.9957 -0.5506 -1.8310
  505SOL     OW 1513   1.219   3.042   2.113 -0.3230  0.3797  0.0014
  505SOL    HW1 1514   1.192   0.016   2.114 -1.3628 -2.4819 -0.4902
  505SOL    HW2 1515   1.267   3.008   2.198  2.9245 -0.3700  3.6071
  506SOL     OW 1516   0.542   0.311   1.884 -0.4587  0.4537  0.0709
  506SOL    HW1 1517   0.550   0.344   1.789 -1.1945 -1.0954  0.2803
  506SOL    HW2 1518   0.637   0.289   1.914 -0.1750  0.8273 -1.6513
  507SOL     OW 1519   1.666   0.197   2.941  0.0190  0.5720 -0.0577
  507SOL    HW1 1520   1.671   0.256   3.024  0.2080  0.9278 -0.9716
  507SOL    HW2 1521   1.615   0.111   2.969  0.0680 -0.6840  1.4469
  508SOL     OW 1522   2.269   0.634   2.498 -0.2661  0.2474  0.2940
  508SOL    HW1 1523   2.274   0.590   2.589  2.7547 -0.7782  1.5779
  508SOL    HW2 1524   2.349   0.691   2.472 -1.2232  0.9289 -0.3403
  509SOL     OW 1525   0.663   1.355   2.085 -0.2213  0.0681 -0.4948
  509SOL    HW1 1526   0.674   1.357   2.188 -0.2784  0.2157  2.0987
  509SOL    HW2 1527   0.711   1.431   2.037 -0.0158 -1.7831 -1.4321
  510SOL     OW 1528   2.959   0.443   0.970  0.6272 -0.0091  0.0151
  510SOL    HW1 1529   2.986   0.517   1.039  1.9474  0.9321  0.8450
  510SOL    HW2 1530   2.931   0.497   0.890  0.5776  1.6014  1.2052
  511SOL     OW 1531   1.760   1.514   1.043  0.6916  0.1678 -0.2625
  511SOL    HW1 1532   1.760   1.585   0.966  0.5907 -0.4207  1.0256
  511SOL    HW2 1533   1.759   1.570   1.133 -2.1560  0.6251  0.5290
  512SOL     OW 1534   0.666   1.231   0.487  0.8162 -0.0795  0.4335
  512SOL    HW1 1535   0.594   1.209   0.558  0.7390 -2.0566  2.4709
  512SOL    HW2 1536   0.682   1.334   0.483 -1.0376  1.1639  0.2369
  513SOL     OW 1537   0.573   2.252   0.844 -0.0106  0.0317 -0.3481
  513SOL    HW1 1538   0.479   2.238   0.818  3.7928  1.3639 -0.7518
  513SOL    HW2 1539   0.617   2.340   0.806  2.2101  1.7353 -1.2061
  514SOL     OW 1540   0.185   2.106   0.037  0.0566 -0.1920 -0.1670
  514SOL    HW1 1541   0.100   2.139   0.091 -1.0921 -1.6714  0.5431
  514SOL    HW2 1542   0.248   2.048   0.094 -0.6010 -0.3902  0.3316
  515SOL     OW 1543   2.929   0.314   0.192 -0.0306  0.1460 -0.2416
  515SOL    HW1 1544   2.866   0.250   0.141 -1.1687 -1.7570 -0.0656
  515SOL    HW2 1545   2.896   0.323   0.287 -2.8196  0.8611  2.3870
  516SOL     OW 1546   2.008   3.056   1.048 -0.0751  0.4438  0.2573
  516SOL    HW1 1547   1.933   3.034   1.115 -1.4801  1.0814  0.7280
  516SOL    HW2 1548   2.083   2.986   1.054  0.5945 -2.1622  1.0606
  517SOL     OW 1549   1.215   1.544   0.367  0.2731  0.1465  0.0148
  517SOL    HW1 1550   1.243   1.474   0.436  0.7636  1.8128 -3.2341
  517SOL    HW2 1551   1.112   1.547   0.359  1.5682  1.1218 -0.8999
  518SOL     OW 1552   1.503   0.772   1.394  0.2063  0.5428  0.2935
  518SOL    HW1 1553   1.471   0.699   1.328 -1.5776 -0.1875 -0.9459
  518SOL    HW2 1554   1.539   0.851   1.339  1.3354  0.1903  0.1014
  519SOL     OW 1555   2.631   2.325   0.356  0.3679 -0.6846 -0.2920
  519SOL    HW1 1556   2.643   2.245   0.419  0.0368 -2.7101  0.2665
  519SOL    HW2 1557   2.681   2.314   0.267  1.8477 -2.0410 -4.4903
  520SOL     OW 1558   2.148   2.122   1.895  0.2380 -0.1536 -0.0786
  520SOL    HW1 1559   2.142   2.021   1.879  0.5104 -0.2243 -1.4271
  520SOL    HW2 1560   2.244   2.150   1.920  2.0903 -0.5566  2.6050
  521SOL     OW 1561   1.526   2.873   2.224  0.8726 -0.1857  0.2275
  521SOL    HW1 1562   1.506   2.827   2.315  2.1580 -2.1667  1.7867
  521SOL    HW2 1563   1.576   2.964   2.231 -0.0867 -0.7097  1.0417
  522SOL     OW 1564   2.915   0.276   2.100  0.6974  0.2305  0.1329
  522SOL    HW1 1565   2.974   0.312   2.173  0.9039  0.5236  0.5702
  522SOL    HW2 1566   2.894   0.179   2.121  3.2457  0.5826  0.4750
  523SOL     OW 1567   1.088   2.122   1.547  0.3955  0.0923  0.0333
  523SOL    HW1 1568   1.033   2.191   1.598 -0.1368 -0.1452  1.1417
  523SOL    HW2 1569   1.023   2.072   1.486 -3.0897 -1.0240 -1.1391
  524SOL     OW 1570   2.179   2.171   2.886  0.4890 -0.0841  0.7750
  524SOL    HW1 1571   2.269   2.135   2.915  2.0574 -0.8734  2.0181
  524SOL    HW2 1572   2.133   2.104   2.824  0.5800  2.3412 -1.5773
  525SOL     OW 1573   2.807   0.994   0.324 -0.2734 -0.3735  0.0456
  525SOL    HW1 1574   2.894   0.936   0.342 -0.4232 -2.3152  4.8332
  525SOL    HW2 1575   2.760   0.968   0.239  0.5592 -0.1872  1.2723
  526SOL     OW 1576   1.094   2.834   1.086 -1.0025 -0.1720 -0.1839
  526SOL    HW1 1577   1.090   2.745   1.036 -0.6032 -0.4840 -1.2841
  526SOL    HW2 1578   1.004   2.855   1.128  0.7592 -1.4765 -1.1080
  527SOL     OW 1579   2.320   1.466   0.656  0.4157 -0.5399  0.0933
  527SOL    HW1 1580   2.238   1.411   0.680  0.0563  0.1594 -1.2544
  527SOL    HW2 1581   2.342   1.450   0.554  1.0106  0.2940 -1.2742
  528SOL     OW 1582   0.447   0.830   2.718  0.8680  0.4233  0.1913
  528SOL    HW1 1583   0.531   0.856   2.668 -1.9058  0.2723  1.7783
  528SOL    HW2 1584   0.362   0.821   2.654 -1.2444  0.2987  2.4149
  529SOL     OW 1585   0.445   1.425   3.089 -0.0735 -0.2214 -0.3385
  529SOL    HW1 1586   0.383   1.477   3.027  0.4607 -1.0933  1.7237
  529SOL    HW2 1587   0.398   1.342   0.003  1.3913 -1.3991  1.0573
  530SOL     OW 1588   1.520   1.219   1.949 -0.1529 -0.2563  0.1186
  530SOL    HW1 1589   1.604   1.162   1.933 -1.0043  0.3449  0.9529
  530SOL    HW2 1590   1.459   1.166   2.006  0.6360  1.2614 -1.8942
  531SOL     OW 1591   1.359   2.312   2.919 -0.3468 -0.0386  0.2381
  531SOL    HW1 1592   1.267   2.297   2.877 -0.0602  2.0030  0.5322
  531SOL    HW2 1593   1.397   2.232   2.963 -0.8080  3.2001 -1.1028
  532SOL     OW 1594   2.225   0.621   0.025  0.2727 -0.5042 -0.5274
  532SOL    HW1 1595   2.223   0.686   0.106  0.2635 -1.7879 -1.0112
  532SOL    HW2 1596   2.308   0.560   0.032  0.7691  1.3933 -0.7268
  533SOL     OW 1597   3.001   0.594   1.832  0.1915  0.1571 -0.2500
  533SOL    HW1 1598   3.020   0.499   1.796  1.9258 -2.7976 -1.0179
  533SOL    HW2 1599   2.909   0.611   1.877 -0.8957 -0.0002 -0.5655
  534SOL     OW 1600   1.853   0.117   0.233  0.2899  0.3769  0.2523
  534SOL    HW1 1601   1.885   0.021   0.225  0.2232  0.4675 -4.0478
  534SOL    HW2 1602   1.923   0.186   0.210 -0.7111 -1.3684 -0.4042
  535SOL     OW 1603   0.545   0.348   0.005 -0.1911 -0.2950 -0.2707
  535SOL    HW1 1604   0.577   0.443   3.118  1.1714 -2.7714  1.1593
  535SOL    HW2 1605   0.592   0.292   3.053  1.1544 -0.4859 -0.9117
  536SOL     OW 1606   0.338   1.555   1.704 -0.5730 -0.1189  0.2332
  536SOL    HW1 1607   0.243   1.593   1.680 -3.8684  2.2263 -1.3387
  536SOL    HW2 1608   0.390   1.545   1.615  1.3984  2.0650 -2.6795
  537SOL     OW 1609   0.315   2.668   1.958 -0.2406 -0.4188  0.4408
  537SOL    HW1 1610   0.391   2.689   1.893 -0.2682 -0.5038  3.8472
  537SOL    HW2 1611   0.331   2.723   2.042  3.8156 -0.3238 -1.8796
  538SOL     OW 1612   3.040   2.199   0.188  0.5980 -0.0370  0.3673
  538SOL    HW1 1613   3.033   2.298   0.211 -0.7849  0.6511 -2.7892
  538SOL    HW2 1614   2.963   2.169   0.132 -0.8386  1.1375  0.4298
  539SOL     OW 1615   2.432   0.615   2.875  0.1455 -0.2589  0.0553
  539SOL    HW1 1616   2.512   0.632   2.810  1.0424 -0.0730 -0.3185
  539SOL    HW2 1617   2.383   0.704   2.902 -2.9080 -0.1951 -0.3864
  540SOL     OW 1618   1.631   0.782   0.173  0.4978 -0.6498  0.3075
  540SOL    HW1 1619   1.681   0.871   0.159 -1.8121  2.2828 -0.1799
  540SOL    HW2 1620   1.531   0.799   0.161 -3.0905  0.1575 -2.5171
  541SOL     OW 1621   0.930   0.486   1.918  0.1284  0.5233  0.9207
  541SOL    HW1 1622   0.890   0.508   2.007  1.7138 -1.5629  2.3086
  541SOL    HW2 1623   0.890   0.541   1.839 -3.7508 -0.5341  0.1547
  542SOL     OW 1624   1.853   2.462   2.301 -0.2837 -0.8323  0.3465
  542SOL    HW1 1625   1.825   2.561   2.301  0.2895 -0.0502 -1.0841
  542SOL    HW2 1626   1.842   2.427   2.206 -0.3727  1.4202  0.3519
  543SOL     OW 1627   0.968   2.965   0.703 -0.0877  0.3512 -1.0333
  543SOL    HW1 1628   1.020   3.047   0.676 -0.7095 -1.6260  2.1617
  543SOL    HW2 1629   0.899   2.933   0.633 -1.7585  1.4753 -0.6843
  544SOL     OW 1630   2.727   1.794   2.215 -0.4964 -0.2594  0.3100
  544SOL    HW1 1631   2.758   1.888   2.189 -0.0898  3.1981 -2.8347
  544SOL    HW2 1632   2.625   1.775   2.206  0.8728  0.5680 -1.0369
  545SOL     OW 1633   1.518   1.947   1.347 -0.1501  0.2385 -0.6861
  545SOL    HW1 1634   1.430   2.003   1.334 -1.3603 -2.6305  0.4853
  545SOL    HW2 1635   1.484   1.852   1.354 -0.1071  1.5841 -1.0218
  546SOL     OW 1636   0.603   0.042   2.416 -0.0420 -0.1139 -0.2385
  546SOL    HW1 1637   0.569   0.140   2.415 -0.6774 -2.7189 -0.4904
  546SOL    HW2 1638   0.524   3.098   2.420 -0.2198 -0.5756  0.0994
  547SOL     OW 1639   1.331   0.255   0.505 -0.1868 -0.4023 -0.4306
  547SOL    HW1 1640   1.286   0.260   0.598  0.1329 -1.5250  2.5571
  547SOL    HW2 1641   1.256   0.274   0.436 -0.9646  1.6599 -1.3522
  548SOL     OW 1642   1.447   2.059   3.003 -0.0309  0.1485 -0.1272
  548SOL    HW1 1643   1.466   1.975   2.956  0.2244  0.4323  4.8266
  548SOL    HW2 1644   1.353   2.063   3.039  1.9959  0.9588 -3.9424
  549SOL     OW 1645   1.808   1.004   0.205  0.1098  0.3129  0.1587
  549SOL    HW1 1646   1.895   1.021   0.255 -0.3956  1.5151  0.1086
  549SOL    HW2 1647   1.781   1.088   0.148 -0.5859  1.9999  0.3783
  550SOL     OW 1648   2.381   1.936   0.262 -0.3393  0.1976  0.2739
  550SOL    HW1 1649   2.364   1.873   0.341 -0.9044 -1.9107 -0.6779
  550SOL    HW2 1650   2.406   2.026   0.305 -0.0944  0.1009  0.2011
  551SOL     OW 1651   1.427   0.588   1.631 -0.2642 -0.1080 -0.4277
  551SOL    HW1 1652   1.464   0.658   1.565  3.4656 -1.0967 -3.2116
  551SOL    HW2 1653   1.487   0.577   1.711  1.8032  0.2022 -2.2784
  552SOL     OW 1654   0.012   2.447   2.981 -0.0189 -0.3486 -0.1657
  552SOL    HW1 1655   3.061   2.425   2.920  1.6989  0.0297  0.6672
  552SOL    HW2 1656   3.094   2.509   3.056 -3.0458  1.0031  2.9604
  553SOL     OW 1657   2.955   2.515   0.733  0.1562 -0.0505  0.3044
  553SOL    HW1 1658   3.010   2.434   0.701 -1.9744 -1.4312  0.0510
  553SOL    HW2 1659   2.938   2.507   0.835  0.9362 -1.4686 -1.6334
  554SOL     OW 1660   1.948   1.812   1.667 -0.4076  0.3656  0.4797
  554SOL    HW1 1661   1.979   1.721   1.645  0.5698  0.4332 -0.4855
  554SOL    HW2 1662   1.877   1.806   1.737 -1.8378  4.2900  0.9857
  555SOL     OW 1663   1.522   2.141   2.285 -0.3004  0.2161 -0.6690
  555SOL    HW1 1664   1.436   2.103   2.330 -2.0146 -0.8082  0.7354
  555SOL    HW2 1665   1.512   2.226   2.229  1.3310 -0.6133 -0.5342
  556SOL     OW 1666   1.109   1.655   1.360  0.1938  0.4713  0.1942
  556SOL    HW1 1667   1.153   1.727   1.421  0.4768  0.6485  2.9873
  556SOL    HW2 1668   1.147   1.561   1.375  0.8359 -0.0249  0.3275
  557SOL     OW 1669   1.491   0.188   1.641 -0.1375  0.5657  0.2671
  557SOL    HW1 1670   1.530   0.192   1.733 -3.4413  0.3763 -3.7320
  557SOL    HW2 1671   1.392   0.182   1.652  1.6572  1.5069  0.4925
  558SOL     OW 1672   0.494   3.025   2.097 -0.1231 -0.1681  0.1834
  558SOL    HW1 1673   0.468   3.002   2.001  1.6233 -1.1786  1.4793
  558SOL    HW2 1674   0.481   0.003   2.118 -0.8732  0.5810  0.1416
  559SOL     OW 1675   2.096   2.387   0.168 -0.0670  0.0875  0.3996
  559SOL    HW1 1676   2.030   2.455   0.125 -1.0838  0.5504  0.7430
  559SOL    HW2 1677   2.108   2.402   0.267  0.3318  0.0027 -0.2298
  560SOL     OW 1678   1.452   2.182   0.230  0.3619  0.1789 -0.0189
  560SOL    HW1 1679   1.471   2.087   0.257 -0.0455  2.6973 -0.1144
  560SOL    HW2 1680   1.541   2.228   0.192 -0.2064  1.1970 -3.0670
  561SOL     OW 1681   1.253   0.369   3.097  0.7593  0.1124 -0.0543
  561SOL    HW1 1682   1.201   0.451   3.071 -2.8857  0.0411  2.6659
  561SOL    HW2 1683   1.342   0.399   0.014  1.6149 -0.4856 -2.4087
  562SOL     OW 1684   0.323   1.602   2.123 -0.0296  0.2658 -0.0137
  562SOL    HW1 1685   0.313   1.502   2.122  0.8318  0.8796 -0.0387
  562SOL    HW2 1686   0.396   1.629   2.054  1.6082  1.1440  1.1204
  563SOL     OW 1687   1.309   2.023   2.638  0.2041 -0.6731  0.0745
  563SOL    HW1 1688   1.291   2.043   2.535  0.9479  0.1581  1.2482
  563SOL    HW2 1689   1.408   2.001   2.651 -1.8474  2.7001  0.7544
  564SOL     OW 1690   2.825   0.858   0.806 -0.8822  0.3151  0.2284
  564SOL    HW1 1691   2.808   0.762   0.846 -0.3648 -0.6411 -0.5295
  564SOL    HW2 1692   2.798   0.924   0.881  1.6443 -2.7381  0.9922
  565SOL     OW 1693   0.376   1.191   0.104 -0.2681 -0.2258 -0.0029
  565SOL    HW1 1694   0.315   1.129   0.050 -0.1821 -3.9030  0.8581
  565SOL    HW2 1695   0.376   1.164   0.203 -1.5660  1.0858 -0.8105
  566SOL     OW 1696   2.577   2.768   2.646 -0.5599  0.2464 -0.4889
  566SOL    HW1 1697   2.669   2.762   2.693 -1.0316 -0.3796 -0.5029
  566SOL    HW2 1698   2.509   2.826   2.698  2.2647  1.7988 -0.7498
  567SOL     OW 1699   1.587   1.275   1.081 -0.0184  0.1729 -0.2421
  567SOL    HW1 1700   1.635   1.361   1.049  0.0546 -1.0943  2.5933
  567SOL    HW2 1701   1.628   1.245   1.170  0.3164 -0.9284 -3.5102
  568SOL     OW 1702   1.408   1.314   2.861  0.0934 -0.1905 -0.5886
  568SOL    HW1 1703   1.323   1.332   2.813  1.0551 -0.9831 -0.3607
  568SOL    HW2 1704   1.476   1.272   2.795 -1.6576 -1.2209 -2.9439
  569SOL     OW 1705   2.249   1.734   3.009 -0.2214 -0.3099  0.0613
  569SOL    HW1 1706   2.295   1.799   3.072 -2.0396 -0.2531 -0.3138
  569SOL    HW2 1707   2.150   1.714   3.039 -2.9048 -0.9797 -3.3529
  570SOL     OW 1708   3.068   2.379   1.846  0.2446  0.3259 -0.0921
  570SOL    HW1 1709   0.002   2.312   1.898  3.0931 -1.6481  1.7332
  570SOL    HW2 1710   3.112   2.475   1.859  1.7117  2.4404  1.3603
  571SOL     OW 1711   2.797   1.787   1.604  0.8097 -0.0291 -0.6052
  571SOL    HW1 1712   2.797   1.701   1.554 -0.7959  3.4408 -0.3646
  571SOL    HW2 1713   2.815   1.778   1.701 -1.6906 -0.3774 -2.0326
  572SOL     OW 1714   1.799   2.280   0.387 -0.7734 -0.0774  0.6456
  572SOL    HW1 1715   1.746   2.321   0.310 -0.9398 -0.4733 -0.0828
  572SOL    HW2 1716   1.900   2.310   0.390  1.2998 -1.1587 -0.8523
  573SOL     OW 1717   1.505   1.906   0.369 -0.0294  0.0326 -0.3175
  573SOL    HW1 1718   1.573   1.977   0.407  1.0327 -0.2742  0.5286
  573SOL    HW2 1719   1.421   1.891   0.422  1.3014  0.2734 -3.0227
  574SOL     OW 1720   1.487   3.114   1.439 -0.2841  0.5143 -0.3209
  574SOL    HW1 1721   1.528   3.019   1.457  1.3115 -2.3135 -2.2730
  574SOL    HW2 1722   1.496   0.039   1.529  3.2990  1.5373  4.2334
  575SOL     OW 1723   0.350   1.122   1.192  0.3790  0.5246  0.7720
  575SOL    HW1 1724   0.415   1.061   1.139  1.5212 -0.3837  0.5956
  575SOL    HW2 1725   0.341   1.220   1.156 -0.6282  2.4775  1.1742
  576SOL     OW 1726   2.604   0.596   1.297 -0.1424  0.1244  0.5797
  576SOL    HW1 1727   2.704   0.624   1.289  4.8066 -0.6410  0.9139
  576SOL    HW2 1728   2.598   0.500   1.336 -1.0161 -0.5432  2.2004
  577SOL     OW 1729   1.385   0.681   2.566 -0.0661 -0.1165  0.1650
  577SOL    HW1 1730   1.323   0.733   2.628  0.9847 -0.3658 -1.5224
  577SOL    HW2 1731   1.366   0.707   2.471 -0.6737  3.6921 -0.6224
  578SOL     OW 1732   2.157   1.259   2.591  0.6864  0.0344  0.1108
  578SOL    HW1 1733   2.147   1.204   2.680 -0.7096 -0.6301  2.6850
  578SOL    HW2 1734   2.174   1.350   2.622  1.1582  0.2363  1.6781
  579SOL     OW 1735   0.733   1.825   1.421 -0.1771 -0.4632  0.3935
  579SOL    HW1 1736   0.677   1.868   1.494  0.0150  1.8755 -2.6223
  579SOL    HW2 1737   0.675   1.778   1.352 -1.2659 -3.1162 -1.5611
  580SOL     OW 1738   1.663   2.341   0.147  0.0095 -0.2522 -0.3335
  580SOL    HW1 1739   1.599   2.419   0.134  0.1969  0.9574  1.3017
  580SOL    HW2 1740   1.722   2.332   0.066 -1.4120  1.6858  0.8856
  581SOL     OW 1741   0.923   0.767   2.080 -0.0843  0.6512 -0.0234
  581SOL    HW1 1742   0.821   0.769   2.077  1.2961  0.3691 -1.0431
  581SOL    HW2 1743   0.960   0.699   2.146  1.0537 -0.6173 -0.2939
  582SOL     OW 1744   0.749   1.245   1.265 -0.4319 -0.1042 -0.0397
  582SOL    HW1 1745   0.813   1.163   1.278  1.3763 -0.0585  1.7251
  582SOL    HW2 1746   0.739   1.295   1.352  0.6169  0.8294 -0.8667
  583SOL     OW 1747   0.686   1.194   1.879 -0.2594 -0.0918 -0.0383
  583SOL    HW1 1748   0.641   1.199   1.790  3.5815  2.1803  0.1667
  583SOL    HW2 1749   0.649   1.264   1.944  2.4895 -3.0388 -0.9569
  584SOL     OW 1750   2.108   2.790   0.296  0.0173 -0.1421 -0.1779
  584SOL    HW1 1751   2.013   2.756   0.309  1.9227  1.3393 -1.8538
  584SOL    HW2 1752   2.132   2.869   0.358  0.1485 -0.3452 -0.3512
  585SOL     OW 1753   1.935   0.135   2.895 -0.5246  0.3345  0.4603
  585SOL    HW1 1754   1.835   0.127   2.911  1.5579 -1.7714  1.6920
  585SOL    HW2 1755   1.944   0.162   2.797 -2.2476 -1.5859 -0.5484
  586SOL     OW 1756   3.030   1.932   0.580  0.2849 -0.2122 -0.2314
  586SOL    HW1 1757   2.991   1.874   0.504  0.1952 -0.7029  0.5771
  586SOL    HW2 1758   3.091   1.999   0.534  1.2444  0.2619  0.5118
  587SOL     OW 1759   1.942   1.810   0.314 -0.2411 -0.2715  0.1698
  587SOL    HW1 1760   1.979   1.718   0.352  0.3758 -2.6177  0.8543
  587SOL    HW2 1761   2.019   1.866   0.274 -1.7390 -1.4511 -1.3351
  588SOL     OW 1762   0.425   0.175   0.720 -0.6258  0.3749 -0.2076
  588SOL    HW1 1763   0.471   0.165   0.811  0.1439 -2.5126  0.5453
  588SOL    HW2 1764   0.488   0.206   0.650 -3.1879 -3.5432 -0.3360
  589SOL     OW 1765   1.316   0.842   1.011 -0.3621  0.2752  0.1452
  589SOL    HW1 1766   1.313   0.908   0.930 -1.3000  1.2367 -0.2792
  589SOL    HW2 1767   1.316   0.890   1.100  1.3221 -1.3484 -0.1364
  590SOL     OW 1768   1.291   1.131   0.200 -0.2118  0.0059  0.3141
  590SOL    HW1 1769   1.308   1.230   0.198 -1.0598 -2.0636  1.1958
  590SOL    HW2 1770   1.248   1.100   0.286  1.2369 -2.7297 -1.8645
  591SOL     OW 1771   2.734   2.417   2.475  0.2494  0.2935  0.8255
  591SOL    HW1 1772   2.654   2.459   2.435  2.2123  0.1962 -0.4098
  591SOL    HW2 1773   2.816   2.451   2.421  1.6779  2.1361 -1.6116
  592SOL     OW 1774   1.615   2.015   1.097  0.0029 -0.2868 -0.4057
  592SOL    HW1 1775   1.701   1.972   1.067 -1.7067 -2.3863  1.0695
  592SOL    HW2 1776   1.596   1.985   1.196  0.3711  1.8653 -1.1769
  593SOL     OW 1777   1.197   0.113   1.140  0.3706 -0.4411 -0.3016
  593SOL    HW1 1778   1.247   0.033   1.093  0.0342  0.1687 -1.7822
  593SOL    HW2 1779   1.261   0.183   1.185 -0.4870 -1.6513 -0.2729
  594SOL     OW 1780   2.907   0.664   2.370 -0.4348 -0.5585 -0.4857
  594SOL    HW1 1781   2.944   0.745   2.330 -3.2290 -0.8035  0.4506
  594SOL    HW2 1782   2.977   0.591   2.352 -0.5817 -1.9207  1.8589
  595SOL     OW 1783   0.601   2.518   1.211 -0.0477  0.0970  0.5540
  595SOL    HW1 1784   0.546   2.562   1.138 -0.0104  1.8488  1.3295
  595SOL    HW2 1785   0.562   2.428   1.241  0.7114  0.1209 -0.3308
  596SOL     OW 1786   0.214   0.740   1.238  0.5212 -0.0893  0.1034
  596SOL    HW1 1787   0.147   0.811   1.255  2.5593 -0.1737 -1.7550
  596SOL    HW2 1788   0.168   0.652   1.207  0.3213 -0.9345 -0.9315
  597SOL     OW 1789   1.695   1.768   0.204 -0.1314  0.2904  0.1060
  597SOL    HW1 1790   1.634   1.804   0.279  1.7620  0.4483  0.4170
  597SOL    HW2 1791   1.791   1.762   0.244  0.8001 -1.3561  1.9420
  598SOL     OW 1792   0.493   2.760   1.759  0.2903 -0.2235 -0.2405
  598SOL    HW1 1793   0.505   2.764   1.661 -0.8014  0.4218  5.7171
  598SOL    HW2 1794   0.577   2.733   1.807  0.6050  1.0539 -0.4238
  599SOL     OW 1795   2.417   2.038   2.904 -0.0595 -0.0385  0.0472
  599SOL    HW1 1796   2.402   1.981   2.822 -0.7802  0.2899 -0.6592
  599SOL    HW2 1797   2.434   1.981   2.991  0.0126 -1.4337 -0.3365
  600SOL     OW 1798   0.699   0.782   0.321  0.2065  0.3134 -0.1079
  600SOL    HW1 1799   0.698   0.884   0.316 -0.1381 -0.9726  0.4652
  600SOL    HW2 1800   0.751   0.749   0.404  0.9817 -2.2001  3.5214
  601SOL     OW 1801   0.831   0.770   0.557  0.3912  0.3073 -0.3359
  601SOL    HW1 1802   0.815   0.848   0.615 -3.6948 -2.7751 -1.8835
  601SOL    HW2 1803   0.907   0.710   0.599  2.9393 -2.2719  3.2813
  602SOL     OW 1804   1.392   2.945   0.782 -0.1551  0.0179 -0.2228
  602SOL    HW1 1805   1.468   3.005   0.803  1.0264 -1.4153 -2.7773
  602SOL    HW2 1806   1.370   2.955   0.679 -1.0375 -1.8578  0.2676
  603SOL     OW 1807   0.726   2.854   2.133  0.3868 -0.4871  0.2176
  603SOL    HW1 1808   0.633   2.901   2.127 -1.2953 -0.2747  0.6836
  603SOL    HW2 1809   0.792   2.900   2.069  3.1517  0.2715  0.5776
  604SOL     OW 1810   3.011   2.954   2.463 -0.4414 -0.8099  0.0146
  604SOL    HW1 1811   3.101   2.969   2.422 -1.6108 -0.9025  1.8286
  604SOL    HW2 1812   2.994   2.853   2.471 -1.7560  0.4961 -0.0479
  605SOL     OW 1813   2.618   2.057   1.249  0.6650  0.2251 -0.5299
  605SOL    HW1 1814   2.545   1.986   1.268 -2.9480 -1.9558  2.0765
  605SOL    HW2 1815   2.585   2.147   1.281 -0.3871  2.2092 -0.1956
  606SOL     OW 1816   0.234   1.571   3.018  0.0223 -0.8617  0.1632
  606SOL    HW1 1817   0.282   1.653   3.059 -1.1786  2.2358  3.7701
  606SOL    HW2 1818   0.210   1.589   2.919 -0.4678  0.3114  2.0302
  607SOL     OW 1819   0.765   3.046   0.313 -0.0234  0.6232  0.4319
  607SOL    HW1 1820   0.689   3.070   0.249 -2.2867 -1.6494 -1.3847
  607SOL    HW2 1821   0.794   3.118   0.375  1.1903 -1.5290  1.5330
  608SOL     OW 1822   1.668   1.081   2.503 -0.3836  0.4687  0.4929
  608SOL    HW1 1823   1.769   1.076   2.504  1.1667  1.3861  0.9827
  608SOL    HW2 1824   1.625   0.997   2.536  0.7122 -0.1953 -1.5384
  609SOL     OW 1825   0.017   0.240   0.895  0.2714 -0.0334  0.7643
  609SOL    HW1 1826   0.065   0.205   0.979  2.8400 -1.2849  1.5709
  609SOL    HW2 1827   3.069   0.307   0.923 -0.6258  0.1827  1.4660
  610SOL     OW 1828   0.638   2.889   0.651 -0.2578 -0.3949  0.4504
  610SOL    HW1 1829   0.719   2.860   0.588  2.8991 -2.9437 -0.9142
  610SOL    HW2 1830   0.619   2.807   0.711  0.5562  1.3419  0.7052
  611SOL     OW 1831   1.626   0.957   2.921 -0.2305  0.4803 -0.5014
  611SOL    HW1 1832   1.697   0.908   2.979 -0.0855  0.7820 -0.0617
  611SOL    HW2 1833   1.589   1.038   2.968  0.5251  1.2501 -1.9909
  612SOL     OW 1834   0.865   2.143   2.354 -0.1191  0.4595 -0.1625
  612SOL    HW1 1835   0.842   2.053   2.393  0.1097  0.9832  3.0563
  612SOL    HW2 1836   0.804   2.218   2.388  0.8759  0.4983  0.0969
  613SOL     OW 1837   0.986   2.416   0.158  0.4156  0.1412  0.1481
  613SOL    HW1 1838   0.918   2.367   0.221 -0.2053 -1.1330  0.9354
  613SOL    HW2 1839   1.079   2.375   0.166  0.7250  0.7543 -0.2171
  614SOL     OW 1840   2.861   2.854   1.515  0.1207 -0.0721  0.2166
  614SOL    HW1 1841   2.817   2.808   1.436 -1.3325  0.9493  0.6842
  614SOL    HW2 1842   2.836   2.951   1.526  0.3550 -1.9099 -1.9128
  615SOL     OW 1843   2.341   1.495   0.048 -0.1551 -0.5866 -0.1179
  615SOL    HW1 1844   2.361   1.592   0.018  0.0547  1.0014 -1.5014
  615SOL    HW2 1845   2.245   1.491   0.074  1.4775  0.7308 -1.9160
  616SOL     OW 1846   1.771   0.171   0.477  0.0905 -0.3580  0.6685
  616SOL    HW1 1847   1.768   0.157   0.380  0.2617  1.2483  1.3437
  616SOL    HW2 1848   1.681   0.151   0.519  1.2805  2.0104  1.8604
  617SOL     OW 1849   1.035   0.918   3.112 -0.1969 -0.2185 -0.0419
  617SOL    HW1 1850   1.069   0.833   3.074 -0.1704  4.0255  0.7139
  617SOL    HW2 1851   1.028   0.989   3.039 -0.0541  0.5931  3.1785
  618SOL     OW 1852   0.800   0.245   1.934 -0.3426  0.2656 -0.0962
  618SOL    HW1 1853   0.792   0.196   2.023 -3.2742  1.6013  1.3031
  618SOL    HW2 1854   0.860   0.327   1.939 -0.4232 -3.5967  0.6372
  619SOL     OW 1855   3.003   1.098   1.369 -1.2696  0.1295 -0.0290
  619SOL    HW1 1856   2.960   1.144   1.290  1.1134  0.0088  3.1464
  619SOL    HW2 1857   3.101   1.093   1.346  0.6758 -1.0467  2.2048
  620SOL     OW 1858   1.973   0.938   2.879  0.2532 -0.5287 -0.1460
  620SOL    HW1 1859   1.943   0.917   2.784 -0.4750  0.4351 -0.8007
  620SOL    HW2 1860   1.924   0.884   2.947  3.5023  0.4165 -0.9402
  621SOL     OW 1861   2.720   2.799   1.276  0.1856  0.3832  0.0265
  621SOL    HW1 1862   2.782   2.847   1.211 -1.4498 -1.0331  0.8145
  621SOL    HW2 1863   2.724   2.698   1.253  1.5651 -0.2357  0.4609
  622SOL     OW 1864   1.281   0.828   2.783  0.0056  0.1680  0.2299
  622SOL    HW1 1865   1.238   0.916   2.799 -2.4488  1.3212 -0.8577
  622SOL    HW2 1866   1.295   0.774   2.869  2.4482 -0.8708 -1.0054
  623SOL     OW 1867   1.123   0.616   3.020 -0.1761  0.3721 -0.0653
  623SOL    HW1 1868   1.210   0.656   3.054 -0.2170  2.3388 -0.5545
  623SOL    HW2 1869   1.120   0.631   2.920  2.4973 -1.2185  0.1697
  624SOL     OW 1870   1.768   0.535   0.184 -0.4099 -0.6803  0.2806
  624SOL    HW1 1871   1.704   0.613   0.193  2.4346  1.2427 -2.0205
  624SOL    HW2 1872   1.828   0.551   0.104 -1.1925  1.2641  2.0434
  625SOL     OW 1873   1.132   1.226   1.153  0.1487  0.5436  0.1413
  625SOL    HW1 1874   1.169   1.132   1.171 -1.9504  4.0094 -1.2031
  625SOL    HW2 1875   1.031   1.237   1.168  4.4825 -0.0345  1.1390
  626SOL     OW 1876   1.508   1.180   3.064 -0.1317 -0.3257 -0.2192
  626SOL    HW1 1877   1.455   1.171   0.028  1.2050  0.8467 -1.9000
  626SOL    HW2 1878   1.454   1.217   2.987 -0.6846  1.5078 -1.4141
  627SOL     OW 1879   0.947   2.987   2.013 -0.4436  0.0180 -0.4950
  627SOL    HW1 1880   0.954   3.010   1.912 -0.7278  0.3498 -1.1090
  627SOL    HW2 1881   1.036   2.952   2.046 -1.7757 -0.5392 -0.5187
  628SOL     OW 1882   2.499   0.354   2.250  0.1581  0.4646 -0.4291
  628SOL    HW1 1883   2.556   0.361   2.169  0.3986 -0.4093  1.5534
  628SOL    HW2 1884   2.553   0.375   2.337  1.8930  2.6978  0.9367
  629SOL     OW 1885   0.687   0.939   3.008 -0.5559 -0.6773 -0.7134
  629SOL    HW1 1886   0.759   0.946   2.935 -0.4573  1.5932 -0.7727
  629SOL    HW2 1887   0.693   0.852   3.064 -0.4278  0.0129  2.4769
  630SOL     OW 1888   1.212   0.206   2.134  0.3438  1.0071 -0.1741
  630SOL    HW1 1889   1.157   0.248   2.213  2.1182  0.8719  2.9245
  630SOL    HW2 1890   1.313   0.204   2.158  1.7848  1.2843  0.4672
  631SOL     OW 1891   2.870   0.573   0.730 -0.7591 -0.0681  0.2600
  631SOL    HW1 1892   2.770   0.550   0.719 -1.4898  0.5206 -0.0277
  631SOL    HW2 1893   2.927   0.538   0.650  1.4016  0.2908 -1.5638
  632SOL     OW 1894   2.254   1.120   1.141  0.1295  0.3595 -0.3984
  632SOL    HW1 1895   2.166   1.093   1.189  0.9038  0.8279 -0.8945
  632SOL    HW2 1896   2.299   1.034   1.110  0.5032 -0.8990  0.3134
  633SOL     OW 1897   1.570   0.698   1.013 -0.2574  0.5638  0.1873
  633SOL    HW1 1898   1.475   0.729   0.984 -2.0858  0.2887 -1.0043
  633SOL    HW2 1899   1.634   0.777   1.010 -0.4203 -0.6263 -1.4288
  634SOL     OW 1900   1.855   3.045   0.813  0.0637  0.0532  0.1033
  634SOL    HW1 1901   1.901   3.063   0.903 -0.3775  0.6021  1.1296
  634SOL    HW2 1902   1.755   3.047   0.830 -0.3358  1.5896  1.7174
  635SOL     OW 1903   1.598   0.980   1.230 -0.4322 -0.7756  0.3022
  635SOL    HW1 1904   1.613   0.947   1.134 -0.4536  0.9522 -1.7007
  635SOL    HW2 1905   1.663   1.055   1.249  0.6117 -0.8717  0.8183
  636SOL     OW 1906   0.775   0.585   0.888 -0.0689  0.3745 -0.0192
  636SOL    HW1 1907   0.867   0.556   0.923  1.6630 -1.5550 -0.6581
  636SOL    HW2 1908   0.768   0.680   0.861 -1.3674 -0.3987  0.4055
  637SOL     OW 1909   2.037   2.396   0.444 -0.5998 -0.1939 -0.0500
  637SOL    HW1 1910   2.040   2.350   0.537  0.1415 -0.9822 -0.1957
  637SOL    HW2 1911   2.102   2.476   0.441 -1.0611 -1.7035 -1.5196
  638SOL     OW 1912   1.652   2.927   2.713 -0.5346 -0.5071  0.8316
  638SOL    HW1 1913   1.677   2.917   2.811  0.4336  1.0503 -0.2020
  638SOL    HW2 1914   1.732   2.919   2.645 -0.6551 -1.5293 -2.3709
  639SOL     OW 1915   0.780   2.183   1.219 -0.0950  0.5617  0.1593
  639SOL    HW1 1916   0.861   2.250   1.228  2.5426  0.9104  1.4429
  639SOL    HW2 1917   0.760   2.164   1.117 -3.0148 -0.2514 -1.7876
  640SOL     OW 1918   3.118   2.688   0.592 -0.1178 -0.0407  0.0924
  640SOL    HW1 1919   3.053   2.628   0.643  1.4696  1.8657 -0.9055
  640SOL    HW2 1920   0.063   2.641   0.528  1.4076  0.2125  0.0469
  641SOL     OW 1921   0.278   0.327   0.033 -0.2646  0.1791 -0.1554
  641SOL    HW1 1922   0.376   0.337   0.005  2.8501 -0.4022 -0.6516
  641SOL    HW2 1923   0.225   0.293   3.076  1.7218  0.2802  0.2763
  642SOL     OW 1924   0.032   0.932   0.980 -0.3235  0.1231  0.0266
  642SOL    HW1 1925   0.046   0.855   0.919  0.6529 -1.2466 -0.6644
  642SOL    HW2 1926   3.071   0.983   0.953  2.1883 -1.6039  1.9117
  643SOL     OW 1927   0.599   1.912   2.070  0.1758 -0.1897 -0.2653
  643SOL    HW1 1928   0.559   1.840   2.008 -0.2934 -0.1455 -1.9314
  643SOL    HW2 1929   0.638   1.880   2.153 -1.3677  0.5835 -2.4881
  644SOL     OW 1930   1.853   2.647   0.657 -0.1799 -0.0835  0.3690
  644SOL    HW1 1931   1.942   2.628   0.611  2.7993  0.5385  0.6212
  644SOL    HW2 1932   1.797   2.561   0.644  1.0651  1.1487  0.7210
  645SOL     OW 1933   1.776   2.331   1.075 -0.0040 -0.0719  0.3022
  645SOL    HW1 1934   1.832   2.412   1.085  0.4040 -0.6872 -3.1820
  645SOL    HW2 1935   1.705   2.336   1.002 -1.9398  1.9208 -1.6871
  646SOL     OW 1936   1.197   2.871   0.285 -0.1688 -0.6278 -0.2492
  646SOL    HW1 1937   1.157   2.783   0.262  2.7255 -2.3780  0.4717
  646SOL    HW2 1938   1.137   2.951   0.261  1.6199 -0.8928  3.3692
  647SOL     OW 1939   0.441   3.036   1.835 -0.5268 -0.4990 -0.7866
  647SOL    HW1 1940   0.345   3.060   1.864  1.2770 -0.0928 -0.8510
  647SOL    HW2 1941   0.448   2.948   1.785 -1.1795  2.4441  0.9689
  648SOL     OW 1942   2.020   0.994   1.250 -0.0603  0.2004 -0.1222
  648SOL    HW1 1943   1.942   0.991   1.312  1.4089 -2.5527  3.8609
  648SOL    HW2 1944   2.002   0.928   1.175 -1.1526  1.7224  1.5616
  649SOL     OW 1945   1.752   2.156   2.763 -0.1411 -0.1342  0.2095
  649SOL    HW1 1946   1.824   2.174   2.696 -0.7502 -2.4961  0.7546
  649SOL    HW2 1947   1.768   2.187   2.861 -0.6577  0.0968  3.1134
  650SOL     OW 1948   2.419   1.799   1.714 -0.0448 -0.2871  0.4083
  650SOL    HW1 1949   2.497   1.864   1.723 -2.3551 -1.8571  2.0644
  650SOL    HW2 1950   2.331   1.844   1.749 -0.1144  3.0657  0.8870
  651SOL     OW 1951   1.225   1.633   2.934 -0.3017  0.2149  0.0653
  651SOL    HW1 1952   1.174   1.549   2.904  0.0112  0.4501 -1.9227
  651SOL    HW2 1953   1.322   1.630   2.895  0.6260  1.4956  0.9622
  652SOL     OW 1954   1.042   2.865   2.798  0.2054  0.8539  0.3772
  652SOL    HW1 1955   1.069   2.786   2.857  0.0383 -0.1157 -2.7790
  652SOL    HW2 1956   1.104   2.948   2.808  3.9809  1.0563  0.1892
  653SOL     OW 1957   2.087   2.259   1.200  0.0710 -0.0621  0.1468
  653SOL    HW1 1958   2.038   2.229   1.284  1.0971  0.5197 -0.0660
  653SOL    HW2 1959   2.022   2.258   1.121  0.7181  1.2518  2.6804
  654SOL     OW 1960   2.821   2.727   1.949  0.4054  0.2054  0.4980
  654SOL    HW1 1961   2.845   2.817   1.916 -1.4007 -0.0386  0.2892
  654SOL    HW2 1962   2.765   2.676   1.879 -0.8805 -0.2528  2.6538
  655SOL     OW 1963   2.803   2.203   0.911 -0.1077 -0.1892  0.0508
  655SOL    HW1 1964   2.837   2.112   0.875  0.1535  2.5819 -0.5761
  655SOL    HW2 1965   2.706   2.197   0.938 -1.0813  0.1039 -0.5826
  656SOL     OW 1966   0.658   2.567   2.762  0.2413  0.2462  0.0755
  656SOL    HW1 1967   0.664   2.659   2.712 -1.4934  3.2642 -2.1570
  656SOL    HW2 1968   0.594   2.510   2.715  2.6406  1.8418 -0.3747
  657SOL     OW 1969   3.009   0.822   0.344 -0.0262  0.1320  0.4148
  657SOL    HW1 1970   3.017   0.730   0.386  5.2697 -0.9567  1.4761
  657SOL    HW2 1971   3.074   0.844   0.270  0.5951  0.4482 -0.8983
  658SOL     OW 1972   1.482   1.781   1.023 -0.3431 -0.0844  0.0969
  658SOL    HW1 1973   1.411   1.738   1.079  0.5666 -0.6373 -0.0125
  658SOL    HW2 1974   1.523   1.869   1.058  0.3748  1.4968  1.8278
  659SOL     OW 1975   1.733   0.560   1.399  0.2758  0.4073  0.0780
  659SOL    HW1 1976   1.735   0.461   1.394  1.3819 -2.8666  0.4024
  659SOL    HW2 1977   1.642   0.602   1.374  0.7180 -0.0252  2.6497
  660SOL     OW 1978   1.519   1.172   0.461  0.4713 -0.0687  0.0473
  660SOL    HW1 1979   1.478   1.083   0.437  0.1588 -0.4742 -1.5033
  660SOL    HW2 1980   1.446   1.236   0.499  1.6360 -0.5139  1.2221
  661SOL     OW 1981   0.092   1.759   0.302  0.0944  0.0849  0.2081
  661SOL    HW1 1982   0.077   1.763   0.201 -0.4670  0.1477  4.5067
  661SOL    HW2 1983   0.010   1.723   0.347 -0.6464 -1.3221 -1.1859
  662SOL     OW 1984   2.949   0.886   2.199 -0.3623  0.2530  0.4411
  662SOL    HW1 1985   2.957   0.943   2.111 -2.5180  0.9684  2.6685
  662SOL    HW2 1986   2.925   0.940   2.285  1.6451 -0.2515  0.1817
  663SOL     OW 1987   2.138   1.493   1.295  0.3122 -0.6547  0.3955
  663SOL    HW1 1988   2.124   1.585   1.250 -1.3208 -1.1619 -0.7079
  663SOL    HW2 1989   2.153   1.510   1.397  1.1048  0.8917 -1.2881
  664SOL     OW 1990   0.785   0.128   1.135  0.3579  0.3279  0.0619
  664SOL    HW1 1991   0.856   0.106   1.209  2.2372  0.5332 -0.1474
  664SOL    HW2 1992   0.695   0.082   1.154 -0.9610 -0.9453 -2.6223
  665SOL     OW 1993   1.184   3.115   2.825  0.1129  0.0318 -0.5123
  665SOL    HW1 1994   1.274   3.104   2.776 -0.2260 -0.2951 -0.0578
  665SOL    HW2 1995   1.184   0.035   2.916 -1.2367 -1.6545 -0.6110
  666SOL     OW 1996   0.372   0.473   2.220 -0.2308 -0.1592 -0.1932
  666SOL    HW1 1997   0.344   0.461   2.123  0.8568  0.5718 -1.2238
  666SOL    HW2 1998   0.292   0.477   2.288 -0.8534  0.6818 -1.4797
  667SOL     OW 1999   1.804   1.308   2.114  0.0599  0.2875 -0.1251
  667SOL    HW1 2000   1.897   1.351   2.100  2.0880  2.7171 -0.0646
  667SOL    HW2 2001   1.815   1.226   2.171  0.0597  2.4704  1.7372
  668SOL     OW 2002   0.145   1.609   2.776 -0.0009  0.2458 -0.3299
  668SOL    HW1 2003   0.123   1.524   2.719  0.5755  1.1199 -0.0548
  668SOL    HW2 2004   0.065   1.663   2.800  1.7761 -1.2313  2.3907
  669SOL     OW 2005   2.328   2.990   2.467  0.3329  0.0434  0.1384
  669SOL    HW1 2006   2.372   3.052   2.398  0.6370  0.3672 -1.4799
  669SOL    HW2 2007   2.370   2.899   2.455  3.6199  2.2731  0.0294
  670SOL     OW 2008   2.526   0.833   2.544  0.0142  0.2235 -0.5556
  670SOL    HW1 2009   2.580   0.759   2.591 -1.2581  1.3873  1.4273
  670SOL    HW2 2010   2.455   0.869   2.606 -0.4864 -1.1829  1.1362
  671SOL     OW 2011   2.455   1.886   0.001  0.4499  0.1009 -1.0407
  671SOL    HW1 2012   2.429   1.888   0.100  0.0795 -2.8890 -4.6205
  671SOL    HW2 2013   2.545   1.845   3.105  0.1122 -1.3942 -3.5595
  672SOL     OW 2014   2.807   1.500   2.345 -0.4276 -0.5278 -0.7868
  672SOL    HW1 2015   2.721   1.478   2.394  0.2432 -1.0964 -0.9409
  672SOL    HW2 2016   2.799   1.591   2.301 -0.7631 -2.2043  4.2490
  673SOL     OW 2017   0.063   1.469   1.298 -0.4957  0.1614 -0.3459
  673SOL    HW1 2018   0.073   1.559   1.253 -0.5773 -2.3255  2.8318
  673SOL    HW2 2019   0.053   1.390   1.232  0.4279  1.4854  1.2643
  674SOL     OW 2020   1.403   1.871   1.984  0.5759  0.2932  0.2528
  674SOL    HW1 2021   1.406   1.967   1.958  0.4928  0.0971 -1.7888
  674SOL    HW2 2022   1.498   1.837   2.006  0.8164 -0.6846 -0.8293
  675SOL     OW 2023   2.852   0.244   1.166  0.9397  0.1014  0.2231
  675SOL    HW1 2024   2.855   0.310   1.087 -1.3336  3.9210 -0.6026
  675SOL    HW2 2025   2.795   0.165   1.134 -1.9165  0.0599 -1.3002
  676SOL     OW 2026   2.713   1.393   0.628 -0.3628  0.0340  0.4372
  676SOL    HW1 2027   2.732   1.488   0.641 -0.0203  0.8138 -0.5700
  676SOL    HW2 2028   2.637   1.355   0.685 -1.2702  0.4609 -0.2479
  677SOL     OW 2029   1.679   1.537   2.111 -0.4844  0.1464 -0.4123
  677SOL    HW1 2030   1.724   1.446   2.103  1.1618 -0.3669 -0.5709
  677SOL    HW2 2031   1.584   1.532   2.079  0.6461  0.8275 -0.3936
  678SOL     OW 2032   2.555   1.510   1.026 -0.4233  0.1815  0.2864
  678SOL    HW1 2033   2.636   1.544   1.084  1.3192 -0.5652  0.9188
  678SOL    HW2 2034   2.481   1.473   1.085  3.3990  2.7082 -2.4870
  679SOL     OW 2035   0.443   2.631   1.008  0.3569 -0.2197  0.3909
  679SOL    HW1 2036   0.361   2.587   0.964 -3.9746  0.0929 -0.2603
  679SOL    HW2 2037   0.413   2.710   1.064 -0.6147 -0.8143  0.9118
  680SOL     OW 2038   2.820   1.853   1.139 -0.1101  0.2794  0.3704
  680SOL    HW1 2039   2.917   1.893   1.148  1.5104  0.5149  0.8712
  680SOL    HW2 2040   2.751   1.924   1.141  2.3407 -0.2611 -0.4872
  681SOL     OW 2041   0.940   0.787   1.207 -0.0353 -0.3238 -0.7681
  681SOL    HW1 2042   0.975   0.776   1.307 -1.9245  2.3502  4.6992
  681SOL    HW2 2043   0.851   0.735   1.203 -1.5188  2.9116 -0.6914
  682SOL     OW 2044   1.596   0.032   0.810 -0.2053  0.5309 -0.3579
  682SOL    HW1 2045   1.568   0.107   0.877 -0.0317 -1.2944  1.8786
  682SOL    HW2 2046   1.561   0.049   0.716 -0.3793 -1.6926  0.0241
  683SOL     OW 2047   2.510   1.541   1.759  0.4233 -0.3721 -0.1048
  683SOL    HW1 2048   2.473   1.636   1.754  1.5826  0.2362 -1.8170
  683SOL    HW2 2049   2.446   1.478   1.717 -1.4103  1.9816  2.6967
  684SOL     OW 2050   0.084   1.654   1.637 -0.0168  0.3950 -0.8775
  684SOL    HW1 2051   0.001   1.597   1.617 -1.5571  2.1438  0.6312
  684SOL    HW2 2052   0.074   1.707   1.724 -1.4676  0.2209  0.7535
  685SOL     OW 2053   2.079   1.613   0.405  0.0119 -0.0990  0.0857
  685SOL    HW1 2054   2.022   1.597   0.489 -0.4618 -1.5602  1.4805
  685SOL    HW2 2055   2.081   1.530   0.344 -1.4323 -0.8884  0.8620
  686SOL     OW 2056   2.933   0.087   0.801 -0.5811 -0.1352  0.4542
  686SOL    HW1 2057   3.009   0.154   0.826  2.0091  2.7315  0.5507
  686SOL    HW2 2058   2.843   0.135   0.805 -1.8817  0.2243 -2.1098
  687SOL     OW 2059   1.427   3.111   2.674 -0.1385 -0.2915 -0.5062
  687SOL    HW1 2060   1.480   0.074   2.669  0.7115 -0.9220  1.4279
  687SOL    HW2 2061   1.488   3.031   2.691 -3.6107 -3.7505 -2.2348
  688SOL     OW 2062   1.713   1.837   2.446  0.0822  0.6125 -0.4916
  688SOL    HW1 2063   1.793   1.774   2.447 -0.2846  0.2577  1.3833
  688SOL    HW2 2064   1.702   1.883   2.356 -0.1233 -2.1124 -0.8112
  689SOL     OW 2065   2.753   1.094   2.017 -0.9512  0.0109 -0.7387
  689SOL    HW1 2066   2.782   1.168   2.079  3.9038  1.8180 -0.8416
  689SOL    HW2 2067   2.844   1.054   1.984  3.0239  0.2545 -0.7770
  690SOL     OW 2068   1.849   1.873   1.074 -0.7200 -0.1791  0.3177
  690SOL    HW1 2069   1.942   1.840   1.108  0.0133  2.1864  0.5496
  690SOL    HW2 2070   1.803   1.801   1.018 -0.3267  0.6613  0.3367
  691SOL     OW 2071   0.619   1.418   1.104  0.2018  0.5124 -0.6143
  691SOL    HW1 2072   0.667   1.346   1.164  0.7126 -3.8425  0.1287
  691SOL    HW2 2073   0.528   1.387   1.070 -0.8882 -0.0218  1.9190
  692SOL     OW 2074   2.248   2.958   2.046 -0.1627 -0.5651  0.1436
  692SOL    HW1 2075   2.213   3.021   2.121  1.9575 -0.7562  0.0559
  692SOL    HW2 2076   2.248   2.864   2.084  1.2872 -2.3938 -0.9517
  693SOL     OW 2077   2.976   1.432   2.578 -0.5872 -0.1085 -0.3592
  693SOL    HW1 2078   3.073   1.401   2.568 -0.8960  1.4466  0.9963
  693SOL    HW2 2079   2.940   1.476   2.492 -2.8658  0.6427  2.0360
  694SOL     OW 2080   1.972   0.319   1.220  0.5110  0.0402 -0.0441
  694SOL    HW1 2081   1.930   0.268   1.298 -1.2483  1.2634  1.2736
  694SOL    HW2 2082   2.029   0.400   1.250 -0.8205 -0.8057  0.2389
  695SOL     OW 2083   1.151   1.068   2.844 -0.0035  0.0954  0.8183
  695SOL    HW1 2084   1.137   1.135   2.922 -1.3405 -0.0985  1.4181
  695SOL    HW2 2085   1.203   1.115   2.766  2.7708  0.4613 -3.0773
  696SOL     OW 2086   2.001   0.356   1.820 -0.3832 -0.0600  0.5044
  696SOL    HW1 2087   1.950   0.417   1.754  2.5132  1.0078 -1.4079
  696SOL    HW2 2088   2.037   0.273   1.773  1.7604  1.7312 -1.9517
  697SOL     OW 2089   1.478   0.268   2.178  0.1807  0.4252  0.0643
  697SOL    HW1 2090   1.469   0.297   2.274 -0.5141  1.7248 -1.8076
  697SOL    HW2 2091   1.541   0.321   2.122  2.7548  1.2347 -1.4423
  698SOL     OW 2092   1.921   1.652   2.493  0.4268  0.6021 -0.2560
  698SOL    HW1 2093   1.934   1.671   2.591  0.6076 -0.2240 -1.7015
  698SOL    HW2 2094   1.888   1.556   2.474 -0.8050 -1.7507 -0.4149
  699SOL     OW 2095   1.627   0.794   0.460  0.1161  0.2164 -0.2952
  699SOL    HW1 2096   1.657   0.802   0.360 -0.6027 -3.1703 -3.3551
  699SOL    HW2 2097   1.651   0.700   0.503  0.2987 -1.2525  1.5340
  700SOL     OW 2098   1.478   0.027   3.063  0.6316 -0.2529  0.5026
  700SOL    HW1 2099   1.492   0.023   0.042  2.4599  0.4246  1.5929
  700SOL    HW2 2100   1.379   0.049   3.035 -2.6536 -1.3556 -1.9133
  701SOL     OW 2101   0.062   0.513   1.170  0.1826 -0.2206 -0.0066
  701SOL    HW1 2102   3.122   0.597   1.172 -1.4339  4.2296 -0.7206
  701SOL    HW2 2103   0.029   0.426   1.213  3.2777 -0.1403 -2.1763
  702SOL     OW 2104   1.882   0.192   1.416  0.3040  0.0031  0.2646
  702SOL    HW1 2105   1.785   0.222   1.434 -0.7441 -1.5934 -0.1119
  702SOL    HW2 2106   1.892   0.094   1.435  0.5972  1.6479 -2.2662
  703SOL     OW 2107   2.891   0.397   1.401  0.2927 -0.3388  0.0098
  703SOL    HW1 2108   2.813   0.428   1.453  3.7450  0.6531  0.7116
  703SOL    HW2 2109   2.866   0.320   1.338 -0.6264 -0.4725  0.8577
  704SOL     OW 2110   1.020   2.304   1.225  0.3575 -0.2092 -0.5533
  704SOL    HW1 2111   1.002   2.403   1.246 -0.7197 -1.0097  3.9203
  704SOL    HW2 2112   1.109   2.270   1.264  3.4298  0.0020 -1.1012
  705SOL     OW 2113   0.068   1.737   2.381 -0.4819 -0.1608  0.0132
  705SOL    HW1 2114   0.067   1.780   2.292  4.5017 -0.5357  2.8603
  705SOL    HW2 2115   0.121   1.800   2.445  2.8280  5.6343  0.6328
  706SOL     OW 2116   2.632   0.402   2.712 -0.3432 -0.2190 -0.1088
  706SOL    HW1 2117   2.562   0.333   2.723  0.0962 -0.4546  3.2149
  706SOL    HW2 2118   2.683   0.412   2.800  1.8126  0.7515 -1.6189
  707SOL     OW 2119   1.789   2.722   2.312 -0.6296  0.1150  0.0438
  707SOL    HW1 2120   1.806   2.737   2.213  1.2137  3.3396  3.1966
  707SOL    HW2 2121   1.697   2.758   2.346 -3.2433  1.2061 -0.3714
  708SOL     OW 2122   0.566   2.403   1.538 -0.5404 -0.3192  0.1715
  708SOL    HW1 2123   0.486   2.468   1.555 -0.4955 -1.1594 -0.9329
  708SOL    HW2 2124   0.566   2.363   1.441 -2.2701 -2.7089 -0.8424
  709SOL     OW 2125   3.045   0.839   1.730 -0.2275 -0.6303  0.4155
  709SOL    HW1 2126   3.077   0.821   1.632 -1.8835  0.1396  0.7329
  709SOL    HW2 2127   3.040   0.753   1.777 -1.5793 -0.8829  1.2092
  710SOL     OW 2128   0.216   0.365   1.413  0.0276  0.2803  0.2141
  710SOL    HW1 2129   0.169   0.312   1.337  0.2861  0.0401  1.9431
  710SOL    HW2 2130   0.146   0.425   1.447  1.4066  0.2017  0.0185
  711SOL     OW 2131   3.099   2.550   1.030  0.1632  0.7096 -0.0106
  711SOL    HW1 2132   0.007   2.593   1.117  0.7148 -1.1914 -1.3732
  711SOL    HW2 2133   0.058   2.558   0.966 -1.5346 -0.9926 -1.8504
  712SOL     OW 2134   0.258   0.182   2.343  0.0342 -0.1206  0.3574
  712SOL    HW1 2135   0.275   0.081   2.359 -1.2026  2.6938  1.0885
  712SOL    HW2 2136   0.242   0.231   2.432  1.5001  0.1897 -1.7941
  713SOL     OW 2137   2.489   0.295   0.230 -0.8179  0.2272  0.4723
  713SOL    HW1 2138   2.404   0.330   0.272  0.8774  0.1324 -1.3321
  713SOL    HW2 2139   2.464   0.269   0.134  1.4723 -1.3304 -0.3620
  714SOL     OW 2140   1.556   1.546   0.095  0.1420  0.0113 -0.0550
  714SOL    HW1 2141   1.597   1.640   0.122  3.4455  0.2549  1.2499
  714SOL    HW2 2142   1.593   1.473   0.155 -0.8495 -1.1387 -1.1636
  715SOL     OW 2143   0.189   0.308   0.703 -0.7111  0.7491 -0.8573
  715SOL    HW1 2144   0.278   0.262   0.707 -2.1840 -0.9027  1.3244
  715SOL    HW2 2145   0.128   0.276   0.788 -0.6330 -3.0472  1.2446
  716SOL     OW 2146   1.159   0.334   1.909  0.4417  0.5031 -0.0580
  716SOL    HW1 2147   1.179   0.287   1.995 -2.1253  1.7772 -0.1702
  716SOL    HW2 2148   1.084   0.403   1.916 -2.2581 -2.3940 -0.7295
  717SOL     OW 2149   0.246   0.125   2.924 -0.3066  0.3107  0.3011
  717SOL    HW1 2150   0.151   0.115   2.888  1.0109  0.6016 -1.2102
  717SOL    HW2 2151   0.307   0.175   2.860 -0.2942 -2.6781 -2.1314
  718SOL     OW 2152   1.152   0.332   0.286 -0.5793  0.2151 -0.3096
  718SOL    HW1 2153   1.140   0.435   0.292 -0.0168  1.4413 -0.9225
  718SOL    HW2 2154   1.181   0.318   0.191 -0.3020  1.3309  0.8316
  719SOL     OW 2155   2.473   2.304   2.757 -0.5445  0.3970 -0.6539
  719SOL    HW1 2156   2.577   2.305   2.769 -0.1546 -1.8951 -2.6107
  719SOL    HW2 2157   2.435   2.223   2.804  0.1258 -2.7589  2.5673
  720SOL     OW 2158   1.179   1.040   1.463 -0.6430  0.4470 -0.5637
  720SOL    HW1 2159   1.199   1.119   1.530  0.8795  0.6189  0.7385
  720SOL    HW2 2160   1.184   0.949   1.511  0.6432 -1.8426 -1.1659
  721SOL     OW 2161   0.125   2.705   1.265  0.9672  0.2768 -0.5016
  721SOL    HW1 2162   0.163   2.615   1.293  0.5814 -0.2019 -1.0349
  721SOL    HW2 2163   0.193   2.762   1.210  3.4941  2.3857 -1.2449
  722SOL     OW 2164   0.770   1.753   2.937 -0.5037  0.6060  0.1269
  722SOL    HW1 2165   0.746   1.663   2.980 -1.1337 -0.1171 -1.5429
  722SOL    HW2 2166   0.769   1.832   3.001 -3.9576 -3.5615  2.2190
  723SOL     OW 2167   2.152   0.327   0.582 -0.6186 -0.1823 -0.0704
  723SOL    HW1 2168   2.100   0.237   0.591 -2.2526 -1.1782  2.3612
  723SOL    HW2 2169   2.177   0.356   0.676 -0.4576 -2.3910 -3.7175
  724SOL     OW 2170   0.726   2.191   2.985 -0.0458  0.3755  0.6698
  724SOL    HW1 2171   0.724   2.100   3.037  1.9345 -0.7566  2.8438
  724SOL    HW2 2172   0.809   2.245   3.008 -0.0922 -1.9966  0.4123
  725SOL     OW 2173   0.113   0.999   1.234  0.0572  0.5003  0.4016
  725SOL    HW1 2174   0.094   0.969   1.138 -0.1392  0.4818 -1.7199
  725SOL    HW2 2175   0.202   1.044   1.235 -2.2715 -2.8403  0.0528
  726SOL     OW 2176   2.627   0.581   0.611 -0.2943 -0.5190  0.3196
  726SOL    HW1 2177   2.603   0.677   0.593  0.8239 -0.9713 -0.4069
  726SOL    HW2 2178   2.655   0.526   0.527 -1.3514 -1.0112 -0.8221
  727SOL     OW 2179   1.951   1.053   2.471  0.5902 -0.1319 -0.1721
  727SOL    HW1 2180   2.022   1.130   2.483 -0.3775 -1.3064  0.1441
  727SOL    HW2 2181   1.975   0.966   2.522  0.9418 -3.8200 -0.0665
  728SOL     OW 2182   1.793   3.065   1.498 -0.0188 -0.5537  0.6649
  728SOL    HW1 2183   1.869   3.009   1.549  0.4836 -3.0641  0.3077
  728SOL    HW2 2184   1.712   3.008   1.473 -0.3015  2.7074  0.5753
  729SOL     OW 2185   2.428   0.730   2.216 -0.2296  0.1414 -0.2969
  729SOL    HW1 2186   2.532   0.731   2.213 -0.4355 -2.9194 -0.0954
  729SOL    HW2 2187   2.399   0.828   2.204  1.8078  0.4137 -3.1258
  730SOL     OW 2188   0.991   0.727   1.473 -0.2175  0.0742  0.1772
  730SOL    HW1 2189   0.973   0.625   1.484 -0.5987  0.7495 -0.7244
  730SOL    HW2 2190   1.063   0.755   1.546  0.1359 -2.5268  2.4370
  731SOL     OW 2191   0.272   0.121   0.202 -0.0102 -0.1593  0.2129
  731SOL    HW1 2192   0.355   0.115   0.261  0.2838 -0.6340  2.5001
  731SOL    HW2 2193   0.283   0.206   0.146 -2.2769 -0.4327 -1.8180
  732SOL     OW 2194   0.570   0.384   0.545 -0.2080 -0.4065  0.6321
  732SOL    HW1 2195   0.611   0.376   0.639 -0.1018  2.0127 -3.7979
  732SOL    HW2 2196   0.554   0.484   0.517 -1.0346  1.6040 -1.2668
  733SOL     OW 2197   1.711   1.470   2.743 -0.2398  0.3966  0.3842
  733SOL    HW1 2198   1.707   1.368   2.750  1.0761  2.1818  1.2600
  733SOL    HW2 2199   1.664   1.502   2.826 -4.8562 -1.9497 -1.1844
  734SOL     OW 2200   2.959   1.962   2.426  0.6524 -0.2150  0.0439
  734SOL    HW1 2201   2.972   1.864   2.412 -0.9831  1.1059  0.2501
  734SOL    HW2 2202   2.907   1.982   2.511  1.1180 -0.4509 -1.2997
  735SOL     OW 2203   1.953   0.628   1.230  0.0528 -0.1295  0.0737
  735SOL    HW1 2204   2.045   0.603   1.269  2.3047  1.1706 -0.6944
  735SOL    HW2 2205   1.871   0.599   1.285 -3.7774  2.8626 -1.4650
  736SOL     OW 2206   1.112   1.247   3.063  0.2754  0.1010 -0.0500
  736SOL    HW1 2207   1.039   1.215   0.003  1.6817 -1.0791 -0.2595
  736SOL    HW2 2208   1.185   1.300   3.115 -0.0428  0.9972 -1.7352
  737SOL     OW 2209   3.064   0.301   0.537  0.0787  0.2212 -0.6333
  737SOL    HW1 2210   3.083   0.236   0.458 -1.2592 -1.7400 -3.2274
  737SOL    HW2 2211   0.019   0.302   0.604  0.7532  1.1353  2.8321
  738SOL     OW 2212   0.664   2.302   1.784  0.0298  0.2625  0.6024
  738SOL    HW1 2213   0.632   2.351   1.699 -0.4549 -0.5018  1.2877
  738SOL    HW2 2214   0.593   2.250   1.832  1.5420  0.7316 -0.5765
  739SOL     OW 2215   1.204   2.861   2.341  0.3059 -0.3838  0.4106
  739SOL    HW1 2216   1.163   2.817   2.428  1.2941 -0.8575 -0.2744
  739SOL    HW2 2217   1.235   2.789   2.274 -0.3384 -1.7834 -2.9846
  740SOL     OW 2218   1.972   2.619   1.659 -0.5914  0.1332 -0.0639
  740SOL    HW1 2219   1.888   2.567   1.646  1.6137  0.7175 -1.0338
  740SOL    HW2 2220   2.019   2.599   1.749 -0.0307  1.7609 -0.0342
  741SOL     OW 2221   2.267   0.662   0.328  0.3429 -0.1877 -0.0172
  741SOL    HW1 2222   2.351   0.717   0.348  0.3907  1.8886  0.0402
  741SOL    HW2 2223   2.191   0.682   0.394 -0.0749  1.0177 -0.2943
  742SOL     OW 2224   1.060   2.588   2.897 -0.4968  0.2274  0.3058
  742SOL    HW1 2225   1.094   2.534   2.816 -2.6705  3.1853 -0.2732
  742SOL    HW2 2226   1.126   2.577   2.974 -1.7826 -3.1936 -0.4902
  743SOL     OW 2227   2.528   0.827   1.859  0.1646  0.1133 -0.1476
  743SOL    HW1 2228   2.501   0.893   1.929 -2.7723  0.5118  0.2344
  743SOL    HW2 2229   2.566   0.869   1.778  1.3038  0.5676  0.2923
  744SOL     OW 2230   2.539   0.393   1.009 -0.5687 -0.0083  0.1666
  744SOL    HW1 2231   2.563   0.327   0.936 -2.4338  0.4105  1.0806
  744SOL    HW2 2232   2.556   0.489   0.975  0.5138  2.0160  0.1667
  745SOL     OW 2233   2.698   1.230   1.768 -0.8486 -0.3873  0.0855
  745SOL    HW1 2234   2.745   1.206   1.678  1.7827  0.3939  0.1853
  745SOL    HW2 2235   2.733   1.166   1.841 -1.2795 -0.0450 -1.0561
  746SOL     OW 2236   1.435   1.478   0.756 -0.5153 -0.3572  0.2651
  746SOL    HW1 2237   1.461   1.574   0.728  1.6160  0.4561 -1.6328
  746SOL    HW2 2238   1.391   1.481   0.845  0.2876  2.5999  0.4362
  747SOL     OW 2239   1.475   1.749   1.617 -0.5685 -0.0914  0.3409
  747SOL    HW1 2240   1.382   1.793   1.612 -0.5315 -0.9161  3.0492
  747SOL    HW2 2241   1.492   1.691   1.538  0.9960  1.4452  4.2001
  748SOL     OW 2242   0.139   2.912   3.015 -0.3510 -0.4329  0.4102
  748SOL    HW1 2243   0.190   2.983   3.064  1.1912 -2.5185 -2.3530
  748SOL    HW2 2244   0.157   2.815   3.047 -0.0484  0.4930  1.9073
  749SOL     OW 2245   0.325   1.446   2.474 -0.2996 -0.5342 -0.7768
  749SOL    HW1 2246   0.383   1.449   2.391 -0.6262  0.5913  0.3989
  749SOL    HW2 2247   0.346   1.530   2.535  0.5806  0.6206 -0.7428
  750SOL     OW 2248   1.663   0.686   2.184  0.3390  0.6714  0.5759
  750SOL    HW1 2249   1.764   0.696   2.184 -2.0700 -1.7726  0.0417
  750SOL    HW2 2250   1.621   0.776   2.203 -1.5889 -1.1453  1.7095
  751SOL     OW 2251   2.509   0.779   0.351 -0.3325 -0.3154  0.4976
  751SOL    HW1 2252   2.588   0.733   0.302 -0.2483  0.6427 -3.7679
  751SOL    HW2 2253   2.546   0.820   0.442 -1.0266  0.9685 -1.1845
  752SOL     OW 2254   0.146   2.118   0.775 -0.0749 -0.3558 -0.5478
  752SOL    HW1 2255   0.126   2.023   0.753  0.7392  1.7768 -1.3579
  752SOL    HW2 2256   0.220   2.123   0.842  0.6476 -0.3143 -2.6478
  753SOL     OW 2257   1.288   2.509   1.046  0.2400  0.2207 -0.4052
  753SOL    HW1 2258   1.294   2.414   1.082 -0.3659 -0.5828  1.3952
  753SOL    HW2 2259   1.191   2.522   1.013  0.9107 -1.4562 -1.4757
  754SOL     OW 2260   0.198   3.107   1.910  0.1019  0.3735 -0.7386
  754SOL    HW1 2261   0.177   0.074   1.948  0.7615 -0.7879  2.2150
  754SOL    HW2 2262   0.121   3.075   1.858  0.4613 -2.7233 -0.5440
  755SOL     OW 2263   2.068   0.694   0.497  0.3461 -0.2271  0.5187
  755SOL    HW1 2264   1.998   0.625   0.461 -0.6731 -0.5429  0.9320
  755SOL    HW2 2265   2.060   0.715   0.594 -1.5372  1.3822 -2.3211
  756SOL     OW 2266   2.295   2.390   2.524 -0.8353 -0.2167  0.3096
  756SOL    HW1 2267   2.328   2.388   2.619 -1.6746 -1.1679 -2.1951
  756SOL    HW2 2268   2.193   2.388   2.521 -0.8939  0.9376  0.3519
  757SOL     OW 2269   1.896   0.507   0.427  0.0065 -0.2811  0.4990
  757SOL    HW1 2270   1.860   0.521   0.332  0.8875 -1.1364 -2.0257
  757SOL    HW2 2271   1.947   0.418   0.430  1.4647 -0.4542  3.4164
  758SOL     OW 2272   2.187   0.511   1.307  0.0434  0.0680  0.4239
  758SOL    HW1 2273   2.209   0.494   1.405  2.0780  0.8336 -1.0470
  758SOL    HW2 2274   2.267   0.535   1.250 -0.3435 -1.5580  0.6789
  759SOL     OW 2275   2.386   0.595   1.136  0.5254 -0.4452  0.0283
  759SOL    HW1 2276   2.452   0.585   1.215  0.8230  0.9309  0.5315
  759SOL    HW2 2277   2.380   0.511   1.076 -0.9327 -2.4535 -0.8989
  760SOL     OW 2278   2.352   1.373   1.176  0.4252  0.1879 -0.4685
  760SOL    HW1 2279   2.263   1.414   1.209  0.5391 -1.8642 -0.0258
  760SOL    HW2 2280   2.329   1.273   1.157 -0.1623 -1.2559 -1.7274
  761SOL     OW 2281   0.505   0.180   0.352  0.2799  0.2336  0.0623
  761SOL    HW1 2282   0.530   0.253   0.411  0.1238 -1.7963 -2.8729
  761SOL    HW2 2283   0.498   0.098   0.412  1.6386  0.9123 -3.6966
  762SOL     OW 2284   1.111   2.005   1.098 -0.0420  0.4202 -0.0978
  762SOL    HW1 2285   1.147   1.966   1.005  2.1587  0.9139  0.6651
  762SOL    HW2 2286   1.070   1.933   1.152  1.3246  0.7430 -3.1508
  763SOL     OW 2287   1.483   1.198   1.681  0.5706  0.0864 -0.8467
  763SOL    HW1 2288   1.494   1.196   1.784  1.1557 -2.4951 -0.8284
  763SOL    HW2 2289   1.552   1.144   1.629  0.4764  1.0552 -0.1309
  764SOL     OW 2290   0.367   1.670   2.626  0.7390  0.0066  0.0340
  764SOL    HW1 2291   0.272   1.664   2.656  1.3135 -1.7103 -0.8459
  764SOL    HW2 2292   0.427   1.713   2.697 -0.2233 -2.5862 -0.1567
  765SOL     OW 2293   0.957   2.577   1.298  0.0056  0.2211  0.2572
  765SOL    HW1 2294   0.863   2.616   1.303 -0.4002 -2.0705 -1.0750
  765SOL    HW2 2295   1.028   2.647   1.298 -4.5943 -0.2204  1.3617
  766SOL     OW 2296   2.735   2.328   2.732  0.4357 -0.1877 -0.3570
  766SOL    HW1 2297   2.794   2.387   2.787 -3.2011 -2.1182 -0.4274
  766SOL    HW2 2298   2.735   2.374   2.640 -0.4763  0.2451  0.0604
  767SOL     OW 2299   1.023   1.207   2.550  0.7140 -0.2345  0.1094
  767SOL    HW1 2300   0.989   1.292   2.593  1.0851 -2.6404  0.3552
  767SOL    HW2 2301   0.952   1.157   2.489 -1.9350 -3.0925 -1.4566
  768SOL     OW 2302   1.183   1.779   0.030 -0.2528 -0.1308  0.0583
  768SOL    HW1 2303   1.216   1.734   3.066  1.1126  1.2032 -0.6616
  768SOL    HW2 2304   1.250   1.755   0.102 -2.3140 -3.0279  0.3471
  769SOL     OW 2305   0.294   2.135   1.267 -0.4425  0.4450 -0.2682
  769SOL    HW1 2306   0.244   2.210   1.215  0.2857  1.7080  1.1446
  769SOL    HW2 2307   0.231   2.066   1.303  2.2331  1.6199  0.4162
  770SOL     OW 2308   1.258   1.116   2.583  0.4616 -0.6723 -0.1533
  770SOL    HW1 2309   1.170   1.171   2.579 -0.7244 -0.5019 -2.2173
  770SOL    HW2 2310   1.320   1.142   2.503  3.1379  2.0420 -1.7177
  771SOL     OW 2311   0.070   2.875   2.198 -0.1293  0.2981 -0.1024
  771SOL    HW1 2312   0.168   2.828   2.199  1.3450  1.5482  1.1672
  771SOL    HW2 2313   0.001   2.804   2.178 -1.2152  1.3794 -0.0537
  772SOL     OW 2314   2.512   2.331   1.784 -0.3460 -0.3949 -0.0400
  772SOL    HW1 2315   2.531   2.410   1.847  0.9917  1.1777  0.9467
  772SOL    HW2 2316   2.414   2.336   1.751 -1.7946  2.6751 -0.7640
  773SOL     OW 2317   0.504   1.897   1.569  0.0907  0.1610 -0.5589
  773SOL    HW1 2318   0.437   1.978   1.565 -0.9664  0.8023 -2.2670
  773SOL    HW2 2319   0.555   1.899   1.656 -0.3513  2.0453 -2.6063
  774SOL     OW 2320   1.096   0.510   2.444 -0.3150 -0.4547  0.3396
  774SOL    HW1 2321   1.109   0.410   2.425  0.2809  1.0645  0.7678
  774SOL    HW2 2322   1.119   0.523   2.542 -1.4702 -0.7701 -2.6978
  775SOL     OW 2323   2.094   2.777   3.016  0.0580  0.6251  0.0217
  775SOL    HW1 2324   2.082   2.879   3.007 -1.3596  0.1062 -0.3110
  775SOL    HW2 2325   2.140   2.741   2.931  2.6639  1.1499 -1.7326
  776SOL     OW 2326   0.092   0.575   2.024  0.2540 -0.5615  0.4338
  776SOL    HW1 2327   0.023   0.600   1.956  0.3744  0.6950  0.9725
  776SOL    HW2 2328   0.156   0.509   1.983  1.0627 -0.4084  0.3263
  777SOL     OW 2329   2.607   2.097   1.899 -0.2251  0.5708  0.4025
  777SOL    HW1 2330   2.575   2.064   1.991 -0.1960 -0.9150  0.7430
  777SOL    HW2 2331   2.561   2.183   1.869 -3.8853 -2.4622 -1.6014
  778SOL     OW 2332   1.860   1.055   2.214 -0.1259 -0.3428 -0.4748
  778SOL    HW1 2333   1.909   1.045   2.305  0.9029 -0.3958  2.1390
  778SOL    HW2 2334   1.770   1.007   2.217  0.1396 -0.2259  0.3906
  779SOL     OW 2335   2.185   1.055   0.621  0.4443  0.5063  0.1037
  779SOL    HW1 2336   2.105   1.031   0.682  1.7574 -0.1849 -0.3073
  779SOL    HW2 2337   2.159   1.035   0.525 -0.4722 -0.3583  0.9395
  780SOL     OW 2338   2.387   0.232   3.104  0.4761  0.0870 -0.1005
  780SOL    HW1 2339   2.299   0.267   3.069 -0.6761 -0.1518  0.5158
  780SOL    HW2 2340   2.401   0.149   3.053  1.5843  0.2198  2.9215
  781SOL     OW 2341   0.090   1.978   1.363  0.2597  0.3056 -0.4678
  781SOL    HW1 2342   0.026   1.991   1.444 -0.4667  1.7501 -0.0887
  781SOL    HW2 2343   0.147   1.897   1.385 -2.2414  1.4755  0.3828
  782SOL     OW 2344   2.510   2.558   2.829 -0.4261 -0.4951  0.0544
  782SOL    HW1 2345   2.546   2.619   2.756 -0.6538 -4.1151  1.2782
  782SOL    HW2 2346   2.490   2.465   2.792  1.6791  1.9034  2.3779
  783SOL     OW 2347   0.473   1.528   1.471  0.2955  0.4009 -0.0610
  783SOL    HW1 2348   0.546   1.462   1.495 -1.0592 -0.7655  1.2592
  783SOL    HW2 2349   0.508   1.594   1.407 -0.0511 -4.2265  0.2866
  784SOL     OW 2350   1.555   0.540   2.954  0.5781 -0.6935 -0.2629
  784SOL    HW1 2351   1.641   0.515   2.902  1.2397  0.8076 -2.9222
  784SOL    HW2 2352   1.557   0.508   3.051  1.3078 -2.1805  1.0701
  785SOL     OW 2353   2.527   2.986   0.993  0.6465  0.0175  0.4168
  785SOL    HW1 2354   2.577   2.897   0.982 -2.8534  0.1471  1.0571
  785SOL    HW2 2355   2.427   2.981   0.998  0.4781 -1.8289  2.2937
  786SOL     OW 2356   0.888   2.213   2.090  0.4160  0.3703  0.0055
  786SOL    HW1 2357   0.937   2.136   2.043 -0.1491  0.3835 -1.5624
  786SOL    HW2 2358   0.874   2.189   2.188 -0.6911  1.6865  0.4302
  787SOL     OW 2359   1.294   1.018   1.226 -0.5902 -0.4719 -0.8752
  787SOL    HW1 2360   1.266   1.038   1.324  0.4218 -0.5379  0.3169
  787SOL    HW2 2361   1.394   0.999   1.216 -0.9465 -1.3307 -0.6182
  788SOL     OW 2362   3.049   0.574   0.521 -0.2232 -0.0842  0.0920
  788SOL    HW1 2363   0.021   0.603   0.537 -0.9745  0.3732 -0.3023
  788SOL    HW2 2364   3.040   0.472   0.511  1.9977 -2.1088 -0.0655
  789SOL     OW 2365   3.122   1.940   1.128 -0.4449  0.2845 -0.1812
  789SOL    HW1 2366   3.122   2.019   1.063 -3.2672 -1.4920 -0.8937
  789SOL    HW2 2367   0.031   1.958   1.223  0.4731 -0.4210  0.7743
  790SOL     OW 2368   0.906   0.722   2.443 -0.0910  0.0024 -0.3183
  790SOL    HW1 2369   0.965   0.641   2.442 -0.1857 -2.1354 -1.7102
  790SOL    HW2 2370   0.962   0.803   2.428  0.0576  0.1586 -1.5750
  791SOL     OW 2371   1.452   0.505   0.415 -0.0925  0.1856  0.5677
  791SOL    HW1 2372   1.531   0.532   0.471 -0.1131  0.4771  1.1213
  791SOL    HW2 2373   1.414   0.417   0.448 -0.1730  2.5252 -0.9965
  792SOL     OW 2374   1.680   3.086   1.775  0.4555 -0.0326  0.0731
  792SOL    HW1 2375   1.581   3.095   1.765 -1.4988  0.7468  1.2944
  792SOL    HW2 2376   1.731   3.047   1.695  1.8104 -0.4001 -1.3242
  793SOL     OW 2377   1.339   0.622   0.733 -0.0750 -0.4706  0.4185
  793SOL    HW1 2378   1.364   0.693   0.669 -1.7138 -0.3973 -1.5475
  793SOL    HW2 2379   1.409   0.549   0.738 -0.7098 -0.9840  0.4515
  794SOL     OW 2380   0.564   0.944   1.954 -0.3998 -0.1848 -1.2590
  794SOL    HW1 2381   0.494   0.936   1.884 -0.2013 -0.5716  0.7813
  794SOL    HW2 2382   0.624   1.027   1.936  2.8206  0.7301 -2.8040
  795SOL     OW 2383   0.338   2.035   2.293 -0.0060 -0.7655  0.0932
  795SOL    HW1 2384   0.416   2.082   2.247  0.1454 -1.0482  0.7914
  795SOL    HW2 2385   0.369   1.954   2.350 -2.5177  2.3710  2.4276
  796SOL     OW 2386   2.493   1.039   2.042  0.0310  0.4634  0.1287
  796SOL    HW1 2387   2.475   1.019   2.144 -0.7150 -1.4453  2.7540
  796SOL    HW2 2388   2.597   1.048   2.035  1.1442  1.8673  0.5462
  797SOL     OW 2389   3.055   2.611   0.057 -0.1641 -0.0647  0.4131
  797SOL    HW1 2390   3.001   2.693   0.042  0.7882 -0.4789  0.0290
  797SOL    HW2 2391   3.035   2.569   0.147 -1.3506 -0.1927 -0.0440
  798SOL     OW 2392   0.035   2.240   2.107 -0.1328  0.4262 -0.2287
  798SOL    HW1 2393   0.132   2.262   2.080 -1.3830 -1.9636  1.3523
  798SOL    HW2 2394   0.041   2.189   2.196 -1.0860  0.4735  3.7032
  799SOL     OW 2395   0.473   2.259   2.855  0.3413  0.2092  0.0786
  799SOL    HW1 2396   0.558   2.255   2.911 -0.9470 -1.9638 -0.3242
  799SOL    HW2 2397   0.392   2.278   2.913 -3.1811 -1.7330  0.7356
  800SOL     OW 2398   0.746   1.957   0.010  0.3824  0.0377 -0.4886
  800SOL    HW1 2399   0.653   1.939   0.057 -2.0958 -1.2101  1.9672
  800SOL    HW2 2400   0.819   1.925   0.071 -3.7765 -0.5942 -1.9254
  801SOL     OW 2401   1.751   1.425   1.467  0.3096  0.7347  0.1491
  801SOL    HW1 2402   1.845   1.400   1.506  2.3854  2.5059 -1.1471
  801SOL    HW2 2403   1.692   1.463   1.541 -1.7885  2.0747  0.1074
  802SOL     OW 2404   2.808   1.258   0.388 -0.6531 -0.5873  0.0177
  802SOL    HW1 2405   2.782   1.285   0.482  2.6672 -0.9567  3.3891
  802SOL    HW2 2406   2.809   1.154   0.371 -1.8464 -0.8827 -2.8477
  803SOL     OW 2407   0.945   1.837   2.752  0.1927  0.0245  0.3445
  803SOL    HW1 2408   0.888   1.800   2.829  2.1424 -1.5784  1.8744
  803SOL    HW2 2409   1.045   1.848   2.771  1.3253  1.2805 -0.1745
  804SOL     OW 2410   1.650   1.387   0.311 -0.3123 -0.0532  0.1802
  804SOL    HW1 2411   1.608   1.309   0.363 -1.3697  0.9965  3.3346
  804SOL    HW2 2412   1.665   1.464   0.379 -0.7145  0.5761  0.2184
  805SOL     OW 2413   2.552   1.713   2.639 -0.0261  0.2811  0.5388
  805SOL    HW1 2414   2.502   1.801   2.667  0.6445 -1.0193  1.4992
  805SOL    HW2 2415   2.597   1.674   2.724 -0.2373  1.5591  1.9919
  806SOL     OW 2416   0.471   3.013   0.447  0.0587  0.2197  0.0318
  806SOL    HW1 2417   0.381   3.044   0.486  2.2049 -0.1894  0.1553
  806SOL    HW2 2418   0.526   2.968   0.518 -0.5845  0.2176 -0.9637
  807SOL     OW 2419   1.943   1.627   2.753 -0.2626 -0.2795  0.5135
  807SOL    HW1 2420   1.910   1.697   2.817 -1.5831 -0.5302  0.1958
  807SOL    HW2 2421   1.882   1.553   2.745  0.4606  0.6460 -3.3028
  808SOL     OW 2422   0.419   1.473   0.694 -0.0562 -0.1458 -1.3150
  808SOL    HW1 2423   0.515   1.470   0.735  1.1469  0.4696  0.0467
  808SOL    HW2 2424   0.385   1.569   0.688  0.4166  5.0448  1.0623
  809SOL     OW 2425   2.359   1.009   0.350 -0.1095 -0.4792 -0.1964
  809SOL    HW1 2426   2.402   1.083   0.298 -1.6296 -3.0794 -0.6951
  809SOL    HW2 2427   2.410   0.920   0.343 -0.1849 -3.2474  0.5326
  810SOL     OW 2428   0.720   1.042   0.298 -0.1023  0.0481  0.1846
  810SOL    HW1 2429   0.688   1.086   0.209  1.0496  0.9527 -3.8372
  810SOL    HW2 2430   0.692   1.104   0.376  0.3214 -0.6000 -3.0689
  811SOL     OW 2431   1.405   2.471   1.482  0.1897 -0.3157 -0.1956
  811SOL    HW1 2432   1.415   2.553   1.423  0.0552 -1.3278  2.5884
  811SOL    HW2 2433   1.476   2.404   1.455 -1.4785 -1.5431 -0.5148
  812SOL     OW 2434   1.291   2.790   1.870  0.3637  0.2344 -0.3875
  812SOL    HW1 2435   1.356   2.871   1.855 -1.4981  0.9791 -0.5023
  812SOL    HW2 2436   1.204   2.799   1.818  2.6157 -0.3295  1.7856
  813SOL     OW 2437   1.223   0.203   1.678 -0.0999 -0.2046  0.3236
  813SOL    HW1 2438   1.199   0.258   1.763  1.8583  0.5686  0.0944
  813SOL    HW2 2439   1.191   0.104   1.686 -0.5167 -2.6166  0.0503
  814SOL     OW 2440   1.198   2.468   2.673 -0.2497 -0.2685  0.6843
  814SOL    HW1 2441   1.298   2.483   2.675 -0.2092  0.9229 -2.7297
  814SOL    HW2 2442   1.165   2.375   2.691 -0.8202  2.0997  1.0315
  815SOL     OW 2443   0.553   0.332   2.389  0.5560 -0.4347  0.4085
  815SOL    HW1 2444   0.484   0.387   2.337  0.1465 -0.6469 -0.8093
  815SOL    HW2 2445   0.633   0.386   2.424 -0.2605 -1.5599  0.4325
  816SOL     OW 2446   2.103   0.307   3.029  0.2249 -0.1526  0.3315
  816SOL    HW1 2447   2.080   0.387   2.968  1.1852  0.6861 -2.0213
  816SOL    HW2 2448   2.041   0.228   2.998 -1.7016 -2.6984  0.2518
  817SOL     OW 2449   2.194   0.384   2.402  0.7668 -0.2590 -0.6487
  817SOL    HW1 2450   2.222   0.402   2.309 -0.2830 -1.0878  0.8157
  817SOL    HW2 2451   2.215   0.472   2.457  1.4896 -1.0112 -0.8856
  818SOL     OW 2452   1.701   0.296   0.060  0.0308  0.2724  0.0754
  818SOL    HW1 2453   1.728   0.385   0.104  0.2927  0.5080 -0.5933
  818SOL    HW2 2454   1.736   0.218   0.116 -1.4306 -1.8105 -1.4959
  819SOL     OW 2455   2.199   1.750   2.750  0.3019 -0.5660  0.1475
  819SOL    HW1 2456   2.096   1.731   2.741 -1.8622  1.2043  0.4652
  819SOL    HW2 2457   2.239   1.758   2.845  3.5143 -0.4768  1.5877
  820SOL     OW 2458   0.084   1.829   0.001  0.5861  0.1819 -0.3756
  820SOL    HW1 2459   0.097   1.923   0.036  1.5372 -1.2309  0.8704
  820SOL    HW2 2460   0.175   1.790   3.096  1.2616 -1.9623 -1.6167
  821SOL     OW 2461   0.266   3.019   0.933  0.2177 -0.0148  0.5757
  821SOL    HW1 2462   0.363   3.037   0.915 -3.7102  0.6827  2.1022
  821SOL    HW2 2463   0.215   2.985   0.853  2.1400  0.8840  0.4340
  822SOL     OW 2464   2.872   2.825   0.158  0.2570  0.5382  0.1207
  822SOL    HW1 2465   2.882   2.788   0.252  0.2030 -1.2223 -2.2542
  822SOL    HW2 2466   2.937   2.901   0.137  0.3545  0.9567  1.1106
  823SOL     OW 2467   1.103   0.524   2.751 -0.3805  0.0278 -0.1247
  823SOL    HW1 2468   1.041   0.481   2.816 -0.8664  1.0426 -0.2576
  823SOL    HW2 2469   1.194   0.475   2.762 -0.7804 -2.2541 -0.7955
  824SOL     OW 2470   2.858   2.152   1.934  0.7701  0.3328  0.4031
  824SOL    HW1 2471   2.765   2.123   1.903  0.5648 -0.1543  0.3294
  824SOL    HW2 2472   2.865   2.251   1.959  3.8311  0.4098 -0.0597
  825SOL     OW 2473   3.021   2.231   2.693 -0.2007 -0.2279 -0.0289
  825SOL    HW1 2474   2.925   2.225   2.716  2.9520  1.8558  0.0498
  825SOL    HW2 2475   3.036   2.287   2.611  3.3201  0.5374 -3.1726
  826SOL     OW 2476   2.561   1.417   2.437  0.2884  0.7395  0.2944
  826SOL    HW1 2477   2.490   1.347   2.411 -1.4728  0.3076  0.9950
  826SOL    HW2 2478   2.540   1.512   2.403  1.7214 -1.2012 -0.4809
  827SOL     OW 2479   2.298   2.399   1.286 -0.6062  0.2576  0.2591
  827SOL    HW1 2480   2.222   2.342   1.248  1.9320  0.4697  0.0441
  827SOL    HW2 2481   2.259   2.461   1.354  1.9587 -2.1107 -0.8772
  828SOL     OW 2482   0.244   3.021   1.332 -0.5476 -0.3171 -0.0706
  828SOL    HW1 2483   0.156   2.969   1.350  3.4711 -0.3433 -1.4704
  828SOL    HW2 2484   0.272   3.083   1.409  0.8113 -0.9252 -3.3324
  829SOL     OW 2485   1.468   2.527   2.559  0.1361  0.3244  0.0038
  829SOL    HW1 2486   1.513   2.456   2.614  1.9362  1.5738  1.2632
  829SOL    HW2 2487   1.420   2.494   2.476  0.9682  0.8435  0.7644
  830SOL     OW 2488   0.956   0.366   0.695 -0.2656  0.5216 -0.3913
  830SOL    HW1 2489   0.880   0.345   0.760  0.2386 -1.4394  0.0405
  830SOL    HW2 2490   0.996   0.457   0.718  0.2039 -2.4128 -1.8991
  831SOL     OW 2491   2.790   1.426   3.031 -0.1478  0.3122  0.3871
  831SOL    HW1 2492   2.871   1.438   3.091  2.5998 -0.9279  0.8514
  831SOL    HW2 2493   2.818   1.402   2.933 -0.4927 -0.9836 -1.7011
  832SOL     OW 2494   1.755   1.991   2.216  0.2513 -0.7593 -0.8709
  832SOL    HW1 2495   1.679   2.041   2.265 -0.4214 -0.2947  0.4701
  832SOL    HW2 2496   1.812   2.056   2.159 -0.5865  1.1314  0.7839
  833SOL     OW 2497   0.814   0.486   2.166  0.4458 -0.2546  0.0982
  833SOL    HW1 2498   0.864   0.404   2.207  1.4323  1.8480  0.1525
  833SOL    HW2 2499   0.730   0.515   2.207  1.6289 -1.0631 -0.5132
  834SOL     OW 2500   0.590   1.095   1.660 -0.0682  0.1899 -0.1959
  834SOL    HW1 2501   0.504   1.066   1.612 -2.5594  0.2911 -0.1036
  834SOL    HW2 2502   0.666   1.029   1.643  0.9608 -1.9777  2.7588
  835SOL     OW 2503   2.686   0.932   0.080  0.0519  0.0180 -1.1464
  835SOL    HW1 2504   2.659   0.833   0.072 -0.5587  0.6180 -2.0755
  835SOL    HW2 2505   2.616   0.993   0.031  0.4547  1.9997 -1.8248
  836SOL     OW 2506   0.953   1.788   0.181 -0.4625  0.7601  0.1130
  836SOL    HW1 2507   0.955   1.875   0.230  1.1565 -2.8161  0.5704
  836SOL    HW2 2508   1.038   1.775   0.125 -1.8933 -0.8800  0.9510
  837SOL     OW 2509   1.714   1.731   0.896  0.0584  0.0673  0.2765
  837SOL    HW1 2510   1.725   1.773   0.804  0.5936  1.0346  2.6706
  837SOL    HW2 2511   1.618   1.745   0.923 -0.3162  2.5559  1.9592
  838SOL     OW 2512   1.167   1.267   2.154  0.6891 -0.7396 -0.6799
  838SOL    HW1 2513   1.078   1.221   2.181 -0.0470  1.9022  0.6694
  838SOL    HW2 2514   1.135   1.348   2.105  0.8333  3.3520  2.2472
  839SOL     OW 2515   0.794   1.955   2.558 -0.1636  0.1956  0.4393
  839SOL    HW1 2516   0.845   1.910   2.631 -1.4645 -2.7742 -1.7109
  839SOL    HW2 2517   0.775   2.050   2.593 -0.8925  0.5372 -1.0926
  840SOL     OW 2518   0.771   2.263   0.285 -0.1794  0.2058  0.0692
  840SOL    HW1 2519   0.692   2.278   0.226 -1.5556  0.2748 -0.4098
  840SOL    HW2 2520   0.737   2.250   0.381  0.8260  0.2988 -1.4153
  841SOL     OW 2521   1.890   2.632   0.324  0.1211  0.0034 -0.2620
  841SOL    HW1 2522   1.797   2.642   0.364 -1.0975  0.4171  4.2035
  841SOL    HW2 2523   1.916   2.534   0.334 -0.9869 -1.9576  0.7720
  842SOL     OW 2524   0.462   0.642   3.089  0.1305  0.5420 -0.5489
  842SOL    HW1 2525   0.402   0.643   0.047 -2.7299 -0.3808 -0.7208
  842SOL    HW2 2526   0.557   0.676   3.108  0.4598  0.8669  1.8984
  843SOL     OW 2527   1.215   0.256   0.744  0.8347 -0.2798 -0.3889
  843SOL    HW1 2528   1.120   0.296   0.763 -2.1303  1.0439  0.3512
  843SOL    HW2 2529   1.286   0.305   0.796 -1.7800 -1.9078 -0.5661
  844SOL     OW 2530   3.025   3.073   2.718 -0.3362  0.0378 -0.2749
  844SOL    HW1 2531   3.052   3.046   2.626  1.1723  1.2807 -0.9640
  844SOL    HW2 2532   2.931   3.048   2.747 -1.0778 -2.1817  1.4464
  845SOL     OW 2533   2.530   2.224   1.011  0.1655 -0.3340 -0.3482
  845SOL    HW1 2534   2.463   2.150   1.021 -1.0916  0.7301  0.4943
  845SOL    HW2 2535   2.557   2.269   1.097  0.9078 -1.0767 -0.8123
  846SOL     OW 2536   2.813   2.066   2.206 -0.1560 -0.5458 -0.3330
  846SOL    HW1 2537   2.863   2.090   2.118 -1.2284 -0.4559 -0.0319
  846SOL    HW2 2538   2.877   2.031   2.281  1.0292  0.1536  1.8939
  847SOL     OW 2539   1.198   0.811   1.629 -0.2320  0.0270  0.6589
  847SOL    HW1 2540   1.148   0.815   1.722 -2.0632 -0.8845  3.1110
  847SOL    HW2 2541   1.261   0.733   1.626 -0.4472 -0.8449  0.1360
  848SOL     OW 2542   2.694   2.998   3.099  0.2080  0.7699 -0.3362
  848SOL    HW1 2543   2.597   2.988   3.108  3.5340 -0.1546 -1.8851
  848SOL    HW2 2544   2.744   2.938   0.041 -2.6322  1.3836 -3.3119
  849SOL     OW 2545   0.805   2.871   2.941  0.1344 -0.5038  0.6977
  849SOL    HW1 2546   0.760   2.782   2.953 -2.5961 -0.0477 -0.8771
  849SOL    HW2 2547   0.888   2.863   2.881 -0.4700  1.1122  0.7764
  850SOL     OW 2548   1.149   2.750   1.341 -0.2120  0.4471 -0.4995
  850SOL    HW1 2549   1.231   2.697   1.315 -1.0615 -2.5568  0.7613
  850SOL    HW2 2550   1.132   2.812   1.263 -1.8127 -0.7454  1.5994
  851SOL     OW 2551   2.654   0.401   2.041 -0.0261  0.2155  0.3726
  851SOL    HW1 2552   2.660   0.465   1.962 -2.2212  5.1111 -0.1659
  851SOL    HW2 2553   2.741   0.357   2.076 -0.1175  1.0324 -1.3872
  852SOL     OW 2554   1.989   0.673   2.432 -0.4754 -0.0375  0.0178
  852SOL    HW1 2555   1.975   0.678   2.329  1.8890  0.3214 -0.1138
  852SOL    HW2 2556   2.087   0.680   2.455 -0.2737 -1.9025 -3.3311
  853SOL     OW 2557   3.018   3.018   0.653  0.3386 -1.1172 -0.0676
  853SOL    HW1 2558   2.995   3.097   0.718  0.8533  2.0631 -1.6026
  853SOL    HW2 2559   2.985   3.035   0.561  2.6147 -2.8757  2.5252
  854SOL     OW 2560   2.315   1.381   2.064  0.4878  0.4008 -0.5266
  854SOL    HW1 2561   2.322   1.294   2.009 -0.2023 -1.9455 -2.6192
  854SOL    HW2 2562   2.404   1.426   2.063 -0.6814 -4.3634 -1.7065
  855SOL     OW 2563   1.007   2.678   0.240 -1.0076 -0.2300 -0.0485
  855SOL    HW1 2564   0.910   2.695   0.222  2.9746  1.5154 -0.6984
  855SOL    HW2 2565   1.042   2.598   0.185  0.4946 -0.9859 -2.3327
  856SOL     OW 2566   3.081   0.261   2.711  0.6964  0.0878  0.1026
  856SOL    HW1 2567   2.988   0.250   2.745  1.8196  0.6724 -0.1089
  856SOL    HW2 2568   0.003   0.326   2.774 -0.8030 -1.7250  0.3230
  857SOL     OW 2569   1.123   3.063   1.698  0.6598 -0.5855 -0.4862
  857SOL    HW1 2570   1.143   3.038   1.599  3.0800 -1.9113 -3.6359
  857SOL    HW2 2571   1.029   3.025   1.727 -0.9038  0.7379  3.2628
  858SOL     OW 2572   2.646   2.223   1.570 -0.3665  0.4007 -0.7715
  858SOL    HW1 2573   2.653   2.124   1.596  0.1609  1.4736  0.4779
  858SOL    HW2 2574   2.576   2.268   1.626 -0.3811 -1.4100 -0.8683
  859SOL     OW 2575   1.598   2.504   1.979 -0.2599  0.7241 -0.4610
  859SOL    HW1 2576   1.517   2.509   1.913  0.0118 -0.4240  0.0399
  859SOL    HW2 2577   1.638   2.598   1.985  0.5629 -2.9419 -1.8039
  860SOL     OW 2578   2.493   2.631   3.121 -0.2492 -0.1194  0.0264
  860SOL    HW1 2579   2.474   2.603   3.024  0.8428  1.0248  1.3220
  860SOL    HW2 2580   2.418   2.693   0.029  1.6498  1.5996 -0.0064
  861SOL     OW 2581   2.177   2.866   0.755 -0.3459 -0.3261 -0.0236
  861SOL    HW1 2582   2.148   2.950   0.708  1.2080 -1.0433 -1.6503
  861SOL    HW2 2583   2.190   2.784   0.688  3.1008 -2.4898 -0.6796
  862SOL     OW 2584   1.808   0.065   2.447 -0.4208 -0.1599 -0.1557
  862SOL    HW1 2585   1.874   3.116   2.480 -0.8804  4.5199  0.3415
  862SOL    HW2 2586   1.864   0.137   2.402  1.8407 -0.1405  0.1713
  863SOL     OW 2587   3.122   0.708   0.806 -0.5297 -0.3214  0.8267
  863SOL    HW1 2588   0.080   0.676   0.744 -1.5506  0.2352 -0.1444
  863SOL    HW2 2589   3.033   0.689   0.760 -0.6994  2.0923 -2.2486
  864SOL     OW 2590   0.324   2.790   2.193  0.1112  0.5600  0.1564
  864SOL    HW1 2591   0.356   2.889   2.193 -0.0713  0.4760  1.8157
  864SOL    HW2 2592   0.367   2.741   2.270  0.7639 -3.2115 -0.8964
  865SOL     OW 2593   0.648   1.171   0.048  0.1083 -0.3547 -0.0562
  865SOL    HW1 2594   0.662   1.104   3.095  0.6901  0.2607 -0.4311
  865SOL    HW2 2595   0.550   1.178   0.077  2.0085  0.4892 -0.2990
  866SOL     OW 2596   2.674   0.647   0.108  0.1532 -0.4831  0.4819
  866SOL    HW1 2597   2.761   0.627   0.057  1.7230  0.8868  0.6742
  866SOL    HW2 2598   2.600   0.589   0.069  2.4222 -0.2444 -0.3328
  867SOL     OW 2599   3.066   0.044   2.986 -0.3471 -0.7077  0.5608
  867SOL    HW1 2600   3.058   3.101   3.062  1.8820  1.2955 -0.0318
  867SOL    HW2 2601   3.110   3.118   2.909  0.2392 -1.6677 -1.2310
  868SOL     OW 2602   1.527   0.066   0.541 -0.1997  0.0977  0.0689
  868SOL    HW1 2603   1.445   0.120   0.511  1.4009  0.9920 -0.1828
  868SOL    HW2 2604   1.502   3.092   0.521  2.3928 -0.2560 -1.9950
  869SOL     OW 2605   1.510   1.720   0.641  0.0735 -0.7629  0.3295
  869SOL    HW1 2606   1.421   1.750   0.597 -2.3338 -0.3120 -1.5648
  869SOL    HW2 2607   1.582   1.798   0.646  1.4860  2.6434  1.3147
  870SOL     OW 2608   1.741   1.876   0.673  0.3371  0.3949 -0.4674
  870SOL    HW1 2609   1.824   1.892   0.727 -0.8890  0.0406 -1.5412
  870SOL    HW2 2610   1.746   1.917   0.575  0.3777  0.0672 -2.9538
  871SOL     OW 2611   1.243   1.441   1.442  0.6777 -0.0678 -0.1023
  871SOL    HW1 2612   1.227   1.373   1.517 -1.8409  1.6747  1.5459
  871SOL    HW2 2613   1.308   1.407   1.374 -1.0804  0.6495  1.1144
  872SOL     OW 2614   1.028   1.747   1.718  0.0491  0.0161 -0.9101
  872SOL    HW1 2615   0.954   1.701   1.668  3.1166  1.7579 -0.5538
  872SOL    HW2 2616   1.002   1.780   1.813 -1.3331 -2.6434  1.0348
  873SOL     OW 2617   0.903   1.434   2.643 -0.5981 -0.2905 -0.4760
  873SOL    HW1 2618   0.807   1.443   2.618  1.6734 -0.0137 -0.1653
  873SOL    HW2 2619   0.918   1.444   2.742  0.6076  0.1656 -2.0855
  874SOL     OW 2620   0.335   1.387   1.031 -0.3769 -0.0597 -0.8107
  874SOL    HW1 2621   0.307   1.485   1.047 -1.0410 -1.5238  0.2977
  874SOL    HW2 2622   0.263   1.339   0.979  2.5690  1.5192  1.0294
  875SOL     OW 2623   2.709   0.015   1.148  0.2399 -0.2233  0.5844
  875SOL    HW1 2624   2.640   3.087   1.092 -3.4987 -2.3634 -1.0665
  875SOL    HW2 2625   2.664   0.038   1.240 -0.2288  2.7695  3.7970
  876SOL     OW 2626   0.710   0.724   0.049  0.0622 -0.3631 -0.1264
  876SOL    HW1 2627   0.782   0.653   0.029  0.5902 -0.3819 -2.6529
  876SOL    HW2 2628   0.715   0.754   0.146 -1.6134 -0.9753 -3.0263
  877SOL     OW 2629   3.121   0.250   1.251  0.0296 -0.4619  0.2998
  877SOL    HW1 2630   3.033   0.244   1.203  2.3894  1.1371 -1.4256
  877SOL    HW2 2631   3.100   0.237   1.351 -1.7919  0.1505  0.0027
  878SOL     OW 2632   1.812   2.209   3.031 -0.0690  0.3590  0.3646
  878SOL    HW1 2633   1.911   2.197   3.038  2.8643 -0.1347 -0.4765
  878SOL    HW2 2634   1.768   2.121   3.061  0.3450  0.2365  3.0774
  879SOL     OW 2635   2.264   2.125   1.477 -0.6286 -0.2051 -0.0166
  879SOL    HW1 2636   2.311   2.195   1.533 -2.4081 -0.4625  0.4554
  879SOL    HW2 2637   2.165   2.148   1.471 -2.8928  0.9107  2.5653
  880SOL     OW 2638   0.894   0.239   1.645 -0.3012 -0.1678 -0.1652
  880SOL    HW1 2639   0.898   0.263   1.746 -1.0242 -1.8408 -1.8962
  880SOL    HW2 2640   0.904   0.140   1.633 -0.3326  0.9652 -2.6181
  881SOL     OW 2641   1.180   2.049   3.079  0.3696  0.0057  0.1802
  881SOL    HW1 2642   1.138   2.027   2.990  0.1158 -0.0481 -1.2962
  881SOL    HW2 2643   1.192   1.966   0.017  0.7733  0.0160  0.4937
  882SOL     OW 2644   2.364   1.289   1.575 -0.4571  0.0341 -0.1300
  882SOL    HW1 2645   2.382   1.215   1.510  1.6919  3.6671  4.1622
  882SOL    HW2 2646   2.356   1.249   1.666  1.6886  0.9799 -1.5105
  883SOL     OW 2647   1.226   0.822   2.086  0.1056  0.6952  0.5817
  883SOL    HW1 2648   1.130   0.847   2.063 -0.9727 -0.2582  0.9188
  883SOL    HW2 2649   1.266   0.748   2.030 -2.1008  0.1735  3.1540
  884SOL     OW 2650   2.750   0.451   2.968  0.4058  0.0674  0.2743
  884SOL    HW1 2651   2.669   0.480   3.020 -0.6005  1.0696 -0.9037
  884SOL    HW2 2652   2.814   0.533   2.966 -1.3151 -1.8945  0.4405
  885SOL     OW 2653   0.322   2.206   0.368  0.2767  0.6293 -0.3553
  885SOL    HW1 2654   0.317   2.109   0.332 -2.7395  1.0389  0.3705
  885SOL    HW2 2655   0.399   2.261   0.328 -1.2056 -1.8308  2.0158
  886SOL     OW 2656   1.976   1.134   3.084  0.0001  0.1470 -0.2080
  886SOL    HW1 2657   1.972   1.096   2.992  0.2236  0.4164  1.1270
  886SOL    HW2 2658   1.890   1.188   3.110  3.5191  0.8318  0.8727
  887SOL     OW 2659   1.620   0.579   1.827  0.3285 -0.2781  0.2324
  887SOL    HW1 2660   1.674   0.538   1.900 -0.0222  2.7487 -1.1546
  887SOL    HW2 2661   1.654   0.677   1.816  0.0387  0.2542  0.7252
  888SOL     OW 2662   2.990   1.214   1.644  0.1400 -0.1613  0.3008
  888SOL    HW1 2663   3.054   1.180   1.572  0.4962 -1.9491 -1.5192
  888SOL    HW2 2664   3.040   1.235   1.733 -3.2367  0.6639 -1.9283
  889SOL     OW 2665   2.843   2.480   0.995  0.3538  0.2796 -0.1602
  889SOL    HW1 2666   2.933   2.494   1.038 -1.0034  2.4115 -1.4419
  889SOL    HW2 2667   2.840   2.389   0.955  0.5390  1.1699  1.0469
  890SOL     OW 2668   0.167   2.659   2.585  0.2282  0.3530 -0.0962
  890SOL    HW1 2669   0.150   2.564   2.623 -2.4954 -2.2562 -0.2597
  890SOL    HW2 2670   0.167   2.733   2.659 -0.7635 -0.3357  0.4822
  891SOL     OW 2671   0.531   1.846   0.168  0.3012  0.7742  0.2516
  891SOL    HW1 2672   0.586   1.885   0.243  2.9436 -2.7681  0.8151
  891SOL    HW2 2673   0.530   1.742   0.188 -1.6304 -5.3531  1.0145
  892SOL     OW 2674   3.062   2.188   1.050  0.1230  0.4802 -0.0742
  892SOL    HW1 2675   3.016   2.179   1.139  0.9601 -0.0941  0.2203
  892SOL    HW2 2676   2.991   2.169   0.981 -2.8806  1.4150 -0.8755
  893SOL     OW 2677   0.534   2.958   1.543 -0.3590 -0.0766 -0.2249
  893SOL    HW1 2678   0.591   3.044   1.545  0.5415 -0.4495 -0.4730
  893SOL    HW2 2679   0.441   2.983   1.564  3.9563 -1.1962 -0.3429
  894SOL     OW 2680   2.374   1.663   0.852  0.1150 -0.0589  0.0413
  894SOL    HW1 2681   2.418   1.603   0.923 -0.3014  3.0752 -2.0002
  894SOL    HW2 2682   2.361   1.609   0.767 -0.9458  2.5492  0.9433
  895SOL     OW 2683   2.739   2.676   1.690 -0.1577  0.7056  0.0646
  895SOL    HW1 2684   2.752   2.576   1.675  2.0609  0.8083 -2.3504
  895SOL    HW2 2685   2.812   2.727   1.645 -2.0165 -0.5255  0.9664
  896SOL     OW 2686   0.984   0.460   1.486  0.0722  0.3258  0.0434
  896SOL    HW1 2687   1.084   0.433   1.492 -0.9436 -0.8975 -0.1800
  896SOL    HW2 2688   0.923   0.382   1.518  1.5791 -1.0961  0.6350
  897SOL     OW 2689   0.887   1.612   1.522  0.2120  0.2741 -0.2301
  897SOL    HW1 2690   0.828   1.676   1.473  0.3781 -1.0388  3.5583
  897SOL    HW2 2691   0.973   1.615   1.473 -1.3151  3.8685 -0.4826
  898SOL     OW 2692   1.590   2.704   1.703  0.2279  0.6858  0.2217
  898SOL    HW1 2693   1.646   2.623   1.675  1.5725 -1.7502  0.5227
  898SOL    HW2 2694   1.594   2.721   1.804 -0.7878  2.9439  0.0822
  899SOL     OW 2695   0.900   0.527   0.026  0.1318 -0.2538  0.2742
  899SOL    HW1 2696   0.980   0.564   3.101  0.1738  3.1157  1.4097
  899SOL    HW2 2697   0.893   0.422   0.028  1.6063 -2.9147  0.3702
  900SOL     OW 2698   1.433   2.357   2.147 -0.0357 -0.3442  0.7520
  900SOL    HW1 2699   1.403   2.413   2.225 -2.2148  2.1724 -0.9849
  900SOL    HW2 2700   1.484   2.414   2.080  0.7665 -0.8793  1.0885
  901SOL     OW 2701   1.219   2.269   0.121  0.3242  0.3997  0.0368
  901SOL    HW1 2702   1.185   2.187   0.065 -2.8149 -3.0266 -0.4773
  901SOL    HW2 2703   1.312   2.240   0.157 -2.7991 -1.4027  0.8924
  902SOL     OW 2704   1.683   1.348   0.723 -0.8726  0.0722 -0.0867
  902SOL    HW1 2705   1.731   1.412   0.779 -1.1525  2.6506 -1.4314
  902SOL    HW2 2706   1.617   1.391   0.661  2.4759  0.0081 -0.7189
  903SOL     OW 2707   2.407   1.007   3.081 -0.2246  0.0393  0.0734
  903SOL    HW1 2708   2.446   1.053   3.000 -0.2572  0.7010 -2.6154
  903SOL    HW2 2709   2.330   0.945   3.050  0.5266 -2.4648 -3.0537
  904SOL     OW 2710   0.920   1.254   0.138  0.0683 -0.3595 -0.7390
  904SOL    HW1 2711   0.830   1.228   0.100 -2.6319  1.3419 -0.7389
  904SOL    HW2 2712   0.917   1.243   0.238 -1.1590  3.2311  0.3686
  905SOL     OW 2713   1.790   3.022   1.220 -0.1336 -0.1797 -0.0218
  905SOL    HW1 2714   1.700   3.058   1.183  0.4623 -1.6139 -0.7603
  905SOL    HW2 2715   1.810   3.050   1.315  0.4888  0.9680  3.5231
  906SOL     OW 2716   2.704   2.533   1.230 -0.6648  0.9334 -0.0444
  906SOL    HW1 2717   2.755   2.502   1.147  0.0973 -0.1067 -0.4620
  906SOL    HW2 2718   2.650   2.452   1.267  0.0236 -0.4455 -1.7142
  907SOL     OW 2719   1.154   0.989   0.407  0.2982  0.2310 -0.1017
  907SOL    HW1 2720   1.146   0.905   0.461  0.2009 -1.1958  0.3544
  907SOL    HW2 2721   1.091   0.985   0.322 -0.7619 -2.0227 -5.2616
  908SOL     OW 2722   1.507   0.185   1.030 -0.6510  0.0356 -0.1441
  908SOL    HW1 2723   1.501   0.101   1.091 -2.2907  0.8938  0.2559
  908SOL    HW2 2724   1.587   0.246   1.053 -1.4565  1.2483 -1.2163
  909SOL     OW 2725   2.361   1.073   1.402  0.1794  0.0153 -0.2481
  909SOL    HW1 2726   2.444   1.013   1.402  2.2415 -1.7241 -2.2756
  909SOL    HW2 2727   2.331   1.090   1.305 -0.2777 -1.1800  1.5119
  910SOL     OW 2728   1.926   0.699   2.163  0.3042  0.0197  0.3553
  910SOL    HW1 2729   1.961   0.788   2.128  2.1642  2.2799 -1.4889
  910SOL    HW2 2730   1.960   0.623   2.096 -1.9158 -0.7272 -3.1209
  911SOL     OW 2731   2.379   0.924   2.744 -0.3595  0.3522  0.3374
  911SOL    HW1 2732   2.417   1.007   2.786  0.6558  3.7535 -0.7517
  911SOL    HW2 2733   2.281   0.907   2.764 -0.7023  1.1180 -1.5125
  912SOL     OW 2734   0.326   1.014   1.809  0.5971 -0.1312 -0.0261
  912SOL    HW1 2735   0.304   0.943   1.741  1.0983  1.0399  2.3607
  912SOL    HW2 2736   0.307   1.103   1.773  0.6550 -3.0809 -0.5170
  913SOL     OW 2737   2.926   2.161   1.288 -0.1975  0.2158 -0.3289
  913SOL    HW1 2738   2.959   2.103   1.368 -0.1342 -0.6291 -1.2244
  913SOL    HW2 2739   2.822   2.147   1.273 -0.8195  1.7273  1.7061
  914SOL     OW 2740   1.710   1.048   1.878 -0.0335  0.2237  0.1658
  914SOL    HW1 2741   1.804   1.089   1.880  0.0671  1.0092  0.7562
  914SOL    HW2 2742   1.707   0.949   1.846 -0.2384  0.2812 -1.6388
  915SOL     OW 2743   2.381   0.870   1.120 -0.0611  0.5974  0.2893
  915SOL    HW1 2744   2.356   0.772   1.128 -0.5681 -0.3189  1.0039
  915SOL    HW2 2745   2.422   0.871   1.028 -3.9838  0.2589  0.1144
  916SOL     OW 2746   1.922   2.137   0.975 -0.4591  0.4274 -0.3643
  916SOL    HW1 2747   1.848   2.194   1.016 -1.1183 -0.2307  1.1391
  916SOL    HW2 2748   1.909   2.040   1.004  0.9889 -0.6067 -0.2199
  917SOL     OW 2749   1.980   2.091   2.413 -0.4678  0.6461  0.0080
  917SOL    HW1 2750   1.886   2.116   2.435 -0.2654  0.9082  1.1903
  917SOL    HW2 2751   2.028   2.178   2.389  2.0359 -0.4683 -0.7938
  918SOL     OW 2752   2.027   2.386   2.479  0.1462  0.7962  0.1851
  918SOL    HW1 2753   1.959   2.382   2.557  1.8187 -1.8447  1.7672
  918SOL    HW2 2754   1.981   2.421   2.392 -0.1514 -0.8075  0.3447
  919SOL     OW 2755   1.180   3.013   1.441  0.1880 -0.1144  0.4974
  919SOL    HW1 2756   1.190   2.918   1.415 -1.0321  0.2479  0.9508
  919SOL    HW2 2757   1.258   3.071   1.420 -1.9500  0.2779  2.5969
  920SOL     OW 2758   2.987   0.257   2.420  0.1241 -0.1716  0.2943
  920SOL    HW1 2759   3.024   0.269   2.513 -2.6372 -0.8153 -1.6107
  920SOL    HW2 2760   2.922   0.177   2.421  0.4766  0.2837 -0.3345
  921SOL     OW 2761   0.059   0.801   1.510 -0.0703  0.4829  0.2015
  921SOL    HW1 2762   0.054   0.790   1.411  1.2415  0.5725  2.6387
  921SOL    HW2 2763   0.152   0.809   1.548 -0.2061  1.3285  0.7077
  922SOL     OW 2764   2.232   2.571   0.367  0.1382  1.0400  0.1965
  922SOL    HW1 2765   2.192   2.656   0.327 -0.0706  0.0248 -1.5680
  922SOL    HW2 2766   2.331   2.559   0.337 -0.1588  1.2922 -0.5724
  923SOL     OW 2767   0.638   2.195   0.539  0.3381  0.2518  0.1155
  923SOL    HW1 2768   0.720   2.189   0.600  1.0209  1.3997  1.9377
  923SOL    HW2 2769   0.553   2.220   0.589 -2.3836  0.0545  1.2243
  924SOL     OW 2770   1.070   0.608   0.255  0.0756  0.1356  0.7076
  924SOL    HW1 2771   1.013   0.694   0.268 -1.3161  1.9215 -2.0454
  924SOL    HW2 2772   1.044   0.563   0.169 -0.6239 -0.6018 -1.0986
  925SOL     OW 2773   2.676   0.746   1.040  0.4761 -0.2155  0.3030
  925SOL    HW1 2774   2.622   0.692   1.111  0.5236 -0.5020 -1.0677
  925SOL    HW2 2775   2.612   0.796   0.980 -1.1571 -0.4122 -1.5039
  926SOL     OW 2776   0.513   0.060   1.227  0.7956  0.0689  0.0217
  926SOL    HW1 2777   0.528   0.145   1.283  2.2195  0.2639  0.0784
  926SOL    HW2 2778   0.466   3.107   1.277  0.8951  0.4183  1.3097
  927SOL     OW 2779   0.428   1.757   2.343  1.1141  0.4840  0.5025
  927SOL    HW1 2780   0.393   1.749   2.441  0.1491  1.1422  0.9381
  927SOL    HW2 2781   0.392   1.687   2.282  2.2318 -0.2135  0.1214
  928SOL     OW 2782   0.181   0.524   2.419  0.4754 -0.0990  0.5319
  928SOL    HW1 2783   0.094   0.504   2.368  1.1683 -0.2186  0.5946
  928SOL    HW2 2784   0.199   0.442   2.479 -0.0910  1.6567  1.3514
  929SOL     OW 2785   2.896   2.943   1.126 -0.2181 -0.6165 -0.2899
  929SOL    HW1 2786   2.941   2.938   1.036 -1.2099 -2.2994  0.8317
  929SOL    HW2 2787   2.832   3.023   1.129 -0.2886  1.0703  1.7959
  930SOL     OW 2788   1.980   0.749   1.838  0.6455  0.5976 -0.4778
  930SOL    HW1 2789   2.013   0.667   1.892  1.0391 -2.9021  1.4633
  930SOL    HW2 2790   1.991   0.835   1.898 -3.5801  0.9767  1.8796
  931SOL     OW 2791   1.729   1.252   0.069 -0.2504 -0.4550 -0.0981
  931SOL    HW1 2792   1.652   1.239   0.008  2.0384  0.6222  3.1233
  931SOL    HW2 2793   1.712   1.308   0.149 -0.4089 -0.2856 -2.0524
  932SOL     OW 2794   1.982   1.190   0.440  0.0380 -0.5460 -0.0871
  932SOL    HW1 2795   2.018   1.106   0.403 -0.2036 -0.3362  2.3314
  932SOL    HW2 2796   1.902   1.176   0.502 -1.9077 -0.2066 -0.0689
  933SOL     OW 2797   2.113   1.705   0.980  0.2267  0.1819  0.2546
  933SOL    HW1 2798   2.204   1.717   0.942  0.3327  0.5245  2.0834
  933SOL    HW2 2799   2.114   1.720   1.083  0.4005  2.8192  1.6714
  934SOL     OW 2800   1.900   0.847   2.640  0.0942  0.0493  0.4165
  934SOL    HW1 2801   1.917   0.777   2.562 -0.1807 -1.9505  2.1249
  934SOL    HW2 2802   1.795   0.848   2.659 -3.1347 -2.1077 -0.6647
  935SOL     OW 2803   0.131   0.959   0.583 -0.3655  0.3639  0.2391
  935SOL    HW1 2804   0.158   0.923   0.488  1.2403 -2.4303 -1.5863
  935SOL    HW2 2805   0.033   0.941   0.608  2.4697  0.1054 -1.5261
  936SOL     OW 2806   0.538   3.028   0.908  0.2829  0.4126  0.0236
  936SOL    HW1 2807   0.608   2.956   0.939  1.7491 -3.0662  0.3782
  936SOL    HW2 2808   0.594   3.091   0.848  0.4817 -0.7299  3.2611
  937SOL     OW 2809   3.076   3.088   2.076 -0.1918  0.1348  0.4202
  937SOL    HW1 2810   0.017   3.017   2.110  0.1947 -2.3404 -2.3409
  937SOL    HW2 2811   3.000   3.043   2.025 -1.4445 -2.7645  2.2782
  938SOL     OW 2812   0.193   2.663   0.017  0.2288 -0.2688  0.1981
  938SOL    HW1 2813   0.106   2.616   0.026  0.4469  1.7829 -0.6361
  938SOL    HW2 2814   0.226   2.684   0.113 -2.0669 -1.4959 -0.4115
  939SOL     OW 2815   1.235   1.873   0.894 -0.2310 -0.6216  0.0519
  939SOL    HW1 2816   1.177   1.795   0.913 -0.0906 -0.5935 -2.2175
  939SOL    HW2 2817   1.330   1.853   0.913  1.9722 -0.3853  0.4767
  940SOL     OW 2818   3.105   0.582   0.084 -0.2011 -0.8245  0.1206
  940SOL    HW1 2819   3.103   0.486   0.043  0.2687  0.5773  1.6305
  940SOL    HW2 2820   0.058   0.591   0.149  0.8586  0.3940  0.5410
  941SOL     OW 2821   2.207   0.207   2.618 -0.0862 -0.2244 -0.1326
  941SOL    HW1 2822   2.205   0.260   2.529  1.3380  1.0875 -0.2908
  941SOL    HW2 2823   2.111   0.201   2.643  2.0460  1.5952  2.8619
  942SOL     OW 2824   1.388   0.383   0.896  0.1449 -0.1786 -0.0931
  942SOL    HW1 2825   1.421   0.318   0.965 -0.1251  3.1150 -1.6504
  942SOL    HW2 2826   1.333   0.462   0.942 -0.7481  2.5104 -1.0834
  943SOL     OW 2827   1.042   0.859   1.835 -0.4660  0.1152  0.1282
  943SOL    HW1 2828   0.998   0.800   1.905 -0.8037  1.0655  0.3969
  943SOL    HW2 2829   1.015   0.955   1.854  0.0737  0.3684  0.2827
  944SOL     OW 2830   2.094   1.036   1.582  0.0092  0.2978 -0.3599
  944SOL    HW1 2831   2.074   0.937   1.577  1.4886  2.5300 -0.2556
  944SOL    HW2 2832   2.192   1.045   1.564  0.0142 -0.4345 -0.9491
  945SOL     OW 2833   2.759   0.108   0.112  0.3061  0.2701 -0.3286
  945SOL    HW1 2834   2.740   0.084   0.208 -1.8353 -0.9602  0.3539
  945SOL    HW2 2835   2.735   0.023   0.057  0.3548 -0.5326 -0.4294
  946SOL     OW 2836   3.009   0.993   1.965 -0.0269  0.0492 -0.6228
  946SOL    HW1 2837   3.035   1.088   1.937 -1.2748 -0.5997  1.4961
  946SOL    HW2 2838   3.039   0.927   1.892 -0.3525 -0.9825  2.9192
  947SOL     OW 2839   1.065   3.097   0.154  0.2294 -0.8785 -0.0353
  947SOL    HW1 2840   0.988   3.067   0.091 -1.7071  0.3040  1.1759
  947SOL    HW2 2841   1.033   0.026   0.238  1.7644 -1.2508  0.2769
  948SOL     OW 2842   2.341   1.894   1.346 -0.5114  0.0723  0.0793
  948SOL    HW1 2843   2.319   1.972   1.407 -0.4078 -0.6339 -0.2708
  948SOL    HW2 2844   2.373   1.811   1.397 -1.9288 -0.3547  2.2495
  949SOL     OW 2845   0.048   1.338   3.011 -0.0964 -0.3549  0.0406
  949SOL    HW1 2846   0.035   1.288   2.922 -0.0584 -2.5453  1.1775
  949SOL    HW2 2847   0.104   1.423   2.999  2.4560  0.4884  1.5201
  950SOL     OW 2848   0.804   2.418   1.032  0.3177  0.0759 -0.0903
  950SOL    HW1 2849   0.738   2.447   1.109 -1.0491 -0.9518  0.2635
  950SOL    HW2 2850   0.759   2.404   0.939  0.6772  1.4520  0.6661
  951SOL     OW 2851   0.643   1.465   2.604  0.1290  0.0959 -0.6689
  951SOL    HW1 2852   0.614   1.554   2.641  1.9206  1.7073 -1.4688
  951SOL    HW2 2853   0.598   1.384   2.651  4.1351  1.2623  0.6545
  952SOL     OW 2854   0.457   0.720   0.683  0.0759  0.6528  0.6302
  952SOL    HW1 2855   0.447   0.674   0.772 -1.1764  1.0267 -0.1991
  952SOL    HW2 2856   0.515   0.798   0.694 -1.6035 -0.7275  0.9405
  953SOL     OW 2857   2.688   3.103   2.206  0.0834 -0.2002 -0.0324
  953SOL    HW1 2858   2.604   0.023   2.240  2.5087 -0.6214 -0.9752
  953SOL    HW2 2859   2.763   0.011   2.273  1.5859  2.0196  0.1246
  954SOL     OW 2860   1.333   1.000   0.808 -0.2579 -0.3934 -0.4030
  954SOL    HW1 2861   1.427   1.048   0.812  3.4859 -1.9728 -1.6384
  954SOL    HW2 2862   1.319   0.965   0.714  0.5621  2.5167  0.7936
  955SOL     OW 2863   0.664   1.982   0.367 -0.2183 -0.2408  0.2032
  955SOL    HW1 2864   0.765   1.974   0.358 -1.8729 -1.5613 -0.9650
  955SOL    HW2 2865   0.643   2.052   0.432  5.5997 -0.4083 -2.1910
  956SOL     OW 2866   2.295   0.504   2.135 -0.2487 -0.0242 -0.2537
  956SOL    HW1 2867   2.330   0.596   2.158 -0.8662 -0.7670  2.4129
  956SOL    HW2 2868   2.360   0.432   2.174  0.2643 -2.4205 -0.7778
  957SOL     OW 2869   2.267   2.510   2.067  0.1155 -0.1404  0.1763
  957SOL    HW1 2870   2.346   2.541   2.012 -3.0209 -2.0853  1.6441
  957SOL    HW2 2871   2.274   2.412   2.088 -1.9099  1.1029  4.4413
  958SOL     OW 2872   1.762   1.179   1.303  0.2666  0.1431 -0.3528
  958SOL    HW1 2873   1.778   1.226   1.395  0.0632  0.2371  0.8479
  958SOL    HW2 2874   1.828   1.216   1.233 -0.4707  0.6579  1.7743
  959SOL     OW 2875   1.991   1.706   2.065  0.0885 -0.4692  0.4987
  959SOL    HW1 2876   1.919   1.764   2.021 -3.5998  0.8875  2.8914
  959SOL    HW2 2877   2.011   1.748   2.153 -0.9374 -1.9954  0.2172
  960SOL     OW 2878   0.466   1.021   2.891 -0.3706 -0.0079 -0.0824
  960SOL    HW1 2879   0.441   0.943   2.824  0.0452 -2.4236  0.8933
  960SOL    HW2 2880   0.542   0.984   2.947 -3.4332  0.0712 -1.1035
  961SOL     OW 2881   0.034   1.130   2.814 -0.4874  0.0551 -1.0733
  961SOL    HW1 2882   3.117   1.044   2.777  2.1428 -1.7574  2.3275
  961SOL    HW2 2883   0.106   1.103   2.884  2.5140 -2.3019  3.9439
  962SOL     OW 2884   0.682   1.847   2.347  0.1799 -0.4163  0.0237
  962SOL    HW1 2885   0.583   1.818   2.363 -1.9824  2.8382  1.5781
  962SOL    HW2 2886   0.722   1.895   2.433  3.1872  3.5762 -0.2571
  963SOL     OW 2887   2.789   2.098   0.098  0.1567 -0.0183 -0.3460
  963SOL    HW1 2888   2.738   2.187   0.091 -0.9120  0.6487 -4.1436
  963SOL    HW2 2889   2.741   2.037   0.029  0.5750  0.2324 -1.4068
  964SOL     OW 2890   0.689   1.876   1.763  0.2332  0.3091  0.2708
  964SOL    HW1 2891   0.707   1.826   1.855  0.8884 -1.5953  3.1747
  964SOL    HW2 2892   0.759   1.955   1.753  2.1378  0.8008 -0.9263
  965SOL     OW 2893   1.772   2.011   0.444  0.1695 -0.4305 -0.1627
  965SOL    HW1 2894   1.779   2.109   0.414 -0.4824  0.9955  3.0705
  965SOL    HW2 2895   1.816   1.944   0.383 -2.3188 -2.6179  4.2178
  966SOL     OW 2896   2.844   1.658   0.125  0.4239  0.3564 -0.7930
  966SOL    HW1 2897   2.922   1.608   0.083 -1.0030  1.5662  2.3631
  966SOL    HW2 2898   2.788   1.597   0.187 -2.4959  1.1234  3.1779
  967SOL     OW 2899   2.151   0.010   2.230 -0.5247  0.5551 -0.5951
  967SOL    HW1 2900   2.123   3.099   2.323 -0.0315 -1.4499  0.7569
  967SOL    HW2 2901   2.078   0.073   2.194  0.4184  2.0989 -0.0229
  968SOL     OW 2902   0.909   0.195   0.278  1.0228 -0.0921 -0.5405
  968SOL    HW1 2903   0.857   0.184   0.192 -0.8810 -0.6636 -0.6711
  968SOL    HW2 2904   0.990   0.255   0.274 -0.3859  1.5777 -0.3505
  969SOL     OW 2905   0.157   1.840   2.109  0.1874 -0.0829  0.8680
  969SOL    HW1 2906   0.224   1.903   2.154 -0.2931 -3.4401 -0.3946
  969SOL    HW2 2907   0.185   1.742   2.126 -0.7857  3.4682  0.3440
  970SOL     OW 2908   1.958   2.664   1.303 -0.1777  0.1577 -0.1569
  970SOL    HW1 2909   1.975   2.618   1.212 -0.4899 -2.6870 -0.7498
  970SOL    HW2 2910   1.998   2.613   1.380 -0.8834 -1.5872  0.1193
  971SOL     OW 2911   2.249   2.400   0.771 -0.4683 -0.3022  0.3442
  971SOL    HW1 2912   2.258   2.455   0.855  0.7332  1.7005 -0.9630
  971SOL    HW2 2913   2.324   2.336   0.763 -0.3721  1.7180  3.1290
  972SOL     OW 2914   0.046   1.112   2.439  0.1985 -0.1658  0.2768
  972SOL    HW1 2915   0.079   1.206   2.428 -0.3046 -0.4003 -0.3262
  972SOL    HW2 2916   0.124   1.050   2.411 -0.7141 -0.4501 -1.4318
  973SOL     OW 2917   0.567   0.175   0.977  0.1186 -0.5364  0.1611
  973SOL    HW1 2918   0.661   0.175   1.010 -4.0882 -0.1074  1.9769
  973SOL    HW2 2919   0.516   0.107   1.035 -0.7455 -3.2572 -1.5786
  974SOL     OW 2920   2.435   1.175   1.815 -0.5942  0.4218  0.2592
  974SOL    HW1 2921   2.529   1.217   1.795  0.4809  0.0245  0.5147
  974SOL    HW2 2922   2.444   1.100   1.888  1.2591 -0.2876  1.1138
  975SOL     OW 2923   0.103   2.983   0.384 -0.2848 -0.0196  0.0082
  975SOL    HW1 2924   0.006   3.007   0.396 -0.3330 -0.3242 -0.1251
  975SOL    HW2 2925   0.166   3.042   0.440  0.7775  0.3292  0.1973
  976SOL     OW 2926   0.361   1.801   0.876 -0.3472 -0.2978  0.4028
  976SOL    HW1 2927   0.327   1.745   0.950  3.2922 -0.1614  0.0484
  976SOL    HW2 2928   0.301   1.812   0.794  0.2462  0.2223 -1.2925
  977SOL     OW 2929   1.028   1.668   0.625 -0.1128  0.0979  0.0163
  977SOL    HW1 2930   1.002   1.602   0.556  2.1851  1.3087  2.4068
  977SOL    HW2 2931   0.956   1.742   0.628  1.8580  4.0154  0.4688
  978SOL     OW 2932   0.083   0.890   0.154 -0.0284 -0.0355  0.4800
  978SOL    HW1 2933   0.080   0.818   0.085 -2.0297  1.2484 -2.2994
  978SOL    HW2 2934   0.053   0.980   0.115  1.6754  1.3561  1.0238
  979SOL     OW 2935   1.711   1.553   0.516 -0.0305  0.1027  0.3272
  979SOL    HW1 2936   1.801   1.532   0.564 -1.8892 -0.1944 -0.6875
  979SOL    HW2 2937   1.656   1.634   0.560 -3.2333  1.0589 -0.1656
  980SOL     OW 2938   0.699   2.393   2.025 -0.0031  0.1522  0.4020
  980SOL    HW1 2939   0.749   2.312   2.065 -1.7510 -2.4971 -1.7929
  980SOL    HW2 2940   0.674   2.368   1.926  0.1474  0.8536 -0.9206
  981SOL     OW 2941   2.217   0.844   2.985 -0.0405  0.5278 -0.4103
  981SOL    HW1 2942   2.126   0.868   2.948 -0.2855 -1.0800  1.1647
  981SOL    HW2 2943   2.215   0.752   3.036 -0.5899 -2.0428  0.0007
  982SOL     OW 2944   0.048   2.618   1.917 -0.2656 -0.1026 -0.0164
  982SOL    HW1 2945   3.104   2.661   1.977  1.2140 -1.7739 -0.0316
  982SOL    HW2 2946   0.144   2.646   1.945 -0.5444 -1.3375 -0.8260
  983SOL     OW 2947   1.836   0.532   1.655 -0.1735  0.5482 -0.5168
  983SOL    HW1 2948   1.819   0.550   1.559  1.5612  0.4300  3.3998
  983SOL    HW2 2949   1.745   0.518   1.698 -0.4603  0.0044 -0.2567
  984SOL     OW 2950   2.045   3.039   2.470  0.1480 -0.0281  0.3494
  984SOL    HW1 2951   2.145   3.039   2.498  1.2310 -1.0720  0.1942
  984SOL    HW2 2952   1.999   2.951   2.492 -0.6303  0.0371  0.2777
  985SOL     OW 2953   1.556   1.467   1.668  0.4051 -0.4573 -0.4604
  985SOL    HW1 2954   1.493   1.387   1.679  1.4123  0.6920  1.7242
  985SOL    HW2 2955   1.508   1.555   1.687  0.8849 -1.8713  1.9572
  986SOL     OW 2956   2.190   2.718   2.221  0.3405  0.6276 -0.0353
  986SOL    HW1 2957   2.210   2.625   2.175  1.1737 -0.0936  1.2175
  986SOL    HW2 2958   2.261   2.736   2.293  1.5627  2.1568 -0.5664
  987SOL     OW 2959   2.857   1.902   2.838 -0.0075  0.2222  0.1308
  987SOL    HW1 2960   2.817   1.814   2.808 -1.3022  4.0248  0.6260
  987SOL    HW2 2961   2.835   1.981   2.780  3.5514 -2.9665 -0.5001
  988SOL     OW 2962   0.017   0.493   1.499 -0.4668 -0.1621 -0.2911
  988SOL    HW1 2963   0.020   0.578   1.549  0.3082 -0.2919  0.5002
  988SOL    HW2 2964   3.045   0.478   1.458  2.6378 -1.6682  1.8270
  989SOL     OW 2965   1.997   1.252   1.473  0.0338 -0.3686  0.4533
  989SOL    HW1 2966   2.024   1.164   1.507 -0.5472 -0.5393 -2.1580
  989SOL    HW2 2967   2.028   1.268   1.378 -0.5175  1.0967 -4.5052
  990SOL     OW 2968   2.892   0.654   3.041 -0.4333 -0.0854 -0.1866
  990SOL    HW1 2969   2.970   0.605   3.085 -1.2345 -0.4678  1.5140
  990SOL    HW2 2970   2.911   0.754   3.028  2.4485  3.0208  0.0791
  991SOL     OW 2971   0.353   1.830   3.054 -0.0192 -0.1981  0.0631
  991SOL    HW1 2972   0.352   1.892   2.975 -3.2914 -0.3474  0.0053
  991SOL    HW2 2973   0.442   1.822   3.105 -0.4053  0.9520  1.2757
  992SOL     OW 2974   2.146   1.845   1.849  0.0050  0.1036 -0.0934
  992SOL    HW1 2975   2.077   1.819   1.781  5.0467  0.4780  0.4729
  992SOL    HW2 2976   2.164   1.761   1.909  2.0076 -2.7915 -0.2191
  993SOL     OW 2977   0.779   2.906   0.935  0.6897  0.0522  0.1665
  993SOL    HW1 2978   0.816   2.911   1.033  0.1927 -0.2106 -0.3822
  993SOL    HW2 2979   0.851   2.931   0.861  2.2949  0.4435  0.3365
  994SOL     OW 2980   2.609   1.978   1.675  0.0548 -0.1695  0.2687
  994SOL    HW1 2981   2.685   1.914   1.656  2.2134 -3.8234  1.7295
  994SOL    HW2 2982   2.613   2.009   1.774  1.1926 -1.4634  0.4793
  995SOL     OW 2983   2.025   1.819   2.306 -0.1042 -0.6495  0.2264
  995SOL    HW1 2984   2.011   1.915   2.345 -0.0361  2.2251  0.3961
  995SOL    HW2 2985   2.001   1.748   2.380 -1.8110 -1.6111 -0.2843
  996SOL     OW 2986   1.902   1.850   2.931  0.6222 -0.1384 -0.2235
  996SOL    HW1 2987   1.832   1.903   2.978 -0.4014  1.7214  2.5411
  996SOL    HW2 2988   1.951   1.796   3.001  0.0522  0.7894  1.8239
  997SOL     OW 2989   1.073   1.524   2.023  0.2153  0.3008 -0.5431
  997SOL    HW1 2990   0.980   1.545   2.047  0.2722 -1.4420  0.5232
  997SOL    HW2 2991   1.142   1.562   2.090 -1.2107 -1.2956  1.8251
  998SOL     OW 2992   2.671   2.117   0.548  0.2895  0.1672 -0.1760
  998SOL    HW1 2993   2.667   2.020   0.515  2.6057 -2.4894 -0.6337
  998SOL    HW2 2994   2.758   2.146   0.595  3.1037  1.3111  2.3748
  999SOL     OW 2995   0.184   2.526   0.851  0.2080 -0.2796  0.1431
  999SOL    HW1 2996   0.140   2.461   0.786  2.2179 -2.7073 -0.8059
  999SOL    HW2 2997   0.222   2.610   0.810 -1.6337 -5.0924  0.7423
 1000SOL     OW 2998   1.202   0.074   3.083  0.3675 -0.5061  0.3581
 1000SOL    HW1 2999   1.143   0.029   0.036 -0.3550  1.8567  1.3107
 1000SOL    HW2 3000   1.191   0.174   3.080 -2.6495 -0.2560  0.8985
   3.12288   3.12288   3.12288
