1000 SPC/Fw water molecules t= 405.00000 step= 405000
 3000
    1SOL     OW    1   0.139   2.980   1.473 -0.0926  0.1759 -0.4559
    1SOL    HW1    2   0.110   3.013   1.565 -0.2075 -3.0020  1.9566
    1SOL    HW2    3   0.111   3.037   1.397  2.0187 -1.5559 -1.0805
    2SOL     OW    4   2.474   2.600   0.408  0.2653  0.2217  0.3285
    2SOL    HW1    5   2.504   2.539   0.333  1.4635 -1.5139 -1.5445
    2SOL    HW2    6   2.481   2.699   0.393 -2.3681 -2.4379  0.7868
    3SOL     OW    7   1.436   2.595   0.118 -0.5343 -0.0485 -0.0611
    3SOL    HW1    8   1.464   2.684   0.158  0.5082  0.4216  0.5211
    3SOL    HW2    9   1.346   2.593   0.069 -0.7764 -1.6439 -0.4093
    4SOL     OW   10   0.972   3.015   2.311  0.0857  0.2684 -0.2218
    4SOL    HW1   11   0.921   3.063   2.242  2.4999 -0.4511  1.1126
    4SOL    HW2   12   1.036   2.952   2.266  0.5188  1.7499  0.1472
    5SOL     OW   13   2.121   0.168   1.833 -0.6649 -0.3421 -0.3799
    5SOL    HW1   14   2.184   0.132   1.910  2.8310 -2.0187  1.8002
    5SOL    HW2   15   2.148   0.114   1.748  2.3918 -3.7014 -0.1100
    6SOL     OW   16   2.477   1.824   0.821  0.2142 -0.0709 -0.0833
    6SOL    HW1   17   2.422   1.879   0.757 -0.5054  0.5626  0.4834
    6SOL    HW2   18   2.516   1.740   0.778 -1.0837 -0.9651  1.3895
    7SOL     OW   19   2.227   1.265   0.560 -0.6359 -0.0647 -0.1897
    7SOL    HW1   20   2.316   1.215   0.540  2.1382 -1.1584 -4.0087
    7SOL    HW2   21   2.211   1.351   0.503 -0.8201  2.1919 -0.0951
    8SOL     OW   22   0.483   1.485   0.840  0.3006  0.3960 -0.4826
    8SOL    HW1   23   0.522   1.458   0.928  0.0266 -1.7323  0.5152
    8SOL    HW2   24   0.566   1.508   0.782  0.2432 -0.0661  1.6444
    9SOL     OW   25   0.228   2.743   1.592  0.4029 -0.0862  0.0144
    9SOL    HW1   26   0.220   2.828   1.536 -0.2496  4.2565  1.8859
    9SOL    HW2   27   0.243   2.663   1.524  1.0893 -0.6444  0.5532
   10SOL     OW   28   1.140   2.309   0.399  0.2611 -0.6372 -0.0824
   10SOL    HW1   29   1.077   2.237   0.432  0.6581  0.0356 -0.8346
   10SOL    HW2   30   1.174   2.366   0.476  0.6719  4.1763 -2.3101
   11SOL     OW   31   1.629   1.970   0.913  0.1699  1.0563 -0.1202
   11SOL    HW1   32   1.729   1.945   0.907  1.6016  0.3145  2.0264
   11SOL    HW2   33   1.604   1.969   1.014  0.1966 -2.0371  0.9067
   12SOL     OW   34   2.695   0.507   2.199 -0.2609  0.1341 -0.0809
   12SOL    HW1   35   2.704   0.594   2.247 -0.9260 -0.8070 -1.2545
   12SOL    HW2   36   2.625   0.453   2.243  0.5606 -0.8555 -1.3307
   13SOL     OW   37   2.789   2.860   0.154 -0.4246  0.0131 -0.3793
   13SOL    HW1   38   2.838   2.775   0.186 -1.1098 -1.8766  1.5253
   13SOL    HW2   39   2.708   2.835   0.090 -2.7435 -1.4765 -0.9623
   14SOL     OW   40   1.706   1.624   2.967 -0.1569 -0.0564 -0.0071
   14SOL    HW1   41   1.689   1.524   2.947 -2.8156 -2.8434  0.6058
   14SOL    HW2   42   1.692   1.634   3.063 -3.3493  1.3033 -1.7246
   15SOL     OW   43   2.838   2.679   1.756 -0.0693  0.0566 -0.5918
   15SOL    HW1   44   2.844   2.593   1.810  1.4797  1.4666 -0.4365
   15SOL    HW2   45   2.929   2.706   1.722 -0.8538 -0.3448 -1.3316
   16SOL     OW   46   2.973   3.076   1.040 -0.7525 -0.4173  0.5277
   16SOL    HW1   47   2.951   0.073   1.023  1.0228  3.4649 -0.3530
   16SOL    HW2   48   2.945   3.016   0.960 -0.1983 -2.1155 -2.2981
   17SOL     OW   49   1.270   0.098   0.749 -0.8912  0.1309  0.1620
   17SOL    HW1   50   1.334   0.179   0.750 -0.6172 -0.4954  0.6995
   17SOL    HW2   51   1.178   0.127   0.782 -2.0428  1.1216  0.1292
   18SOL     OW   52   1.495   2.995   0.937 -0.0111  0.8700 -0.1570
   18SOL    HW1   53   1.456   2.992   0.842  0.4557 -0.0969 -0.5015
   18SOL    HW2   54   1.575   3.059   0.942 -2.0099 -0.6379  0.8985
   19SOL     OW   55   2.304   1.175   0.241 -0.0869  0.1777 -0.4991
   19SOL    HW1   56   2.212   1.177   0.202  1.7078  3.5732 -1.0624
   19SOL    HW2   57   2.324   1.271   0.258 -0.0876 -1.2401  0.5965
   20SOL     OW   58   2.566   1.529   2.577  0.1771  0.3195 -0.1803
   20SOL    HW1   59   2.558   1.601   2.508  0.4116  1.0744  1.5944
   20SOL    HW2   60   2.492   1.535   2.649 -1.0617 -1.0353  0.5519
   21SOL     OW   61   1.595   2.791   0.223  1.0517  0.4589  0.2779
   21SOL    HW1   62   1.688   2.815   0.257 -0.4062  0.4270 -4.5932
   21SOL    HW2   63   1.519   2.849   0.269 -3.1386  2.4491  4.6292
   22SOL     OW   64   2.842   1.064   0.884 -0.5273  0.5315 -0.0580
   22SOL    HW1   65   2.863   1.077   0.983  1.3040  1.2688 -5.1923
   22SOL    HW2   66   2.753   1.013   0.870 -0.5486  0.5017  0.3128
   23SOL     OW   67   0.619   0.114   1.926  0.3825 -0.7115  0.1450
   23SOL    HW1   68   0.666   0.157   1.843  0.9913  1.4105 -2.2765
   23SOL    HW2   69   0.556   0.037   1.895  0.0046 -1.0898 -2.4876
   24SOL     OW   70   2.366   2.612   0.856 -0.2463 -0.5909 -0.1124
   24SOL    HW1   71   2.446   2.575   0.799  2.3421 -3.4725  0.7709
   24SOL    HW2   72   2.332   2.536   0.913  0.6083  1.6016 -1.2060
   25SOL     OW   73   1.788   3.097   2.789  0.4087  0.3883  0.2234
   25SOL    HW1   74   1.814   0.092   2.786  0.9282 -1.5804 -0.0732
   25SOL    HW2   75   1.687   3.083   2.766 -0.9830 -0.3169 -0.5288
   26SOL     OW   76   1.463   2.312   0.100  0.1803 -0.1547  0.4421
   26SOL    HW1   77   1.540   2.270   0.158 -1.8697  0.7895  2.6437
   26SOL    HW2   78   1.440   2.413   0.123 -0.6421  1.2404 -0.5327
   27SOL     OW   79   1.599   0.453   1.166 -0.1207  0.0917  0.6005
   27SOL    HW1   80   1.506   0.415   1.177  0.3848  1.9010 -1.7026
   27SOL    HW2   81   1.587   0.553   1.145  0.3499  0.5931 -1.0663
   28SOL     OW   82   1.131   1.237   0.407  0.4523  0.1722 -0.0764
   28SOL    HW1   83   1.157   1.138   0.435 -0.3721 -1.9039  0.2062
   28SOL    HW2   84   1.186   1.311   0.459  0.0099 -1.3495  0.8500
   29SOL     OW   85   2.534   0.420   1.554  0.0057  0.0841  0.1375
   29SOL    HW1   86   2.510   0.364   1.634 -2.0648 -0.6504 -1.0813
   29SOL    HW2   87   2.486   0.516   1.562 -2.3907  1.4375 -0.2883
   30SOL     OW   88   1.338   2.597   1.448 -0.1597  0.3580 -0.5939
   30SOL    HW1   89   1.384   2.612   1.536  0.6607  0.6145  0.0883
   30SOL    HW2   90   1.406   2.536   1.394  1.6861 -2.6309 -0.9818
   31SOL     OW   91   1.719   2.903   1.632  0.0265 -0.4825  0.0061
   31SOL    HW1   92   1.709   2.973   1.706  0.8355  0.4513 -0.0407
   31SOL    HW2   93   1.819   2.891   1.612  0.6065  0.5842 -0.1968
   32SOL     OW   94   1.808   1.549   2.636 -0.2073 -0.2899  0.0487
   32SOL    HW1   95   1.773   1.519   2.727  1.6918  1.6122  1.2791
   32SOL    HW2   96   1.763   1.639   2.609 -0.7604 -0.0220  0.0423
   33SOL     OW   97   2.361   0.738   2.493 -0.2525  0.4582  0.2598
   33SOL    HW1   98   2.263   0.732   2.521 -0.2934  1.9882  1.1775
   33SOL    HW2   99   2.367   0.726   2.392 -0.9051 -2.4165 -0.9445
   34SOL     OW  100   1.840   0.352   0.309 -0.2105 -0.2551 -0.0540
   34SOL    HW1  101   1.903   0.420   0.267 -2.0958  1.1756 -2.6387
   34SOL    HW2  102   1.885   0.262   0.318  2.8958 -0.8233  2.3323
   35SOL     OW  103   3.093   2.041   1.966 -0.4156 -0.2777  0.0906
   35SOL    HW1  104   2.992   2.056   1.959  0.5113  1.1003 -3.1707
   35SOL    HW2  105   0.011   2.008   2.061 -1.3717  1.6126  0.4091
   36SOL     OW  106   2.541   1.816   3.001  0.1632  0.2193  0.3011
   36SOL    HW1  107   2.505   1.785   2.913 -0.8089  1.9329  1.8210
   36SOL    HW2  108   2.594   1.906   2.992  1.4455  3.2214 -0.5738
   37SOL     OW  109   1.854   0.212   1.742  0.1019 -0.5835  0.1672
   37SOL    HW1  110   1.807   0.300   1.760  0.4560 -0.8513 -0.9052
   37SOL    HW2  111   1.937   0.201   1.799  0.3969  0.7746 -1.8950
   38SOL     OW  112   0.256   0.671   2.575  0.5424 -0.6249  0.1110
   38SOL    HW1  113   0.265   0.623   2.486  1.3429  0.5285  0.9844
   38SOL    HW2  114   0.350   0.686   2.611  1.4976 -1.7940 -2.7865
   39SOL     OW  115   1.940   1.127   1.439  0.3217  0.1189  0.6003
   39SOL    HW1  116   1.886   1.109   1.525  0.3543 -2.3927  1.3603
   39SOL    HW2  117   1.884   1.130   1.355  0.3163 -0.2890  0.7111
   40SOL     OW  118   1.063   2.053   0.765  0.4627 -0.0420 -0.2869
   40SOL    HW1  119   0.990   2.087   0.827 -0.3510  0.3585  0.1596
   40SOL    HW2  120   1.102   1.966   0.795  0.4452 -0.2208 -1.1593
   41SOL     OW  121   1.933   2.200   0.937 -0.1269 -0.3672 -0.7558
   41SOL    HW1  122   1.916   2.107   0.954 -0.9109  2.7892 -1.1403
   41SOL    HW2  123   1.950   2.260   1.018  0.6750 -0.2803  1.1963
   42SOL     OW  124   2.606   0.677   1.197  0.8990  0.2057 -0.5840
   42SOL    HW1  125   2.669   0.616   1.249 -1.2520 -0.8892 -0.7080
   42SOL    HW2  126   2.617   0.774   1.221 -0.0893 -1.3751 -0.5307
   43SOL     OW  127   0.852   1.401   2.419  0.1063  0.9277  0.2403
   43SOL    HW1  128   0.948   1.375   2.444 -0.2143 -1.7282 -3.0932
   43SOL    HW2  129   0.826   1.498   2.434  1.8910 -1.3867  0.2010
   44SOL     OW  130   1.634   2.362   1.487  0.2440  0.1972  0.4200
   44SOL    HW1  131   1.669   2.455   1.471 -2.6052  1.1896 -2.6529
   44SOL    HW2  132   1.541   2.364   1.436 -0.0673  3.4139 -1.5039
   45SOL     OW  133   0.789   2.954   2.507 -0.1176 -0.1626 -0.0587
   45SOL    HW1  134   0.878   2.956   2.448  1.6380 -2.1187 -0.7641
   45SOL    HW2  135   0.744   2.867   2.484 -1.0385  0.8311 -1.5878
   46SOL     OW  136   0.952   2.673   2.068 -0.0304  0.3294  0.4730
   46SOL    HW1  137   0.977   2.578   2.085 -1.9281  4.5664 -2.0649
   46SOL    HW2  138   0.862   2.698   2.112  0.0412 -0.1374  0.4773
   47SOL     OW  139   0.914   2.214   0.996 -0.2869 -0.6301 -0.2823
   47SOL    HW1  140   0.839   2.283   1.013 -0.2987  1.1776 -0.8187
   47SOL    HW2  141   0.872   2.122   1.016  1.0463 -2.1572  2.7574
   48SOL     OW  142   0.823   2.473   1.369  0.4408 -0.3345 -0.2331
   48SOL    HW1  143   0.808   2.526   1.280 -1.9984 -0.0930 -2.6485
   48SOL    HW2  144   0.919   2.489   1.401 -2.3213 -0.2695 -2.6764
   49SOL     OW  145   2.431   3.043   3.052 -0.2960 -0.1240 -0.3793
   49SOL    HW1  146   2.473   0.023   0.003 -1.3822  0.8154  2.0471
   49SOL    HW2  147   2.483   3.026   2.966  2.1502 -3.6137  2.9428
   50SOL     OW  148   1.624   0.741   0.256 -0.3590 -0.0718  0.2153
   50SOL    HW1  149   1.694   0.794   0.209 -1.5942 -1.1358 -1.1429
   50SOL    HW2  150   1.594   0.786   0.334 -0.0647 -2.5987 -2.7685
   51SOL     OW  151   2.234   0.716   1.033 -0.1713 -0.2889  0.5828
   51SOL    HW1  152   2.183   0.764   1.103  2.8353 -0.7546 -1.6634
   51SOL    HW2  153   2.168   0.660   0.971  2.8979  0.3200  0.0419
   52SOL     OW  154   0.676   1.455   0.333  0.1304  0.0162 -0.0370
   52SOL    HW1  155   0.680   1.476   0.231  0.8838 -1.7093 -1.4754
   52SOL    HW2  156   0.655   1.361   0.357  0.8910  1.3812 -1.2661
   53SOL     OW  157   0.449   1.099   3.004 -0.2108 -0.1988  0.0618
   53SOL    HW1  158   0.416   1.004   2.982  0.2718 -1.7616  1.5438
   53SOL    HW2  159   0.485   1.093   3.099  1.4897 -2.0008  1.3128
   54SOL     OW  160   1.892   1.424   2.224  0.2564  0.3913  0.2200
   54SOL    HW1  161   1.958   1.385   2.285  0.1824  1.6815 -2.7170
   54SOL    HW2  162   1.923   1.518   2.198  0.6096  0.5302 -1.3887
   55SOL     OW  163   2.672   2.254   0.796 -0.0708 -0.1306 -0.1405
   55SOL    HW1  164   2.615   2.319   0.744  4.1862 -2.1504 -0.1196
   55SOL    HW2  165   2.618   2.196   0.857 -0.3665  0.6100  1.5423
   56SOL     OW  166   1.907   2.816   1.191  0.3276 -0.7029 -0.3436
   56SOL    HW1  167   1.938   2.735   1.250 -0.9525  1.9355  0.0468
   56SOL    HW2  168   1.813   2.844   1.218 -0.6587 -1.8950 -0.1492
   57SOL     OW  169   1.718   1.339   0.528 -0.2489  0.1422  0.4128
   57SOL    HW1  170   1.650   1.269   0.558  2.0828  0.3279  0.5917
   57SOL    HW2  171   1.815   1.305   0.556  3.6087  1.5363  1.3884
   58SOL     OW  172   2.302   0.113   1.300 -0.1795 -0.1318  0.5478
   58SOL    HW1  173   2.313   0.020   1.254 -0.8184 -2.2089  2.5802
   58SOL    HW2  174   2.396   0.142   1.326 -0.7709  1.8819  0.4927
   59SOL     OW  175   1.228   2.721   2.671  0.5535  0.2613  0.5355
   59SOL    HW1  176   1.322   2.755   2.661 -0.5503  0.9376  1.6874
   59SOL    HW2  177   1.169   2.791   2.717  1.5439 -0.5863  0.0302
   60SOL     OW  178   0.090   2.742   2.773 -0.2116  0.1956 -0.2516
   60SOL    HW1  179   0.091   2.840   2.808 -2.0439  0.5143  1.0382
   60SOL    HW2  180   3.097   2.726   2.733 -0.8277 -0.1650  1.3657
   61SOL     OW  181   0.721   2.404   1.005 -0.4536 -0.3341 -0.0773
   61SOL    HW1  182   0.774   2.490   1.010 -3.2088  0.3995 -1.5281
   61SOL    HW2  183   0.628   2.420   1.045 -2.2680  1.9355 -0.2483
   62SOL     OW  184   1.463   1.864   1.868 -1.2409 -0.2338 -0.2309
   62SOL    HW1  185   1.497   1.944   1.933  2.2024 -0.0498  2.1605
   62SOL    HW2  186   1.544   1.810   1.837 -0.8177  0.0792  0.6476
   63SOL     OW  187   1.903   1.731   0.343 -0.8272  0.5520 -0.0442
   63SOL    HW1  188   1.968   1.654   0.323  2.4900  0.8259  2.8883
   63SOL    HW2  189   1.951   1.818   0.317 -1.6772 -0.4690 -0.8401
   64SOL     OW  190   1.656   1.406   0.249  0.4312 -0.3193  0.4034
   64SOL    HW1  191   1.688   1.375   0.343  1.0656 -2.2706 -0.4715
   64SOL    HW2  192   1.631   1.322   0.202  2.1536 -0.5963 -0.6255
   65SOL     OW  193   1.802   2.281   2.377 -0.3748  0.0029  0.0592
   65SOL    HW1  194   1.723   2.226   2.413 -0.0344  0.2742  1.1181
   65SOL    HW2  195   1.796   2.276   2.275  2.4309 -0.7736  1.9255
   66SOL     OW  196   0.241   1.043   1.508  0.0359  0.0810  0.0863
   66SOL    HW1  197   0.314   0.978   1.472 -0.1878 -0.7744 -0.3625
   66SOL    HW2  198   0.248   1.131   1.460  0.3756 -2.7478  2.1438
   67SOL     OW  199   2.198   2.795   0.315 -0.2315  0.2554 -0.1919
   67SOL    HW1  200   2.297   2.807   0.345  3.8352  2.0851  1.2199
   67SOL    HW2  201   2.156   2.885   0.288  1.0644  1.6896 -1.5684
   68SOL     OW  202   2.017   2.336   1.140  0.4623 -0.4046 -0.1052
   68SOL    HW1  203   2.095   2.273   1.159  0.3305 -0.7230 -0.9983
   68SOL    HW2  204   2.046   2.429   1.163  0.5269  1.8222 -0.9006
   69SOL     OW  205   2.634   2.085   3.024  0.1308 -0.0838  0.1203
   69SOL    HW1  206   2.633   2.161   2.958 -1.4515 -0.7443  0.9665
   69SOL    HW2  207   2.728   2.082   3.060  0.4673  3.1909 -3.1797
   70SOL     OW  208   0.269   1.093   2.306 -0.2443  0.3227  0.4035
   70SOL    HW1  209   0.290   1.115   2.205  0.3361  0.3491  0.1510
   70SOL    HW2  210   0.234   1.176   2.352  1.8439 -2.0055 -0.6433
   71SOL     OW  211   0.769   1.000   2.511  0.3953 -0.1059  0.0215
   71SOL    HW1  212   0.670   1.017   2.484 -2.1139 -0.7667 -0.8657
   71SOL    HW2  213   0.782   0.904   2.548  2.3624 -1.1374  0.4738
   72SOL     OW  214   2.563   1.597   1.906 -0.2229 -0.1776  0.0872
   72SOL    HW1  215   2.473   1.550   1.913  2.0115  0.9442  1.2622
   72SOL    HW2  216   2.628   1.540   1.853  1.2715 -0.1185  0.3206
   73SOL     OW  217   1.197   2.057   2.670 -0.1247 -0.0214  0.3555
   73SOL    HW1  218   1.116   2.062   2.727  3.6935 -0.4580  2.8496
   73SOL    HW2  219   1.261   2.006   2.734 -0.1475  0.3944  3.4625
   74SOL     OW  220   2.158   2.965   2.501 -0.7106 -0.3242 -0.0333
   74SOL    HW1  221   2.060   2.960   2.529  0.8913  0.1627 -0.3232
   74SOL    HW2  222   2.198   3.050   2.538 -2.2083 -3.0346 -0.3911
   75SOL     OW  223   1.494   2.407   0.863 -0.1724  0.4628  0.1671
   75SOL    HW1  224   1.577   2.349   0.848  2.1375 -0.9775  0.8447
   75SOL    HW2  225   1.414   2.347   0.858  0.1960 -0.5779 -1.3538
   76SOL     OW  226   2.908   1.790   2.863  0.1141 -0.4115  0.4989
   76SOL    HW1  227   2.859   1.710   2.819 -2.5760  2.8017  0.9546
   76SOL    HW2  228   2.968   1.765   2.945 -1.7803 -1.0751  1.9568
   77SOL     OW  229   3.038   2.569   1.516  0.4114  0.0912  0.5485
   77SOL    HW1  230   2.963   2.513   1.474 -0.0198  1.7349  1.2098
   77SOL    HW2  231   3.090   2.518   1.588  0.3014 -1.7010  0.3642
   78SOL     OW  232   2.431   0.675   3.015  0.5850  0.1307  0.2450
   78SOL    HW1  233   2.418   0.625   0.000 -1.6307 -0.4832 -3.5677
   78SOL    HW2  234   2.461   0.769   3.026  0.4866 -0.6865  0.2276
   79SOL     OW  235   0.334   1.822   2.509  0.2851 -0.2366 -1.2538
   79SOL    HW1  236   0.364   1.755   2.438  1.1785 -2.0150  2.4808
   79SOL    HW2  237   0.275   1.778   2.579  0.3174  1.8183 -1.9883
   80SOL     OW  238   1.752   1.390   1.958 -0.7651  0.1799 -0.6606
   80SOL    HW1  239   1.796   1.383   2.053  0.2750 -1.6981  1.4540
   80SOL    HW2  240   1.749   1.299   1.916  0.7488 -1.0647 -0.6168
   81SOL     OW  241   2.180   1.168   2.190  0.2525 -0.8185  0.6610
   81SOL    HW1  242   2.089   1.150   2.237  4.2532 -0.4292  0.3446
   81SOL    HW2  243   2.206   1.266   2.203  1.0383  0.0204 -0.9298
   82SOL     OW  244   1.364   1.543   1.758  0.3422  0.0816 -0.0940
   82SOL    HW1  245   1.355   1.601   1.671  0.2979  1.8025  0.1190
   82SOL    HW2  246   1.366   1.444   1.743  0.8159  2.7866 -0.3530
   83SOL     OW  247   0.035   0.314   0.037 -0.0387  0.1369  0.2134
   83SOL    HW1  248   0.066   0.360   0.121 -1.8747  0.3229 -2.0111
   83SOL    HW2  249   3.076   0.373   3.083 -1.4683  1.6860 -0.8967
   84SOL     OW  250   2.952   0.824   0.046  0.0228  0.1097  0.4662
   84SOL    HW1  251   2.917   0.727   0.037 -1.4670 -0.5435  1.6952
   84SOL    HW2  252   3.019   0.842   0.122 -0.8403 -0.4525  1.1230
   85SOL     OW  253   2.243   2.023   1.889 -0.2848  0.3497  0.0022
   85SOL    HW1  254   2.330   1.983   1.929  2.4688 -3.0695 -1.5769
   85SOL    HW2  255   2.228   2.117   1.923  0.1440  0.5257 -1.4181
   86SOL     OW  256   0.473   0.440   1.147 -0.1692  0.2332 -0.0306
   86SOL    HW1  257   0.526   0.492   1.070  3.5917  2.2016 -1.6206
   86SOL    HW2  258   0.516   0.347   1.155  1.8182 -0.8007 -1.1922
   87SOL     OW  259   2.810   2.051   2.045  0.0573 -0.2314 -0.2154
   87SOL    HW1  260   2.718   2.090   2.027 -0.8442  0.3251  0.0223
   87SOL    HW2  261   2.825   2.064   2.145 -1.2068 -2.8143 -1.0748
   88SOL     OW  262   0.421   2.024   0.148  0.0000 -0.0185 -0.5475
   88SOL    HW1  263   0.478   1.992   0.223 -1.3114  0.8222 -0.6673
   88SOL    HW2  264   0.417   1.951   0.076 -0.8949 -1.9124 -1.0807
   89SOL     OW  265   1.447   0.802   0.045  0.4073  0.8232  0.0580
   89SOL    HW1  266   1.369   0.828   0.110 -2.3633  1.7145  1.6538
   89SOL    HW2  267   1.522   0.758   0.105  1.3443 -1.4262  0.5579
   90SOL     OW  268   0.036   1.567   2.398  0.0889 -0.2958 -0.3114
   90SOL    HW1  269   3.043   1.532   2.374 -1.3962 -0.3809 -1.7941
   90SOL    HW2  270   0.083   1.591   2.314  0.3134  0.2068  1.5753
   91SOL     OW  271   2.084   2.891   1.006  0.1240  0.1577  0.1157
   91SOL    HW1  272   2.008   2.867   1.074 -0.9460 -1.2130  2.3787
   91SOL    HW2  273   2.073   2.830   0.925  2.0489 -1.3949  0.7528
   92SOL     OW  274   2.273   1.400   1.438 -0.6465  0.0666 -0.3731
   92SOL    HW1  275   2.299   1.367   1.342  1.3254 -1.4970  2.2030
   92SOL    HW2  276   2.332   1.344   1.501 -1.2530  1.0999  0.0625
   93SOL     OW  277   3.029   1.211   0.162  0.6781 -0.1732  0.1708
   93SOL    HW1  278   3.053   1.193   0.258 -2.0510 -1.3004 -0.7832
   93SOL    HW2  279   0.005   1.215   0.093  2.8691  2.0305 -0.7246
   94SOL     OW  280   1.277   2.312   2.005  0.0287 -0.2705 -0.0175
   94SOL    HW1  281   1.242   2.237   2.062  0.4870  2.7307 -1.2680
   94SOL    HW2  282   1.357   2.359   2.050 -0.2550 -1.3287  2.9094
   95SOL     OW  283   0.072   0.562   0.997  0.0356  0.5410  0.2796
   95SOL    HW1  284   0.131   0.491   1.036 -3.1478 -1.5250  0.3794
   95SOL    HW2  285   0.124   0.610   0.926  3.4446 -0.8975  0.1866
   96SOL     OW  286   3.044   2.812   1.650  0.3578 -0.6208  0.3572
   96SOL    HW1  287   0.042   2.804   1.664  0.7618 -0.0708  0.7336
   96SOL    HW2  288   3.031   2.778   1.555  2.0285  0.5511  1.7534
   97SOL     OW  289   2.430   0.655   1.573 -0.4627 -0.2899 -0.3422
   97SOL    HW1  290   2.362   0.701   1.512 -1.6627  2.7333  2.7878
   97SOL    HW2  291   2.414   0.673   1.672  0.1751  0.3228  1.0036
   98SOL     OW  292   2.164   2.443   1.460 -0.0884 -0.4792 -0.4618
   98SOL    HW1  293   2.174   2.341   1.465  1.9689  0.9645 -0.3478
   98SOL    HW2  294   2.140   2.481   1.367 -1.3038 -0.9883 -2.0715
   99SOL     OW  295   0.247   0.379   1.837 -0.5564  0.7599 -0.4348
   99SOL    HW1  296   0.251   0.468   1.883 -1.1327 -0.7207  1.6798
   99SOL    HW2  297   0.247   0.386   1.733  0.6712 -0.0314 -2.6101
  100SOL     OW  298   2.023   0.141   2.398 -0.1612 -0.0842  0.1366
  100SOL    HW1  299   2.023   0.056   2.339 -0.3052 -0.4242  1.6143
  100SOL    HW2  300   1.951   0.215   2.384 -1.3081 -0.2087  1.7171
  101SOL     OW  301   0.008   0.157   2.430 -0.0952  0.2131  0.3222
  101SOL    HW1  302   0.088   0.158   2.368 -2.5996  1.2966  1.3137
  101SOL    HW2  303   0.039   0.197   2.520  0.3737 -1.0902  0.3180
  102SOL     OW  304   0.683   0.429   1.574  0.3097 -0.1784  0.0520
  102SOL    HW1  305   0.591   0.416   1.535 -0.7619  0.4462  1.8448
  102SOL    HW2  306   0.691   0.515   1.627 -1.2208 -1.8874  1.2224
  103SOL     OW  307   1.053   0.694   2.779 -0.3915  0.4813  0.4090
  103SOL    HW1  308   1.158   0.697   2.773 -0.2846 -1.0169 -1.8759
  103SOL    HW2  309   1.006   0.770   2.822  1.0925  0.6525  0.6516
  104SOL     OW  310   0.118   0.720   2.136  0.3910 -0.1728  0.3396
  104SOL    HW1  311   0.177   0.752   2.214 -0.2424  0.9832  2.0785
  104SOL    HW2  312   0.028   0.776   2.140 -3.1486  2.7022  1.3783
  105SOL     OW  313   2.400   2.066   1.248 -0.2127  0.0014 -0.4683
  105SOL    HW1  314   2.374   2.133   1.320  1.1157 -0.1616 -0.9909
  105SOL    HW2  315   2.394   1.968   1.291 -1.7860  0.9251  2.1343
  106SOL     OW  316   1.628   0.039   0.457  0.4827 -0.1382 -0.5640
  106SOL    HW1  317   1.686   0.045   0.541  1.2915  0.3840  0.7337
  106SOL    HW2  318   1.607   0.137   0.424  0.1963 -0.2711 -1.0144
  107SOL     OW  319   2.184   2.276   0.833 -0.5496  0.3524 -0.2560
  107SOL    HW1  320   2.172   2.304   0.739  1.7831 -1.1138  0.3528
  107SOL    HW2  321   2.096   2.244   0.868  2.0994  0.7666 -1.1787
  108SOL     OW  322   3.007   2.574   1.135  0.4952  0.2259  0.0772
  108SOL    HW1  323   2.926   2.535   1.089 -0.4923  0.5134 -0.8071
  108SOL    HW2  324   3.067   2.500   1.170  0.9411  0.9556 -1.3984
  109SOL     OW  325   1.779   2.399   0.770 -0.7520 -0.5152 -0.0839
  109SOL    HW1  326   1.801   2.487   0.815  0.0868 -0.0569  1.9540
  109SOL    HW2  327   1.835   2.323   0.813 -2.2493 -0.3137 -0.3287
  110SOL     OW  328   1.730   1.565   1.552 -0.3410  0.5322 -0.2811
  110SOL    HW1  329   1.816   1.509   1.548  0.3684 -0.1245 -1.8514
  110SOL    HW2  330   1.699   1.582   1.645  0.9364  0.8740 -5.2077
  111SOL     OW  331   1.762   2.279   2.095 -0.1567 -0.0531  0.4226
  111SOL    HW1  332   1.829   2.245   2.026  1.0490  0.0834 -0.2628
  111SOL    HW2  333   1.686   2.336   2.058  1.5635 -1.5169  0.9211
  112SOL     OW  334   2.070   2.139   3.016  0.0112  0.1830  0.7270
  112SOL    HW1  335   2.004   2.083   3.066  1.1120  4.4938  0.7413
  112SOL    HW2  336   2.164   2.099   3.035  1.1326 -1.7936 -0.3353
  113SOL     OW  337   2.039   1.886   1.782 -0.4841  0.0251  0.3850
  113SOL    HW1  338   2.110   1.942   1.823 -3.0021  1.6439  0.4376
  113SOL    HW2  339   2.049   1.788   1.800 -1.5027 -0.2121  1.9500
  114SOL     OW  340   2.907   1.633   1.787  0.0198 -0.5571 -0.3711
  114SOL    HW1  341   2.822   1.583   1.763 -0.4847  2.3799 -4.0499
  114SOL    HW2  342   2.959   1.575   1.853 -1.9253 -1.2159  0.2748
  115SOL     OW  343   0.082   0.935   0.176 -0.3967 -0.5329  0.1817
  115SOL    HW1  344   0.111   0.868   0.110  0.1018 -1.6293  1.3397
  115SOL    HW2  345   0.159   1.001   0.195  1.1239  0.2634  0.1890
  116SOL     OW  346   2.758   1.049   2.819 -0.3297 -0.1719 -0.1096
  116SOL    HW1  347   2.695   1.074   2.891  2.2060 -0.6710  0.7185
  116SOL    HW2  348   2.750   0.948   2.806 -0.2414  0.3828 -1.1533
  117SOL     OW  349   2.926   2.584   0.246 -0.2797  0.3359 -0.0048
  117SOL    HW1  350   2.890   2.490   0.271 -1.5611 -2.4732  4.6837
  117SOL    HW2  351   2.924   2.592   0.147 -2.1248  1.0751  3.9417
  118SOL     OW  352   0.762   1.965   2.936  0.5740 -0.1882  0.3358
  118SOL    HW1  353   0.855   1.957   2.895 -0.4250 -0.9822  2.4081
  118SOL    HW2  354   0.700   2.026   2.881 -1.2711  0.9745 -0.4843
  119SOL     OW  355   0.462   2.333   0.812  0.6591 -0.3787 -0.7078
  119SOL    HW1  356   0.560   2.312   0.786 -0.6209 -1.5899 -1.8994
  119SOL    HW2  357   0.427   2.244   0.833  1.1747 -1.3594 -0.9263
  120SOL     OW  358   1.406   0.392   0.355 -0.2683 -0.2110  0.0788
  120SOL    HW1  359   1.453   0.350   0.271  0.7085  0.3140 -0.3341
  120SOL    HW2  360   1.332   0.455   0.324 -4.2426 -2.5147 -0.2684
  121SOL     OW  361   1.569   2.543   1.084  0.3375  0.6806  0.3633
  121SOL    HW1  362   1.535   2.636   1.073 -0.6834 -1.9628 -2.1756
  121SOL    HW2  363   1.550   2.483   1.004  3.3970  0.6113 -1.9688
  122SOL     OW  364   2.563   1.682   2.353  0.6956 -0.0751 -0.2969
  122SOL    HW1  365   2.632   1.683   2.281 -2.1597  1.6792  1.0945
  122SOL    HW2  366   2.469   1.653   2.323 -1.8010  1.9768 -0.0203
  123SOL     OW  367   1.005   1.529   1.028  0.3566 -0.2011  0.6472
  123SOL    HW1  368   0.999   1.564   1.122 -0.3450 -1.9610  1.2330
  123SOL    HW2  369   0.999   1.603   0.961  0.7825 -0.8746  3.4700
  124SOL     OW  370   0.288   0.492   2.917  0.2120 -0.0762 -0.5626
  124SOL    HW1  371   0.189   0.489   2.891  1.4248 -1.1571 -0.4136
  124SOL    HW2  372   0.348   0.446   2.854 -2.6102  3.4538  0.5428
  125SOL     OW  373   0.481   0.429   0.023  0.0561 -0.3955 -0.0729
  125SOL    HW1  374   0.456   0.453   3.033 -1.5093 -1.4808  0.1859
  125SOL    HW2  375   0.442   0.333   0.050 -0.4605 -0.6007 -1.3426
  126SOL     OW  376   0.349   1.664   0.629 -0.1723  0.1986 -0.0689
  126SOL    HW1  377   0.420   1.663   0.554 -0.9334 -0.7061  0.5389
  126SOL    HW2  378   0.327   1.570   0.655  2.4340  0.2071 -1.1446
  127SOL     OW  379   1.028   2.532   1.636 -0.0229  0.2214  0.3502
  127SOL    HW1  380   1.015   2.635   1.628  0.6716  0.7911 -0.9308
  127SOL    HW2  381   1.065   2.493   1.550  1.0055  2.0804  2.5751
  128SOL     OW  382   1.317   1.699   0.129 -0.1847 -0.3440  0.2036
  128SOL    HW1  383   1.215   1.699   0.146 -1.4060 -3.1004 -0.4056
  128SOL    HW2  384   1.333   1.674   0.037 -2.5007  0.0644  4.0294
  129SOL     OW  385   1.767   1.866   1.810 -0.6326 -0.2679 -0.6796
  129SOL    HW1  386   1.736   1.768   1.801 -0.1286 -2.6083 -0.9193
  129SOL    HW2  387   1.868   1.879   1.804 -2.3662 -1.8013 -0.9005
  130SOL     OW  388   1.841   2.158   1.850  0.0233 -0.2657  0.1727
  130SOL    HW1  389   1.817   2.063   1.826 -1.2983  1.4155  0.2951
  130SOL    HW2  390   1.754   2.209   1.831  0.6325  0.4676  2.4779
  131SOL     OW  391   2.924   2.340   2.127 -0.2024  0.3679  0.0374
  131SOL    HW1  392   2.887   2.255   2.175 -0.3884 -1.7962  1.6481
  131SOL    HW2  393   2.951   2.414   2.191  2.4213 -2.9723 -3.5383
  132SOL     OW  394   2.888   1.777   0.621  0.1228 -0.4842  0.4784
  132SOL    HW1  395   2.979   1.734   0.613  0.0998 -1.2404  0.5638
  132SOL    HW2  396   2.884   1.833   0.711 -1.4943  0.0130  3.2915
  133SOL     OW  397   0.773   0.586   1.979  0.0209  0.5166 -0.4937
  133SOL    HW1  398   0.751   0.611   1.886  0.6980 -3.7537  2.7358
  133SOL    HW2  399   0.840   0.649   2.023  1.5702 -0.7200 -1.1011
  134SOL     OW  400   2.736   1.641   0.038  0.3766  0.2287 -0.3960
  134SOL    HW1  401   2.760   1.684   0.127  0.8516  0.6360  0.3288
  134SOL    HW2  402   2.667   1.697   3.094  0.1472  1.2186  0.3328
  135SOL     OW  403   1.708   1.050   2.493 -0.1903 -0.2663  0.1439
  135SOL    HW1  404   1.789   1.060   2.557 -0.2080 -0.0726  1.0864
  135SOL    HW2  405   1.624   1.086   2.539  1.6109  0.0303  0.3919
  136SOL     OW  406   2.478   1.691   1.055 -0.0302 -0.5067  0.3233
  136SOL    HW1  407   2.480   1.738   0.964 -3.0194 -0.1120 -3.9697
  136SOL    HW2  408   2.475   1.747   1.140  1.1082  0.9247  0.8607
  137SOL     OW  409   2.604   1.622   0.701 -0.4868 -0.1603 -0.3849
  137SOL    HW1  410   2.602   1.523   0.721  1.0741 -2.0076  0.7520
  137SOL    HW2  411   2.701   1.650   0.684  2.4043  0.9303  3.2734
  138SOL     OW  412   2.711   0.551   0.815 -0.3669  0.3095  0.4288
  138SOL    HW1  413   2.801   0.541   0.865  1.6255 -0.9369  1.4271
  138SOL    HW2  414   2.643   0.595   0.870  3.0260  0.0817  0.0541
  139SOL     OW  415   3.025   2.863   3.066 -0.0875 -0.6820 -0.5465
  139SOL    HW1  416   2.948   2.911   3.015 -3.0519 -0.8113 -2.0323
  139SOL    HW2  417   3.084   2.913   0.036  2.2075 -2.1307  1.4870
  140SOL     OW  418   0.707   1.460   1.490  0.4043  0.0209  0.1904
  140SOL    HW1  419   0.781   1.392   1.483  2.3557 -0.5307 -0.5668
  140SOL    HW2  420   0.646   1.457   1.407 -0.2509 -2.4025 -1.5435
  141SOL     OW  421   1.173   1.816   0.920 -0.1560 -0.3150 -0.2139
  141SOL    HW1  422   1.154   1.868   1.007  0.8930  0.1816  1.3353
  141SOL    HW2  423   1.270   1.789   0.916 -1.8877  0.8343 -0.6210
  142SOL     OW  424   0.849   0.608   0.935  0.5437  0.6097 -0.1058
  142SOL    HW1  425   0.854   0.535   1.007 -2.1731  1.1197 -1.6688
  142SOL    HW2  426   0.910   0.575   0.859 -2.2528  3.1611  0.1785
  143SOL     OW  427   0.621   1.238   2.343 -0.3008 -0.0034 -0.0648
  143SOL    HW1  428   0.539   1.287   2.382 -0.7085 -0.5272  2.7424
  143SOL    HW2  429   0.701   1.271   2.395  1.0636 -3.6215 -1.7508
  144SOL     OW  430   2.405   2.982   0.637 -0.1071  0.0214 -0.6883
  144SOL    HW1  431   2.416   3.085   0.652  0.3597  1.7255  0.7459
  144SOL    HW2  432   2.410   2.929   0.726 -0.0108  0.5911  0.9691
  145SOL     OW  433   2.035   0.225   2.868 -0.3171  0.2569  0.2682
  145SOL    HW1  434   2.121   0.169   2.862  0.4375 -0.7181  1.6954
  145SOL    HW2  435   1.998   0.256   2.777  0.1100  0.9996 -1.2520
  146SOL     OW  436   0.054   2.974   0.406  0.0805  0.5335  0.4397
  146SOL    HW1  437   0.152   2.964   0.430 -2.0444  1.1249 -0.4227
  146SOL    HW2  438   0.003   3.016   0.484  1.4978 -1.6318  1.9625
  147SOL     OW  439   0.942   1.150   2.660 -0.1561 -0.4854  0.2062
  147SOL    HW1  440   0.864   1.130   2.595  0.3616 -0.5814  1.9427
  147SOL    HW2  441   1.019   1.196   2.608 -2.0170 -1.9633 -0.8143
  148SOL     OW  442   1.513   3.068   2.723 -0.3026 -0.2028  0.1149
  148SOL    HW1  443   1.444   0.008   2.786 -0.9660 -2.3739 -1.1359
  148SOL    HW2  444   1.504   2.963   2.739 -0.7327  0.8439 -1.2873
  149SOL     OW  445   1.472   0.083   1.999 -0.0454  0.4663  0.3815
  149SOL    HW1  446   1.421   0.074   2.091 -0.9685 -0.9280  4.2987
  149SOL    HW2  447   1.500   0.182   1.987 -0.7704  0.8332  1.2841
  150SOL     OW  448   2.336   2.641   3.038 -0.7151 -0.7397 -0.1469
  150SOL    HW1  449   2.347   2.541   3.019 -2.3443  0.3940  1.2828
  150SOL    HW2  450   2.248   2.664   3.081 -2.1342 -0.4369 -2.0787
  151SOL     OW  451   0.669   1.470   0.032 -0.6917  0.4309  0.2643
  151SOL    HW1  452   0.585   1.510   3.088  0.3067 -0.9226 -0.3447
  151SOL    HW2  453   0.751   1.468   3.071  2.0183  1.0293  0.9515
  152SOL     OW  454   0.512   0.018   1.580  0.0526 -0.0890 -0.1213
  152SOL    HW1  455   0.458   0.071   1.511  2.9887  1.7151 -1.7135
  152SOL    HW2  456   0.478   3.102   1.673  0.5954  0.5063  0.0216
  153SOL     OW  457   2.449   3.076   1.763  0.6170 -0.0519 -0.0547
  153SOL    HW1  458   2.502   3.061   1.678  1.5787  2.9744 -0.1739
  153SOL    HW2  459   2.489   3.049   1.852  3.0401 -0.5842  2.3547
  154SOL     OW  460   2.481   0.026   2.625  0.0863  0.4834 -0.1783
  154SOL    HW1  461   2.389   0.055   2.597 -0.1449  0.1605  0.0416
  154SOL    HW2  462   2.526   3.082   2.551 -1.2441  0.3656  2.0808
  155SOL     OW  463   3.088   1.083   0.421 -0.3311  0.4967  0.0668
  155SOL    HW1  464   0.060   1.049   0.358  1.2720 -0.3329  1.6595
  155SOL    HW2  465   0.002   1.045   0.516 -0.5149  1.4938 -1.9311
  156SOL     OW  466   3.072   1.501   0.491  0.0325  0.3881  0.0216
  156SOL    HW1  467   3.089   1.548   0.581 -1.6916  1.1447  3.6914
  156SOL    HW2  468   0.016   1.548   0.410 -0.9924  1.0356 -1.2546
  157SOL     OW  469   0.897   0.546   0.522 -0.0238 -0.1001 -0.2184
  157SOL    HW1  470   0.906   0.447   0.508 -2.3889 -1.8214  2.5925
  157SOL    HW2  471   0.983   0.596   0.497 -0.0289  3.4306 -1.3925
  158SOL     OW  472   1.809   1.191   1.203 -0.3988 -0.2091  0.0230
  158SOL    HW1  473   1.895   1.192   1.143  1.0597 -0.0204 -2.6082
  158SOL    HW2  474   1.772   1.288   1.213  0.3161  3.0014  0.1753
  159SOL     OW  475   0.121   0.409   0.271  0.1341 -0.3634  0.2419
  159SOL    HW1  476   0.094   0.507   0.299 -2.9442  3.2922 -1.6393
  159SOL    HW2  477   0.131   0.339   0.345  1.9337 -0.4998  1.1785
  160SOL     OW  478   2.207   2.279   1.948  0.0432 -0.3511  0.4488
  160SOL    HW1  479   2.184   2.305   2.044  2.1569 -4.4641 -3.1988
  160SOL    HW2  480   2.135   2.312   1.879 -1.7106  3.6169  3.3903
  161SOL     OW  481   0.345   0.838   3.002  0.2018 -0.0624 -0.1033
  161SOL    HW1  482   0.256   0.845   2.952  2.7652 -0.9839 -0.0197
  161SOL    HW2  483   0.337   0.758   3.067  1.6728 -1.6908  1.9947
  162SOL     OW  484   0.780   0.237   1.715  0.1990  0.1197 -0.1618
  162SOL    HW1  485   0.867   0.275   1.760 -1.2511 -0.9567 -1.3461
  162SOL    HW2  486   0.733   0.307   1.654 -0.0965  2.0977 -1.2356
  163SOL     OW  487   2.766   2.911   2.534 -0.2483  0.0063 -0.0825
  163SOL    HW1  488   2.753   3.010   2.517 -2.5143  2.5301  1.8280
  163SOL    HW2  489   2.741   2.851   2.452 -0.8264  2.2276 -0.4725
  164SOL     OW  490   2.280   1.770   0.408 -0.0814  0.4514  0.1298
  164SOL    HW1  491   2.275   1.761   0.304 -1.1690 -2.9784 -4.9478
  164SOL    HW2  492   2.376   1.774   0.429 -0.3460  0.4490 -3.6028
  165SOL     OW  493   0.338   0.158   1.418  0.5093  0.0918 -0.6128
  165SOL    HW1  494   0.254   0.115   1.451 -1.2400  1.4759 -2.8222
  165SOL    HW2  495   0.368   0.104   1.340 -2.2828 -1.7049  0.7622
  166SOL     OW  496   2.252   0.543   0.674  0.6264 -0.0714 -0.7692
  166SOL    HW1  497   2.244   0.463   0.608 -1.0250  1.8198 -0.9403
  166SOL    HW2  498   2.197   0.518   0.755  0.9466 -0.7317 -2.0545
  167SOL     OW  499   2.212   0.744   0.197 -0.3418  0.0629  0.0969
  167SOL    HW1  500   2.151   0.727   0.280  0.8915  1.9440  1.5722
  167SOL    HW2  501   2.259   0.653   0.173  0.4728 -0.6227  0.5470
  168SOL     OW  502   1.581   0.156   2.535  0.2148 -0.1114 -0.2942
  168SOL    HW1  503   1.547   0.086   2.602 -0.1541 -0.9785  0.2344
  168SOL    HW2  504   1.676   0.177   2.568 -0.1583  0.3184 -0.3765
  169SOL     OW  505   0.729   1.896   0.811  0.1222  0.2918 -0.2879
  169SOL    HW1  506   0.631   1.893   0.781 -0.3841  1.0495  3.2376
  169SOL    HW2  507   0.743   1.956   0.892 -0.4219 -0.9478  0.6524
  170SOL     OW  508   2.992   0.758   1.395 -0.0613 -0.0231  0.6581
  170SOL    HW1  509   3.032   0.810   1.312  0.5051 -0.4402 -2.4424
  170SOL    HW2  510   3.038   0.783   1.484 -0.2419 -2.1728  0.2646
  171SOL     OW  511   2.888   1.491   2.322 -0.0688 -0.3473  0.4637
  171SOL    HW1  512   2.829   1.431   2.379  0.6005  1.7752  0.4668
  171SOL    HW2  513   2.830   1.537   2.251 -0.2640  2.3801  0.3390
  172SOL     OW  514   0.752   1.735   1.485  0.1717 -0.4563  0.3974
  172SOL    HW1  515   0.671   1.788   1.517  0.5877  1.7198  1.8811
  172SOL    HW2  516   0.741   1.634   1.477  0.5683 -1.2887 -0.4359
  173SOL     OW  517   1.965   1.773   3.020 -0.4284  0.0892 -0.2027
  173SOL    HW1  518   1.887   1.710   3.001 -0.5255  0.9592 -0.9803
  173SOL    HW2  519   1.922   1.857   3.058  0.2655  0.1101  0.4909
  174SOL     OW  520   1.661   0.677   2.738 -0.5249 -0.5896 -0.5495
  174SOL    HW1  521   1.676   0.594   2.794  2.0902  3.8846 -0.1057
  174SOL    HW2  522   1.629   0.750   2.801 -2.2114  1.3400 -0.5110
  175SOL     OW  523   1.025   1.598   1.304  0.0558  0.2562  0.8910
  175SOL    HW1  524   0.978   1.682   1.333 -0.2422  2.3947  0.5139
  175SOL    HW2  525   1.015   1.518   1.371  0.1914  1.3055 -1.4500
  176SOL     OW  526   1.223   3.083   0.254  0.1824  0.2360  0.1990
  176SOL    HW1  527   1.259   2.992   0.284  0.8885 -0.0620  1.9189
  176SOL    HW2  528   1.234   0.044   0.337 -0.0841 -0.7059 -1.5027
  177SOL     OW  529   0.141   1.262   3.089 -0.3894 -0.4999 -0.0612
  177SOL    HW1  530   0.218   1.232   0.045  1.4326  0.3246 -2.3959
  177SOL    HW2  531   0.157   1.222   2.995 -0.7641 -1.0556 -0.7245
  178SOL     OW  532   2.998   2.420   2.661 -0.5282 -0.1355  0.4672
  178SOL    HW1  533   2.998   2.405   2.763 -1.1803  1.6778 -2.1460
  178SOL    HW2  534   3.080   2.383   2.614 -0.8630 -1.9462  0.6507
  179SOL     OW  535   2.618   2.578   2.576  0.1739 -0.3272 -0.4906
  179SOL    HW1  536   2.611   2.674   2.530 -2.5016  1.7896 -2.3441
  179SOL    HW2  537   2.668   2.513   2.513  2.9794  3.8842 -0.4293
  180SOL     OW  538   2.082   0.807   1.236 -0.9512 -0.2826  0.5639
  180SOL    HW1  539   2.025   0.730   1.263 -0.7168  0.7633  1.1715
  180SOL    HW2  540   2.154   0.817   1.309  0.4790 -0.3245 -1.9037
  181SOL     OW  541   2.068   0.485   2.682  0.2992 -0.1207  0.5448
  181SOL    HW1  542   2.122   0.502   2.772  3.3932  1.7552  1.5898
  181SOL    HW2  543   2.114   0.405   2.639  1.1305 -0.6679  3.2718
  182SOL     OW  544   2.623   2.388   2.284 -0.4604 -0.3226 -0.7115
  182SOL    HW1  545   2.574   2.474   2.273  2.6573  0.8197  0.3904
  182SOL    HW2  546   2.698   2.404   2.351  2.1774 -1.4399  2.2940
  183SOL     OW  547   2.021   0.803   1.857 -0.3379  0.1272  0.5185
  183SOL    HW1  548   2.115   0.839   1.849 -0.1370  0.7807 -0.9744
  183SOL    HW2  549   2.003   0.756   1.769  1.0635  0.2401 -4.2361
  184SOL     OW  550   0.216   1.771   0.945  0.3304  0.3518  0.0435
  184SOL    HW1  551   0.212   1.670   0.935 -0.0579  1.5750  1.0829
  184SOL    HW2  552   0.209   1.814   0.853  1.7895 -2.7129  1.5004
  185SOL     OW  553   2.893   0.222   0.674  0.7020  0.1200  0.0270
  185SOL    HW1  554   2.793   0.242   0.694 -2.2668  2.1340 -0.6431
  185SOL    HW2  555   2.939   0.282   0.609 -1.2325 -1.0787  0.3971
  186SOL     OW  556   2.256   2.483   2.536 -0.5327  0.2919  0.0820
  186SOL    HW1  557   2.160   2.442   2.516 -3.2273 -0.5757  0.0742
  186SOL    HW2  558   2.248   2.572   2.583  0.5179  1.9531 -0.4090
  187SOL     OW  559   0.738   1.487   0.725 -0.0891 -0.1812 -0.2462
  187SOL    HW1  560   0.811   1.415   0.723  0.3032 -1.4977  0.5027
  187SOL    HW2  561   0.776   1.580   0.728 -0.6652 -1.7713 -1.9851
  188SOL     OW  562   2.267   1.241   0.943  0.5090  0.2894 -0.4101
  188SOL    HW1  563   2.292   1.145   0.915 -1.9530  2.2974  3.9629
  188SOL    HW2  564   2.319   1.310   0.890 -0.7070  1.3766 -0.8307
  189SOL     OW  565   0.124   1.462   2.804  0.5520 -0.2838 -0.4889
  189SOL    HW1  566   0.131   1.513   2.896 -0.0134  0.0208  2.3107
  189SOL    HW2  567   0.140   1.361   2.812 -0.2208  0.2016 -0.4896
  190SOL     OW  568   2.311   0.363   2.123  0.7067  0.5826 -0.4593
  190SOL    HW1  569   2.285   0.267   2.091 -1.0914 -3.1930  1.9581
  190SOL    HW2  570   2.384   0.365   2.196  0.7204  1.0276  1.3465
  191SOL     OW  571   1.105   0.246   2.190  0.4591  0.0110  0.0259
  191SOL    HW1  572   1.083   0.302   2.109 -0.8453  0.2765  0.3247
  191SOL    HW2  573   1.019   0.249   2.246 -0.6423  1.7723 -0.4342
  192SOL     OW  574   1.041   1.512   1.734 -0.3030  0.1742  0.1105
  192SOL    HW1  575   1.142   1.521   1.737 -0.6683 -1.7736  2.0088
  192SOL    HW2  576   0.994   1.599   1.742  0.6595  1.5447 -0.1298
  193SOL     OW  577   1.240   2.773   0.830 -0.5458 -0.1294  0.2651
  193SOL    HW1  578   1.206   2.779   0.925 -0.6644  0.0990 -1.2718
  193SOL    HW2  579   1.254   2.678   0.796 -0.3795  1.3980  1.1468
  194SOL     OW  580   0.505   1.937   1.941  0.0849 -0.4213 -0.3306
  194SOL    HW1  581   0.464   2.027   1.971 -1.5716  0.0990 -2.0612
  194SOL    HW2  582   0.565   1.951   1.862  0.8103 -2.2749  1.6428
  195SOL     OW  583   1.708   0.570   0.785 -0.6120  0.5896 -0.2900
  195SOL    HW1  584   1.654   0.585   0.698  1.1163  0.0378 -1.1949
  195SOL    HW2  585   1.719   0.654   0.835  1.0778 -2.2611 -1.9107
  196SOL     OW  586   1.023   1.448   2.118  0.5239  0.1992 -0.0088
  196SOL    HW1  587   1.065   1.372   2.064  2.1014  0.2990  0.3095
  196SOL    HW2  588   0.923   1.432   2.134 -0.3547 -2.1293  1.8192
  197SOL     OW  589   3.008   0.397   1.901 -0.1778  0.3864 -0.3839
  197SOL    HW1  590   3.058   0.405   1.993  0.2365  4.8597  1.3634
  197SOL    HW2  591   2.963   0.483   1.875  0.7486 -0.1143 -2.5450
  198SOL     OW  592   0.457   0.817   1.147  0.0696 -0.4411  0.5356
  198SOL    HW1  593   0.422   0.798   1.054  1.0708 -1.1639 -1.3081
  198SOL    HW2  594   0.543   0.875   1.143  1.4634 -0.5519  0.7767
  199SOL     OW  595   0.173   2.565   1.391 -0.5641 -0.7387  0.0359
  199SOL    HW1  596   0.204   2.648   1.337  1.3026 -2.5991 -1.8269
  199SOL    HW2  597   0.074   2.576   1.413 -1.0149  0.3936 -0.2250
  200SOL     OW  598   1.433   1.690   2.753  0.4915 -0.3172 -0.1466
  200SOL    HW1  599   1.444   1.621   2.681  1.2553 -1.3358  0.7081
  200SOL    HW2  600   1.522   1.732   2.782 -3.8271 -2.1896 -2.5757
  201SOL     OW  601   0.528   2.562   1.768  0.2785  0.7685  0.1957
  201SOL    HW1  602   0.583   2.600   1.693 -1.1747 -1.3187  0.4281
  201SOL    HW2  603   0.464   2.488   1.733 -1.6617 -1.9424 -1.5592
  202SOL     OW  604   1.292   2.857   2.946 -0.5143  0.1415 -0.1823
  202SOL    HW1  605   1.203   2.865   2.895  1.2803  0.7837 -1.2527
  202SOL    HW2  606   1.310   2.929   3.014  1.1479 -2.0057 -1.1848
  203SOL     OW  607   1.499   0.647   2.296 -0.2630 -0.2405  0.2358
  203SOL    HW1  608   1.424   0.576   2.289 -1.1209 -0.6390  0.8495
  203SOL    HW2  609   1.585   0.611   2.335 -1.4169  1.6548  1.1157
  204SOL     OW  610   0.597   1.085   1.544 -0.1714  0.0237  0.2529
  204SOL    HW1  611   0.572   1.128   1.633 -0.5081  0.5932 -0.2892
  204SOL    HW2  612   0.527   1.022   1.504 -1.7560 -1.1393 -0.9244
  205SOL     OW  613   2.123   0.955   2.615 -0.0397  0.2414 -0.5334
  205SOL    HW1  614   2.123   0.849   2.609  0.6029 -0.3745  0.5889
  205SOL    HW2  615   2.181   0.986   2.538  0.4570  0.5509  2.3390
  206SOL     OW  616   0.488   1.859   3.031 -0.0725 -0.4048 -0.1910
  206SOL    HW1  617   0.458   1.924   2.960 -1.2594  1.1553 -1.2348
  206SOL    HW2  618   0.589   1.864   3.038  0.3784 -0.0648 -0.7388
  207SOL     OW  619   0.439   0.304   2.039 -0.0545 -0.2611  0.0642
  207SOL    HW1  620   0.501   0.222   2.029 -1.0961  1.7355  0.4329
  207SOL    HW2  621   0.376   0.316   1.959  1.1302  1.2412  2.4565
  208SOL     OW  622   0.676   2.674   1.510  0.1344 -0.6717  0.1072
  208SOL    HW1  623   0.610   2.724   1.456  0.7325 -3.5842 -1.7474
  208SOL    HW2  624   0.716   2.599   1.457 -0.8671 -0.5088 -2.4495
  209SOL     OW  625   1.173   2.696   0.027 -0.3010  0.4332  0.3839
  209SOL    HW1  626   1.092   2.744   0.066 -1.1672 -1.8627 -2.0599
  209SOL    HW2  627   1.223   2.753   3.056  0.1852  1.3131 -2.4003
  210SOL     OW  628   2.730   1.426   1.745 -0.5883 -0.1118  0.2131
  210SOL    HW1  629   2.769   1.406   1.652 -1.0701 -1.6201 -0.5446
  210SOL    HW2  630   2.652   1.363   1.766 -1.8058 -1.7833 -0.6984
  211SOL     OW  631   1.248   0.352   1.651  0.7588  0.3382  0.0738
  211SOL    HW1  632   1.260   0.446   1.693 -0.1450 -0.5121  1.7156
  211SOL    HW2  633   1.330   0.298   1.682  1.1503 -0.0192  1.4188
  212SOL     OW  634   1.119   2.214   1.680  0.1138 -0.0883 -0.2428
  212SOL    HW1  635   1.080   2.276   1.748 -0.6130 -0.0577 -1.8261
  212SOL    HW2  636   1.217   2.193   1.701  1.3179  0.0964  0.4863
  213SOL     OW  637   2.547   0.252   1.773 -0.0164 -0.1941  0.0914
  213SOL    HW1  638   2.486   0.175   1.758  0.7619  1.8100  0.0053
  213SOL    HW2  639   2.645   0.224   1.774 -3.8544 -0.3684 -0.3193
  214SOL     OW  640   0.691   1.971   1.725  0.1699 -0.4197 -0.3464
  214SOL    HW1  641   0.771   1.909   1.729  1.3309 -1.4520  2.5116
  214SOL    HW2  642   0.714   2.059   1.768 -0.3543  0.0385 -1.7256
  215SOL     OW  643   2.689   1.940   1.045 -0.0909 -0.4253  0.3201
  215SOL    HW1  644   2.620   2.010   1.012 -2.2107 -0.5285 -1.9317
  215SOL    HW2  645   2.704   1.944   1.147  1.1055  0.1542  1.1572
  216SOL     OW  646   3.097   0.916   1.610 -0.0486 -0.2691  0.4185
  216SOL    HW1  647   0.082   0.951   1.573 -3.0903 -0.9771 -0.8240
  216SOL    HW2  648   0.019   0.849   1.685 -1.1480  0.0065 -1.7131
  217SOL     OW  649   2.534   0.213   1.387  0.0193  0.5737  0.4345
  217SOL    HW1  650   2.605   0.206   1.312 -2.3748  0.0067  0.6089
  217SOL    HW2  651   2.542   0.298   1.441  0.1656  1.3791 -0.2519
  218SOL     OW  652   1.356   2.191   1.109 -0.1039 -0.2087 -0.3176
  218SOL    HW1  653   1.432   2.128   1.128 -2.1514  1.1692 -0.9103
  218SOL    HW2  654   1.313   2.166   1.015  0.0542 -1.1368 -2.0779
  219SOL     OW  655   1.680   2.225   0.194 -0.0387 -0.3884  0.2234
  219SOL    HW1  656   1.762   2.264   0.148 -0.2504 -0.0106  0.7048
  219SOL    HW2  657   1.696   2.189   0.290  0.8144  0.3354  1.4279
  220SOL     OW  658   1.914   2.317   0.064 -0.7914  0.0255  0.0618
  220SOL    HW1  659   1.954   2.353   0.153 -0.8673  0.9450  2.9517
  220SOL    HW2  660   1.983   2.258   0.012  1.6808 -1.6938  0.1981
  221SOL     OW  661   2.894   1.898   0.873 -0.0970 -0.8367 -0.8542
  221SOL    HW1  662   2.950   1.844   0.938  4.4381 -1.0945 -1.5264
  221SOL    HW2  663   2.804   1.916   0.914  3.4260 -0.6392 -2.3337
  222SOL     OW  664   1.286   2.199   0.845 -0.3074  0.3072  0.0087
  222SOL    HW1  665   1.369   2.179   0.788 -2.1494 -1.6015 -2.6096
  222SOL    HW2  666   1.204   2.159   0.800  1.6811  1.1411 -1.3660
  223SOL     OW  667   0.772   2.693   2.435 -0.7662 -0.5381 -0.0389
  223SOL    HW1  668   0.744   2.622   2.499  0.2032  1.0644  1.9264
  223SOL    HW2  669   0.871   2.705   2.439 -1.5292  0.8190  2.3809
  224SOL     OW  670   2.904   1.417   1.078 -0.2258  0.1760 -0.0104
  224SOL    HW1  671   2.812   1.459   1.079 -1.6437  0.5074  1.2090
  224SOL    HW2  672   2.951   1.455   1.161 -1.9710 -0.2275  2.2358
  225SOL     OW  673   2.211   1.623   0.985  0.1843  0.0334  0.3885
  225SOL    HW1  674   2.302   1.633   1.034  0.5428  0.3046 -1.4979
  225SOL    HW2  675   2.226   1.573   0.897 -2.7761  1.0754  0.1895
  226SOL     OW  676   1.222   2.479   0.575  0.0478  0.3679 -0.0535
  226SOL    HW1  677   1.325   2.490   0.568  2.0118 -0.4074  1.4664
  226SOL    HW2  678   1.196   2.501   0.672  0.3861 -2.7279  1.7786
  227SOL     OW  679   1.222   1.088   1.425 -0.0548 -0.4599 -0.1943
  227SOL    HW1  680   1.166   1.094   1.339  0.4153 -0.4031 -0.1241
  227SOL    HW2  681   1.293   1.157   1.433 -2.4549 -1.3974 -0.7046
  228SOL     OW  682   1.226   0.696   2.055 -0.5223  0.0869  0.3534
  228SOL    HW1  683   1.281   0.772   2.015  0.8470  0.3052  0.2162
  228SOL    HW2  684   1.260   0.612   2.020 -3.2372 -0.4551 -1.3202
  229SOL     OW  685   2.734   0.782   2.823  0.0958  0.3844 -0.1360
  229SOL    HW1  686   2.797   0.702   2.833 -1.2841  0.4690 -0.8652
  229SOL    HW2  687   2.657   0.780   2.894 -1.7442 -3.8322  1.2893
  230SOL     OW  688   1.135   1.096   0.896  0.7321  0.5256 -0.4296
  230SOL    HW1  689   1.126   1.006   0.936  1.0491 -0.9057 -1.8411
  230SOL    HW2  690   1.168   1.165   0.965 -0.2940 -2.0700  0.7861
  231SOL     OW  691   2.518   2.981   2.008  0.0699  0.1064  0.0896
  231SOL    HW1  692   2.583   2.906   1.979  3.0142  2.2404 -1.1320
  231SOL    HW2  693   2.473   2.968   2.099 -1.5134 -0.4667 -0.0683
  232SOL     OW  694   0.606   1.975   0.343  0.3931 -0.0149 -0.0328
  232SOL    HW1  695   0.672   1.935   0.412 -1.4110 -1.9464 -0.9168
  232SOL    HW2  696   0.654   1.980   0.255 -0.2241 -1.2400 -2.8273
  233SOL     OW  697   1.437   2.398   2.469  0.1262  0.0365 -0.1491
  233SOL    HW1  698   1.499   2.316   2.467 -1.2663 -0.6491  0.4948
  233SOL    HW2  699   1.341   2.369   2.485 -0.2384  1.4424 -1.8233
  234SOL     OW  700   0.947   1.253   1.844 -0.2823 -0.1705  0.5669
  234SOL    HW1  701   0.943   1.345   1.798 -0.0274  1.2958 -3.3638
  234SOL    HW2  702   0.859   1.218   1.884 -0.0985 -1.3085  2.4562
  235SOL     OW  703   0.499   1.898   1.536 -0.5000  0.8588  0.1324
  235SOL    HW1  704   0.549   1.938   1.614  2.8977 -0.0582  2.1021
  235SOL    HW2  705   0.494   1.962   1.454 -0.2809  0.8035  1.4246
  236SOL     OW  706   1.921   2.929   2.609  0.6783  0.1865 -0.3054
  236SOL    HW1  707   1.903   2.835   2.641 -1.4002 -0.3096  2.3320
  236SOL    HW2  708   1.884   2.996   2.678  0.7155  0.4933  2.6698
  237SOL     OW  709   1.254   2.949   0.638 -0.2426  0.3707 -0.0655
  237SOL    HW1  710   1.258   2.877   0.709  0.6069 -0.2869 -0.8003
  237SOL    HW2  711   1.244   3.040   0.679 -1.5843  0.1276 -1.0468
  238SOL     OW  712   1.325   0.682   2.729  0.6051 -0.4864 -0.2725
  238SOL    HW1  713   1.392   0.734   2.671  0.7311  0.9068  0.8144
  238SOL    HW2  714   1.311   0.584   2.695 -0.1400  0.7264  0.5603
  239SOL     OW  715   0.677   0.379   2.139 -0.6019 -0.1325  0.1055
  239SOL    HW1  716   0.576   0.361   2.124 -1.0985  0.2087 -3.1204
  239SOL    HW2  717   0.700   0.448   2.067 -3.0764 -2.2609  1.7249
  240SOL     OW  718   2.040   2.675   0.795  0.2105 -0.6163 -0.0281
  240SOL    HW1  719   2.133   2.644   0.821 -1.1339  3.3907 -0.6946
  240SOL    HW2  720   1.976   2.619   0.847  0.9189 -0.8622 -3.3416
  241SOL     OW  721   1.292   1.485   1.290  0.5670  0.1072 -0.4527
  241SOL    HW1  722   1.192   1.510   1.277 -0.7032  1.3373  1.4892
  241SOL    HW2  723   1.346   1.521   1.212 -3.2932 -1.1783  1.3066
  242SOL     OW  724   0.134   0.701   0.754  0.3165  0.1635  0.5950
  242SOL    HW1  725   0.062   0.773   0.741  2.5516 -0.2449 -1.8871
  242SOL    HW2  726   0.196   0.704   0.671 -3.9199  1.4808 -0.4272
  243SOL     OW  727   0.376   0.647   1.556  0.1844 -0.6561 -0.6267
  243SOL    HW1  728   0.281   0.652   1.596 -2.1600  1.2082 -0.2268
  243SOL    HW2  729   0.398   0.561   1.508 -2.0249  0.5104 -1.2881
  244SOL     OW  730   1.179   0.408   2.949  0.0131 -0.4956 -0.6498
  244SOL    HW1  731   1.100   0.395   3.011 -2.5649 -0.0341 -0.9544
  244SOL    HW2  732   1.241   0.481   2.982  2.6460 -1.2845 -2.2566
  245SOL     OW  733   2.091   0.825   3.026 -0.6459  0.3828 -0.1959
  245SOL    HW1  734   2.146   0.816   0.012  2.0525  0.2354  0.8087
  245SOL    HW2  735   2.142   0.888   2.964  0.8866 -0.7051  0.2406
  246SOL     OW  736   0.298   0.971   1.795 -0.5532  0.5431  0.0961
  246SOL    HW1  737   0.269   0.989   1.697 -1.5793  0.0050 -2.9472
  246SOL    HW2  738   0.383   0.912   1.791  0.5491 -3.1049 -1.2429
  247SOL     OW  739   0.521   3.034   2.219  0.5278 -0.2874 -0.2284
  247SOL    HW1  740   0.582   3.034   2.136  0.0276 -0.2967 -0.5461
  247SOL    HW2  741   0.565   3.089   2.289 -0.8626  0.5150 -0.0941
  248SOL     OW  742   0.387   1.654   2.301  0.3359  0.3512  0.0106
  248SOL    HW1  743   0.467   1.688   2.251 -0.7667 -0.2614  1.3606
  248SOL    HW2  744   0.307   1.639   2.241  1.2833  1.6015  2.0391
  249SOL     OW  745   0.317   0.213   2.706  0.1332  0.2091 -0.5061
  249SOL    HW1  746   0.398   0.232   2.766 -1.1797 -2.4461  0.4243
  249SOL    HW2  747   0.325   0.123   2.666 -2.3175  1.5701  0.3557
  250SOL     OW  748   0.088   3.007   2.808 -0.1204 -0.3671 -0.0411
  250SOL    HW1  749   0.166   3.031   2.742 -1.0140  3.8321 -2.1216
  250SOL    HW2  750   3.100   3.032   2.764 -2.1502 -0.0026 -0.8185
  251SOL     OW  751   0.219   1.505   0.903  0.4170 -0.2940 -0.0995
  251SOL    HW1  752   0.176   1.433   0.846  1.9400  0.7429 -2.3478
  251SOL    HW2  753   0.321   1.521   0.875  2.8395  0.0753 -1.5051
  252SOL     OW  754   1.584   2.818   2.203  0.3624 -0.2459  0.2209
  252SOL    HW1  755   1.500   2.815   2.142  0.2406 -0.2390 -1.9475
  252SOL    HW2  756   1.589   2.737   2.268 -2.6290 -1.9840  0.6036
  253SOL     OW  757   1.872   1.946   2.636 -0.1540 -0.5207  0.1668
  253SOL    HW1  758   1.833   1.926   2.542 -0.8725 -2.2074 -1.6991
  253SOL    HW2  759   1.812   1.907   2.708 -0.9475 -2.4556  0.0295
  254SOL     OW  760   0.378   1.537   1.807 -0.0176 -0.4368 -0.3288
  254SOL    HW1  761   0.344   1.453   1.762 -0.5331  0.3688  1.5853
  254SOL    HW2  762   0.478   1.556   1.786 -0.4316  0.2959  1.1987
  255SOL     OW  763   1.055   0.232   1.812  0.3499  0.4353  0.0471
  255SOL    HW1  764   1.054   0.131   1.812  1.4865  1.9256 -1.4528
  255SOL    HW2  765   1.122   0.269   1.744  2.0994 -3.4304  1.9534
  256SOL     OW  766   3.034   2.273   1.176  1.0309 -0.2285 -0.7582
  256SOL    HW1  767   2.929   2.275   1.196 -3.7044  2.2644  0.2205
  256SOL    HW2  768   3.059   2.208   1.101 -1.3028 -1.7670  1.4215
  257SOL     OW  769   0.339   2.924   0.416 -0.3812 -0.1008 -0.1960
  257SOL    HW1  770   0.368   2.944   0.510 -0.6145 -1.6490 -1.3528
  257SOL    HW2  771   0.323   2.825   0.412 -0.4358  4.0742  0.5439
  258SOL     OW  772   0.902   2.019   2.132  0.2172 -0.1758 -0.2050
  258SOL    HW1  773   0.999   2.032   2.111 -2.3011 -1.2510  0.8246
  258SOL    HW2  774   0.846   2.034   2.049  1.6145 -4.7347  1.9366
  259SOL     OW  775   1.031   1.941   2.473 -0.1193 -0.1227 -0.1277
  259SOL    HW1  776   0.942   1.993   2.489 -1.5472  0.8054  1.3767
  259SOL    HW2  777   1.112   1.983   2.521 -0.0469  0.5203  0.0009
  260SOL     OW  778   2.269   0.664   2.238  0.2756  0.2254  0.2489
  260SOL    HW1  779   2.178   0.702   2.264 -0.3244  0.0275 -1.2014
  260SOL    HW2  780   2.262   0.580   2.184  2.5729  0.2001 -1.4463
  261SOL     OW  781   1.077   0.851   0.999 -0.6673 -0.4494  0.4113
  261SOL    HW1  782   0.976   0.866   1.006  0.7133  2.2315  1.8633
  261SOL    HW2  783   1.113   0.823   1.089  2.6571 -0.8289 -0.3963
  262SOL     OW  784   1.993   2.359   2.558 -0.3279  0.3290  0.0877
  262SOL    HW1  785   1.911   2.331   2.496 -2.2481  0.7009 -1.2799
  262SOL    HW2  786   1.990   2.307   2.649  0.6340 -1.4240  3.7703
  263SOL     OW  787   0.483   2.342   0.483  0.0930 -0.2969 -0.1952
  263SOL    HW1  788   0.471   2.249   0.518  0.6493  1.0341  1.6813
  263SOL    HW2  789   0.581   2.353   0.451  2.6835  1.9475  0.9769
  264SOL     OW  790   0.232   2.328   0.642  0.2729  0.1371  0.2448
  264SOL    HW1  791   0.203   2.331   0.741  1.5379 -1.1473 -0.5019
  264SOL    HW2  792   0.329   2.361   0.627 -0.0498  1.3287 -2.5910
  265SOL     OW  793   0.617   1.207   0.388  0.3049  0.4045 -0.2727
  265SOL    HW1  794   0.613   1.201   0.490  0.5843  2.7962 -2.4174
  265SOL    HW2  795   0.709   1.185   0.357 -0.2781  0.3505 -0.9027
  266SOL     OW  796   0.741   1.905   2.325 -0.9345  0.0763 -0.0787
  266SOL    HW1  797   0.745   1.958   2.409 -0.3975  0.7936 -1.2109
  266SOL    HW2  798   0.768   1.969   2.250 -0.6232  0.1837 -1.7208
  267SOL     OW  799   1.725   0.573   2.449  0.4605 -0.2115  0.2356
  267SOL    HW1  800   1.701   0.587   2.547 -1.9438 -1.4235  0.0613
  267SOL    HW2  801   1.780   0.658   2.421 -0.4699  1.2574  0.9043
  268SOL     OW  802   0.528   1.060   0.162  0.0343  0.0682  0.0491
  268SOL    HW1  803   0.520   0.962   0.196 -0.1972 -2.7741 -1.8990
  268SOL    HW2  804   0.561   1.119   0.238  0.0743 -1.0581 -0.4157
  269SOL     OW  805   2.495   2.166   2.381 -0.3085  0.3997 -0.0663
  269SOL    HW1  806   2.570   2.097   2.402 -0.2529 -0.5469  1.2816
  269SOL    HW2  807   2.535   2.254   2.348 -0.2825  0.7903 -1.6455
  270SOL     OW  808   1.689   1.828   2.801  0.2801 -0.3651  1.0013
  270SOL    HW1  809   1.652   1.903   2.858  1.3197 -0.8849 -2.0549
  270SOL    HW2  810   1.712   1.741   2.855  1.0347 -3.6251  4.3200
  271SOL     OW  811   0.379   0.157   0.054  0.0000 -1.1279 -0.3680
  271SOL    HW1  812   0.459   0.094   0.044 -0.6071 -2.9387 -0.5447
  271SOL    HW2  813   0.292   0.124   0.013 -0.6137 -0.6607  2.0825
  272SOL     OW  814   2.708   0.485   0.369  0.6302 -0.2309  0.0939
  272SOL    HW1  815   2.768   0.507   0.448  0.1429 -1.3847  1.8304
  272SOL    HW2  816   2.607   0.479   0.397  1.0471  1.9740  0.6551
  273SOL     OW  817   0.438   3.038   1.842  0.3332 -0.0197 -0.3144
  273SOL    HW1  818   0.355   3.091   1.873  2.9174  2.7057  2.2911
  273SOL    HW2  819   0.428   2.938   1.853 -2.1593  0.9347 -0.1067
  274SOL     OW  820   2.985   0.557   1.636  0.6353  0.2100  0.1771
  274SOL    HW1  821   2.947   0.609   1.709  1.0615 -0.1957 -1.1032
  274SOL    HW2  822   2.911   0.504   1.593  0.5299  2.9062  0.8568
  275SOL     OW  823   0.923   1.715   0.850  0.1035  0.4884 -0.4265
  275SOL    HW1  824   1.015   1.759   0.841 -1.2750 -2.7356  2.3339
  275SOL    HW2  825   0.845   1.776   0.818 -0.1281  1.0132 -1.4346
  276SOL     OW  826   0.577   0.798   2.273  0.0443  0.5381 -0.2177
  276SOL    HW1  827   0.618   0.877   2.225  0.5192 -3.0966 -0.0377
  276SOL    HW2  828   0.647   0.734   2.312  0.2588 -1.2686 -0.5581
  277SOL     OW  829   1.261   2.565   1.828  0.4565 -0.0166 -0.0319
  277SOL    HW1  830   1.179   2.556   1.763 -2.5277 -0.3725 -1.3136
  277SOL    HW2  831   1.261   2.483   1.891 -1.4303  0.9076 -0.2622
  278SOL     OW  832   1.786   2.711   2.049 -0.2279  0.0617 -0.3142
  278SOL    HW1  833   1.710   2.740   2.111  0.6330 -0.8065  1.6462
  278SOL    HW2  834   1.828   2.795   2.007  0.2105 -1.7087 -1.4757
  279SOL     OW  835   1.481   1.597   0.332  0.4760  0.7905 -0.4858
  279SOL    HW1  836   1.414   1.647   0.270 -1.2147 -0.1087  2.8058
  279SOL    HW2  837   1.528   1.522   0.283 -2.2043 -1.0256  1.8643
  280SOL     OW  838   1.177   1.186   0.124  0.5827 -0.0970 -0.2222
  280SOL    HW1  839   1.158   1.255   0.049  1.0795 -0.2817  0.0517
  280SOL    HW2  840   1.161   1.228   0.215  1.5712 -0.2942 -0.7459
  281SOL     OW  841   0.212   0.389   1.574  0.0133 -0.2064 -0.3213
  281SOL    HW1  842   0.154   0.457   1.521  2.0898  0.2789 -2.6977
  281SOL    HW2  843   0.274   0.358   1.503 -0.9839  2.1943  2.2480
  282SOL     OW  844   0.085   2.570   0.667 -0.2373 -0.0231  0.0033
  282SOL    HW1  845   0.042   2.611   0.579 -0.5888 -0.9105 -1.9483
  282SOL    HW2  846   0.145   2.492   0.641 -0.3390 -0.0130  0.5946
  283SOL     OW  847   1.192   2.076   2.130  0.4068 -0.4064 -0.0887
  283SOL    HW1  848   1.182   2.011   2.054  1.0417 -0.4343  0.8947
  283SOL    HW2  849   1.267   2.042   2.192 -3.4710  1.5418  3.0933
  284SOL     OW  850   2.738   2.826   1.054 -0.3603  0.4975  0.9771
  284SOL    HW1  851   2.659   2.883   1.074  0.8688 -1.4091 -1.4622
  284SOL    HW2  852   2.802   2.802   1.131 -2.4869 -1.2666  3.1953
  285SOL     OW  853   0.385   2.293   2.438 -0.3637 -0.1765 -0.1250
  285SOL    HW1  854   0.407   2.363   2.369  0.9325  1.5063  1.0364
  285SOL    HW2  855   0.451   2.301   2.517 -4.2855 -0.9080 -0.2683
  286SOL     OW  856   0.214   3.010   0.673  1.0219  0.1816 -0.1853
  286SOL    HW1  857   0.260   3.058   0.752  2.6746  1.9448 -0.1263
  286SOL    HW2  858   0.127   3.058   0.641 -4.0705  0.6825 -1.8427
  287SOL     OW  859   0.723   0.963   0.669 -0.0907 -0.1192  0.3664
  287SOL    HW1  860   0.818   0.924   0.650 -1.1733  0.5811 -1.1006
  287SOL    HW2  861   0.729   1.067   0.668  1.7334  1.5090  1.6391
  288SOL     OW  862   2.266   1.984   2.735  0.4005 -0.3674 -0.1398
  288SOL    HW1  863   2.269   2.078   2.773 -0.0434  1.7711 -1.9960
  288SOL    HW2  864   2.223   1.996   2.645 -0.5554 -2.5895  2.6567
  289SOL     OW  865   0.124   1.977   2.916  0.6488  0.0926  0.3472
  289SOL    HW1  866   0.089   1.916   2.986 -1.3322 -1.3463 -0.5980
  289SOL    HW2  867   0.070   1.963   2.827 -4.2235 -1.6431 -1.0162
  290SOL     OW  868   1.350   1.725   1.170 -0.2514  0.4007  0.7346
  290SOL    HW1  869   1.271   1.780   1.179 -0.2049 -0.4561 -2.1878
  290SOL    HW2  870   1.425   1.756   1.227 -0.5624  0.3986 -0.0986
  291SOL     OW  871   1.381   1.342   2.903 -0.5557  0.3498  0.2150
  291SOL    HW1  872   1.328   1.416   2.946  1.2719 -2.2988 -1.6707
  291SOL    HW2  873   1.388   1.260   2.959 -2.3388  1.3289 -0.0088
  292SOL     OW  874   0.957   1.549   0.315 -0.0744  0.0592 -0.1208
  292SOL    HW1  875   1.018   1.468   0.299  2.3446 -2.4385 -1.1101
  292SOL    HW2  876   0.859   1.518   0.325  0.2746 -1.4395 -0.5702
  293SOL     OW  877   1.439   2.778   1.076 -0.0410  0.1464 -0.4564
  293SOL    HW1  878   1.342   2.790   1.097  1.6001  2.3517  1.3222
  293SOL    HW2  879   1.464   2.862   1.024 -0.7756 -2.0620  0.6376
  294SOL     OW  880   1.962   1.287   2.507 -0.1891  0.4088  0.1660
  294SOL    HW1  881   1.936   1.214   2.575  1.8525  1.7115 -2.9974
  294SOL    HW2  882   1.893   1.361   2.508 -0.2010  0.1185 -3.4665
  295SOL     OW  883   1.889   1.990   0.080  0.2831 -0.2404 -0.0045
  295SOL    HW1  884   1.786   1.996   0.098 -1.5566  2.8093  0.9970
  295SOL    HW2  885   1.934   2.000   0.171 -0.5710 -0.0582 -1.3255
  296SOL     OW  886   1.287   0.617   1.732  0.6682 -0.3691 -0.1430
  296SOL    HW1  887   1.383   0.617   1.763 -2.5098  0.5624 -1.6788
  296SOL    HW2  888   1.273   0.697   1.667  1.3717  0.2671 -0.7431
  297SOL     OW  889   2.958   0.855   2.103  0.2607 -0.5841  0.5842
  297SOL    HW1  890   2.874   0.879   2.050  0.9124 -0.9261  0.0932
  297SOL    HW2  891   3.009   0.939   2.130 -0.1111  1.7890 -2.5013
  298SOL     OW  892   0.893   1.754   1.721  0.2594 -0.1624 -0.0042
  298SOL    HW1  893   0.952   1.842   1.737  1.0396  1.8623 -0.8734
  298SOL    HW2  894   0.859   1.745   1.626  1.9370  0.1181  0.1467
  299SOL     OW  895   1.052   0.103   2.488 -0.4724  0.0788  0.0683
  299SOL    HW1  896   1.151   0.124   2.471  1.7795  1.0634 -0.6444
  299SOL    HW2  897   1.022   0.023   2.435 -0.1581  0.5351  0.4161
  300SOL     OW  898   3.015   1.060   2.913 -0.1358  0.1553  0.4197
  300SOL    HW1  899   2.922   1.032   2.888 -0.2591 -0.5296  0.2361
  300SOL    HW2  900   3.032   1.051   3.011  0.4526  3.5949 -0.7357
  301SOL     OW  901   1.855   0.807   2.399 -0.3014  0.5676  0.7512
  301SOL    HW1  902   1.913   0.810   2.315 -0.7621  0.0992  0.3754
  301SOL    HW2  903   1.832   0.898   2.424  1.8972 -2.8296 -0.3566
  302SOL     OW  904   2.446   1.777   2.736 -0.3935  0.0017  0.1203
  302SOL    HW1  905   2.396   1.860   2.751  0.5514 -1.5974 -0.6784
  302SOL    HW2  906   2.526   1.791   2.677 -0.8835 -2.7192 -0.8330
  303SOL     OW  907   0.397   2.443   2.909  0.3411 -0.5866  0.6279
  303SOL    HW1  908   0.428   2.518   2.969  1.9253  1.5189 -0.2491
  303SOL    HW2  909   0.401   2.356   2.959 -1.9753 -1.3345 -2.3599
  304SOL     OW  910   0.149   1.673   1.319  0.7137 -0.2645  0.4608
  304SOL    HW1  911   0.099   1.765   1.324 -2.6161 -1.7738 -1.9226
  304SOL    HW2  912   0.182   1.646   1.408 -0.8184  1.3818  0.3906
  305SOL     OW  913   2.400   0.654   1.842  0.1450  0.0777  0.1446
  305SOL    HW1  914   2.327   0.614   1.898 -2.4019 -1.1979 -0.4087
  305SOL    HW2  915   2.492   0.613   1.851 -0.2395 -1.7827 -0.6533
  306SOL     OW  916   1.950   1.395   1.473  0.4409  0.0720  0.1625
  306SOL    HW1  917   1.946   1.299   1.455 -1.1513 -0.7114 -1.9066
  306SOL    HW2  918   2.030   1.438   1.427 -2.4391  2.0904  1.6533
  307SOL     OW  919   2.944   0.256   0.949 -0.2512  0.1868 -0.3798
  307SOL    HW1  920   2.933   0.246   0.850  1.8065  1.7654  0.9981
  307SOL    HW2  921   2.939   0.354   0.979  0.6695  0.5938 -0.3009
  308SOL     OW  922   3.022   1.829   1.603  0.6438  0.5864  0.5625
  308SOL    HW1  923   0.004   1.879   1.637  0.9318 -0.2310 -1.2835
  308SOL    HW2  924   2.996   1.756   1.666  2.2914 -2.8725 -1.0013
  309SOL     OW  925   2.429   2.408   1.867  0.5927 -0.3145  0.5654
  309SOL    HW1  926   2.432   2.511   1.857 -0.1540  0.4585 -0.3968
  309SOL    HW2  927   2.336   2.377   1.882 -0.3866 -0.9279  2.4530
  310SOL     OW  928   2.208   1.328   2.580  0.4845  0.2146 -0.7178
  310SOL    HW1  929   2.224   1.397   2.652 -1.2366 -0.4907 -0.4431
  310SOL    HW2  930   2.104   1.318   2.556 -0.8590 -0.6943 -0.6305
  311SOL     OW  931   1.678   1.379   2.864 -0.3348 -0.0817  0.5156
  311SOL    HW1  932   1.582   1.375   2.837  2.6857 -0.3883  1.1727
  311SOL    HW2  933   1.714   1.278   2.866  2.2273  0.7366 -1.3745
  312SOL     OW  934   1.041   2.240   2.335  0.4509 -0.8689 -0.2074
  312SOL    HW1  935   1.077   2.167   2.275  1.2815 -3.0175 -0.7146
  312SOL    HW2  936   1.108   2.271   2.410  2.9989  0.5097  1.8628
  313SOL     OW  937   0.138   0.233   0.943 -0.4212  0.0869 -0.4534
  313SOL    HW1  938   0.044   0.221   0.912  1.9214 -1.8781  1.2238
  313SOL    HW2  939   0.143   0.291   1.032 -2.0968  0.1009  1.8036
  314SOL     OW  940   0.559   1.928   1.135 -0.1940  0.6302  0.8065
  314SOL    HW1  941   0.539   2.000   1.206 -1.4420 -0.8261 -2.3130
  314SOL    HW2  942   0.501   1.844   1.156 -0.5995  1.5655  2.1587
  315SOL     OW  943   0.385   2.146   2.103  0.2382 -0.7009 -0.2467
  315SOL    HW1  944   0.319   2.220   2.079  0.1354 -0.4154  0.7485
  315SOL    HW2  945   0.347   2.090   2.180  0.0472  0.4648  0.2722
  316SOL     OW  946   0.292   2.558   0.992  0.0504 -0.0429  0.2353
  316SOL    HW1  947   0.221   2.487   0.984 -1.6722  0.9175  0.3659
  316SOL    HW2  948   0.258   2.641   0.941  0.1349  1.1838 -0.3133
  317SOL     OW  949   2.566   3.070   1.521 -0.2265  0.3481 -0.2678
  317SOL    HW1  950   2.581   0.063   1.487  2.3541 -0.6891  1.1020
  317SOL    HW2  951   2.593   2.999   1.459 -1.1164  2.2445 -0.4097
  318SOL     OW  952   2.294   2.319   0.267  0.0954  0.0336  0.3883
  318SOL    HW1  953   2.394   2.344   0.251 -0.8132  0.0984  0.9035
  318SOL    HW2  954   2.245   2.394   0.313  1.4042 -0.4230  0.9692
  319SOL     OW  955   1.361   1.244   2.646  0.4809 -0.4138  0.4145
  319SOL    HW1  956   1.357   1.296   2.735  1.2943  2.0739 -2.5422
  319SOL    HW2  957   1.404   1.152   2.660 -0.3286  1.7512 -1.5816
  320SOL     OW  958   0.399   2.496   2.265  0.2308  0.3086 -0.5394
  320SOL    HW1  959   0.303   2.528   2.252 -0.1891  0.9542  1.8992
  320SOL    HW2  960   0.456   2.502   2.182 -3.1106  1.8136 -1.1703
  321SOL     OW  961   0.857   2.268   0.126  0.2769 -0.0750 -0.0137
  321SOL    HW1  962   0.949   2.311   0.119 -1.9523  2.7483  1.5011
  321SOL    HW2  963   0.784   2.337   0.110  3.3622  0.7329  1.3818
  322SOL     OW  964   2.511   0.325   2.304  0.1235 -0.2317 -0.5938
  322SOL    HW1  965   2.455   0.241   2.296  1.6867 -1.3113  2.8863
  322SOL    HW2  966   2.579   0.312   2.381  1.9348  1.8005  1.2933
  323SOL     OW  967   2.889   1.317   0.802 -0.5958  0.1334  0.0297
  323SOL    HW1  968   2.906   1.370   0.888  2.0204  1.8824  0.7645
  323SOL    HW2  969   2.875   1.217   0.822 -1.6226  0.4164 -0.2258
  324SOL     OW  970   0.135   0.655   1.691 -0.2027  0.6363 -0.4868
  324SOL    HW1  971   0.172   0.636   1.781  0.4128 -0.4069 -1.1208
  324SOL    HW2  972   0.044   0.612   1.675  0.6464  0.7457  0.2058
  325SOL     OW  973   0.233   0.113   1.890 -0.1558 -0.0959 -0.3559
  325SOL    HW1  974   0.187   0.072   1.809  2.0944 -0.7830  0.6610
  325SOL    HW2  975   0.233   0.212   1.887 -1.1983  1.2418 -2.8834
  326SOL     OW  976   2.089   2.640   0.097 -0.3952  0.4750  0.5901
  326SOL    HW1  977   2.121   2.686   0.184 -0.3015 -1.4616  1.1483
  326SOL    HW2  978   2.004   2.584   0.119  2.8435 -2.1405  0.4783
  327SOL     OW  979   2.144   1.497   0.463 -0.5683  0.5327  0.5230
  327SOL    HW1  980   2.119   1.585   0.512 -0.4363  1.4152  3.5901
  327SOL    HW2  981   2.095   1.480   0.377 -0.8810 -1.2847  0.8303
  328SOL     OW  982   3.068   2.071   2.496 -0.0577 -0.3103  0.0895
  328SOL    HW1  983   3.080   1.992   2.561  1.0086  0.4606  0.6801
  328SOL    HW2  984   0.015   2.159   2.519 -2.4682  4.4320  0.6641
  329SOL     OW  985   0.384   2.378   1.645 -0.2397  0.1870 -0.2963
  329SOL    HW1  986   0.388   2.370   1.544 -1.5594  1.3455  0.6824
  329SOL    HW2  987   0.414   2.288   1.685 -0.1163  1.9899  0.1044
  330SOL     OW  988   2.558   1.083   2.532 -0.2464 -0.7395 -0.2517
  330SOL    HW1  989   2.571   0.996   2.585 -1.6874 -1.6648  2.6316
  330SOL    HW2  990   2.458   1.095   2.512  3.5359  2.4999 -0.6245
  331SOL     OW  991   2.569   2.389   1.226  0.1984  0.1141  0.0946
  331SOL    HW1  992   2.642   2.318   1.224  2.1853  1.1854  1.0571
  331SOL    HW2  993   2.513   2.387   1.310 -1.1661 -1.3742  0.7159
  332SOL     OW  994   0.539   3.048   0.851 -0.4694  0.0043  0.0191
  332SOL    HW1  995   0.460   3.097   0.893 -1.5373  0.1679  0.6967
  332SOL    HW2  996   0.559   2.954   0.891 -2.3881  0.7084 -4.3569
  333SOL     OW  997   2.376   2.266   2.661  0.2976 -0.3593  0.3249
  333SOL    HW1  998   2.313   2.341   2.637  1.1175 -1.5212 -0.7770
  333SOL    HW2  999   2.425   2.237   2.575 -0.8587  0.8985 -0.6469
  334SOL     OW 1000   0.610   1.230   0.662  0.2942  0.0945 -0.2933
  334SOL    HW1 1001   0.539   1.192   0.731 -2.4434 -1.8216  0.5844
  334SOL    HW2 1002   0.630   1.329   0.673 -2.4003  3.4946 -2.6321
  335SOL     OW 1003   2.852   2.102   2.312  0.0734 -0.0060 -0.2276
  335SOL    HW1 1004   2.930   2.090   2.378  0.1880  0.5800  1.1214
  335SOL    HW2 1005   2.767   2.054   2.342  3.9506 -0.6928 -0.0413
  336SOL     OW 1006   2.434   2.942   2.256  0.1193  0.2082 -0.8774
  336SOL    HW1 1007   2.510   2.885   2.296 -0.3241  0.1585  1.4854
  336SOL    HW2 1008   2.343   2.896   2.252  0.7814 -0.4763 -0.1590
  337SOL     OW 1009   0.810   0.879   0.917  0.1259  0.2899 -0.3388
  337SOL    HW1 1010   0.817   0.776   0.923 -0.4310 -0.5104 -0.7116
  337SOL    HW2 1011   0.756   0.913   0.830 -0.9163 -0.4257  1.0433
  338SOL     OW 1012   1.156   1.922   1.179  0.1308  0.1038  0.0850
  338SOL    HW1 1013   1.078   1.876   1.224  0.6998 -2.3437 -1.4395
  338SOL    HW2 1014   1.159   2.023   1.194 -0.0967 -1.0158  2.6985
  339SOL     OW 1015   0.008   1.894   1.339 -0.0974  0.5435  0.2069
  339SOL    HW1 1016   0.041   1.992   1.355 -0.3451  1.1008 -0.6285
  339SOL    HW2 1017   3.060   1.859   1.421 -1.5517 -0.0074  0.4285
  340SOL     OW 1018   1.465   2.676   1.687  0.2269  0.3366 -0.2457
  340SOL    HW1 1019   1.543   2.613   1.669  1.4263 -0.7721 -0.5976
  340SOL    HW2 1020   1.406   2.642   1.764  2.1564 -1.7287  0.1783
  341SOL     OW 1021   1.563   1.572   1.042  0.0544  0.0562  0.4563
  341SOL    HW1 1022   1.475   1.616   1.029  2.1534  2.7256  0.8274
  341SOL    HW2 1023   1.635   1.645   1.047  0.4265  2.4041  1.0984
  342SOL     OW 1024   2.623   1.459   1.037 -0.0200 -0.5873  0.4193
  342SOL    HW1 1025   2.583   1.551   1.039  2.5086 -2.7153 -0.8827
  342SOL    HW2 1026   2.620   1.416   0.944  1.7505 -3.4911  1.3286
  343SOL     OW 1027   2.357   0.515   1.157  0.0286  0.0796 -0.2483
  343SOL    HW1 1028   2.456   0.514   1.173 -2.8260 -2.1171 -2.0719
  343SOL    HW2 1029   2.328   0.599   1.102 -1.8429  1.3057 -2.5053
  344SOL     OW 1030   2.020   0.266   0.663 -0.0782  0.4721  0.9337
  344SOL    HW1 1031   2.087   0.228   0.733 -0.5620 -0.9018 -1.0463
  344SOL    HW2 1032   1.950   0.196   0.643  0.2348  1.6007  0.2415
  345SOL     OW 1033   0.893   2.870   1.890  0.1709 -0.0979  0.2542
  345SOL    HW1 1034   0.950   2.800   1.937  3.2638  2.2603  1.9798
  345SOL    HW2 1035   0.879   2.835   1.793  4.0554 -1.1513 -1.3452
  346SOL     OW 1036   2.917   2.171   0.817 -0.1462 -0.1172 -0.5569
  346SOL    HW1 1037   2.928   2.076   0.848  0.9991  0.5235 -2.3686
  346SOL    HW2 1038   2.820   2.201   0.813 -0.0352  2.9376  3.2315
  347SOL     OW 1039   2.288   2.959   1.186  0.6061 -0.4222  0.9620
  347SOL    HW1 1040   2.293   2.879   1.245  0.2202  3.1606  0.6634
  347SOL    HW2 1041   2.212   2.938   1.123  2.5203 -2.5207  1.7846
  348SOL     OW 1042   0.941   1.067   1.278 -0.0724  0.0084 -0.8159
  348SOL    HW1 1043   0.868   1.070   1.208 -0.2813 -1.3706  0.6301
  348SOL    HW2 1044   0.993   0.984   1.271  0.7912 -1.4475 -0.1417
  349SOL     OW 1045   2.161   0.544   2.015  0.3801 -0.3343  0.1078
  349SOL    HW1 1046   2.066   0.506   2.008  0.0083  1.5879 -1.3937
  349SOL    HW2 1047   2.229   0.469   2.044 -1.0177 -2.8587  1.2128
  350SOL     OW 1048   2.205   2.562   0.427  0.0853 -0.1626  0.4595
  350SOL    HW1 1049   2.304   2.547   0.432 -1.7780  0.5142  0.0029
  350SOL    HW2 1050   2.187   2.658   0.392  1.9423  2.3570  1.9722
  351SOL     OW 1051   1.261   0.419   2.673 -0.7024  0.4081  0.2071
  351SOL    HW1 1052   1.295   0.326   2.637  2.2782 -4.0241 -1.7157
  351SOL    HW2 1053   1.231   0.409   2.772 -0.2950  0.6624  0.8000
  352SOL     OW 1054   2.104   2.599   2.245 -0.2423  0.0381  0.0365
  352SOL    HW1 1055   2.031   2.634   2.312  0.8185  2.4590  0.1062
  352SOL    HW2 1056   2.066   2.575   2.156  3.1747  1.8030 -0.4665
  353SOL     OW 1057   0.455   0.995   2.518 -0.1485  0.0017  0.1636
  353SOL    HW1 1058   0.406   1.022   2.434  1.8559  0.9252  1.6502
  353SOL    HW2 1059   0.481   0.895   2.524  1.8398 -2.2329 -1.7410
  354SOL     OW 1060   0.468   2.831   2.692  0.1154 -0.0247 -0.1300
  354SOL    HW1 1061   0.453   2.755   2.623 -0.2091  0.1472 -1.6961
  354SOL    HW2 1062   0.460   2.794   2.786  1.8308 -1.4027 -2.1753
  355SOL     OW 1063   2.155   2.809   1.404  0.3778 -0.2597  0.5972
  355SOL    HW1 1064   2.143   2.791   1.500  0.8233 -1.3513 -2.9992
  355SOL    HW2 1065   2.079   2.867   1.370 -2.3928  0.4089  0.8237
  356SOL     OW 1066   2.428   0.511   0.400 -0.3823 -0.3093  0.2176
  356SOL    HW1 1067   2.434   0.600   0.450 -1.1684 -1.0144 -2.4670
  356SOL    HW2 1068   2.349   0.452   0.424  1.4537 -0.5040  0.6834
  357SOL     OW 1069   0.071   3.095   1.717  0.2192  0.2055  0.0352
  357SOL    HW1 1070   0.030   0.084   1.689 -0.1451  1.7169 -0.2928
  357SOL    HW2 1071   3.098   3.042   1.766 -2.9134 -0.1578  2.0869
  358SOL     OW 1072   3.019   1.522   1.302 -0.1294 -0.1722  0.3440
  358SOL    HW1 1073   3.091   1.595   1.295  2.0101  2.1408  0.9308
  358SOL    HW2 1074   2.981   1.509   1.397  0.6787  3.4083  1.7647
  359SOL     OW 1075   2.572   2.983   2.841 -0.7262 -0.0516  0.1431
  359SOL    HW1 1076   2.546   3.029   2.753 -1.5832  0.2471 -0.4511
  359SOL    HW2 1077   2.669   2.995   2.868  1.6352 -2.3333  3.1660
  360SOL     OW 1078   1.302   0.550   1.353 -0.9118 -0.2760  0.1893
  360SOL    HW1 1079   1.224   0.546   1.417  2.0994 -1.0144 -0.4878
  360SOL    HW2 1080   1.381   0.584   1.407 -0.2653 -0.1388  2.3545
  361SOL     OW 1081   2.688   2.658   1.472  0.6225  0.0673  0.3038
  361SOL    HW1 1082   2.714   2.645   1.566 -0.5775  0.0896 -1.8105
  361SOL    HW2 1083   2.643   2.571   1.445 -1.7200 -1.3090  0.0645
  362SOL     OW 1084   1.498   0.289   0.724  0.3571 -0.2980 -0.0634
  362SOL    HW1 1085   1.552   0.318   0.641  2.8362  0.7836  2.5328
  362SOL    HW2 1086   1.551   0.300   0.807 -0.7188  1.0862 -2.5709
  363SOL     OW 1087   1.811   1.449   0.951 -0.4546 -1.2776 -0.0741
  363SOL    HW1 1088   1.837   1.493   0.859 -0.1491 -0.4759 -1.7356
  363SOL    HW2 1089   1.710   1.461   0.961  1.4053 -2.4756  0.5937
  364SOL     OW 1090   0.473   0.769   1.776  0.4638  0.1939  0.5381
  364SOL    HW1 1091   0.455   0.732   1.869 -0.9952  2.5864 -2.4717
  364SOL    HW2 1092   0.423   0.716   1.704  0.1451  2.4811 -2.1535
  365SOL     OW 1093   2.902   0.533   0.999 -0.0142  0.5411 -0.1690
  365SOL    HW1 1094   3.000   0.551   0.982  0.2083 -1.1209 -1.1555
  365SOL    HW2 1095   2.876   0.575   1.088  0.0506 -2.9009 -0.0705
  366SOL     OW 1096   2.794   0.918   0.339 -0.1219  0.5766  0.4970
  366SOL    HW1 1097   2.734   0.878   0.266  1.6300 -0.4126 -1.4037
  366SOL    HW2 1098   2.841   1.002   0.308  1.0638 -1.6877  2.3179
  367SOL     OW 1099   2.262   2.015   2.357  0.5730  0.5849  0.5263
  367SOL    HW1 1100   2.172   2.042   2.399 -1.2145 -1.0036 -1.4335
  367SOL    HW2 1101   2.338   2.080   2.375  0.3597  1.0874 -0.4175
  368SOL     OW 1102   2.515   2.107   0.978 -0.4681  0.0064  0.6131
  368SOL    HW1 1103   2.467   2.122   1.066 -0.9140 -1.2374 -2.2446
  368SOL    HW2 1104   2.460   2.066   0.905  2.0955  0.4269  1.4209
  369SOL     OW 1105   2.216   0.022   2.871  0.3788  0.4588 -0.6519
  369SOL    HW1 1106   2.173   3.036   2.896  0.0339  0.6837  1.6297
  369SOL    HW2 1107   2.299   0.037   2.921 -2.4911 -1.8990 -2.9922
  370SOL     OW 1108   0.874   0.405   1.100  0.5494  0.3385 -0.0930
  370SOL    HW1 1109   0.795   0.345   1.087 -1.4388 -0.7174 -3.7141
  370SOL    HW2 1110   0.878   0.450   1.194 -1.2974  0.9556  0.3539
  371SOL     OW 1111   0.412   1.583   0.231 -0.0128 -0.2515 -0.3408
  371SOL    HW1 1112   0.433   1.574   0.132  0.0203  0.2415 -0.1299
  371SOL    HW2 1113   0.491   1.624   0.282  0.4053 -0.1702 -1.3659
  372SOL     OW 1114   0.545   0.694   2.562 -0.1347 -0.1524  0.4340
  372SOL    HW1 1115   0.563   0.615   2.505  0.5325  0.5729 -0.0668
  372SOL    HW2 1116   0.612   0.695   2.637 -0.3660  0.8803  0.1845
  373SOL     OW 1117   1.058   2.865   2.814 -0.0216 -0.3540  0.1938
  373SOL    HW1 1118   0.976   2.828   2.859  1.0119  4.8244 -1.9532
  373SOL    HW2 1119   1.050   2.967   2.798 -1.0259  1.1273 -2.3134
  374SOL     OW 1120   0.986   1.740   0.501  0.0587  0.0456 -0.3707
  374SOL    HW1 1121   1.067   1.717   0.567  4.0315 -1.0617  1.1353
  374SOL    HW2 1122   0.980   1.672   0.425 -0.9484  0.6004 -0.9814
  375SOL     OW 1123   0.505   0.648   2.023  0.1233 -0.2349  0.3891
  375SOL    HW1 1124   0.513   0.716   2.099  3.4366  0.5047  2.8262
  375SOL    HW2 1125   0.599   0.621   1.989 -1.0133  3.6087  1.0443
  376SOL     OW 1126   0.100   2.432   1.705  0.3923  0.6228  0.2852
  376SOL    HW1 1127   0.196   2.423   1.676  0.7227  0.0269  0.0722
  376SOL    HW2 1128   0.097   2.462   1.801  0.1067  0.0647 -0.9811
  377SOL     OW 1129   2.793   1.584   2.715 -0.1195  0.4236  0.0051
  377SOL    HW1 1130   2.709   1.556   2.664 -0.4944  0.5969 -3.7234
  377SOL    HW2 1131   2.864   1.509   2.702 -1.0216 -0.6086  0.3500
  378SOL     OW 1132   2.071   2.884   2.959  0.6846 -0.0135  0.2196
  378SOL    HW1 1133   2.088   2.809   3.020 -0.0316 -0.1221 -1.1302
  378SOL    HW2 1134   1.977   2.917   2.984  1.2992 -2.0216 -0.7133
  379SOL     OW 1135   1.891   0.492   0.582 -0.2391  0.2201  0.3400
  379SOL    HW1 1136   1.927   0.396   0.600  1.1206 -1.9114 -3.1535
  379SOL    HW2 1137   1.823   0.519   0.655 -1.0353 -1.6262  2.9967
  380SOL     OW 1138   2.600   2.037   1.681 -0.0829 -1.0065  0.0842
  380SOL    HW1 1139   2.576   1.966   1.748  0.5407  1.0873  1.0789
  380SOL    HW2 1140   2.701   2.026   1.663  1.3097 -2.6013 -0.0005
  381SOL     OW 1141   2.206   1.412   2.272 -0.5454 -0.0430  0.2703
  381SOL    HW1 1142   2.271   1.469   2.220  0.1865 -0.8669  2.4547
  381SOL    HW2 1143   2.204   1.452   2.367  1.7422  2.4207  1.0726
  382SOL     OW 1144   2.945   2.746   2.682 -0.1594  0.0092  0.1132
  382SOL    HW1 1145   2.914   2.712   2.772  2.2520  1.8700 -1.5155
  382SOL    HW2 1146   2.873   2.800   2.630 -0.7986  2.6478 -1.8230
  383SOL     OW 1147   1.110   1.408   3.054  0.1366  0.7426 -0.0335
  383SOL    HW1 1148   1.012   1.410   3.022  0.5053 -0.5299  2.9620
  383SOL    HW2 1149   1.156   1.497   3.043  1.7757 -3.6991  2.3738
  384SOL     OW 1150   1.436   1.991   1.633  0.0156  0.6608  0.3543
  384SOL    HW1 1151   1.433   2.076   1.690 -0.7642 -0.4441 -3.5080
  384SOL    HW2 1152   1.439   1.909   1.695  0.1945 -0.3248  1.1274
  385SOL     OW 1153   1.698   2.787   0.684 -0.0172  0.0978 -0.2669
  385SOL    HW1 1154   1.620   2.847   0.661  0.7802 -2.5192 -1.8309
  385SOL    HW2 1155   1.781   2.847   0.688  0.8459 -0.9329 -1.3276
  386SOL     OW 1156   1.907   1.547   0.711  0.2311  0.5759 -0.2392
  386SOL    HW1 1157   1.985   1.613   0.684  1.4782  0.4872  0.0373
  386SOL    HW2 1158   1.921   1.449   0.691 -1.8149  0.7924 -1.4443
  387SOL     OW 1159   2.765   2.212   1.251 -0.3218  0.2717 -0.2895
  387SOL    HW1 1160   2.797   2.267   1.331 -1.2928  1.7424 -0.4820
  387SOL    HW2 1161   2.704   2.142   1.286  0.5674  2.6475  0.8399
  388SOL     OW 1162   2.958   1.139   1.663  0.0731  0.2680 -0.1991
  388SOL    HW1 1163   3.026   1.210   1.697  0.2985  0.1218 -0.0992
  388SOL    HW2 1164   3.010   1.051   1.640 -0.9040 -0.7068  1.1968
  389SOL     OW 1165   2.070   0.484   0.158 -0.3362  0.5600 -0.3863
  389SOL    HW1 1166   2.171   0.478   0.137 -2.1225  1.0595 -2.7517
  389SOL    HW2 1167   2.062   0.550   0.231  1.7428 -3.7578  2.3276
  390SOL     OW 1168   1.068   1.733   2.862  0.0046  0.0347  0.0594
  390SOL    HW1 1169   1.095   1.811   2.802  1.8242  0.7019 -0.5032
  390SOL    HW2 1170   1.042   1.655   2.806  0.1708  1.6355  1.2327
  391SOL     OW 1171   1.328   2.216   2.940  0.1448 -0.0351  0.1853
  391SOL    HW1 1172   1.358   2.242   3.031 -0.0533 -0.2864 -2.8406
  391SOL    HW2 1173   1.274   2.130   2.949  2.0483 -0.9841 -0.4233
  392SOL     OW 1174   0.090   2.540   1.944 -0.0708  0.3361 -0.2933
  392SOL    HW1 1175   0.134   2.626   1.972  3.3565  1.3325  0.1368
  392SOL    HW2 1176   3.090   2.547   1.945 -0.3174  0.2895 -1.7978
  393SOL     OW 1177   1.252   2.166   0.186  0.5368  0.0451  0.4703
  393SOL    HW1 1178   1.224   2.216   0.267  2.9448 -1.5200 -1.7836
  393SOL    HW2 1179   1.334   2.212   0.143  2.0579  0.1060 -0.2555
  394SOL     OW 1180   0.546   0.458   2.369 -0.5266 -0.3840 -0.6319
  394SOL    HW1 1181   0.592   0.425   2.283  0.3579  0.1204 -0.4480
  394SOL    HW2 1182   0.557   0.384   2.437  0.7354  2.8997  0.4252
  395SOL     OW 1183   0.488   1.148   1.057 -0.5694 -0.3672  0.1972
  395SOL    HW1 1184   0.502   1.252   1.055  0.4295  1.9457 -0.5617
  395SOL    HW2 1185   0.464   1.117   0.966  1.0089  2.2085  2.4559
  396SOL     OW 1186   1.956   1.122   2.303  0.1153 -0.4276 -0.8579
  396SOL    HW1 1187   1.880   1.148   2.238  0.8045 -0.4115  1.0212
  396SOL    HW2 1188   1.963   1.181   2.388  0.1082  1.6109  1.6575
  397SOL     OW 1189   0.722   0.543   0.135 -0.6201  0.1622  0.2151
  397SOL    HW1 1190   0.640   0.497   0.089  0.2087 -0.2352  1.8544
  397SOL    HW2 1191   0.701   0.564   0.231  1.7123  0.0031 -1.6353
  398SOL     OW 1192   1.069   2.383   2.957 -0.2148  0.0314 -0.2082
  398SOL    HW1 1193   1.156   2.343   2.921  1.4855  0.3969 -0.1058
  398SOL    HW2 1194   1.081   2.412   3.053  1.6707  0.2952  0.0580
  399SOL     OW 1195   1.401   1.998   2.307  0.0565 -0.0412 -0.6649
  399SOL    HW1 1196   1.380   1.907   2.338  1.0956  2.1688 -1.4990
  399SOL    HW2 1197   1.452   1.999   2.220  1.0368  1.6427  0.0610
  400SOL     OW 1198   2.151   1.655   1.351  0.0810  0.4209 -0.3494
  400SOL    HW1 1199   2.074   1.625   1.292  1.0142  0.2478  0.3287
  400SOL    HW2 1200   2.209   1.575   1.374 -1.3376  1.3442 -1.0262
  401SOL     OW 1201   1.219   1.360   0.999  0.3754 -0.1469 -0.3363
  401SOL    HW1 1202   1.141   1.420   1.017  2.7350  0.8943 -0.6351
  401SOL    HW2 1203   1.256   1.359   0.902 -0.5975 -2.0297  1.7035
  402SOL     OW 1204   0.152   2.653   2.247  0.0783 -0.0973  0.2069
  402SOL    HW1 1205   0.174   2.716   2.173 -0.0258 -0.0740  0.2721
  402SOL    HW2 1206   0.144   2.708   2.333 -1.2438  0.8319 -3.3579
  403SOL     OW 1207   2.865   2.028   1.598  0.0752 -0.0329  0.0136
  403SOL    HW1 1208   2.938   2.098   1.607  0.8101 -0.9218 -0.1062
  403SOL    HW2 1209   2.904   1.930   1.590  0.0813 -2.2628 -0.6379
  404SOL     OW 1210   2.138   2.072   1.122 -0.4295 -0.1271  0.6247
  404SOL    HW1 1211   2.235   2.079   1.157  1.0098  0.9269  1.4390
  404SOL    HW2 1212   2.083   2.048   1.206  0.7165 -1.6285  3.9984
  405SOL     OW 1213   2.574   0.210   2.795 -0.0881 -0.0718 -0.2293
  405SOL    HW1 1214   2.669   0.197   2.825  1.8132  0.3499  1.0717
  405SOL    HW2 1215   2.543   0.140   2.724  2.4825 -1.5775 -0.6567
  406SOL     OW 1216   0.836   1.666   2.494 -0.1737 -0.2023 -0.1468
  406SOL    HW1 1217   0.735   1.677   2.483 -1.2130  0.8857  0.6333
  406SOL    HW2 1218   0.882   1.759   2.492  0.0276  0.2136 -0.0259
  407SOL     OW 1219   1.954   2.441   0.314 -0.7078  0.3564 -0.3430
  407SOL    HW1 1220   2.011   2.507   0.365  3.8031 -2.4808 -0.6081
  407SOL    HW2 1221   1.866   2.417   0.358  1.3744 -0.4103  0.6614
  408SOL     OW 1222   0.298   0.016   0.956 -0.1208 -0.2799  0.0288
  408SOL    HW1 1223   0.241   0.101   0.947  0.3033  1.3661  0.1810
  408SOL    HW2 1224   0.236   3.039   0.978  1.2357 -1.0987 -0.4857
  409SOL     OW 1225   2.293   2.043   0.776 -0.2857 -0.1783  0.0591
  409SOL    HW1 1226   2.244   1.973   0.830 -0.0502  1.5821  0.0603
  409SOL    HW2 1227   2.256   2.135   0.805  0.2565  1.0503  3.0590
  410SOL     OW 1228   2.351   2.080   3.044  0.5870 -0.8871 -0.1174
  410SOL    HW1 1229   2.435   2.025   3.037 -1.0627  0.9546 -4.9174
  410SOL    HW2 1230   2.372   2.179   3.033  0.3911  2.1415  1.3716
  411SOL     OW 1231   0.181   0.253   0.535 -0.7478  0.6870  0.2690
  411SOL    HW1 1232   0.238   0.191   0.473  0.7768 -0.1438  0.4481
  411SOL    HW2 1233   0.231   0.251   0.623 -3.3883 -2.4048  3.7878
  412SOL     OW 1234   1.522   2.449   0.413 -0.0677 -0.2323  0.3160
  412SOL    HW1 1235   1.494   2.505   0.331  1.3463  0.8492  0.1879
  412SOL    HW2 1236   1.521   2.518   0.492  1.4247  3.9464  0.3646
  413SOL     OW 1237   1.880   0.489   2.103  0.0813  0.0198 -0.5454
  413SOL    HW1 1238   1.822   0.450   2.035  1.7011  2.4636  1.7331
  413SOL    HW2 1239   1.883   0.437   2.190 -1.5007  1.0883 -2.4530
  414SOL     OW 1240   0.014   0.455   0.607  0.1114  0.1868  0.0438
  414SOL    HW1 1241   0.072   0.531   0.646  2.3434 -1.8686 -0.8681
  414SOL    HW2 1242   0.064   0.371   0.576  0.8296  1.1611 -0.0338
  415SOL     OW 1243   0.368   1.715   1.173  0.5258 -1.0021  0.0793
  415SOL    HW1 1244   0.324   1.741   1.084 -2.1562 -0.4021 -3.4192
  415SOL    HW2 1245   0.298   1.700   1.245 -0.3897  0.5441  1.3700
  416SOL     OW 1246   0.108   2.956   0.145  0.8113  0.5544  0.6479
  416SOL    HW1 1247   0.176   3.021   0.116 -1.1847 -1.1277  0.3514
  416SOL    HW2 1248   0.081   2.974   0.242  2.4494 -0.9198 -1.3370
  417SOL     OW 1249   2.536   3.010   1.091  0.5273 -0.1154  0.2611
  417SOL    HW1 1250   2.444   3.002   1.134  1.6403 -1.9458 -1.7587
  417SOL    HW2 1251   2.559   0.003   1.067 -0.2603  1.3461 -1.5527
  418SOL     OW 1252   0.645   0.285   2.614 -0.4648 -0.0384  0.4810
  418SOL    HW1 1253   0.738   0.329   2.612  1.3937  0.4018 -0.5864
  418SOL    HW2 1254   0.600   0.300   2.706 -0.8213  0.8259  1.8105
  419SOL     OW 1255   0.441   1.077   0.803 -0.5209 -0.3233  0.0457
  419SOL    HW1 1256   0.478   1.002   0.743  2.9417  3.0888 -0.3547
  419SOL    HW2 1257   0.342   1.088   0.788  2.9842  0.3706 -0.1842
  420SOL     OW 1258   1.893   1.913   0.892  0.0180 -0.3397 -0.4792
  420SOL    HW1 1259   1.881   1.898   0.793 -1.0664  2.6663  2.3756
  420SOL    HW2 1260   1.986   1.884   0.925 -0.6905 -1.1574  1.2480
  421SOL     OW 1261   1.768   1.921   2.397  0.4330  0.4643 -0.3782
  421SOL    HW1 1262   1.742   1.857   2.319 -0.0969  0.3653 -0.4294
  421SOL    HW2 1263   1.695   1.993   2.416 -0.6007  0.5692 -0.7688
  422SOL     OW 1264   2.913   0.445   3.049  0.4242  0.1228  0.6006
  422SOL    HW1 1265   2.946   0.520   2.982  1.5600 -0.0479 -0.6465
  422SOL    HW2 1266   2.855   0.488   0.027  1.2000  2.3607  2.5610
  423SOL     OW 1267   1.454   1.763   0.864  0.1001 -0.2381 -0.2773
  423SOL    HW1 1268   1.527   1.839   0.871  0.6980  1.8480  0.6941
  423SOL    HW2 1269   1.492   1.680   0.824 -1.0410  0.3345 -0.1267
  424SOL     OW 1270   0.342   1.673   1.517 -0.6610 -0.6227  0.1994
  424SOL    HW1 1271   0.299   1.658   1.611 -1.1206  1.4118  0.9281
  424SOL    HW2 1272   0.369   1.771   1.512  1.6346  0.0447  0.9015
  425SOL     OW 1273   2.684   2.771   1.961  0.1773  0.9169 -0.2767
  425SOL    HW1 1274   2.721   2.732   1.875 -1.1590  1.7008 -2.2356
  425SOL    HW2 1275   2.734   2.737   2.043  0.7034 -1.2981  0.9743
  426SOL     OW 1276   1.970   2.861   0.586  0.4978  0.6424  0.3106
  426SOL    HW1 1277   2.007   2.808   0.664 -1.6629 -2.3035  0.0425
  426SOL    HW2 1278   2.044   2.917   0.540 -2.8851  0.1073 -2.5204
  427SOL     OW 1279   0.642   0.821   2.961 -0.0648 -0.0102  0.1714
  427SOL    HW1 1280   0.696   0.896   3.006 -0.2261  1.8728  0.3739
  427SOL    HW2 1281   0.541   0.832   2.988 -0.1077  0.9633 -1.3814
  428SOL     OW 1282   2.059   1.224   0.127 -0.1665  0.0535  0.1527
  428SOL    HW1 1283   1.968   1.177   0.105 -1.2656  1.3634 -0.9868
  428SOL    HW2 1284   2.086   1.267   0.033  1.0608 -2.6045  0.0478
  429SOL     OW 1285   3.008   0.152   0.228  0.1658 -0.1998  0.7420
  429SOL    HW1 1286   3.069   0.105   0.297  1.4315 -1.4295  2.1800
  429SOL    HW2 1287   3.059   0.219   0.166  0.6877  0.9228 -2.2761
  430SOL     OW 1288   0.804   3.080   2.085  0.4450 -0.1068  0.1400
  430SOL    HW1 1289   0.766   0.048   2.028  0.3097 -0.6563  1.1963
  430SOL    HW2 1290   0.850   3.008   2.027  0.1609  2.3734 -2.2623
  431SOL     OW 1291   2.980   1.516   1.568  0.0538 -0.5481 -0.2458
  431SOL    HW1 1292   2.944   1.579   1.643 -1.0328 -1.2765  0.2101
  431SOL    HW2 1293   3.035   1.440   1.610 -0.8212 -0.1349  1.6851
  432SOL     OW 1294   2.145   2.723   1.756 -0.0849  0.5307 -0.2022
  432SOL    HW1 1295   2.240   2.762   1.745  0.7838  0.8400  1.5909
  432SOL    HW2 1296   2.135   2.686   1.849 -2.1301 -0.6388 -1.9278
  433SOL     OW 1297   1.035   1.727   0.114 -0.1287 -0.2627 -0.0097
  433SOL    HW1 1298   0.983   1.676   0.182  0.9918  3.7219 -3.4244
  433SOL    HW2 1299   1.001   1.712   0.016  3.9916 -0.6106  0.6425
  434SOL     OW 1300   0.117   2.310   2.532  0.1742 -0.4343 -0.2629
  434SOL    HW1 1301   0.200   2.271   2.481 -0.0442 -3.0134 -1.0606
  434SOL    HW2 1302   0.153   2.365   2.611  1.1390  0.3897  0.5164
  435SOL     OW 1303   0.296   0.702   0.552  0.7675 -0.3908  0.0660
  435SOL    HW1 1304   0.347   0.632   0.498  1.8471  1.3089 -0.2198
  435SOL    HW2 1305   0.366   0.776   0.568  2.2006  0.4764 -0.0071
  436SOL     OW 1306   0.366   2.763   1.817 -0.3066 -0.8644  0.0114
  436SOL    HW1 1307   0.423   2.678   1.818  0.1550  1.8515  1.1776
  436SOL    HW2 1308   0.313   2.762   1.730  1.0808  0.7972 -2.0001
  437SOL     OW 1309   0.995   2.104   1.451 -0.1267  0.0788  0.8645
  437SOL    HW1 1310   1.018   2.165   1.530  0.9408  0.2795 -2.6956
  437SOL    HW2 1311   1.040   2.138   1.365 -2.1792 -2.2921  1.5465
  438SOL     OW 1312   0.093   2.088   0.545 -0.2766 -0.1712  0.5758
  438SOL    HW1 1313   3.101   2.115   0.520 -1.0488 -2.4376  3.2636
  438SOL    HW2 1314   0.135   2.176   0.583  1.9780 -0.4755  2.3993
  439SOL     OW 1315   0.191   0.365   1.157 -0.8113  0.5914 -0.5171
  439SOL    HW1 1316   0.137   0.393   1.237  2.5706  2.4526 -0.5978
  439SOL    HW2 1317   0.284   0.402   1.164 -1.2460  0.4140 -0.2506
  440SOL     OW 1318   2.815   2.708   2.202 -0.3092  0.5993  0.0189
  440SOL    HW1 1319   2.862   2.797   2.185  0.4779 -2.2222  0.4413
  440SOL    HW2 1320   2.874   2.629   2.230 -0.7769  0.9183 -0.3300
  441SOL     OW 1321   2.863   0.627   1.856  0.1924 -0.6646  0.5005
  441SOL    HW1 1322   2.770   0.590   1.848  0.0701  2.2562 -0.5409
  441SOL    HW2 1323   2.857   0.712   1.920  1.3744  3.0063  2.6902
  442SOL     OW 1324   1.688   2.311   3.013  0.7692  0.7742 -0.0187
  442SOL    HW1 1325   1.782   2.332   3.053 -0.1966 -0.7090  3.3266
  442SOL    HW2 1326   1.613   2.325   3.083 -0.2626  0.8955 -0.1532
  443SOL     OW 1327   0.509   0.793   0.265  0.2529  0.5388  0.1712
  443SOL    HW1 1328   0.443   0.738   0.212 -0.2456  1.1577  0.2862
  443SOL    HW2 1329   0.592   0.742   0.292  1.8799  1.2801 -0.9717
  444SOL     OW 1330   1.260   1.584   2.031 -0.3183  0.3097 -0.1816
  444SOL    HW1 1331   1.309   1.571   1.942 -0.2191 -0.9187 -2.2623
  444SOL    HW2 1332   1.174   1.531   2.036 -2.6984  2.0552  0.0982
  445SOL     OW 1333   0.119   2.935   1.035 -0.7201  0.1146  0.1230
  445SOL    HW1 1334   0.106   2.853   0.976  1.3884 -0.0011 -1.3242
  445SOL    HW2 1335   0.024   2.972   1.060  1.0187 -0.9006 -1.6517
  446SOL     OW 1336   2.205   1.112   1.374  0.6309 -0.0788 -0.0526
  446SOL    HW1 1337   2.107   1.144   1.364 -1.6451  0.9392  1.6406
  446SOL    HW2 1338   2.274   1.179   1.331 -0.7186  0.6480 -0.2216
  447SOL     OW 1339   0.251   0.672   0.091 -0.3202 -0.5484  0.0147
  447SOL    HW1 1340   0.196   0.651   0.177 -0.1692 -1.3939  3.3935
  447SOL    HW2 1341   0.296   0.588   0.061 -2.0616  1.8088  1.8507
  448SOL     OW 1342   1.388   2.212   1.774  0.0887 -0.8602 -0.2355
  448SOL    HW1 1343   1.484   2.246   1.761  1.6756  1.8274 -0.2819
  448SOL    HW2 1344   1.352   2.257   1.857  2.6377  0.8457  0.8439
  449SOL     OW 1345   1.306   1.420   0.513 -0.2323 -0.7445  0.2531
  449SOL    HW1 1346   1.350   1.379   0.599  0.4403 -0.7154 -2.9638
  449SOL    HW2 1347   1.374   1.462   0.447  0.5940 -0.3012  0.5226
  450SOL     OW 1348   2.503   1.862   1.898  0.0008  0.4821 -0.2145
  450SOL    HW1 1349   2.511   1.915   1.985  2.6987  0.8209 -1.0320
  450SOL    HW2 1350   2.514   1.763   1.915  0.4549  1.3944  1.5560
  451SOL     OW 1351   2.974   1.402   2.703 -0.0958  0.4944 -0.5623
  451SOL    HW1 1352   3.071   1.422   2.737 -0.4702  1.0058  0.7994
  451SOL    HW2 1353   2.957   1.303   2.684  1.4213 -0.9032  0.5904
  452SOL     OW 1354   1.604   1.059   1.099 -0.6138 -0.2412 -0.3061
  452SOL    HW1 1355   1.525   1.113   1.132 -0.1535 -0.6952  3.6734
  452SOL    HW2 1356   1.691   1.088   1.146  3.3536  1.6604 -0.0441
  453SOL     OW 1357   1.982   0.922   1.014  0.1196  0.2028  0.0096
  453SOL    HW1 1358   2.035   0.890   1.092 -0.3602  2.4947  0.7245
  453SOL    HW2 1359   1.975   1.023   1.014  0.6849 -1.2780 -0.0769
  454SOL     OW 1360   2.944   0.776   0.499  0.0594 -0.0576 -0.3277
  454SOL    HW1 1361   2.888   0.690   0.516 -0.4665 -0.2982  2.2606
  454SOL    HW2 1362   2.887   0.834   0.428 -1.6946 -2.2394 -1.3371
  455SOL     OW 1363   2.750   2.543   1.051 -0.1372 -0.2458  0.4488
  455SOL    HW1 1364   2.708   2.625   1.006  0.3966 -0.2444  1.5428
  455SOL    HW2 1365   2.678   2.498   1.110 -0.1435  1.1294 -1.7512
  456SOL     OW 1366   0.722   3.051   1.126 -0.1705  0.0193 -0.1919
  456SOL    HW1 1367   0.694   2.985   1.052 -1.4549  2.5702  0.0792
  456SOL    HW2 1368   0.726   3.011   1.219 -1.0199  0.1039  0.8147
  457SOL     OW 1369   1.954   0.024   1.259 -0.0325 -0.7436 -0.0287
  457SOL    HW1 1370   1.876   3.064   1.269  0.9782  0.7073  0.3622
  457SOL    HW2 1371   1.989   0.027   1.165 -0.6902 -1.4821  1.2099
  458SOL     OW 1372   2.639   0.290   0.738 -0.1519  0.0978 -0.5134
  458SOL    HW1 1373   2.626   0.241   0.829  0.6712 -1.3556  4.0288
  458SOL    HW2 1374   2.641   0.392   0.760  0.4800  0.2508  0.2598
  459SOL     OW 1375   1.827   0.739   3.007  0.2886  0.3517  0.5969
  459SOL    HW1 1376   1.925   0.753   2.993 -2.6133 -1.1997 -0.6033
  459SOL    HW2 1377   1.804   0.642   2.999 -1.8645  0.9319 -1.2448
  460SOL     OW 1378   3.004   2.374   2.941 -0.2602  0.0635  0.3416
  460SOL    HW1 1379   2.965   2.430   3.017 -2.0488  2.1259 -4.5072
  460SOL    HW2 1380   3.069   2.312   2.986 -0.3159  3.8608  2.0748
  461SOL     OW 1381   0.579   1.660   0.480  0.4111  0.0317  0.0477
  461SOL    HW1 1382   0.629   1.749   0.506  1.9346 -1.4238 -0.2033
  461SOL    HW2 1383   0.636   1.584   0.446  2.7071  0.1828  1.0044
  462SOL     OW 1384   2.559   2.528   0.678 -0.1578  0.3757  0.0529
  462SOL    HW1 1385   2.657   2.542   0.672 -1.9901  0.5131 -0.2819
  462SOL    HW2 1386   2.522   2.543   0.583 -1.2565 -0.9188 -0.2384
  463SOL     OW 1387   2.856   0.534   0.577 -0.0803  0.0131 -0.0150
  463SOL    HW1 1388   2.814   0.544   0.673 -0.3646  0.5466 -0.3602
  463SOL    HW2 1389   2.955   0.498   0.590 -2.5542  0.6416  0.4442
  464SOL     OW 1390   1.149   2.667   0.355  0.3131 -0.2994 -0.1402
  464SOL    HW1 1391   1.051   2.669   0.331  1.0848 -2.5794  0.1899
  464SOL    HW2 1392   1.177   2.594   0.417 -0.0353  0.6747  0.0670
  465SOL     OW 1393   2.392   0.751   0.503  0.1026  0.3752  0.5829
  465SOL    HW1 1394   2.333   0.705   0.570  4.0434 -0.7041 -3.1361
  465SOL    HW2 1395   2.350   0.833   0.455  0.3346 -1.1876 -0.1118
  466SOL     OW 1396   2.517   2.825   0.085  0.1548  0.3559 -0.2912
  466SOL    HW1 1397   2.473   2.904   0.039 -0.2470  0.5374 -0.5710
  466SOL    HW2 1398   2.488   2.741   0.036  1.8533  0.5473 -0.3012
  467SOL     OW 1399   1.049   0.718   1.779 -0.0271 -0.4768  0.1983
  467SOL    HW1 1400   1.082   0.800   1.822 -0.7897 -1.4308  0.0191
  467SOL    HW2 1401   1.123   0.652   1.747 -0.8563 -0.7416  0.8025
  468SOL     OW 1402   0.296   0.557   2.343 -0.3861 -0.4572  0.0246
  468SOL    HW1 1403   0.388   0.512   2.341 -0.4618 -2.2958 -1.9287
  468SOL    HW2 1404   0.297   0.657   2.317  0.8698 -1.1339  0.0600
  469SOL     OW 1405   0.673   2.967   2.744 -0.3020  0.0911  0.6897
  469SOL    HW1 1406   0.579   2.925   2.735 -1.6405  2.2792 -2.8306
  469SOL    HW2 1407   0.723   2.960   2.651  1.7261  0.2288 -2.5828
  470SOL     OW 1408   1.597   1.475   2.321  0.0090  0.0696  0.0051
  470SOL    HW1 1409   1.571   1.553   2.269 -1.0052  2.0911  1.0921
  470SOL    HW2 1410   1.674   1.427   2.278 -0.1748  1.2184  2.2340
  471SOL     OW 1411   2.864   1.182   2.611  0.3877 -0.4200 -0.3547
  471SOL    HW1 1412   2.780   1.230   2.580 -1.5953  1.0144  1.0908
  471SOL    HW2 1413   2.842   1.121   2.692 -0.2840  1.8006 -0.7123
  472SOL     OW 1414   0.432   2.462   0.241  0.0566 -0.2652  0.5274
  472SOL    HW1 1415   0.363   2.538   0.256 -1.0272  0.9727 -1.6231
  472SOL    HW2 1416   0.442   2.400   0.324  2.3460 -3.0717  1.3474
  473SOL     OW 1417   0.682   0.085   2.901  0.0249 -0.4550  0.6218
  473SOL    HW1 1418   0.662   0.018   2.826 -0.9658 -1.2985 -0.5522
  473SOL    HW2 1419   0.644   0.052   2.989  0.0992 -1.5319  0.2766
  474SOL     OW 1420   1.638   0.298   2.028 -0.0328  1.0462 -0.3484
  474SOL    HW1 1421   1.649   0.236   2.115 -2.1647 -1.7621  1.2918
  474SOL    HW2 1422   1.549   0.348   2.035 -2.5269  5.1781  0.7517
  475SOL     OW 1423   0.895   2.720   0.285  0.7838  0.4627 -0.5050
  475SOL    HW1 1424   0.823   2.761   0.345  0.4599 -0.2988  0.9879
  475SOL    HW2 1425   0.916   2.794   0.219 -2.1574  1.3122  1.2579
  476SOL     OW 1426   0.184   1.037   1.095 -0.6701 -0.1133  0.0485
  476SOL    HW1 1427   0.262   1.104   1.104  0.3156 -2.1719 -0.9275
  476SOL    HW2 1428   0.191   0.991   1.007 -1.5467 -2.6374  2.1389
  477SOL     OW 1429   1.583   2.049   1.180  0.0347  0.0727  0.0860
  477SOL    HW1 1430   1.661   2.085   1.236 -0.3304  1.5966 -1.6613
  477SOL    HW2 1431   1.525   1.988   1.241  3.1216  0.2462 -2.2698
  478SOL     OW 1432   0.743   1.343   2.109 -0.5005  0.1898 -0.4125
  478SOL    HW1 1433   0.774   1.255   2.057 -1.1399 -3.8129 -1.1344
  478SOL    HW2 1434   0.704   1.327   2.200  1.6797 -2.4717 -1.4996
  479SOL     OW 1435   0.659   0.231   1.135  0.2806 -0.2446  0.1161
  479SOL    HW1 1436   0.681   0.233   1.235 -3.4574  0.3330  0.5596
  479SOL    HW2 1437   0.701   0.150   1.093  1.0407 -0.3820 -0.5800
  480SOL     OW 1438   2.562   2.387   0.232 -0.1788  0.6480 -0.0490
  480SOL    HW1 1439   2.595   2.314   0.288  0.2676  1.9226 -0.3742
  480SOL    HW2 1440   2.584   2.380   0.132  0.8111  1.5129 -1.2121
  481SOL     OW 1441   2.728   0.175   1.201  0.7363  0.3141 -0.0466
  481SOL    HW1 1442   2.804   0.225   1.152  2.5736  1.0560 -2.2989
  481SOL    HW2 1443   2.766   0.086   1.239 -0.2523 -1.5945  2.3577
  482SOL     OW 1444   1.545   2.442   2.052 -0.0931  0.5025 -0.3364
  482SOL    HW1 1445   1.572   2.501   2.134  0.6034  4.3030  3.1561
  482SOL    HW2 1446   1.562   2.499   1.969 -0.7857  1.4630  1.0309
  483SOL     OW 1447   0.565   1.389   2.645  0.7184 -0.2330 -0.6423
  483SOL    HW1 1448   0.567   1.292   2.666  0.8314  1.5703 -0.4117
  483SOL    HW2 1449   0.496   1.410   2.571 -0.5309 -0.1733 -0.6059
  484SOL     OW 1450   0.986   1.714   2.052 -0.1595 -0.4057 -0.1523
  484SOL    HW1 1451   1.023   1.621   2.066  3.4897  3.1597 -0.4306
  484SOL    HW2 1452   0.886   1.712   2.054 -2.1728  0.2973  0.8023
  485SOL     OW 1453   2.808   0.229   2.954 -0.0582 -0.4527  0.2308
  485SOL    HW1 1454   2.846   0.314   2.998 -0.8624  0.2481  3.6297
  485SOL    HW2 1455   2.824   0.152   3.017 -0.2341  0.4625  2.3589
  486SOL     OW 1456   1.516   2.964   0.622  0.1135 -0.2227 -0.5106
  486SOL    HW1 1457   1.542   3.057   0.583 -0.7244  0.7215 -0.7680
  486SOL    HW2 1458   1.415   2.950   0.627  2.1150 -1.3647  0.8900
  487SOL     OW 1459   1.155   2.506   0.832  0.2362  0.2992  0.1548
  487SOL    HW1 1460   1.184   2.417   0.876 -0.2697 -0.1937 -1.6308
  487SOL    HW2 1461   1.056   2.523   0.824  1.6862 -0.7788 -2.2579
  488SOL     OW 1462   2.295   0.947   0.364 -0.1488 -0.0805 -0.0903
  488SOL    HW1 1463   2.310   1.041   0.324 -1.6218  1.6387 -1.0229
  488SOL    HW2 1464   2.274   0.890   0.286  3.4189  1.4942  0.3701
  489SOL     OW 1465   1.168   2.813   1.372 -0.0558 -0.2655 -0.6591
  489SOL    HW1 1466   1.250   2.747   1.392  0.8324 -2.0992  2.1312
  489SOL    HW2 1467   1.177   2.890   1.440 -1.4653 -0.6019  1.4395
  490SOL     OW 1468   0.880   0.899   0.277 -0.1501  0.3421  0.0291
  490SOL    HW1 1469   0.967   0.883   0.334 -2.0746 -0.4857  1.7857
  490SOL    HW2 1470   0.886   0.869   0.180 -1.0609 -2.3857  2.2526
  491SOL     OW 1471   1.334   2.856   0.334 -0.1115 -0.1573  0.4002
  491SOL    HW1 1472   1.362   2.857   0.434  2.2934 -0.1296 -0.1690
  491SOL    HW2 1473   1.275   2.776   0.305 -2.7198  2.5401 -0.8468
  492SOL     OW 1474   1.238   1.208   2.257  0.1256  0.3063 -0.3113
  492SOL    HW1 1475   1.205   1.190   2.158  1.1204  0.2604 -0.4307
  492SOL    HW2 1476   1.170   1.174   2.326  0.0858  1.1586 -1.1614
  493SOL     OW 1477   0.189   2.154   0.227  0.5226  0.5701 -0.3024
  493SOL    HW1 1478   0.146   2.069   0.256  1.7707  1.7666 -1.8808
  493SOL    HW2 1479   0.280   2.132   0.190 -1.8351 -0.3392 -0.0190
  494SOL     OW 1480   2.034   1.476   0.228  0.0361 -0.2193 -0.1241
  494SOL    HW1 1481   2.078   1.540   0.160 -1.5108  0.1667 -1.3407
  494SOL    HW2 1482   2.044   1.377   0.203 -0.2583 -0.6639  1.4028
  495SOL     OW 1483   0.101   0.856   2.855  0.3978 -0.2754 -0.0103
  495SOL    HW1 1484   0.081   0.834   2.755 -0.9091 -2.0551 -3.5913
  495SOL    HW2 1485   0.046   0.938   2.883  2.1548 -1.3546  0.1602
  496SOL     OW 1486   2.921   2.941   2.141 -0.0035  0.5114  0.0165
  496SOL    HW1 1487   3.021   2.961   2.121  0.1089 -1.5970  1.1575
  496SOL    HW2 1488   2.860   3.027   2.143  0.3337  3.3446  0.4570
  497SOL     OW 1489   2.591   0.941   0.806 -0.1701  0.4129  0.1658
  497SOL    HW1 1490   2.570   0.846   0.830  0.6236 -1.6139 -1.8651
  497SOL    HW2 1491   2.586   0.953   0.706  0.3720  0.9158  0.6079
  498SOL     OW 1492   0.406   2.266   0.013 -0.9066  0.7478  0.7235
  498SOL    HW1 1493   0.422   2.170   0.050 -0.8035 -0.9129 -1.4372
  498SOL    HW2 1494   0.388   2.325   0.092 -0.3836 -2.9361  0.6160
  499SOL     OW 1495   0.718   2.296   0.751  0.4084  0.0329 -0.3349
  499SOL    HW1 1496   0.742   2.340   0.837 -0.2559 -0.3575 -0.7221
  499SOL    HW2 1497   0.800   2.279   0.696  1.3949 -1.1026  0.0162
  500SOL     OW 1498   0.911   0.374   2.522 -0.4662  0.6032 -0.1582
  500SOL    HW1 1499   0.955   0.297   2.575 -2.5122 -1.2567  2.4030
  500SOL    HW2 1500   0.892   0.334   2.435  0.7126 -0.1128  2.6170
  501SOL     OW 1501   1.100   0.056   1.298  0.1998 -0.6281  0.0368
  501SOL    HW1 1502   1.119   0.005   1.386  0.5792 -1.6753 -0.2958
  501SOL    HW2 1503   1.118   0.155   1.322  0.1108 -1.7881  0.1126
  502SOL     OW 1504   0.041   0.429   2.122 -0.0850 -0.2180 -0.2021
  502SOL    HW1 1505   0.113   0.356   2.129  1.6427  0.7640 -1.1208
  502SOL    HW2 1506   0.070   0.521   2.154  0.0942 -1.2193  1.5960
  503SOL     OW 1507   2.028   2.098   2.416  0.5186  0.7544 -0.1376
  503SOL    HW1 1508   1.957   2.170   2.398 -0.5457  0.4881 -0.7163
  503SOL    HW2 1509   1.981   2.021   2.464  0.8180 -1.0666 -1.2599
  504SOL     OW 1510   1.803   0.499   1.815  0.1112  0.0857  0.0235
  504SOL    HW1 1511   1.786   0.600   1.826  2.7153 -0.2616 -1.8833
  504SOL    HW2 1512   1.899   0.490   1.784 -2.2393  0.6771 -0.3967
  505SOL     OW 1513   2.690   1.035   1.688 -0.4548  0.0244 -0.2245
  505SOL    HW1 1514   2.781   1.078   1.670  0.9653 -1.9960 -3.0760
  505SOL    HW2 1515   2.676   0.951   1.638  0.2373  1.3753  0.8818
  506SOL     OW 1516   0.417   1.422   2.441  0.1489 -0.0125 -0.2892
  506SOL    HW1 1517   0.330   1.373   2.440  2.8191  3.2321 -2.5447
  506SOL    HW2 1518   0.400   1.517   2.409  3.4749  0.4776  1.9166
  507SOL     OW 1519   0.261   3.038   2.327 -0.3205 -0.1785 -0.7398
  507SOL    HW1 1520   0.354   3.051   2.281 -0.4686 -1.0076  0.6980
  507SOL    HW2 1521   0.239   2.940   2.338 -0.7403 -0.3367 -0.5254
  508SOL     OW 1522   1.324   0.874   1.595 -0.6419  0.0990  0.0453
  508SOL    HW1 1523   1.296   0.952   1.533 -1.0948  0.8877 -0.1570
  508SOL    HW2 1524   1.416   0.881   1.626 -3.6564 -2.1533 -2.9100
  509SOL     OW 1525   0.922   1.871   1.320  0.3520 -0.1174 -0.0334
  509SOL    HW1 1526   0.969   1.939   1.376 -0.6192 -1.4760 -1.9356
  509SOL    HW2 1527   0.834   1.845   1.367  0.5904  0.4693  1.0125
  510SOL     OW 1528   2.636   0.813   2.581 -0.2945  0.0365  0.1840
  510SOL    HW1 1529   2.673   0.790   2.673 -0.5944 -1.3582 -0.7271
  510SOL    HW2 1530   2.537   0.778   2.571  1.6716 -0.6847  0.6698
  511SOL     OW 1531   0.495   1.525   1.310 -0.1602  0.1869  0.3435
  511SOL    HW1 1532   0.454   1.590   1.241  1.6699 -1.3262 -0.1868
  511SOL    HW2 1533   0.474   1.567   1.402 -0.1194 -1.1719  2.0373
  512SOL     OW 1534   2.949   2.431   0.848  0.2863 -0.5297 -0.2060
  512SOL    HW1 1535   2.932   2.331   0.841 -0.5781 -1.8848  1.8666
  512SOL    HW2 1536   2.874   2.474   0.900  1.0510  0.7290 -1.2114
  513SOL     OW 1537   0.480   1.382   2.916 -0.0077 -0.4539  0.4232
  513SOL    HW1 1538   0.485   1.290   2.948 -0.8426  0.2090 -3.3899
  513SOL    HW2 1539   0.525   1.381   2.827  1.4303  0.0194  3.0174
  514SOL     OW 1540   0.126   2.584   3.013 -0.0127  0.2597 -0.2393
  514SOL    HW1 1541   0.094   2.650   2.943  1.4455 -0.4153  0.8927
  514SOL    HW2 1542   0.083   2.494   2.998  0.5216 -1.3438  3.2184
  515SOL     OW 1543   1.684   1.077   2.224  0.2073  0.5341  0.5180
  515SOL    HW1 1544   1.611   1.146   2.210  0.9877  1.2691  0.2526
  515SOL    HW2 1545   1.691   1.049   2.316 -3.7421 -0.8923 -2.6729
  516SOL     OW 1546   2.271   2.095   0.493  0.3739  0.0710 -0.2492
  516SOL    HW1 1547   2.319   2.054   0.575  1.0376  1.1170 -0.1790
  516SOL    HW2 1548   2.244   2.023   0.424 -3.2800  1.3971 -0.4560
  517SOL     OW 1549   1.573   0.916   0.502  0.1644 -0.5183  0.0897
  517SOL    HW1 1550   1.486   0.942   0.549  1.2318  1.6193  1.1235
  517SOL    HW2 1551   1.647   0.918   0.569  1.5068  0.6232 -1.0064
  518SOL     OW 1552   2.392   2.558   2.314  0.2776  0.0774  0.3500
  518SOL    HW1 1553   2.307   2.588   2.267 -0.9969 -3.0538  1.6042
  518SOL    HW2 1554   2.371   2.520   2.410  2.2099 -2.1887  0.7475
  519SOL     OW 1555   1.789   2.176   1.324 -0.2310  1.1230 -0.2846
  519SOL    HW1 1556   1.844   2.243   1.272  0.2790 -0.9262  1.1469
  519SOL    HW2 1557   1.746   2.223   1.402  1.3722  0.5338  0.1004
  520SOL     OW 1558   2.621   2.400   2.760  0.3376  0.1960  0.4219
  520SOL    HW1 1559   2.631   2.471   2.684  1.6669  0.6068  0.3644
  520SOL    HW2 1560   2.531   2.352   2.756 -0.9648  0.0900  0.4286
  521SOL     OW 1561   0.253   1.352   1.989  0.2466  0.0911  0.4218
  521SOL    HW1 1562   0.321   1.399   1.934 -0.9894  0.7503 -0.2128
  521SOL    HW2 1563   0.175   1.412   2.015  1.8092 -1.1522 -2.7049
  522SOL     OW 1564   1.095   0.455   1.983 -0.1945  0.4558  0.4787
  522SOL    HW1 1565   1.020   0.521   1.988  1.5722 -1.4031 -0.6444
  522SOL    HW2 1566   1.072   0.371   1.931  2.2071 -0.5006  1.2021
  523SOL     OW 1567   0.437   2.344   1.110 -0.0054 -0.0265  0.0653
  523SOL    HW1 1568   0.477   2.263   1.062  0.0098  1.4590 -1.5893
  523SOL    HW2 1569   0.388   2.395   1.036  1.5319  0.7138  2.3310
  524SOL     OW 1570   1.494   2.584   0.640  0.1332 -0.0303  0.3010
  524SOL    HW1 1571   1.569   2.653   0.656  1.1917 -0.6805  0.3412
  524SOL    HW2 1572   1.483   2.522   0.723  0.5517  0.6139  1.1080
  525SOL     OW 1573   2.353   0.865   1.390 -0.4435  0.2140  0.2768
  525SOL    HW1 1574   2.289   0.949   1.387 -0.0519 -2.1785 -1.9483
  525SOL    HW2 1575   2.442   0.889   1.347 -1.4599  0.5790 -0.8970
  526SOL     OW 1576   0.914   2.716   0.776  0.2079  0.0059 -0.6147
  526SOL    HW1 1577   0.862   2.682   0.694 -0.4822 -1.3624  0.5694
  526SOL    HW2 1578   0.999   2.767   0.756 -1.7704 -0.5955  1.8972
  527SOL     OW 1579   2.873   2.079   0.493  0.1171  0.0438 -0.1595
  527SOL    HW1 1580   2.887   2.085   0.596  0.9659 -1.3012 -0.2875
  527SOL    HW2 1581   2.848   1.982   0.464 -1.8019 -0.7897 -2.2585
  528SOL     OW 1582   1.971   0.110   0.350  0.2761 -0.0440  0.7139
  528SOL    HW1 1583   1.983   0.064   0.263  1.1480  1.1736  4.0141
  528SOL    HW2 1584   1.993   0.066   0.438  1.5659  0.7844 -0.6682
  529SOL     OW 1585   1.474   1.702   2.169  0.1938 -0.5281  0.7412
  529SOL    HW1 1586   1.434   1.711   2.262  1.2250 -0.4897 -2.1717
  529SOL    HW2 1587   1.394   1.683   2.104 -0.3167 -2.5144  0.5294
  530SOL     OW 1588   2.517   0.391   2.978 -0.1336  0.0519 -0.1111
  530SOL    HW1 1589   2.548   0.325   2.905 -0.7662  1.1292  0.0010
  530SOL    HW2 1590   2.529   0.492   2.957 -0.3441  0.4296 -0.5480
  531SOL     OW 1591   1.405   1.118   3.055 -0.4781  0.1718  0.2021
  531SOL    HW1 1592   1.358   1.142   0.037  2.5086  0.5568 -0.2613
  531SOL    HW2 1593   1.367   1.034   3.006 -1.1522  1.1740 -0.2316
  532SOL     OW 1594   1.684   0.346   0.917 -0.2628 -0.2375 -0.5491
  532SOL    HW1 1595   1.672   0.369   1.017  1.4851  1.8783  0.5585
  532SOL    HW2 1596   1.703   0.425   0.859  0.4412 -1.1201 -1.9709
  533SOL     OW 1597   0.959   1.030   2.092 -0.2381 -0.8371 -0.6690
  533SOL    HW1 1598   0.991   1.057   2.186  0.2711 -0.7187  2.3126
  533SOL    HW2 1599   1.032   1.007   2.027 -2.5873 -0.8147  0.0411
  534SOL     OW 1600   1.814   0.323   2.694  0.7487  0.1261  0.5477
  534SOL    HW1 1601   1.880   0.384   2.649 -0.0351  2.4824 -1.2567
  534SOL    HW2 1602   1.772   0.372   2.773  0.9331  2.2973  1.4551
  535SOL     OW 1603   0.393   0.480   0.387 -0.0396 -0.2379  0.3463
  535SOL    HW1 1604   0.317   0.455   0.324 -0.5661  0.0439  0.3619
  535SOL    HW2 1605   0.437   0.395   0.432 -0.9180 -1.7453  4.4547
  536SOL     OW 1606   0.978   3.038   0.441  1.1168  0.1209  0.3722
  536SOL    HW1 1607   1.006   2.983   0.356  2.0317  1.8149  0.9205
  536SOL    HW2 1608   1.049   3.023   0.513 -0.7241 -0.5844 -0.3647
  537SOL     OW 1609   1.550   1.091   0.824  0.3799  0.2012  0.3240
  537SOL    HW1 1610   1.559   1.077   0.927  0.3471  0.9389  0.6609
  537SOL    HW2 1611   1.606   1.027   0.767  2.4037 -1.2155  0.0032
  538SOL     OW 1612   2.882   2.078   0.020  0.4024 -0.3441 -0.3213
  538SOL    HW1 1613   2.921   2.007   0.078 -2.0230  0.8596 -1.1700
  538SOL    HW2 1614   2.955   2.128   3.077 -1.2782 -1.6240 -2.1082
  539SOL     OW 1615   2.435   1.787   0.132  0.2156 -0.1309  0.8646
  539SOL    HW1 1616   2.479   1.802   0.040  1.6008  2.8022  0.2445
  539SOL    HW2 1617   2.449   1.869   0.189 -0.9347  0.4667 -2.7639
  540SOL     OW 1618   0.469   2.842   1.434  0.0226 -0.4378  0.3342
  540SOL    HW1 1619   0.413   2.848   1.349 -0.4778  3.3012  2.3975
  540SOL    HW2 1620   0.439   2.920   1.490  1.7263 -2.7288  0.4617
  541SOL     OW 1621   2.035   3.043   2.210  0.4079  0.8285  0.1785
  541SOL    HW1 1622   2.121   2.985   2.229  3.9286  0.3196 -0.6837
  541SOL    HW2 1623   1.949   3.023   2.269 -1.0562  2.2317  1.6143
  542SOL     OW 1624   2.749   0.310   2.445  0.1424  0.4210  0.2298
  542SOL    HW1 1625   2.780   0.319   2.542  0.6757 -0.4596 -0.2367
  542SOL    HW2 1626   2.825   0.335   2.384 -1.4995  0.3582 -1.1603
  543SOL     OW 1627   0.342   0.783   0.917 -0.2367 -0.0708 -0.0258
  543SOL    HW1 1628   0.393   0.697   0.922 -0.1312  0.3767  1.6533
  543SOL    HW2 1629   0.259   0.781   0.857  1.3370 -0.8390 -2.3450
  544SOL     OW 1630   2.842   3.040   1.294 -0.6827 -0.0750  0.2118
  544SOL    HW1 1631   2.889   3.058   1.206  0.1734  0.1444  0.1793
  544SOL    HW2 1632   2.846   2.941   1.313  0.2314 -0.6768 -0.6066
  545SOL     OW 1633   1.531   2.129   0.725 -0.2333 -0.0136 -0.6150
  545SOL    HW1 1634   1.560   2.092   0.633  1.0595 -2.1559  0.1743
  545SOL    HW2 1635   1.567   2.067   0.797 -2.1707  0.8629  0.2863
  546SOL     OW 1636   1.948   2.910   1.970  0.2657 -0.4554  0.0162
  546SOL    HW1 1637   1.953   2.965   1.886  0.0994 -0.0730  0.8434
  546SOL    HW2 1638   1.992   2.965   2.045 -2.2622 -1.4258 -0.4535
  547SOL     OW 1639   0.224   0.272   2.251 -0.0749 -0.2484 -0.5261
  547SOL    HW1 1640   0.296   0.229   2.196 -1.6105 -0.6089  0.3691
  547SOL    HW2 1641   0.244   0.371   2.268 -1.4394 -0.9673  1.4827
  548SOL     OW 1642   2.033   1.547   2.807  0.0391 -0.2607 -0.5099
  548SOL    HW1 1643   2.006   1.607   2.888  0.1165  0.0345  1.6071
  548SOL    HW2 1644   1.956   1.541   2.736  0.4516  1.0275  1.3542
  549SOL     OW 1645   3.052   0.929   0.689  0.5560  0.5656  0.1048
  549SOL    HW1 1646   3.006   0.867   0.619 -0.4894 -1.3805  0.6000
  549SOL    HW2 1647   2.980   0.957   0.758 -2.2359 -1.5320  0.7845
  550SOL     OW 1648   1.858   1.905   0.619  0.0058 -0.0192 -0.4624
  550SOL    HW1 1649   1.793   1.867   0.552 -1.9560  2.0519 -1.4212
  550SOL    HW2 1650   1.883   2.002   0.589  2.8195  0.6611 -2.5346
  551SOL     OW 1651   1.140   0.337   0.994 -0.3784  0.4725 -0.3125
  551SOL    HW1 1652   1.050   0.343   1.045 -1.3671  1.4228  0.2547
  551SOL    HW2 1653   1.130   0.257   0.932 -0.4705  1.3488 -2.0328
  552SOL     OW 1654   2.591   2.760   2.355 -0.2567  0.3917 -0.1547
  552SOL    HW1 1655   2.673   2.723   2.303 -0.6650  0.9608 -1.7961
  552SOL    HW2 1656   2.511   2.691   2.355 -3.7606 -1.1829  0.5283
  553SOL     OW 1657   2.953   3.089   2.686  0.7301  0.0992  0.0111
  553SOL    HW1 1658   2.963   0.085   2.658 -0.3235 -2.0052 -1.2831
  553SOL    HW2 1659   2.903   3.041   2.609 -0.6881  1.7171 -1.4491
  554SOL     OW 1660   0.921   2.738   1.293  1.0609  0.0021  0.0360
  554SOL    HW1 1661   0.859   2.816   1.322 -0.6054  2.6173  0.8517
  554SOL    HW2 1662   1.014   2.756   1.336  2.8232  1.2640  0.7620
  555SOL     OW 1663   2.461   2.664   1.826 -0.2335  0.4683  0.1512
  555SOL    HW1 1664   2.422   2.723   1.749  1.4541 -0.8986  0.9523
  555SOL    HW2 1665   2.525   2.719   1.885  1.6501  2.2721 -0.3847
  556SOL     OW 1666   1.063   0.024   2.752  0.8446 -0.5395 -0.7954
  556SOL    HW1 1667   1.149   0.049   2.793 -2.4943 -0.9665 -1.4974
  556SOL    HW2 1668   1.057   0.061   2.659 -0.1713 -1.4629  1.3977
  557SOL     OW 1669   0.086   1.960   2.229 -0.4248  0.2538 -0.3120
  557SOL    HW1 1670   3.102   1.975   2.280  1.1762  0.5978 -2.0829
  557SOL    HW2 1671   0.172   1.971   2.286  2.0393  1.2691  0.9465
  558SOL     OW 1672   2.312   1.122   2.446  0.4345 -0.2950 -0.3345
  558SOL    HW1 1673   2.297   1.131   2.350  0.4312 -2.3828  2.9294
  558SOL    HW2 1674   2.267   1.207   2.490 -2.3687 -2.4118 -1.6996
  559SOL     OW 1675   2.539   2.228   2.047  0.3504 -0.0063  0.2290
  559SOL    HW1 1676   2.557   2.290   2.126 -0.2150 -1.5962  1.3891
  559SOL    HW2 1677   2.459   2.260   1.990 -0.0335 -0.6332  0.4936
  560SOL     OW 1678   2.751   0.736   2.348  0.1170 -0.3127  0.2800
  560SOL    HW1 1679   2.696   0.772   2.425  0.1643 -0.6712  0.0436
  560SOL    HW2 1680   2.775   0.811   2.276  0.2985  2.3452 -0.9396
  561SOL     OW 1681   0.678   0.625   0.666  0.1258 -0.0309  0.0151
  561SOL    HW1 1682   0.771   0.588   0.635  2.5736 -1.3158  2.0046
  561SOL    HW2 1683   0.673   0.722   0.629 -0.3789  1.6142  0.0304
  562SOL     OW 1684   1.030   1.411   1.507  0.4913 -0.4592 -0.0634
  562SOL    HW1 1685   1.038   1.451   1.600  2.2831  0.2767 -2.4804
  562SOL    HW2 1686   0.959   1.335   1.500 -0.8976 -3.9675  0.6591
  563SOL     OW 1687   1.635   2.785   3.020 -0.2714  0.0418  0.3396
  563SOL    HW1 1688   1.595   2.759   0.006  2.0869 -0.1106 -0.8200
  563SOL    HW2 1689   1.565   2.775   2.948  0.5502 -2.0144 -3.4869
  564SOL     OW 1690   0.076   2.095   1.041 -0.1974 -0.0290  0.6646
  564SOL    HW1 1691   0.021   2.008   1.045 -1.8506 -0.6244  1.1394
  564SOL    HW2 1692   0.173   2.072   1.010  0.0873 -0.4069  1.1312
  565SOL     OW 1693   0.628   2.301   2.155 -0.3205  0.7086  0.0938
  565SOL    HW1 1694   0.533   2.255   2.147 -2.8145  0.3950 -1.6204
  565SOL    HW2 1695   0.624   2.392   2.108 -0.2179  1.0958 -0.5725
  566SOL     OW 1696   1.054   2.694   2.449 -0.4861 -0.1590 -0.1316
  566SOL    HW1 1697   1.098   2.694   2.541  2.3318  3.0883  2.4913
  566SOL    HW2 1698   1.105   2.739   2.372 -1.7501  0.3404 -0.6809
  567SOL     OW 1699   2.322   2.423   1.025  0.2121  0.1588  0.5036
  567SOL    HW1 1700   2.414   2.417   1.064 -0.6188 -0.8284  0.8086
  567SOL    HW2 1701   2.301   2.358   0.951 -1.8434  3.5184  1.5673
  568SOL     OW 1702   2.020   0.639   0.391 -0.2388 -0.0528  0.1458
  568SOL    HW1 1703   2.002   0.728   0.431  1.2144 -5.1518 -1.4273
  568SOL    HW2 1704   1.988   0.560   0.450 -0.4752 -2.3416 -0.1842
  569SOL     OW 1705   0.133   1.679   2.618  0.5477 -0.4978 -0.6495
  569SOL    HW1 1706   0.100   1.634   2.532 -2.2890 -0.1120 -0.0408
  569SOL    HW2 1707   0.164   1.605   2.681 -0.4735  1.0249 -0.4342
  570SOL     OW 1708   0.041   0.088   1.300 -0.0453  0.0486  0.6784
  570SOL    HW1 1709   3.065   0.138   1.339  1.0580  0.2865 -2.5451
  570SOL    HW2 1710   0.031   0.073   1.196  1.3325 -1.2332  0.0029
  571SOL     OW 1711   0.089   0.519   1.363 -0.3528  0.0759  0.2578
  571SOL    HW1 1712   0.145   0.600   1.336  1.2157 -1.6145 -0.3052
  571SOL    HW2 1713   3.100   0.545   1.399 -1.7423 -0.8649 -0.2513
  572SOL     OW 1714   3.056   2.708   0.902  0.1706  0.2441  0.8940
  572SOL    HW1 1715   3.034   2.652   0.988 -2.6813 -4.3478  2.5447
  572SOL    HW2 1716   3.084   2.647   0.825 -3.3718 -0.8555 -1.3914
  573SOL     OW 1717   0.886   0.764   0.041  0.6317  0.3451 -0.2191
  573SOL    HW1 1718   0.819   0.688   0.049  1.3146  1.8236 -0.8357
  573SOL    HW2 1719   0.839   0.852   0.008 -1.1956 -0.7681 -0.2394
  574SOL     OW 1720   2.902   2.607   3.084  0.4815 -0.7735  0.0956
  574SOL    HW1 1721   2.841   2.607   3.001  0.1996 -0.3658 -3.1087
  574SOL    HW2 1722   2.949   2.695   3.077 -0.7172 -0.2764 -0.0061
  575SOL     OW 1723   1.109   2.188   1.214  0.7732  0.1105 -0.5681
  575SOL    HW1 1724   1.055   2.211   1.130 -2.9221  1.5153 -0.7147
  575SOL    HW2 1725   1.211   2.207   1.205 -1.4786  0.4894  2.1498
  576SOL     OW 1726   0.419   0.027   1.191 -0.2395  0.2116  0.1567
  576SOL    HW1 1727   0.520   3.101   1.173 -0.5973  2.1967  0.2212
  576SOL    HW2 1728   0.368   0.034   1.105  1.3524 -2.1668 -2.3519
  577SOL     OW 1729   1.993   1.560   1.144 -0.2524 -0.3064 -0.9301
  577SOL    HW1 1730   1.915   1.518   1.091  0.0476  3.5049  2.6747
  577SOL    HW2 1731   2.077   1.571   1.089  1.6575 -0.6949  1.9574
  578SOL     OW 1732   1.641   0.332   0.503 -0.1725  0.5306  0.2037
  578SOL    HW1 1733   1.560   0.393   0.482 -1.1638  0.8787  1.7040
  578SOL    HW2 1734   1.727   0.377   0.465 -0.9739 -1.9416 -1.1393
  579SOL     OW 1735   2.682   1.321   2.445  0.5049  0.2963 -0.4468
  579SOL    HW1 1736   2.650   1.396   2.506  2.2446 -0.1062  2.2240
  579SOL    HW2 1737   2.630   1.235   2.467 -1.5835  1.4754 -0.3195
  580SOL     OW 1738   1.592   0.833   1.640 -0.5107  0.1619  0.1246
  580SOL    HW1 1739   1.660   0.795   1.710  1.9517 -1.3554 -0.0390
  580SOL    HW2 1740   1.556   0.763   1.576  2.8383 -1.4177 -1.7000
  581SOL     OW 1741   0.832   1.213   1.471  0.1082  0.4303  0.0492
  581SOL    HW1 1742   0.737   1.179   1.493  1.6385 -2.1219  0.5737
  581SOL    HW2 1743   0.880   1.150   1.404 -0.1131 -3.3121  0.4224
  582SOL     OW 1744   2.707   0.022   2.160  0.2678  0.4249 -0.1815
  582SOL    HW1 1745   2.641   3.077   2.099 -0.8405  1.6297  1.9788
  582SOL    HW2 1746   2.741   0.099   2.105  2.7888 -0.1901 -1.2183
  583SOL     OW 1747   2.053   0.464   1.735  0.5581 -0.4053  0.1127
  583SOL    HW1 1748   2.097   0.508   1.819 -1.2339  0.4229  3.4519
  583SOL    HW2 1749   2.074   0.367   1.732  1.7866  0.7449  2.2407
  584SOL     OW 1750   1.361   1.938   2.837 -0.4532  0.0776 -0.4693
  584SOL    HW1 1751   1.442   1.991   2.857 -1.2996 -2.2064 -0.6952
  584SOL    HW2 1752   1.387   1.844   2.814  0.8246  2.0821  0.1583
  585SOL     OW 1753   0.312   0.080   0.333  0.1665 -0.4886  0.2918
  585SOL    HW1 1754   0.330   3.084   0.354  2.1797  1.3360 -1.1535
  585SOL    HW2 1755   0.351   0.110   0.239  0.8924 -0.7663 -1.4390
  586SOL     OW 1756   1.576   2.142   2.467  0.0342  0.0202  0.4090
  586SOL    HW1 1757   1.549   2.141   2.563  0.6643  0.4515 -0.7388
  586SOL    HW2 1758   1.508   2.088   2.411 -0.2330 -0.6984 -1.3073
  587SOL     OW 1759   2.653   2.234   0.452  0.3122  0.0242 -0.0884
  587SOL    HW1 1760   2.665   2.325   0.496 -0.6315  1.0231  1.8296
  587SOL    HW2 1761   2.731   2.173   0.479  3.0676  0.7860 -1.6057
  588SOL     OW 1762   2.545   0.178   0.996 -0.2511 -1.2008  0.1146
  588SOL    HW1 1763   2.609   0.190   1.072 -0.9922  1.0795 -1.0031
  588SOL    HW2 1764   2.452   0.221   1.017  0.1433 -0.7721 -1.3008
  589SOL     OW 1765   0.580   0.591   0.949  0.1339 -0.7477  0.1283
  589SOL    HW1 1766   0.674   0.597   0.978  0.4836 -1.1957 -1.1465
  589SOL    HW2 1767   0.575   0.596   0.846  0.4563  1.0640  1.1254
  590SOL     OW 1768   2.300   1.478   0.774  0.1693  0.4486  0.2471
  590SOL    HW1 1769   2.359   1.548   0.735  0.8410 -0.3722 -1.5406
  590SOL    HW2 1770   2.278   1.399   0.716  0.5412  0.8221 -0.3626
  591SOL     OW 1771   0.501   2.642   1.137  0.5176  0.4159 -0.1608
  591SOL    HW1 1772   0.517   2.573   1.210 -2.6048  1.0194  1.3795
  591SOL    HW2 1773   0.432   2.606   1.075  1.9845  0.4815 -0.5946
  592SOL     OW 1774   1.182   0.805   1.258 -0.7648  0.0556  0.6405
  592SOL    HW1 1775   1.260   0.744   1.253  1.0370  1.5411 -2.4091
  592SOL    HW2 1776   1.153   0.805   1.357 -0.9387  0.0026  0.1215
  593SOL     OW 1777   0.591   1.395   1.064 -0.2165 -0.5125 -0.0443
  593SOL    HW1 1778   0.687   1.397   1.050 -1.4274 -0.3118  1.4266
  593SOL    HW2 1779   0.574   1.451   1.151  1.8542 -0.3852  0.3084
  594SOL     OW 1780   0.974   1.977   0.330 -0.0102  0.2847  0.1737
  594SOL    HW1 1781   0.911   1.969   0.255  2.1276 -1.1304  0.7659
  594SOL    HW2 1782   0.975   1.882   0.368  1.2874 -2.4049  0.3976
  595SOL     OW 1783   1.493   0.079   1.193  0.7215  0.5390 -0.0080
  595SOL    HW1 1784   1.471   0.032   1.103  0.3590 -0.3068 -1.7629
  595SOL    HW2 1785   1.439   0.163   1.208 -1.5448 -0.0642  0.4096
  596SOL     OW 1786   0.016   1.614   0.717 -0.3594  0.6393  0.6890
  596SOL    HW1 1787   0.010   1.538   0.786 -0.2645 -0.8391 -0.1513
  596SOL    HW2 1788   0.043   1.702   0.758 -0.2386 -0.3828  1.9128
  597SOL     OW 1789   0.205   2.500   2.729  0.1001 -0.4939 -0.5448
  597SOL    HW1 1790   0.269   2.479   2.807  2.5216 -0.2967  1.2009
  597SOL    HW2 1791   0.157   2.586   2.744  0.2559  0.2015  0.0025
  598SOL     OW 1792   2.882   2.443   1.869 -0.4230  0.1828 -0.4345
  598SOL    HW1 1793   2.890   2.401   1.959 -0.4295 -0.3603  2.2034
  598SOL    HW2 1794   2.813   2.395   1.814 -2.2865  0.8745  1.0570
  599SOL     OW 1795   0.978   0.359   0.069  0.2014 -0.0831  0.0850
  599SOL    HW1 1796   0.899   0.404   0.117  1.4307  0.8835 -0.4555
  599SOL    HW2 1797   0.951   0.287   0.005  2.3434 -0.3609  0.6193
  600SOL     OW 1798   0.736   2.529   0.137  0.0553 -0.1265 -1.1961
  600SOL    HW1 1799   0.818   2.567   0.183 -0.5843 -0.9669  1.8610
  600SOL    HW2 1800   0.649   2.585   0.151 -0.2675 -0.5662  2.0627
  601SOL     OW 1801   0.442   0.876   1.419  0.0501  0.1500  0.3706
  601SOL    HW1 1802   0.431   0.870   1.317  0.5969  0.9458  1.5809
  601SOL    HW2 1803   0.426   0.785   1.460  1.8014 -0.2880 -0.2461
  602SOL     OW 1804   0.622   2.832   0.990 -0.0798 -0.3510  0.2974
  602SOL    HW1 1805   0.693   2.772   0.951 -1.1964  2.1552  4.0682
  602SOL    HW2 1806   0.565   2.774   1.048  1.1905 -0.3277 -2.3322
  603SOL     OW 1807   0.842   0.248   2.283 -0.3127 -0.2129 -0.4841
  603SOL    HW1 1808   0.789   0.168   2.316  0.4994 -0.0781 -0.8679
  603SOL    HW2 1809   0.781   0.296   2.211  0.5194 -0.3831  0.8842
  604SOL     OW 1810   0.894   2.796   1.629  0.1187 -0.0914  0.3079
  604SOL    HW1 1811   0.930   2.860   1.556 -1.5876  3.3458 -0.1075
  604SOL    HW2 1812   0.815   2.743   1.595  1.8498 -1.0872 -0.0521
  605SOL     OW 1813   1.732   0.762   1.850 -0.2903 -0.1491  0.0897
  605SOL    HW1 1814   1.829   0.790   1.849 -1.2212 -1.8164 -1.4374
  605SOL    HW2 1815   1.689   0.765   1.945 -0.0444  0.3678  2.9820
  606SOL     OW 1816   2.373   2.769   2.799 -0.1959 -0.1812 -0.3559
  606SOL    HW1 1817   2.370   2.735   2.900  2.1320 -1.8424  0.8942
  606SOL    HW2 1818   2.434   2.850   2.785  0.2490  0.0885 -0.1912
  607SOL     OW 1819   0.783   0.782   1.327  0.0864 -0.0285 -0.0058
  607SOL    HW1 1820   0.753   0.833   1.241  1.5956  1.7973  0.6186
  607SOL    HW2 1821   0.772   0.845   1.407  1.0590 -0.6097 -0.1715
  608SOL     OW 1822   0.353   2.021   2.730 -0.0304 -0.2911  0.3711
  608SOL    HW1 1823   0.277   2.001   2.796  0.6976 -4.3359  2.7226
  608SOL    HW2 1824   0.350   1.963   2.644  2.7953 -0.9773 -0.3744
  609SOL     OW 1825   1.560   1.151   0.213 -0.3227 -0.0319 -0.2426
  609SOL    HW1 1826   1.543   1.083   0.286 -1.9479 -1.1705 -0.3876
  609SOL    HW2 1827   1.517   1.113   0.130 -1.1591  2.2867  1.1070
  610SOL     OW 1828   0.441   0.416   1.406  0.2033  0.3183 -0.4329
  610SOL    HW1 1829   0.433   0.312   1.415 -2.3280  0.3815 -2.7108
  610SOL    HW2 1830   0.475   0.444   1.314 -0.0411  0.5784 -1.2487
  611SOL     OW 1831   1.495   0.789   1.065 -0.0742 -0.1840 -0.2870
  611SOL    HW1 1832   1.412   0.768   1.007  0.5456  2.8583  1.6255
  611SOL    HW2 1833   1.489   0.885   1.091  0.0377 -0.9778 -3.6961
  612SOL     OW 1834   1.810   1.114   0.074 -0.5745  0.1497  1.0073
  612SOL    HW1 1835   1.725   1.160   0.107  0.3290  2.1206  1.5166
  612SOL    HW2 1836   1.817   1.023   0.125  0.8222  1.1349  0.2778
  613SOL     OW 1837   2.211   0.356   0.489 -0.1852 -0.0907  0.8188
  613SOL    HW1 1838   2.118   0.333   0.528 -1.9413  0.0772 -2.2272
  613SOL    HW2 1839   2.235   0.286   0.417 -3.4343 -0.1351 -0.0478
  614SOL     OW 1840   2.690   0.045   2.429 -0.8218 -0.2913 -0.3077
  614SOL    HW1 1841   2.676   0.023   2.331 -0.3855  0.5914  2.3640
  614SOL    HW2 1842   2.723   0.144   2.447  0.8958 -0.1341  1.3313
  615SOL     OW 1843   0.811   1.981   1.052  0.0880  0.0727  0.1228
  615SOL    HW1 1844   0.883   1.948   1.119  0.5530  0.9738  0.5837
  615SOL    HW2 1845   0.715   1.973   1.089 -0.6323  0.7196 -3.1058
  616SOL     OW 1846   1.482   1.487   2.568 -0.1143  0.0376 -0.1602
  616SOL    HW1 1847   1.532   1.488   2.478  0.4920  1.8597 -0.7828
  616SOL    HW2 1848   1.449   1.393   2.585 -1.1788 -1.2183  1.2501
  617SOL     OW 1849   1.329   0.081   2.884 -0.0962  0.4027  0.3926
  617SOL    HW1 1850   1.353   0.178   2.901  1.6467 -3.6876 -0.2163
  617SOL    HW2 1851   1.331   0.027   2.968 -0.7715 -0.4371 -1.5257
  618SOL     OW 1852   1.199   2.298   2.533  0.2021 -0.4571 -0.3807
  618SOL    HW1 1853   1.224   2.213   2.583 -1.1372  0.0708 -0.6662
  618SOL    HW2 1854   1.153   2.366   2.597  0.7944 -1.2904 -1.1372
  619SOL     OW 1855   2.598   1.351   0.774  0.1525 -0.3864 -0.1205
  619SOL    HW1 1856   2.688   1.309   0.783 -1.0311  0.6160  2.2358
  619SOL    HW2 1857   2.540   1.298   0.708 -0.3502 -1.4721  1.1746
  620SOL     OW 1858   2.202   2.834   2.267 -0.4295 -0.7298  0.1757
  620SOL    HW1 1859   2.166   2.846   2.363  1.0993  1.1010  0.9044
  620SOL    HW2 1860   2.195   2.736   2.239  1.3415  1.0077  0.7119
  621SOL     OW 1861   2.860   1.367   0.527 -0.2438 -0.0585  0.5128
  621SOL    HW1 1862   2.857   1.338   0.624  0.9061  0.9810  0.9041
  621SOL    HW2 1863   2.948   1.414   0.499 -1.6904 -0.5409 -4.8103
  622SOL     OW 1864   1.380   1.737   2.429  0.1193 -0.4189  0.0610
  622SOL    HW1 1865   1.284   1.769   2.420 -0.3163 -2.1974  0.2326
  622SOL    HW2 1866   1.397   1.687   2.518  1.4744  2.2108  0.6747
  623SOL     OW 1867   0.382   2.610   2.547 -0.2047 -0.2604  1.0496
  623SOL    HW1 1868   0.391   2.564   2.460  0.3074  4.5914  1.9270
  623SOL    HW2 1869   0.338   2.552   2.617 -1.7488  2.8286 -1.5143
  624SOL     OW 1870   0.713   2.570   2.970 -0.1690  0.5660 -0.1444
  624SOL    HW1 1871   0.733   2.478   2.926 -0.5333  2.6749  0.1467
  624SOL    HW2 1872   0.724   2.566   3.072 -2.7959 -0.4666 -3.3320
  625SOL     OW 1873   0.156   2.297   2.039 -0.3343  0.5185  0.2000
  625SOL    HW1 1874   0.123   2.391   2.000  0.8652  2.3913 -0.9484
  625SOL    HW2 1875   0.080   2.232   2.057  2.7046 -1.1182  0.9771
  626SOL     OW 1876   0.157   0.067   3.046  0.2920  0.2469  0.6424
  626SOL    HW1 1877   0.097   0.148   3.063  5.3910  0.7174  1.6628
  626SOL    HW2 1878   0.140   0.015   2.960 -0.6783  1.4788 -1.6425
  627SOL     OW 1879   2.195   1.653   0.036 -0.3611  0.3126  0.2430
  627SOL    HW1 1880   2.279   1.710   0.064 -0.7100 -0.2815 -0.3249
  627SOL    HW2 1881   2.118   1.709   0.004  1.7654 -2.8593 -1.9101
  628SOL     OW 1882   1.620   1.929   0.109  0.6505 -0.0050  0.0068
  628SOL    HW1 1883   1.640   1.832   0.137  0.3487 -1.6648  1.3725
  628SOL    HW2 1884   1.542   1.968   0.159  3.2061  0.7153 -0.4515
  629SOL     OW 1885   0.006   0.249   1.679 -0.1963 -0.3595 -0.1907
  629SOL    HW1 1886   3.075   0.310   1.753 -2.1097 -0.6314  1.8962
  629SOL    HW2 1887   0.095   0.297   1.653 -1.8604  1.5971  2.6133
  630SOL     OW 1888   2.175   1.108   1.667  0.3818  0.1320  0.1270
  630SOL    HW1 1889   2.145   1.078   1.574 -1.2270 -1.4796 -0.5979
  630SOL    HW2 1890   2.190   1.020   1.722 -0.2820 -3.2500  2.1955
  631SOL     OW 1891   1.853   0.019   0.674 -0.2540  0.4921 -0.6317
  631SOL    HW1 1892   1.934   3.061   0.662  3.0353 -0.3797  2.1306
  631SOL    HW2 1893   1.812   0.002   0.766  1.9512  1.4056  2.2439
  632SOL     OW 1894   2.732   0.880   1.974 -0.7227  0.4678  0.1022
  632SOL    HW1 1895   2.706   0.931   1.892 -0.9778 -1.8451  2.0965
  632SOL    HW2 1896   2.641   0.854   2.017 -2.2489  2.0771  1.8371
  633SOL     OW 1897   0.844   0.510   2.752  0.1271  0.8119  0.1151
  633SOL    HW1 1898   0.921   0.560   2.792 -2.0099  1.3651 -0.7070
  633SOL    HW2 1899   0.867   0.467   2.665 -2.4676  1.2001  1.0794
  634SOL     OW 1900   0.477   2.736   2.934 -0.2375  0.2242 -0.0710
  634SOL    HW1 1901   0.571   2.705   2.953  0.2070 -2.5878  2.2712
  634SOL    HW2 1902   0.432   2.772   3.020  0.6907  1.0380  3.0717
  635SOL     OW 1903   0.159   1.323   1.207 -1.0314 -0.1742 -0.4228
  635SOL    HW1 1904   0.136   1.421   1.201 -0.9239  1.9031 -1.6224
  635SOL    HW2 1905   0.158   1.274   1.119  1.7733  0.4819 -0.8679
  636SOL     OW 1906   0.130   1.545   3.101 -0.2843 -0.4717 -0.4640
  636SOL    HW1 1907   0.120   1.443   0.006  0.6118 -0.8126 -2.0318
  636SOL    HW2 1908   0.229   1.570   3.098  0.0003  2.6855 -0.9937
  637SOL     OW 1909   0.226   2.657   0.306 -0.0439 -0.1595 -0.1582
  637SOL    HW1 1910   0.211   2.719   0.228  0.4481  0.9111  3.3044
  637SOL    HW2 1911   0.157   2.579   0.306  0.9976 -2.0416  1.0875
  638SOL     OW 1912   2.821   2.546   0.594  0.1471 -0.0852 -0.0006
  638SOL    HW1 1913   2.861   2.600   0.520 -1.5811  0.7287 -0.0831
  638SOL    HW2 1914   2.885   2.535   0.673  2.0568  0.0049  0.1806
  639SOL     OW 1915   1.252   0.942   0.197 -0.0746  0.0423 -0.3398
  639SOL    HW1 1916   1.221   1.032   0.161 -0.0529 -2.2767  0.5749
  639SOL    HW2 1917   1.204   0.867   0.149 -0.8282 -0.3383 -1.9794
  640SOL     OW 1918   2.020   2.355   1.792 -0.0188 -0.2319  0.4837
  640SOL    HW1 1919   1.966   2.267   1.780 -2.7204 -1.6484 -0.9474
  640SOL    HW2 1920   2.018   2.413   1.704  0.3741 -0.7671 -1.5391
  641SOL     OW 1921   3.052   3.069   0.621 -0.9039 -0.2354 -0.4291
  641SOL    HW1 1922   2.997   2.996   0.666  2.1305  2.2710  2.6088
  641SOL    HW2 1923   3.013   0.060   0.642 -1.3178 -0.8137  0.0653
  642SOL     OW 1924   1.118   0.949   1.889 -0.1140 -0.0891  0.0202
  642SOL    HW1 1925   1.218   0.932   1.905  2.5863  1.2853 -1.3649
  642SOL    HW2 1926   1.097   0.978   1.790  1.2486 -3.6573  0.3503
  643SOL     OW 1927   0.795   2.074   2.527  0.1960  0.4454 -0.0651
  643SOL    HW1 1928   0.787   2.160   2.473 -3.8613 -2.3088 -1.4282
  643SOL    HW2 1929   0.727   2.066   2.608 -3.8620 -0.2743  2.0512
  644SOL     OW 1930   1.103   2.476   2.698  0.1018  0.1734  0.3425
  644SOL    HW1 1931   1.048   2.454   2.778  1.7361  0.7042 -0.3902
  644SOL    HW2 1932   1.164   2.556   2.708  0.3756 -3.1917  0.8463
  645SOL     OW 1933   1.356   1.264   1.739  0.8512 -0.2572  0.0307
  645SOL    HW1 1934   1.414   1.217   1.808  0.6560 -2.1226 -1.0920
  645SOL    HW2 1935   1.404   1.262   1.647  0.1313 -0.9402  2.4978
  646SOL     OW 1936   0.790   2.813   2.947 -0.0118 -0.1263  0.2726
  646SOL    HW1 1937   0.752   2.719   2.935  0.6230  1.9616 -0.7141
  646SOL    HW2 1938   0.751   2.873   2.872  1.8014 -1.2256  0.8633
  647SOL     OW 1939   0.713   2.929   0.402 -0.1123  0.3562  0.1043
  647SOL    HW1 1940   0.659   2.893   0.480 -0.0949 -1.5282 -2.8452
  647SOL    HW2 1941   0.804   2.962   0.433 -1.1923 -2.2021  1.8974
  648SOL     OW 1942   2.557   2.859   1.340  0.5513 -0.4075  0.1448
  648SOL    HW1 1943   2.598   2.893   1.256 -1.9947 -0.6885 -0.2527
  648SOL    HW2 1944   2.624   2.796   1.388  3.1669 -5.6342  0.4611
  649SOL     OW 1945   0.805   2.357   2.869  0.1414  0.1930  0.0739
  649SOL    HW1 1946   0.897   2.367   2.912  1.9632  0.6358 -3.6022
  649SOL    HW2 1947   0.770   2.267   2.885  0.8640  2.1968  2.1246
  650SOL     OW 1948   2.436   1.990   2.130 -0.3056 -0.0976  0.1300
  650SOL    HW1 1949   2.387   1.992   2.217  1.0458  1.6192  0.5441
  650SOL    HW2 1950   2.489   2.076   2.112 -0.8300 -1.3420 -1.0764
  651SOL     OW 1951   3.008   2.509   2.326  0.8640  0.6151  0.0283
  651SOL    HW1 1952   0.001   2.528   2.302  0.4787 -1.3761  0.4181
  651SOL    HW2 1953   3.003   2.508   2.426  1.1774 -1.4471  0.2906
  652SOL     OW 1954   2.794   1.843   0.370 -0.3934 -0.5112 -0.6093
  652SOL    HW1 1955   2.825   1.790   0.454  2.9073 -1.4620 -0.8511
  652SOL    HW2 1956   2.693   1.843   0.367  0.5612 -0.8591  3.5711
  653SOL     OW 1957   2.318   0.989   0.886  0.4451  0.1331 -0.3354
  653SOL    HW1 1958   2.418   1.007   0.884  0.8051  1.8595  1.1657
  653SOL    HW2 1959   2.310   0.900   0.931  1.8900 -0.8954 -4.2481
  654SOL     OW 1960   0.925   0.134   2.984  0.3133  0.0790  0.0049
  654SOL    HW1 1961   0.983   0.108   2.905 -1.6251  1.9334  1.4985
  654SOL    HW2 1962   0.829   0.105   2.973  2.0061 -0.2569  0.9583
  655SOL     OW 1963   1.078   0.312   1.415  0.4493  0.0761 -0.1524
  655SOL    HW1 1964   1.017   0.394   1.432 -1.3266  2.2976  2.4363
  655SOL    HW2 1965   1.145   0.315   1.491  0.0708  2.1157  3.5484
  656SOL     OW 1966   0.194   2.815   2.014  0.7767 -0.5709  0.4863
  656SOL    HW1 1967   0.282   2.812   1.961  1.5027 -0.7221  0.5916
  656SOL    HW2 1968   0.175   2.911   2.056 -0.0111  2.7925  2.7492
  657SOL     OW 1969   2.381   0.500   0.116 -0.4268  0.1716 -0.1627
  657SOL    HW1 1970   2.440   0.514   0.202 -0.1484  2.3970  1.0241
  657SOL    HW2 1971   2.412   0.427   0.051 -0.5905  1.1568  3.3880
  658SOL     OW 1972   2.173   1.876   0.928 -0.4437 -0.0144  0.0917
  658SOL    HW1 1973   2.161   1.933   1.010  0.3157 -0.1233  0.6697
  658SOL    HW2 1974   2.182   1.778   0.942 -0.2593  3.4006  1.1453
  659SOL     OW 1975   2.788   2.202   2.801 -0.1825 -0.5863 -0.0387
  659SOL    HW1 1976   2.729   2.288   2.783 -0.1626  1.5654 -1.9648
  659SOL    HW2 1977   2.886   2.224   2.790 -1.3048  0.5328  1.5422
  660SOL     OW 1978   1.366   3.066   0.020  0.3233 -0.0631  0.0176
  660SOL    HW1 1979   1.309   3.098   0.105  0.7562  0.6211  1.6656
  660SOL    HW2 1980   1.468   3.070   0.041 -0.8096  0.3841  0.9418
  661SOL     OW 1981   2.225   0.007   0.101 -0.0582 -0.2236 -0.9037
  661SOL    HW1 1982   2.133   3.076   0.079 -0.8657 -2.4567  2.1658
  661SOL    HW2 1983   2.293   3.080   0.028  0.6187 -0.9367  0.4886
  662SOL     OW 1984   0.746   0.129   0.824 -0.5494  0.1282 -0.2393
  662SOL    HW1 1985   0.711   0.213   0.780 -0.7794 -1.8786  0.1954
  662SOL    HW2 1986   0.662   0.064   0.824 -1.8211 -1.9720  3.2400
  663SOL     OW 1987   1.322   0.406   2.286 -0.5670  0.5581  0.6551
  663SOL    HW1 1988   1.301   0.362   2.194 -0.6649  0.2001  0.4418
  663SOL    HW2 1989   1.247   0.459   2.322 -1.7248  0.8545  1.1096
  664SOL     OW 1990   0.736   2.943   1.357 -0.2323  0.0264  0.3433
  664SOL    HW1 1991   0.643   2.905   1.383 -0.2892  2.2895  0.5051
  664SOL    HW2 1992   0.771   3.013   1.424  1.8739  0.7134 -0.6229
  665SOL     OW 1993   0.952   2.361   1.855 -0.0081  0.3030 -0.2376
  665SOL    HW1 1994   0.981   2.440   1.805 -1.7342 -2.9539  0.2866
  665SOL    HW2 1995   0.977   2.378   1.952 -0.1773 -0.3550 -0.0433
  666SOL     OW 1996   0.300   3.048   2.599 -0.2685  0.2476  0.1042
  666SOL    HW1 1997   0.366   2.980   2.636 -1.0840  1.4131 -0.1004
  666SOL    HW2 1998   0.302   3.061   2.496  0.6138  0.3744 -5.6821
  667SOL     OW 1999   1.755   1.808   1.421 -0.1172 -0.1234  0.7141
  667SOL    HW1 2000   1.718   1.716   1.453 -0.1998 -1.1920 -0.9733
  667SOL    HW2 2001   1.842   1.825   1.467 -0.4318 -1.1853 -3.4893
  668SOL     OW 2002   1.540   0.435   1.784 -0.1743 -0.2025 -0.0657
  668SOL    HW1 2003   1.632   0.480   1.809  1.8935 -0.0363  0.6885
  668SOL    HW2 2004   1.554   0.342   1.752 -3.0087  2.5124 -0.9804
  669SOL     OW 2005   2.454   2.411   1.463  0.2628 -0.2594 -0.2506
  669SOL    HW1 2006   2.479   2.452   1.552  0.5105 -0.4756  0.6373
  669SOL    HW2 2007   2.358   2.378   1.462 -1.2649 -0.4652 -1.0842
  670SOL     OW 2008   1.512   2.213   2.723  0.1111 -0.0418 -0.7443
  670SOL    HW1 2009   1.431   2.218   2.787 -1.0088 -0.2276  0.3767
  670SOL    HW2 2010   1.588   2.276   2.743 -1.1730 -0.0025  1.1151
  671SOL     OW 2011   1.165   0.983   0.461  0.6995 -0.2584  0.2593
  671SOL    HW1 2012   1.219   0.975   0.548  1.8774  0.5525  2.6777
  671SOL    HW2 2013   1.217   0.956   0.378  0.5500 -2.3190 -0.7731
  672SOL     OW 2014   3.097   1.092   2.499 -0.1520 -0.7250  0.3423
  672SOL    HW1 2015   3.007   1.120   2.544  0.9723  1.0920  1.1828
  672SOL    HW2 2016   0.023   1.000   2.525 -1.9077 -1.0295  1.0510
  673SOL     OW 2017   2.685   1.989   1.385 -0.1129  0.7327 -0.4736
  673SOL    HW1 2018   2.742   1.981   1.468 -0.6455 -1.6859  1.5932
  673SOL    HW2 2019   2.585   1.970   1.405 -2.8444  2.0290 -1.0405
  674SOL     OW 2020   0.549   2.553   2.053 -0.3450  0.2647 -0.4891
  674SOL    HW1 2021   0.559   2.551   1.955 -0.4528 -1.3670  0.7227
  674SOL    HW2 2022   0.612   2.625   2.094 -0.1311 -5.0479  0.1961
  675SOL     OW 2023   0.818   0.919   1.612 -0.4058  0.2910  0.4492
  675SOL    HW1 2024   0.900   0.978   1.639  1.2746  0.3339  1.2418
  675SOL    HW2 2025   0.740   0.977   1.580 -0.0599 -2.1453  1.1708
  676SOL     OW 2026   2.296   0.252   1.055 -0.0518  0.1913  0.1307
  676SOL    HW1 2027   2.267   0.217   1.148  0.6508  0.2770  0.6273
  676SOL    HW2 2028   2.282   0.352   1.059 -1.6320 -0.4249 -0.5960
  677SOL     OW 2029   2.355   1.288   2.891  0.2380 -0.5204  0.3541
  677SOL    HW1 2030   2.292   1.341   2.952 -1.0151 -1.1920 -1.5667
  677SOL    HW2 2031   2.381   1.345   2.811  0.9377 -0.4284  2.1056
  678SOL     OW 2032   2.851   1.154   1.134 -0.2180 -0.0477  0.0872
  678SOL    HW1 2033   2.855   1.118   1.230 -0.5899 -2.1990 -0.1738
  678SOL    HW2 2034   2.881   1.250   1.120  0.0874  1.9588 -1.2988
  679SOL     OW 2035   2.530   0.181   0.052 -0.0221 -0.1779  0.1678
  679SOL    HW1 2036   2.596   0.193   0.131 -1.3539  1.5675  0.3468
  679SOL    HW2 2037   2.543   0.251   3.080  0.0562 -1.9940  1.0539
  680SOL     OW 2038   0.142   1.916   1.775  0.0651  0.1297 -0.1833
  680SOL    HW1 2039   0.084   1.979   1.828 -0.4635 -0.1440  1.6249
  680SOL    HW2 2040   0.184   1.850   1.841  0.4995  1.1885  1.5088
  681SOL     OW 2041   2.002   2.010   1.332  0.2195 -0.1011 -0.6295
  681SOL    HW1 2042   1.995   1.925   1.392 -1.9858 -2.7844  0.3836
  681SOL    HW2 2043   1.910   2.055   1.328 -0.4725  1.4661  1.7145
  682SOL     OW 2044   0.418   1.603   3.065  0.2478  0.2884 -0.1859
  682SOL    HW1 2045   0.436   1.698   3.037 -0.0463  1.5914  2.4205
  682SOL    HW2 2046   0.428   1.536   2.988  0.7306  2.1063  1.0829
  683SOL     OW 2047   0.088   2.158   1.354 -0.2622  0.6666 -0.3786
  683SOL    HW1 2048   0.181   2.181   1.320  0.7544  3.7695  2.0125
  683SOL    HW2 2049   0.018   2.202   1.293  1.2110  0.7838  1.9269
  684SOL     OW 2050   2.998   1.302   2.148 -0.1938  0.1803 -0.1561
  684SOL    HW1 2051   2.962   1.360   2.222 -0.8269 -1.5186  0.8111
  684SOL    HW2 2052   3.014   1.208   2.182  0.9139 -2.9362  0.5257
  685SOL     OW 2053   1.354   0.941   0.681  0.2063 -0.7163  0.4268
  685SOL    HW1 2054   1.380   1.029   0.734  0.0877  0.1203  0.7639
  685SOL    HW2 2055   1.354   0.862   0.743  0.1578  0.5157 -0.4905
  686SOL     OW 2056   0.657   0.349   0.695  0.3556  0.0138 -0.4210
  686SOL    HW1 2057   0.670   0.453   0.706  1.4678 -1.1354 -0.5310
  686SOL    HW2 2058   0.600   0.327   0.613 -0.8463 -3.7070 -0.8657
  687SOL     OW 2059   1.012   2.082   2.906 -0.1238 -0.1945 -0.0907
  687SOL    HW1 2060   1.074   2.059   2.988  0.4902  0.0088  3.7703
  687SOL    HW2 2061   0.965   2.174   2.910 -2.5753 -2.5550  0.9762
  688SOL     OW 2062   1.676   1.063   1.585  0.2264 -0.3261  0.6474
  688SOL    HW1 2063   1.627   1.124   1.514 -3.6719  1.5336 -0.3075
  688SOL    HW2 2064   1.641   0.967   1.585 -1.8403 -0.6150 -0.3339
  689SOL     OW 2065   1.712   0.045   0.952  0.5088 -0.0691 -0.1323
  689SOL    HW1 2066   1.794   0.019   1.007  0.0364  2.2807 -0.3006
  689SOL    HW2 2067   1.701   0.145   0.934 -2.1375  1.7435  0.9197
  690SOL     OW 2068   0.080   1.336   0.757 -0.3181  0.4862  0.1473
  690SOL    HW1 2069   3.087   1.300   0.752 -2.6332  0.4127  1.4511
  690SOL    HW2 2070   0.123   1.332   0.658  2.2694  2.1900  0.5527
  691SOL     OW 2071   0.336   2.359   1.368  0.5341  0.8354 -0.1841
  691SOL    HW1 2072   0.375   2.364   1.276 -0.2471 -1.4467 -2.7522
  691SOL    HW2 2073   0.260   2.428   1.379  0.8897  0.4518 -1.9043
  692SOL     OW 2074   1.813   0.189   1.473  0.0378  0.5905  0.5761
  692SOL    HW1 2075   1.852   0.180   1.571  0.3659 -1.3689  1.4039
  692SOL    HW2 2076   1.881   0.159   1.397  1.6286  1.2281 -0.9259
  693SOL     OW 2077   0.569   1.784   2.151 -0.2547 -0.6642 -0.1039
  693SOL    HW1 2078   0.550   1.844   2.071  0.9105 -2.0022 -3.0298
  693SOL    HW2 2079   0.617   1.829   2.226  1.1002 -2.7092 -0.3822
  694SOL     OW 2080   2.001   1.223   1.009 -0.2392  0.2196 -0.0479
  694SOL    HW1 2081   1.941   1.291   0.965 -0.0821 -1.2038 -1.9745
  694SOL    HW2 2082   2.098   1.236   0.979  0.9009  0.7950 -0.4456
  695SOL     OW 2083   1.309   0.737   0.884  0.1422 -0.7006  0.1703
  695SOL    HW1 2084   1.281   0.667   0.815  0.3553 -1.3443 -0.4699
  695SOL    HW2 2085   1.232   0.792   0.926 -0.3066 -0.6630  1.7582
  696SOL     OW 2086   0.555   0.252   0.431 -0.0607  0.1638 -0.3483
  696SOL    HW1 2087   0.498   0.172   0.400 -0.1462  0.6881 -0.8050
  696SOL    HW2 2088   0.653   0.234   0.419  0.8429  0.8003  1.9892
  697SOL     OW 2089   2.078   0.533   0.914 -0.3617 -0.3293  0.3097
  697SOL    HW1 2090   2.076   0.454   0.979 -1.4058 -1.2948 -1.7839
  697SOL    HW2 2091   1.987   0.561   0.887  1.2523  2.0174 -0.5256
  698SOL     OW 2092   1.490   1.263   2.193  0.2638  0.1363 -0.4281
  698SOL    HW1 2093   1.391   1.238   2.211 -2.4544  3.4914  0.3945
  698SOL    HW2 2094   1.506   1.352   2.233 -1.9762 -0.9191  0.1876
  699SOL     OW 2095   2.641   0.495   1.924  0.0591  1.2941 -0.2030
  699SOL    HW1 2096   2.664   0.514   2.021 -0.7619  1.3806 -0.0883
  699SOL    HW2 2097   2.584   0.404   1.911  2.5858 -1.1821 -3.0170
  700SOL     OW 2098   1.751   2.366   0.488 -0.0270 -0.1601  0.3301
  700SOL    HW1 2099   1.756   2.383   0.589 -2.0082  2.2632 -0.0946
  700SOL    HW2 2100   1.652   2.383   0.457 -3.5015 -0.3965 -2.0905
  701SOL     OW 2101   2.652   1.939   2.417  0.4136  0.0555 -0.0985
  701SOL    HW1 2102   2.628   1.846   2.381  0.4428 -2.2852 -0.3856
  701SOL    HW2 2103   2.690   1.934   2.515  0.0652  3.4022  1.6013
  702SOL     OW 2104   0.568   2.870   0.640  0.1305 -0.4704 -0.0577
  702SOL    HW1 2105   0.568   2.951   0.705 -3.2542 -2.0581  0.0950
  702SOL    HW2 2106   0.569   2.785   0.692 -1.5150  1.5744 -0.8009
  703SOL     OW 2107   1.807   2.973   2.320  0.0258  0.1212 -0.0163
  703SOL    HW1 2108   1.753   2.924   2.252  2.6142 -0.1239  1.9830
  703SOL    HW2 2109   1.784   2.938   2.415 -1.5358 -0.5877  0.2480
  704SOL     OW 2110   2.920   2.293   0.298  0.7942  0.3671 -0.5009
  704SOL    HW1 2111   2.896   2.247   0.382 -1.1535  0.8561 -0.4843
  704SOL    HW2 2112   2.881   2.243   0.221  0.8838  1.4562  1.7880
  705SOL     OW 2113   2.800   2.344   2.478 -0.3841  0.3733 -0.1328
  705SOL    HW1 2114   2.762   2.248   2.487 -2.8035 -1.5378 -0.7202
  705SOL    HW2 2115   2.877   2.363   2.536 -0.4787 -0.8950 -4.2550
  706SOL     OW 2116   2.532   0.072   0.377 -0.4181 -0.3400  0.0244
  706SOL    HW1 2117   2.588   0.143   0.337 -1.3072 -2.9944  1.6118
  706SOL    HW2 2118   2.595   3.101   0.417  1.3603  0.4334 -1.3095
  707SOL     OW 2119   1.123   0.531   2.469 -0.4008 -0.5486  0.1924
  707SOL    HW1 2120   1.034   0.481   2.466 -1.1486 -2.0114 -1.1534
  707SOL    HW2 2121   1.171   0.515   2.558  1.0956 -0.2030  1.7989
  708SOL     OW 2122   0.315   2.137   1.787  0.0421  0.3646 -0.1489
  708SOL    HW1 2123   0.242   2.069   1.762 -0.6591 -1.9386 -0.5027
  708SOL    HW2 2124   0.288   2.199   1.866 -0.9777 -0.3347  0.7722
  709SOL     OW 2125   1.382   2.963   1.844 -0.1746  0.0820 -0.3262
  709SOL    HW1 2126   1.424   3.033   1.914  1.1627  3.3696  1.3163
  709SOL    HW2 2127   1.421   2.976   1.754 -0.9722 -0.6370  0.2683
  710SOL     OW 2128   1.540   2.572   2.647 -0.7176  0.4186  0.3511
  710SOL    HW1 2129   1.490   2.510   2.582  0.4389  2.4232  1.5436
  710SOL    HW2 2130   1.611   2.511   2.692  2.7003 -1.5513  1.1594
  711SOL     OW 2131   0.751   2.478   2.581 -0.0072  0.3940 -0.4317
  711SOL    HW1 2132   0.759   2.402   2.512 -0.9050  0.6751  2.5906
  711SOL    HW2 2133   0.829   2.484   2.642 -2.7199  0.7965  1.6758
  712SOL     OW 2134   1.131   1.992   0.028  0.0537  0.1561 -0.4458
  712SOL    HW1 2135   1.086   1.915   0.077 -1.2503  1.7077  0.6217
  712SOL    HW2 2136   1.186   2.054   0.090 -1.1821  2.0731  0.4738
  713SOL     OW 2137   2.166   1.272   1.895 -0.1847 -0.3280  0.4887
  713SOL    HW1 2138   2.174   1.216   1.808  1.7865 -2.2502 -0.0734
  713SOL    HW2 2139   2.108   1.235   1.968 -1.0572  1.1392 -0.6539
  714SOL     OW 2140   0.742   1.118   1.948  0.0406  0.2794 -0.1944
  714SOL    HW1 2141   0.665   1.088   2.008 -1.1991  0.5815  1.2281
  714SOL    HW2 2142   0.823   1.068   1.979 -0.5545  1.2658 -0.0187
  715SOL     OW 2143   2.703   0.248   0.274 -0.0865 -0.1021 -0.4570
  715SOL    HW1 2144   2.793   0.204   0.260 -0.9800  0.4526  0.9677
  715SOL    HW2 2145   2.718   0.340   0.312 -1.1484 -3.2714 -0.6430
  716SOL     OW 2146   0.251   2.770   1.230  0.4663  0.1932 -0.4263
  716SOL    HW1 2147   0.207   2.848   1.181 -1.5812  1.0096 -1.2866
  716SOL    HW2 2148   0.302   2.714   1.164  0.2315  3.2192 -1.6417
  717SOL     OW 2149   2.511   0.704   0.934  0.2832  0.0908 -0.0547
  717SOL    HW1 2150   2.417   0.686   0.901  1.4499 -0.3372 -1.7882
  717SOL    HW2 2151   2.523   0.688   1.037 -0.4993 -1.7326  1.0935
  718SOL     OW 2152   1.413   1.309   1.451 -0.1426 -0.1423 -0.4229
  718SOL    HW1 2153   1.364   1.387   1.405 -2.3968  1.4185  2.3920
  718SOL    HW2 2154   1.515   1.322   1.442  1.4713  0.2146  1.5741
  719SOL     OW 2155   2.728   2.682   2.867 -0.6645 -0.2527 -0.5658
  719SOL    HW1 2156   2.662   2.758   2.871 -1.3867  0.6657  0.4072
  719SOL    HW2 2157   2.700   2.615   2.797 -0.9996 -2.3937 -0.0691
  720SOL     OW 2158   1.055   0.457   0.776 -0.1256  1.0051 -0.1587
  720SOL    HW1 2159   0.994   0.395   0.719 -2.6383 -1.0318 -0.7268
  720SOL    HW2 2160   1.084   0.410   0.866  0.7614 -0.8197  1.5220
  721SOL     OW 2161   1.988   0.026   0.967  0.1608 -0.9242 -0.4037
  721SOL    HW1 2162   2.033   3.036   0.973 -0.8136 -1.3688  0.4218
  721SOL    HW2 2163   2.048   0.089   0.922 -0.8718 -0.1097  0.6926
  722SOL     OW 2164   0.759   2.167   1.923 -0.1915  0.0544 -0.1386
  722SOL    HW1 2165   0.707   2.215   2.001 -3.4949 -2.0002  2.4498
  722SOL    HW2 2166   0.836   2.232   1.894 -0.1127  0.6256  0.8238
  723SOL     OW 2167   1.195   3.011   1.530 -0.0842  0.1420  0.0411
  723SOL    HW1 2168   1.296   3.015   1.541 -0.5181 -1.6759  0.3506
  723SOL    HW2 2169   1.164   3.045   1.621  0.7756 -1.4978 -0.0613
  724SOL     OW 2170   1.496   1.882   1.390 -0.3305  0.1471 -0.2963
  724SOL    HW1 2171   1.465   1.924   1.473  2.7646 -3.0802 -1.2961
  724SOL    HW2 2172   1.598   1.869   1.396  2.8704 -1.1377 -2.0333
  725SOL     OW 2173   1.440   2.399   1.294  0.1985 -0.3573 -0.5589
  725SOL    HW1 2174   1.420   2.304   1.268 -0.8220 -0.0623  0.4462
  725SOL    HW2 2175   1.475   2.451   1.214 -2.3962  0.8737  2.7558
  726SOL     OW 2176   1.579   0.257   0.186 -0.5900  0.2986  0.1683
  726SOL    HW1 2177   1.595   0.164   0.150 -2.3283  1.6511 -1.5808
  726SOL    HW2 2178   1.674   0.296   0.210 -0.2407  2.6290 -2.3359
  727SOL     OW 2179   1.658   1.793   0.449 -0.1320  0.6263 -0.4990
  727SOL    HW1 2180   1.581   1.731   0.426 -0.0792 -0.1469  1.7642
  727SOL    HW2 2181   1.747   1.759   0.414  0.8745  0.1242 -0.0468
  728SOL     OW 2182   2.030   2.585   1.980 -0.0790 -0.0993  0.1892
  728SOL    HW1 2183   2.042   2.495   1.925  1.8472 -0.7038  0.3565
  728SOL    HW2 2184   1.937   2.608   2.007  2.1880  0.0010  1.1698
  729SOL     OW 2185   1.965   2.561   1.608 -0.5528 -0.5172  0.1931
  729SOL    HW1 2186   1.997   2.632   1.677  1.3614 -0.3359  3.2289
  729SOL    HW2 2187   2.048   2.521   1.563  2.2122 -2.9575 -0.5740
  730SOL     OW 2188   1.447   0.991   2.702 -0.1850 -0.2097  0.2800
  730SOL    HW1 2189   1.507   0.942   2.769  0.8674 -1.6694  0.6857
  730SOL    HW2 2190   1.436   0.939   2.610 -4.2746  0.0676 -2.5902
  731SOL     OW 2191   0.801   0.207   1.353 -0.1199 -0.1462  0.2888
  731SOL    HW1 2192   0.902   0.231   1.343  3.3554 -3.8555  1.9844
  731SOL    HW2 2193   0.803   0.141   1.433  1.4872 -3.2310  1.7373
  732SOL     OW 2194   1.174   2.848   1.106 -0.0813 -0.6759  0.4633
  732SOL    HW1 2195   1.149   2.852   1.207 -0.5368  0.5222  1.7603
  732SOL    HW2 2196   1.143   2.936   1.058 -0.9073  0.6619 -1.8214
  733SOL     OW 2197   1.390   1.225   1.165 -0.0586 -0.1679 -0.5410
  733SOL    HW1 2198   1.318   1.271   1.108 -1.8231 -0.2470 -3.2378
  733SOL    HW2 2199   1.419   1.280   1.243  0.2626  0.1446  0.7095
  734SOL     OW 2200   2.514   2.015   0.324 -0.3704  0.1208  0.7764
  734SOL    HW1 2201   2.429   2.048   0.282  0.1952 -0.8283 -1.1555
  734SOL    HW2 2202   2.569   2.088   0.364 -1.0713  0.3673  2.3826
  735SOL     OW 2203   0.962   0.267   0.480 -0.4897 -0.0505 -0.1220
  735SOL    HW1 2204   0.890   0.257   0.411  2.9596 -2.0171  2.6292
  735SOL    HW2 2205   1.010   0.180   0.496  1.1038  1.7107 -0.0567
  736SOL     OW 2206   1.963   2.169   2.758 -0.0180  0.1637 -0.4706
  736SOL    HW1 2207   2.008   2.127   2.841 -0.0960 -2.0556  0.5875
  736SOL    HW2 2208   1.919   2.094   2.698 -1.3134 -1.2330 -2.8763
  737SOL     OW 2209   0.839   2.634   1.023  0.4476  0.0519 -0.7065
  737SOL    HW1 2210   0.877   2.654   0.927  1.0558  1.5021  2.2470
  737SOL    HW2 2211   0.892   2.687   1.091  0.6793  0.7998  1.7310
  738SOL     OW 2212   1.663   0.162   2.264  0.0461 -0.2271  0.2389
  738SOL    HW1 2213   1.617   0.143   2.354  0.3597 -0.6826  2.8593
  738SOL    HW2 2214   1.707   0.077   2.222  1.0516 -0.4215 -0.2566
  739SOL     OW 2215   1.028   2.408   2.123 -0.1911  0.0815  0.7728
  739SOL    HW1 2216   1.130   2.397   2.113 -0.7915 -0.0296 -0.5036
  739SOL    HW2 2217   1.003   2.352   2.200  2.0302 -1.7005 -2.3846
  740SOL     OW 2218   1.648   2.336   1.751 -0.1525 -0.2521 -0.0889
  740SOL    HW1 2219   1.689   2.418   1.794  2.2524  5.0085  0.7124
  740SOL    HW2 2220   1.637   2.344   1.647 -1.1174  1.2583 -1.2450
  741SOL     OW 2221   2.569   1.192   3.024  0.0721 -0.1735  0.3758
  741SOL    HW1 2222   2.637   1.261   2.996 -0.0138  0.6657 -0.6258
  741SOL    HW2 2223   2.475   1.216   2.988  1.4128  0.4858 -0.2500
  742SOL     OW 2224   0.731   1.603   2.036 -0.3181 -0.1673 -0.4060
  742SOL    HW1 2225   0.676   1.671   2.093 -0.4306 -0.6147 -0.0268
  742SOL    HW2 2226   0.711   1.504   2.065  2.1926 -1.2122 -0.4637
  743SOL     OW 2227   0.050   0.834   2.579  0.2214  0.1241 -0.7999
  743SOL    HW1 2228   0.137   0.781   2.573 -1.3419  2.6393  2.4253
  743SOL    HW2 2229   3.072   0.778   2.551 -0.2903 -1.2177  1.5202
  744SOL     OW 2230   2.199   2.182   1.436  0.7829  0.1525  0.1902
  744SOL    HW1 2231   2.120   2.122   1.419  2.0976  1.9472 -0.7143
  744SOL    HW2 2232   2.246   2.158   1.524  0.9814  2.2374  1.8448
  745SOL     OW 2233   2.405   1.802   1.317  0.1222 -0.6451 -0.5649
  745SOL    HW1 2234   2.315   1.760   1.324 -0.8140  0.1737  1.1278
  745SOL    HW2 2235   2.480   1.746   1.364 -0.9175 -1.5534  1.8255
  746SOL     OW 2236   2.600   0.945   0.536 -0.4504 -0.4438 -1.0238
  746SOL    HW1 2237   2.528   0.871   0.526 -1.0334  0.2831 -0.1814
  746SOL    HW2 2238   2.669   0.935   0.459 -0.9311 -1.0029  0.9862
  747SOL     OW 2239   1.921   2.170   0.542  0.5310  0.5944  0.1071
  747SOL    HW1 2240   1.998   2.212   0.600 -1.9522 -0.9273 -0.2032
  747SOL    HW2 2241   1.865   2.237   0.501  0.5127  0.7442  2.9143
  748SOL     OW 2242   0.951   2.154   0.520 -0.7336  0.3751  0.3353
  748SOL    HW1 2243   0.964   2.090   0.445 -0.8476  1.0462  0.3377
  748SOL    HW2 2244   1.008   2.137   0.604  1.6438  1.8159  1.5360
  749SOL     OW 2245   2.987   0.387   2.354 -0.1022  0.4398 -0.0898
  749SOL    HW1 2246   3.021   0.424   2.267 -1.8636  0.7848  0.8794
  749SOL    HW2 2247   3.038   0.298   2.366  0.6741 -3.5621 -1.9538
  750SOL     OW 2248   1.651   3.085   1.369  0.2766 -0.0169 -0.1242
  750SOL    HW1 2249   1.691   0.065   1.411  1.4244  2.4483 -1.5766
  750SOL    HW2 2250   1.577   0.010   1.303  0.4180 -3.5449  1.6612
  751SOL     OW 2251   1.705   2.414   2.760  0.4714  0.2294 -0.4334
  751SOL    HW1 2252   1.697   2.369   2.848 -0.4242  1.8636 -3.4647
  751SOL    HW2 2253   1.795   2.449   2.742 -2.3510 -1.2614  1.4146
  752SOL     OW 2254   2.009   1.993   0.325  0.7046 -0.0774  0.3596
  752SOL    HW1 2255   1.978   2.054   0.402  3.3242 -2.0197 -0.9307
  752SOL    HW2 2256   2.098   2.031   0.286  0.7652  3.6063  0.7464
  753SOL     OW 2257   1.650   0.833   2.120  0.1658 -0.1879 -0.1834
  753SOL    HW1 2258   1.678   0.923   2.160  0.3347  0.5232 -0.5082
  753SOL    HW2 2259   1.578   0.796   2.184 -1.0295  0.0878  1.2284
  754SOL     OW 2260   0.248   2.742   0.787 -0.2993  0.5742 -0.6123
  754SOL    HW1 2261   0.193   2.668   0.742 -2.1693 -1.6368 -0.0549
  754SOL    HW2 2262   0.224   2.833   0.753  0.2280 -3.9230  0.9231
  755SOL     OW 2263   1.988   0.297   1.071 -0.1381 -0.0735 -0.3116
  755SOL    HW1 2264   2.029   0.296   1.164 -2.2518  0.7323  0.8933
  755SOL    HW2 2265   1.934   0.212   1.057 -0.7663 -1.3099 -0.1459
  756SOL     OW 2266   1.128   1.338   2.568  0.8693  0.3217 -0.1731
  756SOL    HW1 2267   1.211   1.298   2.611 -0.0358  0.0294  0.4354
  756SOL    HW2 2268   1.152   1.413   2.502 -1.2651  1.8343  0.2701
  757SOL     OW 2269   2.856   2.773   1.282  0.3441 -0.2309 -0.5053
  757SOL    HW1 2270   2.921   2.708   1.239  0.3016  2.6577  1.0542
  757SOL    HW2 2271   2.815   2.730   1.363  1.4927  0.4825  1.2955
  758SOL     OW 2272   0.776   0.031   1.554  0.1883  0.1537 -0.5016
  758SOL    HW1 2273   0.674   0.008   1.547  1.4783 -1.5787 -0.0756
  758SOL    HW2 2274   0.787   0.115   1.620 -1.0372  2.3845 -1.0337
  759SOL     OW 2275   2.510   1.210   0.564  0.4704 -0.0310 -0.6771
  759SOL    HW1 2276   2.561   1.274   0.507  0.5538 -0.1318 -0.8828
  759SOL    HW2 2277   2.535   1.112   0.548  0.3694  0.3722  0.2257
  760SOL     OW 2278   1.925   0.581   1.331  0.4149  0.1580  0.2171
  760SOL    HW1 2279   1.836   0.537   1.346  0.8755 -3.7978  0.1027
  760SOL    HW2 2280   1.995   0.512   1.297 -0.2720  0.3475  2.2569
  761SOL     OW 2281   1.945   2.999   0.166 -0.6642 -0.3844  0.6082
  761SOL    HW1 2282   1.907   2.936   0.238 -1.2279 -0.0504 -1.4547
  761SOL    HW2 2283   1.891   2.993   0.077 -2.3749  0.6992  0.9970
  762SOL     OW 2284   2.277   2.056   0.201 -0.0289 -0.4059  0.2881
  762SOL    HW1 2285   2.276   2.147   0.252 -0.9486  0.4235  0.6319
  762SOL    HW2 2286   2.298   2.074   0.103 -1.6503 -0.2348  0.1153
  763SOL     OW 2287   0.674   0.975   1.136  0.0146 -0.0705 -0.7519
  763SOL    HW1 2288   0.726   0.951   1.052  1.4603 -2.6377 -0.9192
  763SOL    HW2 2289   0.601   1.048   1.120 -2.3565  2.2437  1.5578
  764SOL     OW 2290   2.542   2.393   3.018 -0.3292  0.2925 -0.0975
  764SOL    HW1 2291   2.587   2.458   2.958 -0.7110  2.7207  1.7705
  764SOL    HW2 2292   2.445   2.379   2.996 -1.2179 -0.2210 -0.7239
  765SOL     OW 2293   0.817   0.663   2.345  0.2347  0.5041  0.7847
  765SOL    HW1 2294   0.774   0.569   2.330 -1.4857  0.5294 -3.4818
  765SOL    HW2 2295   0.855   0.695   2.259  0.8311 -0.0956  1.0502
  766SOL     OW 2296   0.174   1.314   2.462  0.2324 -0.2146  0.7931
  766SOL    HW1 2297   0.121   1.242   2.508 -1.2846 -2.9280  1.4820
  766SOL    HW2 2298   0.127   1.405   2.475 -1.4077  3.8987  1.3691
  767SOL     OW 2299   0.146   1.670   2.124  0.9129  0.4615  0.4744
  767SOL    HW1 2300   0.223   1.708   2.067  0.9473 -0.6327  1.8404
  767SOL    HW2 2301   0.084   1.749   2.144  0.2828 -1.7647  4.9317
  768SOL     OW 2302   0.942   0.949   2.840  0.1984  0.5197  0.4283
  768SOL    HW1 2303   0.846   0.938   2.873 -1.1456  1.1074 -2.4908
  768SOL    HW2 2304   0.957   1.024   2.770 -0.0657 -2.4901 -1.4341
  769SOL     OW 2305   1.824   2.961   3.026  0.5028 -0.5725 -0.1721
  769SOL    HW1 2306   1.758   2.884   3.024 -2.2589  1.7381 -0.8165
  769SOL    HW2 2307   1.831   3.013   2.941  0.0253 -0.7322 -1.5929
  770SOL     OW 2308   2.972   0.636   2.479 -0.6436  0.5754 -0.3459
  770SOL    HW1 2309   2.980   0.546   2.434 -1.5439 -0.5071  0.8443
  770SOL    HW2 2310   2.903   0.690   2.428  0.0356 -3.7113  0.4745
  771SOL     OW 2311   0.747   2.208   1.396 -0.0027 -0.6886 -0.6521
  771SOL    HW1 2312   0.841   2.174   1.430  0.6071  0.8107 -0.0434
  771SOL    HW2 2313   0.753   2.310   1.392 -1.6262 -0.1366  1.2045
  772SOL     OW 2314   0.604   0.554   2.898  0.0585 -0.1258 -0.2372
  772SOL    HW1 2315   0.690   0.562   2.839 -1.1346  2.9162 -0.1154
  772SOL    HW2 2316   0.603   0.626   2.973 -0.4771 -1.6186  1.4337
  773SOL     OW 2317   2.406   1.268   1.625 -0.5302  0.2555  0.0966
  773SOL    HW1 2318   2.470   1.264   1.706  0.6335 -0.4797 -1.5001
  773SOL    HW2 2319   2.326   1.204   1.629 -3.3587 -0.6656  2.0972
  774SOL     OW 2320   1.128   0.656   0.460  0.1860  0.2405 -0.0925
  774SOL    HW1 2321   1.166   0.594   0.389  0.4583  0.2521  0.3156
  774SOL    HW2 2322   1.176   0.650   0.553  1.3275 -0.0967  0.9297
  775SOL     OW 2323   2.061   2.434   2.875 -0.7240 -0.7517 -0.4439
  775SOL    HW1 2324   2.003   2.516   2.857 -0.4545  0.3328  2.0139
  775SOL    HW2 2325   2.007   2.353   2.895  0.5871  2.6428 -0.1340
  776SOL     OW 2326   2.235   0.098   2.070  0.2168 -0.3865 -0.2081
  776SOL    HW1 2327   2.162   0.029   2.091 -0.7450 -1.8950  1.3754
  776SOL    HW2 2328   2.312   0.085   2.138  2.9746 -2.8163 -2.5340
  777SOL     OW 2329   0.553   1.115   2.736 -0.6410 -0.6524  0.2060
  777SOL    HW1 2330   0.527   1.054   2.661 -0.0047  0.5460  2.6808
  777SOL    HW2 2331   0.493   1.102   2.814  0.2604  0.7056 -0.8885
  778SOL     OW 2332   0.750   0.088   0.308  0.3161 -0.7487 -0.6106
  778SOL    HW1 2333   0.834   0.064   0.259 -0.3288 -0.4895  1.1211
  778SOL    HW2 2334   0.712   3.100   0.343 -0.8118 -1.5028 -1.8028
  779SOL     OW 2335   0.120   1.200   2.822 -0.3971 -0.4540  0.4678
  779SOL    HW1 2336   0.041   1.152   2.851  3.4465  1.7298 -0.8426
  779SOL    HW2 2337   0.201   1.144   2.785  0.0753  1.8501  3.1576
  780SOL     OW 2338   2.076   0.699   2.525  0.6943 -0.2573 -0.8172
  780SOL    HW1 2339   2.071   0.611   2.578  0.7480 -0.1775  1.0705
  780SOL    HW2 2340   1.987   0.722   2.482  2.6108  0.5074  0.1988
  781SOL     OW 2341   2.324   1.481   1.920  0.5034  0.2127  0.4288
  781SOL    HW1 2342   2.289   1.386   1.937  0.1506  2.3534  1.0280
  781SOL    HW2 2343   2.299   1.511   1.827 -0.0897 -1.8966  3.4540
  782SOL     OW 2344   1.112   1.765   2.294  0.2337 -0.8000 -0.4213
  782SOL    HW1 2345   1.044   1.763   2.216  0.0015 -0.5527  0.9613
  782SOL    HW2 2346   1.079   1.836   2.363 -3.8223  2.3890  1.9398
  783SOL     OW 2347   0.997   3.086   1.069  0.0196  0.6096  0.3789
  783SOL    HW1 2348   1.035   0.031   1.157  3.0104  0.6557  1.7325
  783SOL    HW2 2349   0.895   3.068   1.085 -4.0892  2.5521 -1.0909
  784SOL     OW 2350   1.399   0.582   2.978 -0.7483 -0.3367 -0.0273
  784SOL    HW1 2351   1.379   0.614   2.882 -1.4070 -1.1687  0.6965
  784SOL    HW2 2352   1.414   0.668   3.033  2.3985  2.4696  0.7884
  785SOL     OW 2353   1.493   0.331   3.011 -0.1624 -0.2268 -0.1827
  785SOL    HW1 2354   1.454   0.426   3.012  0.3794  2.1003  2.3784
  785SOL    HW2 2355   1.482   0.291   3.101 -1.0483  0.0742 -1.5086
  786SOL     OW 2356   0.191   1.348   0.525  0.2626  0.1586  0.3102
  786SOL    HW1 2357   0.272   1.357   0.462  2.3913 -0.6880  0.0543
  786SOL    HW2 2358   0.108   1.397   0.490  1.2511 -0.3491  3.6978
  787SOL     OW 2359   1.716   1.666   0.158  0.1129  0.4263 -0.3912
  787SOL    HW1 2360   1.779   1.703   0.226 -1.5330 -0.8811 -0.0746
  787SOL    HW2 2361   1.692   1.573   0.187 -0.4520 -1.0291 -1.4536
  788SOL     OW 2362   1.742   1.760   1.078  0.3101  0.1973 -0.3922
  788SOL    HW1 2363   1.797   1.764   1.164 -0.6231 -2.1744  0.4190
  788SOL    HW2 2364   1.793   1.796   1.000  1.3896 -0.0856  0.6417
  789SOL     OW 2365   3.046   1.494   1.956  0.7930  0.1512 -0.2259
  789SOL    HW1 2366   3.055   1.567   2.029  2.4111  3.2603 -1.3368
  789SOL    HW2 2367   3.011   1.406   1.994 -0.0710  0.4589  0.5282
  790SOL     OW 2368   0.604   3.094   0.042  0.2636 -0.1283 -0.5687
  790SOL    HW1 2369   0.589   2.994   0.067 -0.6887 -1.1423  0.2981
  790SOL    HW2 2370   0.651   0.043   0.119  0.9013  0.0835  4.6745
  791SOL     OW 2371   0.662   0.086   2.409 -0.2045  0.2656  0.3615
  791SOL    HW1 2372   0.639   0.167   2.465  1.2350 -1.4134 -0.0645
  791SOL    HW2 2373   0.706   0.013   2.466 -1.5559 -2.0528 -0.9615
  792SOL     OW 2374   1.860   0.358   2.343  0.0073 -0.7027  0.2758
  792SOL    HW1 2375   1.820   0.431   2.408 -2.8522  1.3553  0.9525
  792SOL    HW2 2376   1.790   0.290   2.320  0.1267 -0.3537 -0.7676
  793SOL     OW 2377   2.823   0.573   1.297 -0.1676  0.3918  0.5118
  793SOL    HW1 2378   2.805   0.501   1.366  0.2708  1.7258  1.3345
  793SOL    HW2 2379   2.893   0.642   1.330 -1.1736  0.7565 -0.1474
  794SOL     OW 2380   0.254   0.622   1.934 -0.3582 -1.0025  0.1611
  794SOL    HW1 2381   0.185   0.650   2.008 -0.1659 -0.5468  0.2841
  794SOL    HW2 2382   0.347   0.603   1.975 -0.9327 -0.3039  0.0790
  795SOL     OW 2383   2.748   1.236   0.148  0.7254  0.0692 -0.7724
  795SOL    HW1 2384   2.740   1.276   0.054 -2.4826  0.3726 -3.4895
  795SOL    HW2 2385   2.840   1.245   0.188 -1.3210  0.0574  0.9041
  796SOL     OW 2386   3.054   2.682   0.463 -0.0789  0.2075 -0.3607
  796SOL    HW1 2387   3.085   2.778   0.447 -1.5738  0.9296 -0.4152
  796SOL    HW2 2388   3.017   2.648   0.375  1.5851  0.4950 -0.6137
  797SOL     OW 2389   1.861   2.602   2.444 -1.0161 -0.0995 -0.2777
  797SOL    HW1 2390   1.919   2.557   2.514 -2.2138 -0.1069  1.1920
  797SOL    HW2 2391   1.804   2.677   2.478  0.3950 -1.5420 -1.4650
  798SOL     OW 2392   0.171   1.092   0.788  0.2820  0.4556 -0.3276
  798SOL    HW1 2393   0.092   1.041   0.748  1.4753 -1.4730 -1.2595
  798SOL    HW2 2394   0.148   1.191   0.788 -1.2005  0.0209  0.3895
  799SOL     OW 2395   3.018   0.644   2.911  0.7852  0.1826  0.7551
  799SOL    HW1 2396   3.058   0.584   2.839 -0.2674  0.7207  0.9270
  799SOL    HW2 2397   3.082   0.723   2.929  1.6729  0.3511  1.8308
  800SOL     OW 2398   2.990   1.870   0.180  0.0748  0.0651 -0.3194
  800SOL    HW1 2399   3.081   1.883   0.233  0.0266 -0.6505  3.1313
  800SOL    HW2 2400   2.915   1.861   0.247 -1.6276  1.0493  1.5646
  801SOL     OW 2401   1.647   1.440   1.280  0.1042  0.1128 -0.1378
  801SOL    HW1 2402   1.692   1.477   1.365 -0.0796  2.1630 -1.0377
  801SOL    HW2 2403   1.646   1.497   1.196  1.3558 -2.3662 -1.0122
  802SOL     OW 2404   1.024   1.965   1.754 -0.3410 -0.1692  0.3223
  802SOL    HW1 2405   1.080   1.943   1.837 -0.2355  1.8975 -0.0502
  802SOL    HW2 2406   1.043   2.056   1.714 -2.0175  1.3604 -0.1058
  803SOL     OW 2407   0.163   1.859   0.696  0.4690  0.1541  0.3724
  803SOL    HW1 2408   0.229   1.793   0.647  0.1892 -2.8985 -0.1341
  803SOL    HW2 2409   0.181   1.956   0.658  3.6702  2.9904 -2.3441
  804SOL     OW 2410   1.103   2.487   1.363 -0.0676 -0.1760 -0.2463
  804SOL    HW1 2411   1.096   2.422   1.281 -1.7521 -2.6809 -3.4972
  804SOL    HW2 2412   1.201   2.510   1.394  0.6686 -0.9213  1.8624
  805SOL     OW 2413   2.132   1.411   3.033 -0.6278  0.3984 -0.3825
  805SOL    HW1 2414   2.177   1.496   3.075  1.6617  2.0647  0.4343
  805SOL    HW2 2415   2.085   1.425   2.946  0.2833  0.2404  1.6712
  806SOL     OW 2416   1.636   2.828   1.294 -0.2259 -0.4094  0.3661
  806SOL    HW1 2417   1.647   2.925   1.324 -1.2187 -0.1013  1.3741
  806SOL    HW2 2418   1.574   2.814   1.213 -0.1447 -1.0244 -0.9749
  807SOL     OW 2419   2.303   0.316   2.740  0.1613 -0.1523  0.7778
  807SOL    HW1 2420   2.285   0.396   2.800 -1.2619  1.8986  0.6071
  807SOL    HW2 2421   2.396   0.279   2.751 -1.9326 -0.0904  1.2792
  808SOL     OW 2422   0.257   1.132   0.204  0.1440 -0.2089  0.5414
  808SOL    HW1 2423   0.347   1.092   0.179 -0.2776 -1.0452 -0.8543
  808SOL    HW2 2424   0.273   1.223   0.249 -0.8890 -2.8190 -1.7169
  809SOL     OW 2425   2.670   1.026   2.254  0.4066  0.1983 -0.3716
  809SOL    HW1 2426   2.759   1.059   2.219 -1.3861  2.5356 -0.7277
  809SOL    HW2 2427   2.651   1.059   2.352 -1.6385 -2.0938  3.2733
  810SOL     OW 2428   1.534   0.579   1.529  0.1954 -0.3417  0.4711
  810SOL    HW1 2429   1.525   0.537   1.624  1.3884 -0.5594  1.6363
  810SOL    HW2 2430   1.607   0.529   1.479  1.8736  2.3288  1.3627
  811SOL     OW 2431   1.984   2.934   1.652 -0.1994 -0.4396  0.2288
  811SOL    HW1 2432   2.030   2.868   1.712 -1.3415  2.3926 -0.0977
  811SOL    HW2 2433   2.038   3.019   1.636 -0.4770 -1.1968 -1.4944
  812SOL     OW 2434   1.618   3.067   0.135 -0.0707 -0.2813  0.0481
  812SOL    HW1 2435   1.648   3.041   0.233 -3.5366 -1.5273 -2.0452
  812SOL    HW2 2436   1.669   3.015   0.063 -0.2253  0.3428 -1.2901
  813SOL     OW 2437   1.891   0.997   2.036  0.2249 -0.2886  0.0574
  813SOL    HW1 2438   1.888   0.975   2.132  1.3001  0.8504 -1.9502
  813SOL    HW2 2439   1.958   0.932   1.995 -1.0483  0.2878  1.6164
  814SOL     OW 2440   1.490   1.159   1.939  0.5167 -0.2560 -0.4882
  814SOL    HW1 2441   1.587   1.145   1.920 -0.7802  2.3108  2.1233
  814SOL    HW2 2442   1.486   1.201   2.032  1.4160  0.4527 -0.4993
  815SOL     OW 2443   0.739   0.704   0.370 -0.4739 -0.3880  0.6089
  815SOL    HW1 2444   0.800   0.776   0.338  1.1046 -2.0110  0.1621
  815SOL    HW2 2445   0.780   0.640   0.439 -0.5645  1.4368 -1.9196
  816SOL     OW 2446   2.295   1.552   2.726  0.3029  0.4357  0.4424
  816SOL    HW1 2447   2.200   1.566   2.760 -1.2102 -1.5026 -3.4778
  816SOL    HW2 2448   2.351   1.641   2.723 -2.9923  1.3445 -3.7396
  817SOL     OW 2449   0.512   2.610   0.757 -0.2068  0.5226  0.6099
  817SOL    HW1 2450   0.495   2.514   0.786 -0.1336  2.8602  0.5591
  817SOL    HW2 2451   0.423   2.664   0.750 -1.3882 -1.3882  2.2524
  818SOL     OW 2452   1.726   0.455   2.915 -0.2970  0.4545  0.6206
  818SOL    HW1 2453   1.798   0.417   2.979  3.5382  1.6274 -2.6946
  818SOL    HW2 2454   1.642   0.396   2.930 -2.0716 -0.1220 -0.2019
  819SOL     OW 2455   1.550   0.611   0.551 -0.1861 -0.6558 -0.5544
  819SOL    HW1 2456   1.453   0.601   0.526 -0.3643 -1.3674  2.1020
  819SOL    HW2 2457   1.590   0.661   0.471 -2.1165 -0.7667 -2.4358
  820SOL     OW 2458   1.748   0.933   0.695 -0.1984  0.1102  0.1046
  820SOL    HW1 2459   1.751   0.862   0.771 -2.0962  1.1260 -0.9429
  820SOL    HW2 2460   1.835   0.962   0.657 -3.1063 -0.2757  0.4325
  821SOL     OW 2461   2.452   2.860   0.375  0.0760 -0.2662  0.2101
  821SOL    HW1 2462   2.444   2.924   0.454 -0.2328 -0.8470 -2.3750
  821SOL    HW2 2463   2.477   2.899   0.284  0.9063 -0.7602  1.4486
  822SOL     OW 2464   0.086   3.058   2.099 -0.2383 -0.1167  0.7983
  822SOL    HW1 2465   0.139   3.094   2.181  1.6139 -0.3207 -0.0790
  822SOL    HW2 2466   0.112   0.025   2.025 -2.5290  1.5210 -2.0167
  823SOL     OW 2467   2.658   2.316   1.706 -0.2649  0.4219 -0.4933
  823SOL    HW1 2468   2.609   2.345   1.792 -0.6038  1.1292 -0.4058
  823SOL    HW2 2469   2.648   2.218   1.689 -1.0800  2.4120  1.6408
  824SOL     OW 2470   1.147   2.817   2.197  1.0658  0.1260  0.0519
  824SOL    HW1 2471   1.077   2.774   2.138  0.8735  0.5434  0.2143
  824SOL    HW2 2472   1.242   2.791   2.170 -0.4107 -0.9959  0.3489
  825SOL     OW 2473   1.616   1.601   0.685  0.5493 -0.1597 -0.1188
  825SOL    HW1 2474   1.708   1.563   0.701 -1.9449 -0.6359  0.3850
  825SOL    HW2 2475   1.618   1.675   0.614 -0.7240 -0.6840 -2.1525
  826SOL     OW 2476   1.855   0.856   0.143  0.3779  0.4239 -0.1967
  826SOL    HW1 2477   1.944   0.819   0.176  0.6451  0.3370 -2.2116
  826SOL    HW2 2478   1.845   0.812   0.050 -1.7294  2.8441  0.0460
  827SOL     OW 2479   0.335   1.305   1.432  0.3045 -0.9797 -0.3817
  827SOL    HW1 2480   0.243   1.314   1.382  0.7998 -0.4457 -3.8955
  827SOL    HW2 2481   0.405   1.361   1.383  2.8382  0.1471  0.3887
  828SOL     OW 2482   1.956   1.602   1.835 -0.1946 -0.0617 -0.0193
  828SOL    HW1 2483   1.911   1.523   1.874  1.3187  0.9583 -0.5612
  828SOL    HW2 2484   2.043   1.585   1.785 -3.0328  0.8475  3.8664
  829SOL     OW 2485   0.148   1.617   0.290 -0.1830 -0.3238 -0.7608
  829SOL    HW1 2486   0.113   1.586   0.198  2.0107  1.2040 -1.0738
  829SOL    HW2 2487   0.251   1.592   0.297  1.4047  1.8632 -0.2532
  830SOL     OW 2488   1.287   0.533   0.673 -0.0023 -0.2086 -0.2629
  830SOL    HW1 2489   1.358   0.468   0.699 -1.2680  1.2621  1.9234
  830SOL    HW2 2490   1.190   0.523   0.712 -2.9994  1.1133  0.7849
  831SOL     OW 2491   2.760   1.371   3.026  0.7498  0.3820  0.2112
  831SOL    HW1 2492   2.816   1.394   2.946 -0.1920 -1.7143  2.2810
  831SOL    HW2 2493   2.727   1.464   3.068 -0.0197  2.4781  0.6766
  832SOL     OW 2494   0.954   2.872   0.060  0.0018 -0.8363 -0.1593
  832SOL    HW1 2495   0.890   2.849   3.086  1.9711  0.9043  0.0469
  832SOL    HW2 2496   0.947   2.969   0.092  1.2109 -0.4887  1.5443
  833SOL     OW 2497   0.955   0.753   2.094 -0.7238  0.0802 -0.1402
  833SOL    HW1 2498   1.051   0.718   2.068  5.0446  3.8278 -3.3692
  833SOL    HW2 2499   0.959   0.851   2.086  3.4118 -2.3086  0.5499
  834SOL     OW 2500   0.178   0.747   1.268 -0.0925 -0.0041 -0.5740
  834SOL    HW1 2501   0.095   0.798   1.231 -1.8458  1.7276 -1.8678
  834SOL    HW2 2502   0.268   0.787   1.238  2.9244 -0.5802 -0.5302
  835SOL     OW 2503   2.788   0.424   1.504  0.2887 -0.0369  0.4793
  835SOL    HW1 2504   2.689   0.428   1.522 -0.4047  1.2412  0.5961
  835SOL    HW2 2505   2.818   0.329   1.527 -2.9634  1.3087  0.7216
  836SOL     OW 2506   0.405   2.041   0.517 -0.0483 -0.5775 -0.1525
  836SOL    HW1 2507   0.328   2.083   0.464  2.8387  0.3957  1.0806
  836SOL    HW2 2508   0.478   2.013   0.451  1.0200  1.6579 -0.8193
  837SOL     OW 2509   2.142   1.880   2.112  0.2832 -0.0003 -0.1275
  837SOL    HW1 2510   2.125   1.938   2.029  0.4272 -0.6185 -1.8312
  837SOL    HW2 2511   2.188   1.936   2.185  1.6695  0.1519  0.6385
  838SOL     OW 2512   0.025   1.324   1.726 -0.5002 -0.3005 -0.0281
  838SOL    HW1 2513   0.128   1.301   1.727  0.9723 -2.5340  0.3170
  838SOL    HW2 2514   0.001   1.374   1.811 -0.2370  0.2877  1.7902
  839SOL     OW 2515   0.339   0.279   0.763  0.2631  0.4511  0.5321
  839SOL    HW1 2516   0.263   0.282   0.830 -1.1043  1.0215  1.7917
  839SOL    HW2 2517   0.428   0.308   0.797 -0.5001  0.6283 -1.1035
  840SOL     OW 2518   2.864   0.301   2.695  0.4605  0.0696  0.4610
  840SOL    HW1 2519   2.963   0.309   2.682 -3.5170  1.8840 -0.6049
  840SOL    HW2 2520   2.847   0.278   2.798  1.3347  0.9746  1.2574
  841SOL     OW 2521   0.516   2.852   0.163  0.1162 -0.6427 -0.5336
  841SOL    HW1 2522   0.420   2.839   0.124  1.4085  2.7430  0.6437
  841SOL    HW2 2523   0.513   2.857   0.265  1.0587  0.4115  1.4863
  842SOL     OW 2524   1.010   0.154   0.851  0.3247  0.3573  0.0942
  842SOL    HW1 2525   0.910   0.170   0.841  1.8614  1.5726 -0.6190
  842SOL    HW2 2526   1.028   0.071   0.917  0.8857 -1.9041 -0.6110
  843SOL     OW 2527   0.282   1.026   2.719  0.2945  0.0693 -0.0279
  843SOL    HW1 2528   0.238   0.937   2.716 -0.1481  6.0998  0.1540
  843SOL    HW2 2529   0.352   1.030   2.646 -0.6761 -1.8068 -0.2598
  844SOL     OW 2530   0.785   2.290   2.381  0.2303  0.1224  0.3614
  844SOL    HW1 2531   0.726   2.312   2.296  1.9012  1.5651 -1.4840
  844SOL    HW2 2532   0.878   2.269   2.346  2.6641  3.0518  2.3982
  845SOL     OW 2533   2.175   2.727   2.616 -0.5594 -0.5167  0.5812
  845SOL    HW1 2534   2.246   2.749   2.687 -1.5151  0.3318  0.3502
  845SOL    HW2 2535   2.169   2.816   2.568  0.7162  1.7305  1.0205
  846SOL     OW 2536   1.719   1.819   2.129  0.0312 -0.1560 -0.7480
  846SOL    HW1 2537   1.803   1.763   2.113  1.5066  0.0126  0.1927
  846SOL    HW2 2538   1.632   1.762   2.133 -1.4050 -3.1596 -1.0793
  847SOL     OW 2539   2.818   3.014   2.925  0.3341 -0.1588 -0.3224
  847SOL    HW1 2540   2.888   3.007   2.852 -1.0613 -0.2098 -1.0418
  847SOL    HW2 2541   2.862   3.063   3.005 -1.0706 -0.9470  0.6386
  848SOL     OW 2542   0.090   0.672   0.338 -0.2797  0.5732 -0.4024
  848SOL    HW1 2543   0.018   0.737   0.368  0.4291  1.2511 -3.0306
  848SOL    HW2 2544   0.166   0.670   0.405  2.0036  0.3120 -1.0480
  849SOL     OW 2545   1.332   0.090   2.225 -0.2504  0.3606  0.2657
  849SOL    HW1 2546   1.297   0.042   2.305  0.9149  1.7474  3.2585
  849SOL    HW2 2547   1.256   0.139   2.187 -0.7024 -0.6051  0.7454
  850SOL     OW 2548   0.500   0.890   0.528 -0.0742 -0.3194 -0.1284
  850SOL    HW1 2549   0.489   0.850   0.437  0.0222 -1.1559 -0.9812
  850SOL    HW2 2550   0.592   0.925   0.557 -2.0312  0.3927  0.2515
  851SOL     OW 2551   0.383   1.339   0.330  0.2645 -0.2884 -0.6350
  851SOL    HW1 2552   0.400   1.435   0.288  1.3535  2.6878 -0.5863
  851SOL    HW2 2553   0.470   1.291   0.348 -2.5926 -1.7700 -0.7046
  852SOL     OW 2554   1.386   0.897   1.959  0.1588  0.4848 -0.1712
  852SOL    HW1 2555   1.415   0.984   1.926 -1.2557 -3.1195  0.9878
  852SOL    HW2 2556   1.464   0.861   2.012  0.7626  1.3867 -0.1471
  853SOL     OW 2557   2.644   1.387   0.377  0.5375  0.5115  0.7981
  853SOL    HW1 2558   2.730   1.398   0.432  2.7189  1.9755  1.1116
  853SOL    HW2 2559   2.660   1.331   0.291  1.1673  4.0779 -0.0457
  854SOL     OW 2560   1.040   1.013   2.367 -0.4936  0.3095 -0.2616
  854SOL    HW1 2561   0.971   1.011   2.437  0.5416  1.8345 -1.1813
  854SOL    HW2 2562   1.072   0.918   2.352  1.0663 -0.1506  1.7529
  855SOL     OW 2563   0.288   2.778   0.028 -0.5706  0.5090  0.4701
  855SOL    HW1 2564   0.221   2.854   0.017  2.6022 -0.5692  1.1377
  855SOL    HW2 2565   0.250   2.687   3.099 -0.9771  1.0056  1.3790
  856SOL     OW 2566   1.170   0.771   2.324 -1.1027  0.7492 -0.6754
  856SOL    HW1 2567   1.209   0.747   2.236  0.6978  1.0466  0.2508
  856SOL    HW2 2568   1.146   0.682   2.375 -2.8433 -0.7273 -1.3496
  857SOL     OW 2569   1.413   0.844   2.467  0.0320  0.1217 -0.4996
  857SOL    HW1 2570   1.465   0.780   2.408  0.4429 -2.0147  0.1959
  857SOL    HW2 2571   1.322   0.868   2.431  0.2680  0.0183  0.4797
  858SOL     OW 2572   3.080   1.047   2.248 -0.1736  0.5333  0.5276
  858SOL    HW1 2573   0.081   1.047   2.232  0.4264 -0.9359 -1.4298
  858SOL    HW2 2574   3.060   1.069   2.343 -1.2558  0.8133  0.3869
  859SOL     OW 2575   2.418   0.178   0.647 -0.3550 -0.5448  0.0477
  859SOL    HW1 2576   2.502   0.232   0.675  0.4210 -0.3432 -0.2556
  859SOL    HW2 2577   2.374   0.221   0.567  3.2363 -1.0748 -3.1022
  860SOL     OW 2578   1.812   2.887   0.364 -0.1231 -0.0272 -0.1535
  860SOL    HW1 2579   1.773   2.959   0.418 -0.4054 -1.3888 -0.3451
  860SOL    HW2 2580   1.859   2.817   0.426  0.0246  0.7906  1.8066
  861SOL     OW 2581   1.361   0.336   1.192  0.2924  0.1074  0.2621
  861SOL    HW1 2582   1.341   0.423   1.241 -1.5784  0.2783 -1.4822
  861SOL    HW2 2583   1.291   0.322   1.118 -0.5396  0.4997  0.5560
  862SOL     OW 2584   1.308   0.182   2.519 -0.1633  0.1772 -0.3456
  862SOL    HW1 2585   1.406   0.154   2.536  3.4852 -1.0697 -1.3887
  862SOL    HW2 2586   1.309   0.260   2.455 -1.6708 -0.4482  3.1040
  863SOL     OW 2587   2.906   2.915   0.802  0.1355 -0.5385 -0.1522
  863SOL    HW1 2588   2.827   2.879   0.751 -0.2163 -0.7264 -0.0252
  863SOL    HW2 2589   2.957   2.840   0.850 -0.9741  4.0554 -1.7929
  864SOL     OW 2590   2.379   0.096   2.314  0.4592 -0.1314 -0.2342
  864SOL    HW1 2591   2.405   3.101   2.310  1.4372  1.9352  1.0840
  864SOL    HW2 2592   2.333   0.116   2.405  0.9849  0.1425  0.5785
  865SOL     OW 2593   1.184   1.273   1.968  0.3161  0.4146 -0.3842
  865SOL    HW1 2594   1.102   1.246   1.918  0.7966  0.6526 -1.6894
  865SOL    HW2 2595   1.263   1.288   1.905 -0.7460  2.0743  0.8828
  866SOL     OW 2596   1.899   2.539   0.972  0.4608 -0.3971 -0.2921
  866SOL    HW1 2597   1.813   2.592   0.996 -1.5202  2.4066  2.1302
  866SOL    HW2 2598   1.917   2.457   1.027 -1.6454  0.5971  0.3206
  867SOL     OW 2599   2.166   3.037   0.523  0.1309  0.2628 -0.0897
  867SOL    HW1 2600   2.245   3.014   0.583 -1.6595 -0.3950 -4.7527
  867SOL    HW2 2601   2.198   0.006   0.455 -0.0881 -1.9783 -0.3493
  868SOL     OW 2602   3.068   2.217   1.588 -0.0800 -0.1108 -0.1399
  868SOL    HW1 2603   0.017   2.185   1.505  0.9479  2.1145  2.4421
  868SOL    HW2 2604   0.019   2.293   1.637 -1.0836 -1.6589 -0.2309
  869SOL     OW 2605   2.121   2.303   2.219  0.2648  0.4637  0.1793
  869SOL    HW1 2606   2.137   2.232   2.288  1.0620  1.3604 -1.8443
  869SOL    HW2 2607   2.093   2.390   2.262 -0.4390 -1.9360 -2.6754
  870SOL     OW 2608   1.427   1.326   0.713  0.0713  0.8173 -0.7119
  870SOL    HW1 2609   1.496   1.402   0.708  3.4038 -1.5254 -1.2434
  870SOL    HW2 2610   1.479   1.243   0.747 -0.2082 -0.7685 -1.4330
  871SOL     OW 2611   2.925   1.794   2.033 -0.4292 -0.1265  0.2406
  871SOL    HW1 2612   2.884   1.888   2.053  0.2648  0.0981  2.0976
  871SOL    HW2 2613   2.919   1.774   1.936  0.7236  1.8630 -0.4218
  872SOL     OW 2614   0.981   1.525   2.702 -0.3278  0.2402  0.3820
  872SOL    HW1 2615   0.920   1.556   2.625 -1.0416  1.3333 -0.3977
  872SOL    HW2 2616   1.033   1.440   2.670  1.1684 -1.0308 -1.1529
  873SOL     OW 2617   0.580   1.237   1.771 -0.0954 -0.8132  0.0556
  873SOL    HW1 2618   0.624   1.334   1.752  5.5720  0.7423 -0.1493
  873SOL    HW2 2619   0.619   1.205   1.860 -0.4552  2.6448 -0.6301
  874SOL     OW 2620   1.766   1.165   1.847 -0.2584  0.1492 -0.5596
  874SOL    HW1 2621   1.771   1.162   1.746  0.2831  0.0944  0.8015
  874SOL    HW2 2622   1.821   1.087   1.888 -1.2125 -1.1445 -2.6537
  875SOL     OW 2623   2.885   3.089   0.065 -0.6077 -0.1012  0.3463
  875SOL    HW1 2624   2.851   3.000   0.100  1.8259  3.3185 -0.4366
  875SOL    HW2 2625   2.935   0.040   0.135  0.2228 -2.1436 -0.4921
  876SOL     OW 2626   0.872   1.173   0.341  0.1703  0.7327 -0.0503
  876SOL    HW1 2627   0.871   1.073   0.331  0.1400  1.7165  1.2609
  876SOL    HW2 2628   0.963   1.212   0.368 -1.6626 -0.3443  0.3007
  877SOL     OW 2629   2.704   2.805   0.668 -0.4125 -0.5594  0.5693
  877SOL    HW1 2630   2.629   2.840   0.726 -1.9341  0.8023  0.0610
  877SOL    HW2 2631   2.680   2.734   0.601 -3.1520  3.7791 -1.9363
  878SOL     OW 2632   2.076   1.748   0.610  0.3015 -0.0684 -0.2272
  878SOL    HW1 2633   2.146   1.759   0.534 -1.0503  1.2974 -0.9766
  878SOL    HW2 2634   1.993   1.807   0.595 -0.9674 -0.6606  2.3682
  879SOL     OW 2635   2.611   1.631   1.413  0.5011 -0.0014  0.1766
  879SOL    HW1 2636   2.702   1.662   1.379 -0.8213  1.0582  0.3742
  879SOL    HW2 2637   2.614   1.538   1.458 -1.1620 -0.0066  0.6321
  880SOL     OW 2638   0.435   2.079   0.936  0.0472  0.9720  0.5985
  880SOL    HW1 2639   0.468   2.022   1.015 -1.2419  2.5767 -0.9584
  880SOL    HW2 2640   0.420   2.017   0.856  0.9980  0.3750  1.3487
  881SOL     OW 2641   0.830   0.519   1.344  0.2820 -0.1891 -0.5192
  881SOL    HW1 2642   0.815   0.619   1.314 -0.9477 -0.4371 -2.0735
  881SOL    HW2 2643   0.757   0.499   1.413  0.4994 -0.5832  1.2213
  882SOL     OW 2644   2.332   1.306   1.188 -0.2903 -0.5143  0.5686
  882SOL    HW1 2645   2.283   1.284   1.098 -0.3214 -0.1219 -1.5650
  882SOL    HW2 2646   2.431   1.292   1.176  0.3983 -2.2010 -0.3363
  883SOL     OW 2647   1.467   0.181   1.729 -0.0922 -0.0488  0.1259
  883SOL    HW1 2648   1.425   0.153   1.813 -0.2035  0.6987 -1.9084
  883SOL    HW2 2649   1.503   0.100   1.677 -0.1592 -0.3426 -1.1974
  884SOL     OW 2650   2.797   0.250   2.041 -0.6993  0.2692  0.2047
  884SOL    HW1 2651   2.751   0.318   2.097  1.7760 -0.3347  0.5678
  884SOL    HW2 2652   2.880   0.298   2.004  0.6887  0.5981 -1.6598
  885SOL     OW 2653   1.293   1.616   2.979  0.2399 -0.2830 -0.4506
  885SOL    HW1 2654   1.203   1.654   2.952  5.7513  2.1864 -0.3447
  885SOL    HW2 2655   1.353   1.611   2.896 -1.8924 -1.9136 -2.4502
  886SOL     OW 2656   1.926   0.368   3.080 -0.0780 -0.0162  0.4070
  886SOL    HW1 2657   1.996   0.397   0.048  2.4317 -1.2098 -0.1677
  886SOL    HW2 2658   1.969   0.294   3.021  0.4239 -1.0483  0.8681
  887SOL     OW 2659   1.461   3.006   1.592 -0.0603  0.4473  0.1964
  887SOL    HW1 2660   1.520   3.047   1.526  0.5251 -1.5598  3.0315
  887SOL    HW2 2661   1.475   2.905   1.595 -1.3803  1.7030 -0.5779
  888SOL     OW 2662   1.953   1.689   2.101 -0.5904  0.2198 -0.5216
  888SOL    HW1 2663   1.967   1.648   2.006  3.0161 -2.3482 -1.1371
  888SOL    HW2 2664   2.018   1.764   2.118  0.6313 -0.3614  3.6123
  889SOL     OW 2665   2.147   2.332   0.575  0.6959  0.4220 -0.1349
  889SOL    HW1 2666   2.193   2.259   0.519  0.3277  0.6035  1.6769
  889SOL    HW2 2667   2.155   2.425   0.525  0.7812  2.5047 -2.5411
  890SOL     OW 2668   1.573   2.048   0.440 -0.1126 -0.6440 -0.0183
  890SOL    HW1 2669   1.490   2.031   0.381 -0.0377  2.3317 -1.2362
  890SOL    HW2 2670   1.617   1.958   0.467 -1.0913 -0.1190  4.5819
  891SOL     OW 2671   2.686   0.837   0.098 -0.1804  0.3498 -0.1055
  891SOL    HW1 2672   2.611   0.901   0.121 -1.9906 -1.7620 -0.1826
  891SOL    HW2 2673   2.761   0.885   0.053 -3.7121 -1.0381  1.0402
  892SOL     OW 2674   2.235   1.038   2.849 -0.5264  0.1270 -0.1019
  892SOL    HW1 2675   2.258   1.136   2.836  0.2050 -1.1325  1.4006
  892SOL    HW2 2676   2.178   1.010   2.766 -0.1115  1.2739  1.6063
  893SOL     OW 2677   1.705   2.626   1.573 -0.1818  0.3557  0.4330
  893SOL    HW1 2678   1.701   2.724   1.583  1.1553  0.2335 -1.6716
  893SOL    HW2 2679   1.802   2.594   1.568 -1.7245 -0.9065  0.8164
  894SOL     OW 2680   2.721   2.967   0.431 -0.3817  0.6765  0.5888
  894SOL    HW1 2681   2.734   2.926   0.340  2.7514  1.3589  0.2014
  894SOL    HW2 2682   2.715   2.901   0.512  2.8662 -0.3850  1.1749
  895SOL     OW 2683   2.308   2.328   2.916  0.0838 -0.1984 -0.2651
  895SOL    HW1 2684   2.337   2.294   2.821 -1.1436 -1.0506 -3.8098
  895SOL    HW2 2685   2.210   2.356   2.918  0.9559 -0.7833  1.1873
  896SOL     OW 2686   2.230   0.136   2.541 -0.1941  0.1600 -0.3046
  896SOL    HW1 2687   2.238   0.187   2.629 -0.3545 -1.6505 -0.7194
  896SOL    HW2 2688   2.136   0.149   2.498 -2.9202  2.7862  0.7461
  897SOL     OW 2689   0.289   1.759   1.940 -1.1223 -0.6237  0.1148
  897SOL    HW1 2690   0.324   1.674   1.900 -1.9527  1.2175  0.1797
  897SOL    HW2 2691   0.353   1.834   1.929 -0.2457 -4.0799 -0.3870
  898SOL     OW 2692   2.418   1.691   1.608  0.3961  0.2137  0.4666
  898SOL    HW1 2693   2.487   1.667   1.537 -2.0911 -1.5242  0.1244
  898SOL    HW2 2694   2.440   1.772   1.664  1.3559 -1.2608  1.2671
  899SOL     OW 2695   1.765   2.593   1.259 -0.2768 -0.3192 -0.4003
  899SOL    HW1 2696   1.696   2.564   1.190 -2.5945 -0.9783 -0.0109
  899SOL    HW2 2697   1.726   2.674   1.307  0.4667 -1.4663 -1.4902
  900SOL     OW 2698   1.171   0.737   0.030 -0.2809 -0.1830 -0.7166
  900SOL    HW1 2699   1.195   0.788   3.052 -0.7708 -3.0409  2.3646
  900SOL    HW2 2700   1.071   0.734   0.044  0.1572  2.1657  0.0500
  901SOL     OW 2701   1.172   1.501   2.376 -0.0710  0.0961 -0.3224
  901SOL    HW1 2702   1.194   1.434   2.300 -0.5995  1.2521  1.5995
  901SOL    HW2 2703   1.147   1.591   2.343  1.1601  0.3651  1.5741
  902SOL     OW 2704   0.091   2.418   0.257 -0.3663  0.5250  0.0701
  902SOL    HW1 2705   0.140   2.336   0.219 -0.8803  0.6740  0.6461
  902SOL    HW2 2706   0.001   2.384   0.292 -3.8452  1.2889  0.3073
  903SOL     OW 2707   2.285   0.905   1.823  0.0111  0.0422  0.3199
  903SOL    HW1 2708   2.342   0.823   1.813 -0.0946  0.2861 -0.9402
  903SOL    HW2 2709   2.315   0.956   1.907  1.3501  0.5439 -2.5221
  904SOL     OW 2710   1.593   0.883   2.906 -0.3390 -0.1280  0.1820
  904SOL    HW1 2711   1.516   0.873   2.970 -1.6731  0.1424  0.5044
  904SOL    HW2 2712   1.679   0.850   2.955 -0.6716  1.1901 -2.9068
  905SOL     OW 2713   2.137   2.569   1.199 -0.1538 -0.1717  0.2286
  905SOL    HW1 2714   2.181   2.638   1.260 -2.2869  1.3776  0.2609
  905SOL    HW2 2715   2.197   2.547   1.114 -0.6109 -0.5003 -0.7010
  906SOL     OW 2716   1.618   2.017   2.962 -0.4527 -0.2126  0.4381
  906SOL    HW1 2717   1.575   1.975   3.047 -1.7402 -1.2121 -0.9342
  906SOL    HW2 2718   1.654   2.113   2.979  0.0122  5.3472  1.4202
  907SOL     OW 2719   0.765   2.592   0.594 -0.3568  0.1351 -0.2827
  907SOL    HW1 2720   0.670   2.575   0.629 -1.7447 -1.0131 -0.5867
  907SOL    HW2 2721   0.794   2.510   0.540  0.5725  0.9506 -4.7832
  908SOL     OW 2722   1.356   2.770   2.034 -0.0215  0.0290 -0.0861
  908SOL    HW1 2723   1.310   2.701   1.975 -1.1633 -0.5287  0.5745
  908SOL    HW2 2724   1.371   2.861   1.985  0.0559  1.9756  1.3325
  909SOL     OW 2725   1.710   0.424   1.401 -0.1869 -0.7307 -0.0741
  909SOL    HW1 2726   1.735   0.339   1.449  1.5729 -1.0900 -0.2694
  909SOL    HW2 2727   1.679   0.400   1.312  2.0279 -0.1201  0.0208
  910SOL     OW 2728   1.240   0.915   2.931  0.4007 -0.5374  0.2377
  910SOL    HW1 2729   1.141   0.933   2.938  0.7879 -1.0794 -2.5507
  910SOL    HW2 2730   1.258   0.892   2.830 -0.4232  2.4411  0.6144
  911SOL     OW 2731   2.797   0.611   0.131  0.2693 -0.5091  0.4281
  911SOL    HW1 2732   2.754   0.703   0.114  1.4230 -0.1538  2.4176
  911SOL    HW2 2733   2.759   0.579   0.220  2.5857 -1.5868 -0.8976
  912SOL     OW 2734   0.060   2.182   3.060 -0.2949  0.1216  0.3033
  912SOL    HW1 2735   0.102   2.103   3.005  2.9719 -2.5045 -0.3106
  912SOL    HW2 2736   0.100   2.183   0.048 -2.3948 -0.0035  0.0983
  913SOL     OW 2737   2.757   1.954   2.688  0.2546 -0.5983 -0.0178
  913SOL    HW1 2738   2.774   2.049   2.728 -1.8844  0.9652  3.5565
  913SOL    HW2 2739   2.789   1.884   2.757 -1.4068 -0.8260  0.8642
  914SOL     OW 2740   1.371   1.655   1.504  0.3021  0.4642  0.2162
  914SOL    HW1 2741   1.342   1.593   1.426 -0.0877 -0.0316  1.5908
  914SOL    HW2 2742   1.442   1.722   1.478 -0.1589  0.8171 -0.8180
  915SOL     OW 2743   0.689   2.757   2.169  0.1991 -0.7502  0.3204
  915SOL    HW1 2744   0.649   2.850   2.166  0.6398 -1.4881 -0.0358
  915SOL    HW2 2745   0.704   2.731   2.271 -1.7261  1.1906  0.1671
  916SOL     OW 2746   0.315   1.302   1.694  0.5772  0.1553  0.0415
  916SOL    HW1 2747   0.376   1.231   1.738 -3.5093 -0.6429  0.8580
  916SOL    HW2 2748   0.314   1.296   1.592  1.9626  0.0046  3.2285
  917SOL     OW 2749   2.266   0.126   0.335  0.2363 -0.1073 -0.4093
  917SOL    HW1 2750   2.242   0.090   0.244 -0.4298 -1.1989  1.3869
  917SOL    HW2 2751   2.363   0.122   0.363 -0.9275  1.2734  1.5409
  918SOL     OW 2752   1.630   2.577   2.316  0.1446 -0.2375 -0.0092
  918SOL    HW1 2753   1.716   2.567   2.369  0.7654  1.2015  0.1115
  918SOL    HW2 2754   1.570   2.500   2.342  2.0082  1.3847 -2.4973
  919SOL     OW 2755   1.690   2.571   1.850 -0.0110  0.1909  0.5083
  919SOL    HW1 2756   1.721   2.622   1.929 -0.1230 -0.7378 -1.9888
  919SOL    HW2 2757   1.687   2.634   1.768  0.3052  0.2752  0.3597
  920SOL     OW 2758   0.777   1.002   3.102 -0.3477  0.4958  0.0250
  920SOL    HW1 2759   0.780   1.073   3.030  0.8183  0.8021  1.8636
  920SOL    HW2 2760   0.784   1.041   0.091  0.6717  0.2173 -1.7694
  921SOL     OW 2761   0.026   0.539   2.677  0.5273 -0.2266 -0.3927
  921SOL    HW1 2762   3.057   0.572   2.612 -0.8798  0.7039  0.8973
  921SOL    HW2 2763   0.122   0.569   2.652 -0.6701 -1.4832 -0.5442
  922SOL     OW 2764   0.758   1.857   0.544  0.1192  0.1386  0.4618
  922SOL    HW1 2765   0.845   1.809   0.521  0.2011  0.1302 -1.3927
  922SOL    HW2 2766   0.774   1.896   0.637 -0.3949 -0.0176 -0.8414
  923SOL     OW 2767   0.309   1.101   2.035  0.1623  0.5019  0.1205
  923SOL    HW1 2768   0.290   1.038   1.954  0.7866 -0.6417 -1.9177
  923SOL    HW2 2769   0.286   1.198   2.020  0.5601 -1.1838 -2.1767
  924SOL     OW 2770   1.487   2.772   2.788  0.0684 -0.0473  0.0144
  924SOL    HW1 2771   1.504   2.691   2.727  1.3935  1.2762  2.0768
  924SOL    HW2 2772   1.406   2.756   2.842  0.5369 -0.9938 -1.8728
  925SOL     OW 2773   2.646   1.351   1.464 -0.1983 -0.1078 -0.1669
  925SOL    HW1 2774   2.572   1.325   1.530  1.1273 -0.4215 -0.2298
  925SOL    HW2 2775   2.642   1.307   1.368  0.4834  0.1335 -3.4653
  926SOL     OW 2776   2.010   0.706   1.582 -0.3287  0.3305  0.3859
  926SOL    HW1 2777   1.965   0.703   1.495  3.1130  0.6808  0.6696
  926SOL    HW2 2778   2.054   0.612   1.594  0.6218 -3.8550 -0.4103
  927SOL     OW 2779   2.390   2.814   1.631 -0.2281  0.0098  0.4855
  927SOL    HW1 2780   2.429   2.908   1.627  2.2485  3.2291 -1.2898
  927SOL    HW2 2781   2.387   2.774   1.539 -1.0678  0.8871  1.6551
  928SOL     OW 2782   0.311   0.824   2.306  0.2305  0.0635 -0.1965
  928SOL    HW1 2783   0.286   0.919   2.306  0.4491 -2.3489 -2.8217
  928SOL    HW2 2784   0.412   0.807   2.300 -1.7131 -0.2643 -0.4122
  929SOL     OW 2785   2.194   0.149   0.835  0.5814 -0.2481 -0.3035
  929SOL    HW1 2786   2.270   0.135   0.768 -1.9904  0.3727 -1.0207
  929SOL    HW2 2787   2.237   0.181   0.923  3.2821 -0.0475  2.7295
  930SOL     OW 2788   2.896   2.996   1.805  0.2496  0.0945 -0.7507
  930SOL    HW1 2789   2.868   2.963   1.896 -3.4414  2.0786 -1.8897
  930SOL    HW2 2790   2.955   2.929   1.751 -0.0009 -1.1672 -1.4914
  931SOL     OW 2791   2.032   0.886   0.475  0.5752 -0.0034 -0.5599
  931SOL    HW1 2792   2.026   0.905   0.574  1.6184  1.1282  0.8332
  931SOL    HW2 2793   2.103   0.941   0.428  0.9357 -1.4638 -2.1387
  932SOL     OW 2794   2.572   1.230   1.825 -0.0850  0.4509 -0.0265
  932SOL    HW1 2795   2.526   1.191   1.910  0.4224  0.4741  1.4642
  932SOL    HW2 2796   2.600   1.151   1.771  1.3058  1.5874  1.3419
  933SOL     OW 2797   2.832   2.329   1.490  0.4473 -0.2716 -0.0292
  933SOL    HW1 2798   2.760   2.327   1.566 -1.1943 -0.7437  2.0615
  933SOL    HW2 2799   2.916   2.282   1.526  1.7638  0.0990 -0.7463
  934SOL     OW 2800   0.515   2.121   1.317 -0.1369  0.2094 -0.3298
  934SOL    HW1 2801   0.613   2.150   1.332  1.8565  2.7174 -0.4607
  934SOL    HW2 2802   0.456   2.199   1.328  3.3575 -0.8386 -2.7751
  935SOL     OW 2803   2.722   1.630   2.148 -0.7818 -0.2827 -0.0381
  935SOL    HW1 2804   2.796   1.696   2.123  3.0234 -0.0826 -1.0985
  935SOL    HW2 2805   2.656   1.618   2.066  0.2249 -0.8893 -2.3700
  936SOL     OW 2806   2.330   1.633   2.154  0.4228 -1.0245  0.2317
  936SOL    HW1 2807   2.344   1.595   2.062 -0.9017 -2.7306  0.2589
  936SOL    HW2 2808   2.280   1.718   2.152 -1.7515 -2.0257  2.4532
  937SOL     OW 2809   2.179   1.530   1.685  0.5030  0.3347 -0.5581
  937SOL    HW1 2810   2.163   1.449   1.634 -1.0534  5.3147  1.9321
  937SOL    HW2 2811   2.248   1.594   1.645 -3.2231 -0.7107 -0.1698
  938SOL     OW 2812   0.526   2.374   2.677  0.6118 -0.0382 -0.3649
  938SOL    HW1 2813   0.593   2.437   2.631  2.4399 -0.1383 -1.8159
  938SOL    HW2 2814   0.489   2.408   2.769 -0.0004 -0.0881  0.7294
  939SOL     OW 2815   2.500   0.943   2.948  0.0663  0.4169  0.1000
  939SOL    HW1 2816   2.408   0.955   2.904  0.1367 -0.0979 -0.2577
  939SOL    HW2 2817   2.530   1.028   2.997 -1.9139 -0.1245 -2.0737
  940SOL     OW 2818   1.200   1.665   0.635 -0.1464  0.4614  0.0161
  940SOL    HW1 2819   1.237   1.569   0.608 -0.9285 -0.9699  1.6352
  940SOL    HW2 2820   1.243   1.702   0.721 -0.3090  1.2721  1.6009
  941SOL     OW 2821   1.659   2.785   2.531 -0.0847  0.5221 -0.3187
  941SOL    HW1 2822   1.619   2.715   2.594 -0.4181 -1.1398 -0.0933
  941SOL    HW2 2823   1.591   2.842   2.484  1.9158  2.1230  0.0635
  942SOL     OW 2824   0.821   2.375   0.426 -0.1499 -0.2568 -0.0109
  942SOL    HW1 2825   0.837   2.390   0.327 -2.4989 -0.6781  0.1812
  942SOL    HW2 2826   0.862   2.289   0.460 -0.7952 -0.3997  1.2078
  943SOL     OW 2827   1.682   0.007   1.831  0.1297  0.2929 -0.5556
  943SOL    HW1 2828   1.624   0.024   1.911 -0.4757 -0.7614 -0.6392
  943SOL    HW2 2829   1.754   0.076   1.802  1.2155  1.0591 -2.1447
  944SOL     OW 2830   0.858   1.436   2.961  0.4300 -0.0178 -0.3412
  944SOL    HW1 2831   0.878   1.483   2.875 -1.3378 -0.3882  0.5990
  944SOL    HW2 2832   0.810   1.348   2.935 -2.0969  0.9406  0.1909
  945SOL     OW 2833   0.096   2.378   0.942  0.5531  0.2926  0.7983
  945SOL    HW1 2834   0.004   2.429   0.921 -1.3543  3.3136  0.4481
  945SOL    HW2 2835   0.085   2.278   0.963 -0.7484 -0.0847  1.0983
  946SOL     OW 2836   0.779   1.173   2.872 -0.1077 -0.1157 -0.1148
  946SOL    HW1 2837   0.847   1.186   2.798 -0.5416 -0.3824 -1.0956
  946SOL    HW2 2838   0.683   1.155   2.839 -1.6218  0.4665 -1.5100
  947SOL     OW 2839   2.805   0.139   1.726 -0.3691  0.3178 -0.1801
  947SOL    HW1 2840   2.881   0.185   1.778 -1.1750  0.6335  1.9925
  947SOL    HW2 2841   2.797   0.034   1.733 -1.2989 -2.3059  0.4802
  948SOL     OW 2842   3.087   1.839   1.062 -0.8988 -0.1838 -0.2039
  948SOL    HW1 2843   0.074   1.790   1.031  1.3831 -0.0488  0.6635
  948SOL    HW2 2844   3.094   1.857   1.163  2.2282  1.3853  0.1175
  949SOL     OW 2845   1.072   1.063   1.647 -1.2168  0.0643 -0.6947
  949SOL    HW1 2846   1.131   1.076   1.565  0.1687  3.1427 -0.7966
  949SOL    HW2 2847   1.036   1.154   1.681 -0.4436  1.7726 -1.1046
  950SOL     OW 2848   3.087   0.926   1.225  0.0941 -0.7415 -0.1911
  950SOL    HW1 2849   3.017   0.998   1.254 -1.4702  3.8176  1.9414
  950SOL    HW2 2850   0.049   0.973   1.160  0.6693 -1.1479 -0.8421
  951SOL     OW 2851   0.333   2.024   2.345  0.7032  0.0513  0.3007
  951SOL    HW1 2852   0.354   1.948   2.410 -3.7515  0.1128 -0.8992
  951SOL    HW2 2853   0.355   2.112   2.388  0.0510  1.0384 -2.0744
  952SOL     OW 2854   1.412   1.961   0.237  0.3976  0.3094 -0.3228
  952SOL    HW1 2855   1.326   2.015   0.238 -0.1410  2.8123  1.0326
  952SOL    HW2 2856   1.402   1.874   0.188  0.6042  1.9923  0.6362
  953SOL     OW 2857   1.179   0.524   0.217 -0.1905  0.4112  0.0904
  953SOL    HW1 2858   1.118   0.455   0.175  0.8863 -1.5518  0.2164
  953SOL    HW2 2859   1.223   0.582   0.143 -1.4570 -0.4239  1.6724
  954SOL     OW 2860   2.038   0.961   0.740  0.3343  0.4442  0.7163
  954SOL    HW1 2861   2.137   0.967   0.757  0.0655  1.4585 -2.1187
  954SOL    HW2 2862   1.993   0.942   0.824 -0.5914  2.2611 -3.8079
  955SOL     OW 2863   2.359   1.431   0.316 -0.1475  0.1750  0.3423
  955SOL    HW1 2864   2.280   1.462   0.373  0.1455 -0.2573 -0.7365
  955SOL    HW2 2865   2.449   1.468   0.342  1.1130  0.5830  1.0969
  956SOL     OW 2866   0.711   0.658   1.727 -0.2240  0.2101  0.7581
  956SOL    HW1 2867   0.612   0.690   1.722  0.2463 -0.8033  0.2290
  956SOL    HW2 2868   0.778   0.733   1.695  0.2361  1.5966 -1.1983
  957SOL     OW 2869   1.748   0.786   0.957  0.0251 -0.4367 -0.8085
  957SOL    HW1 2870   1.820   0.840   1.012  2.2318 -1.2934  2.2583
  957SOL    HW2 2871   1.656   0.797   1.006 -0.7772  0.8404  0.7783
  958SOL     OW 2872   0.470   1.872   0.737  0.2308 -0.1414 -0.0202
  958SOL    HW1 2873   0.434   1.779   0.712  2.3762 -3.1881 -1.8357
  958SOL    HW2 2874   0.450   1.936   0.665 -0.5979  0.3358  0.3180
  959SOL     OW 2875   1.999   1.822   1.520  0.2139  0.3545  0.2819
  959SOL    HW1 2876   2.038   1.841   1.609 -3.2273 -0.8798 -5.6865
  959SOL    HW2 2877   2.049   1.747   1.471  0.1651 -1.4075  2.7286
  960SOL     OW 2878   3.097   1.886   2.685 -0.2420 -0.2672 -0.1932
  960SOL    HW1 2879   3.017   1.869   2.748  0.0659  1.8490  0.1495
  960SOL    HW2 2880   0.039   1.801   2.649  0.2850  0.1615  0.0662
  961SOL     OW 2881   0.950   1.338   0.806  0.6899 -0.4280 -0.0706
  961SOL    HW1 2882   0.960   1.412   0.877 -1.5792 -3.0796  2.0543
  961SOL    HW2 2883   0.999   1.253   0.828  0.4187  2.4870 -1.9433
  962SOL     OW 2884   0.974   0.877   0.625 -0.3111  0.2123 -0.2619
  962SOL    HW1 2885   1.027   0.888   0.715  1.3697  3.4362  1.6771
  962SOL    HW2 2886   1.039   0.875   0.547  0.9579 -0.4825 -0.3827
  963SOL     OW 2887   1.200   1.878   1.945  0.3581 -0.3676 -0.2268
  963SOL    HW1 2888   1.129   1.817   1.992 -0.0077  0.7429 -0.0801
  963SOL    HW2 2889   1.284   1.833   1.926 -1.2673  1.6769 -1.1323
  964SOL     OW 2890   0.168   2.787   2.476 -0.7599  0.4863  0.0888
  964SOL    HW1 2891   0.251   2.734   2.507  0.4666 -1.2679  2.2814
  964SOL    HW2 2892   0.101   2.798   2.554 -1.1239  1.9509  1.7958
  965SOL     OW 2893   0.773   2.007   0.126 -0.5732 -0.4506  0.0950
  965SOL    HW1 2894   0.789   2.107   0.145  0.1435  2.2589 -0.1963
  965SOL    HW2 2895   0.770   1.993   0.027 -0.5164 -4.6545  1.7804
  966SOL     OW 2896   0.021   1.779   3.073 -0.7869 -0.5293  0.1331
  966SOL    HW1 2897   3.055   1.797   0.045  0.7788 -1.1836  1.2583
  966SOL    HW2 2898   0.069   1.689   3.086 -1.4142 -0.7250 -4.3598
  967SOL     OW 2899   1.942   2.645   2.728 -0.1310 -0.1077  0.0340
  967SOL    HW1 2900   2.033   2.663   2.684 -1.4856  0.3395  1.9829
  967SOL    HW2 2901   1.929   2.703   2.810 -0.1764 -0.5579  1.0048
  968SOL     OW 2902   2.440   2.870   0.860 -0.3409  0.2635 -0.1862
  968SOL    HW1 2903   2.481   2.896   0.949 -2.6330  1.2765  2.4860
  968SOL    HW2 2904   2.393   2.780   0.871 -2.5203 -0.5871  0.2431
  969SOL     OW 2905   0.564   1.056   2.146  0.0905 -0.6097 -0.2055
  969SOL    HW1 2906   0.580   1.118   2.228  2.3268  0.8021  2.1749
  969SOL    HW2 2907   0.477   1.080   2.099 -1.0768 -0.5845 -2.0673
  970SOL     OW 2908   1.961   1.288   0.633  0.5074 -0.2655 -0.5128
  970SOL    HW1 2909   1.952   1.213   0.700  0.6364  0.3232 -0.4369
  970SOL    HW2 2910   2.059   1.294   0.598  0.6759 -1.6849 -1.0597
  971SOL     OW 2911   2.213   0.018   1.623 -0.3549  0.2703  0.0606
  971SOL    HW1 2912   2.304   3.094   1.659  1.2266  3.3800  2.4414
  971SOL    HW2 2913   2.218   0.028   1.523  2.2367  1.0577  1.2897
  972SOL     OW 2914   2.939   0.187   1.490  0.6712  0.2442 -1.0956
  972SOL    HW1 2915   2.886   0.144   1.566  0.2025 -2.0370 -2.1651
  972SOL    HW2 2916   3.019   0.237   1.536 -0.8048  0.9851  1.9608
  973SOL     OW 2917   0.051   0.275   2.666 -0.2254  0.1519 -0.0378
  973SOL    HW1 2918   0.136   0.243   2.711 -1.1039  0.8747 -1.5761
  973SOL    HW2 2919   0.047   0.377   2.678 -2.1559 -0.5297 -0.3827
  974SOL     OW 2920   2.374   1.047   2.032 -0.7739  0.2693 -0.1629
  974SOL    HW1 2921   2.316   1.098   2.103  2.9196  2.7806 -1.9243
  974SOL    HW2 2922   2.427   0.966   2.070 -1.0995 -0.2780  1.0735
  975SOL     OW 2923   1.063   0.656   1.474 -0.0904 -0.3530  0.4708
  975SOL    HW1 2924   0.980   0.618   1.425 -0.3679 -2.6815  1.4398
  975SOL    HW2 2925   1.033   0.715   1.554 -3.4090 -1.0886 -0.3429
  976SOL     OW 2926   0.654   1.521   1.767  0.0690 -0.1330 -0.3188
  976SOL    HW1 2927   0.701   1.578   1.837 -0.5080 -1.0063 -1.1644
  976SOL    HW2 2928   0.705   1.519   1.683  0.4508  1.4579 -0.3593
  977SOL     OW 2929   0.968   0.028   0.140  0.2307  0.2750  0.1694
  977SOL    HW1 2930   0.963   0.081   0.052  1.5502  1.5482 -1.7480
  977SOL    HW2 2931   1.060   0.018   0.180 -1.9048 -1.3033 -0.9021
  978SOL     OW 2932   2.514   0.832   2.125  0.0232 -0.8672 -0.0288
  978SOL    HW1 2933   2.442   0.771   2.164  1.1239  1.4227  3.1498
  978SOL    HW2 2934   2.554   0.894   2.199 -1.8229  2.0427  1.6898
  979SOL     OW 2935   1.374   0.386   1.981 -0.2524 -0.0240  0.8299
  979SOL    HW1 2936   1.273   0.408   1.969 -1.2146  2.4785  2.1410
  979SOL    HW2 2937   1.432   0.398   1.894 -1.0137 -1.6008 -2.3907
  980SOL     OW 2938   1.637   1.585   1.809 -0.5261  0.0683 -0.2425
  980SOL    HW1 2939   1.540   1.578   1.795  1.5209  0.5975  1.8471
  980SOL    HW2 2940   1.681   1.524   1.881  1.1909  0.4803 -0.7050
  981SOL     OW 2941   2.613   0.913   1.322 -0.3818 -0.0767  0.4472
  981SOL    HW1 2942   2.612   1.017   1.322  0.7458  0.6740 -0.0269
  981SOL    HW2 2943   2.646   0.883   1.413  0.8929  0.3300  0.3614
  982SOL     OW 2944   0.515   0.302   2.867 -0.1905  0.0111 -0.1995
  982SOL    HW1 2945   0.550   0.394   2.902  2.7536  0.7462 -3.0273
  982SOL    HW2 2946   0.575   0.217   2.894  1.5954 -0.7341  2.9230
  983SOL     OW 2947   2.210   0.511   2.903 -0.3240 -0.3203 -0.1919
  983SOL    HW1 2948   2.279   0.575   2.940  0.2800 -0.3189  0.4119
  983SOL    HW2 2949   2.164   0.458   2.975  0.7504  0.8195 -4.5491
  984SOL     OW 2950   1.087   3.054   1.808  0.2633 -0.0877  0.0258
  984SOL    HW1 2951   1.167   3.019   1.852 -2.5644 -0.1643 -1.9476
  984SOL    HW2 2952   1.004   2.999   1.819 -0.3904  0.3554  1.4330
  985SOL     OW 2953   1.575   2.048   2.067 -0.0769  0.1703 -0.1716
  985SOL    HW1 2954   1.625   1.959   2.090 -2.5081  0.4543  1.7752
  985SOL    HW2 2955   1.641   2.127   2.066 -0.7055  1.8255 -0.9870
  986SOL     OW 2956   2.138   0.360   1.315 -0.9762 -0.0302 -0.0398
  986SOL    HW1 2957   2.217   0.425   1.325 -0.9734  0.8745 -0.5789
  986SOL    HW2 2958   2.167   0.266   1.337 -0.6373  0.9624 -1.5980
  987SOL     OW 2959   2.595   1.256   1.205 -0.4365  0.0982  0.1474
  987SOL    HW1 2960   2.602   1.342   1.150 -0.7510 -1.7627  0.4933
  987SOL    HW2 2961   2.670   1.189   1.177  2.2137  2.3707  0.9468
  988SOL     OW 2962   2.333   2.118   1.637 -0.7649 -0.2802 -0.2896
  988SOL    HW1 2963   2.293   2.089   1.729 -1.0414 -0.5015  4.4021
  988SOL    HW2 2964   2.433   2.109   1.640  0.1347  0.7741  1.3464
  989SOL     OW 2965   1.129   2.429   0.124 -0.4515 -0.5826 -0.6144
  989SOL    HW1 2966   1.155   2.525   0.112 -1.1561 -0.2235 -2.3403
  989SOL    HW2 2967   1.143   2.397   0.221  0.0851  1.5118 -2.0344
  990SOL     OW 2968   1.746   1.112   2.915  0.9927 -0.4954 -0.7213
  990SOL    HW1 2969   1.780   1.101   3.012 -0.9666  1.4102  0.2272
  990SOL    HW2 2970   1.672   1.047   2.893  1.0799  1.3798  0.8658
  991SOL     OW 2971   1.262   0.154   0.464  0.2521  0.3829 -0.4010
  991SOL    HW1 2972   1.263   0.142   0.566  3.3309 -2.0329  1.4943
  991SOL    HW2 2973   1.324   0.229   0.431 -0.0191 -0.8036  0.0796
  992SOL     OW 2974   2.878   1.034   1.368  0.3920 -0.2011 -0.3900
  992SOL    HW1 2975   2.889   0.934   1.380  2.2485  1.0672 -1.7747
  992SOL    HW2 2976   2.917   1.074   1.455 -0.2078  1.5481  2.4451
  993SOL     OW 2977   2.673   0.806   1.549 -0.6583 -0.0626  0.0595
  993SOL    HW1 2978   2.593   0.749   1.562  0.1880 -0.0382  0.5011
  993SOL    HW2 2979   2.761   0.758   1.553  1.3598  0.5921  4.5984
  994SOL     OW 2980   0.606   2.153   2.793 -0.2905  0.0602 -0.0239
  994SOL    HW1 2981   0.606   2.251   2.759  1.4877  1.6282  1.1436
  994SOL    HW2 2982   0.526   2.105   2.764  0.7898  1.4368  2.6609
  995SOL     OW 2983   1.904   1.115   2.693 -0.6279 -0.3438 -0.4400
  995SOL    HW1 2984   1.974   1.041   2.691  0.0792 -0.1613  1.8428
  995SOL    HW2 2985   1.854   1.120   2.780  0.0391 -0.5556  0.7643
  996SOL     OW 2986   2.545   1.707   0.443 -0.6551 -0.3011 -0.3530
  996SOL    HW1 2987   2.569   1.699   0.543  1.0395 -1.2658  0.2829
  996SOL    HW2 2988   2.587   1.634   0.390 -0.5808  1.6795  0.2151
  997SOL     OW 2989   1.980   0.739   2.131  0.4928 -0.5708  0.3969
  997SOL    HW1 2990   2.023   0.746   2.039  0.2318 -1.3341  0.6212
  997SOL    HW2 2991   1.935   0.645   2.141 -2.5879 -0.8229  0.0111
  998SOL     OW 2992   2.542   1.047   0.214  0.0334  0.4182 -0.5695
  998SOL    HW1 2993   2.459   1.105   0.209 -0.5370  0.3719 -1.7855
  998SOL    HW2 2994   2.629   1.101   0.199  1.6675 -0.4580  2.2814
  999SOL     OW 2995   0.104   1.901   0.349  0.3522 -0.0944 -0.2031
  999SOL    HW1 2996   0.128   1.800   0.358 -0.2654 -1.5851  0.7157
  999SOL    HW2 2997   0.102   1.949   0.440  0.6505  1.1084  3.4867
 1000SOL     OW 2998   0.848   0.754   2.591  0.4980 -0.6933  0.4857
 1000SOL    HW1 2999   0.932   0.730   2.643 -3.2164  0.4707 -0.6170
 1000SOL    HW2 3000   0.845   0.713   2.498  0.7477 -2.9347  1.4148
   3.10215   3.10215   3.10215
