1000 SPC/Fw water molecules t= 369.00000 step= 369000
 3000
    1SOL     OW    1   2.474   2.684   1.629  0.2008  0.0209  0.4762
    1SOL    HW1    2   2.429   2.758   1.684  2.3518 -2.9392  1.9465
    1SOL    HW2    3   2.493   2.711   1.533  1.0141  1.0408 -0.5623
    2SOL     OW    4   2.408   2.502   0.455 -0.0369 -0.0015 -0.0442
    2SOL    HW1    5   2.480   2.501   0.384 -1.0099 -0.1160 -1.5482
    2SOL    HW2    6   2.362   2.596   0.448 -2.8897  3.9940  0.6204
    3SOL     OW    7   1.261   0.172   0.151  0.3977 -0.2158  0.0521
    3SOL    HW1    8   1.228   0.216   0.066 -0.0500  0.6428 -3.2520
    3SOL    HW2    9   1.328   0.100   0.136 -0.0291  1.4355  0.7586
    4SOL     OW   10   1.294   2.676   2.145  0.0762  0.4236  0.1225
    4SOL    HW1   11   1.302   2.593   2.198  1.4400 -0.2815  1.3809
    4SOL    HW2   12   1.246   2.653   2.058  0.8777 -0.4008  0.3458
    5SOL     OW   13   2.338   0.415   1.784  0.3649  0.1201 -0.2919
    5SOL    HW1   14   2.430   0.424   1.826  0.1243  0.7779  0.8912
    5SOL    HW2   15   2.281   0.340   1.830  0.2975 -1.1388  1.7757
    6SOL     OW   16   2.215   2.369   0.308  0.4500  0.7618 -0.8741
    6SOL    HW1   17   2.278   2.431   0.362  1.3202 -0.7756  3.8140
    6SOL    HW2   18   2.121   2.374   0.347 -1.2404 -1.7975  1.2175
    7SOL     OW   19   1.819   1.145   1.041 -0.2110  0.3216 -0.0801
    7SOL    HW1   20   1.720   1.133   1.045 -0.1859  0.0745  0.7888
    7SOL    HW2   21   1.854   1.163   1.133  1.6608 -0.5000 -4.6828
    8SOL     OW   22   0.972   1.352   1.201 -0.2740 -0.3037  0.1700
    8SOL    HW1   23   0.959   1.453   1.219 -0.7170  4.2352 -0.6446
    8SOL    HW2   24   0.892   1.308   1.160  1.8002 -0.6338  0.9644
    9SOL     OW   25   0.923   2.484   1.739  0.1711  0.6367 -0.9304
    9SOL    HW1   26   0.838   2.538   1.722 -0.1827  0.5420 -0.6509
    9SOL    HW2   27   0.898   2.384   1.719 -1.9466  0.2267  1.1548
   10SOL     OW   28   1.091   2.388   0.694 -0.1804  0.2437  0.4181
   10SOL    HW1   29   1.187   2.394   0.737  1.4377 -0.0502 -0.1052
   10SOL    HW2   30   1.076   2.462   0.625  0.8424  1.9616 -1.7067
   11SOL     OW   31   1.599   1.842   1.407 -0.3049  0.2838 -0.2674
   11SOL    HW1   32   1.529   1.902   1.450 -0.3394 -0.4523  1.1243
   11SOL    HW2   33   1.635   1.889   1.325  0.9225  1.5523 -0.1624
   12SOL     OW   34   2.622   0.500   2.220 -0.1175 -0.2049  0.0496
   12SOL    HW1   35   2.607   0.395   2.222  1.1238  0.4106  2.2381
   12SOL    HW2   36   2.688   0.524   2.147  0.0783 -1.6451  1.8899
   13SOL     OW   37   2.689   3.035   0.572 -0.6022 -0.3837 -0.0216
   13SOL    HW1   38   2.633   0.032   0.594 -1.6796  1.4516  0.1858
   13SOL    HW2   39   2.748   3.008   0.657  1.5501 -1.6392 -0.9305
   14SOL     OW   40   1.560   1.606   3.033 -0.1773  0.1546 -0.1126
   14SOL    HW1   41   1.652   1.648   3.046  3.9604 -0.3574 -0.1888
   14SOL    HW2   42   1.494   1.675   3.007  2.0563  2.1164 -0.0701
   15SOL     OW   43   2.305   2.556   1.453 -0.3080  0.6932 -0.5498
   15SOL    HW1   44   2.329   2.458   1.422 -0.9181 -1.7436  0.0549
   15SOL    HW2   45   2.367   2.583   1.527 -0.4872 -1.8782 -0.3601
   16SOL     OW   46   2.337   2.913   0.909 -0.2417 -0.1026  0.3054
   16SOL    HW1   47   2.330   3.016   0.920  1.8914 -1.0879 -0.6760
   16SOL    HW2   48   2.378   2.901   0.816  1.6387  0.9528 -1.1870
   17SOL     OW   49   0.824   0.283   1.346 -0.5257  0.4286  0.6748
   17SOL    HW1   50   0.719   0.285   1.351  0.2523 -0.4728 -0.5944
   17SOL    HW2   51   0.854   0.291   1.247  2.6878  0.1328  1.1205
   18SOL     OW   52   2.007   0.376   0.435 -0.1693 -0.3117  0.6500
   18SOL    HW1   53   1.977   0.298   0.495  1.3397 -2.2175  1.1659
   18SOL    HW2   54   2.015   0.340   0.341 -2.2271 -0.6260  1.3774
   19SOL     OW   55   2.111   1.655   0.324  0.1375 -0.3791 -0.0662
   19SOL    HW1   56   2.128   1.652   0.222  1.4958 -1.0449  2.4101
   19SOL    HW2   57   2.009   1.680   0.333 -0.9451  2.6297 -0.3440
   20SOL     OW   58   2.225   1.664   2.342 -0.6059  0.3638 -0.2927
   20SOL    HW1   59   2.293   1.659   2.268  0.6286 -2.2566  0.0306
   20SOL    HW2   60   2.142   1.600   2.321 -1.8581 -0.2937  0.1104
   21SOL     OW   61   1.415   0.353   0.596  0.4389  0.4817 -0.5754
   21SOL    HW1   62   1.367   0.361   0.689 -0.2675  1.1580  1.8370
   21SOL    HW2   63   1.397   0.434   0.535 -2.7690  1.8927 -2.1471
   22SOL     OW   64   2.694   0.445   1.587 -0.0061  0.1151  0.4013
   22SOL    HW1   65   2.649   0.531   1.558 -1.6658  1.7020  0.1526
   22SOL    HW2   66   2.652   0.398   1.666 -0.6571 -3.7770 -1.7293
   23SOL     OW   67   0.184   0.333   1.972  0.7116  0.5649 -0.2496
   23SOL    HW1   68   0.244   0.328   1.892 -2.7201  0.7897 -1.0184
   23SOL    HW2   69   0.141   0.423   1.976 -0.6011 -0.8622 -1.2661
   24SOL     OW   70   2.465   2.744   0.213  0.4253 -0.4181 -0.2512
   24SOL    HW1   71   2.495   2.652   0.191 -0.3684  0.3957 -0.3391
   24SOL    HW2   72   2.486   2.812   0.138  0.2728 -1.8469  0.0136
   25SOL     OW   73   1.170   2.965   2.567 -0.2735  0.6569  0.1996
   25SOL    HW1   74   1.176   2.888   2.499 -2.3510 -0.8377 -1.8935
   25SOL    HW2   75   1.228   2.955   2.647  0.8718 -0.4930  0.8704
   26SOL     OW   76   1.430   2.693   0.312 -0.7040  0.2295 -0.1563
   26SOL    HW1   77   1.333   2.664   0.306 -2.8917  1.5655  2.0675
   26SOL    HW2   78   1.440   2.768   0.382 -3.3860  1.3649  2.1786
   27SOL     OW   79   2.029   0.778   0.854 -0.2124 -0.1670 -0.3288
   27SOL    HW1   80   2.025   0.882   0.847  2.5029  2.2705 -1.7321
   27SOL    HW2   81   2.099   0.754   0.928  0.1481  1.4690 -0.6493
   28SOL     OW   82   1.123   1.391   0.802  0.6131 -0.1038  0.0821
   28SOL    HW1   83   1.034   1.421   0.766 -0.4399 -1.2297  1.3481
   28SOL    HW2   84   1.170   1.325   0.742  0.2163  1.5395 -2.7063
   29SOL     OW   85   3.058   3.028   1.950 -0.5160 -0.4887  0.3793
   29SOL    HW1   86   2.977   0.010   1.956 -4.0448  0.0640 -0.7044
   29SOL    HW2   87   3.033   2.954   1.888 -0.3985  2.1449  2.0298
   30SOL     OW   88   1.286   0.066   1.252  0.7059 -0.0997  0.2148
   30SOL    HW1   89   1.311   3.067   1.196 -1.2332 -0.9546 -1.2350
   30SOL    HW2   90   1.211   0.048   1.313 -0.9578 -0.0645 -0.1049
   31SOL     OW   91   1.667   2.611   2.074 -0.4531  0.3956  0.1109
   31SOL    HW1   92   1.739   2.684   2.096  2.7642  0.4748  0.3118
   31SOL    HW2   93   1.702   2.554   1.997 -2.1131 -1.2211 -1.1953
   32SOL     OW   94   0.922   1.414   3.007 -0.3680  0.5791 -0.0014
   32SOL    HW1   95   0.972   1.466   2.938 -0.9039  2.8213  0.9373
   32SOL    HW2   96   0.939   1.450   0.019  0.5879  1.2947  1.3297
   33SOL     OW   97   0.005   1.086   2.342 -0.0971 -0.5631 -0.1767
   33SOL    HW1   98   3.026   1.034   2.403 -0.6740 -0.2020 -0.3949
   33SOL    HW2   99   0.102   1.063   2.372  1.6450 -1.6351  0.4508
   34SOL     OW  100   2.350   0.065   0.559 -0.0162 -0.0686  0.2795
   34SOL    HW1  101   2.294   0.132   0.613 -1.5633  0.0619  2.1279
   34SOL    HW2  102   2.368   3.069   0.616  0.0265  3.5327 -2.3645
   35SOL     OW  103   2.631   2.306   1.774  0.2248 -0.6255  0.4809
   35SOL    HW1  104   2.697   2.254   1.830  0.2570 -0.0731  0.2908
   35SOL    HW2  105   2.631   2.404   1.811  1.0193  1.4742  0.5606
   36SOL     OW  106   2.494   2.190   0.025 -0.4504 -0.0423  0.4563
   36SOL    HW1  107   2.403   2.176   3.069  1.1144 -2.1756 -1.1184
   36SOL    HW2  108   2.564   2.130   3.066 -0.0783 -0.4776 -2.2688
   37SOL     OW  109   1.959   0.337   1.739  0.6800 -0.1402 -0.0775
   37SOL    HW1  110   1.932   0.315   1.643 -1.1030  1.3266  0.4971
   37SOL    HW2  111   1.919   0.427   1.764  1.4313 -0.7114  1.3397
   38SOL     OW  112   2.954   0.234   2.648 -0.0329  0.0761 -0.0346
   38SOL    HW1  113   2.914   0.327   2.644  2.3844 -2.6949  0.0335
   38SOL    HW2  114   2.903   0.177   2.713  1.3640  0.0408 -1.2510
   39SOL     OW  115   1.784   1.193   1.902 -0.5620 -0.3245 -0.0020
   39SOL    HW1  116   1.788   1.160   1.997  0.0246  2.2086  1.0421
   39SOL    HW2  117   1.803   1.290   1.908 -0.2604  0.2591 -1.1598
   40SOL     OW  118   1.394   2.162   0.742 -0.5341 -0.1614 -0.2460
   40SOL    HW1  119   1.362   2.070   0.775 -0.6660  1.2260 -0.3099
   40SOL    HW2  120   1.347   2.191   0.661  4.1841 -3.5340  1.9535
   41SOL     OW  121   1.929   1.919   1.048 -0.0470  0.0720  0.4710
   41SOL    HW1  122   2.009   1.967   1.004  0.4231  1.3476 -0.3692
   41SOL    HW2  123   1.879   1.863   0.979 -1.4370  0.5383  3.4644
   42SOL     OW  124   0.305   0.419   1.209 -0.0061 -0.6635 -0.5419
   42SOL    HW1  125   0.246   0.403   1.288  0.9848  0.7698 -0.4726
   42SOL    HW2  126   0.324   0.518   1.196 -0.2190 -0.3524 -1.4326
   43SOL     OW  127   0.047   1.629   2.675  0.1298  0.5324 -0.1791
   43SOL    HW1  128   0.037   1.717   2.736  0.0285  1.6181  2.6560
   43SOL    HW2  129   0.126   1.566   2.700  1.7332 -0.1011  0.5360
   44SOL     OW  130   1.963   2.760   1.341 -0.1552 -0.4587 -0.0205
   44SOL    HW1  131   2.047   2.709   1.322 -0.8489  2.4711  1.4443
   44SOL    HW2  132   1.960   2.775   1.441  1.8046  0.9294 -4.5926
   45SOL     OW  133   1.045   0.058   2.404 -0.4191 -0.0001 -0.7563
   45SOL    HW1  134   1.097   0.012   2.480 -0.6874 -1.1299  1.0808
   45SOL    HW2  135   0.975   3.073   2.371 -2.3527  1.2550  1.2702
   46SOL     OW  136   0.814   2.621   2.380 -0.3442 -0.2183 -0.0339
   46SOL    HW1  137   0.725   2.578   2.345 -1.5314  0.6621 -2.5735
   46SOL    HW2  138   0.836   2.587   2.473 -2.7498  2.0022 -1.4896
   47SOL     OW  139   0.869   2.427   0.833 -0.2478 -0.4746 -0.0902
   47SOL    HW1  140   0.964   2.433   0.792  0.9752 -0.6695 -1.5826
   47SOL    HW2  141   0.854   2.511   0.886 -0.1794 -0.3218  1.6300
   48SOL     OW  142   1.194   2.506   1.039  0.1453 -0.0546  0.0537
   48SOL    HW1  143   1.150   2.417   1.028  0.9420  0.0023  1.1088
   48SOL    HW2  144   1.243   2.510   1.128  1.5773  2.5446  0.8176
   49SOL     OW  145   2.151   0.268   3.057 -0.0908 -0.5773  0.2482
   49SOL    HW1  146   2.147   0.224   2.963  3.5172 -0.7366  0.0470
   49SOL    HW2  147   2.248   0.307   3.065  0.3920  0.1849 -0.2366
   50SOL     OW  148   1.678   0.260   0.268 -0.0351 -0.3895 -0.6427
   50SOL    HW1  149   1.767   0.291   0.225 -1.5401 -2.1833  1.1894
   50SOL    HW2  150   1.606   0.315   0.228 -0.5011 -2.4433  1.8180
   51SOL     OW  151   2.255   0.766   1.268 -0.1155  0.4074 -0.2325
   51SOL    HW1  152   2.197   0.808   1.338  0.6915  2.0366 -0.6043
   51SOL    HW2  153   2.257   0.663   1.273  0.5448 -0.2136 -4.0082
   52SOL     OW  154   0.625   1.514   0.004  1.1420 -0.2627 -0.7882
   52SOL    HW1  155   0.653   1.471   3.001 -1.7401 -0.6136  2.1080
   52SOL    HW2  156   0.613   1.614   3.070 -2.5002  3.9777 -0.9182
   53SOL     OW  157   0.333   1.513   2.649  0.2796 -0.3549 -0.1556
   53SOL    HW1  158   0.287   1.459   2.580 -1.3704 -0.1309  0.6777
   53SOL    HW2  159   0.388   1.454   2.711 -0.1206  1.7837  0.8183
   54SOL     OW  160   2.771   1.227   1.796  0.1130  0.3249  1.3072
   54SOL    HW1  161   2.744   1.147   1.858  1.8905 -1.2443  0.6872
   54SOL    HW2  162   2.811   1.303   1.849 -1.3582 -0.1265  0.2734
   55SOL     OW  163   2.412   1.875   0.278  0.2222 -0.3537 -0.2176
   55SOL    HW1  164   2.513   1.889   0.256  1.1135  0.1204  0.7688
   55SOL    HW2  165   2.398   1.848   0.374 -0.6504 -0.6650 -3.0773
   56SOL     OW  166   1.770   0.114   1.340 -0.2387  0.0161 -0.0212
   56SOL    HW1  167   1.667   0.129   1.324 -2.0642  0.2095  0.3541
   56SOL    HW2  168   1.804   0.023   1.308 -2.3467 -0.1503  1.1435
   57SOL     OW  169   1.587   1.150   2.844 -0.0266  0.5043 -0.5925
   57SOL    HW1  170   1.647   1.069   2.858 -0.8154  0.3986  0.6921
   57SOL    HW2  171   1.573   1.182   2.749  2.4094  0.8351  1.6743
   58SOL     OW  172   0.094   0.358   1.379 -0.2814  0.2733 -0.2212
   58SOL    HW1  173   0.031   0.285   1.344  0.4473 -1.1505  1.7708
   58SOL    HW2  174   0.050   0.447   1.363  0.8141  1.4887  1.4585
   59SOL     OW  175   1.224   2.829   3.082 -0.4521 -0.2557  0.6848
   59SOL    HW1  176   1.264   2.740   3.058 -2.0118  2.6175 -1.2764
   59SOL    HW2  177   1.137   2.855   3.034 -0.3741 -1.9910  1.2749
   60SOL     OW  178   0.073   2.198   2.944  0.0944  0.2338  0.4185
   60SOL    HW1  179   0.156   2.212   3.000 -0.3843 -0.2937 -1.8295
   60SOL    HW2  180   0.097   2.159   2.847 -0.1558 -0.4269 -2.0637
   61SOL     OW  181   0.560   2.592   0.968  0.4150  0.0535 -0.2337
   61SOL    HW1  182   0.659   2.620   0.976  0.5153  0.9306 -1.6392
   61SOL    HW2  183   0.503   2.671   0.990  1.9016 -1.8043  0.9063
   62SOL     OW  184   1.658   1.755   2.758 -0.6879  0.6513 -0.1333
   62SOL    HW1  185   1.572   1.798   2.788  1.9134  1.4244  1.2666
   62SOL    HW2  186   1.735   1.821   2.768 -0.4179 -0.1951  0.9317
   63SOL     OW  187   1.881   1.966   0.224  0.2806  0.0928  0.1422
   63SOL    HW1  188   1.824   2.052   0.218 -0.2265  0.6549  1.9565
   63SOL    HW2  189   1.856   1.901   0.149 -0.5750  0.1190  1.6812
   64SOL     OW  190   2.045   0.927   0.066 -0.0225  0.0390  0.0886
   64SOL    HW1  191   2.038   1.006   3.083 -3.3633  2.0427 -2.4323
   64SOL    HW2  192   2.123   0.954   0.120  0.1236 -0.3902  0.5871
   65SOL     OW  193   1.967   1.884   2.051  0.0986 -0.6008  0.1118
   65SOL    HW1  194   1.990   1.954   2.122  1.5543  0.1859 -3.2179
   65SOL    HW2  195   2.021   1.896   1.967  1.7694 -0.3300  4.3796
   66SOL     OW  196   0.357   0.907   1.403  0.7420  0.4532  0.1786
   66SOL    HW1  197   0.313   0.991   1.442 -2.9851  1.5870 -1.6433
   66SOL    HW2  198   0.435   0.923   1.337  1.5048 -0.7823  3.2391
   67SOL     OW  199   2.222   0.068   2.837  0.5883 -0.7692 -0.0535
   67SOL    HW1  200   2.179   0.116   2.753  0.7966  0.6160 -0.6620
   67SOL    HW2  201   2.318   0.029   2.814 -2.4403  0.1116  0.3312
   68SOL     OW  202   1.441   2.018   1.548  0.0316  0.6636 -0.5114
   68SOL    HW1  203   1.390   2.085   1.494 -2.3652 -2.2904  1.8750
   68SOL    HW2  204   1.512   2.065   1.605 -0.6099 -3.1187  0.0537
   69SOL     OW  205   0.218   2.985   0.468  0.2212  0.7683 -0.1382
   69SOL    HW1  206   0.283   2.910   0.460 -2.2491  3.0866 -0.2212
   69SOL    HW2  207   0.124   2.948   0.494  0.5658 -0.4832  0.4505
   70SOL     OW  208   0.231   0.875   2.190  0.3048  0.1203 -0.1228
   70SOL    HW1  209   0.143   0.833   2.150 -1.2034 -1.8965 -0.7704
   70SOL    HW2  210   0.303   0.847   2.126  0.7086  0.0680  1.2104
   71SOL     OW  211   0.966   1.095   2.597  0.0717 -0.2840  0.5351
   71SOL    HW1  212   1.048   1.072   2.649  1.0399 -1.3599 -1.2119
   71SOL    HW2  213   0.965   1.035   2.515 -0.6433 -0.8140  1.2181
   72SOL     OW  214   0.007   1.748   2.022  0.4579 -0.3174 -0.0682
   72SOL    HW1  215   3.001   1.728   1.979 -0.0780 -0.2003  1.0818
   72SOL    HW2  216   0.051   1.823   1.971  1.4310 -1.3825  0.4947
   73SOL     OW  217   1.464   1.757   0.239 -0.2054 -0.2251  0.2060
   73SOL    HW1  218   1.467   1.843   0.193  0.0271 -2.0928 -3.0156
   73SOL    HW2  219   1.403   1.698   0.184  2.8414  1.7874  0.5338
   74SOL     OW  220   2.479   3.080   2.775  0.5007  0.3798  0.4571
   74SOL    HW1  221   2.547   0.013   2.699  3.1572  5.5856 -0.1638
   74SOL    HW2  222   2.491   2.990   2.822  1.2451 -0.5114  0.5145
   75SOL     OW  223   1.691   1.962   1.173  0.1928 -0.1025  0.3964
   75SOL    HW1  224   1.601   1.959   1.121  0.5280 -1.3777  2.0643
   75SOL    HW2  225   1.767   1.945   1.110  1.0653 -0.0467  2.3122
   76SOL     OW  226   2.981   2.003   1.665 -0.1803 -0.5267  0.0856
   76SOL    HW1  227   2.912   1.984   1.591 -2.6126  1.8331 -1.1210
   76SOL    HW2  228   3.076   1.972   1.646 -1.5970  2.1621  1.3897
   77SOL     OW  229   0.395   2.916   1.915  0.4161  0.2649  0.0967
   77SOL    HW1  230   0.456   2.931   1.836 -0.8090  2.0584  0.6671
   77SOL    HW2  231   0.360   3.009   1.943  0.6476  0.6078  1.3966
   78SOL     OW  232   2.260   0.976   0.224  0.5539  0.1718 -0.0177
   78SOL    HW1  233   2.202   1.012   0.303 -0.7969 -0.7677  3.2494
   78SOL    HW2  234   2.331   1.039   0.184  1.4243  0.1482 -0.0680
   79SOL     OW  235   2.908   1.617   2.518 -0.3862  0.1732  0.4232
   79SOL    HW1  236   2.842   1.538   2.520 -1.6628 -0.3603 -0.8040
   79SOL    HW2  237   2.973   1.605   2.596  2.3903 -2.3514  1.4671
   80SOL     OW  238   1.794   1.433   1.602  0.4846 -0.0757 -0.8506
   80SOL    HW1  239   1.728   1.463   1.669 -2.3394 -0.2206 -2.0865
   80SOL    HW2  240   1.827   1.517   1.546  1.8973  1.6586  0.7802
   81SOL     OW  241   2.111   1.224   2.078  0.1573  0.0029 -0.5789
   81SOL    HW1  242   2.038   1.152   2.099 -2.8949 -0.7386 -1.6310
   81SOL    HW2  243   2.100   1.271   1.989  1.7087 -2.5025  1.2879
   82SOL     OW  244   1.587   1.508   1.770  0.0755 -0.0066  0.0494
   82SOL    HW1  245   1.558   1.586   1.834  1.8132 -1.2255 -1.5212
   82SOL    HW2  246   1.503   1.464   1.735  1.9251  0.7432 -1.1365
   83SOL     OW  247   0.436   0.571   0.206 -0.4889  0.0228  0.1098
   83SOL    HW1  248   0.440   0.653   0.269  0.6562  1.8425 -2.1928
   83SOL    HW2  249   0.469   0.491   0.255 -3.3753  1.1698 -0.8157
   84SOL     OW  250   0.025   0.665   0.223  0.3918  0.3157 -0.2686
   84SOL    HW1  251   3.011   0.683   0.242 -0.2571  0.3049  1.9116
   84SOL    HW2  252   0.080   0.747   0.226 -2.0397  0.0415  2.1053
   85SOL     OW  253   2.371   2.345   1.284  0.2091 -0.4995  0.0538
   85SOL    HW1  254   2.357   2.267   1.225  1.2505  1.3449  0.2516
   85SOL    HW2  255   2.470   2.382   1.278  1.1702  1.4241 -0.3619
   86SOL     OW  256   0.565   3.049   1.477  0.1737  0.3387  0.1591
   86SOL    HW1  257   0.642   0.024   1.456 -1.1440  0.4328 -1.0764
   86SOL    HW2  258   0.474   0.002   1.459  0.3793 -0.6723 -0.9314
   87SOL     OW  259   0.399   2.490   1.890 -0.7098 -0.0931 -0.0918
   87SOL    HW1  260   0.498   2.481   1.921  2.4141  0.2811 -0.3419
   87SOL    HW2  261   0.372   2.418   1.832 -1.6636  3.8914  2.0539
   88SOL     OW  262   0.264   2.230   0.061 -0.0825  0.0703  0.3237
   88SOL    HW1  263   0.271   2.141   0.113 -1.1345 -2.8247  0.0605
   88SOL    HW2  264   0.351   2.257   0.014  3.7419 -1.0038 -2.7427
   89SOL     OW  265   0.900   0.997   0.652  0.7367 -0.2623 -0.2191
   89SOL    HW1  266   0.993   1.027   0.620  1.0366  1.2086 -2.7343
   89SOL    HW2  267   0.860   0.921   0.601 -0.7114  0.4653 -1.8624
   90SOL     OW  268   0.275   1.561   2.196 -0.1137  0.4922  0.5441
   90SOL    HW1  269   0.229   1.560   2.107  0.5237  0.0552 -1.7968
   90SOL    HW2  270   0.215   1.599   2.270 -0.2941 -1.2952  0.7911
   91SOL     OW  271   1.597   0.954   0.776  0.1611 -0.4832  0.4269
   91SOL    HW1  272   1.562   0.921   0.685  1.5542 -0.5656  1.6561
   91SOL    HW2  273   1.633   0.875   0.825 -1.4632  2.7978 -0.9664
   92SOL     OW  274   2.289   1.163   0.864  0.3492 -0.5043 -0.4624
   92SOL    HW1  275   2.237   1.240   0.825 -0.7685 -2.1848 -1.6780
   92SOL    HW2  276   2.382   1.166   0.821 -0.4341  0.9077 -1.1436
   93SOL     OW  277   2.866   1.180   2.722 -0.4033 -0.2431  0.1713
   93SOL    HW1  278   2.938   1.195   2.649 -2.0312 -0.3426 -1.4364
   93SOL    HW2  279   2.778   1.151   2.681 -0.0076 -0.9202  0.0596
   94SOL     OW  280   2.024   2.159   2.749  0.3335  0.0586  0.2324
   94SOL    HW1  281   2.044   2.186   2.651 -2.1551  0.8371  0.8482
   94SOL    HW2  282   2.107   2.166   2.805  0.4535 -3.1287 -0.7258
   95SOL     OW  283   0.113   0.087   1.218 -0.1031 -0.8126  0.3754
   95SOL    HW1  284   0.166   0.059   1.134 -0.1947  0.7007 -0.0837
   95SOL    HW2  285   0.029   0.137   1.186 -3.0211  0.0705  2.1586
   96SOL     OW  286   3.052   2.624   1.523 -0.4828 -0.0534 -0.5908
   96SOL    HW1  287   2.986   2.695   1.488 -0.1119  0.7538  0.5258
   96SOL    HW2  288   0.007   2.656   1.615  0.3271  3.3398  1.8636
   97SOL     OW  289   2.592   0.694   1.537 -0.3335 -0.0918  0.2748
   97SOL    HW1  290   2.577   0.698   1.639 -2.2589  0.4546  0.6700
   97SOL    HW2  291   2.557   0.775   1.491  0.4884 -0.4150 -0.8550
   98SOL     OW  292   1.698   2.487   1.837 -0.2920 -0.1324  0.7661
   98SOL    HW1  293   1.657   2.396   1.843  0.4031  2.2878  1.6451
   98SOL    HW2  294   1.645   2.545   1.770  1.3261  3.8492  0.0877
   99SOL     OW  295   0.338   2.748   1.468 -0.3061  0.3257 -0.5597
   99SOL    HW1  296   0.317   2.676   1.402  1.9314  0.5551 -2.4960
   99SOL    HW2  297   0.327   2.719   1.565  2.7055  1.5832 -1.6058
  100SOL     OW  298   1.751   0.285   2.730  0.1447  0.0873  0.0885
  100SOL    HW1  299   1.792   0.371   2.708 -0.0783 -3.2837  1.2166
  100SOL    HW2  300   1.792   0.212   2.669  2.5448 -2.7246  0.1904
  101SOL     OW  301   2.599   0.279   2.577 -0.2061  0.2035  0.2229
  101SOL    HW1  302   2.662   0.221   2.519  1.3444  1.2376 -1.5529
  101SOL    HW2  303   2.579   0.372   2.539  3.1494 -1.4433  2.1956
  102SOL     OW  304   0.407   0.650   1.573  0.1335  0.1113  0.0192
  102SOL    HW1  305   0.321   0.602   1.568  1.4732  2.9525  1.7428
  102SOL    HW2  306   0.409   0.730   1.510 -2.5837 -1.8748 -0.1598
  103SOL     OW  307   0.935   0.672   2.560  0.0235  0.0532 -0.2601
  103SOL    HW1  308   0.967   0.581   2.525 -0.0808  0.9369 -1.2059
  103SOL    HW2  309   0.954   0.673   2.659 -1.1981  2.0509 -0.0311
  104SOL     OW  310   0.251   0.978   2.435 -0.5211  0.5428 -0.9442
  104SOL    HW1  311   0.247   0.905   2.506  2.3278 -0.2169  2.0212
  104SOL    HW2  312   0.249   0.937   2.341 -0.8469  2.6204  3.3298
  105SOL     OW  313   2.384   1.871   1.509 -0.1411 -0.4824 -0.0329
  105SOL    HW1  314   2.451   1.937   1.464  1.9536  0.5057  2.1239
  105SOL    HW2  315   2.290   1.878   1.465 -1.7108 -0.3380 -1.5061
  106SOL     OW  316   1.621   3.083   0.642  0.1289  0.3472 -0.3023
  106SOL    HW1  317   1.594   0.093   0.623 -0.5236  0.4742  1.0246
  106SOL    HW2  318   1.552   3.018   0.602  0.2054 -0.0819  0.2013
  107SOL     OW  319   1.893   2.421   1.082 -0.5765 -0.3576 -0.6200
  107SOL    HW1  320   1.821   2.354   1.060  0.9413 -3.1360 -4.4671
  107SOL    HW2  321   1.968   2.383   1.143 -1.0159  2.1367  2.3783
  108SOL     OW  322   3.046   2.453   1.246 -0.4508  0.1088 -0.3434
  108SOL    HW1  323   3.065   2.508   1.161 -0.6306  2.6317  1.4734
  108SOL    HW2  324   3.059   2.513   1.330  0.0692  2.5779  1.4357
  109SOL     OW  325   2.250   2.370   0.887  0.7598  0.2110 -0.1648
  109SOL    HW1  326   2.307   2.401   0.805 -1.0270  0.5660 -2.0408
  109SOL    HW2  327   2.153   2.402   0.884  0.9282 -1.3299  1.8288
  110SOL     OW  328   1.232   1.778   1.905 -0.2674  0.5808 -0.2218
  110SOL    HW1  329   1.216   1.677   1.908  1.7032 -1.2016  0.5051
  110SOL    HW2  330   1.157   1.827   1.855 -1.5195 -0.5997  0.1264
  111SOL     OW  331   1.697   2.158   2.062  0.1096  0.1724 -0.9049
  111SOL    HW1  332   1.652   2.177   1.971 -3.2008  2.3999 -0.4556
  111SOL    HW2  333   1.737   2.247   2.098  3.8458  1.0040 -0.7710
  112SOL     OW  334   1.401   2.057   2.644 -0.3061  0.1325  0.0035
  112SOL    HW1  335   1.373   2.130   2.576  1.2078  2.9536  1.1822
  112SOL    HW2  336   1.501   2.066   2.658 -1.9038 -0.9794  1.3582
  113SOL     OW  337   1.783   1.892   1.661  0.2627 -0.5474 -0.1757
  113SOL    HW1  338   1.716   1.833   1.613 -0.5064 -3.8614 -0.4631
  113SOL    HW2  339   1.772   1.886   1.763 -1.2344  1.7387 -1.9084
  114SOL     OW  340   3.011   1.162   1.455  0.8654  0.2605 -0.5666
  114SOL    HW1  341   3.003   1.118   1.365 -1.0207  0.4768 -1.0226
  114SOL    HW2  342   2.971   1.101   1.526  0.9424  2.3319 -0.7710
  115SOL     OW  343   0.784   0.641   0.055  0.0447  0.0734  0.1306
  115SOL    HW1  344   0.758   0.573   3.069 -0.3114  0.7441  0.6810
  115SOL    HW2  345   0.789   0.599   0.149  0.3315 -0.4441  0.0468
  116SOL     OW  346   2.751   2.068   2.248  0.2790 -0.3627 -0.6705
  116SOL    HW1  347   2.705   2.078   2.159  3.1127 -0.8510  2.4419
  116SOL    HW2  348   2.696   2.011   2.316 -0.2503 -0.9621  2.5280
  117SOL     OW  349   0.023   2.481   0.467  0.2454 -0.0857  0.5444
  117SOL    HW1  350   0.067   2.558   0.418 -0.6374  0.3388  4.1857
  117SOL    HW2  351   0.019   2.500   0.564  2.0622  0.9677 -3.8228
  118SOL     OW  352   0.711   1.975   2.715  0.0464 -0.0902 -0.0710
  118SOL    HW1  353   0.685   1.997   2.814 -2.4860  1.2093  1.8152
  118SOL    HW2  354   0.628   1.991   2.659  0.1639  0.9843  2.6512
  119SOL     OW  355   0.568   1.979   0.684 -0.0474 -0.2838 -0.3947
  119SOL    HW1  356   0.516   2.000   0.768 -0.9856 -0.6443 -0.6371
  119SOL    HW2  357   0.540   2.037   0.607 -0.2300  2.5079 -0.2358
  120SOL     OW  358   1.329   0.817   0.185  0.0089  0.0056 -0.3735
  120SOL    HW1  359   1.310   0.779   0.282  0.4184 -0.4441  2.4542
  120SOL    HW2  360   1.313   0.745   0.118 -0.8697  1.7864  1.9243
  121SOL     OW  361   1.327   2.419   0.807  0.3271 -0.3582 -0.8150
  121SOL    HW1  362   1.349   2.452   0.902  0.1098  1.1530  3.3205
  121SOL    HW2  363   1.355   2.323   0.792 -0.0803 -1.8992  0.1223
  122SOL     OW  364   3.057   2.377   1.867  0.0142  0.1176 -0.2622
  122SOL    HW1  365   3.031   2.284   1.904 -0.7202  1.4627 -3.7325
  122SOL    HW2  366   3.008   2.391   1.779 -1.3353 -0.3130 -3.0617
  123SOL     OW  367   0.799   1.664   0.769  0.2944 -0.0284 -0.1865
  123SOL    HW1  368   0.802   1.742   0.832 -0.1829 -2.2882 -1.1676
  123SOL    HW2  369   0.712   1.615   0.788  1.9009  1.5542 -1.6617
  124SOL     OW  370   2.875   0.894   0.380 -0.1215  0.1419 -0.2568
  124SOL    HW1  371   2.894   0.974   0.321 -1.0049  1.6400 -2.1089
  124SOL    HW2  372   2.846   0.823   0.307 -0.1411 -2.0283 -2.1605
  125SOL     OW  373   0.014   0.542   3.070  0.1700  0.2340 -0.2099
  125SOL    HW1  374   0.008   0.573   0.084 -3.5942  0.6129  0.6519
  125SOL    HW2  375   3.011   0.502   3.039  0.2119  0.4428  0.0899
  126SOL     OW  376   0.080   1.670   0.726 -0.3678 -1.0205 -0.2886
  126SOL    HW1  377   0.052   1.731   0.649  0.5732  1.0303 -0.5249
  126SOL    HW2  378   0.099   1.720   0.813  0.4710  0.5930 -1.2845
  127SOL     OW  379   1.161   2.515   1.605 -0.3814 -0.2644  0.2318
  127SOL    HW1  380   1.063   2.516   1.638  1.6393  0.1874 -4.7045
  127SOL    HW2  381   1.213   2.594   1.642 -0.4162 -1.5006  0.7411
  128SOL     OW  382   1.228   1.480   0.003  0.1104  0.0761  0.0667
  128SOL    HW1  383   1.209   1.530   0.088  2.2162 -0.3599  0.5066
  128SOL    HW2  384   1.292   1.402   0.007  0.8599  2.0298  0.6819
  129SOL     OW  385   2.119   1.984   1.460 -0.1170 -0.3854  0.3655
  129SOL    HW1  386   2.037   1.997   1.398 -0.4687  1.6353 -2.2729
  129SOL    HW2  387   2.133   2.079   1.503 -0.3344  2.3585 -0.0052
  130SOL     OW  388   2.054   1.756   1.565 -0.0623  0.2863 -0.1118
  130SOL    HW1  389   1.958   1.735   1.543 -0.6112 -0.3118  0.8563
  130SOL    HW2  390   2.084   1.843   1.519 -0.9131 -0.9318  0.3805
  131SOL     OW  391   2.620   2.671   2.662 -0.1521  0.1634  0.0597
  131SOL    HW1  392   2.560   2.661   2.580  0.8979  0.0038  1.4651
  131SOL    HW2  393   2.704   2.621   2.651 -0.2521  0.7238  0.3606
  132SOL     OW  394   2.753   1.954   0.675 -0.2949 -0.3972 -0.4118
  132SOL    HW1  395   2.784   1.864   0.639 -1.2192 -2.2491  0.1564
  132SOL    HW2  396   2.787   1.975   0.771 -1.0567  1.0287 -1.0264
  133SOL     OW  397   0.705   0.115   2.271  0.0987 -0.0799  0.6615
  133SOL    HW1  398   0.656   0.025   2.289 -1.3754 -1.6129 -0.9219
  133SOL    HW2  399   0.750   0.110   2.180  0.3003 -1.3146  0.6649
  134SOL     OW  400   2.848   2.199   0.187 -0.2792  0.0091 -0.5155
  134SOL    HW1  401   2.932   2.250   0.212  0.7941  2.2895  1.0947
  134SOL    HW2  402   2.819   2.155   0.276 -2.0811  1.2872  0.8906
  135SOL     OW  403   1.618   0.754   2.278 -0.5076  0.1097  0.6331
  135SOL    HW1  404   1.537   0.799   2.311  1.3245 -1.6141 -3.1435
  135SOL    HW2  405   1.639   0.786   2.191 -2.5696 -2.5335  3.9150
  136SOL     OW  406   2.504   1.867   0.768  0.2010  0.3150  0.5142
  136SOL    HW1  407   2.592   1.825   0.793 -0.2191  1.9747 -1.5971
  136SOL    HW2  408   2.428   1.840   0.835 -2.0603  0.5573  1.7104
  137SOL     OW  409   2.735   1.782   0.909 -0.1265  0.0059 -0.2077
  137SOL    HW1  410   2.697   1.822   0.999 -0.8800 -0.8141  0.5735
  137SOL    HW2  411   2.836   1.745   0.922  3.1268  0.7956  0.7936
  138SOL     OW  412   2.821   0.507   1.193  0.4621  0.2628  0.2424
  138SOL    HW1  413   2.844   0.591   1.244  0.8054 -3.2054 -1.1321
  138SOL    HW2  414   2.784   0.528   1.103  3.0161  0.2925  0.7692
  139SOL     OW  415   3.083   2.683   3.014  0.1560  0.7045 -0.2586
  139SOL    HW1  416   0.002   2.591   3.052 -0.4581 -0.4257 -1.3275
  139SOL    HW2  417   3.081   2.680   2.913 -2.7217  2.6764  1.0523
  140SOL     OW  418   0.772   1.753   1.479 -0.2280 -0.1496  0.5081
  140SOL    HW1  419   0.832   1.835   1.476 -1.2197  0.2780 -1.7016
  140SOL    HW2  420   0.825   1.668   1.461 -0.5966  0.8423  2.3802
  141SOL     OW  421   1.273   1.941   0.815 -0.7357 -0.0556  0.4608
  141SOL    HW1  422   1.250   1.858   0.765  2.3249  0.6800 -0.0297
  141SOL    HW2  423   1.204   2.016   0.803  0.1161  0.0554  0.4546
  142SOL     OW  424   1.057   0.701   1.086 -0.4094  0.0489 -0.5067
  142SOL    HW1  425   1.091   0.770   1.020  1.7401  3.1529  2.0463
  142SOL    HW2  426   1.043   0.751   1.173 -3.1420  1.4791  2.0499
  143SOL     OW  427   0.728   1.148   2.728 -0.0904  0.4637  0.1360
  143SOL    HW1  428   0.735   1.159   2.829 -3.7017 -1.0019 -0.6325
  143SOL    HW2  429   0.818   1.120   2.684  2.1598 -1.2906  0.5398
  144SOL     OW  430   1.997   2.448   0.827 -0.1131  0.0225  0.2413
  144SOL    HW1  431   1.929   2.493   0.762 -2.9733  1.6134 -2.3320
  144SOL    HW2  432   1.973   2.452   0.922  1.5211  0.9566 -1.2688
  145SOL     OW  433   2.098   0.668   2.685 -0.0866  0.0787 -0.0672
  145SOL    HW1  434   2.180   0.706   2.635  0.1519  0.6871 -0.7700
  145SOL    HW2  435   2.076   0.731   2.763 -3.0698  0.7098  2.4257
  146SOL     OW  436   2.849   2.951   0.777 -0.3250  1.1309 -0.0481
  146SOL    HW1  437   2.771   2.947   0.842  1.9225 -1.4800 -0.7670
  146SOL    HW2  438   2.932   2.911   0.825  1.7042  0.0303  3.1090
  147SOL     OW  439   1.254   1.079   2.129 -0.1188  0.7599  0.2559
  147SOL    HW1  440   1.285   1.146   2.200 -0.4422  2.3213  1.7975
  147SOL    HW2  441   1.331   1.056   2.071 -4.0214  0.1042  0.5771
  148SOL     OW  442   1.430   0.686   2.026 -0.0638 -0.1251 -0.4985
  148SOL    HW1  443   1.447   0.611   2.090 -1.8593  0.9155 -0.7362
  148SOL    HW2  444   1.341   0.731   2.045 -0.0148  0.9355 -0.0010
  149SOL     OW  445   1.815   2.852   2.052 -0.0003  0.0500  0.0122
  149SOL    HW1  446   1.884   2.910   2.010 -0.1720  1.1033  0.0098
  149SOL    HW2  447   1.723   2.900   2.037 -1.6805  1.9329 -0.4468
  150SOL     OW  448   2.502   2.937   0.040  0.1963  0.3028 -0.2326
  150SOL    HW1  449   2.518   2.916   3.024  1.5973  1.4761 -0.2442
  150SOL    HW2  450   2.547   3.020   0.063  0.5383 -3.7122 -1.3324
  151SOL     OW  451   0.458   1.378   2.850 -0.5812 -0.0398  0.5843
  151SOL    HW1  452   0.440   1.397   2.948 -3.2114  1.8191 -1.1324
  151SOL    HW2  453   0.557   1.394   2.824  0.2914  2.8614 -2.2695
  152SOL     OW  454   3.067   0.179   0.760 -0.4160 -0.0953 -0.0965
  152SOL    HW1  455   0.056   0.110   0.750  0.3161 -0.4068 -2.7373
  152SOL    HW2  456   0.023   0.270   0.757 -0.8706 -1.3095  0.6217
  153SOL     OW  457   2.305   0.294   1.546 -0.2226  0.1863 -0.1753
  153SOL    HW1  458   2.229   0.232   1.525 -0.5949 -1.2526  1.4053
  153SOL    HW2  459   2.293   0.331   1.644 -0.8359 -0.9080  1.5691
  154SOL     OW  460   2.010   0.152   2.216  1.5474 -0.6739 -0.4650
  154SOL    HW1  461   2.024   0.239   2.269  1.9613  0.0750  0.5529
  154SOL    HW2  462   1.946   0.158   2.138  0.6588 -1.4308  0.4279
  155SOL     OW  463   3.026   1.581   0.184 -0.1612  0.2845  0.4899
  155SOL    HW1  464   0.023   1.544   0.134 -0.2428  1.8983 -0.6797
  155SOL    HW2  465   2.945   1.531   0.147 -1.0684  1.0512 -0.1997
  156SOL     OW  466   2.879   1.786   3.031 -0.3137 -0.2376  0.4331
  156SOL    HW1  467   2.902   1.885   3.044 -0.4014  2.5630  0.9914
  156SOL    HW2  468   2.802   1.761   0.010  2.7990  2.9183  2.2896
  157SOL     OW  469   0.740   0.563   0.744 -0.2537 -0.1070 -0.6651
  157SOL    HW1  470   0.640   0.581   0.752 -1.7658 -1.7062 -0.9306
  157SOL    HW2  471   0.786   0.625   0.677  1.9843 -1.4096 -0.5919
  158SOL     OW  472   2.304   0.788   1.697  0.4219  0.1147 -0.2909
  158SOL    HW1  473   2.296   0.886   1.722 -0.1113  0.0192  0.6464
  158SOL    HW2  474   2.391   0.753   1.732  0.8898  1.8754  0.8510
  159SOL     OW  475   0.154   0.521   0.457  0.2375 -0.4830  0.1274
  159SOL    HW1  476   0.065   0.468   0.462  0.1984  0.2315  2.0067
  159SOL    HW2  477   0.171   0.560   0.363 -2.5276  0.9816  0.9738
  160SOL     OW  478   1.963   2.160   1.783 -0.0138 -0.1757 -0.0062
  160SOL    HW1  479   1.999   2.221   1.859  0.4442  1.8458 -0.4575
  160SOL    HW2  480   1.873   2.196   1.749 -1.7898 -1.0709 -1.1893
  161SOL     OW  481   3.059   0.649   2.484 -0.8242 -0.3636 -0.8484
  161SOL    HW1  482   0.059   0.694   2.519  2.7402 -0.5474  1.5052
  161SOL    HW2  483   0.007   0.571   2.425 -0.2586  1.9659  2.9172
  162SOL     OW  484   0.809   2.563   1.298  0.0960  0.5508  0.0209
  162SOL    HW1  485   0.881   2.488   1.293 -0.6100 -0.2364  0.3533
  162SOL    HW2  486   0.789   2.598   1.391  2.8843  1.0584 -1.2758
  163SOL     OW  487   2.776   0.127   2.412 -0.4284  0.2166  0.2788
  163SOL    HW1  488   2.745   0.064   2.340  0.5248  1.0268 -0.4709
  163SOL    HW2  489   2.851   0.181   2.377  0.1271  0.9372  2.2679
  164SOL     OW  490   2.204   1.931   0.124 -0.5726 -0.1895  0.0310
  164SOL    HW1  491   2.296   1.918   0.171  0.2075 -0.0897 -1.3635
  164SOL    HW2  492   2.184   1.844   0.083  2.4736  2.5209  0.9302
  165SOL     OW  493   2.986   0.247   1.154  0.4503 -0.3421  0.5923
  165SOL    HW1  494   3.029   0.323   1.100  1.6482  0.6160 -3.9446
  165SOL    HW2  495   2.900   0.281   1.196  0.9136 -0.5019 -0.5270
  166SOL     OW  496   2.137   0.787   0.588 -0.1411 -0.5156 -0.7132
  166SOL    HW1  497   2.139   0.769   0.689 -1.2154  2.4500  0.2214
  166SOL    HW2  498   2.074   0.865   0.569  0.4262 -2.4139  0.8639
  167SOL     OW  499   2.668   1.059   0.081 -0.3261  0.3669  0.0430
  167SOL    HW1  500   2.622   0.995   0.023  2.5508 -1.1047  3.4726
  167SOL    HW2  501   2.604   1.083   0.161 -0.5101 -0.3371  3.2553
  168SOL     OW  502   1.393   0.151   2.818  0.1736 -0.2924 -0.0094
  168SOL    HW1  503   1.431   0.081   2.880 -2.8063  1.3170 -2.0760
  168SOL    HW2  504   1.433   0.137   2.726  1.6929 -1.4158 -0.2933
  169SOL     OW  505   0.273   1.338   0.925 -0.5327 -0.0998  0.3394
  169SOL    HW1  506   0.245   1.402   0.998 -0.5707 -1.9668 -1.0521
  169SOL    HW2  507   0.238   1.365   0.833  1.0812 -0.5386  0.7282
  170SOL     OW  508   3.046   0.952   1.232 -0.2246  0.4623 -0.3708
  170SOL    HW1  509   3.017   0.857   1.261 -1.3191 -1.2082 -1.2307
  170SOL    HW2  510   2.985   0.987   1.157 -1.4451 -0.3631 -0.4569
  171SOL     OW  511   2.466   2.039   1.999  0.0635  0.8121 -0.1563
  171SOL    HW1  512   2.562   2.067   1.993 -2.8645 -0.9588  0.8034
  171SOL    HW2  513   2.428   1.993   1.911  1.9187 -0.4433 -3.3886
  172SOL     OW  514   0.398   2.216   1.340 -0.1155 -0.8326  0.6399
  172SOL    HW1  515   0.348   2.158   1.272  1.5843 -0.3088 -2.4609
  172SOL    HW2  516   0.452   2.290   1.292  1.3549  0.6818  0.9954
  173SOL     OW  517   1.719   1.407   2.942 -0.2266  0.1219  0.1257
  173SOL    HW1  518   1.690   1.334   2.879  0.6406 -1.8926 -1.5606
  173SOL    HW2  519   1.643   1.478   2.947  0.1030  0.2655 -0.4005
  174SOL     OW  520   1.286   0.545   2.722  0.2829  0.5309 -0.5246
  174SOL    HW1  521   1.320   0.549   2.630 -2.8370  1.5481  1.4315
  174SOL    HW2  522   1.343   0.597   2.790 -0.6639  1.7677  4.0050
  175SOL     OW  523   1.366   1.357   1.193  0.0100 -0.3006  0.3374
  175SOL    HW1  524   1.434   1.417   1.238  0.5712 -0.5340  0.0253
  175SOL    HW2  525   1.301   1.329   1.269 -0.8803 -1.1549  0.1268
  176SOL     OW  526   1.363   0.124   0.427  0.4738 -0.1086  0.2608
  176SOL    HW1  527   1.325   0.147   0.335  1.1589 -0.3226  2.2960
  176SOL    HW2  528   1.400   0.211   0.472  3.3032 -1.8614  0.9301
  177SOL     OW  529   0.243   0.999   0.019 -0.1766 -0.0108  0.1568
  177SOL    HW1  530   0.176   0.953   0.083  0.0033  0.7037 -4.1366
  177SOL    HW2  531   0.310   0.928   3.068 -0.4567 -0.7315 -3.0560
  178SOL     OW  532   2.362   2.362   2.282  0.2705 -0.2350  0.2689
  178SOL    HW1  533   2.378   2.366   2.383  4.1649  0.1514 -0.1379
  178SOL    HW2  534   2.425   2.423   2.226  2.0946 -3.0351  0.1404
  179SOL     OW  535   3.058   0.011   2.527 -0.0658 -0.2659 -0.4054
  179SOL    HW1  536   3.010   0.094   2.567 -1.9235  0.8767 -0.6338
  179SOL    HW2  537   0.020   0.026   2.436  0.4278  1.4084 -0.0750
  180SOL     OW  538   2.002   0.493   0.792  0.3608  0.5318  0.0019
  180SOL    HW1  539   2.098   0.463   0.771  0.6607  0.5394  0.4967
  180SOL    HW2  540   2.000   0.588   0.819  0.8396  0.8594  1.3021
  181SOL     OW  541   2.092   0.973   2.509  0.1334  0.0362 -0.1218
  181SOL    HW1  542   2.179   0.927   2.535  1.1383  0.8146 -2.4649
  181SOL    HW2  543   2.023   0.983   2.581  0.8182 -0.4032 -3.2484
  182SOL     OW  544   2.530   2.536   2.131 -0.3924 -0.3686 -0.1745
  182SOL    HW1  545   2.628   2.538   2.176  0.1308  2.3741  1.1572
  182SOL    HW2  546   2.529   2.528   2.027  0.0573  0.5239 -2.3115
  183SOL     OW  547   2.079   0.735   1.878  0.7819 -1.2980  0.2238
  183SOL    HW1  548   2.164   0.727   1.820 -1.3978  0.5888 -0.5671
  183SOL    HW2  549   2.109   0.789   1.959 -0.7276 -0.4271 -1.4516
  184SOL     OW  550   0.185   1.494   1.157  0.2750  0.2290  0.0237
  184SOL    HW1  551   0.119   1.417   1.144 -2.0897 -1.6570 -2.3355
  184SOL    HW2  552   0.202   1.511   1.257  2.8334  0.4280  1.0883
  185SOL     OW  553   2.337   0.087   0.941 -0.1268 -0.1931  0.3320
  185SOL    HW1  554   2.271   0.145   0.887  1.0607  0.1149 -0.5280
  185SOL    HW2  555   2.435   0.102   0.920  0.8571 -2.3466  2.7696
  186SOL     OW  556   2.860   2.481   2.683 -0.4857 -0.6159  0.0066
  186SOL    HW1  557   2.921   2.406   2.648  0.6675  0.6881  0.1179
  186SOL    HW2  558   2.786   2.441   2.742  0.1063 -1.1786 -0.8432
  187SOL     OW  559   0.172   1.647   0.412 -0.3871  0.8767 -0.0725
  187SOL    HW1  560   0.092   1.694   0.371 -0.0612 -0.8415 -0.6365
  187SOL    HW2  561   0.147   1.547   0.428 -2.5615  1.2176  1.6913
  188SOL     OW  562   2.261   1.196   1.334 -0.5446  0.3984  0.3420
  188SOL    HW1  563   2.297   1.181   1.239 -0.3363  0.2636  3.4689
  188SOL    HW2  564   2.310   1.145   1.407  0.2960 -0.5584 -0.6945
  189SOL     OW  565   0.059   0.419   2.370  0.2229 -0.0259  0.8315
  189SOL    HW1  566   0.087   0.377   2.458  2.3690 -0.2867 -1.3013
  189SOL    HW2  567   0.141   0.456   2.319 -1.5454  0.4133  1.2655
  190SOL     OW  568   1.842   0.588   1.815  0.1025 -0.0326 -0.2584
  190SOL    HW1  569   1.765   0.653   1.784 -1.9696 -1.0159  1.3940
  190SOL    HW2  570   1.927   0.640   1.843 -1.4270 -0.9940  1.1046
  191SOL     OW  571   1.110   0.168   2.134  0.0133  0.0700 -0.0429
  191SOL    HW1  572   1.157   0.100   2.077 -1.4652  0.3665  3.1920
  191SOL    HW2  573   1.113   0.148   2.232 -0.8783  0.3220  0.1763
  192SOL     OW  574   1.084   2.096   1.725  0.1261 -0.2549 -0.2608
  192SOL    HW1  575   1.106   2.109   1.828 -1.3086 -2.0857  5.2604
  192SOL    HW2  576   1.107   2.000   1.700 -2.6142  1.1623 -1.1388
  193SOL     OW  577   1.301   0.390   0.827 -0.2840 -0.5426  0.0625
  193SOL    HW1  578   1.228   0.448   0.868  0.7493  1.6867 -0.5926
  193SOL    HW2  579   1.294   0.293   0.854  1.6195 -1.7872  0.4858
  194SOL     OW  580   0.872   2.137   1.429 -0.3514  0.4360 -0.0381
  194SOL    HW1  581   0.949   2.197   1.397 -1.4115  1.3420 -1.8867
  194SOL    HW2  582   0.907   2.044   1.458 -0.1098  0.0962 -0.3359
  195SOL     OW  583   1.402   0.536   0.342  0.2097 -0.5780 -0.2742
  195SOL    HW1  584   1.491   0.581   0.361 -2.6193 -0.7503 -1.6560
  195SOL    HW2  585   1.421   0.474   0.259  2.0169 -1.2703 -2.3807
  196SOL     OW  586   0.909   1.432   1.774 -0.7984  0.3915 -0.1906
  196SOL    HW1  587   0.941   1.387   1.863 -0.2219 -0.1080  0.9634
  196SOL    HW2  588   0.895   1.362   1.702 -0.4718 -0.8813 -1.6067
  197SOL     OW  589   0.961   0.427   1.531 -0.4089 -0.6949  0.4384
  197SOL    HW1  590   0.918   0.379   1.448 -3.6488  0.0337  0.7687
  197SOL    HW2  591   1.053   0.460   1.506 -2.4601 -0.3362  0.5680
  198SOL     OW  592   0.698   0.853   1.007  0.2077  0.0544 -0.1219
  198SOL    HW1  593   0.790   0.875   0.962 -0.4319  4.2416 -2.3534
  198SOL    HW2  594   0.697   0.888   1.103  0.7292 -0.5130  1.3748
  199SOL     OW  595   0.103   2.365   1.508 -0.3883  0.2251  0.3557
  199SOL    HW1  596   0.037   2.436   1.539 -1.5467  0.2911  1.4002
  199SOL    HW2  597   0.165   2.395   1.435  0.5797 -2.4713  1.7531
  200SOL     OW  598   1.506   1.083   2.018 -0.2701  0.1896 -0.0369
  200SOL    HW1  599   1.468   1.093   1.923  0.7893 -1.4449  1.0400
  200SOL    HW2  600   1.571   1.006   2.016 -0.3424 -0.9786 -1.5768
  201SOL     OW  601   0.496   2.137   1.866 -0.0814  0.0414 -0.3594
  201SOL    HW1  602   0.592   2.104   1.878 -0.4051 -2.9857  0.3867
  201SOL    HW2  603   0.454   2.118   1.777  1.2487  1.0679 -0.7542
  202SOL     OW  604   1.061   3.076   0.184 -0.3546 -0.1518 -0.0789
  202SOL    HW1  605   1.140   0.054   0.190  1.7616  2.3715  0.0634
  202SOL    HW2  606   1.091   2.984   0.204 -1.8758  3.6676 -1.4757
  203SOL     OW  607   1.590   3.062   2.305  0.0678 -0.5062  0.3062
  203SOL    HW1  608   1.551   3.007   2.383 -0.9312 -3.1734  1.2339
  203SOL    HW2  609   1.692   3.062   2.301 -1.0239 -0.4818  3.0124
  204SOL     OW  610   0.593   1.744   1.669 -0.1840 -0.4886  0.1923
  204SOL    HW1  611   0.669   1.772   1.610  1.1565 -1.4844 -1.5485
  204SOL    HW2  612   0.600   1.649   1.690 -0.5278  0.9524 -1.7739
  205SOL     OW  613   1.943   1.498   2.511 -0.2926  0.0819 -0.2597
  205SOL    HW1  614   1.977   1.505   2.418 -0.6367  1.4122 -0.1269
  205SOL    HW2  615   1.862   1.558   2.525  0.4240  2.6834  0.1484
  206SOL     OW  616   0.175   1.695   2.422 -0.1904 -0.2458 -0.2543
  206SOL    HW1  617   0.271   1.724   2.433 -0.9126 -1.1470 -1.7375
  206SOL    HW2  618   0.137   1.658   2.506  0.1619  2.1637 -1.4710
  207SOL     OW  619   1.329   2.896   1.505  0.2656  0.0448 -0.1546
  207SOL    HW1  620   1.292   2.850   1.587 -0.0626 -0.0559 -0.0825
  207SOL    HW2  621   1.269   2.980   1.489 -3.7601  1.1615 -0.5518
  208SOL     OW  622   0.276   2.499   1.357 -0.3384 -0.1019 -0.3956
  208SOL    HW1  623   0.375   2.478   1.357 -1.1767  1.5384  0.9171
  208SOL    HW2  624   0.245   2.496   1.264  0.6049  4.1027  2.0132
  209SOL     OW  625   1.447   2.860   0.518  0.2494  0.0644  0.1725
  209SOL    HW1  626   1.430   2.778   0.572 -1.6067  1.2656 -4.0337
  209SOL    HW2  627   1.356   2.913   0.516  2.5977  2.0736 -0.7554
  210SOL     OW  628   2.741   1.265   0.871 -0.6309  0.2212 -0.1265
  210SOL    HW1  629   2.696   1.210   0.796 -0.9894  0.6549  0.8764
  210SOL    HW2  630   2.825   1.311   0.844 -2.2512 -1.7570  0.6957
  211SOL     OW  631   0.499   0.349   2.012 -0.4016 -0.3837 -0.5293
  211SOL    HW1  632   0.522   0.254   1.978 -1.7411 -0.5028  0.5620
  211SOL    HW2  633   0.449   0.401   1.938  0.0448  0.0973 -1.2804
  212SOL     OW  634   1.135   2.271   1.510 -0.8851  0.3684 -0.2710
  212SOL    HW1  635   1.145   2.364   1.556 -0.2176 -2.4791 -4.0872
  212SOL    HW2  636   1.111   2.195   1.575 -1.7490  0.4969  0.7998
  213SOL     OW  637   2.931   0.461   1.768  0.6464 -0.3898 -0.7357
  213SOL    HW1  638   2.977   0.377   1.728 -1.1701 -0.2205 -1.3372
  213SOL    HW2  639   2.854   0.501   1.713 -0.4346  1.8250 -1.7116
  214SOL     OW  640   0.653   2.584   1.727 -0.1252 -0.4705 -0.4325
  214SOL    HW1  641   0.622   2.655   1.796 -1.9154  1.5508  0.8206
  214SOL    HW2  642   0.624   2.612   1.631 -1.9576 -0.6842 -4.9149
  215SOL     OW  643   2.547   1.644   1.482  0.3175  0.1310  0.4011
  215SOL    HW1  644   2.467   1.706   1.478 -1.3672  0.3862  0.0092
  215SOL    HW2  645   2.520   1.548   1.463 -0.8537 -2.5705 -0.4120
  216SOL     OW  646   0.428   0.846   2.004  0.0247  0.1519 -0.1618
  216SOL    HW1  647   0.491   0.924   1.987  0.6280 -2.8901 -0.3903
  216SOL    HW2  648   0.426   0.783   1.926 -2.0838  1.2296  1.0144
  217SOL     OW  649   2.672   2.969   1.247  0.0230 -0.4445 -0.3481
  217SOL    HW1  650   2.613   3.053   1.232 -0.9285 -0.1146  0.9856
  217SOL    HW2  651   2.755   2.993   1.294 -1.2614 -0.2826 -0.3778
  218SOL     OW  652   1.350   2.187   1.145  0.0996 -0.3368  0.7435
  218SOL    HW1  653   1.395   2.097   1.145  1.2816  0.8528 -1.3227
  218SOL    HW2  654   1.412   2.259   1.101 -1.7702  1.5793 -0.6383
  219SOL     OW  655   1.679   2.810   0.418  0.0302 -0.1529  0.0955
  219SOL    HW1  656   1.600   2.838   0.481 -1.4996  0.8924 -0.9469
  219SOL    HW2  657   1.698   2.888   0.355 -2.3297 -2.4017 -1.6652
  220SOL     OW  658   1.610   2.598   0.135  0.0717  0.2442 -0.4707
  220SOL    HW1  659   1.544   2.638   0.200  0.9499 -2.6176 -4.7114
  220SOL    HW2  660   1.639   2.673   0.074 -1.5649  0.7044  1.0501
  221SOL     OW  661   2.560   2.139   0.699  0.2129  0.3663 -0.1502
  221SOL    HW1  662   2.475   2.115   0.650  1.6173 -1.8274  2.6201
  221SOL    HW2  663   2.611   2.054   0.700 -1.4617  2.9090 -1.2288
  222SOL     OW  664   1.095   2.123   0.781 -0.1449  0.4047  0.5636
  222SOL    HW1  665   1.088   2.217   0.742 -1.0444 -1.5055  1.4924
  222SOL    HW2  666   1.008   2.076   0.796  2.1973  0.8814 -0.3861
  223SOL     OW  667   0.954   2.648   2.840 -0.8167 -0.0858  0.0585
  223SOL    HW1  668   0.938   2.591   2.758 -0.9978  1.4149  1.5250
  223SOL    HW2  669   1.009   2.599   2.909 -1.0566  2.5242 -0.8153
  224SOL     OW  670   2.886   1.045   1.047 -0.1066  0.1379 -0.2714
  224SOL    HW1  671   2.858   1.093   0.964 -0.1384 -2.8786  4.2680
  224SOL    HW2  672   2.855   0.945   1.037 -0.5084 -2.3481  0.4732
  225SOL     OW  673   2.989   1.651   0.977  0.0265 -0.5375  0.0203
  225SOL    HW1  674   0.004   1.685   0.983  2.1023 -1.0498  0.8671
  225SOL    HW2  675   2.996   1.551   0.957  1.5702 -0.3148  1.9010
  226SOL     OW  676   1.086   2.770   0.977  0.8897  0.6136  0.1360
  226SOL    HW1  677   1.052   2.769   0.880  0.5259 -1.0962 -1.6812
  226SOL    HW2  678   1.125   2.678   0.996  0.0918  2.1310  0.4268
  227SOL     OW  679   1.164   1.239   1.374  0.3702  0.0065 -0.0486
  227SOL    HW1  680   1.107   1.175   1.426 -0.4214  0.0994 -1.7653
  227SOL    HW2  681   1.108   1.274   1.295 -1.9101 -0.8661 -0.4754
  228SOL     OW  682   1.617   0.152   2.098  0.0712 -0.1888 -0.1420
  228SOL    HW1  683   1.621   0.082   2.175  0.2858 -2.1813  1.4791
  228SOL    HW2  684   1.539   0.220   2.109  2.4886 -0.8809  0.6461
  229SOL     OW  685   2.952   0.894   2.514  0.6194  0.8407 -0.1371
  229SOL    HW1  686   2.974   0.797   2.484 -0.8134 -2.5631 -3.1593
  229SOL    HW2  687   2.988   0.918   2.607 -2.8823 -1.3301  1.0759
  230SOL     OW  688   0.167   1.081   0.884 -0.0948  0.2649 -0.4170
  230SOL    HW1  689   0.077   1.099   0.839  1.4407 -1.7536 -0.0023
  230SOL    HW2  690   0.202   1.162   0.933  0.2654 -4.1190  1.0066
  231SOL     OW  691   1.851   3.035   2.289  0.0478  0.5964  0.2895
  231SOL    HW1  692   1.915   0.024   2.257 -0.6587 -3.4153  0.5119
  231SOL    HW2  693   1.894   2.942   2.291 -1.0624  0.1994 -2.9098
  232SOL     OW  694   0.601   1.760   2.971  0.0931  0.7825  0.3162
  232SOL    HW1  695   0.617   1.859   2.974  2.5699 -2.5253  2.0361
  232SOL    HW2  696   0.499   1.743   2.986  2.1246 -1.1897  3.1304
  233SOL     OW  697   1.252   2.558   2.993  0.2175 -0.2758  0.0253
  233SOL    HW1  698   1.326   2.499   3.031 -1.5428 -0.5762 -0.6244
  233SOL    HW2  699   1.271   2.572   2.891 -1.0495 -2.5872 -0.9670
  234SOL     OW  700   1.250   1.494   1.949  0.3139 -0.5958  0.4696
  234SOL    HW1  701   1.320   1.437   1.995  1.9994  4.1192 -0.6655
  234SOL    HW2  702   1.240   1.450   1.857 -3.4328  0.6213  1.0676
  235SOL     OW  703   0.172   1.907   1.866 -0.4227 -0.2009 -0.1281
  235SOL    HW1  704   0.159   1.943   1.770  2.5908 -2.4701  1.9239
  235SOL    HW2  705   0.259   1.855   1.867  1.0493 -0.6734 -1.6195
  236SOL     OW  706   1.670   2.151   2.790  0.4731 -0.1214 -0.4267
  236SOL    HW1  707   1.592   2.154   2.852  1.3766 -0.8265 -1.8952
  236SOL    HW2  708   1.736   2.220   2.818 -1.3524 -1.7117  1.5056
  237SOL     OW  709   1.470   0.597   0.843  0.0178 -0.1142 -0.6072
  237SOL    HW1  710   1.568   0.575   0.819  0.1149  0.7755 -1.1803
  237SOL    HW2  711   1.406   0.524   0.809  1.3720  0.8337 -0.3904
  238SOL     OW  712   0.830   0.169   2.503 -0.5778 -0.4010 -0.2081
  238SOL    HW1  713   0.792   0.173   2.411 -3.0973  0.3397  1.4465
  238SOL    HW2  714   0.918   0.121   2.498 -1.0149 -1.6474 -0.2183
  239SOL     OW  715   0.831   3.071   1.725 -0.2859  0.2672  0.4307
  239SOL    HW1  716   0.847   3.077   1.624 -1.0562 -0.0676  1.7409
  239SOL    HW2  717   0.844   0.079   1.758  0.3458  0.2199  0.1672
  240SOL     OW  718   2.522   2.642   0.850 -0.1079  0.5620 -0.4044
  240SOL    HW1  719   2.497   2.560   0.800 -0.1973  1.0808  0.6558
  240SOL    HW2  720   2.478   2.719   0.800  0.8654  1.1590 -0.8390
  241SOL     OW  721   1.347   1.376   1.709  0.2135 -0.3474  1.0185
  241SOL    HW1  722   1.430   1.324   1.678 -0.7343  0.9269  1.5483
  241SOL    HW2  723   1.274   1.311   1.730  1.5034  1.5720  0.5791
  242SOL     OW  724   2.751   0.755   0.579 -0.2859  0.1058 -0.2575
  242SOL    HW1  725   2.802   0.790   0.499 -2.7456 -3.6836  3.3235
  242SOL    HW2  726   2.766   0.656   0.597 -0.3217  1.9071 -1.7405
  243SOL     OW  727   0.658   0.654   1.255 -0.5927  0.1117  0.2776
  243SOL    HW1  728   0.739   0.678   1.314 -0.2651 -2.3531  1.1311
  243SOL    HW2  729   0.700   0.612   1.172  0.8985 -1.9515 -1.8071
  244SOL     OW  730   1.194   0.330   3.024  0.2480  0.0002 -0.4699
  244SOL    HW1  731   1.091   0.326   3.029 -0.0303  0.9815 -1.6422
  244SOL    HW2  732   1.218   0.308   2.928 -0.1364 -0.6574 -0.9421
  245SOL     OW  733   2.062   0.551   2.985  0.2993  0.1171  0.1742
  245SOL    HW1  734   1.972   0.525   3.027  1.1943  1.5421 -1.7106
  245SOL    HW2  735   2.136   0.480   2.986  4.1000 -1.5439  0.7866
  246SOL     OW  736   0.831   0.751   1.438  0.3445  0.5817 -0.1787
  246SOL    HW1  737   0.810   0.704   1.527  1.6910 -2.8932 -1.8449
  246SOL    HW2  738   0.929   0.749   1.417 -1.2091 -0.7983 -2.2902
  247SOL     OW  739   0.560   2.951   2.199  0.0848  0.1177  0.4022
  247SOL    HW1  740   0.597   2.888   2.275 -0.7406 -0.7359 -0.1205
  247SOL    HW2  741   0.460   2.968   2.212 -3.2934 -2.4025 -0.0235
  248SOL     OW  742   0.252   1.507   1.883  0.0467  0.4324 -0.1443
  248SOL    HW1  743   0.158   1.495   1.846  2.3865  1.0425 -0.0719
  248SOL    HW2  744   0.284   1.601   1.873  0.1723 -1.4241 -0.6064
  249SOL     OW  745   3.053   3.016   2.848  0.3498  0.1052 -0.2719
  249SOL    HW1  746   0.053   2.999   2.792  0.9235 -0.4173 -1.3040
  249SOL    HW2  747   3.051   2.956   2.926  2.7189  1.1223 -4.3772
  250SOL     OW  748   2.945   0.008   0.491  0.0315  0.0780  0.1064
  250SOL    HW1  749   3.000   3.012   0.523  1.3284 -1.5412 -0.4252
  250SOL    HW2  750   2.849   3.062   0.489  1.6783 -0.7929 -2.6644
  251SOL     OW  751   0.767   1.248   1.058 -0.2326  0.4150  0.1792
  251SOL    HW1  752   0.788   1.226   0.964 -1.2210  0.7690  2.8847
  251SOL    HW2  753   0.666   1.251   1.068 -2.6267  0.6417  0.8231
  252SOL     OW  754   1.598   2.874   1.553  0.2553  0.3672  0.5388
  252SOL    HW1  755   1.639   2.933   1.624  1.4052 -1.5489 -0.8602
  252SOL    HW2  756   1.499   2.904   1.529 -4.8906  1.4507 -0.5409
  253SOL     OW  757   2.285   1.914   2.855  0.7087 -0.3911  0.4445
  253SOL    HW1  758   2.233   1.999   2.889  1.0915  0.6588  0.4089
  253SOL    HW2  759   2.360   1.938   2.788  2.5706 -1.0803 -1.3758
  254SOL     OW  760   0.380   1.739   1.853  0.7714  0.7477  0.0761
  254SOL    HW1  761   0.455   1.719   1.790  0.6986  1.8238  0.6435
  254SOL    HW2  762   0.415   1.718   1.945  0.1121  0.4720 -2.3691
  255SOL     OW  763   0.857   0.021   1.434 -0.7646  0.2439 -0.2090
  255SOL    HW1  764   0.836   0.115   1.404 -0.6253  0.1815 -0.0172
  255SOL    HW2  765   0.820   3.027   1.376  1.0494 -2.2090 -0.9553
  256SOL     OW  766   2.326   2.177   1.085  0.0909 -0.2145 -0.0196
  256SOL    HW1  767   2.399   2.113   1.062  1.0398  1.6174  0.1326
  256SOL    HW2  768   2.302   2.245   1.012  1.0115  1.1742 -0.6770
  257SOL     OW  769   0.482   2.330   3.017  0.2593 -0.0992 -0.2588
  257SOL    HW1  770   0.525   2.271   2.949 -3.5279 -3.4563  0.0056
  257SOL    HW2  771   0.543   2.354   0.016 -0.6661  3.2809  2.4696
  258SOL     OW  772   0.854   1.810   2.505 -0.1456  0.1346 -0.0424
  258SOL    HW1  773   0.807   1.861   2.579  0.7298 -1.6331  0.1693
  258SOL    HW2  774   0.788   1.736   2.475  0.3224 -1.1214 -0.9423
  259SOL     OW  775   0.672   1.623   2.422  0.0317  0.2405 -0.0511
  259SOL    HW1  776   0.722   1.605   2.335 -0.0344 -1.9712 -2.3517
  259SOL    HW2  777   0.667   1.539   2.480 -1.9290 -2.5972  0.0729
  260SOL     OW  778   2.371   1.386   2.016 -0.1159 -0.1484  0.7636
  260SOL    HW1  779   2.382   1.425   1.920  3.7421 -0.1551 -4.7095
  260SOL    HW2  780   2.274   1.354   2.028 -0.8458 -1.3675 -2.8738
  261SOL     OW  781   1.292   0.792   0.847  0.1281  0.3041  0.3198
  261SOL    HW1  782   1.364   0.723   0.847  0.0118 -0.0906 -3.2815
  261SOL    HW2  783   1.320   0.870   0.908 -1.1773 -2.0080 -2.1005
  262SOL     OW  784   1.674   2.133   2.515  0.2755 -0.6751 -0.3494
  262SOL    HW1  785   1.624   2.220   2.500 -1.7720  1.5904 -0.2939
  262SOL    HW2  786   1.702   2.128   2.614  0.1071 -0.2328 -0.7353
  263SOL     OW  787   0.337   1.625   2.928 -0.1643 -0.0284  0.0181
  263SOL    HW1  788   0.261   1.576   2.980 -0.4273  0.3450 -0.1746
  263SOL    HW2  789   0.349   1.589   2.833  0.3095  0.0787  0.9346
  264SOL     OW  790   0.640   1.916   1.134 -0.7603 -0.5348  0.1703
  264SOL    HW1  791   0.673   2.010   1.159  3.1499  1.4280  1.7175
  264SOL    HW2  792   0.610   1.863   1.213 -2.5584 -0.0967 -0.9900
  265SOL     OW  793   0.712   1.111   0.061  0.0910  0.5399  0.0915
  265SOL    HW1  794   0.755   1.055   0.135 -2.9719  0.6275 -3.3265
  265SOL    HW2  795   0.773   1.129   3.065 -1.6503 -1.6526 -1.4729
  266SOL     OW  796   1.269   1.754   3.021  0.2949 -0.3120 -0.0134
  266SOL    HW1  797   1.251   1.653   3.015  0.1133 -1.8569  1.6463
  266SOL    HW2  798   1.183   1.804   3.043  0.2996 -0.6010 -1.3435
  267SOL     OW  799   0.895   0.782   2.166  0.0428  0.6245 -0.8323
  267SOL    HW1  800   0.928   0.696   2.212 -2.1206 -0.2071 -0.8954
  267SOL    HW2  801   0.794   0.793   2.184  1.2888 -0.2029 -0.9854
  268SOL     OW  802   0.215   0.749   2.592  0.1392 -0.0568 -0.1470
  268SOL    HW1  803   0.287   0.677   2.595  0.1110 -0.3100  0.4591
  268SOL    HW2  804   0.191   0.772   2.689  2.5378 -1.4811  2.5320
  269SOL     OW  805   1.785   2.743   2.642  0.4511 -0.0726 -0.0529
  269SOL    HW1  806   1.776   2.716   2.544  0.6594  0.2032 -0.9223
  269SOL    HW2  807   1.723   2.686   2.700  1.2209 -0.2220 -0.9091
  270SOL     OW  808   0.928   1.463   2.372 -0.5975 -0.7379 -0.0053
  270SOL    HW1  809   0.906   1.367   2.345 -1.6596 -0.6384  0.8937
  270SOL    HW2  810   0.910   1.528   2.295  0.2098 -1.8328 -0.2056
  271SOL     OW  811   0.149   0.103   3.045  0.2502  0.0667  0.4546
  271SOL    HW1  812   0.154   0.204   3.057 -0.7308 -1.0823 -0.4419
  271SOL    HW2  813   0.068   0.066   0.006  1.1996  1.0356 -1.5287
  272SOL     OW  814   2.313   0.749   0.371 -0.2384  0.3169  0.3865
  272SOL    HW1  815   2.228   0.747   0.425  1.7243  2.5522 -1.2449
  272SOL    HW2  816   2.312   0.832   0.310  0.1227 -0.6107 -0.1818
  273SOL     OW  817   0.207   0.072   1.956  0.4725 -0.2860  0.1038
  273SOL    HW1  818   0.113   0.031   1.959 -1.4152 -1.4288  1.3725
  273SOL    HW2  819   0.200   0.173   1.985  0.8207  3.3317 -0.2296
  274SOL     OW  820   2.885   0.194   1.965 -0.0926  0.4871  0.3671
  274SOL    HW1  821   2.878   0.224   2.060  0.8078 -1.1386 -1.2838
  274SOL    HW2  822   2.962   0.241   1.915  1.9679  0.7378  0.9469
  275SOL     OW  823   1.369   1.608   0.677 -0.4721  0.3023  0.5677
  275SOL    HW1  824   1.333   1.605   0.775 -0.7827 -0.7942  2.0135
  275SOL    HW2  825   1.460   1.564   0.673  1.0257 -1.8823  0.1250
  276SOL     OW  826   0.612   0.790   2.221 -0.2690  0.0433 -0.3421
  276SOL    HW1  827   0.600   0.882   2.269 -0.5465 -3.3154  0.3559
  276SOL    HW2  828   0.546   0.776   2.147 -0.9053  0.5697  1.1219
  277SOL     OW  829   1.681   2.399   2.255 -0.2514 -0.1712 -0.3598
  277SOL    HW1  830   1.610   2.406   2.328 -0.1089 -1.1343  1.2386
  277SOL    HW2  831   1.677   2.470   2.183 -1.8503 -1.8953  0.4774
  278SOL     OW  832   1.805   2.634   2.398  0.5395 -0.3862 -0.0813
  278SOL    HW1  833   1.842   2.539   2.403 -0.8971 -0.1889  1.6527
  278SOL    HW2  834   1.876   2.698   2.362 -2.2799 -2.9360 -1.3159
  279SOL     OW  835   1.778   1.208   0.053  0.4216 -0.0461  0.5555
  279SOL    HW1  836   1.714   1.273   0.007 -0.5675  1.2884 -0.7626
  279SOL    HW2  837   1.864   1.193   3.084  1.1925  0.4920 -0.7900
  280SOL     OW  838   0.909   1.149   2.950 -0.0655 -0.3416  0.5058
  280SOL    HW1  839   0.930   1.248   2.969 -0.3969  1.5774 -1.2749
  280SOL    HW2  840   0.997   1.098   2.935  0.7262 -0.9417  1.5926
  281SOL     OW  841   3.049   0.233   1.654  0.3882  0.1310  0.7438
  281SOL    HW1  842   0.051   0.197   1.610  3.4083  0.0551 -0.4671
  281SOL    HW2  843   2.966   0.197   1.615 -1.0168  0.5325  0.6914
  282SOL     OW  844   2.897   2.316   0.657 -0.0911 -0.2008  0.3072
  282SOL    HW1  845   2.967   2.384   0.669  0.9690 -0.6461 -1.1483
  282SOL    HW2  846   2.835   2.307   0.736  0.8253 -0.7132  1.0010
  283SOL     OW  847   1.439   1.800   2.216  0.0632  0.2416  0.1909
  283SOL    HW1  848   1.475   1.893   2.237  0.0807 -2.3071 -0.7579
  283SOL    HW2  849   1.335   1.795   2.205 -2.8702 -1.2741  3.2095
  284SOL     OW  850   1.684   0.298   0.568 -0.0085  0.2470  0.1646
  284SOL    HW1  851   1.711   0.292   0.470  1.1387  0.3140 -1.2270
  284SOL    HW2  852   1.586   0.327   0.560 -0.7897  1.0022  1.7383
  285SOL     OW  853   3.066   2.632   2.733 -0.1534 -0.5327 -0.1042
  285SOL    HW1  854   3.035   2.719   2.693  0.2170 -3.3357  2.5820
  285SOL    HW2  855   2.993   2.559   2.730 -0.5785 -0.2833 -2.1793
  286SOL     OW  856   2.805   2.684   1.425 -0.3525  0.4401 -0.8181
  286SOL    HW1  857   2.763   2.682   1.337 -0.2779 -0.5908  1.8024
  286SOL    HW2  858   2.772   2.601   1.478 -2.9272 -3.3883  1.8824
  287SOL     OW  859   0.479   1.301   0.666 -0.0922 -0.1735  0.4238
  287SOL    HW1  860   0.394   1.266   0.709  1.9140  0.6450 -1.1685
  287SOL    HW2  861   0.452   1.365   0.590 -1.3110 -1.2948 -0.0308
  288SOL     OW  862   2.090   1.759   2.736  0.4154 -0.1661 -0.1742
  288SOL    HW1  863   2.110   1.657   2.742  3.1841 -1.4972 -1.5277
  288SOL    HW2  864   2.144   1.819   2.804  1.7585 -1.5780 -1.7086
  289SOL     OW  865   0.217   1.887   2.933 -0.0137 -0.0187  0.0267
  289SOL    HW1  866   0.134   1.905   2.885  2.6820  1.8354  1.6586
  289SOL    HW2  867   0.236   1.785   2.925  1.1997 -0.0606 -0.2374
  290SOL     OW  868   1.068   1.803   1.050  0.5110  0.6744  0.2294
  290SOL    HW1  869   1.141   1.754   0.993 -0.3572  0.9298 -2.4103
  290SOL    HW2  870   0.986   1.827   0.989  0.3185 -0.2264  0.6775
  291SOL     OW  871   1.725   0.899   2.822  0.1305 -0.5422 -0.4502
  291SOL    HW1  872   1.685   0.836   2.752  1.9021  1.7842  0.7107
  291SOL    HW2  873   1.672   0.885   2.907  0.1683  0.3445 -0.8409
  292SOL     OW  874   1.312   1.514   0.340  0.2290  0.5664 -0.1500
  292SOL    HW1  875   1.309   1.557   0.434  0.0602  1.5877  1.4874
  292SOL    HW2  876   1.326   1.411   0.343 -0.8247 -1.9564  0.0658
  293SOL     OW  877   1.661   2.628   0.995  0.1458 -0.3489 -0.4496
  293SOL    HW1  878   1.762   2.651   0.997 -0.7308 -0.4624 -1.2805
  293SOL    HW2  879   1.626   2.669   0.914  0.9879  0.5994  0.8222
  294SOL     OW  880   2.381   1.351   2.952 -0.5849 -0.0031 -0.2462
  294SOL    HW1  881   2.315   1.284   2.909 -0.5829 -2.2836  1.5067
  294SOL    HW2  882   2.476   1.332   2.918 -4.5512  1.2778  1.1127
  295SOL     OW  883   1.539   2.061   2.281 -0.4506 -0.2479  0.3574
  295SOL    HW1  884   1.582   2.087   2.371  1.3194  2.2313  0.6108
  295SOL    HW2  885   1.594   2.102   2.207 -3.0946  1.2080 -3.9292
  296SOL     OW  886   1.685   0.386   1.887  0.1671  0.2414  0.2821
  296SOL    HW1  887   1.757   0.451   1.854  0.2933 -1.4363 -0.7080
  296SOL    HW2  888   1.644   0.424   1.967  0.0954 -2.0633 -2.3594
  297SOL     OW  889   3.072   0.790   2.093  0.2670  0.4076  0.3717
  297SOL    HW1  890   2.990   0.741   2.133 -2.3780 -0.2060  1.5601
  297SOL    HW2  891   3.035   0.857   2.029  2.2789  0.7696 -0.5065
  298SOL     OW  892   1.109   2.566   1.936  0.2018 -0.1551  0.2214
  298SOL    HW1  893   1.053   2.521   1.859 -1.5838  0.3454  1.4512
  298SOL    HW2  894   1.047   2.590   2.009  3.2561 -1.3147 -1.5516
  299SOL     OW  895   1.258   2.629   2.734  0.6939  0.3820 -0.2724
  299SOL    HW1  896   1.303   2.718   2.737  1.0279  1.1147 -0.2531
  299SOL    HW2  897   1.172   2.624   2.681  0.3536 -0.3628  1.8886
  300SOL     OW  898   2.866   1.177   2.992  0.4662 -0.3053  0.2016
  300SOL    HW1  899   2.780   1.130   3.035  0.2322 -3.1543  5.1934
  300SOL    HW2  900   2.855   1.192   2.889 -1.2093 -1.8432 -1.7777
  301SOL     OW  901   1.943   1.041   1.765 -0.3244  0.5205  0.0463
  301SOL    HW1  902   1.952   0.948   1.796 -3.3569  2.7268  0.4745
  301SOL    HW2  903   1.877   1.098   1.818  0.5916 -0.1480  1.8531
  302SOL     OW  904   2.556   1.992   2.418 -0.0914 -0.2557 -0.0252
  302SOL    HW1  905   2.530   1.912   2.356  1.0836 -1.4257 -0.4988
  302SOL    HW2  906   2.478   2.048   2.452 -1.5209  0.6891 -3.5472
  303SOL     OW  907   0.362   2.566   2.166  0.1963  0.0732  0.0692
  303SOL    HW1  908   0.338   2.664   2.174  1.0262 -1.4252  0.1644
  303SOL    HW2  909   0.397   2.546   2.072  0.0231 -0.0082 -2.0565
  304SOL     OW  910   0.037   0.672   1.210  0.4486 -0.0758  0.2844
  304SOL    HW1  911   0.060   0.751   1.154 -0.6374 -0.1372  0.3937
  304SOL    HW2  912   0.026   0.594   1.145  0.5126 -0.6942 -0.2835
  305SOL     OW  913   2.752   0.536   1.978 -0.1395  0.0834 -0.1965
  305SOL    HW1  914   2.842   0.523   1.934 -1.1917 -0.2744  0.5682
  305SOL    HW2  915   2.675   0.475   1.951 -0.6251 -0.9400  0.3655
  306SOL     OW  916   2.377   1.111   1.574 -0.2658 -0.2951 -0.2534
  306SOL    HW1  917   2.313   1.073   1.642 -0.2722 -0.2661 -0.8445
  306SOL    HW2  918   2.443   1.175   1.618  1.3117 -1.1167 -3.5597
  307SOL     OW  919   2.609   0.071   0.847  0.4544  0.1347 -0.7884
  307SOL    HW1  920   2.705   0.098   0.860 -3.5439 -0.5997  0.0495
  307SOL    HW2  921   2.590   3.068   0.896 -3.5615 -0.9825  1.4433
  308SOL     OW  922   2.964   1.767   1.365 -0.3627  0.3639 -0.0512
  308SOL    HW1  923   2.943   1.691   1.296  2.1334 -0.6723 -0.7762
  308SOL    HW2  924   2.878   1.815   1.389  2.2952  1.3462  0.1485
  309SOL     OW  925   2.148   2.227   1.597  0.0711  0.2170  0.4689
  309SOL    HW1  926   2.119   2.328   1.591 -1.6330  1.5554 -0.3292
  309SOL    HW2  927   2.100   2.183   1.677 -1.2562 -0.9178  1.8381
  310SOL     OW  928   2.122   1.496   2.722 -0.2462  0.7231 -0.2048
  310SOL    HW1  929   2.208   1.484   2.667  1.0955 -0.6188 -0.3050
  310SOL    HW2  930   2.055   1.518   2.652  0.0680 -1.0921 -0.6131
  311SOL     OW  931   2.020   1.152   3.000 -0.6954  0.2281 -0.1826
  311SOL    HW1  932   2.036   1.131   2.899  1.6140 -0.1667 -1.8281
  311SOL    HW2  933   2.086   1.217   3.037 -0.5313 -2.8703  0.5020
  312SOL     OW  934   1.295   2.400   2.257 -0.0366  0.0932  0.6601
  312SOL    HW1  935   1.337   2.366   2.165  1.8419 -0.4038 -2.4446
  312SOL    HW2  936   1.193   2.406   2.242 -2.2256 -0.1407 -1.3223
  313SOL     OW  937   0.447   0.471   0.769  0.3817  0.4763  0.0540
  313SOL    HW1  938   0.512   0.416   0.824 -0.8910  0.9503 -0.2836
  313SOL    HW2  939   0.397   0.408   0.699 -3.2923 -0.4311 -0.3260
  314SOL     OW  940   0.686   1.645   1.068  0.1608  0.1472 -0.5509
  314SOL    HW1  941   0.633   1.717   1.120  0.8492  0.8915 -1.0969
  314SOL    HW2  942   0.629   1.594   0.999  0.8528  1.8870  0.6922
  315SOL     OW  943   0.766   2.360   2.160 -0.0866  0.5854  0.6154
  315SOL    HW1  944   0.737   2.366   2.058  0.0611 -1.9703 -3.4430
  315SOL    HW2  945   0.692   2.400   2.213 -0.5532 -0.4103  1.7565
  316SOL     OW  946   0.074   2.193   0.994  0.3529  0.2464 -0.0083
  316SOL    HW1  947   3.076   2.196   1.054 -0.1875 -2.5532  0.6385
  316SOL    HW2  948   0.144   2.144   1.050 -1.0600 -0.7929  1.7591
  317SOL     OW  949   1.811   0.571   0.492  0.1186  0.0425 -0.3238
  317SOL    HW1  950   1.809   0.577   0.593 -1.6597  0.0173  0.5241
  317SOL    HW2  951   1.889   0.510   0.463  0.9221  1.9996 -0.5953
  318SOL     OW  952   2.242   2.470   0.027  0.0837 -0.4088  0.1000
  318SOL    HW1  953   2.338   2.498   3.079  0.5902 -0.8215  0.5392
  318SOL    HW2  954   2.244   2.426   0.117 -0.4828 -2.9401 -2.3501
  319SOL     OW  955   1.429   1.856   2.833 -0.2602 -0.4233  0.4063
  319SOL    HW1  956   1.396   1.930   2.772 -1.6338  1.3025  1.1753
  319SOL    HW2  957   1.354   1.833   2.904  0.5481 -0.4643  0.7736
  320SOL     OW  958   0.751   2.520   2.637  0.0562 -0.1702  0.0019
  320SOL    HW1  959   0.684   2.458   2.590 -0.2181 -5.2170 -2.4123
  320SOL    HW2  960   0.805   2.463   2.703  0.9661  0.5962  0.6774
  321SOL     OW  961   0.792   2.633   0.157 -0.1153  0.3278  0.5036
  321SOL    HW1  962   0.880   2.592   0.114  4.0196 -1.8656 -0.8831
  321SOL    HW2  963   0.814   2.714   0.213 -0.6049 -4.2757 -1.9002
  322SOL     OW  964   2.227   0.466   2.125 -0.1018 -0.1974  0.4682
  322SOL    HW1  965   2.190   0.434   2.038  1.8429 -1.2937 -1.2617
  322SOL    HW2  966   2.165   0.442   2.203 -0.9407 -0.3820 -0.5176
  323SOL     OW  967   2.831   0.894   0.807  0.3504 -0.3634  0.5950
  323SOL    HW1  968   2.892   0.828   0.858  0.0032  1.0390  0.8460
  323SOL    HW2  969   2.795   0.845   0.723 -0.0426 -0.0255 -2.2299
  324SOL     OW  970   0.305   0.410   2.240  0.5080 -0.3072  0.3108
  324SOL    HW1  971   0.318   0.402   2.137 -1.7172  0.9254 -0.4768
  324SOL    HW2  972   0.366   0.483   2.281  0.2162  4.2655  0.4364
  325SOL     OW  973   0.305   3.046   2.228  0.8245  0.1667  0.4482
  325SOL    HW1  974   0.341   0.039   2.283  0.7372  2.7932 -0.5622
  325SOL    HW2  975   0.214   3.072   2.182  1.2788 -1.2480  0.4806
  326SOL     OW  976   2.618   2.423   0.278  0.3430  0.3265  0.0605
  326SOL    HW1  977   2.624   2.327   0.253  2.4945  3.3635  2.3859
  326SOL    HW2  978   2.695   2.455   0.334  1.2473 -0.5110 -0.0219
  327SOL     OW  979   2.438   1.539   0.769  0.3704 -0.4663 -0.1883
  327SOL    HW1  980   2.371   1.519   0.692 -2.7521 -2.6770 -0.0707
  327SOL    HW2  981   2.407   1.610   0.829  0.6312 -0.1957  0.6859
  328SOL     OW  982   0.016   1.841   2.272  0.6614  0.0802 -0.3438
  328SOL    HW1  983   0.067   1.773   2.327 -0.7425  1.7341 -0.3723
  328SOL    HW2  984   0.026   1.822   2.174  0.1461  0.8491  0.3541
  329SOL     OW  985   2.962   2.269   1.591  0.1582 -0.1860 -0.1685
  329SOL    HW1  986   3.051   2.279   1.538 -0.8621 -0.6111  3.7053
  329SOL    HW2  987   2.959   2.177   1.633 -0.5152 -2.6810 -1.6581
  330SOL     OW  988   2.335   1.368   2.303 -0.0414 -0.3787 -0.0714
  330SOL    HW1  989   2.340   1.272   2.276 -0.6125  0.2700  0.1282
  330SOL    HW2  990   2.409   1.420   2.263 -0.9792 -3.0863 -0.3470
  331SOL     OW  991   2.729   2.271   0.867 -0.0408  0.1185  0.0873
  331SOL    HW1  992   2.748   2.235   0.963 -3.2853  0.1279 -3.2415
  331SOL    HW2  993   2.668   2.208   0.819  0.3964 -1.2631  3.5761
  332SOL     OW  994   0.462   2.860   0.949 -0.1374  0.4695 -0.5317
  332SOL    HW1  995   0.486   2.911   0.858  1.4654  1.4810  0.3493
  332SOL    HW2  996   0.494   2.912   1.028 -0.5705  1.1691 -3.3790
  333SOL     OW  997   2.013   2.824   2.334  0.0943 -0.0874 -0.3628
  333SOL    HW1  998   2.073   2.740   2.328  2.4197 -2.8815  2.3392
  333SOL    HW2  999   2.028   2.877   2.419 -2.5348 -2.2564 -1.8734
  334SOL     OW 1000   0.816   0.943   0.280 -0.1446 -0.3325  0.4473
  334SOL    HW1 1001   0.850   1.015   0.339  0.2316 -0.6338 -0.6165
  334SOL    HW2 1002   0.888   0.869   0.280  0.0128 -1.6881 -2.6033
  335SOL     OW 1003   0.178   2.131   2.061  0.1943 -0.6516  0.7643
  335SOL    HW1 1004   0.246   2.055   2.079 -0.0684  1.1286 -0.8072
  335SOL    HW2 1005   0.166   2.191   2.141 -0.1547  0.1835 -2.3891
  336SOL     OW 1006   2.910   2.814   2.536 -0.1699 -0.3218  0.9624
  336SOL    HW1 1007   2.891   2.911   2.557  0.6850 -2.2894 -0.5566
  336SOL    HW2 1008   2.843   2.782   2.463 -3.4166  1.1625 -2.4627
  337SOL     OW 1009   1.071   1.182   1.010  0.3655  0.3784 -0.0425
  337SOL    HW1 1010   1.090   1.228   0.919 -0.9070  0.0552 -0.3508
  337SOL    HW2 1011   1.061   1.241   1.085  3.4398 -3.5627 -5.2941
  338SOL     OW 1012   0.803   1.902   0.940  0.6941 -0.2215 -0.0213
  338SOL    HW1 1013   0.788   2.003   0.922 -1.5042  1.1257 -0.1750
  338SOL    HW2 1014   0.741   1.877   1.020 -1.3843 -1.1044 -0.6930
  339SOL     OW 1015   0.152   1.310   1.536  0.3564  0.0921  0.0318
  339SOL    HW1 1016   0.090   1.249   1.480 -0.3230  0.4317  0.2579
  339SOL    HW2 1017   0.092   1.341   1.616 -0.0015  0.5525  2.5980
  340SOL     OW 1018   1.375   2.924   2.128  0.1025 -0.0852 -0.3536
  340SOL    HW1 1019   1.432   2.945   2.212 -0.6298  1.1099  1.7137
  340SOL    HW2 1020   1.331   2.833   2.135 -2.7978 -0.2839  2.3306
  341SOL     OW 1021   1.734   1.498   1.180  0.1768 -0.2263  0.2410
  341SOL    HW1 1022   1.746   1.429   1.257 -2.6507 -1.0823  1.7497
  341SOL    HW2 1023   1.782   1.586   1.192  0.5321 -0.7414 -1.7923
  342SOL     OW 1024   2.993   1.403   0.894 -0.2733  0.3146  0.3235
  342SOL    HW1 1025   3.047   1.358   0.819  2.4196  1.2178 -2.3152
  342SOL    HW2 1026   3.030   1.356   0.980 -1.8451  0.3231  0.2033
  343SOL     OW 1027   0.013   0.641   1.494  0.1938 -0.0263 -0.1021
  343SOL    HW1 1028   0.022   0.722   1.554  1.0836 -1.0158  1.2064
  343SOL    HW2 1029   0.031   0.664   1.397 -1.4473  0.3107  1.6105
  344SOL     OW 1030   1.721   0.240   0.986  0.0469  0.0274 -0.0929
  344SOL    HW1 1031   1.814   0.275   1.012 -0.3769  0.7676 -1.1454
  344SOL    HW2 1032   1.659   0.320   1.007  0.7835  0.5162  1.8377
  345SOL     OW 1033   0.535   2.839   2.490  0.0851  0.8265 -0.4183
  345SOL    HW1 1034   0.555   2.784   2.574 -2.2550  0.8575  1.9627
  345SOL    HW2 1035   0.515   2.941   2.519  0.9780  3.6837  1.5571
  346SOL     OW 1036   2.618   1.579   0.403 -0.5343 -0.2755 -0.7159
  346SOL    HW1 1037   2.706   1.630   0.402 -2.4335 -1.9828 -0.9219
  346SOL    HW2 1038   2.539   1.623   0.453 -0.9147 -1.5882 -3.4724
  347SOL     OW 1039   2.428   0.165   1.934  0.5355 -0.5787 -0.1206
  347SOL    HW1 1040   2.470   0.087   1.887  2.0507 -0.3110  0.1017
  347SOL    HW2 1041   2.325   0.151   1.935 -2.1158  0.1682  2.9611
  348SOL     OW 1042   1.386   1.125   1.450 -0.2889 -0.6661  0.6870
  348SOL    HW1 1043   1.299   1.161   1.417 -0.5553 -1.4677  0.4177
  348SOL    HW2 1044   1.457   1.195   1.452 -1.0026 -1.5458  0.3407
  349SOL     OW 1045   2.762   0.847   1.898 -0.5581 -0.1962 -0.6724
  349SOL    HW1 1046   2.780   0.805   1.993  2.6576 -0.5002  2.8929
  349SOL    HW2 1047   2.838   0.906   1.865 -1.2151  3.0413 -1.5042
  350SOL     OW 1048   2.108   2.184   0.101  0.1379 -0.8031  0.1493
  350SOL    HW1 1049   2.148   2.241   0.175  0.7384 -1.2980 -2.2281
  350SOL    HW2 1050   2.124   2.086   0.123  1.7774 -0.0088  1.1764
  351SOL     OW 1051   0.819   0.088   1.988 -0.2863  0.1013 -0.7104
  351SOL    HW1 1052   0.863   0.178   1.987 -0.8459 -0.3403  0.6618
  351SOL    HW2 1053   0.724   0.102   1.944 -0.1018  0.9659 -2.7665
  352SOL     OW 1054   1.938   2.630   1.831  0.1428  0.1700  0.1785
  352SOL    HW1 1055   1.998   2.650   1.916  1.3398  0.6358  3.0522
  352SOL    HW2 1056   1.859   2.569   1.845  1.3092  0.5304  0.7550
  353SOL     OW 1057   0.652   0.988   2.403 -0.3277 -0.3186  0.1905
  353SOL    HW1 1058   0.727   1.052   2.404 -3.6020 -4.5229  2.3343
  353SOL    HW2 1059   0.652   0.926   2.483 -0.4004  0.4515 -0.4024
  354SOL     OW 1060   0.981   2.004   2.793  0.6371 -0.3976 -0.4819
  354SOL    HW1 1061   1.025   1.918   2.754 -0.1940  1.1817  0.1485
  354SOL    HW2 1062   0.883   1.996   2.775 -1.5719 -0.5682 -1.1068
  355SOL     OW 1063   1.902   2.725   1.088 -0.0172 -0.1857  0.0851
  355SOL    HW1 1064   1.990   2.723   1.046 -2.9497  0.7386 -1.8711
  355SOL    HW2 1065   1.908   2.722   1.190 -0.7061 -0.3973  0.9574
  356SOL     OW 1066   2.174   1.342   0.062 -0.3206  0.0219 -0.5072
  356SOL    HW1 1067   2.241   1.361   3.072 -0.3435  0.5557 -1.1291
  356SOL    HW2 1068   2.203   1.389   0.150  2.5819  0.6971  1.2079
  357SOL     OW 1069   0.017   3.049   2.223 -0.1430 -0.0168  0.0227
  357SOL    HW1 1070   0.031   2.963   2.269  0.2276  4.3744 -0.8087
  357SOL    HW2 1071   3.072   3.040   2.123 -1.0305  2.1681 -2.3536
  358SOL     OW 1072   0.185   1.432   0.691 -0.1833  0.2093  0.6034
  358SOL    HW1 1073   0.154   1.409   0.597  1.1312 -1.0933  0.7347
  358SOL    HW2 1074   0.146   1.524   0.723  0.8745  2.4620  0.0132
  359SOL     OW 1075   2.515   0.283   2.836  0.0336  0.1015 -0.6699
  359SOL    HW1 1076   2.577   0.309   2.758 -0.2159 -3.2354  2.8297
  359SOL    HW2 1077   2.489   0.187   2.819  0.7860 -0.4654  0.0496
  360SOL     OW 1078   1.381   0.912   1.293  0.3687 -0.5520 -0.3533
  360SOL    HW1 1079   1.475   0.875   1.310 -2.7843 -1.4438 -2.9519
  360SOL    HW2 1080   1.365   0.991   1.349 -0.0467 -2.9423 -3.2811
  361SOL     OW 1081   2.649   2.401   1.275 -0.2376 -0.2105  0.6723
  361SOL    HW1 1082   2.700   2.423   1.363  1.9046  1.5155 -1.7456
  361SOL    HW2 1083   2.688   2.445   1.194  0.9284  0.4944 -2.9726
  362SOL     OW 1084   1.130   0.468   1.011  0.1294 -0.3908 -0.6920
  362SOL    HW1 1085   1.055   0.404   1.040  0.3142  1.0531  0.1105
  362SOL    HW2 1086   1.110   0.568   1.030  0.8089  1.0101 -0.6685
  363SOL     OW 1087   1.712   1.778   0.612 -0.0987 -0.1172 -0.0543
  363SOL    HW1 1088   1.753   1.758   0.517 -0.9564 -0.2042  0.8836
  363SOL    HW2 1089   1.614   1.815   0.611 -2.4665  1.3926  0.5829
  364SOL     OW 1090   0.571   0.481   1.445 -0.1264  0.2883 -0.4866
  364SOL    HW1 1091   0.542   0.540   1.524 -0.2645 -1.3147 -0.9568
  364SOL    HW2 1092   0.606   0.543   1.370 -1.3979 -1.2658 -1.9775
  365SOL     OW 1093   0.262   0.020   1.008 -0.6397  0.4657 -0.1433
  365SOL    HW1 1094   0.314   3.021   1.032  0.6366 -2.1941 -2.2601
  365SOL    HW2 1095   0.323   0.100   1.018 -1.2853 -1.0223  0.5261
  366SOL     OW 1096   2.787   1.463   0.115 -0.3359  0.2077  0.0094
  366SOL    HW1 1097   2.802   1.441   0.020  0.8330 -0.1393  2.5058
  366SOL    HW2 1098   2.737   1.550   0.128  0.3507 -2.3663  0.4293
  367SOL     OW 1099   2.170   2.531   2.667 -0.4923  0.6848 -0.0095
  367SOL    HW1 1100   2.134   2.623   2.698 -0.9420  1.2472 -0.1195
  367SOL    HW2 1101   2.237   2.487   2.728 -0.2702  0.5856 -1.9632
  368SOL     OW 1102   2.419   1.758   0.519 -0.0031 -0.7890 -0.1369
  368SOL    HW1 1103   2.463   1.794   0.604 -1.0565 -0.8400  3.0766
  368SOL    HW2 1104   2.341   1.696   0.547 -1.8718 -0.2480  1.5963
  369SOL     OW 1105   1.832   0.533   2.652  0.0488  0.4565  0.2284
  369SOL    HW1 1106   1.925   0.571   2.674  0.1661 -0.6808 -2.4844
  369SOL    HW2 1107   1.752   0.596   2.676  0.7180 -0.1144  0.7277
  370SOL     OW 1108   0.428   0.238   1.050  0.6369 -0.1644  0.4596
  370SOL    HW1 1109   0.403   0.311   1.118 -0.0451 -2.1400  0.5852
  370SOL    HW2 1110   0.498   0.269   0.984  0.6340  2.4810  0.3163
  371SOL     OW 1111   2.781   1.574   2.858 -0.4418  0.0050  0.0277
  371SOL    HW1 1112   2.863   1.514   2.874  0.0643  0.5993 -2.8842
  371SOL    HW2 1113   2.797   1.662   2.906  0.0559 -0.1240  0.3357
  372SOL     OW 1114   0.520   0.541   2.341  0.4564 -0.0749 -0.4959
  372SOL    HW1 1115   0.573   0.485   2.279 -0.4682  3.3305  0.6702
  372SOL    HW2 1116   0.562   0.633   2.344  2.6089  1.0222 -0.3878
  373SOL     OW 1117   0.504   2.942   2.951  0.1329 -0.5751 -0.8128
  373SOL    HW1 1118   0.459   3.024   2.908  1.4015  0.4170 -1.0062
  373SOL    HW2 1119   0.528   2.875   2.880 -1.2496 -0.0922 -1.6280
  374SOL     OW 1120   0.906   1.465   2.646  0.1679  0.1412 -0.1328
  374SOL    HW1 1121   0.990   1.473   2.700  1.8160 -1.6067  1.2799
  374SOL    HW2 1122   0.924   1.486   2.547  2.5390 -0.1961  0.8215
  375SOL     OW 1123   0.958   0.340   1.994  0.0810 -0.6773  0.0958
  375SOL    HW1 1124   0.938   0.344   1.892  1.3095  0.6098  0.6692
  375SOL    HW2 1125   1.026   0.268   2.017 -0.8760  1.4889 -2.3276
  376SOL     OW 1126   0.313   2.707   1.743  0.1971 -0.5372  0.2842
  376SOL    HW1 1127   0.332   2.785   1.805  0.0084  0.2019 -0.7503
  376SOL    HW2 1128   0.342   2.624   1.797 -0.9390  2.2368 -0.3124
  377SOL     OW 1129   2.668   2.371   2.834  0.1647 -0.1453 -0.2323
  377SOL    HW1 1130   2.568   2.361   2.828 -0.1961  0.9080  2.1988
  377SOL    HW2 1131   2.707   2.277   2.862 -2.5024 -2.4049  2.5540
  378SOL     OW 1132   2.010   0.267   0.201 -0.1126 -0.4146 -0.6999
  378SOL    HW1 1133   2.025   0.172   0.235  1.2310  1.1890 -3.2050
  378SOL    HW2 1134   2.053   0.281   0.110 -1.5366 -0.1237  1.9500
  379SOL     OW 1135   1.630   0.679   0.340  0.3598 -0.3281 -0.5368
  379SOL    HW1 1136   1.690   0.639   0.407 -0.0761 -0.6571 -0.1587
  379SOL    HW2 1137   1.686   0.722   0.268  0.5659 -0.3789  4.4185
  380SOL     OW 1138   2.673   1.917   1.756 -0.6065  0.5555  0.0621
  380SOL    HW1 1139   2.727   1.903   1.673 -0.4196  0.4105  1.1377
  380SOL    HW2 1140   2.575   1.918   1.739  0.8751  0.1777 -0.2421
  381SOL     OW 1141   2.558   1.462   2.189 -0.1289  0.0267  0.5633
  381SOL    HW1 1142   2.603   1.549   2.180  0.8084 -1.3345 -0.7748
  381SOL    HW2 1143   2.490   1.446   2.113 -1.2870  0.7655  0.2308
  382SOL     OW 1144   3.003   2.270   2.564  0.2043 -0.2083  0.9561
  382SOL    HW1 1145   3.018   2.200   2.490  1.4476  0.6699  0.9968
  382SOL    HW2 1146   0.006   2.280   2.611 -1.4118  0.8600 -3.2946
  383SOL     OW 1147   1.168   0.971   2.711 -0.0151  0.2456 -0.4564
  383SOL    HW1 1148   1.116   0.883   2.728  2.7913 -2.4359  3.5638
  383SOL    HW2 1149   1.197   1.013   2.806  1.0712 -0.0696  2.6131
  384SOL     OW 1150   1.818   1.862   2.469 -0.4341  0.0902  0.1432
  384SOL    HW1 1151   1.761   1.940   2.489  1.7327  0.1014  0.5783
  384SOL    HW2 1152   1.914   1.887   2.459  0.0329  0.9970  0.3010
  385SOL     OW 1153   2.025   2.748   0.407  0.3329  0.1876 -0.5330
  385SOL    HW1 1154   1.975   2.661   0.408 -1.3237 -0.1257  0.8482
  385SOL    HW2 1155   1.968   2.816   0.457 -1.9007  2.2532  2.9202
  386SOL     OW 1156   1.954   1.290   0.536 -0.0430 -0.1631 -0.6415
  386SOL    HW1 1157   1.905   1.209   0.582  1.7088 -1.6408  1.0608
  386SOL    HW2 1158   1.908   1.317   0.449  1.9590  2.5054  0.1658
  387SOL     OW 1159   2.607   1.756   1.150 -0.2061  0.3330 -0.2094
  387SOL    HW1 1160   2.525   1.702   1.167  0.6235  3.6843  0.7155
  387SOL    HW2 1161   2.689   1.707   1.188  1.7243  1.3927  1.5208
  388SOL     OW 1162   0.333   1.117   1.625  0.4975  0.2060  0.0373
  388SOL    HW1 1163   0.379   1.161   1.701  1.0047  2.5898 -0.0815
  388SOL    HW2 1164   0.268   1.184   1.589 -1.7122 -1.6951  0.3773
  389SOL     OW 1165   2.288   0.965   2.797 -0.3481 -0.2335 -0.6142
  389SOL    HW1 1166   2.207   0.908   2.818  4.2361  0.1754  0.5090
  389SOL    HW2 1167   2.264   1.064   2.802  0.7401 -3.2122 -0.3738
  390SOL     OW 1168   0.719   1.429   2.851 -0.1802 -0.1558 -0.2127
  390SOL    HW1 1169   0.775   1.451   2.769 -2.0856 -0.1566 -0.4988
  390SOL    HW2 1170   0.787   1.412   2.930  3.6851 -1.3342  1.3598
  391SOL     OW 1171   0.907   2.049   0.211 -0.1259 -0.7237 -0.0150
  391SOL    HW1 1172   0.953   2.044   0.121  1.6904  3.6619 -1.7790
  391SOL    HW2 1173   0.815   2.005   0.209 -0.7039  2.9317  0.7682
  392SOL     OW 1174   2.759   2.499   2.252  0.5854  0.1750 -0.0640
  392SOL    HW1 1175   2.731   2.438   2.331 -2.3510  3.4218 -1.0306
  392SOL    HW2 1176   2.839   2.459   2.210 -4.4175 -1.5694  0.8209
  393SOL     OW 1177   1.347   2.271   0.245  0.2772 -0.3284 -0.4009
  393SOL    HW1 1178   1.401   2.231   0.320  0.6568 -0.3039 -0.5323
  393SOL    HW2 1179   1.300   2.198   0.190 -0.2609 -2.0902 -0.2917
  394SOL     OW 1180   0.464   0.016   2.547 -0.2013 -0.2585  0.3460
  394SOL    HW1 1181   0.413   0.096   2.515  1.0453 -1.0756  3.0425
  394SOL    HW2 1182   0.533   0.038   2.622  3.7031  1.3731 -0.4445
  395SOL     OW 1183   0.501   1.260   1.092  0.3460 -0.1863 -0.1253
  395SOL    HW1 1184   0.427   1.273   1.024  0.2579  2.2027  2.4436
  395SOL    HW2 1185   0.494   1.336   1.160  2.4852  1.4101 -1.7794
  396SOL     OW 1186   1.955   1.537   2.982 -0.2333 -0.2510  0.3363
  396SOL    HW1 1187   1.864   1.491   2.972  1.7150 -0.9860  0.9913
  396SOL    HW2 1188   2.017   1.494   2.912  0.7595  0.2317 -1.5178
  397SOL     OW 1189   0.181   0.685   2.916 -0.3566  0.2231 -0.4899
  397SOL    HW1 1190   0.106   0.637   2.969 -0.6580  1.0375  2.1677
  397SOL    HW2 1191   0.253   0.725   2.980  0.9340 -0.5967  4.4448
  398SOL     OW 1192   1.069   2.573   0.492  0.0494  0.1389 -0.1819
  398SOL    HW1 1193   1.120   2.614   0.415  1.0339  0.9620 -0.5059
  398SOL    HW2 1194   0.982   2.534   0.462  1.5570  0.2031 -0.7356
  399SOL     OW 1195   1.935   2.309   2.339 -0.3833  0.3036  0.0216
  399SOL    HW1 1196   1.847   2.345   2.309  5.0055  0.5062 -2.2822
  399SOL    HW2 1197   1.948   2.207   2.318  0.8523 -3.2747  2.1475
  400SOL     OW 1198   2.456   1.395   1.447 -0.0606  0.2710  0.1526
  400SOL    HW1 1199   2.384   1.337   1.411 -0.2288  0.8541  0.2660
  400SOL    HW2 1200   2.478   1.368   1.543 -1.2283 -1.6175 -0.4359
  401SOL     OW 1201   1.478   1.151   0.914  0.2801  0.3519 -0.1477
  401SOL    HW1 1202   1.550   1.086   0.874  1.5184 -0.7780 -0.2749
  401SOL    HW2 1203   1.410   1.102   0.971 -0.3098  0.2896  0.5236
  402SOL     OW 1204   0.276   2.766   2.497 -0.0359 -0.2928  0.1300
  402SOL    HW1 1205   0.372   2.772   2.463 -1.2368 -1.3694 -1.4000
  402SOL    HW2 1206   0.263   2.680   2.556 -1.5848 -2.7011 -0.5955
  403SOL     OW 1207   2.775   1.586   1.652 -0.1702  0.3961  0.2798
  403SOL    HW1 1208   2.822   1.493   1.639  1.5177 -0.3425  0.6646
  403SOL    HW2 1209   2.695   1.586   1.592  3.9926 -2.5433  2.1831
  404SOL     OW 1210   2.375   1.887   1.772 -0.1025  0.2536  0.7629
  404SOL    HW1 1211   2.277   1.904   1.794  0.9310 -1.2213 -0.6954
  404SOL    HW2 1212   2.395   1.871   1.672  3.3335  0.5637  0.1375
  405SOL     OW 1213   2.382   0.391   2.393 -0.1845 -0.2483 -0.7464
  405SOL    HW1 1214   2.360   0.380   2.295 -1.6487 -0.3372  1.8704
  405SOL    HW2 1215   2.397   0.302   2.429  1.8789  4.0258 -1.2948
  406SOL     OW 1216   0.805   1.236   2.393  0.4325 -0.2743  0.2371
  406SOL    HW1 1217   0.861   1.198   2.468  1.4037  2.3519 -0.7325
  406SOL    HW2 1218   0.743   1.311   2.426 -0.9943  2.4149 -2.5910
  407SOL     OW 1219   1.861   2.244   0.682 -0.7767 -0.0379  0.0165
  407SOL    HW1 1220   1.886   2.147   0.666  0.2954  1.9001  0.5858
  407SOL    HW2 1221   1.930   2.300   0.727  0.4834 -1.8581  0.8123
  408SOL     OW 1222   0.196   0.008   0.746 -0.2349  0.1749 -0.7082
  408SOL    HW1 1223   0.229   0.005   0.841 -0.9192  0.0033  0.5471
  408SOL    HW2 1224   0.248   3.026   0.690  2.6726  0.0721  0.2464
  409SOL     OW 1225   2.106   1.395   0.746  0.4733 -0.5389 -0.2098
  409SOL    HW1 1226   2.062   1.418   0.839  2.4446  1.7308  2.0266
  409SOL    HW2 1227   2.027   1.373   0.681  0.4290 -0.2004 -0.1554
  410SOL     OW 1228   1.847   2.239   0.013  0.3114 -0.6048  0.3262
  410SOL    HW1 1229   1.936   2.210   0.049  3.3584 -1.6350 -2.4001
  410SOL    HW2 1230   1.787   2.285   0.084 -0.1288  0.1586 -0.8875
  411SOL     OW 1231   0.012   2.869   0.569  0.4598 -0.0551  0.1770
  411SOL    HW1 1232   3.073   2.849   0.663  0.2613 -1.7064 -2.3597
  411SOL    HW2 1233   3.046   2.812   0.502  0.3295  0.5946  0.8784
  412SOL     OW 1234   1.548   2.693   0.756  0.0053 -0.4620 -0.2027
  412SOL    HW1 1235   1.450   2.678   0.731 -0.2125 -2.8277 -0.2411
  412SOL    HW2 1236   1.564   2.782   0.810 -0.4261  1.9803  2.2536
  413SOL     OW 1237   1.842   0.101   2.528 -0.0157  0.2245 -0.7899
  413SOL    HW1 1238   1.854   0.051   2.438 -0.0317 -0.7872 -1.5905
  413SOL    HW2 1239   1.796   0.041   2.598 -3.5893 -0.9882  1.5538
  414SOL     OW 1240   0.419   0.794   0.369 -0.1319 -0.6076  0.1942
  414SOL    HW1 1241   0.329   0.841   0.376  0.7659  1.1445  1.3942
  414SOL    HW2 1242   0.474   0.814   0.287  0.4822 -1.0110 -0.5335
  415SOL     OW 1243   0.238   1.108   1.202  0.4197  0.1125  0.1143
  415SOL    HW1 1244   0.341   1.089   1.186  1.1426 -0.3352 -0.1527
  415SOL    HW2 1245   0.186   1.026   1.222  0.7924  2.4127  1.9135
  416SOL     OW 1246   0.231   0.354   3.052  0.1717 -0.0082 -0.4255
  416SOL    HW1 1247   0.264   0.365   2.957  0.9476  1.9729  0.2475
  416SOL    HW2 1248   0.180   0.442   3.080 -1.5627  1.2487  0.1097
  417SOL     OW 1249   2.164   0.208   0.732 -0.6924 -0.5508  0.1277
  417SOL    HW1 1250   2.186   0.308   0.722  1.1019  0.8022  0.3068
  417SOL    HW2 1251   2.077   0.198   0.687 -0.3863  0.9353 -2.0323
  418SOL     OW 1252   0.406   0.531   2.590  0.0564 -0.3061 -0.3414
  418SOL    HW1 1253   0.478   0.572   2.651 -0.1826  0.1030  3.7874
  418SOL    HW2 1254   0.439   0.519   2.496 -0.0074  0.9799  0.6171
  419SOL     OW 1255   0.591   0.871   0.563 -0.4873  0.3299  0.2226
  419SOL    HW1 1256   0.530   0.824   0.494  0.5302 -0.3750  3.2017
  419SOL    HW2 1257   0.549   0.860   0.655  0.0394 -1.3820  0.3017
  420SOL     OW 1258   2.183   1.674   1.203  0.7088  0.0495  0.2508
  420SOL    HW1 1259   2.206   1.777   1.209 -1.5246  0.7699  0.6618
  420SOL    HW2 1260   2.266   1.620   1.210 -1.2315  2.0909 -0.4725
  421SOL     OW 1261   1.096   1.805   2.647  0.3418 -1.0389  0.2613
  421SOL    HW1 1262   1.172   1.742   2.627 -0.2167  1.2364  3.5327
  421SOL    HW2 1263   1.017   1.797   2.583 -2.3221  0.2269 -0.3054
  422SOL     OW 1264   2.433   0.687   3.073 -0.2184  0.2432  0.8160
  422SOL    HW1 1265   2.418   0.682   0.090 -0.6834  1.4930  1.4557
  422SOL    HW2 1266   2.529   0.686   3.047 -0.5205 -1.4272 -1.4310
  423SOL     OW 1267   1.823   1.729   0.355  0.1605  0.0272  0.3140
  423SOL    HW1 1268   1.824   1.809   0.295  3.1141 -1.3907  0.1190
  423SOL    HW2 1269   1.795   1.648   0.301 -1.0013 -1.1555  4.3738
  424SOL     OW 1270   0.589   1.475   1.727 -0.2182 -0.2697  0.5011
  424SOL    HW1 1271   0.636   1.422   1.656 -0.2760  0.8606  1.1784
  424SOL    HW2 1272   0.502   1.432   1.751 -0.4855  1.4247 -1.0794
  425SOL     OW 1273   2.679   2.774   2.295 -0.5955  0.1080 -0.4647
  425SOL    HW1 1274   2.611   2.759   2.364  0.6736 -1.4332  2.8902
  425SOL    HW2 1275   2.727   2.686   2.279  0.3871  1.4011  0.6771
  426SOL     OW 1276   1.794   2.560   0.445 -0.1918  0.6322 -0.1941
  426SOL    HW1 1277   1.735   2.642   0.431 -2.7788  0.2715  1.9644
  426SOL    HW2 1278   1.755   2.515   0.529  1.6152  0.2947  2.1150
  427SOL     OW 1279   0.269   0.456   2.790 -0.3468 -0.7265 -0.1096
  427SOL    HW1 1280   0.334   0.472   2.716  0.3951  2.2846  2.4781
  427SOL    HW2 1281   0.236   0.546   2.833  0.3815  2.2999  2.4883
  428SOL     OW 1282   2.199   1.210   2.786 -0.3163  0.2470  0.3189
  428SOL    HW1 1283   2.256   1.204   2.700  1.9135  1.0940 -2.7826
  428SOL    HW2 1284   2.145   1.295   2.783  0.7202 -2.0578  2.3398
  429SOL     OW 1285   3.010   0.311   0.514 -0.2205  1.0605  0.3917
  429SOL    HW1 1286   3.065   0.262   0.444 -2.2565 -1.4792 -2.5351
  429SOL    HW2 1287   3.005   0.250   0.594 -0.7607  3.5754 -6.3386
  430SOL     OW 1288   1.012   2.866   1.848  0.3160 -0.0235 -0.5390
  430SOL    HW1 1289   0.952   2.792   1.885  0.7247  1.6230 -2.3606
  430SOL    HW2 1290   0.959   2.924   1.785 -2.0859 -1.8229  1.0482
  431SOL     OW 1291   0.030   1.989   1.342 -0.3386 -0.2503  0.2814
  431SOL    HW1 1292   3.062   1.899   1.345  1.1137 -2.5185  2.2262
  431SOL    HW2 1293   3.061   2.066   1.304 -0.0720  2.3286 -1.0003
  432SOL     OW 1294   2.315   2.714   2.146  0.2130 -0.0665  0.1112
  432SOL    HW1 1295   2.397   2.650   2.124  3.0705 -1.1289 -3.9781
  432SOL    HW2 1296   2.330   2.815   2.122  2.0923  1.7763  1.4693
  433SOL     OW 1297   1.243   2.069   0.104 -0.1434 -0.4856 -0.1365
  433SOL    HW1 1298   1.320   2.036   0.050 -4.1108  0.4036  2.1049
  433SOL    HW2 1299   1.218   2.012   0.185  0.8902  0.9883 -2.6658
  434SOL     OW 1300   0.168   2.154   2.668 -0.6055 -0.3373  0.2727
  434SOL    HW1 1301   0.172   2.162   2.570  0.7344  0.5653  0.7756
  434SOL    HW2 1302   0.238   2.219   2.709 -1.2483 -0.9383  0.0822
  435SOL     OW 1303   3.014   1.102   0.745  0.3397  0.1259  0.3181
  435SOL    HW1 1304   2.930   1.045   0.768  0.7478  1.1192  2.1942
  435SOL    HW2 1305   2.994   1.160   0.662 -1.7227 -1.1172  1.2527
  436SOL     OW 1306   0.601   2.728   1.932  0.0543  0.3245 -0.3325
  436SOL    HW1 1307   0.678   2.763   1.993 -1.1443 -0.7522 -1.0516
  436SOL    HW2 1308   0.532   2.805   1.915 -0.7386 -0.4455  0.3781
  437SOL     OW 1309   1.127   2.251   1.027  0.4926  0.3725 -0.1005
  437SOL    HW1 1310   1.214   2.227   1.075  0.5678 -2.0802  1.7233
  437SOL    HW2 1311   1.118   2.196   0.941  2.0141 -0.2049  1.4590
  438SOL     OW 1312   0.210   2.318   0.795  0.0995  0.4262 -0.3793
  438SOL    HW1 1313   0.246   2.275   0.710 -1.0769  0.7283  1.2614
  438SOL    HW2 1314   0.178   2.253   0.862  0.5334 -0.5127  0.6970
  439SOL     OW 1315   0.630   2.720   1.459  0.6506  0.6193  0.1746
  439SOL    HW1 1316   0.685   2.788   1.402 -1.4191  1.7471  0.4059
  439SOL    HW2 1317   0.537   2.752   1.468  0.8533 -2.3290  1.3932
  440SOL     OW 1318   2.154   2.556   2.385  0.4071 -0.2520  0.2894
  440SOL    HW1 1319   2.204   2.487   2.326  0.0277 -3.7780 -4.0536
  440SOL    HW2 1320   2.148   2.536   2.484  1.9858  1.2365 -3.3200
  441SOL     OW 1321   0.040   0.570   1.935 -0.5119 -0.3053  0.6251
  441SOL    HW1 1322   3.069   0.564   1.847 -0.5937  1.3151  1.5180
  441SOL    HW2 1323   0.017   0.656   1.990  0.4898  1.3272 -0.8351
  442SOL     OW 1324   1.786   2.419   0.205 -0.0186 -0.2436  0.1864
  442SOL    HW1 1325   1.816   2.454   0.294 -0.2952  2.4584 -0.0690
  442SOL    HW2 1326   1.736   2.499   0.161 -1.8276  0.6721  3.2549
  443SOL     OW 1327   3.030   0.962   2.754  0.4056  1.0093  0.5647
  443SOL    HW1 1328   0.046   0.980   2.778  1.3139 -1.1287  1.2741
  443SOL    HW2 1329   2.976   1.042   2.792 -0.2199  0.8032  2.2452
  444SOL     OW 1330   1.684   1.250   2.214  0.3790  0.4940 -0.1928
  444SOL    HW1 1331   1.609   1.216   2.153 -0.0690  1.9872 -0.8690
  444SOL    HW2 1332   1.682   1.353   2.214 -0.3284  1.9832  1.3845
  445SOL     OW 1333   0.215   2.452   1.108 -0.1525 -0.1865  0.1093
  445SOL    HW1 1334   0.153   2.374   1.101  1.5904  3.1277 -0.4002
  445SOL    HW2 1335   0.174   2.529   1.052 -1.3464  3.5063  2.0749
  446SOL     OW 1336   2.806   1.594   1.207  0.1603  0.5788 -0.1170
  446SOL    HW1 1337   2.821   1.499   1.237 -0.0298 -0.2345 -0.8642
  446SOL    HW2 1338   2.841   1.605   1.112 -0.0931 -0.4169  1.0766
  447SOL     OW 1339   0.248   1.025   0.422  0.1245  0.3014  0.0180
  447SOL    HW1 1340   0.309   1.101   0.414 -1.5398 -1.4062 -2.1284
  447SOL    HW2 1341   0.261   0.977   0.510 -0.5430  0.0855 -3.3502
  448SOL     OW 1342   1.154   2.162   1.972 -0.2147  0.3850 -0.1761
  448SOL    HW1 1343   1.213   2.240   1.958  0.3712 -0.2445 -2.2874
  448SOL    HW2 1344   1.180   2.124   2.063 -0.4174 -1.0174  1.1450
  449SOL     OW 1345   1.095   1.608   0.238  0.0147 -0.4500  0.5872
  449SOL    HW1 1346   1.184   1.570   0.269  1.5274  0.1738 -0.7611
  449SOL    HW2 1347   1.014   1.549   0.257  1.4381  2.0995 -0.8269
  450SOL     OW 1348   2.760   2.790   1.981  0.3104  0.7512 -0.0195
  450SOL    HW1 1349   2.822   2.747   2.049 -0.5807 -1.8059  3.2184
  450SOL    HW2 1350   2.748   2.887   2.003  0.5310  0.0788  0.1507
  451SOL     OW 1351   2.289   0.777   2.517 -0.6405  0.1249  0.0209
  451SOL    HW1 1352   2.386   0.803   2.542  1.5119  1.4413  0.4013
  451SOL    HW2 1353   2.280   0.748   2.423  4.6422 -2.4055  1.9289
  452SOL     OW 1354   1.708   0.492   0.780 -0.5163  0.1191  0.8571
  452SOL    HW1 1355   1.689   0.411   0.716 -0.2911  1.0162  1.0599
  452SOL    HW2 1356   1.806   0.492   0.808  1.7299  1.6330 -1.7032
  453SOL     OW 1357   1.827   0.939   1.501 -0.0340 -0.1858  0.3505
  453SOL    HW1 1358   1.844   1.011   1.574 -2.4428  1.3964  0.8733
  453SOL    HW2 1359   1.884   0.951   1.420  1.5943 -0.9985  2.6350
  454SOL     OW 1360   2.934   1.326   0.320  0.3711 -0.9225 -0.2790
  454SOL    HW1 1361   2.894   1.314   0.413  1.3522  0.8625 -0.8296
  454SOL    HW2 1362   2.868   1.380   0.263  0.4057 -1.6508  1.0308
  455SOL     OW 1363   2.537   2.761   1.344  0.3481 -0.0411 -0.6468
  455SOL    HW1 1364   2.595   2.841   1.362 -1.8371 -2.4732 -1.3750
  455SOL    HW2 1365   2.471   2.791   1.277 -0.8571  0.4261  2.0255
  456SOL     OW 1366   0.102   2.930   1.506  0.6865 -0.3719 -0.7196
  456SOL    HW1 1367   0.170   2.854   1.500 -0.7644 -0.4752 -0.2796
  456SOL    HW2 1368   0.030   2.932   1.433  1.9935 -0.4283  0.3431
  457SOL     OW 1369   1.220   2.973   0.503 -0.2168 -0.0329  0.0449
  457SOL    HW1 1370   1.261   3.063   0.466 -0.3413  0.3868 -2.8225
  457SOL    HW2 1371   1.150   2.987   0.576  2.2540  1.9799 -1.4856
  458SOL     OW 1372   2.649   2.886   0.954 -0.1926 -0.0594  0.5098
  458SOL    HW1 1373   2.613   2.793   0.942 -0.3913 -0.4036  1.7995
  458SOL    HW2 1374   2.670   2.910   1.050 -1.2516 -0.8069  0.5829
  459SOL     OW 1375   2.382   0.420   3.020  0.4440  0.0353  0.0029
  459SOL    HW1 1376   2.410   0.518   3.013 -2.3325 -2.2831  1.8138
  459SOL    HW2 1377   2.427   0.369   2.946 -0.1308  0.2191 -0.7833
  460SOL     OW 1378   2.482   2.576   2.985  0.5780 -0.5522  0.4838
  460SOL    HW1 1379   2.476   2.669   2.944  1.3060  2.2116  0.6257
  460SOL    HW2 1380   2.576   2.546   3.005 -1.4948 -0.5079 -1.0069
  461SOL     OW 1381   0.682   1.710   0.393 -0.1882 -0.6120 -0.8154
  461SOL    HW1 1382   0.718   1.773   0.465  0.9161 -0.5026 -0.0475
  461SOL    HW2 1383   0.757   1.675   0.336 -0.5588 -4.4451  3.1045
  462SOL     OW 1384   2.126   2.050   0.890  0.4883  0.1382  0.0001
  462SOL    HW1 1385   2.070   2.047   0.807  1.5559 -0.4723  1.8657
  462SOL    HW2 1386   2.195   2.124   0.887 -0.9356  0.2681 -1.0115
  463SOL     OW 1387   2.547   1.096   0.730 -0.6278  0.2815  0.2105
  463SOL    HW1 1388   2.598   1.025   0.785  0.7258 -0.4429 -0.6916
  463SOL    HW2 1389   2.471   1.049   0.677  0.5979  1.0911 -2.0681
  464SOL     OW 1390   1.098   3.059   0.995  0.5120  0.4488 -0.4604
  464SOL    HW1 1391   1.015   0.012   0.955  0.1315 -0.5284  1.0436
  464SOL    HW2 1392   1.099   2.959   0.989 -1.8820  4.9161  1.6595
  465SOL     OW 1393   2.257   1.429   0.334 -0.3694  0.1708 -0.1114
  465SOL    HW1 1394   2.202   1.510   0.365  0.6629  2.5707  1.9605
  465SOL    HW2 1395   2.353   1.453   0.323 -1.5279  0.5911  0.0084
  466SOL     OW 1396   2.094   0.173   2.618  0.3440 -0.2550 -0.2368
  466SOL    HW1 1397   2.123   0.271   2.628  1.6665 -1.9291 -2.1667
  466SOL    HW2 1398   2.001   0.159   2.576 -0.3484  1.2998 -0.9239
  467SOL     OW 1399   1.029   1.001   1.490  0.2616  0.5636 -0.1958
  467SOL    HW1 1400   1.074   0.918   1.453 -0.4806  1.8264 -0.6721
  467SOL    HW2 1401   0.972   0.984   1.569  1.1636  1.0503 -0.2604
  468SOL     OW 1402   0.177   1.047   2.834 -0.0949 -0.6169  0.1062
  468SOL    HW1 1403   0.181   1.016   2.929  1.5398  1.0185  1.1920
  468SOL    HW2 1404   0.271   1.068   2.806  0.2837 -0.4953  3.3834
  469SOL     OW 1405   0.542   2.162   0.502  0.3057  0.0486 -0.2714
  469SOL    HW1 1406   0.524   2.180   0.404  2.8393 -1.8630 -0.3476
  469SOL    HW2 1407   0.611   2.225   0.540  0.3085 -1.5845  2.1179
  470SOL     OW 1408   2.614   1.352   2.826  0.1424 -0.3811  0.2461
  470SOL    HW1 1409   2.688   1.421   2.831 -1.6695 -0.4010  2.5500
  470SOL    HW2 1410   2.622   1.293   2.745  1.0327 -0.1818  1.2831
  471SOL     OW 1411   2.653   1.194   2.198 -0.7408 -0.0087 -0.1943
  471SOL    HW1 1412   2.630   1.292   2.218  4.0490  1.9761 -0.0077
  471SOL    HW2 1413   2.629   1.174   2.102 -1.5386 -0.1060 -0.6754
  472SOL     OW 1414   0.465   2.933   0.684  0.3532 -0.8331 -0.3287
  472SOL    HW1 1415   0.513   2.911   0.597 -1.3321 -0.0530  0.4720
  472SOL    HW2 1416   0.392   2.867   0.696 -0.0838  4.6551  0.4426
  473SOL     OW 1417   0.640   3.012   0.095 -0.5163  0.0816  0.1899
  473SOL    HW1 1418   0.568   3.005   0.165 -1.7719 -0.9206  1.1015
  473SOL    HW2 1419   0.598   2.996   0.002 -0.2669  0.9626 -0.4606
  474SOL     OW 1420   1.862   0.181   2.003  0.3444  0.2534  0.3524
  474SOL    HW1 1421   1.870   0.207   1.904  0.4559  2.7201 -3.3038
  474SOL    HW2 1422   1.763   0.195   2.025  0.7147  0.6088  1.3032
  475SOL     OW 1423   1.194   2.557   0.248  0.0430  0.5236  0.6739
  475SOL    HW1 1424   1.104   2.525   0.211  0.3397 -1.8812 -0.8235
  475SOL    HW2 1425   1.271   2.492   0.224  1.3570  0.6367 -3.0900
  476SOL     OW 1426   0.626   1.141   0.509 -0.0548  0.2953  0.1000
  476SOL    HW1 1427   0.638   1.044   0.537 -1.5454  1.2405  1.2235
  476SOL    HW2 1428   0.565   1.202   0.564  1.7560  0.7439  0.9109
  477SOL     OW 1429   1.559   2.458   1.445 -0.2007  0.5756 -0.4732
  477SOL    HW1 1430   1.501   2.375   1.435 -2.0605 -0.8969  1.1324
  477SOL    HW2 1431   1.559   2.505   1.360 -1.1566  0.9254  1.2656
  478SOL     OW 1432   0.429   1.736   2.531  0.0624 -0.0908 -0.2873
  478SOL    HW1 1433   0.525   1.711   2.500  1.7576 -0.2229 -0.4254
  478SOL    HW2 1434   0.403   1.657   2.592  0.3066  0.0504  1.7864
  479SOL     OW 1435   2.943   3.028   1.329  0.2356 -0.3820 -0.1195
  479SOL    HW1 1436   3.014   0.015   1.303 -0.2721  0.3340 -0.1707
  479SOL    HW2 1437   2.913   3.047   1.427 -2.4997  3.0211  2.5862
  480SOL     OW 1438   2.873   2.774   0.410  0.2479 -0.1222 -0.1301
  480SOL    HW1 1439   2.796   2.781   0.476  1.7136 -1.7428 -1.1532
  480SOL    HW2 1440   2.854   2.832   0.323 -1.9076  1.1604 -2.1802
  481SOL     OW 1441   2.772   2.525   0.944  0.5668  0.0416 -0.0524
  481SOL    HW1 1442   2.692   2.584   0.929 -0.6342  2.1507  2.4799
  481SOL    HW2 1443   2.756   2.431   0.906  0.3313 -0.1960  0.1630
  482SOL     OW 1444   1.248   2.298   2.517  0.1564  0.3196  0.4666
  482SOL    HW1 1445   1.266   2.325   2.422 -1.0648  0.9905  0.7217
  482SOL    HW2 1446   1.182   2.219   2.513 -1.0893 -1.2194 -3.7289
  483SOL     OW 1447   0.485   2.017   2.574 -0.3843 -0.0643 -0.2914
  483SOL    HW1 1448   0.460   1.922   2.556  2.9235 -0.8976  2.8340
  483SOL    HW2 1449   0.469   2.075   2.489 -3.4367  0.9203 -0.4538
  484SOL     OW 1450   1.027   1.302   2.017 -0.4742  0.0961 -0.4238
  484SOL    HW1 1451   1.078   1.226   2.063  1.4442 -1.6634  0.4319
  484SOL    HW2 1452   1.086   1.383   1.997  1.0992  0.9476  2.0369
  485SOL     OW 1453   2.559   0.289   0.558 -0.1324  0.6400 -0.4624
  485SOL    HW1 1454   2.500   0.209   0.578 -0.3966 -0.4457  1.4609
  485SOL    HW2 1455   2.502   0.362   0.517  1.4855  0.1256  0.8948
  486SOL     OW 1456   1.630   2.923   0.869  0.2172 -0.2417  0.8567
  486SOL    HW1 1457   1.694   2.962   0.936  0.0545  0.8640  0.3700
  486SOL    HW2 1458   1.632   2.981   0.784  3.5974  1.9199 -0.1189
  487SOL     OW 1459   0.476   2.155   0.931  0.5824  0.0654 -0.5966
  487SOL    HW1 1460   0.570   2.140   0.901 -3.0741 -0.5995 -1.2558
  487SOL    HW2 1461   0.480   2.216   1.011  2.4830 -0.7517 -1.6882
  488SOL     OW 1462   2.519   1.431   0.205  0.5185 -0.0310  0.7425
  488SOL    HW1 1463   2.559   1.494   0.274 -0.5900  1.4652  1.0202
  488SOL    HW2 1464   2.590   1.387   0.148 -2.3027  0.0969 -1.1099
  489SOL     OW 1465   1.535   2.937   1.162 -0.0544 -0.2871  0.1067
  489SOL    HW1 1466   1.580   2.926   1.073  0.3105  0.3444  2.3706
  489SOL    HW2 1467   1.587   2.889   1.233 -1.5020  0.7678  1.8714
  490SOL     OW 1468   1.107   0.984   0.122 -0.0220  0.4926 -0.4330
  490SOL    HW1 1469   1.194   0.943   0.157  0.0310  3.2249  0.0475
  490SOL    HW2 1470   1.058   1.030   0.200 -0.6409  0.9673 -2.2459
  491SOL     OW 1471   0.688   2.348   0.628  0.2470 -0.9666 -0.0224
  491SOL    HW1 1472   0.603   2.384   0.675 -1.6537  1.7405 -1.2296
  491SOL    HW2 1473   0.768   2.333   0.689  0.0851  2.2088  3.3221
  492SOL     OW 1474   1.447   1.407   2.089 -0.5289 -0.1186 -0.0191
  492SOL    HW1 1475   1.515   1.476   2.127  0.2700  1.8533  0.4811
  492SOL    HW2 1476   1.446   1.328   2.153  2.9104 -2.4963  0.2810
  493SOL     OW 1477   0.028   2.490   0.738 -0.2938 -0.0506 -0.2746
  493SOL    HW1 1478   0.114   2.439   0.761 -0.3394  0.5102  2.0191
  493SOL    HW2 1479   3.080   2.539   0.821  0.1799  0.1770 -1.1941
  494SOL     OW 1480   2.706   2.115   2.904  0.0590  0.1744  0.6923
  494SOL    HW1 1481   2.675   2.059   2.821  0.9364 -3.7206 -0.3890
  494SOL    HW2 1482   2.779   2.069   2.962 -0.7768  2.4336 -0.3733
  495SOL     OW 1483   2.551   1.722   2.740  0.1528 -0.2336 -0.7326
  495SOL    HW1 1484   2.588   1.809   2.703 -2.5182  0.0836 -0.0069
  495SOL    HW2 1485   2.622   1.660   2.775 -0.3720  0.4778  0.1496
  496SOL     OW 1486   2.516   0.130   1.516 -0.0518 -0.6180  0.5464
  496SOL    HW1 1487   2.445   0.200   1.532  2.8058  1.6223 -0.0769
  496SOL    HW2 1488   2.540   0.124   1.419 -0.6344  2.9515 -2.1565
  497SOL     OW 1489   2.684   1.058   0.466 -0.4442  0.0134 -0.3097
  497SOL    HW1 1490   2.611   1.015   0.523 -1.3453  2.3496  0.7926
  497SOL    HW2 1491   2.766   0.998   0.452 -2.1957 -1.0628  0.7695
  498SOL     OW 1492   0.163   2.178   2.390  0.3314  0.2026  0.4096
  498SOL    HW1 1493   0.161   2.265   2.334 -0.4087 -0.3880 -1.0611
  498SOL    HW2 1494   0.080   2.117   2.378 -2.7689  0.2640  0.5947
  499SOL     OW 1495   1.015   2.013   0.470  0.9925  0.2524  0.0100
  499SOL    HW1 1496   0.943   1.953   0.515  0.2105 -0.2745 -0.4493
  499SOL    HW2 1497   0.978   2.045   0.381  3.2774 -1.4651  0.3593
  500SOL     OW 1498   1.075   2.908   2.871  0.0645 -0.7747  0.0441
  500SOL    HW1 1499   1.027   3.001   2.871 -2.4172 -0.9567 -0.4781
  500SOL    HW2 1500   1.008   2.833   2.859  0.2902  2.7143  0.6629
  501SOL     OW 1501   1.511   0.200   1.300 -0.2687 -0.1847  0.7501
  501SOL    HW1 1502   1.508   0.271   1.229  1.5081 -1.8033  1.4201
  501SOL    HW2 1503   1.421   0.150   1.302 -3.7844  1.5119  1.8973
  502SOL     OW 1504   2.959   0.250   2.216 -0.2689 -0.2956 -0.0229
  502SOL    HW1 1505   3.023   0.321   2.239 -1.5216 -1.3240 -0.5651
  502SOL    HW2 1506   3.004   0.161   2.208 -0.5938 -0.3151 -0.0644
  503SOL     OW 1507   2.319   2.111   2.490 -0.4592  0.3099  0.3369
  503SOL    HW1 1508   2.238   2.175   2.482 -2.3520 -0.1769 -1.7159
  503SOL    HW2 1509   2.282   2.018   2.500  1.4354  4.2293  0.7524
  504SOL     OW 1510   1.369   0.471   1.666 -0.1314  0.4004  0.1096
  504SOL    HW1 1511   1.446   0.435   1.611  0.1736  1.5828 -2.0064
  504SOL    HW2 1512   1.335   0.391   1.724  1.5642 -1.9143 -1.2013
  505SOL     OW 1513   0.026   0.863   1.649  0.3739  0.2359 -0.0288
  505SOL    HW1 1514   3.015   0.904   1.648 -1.2065 -1.8638  0.8902
  505SOL    HW2 1515   0.094   0.920   1.698 -3.1417 -0.1643 -1.7029
  506SOL     OW 1516   0.425   1.179   2.467 -0.3290  0.5396 -0.4033
  506SOL    HW1 1517   0.512   1.161   2.421 -2.3701 -0.4820  0.2678
  506SOL    HW2 1518   0.358   1.102   2.467  1.1195 -0.1929  2.5309
  507SOL     OW 1519   0.242   2.582   2.707 -0.6553 -0.6331  1.1551
  507SOL    HW1 1520   0.290   2.627   2.785 -1.8806  3.1702  0.1428
  507SOL    HW2 1521   0.139   2.598   2.713  0.8128  0.2100  0.4904
  508SOL     OW 1522   1.606   0.805   1.375 -0.7908  0.4024  0.3634
  508SOL    HW1 1523   1.636   0.717   1.334 -0.6020  1.3889 -0.4724
  508SOL    HW2 1524   1.690   0.855   1.406  2.8198  3.6199 -0.4379
  509SOL     OW 1525   1.001   1.907   1.449 -0.0540 -0.1221  0.3613
  509SOL    HW1 1526   1.072   1.895   1.521  0.9528 -1.6831  1.0737
  509SOL    HW2 1527   1.046   1.940   1.365  1.1178 -0.1698  0.7268
  510SOL     OW 1528   2.215   1.121   2.315 -0.4074 -0.7206 -0.0564
  510SOL    HW1 1529   2.164   1.067   2.380 -0.2090  0.7148 -0.2107
  510SOL    HW2 1530   2.156   1.161   2.237 -1.0388  0.0587 -0.9457
  511SOL     OW 1531   0.547   1.525   0.811 -0.1665 -0.2875 -0.0099
  511SOL    HW1 1532   0.524   1.439   0.762 -1.2881  0.8043 -0.5034
  511SOL    HW2 1533   0.485   1.596   0.779  1.0793  0.7908  0.8635
  512SOL     OW 1534   2.324   2.087   0.556  0.1769 -0.2597  0.4361
  512SOL    HW1 1535   2.234   2.042   0.544  2.9926 -1.8168  0.3335
  512SOL    HW2 1536   2.366   2.121   0.467 -0.9982 -0.0747 -0.5597
  513SOL     OW 1537   2.918   1.884   2.586 -0.1062 -0.7271  0.0863
  513SOL    HW1 1538   2.926   1.790   2.550 -1.5300  0.6526 -1.3446
  513SOL    HW2 1539   2.946   1.957   2.518 -1.1367  0.1932 -1.2980
  514SOL     OW 1540   0.337   2.353   2.753 -0.1302  0.3216 -0.3186
  514SOL    HW1 1541   0.373   2.349   2.847 -3.7211  2.3112  2.3268
  514SOL    HW2 1542   0.295   2.442   2.737  0.5340 -1.0211 -0.3725
  515SOL     OW 1543   2.093   1.368   1.857  0.1266  0.1366 -0.1271
  515SOL    HW1 1544   1.999   1.404   1.867  2.7550 -3.1914 -0.1846
  515SOL    HW2 1545   2.136   1.415   1.777  0.9618  1.0878 -0.7832
  516SOL     OW 1546   2.238   2.183   2.930 -0.3786  0.2543 -0.3643
  516SOL    HW1 1547   2.190   2.187   3.022 -2.1919 -0.2090 -3.0394
  516SOL    HW2 1548   2.278   2.271   2.898 -4.3376 -3.1240  4.8066
  517SOL     OW 1549   1.380   1.262   3.070  0.2738  0.5403  0.7667
  517SOL    HW1 1550   1.454   1.250   2.998  1.1771 -1.1989  1.3254
  517SOL    HW2 1551   1.393   1.198   0.064  2.2770  1.4336 -2.4166
  518SOL     OW 1552   2.662   3.049   2.216 -0.3459  0.5521 -0.1025
  518SOL    HW1 1553   2.659   3.047   2.114 -0.3266 -3.0972 -0.7378
  518SOL    HW2 1554   2.671   2.948   2.247 -0.1302 -3.0338  2.0732
  519SOL     OW 1555   1.724   1.864   1.908  0.0596 -0.4972 -0.1899
  519SOL    HW1 1556   1.638   1.820   1.945 -1.7432 -2.3893  0.0610
  519SOL    HW2 1557   1.795   1.894   1.977 -3.2742  1.2104 -2.8721
  520SOL     OW 1558   2.689   3.082   2.621 -0.1124 -0.5454  0.2680
  520SOL    HW1 1559   2.733   0.030   2.706  0.9798 -0.1017  1.2504
  520SOL    HW2 1560   2.729   0.046   2.541 -2.8270  0.5477  0.2409
  521SOL     OW 1561   0.671   1.534   1.973 -0.2099 -0.0465 -0.0104
  521SOL    HW1 1562   0.673   1.528   1.872  2.3891  0.7950 -2.5092
  521SOL    HW2 1563   0.664   1.440   2.017 -1.2770 -1.1017  2.3703
  522SOL     OW 1564   1.141   0.016   1.491 -0.1737 -0.0280 -0.2722
  522SOL    HW1 1565   1.142   0.077   1.571  1.6783  0.1709 -3.3189
  522SOL    HW2 1566   1.045   3.083   1.458 -1.2364 -2.4272 -0.6563
  523SOL     OW 1567   0.208   2.700   0.919 -0.0537 -0.2420  0.3756
  523SOL    HW1 1568   0.287   2.737   0.973  1.5058 -0.6063  0.3119
  523SOL    HW2 1569   0.236   2.686   0.818  0.7497 -1.1026 -2.4473
  524SOL     OW 1570   1.724   2.505   0.692  0.0438 -0.3132 -0.4274
  524SOL    HW1 1571   1.720   2.439   0.772 -1.4268 -1.0941 -0.5838
  524SOL    HW2 1572   1.666   2.588   0.700 -1.5471 -0.0384 -0.1416
  525SOL     OW 1573   2.468   0.873   1.102  0.2162  0.7976  0.0155
  525SOL    HW1 1574   2.392   0.872   1.165  3.9176  1.8563 -1.2138
  525SOL    HW2 1575   2.431   0.869   1.006 -0.9557 -0.5034 -1.7728
  526SOL     OW 1576   1.029   2.779   0.713 -0.2234 -0.4417  0.2281
  526SOL    HW1 1577   0.997   2.722   0.633 -2.2833  1.0047  0.9652
  526SOL    HW2 1578   0.979   2.868   0.711 -1.4698  0.2836 -0.1239
  527SOL     OW 1579   1.912   1.971   0.621  0.1122  0.1207  0.3207
  527SOL    HW1 1580   1.975   1.960   0.543  1.0154 -1.9751  1.0117
  527SOL    HW2 1581   1.847   1.895   0.629 -1.8186 -0.0921 -2.1577
  528SOL     OW 1582   2.296   0.400   0.450 -0.1912  0.1123 -0.0049
  528SOL    HW1 1583   2.254   0.493   0.433 -0.0432 -1.3387 -1.2489
  528SOL    HW2 1584   2.273   0.335   0.381  0.7854  0.3205  5.5918
  529SOL     OW 1585   1.318   1.270   2.306 -0.5394 -0.8078 -0.0619
  529SOL    HW1 1586   1.272   1.364   2.320  2.1102  1.1324  1.2477
  529SOL    HW2 1587   1.301   1.206   2.381  0.9668  1.3417  2.5548
  530SOL     OW 1588   2.471   0.928   2.977 -0.2097 -0.0755  0.0607
  530SOL    HW1 1589   2.433   0.841   3.012 -1.0439  0.6425  0.2843
  530SOL    HW2 1590   2.404   0.967   2.907 -2.7946 -0.9759 -0.6041
  531SOL     OW 1591   1.441   1.059   0.149 -0.2161 -0.1152  0.4851
  531SOL    HW1 1592   1.401   0.966   0.158  2.0533  2.1560  0.0915
  531SOL    HW2 1593   1.503   1.075   0.233  0.8256 -0.3080 -0.7761
  532SOL     OW 1594   1.976   2.915   0.786  0.1824 -0.5844  0.5278
  532SOL    HW1 1595   1.937   2.982   0.855 -0.2897  0.7894 -0.3470
  532SOL    HW2 1596   2.045   2.853   0.833  3.8120  0.9915  1.1579
  533SOL     OW 1597   1.030   0.850   1.776 -0.4063 -0.1382 -0.3673
  533SOL    HW1 1598   1.113   0.904   1.784 -0.4110 -1.1812 -0.2454
  533SOL    HW2 1599   1.058   0.756   1.771  0.9487  1.9443  2.2228
  534SOL     OW 1600   1.797   2.994   2.734  0.2419 -0.0594 -0.2289
  534SOL    HW1 1601   1.779   2.901   2.696 -2.3573 -0.3910  1.0076
  534SOL    HW2 1602   1.859   2.983   2.819  0.1930  1.3605  4.4511
  535SOL     OW 1603   0.464   0.103   0.308  0.1095 -0.0612 -0.7083
  535SOL    HW1 1604   0.392   0.176   0.303 -1.1796 -0.1188  1.0183
  535SOL    HW2 1605   0.421   0.018   0.290 -2.2207  0.5357  1.4836
  536SOL     OW 1606   0.819   2.655   1.041 -0.0854  0.0640 -0.5227
  536SOL    HW1 1607   0.825   2.622   1.139  2.5858 -2.0350 -0.7796
  536SOL    HW2 1608   0.900   2.708   1.017 -0.0184 -0.1023 -0.5017
  537SOL     OW 1609   1.906   0.315   1.445  0.2201 -0.2587 -0.8063
  537SOL    HW1 1610   1.934   0.376   1.372 -2.2272  0.2140 -1.3604
  537SOL    HW2 1611   1.840   0.248   1.416  1.8906  0.3496  0.7932
  538SOL     OW 1612   2.808   2.947   0.176 -0.0357 -0.0651 -0.2347
  538SOL    HW1 1613   2.796   2.889   0.096  0.1162  1.5839  0.5002
  538SOL    HW2 1614   2.715   2.966   0.219  1.5630 -3.5463 -0.7450
  539SOL     OW 1615   2.754   2.083   1.967 -0.4548 -0.3887  0.3686
  539SOL    HW1 1616   2.738   2.048   1.872  1.4100  1.7411  0.3751
  539SOL    HW2 1617   2.852   2.113   1.980 -1.5973  1.4932  0.3079
  540SOL     OW 1618   2.947   2.811   1.787 -0.4141 -0.5428 -0.5415
  540SOL    HW1 1619   3.027   2.743   1.787  3.2761 -0.0197  3.2746
  540SOL    HW2 1620   2.878   2.779   1.858  0.6282 -1.0287 -2.1159
  541SOL     OW 1621   2.559   3.074   1.750  0.5063 -0.1452  0.1483
  541SOL    HW1 1622   2.565   0.038   1.659  2.5212  0.0328  0.1127
  541SOL    HW2 1623   2.490   3.000   1.739  0.3616  0.4289 -1.7348
  542SOL     OW 1624   2.812   0.763   2.180  0.8723  0.0374  0.6055
  542SOL    HW1 1625   2.784   0.840   2.240  0.4488  2.8547  0.7884
  542SOL    HW2 1626   2.760   0.681   2.209 -2.3921 -1.1173 -2.3802
  543SOL     OW 1627   0.835   0.737   0.571  0.7648  0.6453 -0.2745
  543SOL    HW1 1628   0.890   0.704   0.488 -1.3868 -2.4979 -1.6916
  543SOL    HW2 1629   0.747   0.780   0.540  0.4811  1.0158 -1.5637
  544SOL     OW 1630   2.552   2.020   1.061  1.4537  0.3578  0.2901
  544SOL    HW1 1631   2.510   1.976   0.976 -1.3601 -2.0235  0.4121
  544SOL    HW2 1632   2.567   1.947   1.134  0.1702 -0.5645 -1.7646
  545SOL     OW 1633   1.167   1.896   0.281  0.3160  0.3925 -0.6680
  545SOL    HW1 1634   1.124   1.923   0.370 -0.3644  0.2658 -1.8064
  545SOL    HW2 1635   1.165   1.800   0.263 -3.0436  2.1192  0.9549
  546SOL     OW 1636   2.463   0.527   2.016 -0.8688  0.5706  0.0984
  546SOL    HW1 1637   2.370   0.493   2.040  1.4076  0.9404  4.9364
  546SOL    HW2 1638   2.518   0.541   2.101  0.6404  3.2570 -0.5522
  547SOL     OW 1639   0.326   0.216   2.427  0.4126  0.9008 -0.1029
  547SOL    HW1 1640   0.248   0.241   2.489  0.0107  0.4768  0.1054
  547SOL    HW2 1641   0.341   0.289   2.358  0.4542  1.2134 -0.3663
  548SOL     OW 1642   2.068   2.048   2.294 -0.3180 -0.0013  0.0669
  548SOL    HW1 1643   2.140   2.061   2.222  3.7572  2.2657 -0.8528
  548SOL    HW2 1644   2.109   2.009   2.375 -2.6234  0.1275 -2.2923
  549SOL     OW 1645   2.507   0.554   0.838  0.0181  0.1747 -0.5664
  549SOL    HW1 1646   2.492   0.607   0.754  1.3127  0.7042  1.6824
  549SOL    HW2 1647   2.578   0.594   0.897 -2.2114 -2.2141  1.5872
  550SOL     OW 1648   1.587   1.355   0.465 -0.4499  0.3542  0.0120
  550SOL    HW1 1649   1.622   1.389   0.376 -0.1042  1.2478 -0.8453
  550SOL    HW2 1650   1.620   1.412   0.545 -1.2726 -0.3131  1.0445
  551SOL     OW 1651   1.298   0.373   1.205  0.3269  0.6920  0.7051
  551SOL    HW1 1652   1.234   0.408   1.131 -1.5092 -0.2764 -1.7056
  551SOL    HW2 1653   1.279   0.274   1.215 -4.1713  1.2698  0.9844
  552SOL     OW 1654   2.025   2.341   2.003 -0.0635 -0.0236 -0.4243
  552SOL    HW1 1655   2.031   2.425   2.064  2.2381 -0.0103  3.2696
  552SOL    HW2 1656   2.111   2.291   2.018 -0.5208 -1.2643  0.4623
  553SOL     OW 1657   0.061   0.133   0.366  0.3306  0.7339 -0.2528
  553SOL    HW1 1658   3.051   0.105   0.384  1.0965  0.1562 -1.0935
  553SOL    HW2 1659   0.123   0.059   0.397 -2.6087  1.7325  2.9558
  554SOL     OW 1660   1.463   2.700   1.889 -0.6508  0.0580 -0.4349
  554SOL    HW1 1661   1.513   2.698   1.800  0.1267  1.2390 -0.0301
  554SOL    HW2 1662   1.526   2.715   1.972 -1.9990  1.6268  0.4987
  555SOL     OW 1663   2.372   2.877   1.772 -0.2508  0.2693  0.0700
  555SOL    HW1 1664   2.297   2.944   1.742 -0.0849  1.7007  0.8851
  555SOL    HW2 1665   2.368   2.871   1.877  0.0139  1.1423  0.5240
  556SOL     OW 1666   0.836   2.859   0.288 -0.0474 -0.9620 -0.1629
  556SOL    HW1 1667   0.940   2.861   0.302  0.8112 -1.3707 -1.0233
  556SOL    HW2 1668   0.807   2.901   0.196  0.3280 -0.4238 -3.0136
  557SOL     OW 1669   0.670   2.101   2.305 -0.0686 -0.1544  0.2078
  557SOL    HW1 1670   0.697   2.051   2.219  2.2604 -1.4669  0.9787
  557SOL    HW2 1671   0.573   2.136   2.297 -1.7098 -2.0263  0.2063
  558SOL     OW 1672   2.619   1.161   2.618 -0.0544 -0.0716 -0.1618
  558SOL    HW1 1673   2.621   1.086   2.685  2.5150  2.2529 -1.0058
  558SOL    HW2 1674   2.523   1.176   2.589 -1.3652 -1.6523  1.5330
  559SOL     OW 1675   2.237   2.155   2.096  0.5540  0.2591 -0.1783
  559SOL    HW1 1676   2.269   2.231   2.153 -1.0786 -1.2508  2.1099
  559SOL    HW2 1677   2.321   2.105   2.057  0.8184 -0.0024 -0.4476
  560SOL     OW 1678   0.688   0.368   2.206 -0.5328  0.2779  0.5852
  560SOL    HW1 1679   0.699   0.270   2.238  1.0580 -4.1590  0.5822
  560SOL    HW2 1680   0.607   0.375   2.149  2.9174  2.4986 -0.9558
  561SOL     OW 1681   0.934   0.409   0.280 -0.1279  0.2726 -0.1352
  561SOL    HW1 1682   0.852   0.399   0.341  3.1026 -2.0902  1.1860
  561SOL    HW2 1683   0.931   0.356   0.192 -0.9267 -0.6713 -0.8710
  562SOL     OW 1684   0.831   1.330   1.477 -0.1231 -0.1575  0.4785
  562SOL    HW1 1685   0.728   1.317   1.481  1.4454  0.2368  2.0710
  562SOL    HW2 1686   0.865   1.296   1.386  1.0365  0.4091 -0.5398
  563SOL     OW 1687   1.652   2.934   0.024  0.2580 -0.0979 -0.3191
  563SOL    HW1 1688   1.724   2.870   3.080 -0.2785  1.4151  1.0676
  563SOL    HW2 1689   1.679   2.991   0.105  1.8161  1.3125  0.8977
  564SOL     OW 1690   3.063   1.928   0.520  0.0751  0.0041 -0.1546
  564SOL    HW1 1691   2.984   1.933   0.460  3.5259  0.8108 -0.2787
  564SOL    HW2 1692   3.042   1.958   0.617  0.9937 -0.7116  1.8798
  565SOL     OW 1693   0.575   2.483   2.304 -0.0474 -0.6853 -0.5915
  565SOL    HW1 1694   0.505   2.530   2.250  0.0748 -0.8335 -1.9426
  565SOL    HW2 1695   0.540   2.455   2.397  0.5594  0.0902  1.7926
  566SOL     OW 1696   1.508   2.415   2.461  0.0025  0.1083 -0.1059
  566SOL    HW1 1697   1.489   2.461   2.549 -2.8536 -3.2826 -1.7922
  566SOL    HW2 1698   1.434   2.441   2.393 -1.3020  0.7640 -0.6830
  567SOL     OW 1699   1.918   2.120   1.322 -0.5027 -0.7672  0.0683
  567SOL    HW1 1700   1.879   2.206   1.361  0.1679 -1.0908 -1.1413
  567SOL    HW2 1701   1.846   2.071   1.270  0.5604 -3.1385  1.4595
  568SOL     OW 1702   2.103   0.799   2.921  0.6920  0.3736  0.3129
  568SOL    HW1 1703   2.078   0.839   3.011  2.0999  0.1206 -1.6941
  568SOL    HW2 1704   2.095   0.695   2.937 -0.8467 -1.3166  0.7352
  569SOL     OW 1705   2.973   1.556   2.215  0.1788 -0.1523  0.3083
  569SOL    HW1 1706   3.013   1.637   2.177  0.2275 -2.3836 -2.0348
  569SOL    HW2 1707   2.963   1.558   2.315 -0.1446 -0.7752  0.5735
  570SOL     OW 1708   2.631   2.583   1.854  0.0655 -0.0577  0.1523
  570SOL    HW1 1709   2.583   2.611   1.767 -2.6241  1.6179 -0.6269
  570SOL    HW2 1710   2.654   2.663   1.916  1.8311  2.2283 -1.6189
  571SOL     OW 1711   0.369   0.382   1.788  0.8354  0.1426 -0.3544
  571SOL    HW1 1712   0.456   0.364   1.741  3.9944  0.1858 -2.2841
  571SOL    HW2 1713   0.306   0.418   1.718  1.0467  2.5649  3.7401
  572SOL     OW 1714   3.015   2.076   0.746  0.3215  0.0054  1.1524
  572SOL    HW1 1715   2.977   2.160   0.700 -1.5694 -0.9713 -1.4255
  572SOL    HW2 1716   3.069   2.096   0.829  0.7225  0.3384  1.2031
  573SOL     OW 1717   1.032   0.757   0.013  0.1571  0.1606 -0.1916
  573SOL    HW1 1718   1.042   0.852   0.045 -2.3558 -2.0217  0.0069
  573SOL    HW2 1719   0.938   0.721   0.026 -0.3516 -0.8806  2.0784
  574SOL     OW 1720   3.025   3.059   0.086 -0.6601 -0.1306 -0.4861
  574SOL    HW1 1721   0.019   3.032   0.144 -0.9070 -0.7118  1.1311
  574SOL    HW2 1722   2.942   3.010   0.119 -0.3905 -1.4019  0.1685
  575SOL     OW 1723   1.110   2.019   1.216  0.0706  0.9670 -0.8417
  575SOL    HW1 1724   1.090   1.948   1.146 -1.9825  2.7139  2.0859
  575SOL    HW2 1725   1.091   2.111   1.181  1.5693 -1.1961 -1.7566
  576SOL     OW 1726   2.829   2.913   1.577 -0.2688  0.8454 -0.0348
  576SOL    HW1 1727   2.883   2.879   1.658  0.5771  2.0476 -1.3398
  576SOL    HW2 1728   2.816   2.832   1.520 -3.2114 -0.8287 -0.5757
  577SOL     OW 1729   2.158   1.505   1.627 -0.0234  0.4544 -0.0192
  577SOL    HW1 1730   2.114   1.596   1.625 -0.7351 -2.1007  0.9946
  577SOL    HW2 1731   2.143   1.461   1.533  1.2164  1.1061 -1.9812
  578SOL     OW 1732   0.983   0.070   2.847 -0.2413 -0.4914  0.1529
  578SOL    HW1 1733   0.929   0.096   2.927 -1.0657 -0.0873 -2.7853
  578SOL    HW2 1734   1.046   0.149   2.822 -1.0045  2.4478  1.2438
  579SOL     OW 1735   2.476   1.825   2.214 -0.4136 -0.3260 -0.3908
  579SOL    HW1 1736   2.549   1.755   2.191 -1.0224 -3.1187 -0.7680
  579SOL    HW2 1737   2.464   1.894   2.137  2.5273 -1.6539 -1.2311
  580SOL     OW 1738   1.645   0.196   1.698 -0.1549 -0.2403  0.2713
  580SOL    HW1 1739   1.605   0.243   1.617  1.2646  0.3582 -0.2304
  580SOL    HW2 1740   1.675   0.269   1.762  1.2238  0.8432  1.7308
  581SOL     OW 1741   1.028   1.548   1.435  0.3052  0.0329  0.4502
  581SOL    HW1 1742   0.978   1.462   1.446  0.2445 -0.6688 -1.3642
  581SOL    HW2 1743   0.993   1.604   1.362  0.5402 -0.3292  0.5271
  582SOL     OW 1744   3.003   2.754   2.113 -0.3224 -0.0785  0.3601
  582SOL    HW1 1745   3.066   2.782   2.040 -1.7070  3.4056 -3.2791
  582SOL    HW2 1746   3.044   2.769   2.205  2.8299  0.0104  2.1599
  583SOL     OW 1747   1.890   1.205   1.546  0.0455 -0.1944  0.2020
  583SOL    HW1 1748   1.864   1.307   1.566 -0.4679  2.3365  1.6536
  583SOL    HW2 1749   1.948   1.178   1.629  1.0212  0.3056  0.4808
  584SOL     OW 1750   1.227   2.140   2.826  0.1138  0.9071  0.1250
  584SOL    HW1 1751   1.291   2.125   2.746 -0.4412 -1.4815  1.3718
  584SOL    HW2 1752   1.136   2.101   2.799 -0.9416 -2.4366  0.8484
  585SOL     OW 1753   0.349   2.492   0.539 -0.0887  0.8131 -0.7137
  585SOL    HW1 1754   0.407   2.462   0.620  0.8982  1.5324 -0.3447
  585SOL    HW2 1755   0.263   2.434   0.525  0.8213  0.3687  0.4187
  586SOL     OW 1756   1.853   2.349   2.844 -0.0065 -0.1111 -0.0044
  586SOL    HW1 1757   1.857   2.320   2.944 -1.9585 -1.1245  1.7550
  586SOL    HW2 1758   1.926   2.297   2.796  0.9876 -1.1905  2.6775
  587SOL     OW 1759   2.690   1.907   0.266  0.0080  0.7665 -0.0792
  587SOL    HW1 1760   2.695   2.007   0.292  4.1900  0.4736 -5.3018
  587SOL    HW2 1761   2.787   1.874   0.268  0.2503 -1.4950  1.3701
  588SOL     OW 1762   2.211   0.332   1.129 -0.2879 -0.1912  0.6462
  588SOL    HW1 1763   2.305   0.343   1.092 -1.1529 -0.5368 -1.7708
  588SOL    HW2 1764   2.196   0.376   1.222 -1.3554  3.3128 -0.4450
  589SOL     OW 1765   0.950   0.686   0.331  0.0650 -0.5851 -0.2090
  589SOL    HW1 1766   0.948   0.587   0.311 -1.3324 -0.6142  1.8025
  589SOL    HW2 1767   1.050   0.720   0.346 -0.7233  0.7587  2.1536
  590SOL     OW 1768   2.414   2.173   0.312  0.1658 -0.3324  0.2094
  590SOL    HW1 1769   2.349   2.251   0.308  0.0200 -0.3640 -0.2100
  590SOL    HW2 1770   2.459   2.170   0.221 -0.8858 -1.7839 -2.2627
  591SOL     OW 1771   0.062   2.641   1.782  0.1552 -0.1558  0.2963
  591SOL    HW1 1772   0.136   2.704   1.753 -0.6408  1.3631 -0.7674
  591SOL    HW2 1773   0.097   2.554   1.820 -0.3379  2.4213  0.9794
  592SOL     OW 1774   0.803   0.950   1.265 -0.6775  0.2246 -0.0207
  592SOL    HW1 1775   0.892   1.001   1.283 -0.3752  2.6474  3.3009
  592SOL    HW2 1776   0.785   0.865   1.321 -1.5084 -1.3549 -0.8375
  593SOL     OW 1777   0.918   1.639   1.192 -0.4002  0.2416 -0.4323
  593SOL    HW1 1778   0.982   1.704   1.151 -3.4620 -3.7441  0.6890
  593SOL    HW2 1779   0.826   1.650   1.143 -2.7566 -1.0107 -1.7316
  594SOL     OW 1780   0.410   2.075   2.860 -0.0986 -0.5860  0.0614
  594SOL    HW1 1781   0.354   1.994   2.891  2.9527 -0.3044 -0.6418
  594SOL    HW2 1782   0.413   2.081   2.759  2.2915  0.4727  0.8590
  595SOL     OW 1783   1.513   0.437   1.084  0.4063 -0.0293  0.2770
  595SOL    HW1 1784   1.481   0.504   1.018  0.8538  0.9535  2.2562
  595SOL    HW2 1785   1.434   0.410   1.143  1.6224 -0.1849  2.7966
  596SOL     OW 1786   0.090   1.394   0.449  0.0372 -0.1442  0.2878
  596SOL    HW1 1787   0.012   1.385   0.383 -0.0303  0.9849 -0.6596
  596SOL    HW2 1788   0.176   1.344   0.416  1.2607 -0.0038 -0.4804
  597SOL     OW 1789   0.007   2.414   0.028 -0.5456  0.4034  0.2132
  597SOL    HW1 1790   0.029   2.336   3.048 -0.4651  0.9862  0.4482
  597SOL    HW2 1791   0.024   2.378   0.120 -0.6565 -1.2292 -2.5503
  598SOL     OW 1792   2.172   1.894   2.492 -0.1466 -0.0133 -0.1007
  598SOL    HW1 1793   2.132   1.857   2.575  0.8938 -1.2648 -2.6155
  598SOL    HW2 1794   2.197   1.819   2.426  0.8143 -2.5352  1.1433
  599SOL     OW 1795   1.172   0.417   0.407 -0.3114  0.3693  0.1300
  599SOL    HW1 1796   1.083   0.418   0.362  0.0359  1.1292 -2.5764
  599SOL    HW2 1797   1.248   0.449   0.348 -0.4165  0.4639  1.2918
  600SOL     OW 1798   0.588   2.837   0.417  0.1238 -0.1362 -0.1311
  600SOL    HW1 1799   0.686   2.849   0.384 -0.6391 -1.1919  0.4387
  600SOL    HW2 1800   0.548   2.749   0.389  0.4039  1.0359  2.8683
  601SOL     OW 1801   0.377   0.696   1.198 -0.1569  0.6317  0.5993
  601SOL    HW1 1802   0.343   0.753   1.277 -0.4256 -0.8371  2.9227
  601SOL    HW2 1803   0.479   0.690   1.207 -2.2860  3.3047 -0.6034
  602SOL     OW 1804   0.414   2.936   1.234 -0.0198 -0.0081 -0.1881
  602SOL    HW1 1805   0.390   3.021   1.289 -2.3960  0.9894 -0.7135
  602SOL    HW2 1806   0.388   2.850   1.281 -0.0782  2.6762 -0.2864
  603SOL     OW 1807   1.152   2.761   2.383  0.2683 -0.0689 -0.4979
  603SOL    HW1 1808   1.204   2.728   2.307 -0.7357  0.0225  2.1098
  603SOL    HW2 1809   1.073   2.816   2.350 -0.8073 -0.7702 -1.0434
  604SOL     OW 1810   0.635   2.747   2.722  0.4788  0.0885  0.0941
  604SOL    HW1 1811   0.675   2.657   2.693 -2.2593 -2.8593  0.0276
  604SOL    HW2 1812   0.708   2.820   2.722 -2.0080 -0.8511  0.9190
  605SOL     OW 1813   1.137   0.587   1.810 -0.1269 -0.0687 -0.1543
  605SOL    HW1 1814   1.222   0.562   1.756  2.0423  2.3689  0.6234
  605SOL    HW2 1815   1.153   0.559   1.909 -0.1682 -1.1084  1.7071
  606SOL     OW 1816   2.328   0.129   2.527 -0.0481  0.1946  0.6184
  606SOL    HW1 1817   2.414   0.138   2.579  0.1846  0.7487  0.2258
  606SOL    HW2 1818   2.241   0.152   2.575  0.4618 -2.0320 -0.5793
  607SOL     OW 1819   0.518   0.825   0.806 -0.0873  0.1408 -0.2116
  607SOL    HW1 1820   0.570   0.861   0.884 -0.1237 -0.9748 -2.4381
  607SOL    HW2 1821   0.451   0.752   0.838  0.0356 -0.0014  0.4724
  608SOL     OW 1822   0.147   2.393   2.231 -0.2046  0.9942 -0.4164
  608SOL    HW1 1823   0.223   2.444   2.185 -0.1856 -1.4197 -2.3167
  608SOL    HW2 1824   0.055   2.436   2.216 -0.1637  3.0676 -0.6738
  609SOL     OW 1825   1.478   0.614   2.892  0.1135  0.1185  0.0170
  609SOL    HW1 1826   1.543   0.537   2.907 -0.9929  0.5496  0.6992
  609SOL    HW2 1827   1.421   0.625   2.974 -0.9889 -0.0106 -1.8423
  610SOL     OW 1828   0.810   2.869   1.297  0.5098 -0.2996  0.0081
  610SOL    HW1 1829   0.780   2.834   1.209 -0.4845 -0.2381  1.0766
  610SOL    HW2 1830   0.910   2.870   1.302 -0.3714  1.0425  0.4337
  611SOL     OW 1831   1.553   0.881   0.505  0.0757  0.4938 -0.2575
  611SOL    HW1 1832   1.585   0.957   0.446  0.4489 -0.3069 -2.2760
  611SOL    HW2 1833   1.573   0.798   0.455 -0.9195  1.9360  1.1831
  612SOL     OW 1834   1.611   0.706   2.669  0.6753 -0.8556 -0.5468
  612SOL    HW1 1835   1.569   0.673   2.579  0.2360 -1.1818 -2.7906
  612SOL    HW2 1836   1.551   0.684   2.749 -0.5918  0.7834  2.0031
  613SOL     OW 1837   2.400   0.864   0.843 -0.4735 -0.5376  0.2133
  613SOL    HW1 1838   2.319   0.913   0.824 -1.6457 -2.4211  1.7172
  613SOL    HW2 1839   2.431   0.818   0.762  0.4902 -0.9957 -0.5186
  614SOL     OW 1840   2.557   0.235   2.182  0.3447  0.6978  0.4417
  614SOL    HW1 1841   2.572   0.139   2.211 -1.6626  0.8138 -1.9041
  614SOL    HW2 1842   2.492   0.236   2.103 -0.6151  2.8212 -0.3280
  615SOL     OW 1843   0.767   2.169   0.916  0.5365  0.5106  0.6676
  615SOL    HW1 1844   0.720   2.167   1.008  0.5717 -0.4120  0.9817
  615SOL    HW2 1845   0.797   2.262   0.890 -1.6820  0.5685  0.1923
  616SOL     OW 1846   1.817   1.262   2.500  0.4916  0.1665 -0.0212
  616SOL    HW1 1847   1.791   1.236   2.404  0.0516 -1.4882 -0.8799
  616SOL    HW2 1848   1.878   1.343   2.506 -0.0603  2.8479 -0.6085
  617SOL     OW 1849   1.402   3.028   0.061 -0.0868 -0.4445  0.4002
  617SOL    HW1 1850   1.492   2.981   0.053  1.8378  0.5863 -1.6519
  617SOL    HW2 1851   1.329   2.960   0.033  0.3337 -1.9188 -0.3301
  618SOL     OW 1852   1.668   1.504   2.233 -0.6095  0.6701 -0.0107
  618SOL    HW1 1853   1.644   1.558   2.314  1.4745 -0.7080 -0.3295
  618SOL    HW2 1854   1.753   1.537   2.187  2.5533  1.0332 -1.7027
  619SOL     OW 1855   2.552   1.430   1.002  0.0061  0.0549  0.6128
  619SOL    HW1 1856   2.521   1.447   0.905  3.3640 -3.1141 -2.3745
  619SOL    HW2 1857   2.644   1.383   0.996  2.8224 -2.1110  2.8717
  620SOL     OW 1858   2.045   2.756   2.730 -0.4002  0.3353  0.0313
  620SOL    HW1 1859   2.046   2.787   2.827  1.4338 -0.9645 -2.0597
  620SOL    HW2 1860   1.949   2.759   2.692  1.2922 -1.3155 -2.0205
  621SOL     OW 1861   2.696   1.497   0.660 -0.5867 -0.3770 -0.1643
  621SOL    HW1 1862   2.679   1.525   0.564 -1.3669  1.2708  1.6766
  621SOL    HW2 1863   2.606   1.488   0.704  0.0902 -1.6050  0.4198
  622SOL     OW 1864   1.082   2.546   2.536  0.1582 -0.1327  0.2748
  622SOL    HW1 1865   1.129   2.458   2.517 -2.0860  0.3284  2.2434
  622SOL    HW2 1866   1.114   2.633   2.486 -2.1223  0.4109 -1.9144
  623SOL     OW 1867   0.290   2.470   0.205  0.1817 -0.1808 -0.0341
  623SOL    HW1 1868   0.249   2.393   0.156  2.4428 -0.5177  0.7519
  623SOL    HW2 1869   0.318   2.539   0.132 -0.9496  0.1306 -3.0447
  624SOL     OW 1870   0.325   2.967   0.084  0.4177 -0.7605 -0.1837
  624SOL    HW1 1871   0.267   3.053   0.067  2.1077  0.1399  0.3800
  624SOL    HW2 1872   0.368   2.935   3.082 -1.9334 -0.3107 -0.5914
  625SOL     OW 1873   0.881   2.284   3.031 -0.0586  0.1868 -0.3114
  625SOL    HW1 1874   0.875   2.287   2.932 -2.1492 -1.4306  0.5665
  625SOL    HW2 1875   0.939   2.204   3.057 -2.2531 -1.8841  0.1974
  626SOL     OW 1876   2.788   0.703   0.210 -0.1281  0.0789 -0.0399
  626SOL    HW1 1877   2.775   0.699   0.112  0.7906 -1.7388  1.5471
  626SOL    HW2 1878   2.717   0.639   0.247 -0.0431 -0.9081  2.8476
  627SOL     OW 1879   1.794   1.740   0.038  0.0104 -0.0920 -0.3055
  627SOL    HW1 1880   1.863   1.673   0.015 -1.4111 -0.1534 -1.2238
  627SOL    HW2 1881   1.794   1.826   3.060 -0.0507  1.9039 -0.8691
  628SOL     OW 1882   1.319   1.110   2.544 -0.1746 -0.3014 -0.0935
  628SOL    HW1 1883   1.254   1.070   2.612  1.4490  2.1649  0.9893
  628SOL    HW2 1884   1.399   1.146   2.594  1.9427 -0.3200  1.1454
  629SOL     OW 1885   0.563   2.965   1.732  0.2390  0.1925  0.1963
  629SOL    HW1 1886   0.659   2.942   1.738 -0.8442  2.7652  0.1936
  629SOL    HW2 1887   0.541   2.998   1.638 -1.7756  0.8180  1.7009
  630SOL     OW 1888   2.336   1.025   1.983 -0.2247 -0.1120 -0.0398
  630SOL    HW1 1889   2.368   1.116   2.022  2.9151  1.1580 -0.5122
  630SOL    HW2 1890   2.286   0.962   2.043  1.4002 -1.3221 -1.0232
  631SOL     OW 1891   1.907   0.170   0.603  0.3824 -0.1981 -0.0620
  631SOL    HW1 1892   1.820   0.222   0.616 -0.6157 -1.5740 -2.3657
  631SOL    HW2 1893   1.888   0.071   0.586 -1.7858  0.7938 -0.5156
  632SOL     OW 1894   0.210   0.462   1.593  0.3144 -0.0978 -0.0737
  632SOL    HW1 1895   0.173   0.389   1.535  1.6692  0.9671 -0.2993
  632SOL    HW2 1896   0.146   0.543   1.596  0.9801  1.8464  1.2862
  633SOL     OW 1897   0.941   0.317   3.009 -0.0594 -0.7145  0.6276
  633SOL    HW1 1898   0.870   0.392   3.005 -0.8881 -0.0031  2.4764
  633SOL    HW2 1899   0.902   0.237   3.060  1.7267 -2.2218 -0.4484
  634SOL     OW 1900   0.545   2.665   0.059 -0.2191 -0.0122 -0.5772
  634SOL    HW1 1901   0.635   2.633   0.103 -0.2715  0.1617  0.8326
  634SOL    HW2 1902   0.552   2.768   0.038 -1.1222  1.5052  0.4437
  635SOL     OW 1903   0.138   0.688   0.677 -0.3471  0.0060 -0.0995
  635SOL    HW1 1904   0.151   0.641   0.590  0.5546  1.3033  2.2954
  635SOL    HW2 1905   0.185   0.778   0.673 -1.1934 -3.0235 -0.8469
  636SOL     OW 1906   0.513   1.306   0.137  0.2827 -0.0880  0.0533
  636SOL    HW1 1907   0.584   1.232   0.120 -0.7977 -1.1333  0.7994
  636SOL    HW2 1908   0.542   1.398   0.111  0.3033 -0.6261  0.6252
  637SOL     OW 1909   0.261   2.719   0.666  0.3707 -0.5175  0.3365
  637SOL    HW1 1910   0.298   2.647   0.603 -1.3586 -0.3461 -2.8049
  637SOL    HW2 1911   0.172   2.756   0.629 -0.0454  2.2257 -3.2801
  638SOL     OW 1912   2.819   2.474   0.463  0.2007 -0.1655 -0.1806
  638SOL    HW1 1913   2.854   2.391   0.514 -0.2258  1.1115 -0.2758
  638SOL    HW2 1914   2.900   2.530   0.432  1.9401  2.4251 -0.0414
  639SOL     OW 1915   1.646   0.975   0.002  0.3382  0.9007 -0.3681
  639SOL    HW1 1916   1.551   0.983   0.044 -1.1562  2.1262  0.7130
  639SOL    HW2 1917   1.685   1.063   0.018 -2.6421 -0.1721 -0.4793
  640SOL     OW 1918   1.733   2.163   1.631  0.6627 -0.3989 -0.1969
  640SOL    HW1 1919   1.773   2.229   1.565 -3.4341 -1.0867  0.2438
  640SOL    HW2 1920   1.774   2.068   1.619  0.3379 -0.7136 -0.4230
  641SOL     OW 1921   3.071   2.846   0.887 -0.2558 -0.2994 -0.5781
  641SOL    HW1 1922   3.046   2.915   0.959 -0.5138  0.3816 -1.1918
  641SOL    HW2 1923   0.085   2.813   0.894  0.0281  0.8067  0.8564
  642SOL     OW 1924   0.928   0.268   1.730 -0.0141 -0.6482 -0.3021
  642SOL    HW1 1925   0.938   0.333   1.651 -1.2693  0.9274 -0.2816
  642SOL    HW2 1926   1.013   0.211   1.752  0.8119 -0.5583  0.5262
  643SOL     OW 1927   0.928   2.335   2.736 -0.0623 -0.3853  0.1397
  643SOL    HW1 1928   0.883   2.246   2.722  1.0087  1.3200 -1.2621
  643SOL    HW2 1929   1.011   2.350   2.678  1.1092 -2.4244 -1.3883
  644SOL     OW 1930   1.303   2.628   0.639 -0.1240  0.1365 -0.4105
  644SOL    HW1 1931   1.315   2.546   0.697  1.8374 -1.4040  0.8799
  644SOL    HW2 1932   1.209   2.630   0.599 -0.3667  0.6383  0.8169
  645SOL     OW 1933   1.586   1.139   1.704  0.4616 -0.5890  0.1250
  645SOL    HW1 1934   1.672   1.165   1.755 -0.6128  0.0239 -0.3777
  645SOL    HW2 1935   1.571   1.193   1.620 -0.2393 -0.5245 -1.2209
  646SOL     OW 1936   0.426   0.706   3.040  0.4401 -1.1345  0.3112
  646SOL    HW1 1937   0.439   0.650   0.039 -2.7726  1.7168 -0.5865
  646SOL    HW2 1938   0.475   0.796   3.045  0.3013 -2.0657 -1.7786
  647SOL     OW 1939   1.072   0.227   0.595  0.0482  0.0135  0.0521
  647SOL    HW1 1940   1.122   0.306   0.559  0.8390 -1.7380  0.2509
  647SOL    HW2 1941   1.133   0.176   0.662  1.9948 -3.5983  3.8214
  648SOL     OW 1942   2.302   2.872   1.196 -0.0216  0.5363 -0.3928
  648SOL    HW1 1943   2.315   2.892   1.094  0.0401 -1.2139 -0.2572
  648SOL    HW2 1944   2.284   2.772   1.213  0.1383 -1.8613 -0.9714
  649SOL     OW 1945   0.641   2.025   2.991 -0.2778  0.5485 -0.0207
  649SOL    HW1 1946   0.553   2.062   2.959  0.8375 -2.7572 -1.9483
  649SOL    HW2 1947   0.641   2.021   0.004 -1.3870 -0.2945 -4.2919
  650SOL     OW 1948   2.102   1.917   1.800 -0.0504  0.2492  0.5537
  650SOL    HW1 1949   2.049   2.006   1.802 -1.3111 -1.1079  0.4711
  650SOL    HW2 1950   2.072   1.865   1.723 -0.2191 -0.5775  1.9537
  651SOL     OW 1951   0.167   2.988   2.668 -0.0327 -0.2659  0.6346
  651SOL    HW1 1952   0.211   2.917   2.603  2.7835 -4.4639 -2.7402
  651SOL    HW2 1953   0.092   3.031   2.619  1.3054 -0.7827 -0.5987
  652SOL     OW 1954   2.901   1.678   0.638  0.9657 -0.7899 -0.4738
  652SOL    HW1 1955   2.830   1.622   0.671  1.0300  4.2305 -2.3592
  652SOL    HW2 1956   2.956   1.694   0.719 -2.4190 -1.9516  0.1735
  653SOL     OW 1957   0.077   0.436   1.068  0.2889  0.3502  0.2442
  653SOL    HW1 1958   0.100   0.438   0.970 -2.4457 -0.4236 -1.4553
  653SOL    HW2 1959   0.156   0.417   1.130 -0.7981 -0.1520  1.2108
  654SOL     OW 1960   0.864   0.069   0.006  0.2475  0.4157  0.3766
  654SOL    HW1 1961   0.938   0.047   0.071  0.0688 -0.1196 -0.6909
  654SOL    HW2 1962   0.780   0.027   0.039  1.1209  0.4155 -3.8620
  655SOL     OW 1963   0.611   3.059   1.108  0.5819 -0.3769 -0.6949
  655SOL    HW1 1964   0.642   0.053   1.158  0.3663 -1.5080 -0.4777
  655SOL    HW2 1965   0.564   3.002   1.180  0.7952  0.2643  0.3046
  656SOL     OW 1966   0.214   2.835   2.108 -0.8132 -0.5542 -0.0962
  656SOL    HW1 1967   0.250   2.905   2.172  0.8341  0.3544  1.8862
  656SOL    HW2 1968   0.236   2.858   2.010  0.6985 -2.0817 -3.1787
  657SOL     OW 1969   2.180   0.434   2.573 -0.0403 -0.1170  0.3716
  657SOL    HW1 1970   2.254   0.465   2.510 -1.4858 -0.4343 -0.4525
  657SOL    HW2 1971   2.140   0.514   2.624  1.2265 -1.2808  1.0719
  658SOL     OW 1972   1.906   1.703   1.228  0.3140 -0.1364 -0.0102
  658SOL    HW1 1973   1.883   1.787   1.175  2.8056  0.1680 -0.5848
  658SOL    HW2 1974   2.000   1.685   1.219 -0.8726 -0.6480 -0.3136
  659SOL     OW 1975   2.386   2.395   2.802 -0.1173  0.0534 -0.2011
  659SOL    HW1 1976   2.429   2.483   2.839  1.2181  3.0881  1.5440
  659SOL    HW2 1977   2.404   2.391   2.703 -2.5087 -2.5277  2.3032
  660SOL     OW 1978   1.211   0.743   0.415 -0.2797  0.1689 -0.0192
  660SOL    HW1 1979   1.219   0.807   0.496  0.0564  1.7671  2.1805
  660SOL    HW2 1980   1.268   0.659   0.436  0.9967  0.8752 -0.4151
  661SOL     OW 1981   2.442   2.858   0.657 -0.1294 -0.2712 -0.3854
  661SOL    HW1 1982   2.383   2.823   0.582  1.7728  0.8983 -0.6643
  661SOL    HW2 1983   2.539   2.851   0.627  1.7132 -2.4523 -0.6227
  662SOL     OW 1984   0.883   0.303   1.082  0.1048 -0.4904 -0.1082
  662SOL    HW1 1985   0.843   0.390   1.047  0.0086 -0.1106  0.8614
  662SOL    HW2 1986   0.867   0.225   1.024  1.1138 -2.5697  0.9869
  663SOL     OW 1987   1.554   2.735   2.336 -0.0697 -0.3047  0.1012
  663SOL    HW1 1988   1.640   2.683   2.365  0.1929  0.2358 -0.6799
  663SOL    HW2 1989   1.525   2.710   2.240 -2.5777 -0.3731 -3.0364
  664SOL     OW 1990   0.582   2.325   1.602  0.0100  0.5760 -0.3620
  664SOL    HW1 1991   0.671   2.287   1.632  0.1213 -1.3647 -1.4448
  664SOL    HW2 1992   0.510   2.257   1.628  2.3585 -2.3312  0.6350
  665SOL     OW 1993   0.839   2.222   1.672 -0.4735 -0.4129 -0.5203
  665SOL    HW1 1994   0.905   2.164   1.724  0.7989 -1.8271  0.1126
  665SOL    HW2 1995   0.842   2.193   1.576 -1.1068  0.5492  1.3517
  666SOL     OW 1996   0.086   2.827   0.149  0.7236  0.4524 -0.7899
  666SOL    HW1 1997   0.169   2.877   0.122 -0.4771  0.5497  1.3047
  666SOL    HW2 1998   0.048   2.768   0.079 -0.9649  1.0717 -0.0316
  667SOL     OW 1999   1.483   1.602   1.403  0.1214 -0.2041  0.7588
  667SOL    HW1 2000   1.388   1.606   1.440 -2.4673  0.8872  1.1205
  667SOL    HW2 2001   1.514   1.700   1.409  0.7068  3.1896  0.5508
  668SOL     OW 2002   1.399   0.310   2.081  0.5064 -0.2541 -0.4958
  668SOL    HW1 2003   1.439   0.368   2.150 -2.6204 -1.9446  1.4361
  668SOL    HW2 2004   1.305   0.339   2.062  0.3768  1.8546 -0.9863
  669SOL     OW 2005   2.451   2.244   1.597  0.0572  0.2332  0.4495
  669SOL    HW1 2006   2.358   2.271   1.630 -3.7821  1.2352  1.5133
  669SOL    HW2 2007   2.517   2.264   1.674 -3.3143  0.7635 -3.0678
  670SOL     OW 2008   1.656   2.185   0.270 -0.0756 -0.1039  0.0295
  670SOL    HW1 2009   1.635   2.143   0.361 -1.6201 -0.5262  0.3785
  670SOL    HW2 2010   1.695   2.277   0.290 -1.7146  3.8256  0.2043
  671SOL     OW 2011   1.282   1.026   1.028  0.0119  0.7698 -0.0042
  671SOL    HW1 2012   1.281   0.976   1.114  0.2683 -0.2236  0.7356
  671SOL    HW2 2013   1.198   1.088   1.019 -3.2597 -0.0312 -0.2213
  672SOL     OW 2014   2.347   1.205   2.565 -0.1593 -0.1615 -0.2873
  672SOL    HW1 2015   2.314   1.159   2.485  1.6827  2.6455  1.5797
  672SOL    HW2 2016   2.368   1.300   2.539 -0.3921  0.3234 -0.4468
  673SOL     OW 2017   0.029   1.670   1.596 -0.0056  0.0578 -0.1020
  673SOL    HW1 2018   3.033   1.702   1.544  0.4702  3.0149 -0.5070
  673SOL    HW2 2019   0.084   1.752   1.621 -2.1805 -1.6414 -1.6207
  674SOL     OW 2020   1.012   2.428   2.234 -0.0239 -0.3636 -0.3060
  674SOL    HW1 2021   0.921   2.408   2.190  1.0298  0.3740 -0.0220
  674SOL    HW2 2022   1.004   2.522   2.275  0.2249 -0.6646  0.7526
  675SOL     OW 2023   0.848   1.159   1.688  0.4576 -0.0154  0.6179
  675SOL    HW1 2024   0.768   1.104   1.711  1.2661  2.4059 -1.5956
  675SOL    HW2 2025   0.836   1.210   1.601  0.5003 -0.6558 -1.3650
  676SOL     OW 2026   2.278   0.467   0.724 -0.3331 -0.6704  0.7346
  676SOL    HW1 2027   2.288   0.461   0.623  0.3185  2.2616  0.9751
  676SOL    HW2 2028   2.367   0.503   0.761  1.7482 -0.5567  2.5264
  677SOL     OW 2029   2.399   1.623   3.027  0.0187 -0.3979 -0.3998
  677SOL    HW1 2030   2.449   1.562   2.963 -0.0397 -1.2992 -0.2933
  677SOL    HW2 2031   2.382   1.715   2.991  1.6836 -1.0942 -0.2785
  678SOL     OW 2032   0.319   0.069   1.392 -0.6996  0.3896  0.7192
  678SOL    HW1 2033   0.234   0.088   1.340  1.7049  1.6327  1.7921
  678SOL    HW2 2034   0.292   0.056   1.487 -1.3711 -1.8800  1.1931
  679SOL     OW 2035   2.484   0.335   0.176 -0.5852  0.3018 -0.5204
  679SOL    HW1 2036   2.428   0.372   0.100  0.2831  1.3886  1.1861
  679SOL    HW2 2037   2.425   0.275   0.238  0.7035 -0.4448  0.5125
  680SOL     OW 2038   0.223   2.274   1.822 -0.5392 -0.2957  1.0202
  680SOL    HW1 2039   0.123   2.304   1.820 -2.1641 -1.2216  1.7110
  680SOL    HW2 2040   0.239   2.208   1.895  0.2231  2.5679 -0.2401
  681SOL     OW 2041   2.249   1.940   1.228  0.1753  0.5760 -0.0763
  681SOL    HW1 2042   2.193   1.975   1.308  0.0758 -1.0285  0.1412
  681SOL    HW2 2043   2.286   2.012   1.168 -1.0590 -0.4317  2.8560
  682SOL     OW 2044   3.025   2.122   1.914 -0.2109  0.7344  0.0878
  682SOL    HW1 2045   3.020   2.046   1.847  0.7903  0.0602  0.2106
  682SOL    HW2 2046   0.028   2.123   1.972  3.1755 -2.0198  2.2054
  683SOL     OW 2047   2.980   2.183   1.238  0.1462 -0.0016  0.0971
  683SOL    HW1 2048   3.004   2.280   1.265 -0.4573  0.7505 -1.3564
  683SOL    HW2 2049   2.891   2.180   1.189  3.4763  0.3085 -2.9424
  684SOL     OW 2050   2.568   0.828   2.535 -0.3012  0.2460 -0.2341
  684SOL    HW1 2051   2.605   0.875   2.452  2.6478 -0.2322 -1.1431
  684SOL    HW2 2052   2.571   0.889   2.617 -2.7595  4.6376  1.1997
  685SOL     OW 2053   1.323   1.241   0.462  0.1815  0.1158  0.5590
  685SOL    HW1 2054   1.303   1.205   0.554  1.1928  1.3581 -2.5961
  685SOL    HW2 2055   1.418   1.275   0.466  1.8759  0.2707 -1.9593
  686SOL     OW 2056   0.258   0.278   0.281 -0.1479 -0.8155  0.2246
  686SOL    HW1 2057   0.246   0.292   0.183  1.7832 -0.4487 -0.0189
  686SOL    HW2 2058   0.173   0.236   0.322  1.5357 -1.4962  0.1796
  687SOL     OW 2059   1.570   1.231   2.599 -0.4779 -0.3755  0.2619
  687SOL    HW1 2060   1.515   1.310   2.561  1.3357 -0.3212 -0.7200
  687SOL    HW2 2061   1.668   1.225   2.560  0.8338  0.5158 -0.9735
  688SOL     OW 2062   1.556   1.333   1.482  0.4588  0.3479  0.1454
  688SOL    HW1 2063   1.654   1.326   1.515  0.7456 -0.3684 -0.1161
  688SOL    HW2 2064   1.531   1.429   1.452  1.4987 -0.0682  2.1819
  689SOL     OW 2065   2.190   0.016   1.217 -0.1640 -0.2610  0.5048
  689SOL    HW1 2066   2.217   0.050   1.123  1.1324 -1.7582  0.4132
  689SOL    HW2 2067   2.233   3.009   1.233 -1.8219  0.6028 -0.7615
  690SOL     OW 2068   0.005   1.252   1.108 -0.4593 -0.0638 -0.1172
  690SOL    HW1 2069   3.027   1.170   1.115 -0.6373 -1.1415  0.3144
  690SOL    HW2 2070   0.089   1.220   1.153 -1.7669  1.0499  0.8691
  691SOL     OW 2071   0.472   2.369   1.094  0.3212  0.0327 -0.1026
  691SOL    HW1 2072   0.523   2.456   1.068  0.5030  2.0275  0.7137
  691SOL    HW2 2073   0.373   2.398   1.092 -1.5338  2.0012  0.5191
  692SOL     OW 2074   2.547   0.703   1.803  0.3369 -0.0719  0.1942
  692SOL    HW1 2075   2.616   0.768   1.831  1.1928 -1.9528  0.0738
  692SOL    HW2 2076   2.497   0.663   1.883 -0.9937  0.2291 -0.9723
  693SOL     OW 2077   0.495   1.696   2.091 -0.6279 -0.0936  0.3132
  693SOL    HW1 2078   0.569   1.631   2.059  0.8896 -0.9303 -0.0349
  693SOL    HW2 2079   0.435   1.646   2.154  1.8218  1.9962 -1.7148
  694SOL     OW 2080   1.823   1.262   1.291  0.6024 -0.1460  0.0671
  694SOL    HW1 2081   1.864   1.258   1.382  2.4215 -0.3969 -0.8875
  694SOL    HW2 2082   1.740   1.199   1.288  2.9691 -1.2025 -2.1011
  695SOL     OW 2083   0.748   1.215   0.789  0.3638 -0.2805 -0.0683
  695SOL    HW1 2084   0.795   1.136   0.751 -0.8321  1.7602  0.7230
  695SOL    HW2 2085   0.647   1.213   0.779  0.8616  0.3961  2.0299
  696SOL     OW 2086   1.129   2.843   0.268  0.6206 -0.0954  0.3558
  696SOL    HW1 2087   1.180   2.867   0.354 -0.6919 -1.0893 -1.7162
  696SOL    HW2 2088   1.187   2.795   0.196  2.2468  2.9161  0.8670
  697SOL     OW 2089   1.399   0.228   1.826 -0.1832 -0.3524 -0.3345
  697SOL    HW1 2090   1.482   0.183   1.785 -0.1309 -0.3288  2.0684
  697SOL    HW2 2091   1.421   0.257   1.921 -1.3392 -1.1598  3.1578
  698SOL     OW 2092   1.837   1.454   1.927  0.2792  0.1778 -0.6935
  698SOL    HW1 2093   1.868   1.525   1.992 -1.5419 -1.8039  3.4039
  698SOL    HW2 2094   1.738   1.465   1.895 -1.1186  1.1348 -2.2798
  699SOL     OW 2095   2.637   0.328   1.832  0.1873  0.1598 -0.5684
  699SOL    HW1 2096   2.579   0.267   1.892 -0.1685  0.5101  0.1931
  699SOL    HW2 2097   2.737   0.300   1.846  0.5846  1.8682  0.1969
  700SOL     OW 2098   1.260   2.230   0.498 -0.1973  0.1211 -0.4941
  700SOL    HW1 2099   1.251   2.305   0.431  0.0002 -0.4828  0.4226
  700SOL    HW2 2100   1.181   2.164   0.503 -2.9418 -2.7730 -0.0411
  701SOL     OW 2101   2.098   2.959   2.542  0.5222 -0.1672 -0.5274
  701SOL    HW1 2102   2.132   2.902   2.618 -2.5249  1.3262 -0.5632
  701SOL    HW2 2103   2.092   3.055   2.577  1.2313 -1.5867  0.3346
  702SOL     OW 2104   0.847   0.057   0.921 -0.2383 -0.7860  0.4356
  702SOL    HW1 2105   0.773   0.017   0.983 -4.6289 -0.2316  1.4590
  702SOL    HW2 2106   0.806   0.077   0.828 -1.3949 -0.3326 -0.9140
  703SOL     OW 2107   2.273   2.974   2.014 -0.1646 -0.4793  0.3558
  703SOL    HW1 2108   2.174   2.991   1.996 -0.4092  0.5185  0.2389
  703SOL    HW2 2109   2.309   3.016   2.099 -1.5661  0.1593 -1.4297
  704SOL     OW 2110   2.754   2.140   0.429 -0.5696  0.4827  0.4496
  704SOL    HW1 2111   2.711   2.228   0.436 -0.9174 -3.1838 -0.9730
  704SOL    HW2 2112   2.746   2.095   0.522 -2.9711 -0.5186  2.4559
  705SOL     OW 2113   2.439   2.699   2.448  0.3908 -0.2399  0.4047
  705SOL    HW1 2114   2.443   2.800   2.456  0.5581 -0.5507 -0.4915
  705SOL    HW2 2115   2.386   2.670   2.362 -1.3332 -3.0120  4.5685
  706SOL     OW 2116   2.509   0.110   1.238  0.4461 -0.1105 -0.7859
  706SOL    HW1 2117   2.540   0.203   1.269 -0.9450  0.4042  2.3760
  706SOL    HW2 2118   2.412   0.107   1.201 -1.8690 -0.2972 -0.9771
  707SOL     OW 2119   0.875   2.918   2.392  0.2161 -0.3505 -0.0759
  707SOL    HW1 2120   0.855   2.819   2.382  1.6649 -1.6154 -1.1776
  707SOL    HW2 2121   0.842   2.950   2.481 -0.3864  0.7179  0.3724
  708SOL     OW 2122   0.136   1.921   1.583  0.1429  1.1021  0.0927
  708SOL    HW1 2123   0.103   1.943   1.487  1.0860 -0.6999  1.0688
  708SOL    HW2 2124   0.241   1.913   1.578  1.4645 -0.4458 -0.1324
  709SOL     OW 2125   1.568   0.386   1.500 -0.1611  0.2841 -0.0181
  709SOL    HW1 2126   1.617   0.462   1.454  0.5398 -0.3230 -2.2426
  709SOL    HW2 2127   1.549   0.312   1.434  0.5944  0.1684 -2.0876
  710SOL     OW 2128   0.827   2.942   2.695 -0.0110  0.3596  0.7605
  710SOL    HW1 2129   0.922   2.963   2.714 -2.0022 -0.1609  1.8423
  710SOL    HW2 2130   0.766   3.027   2.713 -0.6128  0.2136  0.4113
  711SOL     OW 2131   1.106   2.064   2.496 -0.2631  0.0306  0.0673
  711SOL    HW1 2132   1.017   2.098   2.463 -1.0947 -0.5305  0.5376
  711SOL    HW2 2133   1.109   1.964   2.506  0.6578 -0.2691 -1.7118
  712SOL     OW 2134   1.018   2.033   3.060 -0.0333 -0.1048  0.2487
  712SOL    HW1 2135   1.007   2.014   2.959  2.1736  3.3432 -1.6395
  712SOL    HW2 2136   1.118   2.054   3.083  0.9975 -0.3960  0.5637
  713SOL     OW 2137   1.890   1.059   2.135  0.0204 -0.0153  0.1152
  713SOL    HW1 2138   1.830   1.125   2.180  0.7750  0.0842 -0.4346
  713SOL    HW2 2139   1.904   0.983   2.203  0.0092 -1.3589 -1.4670
  714SOL     OW 2140   0.930   1.710   1.729 -0.1690  0.2679 -0.6690
  714SOL    HW1 2141   1.005   1.725   1.666 -2.1411 -0.9011 -0.0074
  714SOL    HW2 2142   0.900   1.607   1.729  0.9411  0.0361  2.6640
  715SOL     OW 2143   2.557   0.563   0.282  0.5441 -0.0379 -0.4463
  715SOL    HW1 2144   2.524   0.479   0.234 -2.5436 -1.6719 -0.9964
  715SOL    HW2 2145   2.478   0.598   0.339  0.3657  0.1081  1.9940
  716SOL     OW 2146   2.746   2.415   1.530  0.1637  0.0562  0.1182
  716SOL    HW1 2147   2.828   2.352   1.531  0.1092  1.6559 -1.5417
  716SOL    HW2 2148   2.700   2.406   1.619  3.5357 -0.7140  1.0934
  717SOL     OW 2149   2.670   1.087   1.220 -0.3124 -0.2635 -0.1554
  717SOL    HW1 2150   2.581   1.102   1.177  2.1339  1.5337  0.6039
  717SOL    HW2 2151   2.749   1.094   1.153 -2.2952 -1.5918 -2.7184
  718SOL     OW 2152   1.249   1.602   1.589 -0.0625  0.1434  0.3192
  718SOL    HW1 2153   1.275   1.513   1.631  0.1230 -1.4467  0.7048
  718SOL    HW2 2154   1.159   1.595   1.539 -1.8960  2.4908 -1.5842
  719SOL     OW 2155   2.704   0.646   3.000 -0.5920  0.2180  0.3936
  719SOL    HW1 2156   2.737   0.702   2.924  1.2561  0.5815  2.0070
  719SOL    HW2 2157   2.764   0.559   3.008  3.7811 -0.3590 -0.1468
  720SOL     OW 2158   0.851   0.325   0.749 -0.1084  0.4886 -0.5987
  720SOL    HW1 2159   0.937   0.318   0.694  1.0506 -1.4860 -0.1101
  720SOL    HW2 2160   0.826   0.424   0.750 -2.4980  0.3023 -1.3319
  721SOL     OW 2161   2.477   0.720   0.627 -0.7821  0.2142  0.1207
  721SOL    HW1 2162   2.427   0.729   0.534  0.1661 -0.6430 -0.8450
  721SOL    HW2 2163   2.575   0.742   0.608 -3.1482  3.2843 -0.5140
  722SOL     OW 2164   0.529   2.365   2.571  1.2102  0.3312 -0.1200
  722SOL    HW1 2165   0.458   2.372   2.646 -0.7883  0.2720 -1.1097
  722SOL    HW2 2166   0.513   2.290   2.510 -1.0298  2.4772 -2.9699
  723SOL     OW 2167   1.831   3.063   0.985  0.6215  0.3670  0.1267
  723SOL    HW1 2168   1.808   0.077   1.000 -1.1194  1.5210  2.8737
  723SOL    HW2 2169   1.865   3.021   1.076  0.2259  0.0057 -0.1799
  724SOL     OW 2170   1.177   1.706   2.189 -0.4613  0.1910 -0.6117
  724SOL    HW1 2171   1.192   1.724   2.089 -1.9683 -0.4572  2.4737
  724SOL    HW2 2172   1.099   1.756   2.225  2.9598 -1.5567 -1.0542
  725SOL     OW 2173   1.309   2.756   1.270 -0.0348  0.3577 -0.4178
  725SOL    HW1 2174   1.325   2.831   1.343 -0.6191  0.9843 -0.4340
  725SOL    HW2 2175   1.382   2.749   1.201  0.3053 -1.6771  0.4878
  726SOL     OW 2176   2.073   2.771   0.129 -0.1476  0.1304 -0.5609
  726SOL    HW1 2177   2.048   2.677   0.091  0.4191 -1.2065 -0.1129
  726SOL    HW2 2178   2.039   2.785   0.225  1.8083 -0.2485 -1.4136
  727SOL     OW 2179   1.468   1.656   1.121  0.0707  0.5791 -0.1475
  727SOL    HW1 2180   1.467   1.614   1.213 -0.9361 -2.4032  0.8660
  727SOL    HW2 2181   1.518   1.594   1.056  1.2339  4.0249 -0.7410
  728SOL     OW 2182   2.063   2.661   2.055 -0.0138  0.0010 -0.7598
  728SOL    HW1 2183   2.003   2.731   2.104 -0.9654 -1.7539  0.5263
  728SOL    HW2 2184   2.161   2.687   2.072 -0.3061  1.7738  0.4189
  729SOL     OW 2185   1.812   2.357   1.437 -0.6309  0.1491 -0.1831
  729SOL    HW1 2186   1.722   2.400   1.425  0.7384 -0.6729  1.3329
  729SOL    HW2 2187   1.887   2.432   1.434  3.8541  1.1828  3.6226
  730SOL     OW 2188   1.847   0.625   2.382  0.0454 -0.3702  0.1428
  730SOL    HW1 2189   1.766   0.681   2.367  1.5220 -0.0400  1.0304
  730SOL    HW2 2190   1.847   0.594   2.480  0.2500 -2.0877  0.3104
  731SOL     OW 2191   1.091   2.935   1.235 -0.1813  0.2965  0.0781
  731SOL    HW1 2192   1.155   2.855   1.216  1.5698 -1.4389 -3.1299
  731SOL    HW2 2193   1.103   2.995   1.150  2.9261 -0.8720 -0.3947
  732SOL     OW 2194   1.260   0.118   0.856  0.3232  1.1600  0.0621
  732SOL    HW1 2195   1.196   0.056   0.904  0.6890 -0.3323 -0.2555
  732SOL    HW2 2196   1.359   0.096   0.886  2.0188  1.2152  2.9986
  733SOL     OW 2197   1.286   1.161   0.731  0.2376  0.2038  0.1207
  733SOL    HW1 2198   1.366   1.167   0.793 -2.4266  1.6348  0.6842
  733SOL    HW2 2199   1.278   1.069   0.684  1.1058 -1.6807  0.4489
  734SOL     OW 2200   2.479   2.353   2.540  0.2527 -0.1014  1.0639
  734SOL    HW1 2201   2.575   2.342   2.502  3.2831 -0.0835  0.0159
  734SOL    HW2 2202   2.430   2.265   2.526  0.8785  0.4694  1.0366
  735SOL     OW 2203   0.633   0.270   0.868 -0.0669 -0.0771  0.6423
  735SOL    HW1 2204   0.612   0.180   0.831  2.1136  3.5942  3.0243
  735SOL    HW2 2205   0.724   0.295   0.830  0.8518 -2.9968 -1.0836
  736SOL     OW 2206   1.451   2.257   2.928 -0.1000  0.1717 -0.0136
  736SOL    HW1 2207   1.450   2.305   3.018 -1.3295  0.6804 -0.6523
  736SOL    HW2 2208   1.355   2.223   2.910  0.0615  1.3536  3.5183
  737SOL     OW 2209   0.710   2.195   1.212  0.2825  0.1343  0.3632
  737SOL    HW1 2210   0.632   2.257   1.234 -1.0240 -1.0375  0.3427
  737SOL    HW2 2211   0.776   2.203   1.288 -1.1454 -1.1947  0.1979
  738SOL     OW 2212   1.342   2.878   2.797 -0.6826  0.1275  0.3928
  738SOL    HW1 2213   1.259   2.877   2.854 -0.5813 -0.6282 -0.5246
  738SOL    HW2 2214   1.420   2.925   2.837  0.0724 -0.0885 -0.6789
  739SOL     OW 2215   0.918   2.133   2.145  0.3440 -0.3223  0.0021
  739SOL    HW1 2216   0.997   2.168   2.089  1.7046 -0.2508 -0.7487
  739SOL    HW2 2217   0.861   2.213   2.169 -1.5292  0.2793 -3.7554
  740SOL     OW 2218   1.375   2.228   1.399  0.2077  0.3329 -0.4316
  740SOL    HW1 2219   1.373   2.229   1.295  2.8607  0.3518  0.6047
  740SOL    HW2 2220   1.274   2.248   1.430 -1.3428  1.3530  0.5621
  741SOL     OW 2221   2.512   1.148   0.271 -0.4993  0.5247  0.1922
  741SOL    HW1 2222   2.560   1.130   0.358 -2.6985  1.0198  0.6432
  741SOL    HW2 2223   2.501   1.243   0.249 -2.3172  1.9352 -0.2957
  742SOL     OW 2224   0.832   1.616   2.178  0.5897 -0.4789  0.4962
  742SOL    HW1 2225   0.850   1.716   2.174 -0.6865  0.5535  1.2777
  742SOL    HW2 2226   0.815   1.578   2.081 -2.1688  0.5039 -1.9841
  743SOL     OW 2227   0.428   1.116   2.772 -0.2640  0.2435  0.2219
  743SOL    HW1 2228   0.491   1.096   2.693  2.6642 -0.4112  0.6468
  743SOL    HW2 2229   0.414   1.215   2.794 -0.8349  1.1880 -1.6809
  744SOL     OW 2230   2.099   2.317   1.246  0.1546 -0.5401  0.5072
  744SOL    HW1 2231   2.195   2.338   1.281 -0.6003 -0.0093  0.5881
  744SOL    HW2 2232   2.058   2.229   1.277 -1.1611  0.2919  0.1442
  745SOL     OW 2233   2.132   1.443   1.377  0.2033  0.1664 -0.5196
  745SOL    HW1 2234   2.163   1.350   1.354  0.3733  1.4940  0.7659
  745SOL    HW2 2235   2.159   1.508   1.303  3.5472  2.3963 -2.0261
  746SOL     OW 2236   2.009   1.071   0.854 -0.2547  0.3965  0.2595
  746SOL    HW1 2237   2.093   1.108   0.890 -1.8924 -0.3974  3.2050
  746SOL    HW2 2238   1.928   1.086   0.915  0.7058 -1.9583  0.2764
  747SOL     OW 2239   1.805   1.756   0.877  0.2447  0.0137  0.3209
  747SOL    HW1 2240   1.764   1.765   0.783 -0.2409 -1.6236 -2.7857
  747SOL    HW2 2241   1.767   1.678   0.928  1.3917  3.0236  0.3526
  748SOL     OW 2242   0.520   1.544   0.518 -0.2747 -0.0678 -0.8163
  748SOL    HW1 2243   0.457   1.612   0.563  1.8026 -0.2341  0.0701
  748SOL    HW2 2244   0.593   1.598   0.470  0.1280  2.3417 -0.6520
  749SOL     OW 2245   0.033   2.815   2.371 -0.1431  0.4819  0.6551
  749SOL    HW1 2246   3.049   2.820   2.444  1.6362  0.6368 -1.1378
  749SOL    HW2 2247   0.129   2.802   2.410  0.2753 -3.5345 -0.2511
  750SOL     OW 2248   1.959   0.383   1.048 -0.1600 -0.0502  0.0532
  750SOL    HW1 2249   1.972   0.395   0.945 -0.5006 -0.9381 -1.9185
  750SOL    HW2 2250   2.047   0.343   1.082 -2.2615  0.9059 -0.4799
  751SOL     OW 2251   2.316   0.140   0.295  0.3732 -0.0871 -0.1366
  751SOL    HW1 2252   2.299   0.048   0.246  0.1312 -0.8256 -0.9748
  751SOL    HW2 2253   2.333   0.128   0.392 -0.7481  1.0021 -0.0864
  752SOL     OW 2254   2.122   1.992   0.404 -0.2937  0.2558  0.0015
  752SOL    HW1 2255   2.074   2.005   0.313 -0.5379 -1.3232 -0.2094
  752SOL    HW2 2256   2.219   1.961   0.398  0.2751  0.2398  0.5515
  753SOL     OW 2257   1.667   1.629   2.491 -0.0966 -0.3182 -0.2847
  753SOL    HW1 2258   1.698   1.718   2.450  0.7874 -0.8355 -0.6625
  753SOL    HW2 2259   1.651   1.633   2.591 -2.6753 -1.7691  1.4641
  754SOL     OW 2260   2.546   2.079   1.406  0.2887  0.3003  0.2963
  754SOL    HW1 2261   2.529   2.149   1.479 -0.0051 -0.3260 -0.6225
  754SOL    HW2 2262   2.520   2.122   1.318  0.5649  1.1806  0.5909
  755SOL     OW 2263   2.231   0.645   0.999  0.1622 -0.0395  0.1819
  755SOL    HW1 2264   2.288   0.572   0.956  0.6905 -0.5903 -1.5011
  755SOL    HW2 2265   2.272   0.673   1.095  1.2906  0.0234  1.9087
  756SOL     OW 2266   1.135   1.436   2.818 -0.1901 -0.3537  0.6668
  756SOL    HW1 2267   1.162   1.430   2.913  0.3021  1.6038 -1.3738
  756SOL    HW2 2268   1.197   1.489   2.757 -0.7700 -0.3984  0.3553
  757SOL     OW 2269   2.202   2.624   1.233 -0.0197 -0.5008 -0.9625
  757SOL    HW1 2270   2.184   2.540   1.181 -1.1817 -0.6295  1.0387
  757SOL    HW2 2271   2.243   2.601   1.327  0.7040 -2.2437 -1.5226
  758SOL     OW 2272   0.980   2.366   1.262  0.2396  0.0895  0.0850
  758SOL    HW1 2273   0.975   2.340   1.165  0.7955 -0.1917  1.1563
  758SOL    HW2 2274   1.072   2.416   1.269  2.1374 -0.7235  0.2258
  759SOL     OW 2275   2.432   1.212   1.115  0.4971 -0.1137 -0.6599
  759SOL    HW1 2276   2.396   1.162   1.037  0.6212 -2.5234 -1.7080
  759SOL    HW2 2277   2.480   1.302   1.095  0.5652  2.2796 -1.7993
  760SOL     OW 2278   2.027   1.039   1.305  0.4349 -0.0976  0.4086
  760SOL    HW1 2279   2.124   1.068   1.302  0.4075 -3.1685 -0.0750
  760SOL    HW2 2280   1.965   1.120   1.328 -0.3362  2.7936  1.9546
  761SOL     OW 2281   2.033   3.053   0.307 -0.7362  0.3744 -0.5273
  761SOL    HW1 2282   2.020   3.027   0.405  0.5169  1.0877 -0.7378
  761SOL    HW2 2283   2.129   3.040   0.268  1.2687  3.6345  0.2805
  762SOL     OW 2284   1.739   1.996   3.042 -0.4775  0.2641 -0.3816
  762SOL    HW1 2285   1.747   1.976   2.945 -0.4917 -0.0648  2.8612
  762SOL    HW2 2286   1.770   2.090   3.069 -0.3010 -2.6495  2.1880
  763SOL     OW 2287   0.530   1.022   1.224  0.9377  0.2285  0.4806
  763SOL    HW1 2288   0.526   1.110   1.174  1.0436 -1.4930  1.9190
  763SOL    HW2 2289   0.625   0.990   1.241  0.2557  1.5352  0.5483
  764SOL     OW 2290   2.722   2.511   3.077 -0.0710  0.4686 -0.4405
  764SOL    HW1 2291   2.726   2.458   0.081 -0.4861 -0.6091  2.3629
  764SOL    HW2 2292   2.738   2.450   2.995  0.8189 -3.8220 -5.2106
  765SOL     OW 2293   0.786   2.897   2.037  0.6391  0.0987  0.2026
  765SOL    HW1 2294   0.818   2.985   2.000 -0.2249 -2.4705 -0.3105
  765SOL    HW2 2295   0.717   2.912   2.109 -0.8199  2.3797 -1.3177
  766SOL     OW 2296   2.995   2.054   2.388 -0.7373  0.1736  0.2762
  766SOL    HW1 2297   2.911   2.065   2.332  1.7347 -1.9728 -1.6001
  766SOL    HW2 2298   3.037   1.961   2.351 -1.8543  0.0114 -0.4366
  767SOL     OW 2299   0.004   1.434   1.753  0.2680 -0.0708  0.2969
  767SOL    HW1 2300   3.007   1.438   1.819  0.0141 -1.4455  1.0962
  767SOL    HW2 2301   0.005   1.523   1.700 -0.2846  2.1526  2.6610
  768SOL     OW 2302   1.039   0.722   2.822  0.9477  0.2905 -0.5238
  768SOL    HW1 2303   1.034   0.738   2.921  2.2846  1.9970  0.2734
  768SOL    HW2 2304   1.111   0.652   2.799  1.7136  0.2667  0.8474
  769SOL     OW 2305   1.986   2.374   0.430 -0.5680  0.1864 -0.2285
  769SOL    HW1 2306   1.962   2.282   0.463  0.9051  1.9761 -4.8906
  769SOL    HW2 2307   1.919   2.448   0.461 -2.4392  1.8795  0.5859
  770SOL     OW 2308   2.828   0.139   0.016  0.0720  0.9022 -0.0188
  770SOL    HW1 2309   2.744   0.122   0.069 -0.4326  0.5320 -2.8026
  770SOL    HW2 2310   2.895   0.063   0.037 -0.0684 -2.2074  0.9086
  771SOL     OW 2311   1.566   2.218   1.847  0.4795 -0.0998 -0.2180
  771SOL    HW1 2312   1.626   2.173   1.775  2.4194 -0.4760  0.5057
  771SOL    HW2 2313   1.470   2.230   1.808 -0.1823 -0.3988 -1.3413
  772SOL     OW 2314   0.689   0.446   2.971  0.5222  0.0375  0.2763
  772SOL    HW1 2315   0.657   0.517   2.908 -2.6208  1.8543  1.3209
  772SOL    HW2 2316   0.646   0.356   2.951  0.4468  0.2385 -0.4514
  773SOL     OW 2317   2.862   0.992   1.613 -0.1028  0.6817 -0.2748
  773SOL    HW1 2318   2.808   0.928   1.555  1.4001  0.3678  2.7716
  773SOL    HW2 2319   2.797   1.055   1.660 -3.1784  1.4722 -1.7032
  774SOL     OW 2320   1.634   1.109   0.331 -0.1760  0.0785 -0.1266
  774SOL    HW1 2321   1.633   1.190   0.395  1.1004  3.8236 -0.1006
  774SOL    HW2 2322   1.725   1.098   0.288  0.5556  1.3571 -2.0363
  775SOL     OW 2323   2.258   2.977   0.160 -0.3445 -0.0229  0.5066
  775SOL    HW1 2324   2.339   2.954   0.100  1.7734  1.0567 -1.9137
  775SOL    HW2 2325   2.197   2.897   0.153  0.1478  1.6745  0.4674
  776SOL     OW 2326   2.727   0.965   2.350  0.0425 -0.9836  0.1821
  776SOL    HW1 2327   2.805   0.956   2.416  3.7884  0.5211  1.2628
  776SOL    HW2 2328   2.713   1.061   2.317 -1.4151  0.6679 -1.4791
  777SOL     OW 2329   0.050   1.277   2.766  0.0237  0.6594 -0.7948
  777SOL    HW1 2330   0.096   1.184   2.784 -1.2751 -1.3658  0.6463
  777SOL    HW2 2331   0.053   1.303   2.666  0.9333 -1.7011  0.1606
  778SOL     OW 2332   0.666   0.150   0.490 -0.7634 -0.3485 -0.0538
  778SOL    HW1 2333   0.755   0.120   0.452 -0.6064 -0.4521 -0.3846
  778SOL    HW2 2334   0.582   0.132   0.433  0.4056  0.1853 -2.9891
  779SOL     OW 2335   0.715   0.837   2.644  0.0572  0.4864  0.0464
  779SOL    HW1 2336   0.768   0.902   2.696 -1.4309  2.5126  0.7069
  779SOL    HW2 2337   0.775   0.771   2.595 -2.8731 -0.9100 -1.2773
  780SOL     OW 2338   1.990   0.858   2.319 -0.3043  0.3468  0.1791
  780SOL    HW1 2339   2.029   0.895   2.406  1.1415  1.0236 -0.4624
  780SOL    HW2 2340   1.943   0.768   2.328  0.0870 -0.4753 -0.7495
  781SOL     OW 2341   2.987   1.020   1.924  0.3868  0.1891  0.7173
  781SOL    HW1 2342   0.002   1.029   1.901 -0.8157  1.6522  0.7848
  781SOL    HW2 2343   2.957   1.091   1.991 -0.0204 -0.7244  0.0651
  782SOL     OW 2344   0.923   1.870   2.265 -0.8080  0.0178  0.3716
  782SOL    HW1 2345   0.933   1.972   2.252 -1.6499 -0.1954  0.4271
  782SOL    HW2 2346   0.890   1.847   2.358  1.7261  0.7907 -1.3325
  783SOL     OW 2347   0.566   2.442   1.356  0.3218 -0.6058 -0.2952
  783SOL    HW1 2348   0.584   2.399   1.450 -0.5883 -0.5494  3.1360
  783SOL    HW2 2349   0.650   2.480   1.307 -0.9173 -0.9590  0.2351
  784SOL     OW 2350   1.186   0.300   2.740 -0.0175 -0.4598  0.0059
  784SOL    HW1 2351   1.261   0.231   2.743  0.3285  0.0724  3.8658
  784SOL    HW2 2352   1.228   0.396   2.740  0.8804  2.0042 -0.1097
  785SOL     OW 2353   1.022   0.396   2.524  0.2742  0.0525 -0.1130
  785SOL    HW1 2354   1.091   0.391   2.600  1.4661  0.3595  0.7960
  785SOL    HW2 2355   0.951   0.325   2.544 -1.7224 -2.7464 -0.0796
  786SOL     OW 2356   0.410   1.737   0.273  0.2728  0.4302 -0.2901
  786SOL    HW1 2357   0.334   1.709   0.335 -0.9012 -0.9387 -0.2779
  786SOL    HW2 2358   0.494   1.698   0.312  1.0172 -0.2249  1.4593
  787SOL     OW 2359   1.905   1.345   0.275 -0.1244  0.5460  0.0645
  787SOL    HW1 2360   1.842   1.325   0.197  1.1300  0.8544 -1.3906
  787SOL    HW2 2361   2.003   1.345   0.239  1.0486  0.2393  0.2040
  788SOL     OW 2362   1.801   1.647   1.463 -0.5304 -0.2613  0.1926
  788SOL    HW1 2363   1.726   1.712   1.487 -0.5609  2.2106 -0.2577
  788SOL    HW2 2364   1.838   1.660   1.369 -1.2867 -2.5091 -1.2907
  789SOL     OW 2365   0.389   1.295   1.837  0.1306  0.8601  0.3335
  789SOL    HW1 2366   0.338   1.382   1.855 -0.5992  1.5664 -0.1730
  789SOL    HW2 2367   0.355   1.230   1.910  1.0631 -0.6092 -0.9488
  790SOL     OW 2368   0.517   2.589   0.349  0.2533  0.0634  0.4474
  790SOL    HW1 2369   0.467   2.555   0.431 -1.4825  0.7014  1.4412
  790SOL    HW2 2370   0.474   2.536   0.269 -3.0227 -0.3350 -1.5843
  791SOL     OW 2371   0.512   0.243   2.847  0.0980  0.4796 -0.0094
  791SOL    HW1 2372   0.453   0.327   2.858 -1.6242  2.5626  1.3036
  791SOL    HW2 2373   0.462   0.160   2.815  1.3412  1.2171 -1.0563
  792SOL     OW 2374   2.049   0.390   2.329 -0.2470  0.1925  0.6688
  792SOL    HW1 2375   1.978   0.460   2.310  1.2342  1.1011  0.2241
  792SOL    HW2 2376   2.086   0.403   2.421  0.3845 -4.5650 -2.9823
  793SOL     OW 2377   0.344   0.667   0.918  0.0291  0.0685 -0.1781
  793SOL    HW1 2378   0.341   0.583   0.868  0.4384  0.2071  0.1280
  793SOL    HW2 2379   0.373   0.653   1.017  1.6050 -3.1175  1.7174
  794SOL     OW 2380   0.576   0.120   1.866 -0.5207 -0.6692  0.0574
  794SOL    HW1 2381   0.602   0.187   1.790  1.9516 -1.1770  0.0437
  794SOL    HW2 2382   0.555   0.029   1.826 -1.0913  1.2306  1.7769
  795SOL     OW 2383   0.143   1.525   0.012 -0.1160 -0.1274  0.1221
  795SOL    HW1 2384   0.188   1.429   3.082 -0.1824 -1.5605  0.5324
  795SOL    HW2 2385   0.052   1.521   3.047 -0.8403  1.2360 -1.8140
  796SOL     OW 2386   2.850   0.413   3.073 -0.0630 -0.0627  0.3493
  796SOL    HW1 2387   2.861   0.317   3.037  2.0965  1.1833  1.8184
  796SOL    HW2 2388   2.793   0.414   0.074 -0.1127 -0.7898  0.0489
  797SOL     OW 2389   1.440   2.428   2.730 -0.8196 -1.0396  0.0285
  797SOL    HW1 2390   1.349   2.472   2.709  0.8123  0.4912  0.0219
  797SOL    HW2 2391   1.445   2.364   2.808 -2.1686 -1.5240 -0.7700
  798SOL     OW 2392   2.826   0.518   0.886 -0.1066  0.8266 -0.0353
  798SOL    HW1 2393   2.810   0.507   0.785 -1.5967  0.8384 -1.4829
  798SOL    HW2 2394   2.901   0.585   0.893  2.2742  1.3902  0.4416
  799SOL     OW 2395   2.332   0.698   2.243 -0.0297 -0.1700  0.2009
  799SOL    HW1 2396   2.411   0.673   2.301 -1.2335  1.0777  0.3697
  799SOL    HW2 2397   2.302   0.621   2.182 -0.1693 -0.5720  0.6664
  800SOL     OW 2398   0.088   2.063   0.328  0.2849 -0.0563  0.0825
  800SOL    HW1 2399   0.057   2.006   0.403  1.9213  1.6338 -2.9124
  800SOL    HW2 2400   0.118   2.009   0.251 -3.4575  2.5260  1.3724
  801SOL     OW 2401   1.246   1.589   0.944  0.2561 -0.3481  0.0062
  801SOL    HW1 2402   1.308   1.594   1.026 -2.6339 -1.0258  0.4221
  801SOL    HW2 2403   1.215   1.493   0.933 -2.0128 -1.4956 -1.2141
  802SOL     OW 2404   1.197   1.516   2.375  0.2023 -0.3433 -0.4673
  802SOL    HW1 2405   1.192   1.590   2.301 -0.0362  1.8874 -1.7492
  802SOL    HW2 2406   1.099   1.498   2.393  1.7351  1.3308 -2.1384
  803SOL     OW 2407   0.248   2.057   1.190  0.3800  0.9738  0.5479
  803SOL    HW1 2408   0.180   2.015   1.260 -4.2301 -0.7900  3.2254
  803SOL    HW2 2409   0.289   1.985   1.126  2.5573 -1.3980 -1.2793
  804SOL     OW 2410   1.222   2.515   1.316  0.2499  0.4983 -1.1330
  804SOL    HW1 2411   1.260   2.607   1.316  0.1204 -1.1906 -3.2263
  804SOL    HW2 2412   1.194   2.491   1.414 -0.3232  2.3037 -1.1507
  805SOL     OW 2413   2.148   1.675   0.042  0.1750  0.5774  0.3570
  805SOL    HW1 2414   2.249   1.651   0.024  2.9454 -0.9007 -3.3534
  805SOL    HW2 2415   2.090   1.614   3.069  2.5514  1.1365 -0.6719
  806SOL     OW 2416   2.117   2.720   0.928  0.0067  0.3265 -0.0554
  806SOL    HW1 2417   2.210   2.754   0.933 -4.3988 -2.0448  4.1909
  806SOL    HW2 2418   2.106   2.629   0.881 -1.3642 -1.2246  0.5101
  807SOL     OW 2419   2.851   0.550   2.647  0.5123  0.0548  0.1404
  807SOL    HW1 2420   2.759   0.538   2.598 -2.5140  1.5013 -0.7460
  807SOL    HW2 2421   2.922   0.577   2.576  0.3533  2.7400 -0.2634
  808SOL     OW 2422   0.359   1.367   0.377  0.5637  0.2144 -0.3176
  808SOL    HW1 2423   0.392   1.322   0.294 -0.3444 -1.0590  1.8021
  808SOL    HW2 2424   0.427   1.428   0.418  2.0085 -1.8551 -0.2945
  809SOL     OW 2425   2.609   1.055   1.958  0.1601  0.1962 -0.1694
  809SOL    HW1 2426   2.515   1.027   1.992  0.4027 -0.8411 -2.1368
  809SOL    HW2 2427   2.662   0.974   1.924 -2.0698  0.4273 -0.9989
  810SOL     OW 2428   1.198   0.506   1.451  0.3098  0.1074  0.3336
  810SOL    HW1 2429   1.240   0.463   1.372 -1.2303 -0.3102  1.3887
  810SOL    HW2 2430   1.254   0.490   1.538 -0.6712 -1.1498  3.3381
  811SOL     OW 2431   2.155   3.023   1.675  0.1822 -0.4129 -0.2300
  811SOL    HW1 2432   2.164   3.083   1.594  1.4283 -2.6325 -0.3127
  811SOL    HW2 2433   2.075   2.960   1.654  0.5936 -1.9657 -2.3922
  812SOL     OW 2434   1.424   2.435   0.061 -0.0366  0.0060  0.1964
  812SOL    HW1 2435   1.407   2.366   0.133  0.8854 -0.0207  0.0892
  812SOL    HW2 2436   1.509   2.493   0.083  2.8051 -1.0031  4.0905
  813SOL     OW 2437   1.694   0.799   1.727  0.5582  0.0733  0.6314
  813SOL    HW1 2438   1.593   0.803   1.729 -0.4624 -1.8462  0.2494
  813SOL    HW2 2439   1.727   0.825   1.630  0.3843  0.8574  2.2390
  814SOL     OW 2440   0.621   0.314   1.683  0.0668 -0.2459  0.1502
  814SOL    HW1 2441   0.608   0.360   1.594 -0.4747  0.5053 -0.0803
  814SOL    HW2 2442   0.692   0.360   1.734 -1.0449  1.6903 -0.8157
  815SOL     OW 2443   0.588   0.833   0.164 -0.0121 -0.4470  0.6575
  815SOL    HW1 2444   0.656   0.770   0.122  0.7199 -1.2500 -0.4799
  815SOL    HW2 2445   0.634   0.910   0.213  2.1143 -0.9838 -0.5944
  816SOL     OW 2446   2.361   1.508   2.569  0.1508  0.5733 -0.5279
  816SOL    HW1 2447   2.326   1.542   2.483  0.7329 -0.0213  2.0719
  816SOL    HW2 2448   2.406   1.583   2.618 -0.1826  0.2717  1.0729
  817SOL     OW 2449   0.827   2.462   0.390 -0.1482 -0.8594 -0.1769
  817SOL    HW1 2450   0.755   2.402   0.424  1.1924 -1.4495  0.3263
  817SOL    HW2 2451   0.783   2.521   0.322 -0.8260  1.6425  1.1606
  818SOL     OW 2452   1.650   0.424   2.959  0.2505  0.0149  0.0644
  818SOL    HW1 2453   1.723   0.445   3.025  0.3571  0.5343 -1.2197
  818SOL    HW2 2454   1.670   0.357   2.880 -0.9239  0.1949 -5.7034
  819SOL     OW 2455   1.458   0.360   0.131  0.1487  0.1056  0.4587
  819SOL    HW1 2456   1.497   0.376   0.037  1.2585  2.3498  2.6196
  819SOL    HW2 2457   1.379   0.291   0.136  1.4357 -0.2120 -0.2855
  820SOL     OW 2458   1.843   0.489   0.074  0.3757  0.3604 -0.3717
  820SOL    HW1 2459   1.930   0.455   0.113  0.1569 -0.9870 -0.6858
  820SOL    HW2 2460   1.812   0.576   0.115  1.0317  0.9992  0.0542
  821SOL     OW 2461   2.595   2.946   0.335 -0.4880  0.1496 -0.0877
  821SOL    HW1 2462   2.552   2.852   0.319 -1.5501  1.9021  2.5934
  821SOL    HW2 2463   2.633   2.960   0.426 -0.5379  0.4034 -2.1108
  822SOL     OW 2464   0.647   2.388   1.917  0.0826 -0.2698  0.2555
  822SOL    HW1 2465   0.662   2.452   1.839 -0.1255 -2.6919 -0.6371
  822SOL    HW2 2466   0.583   2.308   1.893 -0.4871 -1.0053 -3.6934
  823SOL     OW 2467   0.242   1.531   1.430 -0.3557  0.6214 -0.0476
  823SOL    HW1 2468   0.176   1.583   1.485  3.2823  3.9582 -2.2474
  823SOL    HW2 2469   0.232   1.430   1.449  3.4957 -0.2641 -0.6864
  824SOL     OW 2470   1.462   2.930   2.507  0.2118 -0.4390  0.2993
  824SOL    HW1 2471   1.480   2.847   2.445  1.7787 -1.3279 -2.0589
  824SOL    HW2 2472   1.459   2.911   2.607 -0.4922 -0.6025  1.1258
  825SOL     OW 2473   1.862   1.053   0.634  0.1160  0.3516 -0.0459
  825SOL    HW1 2474   1.932   1.046   0.708  2.6929  0.7242 -2.4808
  825SOL    HW2 2475   1.765   1.039   0.666 -0.7665  1.8074  0.8447
  826SOL     OW 2476   1.796   0.800   0.146 -0.0815 -0.4445  0.2387
  826SOL    HW1 2477   1.888   0.826   0.111 -3.2966 -4.4906  2.2955
  826SOL    HW2 2478   1.736   0.866   0.100 -0.7774 -0.5867 -0.6699
  827SOL     OW 2479   0.576   1.282   1.506  1.2793  0.1996  0.0161
  827SOL    HW1 2480   0.516   1.215   1.559  0.7736 -0.9896 -0.4786
  827SOL    HW2 2481   0.520   1.335   1.434 -2.7182  1.4055  1.4363
  828SOL     OW 2482   2.366   1.545   1.788  0.3595  0.5697 -0.1113
  828SOL    HW1 2483   2.369   1.644   1.797 -1.1858  0.4999 -1.7559
  828SOL    HW2 2484   2.303   1.519   1.716  1.8971 -1.0335  1.1836
  829SOL     OW 2485   0.271   1.959   0.123 -0.0696  0.0627 -0.1998
  829SOL    HW1 2486   0.315   1.880   0.172  2.5053  0.3519  0.0339
  829SOL    HW2 2487   0.248   1.928   0.031  1.0026 -0.2111  0.2083
  830SOL     OW 2488   2.002   1.009   0.373 -0.0008 -0.0373 -0.1377
  830SOL    HW1 2489   1.928   0.992   0.440  0.7433 -1.3279 -2.5889
  830SOL    HW2 2490   1.974   1.009   0.273 -0.1719  0.0902  0.6652
  831SOL     OW 2491   2.934   2.060   3.055  0.1517 -0.3303  0.7181
  831SOL    HW1 2492   3.012   2.106   3.008  2.1541 -1.3261 -0.8863
  831SOL    HW2 2493   2.893   2.116   0.046  1.6814 -1.9950  2.4415
  832SOL     OW 2494   0.924   0.076   0.433 -0.1956  0.1129 -0.0120
  832SOL    HW1 2495   0.965   0.049   0.347  0.0600 -0.5792  2.5380
  832SOL    HW2 2496   0.982   0.138   0.484 -0.2539 -1.3076 -1.9390
  833SOL     OW 2497   0.748   0.467   1.898 -0.0445 -0.5027  0.1331
  833SOL    HW1 2498   0.663   0.472   1.946  1.0304  0.8274 -0.7312
  833SOL    HW2 2499   0.816   0.415   1.956  0.9883 -0.2929 -0.3527
  834SOL     OW 2500   0.106   0.441   0.767  0.1977  1.0872 -0.1297
  834SOL    HW1 2501   0.174   0.398   0.703  0.5288 -0.3437 -1.6699
  834SOL    HW2 2502   0.111   0.539   0.740  2.1231  0.1462 -0.0072
  835SOL     OW 2503   3.042   2.572   1.009 -0.0832  0.1426  0.0205
  835SOL    HW1 2504   2.942   2.543   0.999 -1.6109 -1.2064  0.4788
  835SOL    HW2 2505   3.057   2.666   0.969 -0.3088 -2.3464 -1.0121
  836SOL     OW 2506   0.622   1.970   0.190  0.3311  0.3179  0.0557
  836SOL    HW1 2507   0.569   2.052   0.215  2.2613 -0.3746 -1.0413
  836SOL    HW2 2508   0.570   1.892   0.224  1.9420  2.6399 -0.3593
  837SOL     OW 2509   1.309   1.618   2.707  0.1847 -0.1360 -0.3995
  837SOL    HW1 2510   1.357   1.695   2.751 -1.5331 -0.4361  1.8633
  837SOL    HW2 2511   1.374   1.560   2.653  1.5286 -1.5414 -0.7786
  838SOL     OW 2512   0.353   1.147   2.088 -0.4580 -0.4428  0.2467
  838SOL    HW1 2513   0.449   1.128   2.063 -1.1681  0.4564  2.0706
  838SOL    HW2 2514   0.320   1.081   2.162 -1.0479 -0.0926 -1.7949
  839SOL     OW 2515   0.292   0.953   0.678  0.2913 -0.4478 -0.4230
  839SOL    HW1 2516   0.373   0.917   0.726  0.3995 -1.2575 -1.4894
  839SOL    HW2 2517   0.232   1.013   0.737 -0.4217  1.0313  0.2331
  840SOL     OW 2518   2.328   3.075   2.277 -0.4518  0.4290  0.0140
  840SOL    HW1 2519   2.279   2.997   2.325  0.7200  2.3196  0.5249
  840SOL    HW2 2520   2.305   0.079   2.320  0.7281  0.2298  0.5158
  841SOL     OW 2521   0.711   2.302   0.163  0.0339 -0.3391  0.0964
  841SOL    HW1 2522   0.771   2.331   0.241 -2.8215  2.3541 -2.8876
  841SOL    HW2 2523   0.762   2.300   0.076  1.1202 -2.4860 -1.6234
  842SOL     OW 2524   0.293   0.252   0.643 -1.0919  0.1850 -0.1459
  842SOL    HW1 2525   0.311   0.241   0.542 -0.8732 -0.0241 -2.4040
  842SOL    HW2 2526   0.251   0.167   0.684 -1.1471 -2.4605  0.9047
  843SOL     OW 2527   0.089   0.930   0.219 -0.5158 -0.0107 -0.0948
  843SOL    HW1 2528   0.147   0.967   0.295  2.2626  0.5520 -1.0540
  843SOL    HW2 2529   0.014   0.989   0.197  1.4054 -3.4953  0.1897
  844SOL     OW 2530   1.012   2.509   0.036 -0.1555 -0.2377  0.3986
  844SOL    HW1 2531   0.943   2.446   3.079  0.2659  0.3601 -0.0992
  844SOL    HW2 2532   1.104   2.514   3.078 -0.6342  1.8977  1.0003
  845SOL     OW 2533   2.496   2.972   2.473 -0.1190  0.6275  0.1096
  845SOL    HW1 2534   2.571   3.014   2.526 -0.3091 -0.7233  2.3931
  845SOL    HW2 2535   2.489   3.004   2.376 -0.7753  0.4841  2.1675
  846SOL     OW 2536   1.868   1.922   2.783  0.6286 -0.1416  0.0581
  846SOL    HW1 2537   1.919   2.013   2.787  2.7062  1.4034  1.8057
  846SOL    HW2 2538   1.931   1.839   2.761 -1.1079 -3.3734 -0.2761
  847SOL     OW 2539   2.596   0.099   0.142 -0.4537 -0.2905  0.6582
  847SOL    HW1 2540   2.555   0.193   0.135  0.1109 -1.1291 -0.1250
  847SOL    HW2 2541   2.577   0.050   0.231 -2.0037 -4.0238  0.6670
  848SOL     OW 2542   0.718   0.417   0.445 -0.3027  0.4209  0.1011
  848SOL    HW1 2543   0.683   0.472   0.523  0.1250  0.6348  1.7095
  848SOL    HW2 2544   0.692   0.322   0.450  1.7190  3.5429 -0.4921
  849SOL     OW 2545   1.229   2.757   1.741 -0.1713  0.4845 -0.0904
  849SOL    HW1 2546   1.305   2.744   1.808  0.4484 -0.7252 -1.0161
  849SOL    HW2 2547   1.146   2.797   1.791 -0.3588  1.4431  2.1446
  850SOL     OW 2548   0.838   1.286   0.431 -0.5935 -0.5131  0.0706
  850SOL    HW1 2549   0.862   1.343   0.512 -0.3860 -3.7157  0.6834
  850SOL    HW2 2550   0.752   1.235   0.454  1.5026 -1.2584  0.8881
  851SOL     OW 2551   0.277   1.290   0.010 -0.2202  0.2586 -0.1880
  851SOL    HW1 2552   0.268   1.191   3.066  0.6827 -0.2113 -3.7873
  851SOL    HW2 2553   0.361   1.302   0.066  0.2643  1.3565 -0.0468
  852SOL     OW 2554   1.156   0.156   1.770 -0.2381  0.6376  0.0969
  852SOL    HW1 2555   1.125   0.077   1.830 -1.8603 -0.6758 -0.3322
  852SOL    HW2 2556   1.248   0.181   1.800 -2.2719  2.0090 -0.1844
  853SOL     OW 2557   2.642   1.692   0.085  0.4373  0.6536 -0.5918
  853SOL    HW1 2558   2.553   1.650   0.044 -3.3534 -0.5713 -1.0329
  853SOL    HW2 2559   2.634   1.775   0.146  1.0345 -1.1901  0.4327
  854SOL     OW 2560   1.126   1.219   1.723 -0.2562 -0.1661 -0.1209
  854SOL    HW1 2561   1.026   1.195   1.721 -2.7052 -2.7818 -0.2139
  854SOL    HW2 2562   1.185   1.133   1.725 -0.2119  0.0067  0.6266
  855SOL     OW 2563   0.157   2.658   0.344 -0.3513 -0.0595  0.7827
  855SOL    HW1 2564   0.128   2.734   0.283  0.0662  2.2777  0.3045
  855SOL    HW2 2565   0.205   2.590   0.286  0.2023  1.1754  1.0623
  856SOL     OW 2566   0.810   0.919   1.932  0.2147  0.1294  0.2627
  856SOL    HW1 2567   0.876   0.917   1.855  0.8573 -2.2196  1.7572
  856SOL    HW2 2568   0.853   0.870   2.012 -1.1573  0.7100  3.1203
  857SOL     OW 2569   1.411   0.929   2.332 -0.0510  0.0823  0.0520
  857SOL    HW1 2570   1.346   0.968   2.265  0.9581 -1.6182  0.5172
  857SOL    HW2 2571   1.403   0.971   2.425  1.5488  0.7550 -1.6117
  858SOL     OW 2572   0.238   1.388   2.421  0.2398 -0.0622  0.2507
  858SOL    HW1 2573   0.266   1.417   2.326 -1.8258  1.7933  0.8593
  858SOL    HW2 2574   0.298   1.305   2.441 -0.2430 -0.2896  1.1010
  859SOL     OW 2575   2.474   0.361   1.038 -0.0104 -0.2202 -0.0056
  859SOL    HW1 2576   2.486   0.424   0.956 -0.6977  0.5133 -0.8640
  859SOL    HW2 2577   2.555   0.307   1.064 -1.4217 -0.2175 -1.7569
  860SOL     OW 2578   1.737   3.036   0.264 -0.7960  0.1798  0.4139
  860SOL    HW1 2579   1.706   0.037   0.296  2.0434 -0.7478 -1.5560
  860SOL    HW2 2580   1.840   3.042   0.268  0.9722 -0.6034  1.1160
  861SOL     OW 2581   0.803   0.561   1.038 -0.3977  0.1083  0.4756
  861SOL    HW1 2582   0.770   0.557   0.945  0.0606  1.1793  3.6953
  861SOL    HW2 2583   0.883   0.628   1.045  3.3222  1.4003  0.0120
  862SOL     OW 2584   1.408   0.132   2.536  0.1482  0.6148 -0.0440
  862SOL    HW1 2585   1.310   0.156   2.533 -0.8427  0.8700 -2.6298
  862SOL    HW2 2586   1.436   0.036   2.524  2.5878  0.9665 -0.4973
  863SOL     OW 2587   2.479   2.414   0.702 -0.6639 -0.4840  0.4575
  863SOL    HW1 2588   2.421   2.428   0.616 -0.0794  0.5310 -2.4859
  863SOL    HW2 2589   2.534   2.328   0.703  2.5014  1.7032  1.4533
  864SOL     OW 2590   2.721   3.066   1.961 -0.1083  0.7634 -0.4655
  864SOL    HW1 2591   2.775   0.066   1.958 -1.4696 -3.1050  1.3309
  864SOL    HW2 2592   2.673   3.052   1.869  1.1914 -0.8769  0.1968
  865SOL     OW 2593   1.416   0.732   1.767 -0.2375  0.2042 -0.1431
  865SOL    HW1 2594   1.415   0.649   1.713  0.6025  3.0760  1.5508
  865SOL    HW2 2595   1.411   0.714   1.868  0.5327 -3.1309 -0.3403
  866SOL     OW 2596   1.670   2.668   1.257 -0.0272 -0.1487 -0.6261
  866SOL    HW1 2597   1.760   2.684   1.305  0.9659  1.6040  1.0512
  866SOL    HW2 2598   1.675   2.657   1.159 -0.2464 -3.2845  3.4600
  867SOL     OW 2599   2.299   2.765   0.442  0.1641 -0.3800 -0.5723
  867SOL    HW1 2600   2.196   2.760   0.435  0.1236 -2.7510  1.0999
  867SOL    HW2 2601   2.349   2.789   0.356  1.2670 -0.4488  0.2252
  868SOL     OW 2602   0.358   2.148   1.612 -0.3652  0.1756 -0.0918
  868SOL    HW1 2603   0.351   2.168   1.512 -1.9674  3.4895  0.7872
  868SOL    HW2 2604   0.278   2.193   1.658  0.7677  0.3116 -4.0662
  869SOL     OW 2605   2.116   2.285   2.523  0.0419 -0.0098  0.2955
  869SOL    HW1 2606   2.052   2.294   2.445 -1.5126 -0.0194 -1.4974
  869SOL    HW2 2607   2.131   2.377   2.573  0.9589  1.0535 -1.2521
  870SOL     OW 2608   1.638   1.493   0.698  0.2545 -0.1473 -0.5799
  870SOL    HW1 2609   1.701   1.568   0.668  3.0011 -0.2875  0.7004
  870SOL    HW2 2610   1.640   1.474   0.803 -1.0928 -1.3947  0.9093
  871SOL     OW 2611   0.484   1.459   1.301  0.1107 -0.5132 -0.4423
  871SOL    HW1 2612   0.539   1.542   1.305  0.5445 -1.8980 -1.5297
  871SOL    HW2 2613   0.391   1.480   1.337  0.1154 -0.2809 -2.1053
  872SOL     OW 2614   0.616   1.364   2.549 -0.3898  0.2283 -0.1358
  872SOL    HW1 2615   0.532   1.320   2.513  0.4064  0.3205 -0.4358
  872SOL    HW2 2616   0.654   1.326   2.636  1.1592 -1.1513 -1.3709
  873SOL     OW 2617   0.717   2.004   1.971 -0.8479 -0.2318 -0.0163
  873SOL    HW1 2618   0.791   2.054   2.026  1.1603  0.1483 -0.4000
  873SOL    HW2 2619   0.740   1.909   1.946  0.4461  1.1972 -0.0215
  874SOL     OW 2620   0.805   0.602   1.668 -0.8436  0.6125  0.3510
  874SOL    HW1 2621   0.871   0.532   1.633  0.7172 -1.7138 -0.5747
  874SOL    HW2 2622   0.784   0.573   1.764  1.9990 -0.5771 -3.2509
  875SOL     OW 2623   2.671   2.671   0.565 -0.2615 -0.3864 -0.6367
  875SOL    HW1 2624   2.740   2.611   0.519 -0.0820  1.0824  0.9756
  875SOL    HW2 2625   2.619   2.629   0.641 -1.3048  1.4926  0.8544
  876SOL     OW 2626   0.845   1.471   0.202  0.4248  0.2145 -0.3057
  876SOL    HW1 2627   0.816   1.400   0.274  1.5433 -2.8273 -0.2140
  876SOL    HW2 2628   0.782   1.466   0.122 -0.7228 -1.1892 -1.6608
  877SOL     OW 2629   2.843   0.145   0.929 -0.2573  0.1879 -0.2882
  877SOL    HW1 2630   2.901   0.129   0.850 -2.8998  1.0276  1.6051
  877SOL    HW2 2631   2.878   0.210   0.999 -0.0390 -0.0636 -0.0110
  878SOL     OW 2632   2.209   1.605   0.589  0.4907 -0.0838  0.0453
  878SOL    HW1 2633   2.145   1.639   0.514 -0.3856 -0.2044  0.1528
  878SOL    HW2 2634   2.164   1.534   0.649 -0.7057  1.3691 -1.0482
  879SOL     OW 2635   2.430   1.549   1.206 -0.0866 -0.7522 -0.0128
  879SOL    HW1 2636   2.443   1.499   1.292  0.4409  0.0650  1.5075
  879SOL    HW2 2637   2.491   1.509   1.134  0.3305 -1.0844 -1.3132
  880SOL     OW 2638   0.477   2.406   0.767 -0.1486 -0.0213  0.0033
  880SOL    HW1 2639   0.443   2.311   0.779 -0.3356 -2.1418 -1.9871
  880SOL    HW2 2640   0.485   2.461   0.856 -0.4001  4.3387  2.6140
  881SOL     OW 2641   0.944   0.921   0.918  0.3498 -0.2480  0.0079
  881SOL    HW1 2642   0.925   0.935   0.819  1.7056  0.6994 -1.2255
  881SOL    HW2 2643   0.982   1.006   0.954 -0.0077  1.4926 -0.6715
  882SOL     OW 2644   2.367   0.977   0.555  0.7665  0.4592  0.0618
  882SOL    HW1 2645   2.348   1.067   0.515  0.1518 -4.0069  0.7385
  882SOL    HW2 2646   2.301   0.913   0.516  2.2323  2.8051 -1.5505
  883SOL     OW 2647   1.595   2.986   1.968  0.3734  0.0632  0.4113
  883SOL    HW1 2648   1.579   0.006   1.961  0.4642  1.8576 -1.2883
  883SOL    HW2 2649   1.515   2.946   2.014  1.7943  0.0697  0.1037
  884SOL     OW 2650   2.814   0.091   1.534 -0.1843 -0.0876 -0.3292
  884SOL    HW1 2651   2.727   0.145   1.552 -2.7189 -0.3026  0.2295
  884SOL    HW2 2652   2.803   3.079   1.569 -0.4162  1.0738 -1.5354
  885SOL     OW 2653   1.170   0.817   2.104 -0.0906 -0.5072  0.2859
  885SOL    HW1 2654   1.168   0.915   2.128 -1.5858 -0.9235  0.5812
  885SOL    HW2 2655   1.076   0.787   2.075  1.1822  1.2431 -0.6829
  886SOL     OW 2656   1.541   0.488   2.232  0.2195 -0.0005 -0.0809
  886SOL    HW1 2657   1.566   0.590   2.238  0.4698  2.9497  0.2838
  886SOL    HW2 2658   1.571   0.439   2.315 -1.0361  0.2985  1.5823
  887SOL     OW 2659   1.661   0.554   1.264 -0.4677 -0.0131 -0.3392
  887SOL    HW1 2660   1.617   0.518   1.180  0.1071 -0.6035  0.8942
  887SOL    HW2 2661   1.763   0.536   1.272 -0.4935 -0.1909  1.6964
  888SOL     OW 2662   2.688   1.711   2.113  0.0211 -0.2879  0.6145
  888SOL    HW1 2663   2.739   1.729   2.024 -0.4733  0.2025  1.4245
  888SOL    HW2 2664   2.759   1.719   2.185  0.1097 -0.5108 -2.8217
  889SOL     OW 2665   1.634   2.239   0.847  0.4848 -0.1413 -0.1152
  889SOL    HW1 2666   1.541   2.208   0.822 -0.9319 -1.9251  0.1966
  889SOL    HW2 2667   1.706   2.225   0.777 -2.8116  0.2492  3.4110
  890SOL     OW 2668   0.820   1.884   0.592 -0.1834 -0.3524  0.2561
  890SOL    HW1 2669   0.848   1.808   0.651 -0.7649  2.9425 -0.2721
  890SOL    HW2 2670   0.731   1.918   0.626  0.2507  0.6124  1.2055
  891SOL     OW 2671   2.646   0.941   2.772 -0.4430 -0.5022  0.2163
  891SOL    HW1 2672   2.716   0.863   2.786  1.6122  1.8613 -0.8116
  891SOL    HW2 2673   2.579   0.921   2.843  3.3644  1.3271 -1.5078
  892SOL     OW 2674   0.963   0.551   2.278 -0.4397  0.0050 -0.1950
  892SOL    HW1 2675   0.876   0.521   2.232  0.5033 -2.4601  2.2605
  892SOL    HW2 2676   0.979   0.486   2.356  0.5223  1.1591  2.2765
  893SOL     OW 2677   1.494   0.089   0.999 -0.6643 -0.1893 -0.4961
  893SOL    HW1 2678   1.571   0.156   0.992 -0.7264 -1.1226  1.5749
  893SOL    HW2 2679   1.519   0.016   1.069 -1.1626 -3.8344  2.5666
  894SOL     OW 2680   2.958   3.002   1.074  0.0628 -0.4291 -0.0776
  894SOL    HW1 2681   2.895   3.074   1.036 -0.5807  0.3420 -2.1843
  894SOL    HW2 2682   2.952   3.002   1.175 -1.6468 -1.7467 -0.7068
  895SOL     OW 2683   1.788   2.735   3.007 -0.2063  0.7487 -0.0570
  895SOL    HW1 2684   1.746   2.678   2.934 -1.3722  4.1631  2.4763
  895SOL    HW2 2685   1.869   2.682   3.049  0.7982 -2.3997  0.2180
  896SOL     OW 2686   2.019   3.022   1.928  0.0993  0.3181 -0.1177
  896SOL    HW1 2687   2.068   3.036   1.840  1.0562  0.3548 -2.0537
  896SOL    HW2 2688   1.949   0.007   1.943  1.5103 -4.1823  0.1740
  897SOL     OW 2689   0.403   1.908   1.520  0.2023  0.0271 -0.2441
  897SOL    HW1 2690   0.464   1.844   1.573  1.4080 -1.6369  1.9023
  897SOL    HW2 2691   0.393   1.995   1.576 -1.7457 -1.0578 -0.7310
  898SOL     OW 2692   2.843   1.741   1.896 -0.2166 -0.0309 -0.3189
  898SOL    HW1 2693   2.785   1.827   1.871 -0.8548  2.4115 -0.2364
  898SOL    HW2 2694   2.855   1.684   1.812 -0.9628  0.1393 -0.8635
  899SOL     OW 2695   1.463   1.915   1.044  0.2873  0.5268 -0.0617
  899SOL    HW1 2696   1.388   1.922   0.974  0.5518  1.7609 -0.4914
  899SOL    HW2 2697   1.468   1.817   1.075  1.8511 -0.5466 -2.6378
  900SOL     OW 2698   0.671   0.085   2.716 -0.6520 -0.0010 -0.2304
  900SOL    HW1 2699   0.639   0.176   2.759 -0.6871  3.8174 -0.1975
  900SOL    HW2 2700   0.734   0.109   2.641 -0.2819 -2.4334 -2.4998
  901SOL     OW 2701   1.448   1.465   2.521 -0.1080  0.6783 -0.3239
  901SOL    HW1 2702   1.368   1.482   2.461 -1.5886 -1.7497 -0.4299
  901SOL    HW2 2703   1.534   1.516   2.498  0.9410 -2.3467  1.0809
  902SOL     OW 2704   2.844   0.091   2.836 -0.0661  0.5831 -1.2788
  902SOL    HW1 2705   2.826   0.119   2.933 -0.2429 -0.1943 -2.3850
  902SOL    HW2 2706   2.923   0.030   2.826 -2.4806 -0.3366 -1.2811
  903SOL     OW 2707   2.160   0.858   2.101  0.0719  0.4064 -0.1749
  903SOL    HW1 2708   2.081   0.889   2.160 -2.0574  0.2718 -1.4755
  903SOL    HW2 2709   2.219   0.796   2.154  0.5102  2.7590 -1.0748
  904SOL     OW 2710   1.570   0.350   2.485 -0.7562 -0.2801  0.2406
  904SOL    HW1 2711   1.630   0.343   2.566 -2.1759  1.1604 -1.9422
  904SOL    HW2 2712   1.524   0.260   2.473  0.5169  1.7241 -1.1602
  905SOL     OW 2713   2.046   2.486   1.625  0.0675  0.4757  0.1323
  905SOL    HW1 2714   2.119   2.545   1.599 -1.5439 -1.1174 -1.7341
  905SOL    HW2 2715   1.995   2.526   1.705  2.3155 -1.5669 -0.0275
  906SOL     OW 2716   1.466   1.837   0.537 -0.4777  0.0179 -0.5306
  906SOL    HW1 2717   1.438   1.841   0.439  2.1243 -1.0382  1.3003
  906SOL    HW2 2718   1.418   1.759   0.588 -2.3978 -4.1191  1.5078
  907SOL     OW 2719   0.851   2.977   0.651 -0.4560 -0.8025 -0.0353
  907SOL    HW1 2720   0.869   3.023   0.562  0.9741 -0.5797  0.5911
  907SOL    HW2 2721   0.773   3.012   0.703 -1.0242 -1.0719 -1.4159
  908SOL     OW 2722   1.328   2.399   1.971 -0.1769 -0.2017  0.2114
  908SOL    HW1 2723   1.413   2.448   1.980 -1.7891 -0.2197  0.0146
  908SOL    HW2 2724   1.254   2.463   1.934 -2.5777 -0.8757  1.8503
  909SOL     OW 2725   2.158   0.235   1.910  0.5846 -0.3797 -0.5271
  909SOL    HW1 2726   2.112   0.188   1.990  0.2242 -2.5901  2.6494
  909SOL    HW2 2727   2.090   0.290   1.858  1.0752 -0.9618  2.9609
  910SOL     OW 2728   1.210   1.074   2.965 -0.3410 -0.4328  0.3339
  910SOL    HW1 2729   1.208   1.031   3.056 -0.4235  0.3097  0.3695
  910SOL    HW2 2730   1.250   1.172   2.974  0.3357  3.3781  0.0850
  911SOL     OW 2731   2.964   1.103   0.168 -0.0722 -0.0741 -0.1200
  911SOL    HW1 2732   2.949   1.189   0.220 -0.9838 -1.8387  2.2522
  911SOL    HW2 2733   2.917   1.100   0.079  1.9126 -0.0122 -0.1886
  912SOL     OW 2734   0.268   2.175   0.556  0.5120 -0.0574 -0.1301
  912SOL    HW1 2735   0.220   2.162   0.468 -1.2599 -0.1206  1.6252
  912SOL    HW2 2736   0.359   2.145   0.541 -3.3041  0.0292 -0.5270
  913SOL     OW 2737   2.738   2.293   2.432 -0.0279  0.1222  0.5603
  913SOL    HW1 2738   2.752   2.225   2.356  1.8905 -1.0579  1.5400
  913SOL    HW2 2739   2.821   2.304   2.484 -0.1345 -1.1749 -0.6848
  914SOL     OW 2740   1.203   1.872   1.638  0.1428  0.8115  0.5160
  914SOL    HW1 2741   1.295   1.903   1.615  0.9098 -0.1882 -2.4162
  914SOL    HW2 2742   1.208   1.777   1.665 -0.2779 -0.2722  0.9553
  915SOL     OW 2743   0.921   2.681   2.121  0.0830  0.2528  0.5837
  915SOL    HW1 2744   0.886   2.767   2.075 -0.0317  1.3437  0.1331
  915SOL    HW2 2745   0.878   2.658   2.211  1.6007 -0.8771  0.4574
  916SOL     OW 2746   0.507   0.663   1.837 -0.0539 -0.5251  0.5278
  916SOL    HW1 2747   0.606   0.675   1.836  1.1915 -0.2957  2.1852
  916SOL    HW2 2748   0.470   0.622   1.747 -0.4111  0.2418 -3.0046
  917SOL     OW 2749   2.782   0.469   0.589  0.5989  0.5487  0.0071
  917SOL    HW1 2750   2.849   0.405   0.550 -0.5493 -0.1761 -0.8147
  917SOL    HW2 2751   2.696   0.420   0.619 -0.7709 -1.8543  2.0966
  918SOL     OW 2752   1.678   2.561   2.817  0.0639  0.4995  0.4369
  918SOL    HW1 2753   1.733   2.477   2.837  1.3835 -0.9275  0.8334
  918SOL    HW2 2754   1.593   2.521   2.780 -2.0081  0.2814 -2.0221
  919SOL     OW 2755   1.554   2.632   1.642  0.1295  0.3153  0.0849
  919SOL    HW1 2756   1.558   2.565   1.565 -1.1121 -1.1561  1.9458
  919SOL    HW2 2757   1.597   2.718   1.610  1.7397 -0.4552 -1.5520
  920SOL     OW 2758   0.585   0.630   2.791  0.1917 -0.2813  0.5430
  920SOL    HW1 2759   0.639   0.702   2.743  2.0025 -2.6943 -0.7312
  920SOL    HW2 2760   0.522   0.665   2.867 -0.9410  0.6310  2.8070
  921SOL     OW 2761   2.854   0.758   2.804 -0.1769  0.5352  0.1807
  921SOL    HW1 2762   2.932   0.816   2.771  3.2389  1.9457  0.7374
  921SOL    HW2 2763   2.840   0.673   2.751  1.1021  0.1790  1.8654
  922SOL     OW 2764   0.399   1.920   1.005 -0.0878 -0.6251 -0.0128
  922SOL    HW1 2765   0.488   1.887   1.042  1.8580 -1.2792 -0.4203
  922SOL    HW2 2766   0.413   2.017   0.979  0.3175  0.2348  0.7033
  923SOL     OW 2767   0.590   1.043   2.003 -0.6850  0.5731  0.0621
  923SOL    HW1 2768   0.664   0.979   1.977  2.3079 -0.1056  2.1377
  923SOL    HW2 2769   0.641   1.132   2.022 -1.3354  2.6342  0.9339
  924SOL     OW 2770   1.568   3.002   2.869  0.3900  0.4734 -0.0019
  924SOL    HW1 2771   1.586   2.979   2.967  0.9172  2.0746 -0.4516
  924SOL    HW2 2772   1.655   3.001   2.813  3.1353  2.6532 -0.3132
  925SOL     OW 2773   2.806   1.333   1.288 -0.2014  0.7245  0.0379
  925SOL    HW1 2774   2.746   1.258   1.271  3.5994  2.1435  1.8274
  925SOL    HW2 2775   2.847   1.323   1.381 -2.2839  0.4365  0.7050
  926SOL     OW 2776   2.207   0.495   1.347  0.3743 -0.0294 -0.0088
  926SOL    HW1 2777   2.264   0.429   1.396 -0.5766 -1.2266  1.5864
  926SOL    HW2 2778   2.166   0.558   1.415  2.6359  2.5997  2.5043
  927SOL     OW 2779   1.930   3.006   1.215  0.0336  0.5503  0.9756
  927SOL    HW1 2780   1.937   2.927   1.280  3.5368 -0.9064 -0.4228
  927SOL    HW2 2781   2.017   3.053   1.205  0.9122 -2.3925  1.6412
  928SOL     OW 2782   3.061   1.317   2.510 -0.6682 -0.3981 -0.4897
  928SOL    HW1 2783   0.059   1.377   2.504 -1.4214 -1.3465 -2.2417
  928SOL    HW2 2784   3.069   1.239   2.448 -1.4239  0.1454  1.2561
  929SOL     OW 2785   2.754   0.796   1.111  0.1259  0.3181 -0.2103
  929SOL    HW1 2786   2.654   0.816   1.100  2.7042  1.6509 -0.4055
  929SOL    HW2 2787   2.773   0.786   1.210 -1.3414  0.9063 -0.7456
  930SOL     OW 2788   2.975   2.472   2.104 -0.3656  0.4483  0.0636
  930SOL    HW1 2789   2.954   2.572   2.094  1.3484 -1.0394  0.8760
  930SOL    HW2 2790   3.004   2.440   2.009  3.3554  0.9701 -2.4320
  931SOL     OW 2791   1.921   0.521   1.271  0.4114 -0.8699  0.2118
  931SOL    HW1 2792   1.927   0.463   1.190  0.5622  1.4595 -0.4955
  931SOL    HW2 2793   2.006   0.576   1.287 -2.0430 -0.4876 -1.7703
  932SOL     OW 2794   0.189   1.028   1.863  0.7405 -0.1818 -0.1426
  932SOL    HW1 2795   0.226   1.051   1.954 -2.7693 -1.9628  0.6784
  932SOL    HW2 2796   0.255   1.052   1.791  0.3853  2.1263  1.6003
  933SOL     OW 2797   2.737   1.884   1.481  0.1080 -0.0370  0.1016
  933SOL    HW1 2798   2.686   1.953   1.425  0.2275  2.8812 -2.0261
  933SOL    HW2 2799   2.684   1.798   1.488  0.7215  1.2870  0.0820
  934SOL     OW 2800   0.546   1.743   1.309 -0.1205 -0.0544 -0.1037
  934SOL    HW1 2801   0.617   1.745   1.382  0.3881 -0.6068 -0.1413
  934SOL    HW2 2802   0.460   1.776   1.354  0.3295 -0.2527  0.9699
  935SOL     OW 2803   2.860   1.337   1.573 -0.5075  0.0565 -0.5091
  935SOL    HW1 2804   2.925   1.270   1.535 -2.3887  0.4199  2.3829
  935SOL    HW2 2805   2.813   1.284   1.652 -0.0267 -4.4797  1.1423
  936SOL     OW 2806   2.525   1.324   1.705 -0.3407 -0.3836 -0.0996
  936SOL    HW1 2807   2.612   1.311   1.751 -2.8372  0.5118  0.8514
  936SOL    HW2 2808   2.473   1.401   1.751 -2.9316  0.5697 -0.3763
  937SOL     OW 2809   2.102   0.652   1.538 -0.0229 -0.2913  0.4792
  937SOL    HW1 2810   2.196   0.659   1.579 -0.7369 -1.7156  0.5389
  937SOL    HW2 2811   2.033   0.710   1.592 -2.3377  1.7013  2.9756
  938SOL     OW 2812   0.453   2.622   2.884  0.2901 -0.9812 -0.6309
  938SOL    HW1 2813   0.477   2.614   2.980 -2.0702  0.9584 -3.4575
  938SOL    HW2 2814   0.529   2.666   2.831 -0.1369  1.7888 -0.5900
  939SOL     OW 2815   2.664   1.961   2.674  0.1519  0.0869 -0.1814
  939SOL    HW1 2816   2.759   1.927   2.651  1.2475  1.4195  1.9854
  939SOL    HW2 2817   2.622   1.995   2.583 -0.3246  1.0342 -1.3429
  940SOL     OW 2818   1.605   2.079   0.503  0.2271 -0.8120 -0.3782
  940SOL    HW1 2819   1.688   2.068   0.554 -0.0943 -3.8369 -1.5985
  940SOL    HW2 2820   1.529   2.022   0.537  0.0528  2.2982  1.3697
  941SOL     OW 2821   1.985   2.542   0.004  0.4446  0.2583 -0.1871
  941SOL    HW1 2822   2.077   2.500   3.076  2.7823  1.0226  0.4140
  941SOL    HW2 2823   1.923   2.468   0.027  1.8237 -0.0902  0.8883
  942SOL     OW 2824   1.517   2.378   1.054  0.1276  0.2175  0.1373
  942SOL    HW1 2825   1.546   2.475   1.052  1.5833  2.2927  5.3736
  942SOL    HW2 2826   1.579   2.327   0.990  1.1983 -0.7259 -1.0286
  943SOL     OW 2827   2.203   1.035   1.749  0.7216  0.5785  0.3363
  943SOL    HW1 2828   2.246   1.069   1.833  0.0491 -0.3686 -4.4545
  943SOL    HW2 2829   2.103   1.038   1.750 -1.7483 -1.1424  2.4624
  944SOL     OW 2830   1.413   0.577   2.495  0.4733 -0.1956 -0.8025
  944SOL    HW1 2831   1.467   0.491   2.484  1.4419 -3.4465  1.2484
  944SOL    HW2 2832   1.364   0.609   2.413  2.4292 -1.1205  2.9411
  945SOL     OW 2833   2.743   2.185   1.115 -0.0243 -0.4669 -0.0991
  945SOL    HW1 2834   2.675   2.123   1.071  0.0939  0.4746  0.4860
  945SOL    HW2 2835   2.694   2.254   1.185 -1.8446 -1.2295  3.3240
  946SOL     OW 2836   0.524   0.966   3.006  0.1020 -0.1335 -0.3509
  946SOL    HW1 2837   0.590   1.027   3.051 -0.0373 -2.3678 -1.7249
  946SOL    HW2 2838   0.492   1.013   2.922  1.2746  2.7204 -1.4465
  947SOL     OW 2839   1.961   2.828   1.635 -0.3675  0.1122  0.3676
  947SOL    HW1 2840   1.877   2.888   1.644 -2.8740  2.6213 -0.1294
  947SOL    HW2 2841   1.958   2.748   1.701 -1.7612 -0.3508  0.2061
  948SOL     OW 2842   0.172   1.732   0.987  0.3940 -0.5276 -0.1246
  948SOL    HW1 2843   0.259   1.781   0.982  0.2424 -0.7233  3.7775
  948SOL    HW2 2844   0.180   1.643   1.037 -0.1949 -0.7403  0.3742
  949SOL     OW 2845   1.303   0.985   1.709  0.2651 -0.1980  0.4870
  949SOL    HW1 2846   1.352   1.027   1.625  3.7057  0.9386 -2.8888
  949SOL    HW2 2847   1.332   0.882   1.716 -2.1770 -2.4950  0.5204
  950SOL     OW 2848   0.135   0.830   1.004  0.0183  0.2578 -0.4671
  950SOL    HW1 2849   0.167   0.913   0.967  1.4237 -3.1659  0.4380
  950SOL    HW2 2850   0.210   0.763   0.983  1.9730 -1.4570 -2.7099
  951SOL     OW 2851   0.409   1.973   2.105 -0.0541 -0.4734 -0.6882
  951SOL    HW1 2852   0.459   1.884   2.122 -0.0108  1.5524  1.6459
  951SOL    HW2 2853   0.440   2.011   2.017  0.8812 -0.3488  0.3067
  952SOL     OW 2854   1.643   1.545   0.229  0.0854 -0.6513 -0.0006
  952SOL    HW1 2855   1.582   1.624   0.249  2.0599  0.6764 -0.2524
  952SOL    HW2 2856   1.652   1.535   0.125 -0.5073  1.2675 -1.2376
  953SOL     OW 2857   1.269   0.602   3.082  0.4183 -0.9339 -0.4009
  953SOL    HW1 2858   1.255   0.502   3.073 -0.7390 -2.5987  0.3613
  953SOL    HW2 2859   1.177   0.649   3.075 -0.9389 -5.2878  1.9878
  954SOL     OW 2860   2.219   1.214   0.490 -0.0039 -0.5791  0.0122
  954SOL    HW1 2861   2.238   1.289   0.426  1.8154 -0.1425 -2.8520
  954SOL    HW2 2862   2.124   1.222   0.520  2.7147  2.4997 -1.0454
  955SOL     OW 2863   2.565   2.823   2.894 -0.6916 -0.3474 -0.2898
  955SOL    HW1 2864   2.591   2.783   2.802  0.3556 -2.6428 -2.0089
  955SOL    HW2 2865   2.646   2.826   2.957 -0.0006 -0.0242  1.4755
  956SOL     OW 2866   1.148   0.772   1.369  0.1372  0.2375 -0.2254
  956SOL    HW1 2867   1.238   0.818   1.353  0.7806  1.6009  1.3530
  956SOL    HW2 2868   1.155   0.676   1.413  1.6509 -1.8911 -0.6993
  957SOL     OW 2869   1.612   1.107   1.235  0.3224 -0.3328  0.4458
  957SOL    HW1 2870   1.609   1.006   1.243  4.2981  1.3298 -0.9333
  957SOL    HW2 2871   1.522   1.152   1.235 -0.7699  1.7754 -0.4679
  958SOL     OW 2872   0.368   1.756   0.629 -0.5125 -0.2093  0.1142
  958SOL    HW1 2873   0.295   1.766   0.558 -0.8888  1.4959 -1.6611
  958SOL    HW2 2874   0.421   1.837   0.658  0.8789  1.1686  4.0901
  959SOL     OW 2875   1.980   1.411   0.991 -0.0012 -0.2474  0.0299
  959SOL    HW1 2876   1.982   1.472   1.075  1.0989  0.1625  1.9283
  959SOL    HW2 2877   1.899   1.351   0.983  0.2108  0.3492 -3.9696
  960SOL     OW 2878   2.987   1.420   2.953 -0.1647 -0.5904  0.3528
  960SOL    HW1 2879   3.027   1.389   2.864 -6.3406  2.3501 -0.0332
  960SOL    HW2 2880   2.970   1.335   3.004  1.3991 -2.3729 -3.4610
  961SOL     OW 2881   0.866   1.434   0.641  0.6599 -0.3527 -0.3308
  961SOL    HW1 2882   0.807   1.382   0.710 -0.1579 -1.1804  0.7606
  961SOL    HW2 2883   0.867   1.532   0.677  0.4642  2.5449 -0.4870
  962SOL     OW 2884   1.049   1.138   0.339 -0.1719 -0.2379 -0.0777
  962SOL    HW1 2885   1.132   1.178   0.381  1.3622 -0.3573  0.5559
  962SOL    HW2 2886   0.970   1.205   0.345 -1.5456  3.0999  2.3568
  963SOL     OW 2887   1.251   2.106   2.248 -0.0026 -0.1557  0.6081
  963SOL    HW1 2888   1.351   2.088   2.251 -2.8101 -0.4274 -0.8301
  963SOL    HW2 2889   1.204   2.103   2.337 -0.9917 -2.5153  3.2928
  964SOL     OW 2890   2.798   2.774   3.050 -0.3432 -0.5357 -0.6562
  964SOL    HW1 2891   2.764   2.677   3.061 -0.1360  1.0268 -0.6672
  964SOL    HW2 2892   2.897   2.760   3.041 -0.7460 -1.6934 -0.7264
  965SOL     OW 2893   0.488   2.210   0.243  0.3757 -0.5965 -0.1593
  965SOL    HW1 2894   0.577   2.245   0.209 -1.1525 -0.9157  1.6190
  965SOL    HW2 2895   0.414   2.279   0.225 -2.2588 -1.4987 -0.5184
  966SOL     OW 2896   3.063   1.857   2.812 -0.2091  0.0770  0.2723
  966SOL    HW1 2897   3.008   1.849   2.897 -1.9674 -0.1936  2.4109
  966SOL    HW2 2898   3.006   1.877   2.729  0.8459 -0.0142  2.9587
  967SOL     OW 2899   1.980   2.962   2.948 -0.0524 -0.6511 -0.5422
  967SOL    HW1 2900   1.941   2.917   3.029 -1.8786 -0.6142 -0.1936
  967SOL    HW2 2901   2.063   3.022   2.966 -0.3337 -1.0425  0.5437
  968SOL     OW 2902   1.897   2.968   0.536  0.4995 -0.0651  0.1235
  968SOL    HW1 2903   1.794   2.963   0.531  0.3874 -3.6417  0.4857
  968SOL    HW2 2904   1.928   2.935   0.627 -0.7528  1.6286 -1.1049
  969SOL     OW 2905   0.769   1.235   2.087 -0.0928 -0.0247 -0.2870
  969SOL    HW1 2906   0.864   1.235   2.044  1.7700 -2.0309  2.1176
  969SOL    HW2 2907   0.765   1.260   2.185 -0.7889 -0.4287 -3.2701
  970SOL     OW 2908   1.585   1.470   0.956 -0.2609  0.2302  0.4310
  970SOL    HW1 2909   1.538   1.387   0.923 -3.1007 -1.2656 -0.9196
  970SOL    HW2 2910   1.634   1.450   1.044 -0.3385  0.1099 -2.7318
  971SOL     OW 2911   2.123   0.126   1.460  0.0519  0.2064  0.1502
  971SOL    HW1 2912   2.036   0.178   1.444 -0.1797 -1.8970  0.5638
  971SOL    HW2 2913   2.165   0.092   1.372  1.0307  1.6015  0.5570
  972SOL     OW 2914   0.260   0.037   1.681  0.3589 -0.2608 -0.3164
  972SOL    HW1 2915   0.255   0.028   1.785 -0.9406 -1.1983 -0.2299
  972SOL    HW2 2916   0.201   3.051   1.637 -1.2119 -1.5123 -0.0309
  973SOL     OW 2917   0.132   0.297   2.583  0.1251 -0.1174  0.4959
  973SOL    HW1 2918   0.030   0.285   2.594  1.2448 -0.4214  0.1829
  973SOL    HW2 2919   0.168   0.349   2.665 -2.2700  2.0348  0.6650
  974SOL     OW 2920   2.068   1.445   2.269 -0.2558  0.0405  0.0527
  974SOL    HW1 2921   2.161   1.421   2.305  0.2966  0.3936  0.4253
  974SOL    HW2 2922   2.044   1.385   2.189  1.3480 -1.5469  0.5240
  975SOL     OW 2923   0.559   0.226   1.322 -0.0929 -0.8771  0.1983
  975SOL    HW1 2924   0.507   0.189   1.243 -0.5851  2.7938 -2.7588
  975SOL    HW2 2925   0.507   0.307   1.363 -1.8963 -0.6556 -0.7229
  976SOL     OW 2926   0.887   2.244   2.423  0.2626 -0.0957  0.0765
  976SOL    HW1 2927   0.921   2.303   2.347 -0.2122  2.9090 -1.3015
  976SOL    HW2 2928   0.794   2.204   2.401  0.3494  0.2680 -0.5587
  977SOL     OW 2929   0.657   0.045   0.723  0.0798 -0.2527 -0.3112
  977SOL    HW1 2930   0.670   0.086   0.630  0.2411  3.5875  1.0348
  977SOL    HW2 2931   0.583   3.059   0.711  1.0699 -0.9825  0.4295
  978SOL     OW 2932   2.898   1.397   1.977 -0.3298  0.2299  0.0653
  978SOL    HW1 2933   2.933   1.303   2.003  1.7778 -0.5932 -0.4705
  978SOL    HW2 2934   2.898   1.455   2.060  2.6032 -1.5869  0.1258
  979SOL     OW 2935   1.728   3.020   1.732 -0.5255 -0.4868  0.0857
  979SOL    HW1 2936   1.706   0.034   1.714  1.2268 -1.4559  0.3076
  979SOL    HW2 2937   1.688   2.991   1.821 -0.0902  1.5956 -2.0821
  980SOL     OW 2938   1.501   1.723   1.966 -0.4470 -0.1993 -0.2142
  980SOL    HW1 2939   1.413   1.743   1.923  1.2001  0.3273  2.3678
  980SOL    HW2 2940   1.496   1.744   2.068 -0.1375 -2.3623 -2.7715
  981SOL     OW 2941   2.826   0.688   1.380 -0.9630 -0.7873  0.0127
  981SOL    HW1 2942   2.738   0.701   1.431  0.7462  1.0417  2.2944
  981SOL    HW2 2943   2.895   0.642   1.432  0.2446  1.4168 -2.6878
  982SOL     OW 2944   0.335   0.036   2.845  0.0986  0.2422 -0.0750
  982SOL    HW1 2945   0.292   3.049   2.784 -0.3788 -1.5577  1.0147
  982SOL    HW2 2946   0.264   0.070   2.914 -0.7115 -0.7066 -0.0793
  983SOL     OW 2947   2.614   0.561   2.502 -0.1915 -0.2651 -0.1612
  983SOL    HW1 2948   2.588   0.659   2.520 -2.8570 -0.2573  1.0425
  983SOL    HW2 2949   2.621   0.542   2.405  1.8134 -0.6789 -0.6899
  984SOL     OW 2950   1.182   3.046   1.983  0.1683  0.1259  0.2326
  984SOL    HW1 2951   1.264   3.023   2.039 -3.8433  1.6147 -2.1498
  984SOL    HW2 2952   1.137   2.960   1.941 -2.6398 -3.6947  1.0474
  985SOL     OW 2953   1.900   1.626   2.134  0.0355  0.6807  0.7856
  985SOL    HW1 2954   1.916   1.724   2.112 -2.5390  0.3433 -0.2862
  985SOL    HW2 2955   1.978   1.578   2.165 -2.4726 -0.9617 -1.2973
  986SOL     OW 2956   2.648   0.333   1.330  0.3641  0.1527  0.2262
  986SOL    HW1 2957   2.714   0.404   1.287 -0.1199  0.0236 -0.1824
  986SOL    HW2 2958   2.639   0.355   1.431  0.9005 -1.0914  2.1497
  987SOL     OW 2959   2.605   0.981   1.471 -0.1727  0.3715 -0.2629
  987SOL    HW1 2960   2.514   1.021   1.502 -1.7484  1.0477 -0.2729
  987SOL    HW2 2961   2.629   1.021   1.376  0.4510  0.5973 -0.4086
  988SOL     OW 2962   2.933   1.175   2.137 -0.3778  0.1624 -0.1667
  988SOL    HW1 2963   2.996   1.157   2.214 -1.3758  0.6452 -1.2746
  988SOL    HW2 2964   2.838   1.175   2.171  1.1977 -0.5898  0.7821
  989SOL     OW 2965   1.517   2.008   0.109 -0.1053 -0.0069  0.3023
  989SOL    HW1 2966   1.559   2.078   0.168 -0.7000 -1.0827 -1.1689
  989SOL    HW2 2967   1.575   1.989   0.026  1.3039  1.0997  1.3515
  990SOL     OW 2968   1.193   0.506   2.065  0.8609  0.0378 -0.3595
  990SOL    HW1 2969   1.192   0.600   2.094  1.5918 -1.0693  1.1377
  990SOL    HW2 2970   1.111   0.454   2.096  0.0185  0.7485 -1.0501
  991SOL     OW 2971   1.283   0.908   0.613 -0.0557  0.0650 -0.2258
  991SOL    HW1 2972   1.269   0.838   0.689 -0.3035 -2.5482 -0.1473
  991SOL    HW2 2973   1.381   0.915   0.586 -1.4081  1.8330  0.0095
  992SOL     OW 2974   2.281   1.791   0.913  0.5675  0.2122  0.2772
  992SOL    HW1 2975   2.219   1.868   0.892 -1.3168 -0.1136  0.2111
  992SOL    HW2 2976   2.233   1.717   0.965 -2.1354 -0.7843  2.0557
  993SOL     OW 2977   3.010   0.717   0.876 -0.4893  0.1245 -0.1376
  993SOL    HW1 2978   3.069   0.757   0.952 -0.6504 -2.1599 -1.7580
  993SOL    HW2 2979   3.069   0.722   0.793 -1.1679  2.8180 -1.7194
  994SOL     OW 2980   0.417   2.132   2.326  0.0206 -0.1028 -0.2210
  994SOL    HW1 2981   0.412   2.054   2.256 -0.7092  1.4035 -2.1239
  994SOL    HW2 2982   0.324   2.154   2.365 -0.6374  2.8668 -0.1326
  995SOL     OW 2983   1.903   1.076   2.689 -0.0670 -0.0337  0.3908
  995SOL    HW1 2984   1.843   1.009   2.734 -0.0996  0.4427 -0.3214
  995SOL    HW2 2985   1.853   1.145   2.632 -1.2348 -1.4782  1.2221
  996SOL     OW 2986   2.850   1.249   0.559  0.6123  0.0591 -0.1952
  996SOL    HW1 2987   2.778   1.180   0.532 -4.1303 -1.4244 -0.8810
  996SOL    HW2 2988   2.809   1.319   0.617 -0.1393  1.3990  0.3912
  997SOL     OW 2989   1.652   0.850   2.037 -0.3759 -0.1709  0.1462
  997SOL    HW1 2990   1.570   0.794   2.019 -4.1984 -1.4932  2.3912
  997SOL    HW2 2991   1.700   0.877   1.953 -1.2785 -0.0701 -0.6979
  998SOL     OW 2992   2.867   1.707   0.365  0.2243  0.2428  0.5076
  998SOL    HW1 2993   2.941   1.676   0.303 -1.6816 -0.6692 -1.4415
  998SOL    HW2 2994   2.890   1.679   0.461 -2.3572 -2.4430  1.9008
  999SOL     OW 2995   0.003   2.303   0.276 -0.4004 -0.7321 -0.5279
  999SOL    HW1 2996   0.037   2.207   0.294  2.7236 -1.1354  0.1249
  999SOL    HW2 2997   0.014   2.364   0.358  0.6381 -0.0060  0.6830
 1000SOL     OW 2998   0.986   0.913   2.405  0.1605 -0.0748 -0.3722
 1000SOL    HW1 2999   1.011   0.824   2.444 -1.7959  2.0786 -2.2659
 1000SOL    HW2 3000   0.948   0.896   2.315 -0.9869  4.4730  2.4079
   3.08440   3.08440   3.08440
