1000 SPC/Fw water molecules t= 167.00000 step= 167000
 3000
    1SOL     OW    1   2.626   2.754   0.683 -0.2631  0.1859  0.2347
    1SOL    HW1    2   2.619   2.799   0.589 -0.6835 -0.9373 -0.4403
    1SOL    HW2    3   2.556   2.683   0.695 -1.4814  2.2294 -1.6366
    2SOL     OW    4   1.346   1.850   2.174 -0.2603 -0.0513  0.0433
    2SOL    HW1    5   1.261   1.809   2.137 -1.9197  0.4836  1.7432
    2SOL    HW2    6   1.326   1.934   2.234 -0.3222  2.5344  2.7962
    3SOL     OW    7   1.683   2.403   2.344 -0.4691  0.6490  0.1716
    3SOL    HW1    8   1.587   2.428   2.336  3.6293 -1.2932 -2.2019
    3SOL    HW2    9   1.733   2.465   2.401 -1.3344 -2.5248 -0.5493
    4SOL     OW   10   2.035   2.011   2.017  0.2574 -0.1197  0.1908
    4SOL    HW1   11   2.097   2.074   2.063 -2.6964  0.6420  0.1743
    4SOL    HW2   12   1.949   2.060   2.009  2.1987  0.8187 -0.1953
    5SOL     OW   13   0.845   0.445   1.667  0.7232  0.4027  0.0808
    5SOL    HW1   14   0.931   0.486   1.637 -0.9499 -2.3682  0.8376
    5SOL    HW2   15   0.813   0.477   1.757  1.4066 -3.4251 -1.8197
    6SOL     OW   16   2.434   0.951   2.880 -0.3902 -0.3405  0.2047
    6SOL    HW1   17   2.463   0.945   2.782 -0.1412 -2.0177  0.7796
    6SOL    HW2   18   2.361   1.018   2.893  0.9681  0.9212 -0.5264
    7SOL     OW   19   1.116   0.569   1.333  0.1105 -0.1150  0.2807
    7SOL    HW1   20   1.188   0.552   1.262 -1.1287  0.9456 -2.8982
    7SOL    HW2   21   1.078   0.658   1.297 -1.2494 -0.4963 -0.8632
    8SOL     OW   22   1.173   2.537   1.450 -0.6343 -0.0254 -0.6198
    8SOL    HW1   23   1.120   2.503   1.532 -1.2445 -1.5269  2.7625
    8SOL    HW2   24   1.218   2.626   1.470  0.9530 -2.3157 -0.1818
    9SOL     OW   25   0.914   1.305   0.115 -0.9175 -0.4862  0.3985
    9SOL    HW1   26   0.855   1.273   0.038  2.4953 -2.1701  0.3532
    9SOL    HW2   27   0.977   1.231   0.141  4.0061  0.1330  0.2234
   10SOL     OW   28   0.534   2.811   0.227  0.3955  0.6602  0.1112
   10SOL    HW1   29   0.610   2.755   0.187  0.6432  1.0240 -2.9451
   10SOL    HW2   30   0.456   2.753   0.246 -1.2631  0.4955 -0.6797
   11SOL     OW   31   0.099   1.313   2.903 -0.5515 -0.6555 -0.1827
   11SOL    HW1   32   0.199   1.333   2.880  0.5964  1.3370  1.6665
   11SOL    HW2   33   0.088   1.336   3.002  2.8024  1.1770  0.5746
   12SOL     OW   34   0.747   3.104   1.336 -1.2811 -0.0686 -0.1334
   12SOL    HW1   35   0.697   3.083   1.249  2.4271  0.7287  4.0457
   12SOL    HW2   36   0.679   3.118   1.408  0.8069  2.2656 -0.0890
   13SOL     OW   37   0.585   3.019   0.443  0.5058  0.1244  0.0652
   13SOL    HW1   38   0.586   2.965   0.358 -1.0614  1.5575  1.4953
   13SOL    HW2   39   0.576   3.118   0.420 -1.2231  2.4898  0.1639
   14SOL     OW   40   1.089   1.982   0.968  0.2147 -0.3985  0.1379
   14SOL    HW1   41   1.118   2.076   0.984  0.6837 -2.5316 -1.2022
   14SOL    HW2   42   1.156   1.926   1.019 -1.0618 -1.1184 -1.8796
   15SOL     OW   43   2.586   0.843   2.381 -0.3306  0.1709 -0.2633
   15SOL    HW1   44   2.584   0.836   2.482 -2.2942 -1.0411 -1.2502
   15SOL    HW2   45   2.503   0.884   2.344 -1.0116 -0.6243 -1.9284
   16SOL     OW   46   1.335   2.826   3.037  0.3225  0.3546 -0.2693
   16SOL    HW1   47   1.312   2.729   3.049 -1.0067 -0.4803 -0.0814
   16SOL    HW2   48   1.374   2.854   2.946  3.1689  0.4484  0.1866
   17SOL     OW   49   0.756   2.794   1.793  0.2067  0.5767 -0.2715
   17SOL    HW1   50   0.731   2.839   1.881  0.5001 -0.2368  1.3744
   17SOL    HW2   51   0.845   2.838   1.768  1.2474  2.2933 -1.7084
   18SOL     OW   52   1.461   0.868   0.203 -0.0211  0.5549  0.9090
   18SOL    HW1   53   1.507   0.854   0.118 -1.8085  1.8235  1.0576
   18SOL    HW2   54   1.473   0.787   0.264  0.1883 -2.3692  2.6467
   19SOL     OW   55   2.146   1.866   2.821 -0.0313 -0.1273 -0.5197
   19SOL    HW1   56   2.099   1.954   2.826  1.5157 -0.9861 -1.5048
   19SOL    HW2   57   2.243   1.882   2.789  1.1279  2.3642 -0.8653
   20SOL     OW   58   2.239   1.908   1.866  0.3257  0.3118  0.2583
   20SOL    HW1   59   2.293   1.828   1.899  0.7323  0.1787  0.6641
   20SOL    HW2   60   2.161   1.940   1.921  3.1562 -1.0405 -1.1812
   21SOL     OW   61   0.343   1.390   2.872 -0.1872 -0.3138 -0.5666
   21SOL    HW1   62   0.418   1.365   2.943  0.4262 -0.4175  2.9826
   21SOL    HW2   63   0.379   1.392   2.777  1.3072  0.0715  2.2996
   22SOL     OW   64   2.631   3.111   1.478  0.5005  0.0787  0.3014
   22SOL    HW1   65   2.685   3.042   1.431  0.5516  1.8076  0.4106
   22SOL    HW2   66   2.529   3.115   1.453 -1.4430  0.1138 -0.7903
   23SOL     OW   67   2.938   0.831   1.750 -0.2901 -0.9471 -0.0531
   23SOL    HW1   68   2.888   0.863   1.660 -1.5834  0.6198 -4.1271
   23SOL    HW2   69   3.017   0.774   1.732 -1.0218  2.1654  1.3659
   24SOL     OW   70   2.731   1.981   1.427  0.2023 -1.0115 -0.3825
   24SOL    HW1   71   2.685   2.025   1.506  0.9133  1.9822  1.5965
   24SOL    HW2   72   2.761   1.886   1.443  0.7413 -1.2314 -0.3863
   25SOL     OW   73   1.710   0.009   2.569 -0.3468  0.0864 -0.3154
   25SOL    HW1   74   1.779   0.006   2.493  0.9755 -0.4496 -0.7461
   25SOL    HW2   75   1.697   3.038   2.620 -1.6768 -0.4653  1.8814
   26SOL     OW   76   1.232   3.085   0.271 -0.3763  0.2446 -1.0508
   26SOL    HW1   77   1.318   3.094   0.319 -2.5183 -0.5684  0.4300
   26SOL    HW2   78   1.248   3.095   0.172 -1.4935 -1.8135 -2.6819
   27SOL     OW   79   0.674   1.997   3.059  0.4831  0.1314  0.0107
   27SOL    HW1   80   0.638   1.911   3.012 -0.4391 -1.2659  0.2362
   27SOL    HW2   81   0.767   1.977   3.099  0.4104 -0.5530  1.0464
   28SOL     OW   82   2.757   1.358   1.156 -0.1627 -0.1203 -0.3737
   28SOL    HW1   83   2.712   1.446   1.126 -2.8731 -1.8322  1.9002
   28SOL    HW2   84   2.862   1.355   1.144  3.3278  0.9885  1.2570
   29SOL     OW   85   2.553   1.996   2.175 -0.4930 -0.4879  0.1917
   29SOL    HW1   86   2.482   2.001   2.248  1.9772 -3.1934 -1.0093
   29SOL    HW2   87   2.625   2.068   2.175 -2.3418  0.9673 -0.8546
   30SOL     OW   88   0.944   3.013   0.922 -0.6470  0.8443 -0.3059
   30SOL    HW1   89   0.985   3.034   0.834 -1.4267 -0.4019 -1.5899
   30SOL    HW2   90   0.891   3.096   0.947 -2.1101 -2.2343 -0.9212
   31SOL     OW   91   0.101   2.447   1.814  0.1430  0.4832  0.5684
   31SOL    HW1   92   0.062   2.494   1.732  2.4775 -0.2107  1.4759
   31SOL    HW2   93   0.195   2.410   1.798 -0.0863  3.9439 -1.9941
   32SOL     OW   94   1.369   0.895   1.926 -0.0287  0.5808 -0.1113
   32SOL    HW1   95   1.403   0.930   1.839 -2.7833  0.1015 -1.0896
   32SOL    HW2   96   1.452   0.896   1.981  0.4584 -0.1784 -2.8491
   33SOL     OW   97   0.461   2.815   2.646  0.2758 -0.1427 -0.2490
   33SOL    HW1   98   0.475   2.854   2.554  1.3725 -3.3563  0.3757
   33SOL    HW2   99   0.473   2.889   2.716 -1.1424  1.3334 -0.2506
   34SOL     OW  100   1.701   3.069   1.406  0.2136  0.4726  0.0784
   34SOL    HW1  101   1.664   2.976   1.409 -0.2924  0.4182  1.2306
   34SOL    HW2  102   1.630   0.020   1.388  1.9378 -0.9662  0.2367
   35SOL     OW  103   2.170   0.806   1.084  0.1618 -0.4530 -0.3298
   35SOL    HW1  104   2.151   0.900   1.110  1.1025 -0.6184 -0.8240
   35SOL    HW2  105   2.207   0.757   1.164 -1.7838 -2.9078  0.9827
   36SOL     OW  106   2.467   2.618   2.227 -0.0270 -0.0717 -0.1056
   36SOL    HW1  107   2.495   2.636   2.320 -1.7165  1.4791  0.6982
   36SOL    HW2  108   2.451   2.708   2.181 -0.4954  0.3572  0.0596
   37SOL     OW  109   1.206   2.329   2.384  0.0503 -0.4633  0.1600
   37SOL    HW1  110   1.230   2.339   2.484 -0.5694 -0.9470  0.0308
   37SOL    HW2  111   1.110   2.303   2.374  1.0993  1.3452 -2.2080
   38SOL     OW  112   2.471   0.305   0.057  0.3640  0.0384  0.2977
   38SOL    HW1  113   2.483   0.206   0.054 -1.4728  1.8324 -0.8762
   38SOL    HW2  114   2.392   0.335   3.114  0.9001 -1.1751 -0.8463
   39SOL     OW  115   2.138   1.653   2.476  0.1326  0.0975  0.7129
   39SOL    HW1  116   2.080   1.737   2.488  0.4920 -0.3239  1.1441
   39SOL    HW2  117   2.074   1.569   2.465 -1.4849  1.5399 -0.1026
   40SOL     OW  118   0.217   2.973   2.528 -0.4042  0.0166 -0.3009
   40SOL    HW1  119   0.125   2.967   2.483 -0.3520  1.0094  0.1461
   40SOL    HW2  120   0.254   2.877   2.547  0.8536 -1.0088 -0.5629
   41SOL     OW  121   1.746   0.434   1.430 -0.1576  0.4519  0.2386
   41SOL    HW1  122   1.667   0.372   1.455 -1.7652  1.5536  1.6972
   41SOL    HW2  123   1.825   0.372   1.407  0.3763 -3.6704  0.8372
   42SOL     OW  124   0.743   0.172   1.697  0.0218  0.1628 -0.4460
   42SOL    HW1  125   0.793   0.262   1.689  1.7456 -2.4920 -1.4722
   42SOL    HW2  126   0.680   0.146   1.621 -0.3482  1.3019 -2.3766
   43SOL     OW  127   1.680   0.464   1.806  0.5103 -0.1724 -0.0366
   43SOL    HW1  128   1.712   0.401   1.877  0.0203 -0.9127  1.1360
   43SOL    HW2  129   1.763   0.521   1.778 -0.1066  2.0393 -0.2394
   44SOL     OW  130   0.220   2.947   2.927  0.1452  0.6644 -0.5847
   44SOL    HW1  131   0.234   2.852   2.898  1.1271  2.7617 -2.0484
   44SOL    HW2  132   0.128   2.977   2.889  0.9143  0.0744 -0.0023
   45SOL     OW  133   0.254   2.442   1.450 -0.0712 -0.2407 -0.6856
   45SOL    HW1  134   0.250   2.445   1.552  0.2274 -1.7499  1.0992
   45SOL    HW2  135   0.352   2.450   1.417  3.2413  1.2083 -0.1980
   46SOL     OW  136   2.293   2.008   2.307  0.3305  0.0576  0.0021
   46SOL    HW1  137   2.264   2.036   2.399 -0.2415  1.1859  0.9485
   46SOL    HW2  138   2.308   1.909   2.303  0.5243 -0.3394  2.0209
   47SOL     OW  139   1.878   1.902   1.566 -0.1379  0.0297  0.2484
   47SOL    HW1  140   1.918   1.994   1.571 -1.5893 -0.0023  0.4703
   47SOL    HW2  141   1.807   1.896   1.636  0.8232  1.4401 -1.9395
   48SOL     OW  142   0.371   1.593   0.368 -0.3420  0.0847 -0.3002
   48SOL    HW1  143   0.414   1.679   0.336  1.5620 -3.8534  0.2908
   48SOL    HW2  144   0.359   1.599   0.467  1.8931 -0.3192 -1.6198
   49SOL     OW  145   2.769   0.375   2.534  0.3785  0.9424  0.0582
   49SOL    HW1  146   2.805   0.430   2.607 -3.0200 -0.5210 -0.6994
   49SOL    HW2  147   2.680   0.414   2.505  1.2414 -0.1815 -1.8497
   50SOL     OW  148   1.984   0.672   0.938 -0.5668  0.3081 -0.0524
   50SOL    HW1  149   2.041   0.733   0.996  0.5208 -2.6660 -0.1181
   50SOL    HW2  150   1.942   0.723   0.857 -0.9103 -0.9626 -0.8011
   51SOL     OW  151   1.295   0.614   0.950  0.1190 -0.5997  0.2850
   51SOL    HW1  152   1.200   0.582   0.941  1.3234  1.4034  1.6525
   51SOL    HW2  153   1.297   0.711   0.922 -0.2228  1.7746  0.6790
   52SOL     OW  154   1.384   1.289   3.054  0.2076 -0.1499  0.2024
   52SOL    HW1  155   1.372   1.256   0.032 -0.1463  1.0173  0.5981
   52SOL    HW2  156   1.405   1.387   3.053 -1.9110  3.4282 -0.6767
   53SOL     OW  157   1.431   2.085   2.797  0.4065 -0.0839  0.2128
   53SOL    HW1  158   1.338   2.080   2.844 -0.0960 -1.8731  0.6313
   53SOL    HW2  159   1.454   2.182   2.773 -2.7789 -1.3310  2.1193
   54SOL     OW  160   1.977   0.312   1.382 -0.2489  0.2619  0.2627
   54SOL    HW1  161   1.960   0.212   1.380 -0.1074  2.0770 -0.5226
   54SOL    HW2  162   2.076   0.337   1.375  0.5842  1.3267 -0.6236
   55SOL     OW  163   2.232   2.657   0.658 -0.2079 -0.7198 -0.1656
   55SOL    HW1  164   2.296   2.686   0.586 -0.0521 -0.5248  1.4466
   55SOL    HW2  165   2.134   2.682   0.650  1.0429  1.3611 -1.8237
   56SOL     OW  166   0.777   2.816   1.423 -0.5424  0.4047  0.9437
   56SOL    HW1  167   0.778   2.746   1.496 -0.9980  1.3373 -3.6913
   56SOL    HW2  168   0.739   2.910   1.445  1.9105  0.0343 -0.7297
   57SOL     OW  169   1.833   1.343   0.466  0.8213  0.1087 -0.0602
   57SOL    HW1  170   1.752   1.388   0.428  0.6281 -0.4627 -1.3394
   57SOL    HW2  171   1.915   1.402   0.449  3.0722  3.4527 -0.0668
   58SOL     OW  172   0.296   1.155   2.309  0.0779 -0.1303  0.0324
   58SOL    HW1  173   0.282   1.242   2.254 -0.0605  1.8008 -1.5539
   58SOL    HW2  174   0.226   1.079   2.286 -1.1299  0.7921  1.2830
   59SOL     OW  175   0.778   2.629   2.727 -0.0326 -0.1566 -0.0849
   59SOL    HW1  176   0.853   2.602   2.788 -1.3747 -0.2879 -0.2756
   59SOL    HW2  177   0.733   2.710   2.769 -0.5139  2.3636  0.6584
   60SOL     OW  178   2.455   2.551   1.120 -0.1993  0.5317  0.2124
   60SOL    HW1  179   2.373   2.508   1.073 -2.8244 -0.4603 -0.4321
   60SOL    HW2  180   2.432   2.563   1.220  0.2782  1.2018 -1.7061
   61SOL     OW  181   1.079   2.115   0.598  0.6663 -0.0965 -0.2091
   61SOL    HW1  182   0.996   2.130   0.663 -1.4031  2.3492  0.4947
   61SOL    HW2  183   1.164   2.098   0.650 -3.2652 -0.3123 -0.6794
   62SOL     OW  184   2.162   2.752   2.785  0.1056  0.2518  0.3324
   62SOL    HW1  185   2.200   2.672   2.841  0.9164 -0.0989  2.1556
   62SOL    HW2  186   2.143   2.828   2.845  1.8027 -1.9929  0.7712
   63SOL     OW  187   2.180   0.759   0.177  0.1127 -0.1317  0.7051
   63SOL    HW1  188   2.088   0.739   0.221 -1.3687  2.8369  1.6394
   63SOL    HW2  189   2.255   0.733   0.239 -0.8642  1.3860 -0.7252
   64SOL     OW  190   1.002   1.127   2.925  0.0473 -0.3119  0.1871
   64SOL    HW1  191   1.082   1.190   2.898 -1.6699  2.7605  0.5108
   64SOL    HW2  192   0.917   1.180   2.956 -2.6803  1.6621 -0.2023
   65SOL     OW  193   1.254   2.454   0.580 -0.4551  0.3920  0.2928
   65SOL    HW1  194   1.247   2.510   0.491 -1.1252 -1.4899 -0.7726
   65SOL    HW2  195   1.311   2.371   0.567  0.6101 -2.6025  0.1304
   66SOL     OW  196   0.685   1.128   1.727 -0.2302 -0.1291 -0.5962
   66SOL    HW1  197   0.733   1.057   1.782  1.4789 -1.5627 -1.6908
   66SOL    HW2  198   0.620   1.182   1.785 -1.4711 -0.3232  1.0270
   67SOL     OW  199   2.355   0.019   2.400 -0.4262  0.0154 -0.5667
   67SOL    HW1  200   2.303   0.080   2.339  0.2715 -2.4212  0.4801
   67SOL    HW2  201   2.419   0.078   2.458  1.0849 -1.9011  1.0957
   68SOL     OW  202   0.833   1.427   1.199  0.3355 -0.5494  0.4991
   68SOL    HW1  203   0.876   1.339   1.224  0.9390 -2.0850 -1.2682
   68SOL    HW2  204   0.792   1.418   1.106  0.6405  0.1268  0.3069
   69SOL     OW  205   1.600   2.446   0.388  0.1556  0.3475 -0.1355
   69SOL    HW1  206   1.556   2.530   0.350 -1.3765 -0.2756  1.4141
   69SOL    HW2  207   1.658   2.469   0.468  0.8158 -0.4350 -1.9178
   70SOL     OW  208   2.816   0.980   2.326 -0.2660 -0.1414  0.1259
   70SOL    HW1  209   2.894   0.920   2.296  1.4761 -1.4565 -1.5243
   70SOL    HW2  210   2.727   0.929   2.342  2.6662 -1.1720  1.0278
   71SOL     OW  211   3.045   1.617   2.951 -0.4669 -0.3326 -0.2348
   71SOL    HW1  212   3.016   1.570   2.871 -1.0768 -1.3391  4.5488
   71SOL    HW2  213   2.984   1.586   3.026 -0.1210  0.4680  0.7198
   72SOL     OW  214   2.783   2.386   0.518 -0.1197  0.1389 -0.2418
   72SOL    HW1  215   2.684   2.408   0.524  1.8673  1.7634  1.9787
   72SOL    HW2  216   2.805   2.322   0.441 -1.8709  2.0280  2.3424
   73SOL     OW  217   0.704   1.604   0.554 -0.1949 -0.2165 -0.0321
   73SOL    HW1  218   0.722   1.541   0.471 -0.0864 -1.8083 -0.5297
   73SOL    HW2  219   0.605   1.630   0.565 -1.5464  2.1202 -0.1364
   74SOL     OW  220   0.117   1.712   2.484 -0.6701  0.1971 -0.0929
   74SOL    HW1  221   0.132   1.810   2.486 -2.3370 -0.1772 -0.7599
   74SOL    HW2  222   0.100   1.690   2.583  0.4550  0.9591 -1.2342
   75SOL     OW  223   1.631   1.405   1.601  0.1701 -0.7766 -0.3928
   75SOL    HW1  224   1.714   1.411   1.545 -1.3788  1.4795 -0.2345
   75SOL    HW2  225   1.559   1.471   1.568  0.2564 -0.1987 -2.3283
   76SOL     OW  226   2.036   2.757   1.605  0.0083  0.4993  0.2008
   76SOL    HW1  227   2.050   2.681   1.674  0.3616 -0.8719 -0.0175
   76SOL    HW2  228   2.005   2.843   1.656 -1.2701  1.1363  1.2168
   77SOL     OW  229   2.632   0.910   1.202  0.3421  0.0526 -0.2094
   77SOL    HW1  230   2.715   0.858   1.234  1.5456  1.0039  0.5767
   77SOL    HW2  231   2.615   0.865   1.110 -0.8839  0.3142 -0.5345
   78SOL     OW  232   1.348   1.047   0.555  0.3614  0.2200  0.4636
   78SOL    HW1  233   1.342   1.139   0.595 -0.8618 -2.0555  1.4361
   78SOL    HW2  234   1.442   1.034   0.521  0.0328  1.9909  1.8917
   79SOL     OW  235   3.084   1.508   1.772  0.2774  0.0710 -0.7930
   79SOL    HW1  236   3.082   1.459   1.682 -0.2212 -2.2704 -0.5915
   79SOL    HW2  237   3.006   1.480   1.828  4.6926 -1.4695  0.4184
   80SOL     OW  238   1.307   0.860   1.517 -0.7733 -0.3745  0.2304
   80SOL    HW1  239   1.285   0.830   1.612 -0.7742 -1.8179 -1.5571
   80SOL    HW2  240   1.363   0.791   1.470  1.5380  2.8268  1.3873
   81SOL     OW  241   0.788   0.114   0.981  0.5827  0.5754 -0.0918
   81SOL    HW1  242   0.715   0.155   0.921  1.3286  0.3677 -3.3405
   81SOL    HW2  243   0.750   0.049   1.049  0.1724  1.3495 -0.3886
   82SOL     OW  244   1.523   2.780   1.644  0.1265 -0.1618  0.2546
   82SOL    HW1  245   1.464   2.700   1.678 -1.9490 -0.0218 -1.1434
   82SOL    HW2  246   1.574   2.761   1.559 -1.6205 -1.7327 -0.6740
   83SOL     OW  247   0.907   2.087   0.801 -0.7658  0.1636  0.0987
   83SOL    HW1  248   0.856   2.165   0.848 -3.5575  1.2689  0.5736
   83SOL    HW2  249   0.958   2.033   0.875  0.9800 -2.6568  4.2261
   84SOL     OW  250   0.432   1.411   2.613  0.3655 -0.1189  0.1276
   84SOL    HW1  251   0.369   1.439   2.539 -2.9231 -0.2804 -1.3119
   84SOL    HW2  252   0.531   1.427   2.587 -1.0759  0.2871  1.0967
   85SOL     OW  253   0.099   2.270   1.341 -0.3100 -0.0715 -0.1259
   85SOL    HW1  254   0.002   2.272   1.368  0.2093  2.1144 -1.1174
   85SOL    HW2  255   0.152   2.345   1.381  0.1640 -2.1041  1.5665
   86SOL     OW  256   2.422   2.190   1.381 -0.0131 -0.5689  0.0437
   86SOL    HW1  257   2.389   2.101   1.425 -0.8145 -1.9501 -0.1644
   86SOL    HW2  258   2.432   2.266   1.448 -0.0008  1.1140 -3.5402
   87SOL     OW  259   2.831   2.239   0.290 -0.5438  0.3695 -0.5152
   87SOL    HW1  260   2.754   2.204   0.235  1.5541 -1.0048  1.3513
   87SOL    HW2  261   2.923   2.206   0.254  0.6433  1.0540 -0.3403
   88SOL     OW  262   0.648   1.593   1.339  0.4044 -0.2065 -0.0731
   88SOL    HW1  263   0.612   1.650   1.261 -0.7868  1.0009 -1.5779
   88SOL    HW2  264   0.691   1.506   1.305  2.1671  1.1679 -0.8046
   89SOL     OW  265   1.052   3.092   2.042  0.8582 -0.4002 -0.2566
   89SOL    HW1  266   0.993   3.010   2.058  1.2768 -1.5676 -0.9520
   89SOL    HW2  267   1.052   0.013   1.947 -1.1126 -2.5876  0.8204
   90SOL     OW  268   3.011   1.774   1.188 -0.2089 -0.3528 -0.1365
   90SOL    HW1  269   2.921   1.823   1.192 -2.1281  0.8554  0.7316
   90SOL    HW2  270   3.011   1.703   1.260  0.1829  1.2572 -2.4148
   91SOL     OW  271   1.311   1.830   1.124  0.2271 -0.1522  0.2648
   91SOL    HW1  272   1.317   1.897   1.199  0.1988 -0.0595  0.7673
   91SOL    HW2  273   1.402   1.816   1.082 -1.0172  2.0708 -2.2123
   92SOL     OW  274   2.524   2.354   1.568 -0.1018  1.0568 -0.2889
   92SOL    HW1  275   2.471   2.383   1.648  0.1517  1.7239  0.5682
   92SOL    HW2  276   2.622   2.334   1.597 -1.0817 -0.0614  0.6825
   93SOL     OW  277   2.778   1.551   2.730  0.2905 -0.8789 -0.3159
   93SOL    HW1  278   2.731   1.496   2.663  1.8647  1.5285  3.9091
   93SOL    HW2  279   2.852   1.492   2.765 -1.1518  3.4478 -1.0631
   94SOL     OW  280   2.832   2.728   2.064  0.6564 -0.5087  0.3008
   94SOL    HW1  281   2.780   2.789   2.126  2.0265 -0.4527  1.1659
   94SOL    HW2  282   2.842   2.645   2.120 -0.1371  1.3922 -1.5380
   95SOL     OW  283   1.657   0.112   1.765 -0.1342 -0.5537  0.2976
   95SOL    HW1  284   1.665   0.172   1.847 -0.4415  0.7580  0.1339
   95SOL    HW2  285   1.656   0.018   1.803 -0.3252  0.9225 -0.4441
   96SOL     OW  286   0.043   3.035   1.494  0.3339 -0.6793  0.4189
   96SOL    HW1  287   3.118   3.115   1.542  0.7092  0.3564 -1.1340
   96SOL    HW2  288   3.094   2.963   1.485 -0.9416 -0.1502  1.8886
   97SOL     OW  289   2.277   0.339   1.558  0.1092  0.5646  0.1716
   97SOL    HW1  290   2.191   0.312   1.606  1.6796 -0.0669 -1.4006
   97SOL    HW2  291   2.335   0.381   1.629  2.1776  0.1934 -0.7777
   98SOL     OW  292   1.787   2.528   1.535 -0.1052 -0.1354  0.1039
   98SOL    HW1  293   1.852   2.571   1.470 -3.5222 -0.7343 -0.1894
   98SOL    HW2  294   1.823   2.543   1.627 -1.6801  0.3856 -1.1120
   99SOL     OW  295   0.043   2.890   1.828  0.5518  0.0931 -0.4054
   99SOL    HW1  296   0.047   2.843   1.738  0.5487  1.2508  0.0154
   99SOL    HW2  297   0.005   2.981   1.819  0.8331  1.0336  3.0634
  100SOL     OW  298   2.853   1.141   2.108 -0.4827  0.0479 -0.0820
  100SOL    HW1  299   2.879   1.237   2.132  2.0914  0.7578  1.3413
  100SOL    HW2  300   2.814   1.089   2.186  0.5488  1.1135  1.4687
  101SOL     OW  301   1.624   0.675   0.553  0.7237  0.4570 -0.3466
  101SOL    HW1  302   1.555   0.667   0.482  0.0382  1.1996  2.0983
  101SOL    HW2  303   1.589   0.649   0.645 -1.9767 -1.6710  2.4044
  102SOL     OW  304   0.211   0.687   1.538 -0.3967  0.0822  0.1407
  102SOL    HW1  305   0.274   0.631   1.591 -2.9819  1.6509 -1.9873
  102SOL    HW2  306   0.216   0.785   1.550  0.0137 -3.8046  2.4780
  103SOL     OW  307   2.213   0.684   3.033  0.6421 -0.3672 -0.3684
  103SOL    HW1  308   2.221   0.681   0.017 -1.0590 -1.5475 -1.2083
  103SOL    HW2  309   2.155   0.763   2.996 -2.4652  1.4309  1.0141
  104SOL     OW  310   0.004   0.177   2.160  0.0171 -0.3683 -0.2744
  104SOL    HW1  311   0.089   0.212   2.125 -0.2100 -0.6339  2.5915
  104SOL    HW2  312   0.009   0.177   2.263 -1.8720 -1.0574 -0.1536
  105SOL     OW  313   1.950   0.799   1.681 -0.3315 -0.7931  0.7811
  105SOL    HW1  314   1.867   0.861   1.686 -0.1278  2.0195 -0.4464
  105SOL    HW2  315   2.010   0.836   1.602  2.2775  1.6322 -0.5117
  106SOL     OW  316   1.455   3.095   0.823 -0.4514  0.5274  0.7250
  106SOL    HW1  317   1.382   3.042   0.866  1.1141  2.1670  0.1663
  106SOL    HW2  318   1.521   0.009   0.894  1.2485  0.1759  1.9145
  107SOL     OW  319   0.283   1.281   0.744  0.2624  0.0225 -0.1101
  107SOL    HW1  320   0.269   1.287   0.646 -0.7693  2.9713  2.6788
  107SOL    HW2  321   0.195   1.271   0.794  1.3121 -1.0576  2.2879
  108SOL     OW  322   0.013   0.173   2.421  0.0051 -0.1357 -0.1562
  108SOL    HW1  323   3.053   0.153   2.484  1.3695 -0.8407  2.0242
  108SOL    HW2  324   0.095   0.135   2.464 -1.8662 -0.8853 -1.5624
  109SOL     OW  325   2.704   0.201   0.316 -0.4456 -0.0888 -0.0653
  109SOL    HW1  326   2.638   0.274   0.336 -0.2382  0.5495  0.4422
  109SOL    HW2  327   2.785   0.251   0.285 -0.6796 -0.4742 -2.2648
  110SOL     OW  328   0.399   2.366   2.897  0.2288 -0.0900  0.1376
  110SOL    HW1  329   0.299   2.342   2.904 -0.7572 -1.7912 -0.5844
  110SOL    HW2  330   0.424   2.422   2.817 -1.9976 -1.8891 -0.1605
  111SOL     OW  331   1.840   3.085   2.008 -0.2630 -0.1851 -0.0158
  111SOL    HW1  332   1.928   3.057   1.963 -0.4137  1.1849 -1.0274
  111SOL    HW2  333   1.831   0.066   1.989  0.7494 -3.2594  2.0479
  112SOL     OW  334   2.267   2.559   2.927 -0.0546  0.2313 -0.3389
  112SOL    HW1  335   2.245   2.496   3.004  0.2156 -0.7116  1.4580
  112SOL    HW2  336   2.371   2.581   2.921  1.3623  4.0634  1.4499
  113SOL     OW  337   2.824   2.118   1.884 -0.4802  0.4897 -0.0026
  113SOL    HW1  338   2.923   2.109   1.850  5.5165  1.1548 -0.1312
  113SOL    HW2  339   2.804   2.214   1.912  0.7633  0.9955 -1.6369
  114SOL     OW  340   2.627   0.766   0.953 -0.0412 -0.5552 -0.1971
  114SOL    HW1  341   2.540   0.749   0.908  0.5575  2.0031 -1.1390
  114SOL    HW2  342   2.675   0.681   0.973  1.2034  1.9200  0.6809
  115SOL     OW  343   2.876   1.584   0.056  0.0512  0.1746 -0.1018
  115SOL    HW1  344   2.898   1.491   0.090 -2.1790 -1.1997 -0.0959
  115SOL    HW2  345   2.928   1.649   0.116  0.0263  0.5863 -0.2529
  116SOL     OW  346   0.165   1.348   1.884 -0.2594 -0.3074  0.2797
  116SOL    HW1  347   0.247   1.379   1.831  1.6899  4.0284 -1.3808
  116SOL    HW2  348   0.079   1.401   1.865 -3.6595  0.9652  0.1854
  117SOL     OW  349   2.700   2.997   0.773 -0.2532  0.0030  0.4430
  117SOL    HW1  350   2.660   2.910   0.738  3.3099  2.9138 -0.4387
  117SOL    HW2  351   2.713   3.064   0.698  0.2034 -0.2595  1.2042
  118SOL     OW  352   0.453   2.113   1.542  0.6406 -0.0131 -0.4292
  118SOL    HW1  353   0.426   2.157   1.455 -0.5752  1.3808  0.7538
  118SOL    HW2  354   0.546   2.071   1.535 -0.6801 -1.0079 -0.6478
  119SOL     OW  355   1.469   2.236   0.450 -0.1155 -0.1365 -1.2149
  119SOL    HW1  356   1.510   2.155   0.408 -0.9657  3.1486  2.1203
  119SOL    HW2  357   1.519   2.325   0.433  1.0876  0.4997 -0.4011
  120SOL     OW  358   0.182   1.989   2.479  0.7640 -0.1125 -0.0425
  120SOL    HW1  359   0.247   1.979   2.406  1.4201  1.0855 -1.1771
  120SOL    HW2  360   0.150   2.084   2.479 -1.7089 -1.1042 -0.1055
  121SOL     OW  361   2.210   1.987   1.475 -0.1522 -0.3263 -0.3407
  121SOL    HW1  362   2.188   1.889   1.455 -0.7445 -2.2794  0.3773
  121SOL    HW2  363   2.135   2.047   1.436  0.9214 -0.5694  1.5731
  122SOL     OW  364   2.333   1.741   2.320  0.2716 -0.3622  0.8806
  122SOL    HW1  365   2.430   1.728   2.355  1.2611  1.7385  0.3484
  122SOL    HW2  366   2.258   1.714   2.378  1.4672  0.2791 -1.8207
  123SOL     OW  367   0.100   2.908   0.720  0.4313 -0.1440  0.5762
  123SOL    HW1  368   0.067   3.003   0.718  0.0463 -3.4476 -2.0472
  123SOL    HW2  369   0.012   2.852   0.725 -3.3968 -1.8065 -1.4342
  124SOL     OW  370   1.629   0.753   2.523 -0.3998 -0.4507  0.2518
  124SOL    HW1  371   1.707   0.775   2.464 -2.0422 -0.2181 -1.7562
  124SOL    HW2  372   1.599   0.835   2.583 -0.1243  1.3123  1.3941
  125SOL     OW  373   0.530   1.396   3.056 -0.7357 -0.6361  0.2335
  125SOL    HW1  374   0.559   1.476   3.110 -0.8892 -1.2315 -0.3792
  125SOL    HW2  375   0.501   1.315   3.109 -0.0221  0.2688  0.5430
  126SOL     OW  376   2.536   2.036   0.358 -0.1420  0.0190 -0.1515
  126SOL    HW1  377   2.537   2.100   0.280 -0.7734 -1.8750  0.6577
  126SOL    HW2  378   2.511   2.091   0.438 -0.1798 -2.2558 -0.8815
  127SOL     OW  379   0.535   1.742   1.154 -0.1923  0.3510 -0.0578
  127SOL    HW1  380   0.482   1.820   1.194  1.4605 -3.7691 -0.3440
  127SOL    HW2  381   0.473   1.671   1.124 -0.4910 -0.7788  2.2156
  128SOL     OW  382   0.840   0.750   0.169  0.1808  0.1187 -0.0507
  128SOL    HW1  383   0.868   0.754   0.073 -1.2590 -0.2865  2.0170
  128SOL    HW2  384   0.915   0.767   0.231 -1.1229 -1.2782 -2.3198
  129SOL     OW  385   2.240   1.374   0.731  0.1681 -0.1414  0.3181
  129SOL    HW1  386   2.141   1.405   0.736 -1.2349  1.9358 -1.1901
  129SOL    HW2  387   2.253   1.295   0.797 -5.1317  0.0639  0.6413
  130SOL     OW  388   2.195   1.674   1.119 -0.1945  0.1209 -0.1309
  130SOL    HW1  389   2.236   1.742   1.064 -2.8407 -2.5765  2.5006
  130SOL    HW2  390   2.096   1.669   1.101  1.6951 -0.0705 -0.8321
  131SOL     OW  391   2.856   1.146   2.796  0.1722  0.5517  0.0788
  131SOL    HW1  392   2.783   1.109   2.859  0.9331  1.1600  1.2162
  131SOL    HW2  393   2.946   1.097   2.822  1.3786  0.9346  0.3076
  132SOL     OW  394   2.742   1.648   1.705 -0.0039  0.4319 -1.0255
  132SOL    HW1  395   2.734   1.694   1.802  0.9072  3.6861  1.3971
  132SOL    HW2  396   2.756   1.548   1.723  0.1860 -2.3326 -1.0776
  133SOL     OW  397   3.016   0.623   0.326  0.2686 -0.3484 -0.2752
  133SOL    HW1  398   2.967   0.534   0.306 -1.4641 -0.5882 -0.0521
  133SOL    HW2  399   3.083   0.615   0.405  3.4973  2.1085 -0.0223
  134SOL     OW  400   0.208   1.078   0.084 -0.4698 -0.2246 -0.3874
  134SOL    HW1  401   0.124   1.130   0.068  1.1303 -0.8121  0.0982
  134SOL    HW2  402   0.232   1.026   0.001  1.3653 -0.2543 -0.3131
  135SOL     OW  403   2.098   1.677   0.689  0.7012 -0.7951 -0.1893
  135SOL    HW1  404   2.058   1.581   0.697  1.4980 -2.4722 -0.0111
  135SOL    HW2  405   2.025   1.735   0.648  1.7029 -1.6320  0.6800
  136SOL     OW  406   1.947   1.397   0.968  0.5342  0.6874  0.6273
  136SOL    HW1  407   1.961   1.349   1.058 -0.2604 -2.9481 -1.4856
  136SOL    HW2  408   1.900   1.491   0.982 -1.1183  2.0354 -1.8112
  137SOL     OW  409   2.459   1.567   0.759  0.2523  0.9434 -0.5078
  137SOL    HW1  410   2.384   1.501   0.770  2.0173  0.4922  1.3296
  137SOL    HW2  411   2.451   1.640   0.829  0.0160  2.4053 -1.0265
  138SOL     OW  412   1.377   0.342   1.654 -0.6054 -0.4031 -0.0961
  138SOL    HW1  413   1.388   0.443   1.684 -0.5908  0.3377  2.2052
  138SOL    HW2  414   1.445   0.312   1.584 -3.1954 -2.0701  1.9900
  139SOL     OW  415   1.903   0.127   3.100  0.0302 -0.1353  0.3915
  139SOL    HW1  416   1.919   0.231   3.094  2.8864  0.7906  0.1453
  139SOL    HW2  417   1.984   0.087   0.031  1.3059 -0.4082  3.5193
  140SOL     OW  418   1.538   2.075   2.504 -0.3521  0.2014 -0.9657
  140SOL    HW1  419   1.443   2.057   2.493  3.1204  0.3505  2.3786
  140SOL    HW2  420   1.584   2.092   2.417  0.8202  0.9089  3.1448
  141SOL     OW  421   1.003   1.205   1.719  0.0543  0.6784 -0.3287
  141SOL    HW1  422   1.062   1.242   1.798  0.5593 -1.5870  0.2913
  141SOL    HW2  423   0.930   1.271   1.689 -1.2021  2.3386  0.0499
  142SOL     OW  424   2.677   0.167   2.969 -0.5018  0.5372  0.5592
  142SOL    HW1  425   2.679   0.122   3.062 -2.4526  1.1849 -0.2485
  142SOL    HW2  426   2.675   0.265   2.982 -1.2387 -1.4466  0.1853
  143SOL     OW  427   0.759   2.380   2.931  0.5588  0.2730  0.4609
  143SOL    HW1  428   0.739   2.371   3.034 -1.0626  0.0917  0.6905
  143SOL    HW2  429   0.842   2.437   2.907  0.3837  0.0388  0.0816
  144SOL     OW  430   1.041   2.747   2.593 -0.1650  0.5193  0.2270
  144SOL    HW1  431   0.941   2.730   2.613 -0.4077 -0.2034  1.6347
  144SOL    HW2  432   1.087   2.792   2.674  0.0932 -0.9841 -0.1579
  145SOL     OW  433   2.474   1.393   0.079  0.3001  0.2964  0.8343
  145SOL    HW1  434   2.538   1.316   0.079  0.9376  3.5190  1.3802
  145SOL    HW2  435   2.522   1.481   0.081  1.3867  1.1752 -1.8340
  146SOL     OW  436   2.746   3.050   2.830  0.0415 -0.2381  0.2713
  146SOL    HW1  437   2.711   0.025   2.857 -0.8742  0.0424  2.7426
  146SOL    HW2  438   2.797   3.012   2.911  1.4400  0.1489  1.3932
  147SOL     OW  439   2.311   2.204   1.132 -0.1630 -0.0581  0.4408
  147SOL    HW1  440   2.288   2.304   1.116 -1.4923  2.9659 -3.5103
  147SOL    HW2  441   2.339   2.191   1.230 -2.2490 -1.4878 -0.8702
  148SOL     OW  442   1.679   0.020   0.097  0.6208  0.1902 -0.5399
  148SOL    HW1  443   1.694   0.038   0.196  1.8755 -1.7467  0.8157
  148SOL    HW2  444   1.759   0.069   0.055  0.4792  2.0165  1.4606
  149SOL     OW  445   0.928   1.403   2.807 -0.7967 -0.0820 -0.2317
  149SOL    HW1  446   1.013   1.360   2.840 -1.5139  2.6040  1.2237
  149SOL    HW2  447   0.933   1.414   2.705  0.5274 -0.9880  0.5576
  150SOL     OW  448   0.686   2.739   0.613 -0.0844 -0.2801  0.0209
  150SOL    HW1  449   0.747   2.705   0.543 -0.6532  2.2650  3.2936
  150SOL    HW2  450   0.586   2.750   0.579  1.5606  1.2404 -2.7968
  151SOL     OW  451   0.310   1.850   3.047 -0.6128 -0.0555  0.2517
  151SOL    HW1  452   0.273   1.757   3.056  1.9011  0.1448  2.2803
  151SOL    HW2  453   0.388   1.850   2.985 -1.9603 -0.5137  2.8681
  152SOL     OW  454   3.022   0.892   0.327 -0.8848  0.2260  0.1921
  152SOL    HW1  455   2.997   0.927   0.420 -0.0436 -1.5128  0.1246
  152SOL    HW2  456   3.041   0.793   0.334  0.1012 -0.1216  2.6569
  153SOL     OW  457   2.549   2.632   2.914 -0.1405  0.2783  0.1091
  153SOL    HW1  458   2.575   2.652   3.013  1.0110  0.1641  1.4904
  153SOL    HW2  459   2.569   2.705   2.846 -2.2192 -0.3409  0.9807
  154SOL     OW  460   0.628   3.028   1.093  0.6677  0.1121 -0.3037
  154SOL    HW1  461   0.672   2.968   1.021 -1.2202 -2.3510 -2.1803
  154SOL    HW2  462   0.529   2.995   1.114 -1.9959  0.2522  0.6636
  155SOL     OW  463   0.347   1.947   1.215 -0.5528 -0.0276  0.3920
  155SOL    HW1  464   0.330   1.945   1.117  1.2952 -0.6925  1.0567
  155SOL    HW2  465   0.266   1.955   1.273 -0.7288 -1.2810 -0.7282
  156SOL     OW  466   2.590   2.394   2.771 -0.6921 -0.8158 -0.1005
  156SOL    HW1  467   2.667   2.339   2.804  0.2540  1.7414  0.1515
  156SOL    HW2  468   2.564   2.473   2.831  0.5993 -2.3870  0.5323
  157SOL     OW  469   1.044   2.530   1.211  0.0466 -0.0845  0.0005
  157SOL    HW1  470   1.009   2.624   1.200 -0.6559 -2.5604 -0.8973
  157SOL    HW2  471   1.098   2.527   1.299  0.2313 -1.6375  1.7123
  158SOL     OW  472   1.858   0.884   2.762 -0.3062 -0.2087  0.4490
  158SOL    HW1  473   1.833   0.789   2.766  2.9741  2.2561 -2.1695
  158SOL    HW2  474   1.779   0.945   2.763  0.1726 -1.3774 -0.6152
  159SOL     OW  475   1.123   0.465   2.443 -0.9232  0.5776  0.3471
  159SOL    HW1  476   1.058   0.542   2.439 -0.4255  1.5213 -0.4629
  159SOL    HW2  477   1.190   0.469   2.517 -0.8674 -1.2043 -0.5104
  160SOL     OW  478   1.094   1.868   0.450 -0.0955 -0.1726 -0.1264
  160SOL    HW1  479   1.062   1.957   0.488 -3.4357 -1.3819 -1.8616
  160SOL    HW2  480   1.086   1.795   0.522  0.4692  0.7762 -0.1166
  161SOL     OW  481   3.004   2.072   0.068 -0.3278  0.1359  0.2715
  161SOL    HW1  482   2.956   2.003   0.126  2.1659  2.6134  0.0312
  161SOL    HW2  483   3.094   2.033   0.041 -1.0229  1.1827 -0.0268
  162SOL     OW  484   0.658   2.596   0.976  0.2511 -0.1289 -0.5813
  162SOL    HW1  485   0.682   2.685   0.936  0.0389  0.5459 -0.4247
  162SOL    HW2  486   0.638   2.611   1.076 -0.2095  0.9989 -1.4305
  163SOL     OW  487   2.341   0.949   0.013  0.2866  0.0439 -0.2901
  163SOL    HW1  488   2.368   0.904   3.042  0.9400 -0.9310 -0.9462
  163SOL    HW2  489   2.268   0.904   0.069 -1.4955  0.3804  1.9438
  164SOL     OW  490   0.084   2.925   0.077  0.0276  0.5962  0.3850
  164SOL    HW1  491   0.058   2.826   0.078 -1.2662 -1.8867 -0.8122
  164SOL    HW2  492   0.157   2.937   0.009 -1.8498  1.1216 -0.0281
  165SOL     OW  493   2.221   0.447   1.328  0.3777 -0.2377 -0.0906
  165SOL    HW1  494   2.235   0.417   1.423 -1.0725  1.6230 -1.7548
  165SOL    HW2  495   2.196   0.546   1.330 -3.3172  1.8487  1.1889
  166SOL     OW  496   2.022   0.274   0.972 -0.8021 -0.0257  0.0636
  166SOL    HW1  497   2.109   0.294   1.023  1.7396  0.9915  2.7769
  166SOL    HW2  498   1.994   0.177   0.967 -0.4212  0.9299 -1.1505
  167SOL     OW  499   0.456   0.784   1.676 -0.4612 -0.4791  0.0368
  167SOL    HW1  500   0.423   0.687   1.691 -0.1572 -0.6266 -0.1621
  167SOL    HW2  501   0.466   0.834   1.766  1.4158  2.0402 -1.4808
  168SOL     OW  502   2.921   0.040   2.269  0.3643 -0.1188 -0.2524
  168SOL    HW1  503   2.824   0.085   2.269 -0.6765  0.2561 -0.5603
  168SOL    HW2  504   2.987   0.107   2.223 -1.6333 -2.1431 -0.7716
  169SOL     OW  505   3.091   1.352   0.560  0.1081  0.0229  0.0616
  169SOL    HW1  506   0.062   1.324   0.519  3.7567 -0.9738 -0.7407
  169SOL    HW2  507   3.053   1.280   0.623  1.3753  2.4836 -1.3690
  170SOL     OW  508   0.031   0.617   1.735  0.0384 -0.3603 -0.0746
  170SOL    HW1  509   0.109   0.614   1.674 -1.1826 -0.6002 -2.3637
  170SOL    HW2  510   3.084   0.543   1.710 -2.2508  0.2809  0.3389
  171SOL     OW  511   1.243   2.006   1.886  0.2593  0.2664 -0.2323
  171SOL    HW1  512   1.247   2.062   1.971  2.4248 -0.0179  1.2581
  171SOL    HW2  513   1.314   2.031   1.818 -3.1921 -0.0339  1.2618
  172SOL     OW  514   0.539   2.433   1.400  0.1941  0.3813 -1.0251
  172SOL    HW1  515   0.605   2.451   1.476  1.5317 -1.1611  1.4972
  172SOL    HW2  516   0.535   2.334   1.380  1.6429  0.2444 -1.0099
  173SOL     OW  517   1.111   0.211   0.369  0.5826  0.2857 -0.1859
  173SOL    HW1  518   1.041   0.147   0.410  1.7985  0.2588 -0.8240
  173SOL    HW2  519   1.101   0.205   0.267 -1.4861 -0.3143  0.2932
  174SOL     OW  520   0.885   2.876   3.092 -0.7072 -0.4378  0.0908
  174SOL    HW1  521   0.843   2.955   3.043  3.0652 -2.0003 -0.3036
  174SOL    HW2  522   0.946   2.827   3.028 -1.8385  3.4554  3.1847
  175SOL     OW  523   1.167   0.957   3.047 -0.2582 -0.0785  0.5899
  175SOL    HW1  524   1.159   0.998   0.023 -2.1898  2.8620  1.0187
  175SOL    HW2  525   1.106   1.002   2.984  0.1668 -1.3496  0.3642
  176SOL     OW  526   1.438   0.638   0.360  0.3144 -0.0673 -0.1498
  176SOL    HW1  527   1.437   0.541   0.330 -1.6095  2.2097 -1.1440
  176SOL    HW2  528   1.340   0.664   0.390  2.3812  0.0018 -3.5656
  177SOL     OW  529   1.257   0.927   0.931 -0.5031  0.1410  0.0587
  177SOL    HW1  530   1.241   0.919   0.830 -1.4222 -1.3044  1.8330
  177SOL    HW2  531   1.187   0.989   0.972  0.9109 -1.8663 -1.4576
  178SOL     OW  532   2.734   1.852   2.773  0.1489  0.2919  0.0708
  178SOL    HW1  533   2.750   1.752   2.755 -2.2322 -2.2666  0.3984
  178SOL    HW2  534   2.667   1.895   2.704  0.0791  1.4882 -0.9300
  179SOL     OW  535   0.676   2.791   2.922  0.1068 -0.0164  0.2029
  179SOL    HW1  536   0.604   2.863   2.940 -3.1825  0.3282  0.4340
  179SOL    HW2  537   0.759   2.821   2.966  2.6381 -1.4969  1.0416
  180SOL     OW  538   1.851   1.427   1.432  0.2848  0.6997  0.1017
  180SOL    HW1  539   1.876   1.375   1.347 -0.1657 -1.1958  0.7240
  180SOL    HW2  540   1.859   1.530   1.421 -0.8240 -0.1172 -2.4223
  181SOL     OW  541   1.177   1.468   2.181  0.1938 -0.1774  0.4392
  181SOL    HW1  542   1.255   1.440   2.127  0.2681  4.2687  1.3411
  181SOL    HW2  543   1.203   1.479   2.279 -0.6081  0.4587  2.8132
  182SOL     OW  544   3.019   0.608   2.538 -0.6448  0.3582  0.1591
  182SOL    HW1  545   2.944   0.593   2.604  1.9420  2.3034  0.1011
  182SOL    HW2  546   3.045   0.522   2.493 -1.9843 -0.8475  0.8909
  183SOL     OW  547   1.501   3.012   2.831 -0.8097  0.3357  0.6597
  183SOL    HW1  548   1.594   2.975   2.809  0.9733  0.2571  1.4105
  183SOL    HW2  549   1.505   3.111   2.816  0.6009 -0.2027 -2.1499
  184SOL     OW  550   0.654   0.411   1.471  0.3861 -0.4134  0.7193
  184SOL    HW1  551   0.675   0.418   1.566 -1.8448 -1.7577 -4.5527
  184SOL    HW2  552   0.693   0.485   1.414 -1.3642  0.5845 -1.2191
  185SOL     OW  553   2.709   1.187   0.792 -0.1926 -0.2735  0.3113
  185SOL    HW1  554   2.716   1.288   0.767 -0.6568  0.0221 -0.5550
  185SOL    HW2  555   2.689   1.172   0.890  2.5126  0.0996 -1.2848
  186SOL     OW  556   0.213   2.077   2.938 -0.0451  0.1709  0.4470
  186SOL    HW1  557   0.221   2.168   2.981 -1.5415 -1.4157  0.3737
  186SOL    HW2  558   0.259   2.004   2.991 -0.1852 -1.7554 -2.4176
  187SOL     OW  559   2.649   1.199   0.097  0.3384 -0.0489  0.2193
  187SOL    HW1  560   2.729   1.230   0.149 -0.9262 -0.7640 -0.8022
  187SOL    HW2  561   2.679   1.157   0.009 -1.8034  1.7895 -1.4965
  188SOL     OW  562   0.434   2.091   0.544 -0.5048 -0.1212  0.0428
  188SOL    HW1  563   0.520   2.082   0.484  3.5961 -1.0340 -0.9720
  188SOL    HW2  564   0.349   2.094   0.481 -1.5307  1.5074 -1.5834
  189SOL     OW  565   2.587   0.903   0.193  0.5685  0.4320  0.8548
  189SOL    HW1  566   2.508   0.926   0.133 -2.4906 -1.3190 -0.2586
  189SOL    HW2  567   2.624   0.986   0.232  0.0201  1.2806 -0.7440
  190SOL     OW  568   1.123   1.742   2.094  0.0203  0.1817  0.3258
  190SOL    HW1  569   1.138   1.642   2.093 -1.7081 -0.2096  1.3283
  190SOL    HW2  570   1.037   1.764   2.146  1.8772 -0.0087 -0.7731
  191SOL     OW  571   2.826   0.450   1.590 -0.0074  0.1641 -0.1639
  191SOL    HW1  572   2.771   0.392   1.528  1.5060 -0.4018  0.0056
  191SOL    HW2  573   2.767   0.525   1.630 -0.8991  0.3234 -0.8555
  192SOL     OW  574   2.229   0.348   1.938 -0.1518 -0.3448  0.7069
  192SOL    HW1  575   2.249   0.249   1.932 -1.7343 -0.6886  1.7856
  192SOL    HW2  576   2.231   0.373   2.038 -0.1627  0.6518  0.3044
  193SOL     OW  577   0.493   0.731   0.559  0.0105 -0.2529  0.3224
  193SOL    HW1  578   0.452   0.722   0.653 -1.0452 -0.5707 -0.4660
  193SOL    HW2  579   0.444   0.811   0.516 -1.6764  0.6675 -1.2684
  194SOL     OW  580   1.297   2.402   1.684 -0.1431  0.4829 -0.4634
  194SOL    HW1  581   1.237   2.327   1.652 -2.3828  1.1738  0.1038
  194SOL    HW2  582   1.376   2.412   1.621  1.6132 -1.1421  0.0608
  195SOL     OW  583   2.241   0.577   0.858 -0.3037  0.5914  0.3733
  195SOL    HW1  584   2.280   0.670   0.877  0.5609  3.3521 -1.2100
  195SOL    HW2  585   2.141   0.581   0.882  0.4506  0.6206 -0.0771
  196SOL     OW  586   1.756   2.079   2.020 -0.7450 -0.2549  0.4718
  196SOL    HW1  587   1.706   1.991   2.035  1.2343  0.1642 -0.7142
  196SOL    HW2  588   1.707   2.136   1.959  0.2532 -1.3748  4.2017
  197SOL     OW  589   0.389   0.201   0.028  0.5377 -0.0824  0.3138
  197SOL    HW1  590   0.392   0.112   0.072 -0.6355  1.5399  0.7874
  197SOL    HW2  591   0.347   0.199   3.052  0.1689 -2.6733  0.4957
  198SOL     OW  592   1.089   1.340   0.745 -0.3319  0.2109  0.0240
  198SOL    HW1  593   1.043   1.388   0.672  0.3670 -0.8111 -0.9658
  198SOL    HW2  594   1.091   1.392   0.834  0.3928 -0.1740  0.6824
  199SOL     OW  595   2.487   0.840   1.880 -0.2394 -0.7294 -0.6846
  199SOL    HW1  596   2.555   0.779   1.921 -2.0591  1.0279 -2.6050
  199SOL    HW2  597   2.525   0.939   1.877  1.8137  2.3485  0.7601
  200SOL     OW  598   2.790   2.428   2.348  0.6284  0.2219 -0.1285
  200SOL    HW1  599   2.871   2.473   2.312 -1.9350 -3.6263  0.6644
  200SOL    HW2  600   2.719   2.495   2.377  1.2909  0.5530 -0.9817
  201SOL     OW  601   2.810   0.114   1.206 -0.0354  0.2088  0.8871
  201SOL    HW1  602   2.899   0.144   1.164  1.4232  0.0839  1.9093
  201SOL    HW2  603   2.728   0.107   1.143 -1.2589 -0.0424 -0.8230
  202SOL     OW  604   1.891   0.309   0.695  0.6616  0.2054  0.0315
  202SOL    HW1  605   1.806   0.342   0.738  1.1466  0.0521 -2.4250
  202SOL    HW2  606   1.962   0.324   0.766 -1.1080 -1.5385  1.6618
  203SOL     OW  607   1.599   1.835   2.057  0.4748  0.1339 -0.0185
  203SOL    HW1  608   1.513   1.869   2.086  3.3729  0.3722 -1.5005
  203SOL    HW2  609   1.632   1.761   2.115 -1.1538  1.2337 -3.1146
  204SOL     OW  610   0.681   1.663   1.997 -0.4916 -0.2092  0.1364
  204SOL    HW1  611   0.751   1.616   1.937 -0.2397 -0.6942  0.1754
  204SOL    HW2  612   0.718   1.751   2.030  0.5448 -1.6523  2.0412
  205SOL     OW  613   0.741   1.729   1.545  0.2091  0.3581 -0.3468
  205SOL    HW1  614   0.703   1.679   1.466 -1.0560  1.6814  1.8898
  205SOL    HW2  615   0.664   1.771   1.588  2.4456 -3.1458 -3.1022
  206SOL     OW  616   0.051   0.491   3.049  0.5655 -0.1730 -0.0898
  206SOL    HW1  617   0.059   0.578   3.101 -1.0485 -2.9508 -1.2656
  206SOL    HW2  618   3.072   0.481   3.014 -4.9259  0.0806 -0.3419
  207SOL     OW  619   1.777   2.730   1.989  0.3093  0.4404 -0.6671
  207SOL    HW1  620   1.858   2.774   2.033 -2.2366  0.6476  2.6277
  207SOL    HW2  621   1.802   2.668   1.916 -0.7139  2.3268  0.7420
  208SOL     OW  622   0.473   2.192   1.282 -0.6152  0.0906 -0.1637
  208SOL    HW1  623   0.442   2.100   1.262 -0.2458  0.3426  3.6502
  208SOL    HW2  624   0.476   2.245   1.191 -2.0526  0.8615 -0.9646
  209SOL     OW  625   1.403   1.180   2.265 -0.2053 -0.0389  0.3148
  209SOL    HW1  626   1.341   1.173   2.184  0.4104 -1.5925  0.1535
  209SOL    HW2  627   1.380   1.266   2.304  1.9316  0.1152  2.9858
  210SOL     OW  628   1.873   0.882   1.280 -0.3180 -0.0684 -0.0289
  210SOL    HW1  629   1.905   0.928   1.201 -1.0167  0.3937  0.9961
  210SOL    HW2  630   1.820   0.803   1.251  0.4657  2.6344  0.7758
  211SOL     OW  631   0.573   0.177   0.399 -0.5392  1.3061 -0.1338
  211SOL    HW1  632   0.600   0.206   0.306  2.3266 -1.9623  1.3633
  211SOL    HW2  633   0.609   0.235   0.468 -1.0460 -3.6687 -0.1280
  212SOL     OW  634   1.810   1.505   0.203 -0.3773 -0.4980  0.2224
  212SOL    HW1  635   1.813   1.599   0.159 -2.4308 -0.1581 -1.0892
  212SOL    HW2  636   1.905   1.492   0.243  0.7351 -0.1138  0.0622
  213SOL     OW  637   1.478   0.194   2.834  0.0589  0.0322 -0.9538
  213SOL    HW1  638   1.544   0.228   2.767  0.1041  1.0145 -0.1017
  213SOL    HW2  639   1.498   0.224   2.930 -0.0869 -0.3997  3.7331
  214SOL     OW  640   1.672   1.498   2.006  0.8184  0.4951  0.0758
  214SOL    HW1  641   1.677   1.549   2.092 -0.5601  1.3171 -4.3575
  214SOL    HW2  642   1.719   1.549   1.936  1.7936 -0.1560 -0.8780
  215SOL     OW  643   0.502   1.832   0.265  0.4026  0.1680 -0.7143
  215SOL    HW1  644   0.425   1.885   0.230  2.0479  0.5159  0.9513
  215SOL    HW2  645   0.566   1.889   0.312 -3.4520 -0.7295 -0.3237
  216SOL     OW  646   0.520   2.936   2.401 -0.0440  0.0230 -0.3375
  216SOL    HW1  647   0.623   2.957   2.387  0.2292  2.0147 -1.0135
  216SOL    HW2  648   0.462   3.009   2.358  0.0272 -0.8221 -0.0770
  217SOL     OW  649   2.299   1.047   0.724  0.9660  0.4381 -0.0129
  217SOL    HW1  650   2.383   1.041   0.664  0.6484  0.1710 -2.3657
  217SOL    HW2  651   2.216   1.049   0.665  2.3783 -3.1669  2.5239
  218SOL     OW  652   1.802   1.677   1.860 -0.4622 -0.4866  0.0593
  218SOL    HW1  653   1.863   1.686   1.940 -0.0843 -0.6426 -1.3657
  218SOL    HW2  654   1.861   1.676   1.778  1.8973 -1.6885  0.4742
  219SOL     OW  655   1.870   1.266   3.005 -0.1421  0.3582 -0.5814
  219SOL    HW1  656   1.916   1.244   2.923 -1.8674 -0.6040  2.6904
  219SOL    HW2  657   1.843   1.363   3.017 -1.5988 -1.4972 -2.8912
  220SOL     OW  658   1.230   1.574   1.197  0.2382  0.1390 -0.3700
  220SOL    HW1  659   1.247   1.670   1.176  0.0736 -1.4538  0.2767
  220SOL    HW2  660   1.299   1.536   1.269  0.5136  1.6854  0.0109
  221SOL     OW  661   0.895   0.685   3.025  0.3775  0.1816 -0.1378
  221SOL    HW1  662   0.924   0.750   2.952 -0.9040 -0.5529 -0.6356
  221SOL    HW2  663   0.809   0.640   2.991 -0.6962  0.4548 -1.2259
  222SOL     OW  664   0.903   1.690   0.889  0.1594 -0.0667 -0.1522
  222SOL    HW1  665   0.845   1.604   0.884 -1.6844 -0.2409  0.7467
  222SOL    HW2  666   0.852   1.756   0.948  0.1577  0.1605  0.5531
  223SOL     OW  667   1.231   3.093   3.117  0.2556 -0.0204 -0.0360
  223SOL    HW1  668   1.272   3.004   3.083  0.5904 -2.0021  1.9594
  223SOL    HW2  669   1.221   0.040   3.044 -0.4361 -1.1636  2.0595
  224SOL     OW  670   2.706   0.271   1.431  0.3838 -0.3174  0.2639
  224SOL    HW1  671   2.665   0.185   1.467  0.4961 -3.0238 -0.2430
  224SOL    HW2  672   2.745   0.248   1.338  3.2416  2.5175  2.4545
  225SOL     OW  673   0.981   0.341   1.433 -0.1307 -0.4597  0.2445
  225SOL    HW1  674   1.039   0.398   1.372 -0.8582 -0.1130  0.7965
  225SOL    HW2  675   0.905   0.395   1.462  0.7458  0.6080 -2.1071
  226SOL     OW  676   1.662   1.761   2.926  0.0867 -0.0477  0.1661
  226SOL    HW1  677   1.589   1.766   2.852 -0.9954 -0.4234  1.7155
  226SOL    HW2  678   1.636   1.821   3.006 -0.5141  0.9078  1.4790
  227SOL     OW  679   1.337   1.989   1.369 -0.2653 -0.3640  0.4052
  227SOL    HW1  680   1.368   1.914   1.429 -1.4097  0.8662 -0.7464
  227SOL    HW2  681   1.237   2.011   1.385 -1.4277 -0.5686  3.0751
  228SOL     OW  682   0.415   1.638   0.639 -0.1229  0.2940 -0.3854
  228SOL    HW1  683   0.400   1.735   0.667 -0.2736  2.1454 -1.8833
  228SOL    HW2  684   0.437   1.571   0.719  0.2833 -1.0345  0.9230
  229SOL     OW  685   1.268   0.356   0.044 -0.2690 -0.3194  0.7937
  229SOL    HW1  686   1.244   0.434   3.096 -1.9542  1.0495  0.5877
  229SOL    HW2  687   1.344   0.303   0.001  1.0860  1.9049 -1.2048
  230SOL     OW  688   1.248   0.544   2.218  0.2865  0.0315  0.3350
  230SOL    HW1  689   1.236   0.473   2.146  1.1006  1.8604  0.2342
  230SOL    HW2  690   1.191   0.520   2.302 -0.3945 -1.5198  2.5529
  231SOL     OW  691   0.948   1.795   2.328 -0.0239  0.0662  0.5109
  231SOL    HW1  692   1.028   1.746   2.366 -0.8173  2.1488 -1.6020
  231SOL    HW2  693   0.969   1.894   2.310 -0.5280  1.1593 -0.6379
  232SOL     OW  694   2.255   1.802   0.883 -0.0711 -0.4770  0.0770
  232SOL    HW1  695   2.180   1.775   0.817 -2.1559 -1.4950  1.5146
  232SOL    HW2  696   2.332   1.847   0.839 -1.3523 -0.5433 -0.5436
  233SOL     OW  697   2.324   2.891   0.138  0.3130 -0.3466 -0.3028
  233SOL    HW1  698   2.242   2.921   0.186 -1.4367 -0.8385 -2.0321
  233SOL    HW2  699   2.328   2.920   0.041  0.5989 -1.7318 -0.8262
  234SOL     OW  700   0.865   0.240   2.861 -0.2774 -0.0427 -0.1962
  234SOL    HW1  701   0.851   0.257   2.960 -0.6968 -1.3036 -2.1181
  234SOL    HW2  702   0.875   0.140   2.840 -0.5371 -1.0342 -0.8944
  235SOL     OW  703   2.243   0.002   2.706 -0.1725  0.5790 -0.2232
  235SOL    HW1  704   2.326   0.059   2.705 -0.0672  0.4382 -0.4265
  235SOL    HW2  705   2.254   3.061   2.617  1.2552 -1.7625 -2.3575
  236SOL     OW  706   2.480   2.352   2.289  0.0340 -0.4051 -0.3685
  236SOL    HW1  707   2.486   2.452   2.270  1.2479 -0.4475 -1.4055
  236SOL    HW2  708   2.566   2.312   2.255  3.0276  0.5781  3.4546
  237SOL     OW  709   0.904   1.467   2.128 -0.4908  0.0074 -0.6041
  237SOL    HW1  710   0.888   1.529   2.047  3.8871  2.7234 -2.2554
  237SOL    HW2  711   0.997   1.481   2.170  2.0009 -0.5528  1.4626
  238SOL     OW  712   1.648   0.275   2.648  0.4246  0.3470 -0.1006
  238SOL    HW1  713   1.678   0.176   2.620 -2.5495 -2.4618  1.6118
  238SOL    HW2  714   1.724   0.340   2.636  0.8179  3.2834 -1.8555
  239SOL     OW  715   0.162   1.895   1.837  0.1344  0.5383 -0.1955
  239SOL    HW1  716   0.206   1.838   1.910 -0.4794  0.2391  1.0028
  239SOL    HW2  717   0.076   1.849   1.807  0.0672  0.7535 -0.1715
  240SOL     OW  718   2.873   2.683   0.255  0.3037 -0.3240 -0.3523
  240SOL    HW1  719   2.879   2.636   0.346 -0.3953 -3.1722  0.0968
  240SOL    HW2  720   2.966   2.696   0.211 -0.7241  0.3679 -0.6287
  241SOL     OW  721   1.965   1.821   0.496  0.3177  0.2693  0.0733
  241SOL    HW1  722   2.034   1.776   0.438 -0.3689  0.9024  0.1777
  241SOL    HW2  723   1.867   1.820   0.455 -2.0034 -2.0992  0.4896
  242SOL     OW  724   1.451   1.821   2.729 -0.3558  0.1497 -0.3534
  242SOL    HW1  725   1.468   1.779   2.639 -0.1589  0.2169 -0.9385
  242SOL    HW2  726   1.461   1.928   2.723 -1.3630  3.4233  1.0617
  243SOL     OW  727   0.750   2.529   2.467 -0.0673 -0.3746 -0.0595
  243SOL    HW1  728   0.665   2.578   2.442  2.4265 -0.0603 -0.0644
  243SOL    HW2  729   0.764   2.532   2.563 -0.9929  2.5341 -3.9474
  244SOL     OW  730   2.023   0.185   2.768 -0.1518  0.0340  0.1180
  244SOL    HW1  731   2.025   0.251   2.844 -2.0375 -0.7827  0.2054
  244SOL    HW2  732   2.088   0.110   2.783  0.2031 -0.8651  3.1674
  245SOL     OW  733   1.437   2.864   0.663  0.2243  0.3749 -0.4745
  245SOL    HW1  734   1.469   2.939   0.724  1.0652  0.7755 -2.9519
  245SOL    HW2  735   1.341   2.880   0.631 -0.5699  2.7829  0.7014
  246SOL     OW  736   1.281   2.654   0.364  0.1302 -0.4723 -0.4190
  246SOL    HW1  737   1.378   2.686   0.337  2.7184 -0.7475  1.3734
  246SOL    HW2  738   1.222   2.734   0.373  2.4624  0.0563 -0.1001
  247SOL     OW  739   0.959   0.608   2.248  0.4225 -0.7270  0.4751
  247SOL    HW1  740   0.945   0.522   2.201  1.7836  0.7512 -0.6024
  247SOL    HW2  741   0.948   0.693   2.187 -0.3454  1.7313  0.2578
  248SOL     OW  742   0.564   1.460   2.109 -0.0956 -0.2867  0.1720
  248SOL    HW1  743   0.623   1.413   2.177 -1.2780 -1.3638  0.7978
  248SOL    HW2  744   0.610   1.541   2.067 -0.4498 -1.1868  0.1487
  249SOL     OW  745   2.281   0.227   0.410  0.2956  0.2477 -0.5619
  249SOL    HW1  746   2.332   0.312   0.388 -1.0724  1.2217  1.8717
  249SOL    HW2  747   2.233   0.235   0.497  2.4307  0.3505 -2.4377
  250SOL     OW  748   0.605   0.196   0.796 -0.0515  0.4747 -0.1564
  250SOL    HW1  749   0.566   0.110   0.757  0.0564  0.8558 -1.4486
  250SOL    HW2  750   0.605   0.272   0.720 -3.6931  1.7398  0.0228
  251SOL     OW  751   1.828   0.581   3.031  0.5984  0.0190 -0.5418
  251SOL    HW1  752   1.823   0.596   2.933  1.0305  0.7971  0.6510
  251SOL    HW2  753   1.828   0.666   3.083  0.2308 -3.1492 -3.2846
  252SOL     OW  754   1.998   1.598   2.043  0.2790  0.1530 -0.0767
  252SOL    HW1  755   1.972   1.505   2.081  0.1970 -0.6063  0.8578
  252SOL    HW2  756   1.999   1.674   2.120  1.9770  0.6379  3.8971
  253SOL     OW  757   2.786   2.365   1.932  0.8284  0.2054  0.0489
  253SOL    HW1  758   2.695   2.406   1.950 -0.3974  0.0287  1.4274
  253SOL    HW2  759   2.825   2.390   1.840 -0.4311 -0.0719 -0.6747
  254SOL     OW  760   0.196   1.329   1.075 -0.5863  0.3608 -0.1045
  254SOL    HW1  761   0.142   1.285   0.999 -0.4875  1.3810  2.0706
  254SOL    HW2  762   0.237   1.257   1.135 -0.1929 -0.8144 -1.0808
  255SOL     OW  763   0.773   0.633   1.333  0.3322 -0.1949  0.1704
  255SOL    HW1  764   0.682   0.668   1.296 -0.4919  1.7416 -0.9199
  255SOL    HW2  765   0.851   0.685   1.286 -0.0793  0.0884 -2.2438
  256SOL     OW  766   2.128   2.575   1.847  0.1302 -0.1493  0.1668
  256SOL    HW1  767   2.166   2.662   1.881  0.7896 -0.3609  0.0415
  256SOL    HW2  768   2.202   2.514   1.817  0.9506 -1.2094  0.9908
  257SOL     OW  769   0.445   2.659   3.028  0.3565  0.8183 -0.9721
  257SOL    HW1  770   0.536   2.705   3.013  0.0834  2.1406 -0.0118
  257SOL    HW2  771   0.394   2.653   2.937 -2.0491 -1.9360  0.0991
  258SOL     OW  772   0.759   2.654   0.144 -0.5654 -0.0970  0.8966
  258SOL    HW1  773   0.693   2.594   0.096  2.3313  1.4483 -0.3419
  258SOL    HW2  774   0.790   2.738   0.090  1.2486  3.7544 -0.6490
  259SOL     OW  775   1.211   0.065   2.263  0.1960  0.0213  0.0935
  259SOL    HW1  776   1.163   0.021   2.184 -0.8549  0.0028 -2.5094
  259SOL    HW2  777   1.282   0.118   2.220 -1.6291  0.1475  0.4982
  260SOL     OW  778   1.835   0.466   1.043 -0.4035 -0.0433 -0.4645
  260SOL    HW1  779   1.898   0.388   1.056 -0.2224  3.7420 -0.8523
  260SOL    HW2  780   1.887   0.546   1.005  1.1695  0.0004 -0.1384
  261SOL     OW  781   0.542   0.453   2.500 -0.0347 -0.5858  0.2608
  261SOL    HW1  782   0.468   0.509   2.544 -1.5928  1.1583  1.9660
  261SOL    HW2  783   0.610   0.411   2.566  2.5359  1.9794  0.4892
  262SOL     OW  784   0.226   2.381   2.190 -0.0506 -0.3043 -0.2188
  262SOL    HW1  785   0.258   2.470   2.166  0.1136  1.7143  2.6890
  262SOL    HW2  786   0.249   2.315   2.117  0.6276 -0.9285  1.9029
  263SOL     OW  787   3.039   1.608   2.332 -0.2905  0.1779 -0.2090
  263SOL    HW1  788   3.011   1.689   2.275  1.4396 -0.8925  1.7930
  263SOL    HW2  789   0.001   1.633   2.387 -0.9286 -0.4713  2.1792
  264SOL     OW  790   0.364   1.063   0.883 -0.4261 -0.3310  0.0927
  264SOL    HW1  791   0.354   1.145   0.830 -0.1941 -0.8159  1.7610
  264SOL    HW2  792   0.280   1.028   0.933 -0.5044 -2.1330  2.7358
  265SOL     OW  793   1.006   2.438   0.685  0.1674  0.3361 -0.5999
  265SOL    HW1  794   1.105   2.438   0.668 -1.5259  1.0500  0.7462
  265SOL    HW2  795   0.981   2.443   0.782  1.1304  2.2978 -4.5118
  266SOL     OW  796   1.690   0.809   1.017  0.1935 -0.0818 -0.1928
  266SOL    HW1  797   1.718   0.773   1.105 -1.1305  2.0068 -1.9669
  266SOL    HW2  798   1.768   0.836   0.965 -0.7255 -0.7153  0.0162
  267SOL     OW  799   2.674   1.037   2.978 -0.0041  0.3292  0.2076
  267SOL    HW1  800   2.729   0.957   3.008  0.4670  0.8365  1.1776
  267SOL    HW2  801   2.584   1.005   2.953 -1.5607  0.4392 -1.3848
  268SOL     OW  802   1.755   0.486   0.345  0.0198 -0.2070  0.1486
  268SOL    HW1  803   1.777   0.394   0.376 -1.4726 -0.5140 -1.5640
  268SOL    HW2  804   1.687   0.527   0.408 -1.1483 -1.0451 -3.7967
  269SOL     OW  805   2.095   0.880   2.922  0.3053  0.3535  0.3210
  269SOL    HW1  806   2.008   0.892   2.872  1.8059  0.5626  0.0511
  269SOL    HW2  807   2.155   0.958   2.897  2.4386 -0.2110 -1.2508
  270SOL     OW  808   3.028   0.913   3.033  0.2904  0.2333  0.2202
  270SOL    HW1  809   3.082   0.975   2.968 -0.3120  2.6631  1.1418
  270SOL    HW2  810   3.093   0.857   3.083 -0.7458  2.1667 -2.5657
  271SOL     OW  811   2.760   0.662   0.188  0.3206  0.0297  0.1199
  271SOL    HW1  812   2.676   0.726   0.205 -1.5459  3.1736 -0.0014
  271SOL    HW2  813   2.836   0.678   0.254 -0.4761 -0.6320 -0.9078
  272SOL     OW  814   0.112   2.394   2.898  0.4976  0.2027 -0.3861
  272SOL    HW1  815   0.100   2.385   2.797 -0.2688 -0.5749  0.3569
  272SOL    HW2  816   0.027   2.364   2.947 -0.8388  1.2040  0.4599
  273SOL     OW  817   2.601   3.069   0.323  0.0254  0.3026 -0.3621
  273SOL    HW1  818   2.650   0.041   0.305  0.4659 -0.4231 -1.0934
  273SOL    HW2  819   2.504   3.083   0.357  0.9982  2.6693 -0.8086
  274SOL     OW  820   0.552   2.340   1.015  0.5484  0.0275 -0.2925
  274SOL    HW1  821   0.588   2.435   1.019  1.8736 -0.6873  0.9661
  274SOL    HW2  822   0.524   2.315   0.920  0.9855 -0.3668  0.3407
  275SOL     OW  823   2.852   1.600   0.497  0.4427 -0.1916  0.1697
  275SOL    HW1  824   2.926   1.560   0.441  2.6522 -1.7806 -1.4408
  275SOL    HW2  825   2.816   1.683   0.451  2.4549 -0.3474  0.7155
  276SOL     OW  826   3.024   1.010   1.949  0.1849  0.2003 -0.6003
  276SOL    HW1  827   2.952   1.065   1.996  0.2537 -0.8022 -3.0514
  276SOL    HW2  828   2.990   0.962   1.870  0.5446  2.2253  4.2886
  277SOL     OW  829   2.096   2.947   1.306 -0.1219 -0.2354 -0.4432
  277SOL    HW1  830   2.043   2.896   1.234  0.3438  0.2515 -0.3738
  277SOL    HW2  831   2.054   3.035   1.332  2.7406 -3.6582 -2.4672
  278SOL     OW  832   1.429   2.443   2.307  0.1217 -0.2868 -1.1783
  278SOL    HW1  833   1.434   2.504   2.232  0.2172 -0.5832  1.9517
  278SOL    HW2  834   1.334   2.414   2.335 -1.2749  1.0013  1.3004
  279SOL     OW  835   1.541   1.984   0.427  0.1307  0.4343 -0.0017
  279SOL    HW1  836   1.621   1.925   0.407 -0.2710 -0.1890 -0.4671
  279SOL    HW2  837   1.464   1.952   0.368  0.9869  2.4981  1.6176
  280SOL     OW  838   0.369   1.552   1.051  0.2758  0.3278 -0.6876
  280SOL    HW1  839   0.302   1.629   1.053  2.2063 -0.0075  0.9050
  280SOL    HW2  840   0.317   1.467   1.070  1.0291  1.3451  1.9980
  281SOL     OW  841   3.004   0.746   2.312 -0.1480 -0.2901  0.6668
  281SOL    HW1  842   3.029   0.680   2.240  1.1666  1.3077  1.7285
  281SOL    HW2  843   2.999   0.695   2.402 -1.2877 -1.6247 -0.9196
  282SOL     OW  844   0.741   1.484   0.802  0.1935 -0.6343 -0.3140
  282SOL    HW1  845   0.648   1.454   0.810  3.9236  0.9267  1.3707
  282SOL    HW2  846   0.757   1.526   0.710  0.4472 -0.8598 -0.7909
  283SOL     OW  847   2.022   2.297   0.213 -0.4904 -0.0720  0.1301
  283SOL    HW1  848   2.056   2.395   0.226  1.1811  2.0494  1.1431
  283SOL    HW2  849   2.045   2.237   0.292  0.5182  1.5755 -1.1882
  284SOL     OW  850   0.936   0.553   0.388 -0.4744  0.0571  0.0988
  284SOL    HW1  851   0.885   0.532   0.305 -3.0758  1.5003 -1.9193
  284SOL    HW2  852   0.869   0.572   0.464  0.8667 -1.2699  2.7302
  285SOL     OW  853   2.231   1.107   2.873  0.1437 -0.0672 -0.5924
  285SOL    HW1  854   2.153   1.123   2.808  0.4280  1.3196  0.7334
  285SOL    HW2  855   2.286   1.190   2.893 -2.0171 -0.2124  0.4286
  286SOL     OW  856   1.799   2.180   1.338  0.1209  0.3248 -0.6342
  286SOL    HW1  857   1.731   2.155   1.415 -2.0405 -1.9360  3.8623
  286SOL    HW2  858   1.754   2.246   1.273  4.1432 -1.3344  1.2130
  287SOL     OW  859   0.992   1.085   0.649  0.1621  0.3571  0.3634
  287SOL    HW1  860   1.045   1.154   0.697  0.5323 -0.8713  0.6036
  287SOL    HW2  861   0.930   1.122   0.579  2.2950  0.8883  2.7237
  288SOL     OW  862   0.904   2.418   0.108 -0.4434 -0.2214  0.0691
  288SOL    HW1  863   1.000   2.443   0.125 -2.0475  1.0694 -1.0425
  288SOL    HW2  864   0.847   2.501   0.088  1.3311 -1.5049 -2.3361
  289SOL     OW  865   0.126   1.587   1.413  0.3090 -0.2630  0.0237
  289SOL    HW1  866   0.163   1.673   1.447 -0.2304 -3.1164  2.5046
  289SOL    HW2  867   0.203   1.523   1.408  0.4463  0.0873 -0.1644
  290SOL     OW  868   1.454   2.206   0.933  0.4347 -0.1388 -0.0417
  290SOL    HW1  869   1.423   2.192   1.026  0.5674 -0.5918 -2.3696
  290SOL    HW2  870   1.538   2.152   0.914 -2.8612 -0.8491 -0.0933
  291SOL     OW  871   1.861   2.961   2.972 -0.0206  0.5854 -0.3154
  291SOL    HW1  872   1.836   3.055   2.997  0.6173 -2.5574 -1.9015
  291SOL    HW2  873   1.848   2.899   3.051  0.3078 -0.3509 -1.3175
  292SOL     OW  874   0.921   0.380   2.122  0.4728  0.3292  0.2837
  292SOL    HW1  875   1.000   0.321   2.095 -1.1103 -2.1772 -2.3645
  292SOL    HW2  876   0.860   0.335   2.189  1.1169 -0.6182 -0.0328
  293SOL     OW  877   2.067   2.262   0.875  0.5341  0.5803  0.1856
  293SOL    HW1  878   1.995   2.229   0.812 -1.5131 -1.9142 -1.6498
  293SOL    HW2  879   2.087   2.187   0.943  2.2441 -3.6196  3.0068
  294SOL     OW  880   0.643   0.904   2.522  0.6318  0.4535 -1.2927
  294SOL    HW1  881   0.625   0.858   2.612 -0.6638 -0.1075 -0.3316
  294SOL    HW2  882   0.599   0.997   2.519  0.5460  2.9107 -2.2652
  295SOL     OW  883   1.565   1.464   0.835  0.0410  0.4121  0.1001
  295SOL    HW1  884   1.583   1.385   0.896  0.2796 -0.6878 -1.5677
  295SOL    HW2  885   1.646   1.520   0.821  0.0851  0.4563 -0.6129
  296SOL     OW  886   2.506   1.762   0.240  0.1656  0.3850 -0.0004
  296SOL    HW1  887   2.497   1.856   0.264 -0.9611 -1.9062  1.3853
  296SOL    HW2  888   2.506   1.710   0.325 -1.3506 -0.5799 -1.8215
  297SOL     OW  889   2.132   2.998   0.290  0.2191 -0.2825  0.4316
  297SOL    HW1  890   2.075   3.080   0.292  2.5040 -1.8195 -1.4772
  297SOL    HW2  891   2.216   3.021   0.340 -0.9679 -1.5727 -1.6431
  298SOL     OW  892   0.981   2.529   2.863  0.1883  0.1026  0.3968
  298SOL    HW1  893   1.035   2.447   2.848 -0.5009 -0.8745 -2.0296
  298SOL    HW2  894   1.040   2.610   2.888  0.4719 -0.8472  0.8690
  299SOL     OW  895   1.213   2.163   2.118  0.2391  0.0508  0.3702
  299SOL    HW1  896   1.316   2.169   2.126  2.0322 -3.1398 -1.6556
  299SOL    HW2  897   1.180   2.257   2.094  0.3525 -1.1679  1.3878
  300SOL     OW  898   2.462   0.154   2.791  0.5211 -0.8390 -0.1828
  300SOL    HW1  899   2.528   0.167   2.868 -2.4327 -1.1235 -1.6939
  300SOL    HW2  900   2.402   0.239   2.784 -2.1301  1.9346  0.0562
  301SOL     OW  901   1.251   1.158   2.048  0.2112 -0.0642 -0.3692
  301SOL    HW1  902   1.218   1.231   1.981 -1.9819  0.2112  0.1112
  301SOL    HW2  903   1.277   1.077   1.992 -1.8437  0.0635  1.2088
  302SOL     OW  904   2.829   2.978   3.100  0.0072  0.1779 -0.1258
  302SOL    HW1  905   2.740   3.016   0.013 -0.6265 -2.7545  0.8735
  302SOL    HW2  906   2.892   2.997   0.059  1.0052 -3.0488 -0.0641
  303SOL     OW  907   2.524   2.475   1.988  0.0770 -0.4365  0.2990
  303SOL    HW1  908   2.471   2.387   1.986 -0.4489 -0.7753 -0.6856
  303SOL    HW2  909   2.495   2.527   2.068 -2.2717  0.7898  0.4271
  304SOL     OW  910   2.699   0.622   1.772 -0.1281  0.3618  0.3722
  304SOL    HW1  911   2.735   0.708   1.730 -0.5806 -1.7112 -0.3187
  304SOL    HW2  912   2.759   0.577   1.839  0.8990  0.3481 -0.8143
  305SOL     OW  913   0.431   1.529   1.486 -0.0256 -0.1314 -0.3111
  305SOL    HW1  914   0.521   1.550   1.450 -0.9085 -0.0175 -1.7150
  305SOL    HW2  915   0.374   1.612   1.489 -1.2550 -2.3572 -1.6909
  306SOL     OW  916   0.086   1.110   1.765 -0.3154 -0.4060 -0.1949
  306SOL    HW1  917   0.142   1.190   1.798  0.8476  0.3491  0.9143
  306SOL    HW2  918   0.020   1.077   1.839  0.1648 -3.8417  0.4867
  307SOL     OW  919   1.076   0.559   1.611  0.4180 -0.3284  0.2259
  307SOL    HW1  920   1.089   0.574   1.509 -0.7426  2.2835 -1.5259
  307SOL    HW2  921   1.140   0.621   1.668  3.0376  0.2400  0.0224
  308SOL     OW  922   2.981   1.081   1.073 -0.5649  0.4746 -0.2966
  308SOL    HW1  923   2.875   1.087   1.063 -0.3469  0.6233  2.7238
  308SOL    HW2  924   3.013   1.063   1.172  0.7637  0.1900  3.1774
  309SOL     OW  925   2.365   1.124   1.366  0.6743  0.1712  0.2030
  309SOL    HW1  926   2.428   1.201   1.351 -1.8111 -0.4777 -3.4606
  309SOL    HW2  927   2.408   1.049   1.421  3.1247 -2.4482 -0.9874
  310SOL     OW  928   2.946   2.264   2.500 -0.4865 -0.2140 -0.5869
  310SOL    HW1  929   2.934   2.177   2.549  1.4599 -0.0896  0.6007
  310SOL    HW2  930   2.863   2.305   2.462  0.1920 -1.2155  0.3509
  311SOL     OW  931   2.882   2.934   2.616 -0.3778  0.3530  0.1561
  311SOL    HW1  932   2.822   2.968   2.689 -0.1398  0.2477 -0.0074
  311SOL    HW2  933   2.861   2.844   2.574  1.2301  1.5977 -0.2655
  312SOL     OW  934   2.242   2.010   0.176 -0.3326  0.8158  0.0950
  312SOL    HW1  935   2.291   2.074   0.118 -1.6822  0.0649  0.2075
  312SOL    HW2  936   2.214   1.930   0.116 -0.3372 -1.8196  0.6119
  313SOL     OW  937   2.640   2.803   0.401 -0.3247  0.4933  0.2892
  313SOL    HW1  938   2.722   2.777   0.352 -0.5355 -0.6244 -2.0670
  313SOL    HW2  939   2.614   2.902   0.379  0.3330 -1.1934  0.7741
  314SOL     OW  940   1.596   1.337   0.302 -0.3963 -0.1219  0.1213
  314SOL    HW1  941   1.522   1.287   0.254  2.3728  4.2139  1.2328
  314SOL    HW2  942   1.654   1.373   0.230 -1.4040 -1.8996  1.2009
  315SOL     OW  943   1.375   2.881   2.115 -0.1625 -0.0760  0.6261
  315SOL    HW1  944   1.362   2.910   2.212  1.7584 -0.7808 -1.1336
  315SOL    HW2  945   1.409   2.960   2.059  1.5665  1.2666 -0.9204
  316SOL     OW  946   2.785   0.793   3.054  0.3296  0.5408  0.3834
  316SOL    HW1  947   2.880   0.828   3.043 -0.5549 -1.0469  0.7350
  316SOL    HW2  948   2.778   0.744   0.027  0.0895 -0.8697  1.0944
  317SOL     OW  949   0.430   3.077   0.155  0.5956 -0.1568  0.5042
  317SOL    HW1  950   0.340   3.074   0.207  1.8503 -0.6934  2.0103
  317SOL    HW2  951   0.473   2.985   0.165  0.9895 -2.1005  4.9434
  318SOL     OW  952   2.213   2.451   1.006  0.1739 -0.1875 -0.3389
  318SOL    HW1  953   2.166   2.379   0.952 -1.4316 -0.0546 -1.1086
  318SOL    HW2  954   2.185   2.548   0.982 -0.7307  0.5171 -0.7720
  319SOL     OW  955   1.077   1.829   2.978  0.7367  0.2572  0.5316
  319SOL    HW1  956   0.999   1.856   3.040 -4.0515  0.2043 -0.2978
  319SOL    HW2  957   1.031   1.778   2.905  1.3569  1.0015  1.5745
  320SOL     OW  958   0.345   2.403   1.721 -0.4180  0.2911  0.3175
  320SOL    HW1  959   0.403   2.464   1.781  0.2745 -1.3329 -2.4170
  320SOL    HW2  960   0.410   2.332   1.683  0.9364 -0.4957 -0.4998
  321SOL     OW  961   1.320   2.851   2.742  0.4511  0.1813  0.0626
  321SOL    HW1  962   1.373   2.937   2.762 -0.5624  0.1261 -0.4292
  321SOL    HW2  963   1.378   2.771   2.714 -0.6081  0.8525 -0.4435
  322SOL     OW  964   2.903   1.405   2.180  0.4937  0.2858 -0.4858
  322SOL    HW1  965   2.959   1.483   2.226 -0.7135  0.3263 -2.2390
  322SOL    HW2  966   2.798   1.414   2.196 -2.6191 -0.1463 -0.3703
  323SOL     OW  967   2.254   1.073   1.114 -0.0865  0.1220  0.1229
  323SOL    HW1  968   2.301   1.118   1.034  1.4231 -0.0142  0.3315
  323SOL    HW2  969   2.303   1.087   1.200 -1.2796  0.2783  1.0679
  324SOL     OW  970   3.060   2.971   2.406  0.0163  0.4208  0.1512
  324SOL    HW1  971   3.015   3.036   2.345  2.0763 -0.3944 -1.6395
  324SOL    HW2  972   3.005   2.955   2.490  0.3869  1.3860  1.7978
  325SOL     OW  973   1.262   0.725   2.692  0.9424 -0.8442  0.3049
  325SOL    HW1  974   1.296   0.638   2.660  2.4075  0.8022 -2.3702
  325SOL    HW2  975   1.175   0.751   2.647  0.7051 -1.1783  3.6218
  326SOL     OW  976   2.023   2.683   2.138  0.5979  0.0864  0.0590
  326SOL    HW1  977   2.083   2.720   2.060  0.6784  0.2841 -0.4319
  326SOL    HW2  978   1.979   2.593   2.118 -2.1342  1.3555 -0.9398
  327SOL     OW  979   2.033   0.137   0.296 -0.2634 -0.2668  0.2642
  327SOL    HW1  980   1.963   0.185   0.351  1.8999  0.0197 -0.4078
  327SOL    HW2  981   2.124   0.175   0.298  0.3489 -0.4646  0.6111
  328SOL     OW  982   0.309   1.550   2.402 -0.4565  0.4638 -0.3387
  328SOL    HW1  983   0.302   1.491   2.320  0.5677 -0.3305 -1.6632
  328SOL    HW2  984   0.233   1.605   2.432  1.2568  0.5988 -0.7398
  329SOL     OW  985   2.248   0.058   1.981 -0.0401 -0.2464  0.0074
  329SOL    HW1  986   2.216   3.106   1.913  0.1890  1.8202  2.2876
  329SOL    HW2  987   2.339   0.033   2.015 -1.1636  1.3929  0.7178
  330SOL     OW  988   0.016   1.277   0.873 -0.5905  0.1782 -0.4856
  330SOL    HW1  989   0.006   1.379   0.863  0.9550  0.0092 -1.2531
  330SOL    HW2  990   3.062   1.225   0.816 -2.3520 -2.5166 -0.7447
  331SOL     OW  991   0.426   1.767   2.294 -0.3687  0.3355 -0.3802
  331SOL    HW1  992   0.391   1.681   2.337 -2.2015 -2.1821  0.0555
  331SOL    HW2  993   0.528   1.763   2.297 -0.6317 -1.5422 -0.1132
  332SOL     OW  994   0.281   2.981   1.620 -0.2038 -0.4728 -0.6787
  332SOL    HW1  995   0.335   2.935   1.552 -4.1655  3.0440  0.4956
  332SOL    HW2  996   0.186   3.001   1.582 -1.8508 -1.0928 -4.7818
  333SOL     OW  997   2.183   3.018   1.000 -0.5264  0.1105  0.5103
  333SOL    HW1  998   2.097   3.077   1.011 -1.9912 -0.7323  0.0688
  333SOL    HW2  999   2.258   3.038   1.064 -0.6683  3.2191 -1.3900
  334SOL     OW 1000   0.469   1.886   0.708 -0.3456 -0.3604 -0.2774
  334SOL    HW1 1001   0.448   1.966   0.648 -0.5136  2.8018  0.3398
  334SOL    HW2 1002   0.569   1.865   0.693  1.2421  1.4903  0.2509
  335SOL     OW 1003   0.210   2.578   3.106  0.2135 -0.3955 -0.1913
  335SOL    HW1 1004   0.173   2.533   3.019  1.1967  1.4545 -1.2951
  335SOL    HW2 1005   0.293   2.632   3.084  0.3189  1.5411  0.5662
  336SOL     OW 1006   0.322   3.112   2.308  0.2946 -0.0052  0.1605
  336SOL    HW1 1007   0.276   3.063   2.387  0.1093  0.9269 -0.1561
  336SOL    HW2 1008   0.304   3.072   2.220  0.6836 -2.6136  1.6237
  337SOL     OW 1009   2.568   2.221   2.535 -0.2049 -0.0218 -0.5832
  337SOL    HW1 1010   2.520   2.269   2.461  2.1668 -0.0842  0.3010
  337SOL    HW2 1011   2.603   2.274   2.610  1.5628 -2.7376 -0.5570
  338SOL     OW 1012   0.823   0.977   1.088 -0.5225 -0.5170 -0.0448
  338SOL    HW1 1013   0.824   0.945   0.988  0.5662 -0.4100 -3.3310
  338SOL    HW2 1014   0.750   1.052   1.104 -0.3331  3.6341  2.4006
  339SOL     OW 1015   0.152   0.887   2.054  0.1911  0.4007 -0.3501
  339SOL    HW1 1016   0.159   0.899   2.156 -2.2364  0.7441  0.5648
  339SOL    HW2 1017   0.058   0.909   2.028  0.8018 -0.7372  3.9274
  340SOL     OW 1018   1.549   2.685   0.265 -0.8244  0.2619 -0.0996
  340SOL    HW1 1019   1.585   2.723   0.349  0.0558 -0.8850 -1.8624
  340SOL    HW2 1020   1.529   2.762   0.203  0.3783 -2.8809  0.6130
  341SOL     OW 1021   1.973   1.035   1.079  0.7177 -0.4783 -0.0184
  341SOL    HW1 1022   1.917   1.073   1.005  0.1817 -0.3224 -1.2377
  341SOL    HW2 1023   2.070   1.069   1.077 -0.9367 -0.5771  0.0492
  342SOL     OW 1024   2.423   2.932   2.992 -0.1637  0.0774 -0.4383
  342SOL    HW1 1025   2.322   2.954   2.969 -1.8757  1.3152 -2.3707
  342SOL    HW2 1026   2.470   2.876   2.919 -1.2346 -1.0046  0.1067
  343SOL     OW 1027   1.607   2.204   1.797  0.2432 -0.0920  0.2570
  343SOL    HW1 1028   1.681   2.248   1.741 -1.0625  1.9589 -0.0941
  343SOL    HW2 1029   1.563   2.273   1.858  1.2056 -1.7312  0.5452
  344SOL     OW 1030   2.135   2.444   1.415  0.0616  0.2671 -0.7058
  344SOL    HW1 1031   2.059   2.511   1.397 -2.5009  0.1158  0.4653
  344SOL    HW2 1032   2.229   2.478   1.394  0.6228  0.8113  2.0760
  345SOL     OW 1033   2.675   2.633   0.062 -0.0669  0.1807  0.3519
  345SOL    HW1 1034   2.618   2.557   0.099  0.7644 -2.8101  1.2458
  345SOL    HW2 1035   2.739   2.675   0.136 -0.0274  1.7950  0.8967
  346SOL     OW 1036   2.707   1.451   0.740  0.1510  0.0218  0.1370
  346SOL    HW1 1037   2.731   1.478   0.644 -0.0818 -2.7952 -1.0854
  346SOL    HW2 1038   2.620   1.496   0.767 -1.8411 -1.3030 -0.6064
  347SOL     OW 1039   2.038   2.096   1.707 -0.5750  0.5468 -0.1293
  347SOL    HW1 1040   2.110   2.030   1.739  0.0650  0.8899 -0.5997
  347SOL    HW2 1041   2.067   2.135   1.619 -2.2884  0.4174 -1.6213
  348SOL     OW 1042   0.579   1.783   2.905 -0.3637  0.2263 -0.0594
  348SOL    HW1 1043   0.536   1.755   2.814  0.0428 -1.6069 -2.1317
  348SOL    HW2 1044   0.639   1.708   2.937 -0.5009 -1.8931  1.1637
  349SOL     OW 1045   2.395   1.346   1.617 -0.1472 -0.1736 -0.0515
  349SOL    HW1 1046   2.377   1.438   1.580  3.5283  0.9950  3.2727
  349SOL    HW2 1047   2.455   1.287   1.554  1.6723  1.5091 -4.1659
  350SOL     OW 1048   2.863   2.522   1.095  0.2644  0.3472  0.5002
  350SOL    HW1 1049   2.828   2.458   1.161  1.0302 -0.4790 -2.3216
  350SOL    HW2 1050   2.783   2.572   1.046 -1.3180  0.2607  0.9764
  351SOL     OW 1051   0.545   0.603   2.231 -0.3493  0.1640  0.3769
  351SOL    HW1 1052   0.605   0.683   2.224 -0.2717  0.4795 -1.5526
  351SOL    HW2 1053   0.581   0.532   2.295  1.7797  2.1892 -1.0451
  352SOL     OW 1054   0.745   1.928   1.074  0.4952  0.4588  0.1737
  352SOL    HW1 1055   0.793   1.929   1.164  1.0815 -1.0884 -2.3008
  352SOL    HW2 1056   0.672   1.855   1.077 -1.0280  0.3925  1.8213
  353SOL     OW 1057   1.449   1.691   2.384  0.3472 -0.2549  0.9638
  353SOL    HW1 1058   1.436   1.745   2.298  0.0402  0.1119  0.9350
  353SOL    HW2 1059   1.549   1.691   2.401 -1.1562  0.7068  0.4623
  354SOL     OW 1060   1.041   0.497   0.931  0.5199 -0.3931 -0.2251
  354SOL    HW1 1061   0.966   0.482   1.001  0.8103 -0.7471  0.2581
  354SOL    HW2 1062   1.076   0.406   0.903 -1.7959  0.6043  0.6875
  355SOL     OW 1063   2.557   0.733   0.622  0.3078  0.1728  0.2083
  355SOL    HW1 1064   2.566   0.835   0.614  1.8035  1.0682  1.6479
  355SOL    HW2 1065   2.476   0.712   0.678 -0.4916  0.5240  4.9642
  356SOL     OW 1066   2.593   1.628   2.383 -0.1640  0.2769  0.0182
  356SOL    HW1 1067   2.544   1.602   2.468  0.1422  2.2371 -3.0457
  356SOL    HW2 1068   2.685   1.656   2.411 -0.6643  1.0831  1.5614
  357SOL     OW 1069   0.620   2.614   1.224  0.8226 -0.1213  0.1311
  357SOL    HW1 1070   0.688   2.660   1.287 -1.0759  1.0955 -0.3212
  357SOL    HW2 1071   0.578   2.536   1.280 -0.6296 -1.6079  4.6965
  358SOL     OW 1072   2.419   0.702   1.643  0.0006  0.5836 -0.1524
  358SOL    HW1 1073   2.431   0.771   1.572  1.3094 -2.4304 -0.8492
  358SOL    HW2 1074   2.418   0.747   1.731  0.0210  2.0605 -2.2971
  359SOL     OW 1075   2.344   2.801   2.575 -0.6958  0.0465  0.1252
  359SOL    HW1 1076   2.282   2.763   2.500  1.8650 -1.7294  0.3683
  359SOL    HW2 1077   2.298   2.801   2.664  1.8507  0.1423 -5.2319
  360SOL     OW 1078   1.626   0.351   0.776 -0.1407 -0.2245  0.0100
  360SOL    HW1 1079   1.601   0.451   0.794 -2.7122  0.0226  0.5999
  360SOL    HW2 1080   1.632   0.299   0.866  1.8312 -0.2248  2.5596
  361SOL     OW 1081   2.364   0.082   1.445  0.0278  0.5942  0.1460
  361SOL    HW1 1082   2.338   0.166   1.495  1.6294 -0.3228  1.1259
  361SOL    HW2 1083   2.310   0.002   1.481 -0.8264  2.0064 -2.4560
  362SOL     OW 1084   1.247   1.239   0.395  0.0786  0.0034 -0.6514
  362SOL    HW1 1085   1.287   1.167   0.455  2.7713  1.1749  1.1009
  362SOL    HW2 1086   1.214   1.322   0.445 -1.2288  0.0408  1.7078
  363SOL     OW 1087   2.406   1.620   2.623  0.3329 -0.6250  0.6178
  363SOL    HW1 1088   2.444   1.558   2.693  3.0871 -0.5017 -1.7051
  363SOL    HW2 1089   2.317   1.588   2.581 -2.2988 -0.7797 -1.8104
  364SOL     OW 1090   0.986   0.071   1.421  0.7972  0.2650 -0.3593
  364SOL    HW1 1091   1.004   0.175   1.427  1.0028  2.0465 -0.6285
  364SOL    HW2 1092   0.884   0.056   1.414  1.6951 -0.0276 -1.4931
  365SOL     OW 1093   0.191   3.061   0.292 -0.2286 -0.1870  0.1923
  365SOL    HW1 1094   0.135   3.033   0.207 -2.5045 -0.5135 -3.0333
  365SOL    HW2 1095   0.210   2.983   0.353 -3.2230 -0.9039  2.3220
  366SOL     OW 1096   2.601   1.625   0.026  0.4230  0.3772  0.3251
  366SOL    HW1 1097   2.570   1.692   0.097 -1.5467  3.5733 -2.3570
  366SOL    HW2 1098   2.699   1.617   0.034 -0.3427  0.7713  1.2770
  367SOL     OW 1099   2.853   2.704   2.454 -0.0692  0.4046 -0.0817
  367SOL    HW1 1100   2.834   2.788   2.398 -1.8637 -0.2314 -0.3378
  367SOL    HW2 1101   2.940   2.664   2.420  0.0304 -2.2492 -0.6357
  368SOL     OW 1102   0.121   1.728   1.057 -0.0088  0.0029  0.3329
  368SOL    HW1 1103   0.026   1.758   1.092 -1.5248  0.5835  1.5575
  368SOL    HW2 1104   0.180   1.815   1.047  0.8294  0.5394  1.9956
  369SOL     OW 1105   0.870   0.068   0.367 -0.1728  0.0498  0.0882
  369SOL    HW1 1106   0.916   3.108   0.316 -1.5143 -2.5281  0.7937
  369SOL    HW2 1107   0.797   0.118   0.309 -3.4597 -1.6739 -0.6226
  370SOL     OW 1108   0.150   0.859   0.697  0.1892  0.0215  0.2097
  370SOL    HW1 1109   0.250   0.848   0.719 -0.6322 -1.1455  1.2858
  370SOL    HW2 1110   0.101   0.883   0.784  2.1163 -1.8906 -0.5553
  371SOL     OW 1111   1.853   2.876   0.685 -0.1517  0.2977  0.5093
  371SOL    HW1 1112   1.908   2.956   0.667 -2.5026 -1.9180 -1.7490
  371SOL    HW2 1113   1.896   2.793   0.642  1.7212 -3.1161 -2.1395
  372SOL     OW 1114   0.141   0.990   2.620  0.6972 -0.0727 -0.2476
  372SOL    HW1 1115   0.228   1.016   2.665 -1.5482 -1.5300  1.1034
  372SOL    HW2 1116   0.151   0.998   2.520 -0.6333  0.4126 -2.2170
  373SOL     OW 1117   2.761   1.862   0.724 -0.5549 -0.0695  0.0035
  373SOL    HW1 1118   2.801   1.953   0.720 -2.4474  2.0138  0.3708
  373SOL    HW2 1119   2.805   1.805   0.795 -1.7072  0.0017  0.5062
  374SOL     OW 1120   0.307   2.631   0.244 -0.4817  0.3554  0.2747
  374SOL    HW1 1121   0.286   2.600   0.152 -1.4786 -1.6378 -0.2510
  374SOL    HW2 1122   0.347   2.553   0.298  0.4382 -0.3758  0.4747
  375SOL     OW 1123   0.337   0.652   0.090 -0.8193 -0.4523  0.2358
  375SOL    HW1 1124   0.420   0.690   0.138 -0.2186  1.5366  2.1364
  375SOL    HW2 1125   0.369   0.607   0.004 -0.5856  0.4772 -3.0069
  376SOL     OW 1126   0.522   2.488   2.124  0.0808 -0.0989  0.0020
  376SOL    HW1 1127   0.514   2.538   2.037 -0.8095  2.2065  0.9212
  376SOL    HW2 1128   0.551   2.552   2.197  1.0911 -1.8523  0.1890
  377SOL     OW 1129   1.306   2.409   2.657 -0.2952 -0.0655 -0.3880
  377SOL    HW1 1130   1.319   2.509   2.635  0.8191  0.1129 -1.0474
  377SOL    HW2 1131   1.403   2.379   2.660  0.0400  3.2047  0.3415
  378SOL     OW 1132   1.141   0.867   0.648 -0.0148 -1.0570  0.4482
  378SOL    HW1 1133   1.064   0.936   0.669  1.7740 -2.0668  1.0978
  378SOL    HW2 1134   1.221   0.922   0.618 -2.2534 -1.1888 -0.5936
  379SOL     OW 1135   0.931   1.757   0.250  0.5160  0.1466 -0.2277
  379SOL    HW1 1136   0.948   1.809   0.337  0.5862  2.1382 -0.4995
  379SOL    HW2 1137   1.012   1.697   0.231  0.2365  3.0809 -2.8192
  380SOL     OW 1138   0.146   1.987   1.388 -0.8684 -0.1990 -0.0557
  380SOL    HW1 1139   0.057   1.963   1.431 -1.4855 -0.8281 -0.0004
  380SOL    HW2 1140   0.156   2.089   1.368 -0.1296 -0.2939 -1.0397
  381SOL     OW 1141   0.223   0.948   1.604  0.2787 -0.1969  0.0093
  381SOL    HW1 1142   0.169   0.998   1.673  0.0300 -0.1917 -1.1707
  381SOL    HW2 1143   0.309   0.913   1.641  0.1219 -0.6046 -0.0337
  382SOL     OW 1144   2.381   2.165   0.578 -0.1672 -0.1267 -1.0324
  382SOL    HW1 1145   2.311   2.235   0.609 -1.2064  0.5086  0.5448
  382SOL    HW2 1146   2.442   2.135   0.660  2.1599 -1.2711  1.6555
  383SOL     OW 1147   2.640   1.737   2.134 -0.5113 -0.3306 -0.0193
  383SOL    HW1 1148   2.609   1.835   2.148  1.7283 -0.0310  0.6241
  383SOL    HW2 1149   2.618   1.670   2.211  1.2729 -2.4080  1.6475
  384SOL     OW 1150   0.265   2.186   2.036  0.5737  0.1815  0.1299
  384SOL    HW1 1151   0.336   2.154   2.103  1.7574 -2.3590  3.8778
  384SOL    HW2 1152   0.294   2.173   1.939  2.0303 -0.6866 -0.1404
  385SOL     OW 1153   2.905   2.249   0.764 -0.6679 -0.4027 -0.7442
  385SOL    HW1 1154   2.847   2.294   0.694  0.3617 -3.9801  0.6666
  385SOL    HW2 1155   3.002   2.275   0.753  1.4838  0.3782  0.7283
  386SOL     OW 1156   1.915   0.848   0.759  0.2020 -0.2088 -0.0980
  386SOL    HW1 1157   1.868   0.922   0.809 -0.7448  0.0501 -1.6399
  386SOL    HW2 1158   1.890   0.842   0.659  1.4280 -0.8875  0.6575
  387SOL     OW 1159   0.404   0.921   1.934  0.1749 -0.0415  0.3940
  387SOL    HW1 1160   0.311   0.928   1.971  1.5311  0.4925 -1.5090
  387SOL    HW2 1161   0.473   0.960   1.995 -1.1225 -1.7169 -3.1147
  388SOL     OW 1162   2.262   1.028   2.504  0.7049 -0.7135  0.0493
  388SOL    HW1 1163   2.242   1.114   2.457  0.4740 -0.8224 -0.7345
  388SOL    HW2 1164   2.174   0.972   2.520  0.2543 -1.3120  1.7826
  389SOL     OW 1165   1.809   1.225   1.706  0.0876  0.4243  0.5112
  389SOL    HW1 1166   1.729   1.282   1.679  1.6008 -0.8410  0.4150
  389SOL    HW2 1167   1.895   1.279   1.698 -1.5691  0.1404 -0.8694
  390SOL     OW 1168   1.964   2.787   0.308  0.0128  0.6752 -0.4550
  390SOL    HW1 1169   2.017   2.873   0.303 -0.6775  1.3824  2.0414
  390SOL    HW2 1170   1.896   2.794   0.234  1.4961  1.7358  0.8506
  391SOL     OW 1171   2.049   2.191   1.426  0.0838 -0.5694 -0.3002
  391SOL    HW1 1172   2.106   2.281   1.418  1.7933  1.5780 -0.2242
  391SOL    HW2 1173   1.956   2.195   1.389  0.4808 -0.2498  0.2728
  392SOL     OW 1174   3.070   2.517   0.931 -0.5147  0.2589  0.6668
  392SOL    HW1 1175   2.998   2.471   0.982 -0.5688 -0.1116 -0.8391
  392SOL    HW2 1176   3.097   2.450   0.856 -0.4140  0.7112  2.8184
  393SOL     OW 1177   2.117   1.843   3.103 -0.3748  0.3276 -0.1873
  393SOL    HW1 1178   2.166   1.758   0.012  2.0934  0.4290 -0.2466
  393SOL    HW2 1179   2.135   1.858   3.001 -1.9320 -0.7812  1.1206
  394SOL     OW 1180   0.220   0.313   2.954  0.0073  0.3139 -0.5671
  394SOL    HW1 1181   0.161   0.375   3.014  0.3367  0.4519 -0.2525
  394SOL    HW2 1182   0.150   0.286   2.883 -0.0576  0.6592 -0.9901
  395SOL     OW 1183   1.172   1.203   1.256  0.2044 -0.5119  0.2908
  395SOL    HW1 1184   1.260   1.250   1.252  1.0769  1.3306 -3.4867
  395SOL    HW2 1185   1.137   1.182   1.162 -0.1219 -0.3918  1.0760
  396SOL     OW 1186   1.590   0.872   3.069 -0.0808  0.4372  0.1747
  396SOL    HW1 1187   1.584   0.970   3.039 -0.2111 -1.4993 -0.9149
  396SOL    HW2 1188   1.506   0.826   3.035  1.6586  0.7435 -0.2123
  397SOL     OW 1189   0.081   0.736   2.657 -0.2855 -0.3112 -0.3225
  397SOL    HW1 1190   3.114   0.694   2.612 -2.4761 -0.9905 -0.2085
  397SOL    HW2 1191   0.085   0.835   2.656 -2.6370 -1.9351  0.7627
  398SOL     OW 1192   0.841   0.322   3.112 -0.2758  0.2516  0.9300
  398SOL    HW1 1193   0.836   0.397   0.062  2.3501 -4.2260  2.1971
  398SOL    HW2 1194   0.887   0.239   0.032  0.2632  1.7023  1.1391
  399SOL     OW 1195   2.640   2.939   1.971 -0.1427  0.4249  0.4813
  399SOL    HW1 1196   2.662   2.991   1.886  1.2539  0.1358  0.1374
  399SOL    HW2 1197   2.713   2.869   1.984 -2.1089  2.5823  0.7861
  400SOL     OW 1198   0.249   1.768   2.065  0.2671  0.1390  0.4229
  400SOL    HW1 1199   0.173   1.833   2.092 -1.1046  1.3040  2.0166
  400SOL    HW2 1200   0.314   1.753   2.146 -0.6195  0.2637 -0.4636
  401SOL     OW 1201   0.689   0.380   2.712  0.2387 -0.4461  0.3681
  401SOL    HW1 1202   0.665   0.443   2.791  2.4027 -1.6571  2.4296
  401SOL    HW2 1203   0.764   0.318   2.752  2.1274 -0.5599  0.7677
  402SOL     OW 1204   0.373   2.086   1.796 -0.3179 -0.0649 -0.5065
  402SOL    HW1 1205   0.295   2.023   1.804  1.5032 -0.8757 -0.9459
  402SOL    HW2 1206   0.390   2.105   1.698 -0.2771 -0.8487  0.5431
  403SOL     OW 1207   0.688   1.015   1.497  0.4984  0.1636  0.1401
  403SOL    HW1 1208   0.734   0.929   1.519 -0.2857  1.2730 -0.2160
  403SOL    HW2 1209   0.673   1.064   1.582 -2.6135 -0.1257 -3.7364
  404SOL     OW 1210   2.787   2.361   1.605 -0.3478  0.3750 -0.2256
  404SOL    HW1 1211   2.780   2.449   1.556  0.2088 -1.9598  1.8230
  404SOL    HW2 1212   2.864   2.301   1.567  2.2368  1.3222 -1.6814
  405SOL     OW 1213   0.200   0.305   1.678  0.1247  0.1153 -0.0139
  405SOL    HW1 1214   0.193   0.279   1.581  0.6253  0.2801 -1.0279
  405SOL    HW2 1215   0.217   0.223   1.734 -1.5420  1.6135 -1.5498
  406SOL     OW 1216   1.835   2.471   0.028 -0.2923  0.5279 -0.1964
  406SOL    HW1 1217   1.883   2.420   0.105  2.2070 -1.0133  1.2252
  406SOL    HW2 1218   1.876   2.439   3.057  0.9810 -0.1071  0.0999
  407SOL     OW 1219   1.389   1.255   1.719 -0.0909  0.1886 -0.3314
  407SOL    HW1 1220   1.465   1.321   1.706 -0.3712  0.1277  4.4273
  407SOL    HW2 1221   1.322   1.265   1.645  0.4748  1.0129  3.2104
  408SOL     OW 1222   0.906   0.017   2.578 -0.0529  0.4506 -0.7709
  408SOL    HW1 1223   0.840   3.084   2.520  1.3778  0.1081  1.4899
  408SOL    HW2 1224   0.949   0.096   2.533 -1.1817 -2.3829  2.0847
  409SOL     OW 1225   2.981   2.594   0.512  0.3400 -0.6980  0.0482
  409SOL    HW1 1226   2.917   2.516   0.525  2.7175 -3.3753 -0.0895
  409SOL    HW2 1227   3.063   2.557   0.463  1.1995 -0.0565 -1.9190
  410SOL     OW 1228   2.553   1.564   0.470 -0.2793 -0.3021 -0.1256
  410SOL    HW1 1229   2.507   1.615   0.546  0.1011 -4.6200 -0.5720
  410SOL    HW2 1230   2.654   1.572   0.470 -0.8341  0.2933  0.0680
  411SOL     OW 1231   3.029   0.639   0.977  0.0127  0.2732 -0.5529
  411SOL    HW1 1232   3.092   0.593   0.910  2.4171  0.2162  1.2434
  411SOL    HW2 1233   3.082   0.674   1.059  1.6267  0.4416 -0.1711
  412SOL     OW 1234   1.555   0.625   0.830 -0.6428 -0.2469  0.0036
  412SOL    HW1 1235   1.618   0.671   0.893  0.6172 -0.2386 -0.3449
  412SOL    HW2 1236   1.469   0.604   0.884 -0.9926 -0.6467  1.6301
  413SOL     OW 1237   0.855   0.439   1.143 -0.3914  0.2240 -0.3672
  413SOL    HW1 1238   0.892   0.345   1.174  1.9481 -2.9293  0.1435
  413SOL    HW2 1239   0.841   0.508   1.215 -0.0339  0.5492  0.3393
  414SOL     OW 1240   0.180   1.601   3.072  0.4078 -0.5054 -0.2462
  414SOL    HW1 1241   0.086   1.620   3.037 -2.0217 -1.0990 -0.3102
  414SOL    HW2 1242   0.231   1.551   3.001 -0.8200  0.3627  0.4937
  415SOL     OW 1243   0.467   2.187   3.093 -0.6203  0.4098  0.5823
  415SOL    HW1 1244   0.549   2.126   3.080  0.0865 -0.3828  0.0890
  415SOL    HW2 1245   0.453   2.237   3.005  0.7004  0.4159  1.4968
  416SOL     OW 1246   1.616   0.950   0.511  0.0871 -0.2843 -0.8397
  416SOL    HW1 1247   1.622   0.852   0.534 -0.5407  2.6902 -0.6176
  416SOL    HW2 1248   1.638   0.966   0.413 -0.9320 -1.6155 -1.6704
  417SOL     OW 1249   0.150   1.035   0.352  0.1717  0.1930 -0.3676
  417SOL    HW1 1250   0.171   1.047   0.257 -0.6707 -2.7592  1.9120
  417SOL    HW2 1251   0.072   0.972   0.360  3.5897  0.5712  3.2289
  418SOL     OW 1252   2.649   1.398   2.551  0.0291 -0.2701 -0.0596
  418SOL    HW1 1253   2.664   1.449   2.462 -0.1777  2.2000 -0.9990
  418SOL    HW2 1254   2.672   1.298   2.530 -0.9562  3.3129 -1.4792
  419SOL     OW 1255   0.407   0.508   2.997 -0.1823  0.2062  0.1192
  419SOL    HW1 1256   0.370   0.415   2.985  1.2888  2.1674  2.1550
  419SOL    HW2 1257   0.347   0.567   2.940  1.6593 -1.4168  0.0247
  420SOL     OW 1258   0.493   1.419   0.839  0.6203  0.7496 -0.5064
  420SOL    HW1 1259   0.476   1.433   0.944 -0.8756  2.0282 -0.8379
  420SOL    HW2 1260   0.403   1.380   0.803 -1.9344 -1.8383  1.1461
  421SOL     OW 1261   0.519   2.288   0.744 -0.0146 -0.0540 -0.2903
  421SOL    HW1 1262   0.600   2.344   0.697  3.4478  1.6119 -3.1616
  421SOL    HW2 1263   0.486   2.212   0.682  3.3800  0.0238 -0.5081
  422SOL     OW 1264   2.871   0.802   1.294  0.4456 -0.0412  0.1521
  422SOL    HW1 1265   2.953   0.865   1.309  2.1132  1.8200  1.2561
  422SOL    HW2 1266   2.908   0.710   1.292  0.8340 -0.3483  1.2067
  423SOL     OW 1267   1.405   1.424   1.366 -0.7503 -0.7412 -0.2615
  423SOL    HW1 1268   1.461   1.356   1.318  0.3484  0.1917 -0.8374
  423SOL    HW2 1269   1.337   1.381   1.431  0.3924 -3.4274  0.5073
  424SOL     OW 1270   1.872   1.092   0.356 -0.5824 -0.2780 -0.3904
  424SOL    HW1 1271   1.841   1.183   0.383  2.3177 -2.6986 -1.6991
  424SOL    HW2 1272   1.919   1.095   0.263 -1.5600  0.5492  0.3555
  425SOL     OW 1273   0.003   0.043   1.898 -0.4402  0.1427  0.1453
  425SOL    HW1 1274   3.116   0.088   1.987  2.1288  0.5794  0.7625
  425SOL    HW2 1275   0.096   0.051   1.859 -2.0764 -0.4719  0.7625
  426SOL     OW 1276   2.508   2.919   2.369 -0.1155  0.6432  0.4192
  426SOL    HW1 1277   2.483   2.842   2.435 -1.3546  1.7433  2.3342
  426SOL    HW2 1278   2.446   2.993   2.387  0.7899 -2.1382 -0.4711
  427SOL     OW 1279   1.196   0.797   2.341 -0.1031 -0.3188 -0.5322
  427SOL    HW1 1280   1.200   0.711   2.288 -0.6058  0.6944  1.8579
  427SOL    HW2 1281   1.292   0.840   2.351  4.4208  0.5145 -0.9329
  428SOL     OW 1282   2.224   1.185   2.189 -0.1380 -0.9039  0.1717
  428SOL    HW1 1283   2.227   1.224   2.282  1.9817  2.2783 -0.8708
  428SOL    HW2 1284   2.274   1.099   2.180  0.3250  0.7232  1.5214
  429SOL     OW 1285   2.712   0.103   0.590 -0.1392 -0.3724 -0.1849
  429SOL    HW1 1286   2.696   0.101   0.491 -0.8067 -1.9108 -2.1752
  429SOL    HW2 1287   2.772   0.176   0.627  0.2844  0.7556 -0.0349
  430SOL     OW 1288   1.995   1.348   2.125 -0.0876 -0.1384 -0.0977
  430SOL    HW1 1289   2.076   1.291   2.150  0.9234 -0.1648 -2.0670
  430SOL    HW2 1290   1.936   1.299   2.062  1.3529  2.9204  0.2891
  431SOL     OW 1291   3.074   2.035   1.005 -0.0806 -0.1696 -0.6722
  431SOL    HW1 1292   2.991   2.048   0.949  0.4874 -2.0858  0.1561
  431SOL    HW2 1293   3.036   1.989   1.085 -3.3776 -1.3702  2.2909
  432SOL     OW 1294   1.643   3.107   2.199  0.4189  0.1508  0.9931
  432SOL    HW1 1295   1.594   0.076   2.172  0.2738  0.2206  0.4478
  432SOL    HW2 1296   1.733   3.104   2.152  0.7848 -0.7875  2.3748
  433SOL     OW 1297   1.397   3.081   1.900 -0.1977 -0.0195  0.2961
  433SOL    HW1 1298   1.325   3.019   1.869  2.9203 -0.3951  1.0186
  433SOL    HW2 1299   1.490   3.037   1.887  0.1217 -0.2065  0.1113
  434SOL     OW 1300   0.526   2.656   2.378  0.2529 -0.0429 -0.5091
  434SOL    HW1 1301   0.535   2.757   2.389  2.1982 -0.2686 -0.0216
  434SOL    HW2 1302   0.434   2.620   2.392  1.6444 -0.9407 -2.1439
  435SOL     OW 1303   0.181   2.065   0.391 -0.3226  0.5080 -0.0203
  435SOL    HW1 1304   0.217   2.028   0.301 -1.3850 -0.8085  2.1453
  435SOL    HW2 1305   0.113   1.995   0.422 -0.6183 -0.5213  0.0419
  436SOL     OW 1306   0.926   0.958   1.838  0.0627  0.3670 -0.3445
  436SOL    HW1 1307   0.960   1.044   1.793  2.9754  1.3321  3.7408
  436SOL    HW2 1308   0.899   0.892   1.768  0.0588  1.8548  3.0769
  437SOL     OW 1309   0.768   0.233   2.288 -0.3436  0.3515  0.0366
  437SOL    HW1 1310   0.851   0.234   2.355  1.3400  1.1567  0.8085
  437SOL    HW2 1311   0.685   0.228   2.345  1.0963  0.4999 -2.9251
  438SOL     OW 1312   0.514   1.821   1.640 -0.5513 -0.4317  0.0875
  438SOL    HW1 1313   0.548   1.906   1.683  0.9110 -1.7080 -0.3027
  438SOL    HW2 1314   0.474   1.770   1.718  1.8562  1.7643  0.6774
  439SOL     OW 1315   1.829   0.821   0.061 -0.1064  0.3591  0.0799
  439SOL    HW1 1316   1.739   0.854   0.029  1.1438  2.2665 -0.0581
  439SOL    HW2 1317   1.899   0.895   0.064  1.3912  1.9019  0.5818
  440SOL     OW 1318   0.742   0.613   0.579  0.3866  0.2079  0.1638
  440SOL    HW1 1319   0.806   0.636   0.651 -0.5969 -0.8041 -0.0773
  440SOL    HW2 1320   0.657   0.668   0.578 -1.7952  0.0777 -0.3600
  441SOL     OW 1321   0.961   2.475   1.613  0.2484  0.3557 -0.5222
  441SOL    HW1 1322   0.975   2.433   1.707  2.4763  1.9329  2.0402
  441SOL    HW2 1323   0.932   2.399   1.559  1.9194  0.5286 -0.5713
  442SOL     OW 1324   2.726   1.837   0.458  0.2787  0.5651  0.7909
  442SOL    HW1 1325   2.659   1.903   0.419 -0.8231 -3.6704 -2.9842
  442SOL    HW2 1326   2.747   1.844   0.562 -0.4783  2.3687  4.1246
  443SOL     OW 1327   2.909   2.066   2.712 -0.5808  0.5567  0.0202
  443SOL    HW1 1328   2.877   1.970   2.719 -0.6156  0.6117 -0.6414
  443SOL    HW2 1329   3.012   2.061   2.730 -0.0060  0.1366 -1.6323
  444SOL     OW 1330   1.406   1.150   0.196  0.2011  0.0083 -0.1887
  444SOL    HW1 1331   1.431   1.054   0.218  0.3489  2.6332 -1.0530
  444SOL    HW2 1332   1.336   1.193   0.263  0.4323  1.5158 -1.5040
  445SOL     OW 1333   2.533   2.613   1.749 -0.0652 -0.0565 -0.4175
  445SOL    HW1 1334   2.631   2.633   1.726 -0.2940  1.4176  2.3193
  445SOL    HW2 1335   2.516   2.572   1.842 -3.6893  1.9353 -1.4278
  446SOL     OW 1336   2.974   1.161   0.691 -0.3166 -0.7145  0.6660
  446SOL    HW1 1337   2.991   1.069   0.656 -3.7341  0.1277  0.4022
  446SOL    HW2 1338   2.875   1.177   0.713  1.0750  0.3567  1.4838
  447SOL     OW 1339   1.025   2.238   1.174 -0.0335  0.5499 -0.0922
  447SOL    HW1 1340   0.953   2.199   1.116  2.1753 -0.7908  0.3110
  447SOL    HW2 1341   1.012   2.336   1.178  2.3956  0.2699 -0.3709
  448SOL     OW 1342   1.372   1.545   1.683  0.0659 -0.3125 -0.3080
  448SOL    HW1 1343   1.391   1.608   1.769  1.3924  2.4173  3.4403
  448SOL    HW2 1344   1.274   1.516   1.693 -1.6162 -2.1627  0.2310
  449SOL     OW 1345   3.101   2.243   2.239  0.4546  0.0019 -0.1791
  449SOL    HW1 1346   3.063   2.257   2.333  0.5335  2.5370  2.9875
  449SOL    HW2 1347   0.077   2.278   2.226 -0.4959 -0.6295 -0.1710
  450SOL     OW 1348   2.956   1.828   2.185  0.3798 -0.8582 -0.1788
  450SOL    HW1 1349   3.039   1.893   2.174 -0.5608  3.3992 -1.8495
  450SOL    HW2 1350   2.901   1.808   2.101 -0.7918  0.0152 -3.6031
  451SOL     OW 1351   2.254   0.759   1.359 -0.7953 -0.3011  0.5348
  451SOL    HW1 1352   2.192   0.819   1.413  0.7251  0.6879 -1.7893
  451SOL    HW2 1353   2.353   0.784   1.375 -0.5644  2.6282  0.4438
  452SOL     OW 1354   0.829   1.227   0.871 -0.4001  0.6990 -0.7420
  452SOL    HW1 1355   0.862   1.154   0.812 -1.0576  0.9300 -0.4238
  452SOL    HW2 1356   0.823   1.312   0.814 -1.1144 -0.9876  0.9018
  453SOL     OW 1357   1.348   2.119   0.682  0.3267 -0.0250 -0.4719
  453SOL    HW1 1358   1.371   2.162   0.772  0.1566 -0.9129  0.6920
  453SOL    HW2 1359   1.400   2.169   0.614 -2.5444  1.4606 -2.3585
  454SOL     OW 1360   0.177   1.490   0.214  0.3383 -0.0832  0.0606
  454SOL    HW1 1361   0.244   1.508   0.292 -0.3610  1.3921  1.6271
  454SOL    HW2 1362   0.199   1.547   0.131 -2.3037  2.9748  1.3078
  455SOL     OW 1363   1.053   1.121   0.230  0.3125  0.2274 -0.2828
  455SOL    HW1 1364   1.062   1.020   0.230 -2.7613  3.5030 -0.5125
  455SOL    HW2 1365   1.121   1.156   0.296 -2.4458 -0.9708  0.6879
  456SOL     OW 1366   1.736   2.736   0.976  0.1056 -0.1873  0.1098
  456SOL    HW1 1367   1.754   2.791   0.893  1.9483 -0.4550  0.9508
  456SOL    HW2 1368   1.722   2.638   0.951  0.6286  1.8496  0.1993
  457SOL     OW 1369   1.550   2.898   0.077  0.4286 -0.3858 -0.5231
  457SOL    HW1 1370   1.581   2.995   0.069 -1.8416 -0.9133  0.3482
  457SOL    HW2 1371   1.470   2.882   0.017 -1.0073  0.3005  0.1164
  458SOL     OW 1372   2.372   0.638   0.398 -0.3982  0.2757 -0.2960
  458SOL    HW1 1373   2.289   0.680   0.445  0.5962  0.5693 -1.0557
  458SOL    HW2 1374   2.458   0.681   0.424 -0.1271 -1.9408 -0.6829
  459SOL     OW 1375   2.524   0.455   2.454  0.1479  0.0393 -0.2467
  459SOL    HW1 1376   2.434   0.497   2.473  0.5868 -1.4177  2.7013
  459SOL    HW2 1377   2.579   0.513   2.391 -1.2662  0.9134  1.6359
  460SOL     OW 1378   2.847   0.557   2.725  0.6865 -0.0238  0.1516
  460SOL    HW1 1379   2.870   0.510   2.812  4.0200 -0.4960 -2.4004
  460SOL    HW2 1380   2.755   0.608   2.745 -1.0009  1.1043  1.4266
  461SOL     OW 1381   0.029   2.303   0.708 -0.3933 -0.4029 -0.3508
  461SOL    HW1 1382   0.081   2.257   0.786 -0.3117  0.6097  1.8606
  461SOL    HW2 1383   0.092   2.316   0.627  2.6739  0.7944 -1.6273
  462SOL     OW 1384   2.774   2.587   1.457 -0.1684  0.4713  0.0918
  462SOL    HW1 1385   2.733   2.603   1.365  0.2233 -1.2107 -0.4296
  462SOL    HW2 1386   2.871   2.612   1.455  2.7269 -1.2187 -1.4750
  463SOL     OW 1387   2.375   1.895   2.672 -0.7365 -0.2290  0.4928
  463SOL    HW1 1388   2.466   1.917   2.627  0.4007 -0.7671 -0.9459
  463SOL    HW2 1389   2.360   1.795   2.680 -0.6062  1.8273 -0.1588
  464SOL     OW 1390   0.723   2.617   1.610 -0.5027  0.1235 -0.6484
  464SOL    HW1 1391   0.819   2.574   1.591  2.5845 -0.3287 -3.0980
  464SOL    HW2 1392   0.737   2.688   1.685  1.5730 -3.0137  2.3538
  465SOL     OW 1393   0.977   2.908   1.681 -0.2983  0.1401  0.2443
  465SOL    HW1 1394   1.017   2.882   1.593  2.1983 -1.6530 -3.2126
  465SOL    HW2 1395   0.997   3.001   1.710  2.6769 -2.1656  0.4010
  466SOL     OW 1396   1.528   2.656   2.094  0.2466  0.1750 -0.5654
  466SOL    HW1 1397   1.617   2.700   2.074 -5.5602  0.7572  1.7861
  466SOL    HW2 1398   1.449   2.726   2.097 -1.0862  1.9660 -0.9083
  467SOL     OW 1399   1.065   2.073   1.383 -0.1798  0.0158  0.1799
  467SOL    HW1 1400   1.004   1.993   1.374  0.8950  2.0301  1.3164
  467SOL    HW2 1401   1.039   2.144   1.315  1.2316 -1.7117  2.7160
  468SOL     OW 1402   2.815   1.815   2.417  0.9480  0.2586  0.0958
  468SOL    HW1 1403   2.837   1.821   2.318 -0.5421  0.7584 -3.8443
  468SOL    HW2 1404   2.894   1.765   2.456  1.4014  0.8321 -1.4805
  469SOL     OW 1405   0.737   1.896   0.645  0.4920  0.4052  0.4630
  469SOL    HW1 1406   0.788   1.953   0.715 -2.3181 -1.6070 -2.8769
  469SOL    HW2 1407   0.755   1.798   0.642 -0.6573  1.8900  0.3243
  470SOL     OW 1408   2.038   1.355   1.674 -0.3174  0.2702 -0.4213
  470SOL    HW1 1409   1.985   1.415   1.610  0.7430  0.2728  0.4037
  470SOL    HW2 1410   2.102   1.400   1.741 -1.4839  1.0872 -0.1559
  471SOL     OW 1411   0.598   2.467   0.034 -0.2373  0.5085 -0.4452
  471SOL    HW1 1412   0.543   2.510   3.076 -0.8712  0.1400  0.4780
  471SOL    HW2 1413   0.537   2.410   0.091  1.5851  0.2533  0.6143
  472SOL     OW 1414   0.013   2.647   1.974  0.4498  0.3177  0.0835
  472SOL    HW1 1415   0.054   2.583   1.909 -0.4163  2.4540  1.6369
  472SOL    HW2 1416   0.012   2.740   1.941  0.5357  0.0178  1.0018
  473SOL     OW 1417   0.834   2.616   0.394  0.1685  0.6047  0.5148
  473SOL    HW1 1418   0.853   2.521   0.416  0.0887  2.0374  1.6079
  473SOL    HW2 1419   0.802   2.626   0.298 -0.3801  0.4699  1.9631
  474SOL     OW 1420   2.658   2.683   0.996  0.5638 -0.1780  0.0114
  474SOL    HW1 1421   2.576   2.637   1.036  0.8777  2.1233 -3.3580
  474SOL    HW2 1422   2.621   2.724   0.911  2.2198  1.2524  1.0785
  475SOL     OW 1423   2.203   2.983   1.764  0.0874 -0.1555  0.6285
  475SOL    HW1 1424   2.258   2.984   1.677  0.3241 -0.2583  0.2435
  475SOL    HW2 1425   2.106   2.968   1.736 -2.9447  0.3685 -0.2303
  476SOL     OW 1426   0.598   1.134   0.465 -0.4992  0.3401  0.3053
  476SOL    HW1 1427   0.699   1.158   0.451  0.4906  1.4240 -0.5503
  476SOL    HW2 1428   0.585   1.103   0.563  1.2298  2.2537  1.8065
  477SOL     OW 1429   0.340   1.952   0.944  0.1632 -0.4399  0.2593
  477SOL    HW1 1430   0.274   2.019   0.915  3.0483 -2.1346 -0.4823
  477SOL    HW2 1431   0.396   1.920   0.864  1.5513 -0.1647  2.5506
  478SOL     OW 1432   0.271   2.613   2.431 -0.5764  0.5191 -1.2935
  478SOL    HW1 1433   0.182   2.640   2.386  1.7172 -0.7598 -2.6535
  478SOL    HW2 1434   0.252   2.542   2.502 -2.6058  1.3720  2.5061
  479SOL     OW 1435   0.181   0.288   1.400  0.7428 -0.0536 -0.1551
  479SOL    HW1 1436   0.275   0.332   1.375  0.4651  0.1223  0.3185
  479SOL    HW2 1437   0.102   0.342   1.361 -0.5003  1.6604 -0.8859
  480SOL     OW 1438   2.916   2.542   3.062 -0.1937 -0.0224  0.3408
  480SOL    HW1 1439   2.926   2.442   3.034 -0.4588 -3.3839 -1.3088
  480SOL    HW2 1440   2.823   2.557   3.097  2.7239 -1.9612  0.0006
  481SOL     OW 1441   2.348   2.092   1.690 -0.3130 -0.1111 -0.0547
  481SOL    HW1 1442   2.325   2.029   1.764 -0.2391 -0.3519 -2.8386
  481SOL    HW2 1443   2.299   2.061   1.605  0.4847  1.0042  2.3532
  482SOL     OW 1444   1.835   2.259   2.621 -0.2504 -0.2973 -0.2709
  482SOL    HW1 1445   1.802   2.164   2.616 -0.7761  0.8188  0.3963
  482SOL    HW2 1446   1.861   2.296   2.530 -1.9821  4.1059  1.4448
  483SOL     OW 1447   0.698   1.715   2.309  0.7389 -0.1990  0.3068
  483SOL    HW1 1448   0.684   1.645   2.236  0.2241  0.6758  3.0816
  483SOL    HW2 1449   0.791   1.754   2.302 -1.7502 -1.9320 -1.3716
  484SOL     OW 1450   3.081   0.398   1.256 -0.0361 -0.2844  0.1081
  484SOL    HW1 1451   3.075   0.351   1.169  2.3574 -2.8715  1.1286
  484SOL    HW2 1452   2.988   0.435   1.282  0.3854 -1.7066  1.1455
  485SOL     OW 1453   2.083   1.103   0.574  0.0224  0.3474  0.1302
  485SOL    HW1 1454   2.088   1.116   0.471 -1.3360  0.1664 -2.0243
  485SOL    HW2 1455   1.985   1.083   0.606 -2.6064  0.0674  0.0754
  486SOL     OW 1456   1.425   0.207   2.177 -0.6023  0.2491 -0.3828
  486SOL    HW1 1457   1.457   0.227   2.087  2.6120  0.4731 -0.0073
  486SOL    HW2 1458   1.486   0.250   2.249  0.9129  1.6607  1.7218
  487SOL     OW 1459   0.856   1.901   1.343 -0.2982 -0.2058  0.2113
  487SOL    HW1 1460   0.808   1.864   1.422 -0.6827  0.2078 -1.0622
  487SOL    HW2 1461   0.912   1.826   1.306  0.6696  2.3562 -3.0518
  488SOL     OW 1462   2.352   1.360   2.927  0.7371 -0.2419  0.1591
  488SOL    HW1 1463   2.403   1.439   2.894  1.0091  0.9369 -0.7106
  488SOL    HW2 1464   2.387   1.334   3.017  0.1310  0.4230 -0.2060
  489SOL     OW 1465   2.333   3.081   0.465 -0.2765  0.0561 -0.1521
  489SOL    HW1 1466   2.315   3.062   0.565  3.8091 -0.4007 -0.7321
  489SOL    HW2 1467   2.306   0.057   0.441  1.6377 -0.3003  0.1085
  490SOL     OW 1468   1.152   2.504   0.147  0.0726  0.5009 -0.6984
  490SOL    HW1 1469   1.211   2.489   0.065 -0.1485 -0.5559  0.3739
  490SOL    HW2 1470   1.192   2.562   0.216  1.8413  0.0482 -0.6203
  491SOL     OW 1471   1.061   1.110   1.025  0.6344  0.2167  0.3822
  491SOL    HW1 1472   0.964   1.090   1.047  3.4260  0.4831  3.5762
  491SOL    HW2 1473   1.057   1.194   0.972  0.0153 -1.0387  2.5957
  492SOL     OW 1474   1.205   0.124   2.873 -0.1791  0.1536  0.5319
  492SOL    HW1 1475   1.305   0.126   2.851  0.6992 -2.5332 -0.4055
  492SOL    HW2 1476   1.159   0.214   2.865  2.6043 -2.1952  0.9133
  493SOL     OW 1477   1.932   2.084   0.057  0.0902 -0.2961  0.4026
  493SOL    HW1 1478   1.952   2.169   0.112 -1.8336  1.6262 -0.0811
  493SOL    HW2 1479   2.016   2.028   0.043 -0.1792 -0.5920  0.3132
  494SOL     OW 1480   0.455   1.329   0.326  0.1578 -0.4811  0.3078
  494SOL    HW1 1481   0.451   1.428   0.328  5.6415  0.8449 -1.1963
  494SOL    HW2 1482   0.518   1.292   0.398 -0.5567  1.6731 -1.4559
  495SOL     OW 1483   3.014   2.722   0.733 -0.3545  0.2741 -0.1412
  495SOL    HW1 1484   3.034   2.656   0.808 -1.2731 -4.1810  3.0857
  495SOL    HW2 1485   2.992   2.676   0.643 -0.6057  0.2069 -1.7807
  496SOL     OW 1486   2.697   0.018   1.776  0.2445  0.4257  0.5531
  496SOL    HW1 1487   2.647   0.006   1.685 -2.4531  0.3224 -3.5595
  496SOL    HW2 1488   2.683   0.107   1.824 -0.4766  0.1998  0.6465
  497SOL     OW 1489   2.223   1.317   2.447 -0.1683  0.1380  0.4268
  497SOL    HW1 1490   2.260   1.359   2.528 -0.9961 -0.5184 -1.3123
  497SOL    HW2 1491   2.123   1.333   2.451  0.0844 -0.8988 -0.8764
  498SOL     OW 1492   0.810   2.171   1.030  0.1054 -0.6005 -0.1997
  498SOL    HW1 1493   0.729   2.237   1.035 -1.8183  1.7594  0.8897
  498SOL    HW2 1494   0.765   2.076   1.025 -0.8057 -2.6086 -2.0669
  499SOL     OW 1495   0.824   2.255   1.495  0.1002 -0.4050  0.0592
  499SOL    HW1 1496   0.808   2.170   1.548 -0.1294 -0.1798  1.3389
  499SOL    HW2 1497   0.880   2.237   1.414  3.0198 -1.1452 -0.4959
  500SOL     OW 1498   0.927   1.949   0.044 -0.4614 -0.0020  0.1197
  500SOL    HW1 1499   0.944   1.894   0.130  1.4860  1.1389  0.7647
  500SOL    HW2 1500   0.966   2.042   0.053 -0.9085 -0.1222  2.2622
  501SOL     OW 1501   2.588   2.807   1.294 -0.1799  0.2694  0.1316
  501SOL    HW1 1502   2.494   2.828   1.250 -1.7917  0.5400 -6.0824
  501SOL    HW2 1503   2.672   2.816   1.231  1.4019  1.6312  0.3270
  502SOL     OW 1504   3.013   0.361   1.775 -0.5094  0.1006  0.0529
  502SOL    HW1 1505   3.101   0.351   1.729  1.0236  2.8935 -0.8948
  502SOL    HW2 1506   2.942   0.381   1.707  2.0658 -1.2194  1.8874
  503SOL     OW 1507   2.214   0.978   1.937 -0.7266  0.4378  0.3954
  503SOL    HW1 1508   2.303   0.920   1.935  1.3067 -0.1639  0.1735
  503SOL    HW2 1509   2.224   1.069   1.892 -0.5870 -0.3486  1.8494
  504SOL     OW 1510   1.239   0.700   1.756  0.4205 -0.2610 -0.1155
  504SOL    HW1 1511   1.332   0.662   1.740 -0.9344 -0.6290 -0.9302
  504SOL    HW2 1512   1.235   0.754   1.844 -1.6335  1.7569  0.9553
  505SOL     OW 1513   0.771   3.038   2.324  0.3412  0.3243  0.1825
  505SOL    HW1 1514   0.862   2.999   2.300 -0.4125  0.0631  1.6165
  505SOL    HW2 1515   0.735   3.081   2.241 -2.1975 -1.4010 -1.8122
  506SOL     OW 1516   0.146   0.486   0.885  0.6572 -0.1960 -0.6669
  506SOL    HW1 1517   0.219   0.443   0.825 -3.2598  0.8214  0.0586
  506SOL    HW2 1518   0.115   0.423   0.956 -1.7221 -1.8810 -1.0362
  507SOL     OW 1519   1.531   0.237   3.100 -0.2510  0.1773  0.8019
  507SOL    HW1 1520   1.580   0.314   0.019 -0.5867 -2.2053 -0.1973
  507SOL    HW2 1521   1.558   0.158   0.041 -0.3043  1.9172 -0.7452
  508SOL     OW 1522   1.617   0.300   2.352  0.5268 -0.2880  0.0733
  508SOL    HW1 1523   1.565   0.387   2.361  0.2729 -0.4879 -1.8655
  508SOL    HW2 1524   1.634   0.267   2.444  2.6833  2.3810 -0.9924
  509SOL     OW 1525   0.743   1.327   2.294  0.4998 -0.0957  0.1357
  509SOL    HW1 1526   0.826   1.371   2.257 -4.8608 -0.4439  0.4303
  509SOL    HW2 1527   0.761   1.226   2.310  0.6681  2.3049 -0.3241
  510SOL     OW 1528   3.021   0.913   0.594  0.4972  0.0327 -0.4963
  510SOL    HW1 1529   2.973   0.859   0.670 -1.1876 -1.5806 -0.3483
  510SOL    HW2 1530   0.004   0.903   0.608  0.9678 -1.9829 -0.9303
  511SOL     OW 1531   1.833   2.006   1.111  0.4142  0.0341 -0.2698
  511SOL    HW1 1532   1.843   2.060   1.195  0.9681 -1.6094 -3.7230
  511SOL    HW2 1533   1.915   2.001   1.052 -0.5661  0.2201 -0.4650
  512SOL     OW 1534   0.075   1.613   0.606 -0.0977  0.1728  0.0750
  512SOL    HW1 1535   0.082   1.618   0.705  0.4034 -1.2017 -0.5940
  512SOL    HW2 1536   0.022   1.532   0.579 -1.1426 -1.3332 -1.2750
  513SOL     OW 1537   0.177   2.326   0.499 -0.5088  0.3327  0.0317
  513SOL    HW1 1538   0.201   2.234   0.451 -1.8130 -0.8363  0.1221
  513SOL    HW2 1539   0.137   2.391   0.426  1.0696  2.7528 -1.5821
  514SOL     OW 1540   2.609   1.959   2.553 -1.0844  0.1494 -0.0378
  514SOL    HW1 1541   2.604   2.058   2.539  1.2189 -0.7152  0.6890
  514SOL    HW2 1542   2.677   1.917   2.488  0.6860 -1.0086 -0.5211
  515SOL     OW 1543   2.217   1.286   0.339 -0.2205  0.4440  0.1179
  515SOL    HW1 1544   2.247   1.257   0.245  1.0562  1.4689  3.6396
  515SOL    HW2 1545   2.293   1.284   0.401 -3.9160  0.4343 -0.5639
  516SOL     OW 1546   2.009   0.010   0.679  0.2162 -0.0789  0.6745
  516SOL    HW1 1547   1.967   0.096   0.646 -4.9097 -0.2767 -1.6973
  516SOL    HW2 1548   2.110   0.004   0.680  0.3720 -1.0357  1.9197
  517SOL     OW 1549   1.175   2.095   2.929  0.6263  0.1518  0.1801
  517SOL    HW1 1550   1.185   2.106   3.030 -0.4229  2.8346  2.5201
  517SOL    HW2 1551   1.141   2.002   2.904  0.4191 -0.3751 -0.9812
  518SOL     OW 1552   0.748   0.495   1.923  0.0386 -0.3267  0.3165
  518SOL    HW1 1553   0.796   0.444   2.000  0.2650  0.3625 -1.0221
  518SOL    HW2 1554   0.774   0.595   1.931  2.0181  2.3936 -0.6791
  519SOL     OW 1555   2.857   1.292   0.226 -0.2052  0.0887  0.0983
  519SOL    HW1 1556   2.901   1.343   0.303 -1.2829 -0.4505 -2.7517
  519SOL    HW2 1557   2.914   1.206   0.213  1.1885  1.2808  2.3936
  520SOL     OW 1558   2.608   2.056   1.652  0.7994  0.2575  0.3008
  520SOL    HW1 1559   2.515   2.096   1.662  0.6006  1.2228  1.1328
  520SOL    HW2 1560   2.666   2.085   1.727 -0.5981 -2.5999 -4.6899
  521SOL     OW 1561   0.914   2.717   2.330  0.1332 -0.2641  0.3067
  521SOL    HW1 1562   0.995   2.711   2.387  1.3856 -2.0790  0.5516
  521SOL    HW2 1563   0.843   2.652   2.366  2.1637  1.8494 -0.6676
  522SOL     OW 1564   1.856   0.239   2.229 -0.2508 -0.3215 -0.1763
  522SOL    HW1 1565   1.907   0.177   2.290 -2.4153  0.9426 -0.0972
  522SOL    HW2 1566   1.766   0.266   2.269  1.5933  0.9407  0.3233
  523SOL     OW 1567   1.611   1.844   1.119 -0.3644 -0.4884  0.4768
  523SOL    HW1 1568   1.691   1.909   1.136  2.0801  1.6153 -0.0819
  523SOL    HW2 1569   1.619   1.764   1.184  0.6368 -1.2470 -2.0559
  524SOL     OW 1570   0.936   2.364   0.431 -0.2183 -0.5038  0.1072
  524SOL    HW1 1571   1.023   2.332   0.406 -4.2442  0.7319  1.7502
  524SOL    HW2 1572   0.944   2.388   0.530 -0.0080  0.5547 -0.9884
  525SOL     OW 1573   2.890   0.403   0.270 -0.1385  0.4632 -0.0241
  525SOL    HW1 1574   2.840   0.437   0.189  2.1957  0.4011 -2.8421
  525SOL    HW2 1575   2.973   0.343   0.243  1.9756 -1.1040 -1.1534
  526SOL     OW 1576   0.818   0.021   0.612 -0.1284 -0.5744 -0.3304
  526SOL    HW1 1577   0.740   3.077   0.616  2.5124 -0.6572 -0.0358
  526SOL    HW2 1578   0.833   0.061   0.520 -1.1833  0.9790  0.5543
  527SOL     OW 1579   2.480   1.940   0.789  0.2333  0.1393  0.2964
  527SOL    HW1 1580   2.549   1.871   0.775 -1.1755  0.0948 -0.8834
  527SOL    HW2 1581   2.510   2.025   0.834  0.3408  1.0570  0.2395
  528SOL     OW 1582   3.032   0.539   2.135 -0.1536  0.2802 -0.2917
  528SOL    HW1 1583   3.020   0.474   2.210 -1.8323  1.2651  0.5888
  528SOL    HW2 1584   3.104   0.515   2.070 -0.5445  0.3835  0.5534
  529SOL     OW 1585   1.166   1.670   2.484  0.1080 -0.2428 -0.3537
  529SOL    HW1 1586   1.259   1.639   2.464  0.2638 -0.2933 -2.1241
  529SOL    HW2 1587   1.166   1.731   2.569 -0.5614 -0.9219 -1.7287
  530SOL     OW 1588   1.688   1.195   2.324 -0.1490 -0.1063 -0.2686
  530SOL    HW1 1589   1.607   1.227   2.270 -3.3223  2.6276 -0.6052
  530SOL    HW2 1590   1.726   1.112   2.280  1.2868  0.8914 -1.4410
  531SOL     OW 1591   0.698   1.820   2.587 -0.2287  0.0104 -0.0720
  531SOL    HW1 1592   0.710   1.784   2.490  0.2904  0.6742 -0.2883
  531SOL    HW2 1593   0.626   1.765   2.634 -1.7406 -3.7215 -2.4171
  532SOL     OW 1594   2.065   1.489   0.383  0.0599 -0.0842  0.0484
  532SOL    HW1 1595   2.133   1.420   0.355  3.3228  1.3003  1.0905
  532SOL    HW2 1596   2.103   1.586   0.381  0.0959  3.7490  1.0583
  533SOL     OW 1597   0.270   0.090   1.798  0.1886 -0.2793  0.7412
  533SOL    HW1 1598   0.354   0.128   1.843 -3.4275  3.2839 -0.6808
  533SOL    HW2 1599   0.287   0.018   1.727 -1.5086  0.4057  0.1074
  534SOL     OW 1600   0.729   3.063   3.009 -0.2179  0.4275  0.1903
  534SOL    HW1 1601   0.643   3.091   2.964  2.2456 -1.2141  3.6827
  534SOL    HW2 1602   0.739   0.000   3.093  1.6530  1.8282  1.4102
  535SOL     OW 1603   0.253   0.186   0.408 -0.0106  0.5181  0.6923
  535SOL    HW1 1604   0.346   0.219   0.416  1.2466 -1.1577  1.4488
  535SOL    HW2 1605   0.245   0.094   0.366 -1.1762 -3.2470  0.6537
  536SOL     OW 1606   0.245   1.315   1.408 -0.0364 -0.2213 -0.0082
  536SOL    HW1 1607   0.274   1.220   1.383 -2.9711 -0.6201  0.0662
  536SOL    HW2 1608   0.325   1.365   1.451  2.1620 -0.5178 -0.2587
  537SOL     OW 1609   1.321   2.647   1.779 -0.4218  0.5116  0.5415
  537SOL    HW1 1610   1.266   2.644   1.864 -0.7129  3.5094  0.1987
  537SOL    HW2 1611   1.310   2.562   1.725 -1.3691 -0.7726 -1.3866
  538SOL     OW 1612   0.033   1.830   0.464 -0.2393 -0.4916 -0.4470
  538SOL    HW1 1613   0.059   1.747   0.519  1.0961 -1.0771 -1.3082
  538SOL    HW2 1614   3.106   1.905   0.517  2.3136  1.2481 -0.1420
  539SOL     OW 1615   2.717   1.139   2.527  0.0236  0.0758  0.0628
  539SOL    HW1 1616   2.778   1.145   2.609 -0.5552  0.6412 -1.6872
  539SOL    HW2 1617   2.766   1.102   2.447 -1.6485 -0.8189  1.6512
  540SOL     OW 1618   1.810   0.986   2.125 -0.3872 -0.5127  0.0114
  540SOL    HW1 1619   1.869   0.917   2.076  0.4105 -0.2540 -1.3077
  540SOL    HW2 1620   1.806   1.073   2.072  0.3976  2.9854 -0.7362
  541SOL     OW 1621   0.780   0.754   1.988  0.1231  0.2594 -0.5737
  541SOL    HW1 1622   0.725   0.785   2.066  3.8511 -1.3900  0.9194
  541SOL    HW2 1623   0.830   0.833   1.955 -2.4004 -1.3274  2.0075
  542SOL     OW 1624   1.997   0.362   2.968 -0.2012 -0.4126 -0.2192
  542SOL    HW1 1625   1.925   0.431   2.978  2.1605  0.5021 -0.3512
  542SOL    HW2 1626   2.083   0.383   3.016 -0.0686 -0.1280  2.7046
  543SOL     OW 1627   0.990   3.002   0.208  0.3866  0.1278  0.1011
  543SOL    HW1 1628   0.967   2.960   0.116  0.0078  1.9963 -0.1456
  543SOL    HW2 1629   1.085   3.033   0.220 -1.3029 -1.2537  0.2018
  544SOL     OW 1630   2.825   1.438   1.874  0.3791  0.2407  0.2409
  544SOL    HW1 1631   2.874   1.394   1.951 -0.5989  0.8502  1.1659
  544SOL    HW2 1632   2.721   1.437   1.881 -2.3434  1.4896 -0.5113
  545SOL     OW 1633   1.861   2.529   1.813  0.5987 -0.5401 -0.1796
  545SOL    HW1 1634   1.833   2.441   1.778 -1.6008 -0.0567  0.3190
  545SOL    HW2 1635   1.958   2.537   1.845  1.5574 -1.7862 -1.4073
  546SOL     OW 1636   0.230   0.114   2.595  0.3334  0.0411 -0.2793
  546SOL    HW1 1637   0.230   0.018   2.561 -0.1676  0.2157 -1.9816
  546SOL    HW2 1638   0.317   0.137   2.635 -0.0357 -1.2919  1.0837
  547SOL     OW 1639   1.767   1.061   0.889  0.6074 -0.1230 -0.0152
  547SOL    HW1 1640   1.764   1.067   0.786 -1.8840 -0.3432 -1.8869
  547SOL    HW2 1641   1.698   1.130   0.925 -1.0955  0.4107  0.8875
  548SOL     OW 1642   1.940   1.811   2.205 -0.3448  0.5867  0.1462
  548SOL    HW1 1643   1.956   1.850   2.298  0.5519  0.3010  1.1616
  548SOL    HW2 1644   1.965   1.876   2.127  0.0027 -1.4722 -1.2873
  549SOL     OW 1645   2.157   0.265   0.653  0.1981 -0.6498  0.2959
  549SOL    HW1 1646   2.060   0.268   0.624 -1.3036  1.0439 -3.4032
  549SOL    HW2 1647   2.172   0.303   0.747 -0.1399 -1.9806  0.7101
  550SOL     OW 1648   2.363   1.763   0.572 -0.5105 -0.0725  0.3536
  550SOL    HW1 1649   2.372   1.859   0.618  0.1481  0.8881  1.3735
  550SOL    HW2 1650   2.339   1.692   0.643  1.2442  1.2336  1.5114
  551SOL     OW 1651   1.247   2.782   2.401  0.2621 -0.2401  0.1789
  551SOL    HW1 1652   1.290   2.875   2.389  2.8042  1.0651 -2.1443
  551SOL    HW2 1653   1.189   2.782   2.484  2.2753  3.3002 -0.2065
  552SOL     OW 1654   0.039   2.371   2.626  0.0421 -0.1113 -0.0804
  552SOL    HW1 1655   3.065   2.334   2.593  0.8716 -2.7716 -1.1674
  552SOL    HW2 1656   0.107   2.337   2.561 -3.7633 -0.3735  2.4853
  553SOL     OW 1657   0.194   0.227   0.976  0.5067  0.0323  0.3271
  553SOL    HW1 1658   0.252   0.173   0.911 -2.0410  0.9124  0.9386
  553SOL    HW2 1659   0.106   0.177   0.990 -1.7244  1.7815 -0.9391
  554SOL     OW 1660   2.389   2.238   1.977  0.4236 -0.0893  0.3403
  554SOL    HW1 1661   2.426   2.144   1.956 -0.5497  1.1263  2.5187
  554SOL    HW2 1662   2.314   2.242   2.044  1.3117  1.0681  0.2265
  555SOL     OW 1663   1.469   2.429   1.952 -0.2811  0.2826  0.0348
  555SOL    HW1 1664   1.383   2.435   1.893 -2.3408 -1.3905  1.3160
  555SOL    HW2 1665   1.496   2.520   1.983 -1.4252 -2.2874  1.3148
  556SOL     OW 1666   1.443   1.752   1.532  0.7593 -0.3808  0.4364
  556SOL    HW1 1667   1.490   1.800   1.601 -1.2563 -1.9762 -1.8648
  556SOL    HW2 1668   1.404   1.666   1.569 -1.2431 -0.2509 -0.8426
  557SOL     OW 1669   1.963   2.497   2.459  0.1235 -0.8812 -0.2566
  557SOL    HW1 1670   2.049   2.449   2.454 -2.1104  1.8420  2.0181
  557SOL    HW2 1671   1.949   2.566   2.527  0.4883 -1.0055  2.0955
  558SOL     OW 1672   0.405   2.884   1.907 -0.2779 -0.7809 -0.4293
  558SOL    HW1 1673   0.377   2.918   1.815  1.3640  0.8205 -1.1322
  558SOL    HW2 1674   0.332   2.905   1.978  0.3087  0.8394  0.2885
  559SOL     OW 1675   2.167   2.737   0.929 -0.1247 -0.6247  0.1504
  559SOL    HW1 1676   2.195   2.711   0.836 -0.7289  1.0876 -1.1418
  559SOL    HW2 1677   2.183   2.836   0.939  1.0734  1.6246  1.4604
  560SOL     OW 1678   1.762   2.485   0.614 -0.2449 -0.8735 -0.4402
  560SOL    HW1 1679   1.685   2.519   0.671  1.8951  0.6875 -0.3579
  560SOL    HW2 1680   1.792   2.396   0.655  0.4273  0.2203 -0.2432
  561SOL     OW 1681   1.150   0.268   0.811 -0.0082  0.1947 -0.1990
  561SOL    HW1 1682   1.161   0.325   0.724 -1.8501  0.2051 -0.2411
  561SOL    HW2 1683   1.147   0.171   0.784  2.4071 -0.5707 -0.4344
  562SOL     OW 1684   0.816   0.606   2.601 -0.1511 -0.3490  0.2873
  562SOL    HW1 1685   0.735   0.650   2.561  2.1790 -0.9656  1.6721
  562SOL    HW2 1686   0.790   0.519   2.644 -1.1434  0.0281  0.5193
  563SOL     OW 1687   1.785   1.655   2.705 -0.5263 -0.0513  0.1422
  563SOL    HW1 1688   1.731   1.698   2.780 -2.0748  0.6435  1.2108
  563SOL    HW2 1689   1.884   1.640   2.736  1.1415  1.7152  0.6823
  564SOL     OW 1690   2.483   0.887   1.434 -0.6052 -0.4457 -0.6428
  564SOL    HW1 1691   2.561   0.909   1.500  0.4018  2.0331  0.3943
  564SOL    HW2 1692   2.519   0.899   1.339  1.6979  1.6454 -1.8675
  565SOL     OW 1693   1.138   0.545   3.014  0.0640  0.1984 -0.3597
  565SOL    HW1 1694   1.202   0.616   2.977 -1.0029  0.1594 -0.9719
  565SOL    HW2 1695   1.050   0.581   3.046  2.9830  0.5230  1.1199
  566SOL     OW 1696   1.877   0.392   2.641  0.1805 -0.1967 -0.6894
  566SOL    HW1 1697   1.934   0.427   2.564 -2.1841  0.8242 -0.3479
  566SOL    HW2 1698   1.924   0.307   2.673 -1.4891  0.9998  0.2717
  567SOL     OW 1699   2.206   1.729   0.338 -0.4107  0.2107  0.1544
  567SOL    HW1 1700   2.278   1.724   0.410  0.1279 -2.1227  1.4338
  567SOL    HW2 1701   2.208   1.819   0.289 -0.4384  0.2616  1.0919
  568SOL     OW 1702   1.842   1.774   0.102 -0.3276 -0.0920 -0.0932
  568SOL    HW1 1703   1.923   1.777   0.038 -0.1935 -1.2576 -2.6064
  568SOL    HW2 1704   1.773   1.847   0.081 -0.2112  1.7221  1.7927
  569SOL     OW 1705   2.003   1.098   0.088  0.1676 -0.3107  0.3350
  569SOL    HW1 1706   1.962   1.142   0.010 -0.7623 -1.5448 -1.7065
  569SOL    HW2 1707   2.093   1.139   0.103  1.5730 -3.2747 -1.0568
  570SOL     OW 1708   0.492   2.600   1.886  0.1696  0.6066 -0.1315
  570SOL    HW1 1709   0.455   2.690   1.911  1.0557 -0.9970 -1.0632
  570SOL    HW2 1710   0.560   2.614   1.811 -0.6750 -0.5010 -0.3380
  571SOL     OW 1711   0.507   1.071   2.127 -0.1863 -0.1327 -0.1285
  571SOL    HW1 1712   0.468   1.129   2.054 -0.6291  2.7313 -1.6193
  571SOL    HW2 1713   0.470   1.095   2.219 -1.4708  2.1702  0.4185
  572SOL     OW 1714   0.952   1.454   0.557  0.5991  0.5269 -0.0644
  572SOL    HW1 1715   0.878   1.522   0.563 -0.1858  0.5028  0.9356
  572SOL    HW2 1716   1.030   1.490   0.497 -2.4960  0.0256 -2.6536
  573SOL     OW 1717   1.793   2.077   2.957  0.0356 -0.0288  0.8183
  573SOL    HW1 1718   1.704   2.023   2.960 -0.6131 -0.6157  1.0682
  573SOL    HW2 1719   1.837   2.076   3.047  1.0142  0.2730 -3.1181
  574SOL     OW 1720   0.975   0.179   1.158 -0.4627 -0.1833 -0.2104
  574SOL    HW1 1721   0.962   0.120   1.241  1.9145  1.6886 -2.4882
  574SOL    HW2 1722   0.900   0.163   1.094  0.3367  2.1695 -0.7620
  575SOL     OW 1723   0.243   1.000   1.299  0.2188 -0.0237  0.4479
  575SOL    HW1 1724   0.234   0.986   1.403 -2.7078 -0.1469  2.1864
  575SOL    HW2 1725   0.343   1.008   1.268 -2.0927  1.6405 -1.4842
  576SOL     OW 1726   2.333   2.852   1.190  0.2008 -0.0086 -0.0948
  576SOL    HW1 1727   2.246   2.883   1.230  0.1627 -3.0421  2.3423
  576SOL    HW2 1728   2.323   2.774   1.126  1.1121  5.5264 -1.5344
  577SOL     OW 1729   1.078   1.019   2.217  0.3165  0.5793 -0.4639
  577SOL    HW1 1730   1.137   1.060   2.140 -0.2639  1.5353  0.1963
  577SOL    HW2 1731   1.112   0.927   2.247 -1.0438  2.5714  1.2171
  578SOL     OW 1732   2.018   0.915   2.544 -0.4782 -0.6351  0.3421
  578SOL    HW1 1733   1.952   0.896   2.467 -0.2761 -1.0367 -0.2595
  578SOL    HW2 1734   1.965   0.907   2.632  0.7193  2.8582 -1.0918
  579SOL     OW 1735   2.294   2.379   1.770  0.5469 -0.1857  0.1197
  579SOL    HW1 1736   2.308   2.300   1.831  2.3991 -1.5516 -2.0212
  579SOL    HW2 1737   2.219   2.353   1.706  1.5412  0.5620 -1.5814
  580SOL     OW 1738   1.724   1.630   2.249 -0.6594 -0.7875 -0.1913
  580SOL    HW1 1739   1.800   1.701   2.261  2.0797  3.8756  2.3351
  580SOL    HW2 1740   1.736   1.566   2.329  0.7666 -0.8269  0.9944
  581SOL     OW 1741   1.357   1.446   2.393  0.3511 -0.0183 -0.5766
  581SOL    HW1 1742   1.414   1.529   2.374 -0.9909  0.1680 -1.1093
  581SOL    HW2 1743   1.387   1.394   2.476  0.8738  0.1385 -0.4686
  582SOL     OW 1744   0.856   1.519   1.836 -0.2722  0.9843 -0.3017
  582SOL    HW1 1745   0.825   1.463   1.757  1.8807 -2.6014 -1.1406
  582SOL    HW2 1746   0.949   1.565   1.825 -0.1227  1.8381 -0.5363
  583SOL     OW 1747   1.453   1.004   1.700  0.2619  0.3402 -0.4686
  583SOL    HW1 1748   1.409   0.961   1.620 -1.4810 -0.3733 -0.7578
  583SOL    HW2 1749   1.407   1.095   1.714 -0.5159  0.5587  0.4382
  584SOL     OW 1750   1.953   2.666   0.559  0.4402  0.1603 -0.5897
  584SOL    HW1 1751   1.877   2.600   0.569  1.1236 -2.2059  0.2766
  584SOL    HW2 1752   1.960   2.713   0.469 -1.6681  1.4083 -0.1063
  585SOL     OW 1753   1.733   2.917   2.743 -0.4766  0.8168 -0.8933
  585SOL    HW1 1754   1.754   2.830   2.696  2.0719  2.4527  0.9074
  585SOL    HW2 1755   1.794   2.927   2.827 -1.6409  2.4309 -0.6125
  586SOL     OW 1756   2.805   2.107   0.949  0.3618 -0.1080 -0.1365
  586SOL    HW1 1757   2.823   2.153   1.037 -1.0127  1.7573 -2.1279
  586SOL    HW2 1758   2.836   2.169   0.868  1.1395  0.3672 -0.7756
  587SOL     OW 1759   1.577   1.949   3.104  0.5867 -0.2254 -0.3717
  587SOL    HW1 1760   1.576   2.043   0.032 -0.1613  0.3553  1.0101
  587SOL    HW2 1761   1.476   1.913   3.100 -2.7877 -2.0970  1.0249
  588SOL     OW 1762   0.410   0.375   1.094  0.5213  0.0180 -0.1515
  588SOL    HW1 1763   0.502   0.387   1.059 -0.3502 -1.2775  0.7249
  588SOL    HW2 1764   0.356   0.334   1.021  2.2048  0.3236  0.4242
  589SOL     OW 1765   1.151   0.390   0.549  0.8492  0.1816 -0.5835
  589SOL    HW1 1766   1.105   0.477   0.531 -0.9406 -0.9074 -1.5583
  589SOL    HW2 1767   1.120   0.321   0.480 -3.3011  0.3338 -2.5700
  590SOL     OW 1768   1.347   0.770   2.928  0.0736  0.0535 -0.5079
  590SOL    HW1 1769   1.319   0.754   2.833  1.6422 -1.4838 -0.4122
  590SOL    HW2 1770   1.291   0.845   2.962 -0.0936 -1.4006  0.7856
  591SOL     OW 1771   2.716   2.201   2.180  0.2674 -0.5929  0.2114
  591SOL    HW1 1772   2.761   2.237   2.101  0.5211 -0.7397  1.3190
  591SOL    HW2 1773   2.744   2.253   2.263 -1.6551 -1.3278  0.5910
  592SOL     OW 1774   2.568   1.370   1.840  0.1032  0.1599 -0.2569
  592SOL    HW1 1775   2.546   1.381   1.740  1.1388  2.4461 -3.3020
  592SOL    HW2 1776   2.485   1.384   1.904 -1.8351  2.9578 -0.8523
  593SOL     OW 1777   1.143   0.946   1.327 -0.1139  0.3852 -0.6185
  593SOL    HW1 1778   1.181   1.029   1.291 -1.4859 -1.2725  0.5474
  593SOL    HW2 1779   1.203   0.902   1.398  0.5201 -2.5474 -0.6572
  594SOL     OW 1780   2.524   1.562   2.899  0.6126  0.0909 -0.0146
  594SOL    HW1 1781   2.527   1.602   2.996 -1.1710 -1.3738 -0.2257
  594SOL    HW2 1782   2.616   1.557   2.855 -3.1551  2.0162 -1.0891
  595SOL     OW 1783   0.356   0.380   0.738 -0.6511  0.5143  0.9852
  595SOL    HW1 1784   0.320   0.288   0.742 -0.6783  1.2255  0.0852
  595SOL    HW2 1785   0.443   0.384   0.690 -3.4737  1.6856  0.7870
  596SOL     OW 1786   3.030   1.351   1.138 -0.0441 -0.1691 -0.6335
  596SOL    HW1 1787   3.022   1.257   1.105  1.7393 -1.3552 -0.5181
  596SOL    HW2 1788   0.007   1.381   1.128  1.5837  2.1329  1.2005
  597SOL     OW 1789   1.342   1.849   0.714  0.0772 -0.1441  0.0780
  597SOL    HW1 1790   1.244   1.828   0.716 -2.1325  1.0790 -2.8812
  597SOL    HW2 1791   1.345   1.952   0.689  1.2894 -0.2590  2.2987
  598SOL     OW 1792   0.580   2.921   1.624  0.4280 -0.1391 -0.1768
  598SOL    HW1 1793   0.642   2.881   1.692 -1.7943  1.3474 -3.3427
  598SOL    HW2 1794   0.520   2.843   1.593 -0.4854 -1.6228 -1.3572
  599SOL     OW 1795   0.105   1.743   2.764  0.6144 -0.4667  0.4149
  599SOL    HW1 1796   0.049   1.696   2.838  1.7387 -1.5949 -0.5367
  599SOL    HW2 1797   0.069   1.838   2.749  0.2747  1.4668  0.6217
  600SOL     OW 1798   0.267   0.925   2.969 -0.0576 -0.0199 -0.6026
  600SOL    HW1 1799   0.256   0.830   2.936 -2.2184  3.1586  2.1232
  600SOL    HW2 1800   0.280   0.987   2.890 -2.3304 -2.3221 -1.1918
  601SOL     OW 1801   0.545   0.769   1.233  0.0889  0.3232  0.1682
  601SOL    HW1 1802   0.541   0.870   1.256  1.8103  1.3134  0.1521
  601SOL    HW2 1803   0.456   0.726   1.248 -1.5116 -0.7776  0.4237
  602SOL     OW 1804   1.079   3.101   0.732  0.3426  0.1036  0.0334
  602SOL    HW1 1805   1.134   3.057   0.659  1.1314  1.9130  1.8227
  602SOL    HW2 1806   0.989   0.021   0.697 -0.9731  0.3200  1.3151
  603SOL     OW 1807   1.696   2.138   2.273  0.3836  0.4878 -0.2760
  603SOL    HW1 1808   1.740   2.123   2.182  1.0635 -1.8876  0.2722
  603SOL    HW2 1809   1.702   2.237   2.300  0.1933  0.7760  1.1561
  604SOL     OW 1810   0.461   3.062   2.893 -0.0877  0.1779 -0.4709
  604SOL    HW1 1811   0.380   3.011   2.919 -0.3955  3.1474 -0.6545
  604SOL    HW2 1812   0.436   0.019   2.828 -1.5823  1.0487 -0.0910
  605SOL     OW 1813   2.694   1.147   1.604 -0.1656  0.2250  0.1791
  605SOL    HW1 1814   2.696   1.145   1.705  0.8001  0.0530 -1.5855
  605SOL    HW2 1815   2.748   1.224   1.563 -0.2199 -0.0723  0.1099
  606SOL     OW 1816   0.925   1.724   2.761  0.9015 -0.0513  0.2106
  606SOL    HW1 1817   0.902   1.626   2.780 -3.4267 -2.3351  2.0596
  606SOL    HW2 1818   0.853   1.760   2.694 -1.8338  0.8895 -1.3511
  607SOL     OW 1819   0.572   0.376   0.596 -0.1552 -0.2310 -0.3014
  607SOL    HW1 1820   0.520   0.386   0.508  2.4779  0.6506  3.9332
  607SOL    HW2 1821   0.640   0.452   0.600  0.3720  0.3852 -1.7817
  608SOL     OW 1822   2.880   1.742   1.474  0.2980  0.6982  0.0569
  608SOL    HW1 1823   2.842   1.724   1.566  1.2009 -0.8032  0.1420
  608SOL    HW2 1824   2.896   1.654   1.428 -1.5254 -1.1506  2.3300
  609SOL     OW 1825   2.703   0.307   0.885 -0.1756  0.3529  0.2315
  609SOL    HW1 1826   2.693   0.224   0.943  0.4934  0.1971  1.1630
  609SOL    HW2 1827   2.615   0.334   0.840 -0.2775 -0.2601 -1.6290
  610SOL     OW 1828   0.186   2.677   1.336  0.5254 -0.2789 -0.6400
  610SOL    HW1 1829   0.220   2.606   1.397  2.1289 -1.3063 -2.6771
  610SOL    HW2 1830   0.197   2.648   1.238  2.4864 -3.2621 -1.2467
  611SOL     OW 1831   1.404   1.688   0.191  0.4356  0.3274  0.2878
  611SOL    HW1 1832   1.469   1.659   0.266  0.5158  2.0716 -1.5892
  611SOL    HW2 1833   1.373   1.784   0.197  0.4858  0.6907 -1.2361
  612SOL     OW 1834   0.919   2.829   2.092  0.0740 -0.3201  0.3662
  612SOL    HW1 1835   0.932   2.786   2.185 -2.7122  0.3864 -0.9659
  612SOL    HW2 1836   0.825   2.867   2.082  2.0970 -0.8170  1.7724
  613SOL     OW 1837   0.389   2.628   0.899  0.6988  0.1741 -0.4283
  613SOL    HW1 1838   0.370   2.576   0.814 -1.5619  0.0574 -1.9299
  613SOL    HW2 1839   0.484   2.617   0.939  0.3809  0.7374 -0.7653
  614SOL     OW 1840   2.152   0.168   2.236 -0.7493 -0.6165 -0.3791
  614SOL    HW1 1841   2.165   0.269   2.221  0.1811  1.3914 -1.9973
  614SOL    HW2 1842   2.145   0.116   2.149  0.7426  0.0304 -0.9937
  615SOL     OW 1843   1.215   1.529   0.469  0.1085  0.2715 -0.7211
  615SOL    HW1 1844   1.225   1.564   0.375  0.8518  3.3127 -0.6544
  615SOL    HW2 1845   1.295   1.552   0.523 -1.2638  1.9611 -0.9325
  616SOL     OW 1846   1.548   1.597   0.399  1.3370 -0.6652  0.3786
  616SOL    HW1 1847   1.558   1.494   0.390 -1.9162  3.3958  0.5233
  616SOL    HW2 1848   1.519   1.611   0.497 -0.1521 -3.8830  1.1477
  617SOL     OW 1849   1.322   1.246   2.577 -0.0303 -0.2705 -0.0461
  617SOL    HW1 1850   1.239   1.251   2.519  2.4988 -1.1962  1.3382
  617SOL    HW2 1851   1.369   1.157   2.577 -1.2303 -0.3411 -0.9084
  618SOL     OW 1852   0.696   0.057   2.095  0.1143  0.0922 -0.3085
  618SOL    HW1 1853   0.663   0.101   2.012  1.3610 -0.0967  2.9494
  618SOL    HW2 1854   0.690   0.125   2.171  1.7079  1.3291  1.9505
  619SOL     OW 1855   3.005   1.538   1.344  0.2483 -0.5873  0.3673
  619SOL    HW1 1856   3.103   1.558   1.369 -0.0824  1.3135 -2.6689
  619SOL    HW2 1857   3.004   1.472   1.270 -1.2547 -0.7130  2.1257
  620SOL     OW 1858   2.293   0.355   2.729  0.4347  0.2743 -0.1899
  620SOL    HW1 1859   2.316   0.418   2.652  0.9117 -0.2779  1.0882
  620SOL    HW2 1860   2.193   0.351   2.731  0.8855 -1.5236 -2.7979
  621SOL     OW 1861   2.211   2.090   2.562 -0.1414  0.7628  0.4339
  621SOL    HW1 1862   2.269   2.027   2.615  2.3087  2.2928 -3.0938
  621SOL    HW2 1863   2.250   2.180   2.562 -2.3705 -3.4399 -1.8526
  622SOL     OW 1864   1.029   0.781   2.584  0.3975  0.2912 -0.2958
  622SOL    HW1 1865   0.949   0.723   2.564 -0.2418  0.6786  2.0840
  622SOL    HW2 1866   1.066   0.830   2.505 -2.2899  1.4951  3.8643
  623SOL     OW 1867   0.816   1.076   2.281 -0.1418  0.2566  0.8698
  623SOL    HW1 1868   0.910   1.067   2.243 -0.0827  2.4416 -2.1956
  623SOL    HW2 1869   0.754   0.998   2.249 -0.3898  0.8742  0.0102
  624SOL     OW 1870   2.942   0.393   0.544  0.3354  0.1521 -0.1315
  624SOL    HW1 1871   2.943   0.370   0.441  0.8550 -0.2397 -2.2611
  624SOL    HW2 1872   2.863   0.459   0.566 -1.9686  0.7152  1.4989
  625SOL     OW 1873   0.724   2.455   0.660  0.2404 -0.6477  0.0334
  625SOL    HW1 1874   0.724   2.558   0.679  1.4276  3.5861  2.0459
  625SOL    HW2 1875   0.823   2.430   0.647  0.0430  0.6753 -1.7514
  626SOL     OW 1876   2.204   0.755   2.658 -0.0822 -0.4956 -0.3369
  626SOL    HW1 1877   2.191   0.758   2.758  2.5867 -1.1942  1.3491
  626SOL    HW2 1878   2.135   0.816   2.615  0.6828 -0.4628 -1.1712
  627SOL     OW 1879   1.532   2.292   2.671  0.1646  0.0276  0.5206
  627SOL    HW1 1880   1.526   2.206   2.615  0.7524  0.4400  1.1348
  627SOL    HW2 1881   1.618   2.340   2.650  0.5667 -0.2033  3.0180
  628SOL     OW 1882   2.791   2.912   2.285 -0.1029 -0.4106  0.4058
  628SOL    HW1 1883   2.848   2.997   2.271  3.3317  1.3481 -1.3195
  628SOL    HW2 1884   2.692   2.928   2.299  2.0053 -1.4948  0.7704
  629SOL     OW 1885   1.389   3.006   2.371  0.2521 -0.5466  0.4251
  629SOL    HW1 1886   1.482   3.031   2.351 -0.5328 -2.7484 -0.3874
  629SOL    HW2 1887   1.316   3.083   2.371 -1.6038  2.8287 -1.2849
  630SOL     OW 1888   1.015   0.216   2.408 -0.1845  0.3038 -0.1522
  630SOL    HW1 1889   1.049   0.310   2.429  0.3552 -0.4574  0.6417
  630SOL    HW2 1890   1.096   0.164   2.370  1.0444  2.2045 -1.0814
  631SOL     OW 1891   1.976   1.401   0.684  0.1195  0.2904  0.2427
  631SOL    HW1 1892   1.971   1.320   0.626  0.1578  3.9964 -0.9040
  631SOL    HW2 1893   1.964   1.375   0.782  1.7104  1.5645 -4.3887
  632SOL     OW 1894   2.616   0.252   1.894  0.0228  0.0148  0.1209
  632SOL    HW1 1895   2.559   0.308   1.833  1.6267  0.1054 -0.0241
  632SOL    HW2 1896   2.701   0.300   1.914  0.2060 -1.1690 -2.9187
  633SOL     OW 1897   1.142   1.593   0.168  0.4233 -0.9649  0.1668
  633SOL    HW1 1898   1.230   1.639   0.158  0.0578 -2.3623  0.7212
  633SOL    HW2 1899   1.092   1.579   0.078 -0.9106 -2.6115  1.1829
  634SOL     OW 1900   2.904   2.908   1.625 -0.0797  0.0127 -0.9245
  634SOL    HW1 1901   2.908   3.003   1.657  0.4689 -0.4502 -0.5525
  634SOL    HW2 1902   2.873   2.884   1.532  5.0902  0.1433  0.6571
  635SOL     OW 1903   1.618   0.290   1.041 -0.4667 -0.3693 -0.6990
  635SOL    HW1 1904   1.708   0.335   1.060  0.2367 -0.2707  1.6567
  635SOL    HW2 1905   1.550   0.302   1.121  0.2084  0.9273  0.4768
  636SOL     OW 1906   0.754   1.213   3.052 -0.3441 -0.6563  0.1949
  636SOL    HW1 1907   0.728   1.127   3.101 -1.0224  1.8987 -0.0156
  636SOL    HW2 1908   0.669   1.264   3.013 -1.6704  0.0896 -1.4576
  637SOL     OW 1909   3.005   2.285   2.988 -0.1757  0.1332  0.2012
  637SOL    HW1 1910   2.942   2.263   2.911 -0.7449 -0.7883 -0.6403
  637SOL    HW2 1911   3.004   2.212   3.061  0.0410 -0.2939  3.3984
  638SOL     OW 1912   1.430   2.632   2.593 -0.1571 -0.1662 -0.0374
  638SOL    HW1 1913   1.399   2.680   2.511  0.7641 -0.6321  0.6142
  638SOL    HW2 1914   1.532   2.622   2.601 -0.9429  0.4585 -0.3098
  639SOL     OW 1915   1.612   1.902   0.685 -0.2093 -0.0604 -0.4885
  639SOL    HW1 1916   1.524   1.878   0.721 -0.3460  0.7474  3.5692
  639SOL    HW2 1917   1.597   1.935   0.592  0.1403 -0.2791  1.6873
  640SOL     OW 1918   2.408   2.678   0.449 -0.0203 -0.2748  0.4922
  640SOL    HW1 1919   2.368   2.666   0.354 -0.6474  2.5335 -0.1106
  640SOL    HW2 1920   2.507   2.706   0.445  1.4320  0.1316 -0.2805
  641SOL     OW 1921   2.896   0.419   2.969  0.0870  0.5055 -0.7686
  641SOL    HW1 1922   2.831   0.436   3.046 -0.6713  0.9303  1.2970
  641SOL    HW2 1923   2.924   0.322   2.977 -0.7945  0.4229  2.8283
  642SOL     OW 1924   0.318   0.619   1.246 -0.2150 -0.4205  0.3880
  642SOL    HW1 1925   0.286   0.605   1.342  0.9597 -0.1849  0.3706
  642SOL    HW2 1926   0.356   0.540   1.196 -1.5485  0.1727  3.1083
  643SOL     OW 1927   0.678   1.472   2.537  0.3104  0.7987 -0.3739
  643SOL    HW1 1928   0.778   1.506   2.547  2.0941 -0.5662  0.5970
  643SOL    HW2 1929   0.666   1.422   2.450 -0.1465  2.5899 -0.2591
  644SOL     OW 1930   1.840   2.261   0.736 -0.3417 -0.3933  0.1069
  644SOL    HW1 1931   1.860   2.199   0.659 -0.9299 -0.9973  0.3142
  644SOL    HW2 1932   1.779   2.217   0.807 -0.4479  0.9374 -1.6280
  645SOL     OW 1933   1.581   2.483   0.930 -1.1507  0.1925 -0.1447
  645SOL    HW1 1934   1.559   2.382   0.914 -0.5207 -3.2512 -0.1881
  645SOL    HW2 1935   1.516   2.543   0.875 -1.0994  0.3401  0.6901
  646SOL     OW 1936   0.697   2.154   2.795 -0.5650  0.2591  0.0693
  646SOL    HW1 1937   0.692   2.085   2.870 -1.1170  2.5970 -0.1398
  646SOL    HW2 1938   0.699   2.250   2.827  2.4679 -2.8247  0.4599
  647SOL     OW 1939   1.296   2.763   1.497 -0.0773  0.0287  0.2265
  647SOL    HW1 1940   1.229   2.832   1.467  1.9851 -0.4632 -1.0314
  647SOL    HW2 1941   1.365   2.803   1.557 -1.6543  2.5729 -0.1885
  648SOL     OW 1942   1.397   0.300   1.231  0.8099  0.2995  0.2932
  648SOL    HW1 1943   1.417   0.232   1.303  0.0784  1.1565  1.0118
  648SOL    HW2 1944   1.342   0.252   1.159  1.4187 -0.3936 -1.1257
  649SOL     OW 1945   1.356   2.158   0.123  0.4651  0.1539 -0.0717
  649SOL    HW1 1946   1.290   2.233   0.110 -0.4410 -0.8564  0.2730
  649SOL    HW2 1947   1.444   2.214   0.146  3.5475  2.2587  2.6306
  650SOL     OW 1948   2.339   1.582   1.466 -0.7074 -0.2985 -0.1593
  650SOL    HW1 1949   2.414   1.647   1.482  0.0463 -0.2813  0.8013
  650SOL    HW2 1950   2.249   1.625   1.471  2.9326 -0.0054 -1.0223
  651SOL     OW 1951   1.800   2.794   0.070 -0.4378 -0.0951  0.6522
  651SOL    HW1 1952   1.704   2.822   0.064  3.1805 -0.2438 -0.0069
  651SOL    HW2 1953   1.804   2.692   0.079 -2.2924  0.1919 -0.3971
  652SOL     OW 1954   2.955   1.853   0.249 -0.1683 -0.2594 -0.1181
  652SOL    HW1 1955   2.882   1.850   0.318 -0.4185 -1.2220 -0.4083
  652SOL    HW2 1956   3.047   1.858   0.291  1.7868 -1.2495 -0.7692
  653SOL     OW 1957   2.880   2.869   0.924  0.2740 -0.4943 -0.1997
  653SOL    HW1 1958   2.916   2.801   0.852 -0.7921  0.7961 -2.8380
  653SOL    HW2 1959   2.810   2.925   0.869 -0.0649  0.7556 -3.4054
  654SOL     OW 1960   2.808   2.707   1.775  0.2183  0.2450 -0.5393
  654SOL    HW1 1961   2.838   2.701   1.873 -0.0497  0.3736  2.1914
  654SOL    HW2 1962   2.860   2.777   1.721  0.9814 -1.1453 -1.6926
  655SOL     OW 1963   0.144   2.192   0.906  0.0381  0.2922  0.0127
  655SOL    HW1 1964   0.087   2.124   0.950  1.2057  0.0708 -2.0042
  655SOL    HW2 1965   0.193   2.245   0.977  2.2123 -3.2508 -0.4235
  656SOL     OW 1966   0.054   2.735   2.277  0.4086 -0.6205 -0.4689
  656SOL    HW1 1967   3.117   2.698   2.200 -1.2640 -0.8057 -1.9859
  656SOL    HW2 1968   0.017   2.826   2.311  0.7666  2.4538  3.1761
  657SOL     OW 1969   2.964   1.386   2.807 -0.2687 -0.2122 -0.5697
  657SOL    HW1 1970   3.057   1.359   2.840 -0.2142  2.1524  1.9587
  657SOL    HW2 1971   2.907   1.301   2.800 -1.7350 -0.0145 -0.1758
  658SOL     OW 1972   2.659   1.612   1.113 -0.2700 -0.0141  0.0686
  658SOL    HW1 1973   2.680   1.706   1.148  0.0201  2.2594  0.3677
  658SOL    HW2 1974   2.560   1.596   1.118  2.4149 -0.9473  5.3044
  659SOL     OW 1975   1.414   0.023   0.484 -0.0343 -0.1287 -0.0470
  659SOL    HW1 1976   1.459   3.094   0.561 -0.2401 -2.2089 -0.9697
  659SOL    HW2 1977   1.382   0.114   0.517  0.4826 -2.6039  0.1911
  660SOL     OW 1978   1.764   1.517   3.030  0.3091 -0.4079 -0.0226
  660SOL    HW1 1979   1.690   1.485   3.096 -1.5463 -1.0271  0.6610
  660SOL    HW2 1980   1.731   1.600   2.982  0.2279 -2.0779  0.8849
  661SOL     OW 1981   0.250   2.320   1.116  0.2303  0.5387 -0.3086
  661SOL    HW1 1982   0.236   2.419   1.105 -1.3560  0.3090 -0.0128
  661SOL    HW2 1983   0.200   2.288   1.200 -0.7284 -0.4404  2.0148
  662SOL     OW 1984   0.061   0.724   0.087  0.1630 -0.0021 -0.4448
  662SOL    HW1 1985   0.004   0.693   0.165 -1.1589  2.1666  2.1448
  662SOL    HW2 1986   0.158   0.715   0.104 -0.9734  2.2916  1.1064
  663SOL     OW 1987   1.904   1.669   1.093 -0.4336  0.0543  0.3279
  663SOL    HW1 1988   1.865   1.741   1.028  0.0172  2.9882 -2.7241
  663SOL    HW2 1989   1.869   1.682   1.189  1.3025 -0.1231  1.6617
  664SOL     OW 1990   0.986   1.661   1.258 -0.2586 -0.2443  0.0296
  664SOL    HW1 1991   0.930   1.585   1.216 -1.2471 -1.3765  3.7113
  664SOL    HW2 1992   1.085   1.640   1.242  1.6483  1.7404  0.2536
  665SOL     OW 1993   1.922   2.838   2.353 -0.5583 -0.3738  0.2327
  665SOL    HW1 1994   1.817   2.839   2.341 -1.6602  0.9551  1.8847
  665SOL    HW2 1995   1.962   2.789   2.270 -1.9581 -1.5911 -0.4954
  666SOL     OW 1996   3.090   3.013   2.844 -0.0893 -0.1178  0.7488
  666SOL    HW1 1997   3.058   2.926   2.882 -1.8365  1.1572 -3.1868
  666SOL    HW2 1998   3.023   3.040   2.771  2.1731 -0.7336 -0.1659
  667SOL     OW 1999   2.389   1.399   2.036 -0.2263 -0.0908  0.8325
  667SOL    HW1 2000   2.360   1.311   2.077  1.4717  0.1869  0.5757
  667SOL    HW2 2001   2.308   1.448   1.989 -3.9851 -0.0227 -2.3798
  668SOL     OW 2002   0.492   1.123   2.515  0.4186 -0.8186  0.2345
  668SOL    HW1 2003   0.461   1.198   2.583 -1.5675 -0.2659 -0.3542
  668SOL    HW2 2004   0.430   1.137   2.429 -0.6044  0.7976 -4.4590
  669SOL     OW 2005   2.241   2.415   2.438 -0.3360  0.1885  0.6004
  669SOL    HW1 2006   2.325   2.405   2.384  0.8425  1.1507 -0.2458
  669SOL    HW2 2007   2.258   2.415   2.536 -0.0665  3.0950 -0.9607
  670SOL     OW 2008   2.237   1.198   1.781  0.3635 -0.1356 -0.1705
  670SOL    HW1 2009   2.312   1.243   1.732 -2.1461 -0.1435 -1.3555
  670SOL    HW2 2010   2.148   1.230   1.750  2.7953 -1.2200  1.9588
  671SOL     OW 2011   2.530   1.135   0.366 -0.4280  0.1600  0.7352
  671SOL    HW1 2012   2.560   1.176   0.278 -1.2406  3.2344 -0.0673
  671SOL    HW2 2013   2.465   1.189   0.415  2.1866 -0.7120 -1.2504
  672SOL     OW 2014   2.350   0.914   2.269  0.1891 -0.6491  0.6751
  672SOL    HW1 2015   2.299   0.847   2.213  1.3817 -0.4343  0.6848
  672SOL    HW2 2016   2.308   0.923   2.361 -0.9080  1.1573  0.1654
  673SOL     OW 2017   2.964   0.047   1.649 -0.4090  0.0243  0.3463
  673SOL    HW1 2018   2.986   0.051   1.747 -1.3813 -0.7430  0.1516
  673SOL    HW2 2019   2.881   0.102   1.628 -1.0429 -0.6750  1.5812
  674SOL     OW 2020   1.861   1.702   1.383 -1.0599  0.0502  0.3538
  674SOL    HW1 2021   1.762   1.683   1.359 -0.0343 -1.8746  0.6878
  674SOL    HW2 2022   1.860   1.775   1.455  1.4829  0.9405 -2.5375
  675SOL     OW 2023   0.754   0.872   0.837  0.6231 -0.6430  0.5075
  675SOL    HW1 2024   0.691   0.799   0.873 -4.1433 -0.8587 -0.7395
  675SOL    HW2 2025   0.832   0.832   0.787 -0.7240  1.9953 -0.2361
  676SOL     OW 2026   1.509   1.185   1.264 -0.0136  0.0031  0.1032
  676SOL    HW1 2027   1.471   1.101   1.214  0.5398 -1.6431 -1.4621
  676SOL    HW2 2028   1.590   1.157   1.321  1.5139  0.6735  0.5322
  677SOL     OW 2029   2.634   1.428   2.160  0.4846 -0.6097 -0.0575
  677SOL    HW1 2030   2.585   1.358   2.211 -0.4435  0.0341  1.9839
  677SOL    HW2 2031   2.562   1.471   2.097 -3.2332  0.4382 -3.2858
  678SOL     OW 2032   2.832   1.645   0.890 -0.5006  0.2130  0.2379
  678SOL    HW1 2033   2.814   1.569   0.827  1.6013 -0.1975  1.3190
  678SOL    HW2 2034   2.769   1.652   0.968 -1.3643 -2.2742 -1.5895
  679SOL     OW 2035   2.317   2.632   0.190  0.1353  0.2059 -0.6435
  679SOL    HW1 2036   2.227   2.596   0.218 -1.4606 -0.1856  1.9274
  679SOL    HW2 2037   2.324   2.732   0.167 -0.6831  1.1736  0.4345
  680SOL     OW 2038   3.078   2.165   1.776 -0.3604  0.0174 -0.1022
  680SOL    HW1 2039   0.031   2.100   1.799  0.6846 -0.7758 -1.1861
  680SOL    HW2 2040   3.108   2.257   1.806  0.2112 -1.3212  2.7335
  681SOL     OW 2041   0.508   1.050   1.273  0.3008 -0.1289  0.1163
  681SOL    HW1 2042   0.539   1.121   1.205  1.4970 -1.6133  0.2115
  681SOL    HW2 2043   0.564   1.049   1.358  0.0228 -3.7404 -0.0589
  682SOL     OW 2044   1.428   2.596   0.758 -0.2988 -0.5155 -0.0935
  682SOL    HW1 2045   1.443   2.690   0.727 -1.8704 -1.6897  1.0262
  682SOL    HW2 2046   1.359   2.549   0.699 -0.1665 -1.4446 -0.2574
  683SOL     OW 2047   2.411   1.332   0.506  0.3089 -0.1279 -0.1403
  683SOL    HW1 2048   2.353   1.339   0.584  0.0221  0.0825  0.8974
  683SOL    HW2 2049   2.459   1.419   0.487 -3.0313  0.8304  0.7778
  684SOL     OW 2050   0.603   2.042   1.963  0.0363 -0.1820 -0.4900
  684SOL    HW1 2051   0.661   2.125   1.991  2.6941  2.8360 -0.9091
  684SOL    HW2 2052   0.515   2.075   1.921  0.9021  0.0895  0.7531
  685SOL     OW 2053   2.027   1.574   3.039 -0.7806  0.0750  0.0147
  685SOL    HW1 2054   2.099   1.554   3.111 -1.6550 -1.7604  1.1677
  685SOL    HW2 2055   1.933   1.544   3.070  1.6738 -0.1961 -0.8527
  686SOL     OW 2056   0.381   0.693   0.794 -0.0151 -0.2332 -0.0168
  686SOL    HW1 2057   0.315   0.625   0.824  2.4245  0.1155 -0.0664
  686SOL    HW2 2058   0.454   0.700   0.868  3.7929 -1.1493 -1.7922
  687SOL     OW 2059   1.189   2.372   2.887 -0.2336  0.0517  0.0385
  687SOL    HW1 2060   1.179   2.270   2.899  2.0392 -1.4699 -0.6901
  687SOL    HW2 2061   1.223   2.398   2.794 -0.4638  1.7034 -1.5923
  688SOL     OW 2062   2.534   1.780   1.575  0.3121  0.1201  0.1087
  688SOL    HW1 2063   2.609   1.719   1.612  1.5182  1.1125  1.6275
  688SOL    HW2 2064   2.547   1.875   1.612  2.1202 -0.5718  0.5765
  689SOL     OW 2065   2.294   0.680   2.103 -0.7051 -0.0667 -0.6273
  689SOL    HW1 2066   2.393   0.669   2.076  0.0602  0.7095  1.1945
  689SOL    HW2 2067   2.224   0.679   2.030 -0.1459  0.8379  3.3819
  690SOL     OW 2068   2.059   0.903   1.459  0.3783  0.6645 -0.4521
  690SOL    HW1 2069   1.986   0.889   1.390  2.2753 -0.7354  0.7790
  690SOL    HW2 2070   2.083   0.997   1.484  0.4422 -2.0964  0.8565
  691SOL     OW 2071   0.704   2.004   1.707 -0.1197 -0.5682  0.3878
  691SOL    HW1 2072   0.664   2.030   1.798 -1.7800  2.3063  2.7795
  691SOL    HW2 2073   0.804   1.998   1.710  3.1654 -0.5725 -1.1352
  692SOL     OW 2074   1.975   0.051   1.410 -0.3870 -0.4213 -0.0274
  692SOL    HW1 2075   1.986   0.065   1.510  1.0745 -0.2861 -1.5942
  692SOL    HW2 2076   1.881   0.025   1.392  1.0979 -1.2849  2.0067
  693SOL     OW 2077   0.886   1.061   2.564  0.2535  0.1964 -0.8065
  693SOL    HW1 2078   0.838   1.062   2.477  0.3336  1.1208  2.0118
  693SOL    HW2 2079   0.860   0.983   2.622  0.5184  2.2962  3.6981
  694SOL     OW 2080   1.951   2.666   1.374 -0.1957 -0.0132 -0.1027
  694SOL    HW1 2081   1.976   2.702   1.282 -1.8553  3.2821  1.4510
  694SOL    HW2 2082   1.994   2.719   1.446  0.3174  0.8946 -2.9990
  695SOL     OW 2083   1.399   1.418   2.016 -0.3363  0.1008 -0.3553
  695SOL    HW1 2084   1.375   1.366   1.933  0.3615 -2.0734  1.9500
  695SOL    HW2 2085   1.501   1.437   2.027  2.7213  1.5450 -0.6936
  696SOL     OW 2086   1.624   0.034   1.032 -0.0419 -0.1127  0.3615
  696SOL    HW1 2087   1.554   3.102   1.082  2.9204 -0.1744  0.4030
  696SOL    HW2 2088   1.615   0.136   1.041 -1.0918  2.8621  0.0014
  697SOL     OW 2089   1.232   0.192   1.051 -0.1017  0.2739 -0.3168
  697SOL    HW1 2090   1.144   0.179   1.105 -2.5020 -3.7537  1.7949
  697SOL    HW2 2091   1.221   0.210   0.952  1.6366 -0.8292 -1.5668
  698SOL     OW 2092   1.783   1.244   1.981  0.3787  0.4598  0.0448
  698SOL    HW1 2093   1.778   1.221   1.882  0.7662 -0.9829  1.1016
  698SOL    HW2 2094   1.728   1.332   1.996 -0.5834  0.5934 -0.2073
  699SOL     OW 2095   1.190   1.287   1.525  0.5660  0.0524 -0.3157
  699SOL    HW1 2096   1.123   1.241   1.585 -1.1974 -0.0976 -0.2736
  699SOL    HW2 2097   1.172   1.255   1.430  3.3773 -2.7127  0.5477
  700SOL     OW 2098   1.400   0.349   0.275 -0.5837 -0.0939 -0.1519
  700SOL    HW1 2099   1.343   0.351   0.189  0.8014 -1.2066 -2.1180
  700SOL    HW2 2100   1.352   0.306   0.357 -0.2821  1.9584 -0.0403
  701SOL     OW 2101   0.516   0.181   1.861  0.4753  0.1509 -0.1858
  701SOL    HW1 2102   0.496   0.274   1.894  0.0680 -1.7287 -0.7811
  701SOL    HW2 2103   0.599   0.172   1.809 -1.7000  1.6874  1.9088
  702SOL     OW 2104   1.218   2.941   0.542 -0.0446 -0.5240 -0.1404
  702SOL    HW1 2105   1.265   3.010   0.489 -0.8354 -1.0765  1.5231
  702SOL    HW2 2106   1.134   2.904   0.499 -0.2906  3.3154 -0.6244
  703SOL     OW 2107   2.674   0.158   2.274 -0.5091 -0.1770  0.1064
  703SOL    HW1 2108   2.663   0.215   2.357  1.3006  1.5179 -1.6011
  703SOL    HW2 2109   2.589   0.134   2.221 -1.5937 -0.0966 -3.0683
  704SOL     OW 2110   0.942   2.509   0.939  0.6584 -0.3222  1.0516
  704SOL    HW1 2111   0.847   2.551   0.950  0.1975  1.8327  1.0156
  704SOL    HW2 2112   0.988   2.500   1.027 -0.6361 -0.1013 -0.1480
  705SOL     OW 2113   0.133   0.902   2.320  0.5017  0.4654 -0.1575
  705SOL    HW1 2114   0.202   0.829   2.348 -1.2013 -1.1284 -1.2039
  705SOL    HW2 2115   0.039   0.862   2.325  1.4380 -0.0494  0.3447
  706SOL     OW 2116   1.591   0.174   0.328  0.2959  0.7509  0.0704
  706SOL    HW1 2117   1.524   0.118   0.376  0.1852 -0.1263 -2.6963
  706SOL    HW2 2118   1.553   0.246   0.273  0.5808 -1.9245  0.8953
  707SOL     OW 2119   1.275   2.049   2.453 -0.4031 -0.9157 -0.1378
  707SOL    HW1 2120   1.207   2.006   2.516 -2.0410  2.6907  2.2069
  707SOL    HW2 2121   1.230   2.133   2.419  1.0437  1.4374  0.0383
  708SOL     OW 2122   2.923   2.169   1.428 -0.2370  0.3982 -0.1912
  708SOL    HW1 2123   2.835   2.118   1.413 -0.3624  1.8375 -0.6068
  708SOL    HW2 2124   2.981   2.115   1.491  0.2832  1.3621 -0.9447
  709SOL     OW 2125   2.002   0.340   1.794 -0.6988  0.5079 -0.4199
  709SOL    HW1 2126   2.074   0.347   1.865 -0.6049 -0.1490  1.2229
  709SOL    HW2 2127   1.984   0.425   1.737 -1.0037  0.4583  0.1609
  710SOL     OW 2128   2.889   3.009   1.326 -0.1677  0.1471 -0.1992
  710SOL    HW1 2129   2.881   3.100   1.282  2.6942 -0.9536  2.9428
  710SOL    HW2 2130   2.915   2.932   1.265  1.8413  3.7494  2.6976
  711SOL     OW 2131   0.346   2.481   0.648  0.1827 -0.1485  0.4274
  711SOL    HW1 2132   0.402   2.418   0.705  1.2523 -0.8245 -1.2808
  711SOL    HW2 2133   0.283   2.433   0.586 -0.1547 -0.0299 -2.7295
  712SOL     OW 2134   0.362   2.013   2.256 -0.1672 -0.8734  0.0108
  712SOL    HW1 2135   0.442   2.076   2.266 -0.8455 -0.8533 -0.1717
  712SOL    HW2 2136   0.394   1.921   2.268  1.0184  1.2145  1.5075
  713SOL     OW 2137   1.928   0.671   0.273 -0.2385  0.2819 -0.2074
  713SOL    HW1 2138   1.872   0.593   0.307 -1.0947  0.3924  1.1964
  713SOL    HW2 2139   1.888   0.716   0.194 -1.2769  1.4504  3.3336
  714SOL     OW 2140   1.316   1.940   0.272  0.3352 -0.6535 -0.1474
  714SOL    HW1 2141   1.218   1.913   0.293 -1.7124  0.9289 -1.1651
  714SOL    HW2 2142   1.322   2.029   0.224  2.9779 -2.0975  1.4242
  715SOL     OW 2143   2.277   3.056   0.728 -0.2606  0.2826 -0.0783
  715SOL    HW1 2144   2.342   0.016   0.731 -0.0297  0.9688 -0.2927
  715SOL    HW2 2145   2.251   3.032   0.823  0.6973  1.0551  3.2155
  716SOL     OW 2146   0.641   0.871   2.230 -0.2512  0.1378  0.1219
  716SOL    HW1 2147   0.657   0.857   2.330 -0.1355 -1.0027  2.5529
  716SOL    HW2 2148   0.574   0.941   2.194 -0.4755  0.8976 -1.6980
  717SOL     OW 2149   0.203   0.670   2.887  0.1848 -0.2141 -0.1218
  717SOL    HW1 2150   0.161   0.703   2.799  0.3712  1.8511 -3.2458
  717SOL    HW2 2151   0.138   0.617   2.941  1.7125 -0.6577  0.3998
  718SOL     OW 2152   1.147   0.828   0.199  0.3806  0.2441  0.1466
  718SOL    HW1 2153   1.204   0.824   0.112  1.7705 -0.0340 -0.9526
  718SOL    HW2 2154   1.174   0.766   0.278 -0.1644 -3.9474  1.9454
  719SOL     OW 2155   2.761   2.218   2.865 -0.0004 -0.7190  0.1227
  719SOL    HW1 2156   2.700   2.154   2.914  0.7904  1.8591 -1.7882
  719SOL    HW2 2157   2.813   2.161   2.801 -1.5705  0.7744  2.5880
  720SOL     OW 2158   1.474   0.961   1.093  0.5004 -0.1027  0.1851
  720SOL    HW1 2159   1.395   0.965   1.025 -1.9322 -0.4241 -0.8389
  720SOL    HW2 2160   1.545   0.897   1.062 -2.2680  1.2078  0.5643
  721SOL     OW 2161   2.798   0.605   0.609  0.0330  0.2514 -0.4532
  721SOL    HW1 2162   2.709   0.652   0.607  0.4663 -0.2754 -2.2645
  721SOL    HW2 2163   2.865   0.658   0.667 -0.1095  1.2387  2.1800
  722SOL     OW 2164   1.087   1.919   2.630 -0.4010 -0.2443  0.1369
  722SOL    HW1 2165   1.061   1.856   2.709 -3.4780  2.3648  1.1944
  722SOL    HW2 2166   1.004   1.968   2.599 -1.4747  1.0908 -0.4237
  723SOL     OW 2167   0.398   0.948   0.436  0.5931 -0.3103  0.2099
  723SOL    HW1 2168   0.469   1.023   0.423  0.4109  0.6063 -2.0263
  723SOL    HW2 2169   0.306   0.992   0.434  1.2989  1.8916  0.1427
  724SOL     OW 2170   0.966   1.955   1.820  0.2371 -0.5584 -0.1159
  724SOL    HW1 2171   1.064   1.977   1.821 -0.1935 -0.6039  0.7789
  724SOL    HW2 2172   0.938   1.908   1.908 -1.7862  1.9710  2.3757
  725SOL     OW 2173   3.088   1.016   1.299 -0.2071  0.2358  0.5081
  725SOL    HW1 2174   0.054   0.967   1.271 -0.0068  0.3875  0.1592
  725SOL    HW2 2175   3.102   1.087   1.368 -2.6528 -1.6006  0.9795
  726SOL     OW 2176   1.831   0.237   0.448 -0.6855  0.5545  0.1534
  726SOL    HW1 2177   1.742   0.203   0.417 -0.9140 -2.3525  0.9135
  726SOL    HW2 2178   1.837   0.273   0.548  3.0108 -0.1611  2.2304
  727SOL     OW 2179   1.452   0.924   2.321  0.0487 -0.4731  0.7526
  727SOL    HW1 2180   1.441   1.029   2.319 -0.6098  0.7251 -1.5077
  727SOL    HW2 2181   1.498   0.885   2.237  1.8858 -2.8739 -1.4766
  728SOL     OW 2182   1.533   2.435   1.537 -0.1823 -0.4407  0.2169
  728SOL    HW1 2183   1.549   2.337   1.527 -0.6483  0.9065  0.0346
  728SOL    HW2 2184   1.615   2.493   1.532 -0.3321  0.2189  2.4261
  729SOL     OW 2185   1.473   0.675   1.396  0.1107 -0.0353 -0.4897
  729SOL    HW1 2186   1.423   0.614   1.328  0.4966 -2.9099 -1.1170
  729SOL    HW2 2187   1.560   0.709   1.357 -0.7593 -1.7984 -0.6449
  730SOL     OW 2188   0.802   1.908   2.063 -0.2070  0.0850 -0.3800
  730SOL    HW1 2189   0.863   1.963   2.125  0.2389 -0.7828  0.4829
  730SOL    HW2 2190   0.721   1.959   2.026 -0.7581 -1.0548  1.9063
  731SOL     OW 2191   0.535   0.361   0.201 -0.0651  0.3506  0.2069
  731SOL    HW1 2192   0.489   0.414   0.273  3.0795  0.4538  0.7527
  731SOL    HW2 2193   0.473   0.318   0.132  1.6163  0.7683  0.6188
  732SOL     OW 2194   0.679   0.519   2.948  0.4946  0.0645  0.4926
  732SOL    HW1 2195   0.733   0.451   2.999 -3.1596 -0.7341  1.8288
  732SOL    HW2 2196   0.584   0.530   2.986 -0.4261  1.1723  2.1847
  733SOL     OW 2197   1.581   2.161   1.514 -0.2486 -0.2157 -0.6870
  733SOL    HW1 2198   1.519   2.104   1.462 -0.3930  1.5946 -0.1902
  733SOL    HW2 2199   1.573   2.144   1.614  2.3704  0.0068 -2.4540
  734SOL     OW 2200   0.042   2.641   2.653  0.3401  0.0321 -0.2086
  734SOL    HW1 2201   0.038   2.542   2.651 -0.8023 -0.1065  0.4260
  734SOL    HW2 2202   3.077   2.687   2.686  0.2877  2.2390 -1.1555
  735SOL     OW 2203   0.742   2.837   0.872 -0.0038  0.4277 -0.4442
  735SOL    HW1 2204   0.816   2.906   0.884 -0.0818  1.1708 -0.0064
  735SOL    HW2 2205   0.736   2.807   0.776 -0.6754 -1.2939  1.6235
  736SOL     OW 2206   1.623   1.052   2.721 -0.5218  0.1417  0.2275
  736SOL    HW1 2207   1.543   1.019   2.674  2.0253  1.1877  1.8982
  736SOL    HW2 2208   1.600   1.068   2.819 -0.8109  0.0620 -0.9673
  737SOL     OW 2209   0.143   0.391   0.546 -0.2889 -0.2012  0.2658
  737SOL    HW1 2210   0.181   0.311   0.496 -1.5081  1.9185 -0.0211
  737SOL    HW2 2211   0.050   0.379   0.583 -0.8849  0.5951  1.4448
  738SOL     OW 2212   2.841   2.233   1.182  0.1924 -0.0406  0.0349
  738SOL    HW1 2213   2.747   2.259   1.220 -0.7866 -1.4041  1.9422
  738SOL    HW2 2214   2.895   2.192   1.258  0.6066 -0.2498 -2.4171
  739SOL     OW 2215   1.659   2.773   0.530 -0.7136 -0.1502 -0.3835
  739SOL    HW1 2216   1.575   2.791   0.585  3.8241  1.1366  1.2823
  739SOL    HW2 2217   1.737   2.819   0.581  3.7476  0.3491  0.3987
  740SOL     OW 2218   1.417   3.001   1.137  0.1507  0.1263 -0.1603
  740SOL    HW1 2219   1.342   2.986   1.070 -0.2831 -0.2048 -1.9355
  740SOL    HW2 2220   1.473   2.915   1.140 -0.2216  0.0147  2.2967
  741SOL     OW 2221   2.440   0.159   0.701 -0.3250  0.1806 -0.2490
  741SOL    HW1 2222   2.531   0.144   0.653  0.0636 -1.0978 -2.5166
  741SOL    HW2 2223   2.423   0.258   0.717 -0.4137  0.2862 -0.1558
  742SOL     OW 2224   1.472   2.215   2.108 -0.4484  0.1887 -0.3873
  742SOL    HW1 2225   1.538   2.204   2.184 -2.0616  0.0965  0.0874
  742SOL    HW2 2226   1.473   2.309   2.067  0.4343 -2.3415  1.4619
  743SOL     OW 2227   2.398   0.445   1.764  0.1992 -0.0670 -0.0284
  743SOL    HW1 2228   2.339   0.430   1.852 -1.1284 -2.3698  3.6289
  743SOL    HW2 2229   2.406   0.544   1.732  0.3625 -0.3380 -0.8804
  744SOL     OW 2230   2.265   0.306   1.093 -0.3205 -0.5576 -0.6492
  744SOL    HW1 2231   2.341   0.350   1.039  5.6793  0.7843  1.5849
  744SOL    HW2 2232   2.237   0.366   1.174  1.2535  3.4636  0.1396
  745SOL     OW 2233   2.186   1.546   1.831  0.0893 -0.5730  0.5957
  745SOL    HW1 2234   2.117   1.551   1.911 -1.2981 -3.1731  3.0135
  745SOL    HW2 2235   2.255   1.622   1.832  0.8310  0.4955 -0.2259
  746SOL     OW 2236   1.101   1.506   0.962  0.1577 -0.8485 -0.2252
  746SOL    HW1 2237   1.044   1.584   0.917 -0.1927 -0.3850  0.0495
  746SOL    HW2 2238   1.149   1.542   1.047  0.8343  1.5971  3.7488
  747SOL     OW 2239   1.654   1.276   1.027  0.1690  0.6328 -0.0281
  747SOL    HW1 2240   1.611   1.233   1.107 -1.2851  1.8490  0.0532
  747SOL    HW2 2241   1.752   1.294   1.040 -0.1855  0.9692 -1.8283
  748SOL     OW 2242   3.076   0.102   0.389  0.0860 -0.1852  0.1154
  748SOL    HW1 2243   3.058   0.159   0.308 -1.2271 -3.4510 -0.6572
  748SOL    HW2 2244   0.047   0.138   0.420 -0.3116  0.8053  1.0400
  749SOL     OW 2245   0.226   0.332   2.063  0.1344  0.2983  0.3669
  749SOL    HW1 2246   0.330   0.346   2.050  2.4492 -0.2872 -2.8830
  749SOL    HW2 2247   0.174   0.411   2.032 -1.4476  0.4775  1.3963
  750SOL     OW 2248   1.936   2.983   1.727 -0.6326 -0.0490  1.3049
  750SOL    HW1 2249   1.935   3.082   1.702  2.3904  0.6276 -0.9404
  750SOL    HW2 2250   1.842   2.944   1.739 -2.0034 -0.0632  0.4769
  751SOL     OW 2251   2.967   0.258   0.778  0.0741  0.3454  0.2937
  751SOL    HW1 2252   2.975   0.313   0.691  0.0129 -1.1851  1.8105
  751SOL    HW2 2253   2.878   0.278   0.822  1.1478 -0.0113 -1.0136
  752SOL     OW 2254   0.273   2.880   0.928 -0.2109 -0.4273 -0.1740
  752SOL    HW1 2255   0.328   2.792   0.911 -0.7605 -0.3806  0.2685
  752SOL    HW2 2256   0.189   2.883   0.875  2.8965 -2.0010  0.2409
  753SOL     OW 2257   1.111   0.273   1.725  0.2121 -0.2657  0.4317
  753SOL    HW1 2258   1.061   0.350   1.681  0.6838  0.5342  1.6805
  753SOL    HW2 2259   1.205   0.271   1.686  1.9930 -3.1830 -0.8430
  754SOL     OW 2260   1.149   2.716   2.016 -0.0247 -0.0493 -0.7421
  754SOL    HW1 2261   1.227   2.769   2.041 -1.3575 -2.4133 -2.7948
  754SOL    HW2 2262   1.061   2.760   2.046  0.9706  1.0958 -1.1502
  755SOL     OW 2263   2.578   1.010   0.632 -0.4095  0.0778  0.6522
  755SOL    HW1 2264   2.632   1.073   0.693  3.1230 -0.0696 -0.3448
  755SOL    HW2 2265   2.581   1.046   0.538  0.5595  0.2857  0.1933
  756SOL     OW 2266   1.997   1.894   2.511 -0.2834 -0.1399  0.3663
  756SOL    HW1 2267   1.910   1.931   2.547 -0.3759 -1.7844 -0.6809
  756SOL    HW2 2268   2.072   1.962   2.518 -0.7395 -1.0668 -0.5803
  757SOL     OW 2269   1.907   0.012   0.977  0.1035 -0.1540 -0.1263
  757SOL    HW1 2270   1.809   0.008   1.003  3.1699 -0.0277  3.0228
  757SOL    HW2 2271   1.918   3.099   0.882 -1.0696  1.8142  0.6198
  758SOL     OW 2272   1.133   2.741   0.762 -0.2274 -0.1476 -0.1658
  758SOL    HW1 2273   1.055   2.677   0.772 -0.0311  2.4735  2.5179
  758SOL    HW2 2274   1.109   2.821   0.706  0.3047 -0.8345 -0.2422
  759SOL     OW 2275   2.826   0.508   1.300 -0.1224  0.0760  0.0802
  759SOL    HW1 2276   2.782   0.507   1.207 -3.1416  2.7572 -0.1923
  759SOL    HW2 2277   2.790   0.442   1.365  2.5661 -2.6012 -2.6709
  760SOL     OW 2278   2.098   1.179   1.424 -0.4005  0.2591  0.4718
  760SOL    HW1 2279   2.197   1.175   1.403 -0.9250  0.3337 -0.5076
  760SOL    HW2 2280   2.082   1.231   1.505 -1.8148 -0.6535  0.1369
  761SOL     OW 2281   0.563   1.025   0.704 -0.1751 -0.4510 -0.0519
  761SOL    HW1 2282   0.477   1.018   0.763 -2.8646 -1.9113 -1.1434
  761SOL    HW2 2283   0.639   0.970   0.740 -0.1908  2.7051  0.0430
  762SOL     OW 2284   2.124   1.733   1.390  0.4937  0.2747 -0.6309
  762SOL    HW1 2285   2.160   1.708   1.299 -0.2838  0.5218  2.6781
  762SOL    HW2 2286   2.021   1.741   1.379 -0.6721  0.5916 -2.9004
  763SOL     OW 2287   1.104   1.620   1.802  0.0101  0.0044 -0.1318
  763SOL    HW1 2288   1.058   1.638   1.711  1.2554 -0.0659  0.2411
  763SOL    HW2 2289   1.136   1.703   1.856  3.2767  2.0708 -0.9270
  764SOL     OW 2290   0.071   1.968   2.157  0.4828  0.3228 -0.0847
  764SOL    HW1 2291   0.024   2.059   2.159 -2.0418  1.3679  0.2555
  764SOL    HW2 2292   0.169   1.985   2.173 -2.5635 -1.1558 -1.5949
  765SOL     OW 2293   1.350   2.395   1.311 -0.4296 -0.1845  0.1419
  765SOL    HW1 2294   1.289   2.454   1.363  1.1341 -0.1853 -1.1595
  765SOL    HW2 2295   1.444   2.413   1.348  1.8597  1.0221 -0.3463
  766SOL     OW 2296   0.521   2.251   2.559 -0.6559  0.0977 -0.0077
  766SOL    HW1 2297   0.545   2.170   2.622  0.8609 -2.2331  2.1056
  766SOL    HW2 2298   0.532   2.339   2.610  0.0285 -1.9918  0.0842
  767SOL     OW 2299   1.418   0.947   2.600  0.4772  0.1022  0.5695
  767SOL    HW1 2300   1.358   0.880   2.649  0.7449  0.3239  0.8802
  767SOL    HW2 2301   1.432   0.914   2.506 -0.8948 -0.4119  2.6999
  768SOL     OW 2302   1.321   2.524   3.060  0.1029 -0.5892  0.9732
  768SOL    HW1 2303   1.252   2.473   3.003  1.1329 -2.0959  3.0280
  768SOL    HW2 2304   1.413   2.492   3.031  2.6535 -2.7659  1.5627
  769SOL     OW 2305   3.043   2.696   1.397 -0.2944  0.3899  0.1405
  769SOL    HW1 2306   2.989   2.723   1.314  0.0806  1.8224 -1.1310
  769SOL    HW2 2307   0.022   2.699   1.377 -5.2960 -0.8221  0.6794
  770SOL     OW 2308   1.108   0.362   2.794 -0.2799 -0.0217  0.0952
  770SOL    HW1 2309   1.006   0.337   2.782  0.0566 -0.1723 -0.8182
  770SOL    HW2 2310   1.116   0.436   2.861 -1.6765  1.3039 -2.7132
  771SOL     OW 2311   0.511   0.163   2.421  0.4421 -0.0808 -0.2233
  771SOL    HW1 2312   0.446   0.114   2.358 -2.2724  0.5457  0.4924
  771SOL    HW2 2313   0.480   0.258   2.430 -0.0540 -1.3563 -2.5588
  772SOL     OW 2314   2.492   0.055   2.063 -0.1299  0.6834 -0.3171
  772SOL    HW1 2315   2.533   0.128   2.005 -1.7475 -2.6122  1.1549
  772SOL    HW2 2316   2.545   3.087   2.053  1.3190  0.7800 -0.5013
  773SOL     OW 2317   0.967   2.338   1.857  0.0465 -0.1790 -0.1190
  773SOL    HW1 2318   1.008   2.379   1.939 -0.3517  2.4143 -4.2729
  773SOL    HW2 2319   0.875   2.304   1.882  0.5866  0.0064  0.3835
  774SOL     OW 2320   1.187   0.365   1.973  0.0724 -0.1373  0.4672
  774SOL    HW1 2321   1.281   0.321   1.959 -0.3657 -1.1225 -2.9625
  774SOL    HW2 2322   1.134   0.334   1.892  1.1562  0.4234  0.2475
  775SOL     OW 2323   2.143   2.971   2.924 -0.0761  0.7267  0.4451
  775SOL    HW1 2324   2.042   2.980   2.940 -0.8564  2.7732 -0.3996
  775SOL    HW2 2325   2.172   3.033   2.848 -3.3335  1.2488  1.3776
  776SOL     OW 2326   2.008   0.464   2.386  0.4624 -0.0625 -0.0694
  776SOL    HW1 2327   2.022   0.545   2.326  1.0842 -0.1459  0.7846
  776SOL    HW2 2328   1.970   0.389   2.327  1.6900 -1.0557 -1.6763
  777SOL     OW 2329   2.498   0.990   2.623  0.0801 -0.3835 -0.5971
  777SOL    HW1 2330   2.560   1.060   2.582  0.1599 -1.0650 -1.2450
  777SOL    HW2 2331   2.401   1.005   2.590 -0.4079 -1.0190 -2.4451
  778SOL     OW 2332   1.969   0.640   2.183 -0.4379  0.1261  0.3909
  778SOL    HW1 2333   2.011   0.683   2.107  1.1889 -5.4429  2.0875
  778SOL    HW2 2334   1.883   0.598   2.148  4.0243 -2.5963 -1.4916
  779SOL     OW 2335   3.085   0.262   0.175  0.0078 -0.0945 -0.0466
  779SOL    HW1 2336   0.060   0.301   0.165  0.4540  2.3765  1.1764
  779SOL    HW2 2337   3.055   0.223   0.083  2.3575  0.3819 -3.6964
  780SOL     OW 2338   2.268   0.401   3.018 -0.1384 -0.5474  0.2642
  780SOL    HW1 2339   2.300   0.383   2.925  1.9065 -0.1460 -0.0464
  780SOL    HW2 2340   2.262   0.503   3.029  3.4179 -1.1997 -0.6897
  781SOL     OW 2341   0.377   2.852   1.405  0.3279  0.1401  0.0380
  781SOL    HW1 2342   0.418   2.882   1.316  0.3306  0.3595 -1.8763
  781SOL    HW2 2343   0.293   2.796   1.386 -1.4633  0.5115 -0.6256
  782SOL     OW 2344   2.080   2.540   0.289  0.3477  0.4520 -0.3262
  782SOL    HW1 2345   2.102   2.517   0.388 -1.5527 -0.6035 -0.1793
  782SOL    HW2 2346   2.031   2.630   0.280  0.8234 -0.0561  0.6873
  783SOL     OW 2347   0.803   1.334   1.599  0.2961 -0.0032 -0.0570
  783SOL    HW1 2348   0.845   1.291   1.518  0.5889 -1.3500  0.4591
  783SOL    HW2 2349   0.735   1.275   1.651 -2.2625 -0.6209  1.1605
  784SOL     OW 2350   1.588   0.843   2.082 -0.1782 -0.4362 -0.2356
  784SOL    HW1 2351   1.673   0.900   2.089 -0.6516  0.4275  0.8948
  784SOL    HW2 2352   1.618   0.750   2.062 -0.0071  0.7736  0.7915
  785SOL     OW 2353   2.649   0.063   0.989  0.2277  0.0153  0.4044
  785SOL    HW1 2354   2.556   0.076   1.028 -1.1083  1.3156 -0.7429
  785SOL    HW2 2355   2.646   3.115   0.909 -1.6423 -0.4179 -3.2310
  786SOL     OW 2356   1.659   2.793   1.415 -0.1154 -0.7419 -0.1467
  786SOL    HW1 2357   1.752   2.761   1.388  1.5691  2.3605 -1.9340
  786SOL    HW2 2358   1.585   2.765   1.349  0.3148  0.1847 -1.2936
  787SOL     OW 2359   1.438   0.048   1.368  0.0637  0.1856  0.1784
  787SOL    HW1 2360   1.374   0.033   1.448 -0.1445 -1.4990  0.9403
  787SOL    HW2 2361   1.416   3.103   1.294  0.0331  1.5774  1.4466
  788SOL     OW 2362   2.970   1.072   0.136  0.2294 -0.6512  0.2389
  788SOL    HW1 2363   2.972   1.031   0.045  0.1885  0.1465 -3.0270
  788SOL    HW2 2364   2.983   1.006   0.209  0.7638 -0.9698 -2.5938
  789SOL     OW 2365   0.514   1.285   1.905 -0.0478 -0.0293  0.3330
  789SOL    HW1 2366   0.540   1.338   1.987 -0.2917  0.5492 -2.1622
  789SOL    HW2 2367   0.454   1.341   1.844  2.5853 -2.4310  1.4444
  790SOL     OW 2368   0.333   0.613   2.592  0.1216  0.0898 -0.4751
  790SOL    HW1 2369   0.400   0.654   2.658 -0.7240 -2.7287 -0.0178
  790SOL    HW2 2370   0.246   0.663   2.598  1.7823 -0.1148  2.4079
  791SOL     OW 2371   2.153   0.733   0.523  0.4034  0.1868  0.0095
  791SOL    HW1 2372   2.077   0.788   0.479  0.0707 -1.6143 -0.1913
  791SOL    HW2 2373   2.131   0.722   0.623 -1.2288 -0.2362  0.7751
  792SOL     OW 2374   1.076   2.926   1.441 -0.2125 -0.4694  0.6209
  792SOL    HW1 2375   1.065   2.890   1.346 -0.8716  1.2454  0.2021
  792SOL    HW2 2376   1.064   3.026   1.441  0.1096 -3.0431  0.0279
  793SOL     OW 2377   0.374   2.995   1.153 -0.0082 -0.2066 -0.0047
  793SOL    HW1 2378   0.324   2.943   1.081 -1.0314 -0.3336 -0.7816
  793SOL    HW2 2379   0.306   3.052   1.202 -0.7862 -1.2228 -0.1355
  794SOL     OW 2380   0.309   0.726   2.346  0.2596  0.3974 -0.2778
  794SOL    HW1 2381   0.312   0.655   2.422 -0.9026 -2.0912  1.9089
  794SOL    HW2 2382   0.390   0.723   2.287 -3.4616  1.7693  3.5656
  795SOL     OW 2383   0.505   2.533   2.693 -0.1218  0.6967  0.0372
  795SOL    HW1 2384   0.591   2.552   2.742  2.2437 -0.2109  1.9721
  795SOL    HW2 2385   0.477   2.615   2.647  1.5292 -3.9417 -0.5609
  796SOL     OW 2386   2.274   0.545   2.515 -0.3004 -0.1258 -0.0352
  796SOL    HW1 2387   2.256   0.634   2.565  0.4542  1.2293 -1.3673
  796SOL    HW2 2388   2.194   0.522   2.455 -1.1009  2.2350 -0.6257
  797SOL     OW 2389   2.593   2.628   2.460 -0.3157  0.3721 -0.0528
  797SOL    HW1 2390   2.692   2.658   2.471  0.8271 -1.5577 -2.5728
  797SOL    HW2 2391   2.537   2.657   2.542  1.4569  0.9627  3.5971
  798SOL     OW 2392   0.350   0.533   1.722  0.1792 -0.9476 -0.5741
  798SOL    HW1 2393   0.399   0.532   1.812 -0.1652 -1.4835 -0.3634
  798SOL    HW2 2394   0.296   0.449   1.719  1.0432  1.1813 -2.9640
  799SOL     OW 2395   0.658   2.928   1.993 -0.2646  0.0161 -0.5303
  799SOL    HW1 2396   0.667   3.021   2.040  1.2990  2.4961 -1.8197
  799SOL    HW2 2397   0.564   2.914   1.950 -2.4146  0.2568 -1.9099
  800SOL     OW 2398   0.086   2.515   0.328 -0.3443 -0.4214  0.0298
  800SOL    HW1 2399   0.029   2.528   0.246  0.4599 -0.3789  0.1717
  800SOL    HW2 2400   0.179   2.547   0.302  1.6427 -1.0999  0.5792
  801SOL     OW 2401   1.768   1.793   0.892  0.1860 -0.1587  0.3324
  801SOL    HW1 2402   1.735   1.820   0.802 -2.3199  0.7774  0.4933
  801SOL    HW2 2403   1.707   1.816   0.968  1.8282 -0.6088  0.2770
  802SOL     OW 2404   0.422   0.519   0.404  0.3885  0.0165 -0.1839
  802SOL    HW1 2405   0.330   0.484   0.438 -1.3043  0.1342  3.4414
  802SOL    HW2 2406   0.448   0.610   0.441 -1.3705 -0.9698 -0.9939
  803SOL     OW 2407   1.113   1.334   1.898 -0.0122  1.0418  0.5155
  803SOL    HW1 2408   1.039   1.350   1.970 -0.6363 -0.0407  2.3827
  803SOL    HW2 2409   1.139   1.424   1.863 -3.0058 -2.5755  4.5753
  804SOL     OW 2410   1.686   2.094   0.886  0.0552  0.2400 -0.7950
  804SOL    HW1 2411   1.741   2.060   0.966 -2.5663  3.3505 -2.2534
  804SOL    HW2 2412   1.670   2.022   0.820  3.8898  0.6008  2.0458
  805SOL     OW 2413   0.053   2.045   2.724  0.5475  0.1423  0.1797
  805SOL    HW1 2414   0.106   2.069   2.804  0.4230 -0.5996  0.1752
  805SOL    HW2 2415   0.120   2.052   2.650  0.3164  3.9149 -0.3605
  806SOL     OW 2416   0.462   2.439   0.336 -0.3181 -0.4250  0.4662
  806SOL    HW1 2417   0.539   2.382   0.309 -2.8593  0.7302  2.7511
  806SOL    HW2 2418   0.486   2.484   0.427  1.5453 -1.6020 -0.4508
  807SOL     OW 2419   2.182   1.437   2.714 -0.2273  0.4342  0.8928
  807SOL    HW1 2420   2.244   1.415   2.788  1.4490  0.2044  1.4415
  807SOL    HW2 2421   2.125   1.519   2.731  0.0979  3.3283 -0.0709
  808SOL     OW 2422   1.414   2.174   1.200  0.1280 -0.5387  0.0298
  808SOL    HW1 2423   1.395   2.096   1.263  0.8594  0.3627  0.5608
  808SOL    HW2 2424   1.371   2.262   1.236  0.2234  1.5944  2.3209
  809SOL     OW 2425   0.154   0.648   0.479 -0.2900 -0.5142 -0.2894
  809SOL    HW1 2426   0.157   0.714   0.561 -0.7457  0.9179  3.5194
  809SOL    HW2 2427   0.163   0.551   0.513  0.9354  0.2246 -0.8082
  810SOL     OW 2428   1.472   1.549   3.070 -0.3339 -0.3131  0.0161
  810SOL    HW1 2429   1.470   1.610   2.985  0.0336 -1.9964 -0.9327
  810SOL    HW2 2430   1.435   1.598   0.032  1.8427 -2.6209 -2.5670
  811SOL     OW 2431   1.643   2.334   1.185 -0.0406 -0.0108 -0.2684
  811SOL    HW1 2432   1.624   2.407   1.118  2.1860 -0.1271  1.9646
  811SOL    HW2 2433   1.561   2.278   1.191 -0.2138 -0.2269  1.3378
  812SOL     OW 2434   1.262   2.942   0.919 -0.1090 -0.3623  0.3480
  812SOL    HW1 2435   1.262   2.856   0.865  2.6027  1.1706 -0.8670
  812SOL    HW2 2436   1.174   2.985   0.935  2.5197 -3.6483  1.5799
  813SOL     OW 2437   1.002   0.034   1.771 -0.2220  0.3729 -0.3348
  813SOL    HW1 2438   1.069   0.110   1.761 -0.8732 -0.8352  0.7971
  813SOL    HW2 2439   0.906   0.071   1.771 -0.8309 -0.2151 -2.6740
  814SOL     OW 2440   1.097   2.434   2.106 -0.2423  0.1427  0.0375
  814SOL    HW1 2441   1.088   2.463   2.204 -2.1044 -1.8684  1.3595
  814SOL    HW2 2442   1.124   2.518   2.050  2.5701  2.3971 -1.4614
  815SOL     OW 2443   0.498   0.159   2.678  0.1241 -0.1674 -0.3053
  815SOL    HW1 2444   0.537   0.251   2.700 -0.6525  0.7382 -2.1878
  815SOL    HW2 2445   0.511   0.138   2.579  2.1450 -0.6279 -2.1187
  816SOL     OW 2446   2.273   1.208   0.086 -0.2249  1.0425  0.3518
  816SOL    HW1 2447   2.343   1.283   0.077 -1.4610  1.4223  2.1453
  816SOL    HW2 2448   2.312   1.120   0.052  0.0126  3.9981  2.2965
  817SOL     OW 2449   2.983   2.524   2.157 -0.0007 -0.3229  0.4251
  817SOL    HW1 2450   3.008   2.580   2.080 -0.5236 -0.8630  1.7475
  817SOL    HW2 2451   3.020   2.423   2.155  1.7569 -1.8898  0.2215
  818SOL     OW 2452   0.872   1.208   0.404 -0.2756  0.7568  0.0855
  818SOL    HW1 2453   0.880   1.308   0.393 -1.7623  1.4869 -0.2527
  818SOL    HW2 2454   0.890   1.165   0.313 -0.9081 -0.9611  1.7909
  819SOL     OW 2455   1.759   1.241   2.584  0.4614  0.1579 -0.3951
  819SOL    HW1 2456   1.749   1.225   2.482  1.4170  1.4941 -1.0321
  819SOL    HW2 2457   1.704   1.174   2.649 -1.1064 -2.5423  1.7411
  820SOL     OW 2458   0.435   1.209   0.090 -0.2126 -0.6886  0.0505
  820SOL    HW1 2459   0.460   1.253   0.178 -1.3315  3.6215  0.5355
  820SOL    HW2 2460   0.345   1.162   0.107  0.7386 -0.2514  2.6937
  821SOL     OW 2461   0.468   3.059   0.705 -0.3535 -0.9396  0.3802
  821SOL    HW1 2462   0.514   3.030   0.620 -0.5683  1.9337  1.1261
  821SOL    HW2 2463   0.487   2.995   0.782 -2.2715  0.6519  0.7509
  822SOL     OW 2464   2.338   2.404   2.687  0.4148  0.1645 -0.3615
  822SOL    HW1 2465   2.433   2.385   2.719 -1.2046  0.9210 -1.6068
  822SOL    HW2 2466   2.274   2.417   2.766 -0.5366 -0.0726  0.7696
  823SOL     OW 2467   1.309   0.469   2.638 -0.5128 -0.2696  0.6320
  823SOL    HW1 2468   1.404   0.434   2.652  2.4002  1.4701  1.1673
  823SOL    HW2 2469   1.242   0.416   2.692 -2.7791 -0.3249 -2.9258
  824SOL     OW 2470   2.459   2.786   1.551  0.0119  0.5115 -0.0742
  824SOL    HW1 2471   2.482   2.728   1.633 -0.0955 -0.5328  3.5935
  824SOL    HW2 2472   2.541   2.798   1.491 -1.8341  2.0168  2.1374
  825SOL     OW 2473   0.257   2.289   2.461 -0.1578  0.0099  0.2783
  825SOL    HW1 2474   0.248   2.326   2.365 -0.5223  0.7668 -1.9644
  825SOL    HW2 2475   0.352   2.264   2.490 -3.3360 -1.6221 -0.9024
  826SOL     OW 2476   1.654   0.441   0.080  0.0790  0.3308  0.6520
  826SOL    HW1 2477   1.695   0.456   0.172  0.5933  1.7637  1.3434
  826SOL    HW2 2478   1.703   0.490   0.002  1.0415 -0.2260 -1.9324
  827SOL     OW 2479   3.039   1.800   1.782 -0.4859 -0.0332  0.1829
  827SOL    HW1 2480   3.048   1.701   1.767  1.3132 -0.3589  2.1465
  827SOL    HW2 2481   2.952   1.821   1.830  3.0198 -1.0153  1.5584
  828SOL     OW 2482   0.190   0.013   1.290  0.1771 -0.1042  0.0500
  828SOL    HW1 2483   0.172   0.113   1.289 -1.6536 -1.0923  1.3482
  828SOL    HW2 2484   0.145   3.083   1.365  2.2726 -1.1428  1.1036
  829SOL     OW 2485   0.904   2.251   2.397 -0.3149  0.1629  0.0198
  829SOL    HW1 2486   0.857   2.191   2.459  0.7195  3.9925 -2.1595
  829SOL    HW2 2487   0.872   2.346   2.411  0.8163 -0.9038 -1.0539
  830SOL     OW 2488   0.720   0.780   1.616  0.7676  0.0603  0.0183
  830SOL    HW1 2489   0.743   0.679   1.608 -1.7077 -1.3431  0.4376
  830SOL    HW2 2490   0.617   0.794   1.623  0.5172 -0.6293  2.0025
  831SOL     OW 2491   2.589   2.025   2.976 -0.0929 -0.6303 -0.8055
  831SOL    HW1 2492   2.630   1.985   2.893  1.2479 -1.8552  0.3613
  831SOL    HW2 2493   2.592   1.958   3.049  0.7375 -0.5380 -0.6402
  832SOL     OW 2494   1.552   2.447   2.951 -0.4576 -0.1171  0.2271
  832SOL    HW1 2495   1.653   2.441   2.973 -2.0147 -0.1724 -0.5053
  832SOL    HW2 2496   1.533   2.409   2.861  1.1904  2.0225  0.7382
  833SOL     OW 2497   0.499   0.443   2.016  0.1029 -0.2260 -0.3917
  833SOL    HW1 2498   0.586   0.463   1.970 -2.7240  0.3374 -2.4572
  833SOL    HW2 2499   0.490   0.498   2.099 -0.9757 -1.3235 -1.3796
  834SOL     OW 2500   0.083   0.754   1.145  0.3054  0.0175  0.3731
  834SOL    HW1 2501   0.186   0.750   1.146 -3.1790  1.5096 -0.3369
  834SOL    HW2 2502   0.052   0.737   1.244  0.2844 -0.7942  0.8180
  835SOL     OW 2503   2.489   0.412   0.313  0.0437 -0.2945 -0.2303
  835SOL    HW1 2504   2.472   0.384   0.218  1.4135 -0.4530  0.1683
  835SOL    HW2 2505   2.444   0.505   0.328 -1.7696 -1.2667  1.1926
  836SOL     OW 2506   1.151   2.203   0.354  0.4486  0.5715 -0.0187
  836SOL    HW1 2507   1.130   2.149   0.439  0.7325 -1.5386  2.0789
  836SOL    HW2 2508   1.254   2.222   0.357  0.2433  3.9260 -0.1308
  837SOL     OW 2509   1.732   1.779   0.367 -0.0750  0.2256  0.2598
  837SOL    HW1 2510   1.782   1.798   0.284 -1.2643 -0.3572  2.0277
  837SOL    HW2 2511   1.676   1.695   0.367  0.8817  0.5350  0.0725
  838SOL     OW 2512   1.836   0.812   2.341  0.1080  0.0084 -0.1296
  838SOL    HW1 2513   1.894   0.758   2.281 -1.7036  0.5906  0.6647
  838SOL    HW2 2514   1.808   0.898   2.290  1.5005  1.2395 -0.3149
  839SOL     OW 2515   0.973   1.484   2.530 -1.0689  0.1901 -0.2641
  839SOL    HW1 2516   0.995   1.388   2.505  3.2934  2.1520 -2.2332
  839SOL    HW2 2517   1.048   1.544   2.508 -0.6184 -0.8030 -0.7419
  840SOL     OW 2518   0.945   1.538   3.078 -0.3100 -0.5295 -0.2808
  840SOL    HW1 2519   0.920   1.453   0.012 -1.0070  4.3777  0.3815
  840SOL    HW2 2520   0.867   1.573   3.027  0.9470  1.9161 -4.0573
  841SOL     OW 2521   1.560   2.316   0.164 -0.0247 -0.9174  0.6247
  841SOL    HW1 2522   1.580   2.372   0.245  0.3259  0.8791  2.6828
  841SOL    HW2 2523   1.597   2.366   0.088 -1.7966 -2.0322 -0.2897
  842SOL     OW 2524   0.162   0.487   0.240  0.1535 -0.4176  0.3187
  842SOL    HW1 2525   0.237   0.515   0.181 -1.2083  0.2443  0.9925
  842SOL    HW2 2526   0.156   0.550   0.319  1.8101 -0.6379 -1.9494
  843SOL     OW 2527   0.668   0.413   0.957 -0.0347  0.4814 -0.4112
  843SOL    HW1 2528   0.652   0.318   0.929  0.8770  1.6780  0.4437
  843SOL    HW2 2529   0.737   0.424   1.034  0.7076  1.4000 -0.5339
  844SOL     OW 2530   2.192   2.684   2.375  0.2727 -0.2439 -0.1398
  844SOL    HW1 2531   2.191   2.586   2.413 -4.0344 -1.6504 -0.3074
  844SOL    HW2 2532   2.141   2.687   2.289 -4.4926 -0.5838  3.7106
  845SOL     OW 2533   3.097   2.653   1.669  0.7136  0.6090  0.4346
  845SOL    HW1 2534   3.005   2.654   1.712 -0.5078 -1.1807  0.1510
  845SOL    HW2 2535   3.098   2.662   1.570  1.8135 -2.0515  0.0560
  846SOL     OW 2536   1.982   1.430   2.425 -0.7892  0.1836 -0.7723
  846SOL    HW1 2537   1.896   1.451   2.474  1.7679 -1.4147  0.2631
  846SOL    HW2 2538   1.965   1.412   2.324 -1.4967  1.7752 -2.0263
  847SOL     OW 2539   0.137   0.564   1.968 -0.4083 -0.6018 -0.1923
  847SOL    HW1 2540   0.089   0.584   1.878  1.2858  0.6966  1.2291
  847SOL    HW2 2541   0.187   0.644   2.012 -0.0501 -1.4831  3.8485
  848SOL     OW 2542   2.592   2.819   2.737  0.4012 -0.6543 -0.1348
  848SOL    HW1 2543   2.654   2.883   2.782 -1.0220 -0.2194 -1.9735
  848SOL    HW2 2544   2.535   2.864   2.667  0.9002 -0.6720 -0.1782
  849SOL     OW 2545   0.259   2.911   0.488 -0.5034  0.3226  0.0357
  849SOL    HW1 2546   0.346   2.945   0.529  2.3145  0.2835 -0.6975
  849SOL    HW2 2547   0.188   2.900   0.563  4.3510  0.4217  1.1739
  850SOL     OW 2548   0.719   2.265   0.278 -0.1084 -0.1301 -0.1772
  850SOL    HW1 2549   0.738   2.307   0.185  0.0765 -0.9536 -0.0905
  850SOL    HW2 2550   0.788   2.296   0.347  1.4808 -0.7016 -0.6266
  851SOL     OW 2551   1.757   0.623   2.753  0.1849 -0.1050  0.0261
  851SOL    HW1 2552   1.692   0.654   2.679 -0.1777 -1.1834 -0.5408
  851SOL    HW2 2553   1.805   0.539   2.725  1.6637  2.9758 -0.1506
  852SOL     OW 2554   1.710   2.525   2.624 -0.4090  0.0391  0.5898
  852SOL    HW1 2555   1.757   2.442   2.650 -2.9206  0.5958  3.5339
  852SOL    HW2 2556   1.766   2.614   2.622  0.3039  2.2839  1.9292
  853SOL     OW 2557   3.115   2.649   0.095  0.0863 -0.1839 -0.6137
  853SOL    HW1 2558   0.090   2.627   0.059  0.0042 -0.9716 -0.4726
  853SOL    HW2 2559   3.039   2.609   0.037 -0.1226  1.0368  1.6017
  854SOL     OW 2560   1.540   0.576   2.324  0.5409 -0.0142 -0.0141
  854SOL    HW1 2561   1.443   0.571   2.285 -1.7725 -0.6276  1.8678
  854SOL    HW2 2562   1.552   0.660   2.382 -0.4457  2.1789 -0.1982
  855SOL     OW 2563   0.440   2.717   0.534  0.0133 -0.3058  0.0485
  855SOL    HW1 2564   0.398   2.637   0.584  0.2673  0.7431  1.6228
  855SOL    HW2 2565   0.366   2.761   0.477 -0.5136  0.0632 -2.4371
  856SOL     OW 2566   0.266   2.694   2.805  0.2413 -0.4219 -0.0443
  856SOL    HW1 2567   0.340   2.743   2.754 -0.1798  3.1806 -1.1801
  856SOL    HW2 2568   0.191   2.666   2.743 -1.9092 -2.4048  0.7523
  857SOL     OW 2569   1.251   2.918   1.752  0.0791 -0.3114 -0.4730
  857SOL    HW1 2570   1.322   2.846   1.751 -0.0519 -0.9602 -1.4776
  857SOL    HW2 2571   1.159   2.876   1.742 -2.6736 -0.2407 -0.0604
  858SOL     OW 2572   3.032   1.943   1.523  0.4730 -0.0175  0.1744
  858SOL    HW1 2573   3.054   1.928   1.619 -1.1009  0.1101  0.8058
  858SOL    HW2 2574   2.966   1.871   1.494 -0.1829  1.2595 -1.5020
  859SOL     OW 2575   1.871   2.434   2.129  1.1061 -0.1791 -0.1927
  859SOL    HW1 2576   1.830   2.398   2.047  2.4303  0.1805 -1.3244
  859SOL    HW2 2577   1.812   2.435   2.211  0.8473 -0.2770 -1.7077
  860SOL     OW 2578   1.412   0.292   0.575  0.1542  0.2364 -0.2227
  860SOL    HW1 2579   1.497   0.306   0.632  1.7169 -1.0980 -1.2239
  860SOL    HW2 2580   1.339   0.360   0.592  2.5967  1.9347  0.1960
  861SOL     OW 2581   2.766   0.548   1.008  0.1436 -0.1433  0.4072
  861SOL    HW1 2582   2.742   0.463   0.958  0.2480  1.0008 -1.4522
  861SOL    HW2 2583   2.864   0.574   1.006  0.3990  0.2349 -1.4361
  862SOL     OW 2584   1.710   0.582   2.107 -0.0761 -0.4234 -0.4686
  862SOL    HW1 2585   1.648   0.567   2.184  1.7214 -0.7686 -1.4691
  862SOL    HW2 2586   1.699   0.507   2.042  1.4699 -0.0869  1.6548
  863SOL     OW 2587   0.600   0.669   0.963 -0.1439 -0.1732  0.0663
  863SOL    HW1 2588   0.652   0.586   0.937 -1.8419  2.3922 -2.4051
  863SOL    HW2 2589   0.596   0.677   1.064  0.6671 -2.0114 -0.8188
  864SOL     OW 2590   0.195   2.918   2.079  0.3916  0.1245 -0.5661
  864SOL    HW1 2591   0.153   2.852   2.141  1.3713  3.0396 -0.2042
  864SOL    HW2 2592   0.129   2.928   2.003  1.9258  1.1898 -0.0500
  865SOL     OW 2593   1.081   1.207   2.445 -0.2210 -0.2359  0.2070
  865SOL    HW1 2594   1.100   1.154   2.362 -0.2330 -1.3739 -0.1649
  865SOL    HW2 2595   1.013   1.155   2.499  3.8761  1.2784 -0.2739
  866SOL     OW 2596   3.017   3.106   0.141 -0.1810  0.7749  0.0701
  866SOL    HW1 2597   3.036   3.109   0.239  0.6126  1.8290 -0.4239
  866SOL    HW2 2598   3.082   3.035   0.097 -0.4032 -1.1251 -1.2605
  867SOL     OW 2599   2.954   2.806   2.947 -0.5516  0.4340  0.1539
  867SOL    HW1 2600   2.954   2.705   2.973  1.7823 -3.0010  0.4520
  867SOL    HW2 2601   2.889   2.857   3.004  2.4058 -2.4629 -4.7071
  868SOL     OW 2602   1.614   1.139   2.985  0.5677  0.1981  0.1207
  868SOL    HW1 2603   1.690   1.204   2.995 -0.6160  0.2272 -0.4369
  868SOL    HW2 2604   1.530   1.183   3.025 -1.0231  2.1145 -0.2233
  869SOL     OW 2605   3.001   2.027   0.590 -0.0851  0.3769  0.0088
  869SOL    HW1 2606   2.923   2.070   0.551 -0.4090 -1.1663  0.5299
  869SOL    HW2 2607   3.050   2.099   0.642 -1.1203  2.6382  3.1867
  870SOL     OW 2608   1.935   2.091   0.559  0.1933  0.4452 -1.0496
  870SOL    HW1 2609   1.941   1.989   0.559 -2.3522 -1.1336 -0.3305
  870SOL    HW2 2610   2.012   2.130   0.506 -2.6019  0.3855  1.0779
  871SOL     OW 2611   0.606   1.172   1.037  0.2837 -0.1058  0.1663
  871SOL    HW1 2612   0.543   1.135   0.966 -1.2228 -2.4949 -2.2543
  871SOL    HW2 2613   0.687   1.211   0.985 -0.4616 -2.3349 -1.8046
  872SOL     OW 2614   1.349   1.739   1.883  0.1244  0.2577  0.1535
  872SOL    HW1 2615   1.306   1.831   1.894  1.5295 -0.2396 -0.9362
  872SOL    HW2 2616   1.438   1.730   1.936 -0.6179  1.0493 -0.1361
  873SOL     OW 2617   0.725   2.287   2.046  0.3784 -0.0883  0.7953
  873SOL    HW1 2618   0.791   2.283   2.120 -0.5438 -2.1043 -1.4103
  873SOL    HW2 2619   0.645   2.348   2.072 -3.1036  1.6931  3.4991
  874SOL     OW 2620   0.920   2.767   1.191 -0.3907 -0.1999  0.5176
  874SOL    HW1 2621   0.936   2.831   1.114  0.2504  2.2637  0.2718
  874SOL    HW2 2622   0.873   2.803   1.276 -2.1619  0.4707 -2.4404
  875SOL     OW 2623   3.015   0.209   1.032 -0.9354 -0.0871 -0.3874
  875SOL    HW1 2624   3.038   0.107   1.030  0.3194 -2.6035 -3.3506
  875SOL    HW2 2625   2.978   0.239   0.941 -0.4776 -1.2271 -1.1365
  876SOL     OW 2626   0.545   0.786   0.213  0.2573  0.3541  1.0852
  876SOL    HW1 2627   0.505   0.831   0.293  1.7092  0.7617  0.2849
  876SOL    HW2 2628   0.643   0.759   0.234  1.1248 -1.7650  0.3667
  877SOL     OW 2629   3.117   0.652   1.369 -0.6904 -0.5998 -0.3132
  877SOL    HW1 2630   0.018   0.559   1.326 -0.2663 -0.5960  2.7189
  877SOL    HW2 2631   0.067   0.669   1.442 -1.6178 -0.6467  0.3628
  878SOL     OW 2632   2.519   2.441   0.500  0.1841 -0.2548  0.0202
  878SOL    HW1 2633   2.459   2.387   0.565  0.2061 -0.6612  0.7082
  878SOL    HW2 2634   2.480   2.530   0.473  0.4015 -0.5762  1.7252
  879SOL     OW 2635   2.534   1.335   1.341  0.0027  0.6528  0.4342
  879SOL    HW1 2636   2.633   1.318   1.321  0.1009 -0.2364 -2.0161
  879SOL    HW2 2637   2.497   1.408   1.279 -0.2031 -2.2973  0.7600
  880SOL     OW 2638   1.537   2.750   1.162 -0.0022  0.1188  0.1820
  880SOL    HW1 2639   1.597   2.740   1.078 -1.4995  0.6829 -0.9021
  880SOL    HW2 2640   1.449   2.703   1.141 -3.1011 -0.0579 -0.6740
  881SOL     OW 2641   1.057   2.185   0.095  0.1405  0.2490 -0.2137
  881SOL    HW1 2642   1.079   2.172   0.198 -0.2499  0.0688  2.8423
  881SOL    HW2 2643   0.978   2.240   0.076  1.7892 -1.1802  0.3556
  882SOL     OW 2644   1.748   0.644   1.229 -0.1459  0.1494  0.1355
  882SOL    HW1 2645   1.785   0.582   1.154  0.7281 -1.1612  0.5246
  882SOL    HW2 2646   1.753   0.593   1.316  2.4213 -1.0287  0.3673
  883SOL     OW 2647   1.474   0.609   1.685 -0.5622 -0.3509  0.7111
  883SOL    HW1 2648   1.488   0.637   1.589 -0.9636 -1.1337  1.5018
  883SOL    HW2 2649   1.550   0.559   1.723 -2.6054  1.7885 -1.0416
  884SOL     OW 2650   2.703   0.422   0.031  0.0845 -0.5606 -0.4741
  884SOL    HW1 2651   2.605   0.394   0.031  2.4845 -0.5815  0.3709
  884SOL    HW2 2652   2.712   0.503   0.094 -0.8541 -0.7341 -0.7447
  885SOL     OW 2653   1.358   1.838   2.984 -0.0052  0.2610  0.0348
  885SOL    HW1 2654   1.257   1.831   2.999 -0.2308  0.0852  2.6054
  885SOL    HW2 2655   1.376   1.855   2.891 -1.5810 -1.9808  1.6728
  886SOL     OW 2656   1.731   1.501   2.507 -0.1414 -0.5600 -0.4909
  886SOL    HW1 2657   1.741   1.566   2.587 -1.2083 -1.2485 -0.3968
  886SOL    HW2 2658   1.728   1.403   2.535  2.5268 -0.3825  0.1510
  887SOL     OW 2659   1.583   0.223   1.523  0.5654  0.0171  0.1387
  887SOL    HW1 2660   1.527   0.154   1.477  0.3638 -0.5467  0.9712
  887SOL    HW2 2661   1.613   0.176   1.611 -0.8326  1.2400  1.0189
  888SOL     OW 2662   2.536   0.576   2.018 -0.1665  0.4455 -0.2610
  888SOL    HW1 2663   2.549   0.583   1.916 -2.1561  0.7194 -1.1582
  888SOL    HW2 2664   2.603   0.514   2.059 -0.5935  1.1351 -1.6081
  889SOL     OW 2665   0.181   2.593   1.081 -0.2377 -0.1560  0.5958
  889SOL    HW1 2666   0.096   2.600   1.024  0.8869 -1.5943 -2.0166
  889SOL    HW2 2667   0.259   2.623   1.024  0.8637 -1.4107 -2.0598
  890SOL     OW 2668   2.526   2.481   0.212 -1.0304 -0.1828  0.2558
  890SOL    HW1 2669   2.441   2.539   0.207  2.2900 -1.3345  2.2377
  890SOL    HW2 2670   2.544   2.449   0.304  1.0546  0.1983 -1.8804
  891SOL     OW 2671   0.723   1.539   2.901  0.4509  0.0459 -0.1084
  891SOL    HW1 2672   0.800   1.493   2.854 -0.5398  1.8287  1.0477
  891SOL    HW2 2673   0.649   1.471   2.924 -0.0591  0.1517 -0.1096
  892SOL     OW 2674   3.056   3.078   1.017  0.2279  0.2003  0.0542
  892SOL    HW1 2675   0.013   3.017   1.046 -1.4009  0.7751  1.1151
  892SOL    HW2 2676   2.982   3.019   0.974 -0.0191  1.2504 -1.5755
  893SOL     OW 2677   1.269   0.018   1.589  0.2786 -0.1263 -0.1802
  893SOL    HW1 2678   1.307   3.081   1.667 -0.6147  0.5325 -1.6857
  893SOL    HW2 2679   1.169   0.016   1.579  1.2954  1.2390  0.2614
  894SOL     OW 2680   2.480   0.419   0.740 -0.2866 -0.5662  0.0718
  894SOL    HW1 2681   2.396   0.476   0.747  0.8396  0.1842  0.4742
  894SOL    HW2 2682   2.543   0.453   0.673  0.9491  2.2577  0.5056
  895SOL     OW 2683   2.188   2.187   2.137  0.1836 -0.4165 -0.3659
  895SOL    HW1 2684   2.247   2.125   2.197  1.4209 -2.0451 -1.3110
  895SOL    HW2 2685   2.116   2.231   2.190  1.1140 -2.3834  0.0554
  896SOL     OW 2686   1.431   0.234   1.906  0.4628  0.8138  0.0588
  896SOL    HW1 2687   1.443   0.274   1.814 -1.8078 -2.8077  0.6857
  896SOL    HW2 2688   1.402   0.138   1.896  1.0628  3.5894  0.4440
  897SOL     OW 2689   0.442   1.677   1.877  0.1928 -0.1974 -0.1841
  897SOL    HW1 2690   0.368   1.713   1.947  0.1557  1.9775  1.4938
  897SOL    HW2 2691   0.533   1.685   1.914  0.6676 -0.8084 -3.1608
  898SOL     OW 2692   2.201   2.808   1.955 -0.1844  0.1079  0.2698
  898SOL    HW1 2693   2.205   2.872   1.875 -0.5366  1.6712 -0.1326
  898SOL    HW2 2694   2.268   2.843   2.024  1.5775  0.1240 -0.4346
  899SOL     OW 2695   0.959   0.799   1.227 -0.0562  0.2596  0.2847
  899SOL    HW1 2696   1.043   0.842   1.255 -2.9106 -0.4015  0.4172
  899SOL    HW2 2697   0.905   0.864   1.169 -1.2340  0.3882  1.1764
  900SOL     OW 2698   1.917   2.312   2.896 -0.2857 -0.0492  0.2666
  900SOL    HW1 2699   1.888   2.220   2.933 -0.0466 -0.2650  0.7713
  900SOL    HW2 2700   1.895   2.308   2.796 -1.2462 -0.4788 -1.9255
  901SOL     OW 2701   0.850   2.052   2.579  0.1859 -0.4410 -0.1316
  901SOL    HW1 2702   0.801   2.103   2.655  2.4918  0.2264 -2.5180
  901SOL    HW2 2703   0.808   1.960   2.567 -2.2604 -0.2874  1.4132
  902SOL     OW 2704   2.237   1.584   0.102 -0.3453  0.1980  0.7095
  902SOL    HW1 2705   2.299   1.507   0.088 -1.3593 -0.9325  3.1229
  902SOL    HW2 2706   2.248   1.616   0.195  1.7906  2.1816 -1.7461
  903SOL     OW 2707   1.893   0.845   0.466  0.3010  0.3863 -0.3494
  903SOL    HW1 2708   1.880   0.934   0.415  0.9422 -0.4944  3.0084
  903SOL    HW2 2709   1.906   0.769   0.402  0.3744 -0.0663  2.1342
  904SOL     OW 2710   0.597   1.001   0.025 -0.4679 -0.7981 -0.6516
  904SOL    HW1 2711   0.588   0.923   0.093  0.1233 -0.7284  0.8293
  904SOL    HW2 2712   0.515   1.071   0.040 -1.4078 -0.9519 -0.8294
  905SOL     OW 2713   2.405   0.074   1.136 -0.2545 -0.1546 -0.4998
  905SOL    HW1 2714   2.383   0.031   1.227 -1.2443 -1.8622 -1.2265
  905SOL    HW2 2715   2.353   0.160   1.112 -0.2918  2.0873 -0.7875
  906SOL     OW 2716   2.605   2.337   1.240  0.2145 -0.5427  0.2661
  906SOL    HW1 2717   2.529   2.280   1.274  1.5061  1.8502  1.1795
  906SOL    HW2 2718   2.565   2.421   1.195 -0.8251 -1.4908  0.7347
  907SOL     OW 2719   1.162   0.703   0.429 -0.4630  0.0380 -0.0765
  907SOL    HW1 2720   1.075   0.664   0.406 -0.4978  0.9518 -0.9667
  907SOL    HW2 2721   1.159   0.749   0.515 -0.7242 -0.5888 -0.2593
  908SOL     OW 2722   2.275   2.957   1.512  0.1552 -0.0858  0.3489
  908SOL    HW1 2723   2.351   2.892   1.501  0.5953  1.9650 -1.7586
  908SOL    HW2 2724   2.198   2.936   1.449  0.6032  0.7897  2.1398
  909SOL     OW 2725   2.761   0.896   1.561  0.1181 -0.0096 -0.0862
  909SOL    HW1 2726   2.792   0.862   1.471 -1.3590  1.2460 -3.1992
  909SOL    HW2 2727   2.772   0.995   1.563 -1.6960  0.0330 -0.3492
  910SOL     OW 2728   1.661   2.832   2.283 -0.2036 -0.7987  0.2131
  910SOL    HW1 2729   1.584   2.773   2.249 -0.5028  1.6821  2.0272
  910SOL    HW2 2730   1.671   2.921   2.236 -0.8324  0.5238 -1.2414
  911SOL     OW 2731   2.274   0.422   2.207 -0.4997 -0.1581  0.3381
  911SOL    HW1 2732   2.278   0.526   2.182 -3.5997  2.8482 -2.4943
  911SOL    HW2 2733   2.358   0.391   2.240 -2.8531 -0.8882  0.6086
  912SOL     OW 2734   2.870   1.320   1.483 -0.0355  0.4243 -0.0192
  912SOL    HW1 2735   2.940   1.243   1.479  0.3222  1.6611 -0.2913
  912SOL    HW2 2736   2.908   1.409   1.450  0.0341 -1.5505  1.6071
  913SOL     OW 2737   2.758   1.880   1.169 -0.1405 -0.4348 -0.1736
  913SOL    HW1 2738   2.741   1.925   1.260 -0.6902 -1.6833 -0.7346
  913SOL    HW2 2739   2.737   1.934   1.084  0.1784 -1.0661 -1.2862
  914SOL     OW 2740   1.927   1.278   1.203 -0.0949  0.2369  0.0135
  914SOL    HW1 2741   2.028   1.268   1.235  4.3034  1.7644  0.5137
  914SOL    HW2 2742   1.871   1.204   1.240  0.7787  0.1329 -2.6731
  915SOL     OW 2743   0.904   1.133   1.373 -0.0450  0.2235  0.4936
  915SOL    HW1 2744   0.818   1.086   1.397 -0.8106  0.8527  0.9791
  915SOL    HW2 2745   0.983   1.067   1.379 -3.3494 -0.1006  1.1078
  916SOL     OW 2746   2.407   2.545   1.392 -0.3963 -0.1528  0.2540
  916SOL    HW1 2747   2.463   2.479   1.449 -1.4813  0.6607 -2.4353
  916SOL    HW2 2748   2.415   2.643   1.421 -1.2080 -0.8504 -1.6237
  917SOL     OW 2749   2.572   2.210   0.170  0.2052 -0.8881  0.5416
  917SOL    HW1 2750   2.500   2.185   0.107  1.7385  1.0069  2.3022
  917SOL    HW2 2751   2.578   2.311   0.182  2.0892 -0.9972  1.5277
  918SOL     OW 2752   1.903   2.711   2.606 -0.0013  0.2755 -0.0358
  918SOL    HW1 2753   1.913   2.759   2.515 -0.9878  0.7022  2.0219
  918SOL    HW2 2754   1.987   2.731   2.660  1.1918 -1.2691 -0.5778
  919SOL     OW 2755   1.662   1.897   1.757  0.3118 -0.2268  0.2049
  919SOL    HW1 2756   1.687   1.828   1.826  2.5802 -2.4722  1.7032
  919SOL    HW2 2757   1.652   1.990   1.796 -1.4852  1.0639  1.0809
  920SOL     OW 2758   2.904   0.141   2.604 -0.6888  0.2496 -0.6321
  920SOL    HW1 2759   2.863   0.076   2.669  0.4257  0.5615 -2.1242
  920SOL    HW2 2760   2.837   0.218   2.594  1.4338 -0.5513 -0.3470
  921SOL     OW 2761   2.839   0.477   1.960  0.0062 -0.1835 -0.5565
  921SOL    HW1 2762   2.894   0.532   2.033  0.0517  1.8412 -1.0837
  921SOL    HW2 2763   2.911   0.427   1.902 -1.0446 -1.0253  1.6592
  922SOL     OW 2764   2.150   2.122   0.392  0.1620 -0.2860 -0.1780
  922SOL    HW1 2765   2.214   2.104   0.470  3.5731  2.0688  0.9462
  922SOL    HW2 2766   2.195   2.082   0.308  1.7407  0.1799 -1.5738
  923SOL     OW 2767   0.310   1.999   0.153 -0.4978  0.1215  0.0743
  923SOL    HW1 2768   0.296   1.925   0.083 -2.2691 -0.4343 -1.6329
  923SOL    HW2 2769   0.374   2.070   0.117  1.6328  0.1631  0.0450
  924SOL     OW 2770   0.770   0.484   0.192  0.5802  0.3078 -0.0881
  924SOL    HW1 2771   0.671   0.446   0.189 -0.7357 -2.1757  0.1622
  924SOL    HW2 2772   0.786   0.583   0.172 -0.7125 -1.1559 -0.5757
  925SOL     OW 2773   2.361   0.822   0.872  0.5857 -0.2516  0.0188
  925SOL    HW1 2774   2.341   0.896   0.808  0.7655 -0.1508  0.7316
  925SOL    HW2 2775   2.295   0.834   0.949 -0.2451 -0.5018 -1.2027
  926SOL     OW 2776   2.889   0.793   0.800 -0.1851  0.2209  0.1028
  926SOL    HW1 2777   2.791   0.810   0.827 -0.9179  1.3198 -0.5769
  926SOL    HW2 2778   2.938   0.756   0.884  1.4717 -2.9693  2.0957
  927SOL     OW 2779   0.001   1.079   2.843 -0.0505  0.1731  0.5573
  927SOL    HW1 2780   0.047   1.052   2.758  1.2917  4.5159  2.8144
  927SOL    HW2 2781   0.046   1.164   2.871 -2.8289 -2.7488 -1.7287
  928SOL     OW 2782   2.979   0.375   2.340 -0.1436  0.7003 -0.1966
  928SOL    HW1 2783   3.043   0.295   2.352  0.4690  0.9981  0.2321
  928SOL    HW2 2784   2.899   0.358   2.400  1.9089  1.6540 -0.3953
  929SOL     OW 2785   2.917   2.781   1.174 -0.2597  0.1339  0.0790
  929SOL    HW1 2786   2.915   2.828   1.079 -0.6627  1.0256  0.9576
  929SOL    HW2 2787   2.905   2.682   1.156 -0.7424 -2.2332 -0.3923
  930SOL     OW 2788   2.015   1.676   1.679  0.2215 -0.4348  0.5942
  930SOL    HW1 2789   2.099   1.621   1.706 -0.0354 -1.3422  1.0421
  930SOL    HW2 2790   2.043   1.760   1.634  1.4868  1.5126  1.8515
  931SOL     OW 2791   1.433   1.609   0.637 -0.2249  0.1965  0.0088
  931SOL    HW1 2792   1.489   1.569   0.713 -0.1949 -2.5769 -0.1984
  931SOL    HW2 2793   1.401   1.706   0.656 -1.3552  0.9560  0.1427
  932SOL     OW 2794   2.682   1.124   1.068 -0.2686 -0.3017 -0.1953
  932SOL    HW1 2795   2.645   1.053   1.126  2.9762  1.6679  0.7731
  932SOL    HW2 2796   2.703   1.212   1.115  0.2954  1.4865 -0.3534
  933SOL     OW 2797   2.419   1.535   1.208 -0.1425  0.2468 -0.0829
  933SOL    HW1 2798   2.345   1.574   1.146 -3.6643  0.7527  0.9591
  933SOL    HW2 2799   2.392   1.548   1.306 -0.5388 -2.1358  0.6143
  934SOL     OW 2800   1.645   2.939   1.813 -0.3979  0.1906  0.1219
  934SOL    HW1 2801   1.690   2.877   1.880  0.4499 -1.7775  0.7786
  934SOL    HW2 2802   1.592   2.879   1.746 -2.0557 -0.0778 -0.0937
  935SOL     OW 2803   3.105   1.568   0.879 -0.0522 -0.5791 -0.1506
  935SOL    HW1 2804   3.011   1.606   0.887  0.0903 -0.5241 -1.6371
  935SOL    HW2 2805   0.050   1.616   0.944 -1.1302  1.2165 -1.0957
  936SOL     OW 2806   0.204   1.274   0.473  0.5482  0.8092  0.8437
  936SOL    HW1 2807   0.168   1.186   0.431  0.2439 -3.0137  0.6928
  936SOL    HW2 2808   0.296   1.285   0.426  1.3794 -1.9932  2.5439
  937SOL     OW 2809   1.975   2.787   1.126 -1.1141 -0.0517 -0.3808
  937SOL    HW1 2810   1.877   2.758   1.100  0.4761  0.6141  1.6870
  937SOL    HW2 2811   2.044   2.792   1.051  0.7581 -0.7484 -0.2719
  938SOL     OW 2812   2.521   2.177   0.937 -0.2011 -0.0192 -0.2231
  938SOL    HW1 2813   2.456   2.207   1.010  0.5111  1.8757 -3.0389
  938SOL    HW2 2814   2.617   2.167   0.962 -0.7302 -2.6553  0.7323
  939SOL     OW 2815   0.667   1.999   0.398  0.1265 -0.5148  0.1821
  939SOL    HW1 2816   0.694   1.950   0.484  0.9441 -0.3149  0.4344
  939SOL    HW2 2817   0.702   2.097   0.386 -0.2274  2.4664 -1.9061
  940SOL     OW 2818   3.001   0.164   3.031  0.2397 -0.3275  0.3838
  940SOL    HW1 2819   3.052   0.142   2.946 -0.0840  0.3013  3.2327
  940SOL    HW2 2820   2.996   0.080   3.090 -0.6018 -1.7800 -1.2012
  941SOL     OW 2821   1.052   0.172   0.088 -0.2652 -0.5089  0.7221
  941SOL    HW1 2822   1.089   0.081   0.064 -0.8750  0.3237  0.8516
  941SOL    HW2 2823   1.124   0.242   0.065  2.4630  0.6335  3.0609
  942SOL     OW 2824   1.000   1.640   1.540  0.3733 -0.2574 -0.0540
  942SOL    HW1 2825   0.915   1.700   1.554 -2.2007  2.5979 -2.7001
  942SOL    HW2 2826   1.004   1.614   1.439  1.8987 -3.4583 -0.7914
  943SOL     OW 2827   1.749   1.109   1.385 -0.0049  0.0643  0.1984
  943SOL    HW1 2828   1.762   1.133   1.481  1.7119  2.4328 -0.4776
  943SOL    HW2 2829   1.795   1.023   1.356 -2.1363  0.6347 -0.7446
  944SOL     OW 2830   1.887   0.544   1.655 -0.3816 -0.3833  0.1962
  944SOL    HW1 2831   1.840   0.513   1.569 -1.7487  0.5039  1.0583
  944SOL    HW2 2832   1.911   0.644   1.645  1.9572 -1.2715  1.5718
  945SOL     OW 2833   0.019   0.043   0.661  0.3548 -0.0514  0.6334
  945SOL    HW1 2834   3.107   0.126   0.714  0.6300  0.6336  1.6975
  945SOL    HW2 2835   3.100   0.050   0.565  1.4367  0.3394  0.6475
  946SOL     OW 2836   0.425   0.342   1.348  0.0882  0.0962 -0.1895
  946SOL    HW1 2837   0.513   0.368   1.394  1.5746  0.6434  1.7842
  946SOL    HW2 2838   0.433   0.336   1.247 -0.7291  1.2870  0.4702
  947SOL     OW 2839   0.675   0.108   0.128 -0.3738 -0.6584 -0.5927
  947SOL    HW1 2840   0.589   0.059   0.112  2.5259 -1.6616 -0.5272
  947SOL    HW2 2841   0.685   0.197   0.086 -3.8867 -2.4872 -0.4991
  948SOL     OW 2842   2.625   1.116   1.908 -0.2189  0.2771 -0.0459
  948SOL    HW1 2843   2.600   1.211   1.922  1.2732 -1.3256 -2.0129
  948SOL    HW2 2844   2.680   1.085   1.989 -1.1364 -0.9178 -0.2631
  949SOL     OW 2845   0.588   1.039   2.868 -0.2527  0.4398  0.4287
  949SOL    HW1 2846   0.598   1.016   2.969 -0.6357 -1.1458  1.4483
  949SOL    HW2 2847   0.658   0.997   2.805 -1.9345  0.2123 -0.3660
  950SOL     OW 2848   0.942   0.689   0.736  0.4808 -0.1502  0.1746
  950SOL    HW1 2849   0.968   0.617   0.803 -0.8788 -3.2061  0.7440
  950SOL    HW2 2850   1.029   0.740   0.706  1.2989  3.4540  1.0862
  951SOL     OW 2851   0.983   2.061   2.210  0.4574  0.3962 -0.1732
  951SOL    HW1 2852   1.069   2.104   2.162  1.0466  0.8195 -1.4557
  951SOL    HW2 2853   0.951   2.124   2.282  1.7506  0.4094  0.6989
  952SOL     OW 2854   0.677   1.663   0.141  0.1542 -0.2159 -0.3484
  952SOL    HW1 2855   0.764   1.710   0.157 -1.0886 -1.7708 -0.9777
  952SOL    HW2 2856   0.600   1.707   0.187 -0.2044 -1.3673 -1.1190
  953SOL     OW 2857   1.930   3.098   2.415 -0.4465 -0.1665  0.4816
  953SOL    HW1 2858   1.930   2.998   2.404 -2.7165  2.8768 -1.1620
  953SOL    HW2 2859   2.027   0.016   2.426  2.4823  2.0569 -1.1817
  954SOL     OW 2860   1.336   1.300   0.651  0.0641 -0.3971 -0.2825
  954SOL    HW1 2861   1.403   1.356   0.704  0.0969  0.5716 -4.0207
  954SOL    HW2 2862   1.243   1.317   0.695  1.4638 -0.2923 -1.3968
  955SOL     OW 2863   0.535   2.226   2.277  0.3860  0.9173 -0.2503
  955SOL    HW1 2864   0.501   2.320   2.252  1.4867  1.2001  0.0931
  955SOL    HW2 2865   0.554   2.215   2.375 -0.6505  1.2601 -1.2524
  956SOL     OW 2866   1.913   0.127   1.674  0.5969 -0.1267  0.5974
  956SOL    HW1 2867   1.962   0.208   1.717  0.5676  0.3996  1.8620
  956SOL    HW2 2868   1.818   0.130   1.705  1.2232  0.6969  1.3975
  957SOL     OW 2869   1.780   2.004   2.653 -0.1370  0.2088 -0.0541
  957SOL    HW1 2870   1.681   2.013   2.629 -1.9979  0.9068  0.6413
  957SOL    HW2 2871   1.797   2.019   2.750 -4.5741  3.4923 -0.8555
  958SOL     OW 2872   1.131   2.206   1.612  0.1143 -0.0368 -0.2539
  958SOL    HW1 2873   1.096   2.141   1.542 -0.1396  0.8772 -0.6525
  958SOL    HW2 2874   1.055   2.216   1.682 -0.2791 -1.2007 -3.6269
  959SOL     OW 2875   2.133   2.347   3.049  0.0926 -0.4417 -0.4989
  959SOL    HW1 2876   2.113   2.342   0.031 -0.5534  2.0492  1.5451
  959SOL    HW2 2877   2.056   2.327   2.986 -0.0489 -1.0398  0.5431
  960SOL     OW 2878   0.033   0.226   2.778 -0.0152 -0.1938  0.3466
  960SOL    HW1 2879   0.105   0.174   2.730 -1.2000 -1.3053 -0.5762
  960SOL    HW2 2880   3.072   0.250   2.718 -2.9923 -0.1800  0.6832
  961SOL     OW 2881   0.925   0.863   2.840  0.2833  0.6086  0.6161
  961SOL    HW1 2882   0.969   0.953   2.859  0.0023  4.5683  0.8852
  961SOL    HW2 2883   0.944   0.837   2.741  1.1444 -1.1269 -1.8046
  962SOL     OW 2884   1.197   1.270   2.828  0.0432 -0.1528 -0.3574
  962SOL    HW1 2885   1.242   1.259   2.741 -0.8757  1.5131  0.5852
  962SOL    HW2 2886   1.262   1.261   2.909  0.1271  1.4176  1.5443
  963SOL     OW 2887   2.375   2.167   3.105  0.3589  0.2083 -0.2282
  963SOL    HW1 2888   2.446   2.117   3.055  0.0265  2.0744 -0.5497
  963SOL    HW2 2889   2.329   2.238   3.040  0.1539  0.3576 -1.2857
  964SOL     OW 2890   1.326   2.581   1.086  0.1178 -0.2222 -0.1941
  964SOL    HW1 2891   1.259   2.590   1.009 -3.5076 -0.4994 -2.8300
  964SOL    HW2 2892   1.303   2.508   1.151  1.2212  2.7792  0.4248
  965SOL     OW 2893   1.107   1.718   0.673  0.5260  0.0748 -0.0191
  965SOL    HW1 2894   1.053   1.701   0.759 -0.0313  2.2230 -0.1936
  965SOL    HW2 2895   1.145   1.637   0.633  0.9032  2.1360 -0.7654
  966SOL     OW 2896   0.020   1.303   0.051 -0.1868  0.6785  0.1284
  966SOL    HW1 2897   0.082   1.366   0.103  1.2000 -0.0444 -1.7178
  966SOL    HW2 2898   3.060   1.270   0.108 -0.1107  1.1941 -0.5563
  967SOL     OW 2899   1.789   0.264   1.964 -0.0067 -0.8009 -0.5063
  967SOL    HW1 2900   1.822   0.246   2.060 -0.6356  0.9983 -0.9341
  967SOL    HW2 2901   1.870   0.291   1.905  2.5644  0.1905  0.6665
  968SOL     OW 2902   1.764   1.143   0.634  0.4327  0.2359  0.6567
  968SOL    HW1 2903   1.776   1.228   0.575 -1.8491 -0.6162 -0.2110
  968SOL    HW2 2904   1.702   1.075   0.589 -0.9308 -2.8463  1.0089
  969SOL     OW 2905   0.311   1.393   2.169 -0.2488  0.4910 -0.3083
  969SOL    HW1 2906   0.253   1.367   2.090 -1.4671  0.0995 -1.3531
  969SOL    HW2 2907   0.401   1.429   2.140  2.2078  0.8841 -0.3341
  970SOL     OW 2908   2.392   1.213   0.932  0.3304 -0.2556  0.0107
  970SOL    HW1 2909   2.481   1.223   0.978  0.6793 -0.4600 -0.6288
  970SOL    HW2 2910   2.398   1.155   0.850 -0.2147 -2.2560  0.8941
  971SOL     OW 2911   0.556   0.055   1.538  0.5609 -0.3325 -0.2004
  971SOL    HW1 2912   0.462   0.076   1.499  0.1930 -2.7512  1.4780
  971SOL    HW2 2913   0.555   3.083   1.584  0.7199  2.1034 -0.0865
  972SOL     OW 2914   0.533   0.743   2.811  0.3784  0.1194  0.4426
  972SOL    HW1 2915   0.626   0.713   2.838  0.2342 -0.4933 -0.6806
  972SOL    HW2 2916   0.480   0.772   2.892  0.0012  3.0252 -2.1531
  973SOL     OW 2917   0.097   0.968   0.933 -0.0451 -0.2225 -0.0840
  973SOL    HW1 2918   0.018   1.039   0.940  2.0422  1.3981  0.5262
  973SOL    HW2 2919   0.101   0.927   1.026 -0.2498  1.1801 -1.1929
  974SOL     OW 2920   2.001   0.813   1.977  0.5236  0.6827 -0.6667
  974SOL    HW1 2921   1.972   0.778   1.885 -2.8925  1.4943  2.6661
  974SOL    HW2 2922   2.077   0.882   1.963  0.6894  0.7294  1.2525
  975SOL     OW 2923   2.565   3.106   0.050 -0.0821 -0.4303 -0.6530
  975SOL    HW1 2924   2.523   3.051   3.098  3.3292 -0.9311  0.7616
  975SOL    HW2 2925   2.557   3.063   0.140 -1.9096 -0.8761 -1.1330
  976SOL     OW 2926   0.000   1.214   1.505 -0.1365  0.0473  0.2645
  976SOL    HW1 2927   0.079   1.269   1.467 -3.3714  0.9182  0.3733
  976SOL    HW2 2928   0.028   1.168   1.593  1.0073  0.8400 -1.1335
  977SOL     OW 2929   1.009   2.834   0.419 -0.2339  0.2042 -0.1105
  977SOL    HW1 2930   1.001   2.889   0.331 -0.7836 -0.5073 -2.0333
  977SOL    HW2 2931   0.946   2.751   0.420  0.4500 -0.3058  2.0725
  978SOL     OW 2932   0.765   1.463   0.301 -0.2542 -0.3071  0.0321
  978SOL    HW1 2933   0.744   1.538   0.237 -0.9441  0.2598  1.8634
  978SOL    HW2 2934   0.783   1.377   0.247  0.1729 -1.1670  0.3794
  979SOL     OW 2935   1.586   1.668   1.327 -0.1828 -0.0991 -0.2800
  979SOL    HW1 2936   1.538   1.721   1.402 -0.7125 -1.4435  2.9366
  979SOL    HW2 2937   1.545   1.575   1.323 -0.1580 -0.2201 -1.4050
  980SOL     OW 2938   0.373   1.453   1.753 -0.8021 -0.1091  0.2518
  980SOL    HW1 2939   0.385   1.544   1.800 -0.6768 -1.3466 -2.8285
  980SOL    HW2 2940   0.370   1.460   1.653  0.5201 -1.6714  0.1964
  981SOL     OW 2941   3.057   1.471   0.325 -0.0892  0.0867 -0.3139
  981SOL    HW1 2942   3.071   1.422   0.415 -1.0684 -0.7243  1.5800
  981SOL    HW2 2943   0.031   1.483   0.281 -4.0431  0.1877 -0.2491
  982SOL     OW 2944   2.409   2.895   2.108  0.4408  0.1710 -0.5091
  982SOL    HW1 2945   2.438   2.925   2.198  1.8874 -0.1012  1.3801
  982SOL    HW2 2946   2.488   2.898   2.051 -5.8794 -2.9947 -1.2319
  983SOL     OW 2947   1.359   0.559   1.196 -0.3710 -0.0218 -0.1972
  983SOL    HW1 2948   1.339   0.589   1.100 -0.0259  0.6819  0.2301
  983SOL    HW2 2949   1.390   0.463   1.201  2.2430  1.8952 -1.8741
  984SOL     OW 2950   1.029   3.036   2.788  0.0960  0.1920 -0.0367
  984SOL    HW1 2951   1.106   3.100   2.805  0.5454 -2.8978  0.9877
  984SOL    HW2 2952   0.982   3.075   2.707  1.2955  0.8507 -3.0233
  985SOL     OW 2953   1.829   2.294   1.701 -0.3238  0.8105  0.3124
  985SOL    HW1 2954   1.790   2.317   1.610  0.2913 -0.1318 -1.2503
  985SOL    HW2 2955   1.902   2.222   1.687  1.3803 -0.1361 -0.6625
  986SOL     OW 2956   2.532   0.177   2.537 -0.4882 -0.4784  0.4236
  986SOL    HW1 2957   2.519   0.279   2.511 -1.3671  3.5426  0.2425
  986SOL    HW2 2958   2.521   0.163   2.639  1.6985 -1.1615  0.4299
  987SOL     OW 2959   2.705   0.610   2.322  0.2036  0.3981  0.7005
  987SOL    HW1 2960   2.792   0.610   2.272  0.5258  3.4917 -0.4425
  987SOL    HW2 2961   2.671   0.706   2.339 -0.6283 -0.0808  0.0564
  988SOL     OW 2962   2.635   0.699   2.781 -0.7935 -0.6968 -0.1220
  988SOL    HW1 2963   2.657   0.733   2.876 -1.3209 -0.3835  1.7968
  988SOL    HW2 2964   2.568   0.761   2.737  0.5907  0.3635 -0.2614
  989SOL     OW 2965   2.376   1.724   2.034 -0.3642  0.1564 -0.4646
  989SOL    HW1 2966   2.348   1.745   2.132 -0.5067  0.0721 -0.2099
  989SOL    HW2 2967   2.477   1.703   2.029 -1.7829  0.6840 -1.7631
  990SOL     OW 2968   0.343   1.097   2.773 -0.1908  0.2437 -0.4834
  990SOL    HW1 2969   0.336   1.196   2.796  1.6964 -0.7739 -2.2243
  990SOL    HW2 2970   0.436   1.066   2.801  1.2166 -1.1737  1.7980
  991SOL     OW 2971   0.450   1.692   2.687  0.2388 -0.4538 -0.3061
  991SOL    HW1 2972   0.423   1.591   2.685  0.9998 -1.5726  1.1383
  991SOL    HW2 2973   0.369   1.749   2.709 -2.1368  1.1266 -2.5996
  992SOL     OW 2974   2.789   1.842   1.929 -0.5275 -0.2109  0.6933
  992SOL    HW1 2975   2.798   1.946   1.927  1.2856  0.0729 -0.5323
  992SOL    HW2 2976   2.717   1.808   1.995 -0.9438  1.5936  1.1548
  993SOL     OW 2977   0.263   0.129   0.750 -0.2409  0.1803  0.0122
  993SOL    HW1 2978   0.324   0.054   0.716 -1.4214 -1.3259  0.9334
  993SOL    HW2 2979   0.171   0.107   0.716 -1.7365 -0.8981  0.5527
  994SOL     OW 2980   0.297   1.791   1.477  0.2590  0.8091 -0.1175
  994SOL    HW1 2981   0.386   1.811   1.535  2.4979 -1.4688  1.0243
  994SOL    HW2 2982   0.248   1.872   1.448 -1.7098 -2.8706  2.5605
  995SOL     OW 2983   2.040   1.639   2.790 -0.3338  0.1399  0.3903
  995SOL    HW1 2984   2.038   1.601   2.885 -1.4882 -2.4604  0.3087
  995SOL    HW2 2985   2.062   1.737   2.801  1.0257 -0.0779 -0.3522
  996SOL     OW 2986   2.008   1.224   2.734  0.1062 -0.1141 -0.2293
  996SOL    HW1 2987   2.077   1.289   2.705 -0.2834 -0.9854 -1.7357
  996SOL    HW2 2988   1.919   1.227   2.684  0.7048 -0.7037  0.8029
  997SOL     OW 2989   1.726   0.971   1.714 -0.2310  0.2623  0.3332
  997SOL    HW1 2990   1.766   1.064   1.714 -0.5501  1.9757  0.7725
  997SOL    HW2 2991   1.625   0.971   1.689  0.8308  0.0187  0.0944
  998SOL     OW 2992   2.095   2.029   1.010  0.1093 -0.3162  0.0018
  998SOL    HW1 2993   2.138   1.947   0.969 -0.6039 -1.9822  1.5330
  998SOL    HW2 2994   2.157   2.076   1.083  2.8708  3.6073  0.5111
  999SOL     OW 2995   2.250   2.384   0.650  0.0214 -0.4901  0.3140
  999SOL    HW1 2996   2.181   2.335   0.705  0.9337  1.3494 -1.6063
  999SOL    HW2 2997   2.252   2.482   0.667 -0.7072  0.2738  1.7830
 1000SOL     OW 2998   1.072   2.793   2.872 -0.0488 -0.4464  0.1110
 1000SOL    HW1 2999   1.036   2.887   2.852  0.9031  0.8719  1.5224
 1000SOL    HW2 3000   1.171   2.793   2.846  0.4085 -1.0436  0.4470
   3.11806   3.11806   3.11806
