1000 SPC/Fw water molecules t=  60.00000 step= 60000
 3000
    1SOL     OW    1   2.193   2.639   0.857  0.0569 -0.0829  0.4955
    1SOL    HW1    2   2.130   2.641   0.773 -1.3101 -2.5399 -1.7842
    1SOL    HW2    3   2.151   2.700   0.927 -0.1364  2.0861 -0.2887
    2SOL     OW    4   0.913   1.129   2.620  0.4907 -0.2620  0.4937
    2SOL    HW1    5   0.849   1.159   2.700 -5.5224  0.2359  2.6409
    2SOL    HW2    6   1.008   1.160   2.627 -3.3626 -1.5907  0.7274
    3SOL     OW    7   1.292   2.677   2.553 -0.1137 -0.2976  0.5757
    3SOL    HW1    8   1.370   2.726   2.603 -0.6663  2.0601 -0.1717
    3SOL    HW2    9   1.311   2.576   2.550 -0.6207 -1.3648 -0.0101
    4SOL     OW   10   1.302   1.519   2.806 -0.1903  0.2682 -0.4479
    4SOL    HW1   11   1.373   1.483   2.869 -0.9878 -0.1601 -2.5589
    4SOL    HW2   12   1.345   1.575   2.737 -2.8709  0.9932  0.1045
    5SOL     OW   13   0.859   0.772   1.865 -0.4516  0.0588 -0.3825
    5SOL    HW1   14   0.883   0.694   1.922  1.7807  1.2369  0.1939
    5SOL    HW2   15   0.760   0.793   1.884 -1.9014 -0.8159 -0.4675
    6SOL     OW   16   1.986   0.656   2.418  0.1188 -0.3967  0.0402
    6SOL    HW1   17   2.070   0.629   2.360  2.5601  1.0838 -1.1564
    6SOL    HW2   18   1.916   0.577   2.417 -0.9965 -0.6987  0.4595
    7SOL     OW   19   0.131   0.464   1.577  0.2301 -0.2379 -0.4742
    7SOL    HW1   20   0.075   0.495   1.498 -0.3294  0.6685  0.4342
    7SOL    HW2   21   0.119   0.528   1.653 -2.9279  0.1196  0.7088
    8SOL     OW   22   1.855   3.095   1.997  0.2461  0.3769 -0.1684
    8SOL    HW1   23   1.796   3.010   1.986  0.4810 -1.8777  0.6250
    8SOL    HW2   24   1.800   0.071   2.030 -1.4670  1.7893  0.9001
    9SOL     OW   25   0.334   0.002   0.647 -0.3830 -0.0026  0.6873
    9SOL    HW1   26   0.241   0.039   0.629 -0.1189 -0.0218 -0.4383
    9SOL    HW2   27   0.383   3.076   0.566  1.9290 -1.1457 -2.8824
   10SOL     OW   28   0.605   2.127   2.162 -0.0946 -0.1479 -0.4164
   10SOL    HW1   29   0.683   2.131   2.225 -1.5490 -0.6344  0.7846
   10SOL    HW2   30   0.640   2.092   2.075  1.6830  0.6156 -3.1663
   11SOL     OW   31   0.864   1.481   0.214  0.7163 -0.0417 -0.6370
   11SOL    HW1   32   0.796   1.479   0.132 -0.4078  0.1189 -2.4558
   11SOL    HW2   33   0.837   1.553   0.283 -0.9740  1.8765  1.2969
   12SOL     OW   34   2.678   2.458   1.365  0.1111  0.5352  0.0507
   12SOL    HW1   35   2.676   2.457   1.465  0.5880  1.1599  0.7813
   12SOL    HW2   36   2.617   2.387   1.322  0.8994  0.9153  0.5607
   13SOL     OW   37   0.663   2.967   2.937  0.2007  0.4803  0.0124
   13SOL    HW1   38   0.673   3.061   2.966 -0.0227 -2.8638  0.1228
   13SOL    HW2   39   0.631   2.909   3.014 -0.1987 -0.4848  0.1151
   14SOL     OW   40   1.499   1.753   1.446  0.2805  0.2140  0.7173
   14SOL    HW1   41   1.446   1.766   1.530  0.8771  1.3250 -0.0454
   14SOL    HW2   42   1.590   1.717   1.457 -1.9798  1.7790  0.3967
   15SOL     OW   43   0.351   1.796   2.466 -0.2334  0.0901 -0.3920
   15SOL    HW1   44   0.365   1.768   2.564 -0.4035 -0.0456 -1.9765
   15SOL    HW2   45   0.377   1.894   2.441 -0.4795  0.9828 -1.0216
   16SOL     OW   46   1.594   0.498   2.772  0.0523 -0.0385  0.1532
   16SOL    HW1   47   1.629   0.562   2.700 -0.8481  2.6219 -0.7411
   16SOL    HW2   48   1.523   0.541   2.831 -0.8747 -1.1080 -3.5405
   17SOL     OW   49   2.943   2.597   2.540 -0.2819 -0.3979 -0.4463
   17SOL    HW1   50   2.964   2.505   2.584 -0.0085 -0.8807  0.1938
   17SOL    HW2   51   3.003   2.610   2.457  0.1174 -2.6626 -0.5086
   18SOL     OW   52   1.181   1.218   0.857  0.5559  0.4827  0.2098
   18SOL    HW1   53   1.174   1.277   0.773  2.2781  0.3366  1.0669
   18SOL    HW2   54   1.094   1.223   0.909  0.9694 -0.0018 -0.9106
   19SOL     OW   55   2.715   1.861   2.375 -0.0799  0.1442  0.2140
   19SOL    HW1   56   2.803   1.809   2.375 -1.0767 -3.6518  0.2869
   19SOL    HW2   57   2.695   1.882   2.472  0.9747  0.1279 -1.1353
   20SOL     OW   58   2.339   2.316   2.547 -0.7488  0.0959  0.3924
   20SOL    HW1   59   2.358   2.301   2.447  0.7346  2.0975 -1.9551
   20SOL    HW2   60   2.254   2.363   2.566  0.0936 -0.4837 -0.7981
   21SOL     OW   61   1.524   1.760   0.384 -0.2703  0.2369  0.0127
   21SOL    HW1   62   1.528   1.712   0.472 -2.4099  2.2460  0.0257
   21SOL    HW2   63   1.543   1.862   0.408  1.5743  1.6220  1.5853
   22SOL     OW   64   2.340   1.992   1.271  0.2384 -0.0472 -0.8047
   22SOL    HW1   65   2.416   1.967   1.334  2.3019  0.3368 -0.6142
   22SOL    HW2   66   2.260   2.025   1.324  0.1387  0.7919 -2.1156
   23SOL     OW   67   3.014   1.197   1.213  0.5214 -0.1889  0.0533
   23SOL    HW1   68   2.928   1.250   1.191 -2.2574 -2.2882  0.0050
   23SOL    HW2   69   3.031   1.135   1.137 -1.0142  1.8845 -0.8496
   24SOL     OW   70   2.364   1.359   1.978  0.1284  0.1199 -0.2673
   24SOL    HW1   71   2.436   1.342   1.914 -0.1294  0.4118  1.4695
   24SOL    HW2   72   2.354   1.277   2.039 -0.1058 -1.8640 -1.8008
   25SOL     OW   73   2.047   0.261   2.377  0.1744 -0.2418  0.2291
   25SOL    HW1   74   2.076   0.174   2.423 -1.0213 -0.0827  0.2561
   25SOL    HW2   75   2.029   0.246   2.277 -0.2594 -0.5035  0.2626
   26SOL     OW   76   1.062   3.103   0.386 -0.2935 -0.5116 -0.3095
   26SOL    HW1   77   1.055   0.094   0.415  2.6269 -1.8681  1.6044
   26SOL    HW2   78   1.117   3.056   0.456  2.4875  0.3504 -1.3612
   27SOL     OW   79   0.805   1.909   0.894 -0.2650  0.3662  0.4788
   27SOL    HW1   80   0.732   1.852   0.845 -0.8458 -0.6628 -0.6765
   27SOL    HW2   81   0.897   1.866   0.891  0.7203 -3.2950 -0.1663
   28SOL     OW   82   2.419   2.174   1.100  0.5054 -0.2195  0.5577
   28SOL    HW1   83   2.376   2.094   1.153  1.5278 -0.2556  1.5930
   28SOL    HW2   84   2.373   2.264   1.125 -0.9740  3.4308  0.2004
   29SOL     OW   85   2.091   0.035   1.846  0.4095  0.0516 -0.2184
   29SOL    HW1   86   2.008   0.006   1.898  1.9479 -1.1003 -2.5779
   29SOL    HW2   87   2.173   0.013   1.900 -1.3973 -0.3561 -1.5580
   30SOL     OW   88   0.669   2.923   1.297  0.4396 -0.4036  0.0082
   30SOL    HW1   89   0.574   2.944   1.328  2.4678 -0.3194 -1.7968
   30SOL    HW2   90   0.716   3.012   1.272  1.2285  1.6200 -0.0142
   31SOL     OW   91   3.080   1.939   2.023  0.2913 -0.3180 -0.6113
   31SOL    HW1   92   0.053   1.974   1.974  1.0283 -1.1093  2.7780
   31SOL    HW2   93   3.067   1.839   2.026 -0.0534  1.3860  1.0187
   32SOL     OW   94   1.342   1.763   2.314  0.2275  0.0624  0.1084
   32SOL    HW1   95   1.290   1.780   2.226  1.5961 -2.6582  1.4902
   32SOL    HW2   96   1.433   1.721   2.302 -0.5553 -0.7158  1.7268
   33SOL     OW   97   0.279   0.192   2.989  0.0318  0.5642  0.5190
   33SOL    HW1   98   0.368   0.228   2.961 -2.0482  1.7726  0.1742
   33SOL    HW2   99   0.284   0.092   3.007 -0.4303  2.1210 -1.6530
   34SOL     OW  100   2.603   3.029   0.554 -0.1069  0.3837  0.1118
   34SOL    HW1  101   2.630   0.004   0.605  0.0524 -2.2580 -0.5248
   34SOL    HW2  102   2.615   2.952   0.624 -0.5638  0.2274  0.0630
   35SOL     OW  103   2.839   0.252   1.530 -0.3865  0.0830 -0.0492
   35SOL    HW1  104   2.828   0.352   1.508 -0.4999  0.4937 -0.7264
   35SOL    HW2  105   2.917   0.244   1.596  0.3741  0.7155  0.7449
   36SOL     OW  106   2.764   2.985   2.275 -0.3061  0.2563 -0.0975
   36SOL    HW1  107   2.693   2.955   2.338 -2.7407  2.6530  1.3282
   36SOL    HW2  108   2.844   2.919   2.275  1.3473 -2.3389  1.1565
   37SOL     OW  109   1.438   2.871   0.047 -0.4635  0.5342  0.4539
   37SOL    HW1  110   1.477   2.928   0.116  1.5027 -0.3669 -1.0302
   37SOL    HW2  111   1.347   2.834   0.078 -0.1650  0.2075 -2.1626
   38SOL     OW  112   0.050   0.810   2.976  0.2213 -0.6445  0.1716
   38SOL    HW1  113   3.074   0.751   2.960 -1.1768 -0.1254 -2.2111
   38SOL    HW2  114   0.097   0.826   2.890 -1.3689 -2.3497  0.0305
   39SOL     OW  115   1.688   1.816   2.016  0.2080  0.2288 -0.0972
   39SOL    HW1  116   1.625   1.885   1.984 -1.0662 -0.6624 -0.8538
   39SOL    HW2  117   1.645   1.765   2.093  0.7465 -2.9826  0.9486
   40SOL     OW  118   0.174   0.400   2.626  0.7226 -0.2886  0.2975
   40SOL    HW1  119   0.103   0.329   2.643  1.1480 -0.8937 -1.4399
   40SOL    HW2  120   0.262   0.365   2.585 -2.0895  0.5286  0.1880
   41SOL     OW  121   1.669   1.049   1.986  0.5363 -0.2999  0.2866
   41SOL    HW1  122   1.697   0.955   1.998  1.2376  5.2111  1.1364
   41SOL    HW2  123   1.663   1.094   2.075  1.9150 -0.3876 -0.1432
   42SOL     OW  124   3.038   0.262   1.740 -0.1914 -0.3510 -0.0939
   42SOL    HW1  125   3.030   0.361   1.778 -0.4050  1.2822  0.3070
   42SOL    HW2  126   0.012   0.215   1.778 -0.4833 -0.5263  1.2080
   43SOL     OW  127   1.557   1.334   1.652 -0.4283  0.0140 -0.0793
   43SOL    HW1  128   1.455   1.337   1.665 -0.8726 -0.4716 -1.8857
   43SOL    HW2  129   1.602   1.249   1.684  2.6994  0.9327  0.7730
   44SOL     OW  130   2.972   0.256   2.829 -0.6831  0.4213  0.3823
   44SOL    HW1  131   3.032   0.304   2.891 -2.6651  1.9305  1.1260
   44SOL    HW2  132   2.878   0.265   2.855  2.4955  3.5192 -1.8109
   45SOL     OW  133   0.344   2.109   1.264  0.2079  0.2931 -0.2397
   45SOL    HW1  134   0.263   2.157   1.301  3.4283  2.0693  0.2541
   45SOL    HW2  135   0.321   2.022   1.213 -1.3628 -3.0367  2.0185
   46SOL     OW  136   2.341   3.001   1.896  0.0511 -0.3272  0.3584
   46SOL    HW1  137   2.409   3.039   1.964  0.4860  0.0636  0.1109
   46SOL    HW2  138   2.390   2.983   1.805 -0.3515 -1.5415 -0.9164
   47SOL     OW  139   0.333   1.864   1.140 -0.3236  0.0621 -0.3722
   47SOL    HW1  140   0.401   1.819   1.083  1.0880 -0.2592 -0.1769
   47SOL    HW2  141   0.239   1.828   1.116 -2.5889 -1.1586 -1.8624
   48SOL     OW  142   0.541   2.899   0.084  0.0638  0.1109  0.3592
   48SOL    HW1  143   0.538   2.985   0.143 -2.5713 -1.2865 -1.9280
   48SOL    HW2  144   0.484   2.820   0.128  0.1141 -2.3259 -1.0799
   49SOL     OW  145   2.867   1.802   1.806 -0.5320  0.6369 -0.2446
   49SOL    HW1  146   2.859   1.752   1.895 -1.6787 -3.0871 -0.6283
   49SOL    HW2  147   2.952   1.770   1.754  0.8092 -1.7994 -2.3047
   50SOL     OW  148   1.487   3.037   0.564  0.8034 -0.1269 -0.1157
   50SOL    HW1  149   1.487   3.077   0.470  1.4206  0.2994 -1.4545
   50SOL    HW2  150   1.411   3.078   0.617 -0.8254  0.2164 -1.5116
   51SOL     OW  151   1.080   0.386   1.313 -0.4471 -0.0236 -0.0439
   51SOL    HW1  152   1.179   0.357   1.321  3.4438  0.7864  0.3920
   51SOL    HW2  153   1.045   0.399   1.218 -1.6095  0.9069  3.4083
   52SOL     OW  154   0.629   1.319   0.556  0.3009  0.3318  0.1606
   52SOL    HW1  155   0.572   1.315   0.477  3.4641  1.2819  2.2324
   52SOL    HW2  156   0.608   1.238   0.614 -1.5807 -2.7345  1.3150
   53SOL     OW  157   1.340   2.968   2.466 -0.5320 -0.4093  0.7227
   53SOL    HW1  158   1.415   3.038   2.472  0.3239 -0.6455  1.2917
   53SOL    HW2  159   1.367   2.895   2.534  1.7814 -0.4153  0.6409
   54SOL     OW  160   1.759   0.498   1.704  0.0693 -0.3221  0.0760
   54SOL    HW1  161   1.766   0.576   1.641 -3.2880 -2.6087  0.9283
   54SOL    HW2  162   1.829   0.431   1.675 -1.2648 -0.0981  2.2998
   55SOL     OW  163   2.968   2.604   0.370 -0.0419 -0.7836 -0.6529
   55SOL    HW1  164   2.984   2.690   0.428 -0.2605  3.2346 -1.0789
   55SOL    HW2  165   2.993   2.523   0.429  0.8376  0.7376 -2.4001
   56SOL     OW  166   0.977   2.902   1.711 -0.4016 -0.2841  0.0170
   56SOL    HW1  167   0.941   2.965   1.641  0.5319 -1.2013  2.2995
   56SOL    HW2  168   1.053   2.849   1.666  3.8870 -0.1830 -0.7063
   57SOL     OW  169   1.781   0.837   2.385  0.3423  0.3933 -0.7775
   57SOL    HW1  170   1.844   0.761   2.406  0.8016  2.3220 -0.1450
   57SOL    HW2  171   1.830   0.884   2.310  0.6057 -1.3429  2.7264
   58SOL     OW  172   0.504   1.138   2.075 -0.6175  0.3164  0.3649
   58SOL    HW1  173   0.453   1.223   2.052  2.4550 -0.0649 -1.3597
   58SOL    HW2  174   0.458   1.062   2.025 -1.9646  1.5696  0.4017
   59SOL     OW  175   0.605   2.366   1.949 -0.1816  0.8749 -0.0030
   59SOL    HW1  176   0.647   2.276   1.933 -0.3845 -0.5166  1.1977
   59SOL    HW2  177   0.670   2.438   1.924 -1.0069  0.9994  0.2156
   60SOL     OW  178   2.353   2.367   0.190 -0.3014  0.5041  0.0239
   60SOL    HW1  179   2.440   2.321   0.176 -0.4552 -0.6421  0.1527
   60SOL    HW2  180   2.344   2.442   0.125 -0.9926 -0.3145  1.3535
   61SOL     OW  181   1.233   2.744   0.730 -0.6181  0.5189  0.2074
   61SOL    HW1  182   1.319   2.749   0.790  1.9902  1.5794 -0.2723
   61SOL    HW2  183   1.211   2.655   0.693 -0.9502  0.5231  0.6436
   62SOL     OW  184   1.627   2.444   2.789  0.5570  0.3096 -0.5323
   62SOL    HW1  185   1.594   2.357   2.746 -0.8327 -1.3020  0.2746
   62SOL    HW2  186   1.599   2.442   2.887  1.8108  0.9200 -0.2411
   63SOL     OW  187   2.398   0.535   2.928 -0.3023 -0.4028 -0.0395
   63SOL    HW1  188   2.356   0.589   3.001 -0.3476  0.3337  0.6138
   63SOL    HW2  189   2.418   0.443   2.963 -1.6390 -0.5700 -0.5961
   64SOL     OW  190   1.365   1.306   0.199 -0.1475 -0.0107 -0.6897
   64SOL    HW1  191   1.273   1.309   0.165 -0.4647  1.8554 -2.3624
   64SOL    HW2  192   1.404   1.399   0.212  0.8126  0.0564  0.4838
   65SOL     OW  193   0.894   3.047   1.492 -0.4671  0.0131  0.0430
   65SOL    HW1  194   0.973   3.019   1.441 -0.3941 -0.2406  2.7112
   65SOL    HW2  195   0.872   0.039   1.472 -1.8926 -0.7722 -0.3491
   66SOL     OW  196   0.791   1.321   1.422  0.0562  0.0778  0.7395
   66SOL    HW1  197   0.790   1.263   1.504 -2.6789  2.8731 -1.1368
   66SOL    HW2  198   0.843   1.281   1.345 -1.0557 -1.6333  0.9125
   67SOL     OW  199   2.139   2.378   1.878 -0.2628 -0.3583 -0.0159
   67SOL    HW1  200   2.204   2.456   1.880 -0.4788 -0.3728 -0.8298
   67SOL    HW2  201   2.173   2.322   1.802 -0.2689  1.3596 -0.0444
   68SOL     OW  202   1.020   1.125   1.864  0.4811  0.1310  0.1288
   68SOL    HW1  203   0.937   1.124   1.923 -0.3007 -0.1992 -0.2099
   68SOL    HW2  204   1.008   1.064   1.791 -1.2944  0.6337  5.3989
   69SOL     OW  205   2.655   2.539   0.079 -0.2743  0.0314  0.0663
   69SOL    HW1  206   2.658   2.553   0.184 -1.8014  1.5504  1.5135
   69SOL    HW2  207   2.558   2.529   0.046  1.2096 -0.5903 -0.7237
   70SOL     OW  208   2.462   0.798   2.530 -0.2886  0.5407 -0.4971
   70SOL    HW1  209   2.483   0.866   2.603  0.0203 -0.9685 -0.1152
   70SOL    HW2  210   2.513   0.713   2.548  1.7903 -0.5837 -1.1727
   71SOL     OW  211   0.133   1.891   0.719  0.1029  0.0565  0.0591
   71SOL    HW1  212   0.151   1.814   0.656 -0.5227  1.6836  0.0963
   71SOL    HW2  213   0.035   1.900   0.750 -0.5095 -2.4223 -0.5932
   72SOL     OW  214   2.702   1.858   0.459  0.4804 -0.0937  0.2845
   72SOL    HW1  215   2.656   1.792   0.389 -1.7575  0.1475 -1.5783
   72SOL    HW2  216   2.658   1.952   0.457  2.5273 -0.1365 -0.6599
   73SOL     OW  217   0.966   0.571   0.785 -0.0480  0.1584  0.4610
   73SOL    HW1  218   0.969   0.666   0.764 -1.8118 -1.9590  0.0758
   73SOL    HW2  219   0.931   0.556   0.875  0.5188  0.3205 -3.2562
   74SOL     OW  220   2.665   2.286   2.176  0.4396 -0.1462  0.4954
   74SOL    HW1  221   2.631   2.209   2.117  1.5517 -0.0211 -2.5237
   74SOL    HW2  222   2.763   2.280   2.192 -1.9932  0.4125  1.6446
   75SOL     OW  223   1.770   1.702   1.755  0.2136 -0.2959 -0.2996
   75SOL    HW1  224   1.786   1.760   1.838 -1.2383  1.3133 -1.7752
   75SOL    HW2  225   1.723   1.622   1.785  1.5621  2.4167 -1.1079
   76SOL     OW  226   1.114   2.006   1.222  0.3897  0.5250  0.2853
   76SOL    HW1  227   1.157   1.920   1.258  2.9871 -0.8145 -2.7185
   76SOL    HW2  228   1.013   2.017   1.239 -3.1557 -0.6361 -0.1162
   77SOL     OW  229   2.767   1.692   2.041  0.2999  0.1114 -0.3020
   77SOL    HW1  230   2.837   1.636   2.086 -1.6816  0.3235 -2.6482
   77SOL    HW2  231   2.760   1.782   2.085 -1.6386 -3.2671 -1.1440
   78SOL     OW  232   1.920   0.639   0.552 -0.2462 -0.5021  0.0607
   78SOL    HW1  233   1.989   0.692   0.603  1.2602  0.4280  3.4284
   78SOL    HW2  234   1.854   0.702   0.511  2.9945 -0.4856  1.7949
   79SOL     OW  235   2.005   1.094   1.835  0.2666  0.4055  0.2467
   79SOL    HW1  236   2.069   1.105   1.907 -1.3361 -0.1509 -2.4368
   79SOL    HW2  237   2.005   1.171   1.768  1.2105 -0.3500  0.5608
   80SOL     OW  238   1.071   0.515   1.574  0.3313 -0.0252  0.4027
   80SOL    HW1  239   1.078   0.480   1.476  0.5944 -0.2187 -1.8355
   80SOL    HW2  240   1.110   0.608   1.581  1.8144 -1.0662 -1.4156
   81SOL     OW  241   1.004   2.549   0.843 -0.0972 -0.4455  0.3990
   81SOL    HW1  242   1.009   2.647   0.867  0.8341  1.8811  1.0621
   81SOL    HW2  243   1.078   2.499   0.890 -2.1952  1.9410 -0.8388
   82SOL     OW  244   1.311   0.441   1.979 -0.6288 -0.9413  0.3955
   82SOL    HW1  245   1.370   0.433   1.896  2.2505 -1.8503 -0.1951
   82SOL    HW2  246   1.289   0.347   2.020 -2.6735 -1.6147  1.4750
   83SOL     OW  247   0.348   2.254   0.932  0.1046  0.0264 -0.1411
   83SOL    HW1  248   0.338   2.201   0.846  0.8550 -2.0839 -0.6901
   83SOL    HW2  249   0.263   2.259   0.990  0.4679 -0.8739 -0.4022
   84SOL     OW  250   2.619   1.502   3.049  0.2288  0.0940  0.3317
   84SOL    HW1  251   2.638   1.431   2.978 -0.8571  1.8050 -0.3400
   84SOL    HW2  252   2.675   1.589   3.028 -0.4111  1.7814  1.7454
   85SOL     OW  253   2.503   2.304   1.807 -0.1939  0.0991  0.0331
   85SOL    HW1  254   2.417   2.274   1.755  0.0968 -0.0236 -0.2751
   85SOL    HW2  255   2.527   2.233   1.880 -2.3991 -0.5759  1.9124
   86SOL     OW  256   1.734   2.724   1.144  0.7192 -0.8774 -0.2619
   86SOL    HW1  257   1.825   2.724   1.188 -3.8328 -1.7565  1.8346
   86SOL    HW2  258   1.747   2.734   1.042 -2.1786 -1.1584  0.6377
   87SOL     OW  259   2.568   1.661   0.264 -0.5766 -0.3600  0.0713
   87SOL    HW1  260   2.509   1.728   0.209 -2.2199  1.0533 -1.1152
   87SOL    HW2  261   2.586   1.581   0.205  1.3258  2.0294 -1.8184
   88SOL     OW  262   0.969   0.381   1.038 -0.5177 -0.0484 -0.0756
   88SOL    HW1  263   0.986   0.284   1.027 -0.7939  0.5676  0.5459
   88SOL    HW2  264   0.865   0.394   1.043 -1.7653 -0.8825  2.0432
   89SOL     OW  265   0.638   0.122   1.806  0.5973 -0.2348  0.3648
   89SOL    HW1  266   0.717   0.174   1.841  3.2237 -1.5110 -0.9515
   89SOL    HW2  267   0.602   0.059   1.877 -1.1348 -2.2155  0.6841
   90SOL     OW  268   2.894   1.730   0.880 -0.2917 -0.0648  0.2357
   90SOL    HW1  269   2.827   1.673   0.821  0.4159 -1.3484 -0.5575
   90SOL    HW2  270   2.989   1.724   0.846 -0.9305  0.5227  0.3349
   91SOL     OW  271   1.220   1.771   1.314 -0.0232  0.3962  0.1294
   91SOL    HW1  272   1.301   1.745   1.366 -0.6580 -2.9576 -0.1886
   91SOL    HW2  273   1.157   1.697   1.308 -0.8872  3.0134 -2.6927
   92SOL     OW  274   2.592   2.985   1.622 -0.4882  0.2412 -0.5118
   92SOL    HW1  275   2.576   3.086   1.633  0.1165  1.1213  1.2501
   92SOL    HW2  276   2.667   2.957   1.684  0.7147  1.8057 -1.9047
   93SOL     OW  277   0.320   1.073   2.816  0.1574 -0.0774 -0.6247
   93SOL    HW1  278   0.396   1.020   2.858  1.5102 -1.6607  0.1494
   93SOL    HW2  279   0.354   1.105   2.729 -0.6228 -0.2103 -0.0113
   94SOL     OW  280   2.525   0.014   2.035  0.0440  0.3164  0.0829
   94SOL    HW1  281   2.488   0.097   2.082  0.4010 -1.5890  0.1992
   94SOL    HW2  282   2.616   0.039   1.994  1.3269  1.5288 -1.1401
   95SOL     OW  283   1.685   0.709   2.108  0.5358  0.0907  0.6337
   95SOL    HW1  284   1.601   0.696   2.160 -0.7832  0.4583  0.5537
   95SOL    HW2  285   1.666   0.735   2.010  1.7378  0.5828 -0.7284
   96SOL     OW  286   2.874   0.722   1.757  0.1051 -0.6188  0.4304
   96SOL    HW1  287   2.847   0.684   1.844  1.7793  0.0010  1.2313
   96SOL    HW2  288   2.875   0.821   1.767 -1.4004 -2.4584 -0.9886
   97SOL     OW  289   2.093   2.981   1.622  0.1714  0.2464  0.0627
   97SOL    HW1  290   2.186   2.943   1.644  0.7293  3.1177  0.4453
   97SOL    HW2  291   2.053   3.036   1.699 -0.3473  1.2338  1.8667
   98SOL     OW  292   1.933   2.445   1.734  0.0898  0.1684 -0.0127
   98SOL    HW1  293   2.004   2.400   1.791 -0.2303  0.8384 -1.2230
   98SOL    HW2  294   1.902   2.526   1.784  1.0807 -1.3244 -1.2272
   99SOL     OW  295   2.639   0.668   1.460 -0.3021  0.6132  0.3304
   99SOL    HW1  296   2.568   0.599   1.452 -0.4835  2.0791  0.6782
   99SOL    HW2  297   2.729   0.626   1.479  1.1896  0.6093  1.1777
  100SOL     OW  298   2.538   1.711   1.867  0.6605  0.5991  0.4059
  100SOL    HW1  299   2.458   1.682   1.920 -0.0389  1.5919  1.4277
  100SOL    HW2  300   2.625   1.681   1.913 -2.2641  0.4083 -0.5053
  101SOL     OW  301   2.114   0.023   0.135 -0.3441  0.1557  0.0888
  101SOL    HW1  302   2.193   3.062   0.136  1.5614 -0.5302 -1.4915
  101SOL    HW2  303   2.147   0.115   0.111  0.0033  0.4164  1.5729
  102SOL     OW  304   0.680   0.740   1.304 -0.3551 -0.9600  0.3769
  102SOL    HW1  305   0.641   0.652   1.338 -2.1200  0.4366 -1.9535
  102SOL    HW2  306   0.687   0.740   1.201 -1.0463  0.2400 -0.1583
  103SOL     OW  307   2.895   0.110   2.308  0.4493  0.0452 -0.1893
  103SOL    HW1  308   2.822   0.038   2.303  1.3540  0.9902 -0.3026
  103SOL    HW2  309   2.976   0.074   2.266 -0.6929  0.9482 -1.1559
  104SOL     OW  310   0.261   2.816   1.506  0.0086 -0.5175 -0.2015
  104SOL    HW1  311   0.325   2.895   1.509  1.0178 -1.2115  1.1596
  104SOL    HW2  312   0.285   2.751   1.579 -0.7954  0.0348  1.2639
  105SOL     OW  313   1.287   1.484   2.039 -0.0034  0.2700  0.1158
  105SOL    HW1  314   1.225   1.526   2.114 -0.2282  0.6495  1.1395
  105SOL    HW2  315   1.275   1.381   2.035 -0.1237  0.9173 -2.0842
  106SOL     OW  316   1.838   0.396   0.593  0.1894 -0.0005  0.4401
  106SOL    HW1  317   1.927   0.348   0.584 -3.7769  0.1638 -0.1715
  106SOL    HW2  318   1.862   0.496   0.585 -1.1110 -0.3057  1.7849
  107SOL     OW  319   0.608   0.989   1.425  0.0842  0.4648 -0.5641
  107SOL    HW1  320   0.517   0.964   1.463 -0.5853 -0.3992 -0.8374
  107SOL    HW2  321   0.645   0.911   1.371  0.0548  1.3388  1.4597
  108SOL     OW  322   0.066   0.437   2.208 -0.2069 -0.6223 -0.1559
  108SOL    HW1  323   0.067   0.441   2.104  0.6219 -0.3447 -2.7192
  108SOL    HW2  324   3.083   0.407   2.243 -0.5853  0.9849 -1.0302
  109SOL     OW  325   1.827   2.937   2.596 -0.0768  0.4083  0.0087
  109SOL    HW1  326   1.788   2.947   2.689  2.1398  2.0120 -2.4727
  109SOL    HW2  327   1.908   2.877   2.599 -1.0828  0.8903  0.9074
  110SOL     OW  328   0.067   1.796   2.759 -0.2883  0.5116 -0.0710
  110SOL    HW1  329   3.074   1.772   2.735 -0.3988 -1.4747  0.6614
  110SOL    HW2  330   0.069   1.868   2.836 -0.4431 -0.5585  0.4315
  111SOL     OW  331   2.795   0.580   2.403  0.0123 -0.6718  0.0739
  111SOL    HW1  332   2.720   0.561   2.467 -0.7739 -2.1473  2.5406
  111SOL    HW2  333   2.853   0.497   2.398  4.2581  0.1688  0.5081
  112SOL     OW  334   2.729   2.718   1.362 -0.1799 -0.0707 -0.6768
  112SOL    HW1  335   2.709   2.620   1.362 -0.2573  0.7904 -1.3827
  112SOL    HW2  336   2.775   2.738   1.275  0.6922  2.4969  0.5676
  113SOL     OW  337   2.259   2.073   2.320 -0.0289 -0.1793 -0.2635
  113SOL    HW1  338   2.314   2.151   2.291  2.1029 -2.0199  1.0197
  113SOL    HW2  339   2.160   2.101   2.320  0.8839  0.2017  0.7587
  114SOL     OW  340   3.058   0.292   0.178 -0.1943  0.0308  1.0255
  114SOL    HW1  341   3.023   0.195   0.160 -0.0890 -1.8138 -0.3694
  114SOL    HW2  342   3.077   0.296   0.278 -2.5002 -1.3634 -0.5653
  115SOL     OW  343   2.778   1.716   2.977  0.7672 -0.2165  0.1873
  115SOL    HW1  344   2.853   1.706   3.041 -0.8329  0.5830  1.0469
  115SOL    HW2  345   2.823   1.732   2.882 -0.2455  1.3027 -1.7801
  116SOL     OW  346   3.044   1.407   1.958 -0.0640  0.8007 -0.2772
  116SOL    HW1  347   3.086   1.393   1.867 -0.4345 -0.5131 -0.4296
  116SOL    HW2  348   3.054   1.502   1.989 -0.9502 -1.3376 -0.6172
  117SOL     OW  349   2.186   0.185   1.254  0.3666 -0.0680  1.0105
  117SOL    HW1  350   2.091   0.147   1.238 -1.6665 -0.3082  0.1576
  117SOL    HW2  351   2.237   0.146   1.331  0.3038  1.2659 -0.9232
  118SOL     OW  352   3.053   2.438   2.036 -0.3606 -0.1215  0.3447
  118SOL    HW1  353   3.018   2.526   2.007  0.0911 -3.8678  0.1407
  118SOL    HW2  354   0.046   2.432   2.023  0.2545 -1.2631  1.6534
  119SOL     OW  355   0.777   1.771   1.278  0.0368 -0.2425 -0.2612
  119SOL    HW1  356   0.826   1.861   1.267  2.3104  1.8550  1.9154
  119SOL    HW2  357   0.696   1.788   1.338 -0.1683 -2.0707 -1.8569
  120SOL     OW  358   0.226   1.603   1.411  0.5594  0.4046 -0.0783
  120SOL    HW1  359   0.256   1.576   1.506 -0.3943  0.1113  0.5452
  120SOL    HW2  360   0.134   1.554   1.396 -3.7415 -0.2181 -3.6915
  121SOL     OW  361   1.879   1.395   0.833 -0.0428 -0.0068  0.5247
  121SOL    HW1  362   1.861   1.471   0.901  0.6278 -1.6133  2.1749
  121SOL    HW2  363   1.846   1.410   0.739  1.2603  1.1793 -1.1795
  122SOL     OW  364   1.832   1.941   2.551 -0.2638  0.3757 -0.3359
  122SOL    HW1  365   1.870   1.881   2.476  0.8711  1.0094 -2.3305
  122SOL    HW2  366   1.892   1.936   2.632 -1.4447  0.6126  0.3042
  123SOL     OW  367   2.990   0.018   0.184  0.3997 -0.3174  0.0418
  123SOL    HW1  368   3.081   3.074   0.185 -0.3334 -1.8690  3.3052
  123SOL    HW2  369   2.928   3.083   0.252 -0.5285 -0.6697 -0.2731
  124SOL     OW  370   0.978   1.198   0.604  0.1090 -0.4862  0.0279
  124SOL    HW1  371   0.907   1.196   0.679 -0.5244  0.6167 -0.7296
  124SOL    HW2  372   1.035   1.280   0.617 -1.1409 -0.4840 -1.5802
  125SOL     OW  373   0.288   1.316   2.057 -0.6484  0.0412  0.4539
  125SOL    HW1  374   0.230   1.353   1.983 -1.4807 -0.1390  1.2161
  125SOL    HW2  375   0.284   1.362   2.146  1.6514 -4.5419 -3.3250
  126SOL     OW  376   0.150   2.443   0.126  0.2417  0.6728  0.8277
  126SOL    HW1  377   0.207   2.440   0.217  2.2202  0.9638  0.8667
  126SOL    HW2  378   0.087   2.520   0.121  1.1865 -1.3998 -0.3136
  127SOL     OW  379   2.795   1.611   0.484 -0.4070  0.1473  0.6402
  127SOL    HW1  380   2.788   1.712   0.482 -1.4930  1.8351 -0.5086
  127SOL    HW2  381   2.712   1.572   0.442  2.0992  1.9080  1.5585
  128SOL     OW  382   1.257   0.950   0.773  0.4922 -0.3264 -0.2059
  128SOL    HW1  383   1.221   1.042   0.798 -2.2298 -0.5215  2.0549
  128SOL    HW2  384   1.354   0.936   0.806  2.2709  0.3100  1.9465
  129SOL     OW  385   2.323   1.825   1.010 -0.1478 -0.2760 -0.0057
  129SOL    HW1  386   2.254   1.874   0.951 -2.0001 -0.6465 -3.8209
  129SOL    HW2  387   2.320   1.870   1.099 -1.4265 -0.3348 -0.4955
  130SOL     OW  388   2.144   1.028   0.790  0.2586 -0.1671 -0.2449
  130SOL    HW1  389   2.245   1.015   0.810  0.8648  3.8520  0.7716
  130SOL    HW2  390   2.112   1.123   0.813 -1.0662  1.8731  1.5123
  131SOL     OW  391   3.012   1.153   2.487 -0.0584 -0.0194 -0.1783
  131SOL    HW1  392   2.928   1.116   2.527  0.4168 -1.0571 -1.1137
  131SOL    HW2  393   3.073   1.075   2.447  5.6021 -2.5917 -0.2814
  132SOL     OW  394   1.551   1.396   2.116 -0.1636  0.4186  0.4650
  132SOL    HW1  395   1.592   1.308   2.152  3.6390 -0.1106 -2.9279
  132SOL    HW2  396   1.461   1.373   2.075  0.5676  0.5993 -0.9580
  133SOL     OW  397   0.105   0.852   0.330  0.1808  0.1076  0.2874
  133SOL    HW1  398   0.076   0.770   0.382 -1.1328 -1.0285  2.9109
  133SOL    HW2  399   0.074   0.936   0.379 -2.1766  0.2875  0.6999
  134SOL     OW  400   2.738   1.047   0.300  0.1588 -0.5950 -0.0985
  134SOL    HW1  401   2.796   1.006   0.228  0.0300 -0.5080  3.0737
  134SOL    HW2  402   2.644   1.075   0.263 -0.8055 -0.1319 -1.9576
  135SOL     OW  403   1.693   0.800   0.037 -0.1422 -0.8380  0.0387
  135SOL    HW1  404   1.737   0.799   3.052  1.8189  0.7224  1.4994
  135SOL    HW2  405   1.616   0.866   0.030  3.4465 -0.0565 -0.6474
  136SOL     OW  406   1.783   1.983   1.732  0.0404  0.0898 -0.3596
  136SOL    HW1  407   1.788   1.881   1.712  0.6230 -1.3802  0.6265
  136SOL    HW2  408   1.795   2.033   1.644  2.2405  0.6804  0.9210
  137SOL     OW  409   2.585   2.521   0.600 -0.1902  0.3416  0.3196
  137SOL    HW1  410   2.630   2.464   0.667 -1.2441  0.0871  1.2332
  137SOL    HW2  411   2.501   2.480   0.558  0.7278  0.3991  1.2013
  138SOL     OW  412   2.476   0.468   1.436 -0.8508  0.2861 -0.2051
  138SOL    HW1  413   2.449   0.416   1.516  1.0206 -0.5811 -2.3708
  138SOL    HW2  414   2.511   0.405   1.362 -0.0889  1.6093  1.5899
  139SOL     OW  415   2.533   0.148   2.533  0.0815  0.3121 -0.1337
  139SOL    HW1  416   2.468   0.201   2.591 -1.2199  1.7506 -0.8306
  139SOL    HW2  417   2.627   0.151   2.576  1.6935  0.6799  2.8834
  140SOL     OW  418   1.020   1.925   2.230 -0.0403  0.1358 -0.6889
  140SOL    HW1  419   1.057   1.969   2.315  0.1222 -1.3310 -0.0276
  140SOL    HW2  420   1.095   1.887   2.172  0.5927  0.1050 -0.4687
  141SOL     OW  421   0.910   0.712   2.288 -0.1544 -0.0932  0.4243
  141SOL    HW1  422   0.947   0.727   2.381 -2.7045 -0.1532 -2.2100
  141SOL    HW2  423   0.913   0.795   2.230  0.0829  0.4398  1.8680
  142SOL     OW  424   2.655   2.622   2.764 -0.0721 -0.1588  0.1071
  142SOL    HW1  425   2.570   2.643   2.818  0.5534 -0.5872 -0.0366
  142SOL    HW2  426   2.641   2.527   2.735 -0.9223  0.4085  2.6722
  143SOL     OW  427   0.967   2.084   0.555 -0.5366  0.5014 -0.4653
  143SOL    HW1  428   1.050   2.116   0.500  2.7576 -0.6149  0.0770
  143SOL    HW2  429   0.950   2.144   0.641  2.2548 -2.0305  1.2986
  144SOL     OW  430   1.182   2.817   0.099  0.3461  0.1707 -0.1637
  144SOL    HW1  431   1.136   2.760   0.027 -0.5545  1.1434 -0.6746
  144SOL    HW2  432   1.117   2.889   0.130 -0.1656  1.2217 -0.5262
  145SOL     OW  433   1.554   1.979   2.550 -0.1758  0.7225  0.1807
  145SOL    HW1  434   1.649   1.950   2.531  1.0953  0.5316  1.5861
  145SOL    HW2  435   1.499   2.015   2.467  0.5399  1.9301 -0.9531
  146SOL     OW  436   2.351   0.071   2.892 -0.3622  0.1747 -0.4696
  146SOL    HW1  437   2.412   0.002   2.930  1.8394  1.3932  1.2645
  146SOL    HW2  438   2.269   0.020   2.858  0.0355 -0.0520 -0.0261
  147SOL     OW  439   2.694   1.143   1.004  0.1081  0.0305 -0.2321
  147SOL    HW1  440   2.711   1.227   1.056 -2.4551 -0.9580 -1.3311
  147SOL    HW2  441   2.636   1.150   0.924  2.8609  0.7821  0.1518
  148SOL     OW  442   2.204   2.752   0.021 -0.6461 -0.2461  0.0747
  148SOL    HW1  443   2.132   2.732   0.086  2.9672 -3.9642 -2.8109
  148SOL    HW2  444   2.162   2.817   3.059  1.0429 -0.3940 -0.8729
  149SOL     OW  445   0.463   1.791   2.715  0.3653 -0.5379 -0.1352
  149SOL    HW1  446   0.514   1.704   2.732 -1.6954  1.0470 -0.4618
  149SOL    HW2  447   0.523   1.860   2.666 -0.8515  0.7466 -1.0804
  150SOL     OW  448   0.430   2.528   0.559  0.7449 -0.1338 -0.3134
  150SOL    HW1  449   0.509   2.471   0.520  1.1276 -0.8975 -1.2768
  150SOL    HW2  450   0.442   2.519   0.664  1.3731 -0.3086  3.2087
  151SOL     OW  451   0.206   1.190   0.291  0.2112  0.3016  0.5784
  151SOL    HW1  452   0.268   1.115   0.304 -1.6693  0.1857 -1.5118
  151SOL    HW2  453   0.214   1.223   0.197 -0.2776 -0.3591  0.0555
  152SOL     OW  454   2.789   2.164   0.621  0.1031 -0.0373 -0.2787
  152SOL    HW1  455   2.754   2.220   0.701 -1.0665  1.3096  1.6571
  152SOL    HW2  456   2.715   2.137   0.558  0.2011 -0.1519  2.7112
  153SOL     OW  457   1.786   2.352   0.785 -0.3072 -0.3422 -0.0159
  153SOL    HW1  458   1.784   2.351   0.884  1.6307  0.8799 -2.6082
  153SOL    HW2  459   1.691   2.342   0.743 -1.1895  1.8163  0.6137
  154SOL     OW  460   0.811   2.731   1.393  0.4530  0.4266 -0.3290
  154SOL    HW1  461   0.748   2.805   1.362 -1.2909  2.5692 -1.9007
  154SOL    HW2  462   0.903   2.780   1.399  2.5755  3.6592 -0.3058
  155SOL     OW  463   2.612   1.885   0.711 -0.1964 -0.2619  0.1685
  155SOL    HW1  464   2.537   1.953   0.709  0.0850 -2.1691 -1.8509
  155SOL    HW2  465   2.671   1.874   0.629  0.4754  2.5272  0.1936
  156SOL     OW  466   2.669   2.300   2.884 -0.2850 -0.3394  0.8118
  156SOL    HW1  467   2.733   2.349   2.944  0.8792 -0.7472 -0.3943
  156SOL    HW2  468   2.645   2.204   2.924  0.0485 -3.1633  2.8042
  157SOL     OW  469   0.527   2.188   1.527 -0.8112  0.0019  0.4534
  157SOL    HW1  470   0.477   2.255   1.586  1.2452  0.6222  0.9474
  157SOL    HW2  471   0.457   2.144   1.464  2.5506  2.5464  2.2725
  158SOL     OW  472   1.463   0.415   0.587  0.0235 -0.0495  0.5385
  158SOL    HW1  473   1.469   0.312   0.582  2.3910 -1.2714  1.3916
  158SOL    HW2  474   1.521   0.457   0.658 -1.1972  2.1240 -1.4406
  159SOL     OW  475   1.676   0.531   0.128  0.5625 -0.5633 -0.0230
  159SOL    HW1  476   1.691   0.442   0.180 -0.1933  2.0525  2.4054
  159SOL    HW2  477   1.673   0.610   0.192  0.0209  0.6743  1.5525
  160SOL     OW  478   0.719   1.548   0.677 -0.3230 -0.4674 -0.4207
  160SOL    HW1  479   0.763   1.518   0.762 -1.2048  1.0549 -0.2847
  160SOL    HW2  480   0.669   1.467   0.643  0.7072 -0.1139  1.4236
  161SOL     OW  481   3.021   2.378   2.667 -0.3742  0.0826 -0.5844
  161SOL    HW1  482   2.946   2.314   2.637  0.6624 -1.7645  2.4910
  161SOL    HW2  483   0.001   2.322   2.676  3.0828  0.4604 -1.1421
  162SOL     OW  484   0.119   2.261   1.336  0.2335 -0.5208  0.1171
  162SOL    HW1  485   0.184   2.341   1.333 -2.8467 -1.5173 -0.8517
  162SOL    HW2  486   0.028   2.306   1.346 -0.9299 -0.3949  3.1571
  163SOL     OW  487   0.291   0.551   2.816 -0.0248  0.6107  0.1784
  163SOL    HW1  488   0.238   0.637   2.806 -0.0930  0.0406 -1.3409
  163SOL    HW2  489   0.252   0.487   2.747  1.6306 -0.9661  0.7742
  164SOL     OW  490   0.298   2.995   2.498 -0.3071  0.1267 -0.2317
  164SOL    HW1  491   0.395   2.998   2.534 -0.6807  0.7592 -1.4894
  164SOL    HW2  492   0.283   2.930   2.424 -0.5210 -1.0051 -0.1138
  165SOL     OW  493   2.604   1.011   1.693 -0.9364 -0.8169  0.1809
  165SOL    HW1  494   2.583   1.008   1.593  0.9302 -0.3733  2.0127
  165SOL    HW2  495   2.567   0.925   1.736  0.2029 -2.6593 -0.2322
  166SOL     OW  496   2.077   2.035   1.334 -0.2916 -0.4441  0.1128
  166SOL    HW1  497   2.096   2.137   1.329 -1.0431  0.5637  0.2804
  166SOL    HW2  498   2.050   2.000   1.244  0.7318  1.2063  1.0893
  167SOL     OW  499   0.832   1.008   2.383  0.1093  0.0355  0.2049
  167SOL    HW1  500   0.908   1.009   2.310 -1.1436 -0.6538 -2.1566
  167SOL    HW2  501   0.866   1.054   2.471  0.5539  2.1822 -1.2358
  168SOL     OW  502   2.050   0.131   2.135  0.1093 -0.4455 -0.1572
  168SOL    HW1  503   2.092   0.076   2.209  1.6683  0.3737  0.6525
  168SOL    HW2  504   1.975   0.083   2.083  0.1253 -0.9121 -4.7533
  169SOL     OW  505   0.413   0.983   0.393 -0.0339  0.2933  0.5517
  169SOL    HW1  506   0.507   0.974   0.420 -2.1729  1.0775  1.7536
  169SOL    HW2  507   0.385   0.907   0.333  2.4568  1.7641  1.2055
  170SOL     OW  508   0.555   1.586   1.652  0.1443  0.1099 -0.1403
  170SOL    HW1  509   0.568   1.529   1.573 -1.8931  0.6271  3.1130
  170SOL    HW2  510   0.581   1.538   1.738  0.5225 -1.5106  1.9926
  171SOL     OW  511   0.974   2.402   1.732 -0.3253  1.1665 -0.7940
  171SOL    HW1  512   0.950   2.347   1.652 -2.0536  3.4109  2.5227
  171SOL    HW2  513   0.890   2.446   1.771  2.7459  2.0826 -0.6842
  172SOL     OW  514   1.302   2.793   1.946 -0.1439 -0.9276  0.3067
  172SOL    HW1  515   1.290   2.843   2.036 -1.0740  1.5891 -0.5627
  172SOL    HW2  516   1.223   2.732   1.924  1.7904 -0.7609  1.4773
  173SOL     OW  517   1.548   2.377   0.669 -0.1688  0.4446 -0.5740
  173SOL    HW1  518   1.467   2.315   0.670 -1.2252 -1.1348  0.1438
  173SOL    HW2  519   1.523   2.459   0.724 -0.8816 -0.2156  0.0970
  174SOL     OW  520   2.340   2.954   0.437 -0.0859 -0.1748  0.5849
  174SOL    HW1  521   2.436   2.988   0.453  2.3880 -3.2573  0.0821
  174SOL    HW2  522   2.269   3.013   0.476  1.4784  1.4979 -0.9513
  175SOL     OW  523   1.128   1.426   0.685  0.3529 -0.1095 -0.5711
  175SOL    HW1  524   1.156   1.499   0.620 -0.8181  1.9660  0.2347
  175SOL    HW2  525   1.095   1.458   0.782  1.3106 -0.2675 -2.0859
  176SOL     OW  526   0.623   1.806   0.699  0.0489  0.1203  0.3138
  176SOL    HW1  527   0.628   1.871   0.621 -2.7926 -0.3939  2.2792
  176SOL    HW2  528   0.664   1.715   0.676  0.0589  2.1896  0.4413
  177SOL     OW  529   1.291   1.050   1.288 -0.1756  0.2038  0.2941
  177SOL    HW1  530   1.358   1.126   1.293  2.3133 -1.8160  1.7679
  177SOL    HW2  531   1.319   0.989   1.212 -3.0985 -1.5224  0.3773
  178SOL     OW  532   2.437   1.850   0.136  0.1740  0.3157  0.3519
  178SOL    HW1  533   2.404   1.921   0.204 -1.0202  2.0181 -0.0574
  178SOL    HW2  534   2.362   1.843   0.067  0.1656 -1.3732 -0.1423
  179SOL     OW  535   1.124   2.594   3.069  0.5963 -0.1931  0.1312
  179SOL    HW1  536   1.096   2.623   2.972  1.3103  0.3791 -4.3566
  179SOL    HW2  537   1.195   2.523   3.064 -2.4375 -0.6198  1.3930
  180SOL     OW  538   2.148   1.465   1.854 -0.5125 -0.1284 -0.0822
  180SOL    HW1  539   2.215   1.400   1.901 -2.5590  0.2009 -1.3610
  180SOL    HW2  540   2.102   1.423   1.775  0.8449 -2.2249  1.8446
  181SOL     OW  541   0.995   0.807   2.512 -0.2153  0.2680 -0.0574
  181SOL    HW1  542   0.953   0.895   2.547 -0.4477  1.3146  0.6263
  181SOL    HW2  543   1.012   0.749   2.598 -2.3636 -1.3265  2.5913
  182SOL     OW  544   3.066   1.312   2.288 -0.2251 -0.3802  0.5912
  182SOL    HW1  545   3.040   1.261   2.372 -0.9927  0.9312 -2.1589
  182SOL    HW2  546   3.067   1.246   2.210  1.7898 -1.1737  0.1792
  183SOL     OW  547   1.403   0.491   2.434 -0.1232 -0.5464 -0.4155
  183SOL    HW1  548   1.301   0.478   2.434 -1.7199  2.2478 -2.6496
  183SOL    HW2  549   1.429   0.561   2.363  0.4858  1.0111 -0.1597
  184SOL     OW  550   0.472   0.578   1.802 -0.1967 -0.0654  0.2595
  184SOL    HW1  551   0.494   0.663   1.860 -0.4235  1.6320 -0.9702
  184SOL    HW2  552   0.457   0.599   1.706  4.2624  0.2190 -2.7191
  185SOL     OW  553   2.112   1.680   0.413 -0.3126 -0.0583 -0.5859
  185SOL    HW1  554   2.080   1.584   0.423  1.4667  0.1456 -0.7665
  185SOL    HW2  555   2.194   1.691   0.478  0.2352  1.6585 -0.6295
  186SOL     OW  556   0.270   1.894   0.345 -0.9406 -0.7379 -0.6003
  186SOL    HW1  557   0.369   1.889   0.329 -0.9356  1.5595 -1.2391
  186SOL    HW2  558   0.246   1.820   0.411  1.1588 -0.1306 -2.1337
  187SOL     OW  559   2.048   2.482   0.217  0.0637 -0.1362 -0.2767
  187SOL    HW1  560   2.005   2.421   0.277  2.6744  4.1840 -3.5672
  187SOL    HW2  561   2.146   2.464   0.217 -0.4367  3.2852 -0.4292
  188SOL     OW  562   0.975   2.311   1.132 -0.5315  0.5485 -0.6913
  188SOL    HW1  563   0.965   2.377   1.212 -0.2063  0.6887 -0.2767
  188SOL    HW2  564   0.887   2.267   1.102  2.3603  1.2770  0.9961
  189SOL     OW  565   2.258   1.262   2.646  0.0219  0.0568  0.2375
  189SOL    HW1  566   2.220   1.321   2.566 -2.0174  4.6153 -1.2443
  189SOL    HW2  567   2.296   1.330   2.712  2.0533 -0.8054 -0.3539
  190SOL     OW  568   0.730   2.413   2.204 -0.1655 -0.2738 -0.0852
  190SOL    HW1  569   0.652   2.419   2.138 -0.4193 -1.0239  0.5666
  190SOL    HW2  570   0.706   2.365   2.293 -0.0733  0.1248  1.7753
  191SOL     OW  571   2.527   0.919   1.453  0.4030  0.3521  0.1605
  191SOL    HW1  572   2.438   0.912   1.405  1.4357  1.5563 -2.2121
  191SOL    HW2  573   2.569   0.829   1.471  2.8091 -3.0438  1.1479
  192SOL     OW  574   2.597   0.575   1.821 -0.0485  0.1014  0.6539
  192SOL    HW1  575   2.529   0.504   1.836  0.2938  1.3062  0.5797
  192SOL    HW2  576   2.558   0.669   1.816 -0.5963  0.8417 -0.5949
  193SOL     OW  577   0.722   0.196   0.226 -0.2113  0.1244 -0.3023
  193SOL    HW1  578   0.641   0.260   0.225 -1.4805 -1.2939  1.7389
  193SOL    HW2  579   0.797   0.228   0.286  0.0198 -0.6525 -2.4011
  194SOL     OW  580   1.204   2.497   1.304  0.3150  0.6399  0.4083
  194SOL    HW1  581   1.205   2.396   1.287  1.3070  3.4049  1.0342
  194SOL    HW2  582   1.267   2.526   1.377 -2.7110 -1.4644  0.6290
  195SOL     OW  583   2.354   1.117   0.464 -0.0779  0.1775 -0.6047
  195SOL    HW1  584   2.389   1.041   0.518 -2.2251  1.8931 -0.0784
  195SOL    HW2  585   2.417   1.140   0.389  0.9389  0.6646  2.2300
  196SOL     OW  586   0.833   2.263   1.500 -0.0479 -0.2092 -0.2786
  196SOL    HW1  587   0.840   2.345   1.443  1.2820 -1.8450 -2.0135
  196SOL    HW2  588   0.740   2.232   1.521  1.4747  1.4804 -0.5013
  197SOL     OW  589   0.426   0.770   2.327 -0.1427  0.5538  0.2164
  197SOL    HW1  590   0.375   0.803   2.243 -2.2029 -0.0539 -1.6027
  197SOL    HW2  591   0.358   0.720   2.385 -1.0526  1.3940 -0.7780
  198SOL     OW  592   1.735   0.763   0.401  0.6543  0.6356  0.3265
  198SOL    HW1  593   1.646   0.709   0.401 -0.9092  1.4752  0.6796
  198SOL    HW2  594   1.722   0.852   0.354  0.0479 -0.4088  1.5311
  199SOL     OW  595   2.806   0.607   1.995  0.0840 -0.1041 -0.2323
  199SOL    HW1  596   2.782   0.662   2.080 -1.4856 -1.2560 -1.0354
  199SOL    HW2  597   2.722   0.565   1.953  0.3083  2.4981  0.3787
  200SOL     OW  598   2.266   2.940   2.735 -0.3355  0.6317 -0.1232
  200SOL    HW1  599   2.327   2.875   2.785  3.1066 -2.2533  0.6413
  200SOL    HW2  600   2.313   2.967   2.643 -2.0587 -1.2509  1.0668
  201SOL     OW  601   2.497   0.248   1.283  0.5798  0.0788 -0.1412
  201SOL    HW1  602   2.532   0.170   1.338 -1.0113  0.8055 -1.1568
  201SOL    HW2  603   2.408   0.220   1.247  0.4751  1.0870  0.1742
  202SOL     OW  604   3.079   2.681   0.108  0.4213 -0.2177  0.1414
  202SOL    HW1  605   3.053   2.637   0.197  1.1817  1.7976 -0.0886
  202SOL    HW2  606   2.989   2.701   0.058 -0.5031 -0.5439  0.5167
  203SOL     OW  607   1.066   1.924   2.950  0.0299 -0.4579 -0.1616
  203SOL    HW1  608   1.071   1.829   2.991 -0.0375 -1.0949  2.9361
  203SOL    HW2  609   1.102   1.933   2.853  2.2372  1.0837 -0.6963
  204SOL     OW  610   0.680   1.972   2.569  0.0812 -0.0169 -0.4354
  204SOL    HW1  611   0.620   1.998   2.496  2.2341 -0.0392  2.8659
  204SOL    HW2  612   0.729   2.053   2.613  0.3283  3.5631 -0.1662
  205SOL     OW  613   1.126   0.777   1.075 -0.0730  0.4708  0.3671
  205SOL    HW1  614   1.068   0.778   1.161  0.6951 -1.9499  1.7065
  205SOL    HW2  615   1.210   0.838   1.079 -0.7481  1.6449  0.1280
  206SOL     OW  616   0.168   0.838   2.745 -0.0092  0.0168  0.0198
  206SOL    HW1  617   0.229   0.917   2.743  0.1447 -2.3062  0.6112
  206SOL    HW2  618   0.114   0.835   2.659 -3.8373 -1.3113  0.3037
  207SOL     OW  619   1.577   2.338   1.867  0.0875  0.2140  0.0428
  207SOL    HW1  620   1.660   2.362   1.924 -0.4521 -1.1537  2.2185
  207SOL    HW2  621   1.485   2.350   1.908  3.1336 -1.0315 -1.9594
  208SOL     OW  622   0.344   2.953   1.120 -0.0707  0.4119 -0.4894
  208SOL    HW1  623   0.305   2.876   1.180 -1.8115 -1.4647 -1.1985
  208SOL    HW2  624   0.372   2.915   1.027 -1.8341 -2.9937 -0.9018
  209SOL     OW  625   1.523   1.137   0.468 -0.0639 -0.2005 -0.2135
  209SOL    HW1  626   1.496   1.046   0.497 -1.8524  1.8361 -0.3516
  209SOL    HW2  627   1.578   1.143   0.382 -2.4682  4.0893  0.3251
  210SOL     OW  628   2.449   0.553   0.838  0.4913 -0.4631  0.0624
  210SOL    HW1  629   2.385   0.533   0.756 -2.8387 -3.3807 -3.6418
  210SOL    HW2  630   2.546   0.526   0.810  2.3691  1.1158  0.1096
  211SOL     OW  631   1.383   2.732   0.351  0.0618  0.0437  0.1232
  211SOL    HW1  632   1.283   2.740   0.334  1.2938  0.6612 -0.3113
  211SOL    HW2  633   1.434   2.795   0.286  0.4092 -0.8014 -2.2280
  212SOL     OW  634   2.015   2.258   0.660  0.3024 -0.3102 -0.1173
  212SOL    HW1  635   2.095   2.302   0.705 -0.0675 -1.7533 -1.2391
  212SOL    HW2  636   1.927   2.284   0.705 -0.4932 -1.5407  0.0753
  213SOL     OW  637   1.994   0.762   2.681  0.0445 -0.5223 -0.2710
  213SOL    HW1  638   2.093   0.758   2.713  3.2117 -2.5570  0.9738
  213SOL    HW2  639   1.980   0.695   2.605  0.2700 -0.0922 -0.3812
  214SOL     OW  640   1.072   1.596   1.871  0.1668  0.0525 -0.3074
  214SOL    HW1  641   1.145   1.566   1.932  0.7757 -0.9341 -1.4927
  214SOL    HW2  642   1.108   1.585   1.776 -1.2712  0.5217 -0.8468
  215SOL     OW  643   0.111   1.252   0.866 -0.0917  0.0371  0.2907
  215SOL    HW1  644   0.138   1.247   0.959 -1.1236 -1.4340 -3.7653
  215SOL    HW2  645   0.020   1.299   0.872  0.2100  1.2626  0.3554
  216SOL     OW  646   0.310   2.239   2.498  0.2996  0.3579  0.3069
  216SOL    HW1  647   0.265   2.293   2.427  1.5119 -5.4641  0.4714
  216SOL    HW2  648   0.359   2.297   2.567  0.6345 -0.4248  0.4260
  217SOL     OW  649   2.730   1.013   1.271  0.9799 -0.6873  0.1034
  217SOL    HW1  650   2.657   0.989   1.335  1.0603  0.1149 -0.2494
  217SOL    HW2  651   2.712   1.088   1.202  0.5857 -0.4972 -1.4080
  218SOL     OW  652   0.700   2.082   1.920  0.0566  0.3798 -0.6256
  218SOL    HW1  653   0.661   2.045   1.834 -1.3966 -2.6786 -1.1503
  218SOL    HW2  654   0.801   2.067   1.927 -0.8605 -1.2096 -1.5556
  219SOL     OW  655   2.011   1.308   0.200 -0.4350  0.2141  0.4976
  219SOL    HW1  656   2.074   1.340   0.120  0.0040 -1.2253 -0.9715
  219SOL    HW2  657   2.038   1.346   0.287  3.4673  0.1512 -0.9538
  220SOL     OW  658   2.136   0.805   0.609 -0.6397  0.2134 -0.2807
  220SOL    HW1  659   2.131   0.869   0.686 -3.6886  0.6364 -0.7689
  220SOL    HW2  660   2.124   0.855   0.521  1.8198 -0.4055  2.2935
  221SOL     OW  661   2.984   0.693   0.199 -0.8178 -0.2209  0.0046
  221SOL    HW1  662   3.082   0.705   0.168 -0.2157  2.8238  0.7585
  221SOL    HW2  663   2.943   0.602   0.176 -1.5058  0.5720  0.5709
  222SOL     OW  664   1.516   1.346   0.645 -0.0709  0.0735 -0.3431
  222SOL    HW1  665   1.493   1.272   0.576  0.9516 -1.1856 -1.3919
  222SOL    HW2  666   1.491   1.318   0.741  2.2706 -1.3588 -1.4513
  223SOL     OW  667   0.893   0.157   2.863 -0.1178  0.4795 -0.1106
  223SOL    HW1  668   0.811   0.124   2.913 -0.5556  0.2365 -3.5683
  223SOL    HW2  669   0.880   0.136   2.762  1.8059 -0.2060 -0.7224
  224SOL     OW  670   1.213   0.081   1.257  0.3382 -0.1331  0.3824
  224SOL    HW1  671   1.221   0.113   1.352 -0.5592 -0.2998  0.4367
  224SOL    HW2  672   1.262   3.097   1.250  1.2284  1.2881  0.9201
  225SOL     OW  673   0.216   2.401   1.960 -0.7754 -0.3760 -0.0048
  225SOL    HW1  674   0.250   2.497   1.970 -0.2525  0.4728 -0.4485
  225SOL    HW2  675   0.268   2.326   2.006 -1.1132 -0.1865 -0.2022
  226SOL     OW  676   1.322   1.584   0.306  0.1169  0.3731  0.1230
  226SOL    HW1  677   1.410   1.632   0.316  0.1772 -1.1669 -0.9780
  226SOL    HW2  678   1.265   1.608   0.387 -1.2315  1.1437 -0.8471
  227SOL     OW  679   0.293   1.549   0.959 -0.2425  0.6784  0.2783
  227SOL    HW1  680   0.290   1.641   0.910 -2.9735  0.8546 -1.0943
  227SOL    HW2  681   0.322   1.476   0.895 -2.0350  1.4631 -0.1649
  228SOL     OW  682   0.017   1.599   0.777  0.2650  0.5117 -0.7214
  228SOL    HW1  683   3.081   1.519   0.821 -0.4261  0.3422  0.5929
  228SOL    HW2  684   0.018   1.580   0.676  0.1346  1.3743  0.3427
  229SOL     OW  685   2.376   0.277   2.712  0.6295  0.1113  0.1745
  229SOL    HW1  686   2.307   0.355   2.713 -1.4979  2.6026 -0.1096
  229SOL    HW2  687   2.341   0.196   2.761 -3.5116 -1.3495  0.7925
  230SOL     OW  688   1.850   1.124   0.894 -0.7053 -0.0214  0.0319
  230SOL    HW1  689   1.859   1.215   0.849 -0.4126 -1.3294 -0.5906
  230SOL    HW2  690   1.765   1.118   0.949  2.4024 -0.4843 -1.1425
  231SOL     OW  691   1.543   1.382   2.872 -0.5690 -0.4426  0.5353
  231SOL    HW1  692   1.590   1.375   2.781  1.9220 -2.3115  0.5217
  231SOL    HW2  693   1.609   1.358   2.943 -0.6159 -0.5202 -0.6560
  232SOL     OW  694   2.494   2.203   0.822 -0.4697 -0.2991 -0.2332
  232SOL    HW1  695   2.569   2.269   0.796 -1.6114 -0.7638  0.3925
  232SOL    HW2  696   2.495   2.181   0.922 -0.4936  2.1232 -2.7478
  233SOL     OW  697   0.662   2.540   1.021  0.0681  0.1557 -1.0109
  233SOL    HW1  698   0.677   2.643   1.030 -1.9539  4.0203  0.3100
  233SOL    HW2  699   0.744   2.491   1.050 -2.3082 -0.0076 -1.6341
  234SOL     OW  700   0.702   0.552   2.568  0.0032  0.1285  0.2339
  234SOL    HW1  701   0.701   0.642   2.517  2.9055 -0.6565  0.2003
  234SOL    HW2  702   0.669   0.568   2.662  1.2034 -2.4140 -1.3052
  235SOL     OW  703   2.762   0.779   2.195 -0.1899  0.2729  0.0580
  235SOL    HW1  704   2.817   0.741   2.267 -3.2162  0.3675  0.3616
  235SOL    HW2  705   2.665   0.787   2.210  3.3083 -2.1868  0.3613
  236SOL     OW  706   1.594   2.873   1.479 -0.2303 -0.3912  0.1847
  236SOL    HW1  707   1.531   2.846   1.407 -0.5979  2.4643 -1.8927
  236SOL    HW2  708   1.644   2.794   1.511  0.4910  1.1360  1.5257
  237SOL     OW  709   1.006   1.382   2.465 -0.1456  0.3238  0.0207
  237SOL    HW1  710   0.919   1.333   2.471  1.4925 -0.6618 -1.4353
  237SOL    HW2  711   1.009   1.435   2.551 -1.9148  2.3314 -0.5443
  238SOL     OW  712   1.137   0.523   2.385  0.1275 -0.5825 -0.4680
  238SOL    HW1  713   1.137   0.569   2.294  0.2978  0.6669  0.7718
  238SOL    HW2  714   1.044   0.490   2.415 -1.1576 -1.9016  0.0951
  239SOL     OW  715   0.357   2.206   2.090 -0.2573 -0.1263  0.8591
  239SOL    HW1  716   0.459   2.198   2.097 -1.1138 -0.6279  2.1832
  239SOL    HW2  717   0.305   2.121   2.075 -1.2066  0.0082 -0.9368
  240SOL     OW  718   2.650   2.850   0.765  0.4553  0.0695  0.3976
  240SOL    HW1  719   2.733   2.800   0.725  0.7090  1.7947 -0.2360
  240SOL    HW2  720   2.583   2.780   0.798 -0.0000  0.3556 -2.0587
  241SOL     OW  721   2.682   1.215   0.499 -0.0461 -0.1282  0.2112
  241SOL    HW1  722   2.629   1.278   0.439 -1.7461  0.3420  1.7986
  241SOL    HW2  723   2.696   1.128   0.451  0.8198  0.8339  2.3956
  242SOL     OW  724   1.773   2.427   2.025  0.4516  0.4366  0.2514
  242SOL    HW1  725   1.837   2.353   2.056 -0.4365 -0.3277  4.8032
  242SOL    HW2  726   1.823   2.512   2.001  0.4388 -3.0153 -2.0187
  243SOL     OW  727   0.454   2.602   2.037 -0.2004 -0.2288  0.1821
  243SOL    HW1  728   0.537   2.647   2.081 -1.5199 -1.0294  0.1563
  243SOL    HW2  729   0.475   2.509   1.997 -0.9798 -0.0593 -0.7037
  244SOL     OW  730   2.568   0.534   2.542 -0.5770  0.1658 -0.1496
  244SOL    HW1  731   2.570   0.485   2.630  1.4857 -0.2201  0.1339
  244SOL    HW2  732   2.494   0.497   2.489 -0.4096 -0.2992  0.2157
  245SOL     OW  733   1.338   0.151   1.009  0.0986  0.3291  0.1542
  245SOL    HW1  734   1.396   0.237   1.008  1.0412 -0.8133  0.0415
  245SOL    HW2  735   1.298   0.133   1.103 -2.9210  1.9745 -1.1298
  246SOL     OW  736   1.714   2.749   0.038  0.4833 -0.3001 -0.1701
  246SOL    HW1  737   1.740   2.708   3.058 -1.6628  0.8232  1.8815
  246SOL    HW2  738   1.618   2.787   0.035  0.9738 -0.0346 -0.3372
  247SOL     OW  739   1.275   0.848   2.388 -0.1310  0.1636 -0.3351
  247SOL    HW1  740   1.175   0.834   2.368  1.1691 -0.2352  0.8341
  247SOL    HW2  741   1.292   0.839   2.493 -2.0838 -1.1114  2.9226
  248SOL     OW  742   0.145   2.270   1.715  0.8004  0.1440 -0.0493
  248SOL    HW1  743   0.112   2.175   1.702  0.3264 -0.8373  0.8665
  248SOL    HW2  744   0.149   2.296   1.812  4.1302 -0.2965 -2.1372
  249SOL     OW  745   2.854   0.454   0.104 -0.4739 -0.2643  0.4492
  249SOL    HW1  746   2.948   0.422   0.121  0.3405 -2.0514 -1.4463
  249SOL    HW2  747   2.793   0.370   0.098 -2.0577 -0.3035 -1.3457
  250SOL     OW  748   2.792   0.100   2.592 -0.4027  0.4187 -0.3656
  250SOL    HW1  749   2.798   0.137   2.497 -0.1290 -0.8048 -1.5295
  250SOL    HW2  750   2.877   0.055   2.619 -2.3263  1.3089  1.3093
  251SOL     OW  751   1.329   0.867   0.024  0.3140  0.3905  0.7885
  251SOL    HW1  752   1.351   0.776   0.064  0.8334 -1.1226 -1.2948
  251SOL    HW2  753   1.343   0.942   0.089 -0.8525 -0.9262 -0.7067
  252SOL     OW  754   1.341   2.416   1.998 -0.0873 -0.5470 -0.7310
  252SOL    HW1  755   1.263   2.372   2.050 -1.5339 -0.1472  0.7153
  252SOL    HW2  756   1.399   2.468   2.066  0.0777 -0.3233 -1.1476
  253SOL     OW  757   2.323   2.420   1.183  0.2741  0.2392  0.4038
  253SOL    HW1  758   2.398   2.478   1.148  1.6862  0.5620 -0.5616
  253SOL    HW2  759   2.227   2.456   1.152 -2.2422  3.4764 -1.7893
  254SOL     OW  760   2.256   1.318   0.590  0.5183 -0.6840 -0.1154
  254SOL    HW1  761   2.308   1.244   0.552 -0.9548  2.1231  0.5245
  254SOL    HW2  762   2.203   1.301   0.678 -2.2877 -0.8772 -1.2388
  255SOL     OW  763   1.073   2.834   1.397 -0.1186 -0.1163 -0.1013
  255SOL    HW1  764   1.109   2.819   1.305 -1.7234 -1.5997  0.1237
  255SOL    HW2  765   1.108   2.774   1.470  2.3639 -2.1399  0.1533
  256SOL     OW  766   1.863   2.090   1.486 -0.0054  0.2112  0.5886
  256SOL    HW1  767   1.955   2.078   1.441  0.0563  2.1496 -0.8280
  256SOL    HW2  768   1.792   2.055   1.421 -0.8155 -2.3240 -0.3801
  257SOL     OW  769   0.546   2.706   2.489 -0.2484 -0.9824 -0.1421
  257SOL    HW1  770   0.619   2.771   2.459  1.9629 -1.8416 -1.7427
  257SOL    HW2  771   0.556   2.683   2.588  1.4685  0.6508 -2.6118
  258SOL     OW  772   0.800   2.570   0.671 -0.5052 -0.4029 -0.3827
  258SOL    HW1  773   0.833   2.632   0.598  0.3319 -2.2443 -2.4280
  258SOL    HW2  774   0.872   2.545   0.730 -2.9678  0.0045 -2.6644
  259SOL     OW  775   1.499   0.243   2.761  0.0044  0.3112 -0.4199
  259SOL    HW1  776   1.468   0.223   2.857 -1.9985 -3.7403  2.4821
  259SOL    HW2  777   1.542   0.334   2.755 -0.1440 -2.7752  0.0567
  260SOL     OW  778   2.672   0.670   1.163  0.0073  0.7351  0.6097
  260SOL    HW1  779   2.766   0.638   1.146 -0.9284 -0.0482  1.4089
  260SOL    HW2  780   2.638   0.666   1.260 -0.0095  0.0713 -1.7625
  261SOL     OW  781   0.913   0.403   2.445  0.0757  0.1722  0.4719
  261SOL    HW1  782   0.829   0.446   2.486 -0.5035  1.7935 -2.4765
  261SOL    HW2  783   0.892   0.337   2.372 -0.0236  1.1720 -0.5868
  262SOL     OW  784   0.974   2.410   2.101  0.3176  0.2504 -0.2363
  262SOL    HW1  785   0.887   2.408   2.152  1.2853 -0.2273  0.1766
  262SOL    HW2  786   0.977   2.476   2.020 -0.1092  0.1867  1.7206
  263SOL     OW  787   0.456   1.894   2.977 -0.0172  0.5101  0.2376
  263SOL    HW1  788   0.538   1.940   2.950  0.3397 -0.0193 -0.6467
  263SOL    HW2  789   0.418   1.853   2.890 -1.2916  1.0892  2.3588
  264SOL     OW  790   1.098   1.525   0.937  0.1150  0.9954  0.2059
  264SOL    HW1  791   1.090   1.624   0.929 -0.6876 -1.6829  0.8854
  264SOL    HW2  792   1.097   1.496   1.034  1.0283 -0.4855 -1.7352
  265SOL     OW  793   1.236   2.477   0.601  0.6294 -0.2798 -0.4962
  265SOL    HW1  794   1.234   2.397   0.669  0.7986 -1.0569 -0.9468
  265SOL    HW2  795   1.260   2.435   0.509  0.4253 -0.7574 -0.2539
  266SOL     OW  796   1.990   0.500   0.829  0.1533 -0.1172 -0.2081
  266SOL    HW1  797   1.996   0.449   0.918  0.2922 -0.8947 -0.8594
  266SOL    HW2  798   1.922   0.574   0.837  0.6008 -1.3948  1.7040
  267SOL     OW  799   0.039   1.323   2.636 -0.0048 -0.0503 -0.5118
  267SOL    HW1  800   0.019   1.310   2.736 -1.6718 -0.3653 -0.6861
  267SOL    HW2  801   0.008   1.240   2.585  0.5633  1.5221  0.5951
  268SOL     OW  802   1.552   2.959   0.283  0.0134 -0.1831  0.1907
  268SOL    HW1  803   1.647   2.914   0.289 -0.0414 -0.4366 -0.7755
  268SOL    HW2  804   1.539   3.060   0.303 -1.7068 -1.3818  0.9199
  269SOL     OW  805   2.951   0.769   2.544 -0.6860 -0.0260  0.0444
  269SOL    HW1  806   2.909   0.691   2.496  1.6707 -0.2003 -2.4613
  269SOL    HW2  807   3.048   0.793   2.517 -1.6085  1.1753  0.9581
  270SOL     OW  808   3.070   1.414   0.032 -0.7582 -0.1339 -0.0398
  270SOL    HW1  809   3.015   1.376   0.107  3.5068  1.3471 -1.9854
  270SOL    HW2  810   0.065   1.391   0.049  2.2683 -1.6377 -0.0428
  271SOL     OW  811   2.654   1.378   2.664  0.3534 -0.3844 -0.5935
  271SOL    HW1  812   2.605   1.469   2.663 -0.1065 -1.0180 -0.4291
  271SOL    HW2  813   2.642   1.318   2.582 -0.2000  0.8635 -1.2780
  272SOL     OW  814   2.654   2.573   2.198 -0.1681 -0.8144  0.2771
  272SOL    HW1  815   2.674   2.573   2.298 -1.5660  1.0466 -1.8331
  272SOL    HW2  816   2.643   2.479   2.163  0.0968  1.6991 -0.0677
  273SOL     OW  817   0.406   2.721   0.219 -0.5973  0.0999 -0.0461
  273SOL    HW1  818   0.421   2.742   0.320 -0.8766  0.2140  1.3623
  273SOL    HW2  819   0.316   2.758   0.186 -0.1810  1.0290 -1.2778
  274SOL     OW  820   1.185   2.370   0.972 -0.1056 -0.7953  0.1144
  274SOL    HW1  821   1.248   2.291   0.974 -0.0950 -0.4645 -0.3217
  274SOL    HW2  822   1.099   2.359   1.029  0.2245  3.3231  0.4388
  275SOL     OW  823   2.222   1.778   3.048 -0.2723 -0.7618 -0.1541
  275SOL    HW1  824   2.154   1.806   0.015 -0.8187  0.5458 -1.0271
  275SOL    HW2  825   2.249   1.680   3.062  0.2793 -0.2210 -2.2630
  276SOL     OW  826   2.648   1.667   1.290  0.5621  0.3157  0.0049
  276SOL    HW1  827   2.683   1.625   1.378 -2.4928  1.1031  2.2575
  276SOL    HW2  828   2.724   1.701   1.235  0.7480  4.1679 -1.2540
  277SOL     OW  829   2.558   0.034   0.838 -0.1977 -0.4226  0.4918
  277SOL    HW1  830   2.543   3.058   0.787 -0.7079 -1.8949  1.1034
  277SOL    HW2  831   2.532   0.024   0.935 -0.3075  0.8007  0.7935
  278SOL     OW  832   1.585   0.271   2.406  0.0252 -0.1845  0.0845
  278SOL    HW1  833   1.505   0.332   2.424 -1.3703 -0.7860  1.0426
  278SOL    HW2  834   1.587   0.190   2.466 -0.5369 -0.5335  1.0929
  279SOL     OW  835   1.490   2.735   1.249  0.2905  0.2619 -0.0056
  279SOL    HW1  836   1.582   2.753   1.203 -0.5667 -2.8457 -0.2809
  279SOL    HW2  837   1.437   2.667   1.198 -1.4302 -0.7864  0.9983
  280SOL     OW  838   1.000   0.929   0.672 -0.6720 -0.0444  0.2492
  280SOL    HW1  839   0.973   0.998   0.604  1.1300 -1.7941 -1.3529
  280SOL    HW2  840   1.099   0.939   0.697  1.3155  0.1443  1.3436
  281SOL     OW  841   2.331   1.522   2.744  0.3177  0.0162 -0.0548
  281SOL    HW1  842   2.411   1.568   2.697  2.0565 -0.4107 -1.1689
  281SOL    HW2  843   2.251   1.587   2.756 -0.2194  1.0382 -1.0476
  282SOL     OW  844   3.033   1.293   2.886  0.2562  0.6427  0.3643
  282SOL    HW1  845   3.057   1.196   2.916  0.5877 -5.1256  1.8578
  282SOL    HW2  846   3.049   1.358   2.961  0.8201 -0.7668  4.2099
  283SOL     OW  847   1.690   2.674   2.684  0.2592 -0.0761  1.0639
  283SOL    HW1  848   1.695   2.662   2.583  2.2176  1.8963  0.2403
  283SOL    HW2  849   1.649   2.585   2.712 -3.9008 -1.5557 -1.4036
  284SOL     OW  850   0.719   0.130   3.066  0.4346  0.2825  0.1169
  284SOL    HW1  851   0.736   0.136   0.062  3.3646  0.8690  1.7960
  284SOL    HW2  852   0.643   0.191   3.034 -0.8019 -0.7888 -2.6987
  285SOL     OW  853   1.996   1.709   2.502 -0.1810 -0.4416  0.2300
  285SOL    HW1  854   2.080   1.767   2.525  0.3024  0.9942 -0.2219
  285SOL    HW2  855   1.972   1.722   2.404  0.1642 -1.3849  0.3279
  286SOL     OW  856   1.352   1.966   0.829  0.0150  0.0005  0.4260
  286SOL    HW1  857   1.268   1.963   0.882  1.2507 -0.6639 -2.1409
  286SOL    HW2  858   1.436   1.984   0.882  0.2203  1.3625 -0.3604
  287SOL     OW  859   1.768   0.382   1.331  0.5067 -0.0277 -0.2056
  287SOL    HW1  860   1.781   0.341   1.423  2.2499  1.1638  2.0850
  287SOL    HW2  861   1.860   0.427   1.308 -0.5220 -1.6902 -0.6577
  288SOL     OW  862   0.725   2.892   2.331 -0.4561  0.2400  0.2308
  288SOL    HW1  863   0.779   2.809   2.361  0.2745 -0.8500 -1.8011
  288SOL    HW2  864   0.681   2.880   2.238 -1.2993  2.8329 -0.0468
  289SOL     OW  865   0.068   1.062   0.679 -0.2216 -0.7223 -0.1061
  289SOL    HW1  866   0.086   1.148   0.736 -0.5915 -0.5336 -0.6018
  289SOL    HW2  867   3.080   1.020   0.677  1.1044 -1.2694 -2.3228
  290SOL     OW  868   1.268   2.221   1.313 -0.0743  0.4167 -0.3617
  290SOL    HW1  869   1.335   2.246   1.238 -0.6047  0.0544  2.5604
  290SOL    HW2  870   1.204   2.147   1.283  0.0561  0.2907 -0.0351
  291SOL     OW  871   2.008   2.642   0.653  0.5649 -0.3090  0.0080
  291SOL    HW1  872   1.982   2.739   0.682 -2.2601  2.8249  1.2702
  291SOL    HW2  873   1.924   2.595   0.617 -2.8271 -1.5718 -2.6589
  292SOL     OW  874   0.383   0.123   1.698  0.1286  0.2067  0.4657
  292SOL    HW1  875   0.338   0.038   1.735  1.8676  1.3511 -1.1653
  292SOL    HW2  876   0.481   0.136   1.728  2.4304  0.7579  2.6917
  293SOL     OW  877   2.345   1.768   0.582  0.4851  0.1688 -0.0240
  293SOL    HW1  878   2.403   1.708   0.647 -0.2924  0.2021  1.3158
  293SOL    HW2  879   2.344   1.869   0.616  2.4265  1.4033 -1.7788
  294SOL     OW  880   0.982   0.163   2.089  0.3558 -0.3774 -0.1182
  294SOL    HW1  881   1.069   0.208   2.077 -0.0688 -0.9721 -2.9454
  294SOL    HW2  882   0.988   0.063   2.108 -0.8753  0.2953 -1.2840
  295SOL     OW  883   0.887   1.202   0.880  0.1940  0.4205 -0.6423
  295SOL    HW1  884   0.845   1.296   0.896  0.5732  2.0788  0.5735
  295SOL    HW2  885   0.892   1.150   0.965 -0.5464 -0.5224  0.4792
  296SOL     OW  886   2.115   1.962   0.854  0.0701 -0.6279  0.9466
  296SOL    HW1  887   2.068   1.879   0.819  0.1864 -2.4775 -1.5519
  296SOL    HW2  888   2.171   2.002   0.778 -2.5942  1.1161 -2.0708
  297SOL     OW  889   1.811   0.207   2.828  0.6208 -0.0752  0.3444
  297SOL    HW1  890   1.732   0.271   2.804 -4.5582  2.0592 -0.2598
  297SOL    HW2  891   1.890   0.263   2.870  1.9431 -0.3871 -0.9530
  298SOL     OW  892   1.176   0.062   2.535  0.1853  0.3042 -0.4743
  298SOL    HW1  893   1.224   3.082   2.506  3.5542 -0.1315  2.9051
  298SOL    HW2  894   1.151   0.059   2.636  0.1283 -1.1049  2.0563
  299SOL     OW  895   1.044   2.998   2.084  0.0834  0.9358  0.1837
  299SOL    HW1  896   1.073   3.037   1.995 -1.1559 -0.5671 -0.6744
  299SOL    HW2  897   1.122   2.981   2.152  1.4550  1.3092  1.8766
  300SOL     OW  898   2.594   0.159   1.631  0.5192 -0.2708 -0.3617
  300SOL    HW1  899   2.674   0.191   1.577 -4.9569 -0.3108  3.0294
  300SOL    HW2  900   2.527   0.234   1.638 -0.8199 -1.4624 -1.0540
  301SOL     OW  901   2.376   0.329   1.678  0.3716 -0.0209  0.0383
  301SOL    HW1  902   2.375   0.367   1.768  1.8808  0.9347  0.0055
  301SOL    HW2  903   2.283   0.313   1.645 -1.2945  0.7080 -1.0560
  302SOL     OW  904   0.712   2.454   2.957 -0.3052 -0.2830  0.2854
  302SOL    HW1  905   0.774   2.389   3.000 -0.4120 -2.6598  0.1990
  302SOL    HW2  906   0.651   2.486   3.026  0.9780  2.0580 -2.4824
  303SOL     OW  907   1.645   1.986   1.390  0.3422 -0.7042  0.3147
  303SOL    HW1  908   1.585   2.063   1.430 -1.2958  0.3874 -2.0163
  303SOL    HW2  909   1.596   1.894   1.383 -0.4184 -0.8329  0.1031
  304SOL     OW  910   0.184   0.698   0.898  0.7260  0.4375 -0.7032
  304SOL    HW1  911   0.202   0.784   0.952 -0.9892  0.4539  0.2130
  304SOL    HW2  912   0.098   0.705   0.844 -1.7265  1.5147 -0.5540
  305SOL     OW  913   0.900   0.825   0.905 -0.0014  0.0762  0.4382
  305SOL    HW1  914   0.978   0.797   0.962 -0.1041  0.5564  0.6105
  305SOL    HW2  915   0.926   0.863   0.813  0.5735 -0.5232 -1.4555
  306SOL     OW  916   0.540   0.919   2.915  0.3254 -0.4487 -0.2696
  306SOL    HW1  917   0.630   0.929   2.862  1.0869  2.1627 -2.1324
  306SOL    HW2  918   0.524   0.840   2.976 -2.4668 -1.1111 -0.7726
  307SOL     OW  919   1.100   0.272   1.714 -0.1145  0.1156 -0.3422
  307SOL    HW1  920   1.120   0.359   1.667  1.1109  1.8036 -0.9222
  307SOL    HW2  921   1.004   0.282   1.752 -0.9083 -0.7345 -1.5917
  308SOL     OW  922   0.666   0.752   1.029 -0.5221 -0.2770  0.5212
  308SOL    HW1  923   0.758   0.784   0.995 -0.1220 -0.7600 -0.7076
  308SOL    HW2  924   0.590   0.798   0.976  0.1908 -0.7529  0.2311
  309SOL     OW  925   2.408   0.860   0.568 -0.0383 -0.3044  0.2293
  309SOL    HW1  926   2.315   0.819   0.552 -2.5482 -2.8143  3.1448
  309SOL    HW2  927   2.479   0.791   0.560  0.9614 -0.2858 -1.8583
  310SOL     OW  928   1.146   1.321   0.044 -0.3859 -0.1916 -0.9462
  310SOL    HW1  929   1.125   1.414   0.023  3.4473 -0.2775 -0.0387
  310SOL    HW2  930   1.081   1.262   3.104  2.0425 -1.3597 -0.1136
  311SOL     OW  931   2.276   2.535   2.261  0.3055 -0.1798 -0.0996
  311SOL    HW1  932   2.326   2.607   2.207  3.2117  0.8259 -1.2777
  311SOL    HW2  933   2.196   2.579   2.312 -2.4977  1.1989  1.6139
  312SOL     OW  934   2.064   2.404   3.054 -0.1268  0.0299 -0.1277
  312SOL    HW1  935   2.108   2.311   3.049  0.3719 -2.7051  1.1610
  312SOL    HW2  936   2.058   2.441   0.042 -1.5990  0.2559  1.5484
  313SOL     OW  937   0.365   0.155   0.357 -0.0937 -0.2029 -0.2910
  313SOL    HW1  938   0.386   0.198   0.447 -0.1848 -0.8194  0.2918
  313SOL    HW2  939   0.386   0.218   0.280 -4.1001  2.0243  0.1009
  314SOL     OW  940   2.356   1.530   3.029 -0.3715 -0.1335 -0.2716
  314SOL    HW1  941   2.453   1.539   3.054  0.4980 -1.0498 -0.8234
  314SOL    HW2  942   2.349   1.519   2.927 -1.8285 -1.0434 -0.0135
  315SOL     OW  943   1.800   0.459   2.139  0.6826 -0.0742  0.1547
  315SOL    HW1  944   1.796   0.444   2.239  1.3570  2.1228 -1.8952
  315SOL    HW2  945   1.755   0.549   2.115  0.7039  2.3716 -1.4558
  316SOL     OW  946   2.919   0.959   0.707  0.5106 -0.1767 -0.5028
  316SOL    HW1  947   2.863   0.918   0.782 -0.1096  2.0729 -1.4074
  316SOL    HW2  948   2.901   0.918   0.617  3.1895 -0.2354  4.3935
  317SOL     OW  949   0.776   2.808   0.221 -0.4385 -0.2309 -0.6381
  317SOL    HW1  950   0.690   2.822   0.174  1.4001  0.4968  2.6819
  317SOL    HW2  951   0.818   2.723   0.184 -1.8541 -0.8877  0.6046
  318SOL     OW  952   1.973   2.678   1.555 -0.3008  0.0428 -0.3180
  318SOL    HW1  953   2.025   2.763   1.586  1.2608  1.8828 -2.2230
  318SOL    HW2  954   1.999   2.587   1.596  0.4572 -0.1391  3.3646
  319SOL     OW  955   1.103   1.650   2.985 -0.1532 -0.4082  0.5533
  319SOL    HW1  956   1.111   1.624   3.083 -0.4243  0.6313 -0.7702
  319SOL    HW2  957   1.185   1.618   2.934 -0.5211 -1.3574  0.7930
  320SOL     OW  958   0.364   1.779   0.805  0.3197  0.3745 -0.5519
  320SOL    HW1  959   0.281   1.834   0.786 -1.5301 -0.5775 -0.6027
  320SOL    HW2  960   0.449   1.825   0.780  0.1601  0.3702 -0.2880
  321SOL     OW  961   1.877   2.661   1.905  0.4208  0.1257 -0.2275
  321SOL    HW1  962   1.974   2.693   1.914 -0.8070 -0.8362  0.4029
  321SOL    HW2  963   1.821   2.736   1.932  0.4653 -2.7553  1.1852
  322SOL     OW  964   2.227   1.858   2.463  0.1649 -0.2055  0.2831
  322SOL    HW1  965   2.264   1.937   2.407 -0.1990  1.4837 -1.9999
  322SOL    HW2  966   2.294   1.780   2.464  1.7039 -0.5636  0.3824
  323SOL     OW  967   2.436   0.242   0.698  0.6487  0.1393 -0.0697
  323SOL    HW1  968   2.476   0.162   0.743  0.8607  1.9799  2.7685
  323SOL    HW2  969   2.402   0.224   0.601 -1.4299 -0.6764  0.0264
  324SOL     OW  970   2.984   2.850   2.243  0.1695  0.2000 -0.4677
  324SOL    HW1  971   3.055   2.886   2.179  0.8350 -1.5637  2.4804
  324SOL    HW2  972   3.021   2.756   2.275  1.0168 -0.5342  0.7659
  325SOL     OW  973   0.978   0.635   2.736  0.0038  0.6866 -0.2643
  325SOL    HW1  974   1.070   0.587   2.727  2.8501 -0.3859  1.1595
  325SOL    HW2  975   0.902   0.586   2.688 -2.4283  1.2608 -2.0860
  326SOL     OW  976   2.707   2.473   1.036  0.1340  0.3453  0.1088
  326SOL    HW1  977   2.785   2.525   1.075 -1.5740  0.7305 -0.8164
  326SOL    HW2  978   2.622   2.527   1.062 -0.7679  0.1465  0.3691
  327SOL     OW  979   2.336   2.957   0.135  0.0560 -0.6981 -0.5498
  327SOL    HW1  980   2.362   2.938   0.226 -2.2792 -1.2072 -1.5818
  327SOL    HW2  981   2.286   2.881   0.092  1.6667  2.0073  0.1423
  328SOL     OW  982   0.367   0.877   1.529  0.2911  0.2071 -0.0625
  328SOL    HW1  983   0.398   0.780   1.525 -2.9016 -1.5055  1.5838
  328SOL    HW2  984   0.298   0.888   1.603 -0.2957 -1.4690  0.6282
  329SOL     OW  985   2.082   0.631   1.493 -0.2167 -0.6485 -0.0536
  329SOL    HW1  986   2.095   0.569   1.573  0.6538 -2.2478 -0.2389
  329SOL    HW2  987   2.149   0.707   1.506 -1.1043 -0.6359 -0.8946
  330SOL     OW  988   0.700   0.474   0.998  0.6133 -0.1226  0.1521
  330SOL    HW1  989   0.618   0.408   0.990 -0.4093 -2.0785  1.3640
  330SOL    HW2  990   0.677   0.567   1.032 -3.4242  3.5190  1.5777
  331SOL     OW  991   0.907   1.797   1.857 -0.2107 -0.2171 -0.3521
  331SOL    HW1  992   0.976   1.722   1.862 -0.4323  0.4524 -0.8600
  331SOL    HW2  993   0.876   1.806   1.761  0.0785  1.7675  1.8226
  332SOL     OW  994   2.633   2.457   1.621 -0.3938  0.2588  0.1915
  332SOL    HW1  995   2.734   2.460   1.642  0.4071  1.0692 -1.3774
  332SOL    HW2  996   2.597   2.403   1.697  1.7650  0.7973  1.9887
  333SOL     OW  997   0.001   2.961   0.959  0.1559  0.5874  0.3294
  333SOL    HW1  998   0.049   3.026   1.019  0.2359 -0.9001 -0.0189
  333SOL    HW2  999   3.014   2.996   0.938  1.2022 -0.5179  0.4315
  334SOL     OW 1000   0.001   1.310   0.463  0.5446  0.1729  0.5095
  334SOL    HW1 1001   3.092   1.270   0.559 -1.4652 -2.4832  1.4485
  334SOL    HW2 1002   0.088   1.281   0.414 -1.5625 -0.6472 -0.4195
  335SOL     OW 1003   0.640   2.596   2.737 -0.5445  0.0844  0.1100
  335SOL    HW1 1004   0.672   2.541   2.817  3.4629 -0.0171 -0.2696
  335SOL    HW2 1005   0.691   2.680   2.716  0.8203  2.2863 -0.4306
  336SOL     OW 1006   2.791   2.776   2.036  0.4355 -0.5900 -0.1635
  336SOL    HW1 1007   2.813   2.838   2.113  0.5377  1.0956  2.0900
  336SOL    HW2 1008   2.738   2.697   2.068  0.6516  1.1035  1.0599
  337SOL     OW 1009   1.313   2.050   1.717  0.3010  0.8221 -0.8041
  337SOL    HW1 1010   1.248   2.111   1.765  3.3015 -0.6355 -0.8505
  337SOL    HW2 1011   1.408   2.051   1.752 -3.0029 -3.1881  0.3858
  338SOL     OW 1012   0.857   0.164   2.591  0.2132 -0.2847  0.3199
  338SOL    HW1 1013   0.924   0.240   2.571  0.1398  1.5435 -0.3382
  338SOL    HW2 1014   0.870   0.091   2.522  1.2740 -1.8587 -2.3648
  339SOL     OW 1015   0.568   1.100   2.337  0.0018 -0.0928 -0.1848
  339SOL    HW1 1016   0.527   1.117   2.245  1.8578 -0.9240 -0.0901
  339SOL    HW2 1017   0.658   1.059   2.324 -2.2464 -1.1121 -1.3837
  340SOL     OW 1018   2.148   0.411   1.081  0.1278  0.1438 -0.3773
  340SOL    HW1 1019   2.122   0.322   1.121  1.3100  0.7730  1.9906
  340SOL    HW2 1020   2.243   0.411   1.042 -0.0578 -2.4475  2.0392
  341SOL     OW 1021   2.130   1.290   0.842 -0.1442 -0.1455 -0.1127
  341SOL    HW1 1022   2.045   1.343   0.846  1.3134 -1.0932 -0.2438
  341SOL    HW2 1023   2.163   1.273   0.940  2.5394 -0.7270 -0.1385
  342SOL     OW 1024   2.045   2.592   2.857 -0.0433 -0.0156  0.0777
  342SOL    HW1 1025   2.060   2.525   2.934 -2.6505 -0.3086  0.9570
  342SOL    HW2 1026   1.963   2.650   2.875 -0.1557  0.9075  1.0476
  343SOL     OW 1027   0.509   2.543   1.529  0.2237  0.6315 -0.1223
  343SOL    HW1 1028   0.590   2.592   1.566 -2.2555  2.8155 -3.7814
  343SOL    HW2 1029   0.473   2.478   1.603 -1.6352  0.1683  0.9510
  344SOL     OW 1030   2.461   2.723   1.350  0.2745  0.1735 -0.2830
  344SOL    HW1 1031   2.420   2.658   1.422  0.2097 -0.2758 -0.2767
  344SOL    HW2 1032   2.557   2.738   1.367 -2.9125  2.2697  0.8239
  345SOL     OW 1033   2.521   2.169   0.136 -0.2965 -0.2268  0.2680
  345SOL    HW1 1034   2.619   2.187   0.163  1.1773  1.3325 -1.2273
  345SOL    HW2 1035   2.522   2.135   0.036  1.4331 -0.7370  0.4066
  346SOL     OW 1036   1.557   2.410   1.590  0.0858 -0.4120  0.3335
  346SOL    HW1 1037   1.547   2.317   1.544 -1.6839 -2.4304  2.0075
  346SOL    HW2 1038   1.570   2.398   1.692 -0.1885  2.3885  0.7300
  347SOL     OW 1039   1.009   2.030   1.617 -0.0308  0.0901  0.3639
  347SOL    HW1 1040   1.017   2.054   1.717 -0.5459  1.3844  3.0242
  347SOL    HW2 1041   1.044   2.113   1.562 -2.3637  0.7013 -2.3370
  348SOL     OW 1042   0.240   2.009   1.933 -0.2275 -0.0762 -0.3882
  348SOL    HW1 1043   0.232   2.028   1.835 -0.5287 -0.8960  2.0909
  348SOL    HW2 1044   0.330   1.969   1.947  0.0153  2.4763 -2.1206
  349SOL     OW 1045   1.746   1.682   1.499 -0.4097 -0.5894  0.4765
  349SOL    HW1 1046   1.765   1.683   1.599  0.5340  0.4754 -3.1687
  349SOL    HW2 1047   1.819   1.726   1.448 -2.6442  0.7014  0.1463
  350SOL     OW 1048   2.203   2.215   0.479 -0.0436  0.1768  0.3606
  350SOL    HW1 1049   2.127   2.216   0.541 -0.3587  1.4339 -1.2832
  350SOL    HW2 1050   2.270   2.289   0.495 -0.9405 -0.5123  2.7518
  351SOL     OW 1051   0.673   3.014   1.653 -0.1053  0.7106 -0.1709
  351SOL    HW1 1052   0.661   3.093   1.714 -0.1324  0.4781  0.8960
  351SOL    HW2 1053   0.756   3.023   1.590  0.5871  0.5667 -3.2837
  352SOL     OW 1054   0.468   0.873   0.891  0.0850 -0.8125  0.2450
  352SOL    HW1 1055   0.414   0.868   0.800 -2.9065  1.7377 -2.0009
  352SOL    HW2 1056   0.409   0.918   0.963  1.6289 -1.6803  1.9404
  353SOL     OW 1057   1.096   1.779   2.571  0.2805 -0.2522  0.1631
  353SOL    HW1 1058   0.997   1.761   2.550 -0.3321 -0.5059  0.0986
  353SOL    HW2 1059   1.146   1.687   2.573  1.0751  1.1613  1.9863
  354SOL     OW 1060   1.700   2.860   1.976  0.1495  0.0409 -0.1088
  354SOL    HW1 1061   1.646   2.871   2.062 -0.1859 -0.3096  0.5325
  354SOL    HW2 1062   1.629   2.843   1.905 -0.1764  0.6131  2.5248
  355SOL     OW 1063   1.946   1.051   0.153  0.1924 -0.3953  0.7321
  355SOL    HW1 1064   1.973   1.150   0.170 -0.6167 -1.0476 -0.0303
  355SOL    HW2 1065   1.975   1.020   0.057 -1.7663 -2.8656  1.0123
  356SOL     OW 1066   3.038   1.734   1.466  1.1426 -0.3026 -0.0830
  356SOL    HW1 1067   3.069   1.814   1.407  0.2852  1.5309  0.4594
  356SOL    HW2 1068   3.035   1.645   1.411  1.4895 -2.9423 -2.4895
  357SOL     OW 1069   0.172   2.742   1.256  0.3085 -0.1968  0.4560
  357SOL    HW1 1070   0.079   2.777   1.240  2.5069 -1.5570 -0.1177
  357SOL    HW2 1071   0.201   2.758   1.353 -0.8130 -1.6377  1.3754
  358SOL     OW 1072   2.568   1.920   1.393  0.3604  0.0850  0.3138
  358SOL    HW1 1073   2.594   1.899   1.489 -0.3775 -2.0261  4.2022
  358SOL    HW2 1074   2.584   1.845   1.331 -0.2121 -0.2546 -2.6304
  359SOL     OW 1075   2.068   2.765   2.665 -0.2134  0.1066 -0.0391
  359SOL    HW1 1076   2.135   2.839   2.673 -0.7262 -0.2422  0.3313
  359SOL    HW2 1077   2.061   2.706   2.751 -2.8263 -2.0800  3.2548
  360SOL     OW 1078   1.128   3.010   0.933 -0.0992  0.1642  0.1075
  360SOL    HW1 1079   1.138   3.052   0.840  0.5165  1.3713 -0.3398
  360SOL    HW2 1080   1.217   2.984   0.966 -0.5206  4.1661 -1.6509
  361SOL     OW 1081   2.009   0.186   0.350 -0.0993  0.1867 -0.1255
  361SOL    HW1 1082   2.055   0.132   0.277  0.9433  0.5451  1.7978
  361SOL    HW2 1083   2.071   0.257   0.390 -1.1358  0.6113  1.0434
  362SOL     OW 1084   1.530   0.915   0.855 -0.2499  0.3265  0.0696
  362SOL    HW1 1085   1.593   0.890   0.776 -3.1086 -1.3828 -0.0656
  362SOL    HW2 1086   1.555   1.000   0.905 -1.5274 -0.2599  1.7546
  363SOL     OW 1087   2.368   1.115   2.453 -0.0221  0.3724  0.3736
  363SOL    HW1 1088   2.332   1.149   2.542  1.0913  0.9335  0.9409
  363SOL    HW2 1089   2.311   1.035   2.426  2.0043 -0.2370 -0.8386
  364SOL     OW 1090   0.292   0.598   1.271  0.2829 -0.3864 -0.3932
  364SOL    HW1 1091   0.214   0.586   1.213 -1.3470 -1.6320  1.9031
  364SOL    HW2 1092   0.342   0.685   1.241 -0.3045 -1.1304 -1.3301
  365SOL     OW 1093   0.582   0.179   2.670  0.2286  0.1867 -0.1009
  365SOL    HW1 1094   0.526   0.091   2.663  1.1781 -0.7931  1.3409
  365SOL    HW2 1095   0.678   0.163   2.640 -0.1107 -1.0918  2.7932
  366SOL     OW 1096   2.245   2.059   2.651  0.0668  0.1327  0.2747
  366SOL    HW1 1097   2.244   2.005   2.566 -0.9314 -2.0158  2.2039
  366SOL    HW2 1098   2.272   2.155   2.632 -1.0572 -0.9423  0.4947
  367SOL     OW 1099   2.863   2.422   3.071 -0.3502 -0.1408  0.4757
  367SOL    HW1 1100   2.785   2.463   0.009  1.1422  0.5425 -3.6260
  367SOL    HW2 1101   2.907   2.497   3.020  0.6217 -0.2207 -0.4031
  368SOL     OW 1102   2.763   1.323   1.219  0.6849 -0.4716  0.0200
  368SOL    HW1 1103   2.692   1.348   1.292  0.5196  0.2260  2.3088
  368SOL    HW2 1104   2.744   1.381   1.134  0.3001 -1.9059  0.4011
  369SOL     OW 1105   0.923   3.079   2.401 -0.1660  0.3007  0.3319
  369SOL    HW1 1106   1.016   3.034   2.394  2.3181 -0.6819  0.7913
  369SOL    HW2 1107   0.851   3.012   2.372  2.6118  0.7469 -1.5067
  370SOL     OW 1108   2.797   0.162   0.476 -0.3677  0.1181 -0.2139
  370SOL    HW1 1109   2.875   0.226   0.469 -2.6834  0.5348 -0.0100
  370SOL    HW2 1110   2.718   0.190   0.420 -3.0212 -1.6710  1.5536
  371SOL     OW 1111   1.468   2.304   1.127  0.0938  0.4268 -0.5209
  371SOL    HW1 1112   1.567   2.317   1.150  2.4666  0.6033  1.0622
  371SOL    HW2 1113   1.425   2.395   1.109 -0.5998 -0.9343  0.8021
  372SOL     OW 1114   0.101   0.841   2.483  0.2858  0.0222  0.1756
  372SOL    HW1 1115   0.123   0.753   2.438 -1.3655 -0.8304  0.4929
  372SOL    HW2 1116   0.162   0.918   2.457  0.4840 -0.3602  1.4657
  373SOL     OW 1117   2.498   1.676   0.855 -0.9706 -0.0515 -0.0020
  373SOL    HW1 1118   2.544   1.755   0.803 -1.7349  2.0189 -1.1167
  373SOL    HW2 1119   2.444   1.709   0.933  0.8535 -0.8629 -2.7572
  374SOL     OW 1120   0.556   3.017   2.565 -0.3397  0.5113  0.3756
  374SOL    HW1 1121   0.630   2.961   2.609  1.9976  2.4986  0.8105
  374SOL    HW2 1122   0.576   3.056   2.471  0.3185  1.2016 -0.6880
  375SOL     OW 1123   0.152   2.950   2.827  0.0418 -0.0968 -0.2945
  375SOL    HW1 1124   0.187   2.967   2.735 -1.5158 -1.2886  0.6203
  375SOL    HW2 1125   0.195   3.018   2.892  1.8367  2.3468 -0.1497
  376SOL     OW 1126   2.888   2.302   1.785  0.1643 -0.1338  0.0349
  376SOL    HW1 1127   2.863   2.202   1.778 -0.4658 -0.5706 -1.7622
  376SOL    HW2 1128   2.922   2.324   1.879 -2.8639  2.0474  1.0028
  377SOL     OW 1129   1.792   2.196   2.496 -0.4242  0.1195 -0.6572
  377SOL    HW1 1130   1.792   2.092   2.512 -1.2449 -1.2101 -1.1015
  377SOL    HW2 1131   1.694   2.230   2.495 -3.5722  2.4258 -1.3976
  378SOL     OW 1132   0.403   0.330   2.542 -0.2267  0.2966  0.0629
  378SOL    HW1 1133   0.427   0.393   2.462  1.5187  0.3220 -2.1540
  378SOL    HW2 1134   0.485   0.271   2.578  1.3225 -0.6457  0.6986
  379SOL     OW 1135   0.484   0.618   0.402 -0.2008  0.1477  0.3568
  379SOL    HW1 1136   0.501   0.657   0.495  1.6053 -1.1424  0.2512
  379SOL    HW2 1137   0.419   0.685   0.354  0.1475 -0.0245  1.2976
  380SOL     OW 1138   0.296   1.594   1.672  0.1079 -0.4259  0.4098
  380SOL    HW1 1139   0.396   1.605   1.652  2.0534 -1.1242  1.0681
  380SOL    HW2 1140   0.291   1.575   1.769  2.0365  1.3682 -1.0641
  381SOL     OW 1141   0.397   0.998   1.844 -0.1951 -0.0614  0.0033
  381SOL    HW1 1142   0.297   0.986   1.831  0.4880  2.3337  0.3557
  381SOL    HW2 1143   0.433   1.075   1.787 -0.9733 -2.0519 -1.1014
  382SOL     OW 1144   2.327   2.046   0.299 -0.6304  0.1195 -0.7496
  382SOL    HW1 1145   2.371   2.100   0.222 -0.0973  1.6935 -1.4366
  382SOL    HW2 1146   2.269   2.099   0.365 -0.6970 -1.4794 -0.2034
  383SOL     OW 1147   0.181   1.961   2.989  0.1507  0.3152 -0.2217
  383SOL    HW1 1148   0.122   1.942   3.068  0.8872  1.5144 -0.2615
  383SOL    HW2 1149   0.277   1.950   3.009 -1.0027 -0.0819  2.1250
  384SOL     OW 1150   0.874   2.139   2.974 -0.2610  1.2843 -0.2066
  384SOL    HW1 1151   0.924   2.051   2.948 -0.2403 -0.4863 -2.7210
  384SOL    HW2 1152   0.870   2.146   3.078 -1.6930  0.6395  0.2908
  385SOL     OW 1153   2.325   2.039   0.677  0.9282 -0.1824  0.1063
  385SOL    HW1 1154   2.378   2.101   0.740  1.9348 -0.6895  3.7827
  385SOL    HW2 1155   2.311   2.084   0.584 -0.5842  2.9613 -1.5481
  386SOL     OW 1156   2.291   1.142   1.735  0.4473 -0.1454  0.2158
  386SOL    HW1 1157   2.382   1.166   1.771 -1.9780 -1.2505 -0.4921
  386SOL    HW2 1158   2.233   1.105   1.808 -0.0788  1.7385  1.2731
  387SOL     OW 1159   2.887   1.512   2.208  0.2551  0.2913 -0.8552
  387SOL    HW1 1160   2.936   1.422   2.238 -0.6737 -2.4525 -0.7472
  387SOL    HW2 1161   2.896   1.586   2.275  0.2492 -0.5914 -0.6137
  388SOL     OW 1162   0.311   1.649   1.925 -0.0658 -0.2192 -0.2407
  388SOL    HW1 1163   0.348   1.637   2.016 -1.9762 -1.7564 -0.6009
  388SOL    HW2 1164   0.364   1.722   1.873 -0.6487 -0.6004  0.0241
  389SOL     OW 1165   1.747   1.088   1.710 -0.3706 -0.5260  0.5122
  389SOL    HW1 1166   1.847   1.077   1.685  0.8770  0.2536 -1.4209
  389SOL    HW2 1167   1.733   1.078   1.811  1.3356 -0.0797 -0.8149
  390SOL     OW 1168   2.048   3.093   0.930 -0.2823  0.0793  0.0437
  390SOL    HW1 1169   1.993   0.027   1.004 -1.5425  1.2533 -3.3169
  390SOL    HW2 1170   2.131   0.045   0.908  0.6224  0.3896  1.7462
  391SOL     OW 1171   1.985   1.663   1.126  0.6074 -0.1213 -0.0791
  391SOL    HW1 1172   2.071   1.614   1.108 -1.4351  0.6895 -0.4479
  391SOL    HW2 1173   1.929   1.622   1.203 -0.0120  0.0554 -1.0888
  392SOL     OW 1174   2.688   2.583   0.345  0.3264  0.0114  0.4419
  392SOL    HW1 1175   2.639   2.586   0.435  0.1274 -2.2425  2.3188
  392SOL    HW2 1176   2.784   2.616   0.355 -0.0055  1.8051  0.2821
  393SOL     OW 1177   2.004   1.986   2.765  0.4888 -0.1380 -0.6174
  393SOL    HW1 1178   2.102   2.014   2.735 -0.3491  0.9124 -0.7379
  393SOL    HW2 1179   1.946   2.064   2.789  0.9480 -0.6544 -0.2759
  394SOL     OW 1180   0.127   2.673   2.610  0.5150  0.1335 -0.1223
  394SOL    HW1 1181   0.031   2.637   2.582 -1.1798  0.9608 -0.1843
  394SOL    HW2 1182   0.128   2.677   2.714 -0.1110  0.9660  0.8730
  395SOL     OW 1183   0.781   0.306   0.795  0.0838  0.0458  0.5395
  395SOL    HW1 1184   0.740   0.323   0.707 -0.6207  0.9953  1.4903
  395SOL    HW2 1185   0.766   0.384   0.857 -0.6909 -1.5391  0.2526
  396SOL     OW 1186   1.844   1.061   0.463 -0.0140 -0.8985 -0.0026
  396SOL    HW1 1187   1.778   1.059   0.383 -1.0664 -1.3898 -1.7811
  396SOL    HW2 1188   1.938   1.030   0.445 -2.1098  0.2189 -1.2521
  397SOL     OW 1189   0.638   0.796   2.183  0.2484 -0.5157  0.1775
  397SOL    HW1 1190   0.718   0.761   2.232  0.4272  1.6336 -0.0527
  397SOL    HW2 1191   0.551   0.779   2.232  0.9877  0.7355  1.7822
  398SOL     OW 1192   0.835   2.972   0.673  0.6314 -0.1746  0.1504
  398SOL    HW1 1193   0.808   3.043   0.742 -0.5075 -0.5305  0.8560
  398SOL    HW2 1194   0.934   2.987   0.642 -2.1069  0.8277  1.5040
  399SOL     OW 1195   2.357   2.843   1.647 -0.4314  0.2577  0.0152
  399SOL    HW1 1196   2.352   2.743   1.633  1.0216 -1.6894  0.2590
  399SOL    HW2 1197   2.453   2.879   1.631  4.2752  1.0600  0.3298
  400SOL     OW 1198   0.829   1.759   2.296 -0.2285 -0.0053 -0.3779
  400SOL    HW1 1199   0.897   1.836   2.268  0.0382  0.7890 -0.0219
  400SOL    HW2 1200   0.821   1.762   2.401  0.3802 -1.8698  0.2793
  401SOL     OW 1201   0.743   1.202   2.841  0.1357 -0.1964  0.5483
  401SOL    HW1 1202   0.664   1.267   2.842 -2.5608  0.7297  0.2179
  401SOL    HW2 1203   0.709   1.114   2.813  0.4269  3.7702  2.7246
  402SOL     OW 1204   2.961   1.970   0.739 -0.2192  0.1023  0.1389
  402SOL    HW1 1205   2.903   2.028   0.687 -1.5624  2.2479  0.6415
  402SOL    HW2 1206   2.908   1.890   0.772  1.4002 -0.3158  0.2024
  403SOL     OW 1207   0.207   1.058   2.090 -0.3815  0.3610 -0.2550
  403SOL    HW1 1208   0.109   1.076   2.063  0.4658  0.4139 -1.1869
  403SOL    HW2 1209   0.268   1.139   2.069  1.1833  1.1360  1.7311
  404SOL     OW 1210   0.009   2.605   2.311  0.1398  0.5805 -0.1905
  404SOL    HW1 1211   3.087   2.537   2.242  0.2408  2.0993 -1.2853
  404SOL    HW2 1212   0.110   2.596   2.333  1.4737  1.2802  0.3202
  405SOL     OW 1213   0.146   0.154   1.886 -0.0905  0.0758 -0.1220
  405SOL    HW1 1214   0.193   0.244   1.877 -0.4278 -0.9276 -2.5274
  405SOL    HW2 1215   0.143   0.118   1.982 -0.2698 -1.4162  0.3752
  406SOL     OW 1216   1.357   1.644   2.574 -0.2571  0.2338 -0.0441
  406SOL    HW1 1217   1.417   1.700   2.631  4.2828  1.2892 -1.1478
  406SOL    HW2 1218   1.342   1.690   2.483  0.0580 -0.3848 -2.3767
  407SOL     OW 1219   1.606   1.004   2.518  0.1776 -0.0715 -0.1128
  407SOL    HW1 1220   1.542   1.035   2.444  0.4221 -2.0200 -0.3926
  407SOL    HW2 1221   1.683   0.947   2.488 -2.5039  2.5525 -0.2886
  408SOL     OW 1222   0.615   0.032   2.316  0.1249  0.1905 -0.1117
  408SOL    HW1 1223   0.681   0.107   2.299 -1.9119 -0.6053  0.5578
  408SOL    HW2 1224   0.669   3.053   2.303 -0.1628 -2.9695  1.2908
  409SOL     OW 1225   0.007   2.028   0.980 -0.6133  0.1780 -0.1421
  409SOL    HW1 1226   3.068   2.040   0.893  0.1597  1.1768 -0.1549
  409SOL    HW2 1227   0.025   1.925   1.005  1.6953 -2.1046  1.1254
  410SOL     OW 1228   2.672   1.376   0.192  0.1658  0.3711 -0.5229
  410SOL    HW1 1229   2.766   1.349   0.227  3.5711  1.1811  0.6671
  410SOL    HW2 1230   2.672   1.412   0.099  1.6406  2.2221  0.0114
  411SOL     OW 1231   0.127   0.014   1.151  0.0347  0.0998  0.2033
  411SOL    HW1 1232   0.101   3.106   1.249 -0.6918  0.3329  0.0098
  411SOL    HW2 1233   0.207   3.064   1.123  1.6248  0.7941  0.3514
  412SOL     OW 1234   1.813   0.677   1.524 -0.2741  0.0847 -0.6519
  412SOL    HW1 1235   1.907   0.651   1.507 -1.5477  0.0463 -1.0117
  412SOL    HW2 1236   1.769   0.708   1.437 -0.1615 -3.0493  1.2488
  413SOL     OW 1237   0.846   0.282   1.872 -0.2545  0.1127 -0.6757
  413SOL    HW1 1238   0.903   0.235   1.946  0.2048 -1.0796  0.6007
  413SOL    HW2 1239   0.787   0.354   1.908  2.7440 -2.6673 -0.6925
  414SOL     OW 1240   2.921   1.483   2.593 -0.4946  0.3339  0.1110
  414SOL    HW1 1241   3.004   1.428   2.608 -0.7439 -0.3173 -0.1206
  414SOL    HW2 1242   2.837   1.429   2.598  0.1057  0.2397 -1.4303
  415SOL     OW 1243   0.725   2.414   0.248  0.0880 -0.2373  0.2085
  415SOL    HW1 1244   0.787   2.494   0.247 -0.2307 -0.2857  2.8988
  415SOL    HW2 1245   0.688   2.407   0.343 -0.0494 -1.3736  1.4791
  416SOL     OW 1246   1.823   3.052   2.879  0.0417 -0.2622  0.4751
  416SOL    HW1 1247   1.805   3.064   2.978  0.7826 -0.3992 -0.9128
  416SOL    HW2 1248   1.808   0.037   2.836 -0.2619  0.0743 -0.0845
  417SOL     OW 1249   0.408   0.280   0.640  0.1730 -0.2874  0.7296
  417SOL    HW1 1250   0.421   0.365   0.695 -0.5105  2.1624 -0.7933
  417SOL    HW2 1251   0.387   0.199   0.693 -1.7437 -3.0781 -0.1083
  418SOL     OW 1252   2.524   3.073   1.093 -0.0244  0.0739  0.3855
  418SOL    HW1 1253   2.440   3.022   1.122 -1.4742  1.6909  0.7910
  418SOL    HW2 1254   2.600   3.064   1.163  3.2615 -1.4632  1.1402
  419SOL     OW 1255   0.051   2.738   0.581 -0.4595 -0.1078 -0.1870
  419SOL    HW1 1256   0.072   2.749   0.688  0.2872 -1.8299  3.5334
  419SOL    HW2 1257   0.146   2.751   0.539 -0.0076 -1.1397 -1.0354
  420SOL     OW 1258   0.060   1.367   1.682 -0.4277  0.0679  0.3119
  420SOL    HW1 1259   0.130   1.297   1.649  0.5257  0.2075  0.4508
  420SOL    HW2 1260   3.107   1.401   1.610  0.2858  2.3515  1.8992
  421SOL     OW 1261   1.534   2.743   0.578  0.3022 -0.1243  0.3081
  421SOL    HW1 1262   1.488   2.717   0.490 -1.0060 -1.0252  0.6137
  421SOL    HW2 1263   1.541   2.847   0.589  1.4436  0.3736  1.3389
  422SOL     OW 1264   0.627   0.493   1.412 -0.2910 -0.5462  0.8200
  422SOL    HW1 1265   0.706   0.470   1.473  2.5688 -1.2381  1.8859
  422SOL    HW2 1266   0.582   0.412   1.372 -0.1543 -2.1891 -3.5819
  423SOL     OW 1267   1.273   1.336   1.695  0.5099  0.2975 -0.0164
  423SOL    HW1 1268   1.225   1.410   1.644  0.1282 -0.7201 -3.5541
  423SOL    HW2 1269   1.208   1.263   1.719 -0.7054  0.2394  0.1926
  424SOL     OW 1270   1.898   2.100   0.234  0.3249 -0.5611 -0.3505
  424SOL    HW1 1271   1.893   2.185   0.292  0.9545  0.5524  2.5620
  424SOL    HW2 1272   1.899   2.021   0.297 -1.2567  0.6588 -0.2235
  425SOL     OW 1273   2.911   0.208   2.033 -0.6713 -0.1763 -0.4369
  425SOL    HW1 1274   2.962   0.148   2.097 -2.2731  1.4245  1.3153
  425SOL    HW2 1275   2.853   0.159   1.965  1.7514  1.2426 -0.7875
  426SOL     OW 1276   0.162   2.685   2.868 -0.0439  0.4416 -0.2269
  426SOL    HW1 1277   0.160   2.790   2.857  2.2495  0.1968 -1.4287
  426SOL    HW2 1278   0.232   2.649   2.936  0.0235 -1.1296  0.5923
  427SOL     OW 1279   1.396   0.644   2.924  0.6195  0.3519  0.0229
  427SOL    HW1 1280   1.404   0.733   2.969 -3.9961  1.3345  0.9431
  427SOL    HW2 1281   1.344   0.578   2.986 -1.4408  1.2894  0.9965
  428SOL     OW 1282   2.866   0.991   1.801 -0.3535  0.0559  0.0116
  428SOL    HW1 1283   2.857   1.015   1.899  0.4170 -0.7671 -1.2029
  428SOL    HW2 1284   2.771   1.003   1.761  0.8396 -1.0044  2.0731
  429SOL     OW 1285   2.018   2.976   1.367 -0.1151  0.2351 -0.4163
  429SOL    HW1 1286   2.049   3.013   1.457  0.6927 -1.7285  1.9233
  429SOL    HW2 1287   2.021   2.877   1.360  2.1541  1.0513 -0.4864
  430SOL     OW 1288   1.054   1.501   2.715  0.2778  0.7318  0.5872
  430SOL    HW1 1289   1.000   1.548   2.789 -0.7390  0.7114  2.1231
  430SOL    HW2 1290   1.149   1.480   2.738 -2.9187  1.1435  0.1393
  431SOL     OW 1291   2.745   1.657   1.542  0.6291 -0.4287  0.4501
  431SOL    HW1 1292   2.700   1.722   1.609 -0.7475 -2.7972  0.6638
  431SOL    HW2 1293   2.848   1.667   1.548 -0.7423 -0.6691  0.9867
  432SOL     OW 1294   0.869   2.669   2.352  0.3597  0.4185  0.2285
  432SOL    HW1 1295   0.943   2.616   2.393  2.2092 -1.1150 -0.5888
  432SOL    HW2 1296   0.803   2.606   2.310 -0.9939  1.4149 -0.1603
  433SOL     OW 1297   2.040   0.406   2.007  0.3770  0.0030 -0.4251
  433SOL    HW1 1298   2.040   0.307   2.021 -1.5344 -0.0947 -1.0204
  433SOL    HW2 1299   1.950   0.444   2.044 -0.2713  0.6840 -1.0549
  434SOL     OW 1300   0.626   2.312   2.424 -0.9947 -0.3795 -0.2417
  434SOL    HW1 1301   0.595   2.345   2.512  0.6691 -1.1891 -3.0378
  434SOL    HW2 1302   0.580   2.226   2.404 -0.5295  2.4303  3.1330
  435SOL     OW 1303   0.128   3.049   0.296 -0.4619 -0.1280  0.0463
  435SOL    HW1 1304   0.200   0.013   0.292  1.9059 -0.4680  4.9690
  435SOL    HW2 1305   0.095   3.034   0.388  0.4433 -0.2782 -2.1021
  436SOL     OW 1306   0.592   0.809   1.915 -0.2396  0.0022  0.7558
  436SOL    HW1 1307   0.525   0.882   1.893  0.6680 -0.8774  1.8001
  436SOL    HW2 1308   0.610   0.807   2.017 -1.4295  1.2666  0.3273
  437SOL     OW 1309   0.503   2.380   2.672  0.0954  0.2533 -0.4728
  437SOL    HW1 1310   0.545   2.470   2.696 -0.1305 -0.0867 -0.8107
  437SOL    HW2 1311   0.455   2.338   2.755 -1.4563 -1.8811 -3.2783
  438SOL     OW 1312   1.038   1.214   1.270  0.3262  0.3564  0.0328
  438SOL    HW1 1313   0.988   1.145   1.215 -0.8623  0.3304  1.9505
  438SOL    HW2 1314   1.126   1.175   1.304 -0.8706  1.5557 -1.7456
  439SOL     OW 1315   2.633   1.192   2.478 -0.0452  0.0010 -0.5065
  439SOL    HW1 1316   2.704   1.122   2.508  2.2750  2.3380  1.2206
  439SOL    HW2 1317   2.538   1.158   2.498 -3.8576 -0.7542  1.6785
  440SOL     OW 1318   0.127   0.637   0.070  0.1301  0.0708 -0.1799
  440SOL    HW1 1319   0.196   0.574   0.029 -1.5357 -0.9239 -1.7251
  440SOL    HW2 1320   0.112   0.717   0.007 -0.8191 -1.3237 -0.1139
  441SOL     OW 1321   1.143   2.209   1.842  0.0017 -0.8477  0.6865
  441SOL    HW1 1322   1.104   2.284   1.783 -1.1820  0.1209 -3.7860
  441SOL    HW2 1323   1.072   2.159   1.890  0.5006 -0.6173  0.7758
  442SOL     OW 1324   2.091   1.686   0.777 -0.4717 -0.4114  0.5971
  442SOL    HW1 1325   2.133   1.624   0.847  0.2947 -2.8294 -0.1033
  442SOL    HW2 1326   2.164   1.711   0.708  2.0416  1.3349 -1.5732
  443SOL     OW 1327   2.679   1.899   2.641  0.2094  0.2222 -0.3831
  443SOL    HW1 1328   2.771   1.939   2.645 -0.7179  0.7704  0.4197
  443SOL    HW2 1329   2.609   1.941   2.709 -2.7724  1.6385 -0.5586
  444SOL     OW 1330   1.881   1.606   2.750  0.3018  0.2333 -0.0420
  444SOL    HW1 1331   1.893   1.660   2.842 -0.3300 -0.3497 -0.4691
  444SOL    HW2 1332   1.942   1.641   2.676 -0.7676  1.3473 -0.2668
  445SOL     OW 1333   2.356   2.546   1.907  0.0082 -0.3063  0.3658
  445SOL    HW1 1334   2.397   2.590   1.991  1.1836 -1.3055 -0.0993
  445SOL    HW2 1335   2.431   2.501   1.849  3.2424  1.2997 -2.1511
  446SOL     OW 1336   0.937   0.963   1.674 -0.0222  0.3324 -0.1901
  446SOL    HW1 1337   1.018   0.930   1.618 -0.4130  0.4644 -1.0699
  446SOL    HW2 1338   0.908   0.879   1.730  1.5598 -1.8067  0.2475
  447SOL     OW 1339   0.905   1.018   1.089 -0.3916 -0.0959 -0.8131
  447SOL    HW1 1340   0.910   0.951   1.011  0.0804  1.4971  0.2817
  447SOL    HW2 1341   0.889   0.965   1.175 -1.3578  2.0230 -2.5909
  448SOL     OW 1342   1.195   1.263   2.318  0.3838 -0.0950 -0.0403
  448SOL    HW1 1343   1.123   1.314   2.371 -1.3092  0.7870  1.2579
  448SOL    HW2 1344   1.170   1.241   2.221 -0.4636 -1.6993 -3.6067
  449SOL     OW 1345   0.030   2.069   2.256 -0.0423  0.4469 -0.6531
  449SOL    HW1 1346   0.033   2.011   2.342  0.0199  0.5744  2.2379
  449SOL    HW2 1347   0.016   2.017   2.168 -0.8504  0.3709  1.5636
  450SOL     OW 1348   2.328   1.662   2.033 -0.0864  0.8542 -0.2348
  450SOL    HW1 1349   2.384   1.611   2.107  1.4337  0.7062  1.9917
  450SOL    HW2 1350   2.239   1.617   2.018 -0.1291 -1.3499 -2.0632
  451SOL     OW 1351   2.613   1.406   1.452  0.1463  0.0028  0.8920
  451SOL    HW1 1352   2.636   1.504   1.476  0.7250 -0.7954  1.4114
  451SOL    HW2 1353   2.515   1.373   1.477 -1.7586 -0.6023  0.4479
  452SOL     OW 1354   0.323   1.278   1.524  0.2157 -1.0576  0.4150
  452SOL    HW1 1355   0.239   1.260   1.459 -3.7911 -1.2602 -1.3708
  452SOL    HW2 1356   0.387   1.350   1.487 -1.1233  0.3142 -1.4244
  453SOL     OW 1357   0.603   1.107   0.786  0.4080  0.4142  0.1249
  453SOL    HW1 1358   0.583   1.017   0.828  1.7802  0.0437 -1.5093
  453SOL    HW2 1359   0.641   1.175   0.855  2.5428 -0.3629  1.2825
  454SOL     OW 1360   0.817   1.648   0.421  0.3577  0.3480  0.5553
  454SOL    HW1 1361   0.823   1.587   0.503  0.4935  0.2935  0.4168
  454SOL    HW2 1362   0.720   1.650   0.386  1.6805 -0.7175 -0.5838
  455SOL     OW 1363   1.836   0.733   1.131 -0.1145 -0.1467  0.4553
  455SOL    HW1 1364   1.777   0.780   1.197  4.6793 -0.0105 -0.8314
  455SOL    HW2 1365   1.859   0.643   1.173 -0.9157  0.5634  2.9528
  456SOL     OW 1366   1.757   2.768   0.877 -0.0439  0.7036  0.1544
  456SOL    HW1 1367   1.855   2.795   0.890  0.5994 -0.4595 -0.6959
  456SOL    HW2 1368   1.718   2.844   0.817  0.6955  1.3439 -2.2458
  457SOL     OW 1369   1.845   0.427   2.427 -0.4624 -0.1541 -0.2866
  457SOL    HW1 1370   1.757   0.377   2.445  0.0241  2.2233  1.3012
  457SOL    HW2 1371   1.918   0.361   2.409 -0.4900 -0.5785 -1.3633
  458SOL     OW 1372   2.570   0.713   2.803  0.0554 -0.6748  0.1242
  458SOL    HW1 1373   2.525   0.646   2.862  1.0713  0.5258 -1.5081
  458SOL    HW2 1374   2.666   0.696   2.812 -1.5072 -0.2443 -0.7264
  459SOL     OW 1375   3.099   1.675   2.039 -0.9180 -0.3640  0.0582
  459SOL    HW1 1376   0.072   1.676   1.979 -1.0154  1.0284  2.8741
  459SOL    HW2 1377   0.019   1.643   2.133  0.4416 -0.6223  1.4843
  460SOL     OW 1378   0.343   0.511   3.074 -0.8371  0.5070  0.2352
  460SOL    HW1 1379   0.305   0.503   2.979 -0.1957  0.2579 -1.1739
  460SOL    HW2 1380   0.420   0.571   3.072 -2.7011 -1.5259  1.5516
  461SOL     OW 1381   3.082   2.393   0.520  0.5753 -0.5934  0.2465
  461SOL    HW1 1382   3.064   2.294   0.504  1.6411  0.4454 -0.5171
  461SOL    HW2 1383   0.066   2.421   0.480  1.7083 -0.7956  0.1581
  462SOL     OW 1384   3.106   2.951   1.527 -0.1157 -0.0874 -0.0529
  462SOL    HW1 1385   0.091   2.916   1.515 -0.8665  1.0676  0.6824
  462SOL    HW2 1386   0.001   3.049   1.507 -2.8945  1.2090  1.2762
  463SOL     OW 1387   1.542   2.069   1.860 -0.4815  0.0614 -0.3929
  463SOL    HW1 1388   1.618   2.020   1.812 -1.6294 -0.4129 -1.2202
  463SOL    HW2 1389   1.559   2.169   1.862 -2.0561  1.8562  0.2878
  464SOL     OW 1390   0.120   2.772   0.844  0.1971 -0.1114  0.0559
  464SOL    HW1 1391   0.089   2.854   0.895  1.9952 -0.5827 -0.8945
  464SOL    HW2 1392   0.220   2.774   0.819  3.9172 -0.4834  0.3744
  465SOL     OW 1393   0.267   0.262   1.503  0.1974  0.3785 -0.4185
  465SOL    HW1 1394   0.319   0.202   1.565 -0.6078 -1.6560 -0.3063
  465SOL    HW2 1395   0.220   0.337   1.552 -1.3161  0.0437 -1.7461
  466SOL     OW 1396   1.123   2.061   2.461  0.3435  0.7018 -0.4847
  466SOL    HW1 1397   1.146   1.977   2.517 -1.6760  1.0301 -1.1265
  466SOL    HW2 1398   1.061   2.130   2.508  1.8915 -0.8962  1.9908
  467SOL     OW 1399   2.971   1.378   0.871 -0.1792 -0.4636  0.3830
  467SOL    HW1 1400   2.898   1.410   0.930 -1.1137 -1.2423  1.3455
  467SOL    HW2 1401   2.933   1.329   0.787 -0.4594  0.8695 -0.4192
  468SOL     OW 1402   2.406   1.950   2.858  0.5386  0.1727  0.0433
  468SOL    HW1 1403   2.366   1.999   2.778 -0.3604  1.9105  1.0896
  468SOL    HW2 1404   2.344   1.880   2.899  1.6747 -0.5561  0.1641
  469SOL     OW 1405   1.304   2.208   0.664 -0.4887  0.2526  0.0164
  469SOL    HW1 1406   1.241   2.198   0.586  1.2737  0.8048 -0.9478
  469SOL    HW2 1407   1.307   2.123   0.717 -2.5382 -0.7741 -0.8014
  470SOL     OW 1408   1.981   1.788   1.421  0.3841 -0.2512  0.4543
  470SOL    HW1 1409   2.012   1.877   1.388 -1.9070 -1.3799  0.6681
  470SOL    HW2 1410   2.052   1.745   1.475  0.3744 -1.4593 -1.1208
  471SOL     OW 1411   0.219   2.425   0.414  0.3534 -0.2031 -0.2988
  471SOL    HW1 1412   0.297   2.470   0.465  1.2440  3.6028  2.4843
  471SOL    HW2 1413   0.217   2.322   0.412 -1.7348  0.2239 -0.7912
  472SOL     OW 1414   2.477   1.716   2.364 -0.0952 -0.2952  0.0332
  472SOL    HW1 1415   2.551   1.785   2.350 -0.2237 -1.4065 -0.6098
  472SOL    HW2 1416   2.492   1.640   2.300  1.5630  0.7021 -1.1124
  473SOL     OW 1417   1.402   2.562   1.049  0.3128  0.0665 -0.5003
  473SOL    HW1 1418   1.307   2.533   1.023 -1.6237  3.6137 -0.0230
  473SOL    HW2 1419   1.475   2.547   0.978 -1.1465 -2.0295 -0.6180
  474SOL     OW 1420   2.924   0.240   1.267 -0.2348  0.4888  0.1657
  474SOL    HW1 1421   2.888   0.228   1.358  4.2742  1.1351 -0.9388
  474SOL    HW2 1422   2.852   0.197   1.201 -0.5938 -1.4856 -2.4539
  475SOL     OW 1423   2.157   2.765   1.899  0.5705 -0.4045 -0.1654
  475SOL    HW1 1424   2.224   2.686   1.921  0.8760 -0.4195 -0.3537
  475SOL    HW2 1425   2.202   2.855   1.887  0.7551  1.7089 -1.4659
  476SOL     OW 1426   0.407   0.527   0.841 -0.0627  0.1776 -0.6373
  476SOL    HW1 1427   0.447   0.476   0.926  1.1768  0.5345 -0.8126
  476SOL    HW2 1428   0.330   0.591   0.867 -0.4568  1.4167  1.3012
  477SOL     OW 1429   0.796   2.166   0.952  0.2265  0.3665  0.1796
  477SOL    HW1 1430   0.711   2.197   0.999  2.7409  0.1079 -2.6391
  477SOL    HW2 1431   0.784   2.067   0.941  0.1934  0.9064 -0.4178
  478SOL     OW 1432   0.959   2.559   2.805 -0.6497 -0.6778 -0.0655
  478SOL    HW1 1433   0.987   2.461   2.812  0.1755  1.1152  1.1796
  478SOL    HW2 1434   0.868   2.577   2.838  1.1862 -0.9627 -0.6276
  479SOL     OW 1435   3.077   1.149   2.057  0.1954  0.4615 -0.7405
  479SOL    HW1 1436   2.996   1.093   2.066  1.6425 -1.1224  2.3186
  479SOL    HW2 1437   3.059   1.242   2.030 -0.4423 -4.0273 -0.1771
  480SOL     OW 1438   0.329   2.542   3.057 -0.4253  0.5036 -0.0553
  480SOL    HW1 1439   0.253   2.501   0.007  2.3697 -1.1334 -0.2421
  480SOL    HW2 1440   0.417   2.528   3.102  0.9821  0.9268 -2.7430
  481SOL     OW 1441   1.584   2.935   2.184  0.2466  0.2229  0.1054
  481SOL    HW1 1442   1.658   2.920   2.251  1.0745  2.3581  0.9130
  481SOL    HW2 1443   1.574   3.028   2.153  2.7865 -1.3204  0.3427
  482SOL     OW 1444   1.720   2.086   0.010 -0.4672 -0.1958  0.1331
  482SOL    HW1 1445   1.769   2.089   0.100  1.1127 -2.2285  1.0716
  482SOL    HW2 1446   1.783   2.112   3.042  2.6383  1.1223 -1.3761
  483SOL     OW 1447   1.028   2.524   2.500  0.1406 -0.2870 -0.2495
  483SOL    HW1 1448   1.127   2.492   2.510  0.7716 -0.9536  0.3168
  483SOL    HW2 1449   0.997   2.551   2.596 -0.6129  1.1292  0.8534
  484SOL     OW 1450   0.704   2.812   1.022 -0.3434  0.0706  0.6336
  484SOL    HW1 1451   0.660   2.826   0.931  2.2063 -0.6242 -0.0479
  484SOL    HW2 1452   0.660   2.879   1.087 -0.7541 -0.7616  0.8121
  485SOL     OW 1453   2.223   0.562   0.664 -0.1852  0.0364  0.1216
  485SOL    HW1 1454   2.194   0.650   0.626 -1.1481 -3.8098  0.9065
  485SOL    HW2 1455   2.149   0.532   0.727 -2.0195 -0.2039 -1.1950
  486SOL     OW 1456   2.056   2.859   2.201  0.6773  0.0859 -0.1502
  486SOL    HW1 1457   2.065   2.785   2.268 -0.5715  0.5403 -2.7690
  486SOL    HW2 1458   2.111   2.842   2.120 -0.9674  2.9106  2.6893
  487SOL     OW 1459   1.078   1.796   0.837 -0.0743  0.0709 -0.1653
  487SOL    HW1 1460   1.052   1.794   0.739  0.9078 -0.7945  0.5628
  487SOL    HW2 1461   1.096   1.892   0.865  0.3769 -0.0385  0.2944
  488SOL     OW 1462   2.165   0.296   0.064 -0.4869 -0.2408  0.5359
  488SOL    HW1 1463   2.197   0.373   0.124 -3.5825  3.1570  0.6632
  488SOL    HW2 1464   2.107   0.328   3.092  0.2242 -3.1871  0.7542
  489SOL     OW 1465   2.029   3.026   0.470  0.0867 -0.5922 -0.1610
  489SOL    HW1 1466   1.980   3.013   0.557 -1.3143 -1.0298  0.7812
  489SOL    HW2 1467   2.034   0.020   0.453 -0.0184 -0.6500  0.2247
  490SOL     OW 1468   1.424   2.999   2.907 -0.4842 -0.1511 -0.2495
  490SOL    HW1 1469   1.461   3.087   2.944  0.1174 -3.6033 -1.0878
  490SOL    HW2 1470   1.415   2.934   2.983 -0.8853  0.9829 -0.6910
  491SOL     OW 1471   0.796   0.041   1.232  0.1415  0.2658  0.3299
  491SOL    HW1 1472   0.823   0.094   1.310 -1.5355 -4.0391 -3.1644
  491SOL    HW2 1473   0.868   0.056   1.158 -1.2887 -1.3783 -0.3973
  492SOL     OW 1474   1.823   2.913   0.282 -0.0133  0.6333 -0.0646
  492SOL    HW1 1475   1.880   2.952   0.355  0.0636  1.8502 -0.7840
  492SOL    HW2 1476   1.869   2.832   0.237  1.8819 -0.2998 -3.6301
  493SOL     OW 1477   1.251   2.203   2.721 -0.3908 -0.0001  0.1408
  493SOL    HW1 1478   1.191   2.250   2.790 -0.3127  0.7253  0.5771
  493SOL    HW2 1479   1.256   2.100   2.728 -0.6157 -0.0028  0.7101
  494SOL     OW 1480   0.235   1.268   1.125  0.0254  0.3753 -0.1489
  494SOL    HW1 1481   0.220   1.359   1.166 -0.6907 -1.9272  0.0902
  494SOL    HW2 1482   0.325   1.227   1.166  2.6383 -0.2765  1.6589
  495SOL     OW 1483   2.864   0.536   1.535  0.2213 -0.2997  0.0034
  495SOL    HW1 1484   2.948   0.537   1.480 -0.7141 -0.1266  0.5304
  495SOL    HW2 1485   2.877   0.594   1.621  2.4791  0.4720 -1.9436
  496SOL     OW 1486   2.400   2.301   2.281  0.4937  0.1810 -0.4102
  496SOL    HW1 1487   2.494   2.325   2.258 -1.9818 -1.3052  2.1586
  496SOL    HW2 1488   2.339   2.384   2.270 -0.3077  1.6101 -0.3754
  497SOL     OW 1489   1.593   1.268   2.612  0.1543  0.4269 -0.3152
  497SOL    HW1 1490   1.580   1.168   2.630 -0.6234  0.9249  0.7111
  497SOL    HW2 1491   1.503   1.306   2.576 -0.6003  2.9662 -0.2430
  498SOL     OW 1492   0.942   2.261   0.760 -0.1197  0.1035 -0.1879
  498SOL    HW1 1493   0.947   2.362   0.774 -0.7743 -1.3277  0.8651
  498SOL    HW2 1494   0.868   2.229   0.828 -2.9125  2.2515  0.7569
  499SOL     OW 1495   0.024   1.501   1.067 -0.0673 -0.3566 -0.6578
  499SOL    HW1 1496   3.079   1.431   1.018  0.4728  1.2479 -0.2107
  499SOL    HW2 1497   0.107   1.530   1.018  0.4897  2.6283  0.4265
  500SOL     OW 1498   1.285   2.411   0.345 -0.1033  0.0896 -0.3527
  500SOL    HW1 1499   1.205   2.380   0.292  0.5022 -0.6594  0.0428
  500SOL    HW2 1500   1.303   2.511   0.326 -2.0378  0.9000 -0.6845
  501SOL     OW 1501   2.070   2.488   1.129 -0.3021  0.0609  0.5856
  501SOL    HW1 1502   2.054   2.390   1.108 -1.6707  0.3279 -0.2022
  501SOL    HW2 1503   2.042   2.540   1.051  1.1537 -0.0223  2.1597
  502SOL     OW 1504   0.408   0.604   1.511  0.4508  0.3997 -0.1870
  502SOL    HW1 1505   0.330   0.581   1.451  0.3409  0.7171  3.6436
  502SOL    HW2 1506   0.491   0.566   1.470  0.5238  1.4334 -1.0032
  503SOL     OW 1507   2.047   0.272   1.685 -0.1900 -0.1203  0.5084
  503SOL    HW1 1508   1.960   0.254   1.639  0.7678  1.7611  1.0255
  503SOL    HW2 1509   2.079   0.190   1.735 -1.9149  1.9497  1.2292
  504SOL     OW 1510   2.290   0.745   1.774  0.1969 -0.2539 -0.2084
  504SOL    HW1 1511   2.239   0.660   1.778  2.1973  3.4995  1.2315
  504SOL    HW2 1512   2.252   0.813   1.708 -0.4235 -2.2876  2.1657
  505SOL     OW 1513   1.249   2.882   2.219  0.2106  0.0721 -0.2366
  505SOL    HW1 1514   1.210   2.790   2.234  3.6359  2.1952 -0.7921
  505SOL    HW2 1515   1.284   2.919   2.308  0.3929 -0.4828 -0.2778
  506SOL     OW 1516   0.261   0.402   1.885  0.4175 -0.4602 -0.3727
  506SOL    HW1 1517   0.347   0.453   1.881 -3.1935 -4.1890 -1.9800
  506SOL    HW2 1518   0.235   0.401   1.787 -0.7320  1.2746  1.2426
  507SOL     OW 1519   1.461   0.169   3.009 -0.1950 -0.6792 -0.2195
  507SOL    HW1 1520   1.372   0.174   3.058 -2.3350 -0.0504 -1.4019
  507SOL    HW2 1521   1.532   0.161   3.079 -1.2852  0.7208 -1.5104
  508SOL     OW 1522   2.156   0.544   2.237 -0.0107 -0.0189  0.2048
  508SOL    HW1 1523   2.226   0.607   2.188  0.8579  3.1227  1.5153
  508SOL    HW2 1524   2.105   0.490   2.165  0.5140 -1.9568 -1.2838
  509SOL     OW 1525   0.814   1.498   2.261  0.1206 -0.5727 -0.4397
  509SOL    HW1 1526   0.771   1.439   2.335 -1.9145  0.3860  0.2122
  509SOL    HW2 1527   0.815   1.598   2.284  0.3721 -0.5754  2.2631
  510SOL     OW 1528   2.929   0.440   0.869 -0.4391 -0.2409 -0.0941
  510SOL    HW1 1529   2.980   0.516   0.832 -2.8614 -1.3962  0.6847
  510SOL    HW2 1530   2.901   0.461   0.961 -1.4743 -0.6903 -0.5565
  511SOL     OW 1531   1.730   1.491   1.282  0.2189 -0.3491 -0.3412
  511SOL    HW1 1532   1.697   1.544   1.362 -1.2683 -2.3713 -0.3015
  511SOL    HW2 1533   1.804   1.432   1.304 -0.8294  1.9881 -0.8068
  512SOL     OW 1534   0.398   1.540   0.624  0.4192  0.0453 -0.3706
  512SOL    HW1 1535   0.441   1.608   0.683 -2.7341 -1.7429 -2.4449
  512SOL    HW2 1536   0.385   1.449   0.669 -1.5322  1.4719 -0.0605
  513SOL     OW 1537   0.630   2.192   1.174  0.0419 -0.2535  0.0690
  513SOL    HW1 1538   0.557   2.134   1.212 -0.0730 -2.8302  1.4549
  513SOL    HW2 1539   0.602   2.293   1.177  1.4746  0.2701 -1.5379
  514SOL     OW 1540   0.200   2.164   0.398 -0.7634 -0.2623  0.6732
  514SOL    HW1 1541   0.104   2.149   0.426  0.4232 -0.9439 -1.7811
  514SOL    HW2 1542   0.231   2.077   0.352  0.2857 -0.7203  0.1789
  515SOL     OW 1543   2.800   3.033   3.068 -0.2366  0.6688 -0.9681
  515SOL    HW1 1544   2.833   2.939   3.051  0.3594 -0.0533 -0.0743
  515SOL    HW2 1545   2.861   3.080   0.026  0.7870  1.1773 -0.1611
  516SOL     OW 1546   1.942   0.061   1.183 -0.2972 -0.3903 -0.1235
  516SOL    HW1 1547   1.847   0.103   1.192  1.0421  2.1721 -1.4747
  516SOL    HW2 1548   1.955   3.085   1.244  1.3340  1.1242 -3.8294
  517SOL     OW 1549   1.614   1.636   0.614 -0.0546 -0.0980 -0.8684
  517SOL    HW1 1550   1.695   1.658   0.674  0.7251  1.8929  0.1908
  517SOL    HW2 1551   1.612   1.533   0.612  0.5946 -0.8551 -0.5469
  518SOL     OW 1552   1.462   0.404   0.993  0.2983  0.2133 -0.0690
  518SOL    HW1 1553   1.369   0.451   0.975  0.6142  1.2276 -0.4668
  518SOL    HW2 1554   1.530   0.409   0.914 -1.3280 -1.4082 -2.4885
  519SOL     OW 1555   2.718   2.276   0.292  0.3096 -0.2457  0.3003
  519SOL    HW1 1556   2.710   2.379   0.299 -1.4843 -2.5132  0.3097
  519SOL    HW2 1557   2.808   2.243   0.255 -2.1877 -0.8005 -0.4435
  520SOL     OW 1558   1.977   1.993   1.959  0.1660 -0.4107 -0.2178
  520SOL    HW1 1559   1.984   1.899   1.994 -0.8860  2.2766 -1.5223
  520SOL    HW2 1560   1.891   1.994   1.897 -2.0632 -2.3166  0.4113
  521SOL     OW 1561   1.459   2.678   2.320 -0.2234  0.0303  0.2011
  521SOL    HW1 1562   1.370   2.639   2.353  0.7445 -1.5347 -0.3908
  521SOL    HW2 1563   1.447   2.771   2.277 -2.1807 -0.3582 -2.1305
  522SOL     OW 1564   2.739   0.085   1.865  0.2797 -0.2615  0.1040
  522SOL    HW1 1565   2.686   0.116   1.781  1.1241  1.9028 -0.6900
  522SOL    HW2 1566   2.765   3.092   1.859  0.8423 -1.5942 -1.7706
  523SOL     OW 1567   1.135   2.261   1.537  0.6191  0.1464  0.4640
  523SOL    HW1 1568   1.145   2.351   1.577  0.0775 -2.8968 -1.0381
  523SOL    HW2 1569   1.203   2.246   1.461 -1.8039 -0.5077  0.9317
  524SOL     OW 1570   2.222   2.182   2.963  0.1287  0.3705 -0.7062
  524SOL    HW1 1571   2.200   2.137   2.874 -1.1403 -5.1658 -0.6938
  524SOL    HW2 1572   2.207   2.119   3.041 -0.7781  0.3767  2.1107
  525SOL     OW 1573   2.906   0.963   0.112  0.7966 -0.0709  0.7921
  525SOL    HW1 1574   2.954   0.877   0.138 -1.0920 -4.5044  0.4781
  525SOL    HW2 1575   2.861   0.945   0.019 -0.3104  0.0895 -1.8109
  526SOL     OW 1576   0.966   2.790   0.976  0.0923 -0.2908  0.0742
  526SOL    HW1 1577   1.003   2.882   0.951 -3.0316  1.6042  0.7810
  526SOL    HW2 1578   0.866   2.795   1.011 -2.5014 -1.3356  0.1356
  527SOL     OW 1579   2.478   1.489   0.491 -0.0055 -0.1683  0.3079
  527SOL    HW1 1580   2.397   1.446   0.534  0.7304  0.7610 -0.6757
  527SOL    HW2 1581   2.462   1.576   0.434 -1.8390 -0.9183 -1.1611
  528SOL     OW 1582   0.650   0.821   2.486 -0.1051  0.4352  0.4834
  528SOL    HW1 1583   0.708   0.892   2.443  0.7001  1.4011 -3.0057
  528SOL    HW2 1584   0.557   0.819   2.439 -4.3714  0.3559  1.7100
  529SOL     OW 1585   0.649   1.513   0.005 -0.6874  0.0170 -0.2105
  529SOL    HW1 1586   0.580   1.589   0.023 -0.9809  2.2121 -0.3101
  529SOL    HW2 1587   0.600   1.424   0.001  0.9774  2.0388 -0.1935
  530SOL     OW 1588   1.453   1.036   1.850 -0.1629  0.0030 -0.3937
  530SOL    HW1 1589   1.540   1.052   1.904  2.2465 -2.4231 -0.4185
  530SOL    HW2 1590   1.382   0.995   1.911  1.2213  1.6114 -3.6428
  531SOL     OW 1591   1.194   2.104   3.107 -0.1523 -0.2086  0.4890
  531SOL    HW1 1592   1.171   2.025   3.044  2.4695 -1.7943  1.9391
  531SOL    HW2 1593   1.292   2.101   0.019  2.2804  0.9129  0.8090
  532SOL     OW 1594   2.291   0.952   3.027  0.4918  0.1303 -0.6747
  532SOL    HW1 1595   2.345   0.866   3.004  0.7735 -1.0191 -5.3928
  532SOL    HW2 1596   2.195   0.945   3.002  2.7131  1.2473  0.5359
  533SOL     OW 1597   3.035   0.454   1.972  0.4327  0.1665 -0.2689
  533SOL    HW1 1598   2.998   0.372   2.020  0.1244 -1.4135  1.5049
  533SOL    HW2 1599   2.970   0.531   1.979 -0.4100 -2.8334  1.0785
  534SOL     OW 1600   1.855   3.056   0.033  0.3095 -0.0979 -0.6074
  534SOL    HW1 1601   1.823   3.002   0.111  0.5257 -1.6508  0.4158
  534SOL    HW2 1602   1.954   3.072   0.033 -1.3905  0.9163  2.0439
  535SOL     OW 1603   0.526   0.293   2.901 -0.1528 -1.4078 -0.0382
  535SOL    HW1 1604   0.551   0.261   2.808 -0.9538  0.1154  1.3910
  535SOL    HW2 1605   0.550   0.390   2.911  2.1661 -0.8940  2.4734
  536SOL     OW 1606   0.848   1.826   1.572  0.1330 -0.2884  0.4470
  536SOL    HW1 1607   0.879   1.748   1.516  0.1035  3.0289  0.1716
  536SOL    HW2 1608   0.914   1.897   1.586  1.2869  1.0241  0.7290
  537SOL     OW 1609   2.920   2.759   1.599  0.0024 -0.2984  0.2114
  537SOL    HW1 1610   2.993   2.821   1.562  0.4823  1.8568 -1.2630
  537SOL    HW2 1611   2.852   2.724   1.529 -2.0287  0.3940  2.0875
  538SOL     OW 1612   3.037   2.140   0.468  0.1083  0.5049 -0.0270
  538SOL    HW1 1613   2.972   2.101   0.536  0.5463  1.0829 -2.4884
  538SOL    HW2 1614   3.010   2.103   0.375 -0.7116  1.0496 -0.7793
  539SOL     OW 1615   2.557   0.965   2.722  0.0192  0.4275 -0.1948
  539SOL    HW1 1616   2.556   0.865   2.742  0.0321 -1.3056 -1.5173
  539SOL    HW2 1617   2.567   1.016   2.808 -0.3271  0.7778 -2.9690
  540SOL     OW 1618   2.023   0.706   0.058 -0.1383  0.8599 -0.1324
  540SOL    HW1 1619   1.991   0.796   0.043 -0.8263 -1.0882 -1.2180
  540SOL    HW2 1620   1.981   0.649   3.088  0.2191 -1.5875 -2.6737
  541SOL     OW 1621   0.915   0.586   2.061  0.3855 -0.1726  0.5181
  541SOL    HW1 1622   0.907   0.617   2.158  0.6866  1.4483  1.7705
  541SOL    HW2 1623   0.833   0.534   2.034 -1.1050  1.8022  1.1925
  542SOL     OW 1624   1.552   2.450   2.192 -0.0118 -0.2066 -0.0515
  542SOL    HW1 1625   1.538   2.547   2.224  1.4505 -3.1587  1.1191
  542SOL    HW2 1626   1.641   2.436   2.143  0.7732  1.6740  2.2847
  543SOL     OW 1627   0.882   2.765   0.474 -0.5138  0.4354 -0.4786
  543SOL    HW1 1628   0.869   2.841   0.538  0.6485 -1.5560 -2.2169
  543SOL    HW2 1629   0.849   2.798   0.381 -1.4341  0.6273 -0.2532
  544SOL     OW 1630   2.781   1.987   2.114  0.0325  0.3003 -0.3616
  544SOL    HW1 1631   2.882   1.974   2.096  0.0177  0.8632  0.0096
  544SOL    HW2 1632   2.764   1.982   2.215  2.5657 -1.8739 -1.3046
  545SOL     OW 1633   1.447   2.149   1.508  0.3387 -0.4271  0.5362
  545SOL    HW1 1634   1.391   2.107   1.584 -0.9912 -0.2978  1.0099
  545SOL    HW2 1635   1.391   2.179   1.429  1.9193 -1.1922  0.0636
  546SOL     OW 1636   0.415   0.138   2.189 -0.0654  0.2517 -0.1525
  546SOL    HW1 1637   0.484   0.081   2.236 -2.2001 -1.0424 -0.4912
  546SOL    HW2 1638   0.321   0.128   2.232 -2.4843 -0.0481  0.6673
  547SOL     OW 1639   1.094   0.228   0.474  0.0795 -0.1098  0.3294
  547SOL    HW1 1640   1.065   0.290   0.394 -1.3658 -0.1032 -3.0957
  547SOL    HW2 1641   1.070   0.268   0.566  0.4857  2.1004 -1.3171
  548SOL     OW 1642   1.453   2.087   0.099  0.2760  0.1307 -0.6935
  548SOL    HW1 1643   1.468   2.139   0.188  0.5317 -2.2391  1.2053
  548SOL    HW2 1644   1.540   2.079   0.047 -0.1492  0.1239  0.1549
  549SOL     OW 1645   2.118   0.982   0.398 -0.1054 -0.0157 -0.4002
  549SOL    HW1 1646   2.104   0.988   0.296  2.9523 -2.3566 -3.0286
  549SOL    HW2 1647   2.205   1.019   0.423 -1.4944 -1.6375 -0.3684
  550SOL     OW 1648   2.571   2.095   0.454  0.1988 -0.8465 -0.2228
  550SOL    HW1 1649   2.489   2.062   0.404 -0.5742 -0.3478 -0.9181
  550SOL    HW2 1650   2.620   2.169   0.405  0.9207  2.3818 -0.5356
  551SOL     OW 1651   1.386   0.404   1.477  0.2359  0.2304  0.1211
  551SOL    HW1 1652   1.446   0.424   1.398  0.1005 -2.5426  0.7160
  551SOL    HW2 1653   1.349   0.307   1.474  1.0725 -1.5126 -0.2570
  552SOL     OW 1654   0.122   2.215   2.948 -0.2895  0.5017 -0.5275
  552SOL    HW1 1655   0.144   2.115   2.955 -0.2841 -2.7622 -3.2089
  552SOL    HW2 1656   0.045   2.240   3.007  0.0307  0.2062  0.2466
  553SOL     OW 1657   2.864   2.718   0.672  0.2117 -0.4074 -0.4796
  553SOL    HW1 1658   2.855   2.633   0.721 -0.8921 -0.8599 -1.6125
  553SOL    HW2 1659   2.959   2.746   0.655  0.1456  0.3541 -1.3167
  554SOL     OW 1660   2.030   1.316   1.650 -0.0561  0.0060  0.0295
  554SOL    HW1 1661   2.086   1.255   1.585  0.7250 -3.6781  0.2924
  554SOL    HW2 1662   1.971   1.376   1.594 -0.0054 -2.2023  2.1816
  555SOL     OW 1663   1.190   2.238   2.187 -0.0819 -0.4550 -0.2133
  555SOL    HW1 1664   1.167   2.228   2.284  1.1501  1.2792 -0.4858
  555SOL    HW2 1665   1.118   2.294   2.143 -0.3059  0.1059  1.2583
  556SOL     OW 1666   1.382   1.641   1.849  0.6130 -0.8303 -0.0738
  556SOL    HW1 1667   1.334   1.580   1.920 -0.0520 -0.8199  1.5238
  556SOL    HW2 1668   1.479   1.622   1.850 -2.2317  0.1038 -0.5778
  557SOL     OW 1669   1.441   3.099   1.838  0.2663  0.1953  0.4405
  557SOL    HW1 1670   1.407   3.002   1.857 -1.0507 -0.6690 -0.4771
  557SOL    HW2 1671   1.385   0.058   1.898 -1.3649  1.1081  0.7077
  558SOL     OW 1672   0.506   3.074   1.996 -0.3883  0.5256 -0.0687
  558SOL    HW1 1673   0.437   3.035   1.926 -0.8312  0.3911 -1.7922
  558SOL    HW2 1674   0.467   0.045   2.048  0.3853 -0.0181 -1.8684
  559SOL     OW 1675   1.679   2.504   0.192 -0.3621  0.1427 -0.3452
  559SOL    HW1 1676   1.654   2.599   0.173  0.7025 -0.7543  0.5799
  559SOL    HW2 1677   1.742   2.509   0.274 -0.5625  1.8041 -2.8535
  560SOL     OW 1678   1.172   2.136   0.394 -0.2177  0.0408 -0.1115
  560SOL    HW1 1679   1.221   2.052   0.357 -1.7917 -0.8471 -1.4121
  560SOL    HW2 1680   1.148   2.192   0.315  1.9230 -0.8060  2.6674
  561SOL     OW 1681   1.418   0.617   0.141 -0.8618 -0.1201  0.1592
  561SOL    HW1 1682   1.512   0.581   0.122 -0.0675 -3.4153  0.0147
  561SOL    HW2 1683   1.354   0.558   0.091  0.4831  0.2153  1.7638
  562SOL     OW 1684   0.605   1.407   1.881  0.1690 -0.3066  0.0820
  562SOL    HW1 1685   0.697   1.386   1.920 -1.3743 -0.2073 -0.6729
  562SOL    HW2 1686   0.570   1.331   1.823 -0.1605  0.4557  1.6246
  563SOL     OW 1687   1.525   2.196   2.723 -0.3838 -0.3699 -0.0145
  563SOL    HW1 1688   1.424   2.216   2.732 -3.3026  1.2596 -1.4078
  563SOL    HW2 1689   1.540   2.115   2.666 -0.7710 -2.1647  2.8022
  564SOL     OW 1690   2.758   0.883   0.911  0.2554  0.2276  0.2465
  564SOL    HW1 1691   2.669   0.831   0.904 -0.8756 -1.5367 -0.3167
  564SOL    HW2 1692   2.744   0.963   0.964  1.0760  0.7467 -0.5509
  565SOL     OW 1693   0.540   1.248   0.029 -0.0079  0.3310 -0.1354
  565SOL    HW1 1694   0.503   1.234   3.041  2.4136 -0.9914  2.8279
  565SOL    HW2 1695   0.624   1.188   0.041  0.6272  2.4123 -1.4781
  566SOL     OW 1696   2.426   2.764   2.864 -0.0742 -0.2534 -0.6336
  566SOL    HW1 1697   2.451   2.835   2.936 -0.5118  0.3994  2.3675
  566SOL    HW2 1698   2.348   2.709   2.893 -0.2577  0.9041 -0.0297
  567SOL     OW 1699   1.537   1.284   1.361 -0.1393  0.9821  0.7705
  567SOL    HW1 1700   1.591   1.335   1.292  1.0781  0.4898 -0.1836
  567SOL    HW2 1701   1.550   1.321   1.458  1.7921  1.7771 -0.8720
  568SOL     OW 1702   1.419   1.132   2.900  0.1424  0.6983 -0.0232
  568SOL    HW1 1703   1.318   1.121   2.907  0.9982  0.1835 -1.5224
  568SOL    HW2 1704   1.439   1.233   2.903  1.1659  0.7765 -1.6396
  569SOL     OW 1705   2.116   2.038   0.065 -0.0480 -0.1781  0.2212
  569SOL    HW1 1706   2.159   2.003   0.150  0.1526 -0.1561  4.2232
  569SOL    HW2 1707   2.023   2.075   0.083 -0.9164  0.7369 -0.7053
  570SOL     OW 1708   2.932   2.261   2.219  0.0793  0.1049  0.3824
  570SOL    HW1 1709   2.964   2.333   2.157 -2.8141  1.4146 -0.0319
  570SOL    HW2 1710   2.998   2.183   2.239 -0.2781  1.3720  0.5574
  571SOL     OW 1711   2.775   2.058   1.798 -0.7700  0.3196 -0.5324
  571SOL    HW1 1712   2.801   1.960   1.821  0.3335 -1.5359 -1.2659
  571SOL    HW2 1713   2.708   2.080   1.872 -1.1562 -1.7748 -0.7863
  572SOL     OW 1714   1.530   2.266   0.330  0.0798  0.3376 -0.2043
  572SOL    HW1 1715   1.438   2.291   0.359  0.4301  0.8993 -0.7564
  572SOL    HW2 1716   1.568   2.348   0.293 -2.1152  1.2455  1.2467
  573SOL     OW 1717   1.378   1.713   0.738 -0.1404  0.3105 -0.2780
  573SOL    HW1 1718   1.465   1.684   0.696  0.7767 -1.1702  1.1204
  573SOL    HW2 1719   1.377   1.814   0.761  0.7954  0.0255 -0.3424
  574SOL     OW 1720   1.415   3.066   1.568 -0.5525 -0.2768 -0.3884
  574SOL    HW1 1721   1.464   2.977   1.559  0.5848 -1.3534 -0.3899
  574SOL    HW2 1722   1.442   3.098   1.664 -1.2589  2.1592 -0.8595
  575SOL     OW 1723   0.484   1.200   1.240  0.1056  0.4017 -0.9007
  575SOL    HW1 1724   0.531   1.112   1.268 -0.8051 -4.2269  0.6647
  575SOL    HW2 1725   0.490   1.267   1.314  1.7067 -2.1800 -1.4406
  576SOL     OW 1726   2.759   0.182   1.044  0.0776 -0.1226 -0.7441
  576SOL    HW1 1727   2.769   0.205   0.944 -0.6521 -0.0073  0.8729
  576SOL    HW2 1728   2.670   0.136   1.054  1.1582  2.7861  3.0173
  577SOL     OW 1729   1.603   0.666   2.544  0.1520 -0.5488  0.2489
  577SOL    HW1 1730   1.525   0.614   2.503  0.4017 -3.7644  1.8340
  577SOL    HW2 1731   1.668   0.702   2.473  0.4949 -1.3771 -4.0301
  578SOL     OW 1732   2.088   1.428   2.504 -0.1529 -0.3976 -0.4162
  578SOL    HW1 1733   2.008   1.375   2.539 -1.8624  0.6560 -0.6020
  578SOL    HW2 1734   2.071   1.529   2.517  1.4231  0.2816 -0.9428
  579SOL     OW 1735   0.402   1.516   1.215  0.3367  0.0365  0.2597
  579SOL    HW1 1736   0.338   1.578   1.268 -0.6819  0.5858 -0.1709
  579SOL    HW2 1737   0.379   1.521   1.113  0.2666 -0.3899 -1.1648
  580SOL     OW 1738   1.299   2.389   3.065 -0.1738 -0.1178  0.3438
  580SOL    HW1 1739   1.392   2.376   3.034  0.9721  1.5736  1.6355
  580SOL    HW2 1740   1.296   2.393   0.062 -1.5152 -1.8100 -0.0740
  581SOL     OW 1741   0.925   0.929   2.097  0.0868  0.5473 -0.4508
  581SOL    HW1 1742   0.869   1.015   2.079 -1.6992  1.0388 -1.5427
  581SOL    HW2 1743   0.918   0.865   2.018 -0.7050 -0.6292 -1.9604
  582SOL     OW 1744   0.585   1.291   1.009  0.1255 -0.1260 -0.3828
  582SOL    HW1 1745   0.539   1.250   1.089 -2.5452  3.1486  1.9987
  582SOL    HW2 1746   0.617   1.387   1.023  2.5610 -1.0743  0.3747
  583SOL     OW 1747   0.847   1.386   2.011 -0.8069  0.2623 -0.4132
  583SOL    HW1 1748   0.919   1.434   1.952 -0.0793 -0.2775 -1.4092
  583SOL    HW2 1749   0.849   1.414   2.106  0.5971 -0.3748 -1.7553
  584SOL     OW 1750   2.249   2.704   0.508  0.6391 -0.1668  0.1838
  584SOL    HW1 1751   2.156   2.708   0.562 -5.0365 -0.2267  0.1522
  584SOL    HW2 1752   2.286   2.796   0.483  0.1301  3.8144  0.2935
  585SOL     OW 1753   1.822   0.576   3.024  0.3140 -0.5357 -0.4344
  585SOL    HW1 1754   1.754   0.576   3.103  0.6846 -1.0622 -0.7966
  585SOL    HW2 1755   1.788   0.637   2.950 -2.1340  2.8135 -0.3729
  586SOL     OW 1756   0.212   1.711   0.528 -0.1995  0.2042 -0.4766
  586SOL    HW1 1757   0.136   1.657   0.493  0.8755  0.6348 -0.3615
  586SOL    HW2 1758   0.284   1.661   0.574 -1.1267  3.4560 -0.7627
  587SOL     OW 1759   1.797   1.968   0.661  0.0424  0.0557 -0.2706
  587SOL    HW1 1760   1.790   2.050   0.714 -1.0589 -2.4401 -1.5045
  587SOL    HW2 1761   1.791   1.882   0.710 -0.3260  0.0513  1.8788
  588SOL     OW 1762   0.478   0.284   0.992  0.4726 -0.1345 -0.1114
  588SOL    HW1 1763   0.430   0.299   1.086  0.0653  1.1345  2.0698
  588SOL    HW2 1764   0.502   0.184   0.987  1.2370  1.2758  2.1114
  589SOL     OW 1765   1.217   0.501   1.028 -0.5915  0.2180 -0.8011
  589SOL    HW1 1766   1.127   0.459   1.012  2.6058  0.5405  0.2303
  589SOL    HW2 1767   1.206   0.600   1.014 -0.4581 -4.4073 -0.3462
  590SOL     OW 1768   1.303   1.048   0.295  0.1203  0.1980  0.9797
  590SOL    HW1 1769   1.341   1.141   0.287 -1.0994  1.7408  0.9708
  590SOL    HW2 1770   1.323   1.009   0.386  1.4507 -0.7318 -2.1586
  591SOL     OW 1771   2.697   2.579   2.458  0.2446 -0.5005  0.0397
  591SOL    HW1 1772   2.636   2.528   2.517  1.7826  1.8505  0.1028
  591SOL    HW2 1773   2.789   2.588   2.496 -1.3083 -0.8395 -0.9925
  592SOL     OW 1774   1.538   2.040   1.036  0.0585  0.6003  0.6910
  592SOL    HW1 1775   1.636   2.036   1.063 -1.2471 -0.8171  0.5389
  592SOL    HW2 1776   1.495   2.124   1.071  2.6533 -0.8994  1.0027
  593SOL     OW 1777   1.005   0.088   1.081  0.5811  0.2364 -0.2034
  593SOL    HW1 1778   1.038   0.028   0.997  1.2958 -0.7578 -4.5012
  593SOL    HW2 1779   1.087   0.078   1.143  0.6633 -1.8216  3.3414
  594SOL     OW 1780   0.288   0.813   2.100  0.5276  0.1698  0.1214
  594SOL    HW1 1781   0.249   0.912   2.091 -1.0056 -2.2071 -0.8953
  594SOL    HW2 1782   0.233   0.742   2.045  0.5326 -0.6813 -0.1834
  595SOL     OW 1783   0.296   2.516   1.364 -0.2187 -0.0149  0.2152
  595SOL    HW1 1784   0.379   2.552   1.413  3.4033  3.1505  1.4191
  595SOL    HW2 1785   0.251   2.591   1.310  0.6090  3.2693 -2.8195
  596SOL     OW 1786   0.224   0.944   1.302 -0.1321 -0.5961  0.7086
  596SOL    HW1 1787   0.283   0.942   1.382 -2.2615 -1.0996 -0.9836
  596SOL    HW2 1788   0.129   0.914   1.319  1.0674 -1.4107 -1.8383
  597SOL     OW 1789   1.946   1.916   0.434  0.2514  0.5622 -0.4118
  597SOL    HW1 1790   1.900   1.929   0.521 -1.3069 -0.5142 -1.7618
  597SOL    HW2 1791   2.009   1.834   0.434  3.0152  0.2167  0.0103
  598SOL     OW 1792   0.422   2.770   1.776  0.3389  0.1483  0.2441
  598SOL    HW1 1793   0.516   2.775   1.735  1.9116 -1.5687 -0.4333
  598SOL    HW2 1794   0.419   2.708   1.856 -1.4828 -0.8066 -1.1304
  599SOL     OW 1795   2.622   2.053   2.993 -0.4603 -0.1973  0.3348
  599SOL    HW1 1796   2.547   2.003   2.947  2.3020 -1.3959  0.1055
  599SOL    HW2 1797   2.675   1.976   3.029  0.4934 -0.1295  2.5026
  600SOL     OW 1798   0.650   0.885   0.147 -0.2159  0.1852 -0.3553
  600SOL    HW1 1799   0.687   0.965   0.110 -3.0162 -1.3958  2.6043
  600SOL    HW2 1800   0.654   0.880   0.249  1.0581 -1.6953 -0.2418
  601SOL     OW 1801   0.869   0.803   0.379  0.3119 -0.2543  0.0263
  601SOL    HW1 1802   0.944   0.854   0.333 -0.7595  2.4054 -0.4612
  601SOL    HW2 1803   0.813   0.861   0.438 -0.7963 -1.4176 -2.2152
  602SOL     OW 1804   1.527   2.630   0.810 -0.2903 -0.1793  0.6803
  602SOL    HW1 1805   1.611   2.676   0.840 -1.8342 -1.1690 -2.1532
  602SOL    HW2 1806   1.521   2.654   0.708 -0.3144 -1.4374  0.8263
  603SOL     OW 1807   0.620   2.820   2.077 -0.1064  0.0314 -0.0536
  603SOL    HW1 1808   0.574   2.903   2.037  0.4431  0.9192 -0.8049
  603SOL    HW2 1809   0.700   2.793   2.023 -3.3295  2.1084  2.5980
  604SOL     OW 1810   0.032   0.099   2.180  0.1565  0.3097  0.2158
  604SOL    HW1 1811   0.041   0.000   2.145 -0.8142  0.6151 -1.6515
  604SOL    HW2 1812   0.097   0.124   2.257 -1.7486  0.3442  0.7317
  605SOL     OW 1813   2.689   2.219   1.158 -0.0439  0.2423  0.2537
  605SOL    HW1 1814   2.706   2.312   1.118  1.0186 -0.2440 -0.7885
  605SOL    HW2 1815   2.594   2.185   1.138  0.6046 -0.8866 -1.3719
  606SOL     OW 1816   0.332   1.487   3.002 -0.4026 -0.3031 -0.3232
  606SOL    HW1 1817   0.326   1.560   3.073 -1.9956 -1.3437 -0.0423
  606SOL    HW2 1818   0.267   1.498   2.924 -2.5021 -0.9399  2.1509
  607SOL     OW 1819   0.968   0.354   0.257 -0.0974  0.4405  0.6926
  607SOL    HW1 1820   0.939   0.451   0.256 -1.1812  1.2035  0.9832
  607SOL    HW2 1821   0.970   0.317   0.158 -0.1825 -0.8494 -1.6433
  608SOL     OW 1822   1.655   1.167   2.229 -0.4975 -0.2340  0.5804
  608SOL    HW1 1823   1.575   1.123   2.275 -1.0497  1.9192 -0.8936
  608SOL    HW2 1824   1.728   1.169   2.299 -0.8982 -1.2523  0.0367
  609SOL     OW 1825   3.090   0.224   0.847 -0.5409 -0.5800  0.0061
  609SOL    HW1 1826   0.046   0.236   0.929  1.3869  0.3205  1.3938
  609SOL    HW2 1827   3.028   0.307   0.835 -2.1034 -1.9584 -0.8847
  610SOL     OW 1828   0.552   2.522   0.097 -0.3125 -0.9384  0.1281
  610SOL    HW1 1829   0.619   2.471   0.156  0.7823  4.2616 -1.2447
  610SOL    HW2 1830   0.500   2.587   0.154 -0.8042  0.3706 -0.5324
  611SOL     OW 1831   1.685   1.083   0.242  0.3956 -0.3927  0.3253
  611SOL    HW1 1832   1.773   1.082   0.186 -0.8520  1.8912 -0.0532
  611SOL    HW2 1833   1.612   1.112   0.184  0.8285 -1.5115  1.5433
  612SOL     OW 1834   0.937   2.267   2.493  0.0513  0.2414  0.4336
  612SOL    HW1 1835   0.881   2.238   2.573 -0.4162 -0.8556  1.3815
  612SOL    HW2 1836   0.936   2.369   2.488 -1.0535 -2.2900  1.5745
  613SOL     OW 1837   1.079   2.304   2.890  0.2824 -0.4554 -0.1100
  613SOL    HW1 1838   1.155   2.325   2.961  0.8848  0.3668  0.3655
  613SOL    HW2 1839   1.001   2.255   2.935 -1.1215 -0.8205 -1.0445
  614SOL     OW 1840   2.620   3.096   1.372 -0.7383 -0.0204  0.3280
  614SOL    HW1 1841   2.703   3.061   1.316  3.2075  1.1926 -2.7253
  614SOL    HW2 1842   2.620   3.045   1.464 -0.2454 -1.8095  0.1129
  615SOL     OW 1843   2.175   1.368   0.002 -0.4459 -0.1185 -0.2629
  615SOL    HW1 1844   2.095   1.372   3.046  1.8706 -0.3488  0.7427
  615SOL    HW2 1845   2.233   1.450   3.097 -1.3650  1.3424 -2.1398
  616SOL     OW 1846   1.534   0.112   0.346  0.5239  0.0927 -0.2825
  616SOL    HW1 1847   1.561   0.158   0.256  0.6465  4.0594 -2.4312
  616SOL    HW2 1848   1.599   0.136   0.422 -2.2900  0.1467 -1.0748
  617SOL     OW 1849   0.773   1.132   0.095 -0.1022  0.4515 -0.3608
  617SOL    HW1 1850   0.852   1.146   0.033 -1.8751  0.1121  1.8946
  617SOL    HW2 1851   0.789   1.177   0.181 -0.8408  0.3173 -1.2256
  618SOL     OW 1852   0.689   0.476   1.946  0.2649 -0.3111 -0.3569
  618SOL    HW1 1853   0.615   0.439   2.010 -2.4759 -1.3193  0.3676
  618SOL    HW2 1854   0.641   0.539   1.887  0.3102 -0.4006  0.2297
  619SOL     OW 1855   0.117   1.186   1.390  0.5419 -0.4199  0.1654
  619SOL    HW1 1856   0.021   1.172   1.349  0.2864 -3.7094  0.5472
  619SOL    HW2 1857   0.167   1.110   1.349 -1.4335  0.2095 -0.2559
  620SOL     OW 1858   2.016   0.960   3.010  0.5254  0.0946  0.4364
  620SOL    HW1 1859   2.014   1.051   2.958  1.9770  1.3286 -0.2836
  620SOL    HW2 1860   1.935   0.901   2.977 -1.4468  0.8625  0.5946
  621SOL     OW 1861   2.324   2.945   1.236 -0.4533  0.3652  0.4205
  621SOL    HW1 1862   2.318   3.025   1.298  1.0692  0.2680  1.3269
  621SOL    HW2 1863   2.371   2.865   1.277  0.4273  0.5767 -1.4994
  622SOL     OW 1864   1.298   0.840   2.661 -0.1225 -0.5361 -0.1025
  622SOL    HW1 1865   1.382   0.846   2.717 -0.1068 -0.1462 -0.0628
  622SOL    HW2 1866   1.254   0.750   2.659 -0.3988  0.0444  1.2335
  623SOL     OW 1867   1.262   0.430   3.085 -0.4502 -0.1808  0.0527
  623SOL    HW1 1868   1.172   0.429   3.040 -0.9745  3.0812  2.0154
  623SOL    HW2 1869   1.280   0.336   0.017 -0.7807 -0.2374  1.6795
  624SOL     OW 1870   1.797   0.317   0.252 -0.5103 -0.0993  0.3657
  624SOL    HW1 1871   1.853   0.400   0.227 -0.7227  5.1544 -1.3108
  624SOL    HW2 1872   1.851   0.241   0.290 -0.3135  1.5361 -0.0934
  625SOL     OW 1873   0.832   1.463   0.917 -0.4601 -0.4530 -0.1668
  625SOL    HW1 1874   0.932   1.486   0.916 -1.8680 -0.0116 -0.6743
  625SOL    HW2 1875   0.784   1.498   1.000 -2.0744 -1.6624  1.5264
  626SOL     OW 1876   1.520   1.151   0.044  0.6269 -0.1430  0.4965
  626SOL    HW1 1877   1.457   1.214   0.092  1.1623 -0.4452 -1.6783
  626SOL    HW2 1878   1.486   1.114   3.062 -1.6472 -1.3384 -0.6709
  627SOL     OW 1879   0.875   2.818   1.929 -0.1172 -0.4594 -0.7359
  627SOL    HW1 1880   0.916   2.837   1.838 -0.1760  1.0870  0.1749
  627SOL    HW2 1881   0.913   2.880   2.004  0.2397  1.5763  1.6935
  628SOL     OW 1882   2.430   0.264   2.188 -0.0365  0.3297 -0.1486
  628SOL    HW1 1883   2.520   0.281   2.146 -1.0152 -0.7267 -1.5741
  628SOL    HW2 1884   2.422   0.300   2.284 -2.8264  0.3984 -1.5090
  629SOL     OW 1885   0.958   1.195   3.006  0.7536  0.4456 -0.1087
  629SOL    HW1 1886   1.029   1.144   2.955 -0.3885  1.4725  0.3457
  629SOL    HW2 1887   0.877   1.204   2.948  0.8489 -2.9695  1.6713
  630SOL     OW 1888   1.167   0.241   2.338  0.1128  0.6453  0.1681
  630SOL    HW1 1889   1.128   0.328   2.370 -1.4345  0.0407  0.7367
  630SOL    HW2 1890   1.158   0.167   2.407 -1.2150 -0.1959 -1.4436
  631SOL     OW 1891   2.656   0.669   0.537 -0.3275  0.6466 -0.0134
  631SOL    HW1 1892   2.670   0.590   0.605  1.5133 -1.9853  1.1687
  631SOL    HW2 1893   2.739   0.730   0.523 -0.5340  0.9603 -0.9834
  632SOL     OW 1894   2.250   1.002   1.092  0.0524  0.0334 -0.3968
  632SOL    HW1 1895   2.154   0.968   1.060  1.7131 -2.1419 -2.3335
  632SOL    HW2 1896   2.307   1.003   1.008 -0.2888 -0.6843 -1.4174
  633SOL     OW 1897   1.778   0.689   0.861  0.0610 -0.6939  0.3858
  633SOL    HW1 1898   1.774   0.774   0.803  0.6140  0.9275 -0.2566
  633SOL    HW2 1899   1.799   0.717   0.955 -0.1067  2.5340 -0.5926
  634SOL     OW 1900   1.954   2.941   0.732  0.8735 -0.3853  0.4355
  634SOL    HW1 1901   2.011   2.996   0.793 -0.5558  0.4175 -3.5933
  634SOL    HW2 1902   1.860   2.979   0.725 -1.8153 -2.3371  0.2365
  635SOL     OW 1903   1.680   0.807   1.329 -0.4679 -0.3274  0.3505
  635SOL    HW1 1904   1.600   0.767   1.284  2.6660 -0.6527  0.1181
  635SOL    HW2 1905   1.656   0.890   1.387  1.3255  1.2003  1.4759
  636SOL     OW 1906   0.570   0.677   0.655  0.2310  0.1299  0.2292
  636SOL    HW1 1907   0.525   0.627   0.731 -0.0674  0.2576  1.0040
  636SOL    HW2 1908   0.660   0.637   0.625  2.9285 -3.0580 -2.4932
  637SOL     OW 1909   1.904   2.319   0.391  0.0712 -0.3714  1.1902
  637SOL    HW1 1910   1.817   2.368   0.419  0.6442 -0.1845  0.8009
  637SOL    HW2 1911   1.960   2.297   0.473 -1.9383  1.7781 -3.2419
  638SOL     OW 1912   1.453   2.833   2.679  0.2900 -0.5418 -0.2904
  638SOL    HW1 1913   1.432   2.890   2.760  1.8446 -2.9494 -0.0023
  638SOL    HW2 1914   1.549   2.792   2.682  1.8155 -0.3485 -1.1600
  639SOL     OW 1915   0.857   2.058   1.305 -0.3563 -0.0931  0.3185
  639SOL    HW1 1916   0.775   2.086   1.255  3.8033  0.8406 -0.3330
  639SOL    HW2 1917   0.867   2.110   1.389 -0.1778  0.5115  1.5435
  640SOL     OW 1918   0.191   2.840   0.120  0.0360 -0.5238 -0.0002
  640SOL    HW1 1919   0.111   2.785   0.091 -0.7489  0.8390  0.8415
  640SOL    HW2 1920   0.165   2.927   0.163 -0.9982 -1.1842  0.3225
  641SOL     OW 1921   0.060   0.349   3.035 -0.2049 -0.2827 -0.0938
  641SOL    HW1 1922   0.024   0.311   0.012  1.0574 -0.8351 -1.1380
  641SOL    HW2 1923   0.154   0.311   3.021 -1.2294  0.6142  1.4049
  642SOL     OW 1924   3.053   1.015   1.005  0.7195 -0.0000 -0.5439
  642SOL    HW1 1925   3.034   0.943   1.076 -0.4591 -0.5913  0.0205
  642SOL    HW2 1926   3.000   0.991   0.920 -2.5199 -1.8499 -1.2980
  643SOL     OW 1927   0.694   1.727   2.046 -0.3150 -0.4765 -0.1227
  643SOL    HW1 1928   0.735   1.743   2.135 -0.7262 -0.8586 -2.6191
  643SOL    HW2 1929   0.773   1.739   1.980  2.0077 -1.1460 -0.7320
  644SOL     OW 1930   1.743   2.535   0.545  0.1853  0.5828 -0.0094
  644SOL    HW1 1931   1.668   2.490   0.592 -2.6375  0.5820 -1.8710
  644SOL    HW2 1932   1.717   2.630   0.523  1.2786 -0.2634 -1.7540
  645SOL     OW 1933   1.687   2.456   1.255 -0.3837 -0.7482 -0.0457
  645SOL    HW1 1934   1.744   2.438   1.340  2.5394  0.6282  2.4717
  645SOL    HW2 1935   1.710   2.554   1.228  1.7606  0.6091 -1.9068
  646SOL     OW 1936   1.091   2.639   0.403  0.6215  0.1403 -0.0704
  646SOL    HW1 1937   1.139   2.586   0.471 -2.6532  3.7368  0.2749
  646SOL    HW2 1938   1.021   2.696   0.444  1.0293 -0.9314 -3.2524
  647SOL     OW 1939   0.317   3.002   1.805  0.0751 -0.0217 -0.1314
  647SOL    HW1 1940   0.221   2.992   1.829  0.4808 -0.4826 -1.8116
  647SOL    HW2 1941   0.359   2.913   1.778  1.8928 -2.1074  0.5806
  648SOL     OW 1942   1.992   0.944   1.047  0.2329  0.0321 -0.1629
  648SOL    HW1 1943   1.940   0.855   1.064  0.9626 -0.1954  2.3965
  648SOL    HW2 1944   1.946   1.000   0.980  2.0451  0.2572  2.8250
  649SOL     OW 1945   1.849   2.196   2.843 -0.9591  0.4383 -0.3717
  649SOL    HW1 1946   1.925   2.264   2.863  1.0342  1.4768  3.4746
  649SOL    HW2 1947   1.767   2.240   2.800  0.8446  1.6808  0.3247
  650SOL     OW 1948   2.616   1.860   1.653 -0.4783 -0.2880  0.3383
  650SOL    HW1 1949   2.667   1.945   1.686 -1.1649  2.7799 -0.5952
  650SOL    HW2 1950   2.571   1.811   1.729  2.6932  1.7902  1.4146
  651SOL     OW 1951   1.501   1.792   2.765 -0.1777 -0.6730 -0.7629
  651SOL    HW1 1952   1.570   1.764   2.833  3.1386 -2.7467  1.0105
  651SOL    HW2 1953   1.541   1.846   2.689 -1.9550 -0.8247 -1.3615
  652SOL     OW 1954   1.029   2.847   2.658  0.1486 -0.6376 -0.3587
  652SOL    HW1 1955   1.084   2.761   2.658 -0.2382 -0.7457  0.8802
  652SOL    HW2 1956   1.085   2.928   2.692  1.2579  0.8373 -2.1229
  653SOL     OW 1957   2.028   2.238   1.076  0.0538 -0.1086  0.4362
  653SOL    HW1 1958   2.082   2.175   1.015  1.3773 -0.7293 -0.5184
  653SOL    HW2 1959   1.928   2.225   1.066  2.0316 -0.5623 -2.2044
  654SOL     OW 1960   2.434   2.706   2.130  0.4623 -0.5409 -0.3087
  654SOL    HW1 1961   2.523   2.669   2.163  0.6599  1.2044 -0.7074
  654SOL    HW2 1962   2.430   2.803   2.162  0.1233  1.1828 -1.8336
  655SOL     OW 1963   2.892   2.037   1.155  0.0513  0.3554 -0.0035
  655SOL    HW1 1964   2.960   2.062   1.086 -1.2925 -0.6826  1.8969
  655SOL    HW2 1965   2.806   2.095   1.156 -0.8879  1.3120 -1.9467
  656SOL     OW 1966   0.094   2.162   2.664  0.1326 -0.9004 -0.4285
  656SOL    HW1 1967   0.170   2.169   2.603 -2.1912 -1.5623  1.6799
  656SOL    HW2 1968   0.122   2.172   2.758 -1.1340 -1.2387  0.3684
  657SOL     OW 1969   2.849   0.850   0.474  0.0827 -0.1684  0.1108
  657SOL    HW1 1970   2.888   0.798   0.395 -1.1447  1.0423  0.6052
  657SOL    HW2 1971   2.797   0.933   0.441 -1.0173  2.0113  2.3074
  658SOL     OW 1972   1.401   1.794   1.111 -0.4054  0.2417 -0.5456
  658SOL    HW1 1973   1.319   1.788   1.173 -0.7733 -0.3941  2.6400
  658SOL    HW2 1974   1.439   1.887   1.086  1.0939 -1.6982  3.3284
  659SOL     OW 1975   1.537   0.459   1.246 -0.0606 -0.5993 -0.2513
  659SOL    HW1 1976   1.630   0.436   1.278 -1.5391 -0.6097 -2.4031
  659SOL    HW2 1977   1.506   0.424   1.156  1.5564  0.3563 -1.4989
  660SOL     OW 1978   1.805   1.318   0.569  0.4824 -0.1694 -0.6338
  660SOL    HW1 1979   1.837   1.229   0.534  0.7059  1.3655  3.9472
  660SOL    HW2 1980   1.704   1.319   0.593 -3.6688 -2.8299  1.0259
  661SOL     OW 1981   0.564   1.562   0.402  0.2776  0.0224 -0.4757
  661SOL    HW1 1982   0.565   1.466   0.362  0.7870  0.2029 -0.9605
  661SOL    HW2 1983   0.518   1.560   0.496 -2.0729 -0.4226  2.2726
  662SOL     OW 1984   2.834   1.042   2.078 -0.4242  0.2315  0.3161
  662SOL    HW1 1985   2.829   0.948   2.131  0.1691 -0.9213  2.3286
  662SOL    HW2 1986   2.773   1.116   2.116  0.5126 -0.1347 -0.6194
  663SOL     OW 1987   2.233   1.403   1.336  0.3832  0.0102  0.6470
  663SOL    HW1 1988   2.283   1.490   1.304  1.0303  3.2341 -0.8102
  663SOL    HW2 1989   2.283   1.355   1.410 -2.7715 -0.6975  0.2771
  664SOL     OW 1990   0.566   0.033   1.061  0.0588 -0.0713 -0.8276
  664SOL    HW1 1991   0.480   3.102   1.103 -1.5843  0.4495  0.5251
  664SOL    HW2 1992   0.631   0.067   1.138 -2.3900 -1.3500  5.7853
  665SOL     OW 1993   1.161   3.055   2.812  0.1648 -0.5579  0.4119
  665SOL    HW1 1994   1.256   3.042   2.840  0.2127 -0.1602  2.4000
  665SOL    HW2 1995   1.116   3.103   2.888 -0.4771 -0.4970  1.6959
  666SOL     OW 1996   0.522   0.508   2.350 -0.2361  0.2882 -0.6047
  666SOL    HW1 1997   0.476   0.597   2.340  1.2207 -0.2546 -0.1051
  666SOL    HW2 1998   0.607   0.519   2.403  0.6639  1.5261  0.7224
  667SOL     OW 1999   2.097   1.499   2.122 -0.2777  0.0794  0.2248
  667SOL    HW1 2000   2.088   1.471   2.025  3.7372  0.2278  0.6355
  667SOL    HW2 2001   2.176   1.446   2.160 -1.1981  1.9317  1.1182
  668SOL     OW 2002   0.234   1.325   2.452  0.3823  0.3147 -0.6076
  668SOL    HW1 2003   0.157   1.337   2.519 -0.7050  0.7090 -0.3435
  668SOL    HW2 2004   0.263   1.410   2.404  0.1191  0.7216 -2.5716
  669SOL     OW 2005   2.393   3.031   2.502  0.1823  0.4770  0.5356
  669SOL    HW1 2006   2.463   2.956   2.481  1.0871 -1.8812  0.6933
  669SOL    HW2 2007   2.437   0.015   2.524  0.0311 -0.5153 -0.3358
  670SOL     OW 2008   2.805   1.005   2.557  0.0465  0.1842  0.0657
  670SOL    HW1 2009   2.856   0.917   2.539 -0.1237  0.9203  0.1573
  670SOL    HW2 2010   2.725   0.989   2.619  0.2051  0.4856  0.3008
  671SOL     OW 2011   2.737   1.933   0.138 -0.2276  0.4106  0.3312
  671SOL    HW1 2012   2.762   1.839   0.109  2.4706 -1.5865  0.5301
  671SOL    HW2 2013   2.639   1.945   0.139  1.7808  0.7976 -2.5338
  672SOL     OW 2014   2.485   1.501   2.209  0.0075  0.3739 -0.5650
  672SOL    HW1 2015   2.417   1.428   2.224  0.7066  0.8325  0.7141
  672SOL    HW2 2016   2.569   1.469   2.158  2.0384  1.6402  2.3008
  673SOL     OW 2017   2.738   1.481   1.005  0.4142 -0.3462  0.1896
  673SOL    HW1 2018   2.670   1.480   0.928  0.5565 -2.7111  0.6129
  673SOL    HW2 2019   2.757   1.578   1.036 -0.6743  1.0194  2.6943
  674SOL     OW 2020   1.220   1.827   2.075  0.4649  0.2868 -0.5100
  674SOL    HW1 2021   1.287   1.905   2.066 -1.0229  0.0929 -0.4457
  674SOL    HW2 2022   1.215   1.766   1.995  0.8943  2.9353 -0.9134
  675SOL     OW 2023   2.906   0.535   1.128 -0.0018  0.1743 -0.2464
  675SOL    HW1 2024   3.007   0.556   1.119  3.8340  0.2061  0.6722
  675SOL    HW2 2025   2.886   0.462   1.198 -0.8920  1.1739 -1.0058
  676SOL     OW 2026   2.904   1.239   0.653  0.2714 -0.3234  0.5472
  676SOL    HW1 2027   2.822   1.281   0.612 -1.6687  0.8538  0.6937
  676SOL    HW2 2028   2.887   1.144   0.673 -0.7823  3.3849 -1.1499
  677SOL     OW 2029   1.596   1.630   2.220 -0.2482 -0.1188  0.2476
  677SOL    HW1 2030   1.676   1.618   2.282  0.4016 -0.8852 -0.1090
  677SOL    HW2 2031   1.580   1.539   2.177 -1.4398  2.4725 -1.3673
  678SOL     OW 2032   2.583   1.192   0.770 -0.5271 -0.2212 -0.2939
  678SOL    HW1 2033   2.609   1.166   0.673  2.4623 -0.3721 -2.9659
  678SOL    HW2 2034   2.562   1.291   0.767 -1.3976 -0.9497  1.8682
  679SOL     OW 2035   0.490   2.461   0.816 -0.1264 -0.0532 -0.3757
  679SOL    HW1 2036   0.560   2.491   0.880  1.2401  2.5420  1.3433
  679SOL    HW2 2037   0.432   2.386   0.857 -0.7801  1.2315  2.0947
  680SOL     OW 2038   2.857   1.761   1.144 -0.0364  0.6511  0.0549
  680SOL    HW1 2039   2.865   1.772   1.041 -1.0350 -0.5378  0.3903
  680SOL    HW2 2040   2.833   1.855   1.181  0.5254 -2.0678  0.4734
  681SOL     OW 2041   0.929   0.835   1.305 -0.2704 -0.5996  0.2115
  681SOL    HW1 2042   0.991   0.858   1.382  0.3287 -1.2076  0.9135
  681SOL    HW2 2043   0.839   0.799   1.327  1.3496 -0.5732  0.5364
  682SOL     OW 2044   1.689   2.994   0.763 -0.2995  0.6208 -0.2374
  682SOL    HW1 2045   1.651   3.046   0.844 -2.8507  1.2399 -2.4019
  682SOL    HW2 2046   1.621   2.997   0.690  2.2206  0.1943  1.9328
  683SOL     OW 2047   2.383   1.326   1.547  0.0145 -0.4389  0.2100
  683SOL    HW1 2048   2.380   1.409   1.603 -1.6512 -0.4955 -2.4341
  683SOL    HW2 2049   2.342   1.249   1.599 -0.6821  1.4675 -1.7283
  684SOL     OW 2050   0.034   1.705   1.712 -0.1135  0.3523  0.4956
  684SOL    HW1 2051   3.104   1.716   1.617 -0.0449  0.4144  1.3827
  684SOL    HW2 2052   0.099   1.629   1.715  1.3264  1.9565 -1.5130
  685SOL     OW 2053   2.018   1.730   0.163  0.3972  0.5408  0.4501
  685SOL    HW1 2054   2.069   1.729   0.245 -0.9555  0.6795 -3.4985
  685SOL    HW2 2055   1.920   1.746   0.184 -0.8773 -1.1393  0.2161
  686SOL     OW 2056   2.831   0.148   0.758  0.0776  0.1277 -0.2838
  686SOL    HW1 2057   2.924   0.155   0.799 -0.8367 -0.0188 -1.8000
  686SOL    HW2 2058   2.820   0.163   0.655 -3.9661 -0.5812 -0.6515
  687SOL     OW 2059   1.559   0.023   2.566 -0.2645  0.3441  0.0731
  687SOL    HW1 2060   1.538   0.061   2.659  1.8789  0.1474 -0.4965
  687SOL    HW2 2061   1.638   3.065   2.565  2.8107  0.4089  1.4852
  688SOL     OW 2062   1.401   2.054   2.355 -0.0539  0.0922 -0.3988
  688SOL    HW1 2063   1.402   2.061   2.256 -2.7764  3.1810 -0.2460
  688SOL    HW2 2064   1.306   2.041   2.394  1.7268 -0.6590 -1.7981
  689SOL     OW 2065   2.684   1.396   2.070 -0.1473 -0.1976 -0.0666
  689SOL    HW1 2066   2.758   1.430   2.123 -2.0785 -2.1349 -1.0811
  689SOL    HW2 2067   2.715   1.400   1.970  1.4096 -0.1261 -3.4213
  690SOL     OW 2068   1.784   2.015   1.158  0.4664 -0.3393  0.1536
  690SOL    HW1 2069   1.743   1.982   1.241  1.9828  0.7319  0.2345
  690SOL    HW2 2070   1.874   1.975   1.148 -2.1477  0.7545  0.7692
  691SOL     OW 2071   0.390   1.332   0.800  0.2536  0.5122  0.5117
  691SOL    HW1 2072   0.467   1.275   0.833  0.2086  0.5663  2.2155
  691SOL    HW2 2073   0.302   1.293   0.833  2.1362  1.0429 -1.4626
  692SOL     OW 2074   2.418   2.937   2.214  0.0290  0.4557 -0.3517
  692SOL    HW1 2075   2.483   2.995   2.161  0.2647  1.6461  2.9644
  692SOL    HW2 2076   2.387   2.994   2.298 -1.8571  4.2875  1.1665
  693SOL     OW 2077   0.087   1.561   2.260  0.1548  0.2118 -0.2581
  693SOL    HW1 2078   0.049   1.470   2.277  0.4729  0.6767  1.1503
  693SOL    HW2 2079   0.159   1.583   2.328 -1.3159  1.2661 -3.7314
  694SOL     OW 2080   2.317   0.020   1.438 -0.0585  0.3505  0.0860
  694SOL    HW1 2081   2.267   3.102   1.526 -1.6197 -0.3399  0.7490
  694SOL    HW2 2082   2.415   3.106   1.452 -1.2109 -1.0770  0.1177
  695SOL     OW 2083   1.159   1.066   2.875  0.4970  0.2093 -0.4042
  695SOL    HW1 2084   1.117   0.975   2.882  3.3481 -0.1551  0.2286
  695SOL    HW2 2085   1.155   1.099   2.779  1.8858  0.0836  0.2423
  696SOL     OW 2086   1.718   0.202   2.026  0.1682  0.0868 -0.2028
  696SOL    HW1 2087   1.728   0.302   2.048  3.4588  0.4679  0.8868
  696SOL    HW2 2088   1.700   0.194   1.929 -2.0843  0.6372 -0.1719
  697SOL     OW 2089   1.518   0.088   2.179  0.1386 -1.0097  0.1981
  697SOL    HW1 2090   1.500   0.150   2.258  2.6188  1.0702 -1.0646
  697SOL    HW2 2091   1.586   0.138   2.118  0.5534 -1.5019 -0.9705
  698SOL     OW 2092   1.867   1.543   2.284  0.3658  0.5999  0.1327
  698SOL    HW1 2093   1.872   1.491   2.372 -0.0114 -0.6825  0.3458
  698SOL    HW2 2094   1.948   1.534   2.227 -1.5552  1.7727  0.2030
  699SOL     OW 2095   1.981   0.543   0.292 -0.3950 -0.0374  0.0744
  699SOL    HW1 2096   2.004   0.607   0.215 -1.4426  3.4685 -0.6354
  699SOL    HW2 2097   1.945   0.590   0.376 -1.3764 -1.1058  0.2233
  700SOL     OW 2098   1.251   0.167   0.066 -0.1276 -0.1862 -0.0045
  700SOL    HW1 2099   1.241   0.135   0.160 -0.1236 -0.2702 -0.5126
  700SOL    HW2 2100   1.176   0.124   0.008  1.5929  0.3530  0.7267
  701SOL     OW 2101   0.079   0.540   1.103  0.8976 -0.8334  0.2386
  701SOL    HW1 2102   0.087   0.438   1.095  0.9624 -0.6142 -2.0946
  701SOL    HW2 2103   0.119   0.589   1.025  1.6069  0.0103 -0.0882
  702SOL     OW 2104   1.802   0.234   1.568  0.1040  0.2979 -0.1575
  702SOL    HW1 2105   1.755   0.232   1.658  1.9553  0.0407 -0.2993
  702SOL    HW2 2106   1.783   0.141   1.519 -0.8141 -0.6426  0.3476
  703SOL     OW 2107   2.932   0.860   1.175 -0.4546  0.3053  0.0329
  703SOL    HW1 2108   2.910   0.764   1.195 -1.0467  1.2445  0.9053
  703SOL    HW2 2109   2.862   0.919   1.213  0.3396  0.3639 -0.1510
  704SOL     OW 2110   0.821   2.443   1.296  0.4151 -0.0007  0.4516
  704SOL    HW1 2111   0.843   2.543   1.308 -2.3373  0.9154 -1.9623
  704SOL    HW2 2112   0.718   2.441   1.307 -0.3994  2.0072 -1.3443
  705SOL     OW 2113   0.367   1.547   2.350 -0.3096  0.8075  0.1496
  705SOL    HW1 2114   0.432   1.537   2.273  0.5345  1.2666  0.7717
  705SOL    HW2 2115   0.380   1.637   2.401 -1.1293 -0.6597  0.3866
  706SOL     OW 2116   2.692   0.246   0.065  0.3013 -0.5009 -0.2427
  706SOL    HW1 2117   2.597   0.255   0.023 -1.5365 -3.6153  0.4648
  706SOL    HW2 2118   2.731   0.157   0.038 -1.5712 -0.0994  1.1717
  707SOL     OW 2119   1.729   2.657   2.400 -0.1290 -0.0280 -0.1207
  707SOL    HW1 2120   1.765   2.741   2.356  1.5176 -1.6844  0.3204
  707SOL    HW2 2121   1.626   2.658   2.390 -0.1970 -0.7772 -0.3715
  708SOL     OW 2122   0.401   2.357   1.721 -0.1593  0.2933  0.0558
  708SOL    HW1 2123   0.419   2.326   1.813 -0.0907  2.0615 -0.6327
  708SOL    HW2 2124   0.302   2.354   1.694 -0.7703  0.1462  0.3541
  709SOL     OW 2125   0.172   0.890   1.739 -0.3187 -0.2789 -0.0226
  709SOL    HW1 2126   0.093   0.935   1.695 -0.0578  1.2212 -2.4915
  709SOL    HW2 2127   0.149   0.796   1.769  0.8156  0.0063  0.0801
  710SOL     OW 2128   3.107   0.608   1.392 -0.4843 -0.1263  0.9786
  710SOL    HW1 2129   0.036   0.611   1.297  0.8930 -1.8543  1.2987
  710SOL    HW2 2130   3.093   0.707   1.422 -0.5026  1.9061 -0.4225
  711SOL     OW 2131   2.949   2.569   1.135  0.1773 -0.1209 -0.8746
  711SOL    HW1 2132   2.954   2.500   1.215  0.8109  0.4832  2.0755
  711SOL    HW2 2133   3.019   2.547   1.063 -3.8001 -2.7348  0.3835
  712SOL     OW 2134   0.216   0.124   2.374  0.0428 -0.2813  0.3404
  712SOL    HW1 2135   0.224   0.038   2.426  0.0203 -1.4149 -0.8343
  712SOL    HW2 2136   0.250   0.200   2.432  1.5103  1.7385 -1.5373
  713SOL     OW 2137   2.355   0.196   0.435 -0.3836 -0.0413 -0.3678
  713SOL    HW1 2138   2.277   0.262   0.408 -3.3615  0.7985 -0.6881
  713SOL    HW2 2139   2.430   0.205   0.371 -1.7228  2.0492  0.4298
  714SOL     OW 2140   1.741   1.742   0.205 -0.1037 -0.2392  0.4342
  714SOL    HW1 2141   1.663   1.774   0.260  1.9509 -2.1071 -2.0157
  714SOL    HW2 2142   1.759   1.644   0.221 -0.3346  0.1066  0.1529
  715SOL     OW 2143   0.069   0.116   0.611  0.0559  0.1123  0.0753
  715SOL    HW1 2144   3.101   0.051   0.591 -0.0954  0.2256 -0.3904
  715SOL    HW2 2145   0.055   0.150   0.703 -1.6616 -1.8935 -1.0696
  716SOL     OW 2146   1.177   0.623   2.129 -0.2754  0.2156  0.2374
  716SOL    HW1 2147   1.240   0.559   2.076  2.4424 -0.7963 -2.4780
  716SOL    HW2 2148   1.083   0.635   2.085 -1.8054 -1.4731 -1.3590
  717SOL     OW 2149   0.561   0.616   2.785  0.2968  0.4961  0.0251
  717SOL    HW1 2150   0.464   0.586   2.788  3.5831 -0.9373  1.9529
  717SOL    HW2 2151   0.582   0.701   2.834  0.3182 -0.2211  0.4667
  718SOL     OW 2152   1.063   0.815   0.037 -0.1151  0.1754 -0.0463
  718SOL    HW1 2153   1.031   0.876   0.109  0.0717  1.2896 -0.8876
  718SOL    HW2 2154   1.146   0.860   0.008 -3.2744  0.3110  1.5885
  719SOL     OW 2155   2.600   2.377   2.628  0.2393 -0.1923  0.1301
  719SOL    HW1 2156   2.613   2.338   2.719  0.5721  3.3885 -1.8704
  719SOL    HW2 2157   2.507   2.351   2.592 -0.4135 -1.2319  1.7841
  720SOL     OW 2158   1.434   0.698   1.288 -0.3051 -0.2935 -0.2752
  720SOL    HW1 2159   1.382   0.686   1.375 -0.6110  1.8714 -0.0981
  720SOL    HW2 2160   1.470   0.606   1.257 -1.8455 -2.9492  0.1905
  721SOL     OW 2161   3.024   2.810   1.182 -0.8407 -0.6306 -0.4126
  721SOL    HW1 2162   3.049   2.860   1.092 -1.0744  3.0606 -0.4742
  721SOL    HW2 2163   2.999   2.712   1.171 -1.5686 -0.9493  3.4672
  722SOL     OW 2164   0.833   1.612   2.933  0.0834  0.5006  0.3186
  722SOL    HW1 2165   0.768   1.596   3.013 -2.7599 -0.0372  0.6053
  722SOL    HW2 2166   0.928   1.622   2.970 -1.7215 -0.2470 -0.1818
  723SOL     OW 2167   2.247   0.154   0.908 -0.4792  0.3311 -0.1679
  723SOL    HW1 2168   2.282   0.197   0.991 -1.8357  3.2505 -2.7173
  723SOL    HW2 2169   2.305   0.171   0.826 -2.1341  0.9214  0.4614
  724SOL     OW 2170   0.868   2.198   0.131  0.0557 -0.2257 -0.2813
  724SOL    HW1 2171   0.883   2.116   0.195  0.5276  2.6322 -0.2248
  724SOL    HW2 2172   0.789   2.256   0.173 -0.6914  2.0233  1.0954
  725SOL     OW 2173   0.261   0.922   1.049 -0.0406 -0.1283 -0.1750
  725SOL    HW1 2174   0.228   1.016   1.019 -2.9342  0.9341  1.0077
  725SOL    HW2 2175   0.254   0.920   1.151  0.4803 -1.6079 -2.4469
  726SOL     OW 2176   2.537   0.584   0.293 -0.0869 -0.8225  0.1075
  726SOL    HW1 2177   2.576   0.622   0.379 -2.7890  1.8250  1.0408
  726SOL    HW2 2178   2.584   0.627   0.208  1.0516  2.6334 -2.4795
  727SOL     OW 2179   1.850   1.203   2.425  0.7448  0.5228  1.0425
  727SOL    HW1 2180   1.832   1.294   2.468 -0.1018  0.2477  0.7118
  727SOL    HW2 2181   1.885   1.136   2.492 -0.9889  1.2186  2.7233
  728SOL     OW 2182   1.772   0.007   1.445 -0.1964  0.4032  0.3207
  728SOL    HW1 2183   1.853   3.051   1.439 -0.7737 -2.2328 -0.6613
  728SOL    HW2 2184   1.685   3.063   1.460 -2.5463 -0.4084 -0.8323
  729SOL     OW 2185   2.329   0.844   2.305 -0.3316  0.1473 -0.7755
  729SOL    HW1 2186   2.379   0.822   2.392 -1.2463  0.0018 -2.7338
  729SOL    HW2 2187   2.232   0.871   2.330 -0.7223  0.6009  0.9204
  730SOL     OW 2188   1.143   0.902   1.469 -0.3927 -0.2392 -0.4156
  730SOL    HW1 2189   1.194   0.815   1.467 -0.9057  2.2605 -1.3286
  730SOL    HW2 2190   1.193   0.972   1.418 -0.5631 -0.8447 -3.0960
  731SOL     OW 2191   0.453   0.325   0.176 -0.4321  0.0998  0.2381
  731SOL    HW1 2192   0.521   0.401   0.171  0.9403  1.0802 -2.6860
  731SOL    HW2 2193   0.376   0.340   0.111  0.6090  0.6775  0.2434
  732SOL     OW 2194   0.270   0.450   0.488 -0.3204 -0.1485  0.1384
  732SOL    HW1 2195   0.345   0.507   0.443  1.9719  0.3349  0.0176
  732SOL    HW2 2196   0.314   0.382   0.548  0.9903 -0.0124 -0.3559
  733SOL     OW 2197   1.805   1.418   2.565  0.2558  0.3359  0.0534
  733SOL    HW1 2198   1.718   1.361   2.587  1.6890 -0.0314  2.2146
  733SOL    HW2 2199   1.815   1.486   2.637 -0.3626  0.3843 -3.3133
  734SOL     OW 2200   0.089   1.784   2.484  0.1009 -0.4277  1.2043
  734SOL    HW1 2201   0.183   1.785   2.451  1.2585  2.4606 -0.0604
  734SOL    HW2 2202   0.088   1.816   2.580 -0.3595 -0.2246 -1.7072
  735SOL     OW 2203   1.976   0.522   1.248  0.3730  0.2989  0.2669
  735SOL    HW1 2204   2.050   0.488   1.186 -1.1027  0.6669  0.7355
  735SOL    HW2 2205   2.009   0.588   1.318 -0.0767 -0.9246  0.5166
  736SOL     OW 2206   1.659   1.817   3.020 -0.2655 -0.0377  0.5562
  736SOL    HW1 2207   1.666   1.758   3.101 -2.2960  1.8912  2.8286
  736SOL    HW2 2208   1.705   1.911   3.031 -0.1388  0.3665 -1.9683
  737SOL     OW 2209   0.015   0.307   0.438 -0.2865 -0.0514  0.1648
  737SOL    HW1 2210   0.086   0.367   0.407 -1.8832  0.7760  2.3247
  737SOL    HW2 2211   0.062   0.251   0.509  0.3385  0.7384 -0.0923
  738SOL     OW 2212   0.642   1.993   1.681 -0.1381  0.0181  0.0267
  738SOL    HW1 2213   0.595   2.056   1.616  2.2227 -0.2707  0.6870
  738SOL    HW2 2214   0.713   1.944   1.635 -2.5043 -0.2188 -1.4360
  739SOL     OW 2215   1.201   2.635   2.297 -0.3387  0.5070 -0.7739
  739SOL    HW1 2216   1.155   2.552   2.263 -4.2863  0.8239  3.1521
  739SOL    HW2 2217   1.184   2.651   2.396 -0.7729  0.6695 -0.3483
  740SOL     OW 2218   1.852   2.363   1.490  0.3284  0.0494 -0.1863
  740SOL    HW1 2219   1.842   2.260   1.471 -3.2963 -2.4701  0.8408
  740SOL    HW2 2220   1.872   2.384   1.588  1.2518  1.9366  2.7008
  741SOL     OW 2221   2.298   0.448   0.232 -0.4338  0.3122 -0.7279
  741SOL    HW1 2222   2.389   0.498   0.247 -0.0324  1.9030 -0.2111
  741SOL    HW2 2223   2.259   0.422   0.323  1.4796 -1.9842  0.5147
  742SOL     OW 2224   0.943   2.606   0.158  0.0799  0.1546  0.7451
  742SOL    HW1 2225   1.010   2.591   0.083 -3.0238  1.0446  0.3065
  742SOL    HW2 2226   0.992   2.643   0.240  2.2573  1.6536 -3.5786
  743SOL     OW 2227   2.448   1.002   2.103 -0.2284  0.3965 -0.2127
  743SOL    HW1 2228   2.425   0.931   2.180 -1.0892 -2.2608  3.6837
  743SOL    HW2 2229   2.516   1.073   2.142  1.1168  1.8249  0.6628
  744SOL     OW 2230   2.680   0.428   0.691  0.0799 -0.8735  0.6110
  744SOL    HW1 2231   2.612   0.361   0.659 -0.6071  0.5962 -0.9286
  744SOL    HW2 2232   2.764   0.377   0.724 -0.0760  1.1479 -2.0724
  745SOL     OW 2233   2.545   1.249   1.806 -0.1484  0.3238  0.0937
  745SOL    HW1 2234   2.584   1.163   1.768 -0.1162  0.8926 -0.0555
  745SOL    HW2 2235   2.612   1.326   1.824 -1.3416  0.6726  1.4532
  746SOL     OW 2236   1.451   1.309   0.904 -0.0100  0.1711  0.0470
  746SOL    HW1 2237   1.461   1.408   0.912  0.1185 -1.0766 -0.0493
  746SOL    HW2 2238   1.351   1.286   0.899  1.2961  2.1793  1.0942
  747SOL     OW 2239   1.295   1.790   1.635  0.1750  0.6202  0.2765
  747SOL    HW1 2240   1.280   1.891   1.637  0.9493 -2.3352 -1.3647
  747SOL    HW2 2241   1.325   1.753   1.724 -0.2839  0.6894 -0.7553
  748SOL     OW 2242   0.320   3.044   3.042 -0.6382 -0.3927  0.3044
  748SOL    HW1 2243   0.411   3.000   3.046 -1.8506 -0.4350  0.6539
  748SOL    HW2 2244   0.268   2.994   0.003  1.2623 -1.5535  1.2246
  749SOL     OW 2245   0.421   1.166   2.576 -0.0270 -0.1044  0.0373
  749SOL    HW1 2246   0.480   1.130   2.500 -0.8865  0.4456  1.4011
  749SOL    HW2 2247   0.365   1.239   2.539  0.3329 -2.2033 -0.2408
  750SOL     OW 2248   1.926   0.859   2.098 -0.5588 -0.2374  0.1064
  750SOL    HW1 2249   1.997   0.819   2.038  0.3021 -1.5441  0.3439
  750SOL    HW2 2250   1.840   0.796   2.103 -1.3680 -0.9542 -0.5511
  751SOL     OW 2251   2.571   0.317   0.315  0.0396  0.3031  0.7691
  751SOL    HW1 2252   2.631   0.298   0.231 -2.5594  1.6176 -0.1997
  751SOL    HW2 2253   2.554   0.420   0.323 -0.4321  0.4997  1.0286
  752SOL     OW 2254   0.120   2.255   1.062  0.6229  0.4578  0.5122
  752SOL    HW1 2255   0.081   2.168   1.022  1.8351 -0.9763  3.6311
  752SOL    HW2 2256   0.106   2.262   1.162  1.5971 -2.7774 -0.6930
  753SOL     OW 2257   1.157   2.728   1.144  0.1612 -0.3604 -0.1543
  753SOL    HW1 2258   1.169   2.636   1.190 -0.8396 -1.6335  0.1054
  753SOL    HW2 2259   1.079   2.724   1.076 -0.4842  0.5330 -1.8857
  754SOL     OW 2260   0.044   3.011   1.814 -0.2631  0.3860 -0.2518
  754SOL    HW1 2261   0.055   0.000   1.836 -1.0432 -0.4394 -0.2599
  754SOL    HW2 2262   0.012   3.001   1.715  0.7636  0.7040  0.7052
  755SOL     OW 2263   2.160   0.401   0.452  0.3974  0.1293  0.0533
  755SOL    HW1 2264   2.109   0.469   0.391  0.6893  0.0086 -1.1841
  755SOL    HW2 2265   2.190   0.434   0.549 -1.2401  0.2369  1.3751
  756SOL     OW 2266   2.116   2.428   2.653 -0.1028  0.0244 -0.1007
  756SOL    HW1 2267   2.088   2.496   2.727 -0.5535  1.4664  3.4309
  756SOL    HW2 2268   2.037   2.424   2.587 -1.1885  2.8047 -1.4504
  757SOL     OW 2269   1.727   0.144   0.538 -0.3284 -0.0767  0.1677
  757SOL    HW1 2270   1.706   0.112   0.628  0.5898  0.1053 -0.8453
  757SOL    HW2 2271   1.759   0.242   0.544  0.4824  0.2105  0.1516
  758SOL     OW 2272   2.337   0.614   1.278  0.2124  0.2385  0.2401
  758SOL    HW1 2273   2.387   0.557   1.351  1.0205 -0.5101  0.3514
  758SOL    HW2 2274   2.333   0.563   1.191 -0.3464  0.0835  0.1221
  759SOL     OW 2275   2.435   0.330   1.030  0.1127 -0.1081  0.1255
  759SOL    HW1 2276   2.500   0.335   1.104  0.0873  0.0919 -0.3056
  759SOL    HW2 2277   2.465   0.390   0.956  1.1550 -0.0915 -2.3458
  760SOL     OW 2278   2.224   1.268   1.095  0.4864 -0.4125 -0.3190
  760SOL    HW1 2279   2.244   1.312   1.184  2.0369  2.1323 -1.5822
  760SOL    HW2 2280   2.236   1.170   1.096 -0.9476  2.6292 -0.9225
  761SOL     OW 2281   0.646   0.504   0.173  0.1314 -0.2194  0.0077
  761SOL    HW1 2282   0.746   0.523   0.166  0.2109 -0.0692  1.3204
  761SOL    HW2 2283   0.606   0.555   0.252  0.0215  1.2459  0.8128
  762SOL     OW 2284   1.096   2.060   0.943  0.1478  0.2187  0.0805
  762SOL    HW1 2285   1.082   2.050   1.044 -1.6434  0.0455  1.8294
  762SOL    HW2 2286   1.022   2.116   0.899 -0.1376  0.2094  0.7938
  763SOL     OW 2287   1.492   0.847   1.666  0.0817  0.2243 -0.2532
  763SOL    HW1 2288   1.528   0.899   1.586  1.9754 -0.0680 -0.7493
  763SOL    HW2 2289   1.463   0.910   1.743 -1.8612 -2.2225  0.6998
  764SOL     OW 2290   0.157   1.528   2.813 -0.5257 -0.2582 -0.4684
  764SOL    HW1 2291   0.127   1.478   2.733 -2.1065  0.1378  2.7599
  764SOL    HW2 2292   0.137   1.627   2.796  2.6158  1.1688  2.3612
  765SOL     OW 2293   0.692   2.715   1.639 -0.1935  0.0374  0.7384
  765SOL    HW1 2294   0.736   2.703   1.547  1.6497 -1.1602  1.9380
  765SOL    HW2 2295   0.721   2.806   1.677 -0.1427  1.5219  0.1962
  766SOL     OW 2296   2.831   2.235   2.521  0.0070 -0.3683  0.6666
  766SOL    HW1 2297   2.751   2.286   2.560 -0.1287  0.3986  0.8413
  766SOL    HW2 2298   2.841   2.256   2.420  1.1711  0.0974 -3.1275
  767SOL     OW 2299   1.405   1.079   2.303  0.1406 -0.3503 -0.5279
  767SOL    HW1 2300   1.334   1.003   2.316 -2.8056  1.8747  1.9351
  767SOL    HW2 2301   1.350   1.163   2.300  1.7901 -2.9173 -0.0381
  768SOL     OW 2302   1.308   1.922   0.285 -0.3277 -0.2061  0.7774
  768SOL    HW1 2303   1.380   1.861   0.322 -0.4963  1.9328 -0.8500
  768SOL    HW2 2304   1.342   1.970   0.201  0.9160  0.4026  1.3969
  769SOL     OW 2305   0.300   1.856   1.435 -0.1177 -0.2268  0.1838
  769SOL    HW1 2306   0.301   1.904   1.346  0.2521  0.1673 -3.2283
  769SOL    HW2 2307   0.286   1.757   1.420 -1.5707  0.7832  1.9967
  770SOL     OW 2308   1.563   0.923   2.778 -0.1179  0.0535  0.1473
  770SOL    HW1 2309   1.503   0.989   2.833 -0.5286  0.2443  2.0173
  770SOL    HW2 2310   1.579   0.955   2.684  1.1623  0.2254  1.5551
  771SOL     OW 2311   0.061   2.931   2.078 -0.2202 -0.0718 -0.5627
  771SOL    HW1 2312   0.142   2.868   2.095 -1.0838  1.4383  0.0375
  771SOL    HW2 2313   0.036   2.944   1.976 -0.1509  1.2150  0.3010
  772SOL     OW 2314   2.219   1.990   1.821 -0.0500 -0.2158  0.4521
  772SOL    HW1 2315   2.290   1.970   1.887 -2.5074 -2.2575  2.6522
  772SOL    HW2 2316   2.127   1.991   1.860  0.1139  0.1637 -0.7004
  773SOL     OW 2317   0.557   1.765   1.440 -0.6484  0.0370  0.3150
  773SOL    HW1 2318   0.586   1.741   1.532  0.9686  1.1270 -2.5854
  773SOL    HW2 2319   0.462   1.807   1.452  0.2184  0.7772  0.9120
  774SOL     OW 2320   1.253   0.588   2.707  0.2318 -0.2574 -0.2704
  774SOL    HW1 2321   1.261   0.494   2.672  0.9519  2.1483  0.4099
  774SOL    HW2 2322   1.314   0.594   2.791 -2.2046 -2.0420  0.9134
  775SOL     OW 2323   1.847   2.758   2.895  0.2416 -0.0420  0.5407
  775SOL    HW1 2324   1.863   2.857   2.901  2.2453 -0.8118  0.2641
  775SOL    HW2 2325   1.780   2.736   2.822  0.1847 -0.6719 -1.5821
  776SOL     OW 2326   0.098   0.640   1.795 -0.2859 -0.2512 -0.5340
  776SOL    HW1 2327   3.103   0.639   1.798  0.9784  1.5492 -1.3630
  776SOL    HW2 2328   0.140   0.573   1.859  0.5347  0.7013  0.7738
  777SOL     OW 2329   2.355   1.934   2.071 -0.3678 -0.1069 -0.4620
  777SOL    HW1 2330   2.358   1.831   2.050 -0.0058  2.6463 -1.0524
  777SOL    HW2 2331   2.303   1.946   2.153  3.0845  1.5622  0.4181
  778SOL     OW 2332   2.005   1.118   2.170 -0.1663 -0.3651  0.0509
  778SOL    HW1 2333   1.967   1.181   2.239  2.7430  0.3271  0.6686
  778SOL    HW2 2334   1.946   1.039   2.146  1.5832  0.4011 -0.5956
  779SOL     OW 2335   2.506   1.189   0.249  0.2061  0.0532 -0.0383
  779SOL    HW1 2336   2.573   1.262   0.224  0.5694 -2.3364 -1.3830
  779SOL    HW2 2337   2.440   1.194   0.171  1.7219  1.1451  0.2503
  780SOL     OW 2338   2.601   0.378   2.778 -0.0913  0.0117  0.3143
  780SOL    HW1 2339   2.648   0.312   2.841 -0.4050  0.5110 -1.5994
  780SOL    HW2 2340   2.505   0.346   2.757  0.7489  0.0166  1.0804
  781SOL     OW 2341   0.153   1.971   1.669 -0.2422  0.4118 -0.4467
  781SOL    HW1 2342   0.192   1.942   1.587 -0.6467  1.2543  4.2581
  781SOL    HW2 2343   0.097   1.893   1.701  2.5537 -1.9023  0.1319
  782SOL     OW 2344   2.341   2.429   2.868  0.4782 -0.1926  0.6298
  782SOL    HW1 2345   2.296   2.450   2.775  0.0184 -0.3884 -0.5656
  782SOL    HW2 2346   2.314   2.333   2.888 -1.0494 -0.0307 -2.1237
  783SOL     OW 2347   0.546   1.413   1.418 -0.3649 -0.8007  0.6843
  783SOL    HW1 2348   0.648   1.397   1.412 -1.9940  1.2040  0.6316
  783SOL    HW2 2349   0.514   1.480   1.351  0.5258  0.2497  0.9662
  784SOL     OW 2350   1.822   0.818   2.880 -0.1943  0.2203  0.1426
  784SOL    HW1 2351   1.895   0.795   2.809  0.2066 -0.4907 -0.0318
  784SOL    HW2 2352   1.737   0.857   2.842  0.1770  0.1467  0.8076
  785SOL     OW 2353   2.464   2.657   0.802  0.4378  0.2282  0.6878
  785SOL    HW1 2354   2.490   2.596   0.726  0.9816 -0.1711  3.3284
  785SOL    HW2 2355   2.364   2.680   0.795 -0.0758  0.4145 -0.5510
  786SOL     OW 2356   0.818   2.102   2.300 -0.0733 -0.3496 -0.7140
  786SOL    HW1 2357   0.890   2.028   2.291  0.0713 -0.8349  0.0021
  786SOL    HW2 2358   0.846   2.184   2.358 -1.1468 -2.0748  1.3001
  787SOL     OW 2359   1.381   0.881   1.081 -0.0351 -0.5217  0.3424
  787SOL    HW1 2360   1.398   0.798   1.138 -3.1518 -0.0455  0.4488
  787SOL    HW2 2361   1.434   0.881   0.989  0.2142 -1.0775 -3.9485
  788SOL     OW 2362   0.108   0.659   0.554  0.1914 -0.4816  0.4535
  788SOL    HW1 2363   0.167   0.740   0.571 -0.8061  2.7526 -0.0082
  788SOL    HW2 2364   0.163   0.577   0.554 -2.7977 -0.2775 -2.7691
  789SOL     OW 2365   3.107   1.940   1.319 -0.0667 -0.0937 -0.4050
  789SOL    HW1 2366   3.024   1.985   1.276 -3.1406 -0.2593 -0.0156
  789SOL    HW2 2367   0.042   2.009   1.383 -1.7886  0.3718  1.1068
  790SOL     OW 2368   1.248   0.923   1.989  0.2042  0.3829  0.2749
  790SOL    HW1 2369   1.222   0.852   2.053 -1.4196 -0.0199 -0.5311
  790SOL    HW2 2370   1.166   0.973   1.962  2.0226 -1.9309  1.5563
  791SOL     OW 2371   1.502   0.653   0.427 -0.0880  0.4953 -0.2586
  791SOL    HW1 2372   1.469   0.657   0.330  1.6414 -0.3677  0.0571
  791SOL    HW2 2373   1.460   0.574   0.473  1.0963 -0.5795 -0.8378
  792SOL     OW 2374   1.526   2.840   1.769  0.2471  0.3787  0.2167
  792SOL    HW1 2375   1.443   2.801   1.819  0.4242 -0.2871  2.7377
  792SOL    HW2 2376   1.548   2.770   1.696  0.0253 -0.4093 -3.3744
  793SOL     OW 2377   1.059   0.309   0.734  0.6098 -0.3175  0.2672
  793SOL    HW1 2378   1.099   0.405   0.745  1.6578  2.1762  0.8940
  793SOL    HW2 2379   0.962   0.312   0.767 -1.3236 -0.0638 -2.3257
  794SOL     OW 2380   0.776   1.129   2.024 -0.6507  0.1162 -0.8805
  794SOL    HW1 2381   0.676   1.126   2.035  1.2774 -0.4805 -1.1673
  794SOL    HW2 2382   0.810   1.228   2.025 -0.0567  1.8064 -2.4270
  795SOL     OW 2383   0.466   2.050   2.397  0.0436 -0.7239 -0.2577
  795SOL    HW1 2384   0.500   2.062   2.302 -0.9512  0.7914 -2.5307
  795SOL    HW2 2385   0.399   2.116   2.423  2.8191 -1.3893  0.3223
  796SOL     OW 2386   2.621   1.172   2.197 -0.1761  0.3081  0.9183
  796SOL    HW1 2387   2.617   1.186   2.300 -0.3551 -1.0276  0.6039
  796SOL    HW2 2388   2.627   1.261   2.149  1.4647 -0.9347 -0.8318
  797SOL     OW 2389   3.034   2.557   2.900  0.0780 -0.0458  0.0803
  797SOL    HW1 2390   0.016   2.612   2.910  1.0057 -0.9952  2.2212
  797SOL    HW2 2391   3.038   2.499   2.818  1.3160  1.8628  0.1509
  798SOL     OW 2392   0.170   2.340   2.278  0.4109  0.1749  0.2157
  798SOL    HW1 2393   0.242   2.288   2.229  1.0747  2.8326 -0.4433
  798SOL    HW2 2394   0.096   2.273   2.299  1.2342  0.1913 -1.4515
  799SOL     OW 2395   0.349   2.325   2.892  0.1374  0.8053  0.1824
  799SOL    HW1 2396   0.332   2.416   2.924 -0.7242 -3.6381 -1.1598
  799SOL    HW2 2397   0.269   2.265   2.922 -1.7864  1.4850  0.4709
  800SOL     OW 2398   1.105   1.591   0.148  0.1327  0.6674  0.3320
  800SOL    HW1 2399   1.016   1.555   0.186 -2.2778  0.8454 -1.0683
  800SOL    HW2 2400   1.189   1.577   0.202 -0.1592 -2.3042 -1.0659
  801SOL     OW 2401   1.965   1.366   1.358  0.4365  0.5749  0.4370
  801SOL    HW1 2402   1.931   1.272   1.329 -1.0323  0.7895  0.8595
  801SOL    HW2 2403   2.064   1.383   1.345  3.0256 -1.5800 -0.9280
  802SOL     OW 2404   2.950   1.283   0.220 -0.7070 -0.2963 -0.1379
  802SOL    HW1 2405   3.005   1.279   0.310  2.1080 -3.2498  1.5585
  802SOL    HW2 2406   2.908   1.192   0.209  0.9517  0.7144  0.1722
  803SOL     OW 2407   1.246   1.931   2.735  0.0765 -0.1368  0.3495
  803SOL    HW1 2408   1.325   1.883   2.787 -2.1057 -0.0606 -3.5328
  803SOL    HW2 2409   1.189   1.866   2.681 -1.2740  2.1915 -0.0012
  804SOL     OW 2410   1.774   1.489   0.295  0.0755  0.1030 -0.0076
  804SOL    HW1 2411   1.735   1.478   0.389  2.0117 -0.9192  1.4953
  804SOL    HW2 2412   1.848   1.422   0.284 -1.2947  0.2430  1.0406
  805SOL     OW 2413   2.553   1.645   2.614 -0.0858  0.1687 -0.4537
  805SOL    HW1 2414   2.519   1.665   2.523 -0.0144  0.0546  2.5843
  805SOL    HW2 2415   2.607   1.723   2.654  2.1244  1.2251  0.4045
  806SOL     OW 2416   0.528   2.981   0.481  0.5831  0.7005 -0.2364
  806SOL    HW1 2417   0.560   3.013   0.392  0.5437 -0.2433  5.8689
  806SOL    HW2 2418   0.586   3.001   0.562 -1.1578 -0.6301 -1.6489
  807SOL     OW 2419   1.947   1.395   2.949 -0.1637 -0.1466  0.3969
  807SOL    HW1 2420   1.917   1.480   2.899  4.9645 -1.1812 -1.1534
  807SOL    HW2 2421   1.879   1.373   3.022 -0.4129  0.5318 -0.1584
  808SOL     OW 2422   3.078   1.560   0.500 -0.2115 -0.4636  0.0905
  808SOL    HW1 2423   3.088   1.459   0.488  0.4699  0.2027  0.1301
  808SOL    HW2 2424   2.979   1.591   0.489 -1.2696 -1.6813  0.8049
  809SOL     OW 2425   2.384   1.193   3.102  0.3037  0.4258 -0.1120
  809SOL    HW1 2426   2.338   1.101   3.090  0.6975  0.3056  0.4785
  809SOL    HW2 2427   2.315   1.270   0.001  0.0102  1.9825 -0.9934
  810SOL     OW 2428   0.486   1.316   0.310  0.3624  0.5883  0.3024
  810SOL    HW1 2429   0.518   1.310   0.211  2.2402  3.1010 -3.6825
  810SOL    HW2 2430   0.389   1.300   0.316 -0.5918  0.7915  0.4091
  811SOL     OW 2431   1.396   2.601   1.481  0.1228  0.4055  0.8226
  811SOL    HW1 2432   1.441   2.651   1.403 -2.2304 -2.7296  0.0474
  811SOL    HW2 2433   1.458   2.529   1.522  3.4125  1.6477  0.4095
  812SOL     OW 2434   0.774   2.569   1.853 -0.8094 -0.5104  0.4285
  812SOL    HW1 2435   0.734   2.604   1.764 -0.5796 -0.7014 -1.3445
  812SOL    HW2 2436   0.824   2.644   1.895  0.2775 -0.8188 -0.4327
  813SOL     OW 2437   1.283   0.179   2.106  0.3601 -0.5554  0.2134
  813SOL    HW1 2438   1.366   0.121   2.123  2.1240  2.0710  2.4365
  813SOL    HW2 2439   1.240   0.205   2.194  2.3204  0.3395 -1.9059
  814SOL     OW 2440   1.289   2.400   2.530 -1.3307  0.7167 -0.2441
  814SOL    HW1 2441   1.262   2.323   2.594 -0.2021 -1.3314  3.6251
  814SOL    HW2 2442   1.388   2.384   2.497 -0.7436 -1.9440 -2.3766
  815SOL     OW 2443   0.749   0.239   2.243 -0.0785  0.7411 -0.5358
  815SOL    HW1 2444   0.828   0.220   2.183 -1.9857  2.0658 -0.5108
  815SOL    HW2 2445   0.670   0.287   2.193 -1.6565  0.7380 -0.6448
  816SOL     OW 2446   1.974   0.382   2.926 -0.1712 -0.5567  0.0121
  816SOL    HW1 2447   2.042   0.428   2.865  1.6201  1.3983 -2.2925
  816SOL    HW2 2448   1.917   0.450   2.972  0.3913 -0.5509  1.3665
  817SOL     OW 2449   2.344   0.401   2.407 -0.1662  0.0236  0.8048
  817SOL    HW1 2450   2.314   0.310   2.437 -2.1214 -0.3028 -1.0487
  817SOL    HW2 2451   2.284   0.440   2.338  2.0512 -1.9159  0.1302
  818SOL     OW 2452   1.671   0.149   0.079 -0.4489 -0.2322  0.2500
  818SOL    HW1 2453   1.722   0.220   0.134 -1.3957  1.1527  0.9400
  818SOL    HW2 2454   1.742   0.089   0.039 -0.9720 -2.0092  2.9422
  819SOL     OW 2455   2.152   1.723   2.793 -0.2551  0.2534  0.9553
  819SOL    HW1 2456   2.073   1.776   2.773 -0.8986 -1.4975  2.1725
  819SOL    HW2 2457   2.175   1.742   2.887 -3.6624 -2.6541 -5.4801
  820SOL     OW 2458   0.061   1.894   0.153  0.4729 -0.1578 -0.1283
  820SOL    HW1 2459   3.097   1.952   0.203 -0.9016 -0.5489  0.6899
  820SOL    HW2 2460   0.149   1.893   0.203 -1.2668  1.6208 -0.2561
  821SOL     OW 2461   0.377   2.877   0.827 -0.0584 -0.0040 -0.2335
  821SOL    HW1 2462   0.462   2.835   0.797  3.6056 -1.3653  0.0684
  821SOL    HW2 2463   0.347   2.953   0.762  0.4745  0.9776 -2.5891
  822SOL     OW 2464   2.866   2.729   3.046 -0.1994 -0.2232 -0.6299
  822SOL    HW1 2465   2.775   2.686   3.045  0.5736 -2.5452  1.8289
  822SOL    HW2 2466   2.925   2.710   2.965  0.6261 -1.4520  2.1243
  823SOL     OW 2467   1.249   0.315   2.653 -0.2980  0.4886  0.2196
  823SOL    HW1 2468   1.222   0.232   2.588 -0.3109 -4.8057 -0.3086
  823SOL    HW2 2469   1.348   0.305   2.667 -1.4881 -0.2718 -1.9024
  824SOL     OW 2470   2.563   2.090   1.991 -0.1208 -0.1275 -0.1034
  824SOL    HW1 2471   2.640   2.041   2.028 -1.0850  0.4932 -1.6028
  824SOL    HW2 2472   2.484   2.032   1.996  2.3016  0.9099 -2.6978
  825SOL     OW 2473   2.946   2.019   2.637  0.3325  0.8850  0.1295
  825SOL    HW1 2474   3.044   2.025   2.657 -1.8726  0.1000  1.6089
  825SOL    HW2 2475   2.902   2.105   2.609 -0.6686 -0.7297  1.0504
  826SOL     OW 2476   2.305   1.324   2.307 -0.5683 -0.2905 -0.0921
  826SOL    HW1 2477   2.354   1.244   2.352  0.4098 -0.8109  2.5952
  826SOL    HW2 2478   2.227   1.358   2.361  1.0443  1.9947  0.5067
  827SOL     OW 2479   2.264   2.277   1.416 -0.3922 -0.2198 -0.2353
  827SOL    HW1 2480   2.273   2.342   1.338  0.6743  1.4094  1.3530
  827SOL    HW2 2481   2.354   2.239   1.448 -0.7777  0.8742  2.2557
  828SOL     OW 2482   0.051   0.105   1.405 -0.0064 -0.1023  0.3323
  828SOL    HW1 2483   3.068   0.139   1.369 -0.1545 -1.0598  1.2684
  828SOL    HW2 2484   0.117   0.177   1.426  2.7694 -0.2029 -2.5816
  829SOL     OW 2485   1.537   2.314   2.421  0.1670 -0.0254 -0.2012
  829SOL    HW1 2486   1.473   2.235   2.415 -2.5110  2.0075  0.4571
  829SOL    HW2 2487   1.554   2.342   2.323 -0.3801 -1.9756 -1.4985
  830SOL     OW 2488   0.815   0.591   0.567  0.2568  0.2952  0.0779
  830SOL    HW1 2489   0.837   0.667   0.499  0.1280  0.7841 -0.1572
  830SOL    HW2 2490   0.877   0.595   0.644 -2.1713  0.9460 -0.8646
  831SOL     OW 2491   2.756   1.321   2.902  0.0831 -0.0841  0.5312
  831SOL    HW1 2492   2.858   1.320   2.906 -3.7925  0.5442  0.3921
  831SOL    HW2 2493   2.721   1.329   2.806 -1.3782 -1.9350  0.1707
  832SOL     OW 2494   1.373   2.048   2.073 -0.2385  0.3496 -0.0574
  832SOL    HW1 2495   1.320   2.132   2.079  3.6535 -2.3745 -2.9283
  832SOL    HW2 2496   1.436   2.053   1.990  1.8513 -1.4205  2.5598
  833SOL     OW 2497   0.534   0.368   2.131 -0.0878 -0.6340  0.0254
  833SOL    HW1 2498   0.526   0.425   2.217  4.1191  2.2881  0.5406
  833SOL    HW2 2499   0.480   0.281   2.138  0.2955 -0.7397 -1.1020
  834SOL     OW 2500   0.745   1.136   1.606 -0.5657  0.5552  0.4818
  834SOL    HW1 2501   0.692   1.087   1.535  0.7439  1.2378  1.1080
  834SOL    HW2 2502   0.823   1.071   1.629  2.5138 -2.5722 -0.6213
  835SOL     OW 2503   2.766   0.878   3.004 -0.1793  0.1677  0.6165
  835SOL    HW1 2504   2.788   0.821   2.921 -0.3450 -0.1451  1.2277
  835SOL    HW2 2505   2.690   0.944   2.992 -0.0340  0.1840  0.5103
  836SOL     OW 2506   1.203   1.665   0.519  0.0332 -0.0269 -0.3680
  836SOL    HW1 2507   1.120   1.704   0.550 -0.6003  0.0410  1.6516
  836SOL    HW2 2508   1.281   1.677   0.582 -0.5414 -0.4860  1.5123
  837SOL     OW 2509   1.717   1.530   0.999 -0.3725  0.0353  0.1786
  837SOL    HW1 2510   1.731   1.503   1.099 -1.3701  1.0127  1.1372
  837SOL    HW2 2511   1.613   1.544   0.984 -1.1393  0.3370 -0.6129
  838SOL     OW 2512   1.087   1.565   2.196  0.3368 -0.5230 -0.9317
  838SOL    HW1 2513   0.998   1.534   2.228 -0.8819  1.0238 -0.7487
  838SOL    HW2 2514   1.124   1.641   2.253  0.6727 -0.8841  1.3060
  839SOL     OW 2515   0.794   2.189   2.696 -0.0035 -0.3597  0.0321
  839SOL    HW1 2516   0.820   2.170   2.793  2.4447 -1.0470 -0.1862
  839SOL    HW2 2517   0.714   2.249   2.698 -0.2831 -0.9068 -1.6133
  840SOL     OW 2518   0.680   2.385   0.518  0.1813 -0.8195 -0.0595
  840SOL    HW1 2519   0.698   2.456   0.593 -0.1964  2.7201  0.8006
  840SOL    HW2 2520   0.661   2.297   0.564  2.5929 -0.8309 -2.3767
  841SOL     OW 2521   1.969   2.715   0.137  0.2827 -0.2867 -0.5602
  841SOL    HW1 2522   1.981   2.619   0.180  0.1000 -1.7844  0.7026
  841SOL    HW2 2523   1.894   2.718   0.071  0.3725  0.0172 -0.9192
  842SOL     OW 2524   0.556   0.693   3.095  0.4814 -0.5487  0.2514
  842SOL    HW1 2525   0.596   0.612   0.029  1.4489  0.8783  0.8500
  842SOL    HW2 2526   0.574   0.777   0.045 -2.1288  1.2871  0.5385
  843SOL     OW 2527   1.259   0.067   0.771  0.0246 -0.3546  0.5668
  843SOL    HW1 2528   1.266   0.086   0.876 -1.7803  0.4142  5.1686
  843SOL    HW2 2529   1.217   0.146   0.722 -1.1771  0.0127 -1.9417
  844SOL     OW 2530   2.836   2.811   2.665 -0.2229  0.1230 -0.4004
  844SOL    HW1 2531   2.896   2.753   2.610  0.6440  0.1228  0.2030
  844SOL    HW2 2532   2.771   2.748   2.716 -0.2564 -1.6739 -0.2530
  845SOL     OW 2533   2.714   2.375   0.800 -0.2336  0.3910 -0.3631
  845SOL    HW1 2534   2.794   2.424   0.760 -0.0272  0.9147  3.7997
  845SOL    HW2 2535   2.703   2.401   0.900  1.0351  0.5536 -0.8004
  846SOL     OW 2536   2.932   1.686   2.421 -0.1164 -0.2885 -0.6018
  846SOL    HW1 2537   2.921   1.596   2.476 -1.3610 -1.2283  1.2371
  846SOL    HW2 2538   3.025   1.726   2.430 -1.5176  1.3933 -0.7654
  847SOL     OW 2539   1.294   0.692   1.537  0.4478  0.0150 -0.4091
  847SOL    HW1 2540   1.358   0.744   1.601  2.3785  0.9028  3.1339
  847SOL    HW2 2541   1.315   0.593   1.542  1.4986  1.3511 -0.1218
  848SOL     OW 2542   2.515   2.976   3.009  0.2538  0.0148  0.3362
  848SOL    HW1 2543   2.451   2.994   3.087  4.8129 -0.8702  0.0494
  848SOL    HW2 2544   2.611   2.994   3.036 -3.4499 -1.2899 -1.2406
  849SOL     OW 2545   0.745   2.842   2.682 -0.3439  0.3309  0.1106
  849SOL    HW1 2546   0.717   2.883   2.770 -0.9997  0.7296  0.9095
  849SOL    HW2 2547   0.847   2.858   2.671 -0.0842 -1.6271 -0.1022
  850SOL     OW 2548   1.308   2.946   1.162 -0.3268 -0.2260 -0.0768
  850SOL    HW1 2549   1.396   2.900   1.174  1.0336 -2.1458  1.3636
  850SOL    HW2 2550   1.235   2.886   1.123 -1.8698 -0.9776 -1.1608
  851SOL     OW 2551   2.678   0.337   2.116 -0.3682 -0.0783  0.4936
  851SOL    HW1 2552   2.692   0.370   2.208 -6.5486  0.4229  0.4740
  851SOL    HW2 2553   2.762   0.303   2.076  0.7815  0.7739 -0.5125
  852SOL     OW 2554   2.121   0.976   2.386  0.1466  0.2272 -0.0257
  852SOL    HW1 2555   2.076   1.009   2.304  0.7219 -0.2036 -0.4470
  852SOL    HW2 2556   2.056   1.001   2.464 -1.3061  0.7249  0.9197
  853SOL     OW 2557   2.843   3.011   0.406  0.1014 -0.1961  0.6260
  853SOL    HW1 2558   2.817   3.099   0.446  1.6971 -0.3925  1.2712
  853SOL    HW2 2559   2.758   2.961   0.390  3.2358  0.9652 -0.4168
  854SOL     OW 2560   2.210   1.095   2.007 -0.4790  0.3042 -0.4507
  854SOL    HW1 2561   2.134   1.094   2.077  2.5453  0.0837 -1.5449
  854SOL    HW2 2562   2.292   1.046   2.044  0.1494  2.0192  1.0542
  855SOL     OW 2563   1.107   2.295   0.192  0.2458  0.1687 -0.2852
  855SOL    HW1 2564   1.005   2.299   0.176 -3.2822 -0.4961  1.8354
  855SOL    HW2 2565   1.140   2.225   0.119 -0.2017  0.0427 -0.6337
  856SOL     OW 2566   3.072   0.170   2.587 -0.6068  0.5489  0.0800
  856SOL    HW1 2567   3.073   0.069   2.598  0.3808 -0.7206 -0.4109
  856SOL    HW2 2568   3.031   0.216   2.666 -0.5986  1.9342 -1.9132
  857SOL     OW 2569   1.095   0.005   1.844  1.0925  0.3352  0.0179
  857SOL    HW1 2570   1.098   0.091   1.788 -0.6754  2.6772 -0.6488
  857SOL    HW2 2571   1.053   3.032   1.794  0.6817 -1.6293  1.5156
  858SOL     OW 2572   2.281   2.219   1.687  0.0275 -0.1590 -0.2001
  858SOL    HW1 2573   2.260   2.219   1.587 -0.2378 -0.8699 -0.6862
  858SOL    HW2 2574   2.248   2.130   1.733 -1.7631 -0.9798  2.5501
  859SOL     OW 2575   1.178   2.719   1.631 -0.1385 -0.1870  0.0437
  859SOL    HW1 2576   1.172   2.658   1.715  0.6846 -3.0100  0.4170
  859SOL    HW2 2577   1.262   2.699   1.577  0.5394  0.4241 -2.8728
  860SOL     OW 2578   2.386   2.554   3.103 -0.2081 -0.0870  0.0778
  860SOL    HW1 2579   2.372   2.499   3.017  3.7974 -0.6658 -0.8543
  860SOL    HW2 2580   2.315   2.626   0.018 -1.0910 -1.0371  1.2811
  861SOL     OW 2581   2.061   2.824   1.025 -0.2432  0.0349  0.5580
  861SOL    HW1 2582   2.043   2.919   0.985 -0.8711 -0.4363  0.2640
  861SOL    HW2 2583   2.081   2.826   1.122  3.8202  0.1588 -2.7040
  862SOL     OW 2584   1.818   2.918   2.315 -0.2086 -0.4469  0.2215
  862SOL    HW1 2585   1.899   2.907   2.254 -1.1072  2.9274 -0.1591
  862SOL    HW2 2586   1.840   2.959   2.405  0.8718 -1.7711  0.6717
  863SOL     OW 2587   3.056   0.703   0.775 -0.4661  0.1319  0.2370
  863SOL    HW1 2588   2.992   0.781   0.777  0.9752 -1.3666 -0.6664
  863SOL    HW2 2589   3.097   0.680   0.686  1.8194  1.3301  2.4479
  864SOL     OW 2590   0.255   2.766   2.142  0.3892 -0.0909 -0.4637
  864SOL    HW1 2591   0.334   2.716   2.110  0.7489  4.0988 -1.8899
  864SOL    HW2 2592   0.231   2.750   2.241 -1.4346 -0.2326  1.0244
  865SOL     OW 2593   0.499   1.339   2.825  0.1219 -0.1055  0.2584
  865SOL    HW1 2594   0.431   1.399   2.876  0.1635  2.7947  1.8742
  865SOL    HW2 2595   0.448   1.273   2.763 -1.6298 -1.3417 -0.8284
  866SOL     OW 2596   2.851   0.712   2.811  0.2344 -0.3230  0.0185
  866SOL    HW1 2597   2.889   0.703   2.717  1.6532  0.7012 -0.4646
  866SOL    HW2 2598   2.884   0.644   2.879 -0.7774  1.7083 -0.3253
  867SOL     OW 2599   3.046   3.019   2.661 -0.0222 -0.2829  0.0815
  867SOL    HW1 2600   3.100   2.965   2.726 -1.8095 -0.6480 -0.5620
  867SOL    HW2 2601   2.954   2.975   2.642 -1.7691  0.0576  0.1388
  868SOL     OW 2602   1.135   2.984   0.651  0.2272  0.3163  0.4172
  868SOL    HW1 2603   1.197   3.056   0.692 -3.0028  2.8883  1.8728
  868SOL    HW2 2604   1.151   2.891   0.689 -1.4130  0.8754  3.0993
  869SOL     OW 2605   1.459   1.577   0.964 -0.2834  0.2170  0.1318
  869SOL    HW1 2606   1.427   1.620   0.876 -0.3706 -0.3913  0.5628
  869SOL    HW2 2607   1.444   1.647   1.038  0.4954 -0.4877  0.2979
  870SOL     OW 2608   2.017   1.929   1.104 -0.4539  0.1439 -0.0034
  870SOL    HW1 2609   2.048   1.959   1.010 -1.2208  1.3099 -2.0711
  870SOL    HW2 2610   2.003   1.823   1.107 -0.5015 -1.7057 -2.4367
  871SOL     OW 2611   1.125   1.552   1.598 -0.1455 -0.6634 -0.0577
  871SOL    HW1 2612   1.180   1.637   1.601 -0.6525 -0.9806 -1.5072
  871SOL    HW2 2613   1.045   1.570   1.540 -0.9593 -0.6447  0.0195
  872SOL     OW 2614   0.914   1.586   1.404 -0.3447 -0.5159  0.7537
  872SOL    HW1 2615   0.858   1.655   1.355 -1.3001 -1.7311  0.4657
  872SOL    HW2 2616   0.866   1.501   1.433 -0.1534  1.9369  1.9641
  873SOL     OW 2617   1.207   1.101   2.605 -0.1204 -0.1627 -0.1302
  873SOL    HW1 2618   1.267   1.175   2.565 -1.0886 -0.2944 -3.7406
  873SOL    HW2 2619   1.252   1.008   2.616  0.8774 -3.0063  1.0533
  874SOL     OW 2620   3.090   1.481   1.360  0.0552 -0.3991 -0.3012
  874SOL    HW1 2621   3.086   1.463   1.259 -1.6514 -0.6017 -1.6157
  874SOL    HW2 2622   3.040   1.409   1.408  0.8006 -3.2198  2.2508
  875SOL     OW 2623   2.837   3.024   0.895  0.0656  0.4165  0.1471
  875SOL    HW1 2624   2.825   3.101   0.830  0.4405  0.4835 -1.2999
  875SOL    HW2 2625   2.753   2.964   0.890  0.9658 -1.3325  1.0038
  876SOL     OW 2626   0.969   0.856   2.873  0.3951 -0.0701  0.3219
  876SOL    HW1 2627   0.967   0.763   2.829 -1.4294  0.7010 -1.1554
  876SOL    HW2 2628   0.968   0.842   2.975 -1.5697 -0.2429  2.9972
  877SOL     OW 2629   0.054   0.272   1.120  0.2024 -0.1294  0.3713
  877SOL    HW1 2630   3.064   0.275   1.156 -2.3301 -1.1910  2.1380
  877SOL    HW2 2631   0.096   0.179   1.132  1.2910  2.0305  1.4115
  878SOL     OW 2632   1.565   2.380   3.055  0.1124 -0.3810  0.0207
  878SOL    HW1 2633   1.593   2.438   0.029  1.7765  2.1681  2.9269
  878SOL    HW2 2634   1.625   2.296   3.057  0.9623  0.9752  0.6601
  879SOL     OW 2635   2.246   1.747   1.519  0.1280 -0.2226  0.3845
  879SOL    HW1 2636   2.289   1.686   1.591 -0.4011 -0.2994 -0.4200
  879SOL    HW2 2637   2.267   1.847   1.538 -0.5066  1.2925 -1.0944
  880SOL     OW 2638   0.811   0.457   1.613  0.3570  0.2820 -0.1654
  880SOL    HW1 2639   0.906   0.483   1.611 -1.6286 -0.9170  2.2544
  880SOL    HW2 2640   0.794   0.430   1.709  1.1919  1.5920  0.3519
  881SOL     OW 2641   1.066   1.835   0.216  0.3247  0.2811  0.5154
  881SOL    HW1 2642   1.164   1.869   0.238  2.4132  1.3216  0.3183
  881SOL    HW2 2643   1.067   1.746   0.169 -1.2528 -0.4413 -1.2484
  882SOL     OW 2644   2.200   0.925   1.587 -0.2566 -0.0873 -0.3481
  882SOL    HW1 2645   2.216   1.018   1.623  0.8289  1.8172 -1.0490
  882SOL    HW2 2646   2.243   0.915   1.494  1.3265 -0.2235 -1.2460
  883SOL     OW 2647   1.442   0.676   2.239  0.6222  0.1317  0.0802
  883SOL    HW1 2648   1.396   0.743   2.299  0.9060 -1.6986 -1.8380
  883SOL    HW2 2649   1.372   0.648   2.167  1.0695 -1.3105 -0.7997
  884SOL     OW 2650   2.459   0.267   3.085 -0.1759 -0.0961 -0.1997
  884SOL    HW1 2651   2.402   0.204   3.029 -0.6698 -2.1261  1.3535
  884SOL    HW2 2652   2.407   0.303   0.058 -1.0914 -0.4456 -1.2980
  885SOL     OW 2653   0.284   2.136   0.675  0.7322 -0.0835 -0.2241
  885SOL    HW1 2654   0.259   2.163   0.581 -0.5131  1.0456 -2.3476
  885SOL    HW2 2655   0.214   2.067   0.705  0.4526  0.6026 -1.2384
  886SOL     OW 2656   1.733   1.344   0.020 -0.0542 -0.1906  0.3263
  886SOL    HW1 2657   1.663   1.274   0.035  0.1031  3.1589  1.8858
  886SOL    HW2 2658   1.745   1.402   0.107 -0.8573 -2.2892  0.8798
  887SOL     OW 2659   1.490   0.417   1.744 -0.4456  0.0342  0.1579
  887SOL    HW1 2660   1.588   0.448   1.756 -0.2794 -0.7004 -2.0313
  887SOL    HW2 2661   1.459   0.423   1.649  0.7320  0.5063  2.8605
  888SOL     OW 2662   2.918   1.318   1.514  0.2647  0.0076 -0.3642
  888SOL    HW1 2663   2.823   1.350   1.507  2.1669 -1.2849  1.9134
  888SOL    HW2 2664   2.930   1.237   1.463  1.9766  2.3366 -0.5813
  889SOL     OW 2665   0.037   2.514   0.949  0.5299  0.1601  0.0410
  889SOL    HW1 2666   0.076   2.600   0.910  1.6112  0.6152  0.6786
  889SOL    HW2 2667   0.102   2.436   0.961  0.3860  0.3754 -2.0613
  890SOL     OW 2668   0.290   2.691   2.396  0.8198  0.3221 -0.0783
  890SOL    HW1 2669   0.383   2.679   2.424 -1.9946  0.7305  1.6359
  890SOL    HW2 2670   0.233   2.695   2.483 -0.7667  1.5072  1.1653
  891SOL     OW 2671   0.532   1.812   0.320 -0.1315  0.1147  0.5128
  891SOL    HW1 2672   0.580   1.880   0.380 -0.1338 -1.0320 -3.1190
  891SOL    HW2 2673   0.551   1.715   0.344  0.8429 -0.2204  1.3482
  892SOL     OW 2674   2.957   2.374   1.341  0.5480  0.6490 -0.0972
  892SOL    HW1 2675   2.972   2.418   1.434  0.8571  1.9185  1.1721
  892SOL    HW2 2676   2.863   2.336   1.334 -1.5332  1.2121 -1.0161
  893SOL     OW 2677   0.471   3.032   1.484  0.5376 -0.2570 -0.6233
  893SOL    HW1 2678   0.538   3.001   1.557  0.4466 -1.5421  0.2891
  893SOL    HW2 2679   0.419   0.009   1.509 -1.4259  0.3864  1.2741
  894SOL     OW 2680   2.579   1.452   0.748  0.3532  0.0205  0.1957
  894SOL    HW1 2681   2.545   1.539   0.785  0.9974 -1.5733 -0.8620
  894SOL    HW2 2682   2.567   1.452   0.649  1.4021  0.0324  1.6002
  895SOL     OW 2683   2.370   2.562   1.556 -0.3284  0.5587 -0.5273
  895SOL    HW1 2684   2.290   2.510   1.534  2.5663  3.1396 -1.6729
  895SOL    HW2 2685   2.453   2.502   1.552  2.7656 -0.1339  0.6034
  896SOL     OW 2686   0.877   0.221   1.436 -0.4550  0.4088 -0.0732
  896SOL    HW1 2687   0.949   0.271   1.380  1.6846  0.2866 -2.2241
  896SOL    HW2 2688   0.847   0.271   1.521 -0.2354  2.6755 -1.3976
  897SOL     OW 2689   0.679   1.548   1.115 -0.2821 -0.3914 -0.4171
  897SOL    HW1 2690   0.578   1.532   1.125 -2.6132 -0.1728  0.0554
  897SOL    HW2 2691   0.700   1.638   1.162 -0.7404  1.3561  2.3518
  898SOL     OW 2692   1.699   2.646   1.565  0.0557 -0.0369  0.0905
  898SOL    HW1 2693   1.656   2.556   1.575  1.7050  0.5139 -0.9821
  898SOL    HW2 2694   1.800   2.640   1.587  0.1616  0.2499 -0.6151
  899SOL     OW 2695   1.079   0.365   2.888  0.3129  0.1383 -0.4075
  899SOL    HW1 2696   1.141   0.335   2.820 -3.2264  0.9368  1.1463
  899SOL    HW2 2697   1.000   0.299   2.886  1.3811  0.6864 -3.3494
  900SOL     OW 2698   1.168   2.563   1.837  0.6901  0.4152 -0.1922
  900SOL    HW1 2699   1.086   2.501   1.820 -1.6227 -0.3869  0.5897
  900SOL    HW2 2700   1.244   2.509   1.872 -2.4999 -0.8972  1.6946
  901SOL     OW 2701   0.873   2.008   0.322  0.3589  0.2536  0.3116
  901SOL    HW1 2702   0.907   2.026   0.416  0.4787  1.5888  3.1306
  901SOL    HW2 2703   0.929   1.935   0.278  0.7033  0.5242 -0.6474
  902SOL     OW 2704   1.606   1.110   1.035 -0.3736 -0.2259  0.4278
  902SOL    HW1 2705   1.657   1.134   1.121 -0.5609 -0.8078 -1.7409
  902SOL    HW2 2706   1.549   1.189   0.997 -0.8994  0.5926  1.1767
  903SOL     OW 2707   2.606   1.086   2.960 -0.1740  0.0996 -0.0277
  903SOL    HW1 2708   2.659   1.172   2.942  0.6080 -2.0718  0.7293
  903SOL    HW2 2709   2.538   1.100   3.034 -3.3738  1.1767 -1.5279
  904SOL     OW 2710   0.880   1.238   0.332 -0.8711 -0.7926 -0.4786
  904SOL    HW1 2711   0.869   1.337   0.303  2.0100  3.7326  0.0089
  904SOL    HW2 2712   0.922   1.237   0.428 -0.9094  0.3203  1.6372
  905SOL     OW 2713   1.679   0.128   1.223 -0.0378 -0.7979 -0.0760
  905SOL    HW1 2714   1.683   0.230   1.240  0.0721  2.0350 -0.2637
  905SOL    HW2 2715   1.696   0.069   1.307 -0.3510  2.0113 -0.3987
  906SOL     OW 2716   2.485   2.627   1.072  1.0050 -0.2503  0.2735
  906SOL    HW1 2717   2.435   2.687   1.130  2.4182 -1.9012 -3.2701
  906SOL    HW2 2718   2.474   2.647   0.970  2.7341 -1.4393 -1.3693
  907SOL     OW 2719   1.415   0.893   0.531  0.5027 -0.5175 -0.0596
  907SOL    HW1 2720   1.455   0.803   0.510 -1.3511  1.3933  3.1675
  907SOL    HW2 2721   1.361   0.897   0.615  1.0050  1.3181  1.6453
  908SOL     OW 2722   1.576   0.034   0.984 -0.1822 -0.6837  0.4005
  908SOL    HW1 2723   1.476   0.067   0.979 -1.8889  1.4795  1.3056
  908SOL    HW2 2724   1.616   0.066   1.074  1.4609  2.7128  1.0356
  909SOL     OW 2725   2.302   0.876   1.319  0.2260  0.2256 -0.0694
  909SOL    HW1 2726   2.292   0.934   1.236 -0.7976  1.0966 -0.3147
  909SOL    HW2 2727   2.319   0.781   1.294 -0.8984  1.4160  1.7853
  910SOL     OW 2728   2.302   0.670   2.046 -0.0229  0.5648  0.3867
  910SOL    HW1 2729   2.304   0.721   1.956  0.6728  3.0458 -2.3283
  910SOL    HW2 2730   2.319   0.735   2.121 -0.8652 -0.7350 -0.5667
  911SOL     OW 2731   2.277   0.675   2.709 -0.3592  0.3247  0.1960
  911SOL    HW1 2732   2.359   0.714   2.662  1.2442  0.9063  0.3165
  911SOL    HW2 2733   2.305   0.623   2.795 -1.4282  2.3892 -0.7799
  912SOL     OW 2734   0.506   1.207   1.712 -0.4054  0.1384  0.3340
  912SOL    HW1 2735   0.593   1.183   1.663 -2.5741  1.5349  0.8849
  912SOL    HW2 2736   0.437   1.237   1.639 -0.5373  1.4995 -0.6135
  913SOL     OW 2737   2.933   2.480   1.579  0.3600  0.2412 -0.0274
  913SOL    HW1 2738   2.937   2.413   1.653  1.0703 -2.9657 -2.1387
  913SOL    HW2 2739   2.942   2.571   1.617  0.2885 -1.3494 -1.9102
  914SOL     OW 2740   1.644   0.714   1.843 -0.0912  0.2101 -0.8480
  914SOL    HW1 2741   1.583   0.764   1.774 -4.2568  0.9349 -2.1732
  914SOL    HW2 2742   1.690   0.630   1.804 -0.0866 -1.4101  0.1812
  915SOL     OW 2743   2.400   1.014   0.857 -0.2141  0.2029 -0.9853
  915SOL    HW1 2744   2.438   0.933   0.905 -0.6311 -0.3430 -0.1074
  915SOL    HW2 2745   2.476   1.079   0.822  2.4655  1.3647  0.9706
  916SOL     OW 2746   1.746   2.268   1.057  0.4304  0.6745  0.2007
  916SOL    HW1 2747   1.753   2.348   1.118  0.2559  0.3849  1.5083
  916SOL    HW2 2748   1.762   2.179   1.105  0.8810  0.4417  2.0420
  917SOL     OW 2749   1.998   2.150   2.312  0.1236 -0.0385 -0.2888
  917SOL    HW1 2750   1.921   2.186   2.373 -0.3043 -3.1786  0.1784
  917SOL    HW2 2751   2.002   2.196   2.227  1.7978 -1.3441  1.0381
  918SOL     OW 2752   1.920   2.448   2.462  0.0302  0.4255 -0.0223
  918SOL    HW1 2753   1.841   2.512   2.459  1.8359 -1.8989 -1.0870
  918SOL    HW2 2754   1.887   2.355   2.480  1.2902 -2.0719  1.0684
  919SOL     OW 2755   1.251   0.167   1.496 -0.0180 -0.0596 -0.6474
  919SOL    HW1 2756   1.303   0.081   1.510 -2.8721  1.1494 -0.8325
  919SOL    HW2 2757   1.177   0.182   1.567  0.6349  2.4824 -0.6968
  920SOL     OW 2758   2.946   0.354   2.380 -0.0093 -0.0205 -0.0480
  920SOL    HW1 2759   2.990   0.327   2.467  0.8919  0.7140 -2.2816
  920SOL    HW2 2760   2.931   0.271   2.320  0.2648 -0.6528  0.8949
  921SOL     OW 2761   3.067   1.045   1.646  0.3315  0.2737  0.1570
  921SOL    HW1 2762   0.010   1.131   1.664  0.2270 -2.8289  0.4442
  921SOL    HW2 2763   2.980   1.042   1.697 -1.8750  0.0987  1.7949
  922SOL     OW 2764   2.379   2.476   0.452 -0.1525  0.6078  0.4191
  922SOL    HW1 2765   2.328   2.563   0.462  1.1928  2.9110 -1.8980
  922SOL    HW2 2766   2.371   2.444   0.352 -1.9479 -1.8046  1.4405
  923SOL     OW 2767   0.584   2.173   0.675 -0.3115  0.2191 -0.1821
  923SOL    HW1 2768   0.620   2.207   0.764  0.3198  2.5382  1.2167
  923SOL    HW2 2769   0.483   2.146   0.677 -1.5429  0.3974  0.2158
  924SOL     OW 2770   1.028   1.005   0.277 -0.2145 -0.1927 -0.3495
  924SOL    HW1 2771   0.982   1.096   0.289  0.5156  4.1429  0.9721
  924SOL    HW2 2772   1.126   1.017   0.291 -2.1441 -0.8276 -1.3137
  925SOL     OW 2773   2.518   0.783   0.972  0.0850  0.6746 -0.2410
  925SOL    HW1 2774   2.577   0.744   1.047  1.3195  1.0915  0.2344
  925SOL    HW2 2775   2.470   0.706   0.926  0.9984 -1.0087 -1.0897
  926SOL     OW 2776   0.389   0.336   1.239 -0.0209  0.2590 -0.2718
  926SOL    HW1 2777   0.343   0.290   1.321  0.7115 -0.7002 -1.0851
  926SOL    HW2 2778   0.353   0.431   1.248  2.4319 -0.8093 -0.2567
  927SOL     OW 2779   0.709   1.371   2.476 -0.0419  0.0987 -0.1930
  927SOL    HW1 2780   0.675   1.423   2.553  2.0192 -2.0810 -4.1840
  927SOL    HW2 2781   0.674   1.273   2.469 -0.9883 -3.2933  1.1001
  928SOL     OW 2782   0.205   0.590   2.407  0.5343 -0.5849  0.4867
  928SOL    HW1 2783   0.174   0.542   2.320 -0.8044 -1.1424  0.8992
  928SOL    HW2 2784   0.183   0.520   2.479  0.9995 -1.1484 -0.6461
  929SOL     OW 2785   2.812   3.014   1.208 -0.4203 -0.1610 -0.2116
  929SOL    HW1 2786   2.890   2.949   1.230  0.4012 -0.6811 -0.6065
  929SOL    HW2 2787   2.817   3.051   1.114 -0.9279  0.6974  0.2447
  930SOL     OW 2788   2.139   0.518   1.759  0.2910  0.4256  0.1029
  930SOL    HW1 2789   2.082   0.442   1.724 -0.1877  0.1489  0.0404
  930SOL    HW2 2790   2.141   0.497   1.857  2.5317 -3.4915 -1.1038
  931SOL     OW 2791   2.280   0.638   0.019 -0.0598  0.0431  0.2832
  931SOL    HW1 2792   2.198   0.692   0.050  0.4666 -0.1774 -1.5497
  931SOL    HW2 2793   2.305   0.560   0.080  0.8499  1.2255 -0.1490
  932SOL     OW 2794   2.024   1.423   0.443 -0.5283  0.1790 -0.0796
  932SOL    HW1 2795   2.109   1.406   0.494  3.4691  0.2896  0.3876
  932SOL    HW2 2796   1.943   1.389   0.494 -0.5231 -1.9561 -1.2669
  933SOL     OW 2797   2.208   1.540   1.015  0.3836  0.0867 -0.2415
  933SOL    HW1 2798   2.271   1.599   1.069 -1.4618 -1.6780 -0.9195
  933SOL    HW2 2799   2.223   1.439   1.032  0.3927 -4.1725  0.5164
  934SOL     OW 2800   1.943   1.042   2.603  0.2627 -0.5829 -0.1043
  934SOL    HW1 2801   1.962   1.098   2.686 -0.7899 -0.2642  0.2823
  934SOL    HW2 2802   1.933   0.942   2.636  1.3065 -2.3732  0.3961
  935SOL     OW 2803   0.248   0.886   0.583 -0.0249 -0.7986 -0.1926
  935SOL    HW1 2804   0.307   0.938   0.514  1.2787  0.3176 -2.0969
  935SOL    HW2 2805   0.179   0.949   0.631  3.7076 -0.6369 -1.0218
  936SOL     OW 2806   0.785   0.042   0.855  0.1342 -0.2542  0.4036
  936SOL    HW1 2807   0.713   0.022   0.930 -2.8963  1.5778  0.3740
  936SOL    HW2 2808   0.805   0.142   0.855  0.9776 -1.3811  2.0925
  937SOL     OW 2809   2.789   2.895   1.782  0.7227  0.1753 -0.0020
  937SOL    HW1 2810   2.844   2.842   1.710  1.9895  0.0300  0.5245
  937SOL    HW2 2811   2.780   2.841   1.872 -2.3449  0.2183  2.0324
  938SOL     OW 2812   3.036   2.233   0.053 -0.2799  0.3165  0.4663
  938SOL    HW1 2813   2.969   2.297   0.015  2.2106 -0.5176 -1.5754
  938SOL    HW2 2814   0.011   2.285   0.080 -1.7910 -0.8880  0.8973
  939SOL     OW 2815   1.041   1.488   1.197 -0.1283 -0.0343  0.1097
  939SOL    HW1 2816   1.006   1.533   1.284  2.1014  2.4683  0.9598
  939SOL    HW2 2817   1.063   1.388   1.211  0.0634  0.7657 -0.3313
  940SOL     OW 2818   2.963   0.564   3.003 -0.2401  0.4630 -0.0900
  940SOL    HW1 2819   3.046   0.504   2.992  1.3581  0.1777 -1.3986
  940SOL    HW2 2820   2.907   0.526   3.078 -0.4361 -0.4669 -0.9984
  941SOL     OW 2821   2.143   0.431   2.663  0.5036  0.1763 -0.8101
  941SOL    HW1 2822   2.087   0.372   2.601 -0.9675  1.4469 -1.0904
  941SOL    HW2 2823   2.182   0.512   2.622  0.6008 -0.0470  0.3149
  942SOL     OW 2824   1.624   0.466   0.796  0.2120 -0.0404  0.5002
  942SOL    HW1 2825   1.687   0.395   0.759 -1.1941 -3.2441 -3.9349
  942SOL    HW2 2826   1.669   0.557   0.812  0.1333  0.2288  1.0050
  943SOL     OW 2827   1.230   1.237   2.039  0.3888  0.0437  0.1425
  943SOL    HW1 2828   1.279   1.158   1.994 -3.7494 -1.0337 -0.0340
  943SOL    HW2 2829   1.139   1.251   1.996  2.9300 -0.2553  1.5849
  944SOL     OW 2830   1.926   0.936   1.514 -0.2727 -0.3316  0.8476
  944SOL    HW1 2831   1.868   0.868   1.563 -0.5255  0.2883  1.3706
  944SOL    HW2 2832   2.024   0.913   1.533  0.0517  2.7362  2.2059
  945SOL     OW 2833   2.728   0.149   2.890 -0.1527  0.1644  0.0110
  945SOL    HW1 2834   2.740   0.127   2.789 -0.1790  0.5601  0.2465
  945SOL    HW2 2835   2.739   0.062   2.944  0.8786 -0.8449 -0.8664
  946SOL     OW 2836   2.787   1.415   1.806  0.2966  0.1459  0.4189
  946SOL    HW1 2837   2.864   1.348   1.813 -2.4518  0.4775  2.4453
  946SOL    HW2 2838   2.814   1.511   1.789 -0.9948 -2.7654  0.7478
  947SOL     OW 2839   0.975   3.012   0.125 -0.3901  0.0946  0.6819
  947SOL    HW1 2840   0.877   2.974   0.123 -0.5419 -0.6449  2.2983
  947SOL    HW2 2841   0.999   3.043   0.220  1.2927 -1.0062  1.5457
  948SOL     OW 2842   2.376   1.625   1.293  0.2884  0.4944 -0.2964
  948SOL    HW1 2843   2.327   1.676   1.370  1.1357 -0.1209  2.6484
  948SOL    HW2 2844   2.477   1.644   1.296  3.9625  1.7902 -0.5411
  949SOL     OW 2845   0.208   1.293   0.030  0.4036 -0.4795 -0.7094
  949SOL    HW1 2846   0.169   1.212   3.082 -2.9912  0.1755  0.1510
  949SOL    HW2 2847   0.269   1.355   3.079  2.1660 -0.6685  1.9412
  950SOL     OW 2848   0.520   2.429   1.212  0.1023 -0.1713 -0.4821
  950SOL    HW1 2849   0.430   2.449   1.261 -2.3706  1.7237  0.0225
  950SOL    HW2 2850   0.535   2.483   1.127  1.1643  0.6079 -2.6815
  951SOL     OW 2851   0.650   1.554   2.738 -0.0967 -0.2487 -0.0279
  951SOL    HW1 2852   0.714   1.572   2.818 -1.8085 -0.1417  0.7966
  951SOL    HW2 2853   0.605   1.468   2.755  0.9044 -2.3062 -0.6431
  952SOL     OW 2854   0.661   0.927   0.521  0.1095 -0.1026  0.2048
  952SOL    HW1 2855   0.625   0.861   0.584  1.4950  1.5825 -0.5431
  952SOL    HW2 2856   0.676   1.008   0.573 -2.9251 -2.4285  0.6095
  953SOL     OW 2857   2.618   2.888   2.473  0.2063  0.6478 -0.4026
  953SOL    HW1 2858   2.629   2.784   2.466  2.8950 -3.3450 -0.7473
  953SOL    HW2 2859   2.702   2.915   2.526  0.9118 -1.6227  0.5561
  954SOL     OW 2860   1.768   0.928   0.720 -0.0493 -0.3073 -0.5729
  954SOL    HW1 2861   1.814   0.997   0.773 -1.7595 -0.0163 -2.3354
  954SOL    HW2 2862   1.783   0.940   0.618 -1.4119 -1.5804 -0.7513
  955SOL     OW 2863   0.632   1.983   0.496  0.0364 -0.0753 -0.2588
  955SOL    HW1 2864   0.710   2.021   0.443 -1.5583  0.5443  2.1317
  955SOL    HW2 2865   0.608   2.053   0.560  1.0494 -3.5603 -1.8282
  956SOL     OW 2866   2.376   0.420   1.935  0.7489 -0.2869 -0.0657
  956SOL    HW1 2867   2.350   0.503   1.987  1.1894  0.9956  1.5224
  956SOL    HW2 2868   2.369   0.336   1.991 -0.5881  0.6223  1.9636
  957SOL     OW 2869   1.979   2.243   2.064  0.3523  0.0493  0.1016
  957SOL    HW1 2870   2.044   2.298   2.005 -1.8007 -3.9510  0.5989
  957SOL    HW2 2871   1.968   2.154   2.019 -0.2798  2.9250  1.1363
  958SOL     OW 2872   1.594   1.006   1.486 -0.4438 -0.3795  0.3118
  958SOL    HW1 2873   1.653   1.038   1.560  0.3034 -0.9491 -1.4021
  958SOL    HW2 2874   1.555   1.081   1.430 -2.4356 -0.1403  0.6491
  959SOL     OW 2875   1.961   1.729   2.050 -0.4547  0.1719 -0.0779
  959SOL    HW1 2876   2.019   1.649   2.067 -1.0789 -0.0451 -2.2931
  959SOL    HW2 2877   1.869   1.701   2.018  2.1796 -3.2046 -2.9539
  960SOL     OW 2878   0.745   0.935   2.751  0.4863  0.7078  0.2164
  960SOL    HW1 2879   0.720   0.885   2.671  0.6692  1.3831  2.1780
  960SOL    HW2 2880   0.834   0.910   2.795 -0.5829  1.4756  0.3477
  961SOL     OW 2881   0.109   1.066   2.991 -0.3077  0.3011  0.6015
  961SOL    HW1 2882   0.068   0.973   3.002  1.2005 -3.4184 -0.9476
  961SOL    HW2 2883   0.181   1.066   2.920 -3.1967 -1.4515  1.8050
  962SOL     OW 2884   0.821   1.742   2.591 -0.0122 -0.5775 -0.4066
  962SOL    HW1 2885   0.804   1.658   2.646  1.1301  1.1014 -0.4593
  962SOL    HW2 2886   0.774   1.831   2.608  0.8956 -0.5384  2.3569
  963SOL     OW 2887   2.965   2.052   0.241  0.2111 -0.1713 -0.0847
  963SOL    HW1 2888   2.884   1.987   0.229  0.6462 -1.5641 -0.3992
  963SOL    HW2 2889   2.981   2.116   0.161  3.9241  2.9846 -1.7069
  964SOL     OW 2890   0.962   2.042   1.949 -0.0103  0.0106 -0.4063
  964SOL    HW1 2891   1.013   2.040   2.037 -1.3551  2.6129 -0.6323
  964SOL    HW2 2892   0.942   1.948   1.924 -1.4013  2.7532  2.0354
  965SOL     OW 2893   1.589   2.013   0.425 -0.4902 -0.2458 -1.0336
  965SOL    HW1 2894   1.573   2.106   0.391  0.6706 -1.7669  1.5430
  965SOL    HW2 2895   1.676   2.008   0.476  1.4970  1.5502 -1.4285
  966SOL     OW 2896   3.015   1.697   0.027 -0.2369 -0.1636  0.2383
  966SOL    HW1 2897   3.091   1.749   0.074  2.3952  0.6529 -0.4524
  966SOL    HW2 2898   3.041   1.603   0.017  2.7829 -1.9271 -0.7698
  967SOL     OW 2899   2.154   3.077   2.371  0.4258  0.5022  0.4235
  967SOL    HW1 2900   2.241   3.061   2.422 -0.7417 -0.7316  2.1372
  967SOL    HW2 2901   2.127   2.995   2.316 -1.1902  2.1565 -4.6953
  968SOL     OW 2902   0.903   0.609   0.177 -0.0726 -0.0552 -0.2021
  968SOL    HW1 2903   0.897   0.671   0.264 -2.4287  0.1185  1.2208
  968SOL    HW2 2904   0.963   0.653   0.109 -2.0682  0.7053  1.0187
  969SOL     OW 2905   0.502   1.526   2.122  0.8423 -0.1576 -0.6333
  969SOL    HW1 2906   0.584   1.581   2.096 -1.1665 -0.6403  2.3053
  969SOL    HW2 2907   0.481   1.453   2.050  0.3932 -1.4865 -0.9413
  970SOL     OW 2908   1.970   2.696   1.295  0.2494 -0.1007 -0.3682
  970SOL    HW1 2909   2.025   2.616   1.266 -2.3357 -0.4604  0.1263
  970SOL    HW2 2910   1.948   2.690   1.391 -1.2521  0.4604 -2.3700
  971SOL     OW 2911   2.242   2.346   0.808 -0.6295  0.2894  0.4434
  971SOL    HW1 2912   2.247   2.443   0.834 -2.7635  0.8877 -1.0924
  971SOL    HW2 2913   2.321   2.296   0.844 -2.3928 -0.4894  0.2034
  972SOL     OW 2914   0.206   1.053   2.358 -0.1315 -0.2796  0.1778
  972SOL    HW1 2915   0.199   1.041   2.254 -0.4662 -0.3188 -2.4934
  972SOL    HW2 2916   0.243   1.143   2.386 -2.2366  0.4187 -1.5625
  973SOL     OW 2917   0.552   3.102   0.244 -0.5323 -0.1546  0.5245
  973SOL    HW1 2918   0.625   0.067   0.233 -0.7077  1.0295 -2.0958
  973SOL    HW2 2919   0.464   0.039   0.275 -2.7215  1.3790  3.4171
  974SOL     OW 2920   2.500   0.843   1.885 -0.2024 -0.1947  0.5707
  974SOL    HW1 2921   2.412   0.830   1.830 -2.9158  0.6909  0.9566
  974SOL    HW2 2922   2.484   0.904   1.961  2.1254 -0.4623 -1.9043
  975SOL     OW 2923   3.085   2.990   0.528  0.7375  0.8545 -0.1543
  975SOL    HW1 2924   2.984   2.984   0.504 -3.9743  0.0688  1.8434
  975SOL    HW2 2925   0.018   2.895   0.543 -0.8463  0.4731 -1.2418
  976SOL     OW 2926   0.068   1.775   1.070  0.2454 -0.3446 -0.1922
  976SOL    HW1 2927   0.041   1.807   1.163  0.3403 -0.4208  0.8531
  976SOL    HW2 2928   0.010   1.698   1.040  0.5719  0.1218 -0.3937
  977SOL     OW 2929   0.986   1.825   0.585  0.3473 -0.4638 -0.3687
  977SOL    HW1 2930   0.923   1.778   0.515  0.1248  1.2057 -0.2188
  977SOL    HW2 2931   0.973   1.927   0.573  0.6928  1.3963 -1.9822
  978SOL     OW 2932   0.337   0.764   0.235  0.2506 -0.1722 -0.3510
  978SOL    HW1 2933   0.325   0.689   0.162 -0.7334 -2.2612 -3.9449
  978SOL    HW2 2934   0.251   0.804   0.260  4.8995 -0.0065 -0.2031
  979SOL     OW 2935   1.816   1.694   0.796  0.1559 -0.1514  0.1204
  979SOL    HW1 2936   1.917   1.680   0.785  0.6444 -0.0690 -0.0875
  979SOL    HW2 2937   1.786   1.668   0.890 -1.5459  1.4253  1.0118
  980SOL     OW 2938   0.477   1.855   1.859 -0.5618  0.1874 -0.4733
  980SOL    HW1 2939   0.563   1.837   1.915  3.2468 -1.5161  2.4811
  980SOL    HW2 2940   0.502   1.881   1.766 -4.4781 -2.7166  1.0288
  981SOL     OW 2941   2.050   1.169   2.840  0.0147  0.2401  0.4246
  981SOL    HW1 2942   2.011   1.252   2.886 -0.3087 -1.7681 -0.5272
  981SOL    HW2 2943   2.128   1.189   2.776  2.2274 -0.3925 -0.2584
  982SOL     OW 2944   3.019   2.683   1.914  0.2234 -0.2946 -0.0069
  982SOL    HW1 2945   2.935   2.727   1.944  0.2161 -0.1007 -1.3348
  982SOL    HW2 2946   3.069   2.730   1.834 -0.2601 -0.5949 -2.1273
  983SOL     OW 2947   1.623   0.175   1.773 -0.4711  0.0729 -0.1504
  983SOL    HW1 2948   1.563   0.257   1.754 -0.3648  2.0195  1.4174
  983SOL    HW2 2949   1.570   0.094   1.796 -0.1567  3.1669  1.2428
  984SOL     OW 2950   2.092   2.943   2.959  0.7550  0.3110 -0.0162
  984SOL    HW1 2951   2.152   2.946   2.876  1.9576  0.0653  0.7653
  984SOL    HW2 2952   2.009   3.002   2.944 -2.5386  1.5431 -1.1803
  985SOL     OW 2953   1.634   1.508   1.843  0.1077 -0.1535  0.3964
  985SOL    HW1 2954   1.596   1.431   1.785 -1.5309 -2.0517 -2.5174
  985SOL    HW2 2955   1.647   1.475   1.939 -0.3792  0.5323 -0.7513
  986SOL     OW 2956   2.075   2.667   2.408  0.1060  0.5798  0.0868
  986SOL    HW1 2957   2.087   2.716   2.497 -1.2054  0.2137 -0.7152
  986SOL    HW2 2958   2.027   2.574   2.428  0.4925 -1.0872 -0.2230
  987SOL     OW 2959   2.914   1.735   2.738 -0.1422 -0.2657 -0.8355
  987SOL    HW1 2960   2.899   1.651   2.692  2.4065  0.8603  0.9631
  987SOL    HW2 2961   2.905   1.816   2.677 -0.3401 -0.9468  0.6222
  988SOL     OW 2962   3.098   0.906   1.416 -0.2754 -0.0122 -0.2093
  988SOL    HW1 2963   3.077   0.944   1.512 -1.1258  1.7746  1.6120
  988SOL    HW2 2964   3.029   0.942   1.349 -0.4155  0.8500 -1.8714
  989SOL     OW 2965   1.913   1.093   1.291  0.0771 -0.6060 -0.1486
  989SOL    HW1 2966   1.941   1.035   1.206 -0.0306 -1.2299 -3.0255
  989SOL    HW2 2967   1.921   1.035   1.373 -1.1076  0.4683 -1.3271
  990SOL     OW 2968   2.666   0.664   0.068  0.6921 -0.6919 -0.7764
  990SOL    HW1 2969   2.677   0.751   0.016  0.8349  0.5131  1.2768
  990SOL    HW2 2970   2.755   0.613   0.072 -2.8734 -0.0348 -0.4727
  991SOL     OW 2971   0.497   1.727   0.076 -0.0748 -0.0915 -0.2309
  991SOL    HW1 2972   0.475   1.803   0.011 -0.6869  1.2146  3.0841
  991SOL    HW2 2973   0.505   1.768   0.170 -1.1411 -1.1275 -0.0215
  992SOL     OW 2974   2.355   1.544   1.699 -0.2010  0.5030  0.0878
  992SOL    HW1 2975   2.278   1.533   1.764 -1.3118 -0.3745 -0.4749
  992SOL    HW2 2976   2.440   1.589   1.733 -0.4705 -0.0908 -0.6957
  993SOL     OW 2977   0.631   2.795   0.758 -0.2156  0.2740 -0.9489
  993SOL    HW1 2978   0.709   2.851   0.725  0.2357  1.0772  0.8071
  993SOL    HW2 2979   0.645   2.693   0.756 -0.4290  0.2012  3.8286
  994SOL     OW 2980   2.505   2.200   1.482 -0.2554 -0.2385 -0.3838
  994SOL    HW1 2981   2.562   2.197   1.567 -3.5281  0.4600 -1.6662
  994SOL    HW2 2982   2.530   2.120   1.427  0.1024  1.6220  1.0025
  995SOL     OW 2983   1.942   1.851   2.283  0.1448  0.5113  0.3055
  995SOL    HW1 2984   1.957   1.950   2.268 -0.8820  0.4071  1.5198
  995SOL    HW2 2985   1.934   1.795   2.195 -1.1286 -1.9942 -0.2923
  996SOL     OW 2986   1.901   1.702   3.004 -0.2316  0.2167 -0.0769
  996SOL    HW1 2987   1.818   1.762   2.997 -2.0950 -0.0675 -0.0611
  996SOL    HW2 2988   1.951   1.716   3.090 -0.7942  1.4050 -2.4530
  997SOL     OW 2989   1.371   1.380   2.510  1.0093 -0.4464 -0.5058
  997SOL    HW1 2990   1.314   1.357   2.430 -0.0528  0.1880  0.8493
  997SOL    HW2 2991   1.372   1.481   2.528 -2.4363 -1.2879 -0.5105
  998SOL     OW 2992   2.966   2.479   0.742  0.2397 -0.2049 -0.2930
  998SOL    HW1 2993   3.019   2.435   0.662  2.3938  1.1693 -1.5452
  998SOL    HW2 2994   3.026   2.502   0.823  1.3215  2.8545  2.0635
  999SOL     OW 2995   0.312   2.773   0.483  0.8063  0.1745 -0.2731
  999SOL    HW1 2996   0.353   2.685   0.508 -0.4096 -0.7922 -1.5116
  999SOL    HW2 2997   0.378   2.851   0.493  0.0072  1.3214  0.3707
 1000SOL     OW 2998   1.061   0.050   3.030 -0.0531 -0.0366  0.1507
 1000SOL    HW1 2999   1.021   3.088   3.089 -0.7845  1.2261  1.5275
 1000SOL    HW2 3000   0.991   0.100   2.972  0.7942 -2.3802  2.6699
   3.10722   3.10722   3.10722
