1000 SPC/Fw water molecules t=  71.00000 step= 71000
 3000
    1SOL     OW    1   2.058   2.717   0.831 -0.8748 -0.5443 -0.1012
    1SOL    HW1    2   1.979   2.738   0.772  0.2346  0.8716  1.5491
    1SOL    HW2    3   2.149   2.756   0.797  2.0075  1.1603 -0.7599
    2SOL     OW    4   0.930   1.269   2.494  0.0945 -0.5430 -0.7303
    2SOL    HW1    5   0.845   1.260   2.554 -0.0673 -0.0555 -1.7464
    2SOL    HW2    6   0.959   1.367   2.484 -0.2927  2.5714 -0.8424
    3SOL     OW    7   1.482   2.736   2.545 -0.3959  0.1363  0.3046
    3SOL    HW1    8   1.514   2.784   2.629  1.4996 -0.2324  0.7260
    3SOL    HW2    9   1.502   2.637   2.561 -0.0030  0.4208 -1.9080
    4SOL     OW   10   1.109   1.901   2.845 -0.0392  0.3127 -0.2559
    4SOL    HW1   11   1.181   1.941   2.783  0.6505 -0.0461 -1.9022
    4SOL    HW2   12   1.157   1.852   2.921  0.2369  0.6971 -2.7897
    5SOL     OW   13   0.654   0.701   1.816  0.2695 -0.2292 -0.4146
    5SOL    HW1   14   0.715   0.758   1.759  0.3833 -1.7622 -0.5243
    5SOL    HW2   15   0.655   0.736   1.911  1.1786 -0.8301 -0.0298
    6SOL     OW   16   1.716   0.644   2.609  0.2119 -0.1842 -0.0067
    6SOL    HW1   17   1.729   0.703   2.526  2.4543  1.1682  1.3547
    6SOL    HW2   18   1.724   0.549   2.570  0.6344 -0.0905 -0.4596
    7SOL     OW   19   0.267   0.358   1.603  0.0418 -0.1130  0.1115
    7SOL    HW1   20   0.180   0.379   1.557 -0.8831 -0.6788  1.7519
    7SOL    HW2   21   0.264   0.347   1.706  1.1152  0.1393 -2.9839
    8SOL     OW   22   1.950   0.034   1.992  0.3876  0.1266  0.4300
    8SOL    HW1   23   1.856   3.101   1.991  1.9560 -0.6686 -0.0743
    8SOL    HW2   24   1.953   0.117   1.928  0.9918 -0.0883  0.6110
    9SOL     OW   25   0.176   2.939   0.567  0.0433  0.0436  0.2711
    9SOL    HW1   26   0.179   3.035   0.607 -0.0305  1.8781  0.5559
    9SOL    HW2   27   0.153   2.941   0.465  1.0699 -2.5690 -2.7345
   10SOL     OW   28   0.605   2.274   2.294 -0.2577 -0.0351  0.6120
   10SOL    HW1   29   0.673   2.343   2.265  3.3398  0.5808  1.4615
   10SOL    HW2   30   0.542   2.256   2.218 -1.5434  0.8966  2.2098
   11SOL     OW   31   0.556   1.636   0.163  0.0547 -0.3547  0.6700
   11SOL    HW1   32   0.538   1.554   0.101  0.6681 -3.1077  0.6017
   11SOL    HW2   33   0.540   1.618   0.260  3.5309  0.6498  1.7870
   12SOL     OW   34   3.023   2.982   1.380  0.1511  0.3262  0.0731
   12SOL    HW1   35   2.953   2.980   1.300  0.7216 -0.5388 -0.2487
   12SOL    HW2   36   3.037   2.884   1.410 -1.4760  0.9464  0.3909
   13SOL     OW   37   0.775   2.880   0.441  0.2071 -0.1302  0.3063
   13SOL    HW1   38   0.830   2.891   0.358 -2.3585 -0.4871 -2.0315
   13SOL    HW2   39   0.681   2.845   0.416 -1.2990  1.6039 -0.6849
   14SOL     OW   40   1.575   1.752   1.429  0.0155  0.1031 -0.1340
   14SOL    HW1   41   1.484   1.709   1.441  2.1428  1.8544 -2.3753
   14SOL    HW2   42   1.639   1.696   1.372  0.1996 -1.2991  0.0112
   15SOL     OW   43   0.445   1.880   2.396  0.2472 -0.3324  0.1405
   15SOL    HW1   44   0.535   1.928   2.400  1.2264  1.2395  1.0751
   15SOL    HW2   45   0.399   1.895   2.483  0.4716 -0.4148 -1.5352
   16SOL     OW   46   1.530   0.507   2.764  0.1039  0.4990  0.0529
   16SOL    HW1   47   1.557   0.585   2.705 -0.9691 -1.7915  0.4973
   16SOL    HW2   48   1.522   0.535   2.861  0.2968 -0.7763 -0.3544
   17SOL     OW   49   3.047   2.413   2.383 -0.1523 -0.2398 -0.0047
   17SOL    HW1   50   0.007   2.464   2.436 -0.0972 -1.3449  0.2307
   17SOL    HW2   51   3.094   2.352   2.316  2.4946 -0.0930 -0.5212
   18SOL     OW   52   1.159   1.285   0.820 -0.3493  0.1383  0.4623
   18SOL    HW1   53   1.142   1.383   0.817 -0.8462 -3.8560  2.9772
   18SOL    HW2   54   1.137   1.257   0.918 -1.1447  0.8933 -0.4557
   19SOL     OW   55   2.722   2.053   2.413  0.2242 -0.5265 -0.3020
   19SOL    HW1   56   2.804   2.005   2.381 -1.8531 -1.8775  0.0394
   19SOL    HW2   57   2.745   2.099   2.500  0.3875  1.2112 -0.6196
   20SOL     OW   58   2.295   2.279   2.406 -0.5606 -0.3814 -0.3930
   20SOL    HW1   59   2.371   2.341   2.419  1.0719 -1.8332 -2.2049
   20SOL    HW2   60   2.217   2.309   2.467 -0.4867  1.0246 -0.2276
   21SOL     OW   61   1.346   1.833   0.316 -0.1762  0.6439  0.5196
   21SOL    HW1   62   1.308   1.744   0.355  0.9823 -0.2760  1.7484
   21SOL    HW2   63   1.365   1.902   0.383 -0.0712 -1.7609 -1.6670
   22SOL     OW   64   2.190   2.280   1.530  0.2794  0.3848  0.3492
   22SOL    HW1   65   2.241   2.371   1.525 -0.1201  0.8122  0.2876
   22SOL    HW2   66   2.106   2.283   1.593  2.1143 -0.2724  0.4226
   23SOL     OW   67   3.022   1.095   1.252  0.1111  0.1203  0.0943
   23SOL    HW1   68   3.108   1.132   1.299  2.3141 -0.1348  1.5422
   23SOL    HW2   69   3.049   1.036   1.173 -0.2238 -0.9613 -1.3283
   24SOL     OW   70   2.506   1.442   1.963 -0.0069 -0.2751 -0.5351
   24SOL    HW1   71   2.554   1.433   1.873  2.9670  1.4972 -1.0136
   24SOL    HW2   72   2.571   1.484   2.027  0.6631 -0.0767  0.7633
   25SOL     OW   73   1.936   0.230   2.215  0.2834 -0.0919  0.0825
   25SOL    HW1   74   2.011   0.273   2.266 -1.0644 -2.3443  0.2575
   25SOL    HW2   75   1.966   0.179   2.129 -0.8934 -3.4892 -2.8725
   26SOL     OW   76   0.953   0.065   0.558  0.0230  0.1383 -0.0894
   26SOL    HW1   77   0.936   0.063   0.457 -0.1317  2.0851  3.5466
   26SOL    HW2   78   1.039   0.102   0.585 -2.0834 -2.5568  0.8014
   27SOL     OW   79   0.895   1.588   0.602 -0.6076  0.2247 -0.1642
   27SOL    HW1   80   0.812   1.639   0.562  0.3969  2.1366 -0.7274
   27SOL    HW2   81   0.859   1.542   0.685  1.1766 -0.0036  0.3886
   28SOL     OW   82   2.413   2.015   1.128  0.2800  0.1759  0.8054
   28SOL    HW1   83   2.381   1.944   1.189  1.8720  2.7500 -0.7435
   28SOL    HW2   84   2.372   2.105   1.143  1.3322  1.5742 -0.2160
   29SOL     OW   85   2.214   3.089   1.617  0.4510  0.4531  0.5285
   29SOL    HW1   86   2.138   3.019   1.608 -2.4856 -0.3142 -1.1892
   29SOL    HW2   87   2.255   3.070   1.710 -0.2242 -0.1942  0.7661
   30SOL     OW   88   0.795   3.049   1.174 -0.1130  0.4691  0.6222
   30SOL    HW1   89   0.788   2.951   1.182  1.0486  1.5581  0.6881
   30SOL    HW2   90   0.834   3.085   1.260 -0.3618 -0.6416 -3.3120
   31SOL     OW   91   0.002   1.937   1.886  0.3642 -0.1393  0.0090
   31SOL    HW1   92   0.021   1.850   1.841  1.0372  0.2190 -0.0009
   31SOL    HW2   93   3.015   1.953   1.901  1.2920 -2.1961 -1.2464
   32SOL     OW   94   1.443   1.621   2.029 -0.1741  0.4308  0.0477
   32SOL    HW1   95   1.434   1.712   1.980  1.7685  0.6829 -0.4758
   32SOL    HW2   96   1.528   1.573   1.995 -1.3808  1.2518 -0.1443
   33SOL     OW   97   0.352   0.111   2.911  0.1344  0.1054  0.2682
   33SOL    HW1   98   0.310   0.204   2.909  1.8622 -0.0629 -0.7920
   33SOL    HW2   99   0.436   0.109   2.848  2.2553  0.8370 -3.2807
   34SOL     OW  100   2.614   3.017   0.489  0.8016  0.0547  0.4839
   34SOL    HW1  101   2.572   3.061   0.574  0.4487  2.0111  1.7076
   34SOL    HW2  102   2.603   2.913   0.489  0.0344 -0.2072  0.6063
   35SOL     OW  103   2.738   0.201   1.453  0.9704 -0.2749  0.1761
   35SOL    HW1  104   2.712   0.276   1.519 -2.4888  1.8366  0.0689
   35SOL    HW2  105   2.658   0.177   1.393  0.6864  0.4079  1.2452
   36SOL     OW  106   2.673   2.758   2.562  0.9889  0.0844 -0.1755
   36SOL    HW1  107   2.587   2.811   2.553 -0.6326 -0.7624 -0.3630
   36SOL    HW2  108   2.722   2.748   2.471 -0.1002  0.4012  3.2174
   37SOL     OW  109   1.666   2.641   3.000  0.1552 -0.2230 -0.0782
   37SOL    HW1  110   1.658   2.739   3.029  0.5285 -2.2414 -0.9071
   37SOL    HW2  111   1.596   2.584   3.043  3.1638  1.3998  1.9255
   38SOL     OW  112   2.981   1.055   3.094 -0.1095  0.3438  0.2291
   38SOL    HW1  113   2.905   0.991   0.002  0.1446 -0.6633 -3.6131
   38SOL    HW2  114   3.048   1.067   0.057 -1.3375 -0.4102 -2.2433
   39SOL     OW  115   1.880   1.760   2.073  0.3432 -0.4382  0.2856
   39SOL    HW1  116   1.839   1.848   2.106 -1.0209  0.8855 -0.3414
   39SOL    HW2  117   1.822   1.684   2.115 -0.3847 -1.5579  1.5767
   40SOL     OW  118   0.165   0.296   2.532  0.1607 -0.2888  0.3074
   40SOL    HW1  119   0.097   0.258   2.598  1.4902 -0.0339 -2.1281
   40SOL    HW2  120   0.252   0.315   2.580  0.2552 -0.0077 -2.2793
   41SOL     OW  121   1.774   1.443   1.890  0.2363  0.2767  0.4068
   41SOL    HW1  122   1.769   1.452   1.989  3.3249 -0.8511 -3.6136
   41SOL    HW2  123   1.687   1.461   1.847  1.3248 -0.4690 -0.8596
   42SOL     OW  124   3.012   0.252   1.675 -0.5720  0.2810  0.7194
   42SOL    HW1  125   2.939   0.187   1.644  0.4968  2.9872  0.7465
   42SOL    HW2  126   3.060   0.302   1.600  0.0076 -2.4211 -2.0303
   43SOL     OW  127   1.379   1.138   2.005  0.5321 -0.4585 -0.0288
   43SOL    HW1  128   1.380   1.089   1.917  2.0885 -0.3398 -1.3415
   43SOL    HW2  129   1.337   1.087   2.079  1.0679  1.5298  0.6801
   44SOL     OW  130   0.113   0.182   0.060  0.2042  0.0370 -0.6460
   44SOL    HW1  131   0.183   0.172   0.135  1.9483 -0.5721  1.4130
   44SOL    HW2  132   0.099   0.096   0.006  0.2397 -0.0714  1.4621
   45SOL     OW  133   0.340   2.087   1.004  0.4672 -0.4990  0.1848
   45SOL    HW1  134   0.319   2.068   1.101  1.6961  1.2570 -2.5994
   45SOL    HW2  135   0.338   1.994   0.957 -2.3035 -0.6832  0.3170
   46SOL     OW  136   2.517   2.864   1.761 -0.5364 -0.0720  0.2871
   46SOL    HW1  137   2.490   2.954   1.790  2.0619 -1.7618 -2.4470
   46SOL    HW2  138   2.462   2.786   1.794  0.3190  2.1615 -1.8440
   47SOL     OW  139   0.658   1.592   1.145  0.2331 -0.1782 -0.0242
   47SOL    HW1  140   0.702   1.506   1.145 -1.5407 -1.5101 -2.4839
   47SOL    HW2  141   0.659   1.640   1.055  0.2343 -0.7674 -1.9635
   48SOL     OW  142   0.604   2.603   0.233 -0.1074 -0.4848 -0.5120
   48SOL    HW1  143   0.568   2.694   0.206  0.8005 -1.0532 -1.7154
   48SOL    HW2  144   0.630   2.606   0.334  1.4471 -1.3785  2.1864
   49SOL     OW  145   2.944   1.553   1.727 -0.3962 -0.3021 -0.0805
   49SOL    HW1  146   2.944   1.564   1.833 -0.5471  0.7034  1.5364
   49SOL    HW2  147   2.949   1.454   1.701 -0.6338  1.7180 -0.1651
   50SOL     OW  148   1.642   0.358   0.547 -0.4113 -0.6596 -0.3391
   50SOL    HW1  149   1.712   0.386   0.479 -1.4239 -0.7253  1.4505
   50SOL    HW2  150   1.641   0.414   0.631 -0.4694 -1.3614  0.9648
   51SOL     OW  151   1.199   0.513   1.062 -0.2677  0.2668  0.5927
   51SOL    HW1  152   1.199   0.604   1.010 -0.1349  3.0411 -0.5129
   51SOL    HW2  153   1.099   0.497   1.092 -2.2429 -1.7442  1.7293
   52SOL     OW  154   0.823   1.180   0.456 -0.2093 -0.6866 -0.1038
   52SOL    HW1  155   0.752   1.131   0.399 -2.1961  2.5220  0.4716
   52SOL    HW2  156   0.781   1.203   0.548  0.0531  2.2375 -2.1853
   53SOL     OW  157   1.230   3.038   2.438  0.6648 -0.2816  0.3587
   53SOL    HW1  158   1.303   3.054   2.506  0.2060 -0.5923 -1.4616
   53SOL    HW2  159   1.207   2.937   2.434 -1.5251  0.3603  1.1528
   54SOL     OW  160   1.791   0.760   1.830  0.5232 -0.0795  0.2869
   54SOL    HW1  161   1.748   0.768   1.737 -0.0724  1.3913  1.4828
   54SOL    HW2  162   1.893   0.752   1.822 -0.3846  0.4870  1.9110
   55SOL     OW  163   2.923   2.796   0.455 -0.2969  0.4386 -0.5455
   55SOL    HW1  164   3.008   2.746   0.451 -2.6418  1.0993 -1.3893
   55SOL    HW2  165   2.852   2.733   0.431 -0.9658 -0.7747 -0.4498
   56SOL     OW  166   1.166   2.628   1.625  0.4117  0.1834  0.4226
   56SOL    HW1  167   1.076   2.612   1.660  1.2916  0.5369 -0.0199
   56SOL    HW2  168   1.165   2.704   1.560  0.3544  0.4657  0.8967
   57SOL     OW  169   1.614   0.984   2.593  0.0970 -0.0664  0.4117
   57SOL    HW1  170   1.603   0.994   2.693  2.7760 -0.5028 -0.3349
   57SOL    HW2  171   1.547   0.916   2.560  1.0202  2.9403  1.1822
   58SOL     OW  172   0.378   1.207   2.129 -0.3568  0.5352  0.3264
   58SOL    HW1  173   0.409   1.166   2.217  4.0039 -0.8816  4.0062
   58SOL    HW2  174   0.355   1.134   2.054 -1.8719 -0.1545 -1.4831
   59SOL     OW  175   0.821   2.426   1.946  0.1555 -0.0862  0.2090
   59SOL    HW1  176   0.773   2.338   1.930 -1.0978 -1.2836 -0.1232
   59SOL    HW2  177   0.803   2.458   2.039 -0.3126 -2.0476 -0.7062
   60SOL     OW  178   2.525   2.463   0.280 -0.0619 -0.4986 -0.2983
   60SOL    HW1  179   2.569   2.371   0.265  0.6399  0.0977 -0.8110
   60SOL    HW2  180   2.506   2.510   0.191 -0.3349 -2.7507 -0.1032
   61SOL     OW  181   1.112   2.705   0.740  0.2461 -0.5139  0.5135
   61SOL    HW1  182   1.134   2.640   0.664  0.1684  1.2628  1.7353
   61SOL    HW2  183   1.050   2.775   0.713  2.6355 -3.9855  0.6703
   62SOL     OW  184   1.769   2.367   2.657 -0.3115  0.0204 -0.3090
   62SOL    HW1  185   1.791   2.330   2.566  1.0721  0.2754 -0.5267
   62SOL    HW2  186   1.766   2.291   2.724 -1.7425  0.4024 -0.6544
   63SOL     OW  187   2.041   0.663   2.999 -0.0457  0.1087  0.5728
   63SOL    HW1  188   2.086   0.693   2.912  0.4140  1.1048  0.3795
   63SOL    HW2  189   2.093   0.700   3.082  0.8450 -0.1435 -0.2086
   64SOL     OW  190   1.146   1.462   3.020 -0.5308  0.4298  0.6347
   64SOL    HW1  191   1.132   1.440   2.920 -1.4734 -0.9605 -2.7877
   64SOL    HW2  192   1.053   1.483   3.052 -4.4042  2.1915  1.7697
   65SOL     OW  193   0.891   0.054   1.421 -0.3290  0.3793  0.3111
   65SOL    HW1  194   0.990   0.018   1.426  1.8725 -1.3140  1.2467
   65SOL    HW2  195   0.891   0.154   1.428  0.2455 -1.4250  0.2389
   66SOL     OW  196   0.621   1.227   1.484  0.0984  0.2296 -0.6737
   66SOL    HW1  197   0.596   1.145   1.538  0.5025  1.2148  0.6784
   66SOL    HW2  198   0.713   1.254   1.517  1.5098 -2.0351  1.6072
   67SOL     OW  199   2.471   2.509   1.823 -0.4563 -0.1213 -0.6673
   67SOL    HW1  200   2.493   2.526   1.923  0.2145 -2.6613  0.0772
   67SOL    HW2  201   2.553   2.526   1.767 -1.4370  2.1403 -0.4758
   68SOL     OW  202   0.928   1.077   2.004 -0.0893 -0.1399  0.0332
   68SOL    HW1  203   0.918   1.062   2.108  0.6957 -0.7466 -0.9382
   68SOL    HW2  204   0.839   1.113   1.973  0.5725  0.4488  1.6944
   69SOL     OW  205   2.721   2.635   3.043 -0.2901 -0.3682  0.1267
   69SOL    HW1  206   2.775   2.717   3.067  0.7033 -0.1428  0.7381
   69SOL    HW2  207   2.626   2.646   3.065  2.2482  0.2206  0.1452
   70SOL     OW  208   2.341   0.650   2.654  0.5905 -0.2377 -0.0975
   70SOL    HW1  209   2.415   0.601   2.701 -2.0808 -1.4979 -0.5431
   70SOL    HW2  210   2.359   0.752   2.670  0.1919  1.9204  0.9096
   71SOL     OW  211   0.015   2.152   0.468 -0.0228 -0.3744  0.5184
   71SOL    HW1  212   3.077   2.082   0.409 -2.9561 -1.0101 -0.6515
   71SOL    HW2  213   0.069   2.204   0.400  0.3162 -1.7233  0.1159
   72SOL     OW  214   2.993   1.977   0.252  0.5050 -0.5600  0.4358
   72SOL    HW1  215   3.022   1.898   0.196 -3.8363  1.1803  0.0536
   72SOL    HW2  216   2.994   2.059   0.192 -0.5367 -0.7998  0.2743
   73SOL     OW  217   0.921   0.633   0.786  0.7260  0.2666 -0.2482
   73SOL    HW1  218   1.018   0.632   0.749 -0.8497  0.7369  2.5796
   73SOL    HW2  219   0.915   0.685   0.874 -0.2852 -1.4229  0.1378
   74SOL     OW  220   2.754   2.319   2.067  0.4343  0.3916  0.0206
   74SOL    HW1  221   2.718   2.228   2.037  1.6710  2.2815 -2.2106
   74SOL    HW2  222   2.822   2.358   1.998 -1.2434  1.7305  0.9031
   75SOL     OW  223   1.812   1.808   1.798 -0.2697 -0.3307  0.1008
   75SOL    HW1  224   1.813   1.792   1.896 -2.0668  0.3625 -3.3830
   75SOL    HW2  225   1.719   1.795   1.759 -0.6296  1.2472 -1.3532
   76SOL     OW  226   1.229   2.071   1.123  0.4758  0.7125 -0.1730
   76SOL    HW1  227   1.314   2.044   1.173 -1.9712  0.3073  1.1088
   76SOL    HW2  228   1.169   1.988   1.114 -0.7356  1.6312  0.5030
   77SOL     OW  229   2.963   1.610   1.993  0.2062  0.6435  0.3958
   77SOL    HW1  230   3.010   1.529   2.039  0.1157  0.5126  3.3894
   77SOL    HW2  231   2.915   1.669   2.063 -0.4499  1.2741 -1.9319
   78SOL     OW  232   1.579   0.493   0.792  0.1069  0.1608  0.1227
   78SOL    HW1  233   1.493   0.451   0.825 -2.0108 -0.0965 -1.0013
   78SOL    HW2  234   1.588   0.586   0.835  0.4268 -1.6530 -0.3700
   79SOL     OW  235   2.083   1.475   1.757  0.1393  0.2598  0.9487
   79SOL    HW1  236   2.151   1.429   1.822  2.3766 -0.3870  1.3589
   79SOL    HW2  237   1.984   1.465   1.785 -0.1745 -0.9041 -1.2542
   80SOL     OW  238   1.150   0.275   1.283  0.0768 -0.1126  0.1250
   80SOL    HW1  239   1.142   0.373   1.248 -0.5819  0.9328  2.4574
   80SOL    HW2  240   1.199   0.267   1.374  0.6778 -2.1770  0.6080
   81SOL     OW  241   0.845   2.449   0.747 -0.0509 -0.3288 -0.6083
   81SOL    HW1  242   0.844   2.482   0.651 -1.2506  1.3380  0.1044
   81SOL    HW2  243   0.900   2.362   0.754  0.3314  0.3742 -1.2274
   82SOL     OW  244   1.396   0.604   1.796 -0.5787  0.5703  0.3222
   82SOL    HW1  245   1.485   0.584   1.840 -0.5855  1.4118 -0.6711
   82SOL    HW2  246   1.316   0.584   1.857  0.8191  0.7914 -2.3727
   83SOL     OW  247   0.296   2.341   0.580  0.2818 -0.1768 -0.2906
   83SOL    HW1  248   0.234   2.319   0.504  1.5844 -1.1989  3.1636
   83SOL    HW2  249   0.259   2.310   0.668 -0.6106 -0.1954 -1.9132
   84SOL     OW  250   2.761   1.551   0.055 -0.3131  0.1477 -0.3660
   84SOL    HW1  251   2.835   1.544   3.097  0.0560 -2.2524 -1.2195
   84SOL    HW2  252   2.670   1.548   0.006  0.4094 -1.3226  2.2952
   85SOL     OW  253   2.916   2.347   1.672  0.1758 -0.7500  0.5731
   85SOL    HW1  254   2.831   2.296   1.651  0.8271  0.2656 -0.8028
   85SOL    HW2  255   2.937   2.348   1.774 -0.8611  1.5008  2.0333
   86SOL     OW  256   1.695   2.782   1.241 -0.6996 -0.0768  0.0054
   86SOL    HW1  257   1.784   2.735   1.247  1.1495  0.1581 -1.9917
   86SOL    HW2  258   1.698   2.872   1.194 -1.7229  0.0740 -0.4543
   87SOL     OW  259   2.811   1.755   0.243 -0.5387 -0.7918  0.0018
   87SOL    HW1  260   2.721   1.794   0.251 -0.8138  1.7990  0.6290
   87SOL    HW2  261   2.809   1.679   0.176 -0.7702  1.2916  0.4699
   88SOL     OW  262   0.936   0.432   1.123 -0.2606  0.4513 -0.1201
   88SOL    HW1  263   0.856   0.490   1.136  1.9353 -0.9249 -0.5971
   88SOL    HW2  264   0.912   0.345   1.079  0.7850 -0.5207  0.4552
   89SOL     OW  265   0.785   2.926   1.773 -0.5086  0.2580 -0.2191
   89SOL    HW1  266   0.718   2.977   1.828  0.7404 -2.3918  0.1385
   89SOL    HW2  267   0.775   2.826   1.786 -1.8217 -0.7121  0.8961
   90SOL     OW  268   3.061   1.632   1.053  0.0404 -0.4943  0.0232
   90SOL    HW1  269   2.969   1.613   1.020  1.8118 -0.3178  3.3421
   90SOL    HW2  270   3.073   1.734   1.066 -0.7706 -0.7396 -0.3795
   91SOL     OW  271   1.392   1.840   1.180 -0.2620  0.2164 -0.4078
   91SOL    HW1  272   1.434   1.785   1.259  1.6450 -0.8150 -2.3978
   91SOL    HW2  273   1.306   1.810   1.146  2.8067  0.3945  1.6159
   92SOL     OW  274   2.837   3.074   1.839  0.5941  0.2566 -0.3971
   92SOL    HW1  275   2.759   0.027   1.862  0.9312  2.1710 -0.9690
   92SOL    HW2  276   2.851   3.079   1.743 -1.7175  0.9285  3.2742
   93SOL     OW  277   0.113   1.280   2.720 -0.4604 -0.2849  0.0019
   93SOL    HW1  278   0.088   1.237   2.810 -1.7334 -0.8800 -0.4894
   93SOL    HW2  279   0.196   1.240   2.680 -0.9177  2.3047  1.0410
   94SOL     OW  280   2.424   3.097   1.856  0.2310  0.2337 -0.1464
   94SOL    HW1  281   2.382   3.072   1.947 -1.4174 -0.2767  0.4239
   94SOL    HW2  282   2.494   0.057   1.868 -1.4229 -1.1588 -0.6016
   95SOL     OW  283   1.636   0.979   2.221  0.0872 -0.0882 -0.1881
   95SOL    HW1  284   1.537   0.984   2.249  0.4656  0.3244  1.3773
   95SOL    HW2  285   1.647   0.965   2.117  1.0542 -0.4162 -2.2384
   96SOL     OW  286   2.716   0.755   1.840  0.6333 -0.0393  0.3424
   96SOL    HW1  287   2.813   0.776   1.862 -1.2351  1.6283 -0.1833
   96SOL    HW2  288   2.692   0.799   1.751 -1.7313  1.5010  1.3161
   97SOL     OW  289   2.281   0.068   1.334 -0.1079 -0.4036 -0.6197
   97SOL    HW1  290   2.240   0.007   1.265  0.9773 -0.7300  1.2697
   97SOL    HW2  291   2.258   0.041   1.430 -0.8697 -2.1227  0.6890
   98SOL     OW  292   2.268   2.601   1.423  0.2149  0.1624 -0.1141
   98SOL    HW1  293   2.337   2.679   1.434 -0.4697 -1.4070  0.4895
   98SOL    HW2  294   2.180   2.631   1.463 -1.0085  0.8124 -1.0060
   99SOL     OW  295   2.757   0.313   1.725  0.2422  0.6718  0.3013
   99SOL    HW1  296   2.740   0.396   1.776  1.4671  0.2849  0.4701
   99SOL    HW2  297   2.855   0.299   1.698  1.2982  0.0655  0.0741
  100SOL     OW  298   2.351   1.718   1.948  0.5352  1.0926  0.3651
  100SOL    HW1  299   2.381   1.616   1.954  1.1059 -3.4328 -0.7699
  100SOL    HW2  300   2.278   1.733   2.016  0.5802 -0.7197  1.4675
  101SOL     OW  301   2.296   0.078   0.015 -0.3056  0.1257 -0.3004
  101SOL    HW1  302   2.330   3.099   0.051  0.6759  0.4502  2.3451
  101SOL    HW2  303   2.217   0.109   0.063  0.1451 -0.5972 -1.2699
  102SOL     OW  304   0.661   0.581   1.153  0.2360  0.0096  0.2351
  102SOL    HW1  305   0.643   0.484   1.186  1.2936  2.7424 -2.7425
  102SOL    HW2  306   0.569   0.626   1.146 -0.0569  0.7503  2.5782
  103SOL     OW  307   2.772   0.126   2.367  0.2897 -0.1218  0.0481
  103SOL    HW1  308   2.688   0.135   2.421 -2.1370 -1.3631  0.2728
  103SOL    HW2  309   2.765   0.038   2.319  1.0190  1.1009 -0.3802
  104SOL     OW  310   3.056   2.819   1.691  0.1333 -0.0783 -0.1764
  104SOL    HW1  311   2.962   2.820   1.663  3.2920 -2.2750 -0.3789
  104SOL    HW2  312   3.083   2.752   1.760 -1.6206  1.0253 -1.1914
  105SOL     OW  313   1.350   0.983   2.233 -0.1326  0.2051 -0.1921
  105SOL    HW1  314   1.288   1.057   2.258  0.6070  1.2841  1.0333
  105SOL    HW2  315   1.299   0.896   2.234  0.6327  0.5564  0.4618
  106SOL     OW  316   1.857   0.603   0.875 -0.4721  0.2761  0.5221
  106SOL    HW1  317   1.856   0.680   0.940 -0.2252 -1.4186 -0.5199
  106SOL    HW2  318   1.772   0.544   0.884  1.6261 -0.2212 -1.8700
  107SOL     OW  319   0.586   0.905   1.305 -0.1956 -0.2057 -0.3662
  107SOL    HW1  320   0.558   0.830   1.363  0.4897 -0.4483  0.6928
  107SOL    HW2  321   0.672   0.953   1.344  4.3670  1.8264  2.1178
  108SOL     OW  322   2.966   0.575   2.372 -0.5121  0.1393 -0.0672
  108SOL    HW1  323   2.925   0.542   2.280 -1.3315  1.0149 -1.6471
  108SOL    HW2  324   2.923   0.504   2.442 -4.1045 -2.8031 -0.1642
  109SOL     OW  325   1.958   0.038   2.804 -0.3271  0.9110 -0.1665
  109SOL    HW1  326   2.046   0.025   2.849 -1.2383 -0.6120  0.8877
  109SOL    HW2  327   1.959   3.099   2.715  1.1758  2.1962  2.4555
  110SOL     OW  328   0.142   1.710   2.801 -0.0436 -0.0807  0.4381
  110SOL    HW1  329   0.046   1.725   2.765 -0.2935 -1.2637  0.4664
  110SOL    HW2  330   0.160   1.759   2.885  1.1041 -1.5646  0.0925
  111SOL     OW  331   2.700   0.509   2.580  0.2078 -0.4407 -0.5113
  111SOL    HW1  332   2.607   0.482   2.613 -1.5111 -1.6787 -1.1419
  111SOL    HW2  333   2.754   0.430   2.551  0.2831 -0.1277 -0.1283
  112SOL     OW  334   2.669   2.693   1.004  0.7315  0.2630  0.1135
  112SOL    HW1  335   2.713   2.634   1.075  0.1278  1.0704 -1.5808
  112SOL    HW2  336   2.734   2.742   0.948 -1.5171 -0.9563  2.8053
  113SOL     OW  337   2.326   2.291   2.115  0.0155  0.3124 -0.0460
  113SOL    HW1  338   2.322   2.282   2.219  0.8745  0.6402  0.1957
  113SOL    HW2  339   2.399   2.358   2.096 -3.1481  1.0704  1.2008
  114SOL     OW  340   2.750   0.079   0.332 -0.1996 -0.4530 -0.2149
  114SOL    HW1  341   2.699   0.004   0.378  0.6714 -1.5549  0.5530
  114SOL    HW2  342   2.768   0.157   0.394 -0.9354  0.9135  0.8407
  115SOL     OW  343   2.867   1.828   3.042  0.0857  0.7729  0.1200
  115SOL    HW1  344   2.906   1.803   0.021 -0.4013 -2.4959 -1.4428
  115SOL    HW2  345   2.944   1.818   2.978  1.2512 -0.4458  0.7085
  116SOL     OW  346   0.060   1.245   1.815  0.2010  0.7000 -0.2350
  116SOL    HW1  347   0.146   1.260   1.769 -2.0325  2.6745  1.5551
  116SOL    HW2  348   0.056   1.308   1.894  0.1327 -0.1808  0.0243
  117SOL     OW  349   2.157   0.201   1.078 -0.5508  0.2791 -0.0164
  117SOL    HW1  350   2.115   0.112   1.054 -0.1686  1.3837 -0.3757
  117SOL    HW2  351   2.110   0.243   1.158  0.0967 -0.2133  0.1411
  118SOL     OW  352   0.094   2.100   1.702  0.1544  0.4538  0.6314
  118SOL    HW1  353   0.071   2.056   1.788  0.8437 -0.1975 -3.3529
  118SOL    HW2  354   0.194   2.092   1.680  1.4437  0.5912 -0.0931
  119SOL     OW  355   0.886   1.977   1.305 -0.0532 -0.3221  0.0805
  119SOL    HW1  356   0.807   2.041   1.276 -4.5690  2.6016  2.4427
  119SOL    HW2  357   0.839   1.886   1.330  0.3107 -4.2762 -3.8965
  120SOL     OW  358   0.410   1.667   1.166 -0.7418  0.3703 -0.0629
  120SOL    HW1  359   0.383   1.698   1.261 -0.2695 -0.3122  0.9142
  120SOL    HW2  360   0.509   1.636   1.157  0.4654 -0.9796  1.5416
  121SOL     OW  361   2.062   1.324   1.100 -0.5462  0.4478  0.2766
  121SOL    HW1  362   1.962   1.320   1.089  0.0431 -1.4023 -0.1185
  121SOL    HW2  363   2.085   1.365   1.192  0.0549 -0.0157 -3.0082
  122SOL     OW  364   1.929   1.896   2.725  0.3393  0.6123  0.3703
  122SOL    HW1  365   1.955   1.795   2.721 -0.6653 -1.0866 -0.2958
  122SOL    HW2  366   1.936   1.948   2.639  0.1474  0.8650  2.0766
  123SOL     OW  367   2.945   3.017   0.321 -0.0481  0.4150  0.2779
  123SOL    HW1  368   2.874   3.090   0.331  1.0520  1.8232  2.4838
  123SOL    HW2  369   2.932   2.934   0.373 -2.9135  0.8250 -0.7237
  124SOL     OW  370   1.035   1.016   0.304 -0.0139 -0.1242 -0.8771
  124SOL    HW1  371   0.946   1.061   0.318  3.9707 -0.0008 -0.9226
  124SOL    HW2  372   1.035   0.940   0.235  1.2491  1.8452  2.6940
  125SOL     OW  373   0.190   1.402   2.222  0.5497 -0.5242  0.1757
  125SOL    HW1  374   0.205   1.488   2.272  0.3276 -0.9978 -0.1314
  125SOL    HW2  375   0.271   1.346   2.212 -3.1536  0.1843 -0.8803
  126SOL     OW  376   0.034   2.624   0.172  0.5113  0.1442  0.8004
  126SOL    HW1  377   0.101   2.689   0.128  2.9004 -0.0554  0.4797
  126SOL    HW2  378   0.043   2.645   0.271  2.4074 -1.5109 -0.4347
  127SOL     OW  379   2.932   1.677   0.496 -0.4266  0.2032  0.2207
  127SOL    HW1  380   2.890   1.709   0.405 -1.7088  2.4603 -0.8300
  127SOL    HW2  381   2.967   1.584   0.493 -1.1494 -3.2703 -0.9509
  128SOL     OW  382   1.190   1.017   0.710  0.1816 -0.4748 -0.2304
  128SOL    HW1  383   1.166   1.111   0.747 -0.7629 -1.4498  0.4689
  128SOL    HW2  384   1.282   0.993   0.737 -3.5573  0.3309  0.3227
  129SOL     OW  385   2.077   2.159   1.316 -0.1659 -0.5945 -0.3533
  129SOL    HW1  386   2.121   2.214   1.393 -0.6593  0.4134  2.2721
  129SOL    HW2  387   2.002   2.103   1.358 -1.4224  0.9529  2.7266
  130SOL     OW  388   1.909   1.046   0.815 -0.7278  0.0057  0.0759
  130SOL    HW1  389   1.876   1.091   0.730 -1.5760 -0.6917 -1.0757
  130SOL    HW2  390   1.991   1.098   0.845 -0.1317 -0.1265  0.0306
  131SOL     OW  391   2.837   1.142   2.805  0.2323 -0.8435  0.0607
  131SOL    HW1  392   2.816   1.140   2.905  1.1643  1.0594  1.9198
  131SOL    HW2  393   2.765   1.172   2.738  4.2813  0.3054  1.6089
  132SOL     OW  394   1.560   1.306   2.183 -0.3699  0.1747  0.0700
  132SOL    HW1  395   1.628   1.254   2.234  0.1423 -1.7602 -0.5236
  132SOL    HW2  396   1.496   1.243   2.138 -2.4768 -1.7942  0.2249
  133SOL     OW  397   0.054   1.093   0.174  0.4163  0.3183  0.4404
  133SOL    HW1  398   0.142   1.088   0.222 -1.4716 -1.3069 -2.3648
  133SOL    HW2  399   0.000   1.167   0.209  0.8258 -4.1904 -0.0642
  134SOL     OW  400   2.615   0.857   0.534  0.1837  0.1731  0.3151
  134SOL    HW1  401   2.692   0.893   0.477  0.9595  1.1871  0.0054
  134SOL    HW2  402   2.649   0.840   0.631  2.6829  0.0629  2.4917
  135SOL     OW  403   1.833   0.926   2.997 -0.2124  0.1162 -0.0007
  135SOL    HW1  404   1.806   0.839   2.952 -0.9079  0.3976  2.2489
  135SOL    HW2  405   1.834   0.915   3.099 -1.1516 -1.5838 -1.9057
  136SOL     OW  406   1.755   2.073   1.693  0.0194 -0.1845 -0.2292
  136SOL    HW1  407   1.789   1.999   1.757  0.6294  0.0203 -0.4291
  136SOL    HW2  408   1.652   2.076   1.677 -0.9813  2.3342  0.2155
  137SOL     OW  409   2.397   2.553   0.542 -0.0939 -0.2099  0.1650
  137SOL    HW1  410   2.324   2.498   0.587  1.3214  1.4898  0.5133
  137SOL    HW2  411   2.435   2.511   0.456 -1.4411  1.7989 -0.4566
  138SOL     OW  412   2.282   0.420   1.587  0.1740  0.1888 -0.1437
  138SOL    HW1  413   2.207   0.353   1.607  0.8770  2.2471  3.6301
  138SOL    HW2  414   2.309   0.466   1.674  3.1815 -4.1137  1.1512
  139SOL     OW  415   2.586   0.138   2.553  0.0138  0.2510 -0.5191
  139SOL    HW1  416   2.503   0.083   2.583 -3.4346  0.5478  0.3054
  139SOL    HW2  417   2.659   0.144   2.628  2.0283  0.9716  1.9836
  140SOL     OW  418   1.212   1.833   2.087  0.4760  0.4438 -0.7835
  140SOL    HW1  419   1.238   1.778   2.171  0.6226  0.6528  0.3902
  140SOL    HW2  420   1.289   1.879   2.049 -3.2391  0.3731  1.1357
  141SOL     OW  421   0.737   0.509   2.443 -0.1855  0.4013  0.1270
  141SOL    HW1  422   0.669   0.568   2.399 -2.6664 -2.8610 -2.1303
  141SOL    HW2  423   0.830   0.537   2.413  2.9740 -0.0333  0.3857
  142SOL     OW  424   2.784   2.581   2.772 -0.3616  0.4554  0.0279
  142SOL    HW1  425   2.756   2.589   2.868  1.7804 -0.3658 -1.0999
  142SOL    HW2  426   2.753   2.660   2.712  0.3117  0.2505 -0.2965
  143SOL     OW  427   0.902   2.095   0.320 -0.0209  0.7056 -0.4378
  143SOL    HW1  428   0.846   2.179   0.324  2.2067 -1.4962  0.6705
  143SOL    HW2  429   0.992   2.101   0.374  4.4483 -1.9858 -1.1896
  144SOL     OW  430   1.521   2.538   0.127 -0.1918 -0.2647  0.1053
  144SOL    HW1  431   1.427   2.530   0.082 -1.4534  0.7162 -0.5072
  144SOL    HW2  432   1.533   2.620   0.186  2.1900 -0.8457  1.2346
  145SOL     OW  433   1.565   2.043   2.654 -0.1854 -0.0546  0.0110
  145SOL    HW1  434   1.636   2.066   2.722  0.4284 -0.2812  1.0995
  145SOL    HW2  435   1.603   1.998   2.567  2.3787  2.4083  0.0467
  146SOL     OW  436   2.582   3.050   2.787  0.1363 -0.8152  0.3973
  146SOL    HW1  437   2.563   3.024   2.885  1.0314  1.3998 -2.0553
  146SOL    HW2  438   2.642   0.025   2.791  0.3415 -0.5796  2.1940
  147SOL     OW  439   2.861   1.077   0.933 -0.0249 -0.5552 -0.8268
  147SOL    HW1  440   2.815   1.084   1.025  1.2240 -4.2117 -1.0720
  147SOL    HW2  441   2.858   1.168   0.884 -2.9469 -0.4882 -0.2188
  148SOL     OW  442   2.196   2.694   0.092 -0.3195 -0.2784 -0.3480
  148SOL    HW1  443   2.157   2.657   0.181  2.1428  0.8090  1.3628
  148SOL    HW2  444   2.116   2.736   0.038 -0.4719  1.7924 -2.3158
  149SOL     OW  445   0.608   1.712   2.711 -0.5333  0.6881 -0.4658
  149SOL    HW1  446   0.673   1.698   2.789  0.0325  2.2492  1.2275
  149SOL    HW2  447   0.577   1.806   2.715  0.3888  1.5756  1.2143
  150SOL     OW  448   0.317   2.592   0.464  0.0228  0.6215  0.1954
  150SOL    HW1  449   0.415   2.589   0.427 -0.5737  0.4906  0.8300
  150SOL    HW2  450   0.305   2.501   0.515 -1.7121 -2.4956  0.3159
  151SOL     OW  451   0.253   1.103   0.346  0.3145  0.2223  0.2482
  151SOL    HW1  452   0.229   1.002   0.359 -2.0255 -0.1867 -1.3573
  151SOL    HW2  453   0.243   1.154   0.438 -0.4908 -0.3309 -1.0103
  152SOL     OW  454   2.750   2.021   0.360  0.4070 -0.1437 -0.0460
  152SOL    HW1  455   2.831   1.964   0.338 -0.2926  0.2805  2.2583
  152SOL    HW2  456   2.662   1.969   0.359 -2.0595  1.0553  0.1936
  153SOL     OW  457   1.888   2.425   0.688  0.1874 -0.6699 -0.4826
  153SOL    HW1  458   1.984   2.393   0.691  0.4362 -2.2386 -1.2805
  153SOL    HW2  459   1.838   2.381   0.612 -2.3706  3.2445 -3.2734
  154SOL     OW  460   1.060   2.681   1.002 -0.5447  0.2035 -0.2743
  154SOL    HW1  461   1.092   2.686   0.905 -1.5371  0.8238  0.0141
  154SOL    HW2  462   0.965   2.645   1.010  0.6812  1.8269  0.8036
  155SOL     OW  463   2.773   1.720   0.733  0.3987 -0.2529 -0.5128
  155SOL    HW1  464   2.692   1.777   0.717  1.7911 -0.0297  2.4712
  155SOL    HW2  465   2.826   1.701   0.649 -1.1060  1.0337  2.0357
  156SOL     OW  466   2.720   2.346   3.015  0.1709 -0.4614  0.6265
  156SOL    HW1  467   2.617   2.359   2.993 -3.7585  1.5156  0.8606
  156SOL    HW2  468   2.736   2.396   3.099  2.2917  0.1399 -2.4917
  157SOL     OW  469   0.542   2.161   1.444 -0.2507  0.5611  0.2399
  157SOL    HW1  470   0.609   2.178   1.368 -0.9229  0.8149 -0.8968
  157SOL    HW2  471   0.454   2.120   1.407 -0.9897  0.6914  1.4157
  158SOL     OW  472   1.442   0.324   0.202  0.3085  0.0497 -0.4887
  158SOL    HW1  473   1.430   0.239   0.258 -1.9990  0.8754  5.9575
  158SOL    HW2  474   1.541   0.346   0.198 -0.2045 -3.0356  1.0089
  159SOL     OW  475   1.297   0.745   0.377 -0.1772  0.3908  0.1100
  159SOL    HW1  476   1.347   0.659   0.404 -0.4728  0.5273 -2.2467
  159SOL    HW2  477   1.200   0.720   0.354 -2.4185  1.8219  0.0870
  160SOL     OW  478   0.673   1.261   0.728 -0.3420  0.0624  0.1486
  160SOL    HW1  479   0.642   1.223   0.818 -0.3014  0.5224  2.5426
  160SOL    HW2  480   0.724   1.348   0.749  2.5234  1.4837 -0.3599
  161SOL     OW  481   0.135   2.528   2.552 -0.5112  0.4751 -0.7721
  161SOL    HW1  482   0.086   2.450   2.601  0.5065  0.3220 -1.3800
  161SOL    HW2  483   0.235   2.526   2.559  1.2044  0.9521 -0.2124
  162SOL     OW  484   0.219   2.303   1.232 -0.3290  0.6562 -0.0313
  162SOL    HW1  485   0.137   2.269   1.176 -2.3525  0.9887 -0.2688
  162SOL    HW2  486   0.284   2.355   1.174 -0.0599 -3.2905  4.0609
  163SOL     OW  487   0.000   0.469   2.884  0.0717  0.2183 -0.0441
  163SOL    HW1  488   0.008   0.566   2.850 -1.4789 -1.4195 -1.6847
  163SOL    HW2  489   3.105   0.463   2.989  2.0138  0.0749  2.0934
  164SOL     OW  490   0.403   3.061   2.490  0.0104 -0.2133  0.3091
  164SOL    HW1  491   0.479   3.034   2.559 -0.6579 -1.1953  1.8830
  164SOL    HW2  492   0.311   3.032   2.518 -1.3170 -0.0703 -0.0628
  165SOL     OW  493   2.312   0.544   1.820  0.3283  0.0618 -0.0828
  165SOL    HW1  494   2.301   0.485   1.906  2.0968 -0.0201  1.8399
  165SOL    HW2  495   2.247   0.621   1.807  1.0051  1.5901  0.1464
  166SOL     OW  496   1.968   2.265   1.694  0.4900 -0.3853 -0.3269
  166SOL    HW1  497   2.030   2.280   1.777  2.2188  0.3676 -0.3087
  166SOL    HW2  498   1.889   2.207   1.724  0.9863  0.3555  0.3592
  167SOL     OW  499   0.594   1.019   2.532 -0.0630  0.1656  0.1468
  167SOL    HW1  500   0.610   1.122   2.546  0.2326  3.3736 -0.4071
  167SOL    HW2  501   0.672   0.967   2.584 -0.3792 -1.4517  1.0047
  168SOL     OW  502   2.310   3.041   2.366 -0.2270 -0.2225  0.0695
  168SOL    HW1  503   2.342   0.024   2.368  0.0665 -0.0556  1.0318
  168SOL    HW2  504   2.212   3.025   2.341 -1.6712  0.2298 -1.6989
  169SOL     OW  505   0.219   0.839   0.364  0.2350  0.0697  0.0732
  169SOL    HW1  506   0.298   0.771   0.371 -0.5470 -1.1961 -1.3577
  169SOL    HW2  507   0.161   0.806   0.285 -1.6256 -4.0901 -2.3552
  170SOL     OW  508   0.293   1.310   1.672 -0.1666 -0.0369  0.2936
  170SOL    HW1  509   0.262   1.345   1.580 -0.8444  1.6481  1.4766
  170SOL    HW2  510   0.388   1.345   1.687  1.6093 -0.4006  2.2423
  171SOL     OW  511   1.188   2.217   1.767 -0.4105 -0.1582  0.1642
  171SOL    HW1  512   1.094   2.228   1.730 -2.2821 -1.1763  0.4955
  171SOL    HW2  513   1.267   2.268   1.723 -0.1376 -4.2409  1.9748
  172SOL     OW  514   1.535   2.633   2.054  0.2058  0.2167  0.1664
  172SOL    HW1  515   1.448   2.668   2.013 -1.4095  1.6002  2.5585
  172SOL    HW2  516   1.554   2.671   2.146  0.5022  1.1265  0.8528
  173SOL     OW  517   1.445   2.478   0.676 -0.2040 -0.3895  0.0090
  173SOL    HW1  518   1.501   2.397   0.694  2.5225  3.3181 -0.5897
  173SOL    HW2  519   1.454   2.549   0.748 -0.1743  2.0752  0.1492
  174SOL     OW  520   2.392   3.089   0.321  0.1297  0.0554 -0.6019
  174SOL    HW1  521   2.456   3.077   0.398  0.7009  2.6257  0.3638
  174SOL    HW2  522   2.391   0.074   0.282  1.0658  2.0911  0.6407
  175SOL     OW  523   0.913   1.427   0.375  0.2836 -0.3591 -0.0076
  175SOL    HW1  524   0.924   1.491   0.457  0.5968  0.4787  0.0782
  175SOL    HW2  525   0.852   1.349   0.404 -0.4078  0.3038  0.4129
  176SOL     OW  526   0.689   1.733   0.542  0.3786  0.0217 -0.4460
  176SOL    HW1  527   0.692   1.831   0.514 -0.1833 -2.4482  0.5926
  176SOL    HW2  528   0.607   1.694   0.494 -1.4716  0.3608  1.0576
  177SOL     OW  529   1.200   1.238   1.586  0.0714  0.1975 -0.3166
  177SOL    HW1  530   1.142   1.241   1.668  0.3649 -0.2771  1.1632
  177SOL    HW2  531   1.296   1.205   1.605  1.1008 -1.2233 -2.8939
  178SOL     OW  532   2.530   1.835   0.316 -0.0814 -0.2684 -0.2834
  178SOL    HW1  533   2.449   1.892   0.299 -0.1890  0.0257 -0.3326
  178SOL    HW2  534   2.503   1.737   0.322 -2.2159  2.4835 -2.0160
  179SOL     OW  535   1.267   2.534   0.047 -0.4921 -0.2192  0.6866
  179SOL    HW1  536   1.258   2.476   3.074  0.7224 -0.8888  3.2873
  179SOL    HW2  537   1.194   2.513   0.115  0.9489  0.0211  2.0621
  180SOL     OW  538   2.156   1.505   2.155  0.4311 -0.3805 -0.6182
  180SOL    HW1  539   2.158   1.603   2.131  0.1377 -1.6184 -2.3321
  180SOL    HW2  540   2.176   1.452   2.065 -2.4154  0.7104 -1.1494
  181SOL     OW  541   0.795   0.917   2.681 -0.3165  0.0847 -0.0438
  181SOL    HW1  542   0.819   0.894   2.777 -0.7918 -2.6623  1.2471
  181SOL    HW2  543   0.878   0.949   2.631  1.3033  0.9557 -0.6285
  182SOL     OW  544   2.857   1.142   2.384  0.3106  0.2299 -0.2946
  182SOL    HW1  545   2.788   1.164   2.459 -3.3367  2.0859  1.0233
  182SOL    HW2  546   2.946   1.118   2.427  0.4663  0.4710  1.7738
  183SOL     OW  547   1.350   0.565   2.359  0.1344 -0.0588  0.1670
  183SOL    HW1  548   1.285   0.503   2.411 -3.0383 -0.4594 -0.3471
  183SOL    HW2  549   1.296   0.616   2.286  0.1453  0.6115 -3.0189
  184SOL     OW  550   0.576   0.447   1.775  0.1217 -0.7382  0.4502
  184SOL    HW1  551   0.606   0.543   1.803  1.2031  1.2914 -0.9405
  184SOL    HW2  552   0.553   0.444   1.678  2.2534  1.4411  0.6302
  185SOL     OW  553   2.136   1.763   0.522  0.3320  0.7487 -0.2157
  185SOL    HW1  554   2.196   1.832   0.574  3.1568  1.5492  1.0731
  185SOL    HW2  555   2.092   1.696   0.585 -2.6869 -1.4542 -0.1857
  186SOL     OW  556   0.265   2.046   0.227 -0.3557 -0.2815 -0.1937
  186SOL    HW1  557   0.342   1.983   0.230 -0.5177 -0.0081 -0.9360
  186SOL    HW2  558   0.179   1.993   0.210  0.8728  2.2858  0.1072
  187SOL     OW  559   2.076   2.067   0.300  0.1991 -0.4546  0.4272
  187SOL    HW1  560   2.055   2.154   0.349  1.5342 -2.2043  0.3158
  187SOL    HW2  561   2.051   2.063   0.202  1.6565 -1.4060 -2.1912
  188SOL     OW  562   0.996   2.189   1.032 -0.1917 -0.5245  0.2964
  188SOL    HW1  563   1.082   2.141   1.057 -1.1960 -0.9622  1.3389
  188SOL    HW2  564   0.958   2.231   1.113 -0.1778 -0.8990 -1.2361
  189SOL     OW  565   2.249   1.364   2.792  0.3065 -0.2682 -0.3387
  189SOL    HW1  566   2.179   1.365   2.870  2.0302 -0.6088  1.1805
  189SOL    HW2  567   2.338   1.333   2.833 -1.4141  1.3379 -1.2819
  190SOL     OW  568   1.092   2.420   2.036 -0.2312 -0.0521 -0.0058
  190SOL    HW1  569   0.991   2.431   2.044  1.1500  0.2684 -2.8450
  190SOL    HW2  570   1.114   2.352   1.963 -0.2425 -0.2655 -0.6456
  191SOL     OW  571   2.451   0.633   1.350  0.7418  0.5208  0.0988
  191SOL    HW1  572   2.377   0.618   1.283  0.2776 -2.2678  2.8139
  191SOL    HW2  573   2.478   0.542   1.387  0.2141 -1.2689 -0.0677
  192SOL     OW  574   2.612   0.498   1.860 -0.6882  0.2379 -0.1829
  192SOL    HW1  575   2.510   0.500   1.853  3.0914  2.8116  0.0802
  192SOL    HW2  576   2.645   0.587   1.838 -2.1858 -2.4162 -2.2701
  193SOL     OW  577   0.619   0.038   0.410  0.3757 -0.2299 -0.3742
  193SOL    HW1  578   0.659   0.115   0.465  2.4600 -0.6735 -2.0346
  193SOL    HW2  579   0.546   3.097   0.457  2.0605  2.3033  0.5248
  194SOL     OW  580   1.330   2.420   1.663 -0.8667 -0.2253  0.4362
  194SOL    HW1  581   1.376   2.395   1.578  1.0356 -0.1313 -1.2479
  194SOL    HW2  582   1.272   2.500   1.651 -0.6800 -4.2547  0.5062
  195SOL     OW  583   2.411   1.141   0.769 -0.1973  0.2213  0.1980
  195SOL    HW1  584   2.474   1.219   0.793 -2.9417  1.3131 -1.4587
  195SOL    HW2  585   2.421   1.126   0.671  2.3795  0.1874  0.6236
  196SOL     OW  586   0.948   2.248   1.643 -0.0664 -0.5212  0.0339
  196SOL    HW1  587   0.925   2.348   1.636 -0.2407 -0.9428  0.4376
  196SOL    HW2  588   0.861   2.195   1.642 -0.7750  1.3781 -1.4716
  197SOL     OW  589   0.214   0.752   2.600  0.5069 -0.0382  0.2006
  197SOL    HW1  590   0.193   0.823   2.530  2.1097  0.1464 -1.5358
  197SOL    HW2  591   0.200   0.662   2.557  0.2062 -0.3066  0.1693
  198SOL     OW  592   1.405   0.882   0.171 -0.0868 -0.2636  0.2116
  198SOL    HW1  593   1.347   0.825   0.235  0.0840 -0.4639  1.0441
  198SOL    HW2  594   1.374   0.979   0.165  2.6448  0.8772 -2.2658
  199SOL     OW  595   2.584   0.643   2.219  0.0758 -0.2251 -0.2821
  199SOL    HW1  596   2.570   0.701   2.304 -2.1923 -0.6385  0.3010
  199SOL    HW2  597   2.523   0.669   2.141  1.4900 -0.3300  1.4355
  200SOL     OW  598   2.379   2.570   2.600 -0.1746 -0.2219  0.0382
  200SOL    HW1  599   2.371   2.606   2.691 -0.8924 -2.4443 -3.0657
  200SOL    HW2  600   2.470   2.531   2.585  0.8215  1.4947  2.4238
  201SOL     OW  601   2.510   0.184   1.277  0.1322  0.4918  0.1945
  201SOL    HW1  602   2.431   0.126   1.297  0.3218  2.3428 -0.6284
  201SOL    HW2  603   2.510   0.200   1.174  1.9161  0.0305  1.9411
  202SOL     OW  604   0.220   2.824   0.134  0.5283 -0.3571  0.7458
  202SOL    HW1  605   0.159   2.886   0.180  0.2587 -0.5369 -0.7889
  202SOL    HW2  606   0.305   2.808   0.184 -2.5054 -0.7064 -2.5368
  203SOL     OW  607   1.127   2.233   2.548  0.0453 -0.1562  1.2918
  203SOL    HW1  608   1.062   2.238   2.626 -0.4120 -0.3944  0.1517
  203SOL    HW2  609   1.200   2.159   2.551  1.8028  1.8684 -1.2271
  204SOL     OW  610   0.683   2.019   2.398 -0.1890 -0.0514 -0.2819
  204SOL    HW1  611   0.651   2.115   2.379 -2.0448 -1.1190  1.3022
  204SOL    HW2  612   0.737   2.018   2.486  1.6482  0.5807  0.0194
  205SOL     OW  613   0.848   0.973   1.338 -0.0669  0.0478 -0.2601
  205SOL    HW1  614   0.852   0.877   1.297  0.8076  0.7090 -0.3851
  205SOL    HW2  615   0.925   0.981   1.406  0.2405 -0.2359  3.2016
  206SOL     OW  616   0.047   0.717   2.801 -0.1556 -0.1742 -0.0462
  206SOL    HW1  617   3.066   0.744   2.768 -1.1721 -2.7572  1.9330
  206SOL    HW2  618   0.122   0.744   2.727  2.0278  3.8276 -1.8607
  207SOL     OW  619   1.793   2.338   1.937 -0.0869  0.4245 -0.0723
  207SOL    HW1  620   1.849   2.421   1.945 -1.6157 -0.5373  0.2881
  207SOL    HW2  621   1.712   2.359   1.873  0.9591  0.1066 -0.8251
  208SOL     OW  622   0.737   2.802   1.271 -0.5256 -0.1656  0.2539
  208SOL    HW1  623   0.663   2.746   1.236  1.1201  1.4381  2.5472
  208SOL    HW2  624   0.719   2.827   1.371 -1.9462 -0.3864  2.7971
  209SOL     OW  625   1.375   1.406   0.098 -0.1088  0.1028 -0.1187
  209SOL    HW1  626   1.296   1.455   0.055 -0.2704  0.2389 -0.5158
  209SOL    HW2  627   1.449   1.471   0.122 -1.5733 -0.1583  0.5736
  210SOL     OW  628   2.251   0.660   0.789  0.8673  0.1291 -0.4043
  210SOL    HW1  629   2.184   0.701   0.728  1.5602 -0.0799 -0.2614
  210SOL    HW2  630   2.206   0.577   0.831 -0.0826 -2.4551 -0.2221
  211SOL     OW  631   1.497   2.772   0.299 -0.4096  0.5007 -0.2526
  211SOL    HW1  632   1.409   2.810   0.329  1.9885  1.8184 -1.8568
  211SOL    HW2  633   1.545   2.843   0.244  1.0268 -0.1342 -3.2690
  212SOL     OW  634   2.104   2.227   0.756  0.5006 -0.4640 -0.4642
  212SOL    HW1  635   2.145   2.320   0.763  0.1926 -0.1201 -0.2658
  212SOL    HW2  636   2.053   2.210   0.843  0.1103 -0.0268 -1.6325
  213SOL     OW  637   1.777   0.668   2.886  0.2338  0.3214  0.0068
  213SOL    HW1  638   1.875   0.660   2.911 -2.1792 -2.0179 -0.6984
  213SOL    HW2  639   1.764   0.657   2.788  0.6504 -1.7869  0.4042
  214SOL     OW  640   0.879   1.497   1.847 -0.0822 -0.1781  0.0331
  214SOL    HW1  641   0.909   1.588   1.880 -1.2837  1.5150  0.5789
  214SOL    HW2  642   0.954   1.428   1.851 -2.7943  0.3885  1.9448
  215SOL     OW  643   3.092   1.458   0.535 -0.3696 -0.3359 -0.0172
  215SOL    HW1  644   0.057   1.529   0.541 -0.9858 -1.8012  1.4572
  215SOL    HW2  645   3.052   1.424   0.624 -1.6173 -0.2041 -2.1854
  216SOL     OW  646   0.286   2.712   2.391 -0.1707 -0.9572 -0.1132
  216SOL    HW1  647   0.366   2.705   2.454 -0.4316 -0.2698 -0.1976
  216SOL    HW2  648   0.210   2.654   2.420 -1.2793  0.3599 -0.4553
  217SOL     OW  649   2.781   0.819   1.219 -0.4573 -0.7326 -0.3956
  217SOL    HW1  650   2.722   0.784   1.146 -2.0275  1.1163  2.8141
  217SOL    HW2  651   2.755   0.919   1.231 -2.3638  2.0400  1.6135
  218SOL     OW  652   1.070   2.046   1.932  0.6855 -0.2503  0.3701
  218SOL    HW1  653   1.096   2.103   1.850  2.1183 -0.6012  0.0658
  218SOL    HW2  654   1.130   1.964   1.941  1.5004 -0.4423 -1.3088
  219SOL     OW  655   2.242   1.476   0.308 -0.0091  0.1155  0.1404
  219SOL    HW1  656   2.257   1.424   0.228  3.1015  2.4451  0.7435
  219SOL    HW2  657   2.173   1.417   0.361  0.2629 -1.7365  0.4362
  220SOL     OW  658   2.081   1.020   0.332 -0.0222 -0.0662 -0.1842
  220SOL    HW1  659   2.181   1.016   0.338 -2.2773  1.7838  0.2970
  220SOL    HW2  660   2.038   0.955   0.402 -1.4318 -0.6699 -4.0914
  221SOL     OW  661   3.108   0.380   0.407  0.1443  0.0181 -0.4642
  221SOL    HW1  662   3.056   0.395   0.320  1.4347  0.4507 -0.9192
  221SOL    HW2  663   3.096   0.286   0.448  3.0937  0.5813 -0.3221
  222SOL     OW  664   1.401   1.334   0.482  0.0918  0.3985  0.0223
  222SOL    HW1  665   1.400   1.376   0.572  2.9370 -0.5091 -4.4047
  222SOL    HW2  666   1.336   1.254   0.477 -0.3685 -0.2565 -0.7180
  223SOL     OW  667   0.839   0.133   0.013 -0.2831 -0.0500  0.0519
  223SOL    HW1  668   0.794   0.042   0.001  1.3967  1.5907 -0.7593
  223SOL    HW2  669   0.840   0.177   3.031  0.4375  1.6843 -3.1906
  224SOL     OW  670   1.522   0.318   1.403  0.6215 -0.1226 -0.6240
  224SOL    HW1  671   1.438   0.310   1.461  0.2368 -0.9166  1.2405
  224SOL    HW2  672   1.542   0.235   1.345  1.9254  0.2611 -1.4196
  225SOL     OW  673   0.186   2.485   1.462  0.2261  0.1378  0.6669
  225SOL    HW1  674   0.186   2.440   1.375 -1.0361  0.7751  0.9899
  225SOL    HW2  675   0.155   2.426   1.538 -2.9264 -1.1360  1.1514
  226SOL     OW  676   0.951   1.487   0.110 -0.1802 -0.1447 -0.1502
  226SOL    HW1  677   0.963   1.460   0.210  0.4910 -2.8266  1.8714
  226SOL    HW2  678   0.916   1.580   0.112  0.4826 -2.1694 -2.8016
  227SOL     OW  679   0.758   1.499   0.826  0.4561  0.2132 -0.0413
  227SOL    HW1  680   0.709   1.590   0.828 -1.6916  1.7911  1.0613
  227SOL    HW2  681   0.767   1.462   0.922  1.1250  0.6616  1.4781
  228SOL     OW  682   0.298   1.852   0.600  0.2140 -0.2287  0.3203
  228SOL    HW1  683   0.293   1.751   0.598 -0.6306 -0.6902 -3.6706
  228SOL    HW2  684   0.285   1.884   0.505  0.2979  0.4534  0.8967
  229SOL     OW  685   2.308   0.052   2.657  0.2986 -0.5603 -0.2981
  229SOL    HW1  686   2.279   0.150   2.637  6.0180 -0.8708 -1.3500
  229SOL    HW2  687   2.268   0.016   2.747 -2.0233  0.9152 -0.2033
  230SOL     OW  688   1.834   1.219   0.597 -0.7196  0.1190  0.3776
  230SOL    HW1  689   1.802   1.282   0.664  1.4708  1.2796 -2.3540
  230SOL    HW2  690   1.759   1.207   0.528  0.5613 -0.2598 -0.5400
  231SOL     OW  691   1.300   1.472   2.567 -0.0565 -0.0643 -0.2559
  231SOL    HW1  692   1.347   1.561   2.566  0.0491 -0.7085  2.8925
  231SOL    HW2  693   1.329   1.415   2.483  3.0604 -3.4532 -0.2493
  232SOL     OW  694   2.548   2.304   0.727  0.1806 -0.2868 -0.2948
  232SOL    HW1  695   2.607   2.232   0.687  1.9743  1.1232  0.7314
  232SOL    HW2  696   2.558   2.300   0.831  1.3356  0.1115  2.6046
  233SOL     OW  697   0.561   2.373   0.786  0.5102  0.9015  0.2633
  233SOL    HW1  698   0.652   2.414   0.774 -1.4322 -0.8653  0.7612
  233SOL    HW2  699   0.511   2.373   0.698 -0.4787 -0.0460  0.2287
  234SOL     OW  700   0.530   0.573   2.782  0.3830  1.0286 -0.6896
  234SOL    HW1  701   0.505   0.663   2.748  0.2449 -2.3650  2.0922
  234SOL    HW2  702   0.521   0.567   2.884 -0.4008 -0.8374  2.2669
  235SOL     OW  703   2.662   0.798   2.500 -0.1833 -0.0701  0.8171
  235SOL    HW1  704   2.680   0.696   2.520  1.8216 -1.2493 -2.7201
  235SOL    HW2  705   2.751   0.834   2.466  0.1487  0.9831  4.1469
  236SOL     OW  706   1.628   2.887   1.525  0.6205 -0.2016 -0.6146
  236SOL    HW1  707   1.640   2.836   1.437 -0.2629  0.7606  0.6492
  236SOL    HW2  708   1.603   2.824   1.599  2.5060 -0.6341 -1.3435
  237SOL     OW  709   0.922   1.527   2.248  0.1095  0.0617  0.2706
  237SOL    HW1  710   0.874   1.613   2.231 -1.3477 -0.9788  0.3245
  237SOL    HW2  711   0.964   1.529   2.341  0.0390  2.3131  1.9016
  238SOL     OW  712   1.046   0.204   2.209 -0.0633  0.0617 -0.2007
  238SOL    HW1  713   1.026   0.189   2.306 -2.1444  0.1556 -0.1956
  238SOL    HW2  714   1.013   0.137   2.143 -0.5966  0.7247 -1.2284
  239SOL     OW  715   0.440   2.217   2.070  0.1656 -0.5311 -0.2817
  239SOL    HW1  716   0.510   2.195   1.998 -1.3693  0.0397  2.8271
  239SOL    HW2  717   0.352   2.246   2.029  0.9346  1.0366 -1.0733
  240SOL     OW  718   2.588   2.730   0.575  0.3593 -0.2224  0.3867
  240SOL    HW1  719   2.512   2.665   0.552  0.4958 -0.2477  1.8083
  240SOL    HW2  720   2.653   2.688   0.646  3.2953  1.3111  1.2503
  241SOL     OW  721   2.549   1.351   0.816 -0.2321  0.1998  0.1885
  241SOL    HW1  722   2.511   1.418   0.751  1.5601 -0.5400  1.4777
  241SOL    HW2  723   2.532   1.386   0.906  0.3909  1.0991 -1.3902
  242SOL     OW  724   1.943   2.557   1.932 -0.1260 -0.3242 -0.1674
  242SOL    HW1  725   2.038   2.578   1.890  3.6310  0.6614  0.7684
  242SOL    HW2  726   1.885   2.646   1.939 -0.0024  2.0319 -0.4931
  243SOL     OW  727   0.771   2.649   1.768 -0.5108 -0.0359  0.3998
  243SOL    HW1  728   0.777   2.570   1.828 -0.2995 -1.9880  0.1092
  243SOL    HW2  729   0.805   2.615   1.672 -0.6626 -2.4261  2.0383
  244SOL     OW  730   2.081   0.636   2.722 -0.1149 -0.4464  0.3053
  244SOL    HW1  731   2.017   0.605   2.648 -2.1432  0.8752 -0.2747
  244SOL    HW2  732   2.179   0.633   2.697 -1.2125  0.7455 -0.5367
  245SOL     OW  733   1.446   0.580   1.138  0.3382  0.4033 -0.3326
  245SOL    HW1  734   1.491   0.635   1.060  2.0839 -0.3310 -2.8280
  245SOL    HW2  735   1.356   0.533   1.117  1.4126 -2.1844  0.1745
  246SOL     OW  736   1.868   2.606   0.081  0.3373  0.4826 -0.1872
  246SOL    HW1  737   1.933   2.657   0.021 -0.8366 -0.9707 -2.2374
  246SOL    HW2  738   1.792   2.579   0.014 -2.5056 -0.3668 -2.8593
  247SOL     OW  739   1.141   0.867   2.435  0.5685 -0.8525 -0.1995
  247SOL    HW1  740   1.240   0.860   2.441 -3.3193  0.2301  0.3482
  247SOL    HW2  741   1.095   0.944   2.485 -0.1183 -0.5558  0.4144
  248SOL     OW  742   0.355   2.068   1.668  0.1264 -0.4874  0.3402
  248SOL    HW1  743   0.403   2.029   1.750 -0.1014 -0.4895  0.6941
  248SOL    HW2  744   0.425   2.115   1.608  0.0908 -0.9861 -3.4969
  249SOL     OW  745   2.470   0.528   0.241 -0.1918  0.1778  0.2063
  249SOL    HW1  746   2.428   0.539   0.148 -2.0913  0.3774 -3.3499
  249SOL    HW2  747   2.517   0.433   0.233  2.9959 -0.3214 -0.6352
  250SOL     OW  748   2.753   0.153   2.771 -0.4452 -0.1097  0.8454
  250SOL    HW1  749   2.749   0.249   2.798 -2.9059 -1.7644 -1.4026
  250SOL    HW2  750   2.835   0.108   2.816  0.3184 -1.1704 -0.6573
  251SOL     OW  751   1.357   0.731   3.060 -0.1579  0.3336 -0.3407
  251SOL    HW1  752   1.391   0.788   0.029 -0.5846  1.4891 -0.9362
  251SOL    HW2  753   1.436   0.664   3.056 -1.1663 -3.3858  0.8294
  252SOL     OW  754   1.372   2.126   1.951  0.0453  0.0906  0.6520
  252SOL    HW1  755   1.279   2.150   1.913 -0.2950  1.1701 -0.3273
  252SOL    HW2  756   1.406   2.198   2.015  0.1902 -0.4691  0.6451
  253SOL     OW  757   2.375   2.514   0.936 -0.4553 -0.3156 -0.0399
  253SOL    HW1  758   2.405   2.606   0.971 -0.9980 -0.0953 -0.3859
  253SOL    HW2  759   2.444   2.444   0.960  0.8936  0.9193 -1.1676
  254SOL     OW  760   2.219   1.359   0.615  0.1575  0.3389 -0.1736
  254SOL    HW1  761   2.158   1.322   0.538 -0.9814  0.5336 -1.4955
  254SOL    HW2  762   2.206   1.299   0.697 -0.3275  2.2415 -1.4360
  255SOL     OW  763   1.501   0.050   1.234 -0.6755 -0.3843 -0.0302
  255SOL    HW1  764   1.427   0.014   1.173 -1.0750 -0.9068  0.0764
  255SOL    HW2  765   1.480   0.019   1.327 -1.0259  0.7389 -0.1301
  256SOL     OW  766   1.871   2.455   1.527 -0.0545  0.4464  0.6416
  256SOL    HW1  767   1.906   2.380   1.587  0.8858  0.5938  0.6775
  256SOL    HW2  768   1.813   2.408   1.459  0.1958  2.1357  1.9550
  257SOL     OW  769   0.751   2.734   2.576  0.0965  0.0740  0.1388
  257SOL    HW1  770   0.826   2.755   2.509  1.7692  1.9577 -0.8194
  257SOL    HW2  771   0.725   2.820   2.623  1.3033 -1.9297  0.2021
  258SOL     OW  772   0.927   2.540   0.492 -0.0296  0.2512  0.3256
  258SOL    HW1  773   0.941   2.623   0.438  0.5557 -1.2037 -1.1867
  258SOL    HW2  774   1.020   2.500   0.515  2.6876 -0.9546 -1.1434
  259SOL     OW  775   1.476   0.231   2.733 -0.2214 -0.5262  0.1695
  259SOL    HW1  776   1.511   0.197   2.824  0.8968  0.9088  0.1914
  259SOL    HW2  777   1.483   0.335   2.730 -0.1849  4.1311  2.4080
  260SOL     OW  778   2.505   0.394   1.444 -0.2948 -0.0169  0.1272
  260SOL    HW1  779   2.516   0.317   1.375  2.1563  1.0853  1.1357
  260SOL    HW2  780   2.414   0.391   1.491  1.9330  1.6354 -0.9350
  261SOL     OW  781   0.789   0.486   2.740 -0.4149  0.2735 -0.3387
  261SOL    HW1  782   0.699   0.523   2.776 -3.3960  1.4383  0.0481
  261SOL    HW2  783   0.770   0.453   2.648 -0.9663  2.1057 -1.3494
  262SOL     OW  784   1.527   2.406   2.306  0.4393 -0.0869 -0.3102
  262SOL    HW1  785   1.448   2.426   2.239 -3.0921 -0.6833 -1.5720
  262SOL    HW2  786   1.615   2.396   2.253 -1.2510 -0.7568  1.7130
  263SOL     OW  787   0.472   1.948   2.776  0.0298  0.2284  0.0137
  263SOL    HW1  788   0.508   2.046   2.768  2.3998  3.6132  0.2966
  263SOL    HW2  789   0.381   1.934   2.728  1.8099 -0.4223  2.1723
  264SOL     OW  790   1.136   1.550   0.841  0.4487 -0.7297 -0.4613
  264SOL    HW1  791   1.053   1.571   0.786  0.9701 -1.2492  3.3726
  264SOL    HW2  792   1.211   1.614   0.817  1.2056 -0.1373  0.9556
  265SOL     OW  793   1.206   2.501   0.562 -0.2715  0.2298  0.3600
  265SOL    HW1  794   1.240   2.502   0.469 -0.4751  1.7827 -1.3797
  265SOL    HW2  795   1.287   2.486   0.624  1.4878  0.8171 -2.6869
  266SOL     OW  796   1.951   0.775   1.083  0.4085  0.3097 -0.4946
  266SOL    HW1  797   1.930   0.747   1.182  1.1752 -0.6191  0.8851
  266SOL    HW2  798   2.051   0.782   1.072  2.5392  0.8857 -0.4105
  267SOL     OW  799   2.961   1.364   2.726  0.1157  0.5221 -0.0893
  267SOL    HW1  800   3.055   1.348   2.691  1.4426 -1.9726 -2.2587
  267SOL    HW2  801   2.924   1.271   2.757 -3.7435 -1.3007  2.9864
  268SOL     OW  802   1.582   3.081   0.248 -0.1428  0.4474  0.3216
  268SOL    HW1  803   1.683   3.062   0.251  0.2275 -0.0929  1.0983
  268SOL    HW2  804   1.546   0.005   0.338  0.1933 -0.1206  2.1415
  269SOL     OW  805   2.749   0.675   2.807  0.3230  0.2899  0.2170
  269SOL    HW1  806   2.735   0.620   2.722  2.5180  0.0374  2.8260
  269SOL    HW2  807   2.816   0.753   2.782  1.7077  1.6274 -0.8093
  270SOL     OW  808   0.009   1.502   0.171 -0.9834 -0.1098 -0.0270
  270SOL    HW1  809   3.099   1.421   0.226  4.9859 -1.4284 -0.1043
  270SOL    HW2  810   0.043   1.484   0.079 -0.2348 -0.2437  0.0917
  271SOL     OW  811   2.678   1.177   2.591  0.1792 -0.2517 -0.2897
  271SOL    HW1  812   2.636   1.261   2.622  0.3731 -3.5945  1.1603
  271SOL    HW2  813   2.615   1.114   2.547  2.4243  0.0955 -2.3597
  272SOL     OW  814   2.809   2.436   2.300  0.5259 -0.3502  0.4238
  272SOL    HW1  815   2.904   2.413   2.340  0.7579  0.4375  0.0093
  272SOL    HW2  816   2.786   2.378   2.220  1.0663  0.8571 -1.1207
  273SOL     OW  817   0.286   2.696   0.704  0.4320  0.1011 -0.2275
  273SOL    HW1  818   0.238   2.784   0.714 -0.1421  1.5819 -0.4147
  273SOL    HW2  819   0.308   2.683   0.608  0.7515  1.9967  0.1020
  274SOL     OW  820   0.989   2.218   0.770 -0.2275 -0.0010  0.1036
  274SOL    HW1  821   0.928   2.143   0.746  1.1797 -2.0651 -1.1401
  274SOL    HW2  822   1.005   2.214   0.869  2.0735 -0.7322  0.1455
  275SOL     OW  823   2.496   1.583   0.371 -0.0406  0.2222  0.0236
  275SOL    HW1  824   2.398   1.552   0.358  1.3207  0.5559  1.4611
  275SOL    HW2  825   2.560   1.517   0.322 -0.1307 -0.3043 -1.6971
  276SOL     OW  826   2.700   1.590   1.214  0.5752  0.5829 -0.0727
  276SOL    HW1  827   2.706   1.563   1.313 -0.3324 -0.6166  0.0191
  276SOL    HW2  828   2.753   1.674   1.192  0.7492 -0.3285 -1.5849
  277SOL     OW  829   2.508   0.023   0.705  0.3682  0.3011 -0.1266
  277SOL    HW1  830   2.478   3.060   0.770 -0.6725 -1.3459  0.9582
  277SOL    HW2  831   2.598   0.069   0.721  1.3184 -1.5889 -0.7283
  278SOL     OW  832   1.409   0.236   2.412  0.4930  0.3018 -0.2124
  278SOL    HW1  833   1.308   0.236   2.411 -2.7242 -1.7387 -2.6119
  278SOL    HW2  834   1.438   0.183   2.492 -1.3885 -2.0867  3.0775
  279SOL     OW  835   1.455   2.671   1.316  0.0346  0.2587 -0.0348
  279SOL    HW1  836   1.547   2.694   1.276  1.4517  0.2559 -0.0921
  279SOL    HW2  837   1.390   2.647   1.240 -1.5147  0.1912 -0.9932
  280SOL     OW  838   0.936   0.987   0.635  0.3328  0.2493 -0.0245
  280SOL    HW1  839   0.912   1.063   0.572  1.1969  3.0029 -1.6296
  280SOL    HW2  840   1.035   0.991   0.662  0.7712  0.5555  0.5904
  281SOL     OW  841   2.516   1.419   2.651  0.4389  0.4456 -0.3777
  281SOL    HW1  842   2.539   1.518   2.672 -0.3216  1.9274 -0.1889
  281SOL    HW2  843   2.474   1.417   2.557 -3.0702 -0.0783 -0.3153
  282SOL     OW  844   3.050   1.289   0.343 -0.3610 -0.3487 -0.0394
  282SOL    HW1  845   2.963   1.238   0.361 -0.3972 -2.8530  1.5424
  282SOL    HW2  846   3.064   1.354   0.424 -1.3623 -0.3186  0.1855
  283SOL     OW  847   1.785   2.821   2.558 -0.4518 -0.5112 -0.7114
  283SOL    HW1  848   1.717   2.792   2.493  0.7602  0.1472  0.2031
  283SOL    HW2  849   1.798   2.755   2.633 -2.5762  1.7887 -0.3471
  284SOL     OW  850   0.696   3.022   3.109  0.0061  0.1824  0.0152
  284SOL    HW1  851   0.599   3.052   0.006 -0.0941 -0.3647 -1.2497
  284SOL    HW2  852   0.699   2.954   3.030  1.1514 -1.8913 -0.4576
  285SOL     OW  853   2.236   1.635   2.485  0.3435  0.1974 -0.4059
  285SOL    HW1  854   2.263   1.655   2.581  0.5145 -0.2318 -0.1245
  285SOL    HW2  855   2.215   1.723   2.438  0.6879 -1.9169  2.7754
  286SOL     OW  856   1.255   2.192   0.713 -0.0485 -0.2022 -0.1565
  286SOL    HW1  857   1.171   2.241   0.740  1.7844  0.8266  0.4754
  286SOL    HW2  858   1.333   2.226   0.769  0.1323 -1.2817  1.4196
  287SOL     OW  859   1.793   0.377   1.081 -0.1301  0.4570 -0.4268
  287SOL    HW1  860   1.742   0.422   1.159 -0.4993  1.2544 -1.7247
  287SOL    HW2  861   1.894   0.354   1.107  2.5158 -0.7783 -0.0286
  288SOL     OW  862   0.960   2.820   2.403 -0.4962  0.1383 -0.9345
  288SOL    HW1  863   1.053   2.793   2.442 -0.5169 -0.1844 -1.8900
  288SOL    HW2  864   0.936   2.787   2.312 -2.8455 -4.0513  2.4810
  289SOL     OW  865   0.021   1.165   0.757  0.2883 -0.1378  0.1470
  289SOL    HW1  866   3.086   1.256   0.750 -1.6948 -1.4746 -2.0467
  289SOL    HW2  867   3.096   1.095   0.694  0.3223  0.9175 -1.5479
  290SOL     OW  868   1.341   2.336   1.065 -0.2329 -0.1930 -0.6814
  290SOL    HW1  869   1.417   2.294   1.008  0.3742 -0.0256  0.2195
  290SOL    HW2  870   1.286   2.263   1.116  0.5640  0.0437  1.9250
  291SOL     OW  871   1.951   2.938   0.585  0.3307  0.3031  0.6101
  291SOL    HW1  872   1.961   3.002   0.661  1.2546 -1.3081 -0.3783
  291SOL    HW2  873   1.902   2.854   0.614  2.4160  0.4064 -0.5492
  292SOL     OW  874   0.365   0.099   2.040  0.2234 -0.0969  0.2503
  292SOL    HW1  875   0.325   0.119   2.129 -0.2018 -2.1241 -0.7893
  292SOL    HW2  876   0.304   0.047   1.979  0.4541  2.3730 -1.5802
  293SOL     OW  877   2.404   1.898   0.861 -0.0290 -0.3936 -0.1777
  293SOL    HW1  878   2.384   1.799   0.882 -0.5928 -1.7472 -0.1304
  293SOL    HW2  879   2.386   1.959   0.943 -1.5775  0.9554  1.1537
  294SOL     OW  880   0.939   0.074   2.001 -0.1186 -0.3323 -0.3948
  294SOL    HW1  881   0.862   0.113   1.943 -0.2201 -0.6773  0.3049
  294SOL    HW2  882   0.939   3.084   1.989  0.7237  1.3443  1.0475
  295SOL     OW  883   1.324   1.360   1.153  0.0956 -0.3911  0.6758
  295SOL    HW1  884   1.421   1.327   1.160  2.3857 -1.0191  1.6180
  295SOL    HW2  885   1.267   1.304   1.088 -1.9722 -0.8063  0.8583
  296SOL     OW  886   2.236   1.988   0.676  0.3513 -0.0128 -0.0991
  296SOL    HW1  887   2.307   1.956   0.744 -0.6121 -0.5762 -0.3125
  296SOL    HW2  888   2.188   2.072   0.715  1.3925  0.2241 -0.4835
  297SOL     OW  889   2.217   3.049   2.899 -0.3525 -0.2564  0.0159
  297SOL    HW1  890   2.217   2.947   2.912  0.2283  0.9341 -1.0413
  297SOL    HW2  891   2.249   3.099   2.983 -0.7859 -0.9766 -1.2980
  298SOL     OW  892   1.079   0.145   2.484  0.2967  0.4111 -0.3085
  298SOL    HW1  893   1.015   0.128   2.561  0.9539 -0.9868 -0.9095
  298SOL    HW2  894   1.130   0.063   2.458  0.0690 -0.3789 -0.7186
  299SOL     OW  895   1.224   2.941   1.866 -0.4836  0.1674 -0.1126
  299SOL    HW1  896   1.165   3.007   1.816  0.7468 -0.7018  1.1064
  299SOL    HW2  897   1.231   2.959   1.962  1.2199 -0.3544 -2.6348
  300SOL     OW  898   2.646   0.138   1.910  0.7366  0.1076 -0.2692
  300SOL    HW1  899   2.664   0.180   2.002 -0.9952 -2.4559 -2.3640
  300SOL    HW2  900   2.674   0.210   1.840  1.5403  1.7755  0.0541
  301SOL     OW  901   1.994   0.483   1.958 -0.1887 -0.0701  0.2082
  301SOL    HW1  902   2.089   0.451   1.951 -1.2024 -0.8010 -0.7884
  301SOL    HW2  903   1.938   0.406   1.927 -2.1175 -2.4065  0.8965
  302SOL     OW  904   0.338   2.522   2.999  0.8079 -0.2086 -0.1380
  302SOL    HW1  905   0.333   2.432   2.950  1.1288 -2.1020  1.1165
  302SOL    HW2  906   0.243   2.567   2.985 -1.3263  2.2639 -0.5978
  303SOL     OW  907   1.869   2.018   1.448 -0.1334  0.5545  0.2462
  303SOL    HW1  908   1.790   2.024   1.382 -0.4588 -2.5780 -2.2676
  303SOL    HW2  909   1.847   2.054   1.543 -2.8507  0.9963  2.6689
  304SOL     OW  910   3.036   0.705   1.170 -0.1205  0.3492  0.0818
  304SOL    HW1  911   2.940   0.722   1.206  0.3989 -1.3801 -0.6677
  304SOL    HW2  912   3.039   0.712   1.069 -0.7188  0.7718 -3.5193
  305SOL     OW  913   0.662   0.966   0.701 -0.4258 -0.4513 -0.3892
  305SOL    HW1  914   0.654   1.066   0.687  0.5435 -2.5830 -0.2256
  305SOL    HW2  915   0.761   0.945   0.701 -2.3181  2.6364 -1.9769
  306SOL     OW  916   0.268   1.014   3.034 -0.4020  0.3473  0.1179
  306SOL    HW1  917   0.340   0.999   2.968 -3.7952 -0.9364  2.5368
  306SOL    HW2  918   0.210   0.929   3.037  0.6419  1.6359  1.9495
  307SOL     OW  919   1.273   0.314   1.548 -0.2576  0.5024 -0.3663
  307SOL    HW1  920   1.263   0.418   1.544 -0.4674  0.6058  1.6008
  307SOL    HW2  921   1.245   0.280   1.639 -1.8253  2.6414  0.2816
  308SOL     OW  922   0.573   0.889   1.032 -0.3476 -0.3852  0.5565
  308SOL    HW1  923   0.484   0.837   1.016 -3.8133 -1.9192 -0.6981
  308SOL    HW2  924   0.586   0.896   1.130 -1.1282 -0.2976  1.0131
  309SOL     OW  925   2.359   0.906   0.898  0.0082  0.3493  0.1556
  309SOL    HW1  926   2.292   0.850   0.840  0.1882 -0.5102  1.8767
  309SOL    HW2  927   2.406   0.984   0.850  0.9646  1.1357 -1.3791
  310SOL     OW  928   0.698   1.415   2.993  0.2026  0.4204  0.6980
  310SOL    HW1  929   0.786   1.381   3.038  2.8410 -1.6478 -2.1522
  310SOL    HW2  930   0.621   1.393   3.053  0.4529  1.9091  1.4594
  311SOL     OW  931   2.481   2.658   2.294 -0.3721  0.0126  0.2348
  311SOL    HW1  932   2.502   2.752   2.264 -1.2940 -1.0951 -1.7790
  311SOL    HW2  933   2.385   2.651   2.320 -1.3965 -0.0639  1.8479
  312SOL     OW  934   2.090   2.117   0.021  0.4794  0.4075  0.1018
  312SOL    HW1  935   2.089   2.100   3.032  1.0123  1.3782  1.0716
  312SOL    HW2  936   2.088   2.215   0.041 -0.0066 -0.1433 -0.5131
  313SOL     OW  937   0.446   3.088   0.029  0.4833 -0.3425 -0.1142
  313SOL    HW1  938   0.391   0.034   0.094 -0.9714 -1.1087 -0.2136
  313SOL    HW2  939   0.427   3.109   3.042 -0.0782  0.3785 -0.1790
  314SOL     OW  940   2.491   1.308   2.904  0.1054 -0.3060 -0.2554
  314SOL    HW1  941   2.487   1.385   2.973 -0.4209  2.0046 -1.5780
  314SOL    HW2  942   2.505   1.353   2.808  1.6275  1.4586  1.4180
  315SOL     OW  943   1.612   0.506   2.288 -0.2983 -0.1933 -0.1415
  315SOL    HW1  944   1.508   0.505   2.289 -0.8204 -3.2353  0.0495
  315SOL    HW2  945   1.652   0.599   2.283  0.1961  1.7130  0.7116
  316SOL     OW  946   3.003   0.962   0.638 -0.1666  0.4618 -0.2700
  316SOL    HW1  947   2.923   0.964   0.700  1.4442 -0.5962  2.5710
  316SOL    HW2  948   2.983   0.937   0.544  0.2523 -3.0670  1.0326
  317SOL     OW  949   0.872   2.865   0.147 -1.0685 -0.1382 -0.2375
  317SOL    HW1  950   0.899   2.803   0.070 -1.6062 -2.1135  0.8391
  317SOL    HW2  951   0.793   2.920   0.111 -0.6919 -2.2079 -2.2530
  318SOL     OW  952   2.374   2.725   1.167  0.5176  0.1679 -0.2664
  318SOL    HW1  953   2.285   2.678   1.187  0.0538 -1.3181 -2.2976
  318SOL    HW2  954   2.417   2.768   1.242 -0.6756 -1.3127  0.8221
  319SOL     OW  955   1.155   1.382   2.754  0.0175  0.2675 -0.5570
  319SOL    HW1  956   1.068   1.329   2.750  1.9961  2.8545 -1.7420
  319SOL    HW2  957   1.177   1.400   2.657 -2.1803 -1.6799  2.2784
  320SOL     OW  958   0.642   1.739   0.906  0.4841  0.6317 -0.0529
  320SOL    HW1  959   0.539   1.759   0.906 -2.2384  1.8255  0.4816
  320SOL    HW2  960   0.692   1.827   0.907 -3.5357  2.2326  1.1619
  321SOL     OW  961   1.770   2.785   1.959  0.1449 -0.0872 -0.0126
  321SOL    HW1  962   1.751   2.880   1.996  2.3453  2.9912 -1.3810
  321SOL    HW2  963   1.716   2.718   2.013 -0.8984 -1.3089  1.8468
  322SOL     OW  964   2.429   2.031   2.411 -0.0553 -0.3238 -0.1331
  322SOL    HW1  965   2.390   2.121   2.408  0.3709 -3.3977 -1.2012
  322SOL    HW2  966   2.523   2.043   2.379  1.1277  0.0558 -1.0104
  323SOL     OW  967   2.368   0.222   0.585  0.0404  0.1454 -0.7744
  323SOL    HW1  968   2.373   0.138   0.641  0.2804 -3.2035  0.9115
  323SOL    HW2  969   2.414   0.215   0.495 -0.5438  1.8621  3.6781
  324SOL     OW  970   2.869   2.722   2.328 -0.0414 -0.3386 -0.7617
  324SOL    HW1  971   2.947   2.724   2.395 -0.9994  0.3405  0.3842
  324SOL    HW2  972   2.836   2.621   2.316 -0.4983 -3.7756 -0.4888
  325SOL     OW  973   1.016   0.627   2.818  0.1517  0.5308  0.3883
  325SOL    HW1  974   1.094   0.603   2.755 -0.0390 -0.8198  1.8268
  325SOL    HW2  975   0.931   0.590   2.773 -1.6312 -0.2118 -0.7257
  326SOL     OW  976   2.673   2.338   1.365  0.0442 -0.0279  0.5039
  326SOL    HW1  977   2.585   2.390   1.359 -2.1841  0.1875  0.7569
  326SOL    HW2  978   2.683   2.307   1.458 -2.2677 -0.0746 -2.9964
  327SOL     OW  979   2.306   2.940   0.096  0.4628 -0.1342 -0.2980
  327SOL    HW1  980   2.354   2.975   0.182  1.1847  3.6304  2.2990
  327SOL    HW2  981   2.276   2.841   0.102 -1.1078  1.8637 -1.7641
  328SOL     OW  982   0.508   0.742   1.510 -0.0160  0.3472  0.2859
  328SOL    HW1  983   0.545   0.648   1.533 -0.3310  2.8526 -0.1061
  328SOL    HW2  984   0.406   0.741   1.500 -0.7516  2.2362  3.0551
  329SOL     OW  985   2.062   0.754   1.523 -0.1216  0.1642  0.4970
  329SOL    HW1  986   2.085   0.745   1.624 -1.3760  1.2189  0.4616
  329SOL    HW2  987   2.108   0.686   1.461  0.3623 -0.0489  2.3736
  330SOL     OW  988   0.403   0.659   1.122 -0.0065  0.4954  0.1921
  330SOL    HW1  989   0.373   0.582   1.062  1.1710 -1.3485 -2.6786
  330SOL    HW2  990   0.327   0.722   1.140  0.4320 -1.2514  1.0140
  331SOL     OW  991   0.614   1.456   1.847 -0.3208  0.3828 -0.0063
  331SOL    HW1  992   0.715   1.478   1.846  2.8021 -2.4828  0.1822
  331SOL    HW2  993   0.583   1.478   1.751 -1.2060 -0.8685 -3.7661
  332SOL     OW  994   0.070   2.351   1.655  0.0301  0.4910  0.1403
  332SOL    HW1  995   3.078   2.372   1.645  1.8013 -1.5328  1.0202
  332SOL    HW2  996   0.083   2.251   1.671  2.3476 -3.4866  0.8000
  333SOL     OW  997   2.929   2.766   0.953 -0.1291 -0.2625  0.2856
  333SOL    HW1  998   2.991   2.794   0.876 -1.5783  2.2063 -0.0063
  333SOL    HW2  999   2.974   2.692   1.015  0.5810 -2.4067 -0.3547
  334SOL     OW 1000   0.231   1.238   0.571  0.1864 -0.1780  0.3954
  334SOL    HW1 1001   0.258   1.183   0.654 -0.0808 -0.5895 -0.0886
  334SOL    HW2 1002   0.137   1.278   0.581 -0.7579  0.1814  0.2947
  335SOL     OW 1003   0.578   2.651   3.006  0.8816 -0.0840  0.5268
  335SOL    HW1 1004   0.501   2.584   3.000  0.2909  0.0890  1.7553
  335SOL    HW2 1005   0.656   2.599   3.043 -0.7032  1.7491 -2.4643
  336SOL     OW 1006   2.985   2.778   2.095 -0.4278 -0.3176 -0.0218
  336SOL    HW1 1007   2.939   2.741   2.182 -0.2453 -4.5080  2.1929
  336SOL    HW2 1008   2.918   2.762   2.019 -0.6424  1.6240 -0.9898
  337SOL     OW 1009   1.479   2.059   1.691  1.0197 -0.3778  0.2187
  337SOL    HW1 1010   1.417   2.078   1.613 -0.5821 -0.7046  1.4517
  337SOL    HW2 1011   1.446   2.095   1.785 -1.4689  1.4783  0.1244
  338SOL     OW 1012   0.853   0.252   2.871  0.1767  0.0271 -0.0076
  338SOL    HW1 1013   0.827   0.342   2.834 -1.2042 -1.2088 -1.9643
  338SOL    HW2 1014   0.881   0.190   2.798 -1.3671 -0.6527  2.0542
  339SOL     OW 1015   0.468   0.946   2.299  0.0155  0.0999 -1.1034
  339SOL    HW1 1016   0.527   0.970   2.221 -2.2776 -2.6638 -0.4408
  339SOL    HW2 1017   0.517   0.969   2.390  1.5515  0.6103  0.6337
  340SOL     OW 1018   2.134   0.409   0.906 -0.1485 -0.2133  0.2564
  340SOL    HW1 1019   2.150   0.315   0.948 -0.4549 -1.5768 -4.2824
  340SOL    HW2 1020   2.036   0.430   0.893  0.8985 -4.1365  0.5401
  341SOL     OW 1021   2.142   1.210   0.843 -0.1199  0.7398  0.3080
  341SOL    HW1 1022   2.127   1.260   0.932 -3.5077 -0.0898 -0.3788
  341SOL    HW2 1023   2.233   1.169   0.836 -1.0241  3.1242 -1.6981
  342SOL     OW 1024   2.192   2.518   2.870 -0.2581  0.4983 -0.4864
  342SOL    HW1 1025   2.281   2.482   2.909  3.2293 -0.3303  1.3583
  342SOL    HW2 1026   2.128   2.440   2.854 -0.2197 -1.2938  1.3253
  343SOL     OW 1027   0.851   2.555   1.513  0.0687 -0.2270 -0.3379
  343SOL    HW1 1028   0.889   2.608   1.439 -0.5871 -0.9905 -0.4268
  343SOL    HW2 1029   0.767   2.503   1.482 -2.1412 -1.5532 -0.6727
  344SOL     OW 1030   2.462   2.795   1.446  0.4340 -0.2496 -0.3400
  344SOL    HW1 1031   2.457   2.882   1.505  0.8255  1.9746  2.0173
  344SOL    HW2 1032   2.550   2.791   1.390  0.4980 -0.1260 -0.2834
  345SOL     OW 1033   2.378   2.134   3.032  0.4154  0.3185 -0.9173
  345SOL    HW1 1034   2.437   2.119   0.002 -0.3476 -1.1596 -0.6930
  345SOL    HW2 1035   2.293   2.069   3.033 -0.3889 -0.7387  0.9574
  346SOL     OW 1036   1.716   2.299   1.366  0.0348 -0.2438 -0.1697
  346SOL    HW1 1037   1.737   2.317   1.269 -1.0348  1.6019  0.0599
  346SOL    HW2 1038   1.690   2.201   1.376 -1.6308 -0.9601 -0.4970
  347SOL     OW 1039   1.197   1.876   1.553  0.4047 -0.0075  0.7203
  347SOL    HW1 1040   1.178   1.962   1.505  0.6609  0.9274  0.8917
  347SOL    HW2 1041   1.121   1.847   1.613  1.7065  0.2828 -2.4835
  348SOL     OW 1042   0.431   1.898   1.881 -0.6032  0.5923 -0.2255
  348SOL    HW1 1043   0.375   1.925   1.964 -0.2952 -0.0965  0.4029
  348SOL    HW2 1044   0.503   1.832   1.909 -0.5491  0.2929 -1.4780
  349SOL     OW 1045   1.790   1.568   1.353  0.1895 -0.2153 -0.3832
  349SOL    HW1 1046   1.775   1.495   1.419 -0.1496  1.1742  1.9619
  349SOL    HW2 1047   1.859   1.631   1.397 -0.2914  1.4169  1.3881
  350SOL     OW 1048   2.328   2.226   0.526 -0.5297 -0.4569 -0.2981
  350SOL    HW1 1049   2.299   2.137   0.566  0.6238 -0.8260  0.5324
  350SOL    HW2 1050   2.411   2.264   0.581  3.5808  2.6083  2.2929
  351SOL     OW 1051   0.725   2.952   1.491  0.3748  0.1026  0.1814
  351SOL    HW1 1052   0.729   2.934   1.591 -1.8263  0.1986  0.9150
  351SOL    HW2 1053   0.767   3.042   1.477 -2.0795 -0.9993  1.5350
  352SOL     OW 1054   0.281   1.121   0.843  0.2457 -0.3720 -0.4431
  352SOL    HW1 1055   0.302   1.027   0.879  1.9636 -0.4153  0.5966
  352SOL    HW2 1056   0.176   1.136   0.833 -1.1761  1.8401 -0.6028
  353SOL     OW 1057   1.319   1.701   2.279 -0.4324 -0.3330 -0.0681
  353SOL    HW1 1058   1.361   1.696   2.373  1.5556 -1.1952 -0.6379
  353SOL    HW2 1059   1.377   1.661   2.198  0.9057 -0.2168 -0.1937
  354SOL     OW 1060   1.696   3.047   1.995 -1.0965  0.3396  0.0673
  354SOL    HW1 1061   1.640   0.002   2.044  0.6023 -0.7179  0.2917
  354SOL    HW2 1062   1.654   3.014   1.913  0.1566 -0.1258 -1.2366
  355SOL     OW 1063   2.284   1.308   0.110  0.8063 -0.0880 -0.6165
  355SOL    HW1 1064   2.289   1.213   0.143 -1.0754 -0.7825 -0.8362
  355SOL    HW2 1065   2.231   1.318   0.024 -1.0410  0.1643  3.2856
  356SOL     OW 1066   2.945   1.414   1.396 -0.2445  0.0960 -0.3060
  356SOL    HW1 1067   2.979   1.353   1.473 -2.0893 -1.2264 -0.3606
  356SOL    HW2 1068   3.020   1.429   1.330  2.3352  1.5724  2.9348
  357SOL     OW 1069   0.415   2.630   1.463 -0.5568  0.0933  0.3425
  357SOL    HW1 1070   0.405   2.727   1.441  0.9467  0.3336  1.0920
  357SOL    HW2 1071   0.329   2.580   1.453  1.0617  0.7486  1.2064
  358SOL     OW 1072   2.460   1.610   1.498 -0.3370  0.5781  0.1780
  358SOL    HW1 1073   2.460   1.656   1.589 -2.4508  0.8822  0.6483
  358SOL    HW2 1074   2.538   1.549   1.490 -0.4282  2.0718  0.5640
  359SOL     OW 1075   2.139   2.776   2.822  0.2628 -0.3831  0.1320
  359SOL    HW1 1076   2.146   2.791   2.721  0.9739  1.8462  0.7589
  359SOL    HW2 1077   2.172   2.682   2.846  0.6348 -2.1608 -0.3476
  360SOL     OW 1078   1.313   3.077   1.058  0.5181 -0.4320  0.0580
  360SOL    HW1 1079   1.388   3.028   1.005 -0.0425 -1.3626 -2.7658
  360SOL    HW2 1080   1.224   3.024   1.056  2.2135 -1.5201 -1.1831
  361SOL     OW 1081   2.111   0.456   0.287 -0.4616  0.4932 -0.2358
  361SOL    HW1 1082   2.129   0.420   0.381 -1.7947 -2.4956 -1.5524
  361SOL    HW2 1083   2.136   0.558   0.281  0.8170  1.0449 -0.6525
  362SOL     OW 1084   1.620   1.176   0.899  0.3923 -0.6360  0.0892
  362SOL    HW1 1085   1.709   1.213   0.861 -0.2023  1.4939  2.5099
  362SOL    HW2 1086   1.599   1.215   0.991 -0.5899 -0.1144 -1.8768
  363SOL     OW 1087   2.213   1.268   2.300  0.4246 -0.2236 -0.3176
  363SOL    HW1 1088   2.203   1.277   2.398  0.6182  0.8923 -3.2015
  363SOL    HW2 1089   2.172   1.348   2.255  1.1215 -0.3532  0.4429
  364SOL     OW 1090   0.220   0.266   1.148 -0.1007  0.0521 -0.0003
  364SOL    HW1 1091   0.168   0.338   1.188  3.4501  0.8988 -1.1562
  364SOL    HW2 1092   0.161   0.180   1.143 -1.2385 -1.8745 -0.5994
  365SOL     OW 1093   0.581   0.138   2.766 -0.5537  0.0492  0.3658
  365SOL    HW1 1094   0.572   0.037   2.744 -0.6278  0.1214 -0.4029
  365SOL    HW2 1095   0.675   0.172   2.790  0.1224  3.5200  1.1494
  366SOL     OW 1096   2.024   2.312   2.835 -0.9045 -0.2187 -0.3520
  366SOL    HW1 1097   1.942   2.308   2.894  2.4747 -2.6301 -1.0734
  366SOL    HW2 1098   2.072   2.223   2.834  1.1091  0.4670  2.3662
  367SOL     OW 1099   2.961   2.418   0.219  0.1320  0.3618 -0.5793
  367SOL    HW1 1100   2.921   2.473   0.298  1.9318 -1.4434  1.2265
  367SOL    HW2 1101   3.047   2.467   0.195 -1.9021 -4.1563 -2.8521
  368SOL     OW 1102   2.749   1.101   1.189  0.1835  0.1943  0.3437
  368SOL    HW1 1103   2.685   1.157   1.246  0.0696  1.3817  1.9959
  368SOL    HW2 1104   2.844   1.113   1.223  0.3833 -0.8319 -1.2365
  369SOL     OW 1105   0.917   0.071   2.691  0.0029  0.1852 -0.7748
  369SOL    HW1 1106   0.859   0.001   2.646  1.7649  2.8270 -0.0713
  369SOL    HW2 1107   1.001   0.035   2.739  0.8649  1.7352 -1.9301
  370SOL     OW 1108   2.793   0.319   0.487  0.3086 -0.2221  0.0660
  370SOL    HW1 1109   2.793   0.413   0.523 -1.7177  0.0502  1.1779
  370SOL    HW2 1110   2.874   0.268   0.515 -0.1589 -0.1036 -0.8441
  371SOL     OW 1111   1.498   2.255   0.847 -0.3641 -0.5295  0.4809
  371SOL    HW1 1112   1.544   2.166   0.830  0.8486 -1.1240 -3.0244
  371SOL    HW2 1113   1.568   2.320   0.885  0.0973 -0.9290 -3.2558
  372SOL     OW 1114   2.933   0.856   2.711  0.0903 -0.2256 -0.2955
  372SOL    HW1 1115   2.946   0.867   2.614 -0.3195  1.3105  2.1086
  372SOL    HW2 1116   2.920   0.950   2.753 -5.1464  0.7035  0.2556
  373SOL     OW 1117   2.821   1.560   0.939 -0.0454  0.6936  0.3814
  373SOL    HW1 1118   2.814   1.621   0.860  2.9317  1.9924  1.4856
  373SOL    HW2 1119   2.743   1.552   1.000  1.5723  0.2343 -2.2317
  374SOL     OW 1120   0.537   2.988   2.717 -0.2701 -0.1195 -0.1687
  374SOL    HW1 1121   0.452   2.934   2.730  3.4659  1.9885  1.4214
  374SOL    HW2 1122   0.615   2.965   2.778  0.4989 -0.2170  3.7625
  375SOL     OW 1123   0.121   3.073   3.001 -0.0643  0.0601  0.2222
  375SOL    HW1 1124   0.205   0.006   2.958  0.5788  2.8851  0.8106
  375SOL    HW2 1125   0.125   2.971   3.003  1.2788  0.4165  2.1255
  376SOL     OW 1126   3.044   1.950   1.520  0.0113 -0.1500  0.6854
  376SOL    HW1 1127   3.084   1.986   1.605 -2.8438  0.6405 -0.1575
  376SOL    HW2 1128   2.956   1.904   1.545 -1.2733  0.7656  1.7236
  377SOL     OW 1129   1.759   2.209   2.397 -0.0006  0.6846 -0.4420
  377SOL    HW1 1130   1.674   2.163   2.385  2.1998 -1.2313  0.8789
  377SOL    HW2 1131   1.769   2.278   2.324  2.2932  1.7175  3.0021
  378SOL     OW 1132   0.405   0.353   2.676  0.1393  0.4410 -0.1135
  378SOL    HW1 1133   0.444   0.436   2.721  1.7728 -1.0707  1.9334
  378SOL    HW2 1134   0.460   0.268   2.697  0.6902 -1.8224 -1.7467
  379SOL     OW 1135   0.428   0.621   0.472  0.1141  0.1887 -0.0724
  379SOL    HW1 1136   0.463   0.654   0.566  2.1320 -0.1879  1.1224
  379SOL    HW2 1137   0.473   0.662   0.392  0.6093 -0.0603 -1.0800
  380SOL     OW 1138   0.318   1.756   1.692  0.0173 -0.7605  0.5572
  380SOL    HW1 1139   0.227   1.729   1.726 -0.7065  0.4561 -1.5284
  380SOL    HW2 1140   0.366   1.815   1.762 -0.2023  1.4894  1.8816
  381SOL     OW 1141   0.301   1.010   1.969 -0.4283 -0.1166  0.5905
  381SOL    HW1 1142   0.224   0.969   2.014  3.6713  0.8421 -0.0653
  381SOL    HW2 1143   0.301   0.978   1.872 -0.7726  0.6210  0.9969
  382SOL     OW 1144   2.367   2.104   0.281 -0.0303 -0.0186 -0.0687
  382SOL    HW1 1145   2.268   2.079   0.282  3.1607 -0.6409  0.6427
  382SOL    HW2 1146   2.375   2.169   0.357 -2.3497 -2.5312  1.8379
  383SOL     OW 1147   0.224   1.917   2.654 -0.5806  0.3665 -0.5241
  383SOL    HW1 1148   0.204   1.838   2.715  0.5546  0.5682 -0.0648
  383SOL    HW2 1149   0.138   1.954   2.618  1.6005 -3.6130  2.2829
  384SOL     OW 1150   0.957   2.237   2.752  0.2107 -0.0748  0.4958
  384SOL    HW1 1151   0.936   2.183   2.838 -2.5644  0.8723  1.8044
  384SOL    HW2 1152   0.905   2.325   2.759 -0.8413 -1.4578  0.2011
  385SOL     OW 1153   2.558   1.855   0.635 -0.0576 -0.7403 -0.3363
  385SOL    HW1 1154   2.496   1.867   0.715  1.6983 -0.9485  1.8446
  385SOL    HW2 1155   2.510   1.868   0.551  3.3243 -0.7080  1.0716
  386SOL     OW 1156   2.261   1.425   1.544 -0.2972 -0.1246  0.1842
  386SOL    HW1 1157   2.331   1.496   1.529 -0.3667 -0.0825  0.6859
  386SOL    HW2 1158   2.198   1.457   1.619 -0.0793  1.1200  0.3428
  387SOL     OW 1159   2.860   1.301   2.156 -0.1127  0.5164  0.7871
  387SOL    HW1 1160   2.885   1.261   2.245 -0.5725  0.7918 -1.6677
  387SOL    HW2 1161   2.782   1.364   2.169 -1.9979 -0.2459  0.0130
  388SOL     OW 1162   0.096   1.658   1.811  0.2237  0.2111  0.1155
  388SOL    HW1 1163   0.120   1.649   1.907  0.9709  1.2063  1.5193
  388SOL    HW2 1164   0.013   1.601   1.789  2.1880  0.5732  1.7985
  389SOL     OW 1165   1.816   1.168   1.882 -0.5326  0.1259 -0.3312
  389SOL    HW1 1166   1.876   1.166   1.806 -2.7642  1.4535 -0.5262
  389SOL    HW2 1167   1.802   1.268   1.909  1.3087  0.9986 -0.3910
  390SOL     OW 1168   1.874   0.209   0.609  0.4981  0.0910 -0.5079
  390SOL    HW1 1169   1.890   0.139   0.679  2.9127  0.0648  1.0941
  390SOL    HW2 1170   1.776   0.210   0.581  2.0448 -1.3041  1.7993
  391SOL     OW 1171   2.075   1.804   1.209 -0.4009 -0.2675  0.2907
  391SOL    HW1 1172   2.166   1.844   1.233  2.8244  2.5003 -2.4363
  391SOL    HW2 1173   2.016   1.771   1.287 -2.4601 -2.1158  1.7455
  392SOL     OW 1174   2.774   2.548   0.397  0.1006  0.2520  0.5040
  392SOL    HW1 1175   2.759   2.526   0.495 -0.3915  0.6348 -2.1658
  392SOL    HW2 1176   2.688   2.551   0.342 -2.1139 -0.8513  2.6471
  393SOL     OW 1177   1.664   1.891   2.947 -0.6202 -0.4071  0.1084
  393SOL    HW1 1178   1.605   1.811   2.932 -0.2837  1.3859 -0.8734
  393SOL    HW2 1179   1.760   1.863   2.941 -1.1218 -0.2162 -0.6462
  394SOL     OW 1180   0.146   2.966   2.585 -0.1553 -0.4410 -0.0610
  394SOL    HW1 1181   0.077   3.004   2.644 -0.2090  2.6027  1.2727
  394SOL    HW2 1182   0.215   2.911   2.639 -2.1430  2.3398 -1.3377
  395SOL     OW 1183   0.487   0.375   0.714  0.4431 -0.3578 -0.3101
  395SOL    HW1 1184   0.553   0.344   0.643  2.1600 -1.6506 -1.7970
  395SOL    HW2 1185   0.529   0.450   0.773 -1.8133  0.3113  0.2097
  396SOL     OW 1186   1.461   0.820   0.581 -0.0626  0.3933  0.5223
  396SOL    HW1 1187   1.547   0.782   0.530  1.5507 -2.2068 -3.6381
  396SOL    HW2 1188   1.376   0.823   0.523 -0.0384  0.4732  0.9205
  397SOL     OW 1189   0.532   0.636   2.339 -0.6122 -0.2131  1.0632
  397SOL    HW1 1190   0.453   0.569   2.334  0.1714  0.4276 -1.0938
  397SOL    HW2 1191   0.501   0.734   2.346  0.6861  1.5663  0.8013
  398SOL     OW 1192   0.686   0.272   0.552 -0.8675 -0.6054 -0.2632
  398SOL    HW1 1193   0.785   0.254   0.587  0.9154  1.0673  0.7999
  398SOL    HW2 1194   0.691   0.329   0.469 -0.3836 -1.6687  1.9388
  399SOL     OW 1195   2.051   2.894   1.666  0.0957 -0.2842  0.0233
  399SOL    HW1 1196   2.063   2.897   1.767  0.5083  0.7162  0.1332
  399SOL    HW2 1197   2.076   2.798   1.633  3.3830 -0.5688  0.7504
  400SOL     OW 1198   0.994   1.730   1.955 -0.1206  0.1354 -0.4959
  400SOL    HW1 1199   1.074   1.758   2.016  0.8642 -2.8558  0.2403
  400SOL    HW2 1200   0.910   1.763   2.010 -3.1369  0.9865  3.1350
  401SOL     OW 1201   0.629   1.207   2.831 -0.0771  0.1559 -0.0680
  401SOL    HW1 1202   0.641   1.272   2.908 -1.1966  1.8800 -0.7736
  401SOL    HW2 1203   0.573   1.127   2.859  0.5534  0.2802 -0.4710
  402SOL     OW 1204   2.923   1.950   0.825  0.2001 -0.1307 -0.2364
  402SOL    HW1 1205   3.013   1.957   0.782 -1.6586 -2.1912 -1.4125
  402SOL    HW2 1206   2.878   1.859   0.807 -2.2810 -1.1191  2.2705
  403SOL     OW 1207   0.194   0.955   2.336 -0.1747 -0.5146 -0.5447
  403SOL    HW1 1208   0.148   0.941   2.247 -0.5605  0.1647 -0.4005
  403SOL    HW2 1209   0.292   0.942   2.321  0.5177 -0.2350  2.8772
  404SOL     OW 1210   0.221   2.390   1.956  0.2724 -0.2936  0.1338
  404SOL    HW1 1211   0.181   2.369   1.866  1.9354  1.3717  0.1902
  404SOL    HW2 1212   0.263   2.484   1.952  0.4449 -2.6212 -0.0844
  405SOL     OW 1213   0.164   0.431   2.065  0.1608  0.5016  0.3825
  405SOL    HW1 1214   0.233   0.420   1.994  1.2837  1.3565 -0.8351
  405SOL    HW2 1215   0.108   0.346   2.083  1.8674 -4.1945 -0.1666
  406SOL     OW 1216   1.460   1.683   2.516  0.1367  0.2118  0.3348
  406SOL    HW1 1217   1.553   1.641   2.522 -1.0109 -1.0402  1.8010
  406SOL    HW2 1218   1.466   1.780   2.546  3.3621  1.0375  1.3914
  407SOL     OW 1219   1.368   1.292   2.375 -0.6254  0.0412 -0.2746
  407SOL    HW1 1220   1.294   1.250   2.316 -0.9018  0.2696 -0.9270
  407SOL    HW2 1221   1.454   1.303   2.322  0.3178 -0.5917 -1.0842
  408SOL     OW 1222   0.816   3.032   2.497  0.2993  0.3991  0.3185
  408SOL    HW1 1223   0.735   3.050   2.438 -3.0885 -0.9822 -0.2370
  408SOL    HW2 1224   0.876   2.960   2.454 -0.7201 -2.0579 -1.1741
  409SOL     OW 1225   0.065   1.997   0.697 -0.0110 -0.1974 -0.0221
  409SOL    HW1 1226   0.060   2.046   0.607  0.9776  0.4829 -0.0351
  409SOL    HW2 1227   0.138   1.924   0.694  0.8507 -2.2818  1.5522
  410SOL     OW 1228   2.670   1.405   0.274 -0.3447  0.0917 -0.4630
  410SOL    HW1 1229   2.734   1.328   0.298 -5.1678 -0.7569  0.3212
  410SOL    HW2 1230   2.706   1.458   0.196  0.3174  0.7148 -1.0866
  411SOL     OW 1231   0.090   0.046   1.148 -0.0635 -0.2721 -0.5110
  411SOL    HW1 1232   0.132   0.004   1.234 -1.1891 -0.4651  2.6711
  411SOL    HW2 1233   0.078   3.088   1.076 -3.9244  1.5946  0.7350
  412SOL     OW 1234   1.670   0.777   1.591 -0.1690 -0.1641 -0.2415
  412SOL    HW1 1235   1.722   0.839   1.525  0.0311 -1.6286  1.1729
  412SOL    HW2 1236   1.587   0.739   1.545  0.7683  1.0118  2.6649
  413SOL     OW 1237   0.596   3.056   1.914  0.0092 -0.3062  0.2210
  413SOL    HW1 1238   0.506   3.047   1.864 -4.8429 -2.0712  1.2471
  413SOL    HW2 1239   0.630   0.043   1.910  0.6843 -3.0195 -0.1616
  414SOL     OW 1240   2.861   1.591   2.574  0.2793  1.2314 -0.1467
  414SOL    HW1 1241   2.847   1.514   2.639  0.8091 -3.2418 -1.6181
  414SOL    HW2 1242   2.925   1.550   2.505 -1.2425 -1.4934  2.9044
  415SOL     OW 1243   0.743   2.472   0.010  0.0474  0.0488 -0.2143
  415SOL    HW1 1244   0.839   2.503   0.026 -2.0637 -1.3700  3.1300
  415SOL    HW2 1245   0.698   2.488   0.100  0.1522 -1.0783  1.1790
  416SOL     OW 1246   1.866   3.059   3.052 -0.7907  0.1435  0.1585
  416SOL    HW1 1247   1.874   0.012   0.019 -0.3622 -0.5211 -0.4781
  416SOL    HW2 1248   1.884   0.000   2.968  0.5683 -1.0140  0.9544
  417SOL     OW 1249   0.154   0.503   0.737 -0.0071 -0.4794 -0.2956
  417SOL    HW1 1250   0.234   0.503   0.802 -0.1903 -0.5330  0.5810
  417SOL    HW2 1251   0.118   0.408   0.734  1.2971  2.4510 -1.5969
  418SOL     OW 1252   2.424   0.182   1.006 -0.4604  0.1266 -0.2760
  418SOL    HW1 1253   2.343   0.221   1.049 -0.5053 -0.8569 -0.7511
  418SOL    HW2 1254   2.438   0.224   0.916  2.4603 -2.0352 -1.7592
  419SOL     OW 1255   3.075   2.882   0.737 -0.1743 -0.3606  0.1966
  419SOL    HW1 1256   3.007   2.957   0.713 -1.2074  0.0561  1.0133
  419SOL    HW2 1257   0.014   2.862   0.652 -1.2006  1.6573  4.0636
  420SOL     OW 1258   0.259   1.411   1.391  0.3912  0.3798  0.3715
  420SOL    HW1 1259   0.334   1.367   1.330  2.6003 -3.8161 -1.8834
  420SOL    HW2 1260   0.173   1.422   1.336  0.5534 -1.2578  0.5174
  421SOL     OW 1261   1.301   2.879   0.653 -0.1751 -0.1879 -0.4766
  421SOL    HW1 1262   1.265   2.798   0.698  1.2487 -1.2952 -1.7913
  421SOL    HW2 1263   1.297   2.874   0.549 -0.7098  3.2847 -1.8319
  422SOL     OW 1264   0.641   0.351   1.319 -0.5207 -0.0371  0.1545
  422SOL    HW1 1265   0.714   0.313   1.378 -0.7482 -0.0438 -2.2433
  422SOL    HW2 1266   0.560   0.289   1.315 -1.5680 -2.8028  0.5681
  423SOL     OW 1267   1.090   1.270   1.826 -0.3146 -0.1043  0.1895
  423SOL    HW1 1268   1.120   1.328   1.905 -1.7686 -2.3025 -0.8652
  423SOL    HW2 1269   1.064   1.182   1.861  0.2003  0.9397  0.6345
  424SOL     OW 1270   2.147   1.843   0.055  0.2875  0.0517 -0.3435
  424SOL    HW1 1271   2.129   1.945   0.069  0.8529  3.0083  0.0808
  424SOL    HW2 1272   2.100   1.792   0.133 -1.9419 -0.6638  1.3698
  425SOL     OW 1273   0.011   0.235   2.154 -0.3101 -0.1295 -0.1032
  425SOL    HW1 1274   3.063   0.156   2.147  2.3742  2.4030  2.2602
  425SOL    HW2 1275   0.091   0.209   2.210 -1.7077  1.4175 -2.9078
  426SOL     OW 1276   0.316   2.838   2.732  0.0549 -0.3567 -0.4434
  426SOL    HW1 1277   0.304   2.826   2.834 -4.8149 -0.5500 -1.8393
  426SOL    HW2 1278   0.361   2.751   2.699  1.3303 -1.4098 -0.0791
  427SOL     OW 1279   0.919   0.859   2.916  0.3407 -0.5706  0.1525
  427SOL    HW1 1280   0.989   0.934   2.926  2.1436  1.6547 -0.8944
  427SOL    HW2 1281   0.962   0.770   2.897  1.1324  4.1007 -0.7935
  428SOL     OW 1282   2.719   0.908   1.610  1.0116  0.4277 -0.4347
  428SOL    HW1 1283   2.715   0.816   1.558  0.3092 -2.3450 -2.3312
  428SOL    HW2 1284   2.812   0.948   1.598  0.1933  0.3554  4.3048
  429SOL     OW 1285   2.197   2.910   1.077 -0.3271  0.5775  0.2715
  429SOL    HW1 1286   2.291   2.879   1.074 -2.2759  0.7279  0.0611
  429SOL    HW2 1287   2.135   2.838   1.040 -1.9366 -1.5462 -0.5035
  430SOL     OW 1288   1.023   1.533   2.497 -0.1182 -0.0147 -0.2215
  430SOL    HW1 1289   0.997   1.620   2.546 -0.6001  0.9223 -0.4720
  430SOL    HW2 1290   1.123   1.515   2.510 -2.2715  0.3502 -0.1022
  431SOL     OW 1291   2.696   1.434   1.461  0.0117 -0.1774 -0.3188
  431SOL    HW1 1292   2.797   1.437   1.443 -2.2989 -3.0506 -0.0291
  431SOL    HW2 1293   2.661   1.339   1.436  3.5735 -2.0318  1.8527
  432SOL     OW 1294   1.064   2.454   2.383  0.8457  0.0593  0.0737
  432SOL    HW1 1295   1.118   2.538   2.403  2.2124 -0.0202  3.1584
  432SOL    HW2 1296   1.085   2.383   2.450  1.9256  3.8926 -2.9789
  433SOL     OW 1297   1.715   0.358   2.106  0.2006 -0.3625 -0.1543
  433SOL    HW1 1298   1.804   0.318   2.138  1.2821 -0.0144  1.3635
  433SOL    HW2 1299   1.674   0.425   2.174 -1.5629 -1.3420  1.5835
  434SOL     OW 1300   0.826   2.463   2.236 -0.2023 -0.2784 -0.0498
  434SOL    HW1 1301   0.809   2.564   2.241  1.5972 -0.8008 -2.8475
  434SOL    HW2 1302   0.907   2.434   2.296  4.7012 -0.3537  0.7907
  435SOL     OW 1303   0.488   2.866   0.210  0.3392  0.4074 -0.4121
  435SOL    HW1 1304   0.510   2.927   0.132 -1.8677 -0.4174 -1.3776
  435SOL    HW2 1305   0.489   2.918   0.298 -1.5851  2.5033  1.7325
  436SOL     OW 1306   0.690   0.754   2.087 -0.1070  0.1881  0.1771
  436SOL    HW1 1307   0.641   0.841   2.085 -2.4208  0.6116 -0.1576
  436SOL    HW2 1308   0.646   0.685   2.148 -0.9394 -2.2696 -0.9441
  437SOL     OW 1309   0.507   2.401   2.531 -0.6519 -0.1614 -0.1196
  437SOL    HW1 1310   0.551   2.362   2.449  0.5935  0.2949  0.2268
  437SOL    HW2 1311   0.514   2.338   2.609 -0.0468  1.2243 -0.7189
  438SOL     OW 1312   0.850   1.315   1.578 -0.6529 -0.0942  0.1575
  438SOL    HW1 1313   0.878   1.411   1.562 -0.1429 -2.2048 -0.1137
  438SOL    HW2 1314   0.902   1.270   1.657  0.2710 -1.2508  0.5633
  439SOL     OW 1315   2.409   1.073   2.285 -0.6459 -0.1554  0.0238
  439SOL    HW1 1316   2.447   1.071   2.383 -1.1770  1.0898 -0.2720
  439SOL    HW2 1317   2.330   1.134   2.288  0.3796 -2.2395  1.8552
  440SOL     OW 1318   0.241   0.479   0.233 -0.0891  0.4465 -0.3512
  440SOL    HW1 1319   0.311   0.469   0.165  1.4696 -0.8114  1.5656
  440SOL    HW2 1320   0.268   0.431   0.319  0.2645  1.7305  0.7159
  441SOL     OW 1321   1.339   2.174   1.425  0.2414  0.1635 -0.2015
  441SOL    HW1 1322   1.369   2.271   1.426  2.7184 -0.5685 -0.7637
  441SOL    HW2 1323   1.238   2.159   1.406 -0.4817  0.5730  1.8191
  442SOL     OW 1324   2.051   1.562   0.699 -0.3140  0.2309 -0.5181
  442SOL    HW1 1325   2.063   1.606   0.790  0.1029  0.2410 -1.8433
  442SOL    HW2 1326   2.103   1.475   0.683 -2.0166 -0.7461 -0.9298
  443SOL     OW 1327   2.820   2.023   2.725  0.4149  0.0050  0.4966
  443SOL    HW1 1328   2.813   2.130   2.733  1.4691  1.4412 -0.7338
  443SOL    HW2 1329   2.725   1.984   2.726 -2.7462 -1.1815 -0.6095
  444SOL     OW 1330   1.546   1.641   2.942  0.0639  0.0244 -0.0443
  444SOL    HW1 1331   1.561   1.618   3.041 -1.1969 -0.0024  1.3092
  444SOL    HW2 1332   1.495   1.567   2.896  0.9402  0.2174  2.7013
  445SOL     OW 1333   2.564   2.867   2.138 -0.0085 -0.4112  0.4279
  445SOL    HW1 1334   2.620   2.794   2.094 -0.8105 -1.9402  2.0496
  445SOL    HW2 1335   2.626   2.934   2.188  0.5583 -1.2564  0.7172
  446SOL     OW 1336   0.863   0.841   1.689 -0.0919 -0.3978  0.2637
  446SOL    HW1 1337   0.912   0.787   1.615  1.3343 -2.9440 -1.2592
  446SOL    HW2 1338   0.921   0.857   1.768 -0.0133 -0.2457  0.2687
  447SOL     OW 1339   0.874   0.798   0.995  0.2797  0.2520 -0.0921
  447SOL    HW1 1340   0.771   0.808   0.968 -3.5042  0.8440 -1.0346
  447SOL    HW2 1341   0.881   0.793   1.098 -1.7988  1.2053  0.6822
  448SOL     OW 1342   0.914   1.041   2.280 -0.0559 -0.9177 -0.0363
  448SOL    HW1 1343   0.907   1.061   2.382 -0.0950  0.6603 -0.1307
  448SOL    HW2 1344   0.957   0.949   2.265 -0.8230  1.1413 -0.8524
  449SOL     OW 1345   0.092   2.031   2.119 -0.0166 -0.7263 -0.0981
  449SOL    HW1 1346   0.184   1.997   2.155  2.1659 -1.3549  0.6744
  449SOL    HW2 1347   0.056   1.993   2.029 -2.2950  0.3279 -2.4353
  450SOL     OW 1348   2.486   1.904   2.091 -0.3161 -0.2491 -0.4518
  450SOL    HW1 1349   2.508   1.879   2.189 -3.0148  0.2696  1.7665
  450SOL    HW2 1350   2.443   1.822   2.042  3.8250 -0.1342 -1.4807
  451SOL     OW 1351   2.567   1.208   1.353  0.4343 -0.5144 -0.3919
  451SOL    HW1 1352   2.509   1.278   1.303 -1.0959 -0.3690 -0.3744
  451SOL    HW2 1353   2.535   1.111   1.358  1.4546  1.4743 -2.3238
  452SOL     OW 1354   0.131   1.118   1.381  0.0265 -0.5645  0.2958
  452SOL    HW1 1355   0.155   1.130   1.479 -0.2150  1.5330 -1.1613
  452SOL    HW2 1356   0.213   1.087   1.333  0.7923  0.2360 -2.1722
  453SOL     OW 1357   0.323   0.837   0.888 -0.4911  0.9774  0.0513
  453SOL    HW1 1358   0.397   0.785   0.841  0.5544 -2.7394  0.1949
  453SOL    HW2 1359   0.244   0.844   0.827 -0.8178 -0.4103  0.5102
  454SOL     OW 1360   0.454   1.616   0.426  0.2373  0.5189  0.7761
  454SOL    HW1 1361   0.468   1.513   0.435 -1.0972  0.7972 -1.6984
  454SOL    HW2 1362   0.356   1.645   0.400  0.4979 -1.1348  1.0199
  455SOL     OW 1363   1.721   0.944   1.064  0.2662  0.1536  0.5297
  455SOL    HW1 1364   1.729   0.993   0.979  0.7902 -0.7285 -0.7847
  455SOL    HW2 1365   1.811   0.914   1.094 -3.6368  1.2417 -2.7785
  456SOL     OW 1366   1.673   2.464   0.894 -0.4289 -0.5431 -0.4795
  456SOL    HW1 1367   1.605   2.537   0.879 -1.6508 -0.1570 -0.1231
  456SOL    HW2 1368   1.759   2.474   0.835  0.5145  0.0557  0.5218
  457SOL     OW 1369   1.775   0.365   2.510 -0.2442  0.3069 -0.6318
  457SOL    HW1 1370   1.799   0.266   2.496 -1.0802 -0.1608  1.0264
  457SOL    HW2 1371   1.701   0.391   2.448 -2.2416 -2.8848 -2.7992
  458SOL     OW 1372   2.379   0.583   3.054  0.3744  0.6181  0.1209
  458SOL    HW1 1373   2.346   0.488   3.027  0.1099 -1.4539 -0.1542
  458SOL    HW2 1374   2.410   0.634   2.971 -2.1149  2.9275 -0.8601
  459SOL     OW 1375   3.094   1.368   2.049  0.0573  0.2368 -0.1317
  459SOL    HW1 1376   0.054   1.360   2.119 -3.0553  0.3878 -2.5971
  459SOL    HW2 1377   3.005   1.328   2.087 -2.0538 -2.4253  0.4429
  460SOL     OW 1378   0.179   0.761   3.035  0.2913  0.0965 -0.7613
  460SOL    HW1 1379   0.124   0.726   2.953 -0.9997 -0.2896 -1.4931
  460SOL    HW2 1380   0.281   0.749   3.018  0.1907  2.3361 -1.7164
  461SOL     OW 1381   0.011   2.405   0.565  0.3192  0.3950  0.1546
  461SOL    HW1 1382   3.093   2.403   0.663  0.2753  0.5211  0.0726
  461SOL    HW2 1383   3.104   2.313   0.524  1.7920  0.5035 -2.1178
  462SOL     OW 1384   0.055   3.069   1.664  0.0102  0.4658 -0.1776
  462SOL    HW1 1385   0.027   2.971   1.660 -0.6584 -0.8388  3.1248
  462SOL    HW2 1386   3.086   0.010   1.637  2.9218  1.1589 -0.7477
  463SOL     OW 1387   1.882   2.090   2.016 -0.0524 -0.1464  0.2065
  463SOL    HW1 1388   1.956   2.068   1.941  2.2232  2.5980 -1.9754
  463SOL    HW2 1389   1.842   2.184   2.002 -1.0118  0.6391 -1.6142
  464SOL     OW 1390   0.261   2.836   1.157  0.1926 -0.1211 -0.6142
  464SOL    HW1 1391   0.299   2.894   1.233  0.6393 -1.4930 -0.5431
  464SOL    HW2 1392   0.203   2.887   1.090  1.6866 -0.8033  2.3714
  465SOL     OW 1393   0.350   0.084   1.549  0.2211  0.0349 -0.5237
  465SOL    HW1 1394   0.381   0.011   1.620 -0.0634 -0.2888  1.9595
  465SOL    HW2 1395   0.341   0.171   1.601 -1.0038 -1.8867  1.9452
  466SOL     OW 1396   1.308   1.972   2.339 -0.0168  0.0704 -0.0907
  466SOL    HW1 1397   1.318   1.875   2.310  0.4590 -3.2347  2.5922
  466SOL    HW2 1398   1.216   2.010   2.314  1.2916  0.8972 -0.3017
  467SOL     OW 1399   2.920   1.381   0.736 -0.5195 -0.2857  0.2303
  467SOL    HW1 1400   2.893   1.434   0.823  0.7983  1.8774 -0.3898
  467SOL    HW2 1401   2.837   1.356   0.677  0.4197 -1.1710 -1.9538
  468SOL     OW 1402   2.291   1.995   2.669  0.2143 -0.5061 -0.5241
  468SOL    HW1 1403   2.277   1.900   2.695 -2.9103  3.8998 -0.4701
  468SOL    HW2 1404   2.330   2.010   2.573  0.1864  1.5362 -1.1214
  469SOL     OW 1405   1.136   2.159   0.443 -0.4327 -0.5262  0.2935
  469SOL    HW1 1406   1.227   2.178   0.406 -0.2666 -0.2099 -0.8016
  469SOL    HW2 1407   1.145   2.148   0.546  0.0519  0.0950  2.3547
  470SOL     OW 1408   1.970   1.767   1.443  0.3590 -0.0521  1.1176
  470SOL    HW1 1409   1.921   1.855   1.444  0.0105  0.7110 -0.9268
  470SOL    HW2 1410   2.015   1.748   1.533 -1.4228  0.1359 -1.2903
  471SOL     OW 1411   0.368   2.458   0.194  0.8144 -0.5513  0.2044
  471SOL    HW1 1412   0.459   2.503   0.201  1.5570  0.3134  0.7437
  471SOL    HW2 1413   0.313   2.491   0.113 -2.1325  1.5265 -3.1217
  472SOL     OW 1414   2.604   1.829   2.320  0.4673  0.1800  0.1221
  472SOL    HW1 1415   2.545   1.785   2.389 -0.7533  0.7575  1.8956
  472SOL    HW2 1416   2.626   1.926   2.345 -1.6894 -0.3509 -1.0018
  473SOL     OW 1417   1.494   2.673   0.906 -0.0615 -0.7630  0.0402
  473SOL    HW1 1418   1.452   2.665   0.998 -0.5063 -1.6979  0.8453
  473SOL    HW2 1419   1.525   2.774   0.889 -0.4454  2.5929 -0.3807
  474SOL     OW 1420   2.893   0.024   1.577 -0.1509 -0.5678 -0.1056
  474SOL    HW1 1421   2.944   3.101   1.496  3.3838  0.6223 -1.9641
  474SOL    HW2 1422   2.815   0.077   1.541  2.7050 -1.9636  1.2690
  475SOL     OW 1423   2.115   2.938   1.947 -0.5228  0.1178  0.2905
  475SOL    HW1 1424   2.208   2.944   1.991 -0.7827  0.2152  2.4287
  475SOL    HW2 1425   2.060   3.024   1.957  0.4268 -0.0307 -1.8287
  476SOL     OW 1426   0.326   0.429   0.950  0.6868 -0.3140 -0.0733
  476SOL    HW1 1427   0.383   0.390   0.874 -0.6177  0.9769 -1.1237
  476SOL    HW2 1428   0.299   0.358   1.019  3.4378  0.3927 -0.6005
  477SOL     OW 1429   0.766   1.990   0.968 -0.3418 -0.5450  0.1802
  477SOL    HW1 1430   0.703   2.066   0.984  1.9907 -0.2073 -0.5769
  477SOL    HW2 1431   0.861   2.016   1.001  2.4049 -0.4246  1.8295
  478SOL     OW 1432   0.837   2.539   2.772  0.1357 -0.4646 -0.3532
  478SOL    HW1 1433   0.805   2.604   2.698 -2.6588 -0.5019 -0.9576
  478SOL    HW2 1434   0.772   2.469   2.802 -0.2280  0.7047 -1.5964
  479SOL     OW 1435   0.076   0.886   2.099 -0.1640 -0.0236  0.0473
  479SOL    HW1 1436   3.109   0.947   2.124  0.7171  0.6458 -3.6658
  479SOL    HW2 1437   0.045   0.792   2.091  0.2188  0.8464 -2.6870
  480SOL     OW 1438   0.267   2.298   2.855  0.5853 -0.4097  0.1380
  480SOL    HW1 1439   0.234   2.227   2.922 -0.7966 -2.1709  1.7569
  480SOL    HW2 1440   0.193   2.328   2.798  2.0653  2.5375  3.5982
  481SOL     OW 1441   1.624   3.062   2.287 -0.1655  1.0427  0.2004
  481SOL    HW1 1442   1.682   3.094   2.360 -0.8584  2.1345 -1.3004
  481SOL    HW2 1443   1.591   0.034   2.233 -0.3094 -0.4753 -1.8723
  482SOL     OW 1444   1.655   2.076   0.025  0.1585  0.2931 -0.8610
  482SOL    HW1 1445   1.653   2.009   0.101 -0.7658  2.3643 -2.6606
  482SOL    HW2 1446   1.639   2.023   3.051  0.6895  2.9268  1.6084
  483SOL     OW 1447   1.115   2.630   2.747 -0.1410  0.4177 -0.3471
  483SOL    HW1 1448   1.191   2.563   2.763 -0.7420  1.1507  0.7675
  483SOL    HW2 1449   1.026   2.586   2.741  3.3006  2.2899  1.7917
  484SOL     OW 1450   0.537   2.836   0.699 -0.2785  0.6017 -0.2231
  484SOL    HW1 1451   0.622   2.864   0.751  1.1372 -0.9226 -2.4352
  484SOL    HW2 1452   0.458   2.796   0.756 -1.7018 -5.2717  1.8737
  485SOL     OW 1453   2.008   0.783   0.740  0.2209  0.3235 -0.0772
  485SOL    HW1 1454   1.966   0.871   0.767 -1.4351  0.4095  1.6458
  485SOL    HW2 1455   1.960   0.700   0.781  0.6474  0.5746  2.8385
  486SOL     OW 1456   2.062   2.773   2.135  0.4166  0.3571  0.1672
  486SOL    HW1 1457   2.123   2.694   2.139 -0.7054 -1.4291 -0.5022
  486SOL    HW2 1458   2.069   2.816   2.044  1.3221  2.1275  0.6891
  487SOL     OW 1459   1.263   1.925   0.678 -0.1958  0.0757 -0.2555
  487SOL    HW1 1460   1.169   1.893   0.653 -2.5508 -1.9023 -0.0683
  487SOL    HW2 1461   1.257   2.017   0.716 -0.4889 -2.9104 -0.5672
  488SOL     OW 1462   2.106   0.260   0.111 -0.1763 -0.1193 -0.6332
  488SOL    HW1 1463   2.096   0.321   0.192  3.0765  0.2589 -2.5002
  488SOL    HW2 1464   2.101   0.315   0.024 -0.3682  0.4190  2.5277
  489SOL     OW 1465   2.172   2.907   0.432 -0.3715 -0.2162  0.3313
  489SOL    HW1 1466   2.229   2.991   0.402  2.0302 -0.0512 -1.1044
  489SOL    HW2 1467   2.078   2.930   0.460 -0.5963 -0.1778 -0.5302
  490SOL     OW 1468   1.638   2.901   3.032 -0.0800  0.2459  0.0903
  490SOL    HW1 1469   1.718   2.965   3.024  0.3368 -1.0158  0.1889
  490SOL    HW2 1470   1.556   2.953   3.068  1.5342  0.5136  1.4009
  491SOL     OW 1471   0.881   0.172   1.037  0.2084  0.0342 -0.4470
  491SOL    HW1 1472   0.981   0.157   1.025 -2.2752 -0.4928 -0.5772
  491SOL    HW2 1473   0.835   0.098   1.095  0.1452  0.4829 -0.1988
  492SOL     OW 1474   1.845   3.021   0.323 -0.8425 -0.1897  0.1089
  492SOL    HW1 1475   1.885   3.025   0.418  1.0938 -1.3590  2.1161
  492SOL    HW2 1476   1.842   2.920   0.301 -0.8713  1.0216 -3.1566
  493SOL     OW 1477   1.768   2.631   2.760 -0.2096  0.0225  0.3893
  493SOL    HW1 1478   1.765   2.532   2.730  0.6978  1.5297 -0.6257
  493SOL    HW2 1479   1.740   2.643   2.857  2.8689 -0.6421 -0.4713
  494SOL     OW 1480   0.569   1.158   0.954 -0.0401  0.0778 -0.3920
  494SOL    HW1 1481   0.582   1.055   0.968 -2.1019 -1.3944  1.3937
  494SOL    HW2 1482   0.471   1.177   0.937 -0.8915  0.0932  0.2411
  495SOL     OW 1483   2.946   0.347   1.947  0.4821  0.5155 -0.0535
  495SOL    HW1 1484   2.974   0.322   1.850  0.3173  1.3272 -1.2995
  495SOL    HW2 1485   3.003   0.294   2.009  1.6822  1.3558 -1.0600
  496SOL     OW 1486   2.520   2.484   2.096  0.1921  0.6419  0.5950
  496SOL    HW1 1487   2.615   2.462   2.110 -1.1990  0.8038  1.9917
  496SOL    HW2 1488   2.497   2.563   2.153 -0.3868 -1.6840  0.9964
  497SOL     OW 1489   1.637   1.284   2.707 -0.1557  0.0902  0.3745
  497SOL    HW1 1490   1.620   1.268   2.609  3.1038 -0.6535  0.5259
  497SOL    HW2 1491   1.628   1.204   2.769 -1.0431  1.1021  0.1841
  498SOL     OW 1492   0.832   2.019   0.703 -0.4361  0.3858 -0.3218
  498SOL    HW1 1493   0.786   1.997   0.616 -0.4900  0.6704 -0.3251
  498SOL    HW2 1494   0.770   1.996   0.782  1.2246 -0.1537  0.2893
  499SOL     OW 1495   0.204   1.624   0.967 -0.1536  0.3428  0.2135
  499SOL    HW1 1496   0.106   1.625   0.996 -1.0146 -0.9069  0.6069
  499SOL    HW2 1497   0.267   1.609   1.045 -1.0853  0.2592  1.0918
  500SOL     OW 1498   1.626   2.630   0.493 -0.4589  0.0521 -0.6833
  500SOL    HW1 1499   1.562   2.693   0.441 -1.8234  2.6402 -0.2982
  500SOL    HW2 1500   1.581   2.550   0.537  0.0463 -0.7066 -1.0108
  501SOL     OW 1501   2.135   2.576   1.058 -0.1564 -0.1618  0.1608
  501SOL    HW1 1502   2.216   2.516   1.047  1.8912  1.1303 -0.6534
  501SOL    HW2 1503   2.093   2.603   0.971  1.4200 -0.5887  2.0108
  502SOL     OW 1504   0.505   0.463   1.525  0.1989 -0.1956  0.4655
  502SOL    HW1 1505   0.407   0.435   1.541  0.9031 -0.9664 -1.0434
  502SOL    HW2 1506   0.537   0.432   1.434  0.0738  0.0291  0.5655
  503SOL     OW 1507   2.087   0.232   1.621  0.4169  0.5166  0.3185
  503SOL    HW1 1508   2.005   0.205   1.570  1.5200  0.0916 -0.5363
  503SOL    HW2 1509   2.144   0.152   1.646  0.5474  2.1735 -1.7255
  504SOL     OW 1510   2.046   0.899   2.008  0.2163 -0.1776  0.4313
  504SOL    HW1 1511   1.979   0.970   2.043 -2.1772  1.3774 -0.2073
  504SOL    HW2 1512   2.128   0.943   1.957  2.0877  1.7675  0.2668
  505SOL     OW 1513   1.243   2.985   2.156 -0.2104 -0.0651  0.0330
  505SOL    HW1 1514   1.340   2.967   2.154  0.7428 -2.1563  1.7670
  505SOL    HW2 1515   1.215   3.019   2.247 -0.1396  0.0683  1.6711
  506SOL     OW 1516   0.361   0.317   1.871  0.0941 -0.0521 -0.6999
  506SOL    HW1 1517   0.441   0.374   1.850 -2.8762  0.2920  0.3826
  506SOL    HW2 1518   0.379   0.230   1.919  3.0459 -0.5739 -0.9536
  507SOL     OW 1519   1.596   0.148   2.964  0.0893  0.2759 -0.3179
  507SOL    HW1 1520   1.621   0.223   3.028 -1.6225 -0.8775 -1.3059
  507SOL    HW2 1521   1.557   0.076   3.019  2.9191  6.1781  0.5943
  508SOL     OW 1522   2.278   0.586   2.389 -0.3284  0.3379 -0.1316
  508SOL    HW1 1523   2.280   0.592   2.490 -1.3386 -1.6489 -2.2323
  508SOL    HW2 1524   2.308   0.671   2.343  2.4515 -0.0577  1.2432
  509SOL     OW 1525   0.783   1.279   2.188  0.0103  0.2735  0.0212
  509SOL    HW1 1526   0.828   1.206   2.240 -0.1230 -0.1936 -2.0778
  509SOL    HW2 1527   0.810   1.371   2.219 -1.4659  2.6293  1.7350
  510SOL     OW 1528   2.887   0.498   0.938 -0.4115  0.0479 -0.6024
  510SOL    HW1 1529   2.969   0.558   0.947  1.1999  2.0868  0.7534
  510SOL    HW2 1530   2.859   0.492   0.837 -0.8698 -0.4502 -1.9544
  511SOL     OW 1531   1.792   1.430   1.118 -0.4476  0.0256 -0.2122
  511SOL    HW1 1532   1.778   1.478   1.031 -0.5020  0.2459 -1.1300
  511SOL    HW2 1533   1.790   1.494   1.200  0.4333  2.7469  3.5392
  512SOL     OW 1534   0.499   1.301   0.515  0.3480 -0.2657  0.3529
  512SOL    HW1 1535   0.402   1.292   0.531  2.7610 -1.0927  0.2069
  512SOL    HW2 1536   0.558   1.280   0.595 -1.4160 -1.6995  0.8209
  513SOL     OW 1537   0.581   2.179   0.996  0.1081  0.0118 -0.3130
  513SOL    HW1 1538   0.485   2.143   1.000 -4.7710  1.9743 -0.2422
  513SOL    HW2 1539   0.584   2.258   0.928  1.2340  1.9739 -0.8886
  514SOL     OW 1540   0.165   2.132   3.052  0.0675  0.5917 -0.2780
  514SOL    HW1 1541   0.078   2.151   3.097  1.8828 -2.2309 -3.3233
  514SOL    HW2 1542   0.232   2.118   0.015 -1.9544 -0.2620  0.1530
  515SOL     OW 1543   2.869   0.294   0.011 -0.3011  0.5552  0.0788
  515SOL    HW1 1544   2.868   0.197   0.046 -0.0845  1.0472  1.2904
  515SOL    HW2 1545   2.899   0.352   0.082 -0.9824 -3.1132 -0.8755
  516SOL     OW 1546   1.969   3.098   1.065  0.4049 -0.5617  0.3476
  516SOL    HW1 1547   1.889   3.100   1.125  2.5014 -0.5828 -3.1908
  516SOL    HW2 1548   2.043   3.027   1.086  0.3735 -0.9555 -2.2978
  517SOL     OW 1549   1.246   1.593   0.403 -0.5809 -0.2977 -0.1058
  517SOL    HW1 1550   1.283   1.500   0.405  0.0078  3.6390  0.5937
  517SOL    HW2 1551   1.159   1.609   0.456 -1.2806  0.1507 -1.7139
  518SOL     OW 1552   1.477   0.708   1.397  0.6478  0.1723  0.7000
  518SOL    HW1 1553   1.471   0.659   1.305  0.8151  1.0272 -1.4516
  518SOL    HW2 1554   1.490   0.807   1.377 -0.6081 -1.5816  3.2240
  519SOL     OW 1555   2.736   2.276   0.215  0.0955 -0.1890  0.4062
  519SOL    HW1 1556   2.759   2.213   0.291  0.0169  0.9171  1.7468
  519SOL    HW2 1557   2.807   2.351   0.213  1.9922 -1.4022 -0.2563
  520SOL     OW 1558   2.157   2.258   1.898  0.6559  0.0519  0.3700
  520SOL    HW1 1559   2.116   2.162   1.900  0.6471 -2.2167  1.6533
  520SOL    HW2 1560   2.211   2.267   1.984  1.7405  0.9404  0.4314
  521SOL     OW 1561   1.591   2.790   2.278  0.2579  0.2502  1.1877
  521SOL    HW1 1562   1.551   2.748   2.362 -0.6122 -1.6877  1.0342
  521SOL    HW2 1563   1.592   2.895   2.287  1.5479  1.6763 -1.8489
  522SOL     OW 1564   2.765   0.266   2.124 -0.1301  0.3143  0.3248
  522SOL    HW1 1565   2.839   0.274   2.056  1.6462 -3.2904  2.2709
  522SOL    HW2 1566   2.811   0.233   2.208  0.9972  2.8702  2.0441
  523SOL     OW 1567   1.072   2.124   1.426  0.2468 -0.8368 -0.0554
  523SOL    HW1 1568   1.021   2.157   1.507  1.1294 -0.3582  1.1432
  523SOL    HW2 1569   1.006   2.071   1.364 -1.9704  2.7980  0.0251
  524SOL     OW 1570   2.111   2.062   2.861 -0.0971  0.4919  0.2651
  524SOL    HW1 1571   2.199   2.053   2.814 -0.6473 -0.9636  2.7334
  524SOL    HW2 1572   2.039   2.013   2.807  0.2415 -1.4078 -1.1830
  525SOL     OW 1573   2.764   0.933   0.323 -0.2047  0.2895 -0.2313
  525SOL    HW1 1574   2.847   0.898   0.366  0.2186  1.1705 -0.2054
  525SOL    HW2 1575   2.758   0.901   0.227 -1.6895  1.2613  2.8879
  526SOL     OW 1576   1.044   2.963   1.045 -0.7416  0.3074  0.1349
  526SOL    HW1 1577   1.029   2.862   1.027 -1.9314  0.7086 -0.9894
  526SOL    HW2 1578   0.971   3.007   1.098  2.9178  0.1768 -1.2631
  527SOL     OW 1579   2.424   1.522   0.646 -0.0871  0.3392 -0.0944
  527SOL    HW1 1580   2.346   1.464   0.620 -0.7872  1.4637 -0.8570
  527SOL    HW2 1581   2.466   1.566   0.564  3.3896 -1.7293 -1.2026
  528SOL     OW 1582   0.458   0.812   2.670 -0.4136 -0.6475  0.1918
  528SOL    HW1 1583   0.504   0.857   2.590  0.1463  0.9864 -0.5005
  528SOL    HW2 1584   0.359   0.785   2.646 -0.0470 -0.6081 -0.7383
  529SOL     OW 1585   0.485   1.411   0.027 -0.0951  0.2051  0.0271
  529SOL    HW1 1586   0.436   1.444   3.055 -0.6890  0.6127  1.8616
  529SOL    HW2 1587   0.430   1.336   0.068  0.5742 -1.7050  0.4265
  530SOL     OW 1588   1.416   0.892   1.840  0.1618  0.1966 -0.3158
  530SOL    HW1 1589   1.498   0.919   1.895  1.9608 -0.0652  2.8125
  530SOL    HW2 1590   1.407   0.790   1.819 -3.3086 -0.3862  2.3347
  531SOL     OW 1591   1.256   2.349   2.958 -0.0644 -0.8338  0.5405
  531SOL    HW1 1592   1.275   2.365   2.860  3.4611 -3.0097 -0.1084
  531SOL    HW2 1593   1.320   2.283   3.001  0.6876  1.4561  1.1162
  532SOL     OW 1594   2.197   0.773   0.078 -0.2422 -0.4054  0.1621
  532SOL    HW1 1595   2.156   0.801   0.167  0.1564  0.1990 -0.8988
  532SOL    HW2 1596   2.252   0.690   0.085 -0.8410  0.9114  3.3270
  533SOL     OW 1597   2.842   0.584   2.106 -0.7927  0.3794 -0.0396
  533SOL    HW1 1598   2.790   0.502   2.075 -1.2712  1.1403 -0.0691
  533SOL    HW2 1599   2.785   0.662   2.139 -1.7510  0.6961  1.5755
  534SOL     OW 1600   1.864   0.126   0.139 -0.3621 -0.7312  0.1173
  534SOL    HW1 1601   1.862   0.069   0.220  0.7013 -0.5866  0.4141
  534SOL    HW2 1602   1.952   0.180   0.140  1.0605  0.9107 -1.2971
  535SOL     OW 1603   0.615   0.332   3.091 -0.7961 -0.3608 -0.2747
  535SOL    HW1 1604   0.574   0.299   0.067  0.6709 -4.5426  0.1523
  535SOL    HW2 1605   0.717   0.347   3.097  2.4203 -2.0872 -1.0730
  536SOL     OW 1606   0.463   1.530   1.645  0.2057  0.1642 -0.4780
  536SOL    HW1 1607   0.405   1.609   1.675  1.9940  1.2216 -1.3161
  536SOL    HW2 1608   0.468   1.522   1.544 -0.2993  1.8169 -1.2999
  537SOL     OW 1609   0.271   2.671   1.910  0.0154  0.2616 -0.0261
  537SOL    HW1 1610   0.357   2.665   1.855  1.0401  1.1315 -0.4248
  537SOL    HW2 1611   0.283   2.720   2.002 -1.0608  0.6680  0.6736
  538SOL     OW 1612   3.041   2.188   0.091  0.3998  0.1782  0.5385
  538SOL    HW1 1613   3.025   2.280   0.137 -0.2975  1.2912 -0.3378
  538SOL    HW2 1614   2.968   2.171   0.026  1.6468  0.4381  1.8787
  539SOL     OW 1615   2.493   0.760   2.862 -0.5764  0.4746  0.2821
  539SOL    HW1 1616   2.576   0.727   2.810  0.8752 -0.3405 -3.3906
  539SOL    HW2 1617   2.511   0.852   2.897 -1.9242 -2.4819  0.8056
  540SOL     OW 1618   1.683   0.811   0.167 -0.5492 -0.6103  0.1175
  540SOL    HW1 1619   1.736   0.903   0.166  0.9262  1.7858 -0.6200
  540SOL    HW2 1620   1.582   0.829   0.153 -2.2436  0.9286  1.4890
  541SOL     OW 1621   0.871   0.531   1.971 -0.3080 -0.0364 -0.8100
  541SOL    HW1 1622   0.848   0.468   2.050 -0.8890  0.4790  1.6946
  541SOL    HW2 1623   0.812   0.615   1.970 -2.7737  3.4940  0.1368
  542SOL     OW 1624   1.766   2.400   2.200  0.3230  0.1114  0.1567
  542SOL    HW1 1625   1.815   2.488   2.227  0.4970 -0.8396 -1.2276
  542SOL    HW2 1626   1.791   2.368   2.107  1.1923  0.4173  1.4207
  543SOL     OW 1627   0.975   2.907   0.639 -0.4391  0.0683 -0.1763
  543SOL    HW1 1628   0.997   3.005   0.623 -0.1465 -2.1407 -0.2991
  543SOL    HW2 1629   0.889   2.884   0.595 -1.7664  1.2111  0.3636
  544SOL     OW 1630   2.839   1.770   2.200 -0.3754 -0.2686  0.6615
  544SOL    HW1 1631   2.900   1.811   2.262 -2.5582 -3.1082 -1.8469
  544SOL    HW2 1632   2.751   1.779   2.246 -0.3071 -2.0256 -0.1913
  545SOL     OW 1633   1.585   2.051   1.374 -0.3616  0.1603  0.7291
  545SOL    HW1 1634   1.492   2.094   1.393 -1.3846 -0.7429 -0.2385
  545SOL    HW2 1635   1.595   1.958   1.407  2.7480  1.7668 -1.2760
  546SOL     OW 1636   0.601   0.032   2.336  0.2383 -0.1065  0.0696
  546SOL    HW1 1637   0.599   0.136   2.334 -3.0198  1.1513  0.4640
  546SOL    HW2 1638   0.522   0.004   2.391  3.6970 -1.0594 -1.3939
  547SOL     OW 1639   1.204   0.378   0.540 -0.2193  0.6551  0.2873
  547SOL    HW1 1640   1.190   0.327   0.628  1.7604 -1.0551 -0.5558
  547SOL    HW2 1641   1.144   0.356   0.462  1.3088 -2.1410 -0.8961
  548SOL     OW 1642   1.394   2.160   3.097  0.1598  0.1101 -0.5376
  548SOL    HW1 1643   1.498   2.157   0.005  1.4472  1.0107  0.9495
  548SOL    HW2 1644   1.339   2.085   0.031 -0.6714 -1.6762  0.6567
  549SOL     OW 1645   1.861   1.009   0.166  0.1646 -0.3985  0.1557
  549SOL    HW1 1646   1.944   1.007   0.227  0.1776 -0.5734  0.6513
  549SOL    HW2 1647   1.856   1.103   0.124 -1.7393  1.8617  0.4079
  550SOL     OW 1648   2.593   2.109   0.083  0.2011 -0.7235 -0.2998
  550SOL    HW1 1649   2.523   2.102   0.156 -2.1231 -0.3398 -2.4372
  550SOL    HW2 1650   2.668   2.173   0.108  1.2748  0.9999  1.7090
  551SOL     OW 1651   1.287   0.579   1.536  0.5359  0.0894  0.7383
  551SOL    HW1 1652   1.358   0.620   1.475  0.5788 -0.4480  1.6785
  551SOL    HW2 1653   1.317   0.589   1.632  1.1602 -0.6765  1.1057
  552SOL     OW 1654   0.047   2.304   2.688  0.4833  0.6094  0.6212
  552SOL    HW1 1655   0.035   2.211   2.649  1.4034  0.8841  0.8908
  552SOL    HW2 1656   3.082   2.328   2.751 -1.4185  0.5664  1.6516
  553SOL     OW 1657   2.745   2.505   0.664 -0.6160  0.4025 -0.1492
  553SOL    HW1 1658   2.840   2.479   0.704  3.0606 -0.0650 -1.7291
  553SOL    HW2 1659   2.669   2.456   0.713 -0.0477 -0.0639  3.4890
  554SOL     OW 1660   2.063   1.772   1.700  0.3926 -0.7409  0.1746
  554SOL    HW1 1661   2.093   1.680   1.732 -1.0967 -0.6639  0.2563
  554SOL    HW2 1662   1.971   1.797   1.736  0.4063  0.5695 -0.5836
  555SOL     OW 1663   1.519   2.124   2.274  0.2274  0.1445 -0.2698
  555SOL    HW1 1664   1.441   2.074   2.317 -1.5246  2.3922  0.3032
  555SOL    HW2 1665   1.505   2.226   2.265 -0.7295  2.7777 -1.0590
  556SOL     OW 1666   1.326   1.646   1.448 -0.5112  0.3216 -0.1490
  556SOL    HW1 1667   1.265   1.723   1.469  1.6493  0.3537 -0.8177
  556SOL    HW2 1668   1.267   1.570   1.411 -0.0023  2.1490  0.7952
  557SOL     OW 1669   1.434   0.124   1.729 -0.2977 -0.4459 -0.6144
  557SOL    HW1 1670   1.489   0.053   1.780  2.6047  0.0295  3.8445
  557SOL    HW2 1671   1.364   0.167   1.789 -0.0640 -1.6677 -1.8078
  558SOL     OW 1672   0.620   2.943   2.157  0.4008  0.3365  0.2171
  558SOL    HW1 1673   0.620   2.989   2.068 -0.7586  0.0716 -0.1270
  558SOL    HW2 1674   0.610   3.017   2.228  0.7664  1.0499  0.0819
  559SOL     OW 1675   2.051   2.372   0.079  0.0748  0.7805 -0.1781
  559SOL    HW1 1676   1.981   2.443   0.096  2.3844  2.9443  1.8111
  559SOL    HW2 1677   2.134   2.386   0.136  3.1353 -0.0536  0.3473
  560SOL     OW 1678   1.390   2.226   0.386 -0.0329 -0.6956 -0.3081
  560SOL    HW1 1679   1.435   2.167   0.456  0.2685  1.1806 -1.3049
  560SOL    HW2 1680   1.448   2.258   0.308 -2.4280 -0.0528  0.0784
  561SOL     OW 1681   1.180   0.341   0.092 -0.3757 -0.1982 -0.0594
  561SOL    HW1 1682   1.154   0.418   0.032  0.6876  0.9936 -0.0341
  561SOL    HW2 1683   1.275   0.358   0.133  0.7587  1.5190 -1.4952
  562SOL     OW 1684   0.445   1.443   2.038 -0.8245 -0.2923  0.0436
  562SOL    HW1 1685   0.438   1.343   2.064 -0.5843  0.5887 -0.4983
  562SOL    HW2 1686   0.510   1.449   1.958  2.0308  1.7067 -1.5935
  563SOL     OW 1687   1.301   2.058   2.608 -0.4813  0.7163  0.2459
  563SOL    HW1 1688   1.288   1.996   2.525  2.6606 -0.3307  2.3028
  563SOL    HW2 1689   1.400   2.060   2.641  1.1392 -1.6615  1.9430
  564SOL     OW 1690   2.768   0.850   0.785 -0.2463 -0.0853 -0.0687
  564SOL    HW1 1691   2.720   0.786   0.845  0.9379  1.4186  0.6139
  564SOL    HW2 1692   2.806   0.929   0.833  0.9896 -2.1440 -1.3500
  565SOL     OW 1693   0.375   1.174   0.118 -0.1090  0.3490 -0.2019
  565SOL    HW1 1694   0.319   1.135   0.040  1.0875  2.3421 -2.9002
  565SOL    HW2 1695   0.338   1.152   0.211 -0.7076  1.7219 -1.1680
  566SOL     OW 1696   2.457   2.749   2.807 -0.6377  0.1653 -0.7172
  566SOL    HW1 1697   2.476   2.794   2.716 -0.9028 -0.5490 -2.2321
  566SOL    HW2 1698   2.470   2.808   2.892  1.3571 -0.1413 -0.2281
  567SOL     OW 1699   1.584   1.264   1.158  0.1482  0.0208 -0.3058
  567SOL    HW1 1700   1.657   1.335   1.155  0.7969 -0.3440 -0.1080
  567SOL    HW2 1701   1.602   1.198   1.233  1.7543 -1.7292 -2.0174
  568SOL     OW 1702   1.425   1.425   2.821  0.7031  0.5868  0.1447
  568SOL    HW1 1703   1.331   1.402   2.792  1.6355  2.8003  0.6328
  568SOL    HW2 1704   1.482   1.380   2.751  2.1789  0.1505  0.9325
  569SOL     OW 1705   2.358   1.731   3.002  0.4384 -0.2523  0.1146
  569SOL    HW1 1706   2.452   1.765   3.007  0.3300 -0.2218  0.3345
  569SOL    HW2 1707   2.305   1.773   3.077  0.8823 -0.1429 -1.3856
  570SOL     OW 1708   2.995   2.391   1.937 -0.0100  0.5042  0.0491
  570SOL    HW1 1709   3.031   2.354   2.026  0.3671 -0.9650  2.2901
  570SOL    HW2 1710   3.043   2.480   1.918 -0.6958 -1.1499  3.4827
  571SOL     OW 1711   2.856   1.783   1.643  0.0726 -0.3452 -0.0978
  571SOL    HW1 1712   2.880   1.684   1.620  1.3605 -1.0542 -0.7702
  571SOL    HW2 1713   2.876   1.788   1.743  1.1862 -1.3046 -2.1761
  572SOL     OW 1714   1.785   2.286   0.473  0.6642  0.2597 -0.4770
  572SOL    HW1 1715   1.726   2.296   0.391  1.4112  0.8654 -0.1102
  572SOL    HW2 1716   1.883   2.318   0.461 -2.2381 -1.8799 -0.6482
  573SOL     OW 1717   1.495   2.015   0.517  0.3612  0.1144  0.1914
  573SOL    HW1 1718   1.580   2.029   0.574 -0.5949  1.5527  0.1832
  573SOL    HW2 1719   1.417   1.974   0.568  0.7027 -1.2917 -1.3037
  574SOL     OW 1720   1.437   3.106   1.481 -0.0262 -0.7207 -0.3204
  574SOL    HW1 1721   1.495   3.024   1.505  0.3619 -2.4087 -0.6666
  574SOL    HW2 1722   1.429   0.061   1.558  0.1846  0.9614  2.4734
  575SOL     OW 1723   0.381   1.071   1.266  0.7285 -0.6281 -0.0199
  575SOL    HW1 1724   0.461   1.012   1.268 -1.8273 -1.6389  0.5309
  575SOL    HW2 1725   0.409   1.165   1.260  1.4578 -3.1449 -0.9196
  576SOL     OW 1726   2.530   0.497   1.077 -0.5036 -0.1251 -0.4735
  576SOL    HW1 1727   2.626   0.465   1.106 -0.6376 -0.0765  0.0757
  576SOL    HW2 1728   2.507   0.471   0.980 -0.3638  2.0048  2.0783
  577SOL     OW 1729   1.392   0.816   2.538 -0.2899 -0.1103 -0.5349
  577SOL    HW1 1730   1.366   0.760   2.623  0.5990 -2.4561  1.5014
  577SOL    HW2 1731   1.422   0.754   2.464 -0.1230  3.5955  1.2787
  578SOL     OW 1732   2.144   1.386   2.553 -0.1094 -0.6959  1.1253
  578SOL    HW1 1733   2.174   1.373   2.649 -1.1460 -0.5584 -2.2556
  578SOL    HW2 1734   2.170   1.487   2.530  0.4471  3.6784  2.3067
  579SOL     OW 1735   0.764   1.725   1.362  0.2311  0.1377  0.6754
  579SOL    HW1 1736   0.690   1.769   1.420  0.5834  0.7740  0.3646
  579SOL    HW2 1737   0.717   1.665   1.294 -0.8563 -3.0930 -0.7265
  580SOL     OW 1738   1.617   2.275   0.237  0.3287 -0.1215  0.1989
  580SOL    HW1 1739   1.582   2.352   0.180 -0.3765 -1.2934  0.4608
  580SOL    HW2 1740   1.649   2.193   0.182  0.4861 -0.3788 -0.8873
  581SOL     OW 1741   0.936   0.805   2.199  0.9749  0.0105 -0.2631
  581SOL    HW1 1742   0.851   0.775   2.148 -0.2513  0.9603 -3.2973
  581SOL    HW2 1743   0.948   0.749   2.285 -2.3115  1.8823 -3.0888
  582SOL     OW 1744   0.917   1.211   1.247  0.1717 -0.3395 -0.4351
  582SOL    HW1 1745   0.902   1.110   1.257  0.3295  1.2534  1.5138
  582SOL    HW2 1746   0.911   1.254   1.340 -2.8849 -0.4444  0.4458
  583SOL     OW 1747   0.690   1.210   1.937  1.0926 -0.2129 -0.1534
  583SOL    HW1 1748   0.654   1.284   1.881 -1.1043  0.3307  2.0978
  583SOL    HW2 1749   0.718   1.248   2.031 -0.4375 -0.9983  2.7295
  584SOL     OW 1750   2.134   2.634   0.360 -0.4800  0.1547  0.0792
  584SOL    HW1 1751   2.048   2.625   0.415 -0.6424 -2.9280 -1.5611
  584SOL    HW2 1752   2.162   2.735   0.349  0.2957  1.1870 -0.9568
  585SOL     OW 1753   1.905   0.305   2.736  0.1646  0.7667 -0.9915
  585SOL    HW1 1754   1.896   0.204   2.763 -2.2226  1.1132  0.1666
  585SOL    HW2 1755   1.847   0.324   2.655  0.1381 -0.4940  1.0680
  586SOL     OW 1756   0.028   1.839   0.444  0.1548  0.1929  0.2790
  586SOL    HW1 1757   3.089   1.760   0.490 -0.3233 -1.3151 -0.2145
  586SOL    HW2 1758   3.065   1.891   0.390 -4.7236  5.0981  0.6762
  587SOL     OW 1759   1.785   1.823   0.413  0.0953 -0.0744 -0.1938
  587SOL    HW1 1760   1.753   1.731   0.440 -1.3018 -0.6065  0.8374
  587SOL    HW2 1761   1.881   1.822   0.382  2.1844 -1.7446  2.5439
  588SOL     OW 1762   0.267   0.102   0.621  0.2717 -0.1840  0.0185
  588SOL    HW1 1763   0.361   0.068   0.636 -0.3372  1.2340  2.4976
  588SOL    HW2 1764   0.261   0.194   0.569  0.2334 -1.0593 -2.6255
  589SOL     OW 1765   1.187   0.814   0.974  0.4543  0.3723  0.7618
  589SOL    HW1 1766   1.087   0.823   0.963  2.6454 -0.2988  0.6971
  589SOL    HW2 1767   1.222   0.873   1.043  2.1883 -0.5788  0.1976
  590SOL     OW 1768   1.337   1.150   0.185  0.0290 -0.2288 -0.5264
  590SOL    HW1 1769   1.334   1.239   0.141  1.6219 -3.6528  2.9035
  590SOL    HW2 1770   1.305   1.153   0.285 -1.3913  0.7209  3.7602
  591SOL     OW 1771   2.548   2.431   2.424  0.1037 -0.4805  0.0288
  591SOL    HW1 1772   2.514   2.524   2.387 -1.9729  0.7941 -1.5960
  591SOL    HW2 1773   2.644   2.412   2.408 -0.1175 -0.3005  0.7704
  592SOL     OW 1774   1.686   2.034   0.853 -0.2788  0.3694 -0.0619
  592SOL    HW1 1775   1.729   2.038   0.762 -2.4691 -0.0470  2.3234
  592SOL    HW2 1776   1.757   2.016   0.923  1.6640 -1.2986  1.5213
  593SOL     OW 1777   1.144   0.167   1.041  1.1821 -0.0484 -0.1796
  593SOL    HW1 1778   1.213   0.095   1.046 -0.4828  0.8360 -2.0032
  593SOL    HW2 1779   1.132   0.201   1.137 -1.0052 -2.6050 -2.4436
  594SOL     OW 1780   2.932   0.824   2.423 -0.3629  0.0773 -0.9137
  594SOL    HW1 1781   2.947   0.890   2.347  1.4814  0.0449 -0.4999
  594SOL    HW2 1782   2.955   0.731   2.387 -1.4708 -3.7520  0.8409
  595SOL     OW 1783   0.615   2.566   1.162  0.3341 -0.0259  0.0333
  595SOL    HW1 1784   0.524   2.568   1.121  2.0760 -1.9178  0.0323
  595SOL    HW2 1785   0.615   2.510   1.253 -2.7858  0.7528  1.8686
  596SOL     OW 1786   0.233   0.695   1.451 -0.2632  0.2780 -0.3977
  596SOL    HW1 1787   0.188   0.760   1.383  0.1345  2.2259 -1.6557
  596SOL    HW2 1788   0.187   0.608   1.441 -0.0710  0.7280  0.3935
  597SOL     OW 1789   1.593   1.867   0.210  0.2675  0.2075 -0.1491
  597SOL    HW1 1790   1.502   1.870   0.258  1.8736  0.0539  1.9507
  597SOL    HW2 1791   1.667   1.855   0.278 -2.5472  2.0036  0.0568
  598SOL     OW 1792   0.480   2.671   1.754 -0.6863  0.4789  0.5094
  598SOL    HW1 1793   0.479   2.660   1.653  0.5616 -0.6063 -1.7735
  598SOL    HW2 1794   0.582   2.669   1.786  3.6838 -1.9642  1.7606
  599SOL     OW 1795   2.570   1.912   2.760  0.4673  0.5636  0.5264
  599SOL    HW1 1796   2.494   1.978   2.749 -2.2612 -1.2265 -2.4746
  599SOL    HW2 1797   2.590   1.898   2.858  3.3342 -3.5253 -0.7319
  600SOL     OW 1798   0.652   0.781   0.364  0.4513  0.3859 -0.3025
  600SOL    HW1 1799   0.642   0.883   0.374 -1.6896  1.2799  2.2845
  600SOL    HW2 1800   0.724   0.759   0.428 -2.0961  0.4537 -0.6928
  601SOL     OW 1801   0.864   0.731   0.545 -0.0374  0.1102  0.5639
  601SOL    HW1 1802   0.903   0.817   0.581  0.4570 -2.5261 -1.8174
  601SOL    HW2 1803   0.873   0.653   0.613  1.6968  1.0121 -0.7432
  602SOL     OW 1804   1.503   2.940   0.851  0.1197  0.2847 -0.0583
  602SOL    HW1 1805   1.535   3.036   0.845  1.0532  1.2306 -2.2856
  602SOL    HW2 1806   1.439   2.918   0.775 -0.7173 -1.4103  0.9172
  603SOL     OW 1807   0.816   2.747   2.158 -0.1683 -0.3801  0.5797
  603SOL    HW1 1808   0.732   2.803   2.160 -2.7277 -1.0380  1.3413
  603SOL    HW2 1809   0.861   2.750   2.070 -2.7761 -0.5517 -0.4216
  604SOL     OW 1810   2.801   2.989   2.250 -0.3886 -0.6028  0.3643
  604SOL    HW1 1811   2.870   3.029   2.183 -0.4472 -1.5218 -0.2433
  604SOL    HW2 1812   2.856   2.922   2.301  1.0577 -0.7585  1.9795
  605SOL     OW 1813   2.680   2.096   1.146 -0.4762 -0.5048 -0.0160
  605SOL    HW1 1814   2.587   2.055   1.129  1.7517 -0.2919  1.2627
  605SOL    HW2 1815   2.702   2.134   1.237 -0.3366  1.7469 -0.8693
  606SOL     OW 1816   0.373   1.552   2.940  0.0992 -0.2225 -0.6294
  606SOL    HW1 1817   0.398   1.648   2.954  1.7706 -0.4417 -0.7293
  606SOL    HW2 1818   0.368   1.527   2.841  0.6155 -3.8196  0.7955
  607SOL     OW 1819   0.857   0.082   0.300 -0.3884  0.8917  0.1179
  607SOL    HW1 1820   0.775   0.041   0.349 -1.2197 -2.0924  3.6034
  607SOL    HW2 1821   0.845   0.126   0.209  0.5438  0.6743 -3.3924
  608SOL     OW 1822   1.641   1.215   2.437 -0.4776 -0.1035  0.2452
  608SOL    HW1 1823   1.737   1.239   2.459 -0.2356 -0.1020 -2.6521
  608SOL    HW2 1824   1.624   1.115   2.454  2.4442 -1.2030  0.6803
  609SOL     OW 1825   2.937   0.218   0.921  0.4496 -0.0269 -0.3987
  609SOL    HW1 1826   2.896   0.165   1.000 -0.4959  0.4097  3.2486
  609SOL    HW2 1827   2.914   0.314   0.939 -1.2933 -0.5921  2.0129
  610SOL     OW 1828   0.638   2.640   0.504 -0.1210 -0.4508  0.2339
  610SOL    HW1 1829   0.738   2.609   0.513 -0.5142  1.2777 -0.2668
  610SOL    HW2 1830   0.600   2.668   0.596  2.4475  0.1884 -1.0850
  611SOL     OW 1831   1.608   1.075   2.866  0.1747  0.0626  0.5068
  611SOL    HW1 1832   1.687   1.024   2.910 -0.5266  3.7218 -1.4931
  611SOL    HW2 1833   1.584   1.153   2.926 -1.1236 -0.8995 -0.0381
  612SOL     OW 1834   1.004   2.122   2.324  0.4425  0.4666  0.0304
  612SOL    HW1 1835   0.962   2.052   2.381  2.0199  0.3105 -0.0583
  612SOL    HW2 1836   1.051   2.193   2.387 -1.9694  1.2599  0.6933
  613SOL     OW 1837   1.055   2.452   0.212  0.2701 -0.0144 -0.7073
  613SOL    HW1 1838   1.020   2.421   0.300  0.6592 -1.3768  0.1345
  613SOL    HW2 1839   1.053   2.378   0.143  0.4934  0.6037 -1.2636
  614SOL     OW 1840   2.772   2.793   1.620 -0.2276 -0.4598 -0.2867
  614SOL    HW1 1841   2.771   2.808   1.522  1.8580 -2.1739  4.6416
  614SOL    HW2 1842   2.681   2.817   1.667 -4.8453  3.4399  0.6240
  615SOL     OW 1843   2.466   1.474   3.091  0.3637 -0.1397 -0.1752
  615SOL    HW1 1844   2.409   1.546   3.042  1.2901  0.7656  1.3478
  615SOL    HW2 1845   2.411   1.423   0.051  2.2287 -0.6709  2.3984
  616SOL     OW 1846   1.495   0.137   0.454 -0.2130 -0.5335 -0.0053
  616SOL    HW1 1847   1.431   0.086   0.519  1.4000 -0.7042  1.3016
  616SOL    HW2 1848   1.536   0.218   0.493 -1.5144 -1.3825 -0.2951
  617SOL     OW 1849   1.014   0.823   0.126 -0.0037  0.3730  0.1795
  617SOL    HW1 1850   1.050   0.735   0.084 -2.6030  0.0225 -0.5238
  617SOL    HW2 1851   0.999   0.895   0.056 -2.0761 -0.3727  0.3760
  618SOL     OW 1852   0.688   0.211   1.915  0.1728  0.2728  0.8398
  618SOL    HW1 1853   0.672   0.273   1.997  0.3001  0.5828  0.6900
  618SOL    HW2 1854   0.639   0.255   1.835 -0.2976 -1.1937 -0.5067
  619SOL     OW 1855   2.991   0.998   1.555 -0.6730 -0.1833 -0.0405
  619SOL    HW1 1856   3.054   0.931   1.593 -0.0397  0.5027  1.1604
  619SOL    HW2 1857   3.007   1.005   1.456  0.6774 -1.3910  1.0679
  620SOL     OW 1858   2.012   1.076   2.826  0.3137  0.5452  0.4519
  620SOL    HW1 1859   1.984   1.041   2.731 -2.2253 -0.9201  2.2152
  620SOL    HW2 1860   1.939   1.055   2.893 -0.0470 -0.0032 -0.7010
  621SOL     OW 1861   2.714   2.799   1.335 -0.3499 -0.5128  0.3799
  621SOL    HW1 1862   2.762   2.876   1.286  1.4871 -0.4656 -1.9786
  621SOL    HW2 1863   2.750   2.713   1.293  0.2365 -2.4467 -1.4083
  622SOL     OW 1864   1.303   0.769   2.794  0.2295  0.3271  0.5288
  622SOL    HW1 1865   1.255   0.860   2.799 -3.8366  0.1681  0.2960
  622SOL    HW2 1866   1.316   0.737   2.891 -0.3258 -0.4018  0.7212
  623SOL     OW 1867   1.107   0.590   3.075 -0.0450 -0.3186 -0.2657
  623SOL    HW1 1868   1.201   0.631   3.068  1.1916  0.6890  0.4126
  623SOL    HW2 1869   1.056   0.604   2.985  1.1267  1.0290 -0.3113
  624SOL     OW 1870   1.831   0.591   0.131 -0.5542 -0.3282  0.0423
  624SOL    HW1 1871   1.790   0.688   0.137  0.9216  0.4796  1.5491
  624SOL    HW2 1872   1.914   0.579   0.070 -0.0695  1.5316  0.0571
  625SOL     OW 1873   1.116   1.187   1.052 -0.0725  0.1582 -0.5416
  625SOL    HW1 1874   1.154   1.106   1.107  1.3145  0.1491  0.7217
  625SOL    HW2 1875   1.036   1.216   1.106  0.0312  1.1238  2.3458
  626SOL     OW 1876   1.576   1.298   3.046 -0.3733 -0.5747 -0.1166
  626SOL    HW1 1877   1.499   1.304   0.004  0.3398  0.5855  2.1897
  626SOL    HW2 1878   1.545   1.364   2.972 -1.6660  1.1988 -1.6092
  627SOL     OW 1879   0.988   2.914   2.015 -0.2450  0.0077  0.1126
  627SOL    HW1 1880   1.056   2.910   1.941 -0.2235 -2.3628  0.6331
  627SOL    HW2 1881   1.027   2.902   2.107  0.1737 -2.8203  0.1767
  628SOL     OW 1882   2.419   0.175   2.324 -0.2918 -0.0932  0.4879
  628SOL    HW1 1883   2.456   0.236   2.249  1.4277  1.8763 -2.1889
  628SOL    HW2 1884   2.464   0.192   2.413 -3.2062  2.3111  0.7428
  629SOL     OW 1885   0.688   0.904   3.086  0.0302 -0.2304  0.2652
  629SOL    HW1 1886   0.771   0.887   3.033  0.8448 -1.4894  1.5154
  629SOL    HW2 1887   0.667   0.820   0.037 -0.3794  2.2028  0.7531
  630SOL     OW 1888   1.296   0.231   2.051  0.0908  0.2416  0.1232
  630SOL    HW1 1889   1.223   0.221   2.121  0.4544  0.3967  1.0817
  630SOL    HW2 1890   1.391   0.200   2.082 -1.4075 -0.5426  1.0887
  631SOL     OW 1891   2.859   0.552   0.666 -0.2132  0.2411  0.1397
  631SOL    HW1 1892   2.774   0.563   0.607 -0.4528  3.6516  1.5084
  631SOL    HW2 1893   2.937   0.578   0.608  2.1741 -0.4615 -0.9664
  632SOL     OW 1894   2.201   1.081   1.197  0.0019  0.3442 -0.5213
  632SOL    HW1 1895   2.129   1.139   1.159  1.9630  1.1196 -0.7388
  632SOL    HW2 1896   2.202   0.984   1.158 -0.7223 -0.7476  0.5300
  633SOL     OW 1897   1.540   0.732   0.946 -0.0583 -0.3500 -0.1412
  633SOL    HW1 1898   1.457   0.774   0.897 -1.6114  0.8392 -0.8274
  633SOL    HW2 1899   1.605   0.808   0.959  3.7539 -0.5829 -0.0412
  634SOL     OW 1900   1.896   0.007   0.814 -0.2122 -0.0902 -0.4926
  634SOL    HW1 1901   1.930   0.012   0.912  0.7114  0.7078  3.0883
  634SOL    HW2 1902   1.796   3.108   0.815  3.1359  0.9840  0.2268
  635SOL     OW 1903   1.522   0.950   1.274 -0.2277  0.0284  0.0270
  635SOL    HW1 1904   1.543   0.942   1.172 -1.7876  0.1700  1.5380
  635SOL    HW2 1905   1.591   0.998   1.334  0.5794 -0.3468  3.0967
  636SOL     OW 1906   0.673   0.560   0.880 -0.4769  0.4267 -0.0292
  636SOL    HW1 1907   0.671   0.572   0.982 -0.5009 -0.5922 -1.1552
  636SOL    HW2 1908   0.770   0.574   0.850 -1.2689  0.6541  0.8192
  637SOL     OW 1909   2.057   2.295   0.448 -0.1630  0.2661  0.2162
  637SOL    HW1 1910   2.106   2.240   0.517 -1.1475  0.5405 -3.8697
  637SOL    HW2 1911   2.123   2.336   0.379  1.8192 -2.2767 -2.7729
  638SOL     OW 1912   1.557   2.899   2.754 -0.0292  0.0492 -0.4958
  638SOL    HW1 1913   1.556   2.895   2.857 -0.8899 -1.2227  1.3975
  638SOL    HW2 1914   1.650   2.889   2.715  0.8044  1.8361  3.5693
  639SOL     OW 1915   0.715   2.179   1.239  0.0859 -0.0778 -0.5348
  639SOL    HW1 1916   0.773   2.261   1.229 -0.6552  0.2969 -2.0372
  639SOL    HW2 1917   0.659   2.162   1.157 -1.8225 -0.8717  1.8578
  640SOL     OW 1918   0.057   2.647   0.453 -0.2264  0.3452 -0.3128
  640SOL    HW1 1919   0.040   2.561   0.509 -1.2682 -0.7071  0.1162
  640SOL    HW2 1920   0.156   2.668   0.455  0.1594 -0.3393 -0.3290
  641SOL     OW 1921   0.365   0.438   3.103 -0.4588 -0.1089  0.2817
  641SOL    HW1 1922   0.459   0.398   3.091  3.9841 -1.7078  1.0068
  641SOL    HW2 1923   0.304   0.411   3.029  1.3385  2.1865  1.1383
  642SOL     OW 1924   0.020   0.989   1.002  0.3828 -0.7407 -0.0878
  642SOL    HW1 1925   3.099   0.897   0.978  3.3287 -1.1239 -2.6073
  642SOL    HW2 1926   3.096   1.061   0.938  0.3272 -0.3745 -1.0265
  643SOL     OW 1927   0.588   1.711   1.954  0.3267 -0.2614  0.1373
  643SOL    HW1 1928   0.599   1.615   1.926  1.7628 -1.5628  1.8911
  643SOL    HW2 1929   0.635   1.719   2.040 -0.8677  0.3177 -0.9128
  644SOL     OW 1930   1.839   2.677   0.636 -0.7260 -0.1241 -0.6559
  644SOL    HW1 1931   1.867   2.575   0.650 -0.6784 -6.1001 -0.5452
  644SOL    HW2 1932   1.747   2.673   0.597  2.9789  0.4880  0.0331
  645SOL     OW 1933   1.789   2.411   1.126 -0.0399  0.0988 -0.3134
  645SOL    HW1 1934   1.830   2.497   1.157 -1.5365 -1.3001  1.0970
  645SOL    HW2 1935   1.733   2.424   1.042  0.1954 -0.6320  0.5940
  646SOL     OW 1936   1.254   2.879   0.365  0.2702  0.3704  0.2555
  646SOL    HW1 1937   1.189   2.809   0.345  1.1715 -0.4850  1.3239
  646SOL    HW2 1938   1.227   2.972   0.331  1.3195 -4.1543  2.7028
  647SOL     OW 1939   0.407   2.984   1.724  0.1362 -0.2269 -0.7857
  647SOL    HW1 1940   0.340   3.003   1.797  0.3416  2.6204 -2.1361
  647SOL    HW2 1941   0.409   2.883   1.706 -1.2995 -2.0947 -4.2220
  648SOL     OW 1942   1.834   0.937   1.411  0.4285  0.0247 -0.3217
  648SOL    HW1 1943   1.932   0.961   1.445  1.9773 -0.3543  1.9342
  648SOL    HW2 1944   1.843   0.854   1.355  0.7177  4.1209  0.8953
  649SOL     OW 1945   1.795   2.125   2.808  0.2047  0.0309  0.1177
  649SOL    HW1 1946   1.854   2.044   2.787  2.0084 -1.6498  0.8321
  649SOL    HW2 1947   1.784   2.132   2.909 -0.8637 -2.9658 -2.4885
  650SOL     OW 1948   2.420   1.811   1.694 -0.4068  0.3631  0.0663
  650SOL    HW1 1949   2.419   1.796   1.790  0.9720  0.3690 -1.5356
  650SOL    HW2 1950   2.327   1.837   1.657 -2.0747  1.5399 -0.2556
  651SOL     OW 1951   1.279   1.738   3.016  0.7525 -0.4581 -0.2034
  651SOL    HW1 1952   1.211   1.666   3.030 -1.0717 -1.7463  0.3588
  651SOL    HW2 1953   1.368   1.707   2.980 -1.6217  1.7750 -1.5213
  652SOL     OW 1954   1.013   2.854   2.882 -0.8459 -0.6443  0.4697
  652SOL    HW1 1955   1.065   2.780   2.827  0.9359 -1.1116 -1.0648
  652SOL    HW2 1956   1.064   2.943   2.872  0.8383  0.2720 -1.0763
  653SOL     OW 1957   2.260   2.230   1.145 -0.1840 -0.5415 -0.6330
  653SOL    HW1 1958   2.198   2.193   1.218 -3.1616 -2.2857  1.9999
  653SOL    HW2 1959   2.201   2.261   1.069  1.6309  0.4183 -0.6512
  654SOL     OW 1960   2.746   2.746   1.964 -0.5211  0.8139 -1.0553
  654SOL    HW1 1961   2.700   2.832   1.940 -0.4263 -0.9136  0.0478
  654SOL    HW2 1962   2.736   2.678   1.892 -2.1554  2.5297 -1.0707
  655SOL     OW 1963   2.874   2.199   0.962 -0.1518  0.0203 -0.3374
  655SOL    HW1 1964   2.922   2.127   0.913  1.2825 -1.7448  2.7890
  655SOL    HW2 1965   2.782   2.168   0.983 -0.4692 -0.8995 -2.2627
  656SOL     OW 1966   0.480   2.663   2.581 -0.2800  0.4696 -0.5470
  656SOL    HW1 1967   0.575   2.695   2.608 -0.1301  0.2639 -0.1233
  656SOL    HW2 1968   0.484   2.563   2.559 -1.4915  0.2536 -0.9893
  657SOL     OW 1969   2.988   0.804   0.372 -0.0282 -0.4247  0.0508
  657SOL    HW1 1970   3.039   0.737   0.433 -2.0836  1.5302  2.4879
  657SOL    HW2 1971   3.033   0.798   0.280 -1.8025 -0.2436 -1.6788
  658SOL     OW 1972   1.564   1.812   0.971 -0.4387 -0.3847 -0.0798
  658SOL    HW1 1973   1.511   1.839   1.056 -0.0269  0.2567 -0.4219
  658SOL    HW2 1974   1.593   1.902   0.933 -0.8848 -2.4060 -1.2460
  659SOL     OW 1975   1.667   0.521   1.284  0.4599 -0.8271  0.6821
  659SOL    HW1 1976   1.626   0.480   1.368 -0.1206  1.2960 -2.9157
  659SOL    HW2 1977   1.589   0.542   1.224  0.0750 -2.6292  0.0305
  660SOL     OW 1978   1.619   1.221   0.341  0.1590 -0.5063  0.0671
  660SOL    HW1 1979   1.591   1.158   0.270  0.0001  1.5735  0.3218
  660SOL    HW2 1980   1.539   1.256   0.393  0.6773  0.4914 -0.2620
  661SOL     OW 1981   0.201   1.688   0.316  0.4759  0.0238  0.2550
  661SOL    HW1 1982   0.174   1.650   0.220  0.1570  0.2824 -2.1517
  661SOL    HW2 1983   0.131   1.748   0.356 -0.3381 -2.0095 -1.2159
  662SOL     OW 1984   2.957   0.990   2.199  0.1372  0.1535 -0.1790
  662SOL    HW1 1985   2.943   1.004   2.099 -1.3863 -0.3778  1.6216
  662SOL    HW2 1986   2.897   1.053   2.260 -3.0901  1.6453  2.4810
  663SOL     OW 1987   2.104   1.465   1.321  0.2912 -0.0287 -0.5996
  663SOL    HW1 1988   2.071   1.559   1.315 -0.0205 -1.9411 -0.5066
  663SOL    HW2 1989   2.150   1.449   1.410 -0.4723 -2.8998 -2.9026
  664SOL     OW 1990   0.533   0.007   1.142  0.1228  0.0612  0.3465
  664SOL    HW1 1991   0.632   3.105   1.146 -0.2712  0.5020  0.9823
  664SOL    HW2 1992   0.507   0.071   1.213 -1.0924 -0.4316 -3.5386
  665SOL     OW 1993   1.161   3.096   2.867  0.2461  0.0584 -0.0959
  665SOL    HW1 1994   1.222   0.008   2.789  0.1806 -0.6073 -0.1443
  665SOL    HW2 1995   1.194   0.021   2.960 -0.9727  0.6424  2.3653
  666SOL     OW 1996   0.314   0.476   2.306 -0.2336  0.1931 -0.3120
  666SOL    HW1 1997   0.294   0.450   2.210 -0.9919  1.1179 -1.9791
  666SOL    HW2 1998   0.230   0.513   2.354 -2.9713  0.7275  2.2461
  667SOL     OW 1999   1.937   1.485   2.331 -0.2948 -0.0496 -0.7932
  667SOL    HW1 2000   2.020   1.512   2.281 -2.3788  0.7028  2.4641
  667SOL    HW2 2001   1.957   1.395   2.378  1.5439  0.8912 -1.2811
  668SOL     OW 2002   0.235   1.514   2.649  0.3844  0.1689  0.5855
  668SOL    HW1 2003   0.193   1.423   2.671  0.8652 -0.1985  0.7188
  668SOL    HW2 2004   0.185   1.592   2.696  1.1215  0.0876 -1.9021
  669SOL     OW 2005   2.169   2.804   2.555  0.3912 -0.5265  0.2769
  669SOL    HW1 2006   2.264   2.838   2.582  1.5572  2.1051 -0.3709
  669SOL    HW2 2007   2.176   2.749   2.469 -0.1146 -0.2374 -0.7630
  670SOL     OW 2008   2.480   0.997   2.524 -0.0249  0.1716 -0.0496
  670SOL    HW1 2009   2.536   0.915   2.513 -1.7402  1.2938  1.2460
  670SOL    HW2 2010   2.389   0.980   2.560  2.0904  0.5820 -1.7756
  671SOL     OW 2011   2.602   1.881   3.030  0.0572  0.3575  0.3124
  671SOL    HW1 2012   2.579   1.941   3.108  1.0022 -1.1993 -2.4272
  671SOL    HW2 2013   2.699   1.856   3.039 -2.7998  0.7427 -0.0572
  672SOL     OW 2014   2.656   1.486   2.229 -0.0374  0.1195 -0.2685
  672SOL    HW1 2015   2.572   1.455   2.284 -0.4125 -5.5309  0.9298
  672SOL    HW2 2016   2.697   1.573   2.264  0.7505  0.9101 -1.1693
  673SOL     OW 2017   0.052   1.451   1.227 -0.0274  0.2424  0.6392
  673SOL    HW1 2018   0.004   1.517   1.169 -0.4080 -0.0954  3.6284
  673SOL    HW2 2019   0.071   1.368   1.171 -0.6271  0.4178  0.5066
  674SOL     OW 2020   1.442   1.873   1.940  0.1922  0.0326  0.5354
  674SOL    HW1 2021   1.429   1.973   1.937 -1.2894 -2.1910 -0.6408
  674SOL    HW2 2022   1.527   1.855   1.888  2.6312 -1.1111 -2.8575
  675SOL     OW 2023   2.780   0.424   1.174  0.0315  0.2208 -0.3581
  675SOL    HW1 2024   2.817   0.453   1.086 -2.2935 -1.7900  2.0488
  675SOL    HW2 2025   2.832   0.344   1.205 -2.3637  1.5753  0.5937
  676SOL     OW 2026   2.688   1.296   0.588  0.0372  0.0432  0.0006
  676SOL    HW1 2027   2.670   1.376   0.527  0.9153 -3.2266  3.1534
  676SOL    HW2 2028   2.639   1.314   0.674  2.1070 -1.1825  0.6592
  677SOL     OW 2029   1.753   1.500   2.141  0.1926 -0.1441 -0.2044
  677SOL    HW1 2030   1.818   1.465   2.208 -1.8777 -2.1788 -2.3193
  677SOL    HW2 2031   1.659   1.465   2.160  0.2376  1.4640  2.9142
  678SOL     OW 2032   2.517   1.473   1.069 -0.4676  0.5820  0.1190
  678SOL    HW1 2033   2.584   1.523   1.130  0.4494  1.0935 -1.3141
  678SOL    HW2 2034   2.460   1.404   1.117 -2.2076 -2.9926 -0.4804
  679SOL     OW 2035   0.359   2.590   1.070 -0.4408  0.3156  0.7371
  679SOL    HW1 2036   0.286   2.548   1.009  1.7150  1.1096  0.1572
  679SOL    HW2 2037   0.337   2.681   1.111 -0.2709  0.1246 -0.7747
  680SOL     OW 2038   2.824   1.849   1.191 -0.1164 -0.5115 -0.0031
  680SOL    HW1 2039   2.916   1.874   1.225 -0.4693 -0.9244  2.1206
  680SOL    HW2 2040   2.780   1.932   1.160 -0.5355 -1.1929  0.0509
  681SOL     OW 2041   0.881   0.723   1.251  0.2683  0.1952  0.5494
  681SOL    HW1 2042   0.916   0.671   1.330 -3.1494  0.7201  0.0227
  681SOL    HW2 2043   0.786   0.691   1.224 -2.0416 -0.8510 -1.2891
  682SOL     OW 2044   1.598   0.076   0.792 -0.3653 -0.1330 -0.2382
  682SOL    HW1 2045   1.602   0.155   0.856 -1.1770 -0.3883  0.8177
  682SOL    HW2 2046   1.543   0.106   0.707 -0.5421  0.7365 -1.4401
  683SOL     OW 2047   2.659   1.385   1.731 -0.1280  0.1795 -0.2064
  683SOL    HW1 2048   2.691   1.422   1.643  1.4609 -2.0620  1.5277
  683SOL    HW2 2049   2.643   1.284   1.725  0.4365 -0.1494  0.5159
  684SOL     OW 2050   0.276   1.681   1.442  0.4053  0.0583 -0.5226
  684SOL    HW1 2051   0.261   1.581   1.439  2.1003  0.2181 -1.3502
  684SOL    HW2 2052   0.296   1.712   1.537 -2.0640  0.5529  0.4044
  685SOL     OW 2053   2.073   1.707   0.270  0.3896 -0.3190  0.0459
  685SOL    HW1 2054   2.077   1.757   0.365 -0.9452  1.2110 -0.0615
  685SOL    HW2 2055   2.148   1.643   0.270 -3.9593 -0.4653 -1.3684
  686SOL     OW 2056   2.728   0.175   0.734  0.1537  0.2003  0.1024
  686SOL    HW1 2057   2.813   0.204   0.789 -1.8229  0.4259 -1.0495
  686SOL    HW2 2058   2.706   0.244   0.662 -2.6439 -2.6868  2.3938
  687SOL     OW 2059   1.383   0.001   2.646 -0.3226 -0.5800 -0.4794
  687SOL    HW1 2060   1.427   0.089   2.669  4.1690  1.0462  2.6096
  687SOL    HW2 2061   1.443   3.033   2.672  0.8769 -1.3454 -0.1543
  688SOL     OW 2062   1.675   1.902   2.429  0.1368  0.3221  0.2167
  688SOL    HW1 2063   1.731   1.822   2.460  1.2837 -1.7881 -0.0109
  688SOL    HW2 2064   1.697   1.922   2.331 -0.1202  4.1287 -1.0117
  689SOL     OW 2065   2.735   1.101   1.959  0.1875  0.2309  0.6366
  689SOL    HW1 2066   2.707   1.170   2.031  1.0585  2.2047  1.3575
  689SOL    HW2 2067   2.838   1.108   1.954 -0.3634  0.3225 -1.2773
  690SOL     OW 2068   1.919   1.956   0.993 -0.0615 -0.1005 -0.3539
  690SOL    HW1 2069   1.956   1.909   1.076  0.0657 -0.3311  0.0975
  690SOL    HW2 2070   1.960   1.924   0.903  0.3836 -1.5507  0.6518
  691SOL     OW 2071   0.753   1.350   1.066  0.0863 -0.1551 -0.5725
  691SOL    HW1 2072   0.834   1.306   1.108 -2.0332  2.3739 -0.4311
  691SOL    HW2 2073   0.692   1.271   1.032  1.9696 -0.3387 -1.1777
  692SOL     OW 2074   2.346   2.998   2.094  0.0772 -0.0423  0.3776
  692SOL    HW1 2075   2.315   3.024   2.187 -1.0776  2.0422  1.3413
  692SOL    HW2 2076   2.440   2.959   2.106  2.4806 -1.1192  1.7671
  693SOL     OW 2077   3.053   1.433   2.406  0.1180 -0.3431  0.4219
  693SOL    HW1 2078   3.104   1.438   2.317 -2.0305  1.7334 -2.9314
  693SOL    HW2 2079   3.060   1.337   2.441 -2.6066 -0.9228  0.4663
  694SOL     OW 2080   2.009   0.285   1.297 -0.0614 -0.2555 -0.1475
  694SOL    HW1 2081   1.941   0.234   1.357  0.4091  2.8212  1.2705
  694SOL    HW2 2082   2.045   0.361   1.349  2.4512 -0.2656 -0.2915
  695SOL     OW 2083   1.195   1.034   2.823 -0.7006 -0.0287 -0.0404
  695SOL    HW1 2084   1.159   1.076   2.909 -0.3197 -1.5480 -0.0401
  695SOL    HW2 2085   1.273   1.088   2.780  1.4781 -1.2836  1.0615
  696SOL     OW 2086   1.912   0.241   1.835  0.2713  0.2001  0.4435
  696SOL    HW1 2087   1.819   0.259   1.807  1.3548 -0.3180  1.7205
  696SOL    HW2 2088   1.969   0.255   1.753 -0.3861  1.1784  0.9808
  697SOL     OW 2089   1.534   0.159   2.162 -0.1883 -0.3149  0.5046
  697SOL    HW1 2090   1.494   0.183   2.252  0.9310 -0.4726 -1.2627
  697SOL    HW2 2091   1.593   0.233   2.120 -0.7725 -0.6613 -0.7304
  698SOL     OW 2092   1.815   1.685   2.483 -0.6260 -0.0017  0.4191
  698SOL    HW1 2093   1.787   1.623   2.562 -1.4636 -2.0141  1.7625
  698SOL    HW2 2094   1.859   1.632   2.403  3.0781  0.5364 -1.7943
  699SOL     OW 2095   1.705   0.732   0.420 -0.1432  0.3024  0.1728
  699SOL    HW1 2096   1.687   0.756   0.324  2.2133 -1.5155  0.7588
  699SOL    HW2 2097   1.733   0.634   0.417  0.2138 -2.7349 -2.3289
  700SOL     OW 2098   1.441   3.037   0.019 -0.1856 -0.3504  0.1280
  700SOL    HW1 2099   1.491   3.048   0.108 -0.6978 -1.8422 -0.0199
  700SOL    HW2 2100   1.354   3.091   0.007 -0.2299  0.3622  1.3729
  701SOL     OW 2101   0.017   0.452   1.195  0.2192  0.1140 -0.0492
  701SOL    HW1 2102   0.005   0.555   1.184  0.2090  2.6853 -3.3957
  701SOL    HW2 2103   3.059   0.402   1.148  1.3346  0.3237 -0.4156
  702SOL     OW 2104   1.843   0.202   1.504  0.3275  0.7395  0.1452
  702SOL    HW1 2105   1.752   0.244   1.522 -1.4056  1.1941  4.2903
  702SOL    HW2 2106   1.838   0.100   1.525 -0.4123  0.0292  1.0072
  703SOL     OW 2107   2.709   0.692   1.458 -0.4173 -1.0120 -0.0658
  703SOL    HW1 2108   2.612   0.658   1.437 -1.9028  0.3310  0.8403
  703SOL    HW2 2109   2.752   0.725   1.368 -0.6164  0.0396  3.0750
  704SOL     OW 2110   0.874   2.399   1.251  0.3963  0.3389 -0.5145
  704SOL    HW1 2111   0.948   2.435   1.311 -2.5683 -0.6602 -2.2607
  704SOL    HW2 2112   0.861   2.468   1.171  0.7521  0.8721 -2.4902
  705SOL     OW 2113   0.237   1.694   2.319  0.0171 -0.3244  0.0441
  705SOL    HW1 2114   0.222   1.698   2.222  1.7593  1.8265  4.2922
  705SOL    HW2 2115   0.319   1.752   2.349  1.8240  1.9048 -0.2397
  706SOL     OW 2116   2.500   0.450   2.759 -0.8637  0.2843  0.0441
  706SOL    HW1 2117   2.420   0.405   2.805  0.5271 -0.0616  1.4008
  706SOL    HW2 2118   2.586   0.424   2.806 -2.2466  0.9851 -2.6600
  707SOL     OW 2119   1.833   2.666   2.244 -0.3365 -0.0023  0.3137
  707SOL    HW1 2120   1.907   2.722   2.197  2.0135  1.7273 -0.5282
  707SOL    HW2 2121   1.750   2.725   2.247  1.2310  2.6001  0.2457
  708SOL     OW 2122   0.586   2.443   1.413  0.7292 -0.0945  0.0540
  708SOL    HW1 2123   0.529   2.516   1.447 -1.1303 -1.1991 -1.3817
  708SOL    HW2 2124   0.542   2.355   1.421 -0.8280  1.6964  0.6182
  709SOL     OW 2125   3.018   0.765   1.828 -0.2457  0.3973  0.1836
  709SOL    HW1 2126   3.085   0.778   1.749 -0.9831  0.0395  1.0846
  709SOL    HW2 2127   3.055   0.705   1.905  1.1874 -0.6103  2.2865
  710SOL     OW 2128   0.037   0.443   1.477 -0.2592 -0.0665  0.1719
  710SOL    HW1 2129   0.037   0.445   1.375  2.1528  1.1386 -0.9837
  710SOL    HW2 2130   3.064   0.482   1.512  2.4488 -1.9520  0.4975
  711SOL     OW 2131   3.075   2.562   1.074 -0.0519 -0.0723  0.3010
  711SOL    HW1 2132   3.090   2.614   1.160  0.4177  2.5072 -0.9764
  711SOL    HW2 2133   0.047   2.556   1.013  1.8436 -0.1397 -0.5179
  712SOL     OW 2134   0.236   0.144   2.279  0.8677  0.3681  0.0830
  712SOL    HW1 2135   0.261   0.051   2.316  0.4221  1.1286  0.9740
  712SOL    HW2 2136   0.234   0.210   2.354 -1.8510 -3.4042  1.1403
  713SOL     OW 2137   2.370   0.227   0.276  0.1449 -0.4113  0.4356
  713SOL    HW1 2138   2.275   0.249   0.246  1.6635  0.6360 -1.4006
  713SOL    HW2 2139   2.445   0.242   0.203  0.5066 -1.5515  0.5008
  714SOL     OW 2140   1.570   1.586   0.097 -0.1827 -0.5959 -0.0694
  714SOL    HW1 2141   1.571   1.682   0.133 -0.4941 -2.3348  2.6546
  714SOL    HW2 2142   1.637   1.530   0.148 -3.1662 -1.8153 -1.3912
  715SOL     OW 2143   0.049   0.253   0.774  0.0303  0.0507 -0.0138
  715SOL    HW1 2144   0.126   0.195   0.803  1.9541  0.6851 -1.1649
  715SOL    HW2 2145   3.082   0.243   0.839  4.1336 -0.8293 -1.2879
  716SOL     OW 2146   1.190   0.535   1.978 -0.1141  0.5473 -0.0726
  716SOL    HW1 2147   1.208   0.448   2.026 -0.5362  3.5949 -0.3257
  716SOL    HW2 2148   1.099   0.534   1.939  4.0080 -0.7458 -1.3314
  717SOL     OW 2149   0.249   0.363   2.890 -0.0743 -0.0078  0.6578
  717SOL    HW1 2150   0.153   0.398   2.884 -3.4011  2.6365  1.1252
  717SOL    HW2 2151   0.301   0.380   2.805  1.9990 -2.1793 -0.5757
  718SOL     OW 2152   1.047   0.367   0.342 -0.1509  0.4710  0.2834
  718SOL    HW1 2153   1.045   0.468   0.335  1.8799  0.8919 -0.1390
  718SOL    HW2 2154   1.092   0.321   0.263 -0.3337 -0.8499  1.5331
  719SOL     OW 2155   2.574   2.310   2.674 -0.2642 -0.5268  1.2148
  719SOL    HW1 2156   2.666   2.352   2.670  2.2643  1.3810 -2.7056
  719SOL    HW2 2157   2.524   2.312   2.584  1.0335 -0.7272  1.4579
  720SOL     OW 2158   1.104   1.028   1.454  0.5822 -0.2923 -0.3340
  720SOL    HW1 2159   1.110   1.119   1.506 -0.2683  0.6450  3.4840
  720SOL    HW2 2160   1.147   0.961   1.518  0.9829 -0.5010 -0.5302
  721SOL     OW 2161   0.029   2.711   1.292 -0.2614 -0.1112  0.0396
  721SOL    HW1 2162   0.059   2.640   1.360 -0.9904  1.8350  0.2635
  721SOL    HW2 2163   0.108   2.745   1.239 -2.3733 -0.7636 -0.5195
  722SOL     OW 2164   0.787   1.660   2.916 -0.1143 -0.1193  0.2772
  722SOL    HW1 2165   0.753   1.563   2.920  0.3647 -0.3789 -0.7840
  722SOL    HW2 2166   0.787   1.703   3.008  2.1544 -0.6563 -1.9939
  723SOL     OW 2167   2.094   0.329   0.531  0.0207  0.6342 -0.4200
  723SOL    HW1 2168   2.021   0.262   0.550 -0.0127 -0.6930  1.0559
  723SOL    HW2 2169   2.186   0.298   0.572 -0.0521  3.1835 -0.4580
  724SOL     OW 2170   0.705   2.271   2.956 -0.0216  0.0265  0.5097
  724SOL    HW1 2171   0.743   2.181   2.981  1.6128 -1.4780  0.6480
  724SOL    HW2 2172   0.720   2.336   3.036 -1.5676  1.3438  0.1563
  725SOL     OW 2173   0.215   0.832   1.197 -0.3083 -0.0815 -0.1909
  725SOL    HW1 2174   0.135   0.876   1.157  2.0748  0.9407  1.0822
  725SOL    HW2 2175   0.287   0.904   1.214  0.7105  1.8276  2.3361
  726SOL     OW 2176   2.621   0.552   0.540  0.8401  0.6697 -0.3165
  726SOL    HW1 2177   2.580   0.644   0.551  0.1397  0.1539 -0.7115
  726SOL    HW2 2178   2.571   0.509   0.463 -0.8894  0.3364  0.0024
  727SOL     OW 2179   1.936   1.212   2.473  0.5742  0.1968 -0.0627
  727SOL    HW1 2180   1.991   1.280   2.528  1.7812  1.3665 -1.7498
  727SOL    HW2 2181   1.935   1.125   2.532  3.5304 -0.3714  1.8318
  728SOL     OW 2182   1.853   3.031   1.549 -0.0708  0.2453  0.2314
  728SOL    HW1 2183   1.916   2.980   1.611  0.0169 -1.8305  0.6023
  728SOL    HW2 2184   1.764   2.981   1.536  2.6813 -1.0567 -1.0259
  729SOL     OW 2185   2.347   0.814   2.273  0.6350  0.1276  0.1558
  729SOL    HW1 2186   2.375   0.771   2.185 -0.5547  2.8126  2.4982
  729SOL    HW2 2187   2.342   0.919   2.281  0.3784 -0.4334 -0.1318
  730SOL     OW 2188   0.988   0.660   1.484 -0.3830 -0.2324  0.5627
  730SOL    HW1 2189   0.964   0.601   1.563  1.1908  1.4398 -0.2359
  730SOL    HW2 2190   1.071   0.718   1.495 -0.4107  1.8633  0.7402
  731SOL     OW 2191   0.290   0.109   0.274  0.5129 -0.3331 -0.1332
  731SOL    HW1 2192   0.361   0.045   0.284 -2.7675  2.7180  0.1880
  731SOL    HW2 2193   0.296   0.187   0.346  1.5141  0.7858 -0.5542
  732SOL     OW 2194   0.250   0.347   0.475  0.2179  0.4497  0.3399
  732SOL    HW1 2195   0.298   0.420   0.525  1.8373 -1.1707  1.3162
  732SOL    HW2 2196   0.152   0.364   0.459  2.7634 -0.7279  0.5079
  733SOL     OW 2197   1.701   1.558   2.702 -0.0079 -0.3875 -0.4956
  733SOL    HW1 2198   1.692   1.459   2.703 -1.4936 -0.7549  0.8997
  733SOL    HW2 2199   1.666   1.609   2.781 -1.4025 -2.3211 -0.6357
  734SOL     OW 2200   0.038   1.836   2.461 -0.3732  0.2053 -0.2706
  734SOL    HW1 2201   0.110   1.791   2.406  0.7174  3.1838  1.6238
  734SOL    HW2 2202   0.014   1.772   2.535  0.9876  2.1818  0.5255
  735SOL     OW 2203   1.872   0.692   1.318  0.4986  0.2709  0.1494
  735SOL    HW1 2204   1.907   0.707   1.412  3.5091 -0.2690 -1.1308
  735SOL    HW2 2205   1.786   0.637   1.307 -1.7875 -0.2398 -1.2004
  736SOL     OW 2206   1.098   1.051   3.104  0.5853 -0.3146  0.2850
  736SOL    HW1 2207   1.021   1.116   3.106 -1.9492 -2.8536 -1.1425
  736SOL    HW2 2208   1.153   1.065   0.073 -0.2620  1.5378 -1.8728
  737SOL     OW 2209   3.001   0.167   0.571  0.2005  0.9336 -1.0494
  737SOL    HW1 2210   2.964   0.079   0.605  1.4542  2.2578 -1.4048
  737SOL    HW2 2211   3.067   0.213   0.640  1.1144  2.2645  2.9873
  738SOL     OW 2212   0.718   2.082   1.639 -0.1654  0.4556  0.1804
  738SOL    HW1 2213   0.650   2.115   1.568 -1.8080 -0.8726 -0.2480
  738SOL    HW2 2214   0.741   1.988   1.615  0.8477  1.9427  0.4263
  739SOL     OW 2215   1.207   2.748   2.485 -0.2335 -0.3528  0.0116
  739SOL    HW1 2216   1.174   2.712   2.570  3.3496  1.9380 -2.1000
  739SOL    HW2 2217   1.310   2.740   2.482  2.0554 -1.3355  0.5151
  740SOL     OW 2218   2.065   2.637   1.594  0.1518 -0.2941 -0.1716
  740SOL    HW1 2219   1.978   2.586   1.571 -0.4415 -1.6780  1.4113
  740SOL    HW2 2220   2.111   2.604   1.683 -2.7855  0.3554  0.3925
  741SOL     OW 2221   2.169   0.702   0.353 -0.0282 -0.0285 -0.2808
  741SOL    HW1 2222   2.264   0.744   0.366  2.3311  0.6552 -0.0667
  741SOL    HW2 2223   2.103   0.758   0.404  1.8061  0.3795  0.3326
  742SOL     OW 2224   0.973   2.672   3.081  0.3971  0.1051 -0.1073
  742SOL    HW1 2225   0.989   2.735   3.004 -0.5734  1.7841  0.8873
  742SOL    HW2 2226   1.061   2.639   3.105 -0.3744  1.8408 -1.6726
  743SOL     OW 2227   2.453   0.738   2.011 -0.3409  0.0996  0.6593
  743SOL    HW1 2228   2.481   0.840   2.007  3.8454  3.3121 -0.2441
  743SOL    HW2 2229   2.451   0.699   1.916 -1.5638 -1.4260 -2.6721
  744SOL     OW 2230   2.459   0.469   0.813 -0.2046 -0.5190 -0.6167
  744SOL    HW1 2231   2.471   0.418   0.727 -0.9738  1.4767  0.9565
  744SOL    HW2 2232   2.390   0.545   0.803  0.6670  1.2943  1.3630
  745SOL     OW 2233   2.605   1.121   1.715  0.7243  0.2779 -0.0259
  745SOL    HW1 2234   2.621   1.046   1.651 -1.4662  2.4112  2.1455
  745SOL    HW2 2235   2.643   1.096   1.808  1.1904 -1.0451  1.2776
  746SOL     OW 2236   1.419   1.425   0.764 -0.2497  0.2894 -0.1666
  746SOL    HW1 2237   1.386   1.519   0.765  0.2311 -0.1908 -3.3139
  746SOL    HW2 2238   1.341   1.370   0.800 -1.0522 -1.0972  2.8251
  747SOL     OW 2239   1.566   1.813   1.706  0.0832 -0.1708  0.1218
  747SOL    HW1 2240   1.518   1.904   1.698 -2.8056  0.3220 -0.5622
  747SOL    HW2 2241   1.536   1.753   1.629 -0.5278  0.0657  0.0390
  748SOL     OW 2242   0.320   2.824   2.995 -0.0731 -0.2759 -0.0374
  748SOL    HW1 2243   0.380   2.741   3.003  0.3185  0.2416 -2.2648
  748SOL    HW2 2244   0.284   2.842   3.090  2.1547 -2.1691  0.0213
  749SOL     OW 2245   0.337   1.172   2.601  0.2339 -0.2397  0.3180
  749SOL    HW1 2246   0.351   1.134   2.510 -0.2680 -0.0739  1.9705
  749SOL    HW2 2247   0.417   1.168   2.662 -1.3986 -0.1302  1.3816
  750SOL     OW 2248   1.745   0.765   2.357  0.0755  0.3197  0.7538
  750SOL    HW1 2249   1.843   0.741   2.331  1.1660 -0.7083 -2.4497
  750SOL    HW2 2250   1.720   0.855   2.317 -0.7971 -0.9659  0.5865
  751SOL     OW 2251   2.418   0.805   0.330 -0.2768 -0.2170 -0.0276
  751SOL    HW1 2252   2.420   0.710   0.289 -0.2967 -2.1895 -1.3711
  751SOL    HW2 2253   2.500   0.828   0.385  1.5556 -2.0128 -2.1903
  752SOL     OW 2254   0.189   2.235   0.816  0.1723 -0.0491 -0.4893
  752SOL    HW1 2255   0.097   2.180   0.804  0.9151 -1.4434  0.2380
  752SOL    HW2 2256   0.258   2.183   0.869 -0.6000  3.3931 -0.1394
  753SOL     OW 2257   1.302   2.594   1.091  0.0047  0.1871  0.3590
  753SOL    HW1 2258   1.314   2.491   1.076 -1.3124  0.5357 -0.4933
  753SOL    HW2 2259   1.206   2.621   1.063 -1.3845  1.1146  0.4913
  754SOL     OW 2260   0.213   3.042   1.887 -0.2550  0.0587 -0.4904
  754SOL    HW1 2261   0.160   2.996   1.964 -0.9285  1.3805  0.9022
  754SOL    HW2 2262   0.150   3.048   1.806 -0.1898 -0.0260  1.9193
  755SOL     OW 2263   1.963   0.814   0.477 -0.2645 -0.4490  0.0601
  755SOL    HW1 2264   1.874   0.776   0.451  3.8595  0.2590  1.1326
  755SOL    HW2 2265   1.976   0.808   0.576 -0.2630  1.5959  2.1992
  756SOL     OW 2266   2.051   2.350   2.561 -0.0873 -0.8294  0.1404
  756SOL    HW1 2267   2.042   2.341   2.661 -0.4683 -1.9389 -0.4779
  756SOL    HW2 2268   2.000   2.433   2.522 -1.0136  0.1208  1.0248
  757SOL     OW 2269   1.827   0.473   0.379  0.0936 -0.2186  0.3203
  757SOL    HW1 2270   1.834   0.503   0.281  1.6587  1.6304  0.7094
  757SOL    HW2 2271   1.923   0.451   0.410  3.2569 -0.3999 -2.6185
  758SOL     OW 2272   2.136   0.525   1.380  0.2637  0.0236  0.1509
  758SOL    HW1 2273   2.202   0.473   1.438 -1.4698 -0.7892 -0.7475
  758SOL    HW2 2274   2.155   0.518   1.281  1.8996  1.3179 -2.4740
  759SOL     OW 2275   2.270   0.554   1.109  0.2831  0.8784  0.5715
  759SOL    HW1 2276   2.369   0.527   1.097  1.7345  0.5648  0.5399
  759SOL    HW2 2277   2.209   0.496   1.053  0.1085  0.0037 -0.7630
  760SOL     OW 2278   2.357   1.336   1.225 -0.1040 -0.6549 -0.6878
  760SOL    HW1 2279   2.308   1.414   1.265  3.9076 -0.3069 -0.0764
  760SOL    HW2 2280   2.303   1.251   1.223 -0.9965  0.1025 -1.6107
  761SOL     OW 2281   0.574   0.246   0.225 -0.1738  0.0808  0.2003
  761SOL    HW1 2282   0.628   0.323   0.255 -2.6736 -2.1575  1.9906
  761SOL    HW2 2283   0.586   0.162   0.277 -3.3459  0.3266 -1.7988
  762SOL     OW 2284   1.081   1.865   1.122  0.0038 -0.1028 -0.3519
  762SOL    HW1 2285   1.093   1.763   1.112  1.0823  0.3106 -3.1608
  762SOL    HW2 2286   1.007   1.895   1.184 -0.7221  1.5206 -1.3951
  763SOL     OW 2287   1.447   1.104   1.613 -0.2787  0.2729 -0.0984
  763SOL    HW1 2288   1.460   1.010   1.639 -0.0763  1.7799  2.4382
  763SOL    HW2 2289   1.520   1.132   1.552 -2.8705 -1.1663 -0.7360
  764SOL     OW 2290   0.493   1.507   2.543  0.2899 -0.0632 -0.2621
  764SOL    HW1 2291   0.391   1.507   2.560  1.5414 -0.3867 -0.6651
  764SOL    HW2 2292   0.545   1.574   2.602  0.7407 -1.7114  0.0410
  765SOL     OW 2293   0.979   2.701   1.272 -0.2714  0.1654 -0.2491
  765SOL    HW1 2294   0.896   2.758   1.268 -0.7167  0.7450 -2.7343
  765SOL    HW2 2295   1.003   2.672   1.181 -1.0310 -1.5036  0.9952
  766SOL     OW 2296   2.845   2.347   2.631  0.2508  0.4672 -0.4414
  766SOL    HW1 2297   2.833   2.438   2.676  1.0676  0.3833  1.5077
  766SOL    HW2 2298   2.915   2.343   2.558  0.3147  0.5838  2.0051
  767SOL     OW 2299   1.030   1.056   2.599  0.1855 -0.2616  0.3333
  767SOL    HW1 2300   1.091   1.064   2.679 -0.3101  0.1896  1.6580
  767SOL    HW2 2301   1.002   1.151   2.566 -1.3767 -0.8098  0.2413
  768SOL     OW 2302   1.217   1.929   0.108  0.1420 -0.0572 -0.1408
  768SOL    HW1 2303   1.247   1.850   0.046  0.5976 -1.3074  1.5929
  768SOL    HW2 2304   1.257   1.919   0.204  0.6145  0.1763 -0.6852
  769SOL     OW 2305   0.332   2.066   1.315 -0.1314 -0.5939 -0.4319
  769SOL    HW1 2306   0.285   2.158   1.303 -3.2490  0.2961 -0.6119
  769SOL    HW2 2307   0.262   1.994   1.334 -0.7004  2.5024 -0.1187
  770SOL     OW 2308   1.335   1.119   2.598  0.2119  0.4858  0.1929
  770SOL    HW1 2309   1.363   1.035   2.551  2.4782  1.8598 -1.4007
  770SOL    HW2 2310   1.349   1.191   2.528  0.0758 -1.9278  0.7563
  771SOL     OW 2311   0.086   2.944   2.109 -0.1769  0.3250  0.1257
  771SOL    HW1 2312   0.177   2.900   2.121  1.1379 -1.2239 -2.3832
  771SOL    HW2 2313   0.014   2.874   2.117  1.4407 -2.2276  1.6465
  772SOL     OW 2314   2.453   2.238   1.784 -0.4148 -0.3486 -0.2818
  772SOL    HW1 2315   2.447   2.333   1.814  0.6655 -2.0973  0.0617
  772SOL    HW2 2316   2.362   2.197   1.787  1.5409  0.1696  1.9163
  773SOL     OW 2317   0.555   1.835   1.478  0.1339 -0.1031 -0.5785
  773SOL    HW1 2318   0.451   1.845   1.482 -2.6205  0.8959  2.8102
  773SOL    HW2 2319   0.596   1.827   1.569  0.7111 -0.6697  2.1111
  774SOL     OW 2320   1.156   0.413   2.492 -0.5319  0.3462  0.2620
  774SOL    HW1 2321   1.112   0.321   2.475 -2.0273 -2.2367  0.4931
  774SOL    HW2 2322   1.185   0.436   2.589 -1.0426  0.4257 -0.8639
  775SOL     OW 2323   2.001   2.786   3.050  0.0785 -0.1734  0.0761
  775SOL    HW1 2324   1.958   2.878   3.070  0.9585 -0.5728  0.0952
  775SOL    HW2 2325   2.047   2.783   2.958  1.0328 -2.3553  0.3546
  776SOL     OW 2326   3.099   0.620   2.042 -0.0380 -0.3054  0.2139
  776SOL    HW1 2327   3.003   0.590   2.065  0.7869  1.3006 -1.3036
  776SOL    HW2 2328   0.057   0.549   2.060 -2.7227  1.5577  1.4777
  777SOL     OW 2329   2.635   2.085   1.967 -0.1763  0.2301 -0.2208
  777SOL    HW1 2330   2.592   2.007   2.019 -0.4428  0.5316 -0.9172
  777SOL    HW2 2331   2.566   2.129   1.906  0.2401 -0.0756  2.5909
  778SOL     OW 2332   1.915   1.055   2.185 -0.0739 -0.3202 -0.4382
  778SOL    HW1 2333   1.926   1.142   2.235 -0.9417  1.3587 -0.8392
  778SOL    HW2 2334   1.820   1.024   2.188  2.3287  0.5879  2.5983
  779SOL     OW 2335   2.403   1.100   0.503  0.0820 -0.2195  0.5131
  779SOL    HW1 2336   2.392   1.151   0.420 -0.4834 -2.2565  0.2899
  779SOL    HW2 2337   2.427   1.002   0.487 -0.9021  0.5197  2.0111
  780SOL     OW 2338   2.307   0.339   2.944 -0.6060  0.3804 -0.4267
  780SOL    HW1 2339   2.213   0.351   2.911 -0.2527  3.0857 -0.1591
  780SOL    HW2 2340   2.316   0.248   2.991 -0.4578 -2.3147  2.4341
  781SOL     OW 2341   0.141   1.896   1.361 -0.5546 -0.2721 -0.0324
  781SOL    HW1 2342   0.061   1.912   1.418 -0.5304  1.4076 -0.3952
  781SOL    HW2 2343   0.183   1.807   1.383 -0.5687 -2.2611  0.6880
  782SOL     OW 2344   2.434   2.378   2.928 -0.1054  0.0521 -0.0825
  782SOL    HW1 2345   2.459   2.381   2.831  2.0661  2.1478  3.2479
  782SOL    HW2 2346   2.411   2.286   2.963 -0.4536  0.4506 -0.4527
  783SOL     OW 2347   0.503   1.311   1.266  0.2098  0.0643 -0.2397
  783SOL    HW1 2348   0.561   1.301   1.350 -1.1998  1.8161 -1.1021
  783SOL    HW2 2349   0.559   1.348   1.189 -1.7178 -0.0605  0.0010
  784SOL     OW 2350   1.568   0.563   3.036  0.2689  0.2777 -0.2402
  784SOL    HW1 2351   1.655   0.601   3.009 -2.3146 -2.2179  1.4724
  784SOL    HW2 2352   1.587   0.468   3.070 -0.3502 -0.5674  0.2312
  785SOL     OW 2353   2.480   2.894   0.852 -0.3527 -0.5606  0.5684
  785SOL    HW1 2354   2.549   2.821   0.869 -0.4648  1.8015  0.4201
  785SOL    HW2 2355   2.408   2.862   0.791  1.9222  1.7105 -0.6745
  786SOL     OW 2356   0.858   2.138   2.069  0.2787  0.3873 -0.2136
  786SOL    HW1 2357   0.944   2.110   2.024  1.1202 -0.7831 -1.1926
  786SOL    HW2 2358   0.872   2.149   2.168  0.4098 -0.9865  1.4596
  787SOL     OW 2359   1.234   1.000   1.210 -0.3094 -0.0047 -0.1584
  787SOL    HW1 2360   1.174   1.019   1.283  0.5329  1.6033 -2.9414
  787SOL    HW2 2361   1.330   0.982   1.238  1.8243  0.6723  2.1244
  788SOL     OW 2362   3.101   0.611   0.538  0.0237 -0.3869  0.0421
  788SOL    HW1 2363   0.069   0.594   0.605  1.2275 -1.9137 -0.7380
  788SOL    HW2 2364   3.096   0.524   0.480  1.3212 -2.0037  1.8692
  789SOL     OW 2365   0.027   1.916   1.102  0.1813 -0.0829 -0.2804
  789SOL    HW1 2366   0.014   2.017   1.081  0.6057  0.7244  0.9896
  789SOL    HW2 2367   0.075   1.893   1.191  0.8757 -0.1348 -0.0562
  790SOL     OW 2368   1.011   0.614   2.393  0.1529 -0.3255 -0.8950
  790SOL    HW1 2369   1.048   0.531   2.438  1.0280  1.5155 -1.3885
  790SOL    HW2 2370   1.039   0.694   2.447 -0.9850 -1.7349  1.4985
  791SOL     OW 2371   1.418   0.531   0.462  0.2524  0.4419 -0.0864
  791SOL    HW1 2372   1.509   0.488   0.469  0.9050 -0.0121 -1.3010
  791SOL    HW2 2373   1.343   0.477   0.502 -1.4935 -2.1142  0.6073
  792SOL     OW 2374   1.493   2.979   1.819  0.1683  0.1738 -0.6273
  792SOL    HW1 2375   1.395   2.964   1.838 -0.6345  1.9680 -2.6752
  792SOL    HW2 2376   1.524   2.914   1.742  0.4148 -1.2233 -0.6402
  793SOL     OW 2377   1.173   0.637   0.689  0.5224 -0.2142  0.3631
  793SOL    HW1 2378   1.244   0.707   0.689  0.7657 -0.9932  0.9559
  793SOL    HW2 2379   1.212   0.554   0.642 -0.1535  0.3193 -1.2032
  794SOL     OW 2380   0.569   1.011   2.052  0.5544  0.2929  0.2253
  794SOL    HW1 2381   0.473   0.994   2.027  2.3205  3.2842  1.0169
  794SOL    HW2 2382   0.613   1.094   2.007  1.0917 -0.0658  1.9303
  795SOL     OW 2383   0.354   1.967   2.143 -0.4518 -0.0295  0.1633
  795SOL    HW1 2384   0.386   1.934   2.235 -1.4866  1.2380  0.8047
  795SOL    HW2 2385   0.387   2.061   2.119 -1.0639 -3.1392 -1.1102
  796SOL     OW 2386   2.508   0.997   2.065  0.2234 -0.0162  0.5391
  796SOL    HW1 2387   2.495   1.021   2.162  0.3844  0.4337 -3.4534
  796SOL    HW2 2388   2.602   1.026   2.030  0.1885  2.5377 -1.8206
  797SOL     OW 2389   2.981   2.419   2.882 -0.0593 -0.3814  0.6177
  797SOL    HW1 2390   2.916   2.479   2.828 -0.8208  1.5026 -0.9425
  797SOL    HW2 2391   2.924   2.371   2.950  0.0268 -0.7633 -1.4963
  798SOL     OW 2392   0.070   2.302   2.161 -0.3840  0.4515 -0.0039
  798SOL    HW1 2393   0.134   2.345   2.092  0.6028  1.2968 -1.8780
  798SOL    HW2 2394   0.079   2.203   2.166  2.1565  4.0524  2.4335
  799SOL     OW 2395   0.524   2.234   2.741 -0.3289  0.2628 -0.3783
  799SOL    HW1 2396   0.597   2.248   2.816  1.6719  1.0032  0.5010
  799SOL    HW2 2397   0.436   2.249   2.778  3.1210  2.0498 -0.8342
  800SOL     OW 2398   0.800   1.723   0.071  0.3198 -0.2731  0.1341
  800SOL    HW1 2399   0.718   1.700   0.118  2.8673  4.8782 -2.7497
  800SOL    HW2 2400   0.842   1.812   0.098 -3.6173  0.4832 -1.6054
  801SOL     OW 2401   1.746   1.388   1.559 -0.1323 -0.1182 -0.8275
  801SOL    HW1 2402   1.827   1.328   1.582  0.5862  0.2193  2.8535
  801SOL    HW2 2403   1.702   1.411   1.648 -0.1430  0.3851  0.3703
  802SOL     OW 2404   2.818   1.191   0.359  0.1587  0.1942 -0.5775
  802SOL    HW1 2405   2.767   1.228   0.441  0.8290 -0.2581  0.8628
  802SOL    HW2 2406   2.794   1.096   0.330  0.4387  0.6753 -0.9574
  803SOL     OW 2407   0.943   1.762   2.677 -0.9152 -0.0626 -0.1307
  803SOL    HW1 2408   0.861   1.742   2.737 -0.3407 -0.6009  0.7876
  803SOL    HW2 2409   1.020   1.805   2.732  2.4484 -2.2594  1.6275
  804SOL     OW 2410   1.742   1.440   0.250 -0.1244 -0.1567 -0.0112
  804SOL    HW1 2411   1.689   1.363   0.280  0.1774 -2.1553  0.4294
  804SOL    HW2 2412   1.784   1.488   0.334  1.7036  2.1524  4.0350
  805SOL     OW 2413   2.584   1.673   2.640 -0.3313  0.2623 -0.1572
  805SOL    HW1 2414   2.557   1.767   2.669  2.1795  3.1378  1.9756
  805SOL    HW2 2415   2.679   1.670   2.598 -1.2548  1.8842 -1.4802
  806SOL     OW 2416   0.435   2.920   0.469 -0.5468 -0.3105  0.1866
  806SOL    HW1 2417   0.347   2.958   0.502 -2.5326 -0.6598 -0.6225
  806SOL    HW2 2418   0.485   2.874   0.543 -2.2192 -2.1388 -2.7152
  807SOL     OW 2419   1.979   1.631   2.778  0.3037  1.3237  0.2003
  807SOL    HW1 2420   1.976   1.632   2.881 -1.6027  3.4567 -0.7698
  807SOL    HW2 2421   1.887   1.597   2.742 -2.2722 -2.7606 -0.0072
  808SOL     OW 2422   0.218   1.586   0.681  0.3515  0.3351  0.5920
  808SOL    HW1 2423   0.293   1.516   0.677 -0.7825 -0.7295  1.0616
  808SOL    HW2 2424   0.195   1.611   0.778 -0.6547  0.1540  0.1607
  809SOL     OW 2425   2.353   1.030   0.221 -0.3520 -0.1716 -0.0040
  809SOL    HW1 2426   2.372   1.045   0.121  3.4660  0.4620 -2.9761
  809SOL    HW2 2427   2.369   0.933   0.246 -0.9920 -0.1839 -0.0633
  810SOL     OW 2428   0.605   1.080   0.336  0.2178  0.1579  0.3284
  810SOL    HW1 2429   0.606   1.098   0.238  1.9298 -2.0054  1.1615
  810SOL    HW2 2430   0.518   1.116   0.371  1.1089  0.0329 -1.2464
  811SOL     OW 2431   1.466   2.404   1.446  0.3072 -0.1774 -0.1144
  811SOL    HW1 2432   1.477   2.508   1.442  0.8434  2.1771  1.4592
  811SOL    HW2 2433   1.553   2.357   1.442 -3.6335  2.1815 -2.3519
  812SOL     OW 2434   1.304   2.695   1.923 -0.0181 -0.4417 -0.7160
  812SOL    HW1 2435   1.267   2.770   1.865 -2.4697 -1.8386  0.0548
  812SOL    HW2 2436   1.222   2.636   1.936 -2.0895 -2.9588 -0.9044
  813SOL     OW 2437   1.171   0.224   1.807  0.5096 -0.2337  0.2074
  813SOL    HW1 2438   1.209   0.212   1.903  2.0862  0.4191 -1.3406
  813SOL    HW2 2439   1.098   0.158   1.784  3.4908  1.9754  0.5444
  814SOL     OW 2440   1.277   2.395   2.691  0.0278  0.3212 -0.4451
  814SOL    HW1 2441   1.372   2.406   2.651  0.4003 -0.5440 -2.9359
  814SOL    HW2 2442   1.214   2.329   2.636 -5.9637  0.6393 -1.8476
  815SOL     OW 2443   0.581   0.302   2.362 -0.8120  0.0538  0.1880
  815SOL    HW1 2444   0.499   0.365   2.362  3.4078  1.2566  2.0049
  815SOL    HW2 2445   0.660   0.352   2.408  0.8661  2.2876 -0.4020
  816SOL     OW 2446   2.030   0.401   2.958 -0.1789 -0.1135 -0.0131
  816SOL    HW1 2447   2.040   0.502   2.955  0.8483 -1.9139  0.0557
  816SOL    HW2 2448   1.976   0.377   2.875  2.2904 -0.0649 -0.3461
  817SOL     OW 2449   2.180   0.354   2.311  0.0223  0.1319 -0.1091
  817SOL    HW1 2450   2.264   0.298   2.302 -1.7033  0.0852 -1.8812
  817SOL    HW2 2451   2.207   0.452   2.336 -1.0485  2.0254  1.6416
  818SOL     OW 2452   1.696   0.323   0.060  0.1577 -0.0937  0.1844
  818SOL    HW1 2453   1.751   0.402   0.096 -1.2938  0.7984 -1.1105
  818SOL    HW2 2454   1.735   0.231   0.077  2.3250  0.6092 -0.2907
  819SOL     OW 2455   2.226   1.740   2.767 -0.0864  0.2096 -0.6726
  819SOL    HW1 2456   2.141   1.684   2.760  1.0654 -0.7887  1.4424
  819SOL    HW2 2457   2.278   1.724   2.854 -0.8273 -1.1531  3.6433
  820SOL     OW 2458   0.179   1.840   3.023  0.4700 -0.2106 -0.3639
  820SOL    HW1 2459   0.147   1.931   2.995  1.1741 -1.0225 -1.5075
  820SOL    HW2 2460   0.280   1.830   3.025 -2.0521  0.7103 -1.5713
  821SOL     OW 2461   0.121   2.978   0.970 -0.0527  0.2216  0.1830
  821SOL    HW1 2462   0.208   3.016   0.929 -1.3091 -1.8957 -2.0462
  821SOL    HW2 2463   0.057   2.963   0.892  2.1888 -0.1653  2.2934
  822SOL     OW 2464   2.794   2.846   0.127 -0.1172  0.2086 -1.2459
  822SOL    HW1 2465   2.836   2.758   0.148 -1.0786  1.4359  1.6010
  822SOL    HW2 2466   2.850   2.922   0.172 -0.1223  0.7354  2.4280
  823SOL     OW 2467   1.237   0.452   2.742 -0.2382  0.5567 -0.2514
  823SOL    HW1 2468   1.250   0.379   2.813  0.3791  0.5597  1.6772
  823SOL    HW2 2469   1.318   0.514   2.746 -1.4755 -1.2431 -1.1791
  824SOL     OW 2470   2.801   1.867   1.924 -0.0652 -0.3756 -0.4552
  824SOL    HW1 2471   2.796   1.811   2.010  0.6783 -0.2681  0.3057
  824SOL    HW2 2472   2.748   1.954   1.917 -0.7455  1.8097 -2.4971
  825SOL     OW 2473   3.104   2.057   2.616 -0.0824 -0.3454 -0.0763
  825SOL    HW1 2474   3.021   2.045   2.675  0.2389  0.0123  0.2020
  825SOL    HW2 2475   3.104   1.981   2.544 -1.1267  0.0377 -0.2936
  826SOL     OW 2476   2.434   1.458   2.363 -0.0574 -0.0894  0.0739
  826SOL    HW1 2477   2.369   1.410   2.299 -0.3277 -0.3403  1.4663
  826SOL    HW2 2478   2.389   1.540   2.405  2.7401 -0.9572  0.7250
  827SOL     OW 2479   2.428   2.411   1.306 -0.2272 -0.5779 -0.1010
  827SOL    HW1 2480   2.373   2.356   1.242 -0.4778  0.4741 -1.4807
  827SOL    HW2 2481   2.375   2.483   1.358  2.5587  0.7060  1.2242
  828SOL     OW 2482   0.177   3.064   1.374  0.3043 -0.0132 -0.2001
  828SOL    HW1 2483   0.077   3.039   1.392  0.1067 -1.8495 -2.0948
  828SOL    HW2 2484   0.226   3.108   1.457 -0.1188  2.1791  4.1998
  829SOL     OW 2485   1.534   2.454   2.562  0.1641 -0.3161  0.4603
  829SOL    HW1 2486   1.620   2.421   2.616  0.6130 -0.2823  1.8468
  829SOL    HW2 2487   1.539   2.417   2.468  2.5888  2.1208  2.2590
  830SOL     OW 2488   0.890   0.338   0.756 -0.3660 -0.2594  0.1268
  830SOL    HW1 2489   0.867   0.316   0.854  2.1812 -0.9420  2.0887
  830SOL    HW2 2490   0.920   0.436   0.743 -3.0701 -1.6335 -1.6868
  831SOL     OW 2491   2.956   1.500   2.991  0.0043 -0.2510 -0.1803
  831SOL    HW1 2492   3.058   1.495   3.003  0.4673  1.8964 -0.3536
  831SOL    HW2 2493   2.931   1.465   2.901 -1.0917 -0.4232  2.6977
  832SOL     OW 2494   1.712   1.958   2.172 -0.2061  0.6835  0.6462
  832SOL    HW1 2495   1.641   2.027   2.199  0.0015  3.7351 -0.8483
  832SOL    HW2 2496   1.784   2.012   2.118  0.1425 -1.5976 -0.7535
  833SOL     OW 2497   0.807   0.354   2.155  0.6155 -0.1378 -0.3248
  833SOL    HW1 2498   0.896   0.309   2.146 -1.0846  3.1143  2.1325
  833SOL    HW2 2499   0.737   0.282   2.180 -1.2653 -0.0577 -2.9585
  834SOL     OW 2500   0.568   0.980   1.625 -0.3727 -0.3479  0.2568
  834SOL    HW1 2501   0.571   0.892   1.575 -3.2255 -0.1507  0.7812
  834SOL    HW2 2502   0.654   1.001   1.668 -0.9430 -2.8003  0.3790
  835SOL     OW 2503   2.757   0.892   0.056  0.3096 -0.0805  0.1487
  835SOL    HW1 2504   2.730   0.795   0.020 -2.0545 -4.3222  0.6954
  835SOL    HW2 2505   2.694   0.966   0.023 -2.3631  4.3773  0.0613
  836SOL     OW 2506   0.951   1.959   0.094  0.3145 -0.3364 -0.4926
  836SOL    HW1 2507   0.927   2.019   0.174  0.2902  0.6936  0.7707
  836SOL    HW2 2508   1.050   1.946   0.092 -1.5514  0.7987  0.8009
  837SOL     OW 2509   1.766   1.645   0.948  0.2122 -0.3235 -0.2470
  837SOL    HW1 2510   1.847   1.699   0.947  0.3552 -1.9780  0.6625
  837SOL    HW2 2511   1.686   1.709   0.955  2.9456  0.3189 -0.3437
  838SOL     OW 2512   1.142   1.206   2.241  0.7539  0.2906 -0.7700
  838SOL    HW1 2513   1.054   1.163   2.264  0.9618  0.8957 -1.2277
  838SOL    HW2 2514   1.134   1.274   2.166  0.4591 -1.3072 -1.7040
  839SOL     OW 2515   0.898   2.036   2.576 -0.0085 -0.7453  0.3600
  839SOL    HW1 2516   0.900   1.935   2.604 -0.6663 -1.7951  2.9307
  839SOL    HW2 2517   0.893   2.102   2.656 -1.0840 -1.5213  0.9832
  840SOL     OW 2518   0.765   2.330   0.409  0.2705  0.1580  0.1322
  840SOL    HW1 2519   0.820   2.402   0.450  0.1213  2.7585  0.3060
  840SOL    HW2 2520   0.671   2.325   0.452 -2.4382  2.0570  2.3136
  841SOL     OW 2521   1.804   2.756   0.291 -0.2233  0.5520 -0.2705
  841SOL    HW1 2522   1.751   2.705   0.367 -1.0749 -0.6613  0.7578
  841SOL    HW2 2523   1.822   2.698   0.208  1.1752  0.4684 -1.0078
  842SOL     OW 2524   0.450   0.688   3.057 -0.4188 -0.0494 -0.4436
  842SOL    HW1 2525   0.398   0.599   3.061  3.5462  2.5457 -2.3489
  842SOL    HW2 2526   0.525   0.700   0.015  0.9190  0.3144 -1.8118
  843SOL     OW 2527   1.121   0.208   0.746 -0.5190 -0.1293  0.8156
  843SOL    HW1 2528   1.033   0.259   0.733 -0.0250 -0.9307  0.0104
  843SOL    HW2 2529   1.116   0.176   0.840  0.4756  0.9433 -2.1582
  844SOL     OW 2530   2.936   2.903   2.698 -0.1196  0.3842 -0.5906
  844SOL    HW1 2531   2.989   2.841   2.634  3.2351  0.2699 -1.2923
  844SOL    HW2 2532   2.832   2.898   2.681 -3.5911  2.5688 -2.9947
  845SOL     OW 2533   2.577   2.338   1.004  0.5925  0.4957 -0.4535
  845SOL    HW1 2534   2.581   2.246   1.049  1.2388 -1.5265 -3.2974
  845SOL    HW2 2535   2.651   2.401   1.035 -0.2698  1.1962 -0.1060
  846SOL     OW 2536   2.992   1.983   2.290 -0.0160  0.2026  0.0532
  846SOL    HW1 2537   3.030   2.025   2.201  1.3573  0.5728  0.5145
  846SOL    HW2 2538   3.072   1.947   2.346  2.9978 -1.5470 -1.0722
  847SOL     OW 2539   1.165   0.828   1.649 -0.0907  0.0091  0.4084
  847SOL    HW1 2540   1.123   0.841   1.742 -1.2511  0.7129  0.0506
  847SOL    HW2 2541   1.230   0.754   1.650  0.1139 -1.6758  1.5664
  848SOL     OW 2542   2.552   2.921   3.052  0.5754  0.3174  0.2555
  848SOL    HW1 2543   2.460   2.917   3.090  5.9182  0.1402 -3.0382
  848SOL    HW2 2544   2.618   2.892   0.011 -1.0260 -3.0208 -0.3255
  849SOL     OW 2545   0.724   2.844   2.896  0.1564 -0.4388  0.2386
  849SOL    HW1 2546   0.666   2.768   2.936  1.0311  0.0133  0.4469
  849SOL    HW2 2547   0.825   2.829   2.896 -0.7252  1.8701  0.6782
  850SOL     OW 2548   1.211   2.807   1.420 -0.4559 -0.2762 -0.3285
  850SOL    HW1 2549   1.298   2.759   1.397  1.4655 -0.8990  0.9309
  850SOL    HW2 2550   1.139   2.777   1.353  0.5952 -1.9678 -2.3120
  851SOL     OW 2551   2.520   0.358   2.151 -0.4116 -0.6507 -0.4286
  851SOL    HW1 2552   2.542   0.449   2.192  0.8108 -0.8648 -0.2876
  851SOL    HW2 2553   2.604   0.312   2.130 -2.6626  0.2922 -1.5676
  852SOL     OW 2554   2.085   0.907   2.362 -0.3414 -0.2322  0.2414
  852SOL    HW1 2555   2.060   0.970   2.284  0.1918 -0.7369 -2.5634
  852SOL    HW2 2556   2.162   0.851   2.329 -3.9452 -0.2626 -0.0419
  853SOL     OW 2557   2.874   3.034   0.647  0.2460 -0.2558 -0.5612
  853SOL    HW1 2558   2.800   3.063   0.709  3.3940 -0.3869  2.8560
  853SOL    HW2 2559   2.857   2.949   0.594 -2.2205  1.7218 -2.0502
  854SOL     OW 2560   2.247   1.363   1.935  0.3337  0.5490 -0.0827
  854SOL    HW1 2561   2.222   1.267   1.961 -0.9768  0.9363 -0.3850
  854SOL    HW2 2562   2.347   1.388   1.952 -0.1427  1.8930 -0.0392
  855SOL     OW 2563   1.050   2.719   0.296 -0.2069  0.1165  0.0108
  855SOL    HW1 2564   0.989   2.790   0.257 -2.7086 -0.9836  0.4364
  855SOL    HW2 2565   1.049   2.635   0.240  0.0791 -0.3161  0.0389
  856SOL     OW 2566   3.074   0.229   2.718  0.9517 -0.4522 -0.2903
  856SOL    HW1 2567   3.046   0.154   2.782  1.3841 -0.4270  0.9364
  856SOL    HW2 2568   3.070   0.322   2.764 -2.9526 -0.2419 -1.2420
  857SOL     OW 2569   1.003   3.092   1.727  0.2062 -0.4578 -0.1779
  857SOL    HW1 2570   1.026   3.094   1.629  1.3745 -0.9367 -0.6988
  857SOL    HW2 2571   0.917   3.034   1.728 -0.9300 -3.4587 -0.4991
  858SOL     OW 2572   2.672   2.221   1.624 -0.2846  0.1649 -0.2207
  858SOL    HW1 2573   2.694   2.121   1.616  0.5602  0.1869 -0.8099
  858SOL    HW2 2574   2.586   2.232   1.678 -0.6116  0.0383  2.0684
  859SOL     OW 2575   1.553   2.463   1.797 -0.0320 -0.0260  0.0267
  859SOL    HW1 2576   1.462   2.466   1.757 -0.6993 -0.1776  1.9627
  859SOL    HW2 2577   1.546   2.493   1.895 -1.5029 -1.7089 -1.2042
  860SOL     OW 2578   2.435   2.565   0.037 -0.3964  0.7051 -0.5484
  860SOL    HW1 2579   2.444   2.522   3.058 -0.1063  2.4813  3.9663
  860SOL    HW2 2580   2.342   2.601   0.043  1.9377  0.5718  0.9121
  861SOL     OW 2581   2.284   2.798   0.677 -0.3299  0.3230  0.5484
  861SOL    HW1 2582   2.262   2.860   0.599 -0.8053  1.6291  2.5768
  861SOL    HW2 2583   2.312   2.712   0.635 -1.1493  2.5507  0.4183
  862SOL     OW 2584   1.815   0.122   2.445 -0.6913 -0.1067 -0.0323
  862SOL    HW1 2585   1.874   0.062   2.500  0.5424  2.6401 -0.2114
  862SOL    HW2 2586   1.863   0.151   2.356 -0.1048  0.4727  1.4288
  863SOL     OW 2587   3.059   0.719   0.887 -0.1694 -0.0367  0.3212
  863SOL    HW1 2588   0.044   0.703   0.835  3.7752  0.2014 -2.6205
  863SOL    HW2 2589   2.983   0.750   0.823 -0.7881  0.2720 -0.4011
  864SOL     OW 2590   0.336   2.837   2.124  0.1400  0.0176 -0.0633
  864SOL    HW1 2591   0.424   2.881   2.139 -0.7540  0.9694  0.5718
  864SOL    HW2 2592   0.311   2.782   2.206  1.2303 -2.5092 -2.4408
  865SOL     OW 2593   0.647   1.153   0.068 -0.3064 -0.3745 -0.2199
  865SOL    HW1 2594   0.667   1.064   0.026 -0.5458  1.8005  0.2652
  865SOL    HW2 2595   0.547   1.159   0.074  0.4891 -2.7754 -0.8758
  866SOL     OW 2596   2.653   0.642   0.000  0.0620  0.0102  0.0255
  866SOL    HW1 2597   2.691   0.612   3.020 -2.6307 -1.2737  1.8092
  866SOL    HW2 2598   2.552   0.639   0.004  2.8831  0.0466  2.2618
  867SOL     OW 2599   2.964   0.027   2.856 -1.2458  0.4140  0.1962
  867SOL    HW1 2600   3.043   0.023   2.919  0.1656  2.2916  0.4608
  867SOL    HW2 2601   2.950   3.048   2.807  1.5328 -0.4504 -1.4321
  868SOL     OW 2602   1.321   0.041   0.638 -0.3135 -0.2510 -0.4179
  868SOL    HW1 2603   1.266   0.120   0.677  1.9172  0.2070 -0.9361
  868SOL    HW2 2604   1.298   3.058   0.678  2.2263 -1.4704 -0.3578
  869SOL     OW 2605   1.385   1.711   0.783  0.2798  0.0275  0.4036
  869SOL    HW1 2606   1.326   1.784   0.743  1.4063  0.4899 -0.6571
  869SOL    HW2 2607   1.450   1.751   0.850 -0.1102  0.3853 -0.5813
  870SOL     OW 2608   1.931   1.864   0.749 -0.8289 -0.1881 -0.2523
  870SOL    HW1 2609   1.949   1.774   0.705 -0.1392  1.4613 -0.7125
  870SOL    HW2 2610   1.877   1.920   0.682  2.4158 -0.4359  0.1319
  871SOL     OW 2611   1.198   1.418   1.398  0.3107 -0.1183 -0.0390
  871SOL    HW1 2612   1.192   1.347   1.475  1.4096  5.3948 -1.3860
  871SOL    HW2 2613   1.235   1.376   1.310  0.9753  0.3279 -1.5033
  872SOL     OW 2614   0.986   1.779   1.686  0.2429 -0.0732 -0.4048
  872SOL    HW1 2615   0.970   1.693   1.638  2.0907 -1.9085 -0.1398
  872SOL    HW2 2616   0.998   1.760   1.787  0.8011 -1.1170  4.0289
  873SOL     OW 2617   0.940   1.222   2.839  0.0240 -0.1091 -0.6877
  873SOL    HW1 2618   0.844   1.239   2.809 -0.7110  1.5665  0.3098
  873SOL    HW2 2619   0.952   1.250   2.936  0.7016  2.6457 -1.5325
  874SOL     OW 2620   0.148   1.258   1.061 -0.5877  0.4496  0.1222
  874SOL    HW1 2621   0.209   1.267   0.984 -1.1026  3.4532 -1.6922
  874SOL    HW2 2622   0.156   1.168   1.094 -0.3092  4.6484 -1.7689
  875SOL     OW 2623   2.582   3.058   1.037 -0.4609 -0.3329  0.5372
  875SOL    HW1 2624   2.551   2.995   0.961 -0.5293 -1.0277 -0.8999
  875SOL    HW2 2625   2.513   0.024   1.041  0.4433 -3.6960  1.0441
  876SOL     OW 2626   0.660   0.667   0.113 -0.2939  0.0290  0.1853
  876SOL    HW1 2627   0.722   0.596   0.085 -3.2675  0.2228  1.6696
  876SOL    HW2 2628   0.678   0.704   0.209 -1.0401 -1.4362 -0.1266
  877SOL     OW 2629   2.926   0.193   1.208  0.8631  0.5125 -0.0663
  877SOL    HW1 2630   2.890   0.180   1.301  0.1113 -0.4993 -0.5755
  877SOL    HW2 2631   3.006   0.131   1.188  2.0841 -0.0953 -0.8553
  878SOL     OW 2632   1.837   2.274   3.050  0.1683  0.2035 -0.5222
  878SOL    HW1 2633   1.921   2.313   3.098 -2.8208 -2.2511  0.7987
  878SOL    HW2 2634   1.797   2.201   3.102  0.4482  2.3162 -2.4468
  879SOL     OW 2635   2.288   2.021   1.545 -0.2795  0.0238  0.4397
  879SOL    HW1 2636   2.377   2.052   1.579 -0.6466  0.6531 -0.9870
  879SOL    HW2 2637   2.232   2.105   1.517 -0.0366 -0.7016  0.0605
  880SOL     OW 2638   0.919   0.415   1.707  0.0474 -0.0234 -0.1152
  880SOL    HW1 2639   0.873   0.436   1.793  2.0085 -1.2633 -1.7094
  880SOL    HW2 2640   1.008   0.368   1.723  1.6193 -0.6786  0.3543
  881SOL     OW 2641   0.896   2.032   2.950  0.0026 -0.2446  0.7518
  881SOL    HW1 2642   0.986   2.000   2.911  0.8450  0.0422 -0.8051
  881SOL    HW2 2643   0.897   2.019   3.050 -2.2720 -2.0135 -0.5764
  882SOL     OW 2644   2.343   1.178   1.660 -0.4989  0.0301  0.3056
  882SOL    HW1 2645   2.314   1.259   1.606 -0.3426 -0.0145  1.8069
  882SOL    HW2 2646   2.444   1.173   1.661 -1.3443  0.6313  1.9743
  883SOL     OW 2647   1.212   0.718   2.178  0.1387 -0.3301 -0.0939
  883SOL    HW1 2648   1.117   0.754   2.196  2.3594  1.6608  0.3539
  883SOL    HW2 2649   1.215   0.655   2.101  0.6339  1.2956 -2.0605
  884SOL     OW 2650   2.720   0.394   2.908  0.1122 -0.1470 -0.1693
  884SOL    HW1 2651   2.734   0.493   2.904 -1.0538 -1.6555  2.1427
  884SOL    HW2 2652   2.777   0.351   2.982 -1.9078 -2.6511 -1.7400
  885SOL     OW 2653   0.202   2.291   0.326  0.4237  0.1059  0.0716
  885SOL    HW1 2654   0.243   2.205   0.298 -0.7007  0.2444 -1.6937
  885SOL    HW2 2655   0.247   2.372   0.282  2.5287  0.5155  0.1382
  886SOL     OW 2656   2.090   1.293   3.010 -0.3009 -0.2644  0.0790
  886SOL    HW1 2657   2.099   1.201   2.961  1.1374 -1.0194  1.9178
  886SOL    HW2 2658   1.998   1.295   3.057  0.3829 -1.2053 -2.2031
  887SOL     OW 2659   1.656   0.524   1.876 -0.5891  0.4330 -0.6172
  887SOL    HW1 2660   1.694   0.472   1.958  1.4843 -3.2464  1.6757
  887SOL    HW2 2661   1.711   0.606   1.851 -0.4370 -0.2358 -2.3748
  888SOL     OW 2662   3.009   1.258   1.595  0.0756 -0.3302  0.2989
  888SOL    HW1 2663   2.998   1.169   1.549  1.5720  2.0687  0.6934
  888SOL    HW2 2664   3.070   1.251   1.674  3.0025 -1.9063  0.7863
  889SOL     OW 2665   2.953   2.410   0.822 -0.2775 -0.4702  0.2189
  889SOL    HW1 2666   3.012   2.450   0.899  0.4006  0.5563  0.7714
  889SOL    HW2 2667   2.903   2.325   0.858 -0.5057  0.0864 -0.5128
  890SOL     OW 2668   3.092   2.763   2.508  0.0881  0.1459  0.3202
  890SOL    HW1 2669   0.034   2.682   2.532  0.0812 -1.5498  2.6382
  890SOL    HW2 2670   0.049   2.840   2.491 -0.0560  0.3074  0.9173
  891SOL     OW 2671   0.512   1.929   0.212  0.2305 -0.0558 -0.1844
  891SOL    HW1 2672   0.576   1.974   0.280  2.4411  0.2542  1.3138
  891SOL    HW2 2673   0.518   1.827   0.215 -3.9083  1.6971 -1.1916
  892SOL     OW 2674   3.098   2.193   1.131 -0.0523 -0.2891 -0.0493
  892SOL    HW1 2675   3.071   2.141   1.215 -0.3135 -0.5140 -1.7878
  892SOL    HW2 2676   3.011   2.210   1.082  0.7381  1.2635  0.4585
  893SOL     OW 2677   0.359   2.885   1.421 -0.1494 -0.0053 -0.1845
  893SOL    HW1 2678   0.441   2.947   1.428  1.8421  0.3935  0.8805
  893SOL    HW2 2679   0.273   2.940   1.416 -0.7016  2.4713 -2.0608
  894SOL     OW 2680   2.390   1.637   0.908  0.0571  0.3919 -0.1473
  894SOL    HW1 2681   2.438   1.586   0.981 -0.4901  0.0173  0.6514
  894SOL    HW2 2682   2.402   1.600   0.815 -1.2308 -1.3862  0.2371
  895SOL     OW 2683   2.724   2.539   1.732 -0.0370  0.2184  0.2035
  895SOL    HW1 2684   2.781   2.461   1.695  0.7776 -0.0812 -0.7464
  895SOL    HW2 2685   2.758   2.625   1.698  0.5924  0.5004  1.3871
  896SOL     OW 2686   0.896   0.309   1.459  0.0753 -0.2043  0.9793
  896SOL    HW1 2687   0.930   0.372   1.385 -0.6528 -1.3410 -1.8700
  896SOL    HW2 2688   0.890   0.355   1.553 -0.2959  0.9160  1.5673
  897SOL     OW 2689   0.954   1.560   1.486  0.2198 -0.2996  0.3360
  897SOL    HW1 2690   0.888   1.593   1.426  1.3734 -2.4019  1.8132
  897SOL    HW2 2691   1.044   1.533   1.440  1.3441 -1.7514 -0.9303
  898SOL     OW 2692   1.597   2.730   1.734 -0.0951 -0.1793  0.1911
  898SOL    HW1 2693   1.586   2.626   1.736 -2.0444 -0.6548 -1.1147
  898SOL    HW2 2694   1.662   2.758   1.809 -0.6923 -1.9321  0.9795
  899SOL     OW 2695   0.875   0.459   0.064  0.6440  0.0975 -0.4803
  899SOL    HW1 2696   0.953   0.511   0.027 -1.4927  2.1350  1.8351
  899SOL    HW2 2697   0.903   0.369   0.098  0.5998  1.2437 -0.1742
  900SOL     OW 2698   1.369   2.393   2.072 -0.6388 -0.8761 -0.1825
  900SOL    HW1 2699   1.271   2.425   2.060  1.4553  1.2954  1.6339
  900SOL    HW2 2700   1.423   2.483   2.075  2.2538  1.7725  1.8221
  901SOL     OW 2701   1.088   2.230   0.034  0.4088 -0.2172 -0.1331
  901SOL    HW1 2702   1.145   2.273   3.076  2.2929 -0.5820  1.7048
  901SOL    HW2 2703   1.132   2.148   0.072  0.0056 -0.1248 -0.1795
  902SOL     OW 2704   1.710   1.449   0.747 -0.4653 -0.1691 -0.2158
  902SOL    HW1 2705   1.733   1.533   0.802  2.1817 -1.2938  1.2799
  902SOL    HW2 2706   1.611   1.421   0.756  1.5908 -0.7096  1.7453
  903SOL     OW 2707   2.501   1.029   2.981 -0.1505 -0.5441  0.4722
  903SOL    HW1 2708   2.501   1.131   2.984  2.0216 -0.3751  2.6982
  903SOL    HW2 2709   2.411   0.990   2.955  3.8674 -0.5935 -0.0518
  904SOL     OW 2710   0.884   1.260   3.102  0.0979  0.3271 -0.1190
  904SOL    HW1 2711   0.801   1.229   0.042 -2.0058 -0.3347 -1.1973
  904SOL    HW2 2712   0.917   1.344   0.036 -0.6600 -1.2987 -3.1597
  905SOL     OW 2713   1.772   3.057   1.234 -0.2062  0.2132  0.1030
  905SOL    HW1 2714   1.682   3.104   1.252 -0.3104 -2.1375  2.0650
  905SOL    HW2 2715   1.829   3.052   1.316  0.5757 -0.0466  1.3946
  906SOL     OW 2716   2.811   2.554   1.208  0.2570 -0.2257  0.2431
  906SOL    HW1 2717   2.906   2.522   1.189 -0.8403 -1.1637 -0.1703
  906SOL    HW2 2718   2.757   2.478   1.251 -0.6284 -1.6739  2.5308
  907SOL     OW 2719   1.252   1.093   0.455 -0.0195 -0.0918 -0.3174
  907SOL    HW1 2720   1.240   1.080   0.556 -0.9945 -1.1619  0.4174
  907SOL    HW2 2721   1.176   1.046   0.411  0.6887  1.8685  0.2999
  908SOL     OW 2722   1.569   0.228   1.009 -0.5201 -0.1307  0.4569
  908SOL    HW1 2723   1.554   0.155   1.081 -1.4812 -2.2488 -0.3556
  908SOL    HW2 2724   1.646   0.292   1.037  1.6722  1.0446  0.3335
  909SOL     OW 2725   2.460   0.942   1.329 -0.1067 -0.2034 -0.0722
  909SOL    HW1 2726   2.455   0.840   1.329  0.2874  0.4520 -1.8636
  909SOL    HW2 2727   2.371   0.979   1.293 -0.7961  2.1745 -0.9863
  910SOL     OW 2728   1.945   0.677   2.158  0.0163 -0.2459 -0.5149
  910SOL    HW1 2729   1.981   0.755   2.104 -2.2033 -2.4046  2.5161
  910SOL    HW2 2730   1.947   0.593   2.098 -2.0061 -1.0449 -2.5252
  911SOL     OW 2731   2.237   0.956   2.647  0.0315  0.5419 -0.2071
  911SOL    HW1 2732   2.153   0.967   2.589 -0.0469  0.5261  0.5177
  911SOL    HW2 2733   2.226   0.953   2.749 -0.8475  0.3997  1.0915
  912SOL     OW 2734   0.305   1.059   1.613  0.4842  0.1408  0.2639
  912SOL    HW1 2735   0.400   1.032   1.614 -2.3846 -1.8769  0.7617
  912SOL    HW2 2736   0.313   1.155   1.645  2.6531 -1.8562 -1.5288
  913SOL     OW 2737   2.948   2.139   1.347 -0.5475 -0.2848  0.2003
  913SOL    HW1 2738   2.987   2.073   1.414 -2.7956 -1.0815  2.5702
  913SOL    HW2 2739   2.873   2.197   1.390 -2.4913 -1.5793  2.6548
  914SOL     OW 2740   1.669   0.951   1.953 -0.0973  0.0074  0.3571
  914SOL    HW1 2741   1.730   1.028   1.919  3.3224  0.6582 -2.2860
  914SOL    HW2 2742   1.707   0.862   1.916 -0.8230 -1.5755  0.5968
  915SOL     OW 2743   2.216   0.830   1.105 -0.1063  0.0196 -0.1562
  915SOL    HW1 2744   2.218   0.730   1.094  2.2575  1.7919 -0.6343
  915SOL    HW2 2745   2.276   0.872   1.032  1.2096 -1.6347 -0.6301
  916SOL     OW 2746   2.013   2.261   1.005  0.4935  0.0498  0.9002
  916SOL    HW1 2747   1.942   2.309   1.059  1.0622 -2.0088  1.6240
  916SOL    HW2 2748   2.007   2.161   1.023 -1.8015  3.2595 -1.7723
  917SOL     OW 2749   1.959   2.082   2.518 -0.3141  0.2389 -0.2175
  917SOL    HW1 2750   1.871   2.101   2.465 -1.2090 -1.3334 -3.0681
  917SOL    HW2 2751   2.012   2.168   2.529 -1.1843 -1.2082 -0.1291
  918SOL     OW 2752   1.950   2.594   2.483  0.3219 -0.3586 -0.2773
  918SOL    HW1 2753   1.972   2.667   2.550  2.6720 -0.9300  0.2395
  918SOL    HW2 2754   1.888   2.618   2.405  0.8628 -0.4436 -3.1158
  919SOL     OW 2755   1.150   3.083   1.482  0.3559  0.1406  0.1077
  919SOL    HW1 2756   1.175   2.987   1.490 -0.2706 -1.8347  1.9092
  919SOL    HW2 2757   1.224   0.039   1.455 -0.0079 -1.3842  1.2306
  920SOL     OW 2758   2.886   0.295   2.531  1.0936  0.2129 -0.0010
  920SOL    HW1 2759   2.960   0.256   2.589  0.0877 -1.3371 -2.7300
  920SOL    HW2 2760   2.855   0.233   2.459  0.2676  0.0672  1.7408
  921SOL     OW 2761   0.119   0.855   1.654 -0.3566  0.1179 -0.5616
  921SOL    HW1 2762   0.164   0.780   1.610 -0.1040  1.4757  2.9882
  921SOL    HW2 2763   0.174   0.940   1.642 -0.3513  0.1671  0.9349
  922SOL     OW 2764   2.236   2.419   0.281  0.1714 -0.1328  0.0347
  922SOL    HW1 2765   2.196   2.507   0.316 -0.0174  0.4871  2.4232
  922SOL    HW2 2766   2.332   2.438   0.258  2.5467 -2.0934  0.8133
  923SOL     OW 2767   0.526   2.179   0.562  0.5600 -0.3199 -0.5598
  923SOL    HW1 2768   0.521   2.154   0.663 -0.6499  0.4021 -3.0119
  923SOL    HW2 2769   0.443   2.232   0.531 -1.8245 -0.0945  0.9301
  924SOL     OW 2770   1.001   0.640   0.322  0.5345  0.3188 -0.2349
  924SOL    HW1 2771   0.985   0.705   0.247 -1.2702 -1.1361  0.1360
  924SOL    HW2 2772   0.958   0.676   0.410 -2.0661  0.3486 -0.2129
  925SOL     OW 2773   2.601   0.772   1.008  0.0321 -0.0537  0.2010
  925SOL    HW1 2774   2.563   0.677   1.015  0.5824 -1.3593 -0.4609
  925SOL    HW2 2775   2.529   0.837   0.975  0.4794 -0.3676  1.7675
  926SOL     OW 2776   0.438   0.198   1.318 -0.4339  0.0833 -0.1304
  926SOL    HW1 2777   0.397   0.154   1.401 -0.7772 -2.7863 -0.0306
  926SOL    HW2 2778   0.371   0.219   1.247  0.0616  1.4844 -0.7373
  927SOL     OW 2779   0.578   1.543   2.283 -0.4222 -0.4299  0.0869
  927SOL    HW1 2780   0.540   1.517   2.371  2.1141  1.3033 -0.4941
  927SOL    HW2 2781   0.511   1.512   2.209 -0.9573 -0.7825 -2.7157
  928SOL     OW 2782   0.109   0.558   2.459 -0.1577  0.0185  0.8895
  928SOL    HW1 2783   0.017   0.581   2.422  1.8997  1.3421 -0.9592
  928SOL    HW2 2784   0.122   0.460   2.477 -0.3113  0.7535  0.3650
  929SOL     OW 2785   2.827   2.982   1.159  0.2819  0.5171 -0.5250
  929SOL    HW1 2786   2.850   2.915   1.089 -2.4209 -2.1309 -1.6016
  929SOL    HW2 2787   2.741   3.029   1.137  3.7529 -4.1975 -0.2418
  930SOL     OW 2788   2.071   0.722   1.787 -0.3982  0.4331  0.1491
  930SOL    HW1 2789   2.044   0.634   1.822  1.2738  3.4837 -1.9067
  930SOL    HW2 2790   2.073   0.796   1.858 -1.6736  0.9505  1.7140
  931SOL     OW 2791   1.839   1.310   0.020  0.1000  0.5388  0.1613
  931SOL    HW1 2792   1.744   1.290   3.084 -3.0785 -0.9393 -1.9416
  931SOL    HW2 2793   1.830   1.388   0.084  2.4261 -1.6130 -0.3757
  932SOL     OW 2794   2.067   1.280   0.429  0.0796  0.1478  0.3836
  932SOL    HW1 2795   2.075   1.184   0.402  0.9994  1.5287 -3.3392
  932SOL    HW2 2796   1.975   1.295   0.475 -3.0555  1.1962  0.4272
  933SOL     OW 2797   2.125   1.697   0.932 -0.1080 -0.3674 -0.0585
  933SOL    HW1 2798   2.224   1.679   0.927  0.7475  0.6116 -2.1430
  933SOL    HW2 2799   2.105   1.755   1.012  0.2547  0.5820  3.0557
  934SOL     OW 2800   1.904   0.982   2.589 -0.0261  0.8277  0.3182
  934SOL    HW1 2801   1.936   0.931   2.505 -0.3560  0.0660 -2.6531
  934SOL    HW2 2802   1.806   0.964   2.598  0.6763 -2.1446 -2.2567
  935SOL     OW 2803   0.145   0.870   0.694  0.5130 -0.1005 -0.1599
  935SOL    HW1 2804   0.196   0.851   0.606  2.8436  0.1707  0.4182
  935SOL    HW2 2805   0.045   0.901   0.677 -2.5685  0.5383 -0.0187
  936SOL     OW 2806   0.374   3.027   0.932  0.3375  0.1258 -0.1795
  936SOL    HW1 2807   0.438   3.023   1.013 -0.4100 -0.4725  1.4119
  936SOL    HW2 2808   0.424   3.048   0.847 -1.3590 -1.3738  1.5893
  937SOL     OW 2809   2.971   0.018   2.081 -0.0606 -0.2326 -0.4899
  937SOL    HW1 2810   3.052   3.071   2.091 -0.7683  0.9603  1.7199
  937SOL    HW2 2811   2.928   3.108   1.989 -1.7774 -2.6617  0.6637
  938SOL     OW 2812   0.052   2.580   3.000  0.2213  0.4455  0.4653
  938SOL    HW1 2813   3.097   2.531   2.937  0.7265 -0.8897 -0.1905
  938SOL    HW2 2814   0.013   2.589   3.095 -0.4299 -1.3803  2.4824
  939SOL     OW 2815   1.179   1.605   1.112  0.1162  0.1463  0.5129
  939SOL    HW1 2816   1.240   1.530   1.140 -2.1551  1.8676 -0.6376
  939SOL    HW2 2817   1.155   1.591   1.014 -0.4440  1.2897  1.4780
  940SOL     OW 2818   0.069   0.449   0.038 -0.4036 -0.1071 -0.5610
  940SOL    HW1 2819   0.070   0.349   0.031  1.5382  0.6276  2.3978
  940SOL    HW2 2820   0.135   0.483   0.112  2.5988 -0.8575  1.2288
  941SOL     OW 2821   2.165   0.282   2.647 -0.4764 -0.3558 -0.1033
  941SOL    HW1 2822   2.152   0.326   2.561  0.5887 -0.8443  5.2712
  941SOL    HW2 2823   2.078   0.282   2.699 -1.4905 -0.0380 -1.9519
  942SOL     OW 2824   1.365   0.376   0.903  0.4464 -0.2584 -0.2143
  942SOL    HW1 2825   1.427   0.328   0.969  0.3066  4.1362 -0.9297
  942SOL    HW2 2826   1.277   0.416   0.951 -3.9064 -1.1918  1.7721
  943SOL     OW 2827   1.070   0.870   1.896  0.2409 -0.0245 -0.2226
  943SOL    HW1 2828   1.106   0.821   1.979  0.1787 -1.4437  3.0380
  943SOL    HW2 2829   1.014   0.951   1.920 -3.1296  0.6071  0.0720
  944SOL     OW 2830   2.092   1.010   1.498 -0.4272 -0.2299 -0.3470
  944SOL    HW1 2831   2.081   0.912   1.522  0.7727  2.3406  0.5135
  944SOL    HW2 2832   2.191   1.034   1.494 -2.0416 -3.5822 -0.1453
  945SOL     OW 2833   2.518   0.272   0.051 -0.0711 -0.0340 -0.1736
  945SOL    HW1 2834   2.465   0.224   3.092  1.5588  3.0867  1.2221
  945SOL    HW2 2835   2.606   0.303   0.017 -2.4361  2.8693  1.6861
  946SOL     OW 2836   2.999   1.054   1.926 -0.3646  1.1485  0.2520
  946SOL    HW1 2837   3.062   1.130   1.904 -1.1755 -5.3660  0.5582
  946SOL    HW2 2838   3.009   0.969   1.870 -0.9501 -2.8157 -1.3946
  947SOL     OW 2839   1.080   3.049   0.173  0.5322  0.0555  0.2611
  947SOL    HW1 2840   1.008   2.980   0.138 -0.4471 -2.1271 -1.7901
  947SOL    HW2 2841   1.035   0.004   0.238 -1.0222  1.1564 -1.5144
  948SOL     OW 2842   2.325   1.838   1.338  0.2040  0.1301 -0.4686
  948SOL    HW1 2843   2.293   1.890   1.424 -2.6483 -0.0443  3.1026
  948SOL    HW2 2844   2.389   1.766   1.371 -1.6563  1.7976  0.4292
  949SOL     OW 2845   0.114   1.469   3.013  0.4575  0.0390 -0.1428
  949SOL    HW1 2846   0.112   1.366   2.989  0.4551  0.1548 -2.7581
  949SOL    HW2 2847   0.208   1.505   2.989 -0.5193 -1.6746 -1.3547
  950SOL     OW 2848   0.829   2.553   1.021 -0.0805 -0.2304  0.2619
  950SOL    HW1 2849   0.744   2.576   1.074 -3.2813 -0.5240  0.9487
  950SOL    HW2 2850   0.816   2.509   0.935  3.3476  1.8312  1.6748
  951SOL     OW 2851   0.642   1.272   2.576 -0.0920  0.5777  0.2279
  951SOL    HW1 2852   0.591   1.354   2.543  1.9263  0.5492  1.3807
  951SOL    HW2 2853   0.642   1.258   2.680  0.8069  0.4164  4.1122
  952SOL     OW 2854   0.531   0.717   0.699 -0.3259  0.4009  0.0010
  952SOL    HW1 2855   0.585   0.650   0.752 -1.7061  2.0774 -0.0504
  952SOL    HW2 2856   0.585   0.801   0.697  0.1211 -2.2684  1.9922
  953SOL     OW 2857   2.461   2.907   2.573  0.1297  0.1224  0.8351
  953SOL    HW1 2858   2.414   2.959   2.497  0.9669 -0.8057  0.4094
  953SOL    HW2 2859   2.494   2.978   2.639 -1.2458 -0.0533 -1.7548
  954SOL     OW 2860   1.445   0.973   0.812 -0.3177 -0.2247 -0.3522
  954SOL    HW1 2861   1.500   1.055   0.824  0.3204 -0.6892  0.6870
  954SOL    HW2 2862   1.465   0.927   0.725 -1.2805  0.0570 -0.1588
  955SOL     OW 2863   0.675   1.989   0.462  0.2007  0.1022 -0.4144
  955SOL    HW1 2864   0.750   2.040   0.420 -3.1038 -1.6324 -0.0932
  955SOL    HW2 2865   0.607   2.062   0.492  1.0285 -2.2176  1.5664
  956SOL     OW 2866   2.255   0.386   2.048  0.0766 -0.1167 -0.0927
  956SOL    HW1 2867   2.194   0.382   2.132 -1.4278 -0.7262  3.1530
  956SOL    HW2 2868   2.353   0.368   2.081  2.4161 -2.3669 -0.7762
  957SOL     OW 2869   2.214   2.532   1.807  0.0569  0.6724  0.7097
  957SOL    HW1 2870   2.317   2.534   1.786  0.7483  0.2878 -0.3136
  957SOL    HW2 2871   2.187   2.441   1.840  2.0047  2.3720  4.1857
  958SOL     OW 2872   1.654   1.130   1.426  0.1259  0.0297 -0.4399
  958SOL    HW1 2873   1.675   1.222   1.463  0.6874  1.4169  1.3465
  958SOL    HW2 2874   1.737   1.069   1.419 -0.4491  0.3173 -1.8679
  959SOL     OW 2875   2.150   1.769   2.123 -0.3051 -0.3547 -0.1912
  959SOL    HW1 2876   2.046   1.770   2.105 -3.3720  0.2717 -1.7350
  959SOL    HW2 2877   2.172   1.833   2.197  4.5312  0.6957  0.8160
  960SOL     OW 2878   0.500   0.967   2.877 -0.5020  0.1144 -0.2811
  960SOL    HW1 2879   0.495   0.902   2.795  0.6807 -2.1626 -3.1695
  960SOL    HW2 2880   0.542   0.917   2.958 -2.6567 -1.5089  0.8642
  961SOL     OW 2881   0.085   1.206   2.981 -0.3877 -0.1970  0.4302
  961SOL    HW1 2882   3.107   1.162   3.013 -4.0256 -2.1395 -1.9868
  961SOL    HW2 2883   0.163   1.144   3.000 -3.0930  0.5205  0.7554
  962SOL     OW 2884   0.760   1.737   2.198  0.0186  0.0575  0.2327
  962SOL    HW1 2885   0.679   1.681   2.233  0.5040 -0.7146  0.5983
  962SOL    HW2 2886   0.758   1.836   2.231  0.8147 -0.3423  0.4403
  963SOL     OW 2887   2.846   2.120   3.030 -0.4017  0.6748  0.0318
  963SOL    HW1 2888   2.792   2.205   3.027 -0.6191 -2.2328  2.1068
  963SOL    HW2 2889   2.784   2.042   3.016  0.8083  0.0098 -0.2546
  964SOL     OW 2890   0.698   1.785   1.708 -0.1734  0.1121  0.4509
  964SOL    HW1 2891   0.662   1.762   1.803 -0.1964 -0.0905  0.1107
  964SOL    HW2 2892   0.798   1.802   1.699 -1.7406  0.5200  1.5750
  965SOL     OW 2893   1.769   2.042   0.602 -0.1662 -0.3425 -0.2850
  965SOL    HW1 2894   1.776   2.138   0.566  0.1842  1.4083  0.0441
  965SOL    HW2 2895   1.783   1.966   0.533  0.7117 -2.1371  0.4424
  966SOL     OW 2896   3.088   1.775   0.103  0.0689 -0.1213 -0.0833
  966SOL    HW1 2897   0.059   1.795   0.045  1.0747  0.6314 -0.2183
  966SOL    HW2 2898   3.084   1.677   0.139 -2.4639  0.7546 -1.2508
  967SOL     OW 2899   2.025   2.978   2.288 -0.3143  0.2310 -0.2260
  967SOL    HW1 2900   1.961   2.965   2.367  0.0670  2.4530 -1.1413
  967SOL    HW2 2901   2.031   2.898   2.227 -0.9718  0.4213 -1.2417
  968SOL     OW 2902   0.783   0.416   0.328  0.0520  0.2277 -0.1729
  968SOL    HW1 2903   0.806   0.466   0.244 -2.3285 -2.9150  1.6237
  968SOL    HW2 2904   0.874   0.385   0.364 -0.0880 -1.9807 -2.3108
  969SOL     OW 2905   0.230   1.642   2.059 -0.4197  0.4744 -0.3300
  969SOL    HW1 2906   0.317   1.691   2.038  0.1340 -1.7397  0.6964
  969SOL    HW2 2907   0.254   1.548   2.077  1.9249  1.9816 -1.7608
  970SOL     OW 2908   1.923   2.622   1.231  0.0953  0.7831 -0.1710
  970SOL    HW1 2909   2.015   2.621   1.186  2.1703 -0.3565  1.9998
  970SOL    HW2 2910   1.937   2.569   1.320 -3.2891  0.5857 -0.7482
  971SOL     OW 2911   2.173   2.480   0.766 -0.4045  0.3812  0.2464
  971SOL    HW1 2912   2.113   2.561   0.785  0.2146 -1.1864  0.0096
  971SOL    HW2 2913   2.264   2.481   0.809  0.3130 -0.1533 -2.3362
  972SOL     OW 2914   0.022   1.146   2.477 -0.3386 -0.0620 -0.0782
  972SOL    HW1 2915   0.072   1.216   2.529  1.6220  0.5811 -0.2815
  972SOL    HW2 2916   0.088   1.069   2.449  1.1293 -0.0408 -0.4854
  973SOL     OW 2917   0.541   0.042   0.709 -0.0615 -0.0650 -0.1328
  973SOL    HW1 2918   0.616   3.089   0.740  0.0693 -1.5244  1.9238
  973SOL    HW2 2919   0.575   0.136   0.708 -1.0556 -0.8899 -3.2939
  974SOL     OW 2920   2.302   1.047   1.899  0.1817 -0.0622  0.3661
  974SOL    HW1 2921   2.330   1.087   1.808  2.0302 -2.1707 -1.9131
  974SOL    HW2 2922   2.384   1.021   1.957  0.8422 -0.2205  1.7285
  975SOL     OW 2923   0.112   2.996   0.302  0.5918 -0.0481 -0.1211
  975SOL    HW1 2924   0.017   2.987   0.276 -1.0115 -1.9955  1.4150
  975SOL    HW2 2925   0.141   3.087   0.276 -0.6012 -0.1949  2.3994
  976SOL     OW 2926   0.377   1.850   0.877 -0.1458 -0.1715  0.0767
  976SOL    HW1 2927   0.321   1.779   0.918  0.4856 -2.0322 -1.3319
  976SOL    HW2 2928   0.347   1.870   0.784  1.4867 -2.6090  2.1683
  977SOL     OW 2929   1.002   1.823   0.660  0.2521  0.7374 -0.3460
  977SOL    HW1 2930   0.959   1.737   0.624 -1.4409 -2.9351  0.7015
  977SOL    HW2 2931   0.931   1.898   0.667  0.1828  1.4153 -1.5136
  978SOL     OW 2932   0.048   0.819   0.149 -0.6771  0.6670  0.5981
  978SOL    HW1 2933   0.082   0.772   0.063 -0.0254  1.0405 -1.4410
  978SOL    HW2 2934   0.049   0.919   0.140 -0.5615 -4.1125  2.6609
  979SOL     OW 2935   1.815   1.543   0.513 -0.5191  0.2113 -0.2085
  979SOL    HW1 2936   1.913   1.529   0.537 -0.8200 -2.5871 -1.2063
  979SOL    HW2 2937   1.760   1.517   0.593 -0.8705  1.2824 -0.2052
  980SOL     OW 2938   0.656   2.190   1.899  0.8839 -0.5020  0.1022
  980SOL    HW1 2939   0.737   2.169   1.958 -0.0543 -1.2101  3.0975
  980SOL    HW2 2940   0.669   2.148   1.805 -0.4683 -2.2630  0.3278
  981SOL     OW 2941   2.247   0.954   2.943  0.6580 -0.6724  0.0063
  981SOL    HW1 2942   2.157   0.999   2.911  0.9048 -2.9827 -0.7312
  981SOL    HW2 2943   2.230   0.889   3.015 -2.8428  0.2380 -1.2092
  982SOL     OW 2944   0.014   2.624   1.912 -0.1606  0.0785  0.3083
  982SOL    HW1 2945   3.087   2.677   1.991  2.0408 -0.7905  2.3033
  982SOL    HW2 2946   0.115   2.633   1.899  2.1070 -2.0393  0.2469
  983SOL     OW 2947   1.646   0.284   1.711  0.1526  0.8367  0.2553
  983SOL    HW1 2948   1.624   0.379   1.740  0.7985 -2.2089  0.6234
  983SOL    HW2 2949   1.565   0.225   1.734 -1.3809 -1.4600  0.6289
  984SOL     OW 2950   1.974   3.008   2.566 -0.3275 -0.2080 -0.0112
  984SOL    HW1 2951   2.059   2.953   2.552 -1.3954 -0.1727 -1.6588
  984SOL    HW2 2952   1.897   2.937   2.576  0.3356  0.1898  0.6304
  985SOL     OW 2953   1.534   1.451   1.752 -0.3471  0.2596  0.0607
  985SOL    HW1 2954   1.484   1.370   1.787  1.0037 -0.5995 -0.9942
  985SOL    HW2 2955   1.475   1.500   1.688  0.5289 -0.6035  1.5930
  986SOL     OW 2956   2.233   2.582   2.393  0.3641 -0.3269  0.1016
  986SOL    HW1 2957   2.281   2.589   2.480 -2.0902  1.6000 -2.1886
  986SOL    HW2 2958   2.151   2.521   2.395 -0.3344 -0.1654 -0.3670
  987SOL     OW 2959   2.994   1.797   2.695  0.2145 -0.4962 -0.0200
  987SOL    HW1 2960   2.924   1.735   2.649 -0.4136 -3.3673 -2.5505
  987SOL    HW2 2961   2.961   1.891   2.709 -2.8364  3.8015  2.1568
  988SOL     OW 2962   2.947   0.581   1.571  0.0852  0.1141 -0.2683
  988SOL    HW1 2963   2.962   0.645   1.647 -0.0592 -0.5056  0.9402
  988SOL    HW2 2964   2.859   0.600   1.520  0.0724 -0.2446  2.2650
  989SOL     OW 2965   1.970   1.258   1.613 -0.6108  0.0358 -0.5808
  989SOL    HW1 2966   2.014   1.186   1.555 -1.9764  0.7706 -1.3149
  989SOL    HW2 2967   2.043   1.311   1.663 -1.5260 -0.1118 -0.0214
  990SOL     OW 2968   2.961   0.469   0.182 -0.6785  0.1853  0.3315
  990SOL    HW1 2969   3.051   0.491   0.139 -0.4515 -3.5028  1.0591
  990SOL    HW2 2970   2.907   0.551   0.212 -0.6741  1.1626  1.1130
  991SOL     OW 2971   0.448   1.797   3.019 -0.2613 -0.2425 -0.7318
  991SOL    HW1 2972   0.494   1.848   2.943 -1.3139  0.8574  3.6400
  991SOL    HW2 2973   0.481   1.827   3.108  2.1218  0.0678 -2.5380
  992SOL     OW 2974   2.089   1.996   1.871  0.3005  0.1442 -0.0562
  992SOL    HW1 2975   2.138   1.965   1.783 -1.3077 -0.7141 -1.1703
  992SOL    HW2 2976   2.082   1.924   1.940  1.0574  1.4825 -3.6369
  993SOL     OW 2977   0.756   2.953   0.830 -0.0444 -0.1333  0.0078
  993SOL    HW1 2978   0.755   3.032   0.893  1.6940  0.8745 -0.0143
  993SOL    HW2 2979   0.844   2.940   0.781 -1.3448 -0.0757 -0.2345
  994SOL     OW 2980   2.637   1.946   1.628 -0.0107 -0.3774  0.4183
  994SOL    HW1 2981   2.550   1.895   1.633 -0.9602 -2.7229  3.8609
  994SOL    HW2 2982   2.716   1.882   1.651 -1.3799  1.8927 -0.4558
  995SOL     OW 2983   2.184   1.915   2.363  0.2690  0.2702 -0.3490
  995SOL    HW1 2984   2.120   1.959   2.429  1.3288  0.9525 -0.9440
  995SOL    HW2 2985   2.278   1.958   2.368  0.4448  0.4784 -1.0277
  996SOL     OW 2986   2.007   1.640   3.047 -0.3015 -0.0301 -0.6052
  996SOL    HW1 2987   1.985   1.584   0.020 -2.0990  1.1618  1.2476
  996SOL    HW2 2988   2.043   1.729   3.071 -0.2849 -1.1722 -0.7099
  997SOL     OW 2989   1.107   1.433   2.060  0.0098 -0.5055 -0.1069
  997SOL    HW1 2990   1.041   1.450   2.137 -0.4321 -2.5387  1.1761
  997SOL    HW2 2991   1.169   1.514   2.049  0.1660  2.4702  0.0286
  998SOL     OW 2992   2.737   2.114   0.648 -0.1711 -0.2216  0.2524
  998SOL    HW1 2993   2.752   2.075   0.559  1.6088  1.1301  0.5238
  998SOL    HW2 2994   2.789   2.063   0.715 -0.0480  2.0712  1.5528
  999SOL     OW 2995   0.152   2.496   0.893 -0.5229 -0.0105 -0.2020
  999SOL    HW1 2996   0.176   2.402   0.863  2.2417 -1.8981  1.7141
  999SOL    HW2 2997   0.189   2.567   0.831  0.7319  0.9216 -0.0141
 1000SOL     OW 2998   1.213   0.080   0.000 -0.4621  0.0265  0.1991
 1000SOL    HW1 2999   1.156   0.026   0.064  1.0600 -1.5976 -1.2098
 1000SOL    HW2 3000   1.204   0.178   0.031  0.0971  3.3927  2.9946
   3.11034   3.11034   3.11034
