1000 SPC/Fw water molecules t= 196.00000 step= 196000
 3000
    1SOL     OW    1   2.776   0.041   1.017 -0.1829  0.3876  1.3863
    1SOL    HW1    2   2.682   0.056   0.982  1.0411 -0.7954 -0.0682
    1SOL    HW2    3   2.844   0.102   0.969  0.7807  3.2864 -0.4982
    2SOL     OW    4   1.961   1.628   2.032 -0.1235 -0.4413  0.3589
    2SOL    HW1    5   1.982   1.558   2.104  0.0467 -0.4762  0.5065
    2SOL    HW2    6   1.861   1.626   2.013 -0.2610  0.7419  0.8638
    3SOL     OW    7   1.781   2.399   2.037 -0.0700 -0.3850  0.1357
    3SOL    HW1    8   1.838   2.488   2.037 -0.3930 -0.4570 -1.0545
    3SOL    HW2    9   1.818   2.335   2.104  0.7879  2.0769 -1.1080
    4SOL     OW   10   1.833   1.973   2.261  0.4568  0.2769 -0.3352
    4SOL    HW1   11   1.906   1.901   2.244  0.7600  0.1708  2.3062
    4SOL    HW2   12   1.743   1.927   2.237 -2.4395  0.4920  1.6967
    5SOL     OW   13   1.281   0.665   1.626  0.3157  0.1867  1.1029
    5SOL    HW1   14   1.246   0.634   1.534  0.0118  0.3301  0.7832
    5SOL    HW2   15   1.264   0.765   1.642 -0.7668  0.1245  0.2352
    6SOL     OW   16   2.787   0.748   2.841 -0.6349  0.5710  0.6881
    6SOL    HW1   17   2.797   0.670   2.906  0.4599  2.6768  0.4712
    6SOL    HW2   18   2.687   0.770   2.829 -0.5512 -0.6587 -1.0528
    7SOL     OW   19   1.086   0.897   1.439 -0.0954  0.2365  0.4817
    7SOL    HW1   20   1.031   0.897   1.527 -1.6294  1.0795  2.9395
    7SOL    HW2   21   1.173   0.945   1.439  0.8885 -1.6866 -2.1470
    8SOL     OW   22   1.271   0.470   0.632 -0.1556  0.3201 -0.0160
    8SOL    HW1   23   1.322   0.427   0.708  1.1788 -1.0566  0.7980
    8SOL    HW2   24   1.309   0.464   0.536  1.4125  0.3305 -0.9853
    9SOL     OW   25   1.045   0.928   2.715  0.4419 -0.2617 -0.3336
    9SOL    HW1   26   0.996   1.009   2.680 -1.6460  0.3535 -0.9922
    9SOL    HW2   27   1.029   0.912   2.814 -0.1812 -0.6631  1.8518
   10SOL     OW   28   0.172   2.545   0.367  0.1460 -0.0551  0.1441
   10SOL    HW1   29   0.233   2.465   0.376 -0.8242  1.7054  0.0611
   10SOL    HW2   30   0.208   2.607   0.296 -1.3376 -0.1567 -0.9870
   11SOL     OW   31   0.419   1.505   2.983  0.1960 -0.2986 -0.0831
   11SOL    HW1   32   0.439   1.411   2.945  1.5788 -2.7349 -1.8196
   11SOL    HW2   33   0.323   1.522   2.999  1.1265 -1.5207  1.5471
   12SOL     OW   34   0.532   0.121   1.385  0.2432  0.3976 -0.0371
   12SOL    HW1   35   0.601   0.044   1.374 -1.0261 -0.7080  1.4401
   12SOL    HW2   36   0.481   0.123   1.475 -1.1493  1.9552 -1.6528
   13SOL     OW   37   0.773   2.724   0.392 -0.4222 -0.3061 -0.0670
   13SOL    HW1   38   0.836   2.798   0.365  2.6095 -0.2513  0.0348
   13SOL    HW2   39   0.779   2.710   0.492  1.2072 -0.4574 -1.4117
   14SOL     OW   40   1.230   2.236   1.066 -0.3220 -0.3965 -0.4981
   14SOL    HW1   41   1.149   2.296   1.084  0.1338 -1.6081  0.0358
   14SOL    HW2   42   1.197   2.142   1.039 -1.9415 -2.6439  0.2534
   15SOL     OW   43   2.630   0.691   1.944  0.4887  0.1188 -0.2366
   15SOL    HW1   44   2.698   0.751   1.896  1.3067 -0.3127 -1.5427
   15SOL    HW2   45   2.616   0.602   1.893  3.1674 -0.9567  0.2174
   16SOL     OW   46   1.227   2.597   2.833 -0.4275 -0.0132 -0.1441
   16SOL    HW1   47   1.214   2.677   2.896  0.0762  1.3769  5.4207
   16SOL    HW2   48   1.142   2.541   2.826  0.5711 -1.7206 -1.2853
   17SOL     OW   49   0.938   0.103   1.274 -0.4007  0.2071 -0.1182
   17SOL    HW1   50   0.949   0.201   1.307  0.6834  0.5203  1.5352
   17SOL    HW2   51   0.959   0.091   1.175  1.7321 -1.9551  2.3893
   18SOL     OW   52   1.138   0.648   0.108 -0.3658  0.8287  0.4587
   18SOL    HW1   53   1.078   0.607   0.183  0.6917 -0.2176  2.0613
   18SOL    HW2   54   1.231   0.663   0.142  2.0185  2.3486  3.1471
   19SOL     OW   55   2.014   1.427   2.964  0.4026  0.3140 -0.3275
   19SOL    HW1   56   2.085   1.498   2.941  2.2478  2.2822  1.7296
   19SOL    HW2   57   2.053   1.331   2.948  0.0975 -1.6058  0.4263
   20SOL     OW   58   1.839   1.554   1.759  0.4216 -0.5819 -0.0471
   20SOL    HW1   59   1.783   1.602   1.834 -1.1511  0.7995 -1.2523
   20SOL    HW2   60   1.770   1.510   1.692  1.4315 -1.3928 -3.6156
   21SOL     OW   61   0.754   1.219   0.049  0.2818  0.8570 -0.1896
   21SOL    HW1   62   0.754   1.316   0.029 -1.4824  0.8070  0.8054
   21SOL    HW2   63   0.734   1.161   3.007 -3.2706 -1.8175  0.7190
   22SOL     OW   64   2.138   0.300   1.185  0.0317  0.2546  0.2662
   22SOL    HW1   65   2.093   0.320   1.274 -0.4214  1.6649 -0.8062
   22SOL    HW2   66   2.070   0.307   1.110 -2.4072  0.1273 -1.2863
   23SOL     OW   67   0.255   1.113   1.478  0.1719  0.2020  0.0862
   23SOL    HW1   68   0.226   1.013   1.463 -2.2784 -0.2093 -2.7807
   23SOL    HW2   69   0.186   1.177   1.447  2.8419 -1.5828  1.1786
   24SOL     OW   70   2.358   2.461   1.256  0.2278  0.2052  0.0649
   24SOL    HW1   71   2.342   2.434   1.155 -0.1069 -1.9451 -4.2590
   24SOL    HW2   72   2.452   2.482   1.285 -0.2700  2.8247 -1.1188
   25SOL     OW   73   1.943   2.514   2.507 -0.2939 -0.3051  0.6998
   25SOL    HW1   74   1.983   2.426   2.472  0.7956  0.2978 -2.3349
   25SOL    HW2   75   1.853   2.533   2.457  0.5987  1.2637  0.7537
   26SOL     OW   76   1.004   2.459   2.890  0.5805  0.4195 -0.0818
   26SOL    HW1   77   0.961   2.400   2.821  0.3405 -0.1586 -0.3200
   26SOL    HW2   78   1.015   2.413   2.980  0.6145 -1.0181  0.6451
   27SOL     OW   79   0.317   1.972   2.529  0.2428 -0.0593  0.1875
   27SOL    HW1   80   0.338   1.873   2.550 -2.1359  0.7780 -1.3065
   27SOL    HW2   81   0.218   1.982   2.549  0.6085  0.4195  0.4479
   28SOL     OW   82   0.054   1.516   1.520 -0.1892  0.6895 -0.2719
   28SOL    HW1   83   2.997   1.534   1.518  2.2720  1.5421  0.8077
   28SOL    HW2   84   0.106   1.600   1.491 -0.0570  0.7250  0.4251
   29SOL     OW   85   2.595   2.063   2.128 -1.0564  0.2722 -0.0533
   29SOL    HW1   86   2.659   1.981   2.147 -0.2958 -4.2079 -0.2372
   29SOL    HW2   87   2.630   2.124   2.058  0.2509 -0.3170 -0.3746
   30SOL     OW   88   1.186   2.890   0.752 -0.7294  0.1192 -0.6008
   30SOL    HW1   89   1.215   2.792   0.751 -0.9780 -0.3861  0.2960
   30SOL    HW2   90   1.089   2.910   0.736  2.8653 -0.7669  0.4996
   31SOL     OW   91   2.899   2.382   1.817  0.1450 -0.0935 -0.1183
   31SOL    HW1   92   2.978   2.352   1.869 -2.3995  0.7706 -1.7347
   31SOL    HW2   93   2.923   2.370   1.718  0.7569 -1.2636 -2.7428
   32SOL     OW   94   1.222   0.928   1.715 -0.5278 -0.0727  0.0484
   32SOL    HW1   95   1.262   0.984   1.642  1.2387  1.0209 -0.3751
   32SOL    HW2   96   1.117   0.922   1.710 -2.1144 -2.4356  0.3647
   33SOL     OW   97   0.254   2.629   2.462  0.1281  0.3767  0.2176
   33SOL    HW1   98   0.174   2.563   2.447 -2.2996  1.9761  2.9888
   33SOL    HW2   99   0.336   2.608   2.405 -1.8705 -1.0208  0.4885
   34SOL     OW  100   2.044   0.064   0.832 -0.3307 -0.1618  0.4718
   34SOL    HW1  101   2.030   0.154   0.884  0.8392  2.8809  1.0145
   34SOL    HW2  102   2.000   3.029   0.885 -0.1967  1.8581 -1.6644
   35SOL     OW  103   2.412   0.343   0.874 -0.1098  0.6386  0.1520
   35SOL    HW1  104   2.387   0.269   0.812  0.3335  1.9880  3.3547
   35SOL    HW2  105   2.454   0.420   0.826  1.6079 -1.8380  2.8296
   36SOL     OW  106   2.147   2.603   2.140  0.2658  0.3807  0.0289
   36SOL    HW1  107   2.159   2.502   2.145 -2.0822 -3.7674 -2.1828
   36SOL    HW2  108   2.051   2.627   2.106 -2.5595 -2.4841 -1.8712
   37SOL     OW  109   1.000   2.544   2.094 -0.3810  0.1638  0.1898
   37SOL    HW1  110   1.063   2.528   2.013  2.2239 -2.2055  2.8864
   37SOL    HW2  111   1.031   2.477   2.161 -2.0840  3.6377  0.3289
   38SOL     OW  112   2.637   0.400   2.770  0.4280 -0.5415  0.0861
   38SOL    HW1  113   2.706   0.342   2.807 -2.6135  0.9641 -0.5249
   38SOL    HW2  114   2.624   0.480   2.831  2.8486 -2.8531 -0.0288
   39SOL     OW  115   2.199   1.606   1.825  0.1587  0.0389  0.2605
   39SOL    HW1  116   2.127   1.629   1.893  0.6576 -0.4254 -0.5927
   39SOL    HW2  117   2.259   1.690   1.811  0.6110 -0.0839  0.2570
   40SOL     OW  118   0.242   3.010   2.727 -0.3668  0.4511  0.2352
   40SOL    HW1  119   0.150   2.978   2.690  0.4630  1.3119 -1.2136
   40SOL    HW2  120   0.311   2.970   2.664  0.4702  1.3183 -0.2689
   41SOL     OW  121   1.881   0.511   1.009  0.4958  0.7960  0.2829
   41SOL    HW1  122   1.918   0.584   1.068  1.1513  1.4892 -0.2756
   41SOL    HW2  123   1.877   0.544   0.911  1.3326  1.7144 -0.1347
   42SOL     OW  124   0.649   0.348   1.297  0.0769 -0.4202  0.5221
   42SOL    HW1  125   0.686   0.387   1.384 -0.2019  0.4576  0.3213
   42SOL    HW2  126   0.592   0.262   1.313 -1.5441 -1.6992 -0.2253
   43SOL     OW  127   2.473   1.013   2.213  0.4623 -0.0411 -0.1341
   43SOL    HW1  128   2.433   1.039   2.125  0.1245 -0.4913 -1.3032
   43SOL    HW2  129   2.551   0.945   2.198  2.1798 -1.8405  0.3720
   44SOL     OW  130   2.842   2.844   0.446  0.1331  0.2117 -0.1709
   44SOL    HW1  131   2.799   2.936   0.438  1.1160 -0.0785  0.2724
   44SOL    HW2  132   2.936   2.850   0.485  2.8327 -1.6881 -2.6955
   45SOL     OW  133   2.972   2.697   1.900  0.5302 -0.2732  0.8148
   45SOL    HW1  134   2.931   2.649   1.820 -0.3220  2.1200 -0.9227
   45SOL    HW2  135   2.978   2.795   1.873 -1.7930  1.7786  2.0732
   46SOL     OW  136   2.209   2.261   1.914  0.5328  0.3284 -0.4358
   46SOL    HW1  137   2.152   2.226   1.835 -3.3269  0.4227 -0.1164
   46SOL    HW2  138   2.300   2.293   1.889 -3.2231 -3.0931 -1.9124
   47SOL     OW  139   1.714   2.301   1.213 -0.4200  0.4952  0.6042
   47SOL    HW1  140   1.641   2.286   1.143 -2.7071 -1.0093  0.0571
   47SOL    HW2  141   1.781   2.226   1.218  1.8710  0.2163  0.7882
   48SOL     OW  142   0.559   1.765   0.463 -0.2591  0.7948  0.4479
   48SOL    HW1  143   0.609   1.834   0.411 -0.4889 -0.6037  1.3933
   48SOL    HW2  144   0.616   1.706   0.528 -3.1047 -2.0706  0.8479
   49SOL     OW  145   2.687   0.387   2.517 -0.0769  0.2218  0.3591
   49SOL    HW1  146   2.673   0.402   2.620 -2.9888 -0.5267  3.6250
   49SOL    HW2  147   2.599   0.402   2.466 -0.5447 -0.2642 -0.6610
   50SOL     OW  148   2.242   0.789   0.370 -0.4723 -0.6115 -0.0783
   50SOL    HW1  149   2.316   0.732   0.422  5.1189 -1.8515  2.1677
   50SOL    HW2  150   2.231   0.754   0.273  0.4090  0.2309  0.9843
   51SOL     OW  151   1.631   0.478   1.108 -0.6120 -0.1000  0.0175
   51SOL    HW1  152   1.623   0.380   1.126  1.6806 -1.4883  0.8708
   51SOL    HW2  153   1.718   0.488   1.057  0.2316 -2.6054  0.8532
   52SOL     OW  154   1.019   1.292   2.950 -0.2697 -0.5327  0.3112
   52SOL    HW1  155   0.980   1.336   3.030  1.3644 -0.6783 -1.0018
   52SOL    HW2  156   1.110   1.259   2.977 -3.2157 -0.8662 -1.5955
   53SOL     OW  157   0.675   1.474   2.356 -0.0013  0.1530  0.1605
   53SOL    HW1  158   0.644   1.538   2.427 -0.3026  2.3184 -2.5853
   53SOL    HW2  159   0.638   1.497   2.263  1.5376 -0.8695 -1.9913
   54SOL     OW  160   1.918   0.255   1.023 -0.6497  0.0204 -0.0832
   54SOL    HW1  161   1.845   0.198   1.067 -1.4627  0.1061  0.1751
   54SOL    HW2  162   1.907   0.355   1.031  2.6007  2.3296  0.8069
   55SOL     OW  163   2.529   2.880   0.736  0.0366  0.3811  0.1187
   55SOL    HW1  164   2.558   2.789   0.700  1.0815 -1.3838 -0.2237
   55SOL    HW2  165   2.490   2.934   0.661  0.7824  0.6212  0.8158
   56SOL     OW  166   0.677   2.840   1.624 -0.6964  0.5163  0.2916
   56SOL    HW1  167   0.760   2.855   1.559  1.6029 -0.2742 -1.3846
   56SOL    HW2  168   0.709   2.802   1.716  1.7576 -0.0147 -1.0418
   57SOL     OW  169   1.592   1.212   0.400 -0.6403  0.5388 -0.2296
   57SOL    HW1  170   1.530   1.161   0.466  1.9411  0.7075  1.8697
   57SOL    HW2  171   1.570   1.315   0.398 -1.6942  1.1681 -2.5149
   58SOL     OW  172   0.112   0.699   2.432 -0.7685  0.2170 -0.4629
   58SOL    HW1  173   0.083   0.789   2.393  2.9492  1.8017 -0.4714
   58SOL    HW2  174   0.058   0.680   2.514  0.3890 -1.9203 -0.2463
   59SOL     OW  175   0.979   2.694   2.470 -0.1364  0.4517  0.1871
   59SOL    HW1  176   1.049   2.626   2.496 -0.3473  2.5847 -0.7520
   59SOL    HW2  177   0.897   2.680   2.530 -0.0792 -2.0802  0.6561
   60SOL     OW  178   2.247   2.803   0.786  0.4031  0.0891 -0.0906
   60SOL    HW1  179   2.305   2.883   0.764 -0.3445  0.8045 -2.6368
   60SOL    HW2  180   2.206   2.812   0.879 -1.1577  2.3876  2.4534
   61SOL     OW  181   1.011   2.267   0.680 -0.6578 -0.8175 -0.6786
   61SOL    HW1  182   0.969   2.324   0.600  2.3320 -1.4197 -1.6890
   61SOL    HW2  183   1.016   2.328   0.764 -0.0182  1.8018  0.7783
   62SOL     OW  184   2.155   2.098   2.565 -0.1241 -0.9094  0.5530
   62SOL    HW1  185   2.177   2.009   2.520 -0.4369 -1.0695  2.0721
   62SOL    HW2  186   2.235   2.125   2.626  2.3645  0.4080  0.2744
   63SOL     OW  187   2.121   0.893   2.705  0.6358 -0.5675  0.0999
   63SOL    HW1  188   2.105   0.791   2.696  0.5259 -2.0753  2.7551
   63SOL    HW2  189   2.051   0.944   2.647 -2.7576 -4.9435  0.1500
   64SOL     OW  190   1.034   0.644   2.872 -0.0968  0.3938 -1.1137
   64SOL    HW1  191   1.120   0.609   2.837 -0.7654  1.1884  2.9984
   64SOL    HW2  192   1.048   0.676   2.970 -0.1817  0.9313  1.7591
   65SOL     OW  193   0.967   2.009   0.410  0.0275  0.4630  0.1374
   65SOL    HW1  194   1.039   2.039   0.479  3.2721  0.7840  1.9985
   65SOL    HW2  195   1.009   1.990   0.318  0.8150  0.2930 -0.3984
   66SOL     OW  196   0.416   1.269   1.856  0.2040  0.1006 -0.3115
   66SOL    HW1  197   0.364   1.330   1.921  2.5315 -0.4649  0.9982
   66SOL    HW2  198   0.507   1.237   1.889  3.5619 -0.5984  0.4234
   67SOL     OW  199   2.253   2.719   2.379  0.2181 -0.0301  0.4200
   67SOL    HW1  200   2.188   2.801   2.384  0.4664  0.3898  0.9991
   67SOL    HW2  201   2.235   2.675   2.290 -0.2776 -1.0852  3.4156
   68SOL     OW  202   0.531   1.736   1.338 -0.7703 -0.1419  0.0262
   68SOL    HW1  203   0.491   1.647   1.352 -0.3450  4.6389 -1.5579
   68SOL    HW2  204   0.619   1.738   1.385  1.1811 -0.8433 -0.9148
   69SOL     OW  205   1.074   2.345   0.091 -0.5154 -0.4716 -0.1854
   69SOL    HW1  206   1.034   2.394   0.173 -0.1711  1.3928  1.1183
   69SOL    HW2  207   1.176   2.348   0.088  0.1200 -2.2953 -0.6302
   70SOL     OW  208   3.022   1.144   2.994  0.4711 -0.4104  0.2781
   70SOL    HW1  209   0.063   1.173   0.002  0.4666 -1.8580 -0.4940
   70SOL    HW2  210   3.021   1.178   2.899  1.3687 -1.0378 -0.0214
   71SOL     OW  211   2.881   1.443   2.902 -0.1440 -0.2846  0.1180
   71SOL    HW1  212   2.972   1.461   2.854 -0.5898 -2.0565 -5.9482
   71SOL    HW2  213   2.818   1.523   2.886 -1.1210 -3.5956  0.1838
   72SOL     OW  214   2.770   2.180   0.256  0.0626 -0.1909 -0.1499
   72SOL    HW1  215   2.749   2.124   0.339 -2.2760 -0.9319 -0.1403
   72SOL    HW2  216   2.868   2.174   0.218  1.4789 -0.6103 -0.3032
   73SOL     OW  217   0.852   1.491   0.126 -0.0314 -0.3368  0.3582
   73SOL    HW1  218   0.914   1.429   0.177 -0.0396 -0.3449  2.1710
   73SOL    HW2  219   0.902   1.582   0.104  3.0843 -0.7121 -1.3105
   74SOL     OW  220   0.013   0.903   0.063  0.0508 -0.0693 -0.8780
   74SOL    HW1  221   0.004   1.005   0.043  0.9158  2.1091  2.6180
   74SOL    HW2  222   0.016   0.851   3.018 -2.4625  0.6747  4.1765
   75SOL     OW  223   2.046   1.390   1.718 -0.4779 -0.1606 -0.8606
   75SOL    HW1  224   2.135   1.447   1.722  1.1281  3.0928 -0.5168
   75SOL    HW2  225   1.961   1.441   1.746  1.1753 -1.8701  0.1497
   76SOL     OW  226   2.070   2.352   1.624 -0.2184 -0.5285  0.0930
   76SOL    HW1  227   2.047   2.260   1.653 -1.0091 -0.0761 -0.2247
   76SOL    HW2  228   2.022   2.373   1.534  1.1077  1.6928 -2.9780
   77SOL     OW  229   2.530   0.531   1.206  0.6013  0.1288  0.7235
   77SOL    HW1  230   2.606   0.534   1.278  1.8898 -2.5087 -1.2659
   77SOL    HW2  231   2.494   0.437   1.195  0.7129  0.2103  1.4606
   78SOL     OW  232   1.717   1.038   0.105 -0.8362  0.4786  0.4783
   78SOL    HW1  233   1.729   1.124   0.051  0.5175  0.8898 -1.0888
   78SOL    HW2  234   1.754   1.053   0.200 -0.8807 -1.5835 -2.2636
   79SOL     OW  235   0.432   1.747   1.712  0.0528  0.4017 -0.3558
   79SOL    HW1  236   0.534   1.760   1.711  0.8914  0.0832 -1.8603
   79SOL    HW2  237   0.391   1.787   1.627  3.0600  0.8556 -0.4358
   80SOL     OW  238   1.586   1.213   1.438 -0.0004 -0.5302 -0.1307
   80SOL    HW1  239   1.595   1.122   1.484 -1.4449 -1.3212 -0.7121
   80SOL    HW2  240   1.489   1.225   1.405 -1.8619  2.4909  0.9936
   81SOL     OW  241   0.667   3.029   1.026 -0.7155 -0.6612  0.1593
   81SOL    HW1  242   0.635   3.008   0.932  0.7068  1.3797  0.4828
   81SOL    HW2  243   0.672   0.094   1.040  0.0654  3.3555  0.4426
   82SOL     OW  244   1.789   2.695   1.648 -0.0917  0.0371 -0.4249
   82SOL    HW1  245   1.784   2.725   1.552  0.2371 -1.4888  1.1489
   82SOL    HW2  246   1.758   2.603   1.662 -1.2524  1.7474 -1.0220
   83SOL     OW  247   0.750   2.579   1.201 -0.0927  0.1254 -0.6455
   83SOL    HW1  248   0.650   2.592   1.197  0.8088  0.8928 -1.1643
   83SOL    HW2  249   0.763   2.477   1.192 -1.4320 -0.4297  1.7922
   84SOL     OW  250   0.401   1.125   2.663 -0.0808  0.5010 -0.0208
   84SOL    HW1  251   0.364   1.221   2.664  0.1507 -1.0624  1.8885
   84SOL    HW2  252   0.414   1.094   2.565  0.4270 -2.1068  0.4972
   85SOL     OW  253   0.009   2.392   1.263  0.5110  1.1154 -0.0208
   85SOL    HW1  254   0.015   2.440   1.351 -0.5950  0.8952 -1.6843
   85SOL    HW2  255   0.096   2.402   1.211 -0.5564  1.5716  1.3513
   86SOL     OW  256   2.675   2.273   1.407 -0.2581 -0.4084  0.1704
   86SOL    HW1  257   2.668   2.363   1.355  0.0871 -0.4379 -1.0852
   86SOL    HW2  258   2.615   2.204   1.368  0.3779  1.0118 -1.3740
   87SOL     OW  259   2.600   2.109   2.882  0.0996 -0.2505  0.2113
   87SOL    HW1  260   2.587   2.209   2.864 -0.5436  3.0532  0.1028
   87SOL    HW2  261   2.564   2.089   2.973  0.6931 -0.0324 -0.7017
   88SOL     OW  262   0.355   1.806   1.126  0.5426 -0.0844 -0.3948
   88SOL    HW1  263   0.290   1.866   1.174 -0.7962 -0.7369 -4.0687
   88SOL    HW2  264   0.432   1.784   1.191 -0.7288 -0.2482 -1.9604
   89SOL     OW  265   1.046   0.098   1.706  0.0243  0.1452  0.2736
   89SOL    HW1  266   1.122   0.140   1.655 -0.8613 -1.9843 -1.0424
   89SOL    HW2  267   1.065   0.096   1.807 -1.5268 -2.1613  2.4704
   90SOL     OW  268   2.937   1.843   1.522 -0.4954 -0.6045 -0.0035
   90SOL    HW1  269   2.845   1.834   1.476 -0.6657  0.2267  0.8601
   90SOL    HW2  270   2.958   1.939   1.539  0.2850 -2.7093 -0.0440
   91SOL     OW  271   1.115   1.610   0.723 -1.0804  0.0468 -0.3533
   91SOL    HW1  272   1.065   1.594   0.637  0.1623 -0.6849 -0.2083
   91SOL    HW2  273   1.135   1.712   0.735 -2.0614  1.3606 -1.8196
   92SOL     OW  274   2.263   0.034   1.174 -0.5022 -0.5126  0.5322
   92SOL    HW1  275   2.189   0.069   1.232  1.0465 -0.8154  2.3144
   92SOL    HW2  276   2.336   0.108   1.162 -1.3044  3.6571 -0.3527
   93SOL     OW  277   2.655   1.295   2.930 -0.0208  0.8658  0.7485
   93SOL    HW1  278   2.675   1.200   2.957 -1.9489  2.6666 -0.3413
   93SOL    HW2  279   2.740   1.348   2.914  0.4931 -0.8140  1.0276
   94SOL     OW  280   2.634   2.459   2.517 -0.0595 -0.2354 -0.0697
   94SOL    HW1  281   2.600   2.365   2.503  1.6582  0.9733  1.9118
   94SOL    HW2  282   2.557   2.523   2.539  0.7759  2.3766 -1.2319
   95SOL     OW  283   1.592   0.263   1.468  0.2428 -0.4192  0.4594
   95SOL    HW1  284   1.678   0.323   1.452  1.4105 -0.9559 -2.4844
   95SOL    HW2  285   1.615   0.180   1.521  2.4329  2.0841 -1.6760
   96SOL     OW  286   2.817   0.169   1.678 -0.1298  0.0152  0.5239
   96SOL    HW1  287   2.796   0.092   1.609 -0.7833 -0.8520 -2.7482
   96SOL    HW2  288   2.849   0.136   1.768 -1.3194 -0.9577  0.5604
   97SOL     OW  289   2.319   0.176   1.587  0.2253 -0.6477  0.1510
   97SOL    HW1  290   2.377   0.218   1.513  0.0977  1.3837 -0.4861
   97SOL    HW2  291   2.258   0.249   1.616 -1.1773 -1.4270  1.0528
   98SOL     OW  292   1.318   2.253   1.342 -0.9867  0.1103 -0.0723
   98SOL    HW1  293   1.401   2.311   1.340 -0.9052 -2.6245 -0.8702
   98SOL    HW2  294   1.286   2.209   1.256  0.1806  2.0474  0.3596
   99SOL     OW  295   0.064   2.921   1.816  0.4681 -0.4062  0.1652
   99SOL    HW1  296   0.159   2.901   1.847 -1.1560  3.5378 -0.1580
   99SOL    HW2  297   0.029   3.000   1.875  0.6550  4.3044  0.3766
  100SOL     OW  298   0.083   1.192   2.243 -0.4502 -0.4224  0.0829
  100SOL    HW1  299   0.103   1.157   2.149  0.1787 -1.0296 -0.5030
  100SOL    HW2  300   0.154   1.261   2.275 -1.4467  0.9586 -1.1759
  101SOL     OW  301   2.020   0.714   0.505 -0.1344 -0.4825 -0.1753
  101SOL    HW1  302   2.107   0.737   0.460  0.1190 -2.3575 -1.4884
  101SOL    HW2  303   1.947   0.776   0.468 -0.0233 -0.0831 -1.5906
  102SOL     OW  304   0.311   0.596   1.054  0.3506  0.1818 -0.3638
  102SOL    HW1  305   0.294   0.541   0.968  1.7040 -3.6273 -0.5324
  102SOL    HW2  306   0.282   0.693   1.057 -1.2404  0.2675  2.5830
  103SOL     OW  307   2.493   0.675   2.551  0.3013 -0.5589  0.0605
  103SOL    HW1  308   2.504   0.701   2.648 -0.0469  0.4138 -0.9465
  103SOL    HW2  309   2.460   0.758   2.502  0.8418  0.3881 -1.8195
  104SOL     OW  310   0.326   0.351   2.483 -0.2269  0.2458  0.5545
  104SOL    HW1  311   0.365   0.254   2.481  0.8959 -1.3714 -2.2590
  104SOL    HW2  312   0.323   0.381   2.577  0.8474 -0.7263 -1.8558
  105SOL     OW  313   2.020   0.887   1.614 -0.1532 -0.4087  0.4899
  105SOL    HW1  314   2.040   0.881   1.515  2.6394 -0.8874  0.6383
  105SOL    HW2  315   1.984   0.978   1.649 -1.0141  0.9391 -1.7811
  106SOL     OW  316   1.031   2.730   0.531  0.3677  0.0524 -0.0388
  106SOL    HW1  317   0.992   2.805   0.586 -1.1191 -0.3551 -0.9042
  106SOL    HW2  318   1.099   2.674   0.582  1.2883  0.0044  0.4815
  107SOL     OW  319   0.355   1.877   1.496 -0.1710  0.0342  0.3507
  107SOL    HW1  320   0.269   1.833   1.476  2.6522 -0.1233  2.8579
  107SOL    HW2  321   0.426   1.839   1.441 -3.2301  0.7761  1.3493
  108SOL     OW  322   0.307   3.019   2.343 -0.5504 -0.0219  0.2245
  108SOL    HW1  323   0.327   2.949   2.417 -2.0367  0.0174 -0.3529
  108SOL    HW2  324   0.391   0.040   2.333  1.1612 -0.1300  0.7082
  109SOL     OW  325   2.133   3.029   0.364 -0.0673  0.6835 -0.6407
  109SOL    HW1  326   2.176   3.037   0.271 -1.2413 -1.2929  0.5724
  109SOL    HW2  327   2.090   0.078   0.383 -2.7523 -0.7585 -0.5948
  110SOL     OW  328   0.221   2.227   2.278 -0.4369 -0.4496 -0.1086
  110SOL    HW1  329   0.261   2.298   2.218  1.5753 -1.1474  1.3320
  110SOL    HW2  330   0.261   2.238   2.375  2.2433  1.0898  1.7035
  111SOL     OW  331   1.747   2.807   2.183 -0.1709  0.2230 -0.1635
  111SOL    HW1  332   1.648   2.821   2.166 -0.4749  3.2284 -1.0262
  111SOL    HW2  333   1.797   2.897   2.200  0.5245  3.2937  0.9004
  112SOL     OW  334   1.906   2.142   2.718 -0.1351  0.0814  0.5141
  112SOL    HW1  335   1.834   2.139   2.643 -0.6421 -1.1141 -1.3875
  112SOL    HW2  336   2.003   2.133   2.677  4.8325 -2.1632  0.4537
  113SOL     OW  337   2.461   2.390   1.828  0.3571  0.3454 -0.1922
  113SOL    HW1  338   2.539   2.425   1.884  0.2421  1.3352 -0.5590
  113SOL    HW2  339   2.499   2.346   1.742  0.6989 -0.2584  2.7625
  114SOL     OW  340   2.474   0.919   0.896  0.3372  0.2925 -0.2049
  114SOL    HW1  341   2.564   0.885   0.851 -0.9634 -1.5410 -1.1162
  114SOL    HW2  342   2.455   1.006   0.844 -0.0428  2.3502 -0.5284
  115SOL     OW  343   0.092   1.508   2.765  0.5107 -0.3113 -0.3665
  115SOL    HW1  344   0.125   1.539   2.859  3.0819 -1.1019  1.0786
  115SOL    HW2  345   0.094   1.580   2.702 -1.3598 -1.3294  1.4283
  116SOL     OW  346   0.268   1.445   2.009 -0.0191 -0.1911 -0.1835
  116SOL    HW1  347   0.260   1.527   1.952 -3.1779 -0.1059 -0.7281
  116SOL    HW2  348   0.176   1.404   2.032 -0.6297  0.9156  0.3421
  117SOL     OW  349   2.724   0.400   0.788  0.0620  0.1214 -0.4049
  117SOL    HW1  350   2.736   0.438   0.886 -0.1177  0.7758  1.3415
  117SOL    HW2  351   2.669   0.313   0.789 -0.0867 -2.2477 -1.5326
  118SOL     OW  352   0.940   2.066   1.780 -0.9163 -0.0505 -0.2334
  118SOL    HW1  353   0.904   2.103   1.691 -2.2967  0.4165 -0.8082
  118SOL    HW2  354   1.013   2.122   1.818 -3.2771 -1.9666 -0.9830
  119SOL     OW  355   1.257   1.957   3.006  0.9917  0.3375  0.4972
  119SOL    HW1  356   1.258   1.903   2.919 -3.3727 -2.4200 -0.9516
  119SOL    HW2  357   1.169   2.011   3.007 -0.3777  0.0966  1.0377
  120SOL     OW  358   0.285   1.367   2.315 -0.4101 -0.2478  0.1225
  120SOL    HW1  359   0.297   1.462   2.286  3.2104 -2.3325 -2.2538
  120SOL    HW2  360   0.340   1.308   2.257 -1.0113 -1.6704  3.7384
  121SOL     OW  361   1.927   2.560   0.973  0.3008 -0.1187 -0.0454
  121SOL    HW1  362   1.978   2.565   0.886 -1.2219  1.7565  1.1820
  121SOL    HW2  363   1.829   2.589   0.955  0.3008 -0.9563 -2.4308
  122SOL     OW  364   2.130   1.984   2.009  0.3841 -0.3968 -0.3608
  122SOL    HW1  365   2.221   1.938   2.021 -1.1135 -0.1136  0.5824
  122SOL    HW2  366   2.140   2.081   1.977  0.5773  0.6048 -1.9142
  123SOL     OW  367   2.955   0.131   0.828 -0.1107  0.1088  0.0472
  123SOL    HW1  368   2.932   0.181   0.742  2.6426  0.6744 -0.2663
  123SOL    HW2  369   2.983   0.039   0.795  0.5376  1.7649 -0.8600
  124SOL     OW  370   1.851   0.472   2.419  0.7927 -0.2856 -0.1269
  124SOL    HW1  371   1.813   0.570   2.417 -1.1419  2.2057 -0.0498
  124SOL    HW2  372   1.850   0.426   2.329 -2.1010 -0.0000  3.5911
  125SOL     OW  373   0.526   1.462   0.554  0.2347 -0.2339 -0.0673
  125SOL    HW1  374   0.598   1.529   0.584 -1.6297 -0.1858  2.1298
  125SOL    HW2  375   0.556   1.418   0.467  0.0823  0.5958 -1.4855
  126SOL     OW  376   2.496   1.733   0.559 -0.3465 -0.1805 -0.4865
  126SOL    HW1  377   2.541   1.753   0.469 -1.4516 -2.0219  2.8391
  126SOL    HW2  378   2.525   1.798   0.633 -1.1375  0.1882  2.7238
  127SOL     OW  379   0.125   1.747   1.415 -0.4000 -0.3900 -0.3013
  127SOL    HW1  380   0.037   1.771   1.463 -4.2779  0.2048  0.5063
  127SOL    HW2  381   0.111   1.773   1.315  0.8351  0.7318 -1.7268
  128SOL     OW  382   0.819   0.466   2.801  0.2530 -0.0213 -0.7428
  128SOL    HW1  383   0.885   0.537   2.841 -1.8943  0.5098  1.1303
  128SOL    HW2  384   0.760   0.434   2.879 -3.6365 -2.1506  0.3457
  129SOL     OW  385   1.992   1.605   0.966  0.0617 -0.5184  0.7521
  129SOL    HW1  386   2.003   1.565   1.056  1.7456  0.9814 -3.9068
  129SOL    HW2  387   1.900   1.599   0.922 -0.0443 -0.3681  1.3712
  130SOL     OW  388   2.162   1.566   1.380 -0.2825  0.4848  0.2991
  130SOL    HW1  389   2.105   1.512   1.311  0.6112 -2.3080 -1.5953
  130SOL    HW2  390   2.232   1.506   1.423  0.1698  1.2147 -0.5847
  131SOL     OW  391   2.767   1.030   2.952 -0.0971 -0.1666  0.0241
  131SOL    HW1  392   2.852   1.076   2.992 -1.6802 -0.2936  2.1490
  131SOL    HW2  393   2.788   0.943   2.913  0.8365  2.3544 -0.3340
  132SOL     OW  394   2.560   2.221   1.647 -0.7545 -0.3598 -0.1023
  132SOL    HW1  395   2.621   2.244   1.569  0.1457 -0.0350 -0.0809
  132SOL    HW2  396   2.603   2.149   1.704 -0.7772  0.7947 -1.8777
  133SOL     OW  397   0.688   0.968   0.982 -0.6416  0.3438  0.3708
  133SOL    HW1  398   0.776   0.995   0.932  5.1169  0.1079  0.6757
  133SOL    HW2  399   0.704   0.867   1.005 -0.3448 -2.4482 -1.3027
  134SOL     OW  400   0.224   0.888   0.226 -0.1283  0.4512 -0.0710
  134SOL    HW1  401   0.196   0.838   0.314 -0.0321 -0.3414  0.7925
  134SOL    HW2  402   0.152   0.881   0.156  1.6004 -1.1931 -1.0529
  135SOL     OW  403   1.986   1.436   1.191  0.4535  0.3778  0.4418
  135SOL    HW1  404   1.997   1.340   1.219  0.7561  2.2108 -0.0524
  135SOL    HW2  405   1.886   1.455   1.173  1.4642  0.8992  3.6442
  136SOL     OW  406   2.119   0.999   0.707  0.1644  0.5212 -0.6570
  136SOL    HW1  407   2.156   0.908   0.734  0.3212  0.2352  0.8085
  136SOL    HW2  408   2.103   1.010   0.608  0.6824 -1.7139 -0.3318
  137SOL     OW  409   2.526   1.903   0.786  0.5025  0.1685  0.0908
  137SOL    HW1  410   2.454   1.844   0.830 -1.5366 -0.0372 -1.4819
  137SOL    HW2  411   2.612   1.888   0.840  0.7048 -0.9851 -0.8517
  138SOL     OW  412   1.700   0.730   2.017  0.1958 -0.8134 -0.4010
  138SOL    HW1  413   1.620   0.664   2.026 -0.8402  1.4001 -3.0570
  138SOL    HW2  414   1.751   0.727   1.932  1.1278 -2.0928  1.3842
  139SOL     OW  415   2.274   2.959   2.898  0.0928 -0.6694 -0.3837
  139SOL    HW1  416   2.354   2.896   2.900 -2.4339 -1.9038 -0.0101
  139SOL    HW2  417   2.256   2.979   2.801  0.8876  0.2869  0.1599
  140SOL     OW  418   1.520   2.089   2.193 -0.1305  0.8429 -0.4534
  140SOL    HW1  419   1.556   2.149   2.270  1.0454 -0.8235  1.3850
  140SOL    HW2  420   1.528   1.988   2.213  1.6050  0.2329 -0.3879
  141SOL     OW  421   1.717   1.665   1.342  0.0267  0.4600 -0.2369
  141SOL    HW1  422   1.806   1.655   1.388  2.1632 -1.8373  1.9220
  141SOL    HW2  423   1.644   1.656   1.417  0.3670 -2.2289  0.6215
  142SOL     OW  424   2.888   0.233   0.017  0.4723  0.4687  0.4410
  142SOL    HW1  425   2.867   0.136   0.039  3.6050 -0.5087  0.2981
  142SOL    HW2  426   2.920   0.247   2.963  3.6636  0.3419  1.4221
  143SOL     OW  427   0.202   2.179   2.773 -0.1166  0.1156 -0.0444
  143SOL    HW1  428   0.270   2.144   2.842  0.0571 -1.1200 -1.6946
  143SOL    HW2  429   0.249   2.223   2.690  1.9343 -0.3640 -2.1231
  144SOL     OW  430   0.780   2.700   1.835  0.0932 -0.1696 -0.2764
  144SOL    HW1  431   0.781   2.614   1.881 -1.5188  1.3172 -0.1948
  144SOL    HW2  432   0.867   2.724   1.787  2.5173  0.1006  0.3855
  145SOL     OW  433   1.981   1.310   0.318  0.5030 -0.0903 -0.5240
  145SOL    HW1  434   2.001   1.342   0.414 -0.3848 -0.4297  2.1950
  145SOL    HW2  435   2.049   1.334   0.249 -2.0198 -1.0234  0.3857
  146SOL     OW  436   2.690   2.760   2.812 -0.1602 -0.3717  0.1626
  146SOL    HW1  437   2.660   2.811   2.734  1.2759 -0.3877  3.5849
  146SOL    HW2  438   2.787   2.786   2.828  0.5283 -0.9151  0.8416
  147SOL     OW  439   2.852   2.423   1.067  0.0645 -0.1007 -0.4065
  147SOL    HW1  440   2.906   2.395   1.150 -2.5254  0.1959  1.6311
  147SOL    HW2  441   2.752   2.408   1.083  2.9126 -0.7832  0.5082
  148SOL     OW  442   1.797   2.964   2.931 -0.1573 -0.4589 -0.1415
  148SOL    HW1  443   1.811   2.976   3.030 -3.0959  2.0836 -2.0165
  148SOL    HW2  444   1.870   2.903   2.891 -0.4960 -1.0221 -0.4448
  149SOL     OW  445   1.140   0.400   2.602 -0.2482 -0.1417  0.1377
  149SOL    HW1  446   1.190   0.462   2.671 -0.1112 -1.4864  1.3275
  149SOL    HW2  447   1.055   0.352   2.641 -2.2217 -0.9650  0.3481
  150SOL     OW  448   0.814   2.439   0.529 -0.2745 -0.2303 -0.1490
  150SOL    HW1  449   0.727   2.421   0.474 -0.2127  0.9098 -0.0184
  150SOL    HW2  450   0.808   2.519   0.593  1.6202 -1.3415 -0.6014
  151SOL     OW  451   2.907   1.667   0.241  0.4467 -0.5543  0.0074
  151SOL    HW1  452   2.897   1.572   0.200  0.5643 -2.4562 -1.4412
  151SOL    HW2  453   2.993   1.714   0.216 -1.7022 -0.1490  0.5631
  152SOL     OW  454   0.163   1.323   0.849 -0.5732  0.3649  0.7199
  152SOL    HW1  455   0.261   1.325   0.817 -2.0380 -0.1923  1.3680
  152SOL    HW2  456   0.108   1.405   0.816 -0.9831 -2.0756  1.6169
  153SOL     OW  457   2.386   2.706   0.379 -1.0056  0.3221 -0.3754
  153SOL    HW1  458   2.407   2.616   0.420 -2.1856  0.9398 -0.0674
  153SOL    HW2  459   2.287   2.728   0.373 -1.3260  1.3274  0.9772
  154SOL     OW  460   0.874   0.574   1.505  0.0396  0.2986 -0.5908
  154SOL    HW1  461   0.776   0.550   1.526 -1.9463 -0.6454  0.7894
  154SOL    HW2  462   0.929   0.596   1.590 -0.0742  1.2096 -0.8597
  155SOL     OW  463   3.028   1.825   1.205  0.3736 -0.4358  0.1951
  155SOL    HW1  464   2.944   1.762   1.209 -0.4574  0.4867 -1.6372
  155SOL    HW2  465   2.997   1.916   1.241 -1.7492  2.2995  2.6051
  156SOL     OW  466   2.174   2.039   2.885 -0.2094  0.1136 -0.1028
  156SOL    HW1  467   2.182   1.984   2.975 -2.1669  2.1817 -0.0847
  156SOL    HW2  468   2.163   2.135   2.901  2.3041 -2.9412 -2.4327
  157SOL     OW  469   0.840   2.682   0.962  0.5301  0.2304  0.2076
  157SOL    HW1  470   0.830   2.623   1.047  0.7704 -0.8794 -0.7575
  157SOL    HW2  471   0.887   2.772   0.986  2.7954  4.3555 -0.8460
  158SOL     OW  472   2.449   0.457   2.412  0.2531 -0.3462 -0.1542
  158SOL    HW1  473   2.351   0.426   2.410  0.2450  1.7104  0.2648
  158SOL    HW2  474   2.455   0.546   2.463  0.5530  0.0477  0.5871
  159SOL     OW  475   0.825   0.175   3.030 -0.2501 -0.2992  0.1854
  159SOL    HW1  476   0.897   0.248   0.006 -2.7965  1.0120 -1.3689
  159SOL    HW2  477   0.755   0.198   2.961  1.0507  0.3734  4.2260
  160SOL     OW  478   0.788   1.981   2.890 -0.0911  0.1218 -0.1574
  160SOL    HW1  479   0.701   2.027   2.860 -1.7385  1.9503 -0.5565
  160SOL    HW2  480   0.836   1.952   2.807 -0.5688  0.3715 -2.5351
  161SOL     OW  481   3.020   2.095   2.970 -0.4928  0.0563  0.7562
  161SOL    HW1  482   0.083   2.094   2.959  2.9664  0.4967 -0.3627
  161SOL    HW2  483   2.979   2.186   2.942 -0.5727  0.6640 -0.1108
  162SOL     OW  484   0.482   2.615   1.141  0.2462  0.1042  0.1493
  162SOL    HW1  485   0.482   2.538   1.073  2.6116 -2.1791 -0.3125
  162SOL    HW2  486   0.386   2.644   1.156 -0.4384 -0.0635  1.4768
  163SOL     OW  487   2.534   0.778   2.822 -0.1053 -0.0624  0.0056
  163SOL    HW1  488   2.462   0.848   2.826  3.3355 -2.5732  0.4428
  163SOL    HW2  489   2.503   0.698   2.878 -1.3585  1.5659 -1.3769
  164SOL     OW  490   2.936   2.280   0.845 -0.1561  0.1111  0.1108
  164SOL    HW1  491   2.939   2.178   0.840  0.7468 -2.4700 -2.2720
  164SOL    HW2  492   2.921   2.319   0.937  0.4478  0.1219 -0.0466
  165SOL     OW  493   2.781   0.288   1.426 -0.4601 -0.5038  0.6307
  165SOL    HW1  494   2.797   0.395   1.427  0.1235 -1.7154  0.9590
  165SOL    HW2  495   2.825   0.239   1.508  0.1439 -1.5984 -0.5384
  166SOL     OW  496   2.130   0.222   0.554  0.1427 -0.0447 -0.1890
  166SOL    HW1  497   2.165   0.299   0.498 -1.6950 -1.3936  1.3023
  166SOL    HW2  498   2.126   0.254   0.652 -1.6488 -1.7357  0.5424
  167SOL     OW  499   0.383   0.133   1.136  0.1598  0.3213  0.5761
  167SOL    HW1  500   0.428   0.142   1.227  0.4520  0.5759  0.7218
  167SOL    HW2  501   0.416   0.196   1.066  1.0429  0.7573 -0.0390
  168SOL     OW  502   2.488   2.874   2.322  0.5271 -0.2054 -0.0981
  168SOL    HW1  503   2.554   2.801   2.325 -3.2808  1.4451  1.0255
  168SOL    HW2  504   2.400   2.841   2.285 -1.2398  1.9034 -0.2265
  169SOL     OW  505   0.012   1.532   0.713  0.0309  0.1191 -0.2508
  169SOL    HW1  506   0.065   1.492   0.634 -0.9441 -1.7380  1.3982
  169SOL    HW2  507   0.065   1.613   0.754  2.0622  0.5665 -1.6470
  170SOL     OW  508   2.478   1.004   1.241 -0.3622 -0.2537  0.1034
  170SOL    HW1  509   2.435   0.912   1.223  0.9666 -2.5386  2.0440
  170SOL    HW2  510   2.527   0.999   1.329 -1.0786  1.4820 -1.6808
  171SOL     OW  511   1.101   2.357   1.520 -0.3903 -0.5465 -0.2733
  171SOL    HW1  512   1.137   2.306   1.442  0.4123  1.5058  0.9923
  171SOL    HW2  513   1.176   2.383   1.583 -2.4314  1.2561 -0.5129
  172SOL     OW  514   0.407   2.456   1.354 -0.0572 -0.3109 -0.3753
  172SOL    HW1  515   0.415   2.375   1.295  0.6043 -0.6617  2.5850
  172SOL    HW2  516   0.449   2.531   1.306 -3.3070 -1.0365 -0.5588
  173SOL     OW  517   1.338   2.754   0.223  0.3298  0.0633 -0.1596
  173SOL    HW1  518   1.375   2.676   0.170  0.0621  1.1141  0.1107
  173SOL    HW2  519   1.395   2.838   0.203 -0.7244  0.4962 -0.6921
  174SOL     OW  520   1.140   2.493   2.522 -0.5270 -0.0053  0.6706
  174SOL    HW1  521   1.237   2.509   2.547  0.5454  3.1790 -0.0713
  174SOL    HW2  522   1.083   2.474   2.603  1.5603 -1.3068  0.1291
  175SOL     OW  523   1.691   0.241   0.143 -0.0581 -1.1725  0.3191
  175SOL    HW1  524   1.767   0.315   0.139  2.3202  3.0488  0.3075
  175SOL    HW2  525   1.626   0.271   0.218 -1.1318  2.1006 -0.3973
  176SOL     OW  526   1.404   3.027   0.133  0.3381 -0.0465 -0.1354
  176SOL    HW1  527   1.456   0.031   0.055 -2.6843  2.7565 -1.3494
  176SOL    HW2  528   1.455   3.036   0.220  1.2930 -0.7120 -1.8197
  177SOL     OW  529   1.171   1.228   0.681 -0.5934 -0.1098  0.5762
  177SOL    HW1  530   1.204   1.148   0.737 -0.5918 -0.2665 -0.7969
  177SOL    HW2  531   1.237   1.304   0.664 -0.8530  0.8409  0.1679
  178SOL     OW  532   2.415   1.588   2.133 -0.5724 -0.4888 -0.3254
  178SOL    HW1  533   2.325   1.549   2.170 -2.5559 -1.9690 -0.8973
  178SOL    HW2  534   2.492   1.524   2.141  0.7162 -0.2239 -2.1665
  179SOL     OW  535   0.470   2.609   2.791  0.0007  0.1698  0.0883
  179SOL    HW1  536   0.526   2.687   2.822 -0.0322  1.1808  2.8240
  179SOL    HW2  537   0.492   2.592   2.691 -2.0860  1.6149 -3.2742
  180SOL     OW  538   1.709   1.988   1.773 -0.4343 -0.1288  0.1526
  180SOL    HW1  539   1.793   1.944   1.809 -2.5938  1.0306 -0.8347
  180SOL    HW2  540   1.670   2.056   1.837 -0.3858 -1.1968 -0.9680
  181SOL     OW  541   1.325   1.323   2.504 -0.6816 -0.0374  0.3304
  181SOL    HW1  542   1.313   1.417   2.464 -0.4176 -0.2723  2.2350
  181SOL    HW2  543   1.255   1.259   2.484  3.2974 -0.3362  2.0893
  182SOL     OW  544   0.038   0.412   2.652  0.8912 -0.2179  0.2221
  182SOL    HW1  545   0.044   0.378   2.558  0.6705  0.8944  1.6779
  182SOL    HW2  546   0.129   0.447   2.684 -3.1055  1.0752 -1.6587
  183SOL     OW  547   1.103   0.185   2.815 -0.1169 -0.0834 -0.0058
  183SOL    HW1  548   1.047   0.234   2.745  1.4084  1.2917  0.7494
  183SOL    HW2  549   1.206   0.181   2.795  1.1163 -1.8363  1.9161
  184SOL     OW  550   1.352   0.897   1.274 -1.0446 -0.2591 -0.0047
  184SOL    HW1  551   1.411   0.918   1.192  1.2728 -0.8599  0.3719
  184SOL    HW2  552   1.271   0.840   1.250 -1.0213 -2.2914 -1.7063
  185SOL     OW  553   0.060   1.253   1.346  0.0712 -0.1278  0.3743
  185SOL    HW1  554   0.038   1.354   1.360  1.3677 -2.4980  0.8812
  185SOL    HW2  555   3.011   1.196   1.350 -2.3052  1.2728  3.8017
  186SOL     OW  556   0.364   1.695   2.540 -0.0892 -0.1960  0.4538
  186SOL    HW1  557   0.457   1.649   2.564  0.3018 -2.0387  0.9704
  186SOL    HW2  558   0.347   1.679   2.442 -1.6219  3.0490 -1.2677
  187SOL     OW  559   2.724   1.305   0.415  0.1189 -0.1162 -0.4176
  187SOL    HW1  560   2.755   1.275   0.324 -2.1584 -1.2514  1.1739
  187SOL    HW2  561   2.789   1.372   0.451  0.7878 -0.2396  0.0605
  188SOL     OW  562   0.097   2.258   0.644 -0.0623 -0.2285  0.3919
  188SOL    HW1  563   0.051   2.226   0.559 -2.2452 -1.9986  1.4827
  188SOL    HW2  564   0.028   2.262   0.719  0.7894 -0.9139  0.4132
  189SOL     OW  565   2.591   1.029   0.112 -0.7522 -0.1183  0.0801
  189SOL    HW1  566   2.653   0.998   0.035  0.1007 -2.4934 -2.8077
  189SOL    HW2  567   2.553   0.947   0.157  3.0062  0.3038 -0.2079
  190SOL     OW  568   1.182   1.401   2.198 -0.0533  0.3430 -0.0834
  190SOL    HW1  569   1.169   1.301   2.216 -1.9859  1.0186  0.8263
  190SOL    HW2  570   1.097   1.453   2.221  1.4698 -0.7242  2.2480
  191SOL     OW  571   2.440   0.420   1.880  0.1834 -0.0882 -0.4625
  191SOL    HW1  572   2.472   0.334   1.835 -1.7617  2.6697  2.4933
  191SOL    HW2  573   2.435   0.415   1.982  0.3878 -1.4533 -2.9473
  192SOL     OW  574   2.112   0.333   1.683 -0.2578  0.0714  0.7805
  192SOL    HW1  575   2.108   0.261   1.759  1.4235 -2.5150  1.5306
  192SOL    HW2  576   2.128   0.429   1.721  2.0526 -0.7044 -2.6789
  193SOL     OW  577   0.989   0.521   0.289  0.6145 -0.0629  0.1241
  193SOL    HW1  578   1.001   0.537   0.389  0.7802 -1.5911  0.0058
  193SOL    HW2  579   0.897   0.483   0.262 -0.5657 -2.6384  1.1190
  194SOL     OW  580   1.190   2.892   1.125  0.1675 -0.4358  0.1378
  194SOL    HW1  581   1.273   2.928   1.076  0.9136  0.7606  0.3028
  194SOL    HW2  582   1.108   2.891   1.062  1.8046  0.6156 -2.5500
  195SOL     OW  583   2.326   0.632   0.589 -0.4509  0.1608  0.4287
  195SOL    HW1  584   2.416   0.639   0.637 -0.3292  2.4970 -2.5010
  195SOL    HW2  585   2.257   0.655   0.663  0.5186 -0.2430 -0.5581
  196SOL     OW  586   1.535   1.857   1.956  0.9740  0.3339  0.3459
  196SOL    HW1  587   1.586   1.904   1.884 -2.7025 -1.1624 -1.3441
  196SOL    HW2  588   1.438   1.869   1.939  3.6380 -0.2263 -0.3127
  197SOL     OW  589   0.061   2.849   0.550  0.5634  0.0176 -0.3475
  197SOL    HW1  590   0.113   2.931   0.582  1.6927  2.1659 -2.9766
  197SOL    HW2  591   0.106   2.764   0.587  0.5508  1.4626  4.1788
  198SOL     OW  592   1.122   1.181   0.429 -0.1784 -0.1369 -0.7449
  198SOL    HW1  593   1.137   1.216   0.529  0.3736  1.7386  2.6980
  198SOL    HW2  594   1.043   1.115   0.425 -1.5111  1.3328  1.2881
  199SOL     OW  595   2.850   0.849   1.844  0.2212  0.5241  0.1903
  199SOL    HW1  596   2.832   0.896   1.932  1.3489 -0.9739 -0.4658
  199SOL    HW2  597   2.925   0.894   1.796 -0.1264  1.6686  0.3457
  200SOL     OW  598   2.320   1.780   2.586 -0.4462  0.2150 -0.0000
  200SOL    HW1  599   2.264   1.818   2.512  0.7656 -1.9363  0.8738
  200SOL    HW2  600   2.355   1.853   2.648 -2.1837 -2.0685  0.2119
  201SOL     OW  601   2.311   0.103   0.790  1.0636 -0.8235  0.7632
  201SOL    HW1  602   2.210   0.101   0.811 -1.1047 -1.5620  1.8436
  201SOL    HW2  603   2.326   0.063   0.702 -0.5174 -1.1167  2.5538
  202SOL     OW  604   2.534   0.755   0.092  0.6562  0.3589 -0.0271
  202SOL    HW1  605   2.537   0.677   0.034  0.8036  4.6432 -0.3272
  202SOL    HW2  606   2.569   0.738   0.185 -1.2563 -0.5419 -1.8646
  203SOL     OW  607   1.579   1.839   2.234 -0.2425  0.1200 -0.0833
  203SOL    HW1  608   1.579   1.844   2.135  0.2508  1.1830  1.5566
  203SOL    HW2  609   1.583   1.746   2.276 -0.2103  3.8397  1.2629
  204SOL     OW  610   0.863   1.810   2.238 -0.3725 -0.6051  0.5129
  204SOL    HW1  611   0.833   1.861   2.155 -1.7213  2.1110  1.6916
  204SOL    HW2  612   0.921   1.725   2.224 -0.7896  1.0391 -0.1346
  205SOL     OW  613   1.274   1.916   1.492  0.1404 -0.7199 -0.6202
  205SOL    HW1  614   1.372   1.938   1.526  1.6818  2.2481  0.8723
  205SOL    HW2  615   1.213   1.910   1.572  0.1635 -0.4849 -1.0121
  206SOL     OW  616   0.084   0.571   2.955  0.0397  0.4217 -0.1930
  206SOL    HW1  617   3.032   0.533   2.962  0.5667  0.3279 -0.6631
  206SOL    HW2  618   0.085   0.657   2.898 -2.3855 -4.5683  0.7134
  207SOL     OW  619   1.702   2.599   2.391  0.1033 -0.8142 -0.2296
  207SOL    HW1  620   1.608   2.591   2.428  0.3012 -0.0339 -4.0560
  207SOL    HW2  621   1.708   2.681   2.329  1.7163 -1.1936 -1.6433
  208SOL     OW  622   0.216   2.302   1.706  0.7978  0.1056  0.3128
  208SOL    HW1  623   0.240   2.225   1.646 -0.6010  1.8039  2.1991
  208SOL    HW2  624   0.242   2.391   1.664  1.4191 -2.4486 -1.3626
  209SOL     OW  625   1.443   0.734   2.634  0.3988 -0.1900 -0.0269
  209SOL    HW1  626   1.492   0.794   2.699  1.6700  1.1918 -0.5196
  209SOL    HW2  627   1.497   0.717   2.549 -0.1593  1.9379  0.0277
  210SOL     OW  628   2.221   0.763   0.812  0.7790  0.5541  0.3039
  210SOL    HW1  629   2.184   0.687   0.868  0.1541 -1.5217 -0.2274
  210SOL    HW2  630   2.290   0.817   0.857  1.2976  0.1706 -1.9772
  211SOL     OW  631   1.028   0.579   0.558 -0.2651 -0.3276  0.5938
  211SOL    HW1  632   0.976   0.607   0.641  2.3063 -2.0896 -1.0559
  211SOL    HW2  633   1.122   0.546   0.580 -1.2897  2.4286  1.6772
  212SOL     OW  634   1.318   1.471   0.174  0.0704  0.2151 -0.1735
  212SOL    HW1  635   1.351   1.380   0.155 -2.1398 -0.1284  0.4177
  212SOL    HW2  636   1.304   1.525   0.089  0.1432  1.8500  1.4218
  213SOL     OW  637   1.407   0.087   2.180  0.0128  0.0669  0.2165
  213SOL    HW1  638   1.315   0.099   2.219  1.4111  0.9566  0.1648
  213SOL    HW2  639   1.477   0.115   2.252  0.1823 -1.6408 -0.7830
  214SOL     OW  640   1.549   1.301   2.346 -0.1966  1.1150 -0.0058
  214SOL    HW1  641   1.634   1.347   2.369 -0.0741 -1.8917  0.2866
  214SOL    HW2  642   1.472   1.313   2.409 -0.6749  0.8712 -0.5725
  215SOL     OW  643   0.566   1.607   0.882 -0.5061 -0.5439 -0.1266
  215SOL    HW1  644   0.643   1.582   0.946 -1.6521  1.2052  0.3870
  215SOL    HW2  645   0.477   1.585   0.929  1.8980  1.6870  0.1044
  216SOL     OW  646   0.600   2.735   2.193 -0.2844  0.3034 -0.8552
  216SOL    HW1  647   0.517   2.779   2.166 -1.2098 -1.2561  0.8389
  216SOL    HW2  648   0.652   2.783   2.266 -3.7310  0.5042 -1.4587
  217SOL     OW  649   2.263   0.740   0.107  0.1820  0.1136 -0.3629
  217SOL    HW1  650   2.363   0.730   0.079  1.1007  0.4145 -1.4527
  217SOL    HW2  651   2.218   0.826   0.074  2.6878  0.6852 -0.9649
  218SOL     OW  652   2.045   1.817   2.195 -0.2579  0.1854 -0.1986
  218SOL    HW1  653   2.017   1.737   2.143  2.1015  1.6607  0.8421
  218SOL    HW2  654   2.095   1.881   2.140 -2.1217 -0.3930  1.5142
  219SOL     OW  655   1.912   1.585   0.104 -0.1411 -0.1338  0.9823
  219SOL    HW1  656   1.861   1.663   0.063  2.0998 -2.0266 -0.1607
  219SOL    HW2  657   1.937   1.517   0.034 -1.4158  2.0011  2.2392
  220SOL     OW  658   1.324   1.678   1.078 -0.1231 -0.0948 -0.4638
  220SOL    HW1  659   1.333   1.776   1.103  3.1297 -1.5367  0.8310
  220SOL    HW2  660   1.333   1.670   0.978  0.0513 -0.4538  0.9214
  221SOL     OW  661   0.382   0.684   2.819 -0.3190 -0.3345  0.0852
  221SOL    HW1  662   0.356   0.783   2.850  0.1302  1.1564  2.2719
  221SOL    HW2  663   0.483   0.678   2.802 -0.5071  0.2846 -1.7815
  222SOL     OW  664   1.012   1.972   1.397  0.5000 -0.1379  0.6021
  222SOL    HW1  665   0.958   2.051   1.434  0.8898 -1.1166  1.0075
  222SOL    HW2  666   1.102   1.978   1.442 -0.0279  1.5031  1.0621
  223SOL     OW  667   1.243   2.949   2.654 -0.4514  0.3232  0.3443
  223SOL    HW1  668   1.306   2.932   2.729 -3.8191  0.2363 -0.7848
  223SOL    HW2  669   1.153   2.986   2.686  0.9274 -0.1625  1.4401
  224SOL     OW  670   2.645   1.178   0.903  0.2272 -0.1602 -0.2609
  224SOL    HW1  671   2.549   1.207   0.878 -0.5505  1.2804 -1.2341
  224SOL    HW2  672   2.672   1.114   0.830 -1.1595  1.2247 -1.0100
  225SOL     OW  673   1.306   1.072   1.498  0.6541  0.7814 -0.2552
  225SOL    HW1  674   1.299   1.166   1.465  3.2325  1.3658 -2.9547
  225SOL    HW2  675   1.356   1.025   1.420  0.4716  2.6744 -2.1600
  226SOL     OW  676   1.375   2.225   2.503 -0.0909 -0.4647  0.5349
  226SOL    HW1  677   1.367   2.257   2.599 -3.4496  0.5742  0.2857
  226SOL    HW2  678   1.382   2.304   2.433  0.1305  2.2118  1.8220
  227SOL     OW  679   1.197   1.979   1.021 -0.0855 -0.4338  0.0596
  227SOL    HW1  680   1.277   1.969   1.078  1.1800  0.7936 -2.0373
  227SOL    HW2  681   1.131   1.911   1.055  0.2286 -0.4813 -0.3367
  228SOL     OW  682   0.577   1.991   1.056 -0.2101 -0.1915  0.0577
  228SOL    HW1  683   0.493   1.941   1.056  0.8098  0.5199 -2.9883
  228SOL    HW2  684   0.656   1.929   1.042  0.0834  2.8728  2.1095
  229SOL     OW  685   1.996   0.675   2.930  0.1947 -0.2719  0.3552
  229SOL    HW1  686   1.920   0.653   2.866  1.7255 -0.5137 -0.4750
  229SOL    HW2  687   2.071   0.606   2.920  0.9055 -1.4237 -1.2247
  230SOL     OW  688   0.967   0.697   2.065  0.3545 -0.6583 -0.4110
  230SOL    HW1  689   0.984   0.598   2.052  1.4909  0.6818 -1.1680
  230SOL    HW2  690   1.056   0.750   2.077  1.5091  1.6533 -0.7097
  231SOL     OW  691   1.173   1.778   2.149  0.0417 -0.1689  0.3183
  231SOL    HW1  692   1.120   1.697   2.113  0.3614  0.8533 -1.9655
  231SOL    HW2  693   1.195   1.777   2.248 -0.2105 -1.2372 -2.0694
  232SOL     OW  694   2.069   2.016   1.085 -0.0764 -0.8152 -0.5370
  232SOL    HW1  695   2.051   1.959   1.005  1.3843 -0.1369 -1.3393
  232SOL    HW2  696   2.040   2.111   1.068 -0.6149  0.0028  1.0539
  233SOL     OW  697   1.901   2.485   2.818  0.7715 -0.2026  0.0436
  233SOL    HW1  698   1.833   2.431   2.764 -2.0349  0.9391  0.3494
  233SOL    HW2  699   1.943   2.550   2.753  0.5546 -0.5225 -2.1457
  234SOL     OW  700   1.300   2.878   2.941 -0.3675  0.3858 -0.0809
  234SOL    HW1  701   1.358   2.905   3.020 -1.1239  1.9457  4.4082
  234SOL    HW2  702   1.207   2.913   2.953  2.2885 -0.5534  2.3248
  235SOL     OW  703   2.430   2.964   0.201 -0.0990  0.3576  0.1495
  235SOL    HW1  704   2.444   2.870   0.240  0.1282 -0.4656  2.4215
  235SOL    HW2  705   2.461   2.975   0.102 -0.7550  1.4945  0.3851
  236SOL     OW  706   2.393   2.105   2.298 -0.1329  0.2037 -0.1361
  236SOL    HW1  707   2.468   2.084   2.233  1.2079  0.2782  0.3881
  236SOL    HW2  708   2.430   2.154   2.378  1.3565 -4.7629  1.7664
  237SOL     OW  709   1.412   1.466   1.813 -0.0509  0.3778 -0.1114
  237SOL    HW1  710   1.474   1.545   1.826  1.4349 -0.1535  0.8069
  237SOL    HW2  711   1.361   1.468   1.724  1.2345 -0.1652 -0.5331
  238SOL     OW  712   2.196   0.376   2.439 -0.5996  0.6720  0.5059
  238SOL    HW1  713   2.156   0.435   2.365 -1.9899  0.2439 -2.3760
  238SOL    HW2  714   2.125   0.343   2.500  0.6760 -1.3700 -1.6429
  239SOL     OW  715   0.308   1.851   2.060  0.6433 -0.1442  0.3373
  239SOL    HW1  716   0.405   1.875   2.042  1.6516  1.8780 -0.0111
  239SOL    HW2  717   0.277   1.781   1.992 -0.4829 -1.2230  0.3877
  240SOL     OW  718   2.461   2.668   0.966  0.1336  0.3896 -0.4345
  240SOL    HW1  719   2.552   2.673   0.922 -2.1298 -3.1625  0.8026
  240SOL    HW2  720   2.403   2.734   0.912 -0.5401 -0.1343 -2.1320
  241SOL     OW  721   1.874   2.093   0.537 -0.0142 -0.4875  0.4367
  241SOL    HW1  722   1.802   2.046   0.589  1.3514  0.2673 -2.1557
  241SOL    HW2  723   1.875   2.073   0.437  1.9072  1.3434 -1.5942
  242SOL     OW  724   1.205   1.796   2.425  0.0519  0.5766  0.0030
  242SOL    HW1  725   1.281   1.851   2.462  0.7249 -0.4853 -0.6133
  242SOL    HW2  726   1.121   1.848   2.414  2.1102  0.1504 -0.6870
  243SOL     OW  727   0.719   2.528   2.077 -0.7647  0.0207 -0.2519
  243SOL    HW1  728   0.665   2.604   2.112  0.3792 -1.6345  0.2733
  243SOL    HW2  729   0.818   2.554   2.091  0.2191  2.1532 -0.6944
  244SOL     OW  730   2.278   2.962   2.617  0.1971  0.5103  0.2139
  244SOL    HW1  731   2.309   0.019   2.613 -0.0072 -2.4739 -0.0396
  244SOL    HW2  732   2.224   2.935   2.532  0.1152  0.2504  1.9857
  245SOL     OW  733   1.266   2.482   0.327  0.2680 -0.5559  0.6093
  245SOL    HW1  734   1.312   2.399   0.295  0.3751  0.5905 -1.3689
  245SOL    HW2  735   1.289   2.560   0.272  1.3492 -0.7322  1.1512
  246SOL     OW  736   0.871   2.818   0.097  0.5036 -0.1641 -0.0307
  246SOL    HW1  737   0.806   2.882   0.141  0.2559  1.5974 -1.8085
  246SOL    HW2  738   0.950   2.795   0.152  0.1747  1.6967 -2.2118
  247SOL     OW  739   0.489   0.981   2.008 -0.1579 -0.6750  0.2056
  247SOL    HW1  740   0.566   0.991   1.939  1.3717  2.1278 -2.7222
  247SOL    HW2  741   0.524   0.934   2.090  2.0651 -1.2156  0.9521
  248SOL     OW  742   0.968   1.164   2.190 -0.0196  0.1541 -0.9846
  248SOL    HW1  743   0.871   1.192   2.184 -1.9187 -1.7879 -0.4998
  248SOL    HW2  744   0.992   1.089   2.126  1.0837  1.6559  1.1427
  249SOL     OW  745   2.232   0.442   0.152 -0.1782  0.3043 -0.1115
  249SOL    HW1  746   2.216   0.368   0.084  2.0483  3.4965 -2.0856
  249SOL    HW2  747   2.208   0.532   0.106  2.3751 -1.9079 -1.0322
  250SOL     OW  748   0.688   2.996   0.606 -0.0647 -0.3043 -0.0849
  250SOL    HW1  749   0.624   2.971   0.681 -1.9457  1.7251 -0.6376
  250SOL    HW2  750   0.636   3.037   0.531  0.5321 -0.8823  0.2876
  251SOL     OW  751   1.631   2.909   2.542  0.3614 -0.2559  0.2488
  251SOL    HW1  752   1.729   2.894   2.565  1.1115 -1.3137  1.8461
  251SOL    HW2  753   1.574   2.866   2.612 -1.4757 -1.1103 -1.4157
  252SOL     OW  754   1.627   1.371   2.096 -0.4353 -0.3248  0.1212
  252SOL    HW1  755   1.593   1.337   2.183 -0.7239  0.0217 -0.8931
  252SOL    HW2  756   1.731   1.357   2.091  1.6362 -0.9044  1.5946
  253SOL     OW  757   2.349   2.787   2.028  0.2704 -0.0276  0.2357
  253SOL    HW1  758   2.444   2.765   2.056 -1.4178 -1.0710 -1.2831
  253SOL    HW2  759   2.286   2.724   2.071  0.5336  1.0798 -2.4749
  254SOL     OW  760   0.772   1.541   1.051  0.0499 -0.2656  0.0560
  254SOL    HW1  761   0.859   1.520   1.002 -0.2948  2.8392  0.0721
  254SOL    HW2  762   0.770   1.485   1.138  1.4725 -1.7312 -1.1074
  255SOL     OW  763   1.083   0.834   1.015  0.4795 -0.2862 -0.3046
  255SOL    HW1  764   1.076   0.902   1.091  1.8309  1.1102 -0.7112
  255SOL    HW2  765   1.064   0.869   0.923  0.9543 -1.6836  1.1442
  256SOL     OW  766   1.824   2.425   1.761 -0.1203 -0.1488 -0.8723
  256SOL    HW1  767   1.813   2.401   1.863 -3.3287 -1.0281  2.0721
  256SOL    HW2  768   1.919   2.422   1.728  3.9726 -0.2029  0.1224
  257SOL     OW  769   0.230   2.828   2.942  0.0682 -0.4233 -0.0956
  257SOL    HW1  770   0.230   2.913   2.882 -0.3743 -1.4551 -0.9084
  257SOL    HW2  771   0.223   2.742   2.885 -1.1943 -2.6504 -0.8154
  258SOL     OW  772   0.702   2.947   1.930 -0.1730 -0.4156  0.2480
  258SOL    HW1  773   0.763   2.981   2.002  0.3237  2.7516  1.8465
  258SOL    HW2  774   0.710   2.845   1.924  0.0381  1.7342 -1.6703
  259SOL     OW  775   0.927   3.027   2.122  0.0730  0.4834 -0.6748
  259SOL    HW1  776   0.997   0.027   2.062  0.3097 -0.8677  0.8657
  259SOL    HW2  777   0.946   2.928   2.156  1.8626 -1.2656  2.2300
  260SOL     OW  778   1.636   0.564   0.722  0.5202 -0.1916 -0.5203
  260SOL    HW1  779   1.576   0.478   0.718 -2.9692 -0.5096  0.6862
  260SOL    HW2  780   1.737   0.550   0.708 -1.0880  0.5758  0.6461
  261SOL     OW  781   0.319   0.432   2.733  0.3075  0.2086 -0.3069
  261SOL    HW1  782   0.326   0.351   2.790 -0.8749  0.8852 -1.0289
  261SOL    HW2  783   0.339   0.513   2.798 -0.9965  2.5219  4.6582
  262SOL     OW  784   2.692   2.544   1.872  0.3122 -0.1089  0.7672
  262SOL    HW1  785   2.781   2.492   1.875 -0.2916 -0.5623  0.5741
  262SOL    HW2  786   2.694   2.605   1.789 -2.1064  1.2433  0.2161
  263SOL     OW  787   2.728   1.823   2.200 -0.3053 -0.1191  0.2372
  263SOL    HW1  788   2.828   1.818   2.201  0.9663 -1.4855 -3.4405
  263SOL    HW2  789   2.682   1.771   2.272  0.0355 -0.4497 -2.4038
  264SOL     OW  790   0.927   1.054   0.878 -0.2024 -0.2849  0.5319
  264SOL    HW1  791   0.890   1.130   0.821 -0.5165 -0.4341 -2.1810
  264SOL    HW2  792   0.962   1.069   0.973 -2.0037 -0.8184 -2.1542
  265SOL     OW  793   0.497   2.078   0.161 -0.2189 -0.7374  0.0919
  265SOL    HW1  794   0.586   2.029   0.139  0.8043 -1.0241  1.9731
  265SOL    HW2  795   0.520   2.180   0.154  2.2025  0.4605 -1.4456
  266SOL     OW  796   1.375   0.842   0.456  0.5790 -0.2628  0.2491
  266SOL    HW1  797   1.397   0.769   0.386 -0.2139  0.2395 -0.7275
  266SOL    HW2  798   1.272   0.842   0.468 -1.0742  0.4280  0.3187
  267SOL     OW  799   0.004   1.106   0.324 -0.4041  0.0549 -0.0078
  267SOL    HW1  800   0.017   1.191   0.386  0.1285  1.6751  1.3315
  267SOL    HW2  801   0.090   1.067   0.288 -2.7824  1.6209  1.4599
  268SOL     OW  802   2.190   0.241   3.022  0.0880  0.5920  0.3908
  268SOL    HW1  803   2.274   0.225   2.972 -1.0372  0.2818  1.2898
  268SOL    HW2  804   2.145   0.152   0.010 -1.1284 -0.1019 -0.3760
  269SOL     OW  805   1.591   0.475   2.642  0.4056  0.1559 -0.4337
  269SOL    HW1  806   1.560   0.374   2.638  0.0305  0.5066 -0.0293
  269SOL    HW2  807   1.626   0.505   2.550 -1.0042 -2.3024 -2.5609
  270SOL     OW  808   0.735   0.783   3.018 -0.1041 -0.3601 -0.5534
  270SOL    HW1  809   0.802   0.857   3.036 -0.6277 -0.1121 -0.5625
  270SOL    HW2  810   0.703   0.780   2.921  1.7350  1.7196  0.9221
  271SOL     OW  811   2.895   0.934   0.464 -0.1275 -0.3114 -0.1215
  271SOL    HW1  812   2.901   0.867   0.386 -2.8811  2.1655  2.3119
  271SOL    HW2  813   2.941   1.015   0.428 -0.5964 -0.2264  0.1581
  272SOL     OW  814   0.003   1.778   2.976 -0.1923 -0.0901 -0.0343
  272SOL    HW1  815   2.939   1.776   2.964 -0.9792 -0.7347 -0.7373
  272SOL    HW2  816   0.044   1.803   2.886  1.1226 -0.3300 -2.1352
  273SOL     OW  817   2.398   3.032   0.550  0.6375 -0.3249 -0.3475
  273SOL    HW1  818   2.435   0.071   0.496  0.8662 -1.0668  1.3326
  273SOL    HW2  819   2.350   2.966   0.491  1.3570 -1.8810 -0.3029
  274SOL     OW  820   0.506   2.428   0.964 -0.4440 -0.1633  0.2690
  274SOL    HW1  821   0.572   2.353   0.955 -1.1304 -0.8419  2.0781
  274SOL    HW2  822   0.452   2.440   0.876  0.1532  0.3392 -3.1850
  275SOL     OW  823   2.456   1.334   0.417  0.0729 -0.1823 -0.0166
  275SOL    HW1  824   2.557   1.353   0.414 -0.0095  1.0754  0.0501
  275SOL    HW2  825   2.439   1.244   0.455  0.7556  2.7159 -0.4251
  276SOL     OW  826   2.870   1.257   2.193 -0.3800  0.7866 -0.3711
  276SOL    HW1  827   2.962   1.224   2.215 -1.8655 -1.7588  1.1253
  276SOL    HW2  828   2.824   1.300   2.271  1.9151  0.2213  0.5179
  277SOL     OW  829   1.949   2.656   1.259  0.0463 -0.3814  0.4417
  277SOL    HW1  830   2.035   2.711   1.255  0.7478  0.9365 -2.4753
  277SOL    HW2  831   1.932   2.606   1.171 -1.2613  0.8164 -2.6532
  278SOL     OW  832   1.099   0.096   1.958  0.2166  0.1581  0.1643
  278SOL    HW1  833   1.162   0.017   1.944 -1.0919  0.5000  0.9406
  278SOL    HW2  834   1.149   0.182   1.976  0.0480  1.9197 -4.0521
  279SOL     OW  835   1.673   1.667   0.422  0.4940 -0.7315 -0.1191
  279SOL    HW1  836   1.698   1.742   0.486  2.2931  0.8074 -2.6159
  279SOL    HW2  837   1.753   1.613   0.401 -2.3899  2.8335  0.3861
  280SOL     OW  838   0.031   1.894   0.949 -0.1781  0.1416  0.7886
  280SOL    HW1  839   0.081   1.825   0.887  0.5442 -1.1668 -2.5964
  280SOL    HW2  840   0.015   1.867   1.048  3.3641  1.1750  0.1001
  281SOL     OW  841   2.889   0.506   2.383  0.2179  0.4368  0.0405
  281SOL    HW1  842   2.978   0.457   2.388  2.5139 -1.7345 -0.0614
  281SOL    HW2  843   2.815   0.447   2.420  0.2343 -1.7317 -0.0466
  282SOL     OW  844   0.767   0.843   0.554 -0.4264 -0.1707 -0.4463
  282SOL    HW1  845   0.675   0.883   0.572 -2.1531  2.7263  1.8559
  282SOL    HW2  846   0.828   0.905   0.508 -1.8204 -1.9274 -0.3326
  283SOL     OW  847   1.619   1.870   0.005  0.4936 -0.1881 -0.1415
  283SOL    HW1  848   1.601   1.934   2.966  0.9408  1.0628 -1.9798
  283SOL    HW2  849   1.713   1.880   0.038  1.1327  0.3307 -0.6743
  284SOL     OW  850   1.406   0.650   0.287  0.3335  0.1443  0.2605
  284SOL    HW1  851   1.506   0.632   0.294 -3.3535  0.8820  2.8409
  284SOL    HW2  852   1.367   0.567   0.327  1.5904  0.4230 -0.4368
  285SOL     OW  853   1.811   0.844   2.611  0.2501  0.0450  0.3674
  285SOL    HW1  854   1.749   0.911   2.563  0.4861  6.9059 -0.1203
  285SOL    HW2  855   1.759   0.769   2.659 -1.3970 -1.6387 -1.3359
  286SOL     OW  856   1.358   2.568   1.553  0.4030 -0.1215  0.6438
  286SOL    HW1  857   1.395   2.484   1.503 -0.3862 -4.3648 -0.0949
  286SOL    HW2  858   1.430   2.639   1.565 -1.7714 -2.5269 -0.4425
  287SOL     OW  859   1.108   0.915   0.702  0.4959 -0.2739  0.0486
  287SOL    HW1  860   1.029   0.961   0.744  2.6438 -0.2043 -0.3244
  287SOL    HW2  861   1.097   0.920   0.606  0.1342 -1.1019  2.7649
  288SOL     OW  862   0.929   2.526   0.261 -0.1161 -0.4502  0.1466
  288SOL    HW1  863   0.985   2.613   0.260  4.3888 -0.9701  2.3826
  288SOL    HW2  864   0.903   2.500   0.358 -0.7907  0.1549  4.3958
  289SOL     OW  865   0.408   1.481   1.695  0.2770  0.1243 -0.0682
  289SOL    HW1  866   0.425   1.567   1.741 -0.0714 -2.9344 -2.5757
  289SOL    HW2  867   0.406   1.399   1.751  2.0199 -0.4730  0.0597
  290SOL     OW  868   1.621   2.160   0.815 -0.0482  0.0235 -0.1682
  290SOL    HW1  869   1.650   2.069   0.856 -0.5648 -2.6900 -0.0808
  290SOL    HW2  870   1.586   2.220   0.891 -1.7935  1.0449  0.2951
  291SOL     OW  871   1.734   2.682   2.945 -0.1155  0.1454  1.0158
  291SOL    HW1  872   1.665   2.717   2.886  1.0074 -0.5092 -0.1189
  291SOL    HW2  873   1.776   2.603   2.893  1.0913 -1.3551  1.4211
  292SOL     OW  874   1.128   0.477   1.771 -0.6618 -0.9046  0.2617
  292SOL    HW1  875   1.163   0.572   1.744  2.8858  1.3995  2.4035
  292SOL    HW2  876   1.028   0.482   1.787  3.7011 -1.1130 -0.7491
  293SOL     OW  877   1.771   2.408   0.762  0.5583 -0.1752  0.1689
  293SOL    HW1  878   1.772   2.307   0.782  3.4547  0.5674  1.1894
  293SOL    HW2  879   1.708   2.450   0.830 -1.4681 -0.7441  0.8233
  294SOL     OW  880   0.434   0.563   2.369  0.1187 -0.6831 -0.7235
  294SOL    HW1  881   0.420   0.633   2.442 -1.4291  1.3301  2.0744
  294SOL    HW2  882   0.397   0.474   2.408 -2.8022 -4.2621  0.1345
  295SOL     OW  883   1.469   1.644   0.822  0.0845  0.2538 -0.0802
  295SOL    HW1  884   1.440   1.561   0.766  1.6617 -2.1963  2.0105
  295SOL    HW2  885   1.463   1.729   0.768 -4.0988 -0.4926 -0.8009
  296SOL     OW  886   2.191   1.881   0.066 -0.3274 -0.0851 -0.5030
  296SOL    HW1  887   2.280   1.934   0.082  1.2018  0.1679 -2.9930
  296SOL    HW2  888   2.200   1.776   0.064  0.1779 -1.9447 -0.4757
  297SOL     OW  889   2.139   3.022   0.087  0.0126 -0.2578  0.1249
  297SOL    HW1  890   2.044   2.992   0.108  2.9136  0.7094 -1.4060
  297SOL    HW2  891   2.184   2.949   0.036 -2.3860 -1.2307  0.9786
  298SOL     OW  892   1.105   2.390   2.280 -0.7199  0.0530 -0.1721
  298SOL    HW1  893   1.113   2.437   2.371 -2.7359  0.6415  3.1787
  298SOL    HW2  894   1.193   2.347   2.258  1.0339  0.5256 -0.2744
  299SOL     OW  895   1.255   2.782   2.215  0.2393 -0.4661  0.2196
  299SOL    HW1  896   1.156   2.811   2.211 -3.8658 -0.1249 -1.2043
  299SOL    HW2  897   1.308   2.840   2.283  0.3979 -0.2967 -0.4719
  300SOL     OW  898   2.418   0.224   2.831 -0.5812 -0.0937 -0.1464
  300SOL    HW1  899   2.362   0.207   2.747  1.7529  0.2153  0.3079
  300SOL    HW2  900   2.484   0.301   2.814  2.2024 -0.8577  0.8806
  301SOL     OW  901   1.693   0.884   2.250 -0.5601 -0.3468 -0.7615
  301SOL    HW1  902   1.641   0.970   2.223 -1.1873  1.1280  1.4525
  301SOL    HW2  903   1.706   0.820   2.174  2.0392 -2.1941  1.0550
  302SOL     OW  904   2.358   2.285   0.288 -0.0330 -0.1133  0.9533
  302SOL    HW1  905   2.390   2.190   0.308 -0.0190 -1.1884  0.2590
  302SOL    HW2  906   2.414   2.343   0.339 -1.2162 -0.4676 -1.6861
  303SOL     OW  907   2.679   2.651   2.339 -0.2219 -0.6068 -0.2769
  303SOL    HW1  908   2.778   2.654   2.311  0.4799 -0.3578  0.9925
  303SOL    HW2  909   2.664   2.580   2.406 -0.9811  1.3583 -1.5084
  304SOL     OW  910   2.787   0.674   1.630 -0.1664  0.8080  0.1016
  304SOL    HW1  911   2.846   0.734   1.688 -1.6813 -0.6361 -0.9824
  304SOL    HW2  912   2.767   0.589   1.685  0.4614 -2.0611  4.1793
  305SOL     OW  913   0.627   2.111   1.708 -0.2125  0.2210  0.0080
  305SOL    HW1  914   0.627   2.151   1.616  1.9503 -1.5457  1.5830
  305SOL    HW2  915   0.645   2.180   1.778  0.9982  2.4699 -2.0969
  306SOL     OW  916   3.015   1.012   1.708 -0.4306 -0.5081 -0.2935
  306SOL    HW1  917   2.942   1.054   1.650 -0.1680  1.8983 -2.0705
  306SOL    HW2  918   0.066   1.055   1.697  3.0944 -0.6946 -0.3075
  307SOL     OW  919   1.466   0.603   1.988 -1.0028  0.2537 -0.2007
  307SOL    HW1  920   1.399   0.661   2.039  1.0037  1.4161 -0.9574
  307SOL    HW2  921   1.438   0.588   1.892 -0.9279 -0.1073  0.9903
  308SOL     OW  922   2.765   1.417   1.061 -0.0356 -0.4776 -0.5309
  308SOL    HW1  923   2.783   1.351   0.988 -3.1613 -2.2879 -0.0285
  308SOL    HW2  924   2.690   1.389   1.124  2.7139 -1.8967  0.7490
  309SOL     OW  925   2.376   1.439   0.852  0.0332 -0.2331 -0.2467
  309SOL    HW1  926   2.278   1.434   0.824 -0.2840 -0.4150 -1.9639
  309SOL    HW2  927   2.383   1.471   0.950  0.3325  1.6146  1.7555
  310SOL     OW  928   2.774   1.720   2.893 -0.0482 -0.2849 -0.1310
  310SOL    HW1  929   2.785   1.806   2.840 -1.0481 -1.6733 -3.3055
  310SOL    HW2  930   2.696   1.662   2.871  3.9835  2.3725 -0.0918
  311SOL     OW  931   3.018   2.652   2.682 -0.2160 -0.4767  0.3395
  311SOL    HW1  932   2.957   2.574   2.700  2.7456  1.8258 -1.0261
  311SOL    HW2  933   0.064   2.634   2.732 -1.3571  1.7404  0.6912
  312SOL     OW  934   2.060   1.855   0.842 -0.5752 -0.9528 -0.4030
  312SOL    HW1  935   2.044   1.812   0.751  0.9569  1.2260  0.7814
  312SOL    HW2  936   2.036   1.796   0.919  0.2711  0.3493  0.4023
  313SOL     OW  937   2.522   0.027   0.936  0.3215 -0.3196  0.0100
  313SOL    HW1  938   2.544   2.989   0.876  0.9616  1.9802 -0.3747
  313SOL    HW2  939   2.444   0.073   0.898  0.9403 -1.7091  1.8693
  314SOL     OW  940   1.486   1.253   0.087  0.6220  0.3801  0.1306
  314SOL    HW1  941   1.493   1.183   0.163  3.8695  0.0904  3.4071
  314SOL    HW2  942   1.584   1.282   0.068  1.1427 -1.4730 -0.6682
  315SOL     OW  943   1.372   2.617   2.041  0.1770 -0.3148 -0.2341
  315SOL    HW1  944   1.304   2.649   2.108  0.2764 -0.1085 -0.5601
  315SOL    HW2  945   1.354   2.649   1.944 -0.1314  0.4268  0.0032
  316SOL     OW  946   0.015   1.033   0.670 -0.3302 -0.1193  0.0839
  316SOL    HW1  947   2.959   1.008   0.638 -2.0687 -1.2984  1.0464
  316SOL    HW2  948   0.011   1.085   0.758 -0.5800  2.9085 -1.3878
  317SOL     OW  949   0.412   2.985   0.456 -0.6504 -0.5819 -0.0433
  317SOL    HW1  950   0.358   2.991   0.544 -2.2071 -0.0138  2.2415
  317SOL    HW2  951   0.432   2.888   0.422  2.3579 -0.1474  2.0569
  318SOL     OW  952   2.091   2.209   0.322 -0.1680 -0.4161  0.3444
  318SOL    HW1  953   2.108   2.111   0.341  1.6445 -1.5152 -1.9217
  318SOL    HW2  954   2.180   2.253   0.315  1.4843  1.0357  0.6599
  319SOL     OW  955   0.938   1.527   2.590  0.0247 -0.1305 -0.5941
  319SOL    HW1  956   0.919   1.446   2.649  0.8380 -2.6362  2.7871
  319SOL    HW2  957   0.860   1.593   2.588 -1.7496 -0.8896 -0.6807
  320SOL     OW  958   0.193   2.606   1.988 -0.4091  0.2681 -0.0119
  320SOL    HW1  959   0.239   2.585   1.897 -1.8065  0.1888  0.9548
  320SOL    HW2  960   0.095   2.634   1.975 -1.5934 -1.3626 -0.5291
  321SOL     OW  961   1.504   2.531   2.733  0.2144  0.1716 -0.1917
  321SOL    HW1  962   1.561   2.447   2.728 -0.6599  0.8274 -1.5228
  321SOL    HW2  963   1.421   2.497   2.781 -0.3495 -0.5874  0.1073
  322SOL     OW  964   3.028   1.404   2.018 -0.4609 -0.3665  0.1827
  322SOL    HW1  965   2.966   1.340   2.067  0.0622 -0.0821  1.5894
  322SOL    HW2  966   0.007   1.376   1.918  2.2270  0.0957 -1.4460
  323SOL     OW  967   2.369   1.083   0.527  0.3864 -0.8268 -0.0963
  323SOL    HW1  968   2.279   1.069   0.481  0.7032 -0.3535 -1.3336
  323SOL    HW2  969   2.430   1.001   0.516 -0.1668  3.2300  0.7441
  324SOL     OW  970   2.810   3.030   2.913  0.2786  0.0810  0.3626
  324SOL    HW1  971   2.713   0.004   2.935  1.0102 -0.3504 -0.3869
  324SOL    HW2  972   2.854   2.963   2.978  0.8760 -0.6906  0.8784
  325SOL     OW  973   1.175   0.127   2.321 -0.0080 -0.1579  0.2028
  325SOL    HW1  974   1.122   0.081   2.393 -1.4445  1.3213 -0.2533
  325SOL    HW2  975   1.116   0.187   2.266 -2.0712 -2.3361  3.1075
  326SOL     OW  976   2.177   2.981   1.542  0.1566  0.0938 -0.0669
  326SOL    HW1  977   2.220   0.032   1.564  2.6468 -1.9311  1.5662
  326SOL    HW2  978   2.185   2.908   1.617 -0.4424 -2.2566  0.6015
  327SOL     OW  979   1.803   0.149   2.786 -0.1795  0.4242  0.1027
  327SOL    HW1  980   1.820   0.058   2.833  0.5656 -2.0090 -0.4866
  327SOL    HW2  981   1.766   0.217   2.853 -1.6535  0.1310  1.5268
  328SOL     OW  982   0.007   0.963   2.361 -0.6516  0.1314  0.2250
  328SOL    HW1  983   0.025   1.049   2.309 -1.4037 -0.0088 -2.0270
  328SOL    HW2  984   2.954   0.961   2.399  1.1536 -1.2868  2.5841
  329SOL     OW  985   1.822   3.004   1.808  0.1299 -0.5468 -0.2237
  329SOL    HW1  986   1.880   2.924   1.805 -3.1671  1.0799  1.0545
  329SOL    HW2  987   1.860   0.043   1.864  0.2701  0.2061 -1.7717
  330SOL     OW  988   2.845   1.621   1.241  0.0415  0.0849 -0.2667
  330SOL    HW1  989   2.836   1.537   1.178  0.3198  1.3891 -0.6438
  330SOL    HW2  990   2.842   1.602   1.342 -0.7792  0.1777 -1.1069
  331SOL     OW  991   0.567   1.820   2.012  1.0347 -0.1882 -0.4383
  331SOL    HW1  992   0.620   1.865   1.936  3.7528 -0.1218  1.3016
  331SOL    HW2  993   0.607   1.732   2.045 -2.1109  0.6817  1.9951
  332SOL     OW  994   3.026   2.841   1.551 -0.0674 -0.1620  0.1942
  332SOL    HW1  995   0.002   2.876   1.650 -0.5723  1.3653  3.2128
  332SOL    HW2  996   0.003   2.912   1.481  0.8513  0.3442 -2.9135
  333SOL     OW  997   2.220   2.693   1.249  0.3811  0.4824  0.7580
  333SOL    HW1  998   2.285   2.747   1.313 -1.5434  2.9286  1.3662
  333SOL    HW2  999   2.246   2.597   1.261  1.8564  0.0850 -0.4812
  334SOL     OW 1000   0.764   1.815   1.007  0.1426 -0.0909 -0.2198
  334SOL    HW1 1001   0.769   1.716   1.034 -1.2892 -3.4882  2.1390
  334SOL    HW2 1002   0.798   1.831   0.912  1.5589 -0.3223  1.6415
  335SOL     OW 1003   0.111   2.390   2.937 -0.0428 -0.5599 -0.0793
  335SOL    HW1 1004   0.161   2.318   2.884  1.5385 -1.5328 -1.4935
  335SOL    HW2 1005   0.013   2.365   2.954  3.2475 -0.2014  0.6495
  336SOL     OW 1006   0.323   2.809   2.154 -0.0824  0.0304  0.2244
  336SOL    HW1 1007   0.293   2.890   2.208 -0.1908 -1.1645  1.9270
  336SOL    HW2 1008   0.255   2.737   2.155 -1.4657 -0.0018  1.2800
  337SOL     OW 1009   2.403   1.969   2.748 -0.1590 -0.6652  0.2228
  337SOL    HW1 1010   2.314   2.007   2.776  0.0601 -0.0846  0.3098
  337SOL    HW2 1011   2.479   2.041   2.761  1.7588  0.2570  0.1051
  338SOL     OW 1012   1.091   1.575   1.222  0.4067 -0.2329 -0.5239
  338SOL    HW1 1013   1.004   1.629   1.195 -1.5108 -0.3451 -0.7549
  338SOL    HW2 1014   1.166   1.607   1.157  1.2950  0.2696  1.7708
  339SOL     OW 1015   0.238   0.715   1.692  0.2345  0.6224 -0.4341
  339SOL    HW1 1016   0.229   0.617   1.710 -1.0924  2.8282  2.0569
  339SOL    HW2 1017   0.254   0.753   1.783  0.3493  0.5872  1.3849
  340SOL     OW 1018   1.333   2.453   0.028 -0.3514  0.5021 -0.6621
  340SOL    HW1 1019   1.357   2.359   0.004  3.1172  0.0924 -3.1991
  340SOL    HW2 1020   1.294   2.499   2.987 -2.0876 -0.5070 -1.0388
  341SOL     OW 1021   1.733   1.481   1.121 -0.2357  0.7643 -0.3205
  341SOL    HW1 1022   1.722   1.552   1.193 -2.9628  1.5914  0.3689
  341SOL    HW2 1023   1.654   1.423   1.118 -2.6762 -2.8205 -0.6489
  342SOL     OW 1024   2.791   2.442   0.464  0.4785 -0.1115 -0.5560
  342SOL    HW1 1025   2.772   2.361   0.523  1.4149  1.9261 -0.0080
  342SOL    HW2 1026   2.863   2.433   0.395  1.5315 -0.5901  2.0918
  343SOL     OW 1027   1.500   2.314   1.015  0.2555  0.4390  0.4253
  343SOL    HW1 1028   1.489   2.408   1.049  0.6144 -1.3881  0.2790
  343SOL    HW2 1029   1.406   2.273   1.016  1.4931  2.2085 -2.1202
  344SOL     OW 1030   2.082   2.590   0.747  0.1697 -0.8752 -0.0166
  344SOL    HW1 1031   2.029   2.615   0.668  1.4129  1.5079  5.4241
  344SOL    HW2 1032   2.156   2.660   0.760  0.5170  0.7225 -0.5383
  345SOL     OW 1033   2.829   1.964   2.823  0.0715 -0.4351 -0.0958
  345SOL    HW1 1034   2.746   2.013   2.860 -1.9505  0.0620  0.0646
  345SOL    HW2 1035   2.917   2.000   2.865  1.9677  1.8010 -0.2465
  346SOL     OW 1036   2.763   1.677   0.872 -0.1550 -0.3795  0.0639
  346SOL    HW1 1037   2.704   1.692   0.952 -0.0403  0.4938 -3.5677
  346SOL    HW2 1038   2.790   1.581   0.853  1.5348  1.6164  0.1819
  347SOL     OW 1039   2.135   2.291   1.250 -0.4948  0.0377 -0.0105
  347SOL    HW1 1040   2.059   2.327   1.313 -0.3541  2.5314  2.9417
  347SOL    HW2 1041   2.218   2.350   1.260  2.2095  0.3182  0.8850
  348SOL     OW 1042   0.651   1.644   2.586  0.4526 -0.2370  0.5038
  348SOL    HW1 1043   0.679   1.732   2.534 -1.9451  0.9759 -1.8989
  348SOL    HW2 1044   0.681   1.643   2.681 -0.3901  2.2865 -1.2687
  349SOL     OW 1045   2.235   1.271   1.877 -0.3840  0.2108 -0.0380
  349SOL    HW1 1046   2.163   1.276   1.807 -1.1697  0.3380 -1.5687
  349SOL    HW2 1047   2.317   1.335   1.866 -2.0784  1.1341 -0.3882
  350SOL     OW 1048   0.176   2.354   1.068 -0.2685  0.1473 -0.0224
  350SOL    HW1 1049   0.219   2.406   0.994 -1.5265 -0.6163  1.8291
  350SOL    HW2 1050   0.161   2.261   1.042  0.5385  0.6423  0.9692
  351SOL     OW 1051   0.225   0.571   2.190  0.3318 -0.4249  0.0097
  351SOL    HW1 1052   0.155   0.622   2.245 -1.4872 -2.3877  0.3661
  351SOL    HW2 1053   0.318   0.586   2.229  0.3532 -0.4510  0.5199
  352SOL     OW 1054   0.655   2.262   1.465 -0.4147 -0.4940 -0.9392
  352SOL    HW1 1055   0.646   2.347   1.519 -0.5560 -1.3419  0.8025
  352SOL    HW2 1056   0.575   2.248   1.407  1.0506  1.0175  0.2920
  353SOL     OW 1057   1.354   1.554   2.346 -0.2083 -0.0434 -0.6163
  353SOL    HW1 1058   1.329   1.497   2.267  2.9108  1.9319  1.8288
  353SOL    HW2 1059   1.310   1.648   2.347 -0.5150 -0.2136 -1.3075
  354SOL     OW 1060   1.612   0.805   0.600 -0.1172  0.1455  0.0624
  354SOL    HW1 1061   1.618   0.708   0.638 -0.1540  0.1096  1.1412
  354SOL    HW2 1062   1.520   0.828   0.551 -0.8537  2.5432  1.6001
  355SOL     OW 1063   2.580   0.902   0.565 -0.2987 -0.3772  0.3417
  355SOL    HW1 1064   2.617   0.838   0.495  0.0608 -0.4402 -0.7060
  355SOL    HW2 1065   2.647   0.975   0.581 -0.5320 -0.9807 -1.4649
  356SOL     OW 1066   2.613   1.107   2.610 -0.5789  0.4201 -0.1951
  356SOL    HW1 1067   2.662   1.112   2.698  0.4858 -2.3750  0.4063
  356SOL    HW2 1068   2.522   1.153   2.612 -1.7346 -2.5435  1.3917
  357SOL     OW 1069   0.859   2.547   1.475 -0.1507 -0.2422 -0.1890
  357SOL    HW1 1070   0.827   2.580   1.383 -1.3455  0.7402 -0.8164
  357SOL    HW2 1071   0.956   2.571   1.492  0.8223  2.7487 -2.8487
  358SOL     OW 1072   2.387   1.054   1.957  0.0421 -0.6939 -0.0648
  358SOL    HW1 1073   2.329   1.135   1.945  0.8701 -3.7483  2.1955
  358SOL    HW2 1074   2.343   0.973   1.914  1.0998  0.8308 -0.3348
  359SOL     OW 1075   2.158   2.303   2.904  0.1189 -0.2086  0.5011
  359SOL    HW1 1076   2.229   2.350   2.961 -2.7321  0.3507 -2.0058
  359SOL    HW2 1077   2.080   2.368   2.888 -1.2023  0.3109  0.4187
  360SOL     OW 1078   2.151   0.361   0.781  0.4250  0.4384 -0.5123
  360SOL    HW1 1079   2.239   0.386   0.818  0.0449 -1.6592 -1.3669
  360SOL    HW2 1080   2.082   0.434   0.799  0.6228 -0.2904  1.7816
  361SOL     OW 1081   1.920   2.851   0.935 -0.5869 -0.7156 -0.0330
  361SOL    HW1 1082   2.012   2.830   0.971 -0.1194  0.1732 -3.5584
  361SOL    HW2 1083   1.896   2.797   0.853 -0.6962  0.1078  0.0099
  362SOL     OW 1084   1.455   1.094   0.579  0.1618  0.0967  0.5326
  362SOL    HW1 1085   1.425   1.008   0.532  2.2637  1.2922 -1.1302
  362SOL    HW2 1086   1.389   1.110   0.654  0.1429 -0.2459  3.4721
  363SOL     OW 1087   2.238   1.312   2.132 -0.5399 -0.5969 -0.3816
  363SOL    HW1 1088   2.333   1.277   2.152  3.3023 -1.8587  1.1357
  363SOL    HW2 1089   2.220   1.303   2.033 -0.9578  0.3445  2.6856
  364SOL     OW 1090   1.283   0.561   1.125  0.0602 -0.7642  0.0397
  364SOL    HW1 1091   1.321   0.622   1.050 -2.4404  1.0096 -0.1824
  364SOL    HW2 1092   1.354   0.502   1.161 -1.1146  2.6867 -0.7222
  365SOL     OW 1093   0.116   2.813   0.857  0.3140  0.3265 -0.5798
  365SOL    HW1 1094   0.105   2.737   0.797 -0.7592  0.1407  0.2183
  365SOL    HW2 1095   0.039   2.823   0.922 -2.6549 -0.8407  1.8232
  366SOL     OW 1096   2.895   1.520   0.485 -0.3434 -0.2422  0.1314
  366SOL    HW1 1097   2.900   1.572   0.572 -0.6978  0.8058  0.5267
  366SOL    HW2 1098   2.920   1.576   0.401  0.9254 -0.5950 -1.1632
  367SOL     OW 1099   2.875   2.306   2.930 -0.0435  0.6169  0.0167
  367SOL    HW1 1100   2.877   2.380   2.866  1.6701 -1.1179  0.8278
  367SOL    HW2 1101   2.790   2.310   2.989  0.0461 -2.8351  0.3992
  368SOL     OW 1102   0.222   2.106   0.963 -0.9973 -0.6660 -0.0795
  368SOL    HW1 1103   0.289   2.087   0.892  1.3495 -3.8158  0.1039
  368SOL    HW2 1104   0.143   2.043   0.949 -0.0844  0.7982  0.6994
  369SOL     OW 1105   0.491   0.197   0.339  0.6093  0.3152  0.1498
  369SOL    HW1 1106   0.462   0.106   0.362 -0.1350  0.5908 -1.7285
  369SOL    HW2 1107   0.591   0.204   0.328 -2.0143  2.9514 -1.2594
  370SOL     OW 1108   0.459   1.053   1.236 -0.1193  0.3403 -0.1592
  370SOL    HW1 1109   0.408   1.094   1.161  1.1030 -1.2948  2.3042
  370SOL    HW2 1110   0.402   1.051   1.322 -1.0213 -0.9729  6.5725
  371SOL     OW 1111   1.904   2.354   0.433 -0.2114 -0.3501  0.2021
  371SOL    HW1 1112   1.973   2.311   0.371 -1.2333 -1.8707 -0.6852
  371SOL    HW2 1113   1.878   2.282   0.501 -3.0310  0.5260  0.4855
  372SOL     OW 1114   0.319   0.952   2.830  0.4162 -0.3170 -0.0775
  372SOL    HW1 1115   0.341   1.026   2.763 -1.2746  1.0649 -0.8496
  372SOL    HW2 1116   0.345   0.976   2.928  0.2921  1.4160  2.1962
  373SOL     OW 1117   2.646   1.495   0.674 -0.1213  0.0435  0.4530
  373SOL    HW1 1118   2.610   1.547   0.592  0.0600  1.5410 -2.9310
  373SOL    HW2 1119   2.574   1.492   0.741  0.0046  1.0967 -0.4029
  374SOL     OW 1120   0.325   2.316   0.366  0.0621 -0.1011  0.0036
  374SOL    HW1 1121   0.311   2.229   0.427  0.3669 -3.9847  2.8958
  374SOL    HW2 1122   0.305   2.302   0.266 -0.1712 -0.3455 -2.5697
  375SOL     OW 1123   0.755   0.183   0.350  0.1607  0.0506 -0.0760
  375SOL    HW1 1124   0.843   0.151   0.392  0.0591 -1.2147  1.3483
  375SOL    HW2 1125   0.773   0.275   0.311  0.0559  1.3969 -0.7804
  376SOL     OW 1126   0.352   2.897   1.904  0.3689  0.1489  0.8204
  376SOL    HW1 1127   0.397   2.988   1.893  1.1246 -0.7886  0.0509
  376SOL    HW2 1128   0.326   2.877   2.001 -1.0924  1.6572 -0.7030
  377SOL     OW 1129   0.917   2.196   2.327  0.3933 -0.6207 -0.0282
  377SOL    HW1 1130   0.972   2.124   2.279  1.5077 -0.9639 -1.5903
  377SOL    HW2 1131   0.971   2.281   2.336 -0.2816  2.0720  0.4238
  378SOL     OW 1132   1.107   0.850   0.425 -0.0500  0.1257 -0.0976
  378SOL    HW1 1133   1.083   0.858   0.328 -0.1164 -0.7044  1.5683
  378SOL    HW2 1134   1.048   0.776   0.466  0.5190 -1.9073 -0.6002
  379SOL     OW 1135   0.752   1.630   2.839 -0.0826 -0.0345  0.4530
  379SOL    HW1 1136   0.715   1.643   2.930  0.0662  0.0197 -1.4404
  379SOL    HW2 1137   0.845   1.666   2.833 -0.1634  1.0062  0.9533
  380SOL     OW 1138   2.648   1.969   1.767  0.1490  0.1171 -0.1098
  380SOL    HW1 1139   2.648   1.886   1.824  0.8712  0.4410 -0.6667
  380SOL    HW2 1140   2.708   2.038   1.816  0.4553  1.4814 -0.8526
  381SOL     OW 1141   0.202   1.149   1.736  0.8826 -0.0860  0.3113
  381SOL    HW1 1142   0.286   1.191   1.769  0.5007  0.8233 -0.2682
  381SOL    HW2 1143   0.217   1.119   1.644 -0.1933  2.9277  3.9925
  382SOL     OW 1144   2.558   2.388   2.875  0.0488 -0.1221  0.3284
  382SOL    HW1 1145   2.483   2.455   2.858  0.7691 -2.4772 -0.4753
  382SOL    HW2 1146   2.596   2.380   2.968  2.3910  0.9795  1.7785
  383SOL     OW 1147   2.362   1.859   2.075  0.2061 -0.0233  0.7676
  383SOL    HW1 1148   2.376   1.764   2.114  2.4637  0.6741 -4.9059
  383SOL    HW2 1149   2.440   1.925   2.103  2.9579  0.4555  0.5359
  384SOL     OW 1150   0.726   2.246   2.149 -0.2604  0.2808 -0.0590
  384SOL    HW1 1151   0.795   2.223   2.221  1.0816 -1.6982 -1.2983
  384SOL    HW2 1152   0.731   2.342   2.122  0.5297 -1.7703 -0.0415
  385SOL     OW 1153   2.612   2.038   1.074  0.3479 -0.1689 -0.2086
  385SOL    HW1 1154   2.518   2.031   1.036 -0.0790 -2.3727  0.4117
  385SOL    HW2 1155   2.637   1.952   1.118  1.1163 -0.8110 -1.0208
  386SOL     OW 1156   1.920   0.381   0.147  0.0662  0.8522  0.4195
  386SOL    HW1 1157   2.010   0.337   0.145 -0.1310  1.0264 -0.3505
  386SOL    HW2 1158   1.904   0.423   0.237 -0.4356  0.1118  0.8095
  387SOL     OW 1159   0.552   0.726   1.857 -1.1398 -0.0338  0.0114
  387SOL    HW1 1160   0.588   0.671   1.777  2.9674 -3.3332 -2.3637
  387SOL    HW2 1161   0.454   0.710   1.882 -1.0974 -0.5735 -0.4893
  388SOL     OW 1162   2.808   1.017   2.056 -0.4806 -0.1418 -0.4019
  388SOL    HW1 1163   2.838   1.101   2.102 -0.2295 -4.4361  0.7147
  388SOL    HW2 1164   2.757   0.957   2.118 -0.9862 -0.4119 -1.8513
  389SOL     OW 1165   1.618   0.683   2.419 -0.4514  0.1139 -0.6965
  389SOL    HW1 1166   1.641   0.769   2.367  1.6800  1.9236 -1.3048
  389SOL    HW2 1167   1.591   0.605   2.358 -0.6968  0.5435  1.6298
  390SOL     OW 1168   1.644   2.191   0.044 -0.1219  0.0276  0.3587
  390SOL    HW1 1169   1.736   2.187   3.030 -0.8755 -0.6219 -4.1900
  390SOL    HW2 1170   1.658   2.239   0.136  0.3106  2.1300  0.6241
  391SOL     OW 1171   1.923   2.412   1.400 -0.3488 -0.3056 -0.2044
  391SOL    HW1 1172   1.829   2.379   1.387 -0.4027  0.1308 -0.8307
  391SOL    HW2 1173   1.917   2.512   1.388 -0.3773 -2.4804  0.7240
  392SOL     OW 1174   2.607   2.569   1.333  0.3022 -0.0799 -0.0532
  392SOL    HW1 1175   2.556   2.593   1.420  2.1766 -0.0170  0.1278
  392SOL    HW2 1176   2.694   2.622   1.320  0.4346  1.1677 -1.3115
  393SOL     OW 1177   1.771   1.645   2.797 -0.4358  0.5522  0.2641
  393SOL    HW1 1178   1.861   1.691   2.828  1.5754  4.4731  1.6285
  393SOL    HW2 1179   1.793   1.558   2.745  0.1129  0.4272 -0.2106
  394SOL     OW 1180   0.194   2.791   0.180  0.8538 -0.0510  0.2821
  394SOL    HW1 1181   0.189   2.788   0.080  1.0257  0.2633 -0.5808
  394SOL    HW2 1182   0.186   2.882   0.225 -0.6757  0.6032  1.7108
  395SOL     OW 1183   1.354   1.292   1.341 -0.3422  0.7120  0.4115
  395SOL    HW1 1184   1.406   1.365   1.296 -2.0978 -2.2348 -0.3905
  395SOL    HW2 1185   1.253   1.298   1.319  0.1288  1.3584 -0.3634
  396SOL     OW 1186   1.722   0.654   2.787 -0.0630 -0.0222 -0.3167
  396SOL    HW1 1187   1.694   0.573   2.733 -1.6061 -0.0970  1.6380
  396SOL    HW2 1188   1.673   0.652   2.879 -1.3623 -0.4035 -0.2304
  397SOL     OW 1189   0.092   0.808   2.845  0.1092  0.5473  0.2530
  397SOL    HW1 1190   0.048   0.801   2.757  1.1882 -1.1515  1.5802
  397SOL    HW2 1191   0.177   0.863   2.834  0.9146  3.5210 -0.7016
  398SOL     OW 1192   1.150   0.057   0.181 -0.3515 -0.5358  0.2122
  398SOL    HW1 1193   1.250   0.032   0.169  2.6065 -1.3257 -0.0859
  398SOL    HW2 1194   1.104   0.035   0.095  1.7807  0.2652  1.5983
  399SOL     OW 1195   2.143   2.958   2.004  0.5904  0.2866  0.3727
  399SOL    HW1 1196   2.221   2.896   1.988 -1.9465  1.7880  1.3874
  399SOL    HW2 1197   2.062   2.909   1.973  3.2400  1.8027  0.5294
  400SOL     OW 1198   0.033   1.576   2.456 -0.2697  0.0817  0.0339
  400SOL    HW1 1199   0.060   1.496   2.400 -1.2743  0.1643 -2.3862
  400SOL    HW2 1200   2.975   1.577   2.457  3.8721 -0.0565 -0.4030
  401SOL     OW 1201   0.717   0.011   0.155  0.6611  0.1270 -0.0842
  401SOL    HW1 1202   0.715   0.073   0.234 -0.1524 -2.6179 -1.7615
  401SOL    HW2 1203   0.758   0.060   0.075  2.3916 -0.4688 -1.4776
  402SOL     OW 1204   0.268   2.524   1.587 -0.4215  0.4122 -0.3386
  402SOL    HW1 1205   0.317   2.492   1.500  2.4519  1.9567 -0.8419
  402SOL    HW2 1206   0.331   2.570   1.653  0.9748  1.5976 -0.1167
  403SOL     OW 1207   0.783   1.390   1.265 -0.0625 -0.5593  0.7600
  403SOL    HW1 1208   0.758   1.293   1.263  1.3080  0.5822 -3.0437
  403SOL    HW2 1209   0.809   1.424   1.359 -2.2115 -0.9760  0.1902
  404SOL     OW 1210   2.761   2.677   1.605 -0.0411  0.8378  0.0201
  404SOL    HW1 1211   2.671   2.629   1.594 -0.5614  0.6370  3.6329
  404SOL    HW2 1212   2.812   2.694   1.516  0.0532 -1.2867 -2.7331
  405SOL     OW 1213   2.905   0.623   2.106  0.4099  0.6496 -0.4420
  405SOL    HW1 1214   2.808   0.587   2.083 -3.2251 -0.8033 -2.3930
  405SOL    HW2 1215   2.938   0.578   2.194  1.0066 -1.2020  0.2744
  406SOL     OW 1216   1.674   2.324   2.730 -0.1370 -0.0871 -0.4622
  406SOL    HW1 1217   1.699   2.293   2.822 -1.5806 -0.8608 -2.2421
  406SOL    HW2 1218   1.642   2.249   2.671  1.8647  2.5104  1.6203
  407SOL     OW 1219   1.700   1.909   0.953 -0.3688  0.3150  0.3044
  407SOL    HW1 1220   1.673   1.901   1.051  3.1937  1.4734 -0.4206
  407SOL    HW2 1221   1.735   1.818   0.924  0.2470 -0.0216  2.5181
  408SOL     OW 1222   0.588   0.329   1.985  0.1482 -0.0200 -0.1892
  408SOL    HW1 1223   0.532   0.248   1.961 -0.5461 -0.4385  0.8165
  408SOL    HW2 1224   0.687   0.313   1.966  3.3806 -2.1667 -0.0027
  409SOL     OW 1225   2.447   2.059   0.374 -0.2172  0.0385  0.1193
  409SOL    HW1 1226   2.387   2.047   0.454 -0.3020  0.2771  0.4058
  409SOL    HW2 1227   2.546   2.056   0.404  2.2608  1.8167  0.0778
  410SOL     OW 1228   2.315   1.592   0.413  0.6250 -0.4606  0.6118
  410SOL    HW1 1229   2.373   1.585   0.327 -0.4450 -1.7714 -0.1829
  410SOL    HW2 1230   2.366   1.637   0.490 -1.5582  2.0704 -1.4238
  411SOL     OW 1231   0.136   0.812   0.516 -0.1029  0.2350  0.0406
  411SOL    HW1 1232   0.180   0.766   0.595 -0.4662  1.2404  0.6182
  411SOL    HW2 1233   0.084   0.889   0.552  0.9331 -1.6422 -0.2644
  412SOL     OW 1234   1.912   0.480   0.383  0.4597  0.4618 -0.3081
  412SOL    HW1 1235   1.893   0.398   0.444  0.1684  0.5876 -0.8862
  412SOL    HW2 1236   1.974   0.543   0.432 -0.4460  0.2515 -0.5012
  413SOL     OW 1237   0.917   0.734   1.296  0.0706  0.8719  0.6864
  413SOL    HW1 1238   0.895   0.664   1.366 -0.1008  1.1620 -0.6448
  413SOL    HW2 1239   0.958   0.820   1.332  0.5626  2.6982  2.1487
  414SOL     OW 1240   0.147   1.553   3.034  0.1453  0.1013 -0.0866
  414SOL    HW1 1241   0.127   1.528   0.091 -1.8315 -0.9022  3.7492
  414SOL    HW2 1242   0.100   1.640   3.019  1.2650  1.0029 -0.0793
  415SOL     OW 1243   0.348   1.846   0.182 -0.0935  0.6186  0.2986
  415SOL    HW1 1244   0.405   1.927   0.201 -0.4590  0.0882 -0.6350
  415SOL    HW2 1245   0.368   1.811   0.089  0.0952  2.6226 -0.2284
  416SOL     OW 1246   1.685   0.650   0.309  0.3777 -0.5470 -0.0898
  416SOL    HW1 1247   1.734   0.742   0.320  0.5490  3.3196  1.5540
  416SOL    HW2 1248   1.750   0.576   0.330  0.6658 -2.2055 -2.0521
  417SOL     OW 1249   0.448   0.926   0.875  0.0030  0.8012 -0.3493
  417SOL    HW1 1250   0.362   0.945   0.923  3.2053 -0.1959  1.7557
  417SOL    HW2 1251   0.527   0.929   0.936 -0.3039  2.0894 -1.2785
  418SOL     OW 1252   2.330   1.133   2.653  1.1793 -0.2651  0.4967
  418SOL    HW1 1253   2.234   1.157   2.625  1.2603 -0.9001 -2.6316
  418SOL    HW2 1254   2.319   1.069   2.735  0.6031  0.5277 -0.9683
  419SOL     OW 1255   0.303   0.420   0.337 -0.1256  0.7435  0.1503
  419SOL    HW1 1256   0.364   0.482   0.388 -1.1491 -0.8914 -3.0648
  419SOL    HW2 1257   0.351   0.331   0.312 -1.1807 -0.5125 -0.0909
  420SOL     OW 1258   0.182   1.716   0.843  0.2738  0.1693  0.0519
  420SOL    HW1 1259   0.206   1.627   0.887 -1.3137  2.1257  0.6046
  420SOL    HW2 1260   0.264   1.780   0.847  2.1149  0.0185  0.1883
  421SOL     OW 1261   0.332   2.061   0.481  0.1023 -0.2323  0.6861
  421SOL    HW1 1262   0.338   2.036   0.579 -0.9342 -1.4490  2.4731
  421SOL    HW2 1263   0.417   2.035   0.434 -0.4219 -0.2943 -1.3764
  422SOL     OW 1264   2.784   0.565   1.381  0.2795 -0.9314 -0.2340
  422SOL    HW1 1265   2.867   0.591   1.327  0.9133  1.4679 -0.6795
  422SOL    HW2 1266   2.791   0.613   1.474 -1.2146  0.6127 -0.3174
  423SOL     OW 1267   1.729   1.668   0.821 -0.6466  0.0605  0.5168
  423SOL    HW1 1268   1.633   1.641   0.842 -0.3675  0.5509 -0.0044
  423SOL    HW2 1269   1.772   1.606   0.750 -0.7229 -2.2279 -1.0256
  424SOL     OW 1270   1.823   1.107   0.332  0.2913 -0.0958  0.0128
  424SOL    HW1 1271   1.890   1.185   0.317  1.6541 -0.1493  0.7380
  424SOL    HW2 1272   1.732   1.144   0.358 -0.3719  1.4241 -0.0868
  425SOL     OW 1273   2.898   0.091   1.928  0.5116 -0.0697 -0.0987
  425SOL    HW1 1274   2.978   0.150   1.964 -0.4478 -0.0615  0.1544
  425SOL    HW2 1275   2.844   0.061   2.005  1.2758  1.0490  0.6396
  426SOL     OW 1276   2.461   2.768   2.969 -0.3148  0.4723 -0.0176
  426SOL    HW1 1277   2.483   2.724   0.021  1.7964 -0.4025  2.2627
  426SOL    HW2 1278   2.538   2.762   2.896  2.4952  1.3428 -3.1976
  427SOL     OW 1279   0.838   0.783   2.332  0.6747 -0.5553  0.6029
  427SOL    HW1 1280   0.867   0.747   2.424 -0.5022  0.1256 -0.4079
  427SOL    HW2 1281   0.894   0.736   2.262 -2.2870 -1.0123  0.1884
  428SOL     OW 1282   2.005   0.729   2.460  0.4626  0.3996  0.4613
  428SOL    HW1 1283   2.066   0.798   2.418 -0.6092 -0.9165 -0.2024
  428SOL    HW2 1284   1.930   0.782   2.509 -2.5634 -0.8255  0.7525
  429SOL     OW 1285   2.489   0.322   0.544  0.4603 -0.2218  0.0582
  429SOL    HW1 1286   2.531   0.285   0.456  0.9139  0.8175  2.2874
  429SOL    HW2 1287   2.391   0.350   0.526  0.1832  1.7445 -3.2441
  430SOL     OW 1288   1.858   1.187   2.126 -0.1869 -0.6658 -0.5903
  430SOL    HW1 1289   1.902   1.177   2.218  0.1482  0.2621  1.1134
  430SOL    HW2 1290   1.894   1.116   2.057  3.5256 -0.2476 -1.1774
  431SOL     OW 1291   3.022   2.111   1.313 -0.5020  0.2185  0.7072
  431SOL    HW1 1292   3.021   2.203   1.267  0.4059 -0.8317 -1.3748
  431SOL    HW2 1293   3.001   2.109   1.408  0.2036 -0.2972 -0.8918
  432SOL     OW 1294   1.366   2.895   2.436  0.3589 -0.3975 -0.0752
  432SOL    HW1 1295   1.321   2.935   2.519 -1.2983  3.0893 -2.4230
  432SOL    HW2 1296   1.466   2.908   2.445  1.0187 -1.2417  0.1404
  433SOL     OW 1297   1.501   2.825   1.577  0.2441 -0.3927  0.7105
  433SOL    HW1 1298   1.574   2.838   1.510 -0.2613 -0.9000  1.0148
  433SOL    HW2 1299   1.524   2.866   1.668  0.4435 -2.2442 -0.5619
  434SOL     OW 1300   2.934   2.626   2.153  0.1053 -0.2296  0.0738
  434SOL    HW1 1301   3.005   2.675   2.210  0.5667  1.1909 -1.0467
  434SOL    HW2 1302   2.944   2.652   2.054  0.4268  0.9921 -0.7503
  435SOL     OW 1303   0.025   1.768   0.467  0.5898 -0.6612  0.4178
  435SOL    HW1 1304   0.124   1.754   0.481 -0.8307  0.4330 -0.8330
  435SOL    HW2 1305   3.040   1.759   0.371  3.1636 -1.4988  3.1243
  436SOL     OW 1306   0.936   1.190   1.542 -0.3774  0.1901 -0.2872
  436SOL    HW1 1307   0.899   1.107   1.504  0.0882  0.3308 -1.6249
  436SOL    HW2 1308   0.910   1.203   1.641 -1.7666  2.9998  2.4971
  437SOL     OW 1309   0.576   0.285   2.904  0.0185 -0.4337  0.1069
  437SOL    HW1 1310   0.578   0.377   2.949 -2.2099  2.5719  0.7656
  437SOL    HW2 1311   0.479   0.266   2.895 -0.3474  0.0186  1.8476
  438SOL     OW 1312   0.688   1.835   1.710  0.6425 -0.2924 -0.2536
  438SOL    HW1 1313   0.668   1.938   1.727 -2.4543  1.7176  0.1021
  438SOL    HW2 1314   0.730   1.816   1.618 -0.0041  0.4640  1.9947
  439SOL     OW 1315   1.869   1.056   2.756 -0.8074 -0.2604  0.5580
  439SOL    HW1 1316   1.894   1.025   2.848  0.4317 -0.6948 -2.1494
  439SOL    HW2 1317   1.846   0.968   2.712 -1.8992  1.6370 -1.2164
  440SOL     OW 1318   0.962   0.953   3.008 -0.3501  0.3806  0.6041
  440SOL    HW1 1319   1.059   0.965   3.028 -2.1103  0.4770 -0.2722
  440SOL    HW2 1320   0.904   0.953   0.050  1.2855  1.3173 -0.4368
  441SOL     OW 1321   0.391   2.873   1.606 -0.4535  0.1443  0.0009
  441SOL    HW1 1322   0.492   2.868   1.584  1.3074 -0.0272 -3.1124
  441SOL    HW2 1323   0.371   2.817   1.693 -3.3136 -1.8037  2.3817
  442SOL     OW 1324   2.168   2.347   0.775  0.8414 -0.0566  0.0232
  442SOL    HW1 1325   2.119   2.260   0.764  1.2104  1.8848 -2.0054
  442SOL    HW2 1326   2.111   2.431   0.754  0.5245  2.0764 -2.1331
  443SOL     OW 1327   2.662   1.365   2.429  0.8691 -0.0352 -0.3672
  443SOL    HW1 1328   2.644   1.296   2.501 -0.3672 -1.1022 -0.3474
  443SOL    HW2 1329   2.584   1.365   2.361 -0.6187  0.0194 -2.5919
  444SOL     OW 1330   1.200   0.835   2.501 -0.4191  0.5577 -0.5477
  444SOL    HW1 1331   1.281   0.805   2.553 -2.8808 -0.2008  2.3055
  444SOL    HW2 1332   1.133   0.872   2.570 -1.3696  0.7461  1.1330
  445SOL     OW 1333   2.232   2.792   1.735  0.7351 -0.2058 -0.2464
  445SOL    HW1 1334   2.319   2.838   1.754 -2.0045 -1.6778 -0.0539
  445SOL    HW2 1335   2.241   2.690   1.733 -2.3587 -1.9354  1.8749
  446SOL     OW 1336   2.704   1.785   0.369  0.0083  0.1792 -0.0729
  446SOL    HW1 1337   2.780   1.737   0.321 -1.1507  1.2569 -1.8364
  446SOL    HW2 1338   2.722   1.782   0.472 -0.6512  0.8546  2.6097
  447SOL     OW 1339   1.108   2.647   1.513 -0.0997  0.0465 -0.2204
  447SOL    HW1 1340   1.204   2.627   1.535  0.1210 -1.0727 -1.0385
  447SOL    HW2 1341   1.074   2.735   1.560 -0.6819 -0.6473  1.1706
  448SOL     OW 1342   1.667   1.610   1.966 -0.0276 -0.2876 -0.0519
  448SOL    HW1 1343   1.600   1.691   1.976 -1.8446 -0.8789 -0.9206
  448SOL    HW2 1344   1.631   1.528   2.016  1.6912 -1.1661  1.0909
  449SOL     OW 1345   0.140   1.977   2.221  0.4946 -0.1476  0.0556
  449SOL    HW1 1346   0.180   2.073   2.236  0.0306  1.0645  0.0512
  449SOL    HW2 1347   0.201   1.929   2.154 -1.2116  1.8403  0.1386
  450SOL     OW 1348   2.816   1.586   2.454  0.2379 -0.3066 -0.4652
  450SOL    HW1 1349   2.761   1.500   2.452  0.9833 -0.1816 -0.7746
  450SOL    HW2 1350   2.755   1.668   2.472 -2.0764  2.3422  0.2965
  451SOL     OW 1351   2.328   0.671   1.375  0.2924  0.2161 -0.0961
  451SOL    HW1 1352   2.382   0.598   1.426  0.1325  0.5387 -1.8062
  451SOL    HW2 1353   2.331   0.646   1.276  0.5723 -1.5704 -2.1063
  452SOL     OW 1354   0.979   1.850   1.155 -0.7104 -0.3239 -0.2520
  452SOL    HW1 1355   1.001   1.909   1.237  3.2774  0.9910  3.3995
  452SOL    HW2 1356   0.896   1.874   1.095 -0.8847  0.3828 -5.7742
  453SOL     OW 1357   1.179   2.090   0.562  0.0026  0.4411  0.0531
  453SOL    HW1 1358   1.267   2.118   0.523 -2.7891  0.5913  1.7659
  453SOL    HW2 1359   1.131   2.162   0.618 -0.5909 -0.5672  0.2773
  454SOL     OW 1360   0.280   1.120   0.598 -0.1017  0.3638 -0.5811
  454SOL    HW1 1361   0.315   1.190   0.667 -2.7993 -0.8043 -1.1190
  454SOL    HW2 1362   0.182   1.094   0.615 -2.2310 -1.2343 -0.3216
  455SOL     OW 1363   0.875   1.054   0.430  0.7853 -0.6681 -0.3371
  455SOL    HW1 1364   0.831   1.032   0.341 -0.5411 -0.5064  1.1568
  455SOL    HW2 1365   0.824   1.122   0.484 -3.3763  0.3052  1.5719
  456SOL     OW 1366   1.980   2.291   1.023 -0.4677 -1.1793 -0.0608
  456SOL    HW1 1367   2.033   2.309   1.114 -1.4588  1.5215  1.9424
  456SOL    HW2 1368   1.944   2.378   0.984  3.0260  0.5327 -1.9854
  457SOL     OW 1369   1.515   2.788   2.786 -0.3861  0.4805 -0.2948
  457SOL    HW1 1370   1.516   2.688   2.761  1.5995  1.0348  1.2444
  457SOL    HW2 1371   1.436   2.805   2.846  1.5815 -1.9226 -3.5609
  458SOL     OW 1372   2.558   0.052   2.996 -0.8564  0.1878  0.0172
  458SOL    HW1 1373   2.470   0.049   2.949 -0.3260 -1.4507  1.4450
  458SOL    HW2 1374   2.589   0.142   3.023  0.2931 -3.7812 -0.0214
  459SOL     OW 1375   2.204   0.353   2.107  0.0776  0.4416  0.4367
  459SOL    HW1 1376   2.133   0.416   2.141 -0.3026 -0.0470 -2.6950
  459SOL    HW2 1377   2.295   0.390   2.131 -0.6339  0.0849  1.6041
  460SOL     OW 1378   2.983   0.661   2.654  0.3228 -0.1589  0.8100
  460SOL    HW1 1379   2.998   0.562   2.645 -0.8781  0.1982  1.9753
  460SOL    HW2 1380   2.916   0.683   2.728 -2.3640  1.4372 -1.1347
  461SOL     OW 1381   2.911   2.023   0.771 -0.3517  0.4968 -0.4799
  461SOL    HW1 1382   2.971   1.970   0.835  3.7238  1.6776  3.1881
  461SOL    HW2 1383   2.845   1.963   0.721 -0.3600  1.5544  2.7327
  462SOL     OW 1384   0.035   0.355   0.928  0.4374 -0.0649  0.6856
  462SOL    HW1 1385   3.018   0.274   0.909 -0.6598 -0.7570  0.3091
  462SOL    HW2 1386   3.031   0.450   0.927  1.2553  0.6588  0.7737
  463SOL     OW 1387   2.280   1.291   0.225  0.1532  0.2375 -0.0788
  463SOL    HW1 1388   2.347   1.300   0.302  0.5819 -2.6549  0.6421
  463SOL    HW2 1389   2.324   1.325   0.140 -0.9508  0.3277 -1.9557
  464SOL     OW 1390   0.825   2.904   1.399 -0.0776 -0.4887 -0.0468
  464SOL    HW1 1391   0.869   2.992   1.384 -0.7879  0.5190  0.0309
  464SOL    HW2 1392   0.746   2.892   1.334 -0.0729 -0.5522  1.4524
  465SOL     OW 1393   1.372   0.359   1.356  0.1666  0.6284 -0.1099
  465SOL    HW1 1394   1.457   0.320   1.392  1.9741  0.2500 -0.6800
  465SOL    HW2 1395   1.297   0.349   1.430 -1.1390 -0.0168  3.4891
  466SOL     OW 1396   1.503   2.406   1.957 -0.3745  0.5846  0.2147
  466SOL    HW1 1397   1.599   2.431   1.987 -2.0464  1.4167  0.4953
  466SOL    HW2 1398   1.442   2.476   2.003 -1.6983  0.5325  1.7208
  467SOL     OW 1399   0.593   2.532   1.564  0.6822  0.4193 -0.3366
  467SOL    HW1 1400   0.542   2.516   1.477 -2.4631  1.0024 -1.6576
  467SOL    HW2 1401   0.690   2.542   1.540 -0.4060  0.0211  0.1353
  468SOL     OW 1402   2.909   1.649   2.021 -0.4424  0.1077 -0.3384
  468SOL    HW1 1403   2.946   1.560   2.002 -3.8399  0.8094 -2.8251
  468SOL    HW2 1404   2.946   1.683   2.106  0.7895 -1.3699 -1.4135
  469SOL     OW 1405   0.886   1.835   0.759  0.4600  0.2451  0.1423
  469SOL    HW1 1406   0.849   1.917   0.719  0.6243 -1.9216 -0.7862
  469SOL    HW2 1407   0.986   1.844   0.783 -0.2157 -1.2066 -3.8468
  470SOL     OW 1408   1.965   1.156   2.379 -0.0488 -0.1270 -0.0236
  470SOL    HW1 1409   1.984   1.061   2.342 -4.3740  0.5109  0.7815
  470SOL    HW2 1410   2.028   1.179   2.456 -0.2584 -0.2093  0.9725
  471SOL     OW 1411   0.292   2.328   0.117 -0.1994 -0.3011  0.4788
  471SOL    HW1 1412   0.209   2.350   0.063 -1.1975  1.2693  0.4581
  471SOL    HW2 1413   0.374   2.343   0.059  0.3484 -0.9396 -1.9327
  472SOL     OW 1414   0.047   2.779   2.314 -0.3678  0.6771  0.0291
  472SOL    HW1 1415   0.102   2.749   2.392 -0.4609 -2.7310  1.2299
  472SOL    HW2 1416   0.023   2.878   2.320 -0.2000  1.0792  1.2890
  473SOL     OW 1417   0.472   2.718   0.091  0.3177  0.6781  0.1845
  473SOL    HW1 1418   0.373   2.702   0.072  0.0653  0.5356  1.3169
  473SOL    HW2 1419   0.517   2.765   0.009  0.1518 -1.0947  0.3253
  474SOL     OW 1420   1.597   2.949   0.850  0.1407  0.8350 -0.1182
  474SOL    HW1 1421   1.647   2.891   0.782 -1.0739 -0.2787 -0.0254
  474SOL    HW2 1422   1.643   2.930   0.940  0.9714  1.8013  0.6817
  475SOL     OW 1423   1.456   3.024   1.330 -0.1450  0.7017 -0.5253
  475SOL    HW1 1424   1.357   0.004   1.338  0.8141 -0.1412 -1.2212
  475SOL    HW2 1425   1.518   0.053   1.369 -2.5403  1.3028  1.0306
  476SOL     OW 1426   0.597   1.216   0.923 -0.2796  0.1362  0.4657
  476SOL    HW1 1427   0.568   1.272   1.001 -1.4990  0.9297  1.3620
  476SOL    HW2 1428   0.626   1.127   0.951 -0.0850  4.0256 -1.2560
  477SOL     OW 1429   0.404   1.877   0.815 -0.2314 -0.2996  0.4607
  477SOL    HW1 1430   0.487   1.813   0.828  2.1460  0.4994  1.1168
  477SOL    HW2 1431   0.428   1.972   0.792 -1.7484 -0.0312 -1.1696
  478SOL     OW 1432   0.077   2.434   2.430  0.8338  0.3099  0.3300
  478SOL    HW1 1433   3.022   2.425   2.463 -0.2491 -0.6986 -1.6593
  478SOL    HW2 1434   0.084   2.390   2.338  2.0723 -0.0380  0.6871
  479SOL     OW 1435   3.037   0.595   1.249 -0.2126  0.3343 -0.6417
  479SOL    HW1 1436   3.002   0.689   1.229 -0.6065  0.3649 -0.0414
  479SOL    HW2 1437   0.088   0.598   1.299 -0.1882 -0.0847 -1.5017
  480SOL     OW 1438   2.690   2.385   0.078  0.3950 -0.1205 -0.1549
  480SOL    HW1 1439   2.714   2.310   0.148  0.5973 -1.5966 -0.2419
  480SOL    HW2 1440   2.653   2.476   0.114 -0.8306  2.4565 -0.4580
  481SOL     OW 1441   2.350   1.832   1.774  0.0859 -0.0668 -0.5539
  481SOL    HW1 1442   2.440   1.837   1.825  0.4367 -4.2169  0.4568
  481SOL    HW2 1443   2.346   1.908   1.706  1.9720 -2.5720  1.0646
  482SOL     OW 1444   1.941   1.741   2.484 -0.2548 -0.3877  0.1581
  482SOL    HW1 1445   1.977   1.769   2.388  0.3739  0.9581 -3.5345
  482SOL    HW2 1446   1.845   1.781   2.497  0.6652  0.7589  1.4071
  483SOL     OW 1447   0.965   1.215   1.835 -0.0688 -0.2067 -0.1110
  483SOL    HW1 1448   1.007   1.127   1.868 -0.7492  1.0293  1.0352
  483SOL    HW2 1449   1.030   1.293   1.856 -1.4661 -0.9372 -1.8513
  484SOL     OW 1450   0.266   0.612   1.332  0.1126  0.0501 -0.0553
  484SOL    HW1 1451   0.268   0.534   1.397 -0.5001 -1.6705 -1.7301
  484SOL    HW2 1452   0.298   0.578   1.241 -1.0207 -0.7655 -1.8491
  485SOL     OW 1453   2.314   1.071   0.064 -0.6501  0.1414  0.5067
  485SOL    HW1 1454   2.417   1.061   0.077  3.7705 -0.2113  1.8225
  485SOL    HW2 1455   2.283   1.143   0.126  0.3116  2.1317 -1.2983
  486SOL     OW 1456   1.473   0.199   1.915  0.2178 -0.0255 -0.2139
  486SOL    HW1 1457   1.497   0.138   1.839 -1.0385  0.8069  0.5139
  486SOL    HW2 1458   1.446   0.145   2.001 -0.9881  1.0869  0.5972
  487SOL     OW 1459   0.903   2.184   1.540 -0.3183 -0.7731  0.5537
  487SOL    HW1 1460   0.812   2.217   1.519 -0.0277 -0.7310  0.3817
  487SOL    HW2 1461   0.969   2.263   1.532  0.8623  3.9673 -0.8021
  488SOL     OW 1462   2.426   1.381   0.015  0.0004 -0.2634 -0.5690
  488SOL    HW1 1463   2.513   1.331   0.003 -1.4496  0.3550  0.7096
  488SOL    HW2 1464   2.385   1.408   2.969  1.8047 -2.8594  1.0767
  489SOL     OW 1465   1.950   2.623   0.523 -0.1959 -0.2623 -0.0092
  489SOL    HW1 1466   1.923   2.524   0.497 -0.1933  0.4223 -0.8414
  489SOL    HW2 1467   2.029   2.654   0.467  0.2165 -2.4343 -2.6567
  490SOL     OW 1468   0.614   2.189   2.857 -0.1156 -0.2592  0.2547
  490SOL    HW1 1469   0.565   2.111   2.809  0.3840 -0.7588  1.5344
  490SOL    HW2 1470   0.554   2.252   2.909  1.6456  0.4764  3.3867
  491SOL     OW 1471   1.085   1.331   1.340 -0.1393  0.1590 -0.0756
  491SOL    HW1 1472   1.074   1.414   1.273 -0.9125  1.6254  0.8676
  491SOL    HW2 1473   1.009   1.331   1.413 -3.4134  0.7154 -0.0102
  492SOL     OW 1474   1.044   0.400   2.191 -0.3185 -0.6738  0.0065
  492SOL    HW1 1475   1.060   0.475   2.259  0.1081 -0.2834  0.7356
  492SOL    HW2 1476   1.134   0.395   2.141  0.7446  2.2944  1.8565
  493SOL     OW 1477   1.973   1.774   0.595  0.2551 -0.1730 -0.2267
  493SOL    HW1 1478   1.970   1.716   0.508 -1.4534 -1.7100  0.6738
  493SOL    HW2 1479   1.888   1.823   0.615  3.4211 -1.6623 -0.5222
  494SOL     OW 1480   0.809   1.286   0.777 -0.3576 -0.2388  0.2977
  494SOL    HW1 1481   0.797   1.278   0.675  0.8707 -1.8133 -3.4425
  494SOL    HW2 1482   0.719   1.259   0.816 -0.7980 -1.0951  1.0353
  495SOL     OW 1483   2.432   2.342   0.660  0.3878 -0.4218 -0.3487
  495SOL    HW1 1484   2.416   2.284   0.579 -2.8430  0.2943 -0.0655
  495SOL    HW2 1485   2.340   2.361   0.706  1.0733  0.4026 -2.0905
  496SOL     OW 1486   2.503   0.274   1.392 -0.1917 -0.3389 -0.5083
  496SOL    HW1 1487   2.603   0.266   1.401  2.9254  0.6739 -1.8465
  496SOL    HW2 1488   2.477   0.247   1.300 -2.3510  0.3473  2.1896
  497SOL     OW 1489   2.397   0.914   2.448  0.0034  0.3629  0.7429
  497SOL    HW1 1490   2.453   0.952   2.373 -1.5038  3.1967 -1.6283
  497SOL    HW2 1491   2.395   0.972   2.530 -1.5112  0.7088 -0.8252
  498SOL     OW 1492   0.452   2.221   1.237  0.0105  0.4680 -0.2122
  498SOL    HW1 1493   0.369   2.163   1.248 -2.0238  1.6713  2.0977
  498SOL    HW2 1494   0.517   2.180   1.172  0.5660 -1.3598  2.3450
  499SOL     OW 1495   1.295   2.691   1.795  0.3934  0.1548  0.0281
  499SOL    HW1 1496   1.282   2.793   1.811  0.8982 -1.2711  1.8133
  499SOL    HW2 1497   1.305   2.673   1.693 -0.9977 -0.6722  0.9161
  500SOL     OW 1498   0.711   1.913   0.085  0.0707 -0.1613 -0.0227
  500SOL    HW1 1499   0.754   1.941   3.038  0.9953 -3.0496  0.0672
  500SOL    HW2 1500   0.645   1.843   0.063  0.0420  2.9831 -1.2109
  501SOL     OW 1501   1.788   2.943   1.151  0.3272 -0.0045 -0.2332
  501SOL    HW1 1502   1.846   2.903   1.073 -0.7346 -3.5231  1.6518
  501SOL    HW2 1503   1.714   2.872   1.175 -1.6671 -1.5710  0.5507
  502SOL     OW 1504   2.780   0.454   1.791  0.4405 -0.5407  0.4329
  502SOL    HW1 1505   2.779   0.356   1.761  0.6806  0.4569 -1.2302
  502SOL    HW2 1506   2.772   0.452   1.892  1.3126  1.0569  0.9137
  503SOL     OW 1507   2.644   1.117   1.873 -0.5858 -0.2420  0.0780
  503SOL    HW1 1508   2.543   1.102   1.878 -0.9494  1.0732 -0.6710
  503SOL    HW2 1509   2.695   1.061   1.941 -0.3734 -0.8645  0.0402
  504SOL     OW 1510   1.546   0.935   1.839 -0.8307  0.2058 -0.1605
  504SOL    HW1 1511   1.570   0.875   1.916 -1.2627  0.5342 -2.4232
  504SOL    HW2 1512   1.518   1.028   1.871  2.3917 -2.3345  1.7740
  505SOL     OW 1513   0.774   0.079   1.657  0.6174  0.2233 -0.2280
  505SOL    HW1 1514   0.742   3.023   1.669  0.6388 -0.1586  1.7257
  505SOL    HW2 1515   0.876   0.093   1.679  4.0919 -0.1082 -0.1395
  506SOL     OW 1516   0.170   0.285   0.614 -0.2417  0.3911 -0.1973
  506SOL    HW1 1517   0.155   0.312   0.514 -1.1072 -1.0945 -2.2302
  506SOL    HW2 1518   0.242   0.342   0.656  0.0761 -1.9913 -2.8340
  507SOL     OW 1519   2.453   0.543   2.955 -0.2493  0.1485 -0.1903
  507SOL    HW1 1520   2.486   0.480   3.026  0.3359  0.9941  1.1775
  507SOL    HW2 1521   2.355   0.520   2.931 -2.5332  1.7368 -1.8650
  508SOL     OW 1522   1.693   0.369   1.924  0.0053  0.2666  0.4198
  508SOL    HW1 1523   1.597   0.340   1.940  0.9663  1.0900 -0.3247
  508SOL    HW2 1524   1.698   0.442   1.852  0.3681 -0.7915 -0.9325
  509SOL     OW 1525   1.567   1.619   1.545 -0.2613  0.0279  0.6932
  509SOL    HW1 1526   1.593   1.530   1.586  0.8119 -0.4060  1.4881
  509SOL    HW2 1527   1.466   1.626   1.518  1.1237 -1.8815 -0.2229
  510SOL     OW 1528   2.522   1.376   1.227 -0.0146 -0.1083  0.0633
  510SOL    HW1 1529   2.443   1.315   1.237  1.8085 -0.8075  2.2725
  510SOL    HW2 1530   2.502   1.451   1.158  2.3710  0.5467 -0.1911
  511SOL     OW 1531   1.629   1.877   1.211  0.9203  0.1280  0.1431
  511SOL    HW1 1532   1.648   1.784   1.239 -0.0166 -1.5418 -0.4862
  511SOL    HW2 1533   1.703   1.938   1.237 -3.1268 -0.4783  0.0790
  512SOL     OW 1534   0.245   1.482   0.537 -0.4295 -0.2073 -0.6391
  512SOL    HW1 1535   0.337   1.448   0.561 -0.8370 -1.0233  2.0686
  512SOL    HW2 1536   0.253   1.580   0.510  2.8860  3.4718 -3.1404
  513SOL     OW 1537   0.073   1.818   0.203  1.1475  0.4127 -0.1205
  513SOL    HW1 1538   0.044   1.821   0.107 -1.4088  1.2003  0.6485
  513SOL    HW2 1539   0.171   1.825   0.224 -0.5865  1.0375 -1.7265
  514SOL     OW 1540   2.629   1.770   2.518  0.4143 -0.1075  0.2146
  514SOL    HW1 1541   2.636   1.859   2.569 -2.6401  0.2366 -0.7277
  514SOL    HW2 1542   2.532   1.739   2.531  0.1656  1.1932 -0.3829
  515SOL     OW 1543   1.970   1.192   0.813  0.2741 -0.0145 -0.3140
  515SOL    HW1 1544   1.891   1.201   0.754  2.8300 -0.7109  0.5793
  515SOL    HW2 1545   2.030   1.125   0.766 -1.2277  4.3585 -0.0535
  516SOL     OW 1546   1.941   2.707   0.107 -0.6175 -0.8433 -0.0696
  516SOL    HW1 1547   1.898   2.716   0.017 -0.0508  0.6466 -0.2691
  516SOL    HW2 1548   1.862   2.707   0.173 -0.5837  1.9386 -0.9139
  517SOL     OW 1549   0.726   1.879   2.450  0.2195  0.4070 -0.3214
  517SOL    HW1 1550   0.773   1.841   2.369 -0.0454  0.3939  0.6701
  517SOL    HW2 1551   0.661   1.954   2.423  0.5297 -4.2550 -0.3351
  518SOL     OW 1552   0.401   0.443   1.850 -0.0292  0.6583  0.0492
  518SOL    HW1 1553   0.307   0.450   1.886 -2.5699  1.0037  1.3456
  518SOL    HW2 1554   0.472   0.424   1.920 -0.7447  1.2086 -1.4213
  519SOL     OW 1555   0.337   1.128   0.333  0.6203 -0.2378  0.1410
  519SOL    HW1 1556   0.345   1.031   0.302 -2.6452  0.0737 -0.5441
  519SOL    HW2 1557   0.302   1.130   0.429  0.4625  1.0329 -1.3808
  520SOL     OW 1558   2.549   1.692   1.555  0.2115 -0.3096 -0.2566
  520SOL    HW1 1559   2.593   1.643   1.629 -1.6795  0.9123 -0.6708
  520SOL    HW2 1560   2.602   1.774   1.518 -1.0227  1.5964  0.8960
  521SOL     OW 1561   0.561   2.461   2.578  0.0395 -0.2776  0.1196
  521SOL    HW1 1562   0.616   2.373   2.561 -1.2180 -1.2122  1.2024
  521SOL    HW2 1563   0.516   2.498   2.491 -1.1520 -1.3716  0.2857
  522SOL     OW 1564   1.865   0.176   1.962 -0.3818 -0.0616  0.1260
  522SOL    HW1 1565   1.965   0.206   1.948  2.8386 -0.7023 -0.9016
  522SOL    HW2 1566   1.799   0.252   1.944  0.7198 -0.5666  0.7785
  523SOL     OW 1567   1.919   1.861   1.850  0.2595  0.7181  0.4463
  523SOL    HW1 1568   1.984   1.911   1.914  2.7039 -0.5668  0.7319
  523SOL    HW2 1569   1.934   1.759   1.857 -0.2885 -0.2344 -1.6801
  524SOL     OW 1570   0.497   2.751   0.375 -0.7041  0.0579 -0.6377
  524SOL    HW1 1571   0.467   2.762   0.279  2.0508 -1.5270 -1.1482
  524SOL    HW2 1572   0.600   2.734   0.377  0.7772 -0.0126 -0.2849
  525SOL     OW 1573   0.089   0.579   0.379  0.4736 -0.6412  0.3951
  525SOL    HW1 1574   0.126   0.656   0.437  0.1446  0.7383  0.6758
  525SOL    HW2 1575   0.159   0.515   0.350 -6.0478  0.3713 -0.6590
  526SOL     OW 1576   0.738   2.660   0.676  0.5658  0.6765 -0.6147
  526SOL    HW1 1577   0.766   2.716   0.757 -1.6640  2.5110 -0.1692
  526SOL    HW2 1578   0.637   2.639   0.677 -2.3687  0.3937 -2.7992
  527SOL     OW 1579   2.336   1.739   0.881 -0.3451  0.0351 -0.4201
  527SOL    HW1 1580   2.242   1.756   0.843 -1.2128  0.9581  1.9779
  527SOL    HW2 1581   2.345   1.641   0.904  0.9947  1.7958 -0.7769
  528SOL     OW 1582   2.951   3.020   2.428 -0.3394  0.3210 -0.1874
  528SOL    HW1 1583   2.860   0.024   2.454  0.4924 -0.8871  0.1151
  528SOL    HW2 1584   2.986   2.963   2.507  0.0802 -1.1432  3.3873
  529SOL     OW 1585   0.966   1.527   2.334 -0.3168  0.4900 -0.0373
  529SOL    HW1 1586   0.871   1.499   2.304  1.1229  1.0027  1.9949
  529SOL    HW2 1587   0.982   1.516   2.436 -0.3175 -0.3268  0.2707
  530SOL     OW 1588   1.663   1.220   2.797  0.3717  0.1357  0.1444
  530SOL    HW1 1589   1.574   1.187   2.770  1.3073  0.3210  1.2335
  530SOL    HW2 1590   1.735   1.151   2.780  1.8821  1.0699  1.6514
  531SOL     OW 1591   0.589   1.344   2.812  0.2501  0.1068  0.1377
  531SOL    HW1 1592   0.592   1.436   2.771  1.7050 -1.2506  0.1218
  531SOL    HW2 1593   0.529   1.278   2.759 -0.3895 -1.5683  1.6714
  532SOL     OW 1594   1.472   1.486   0.409 -0.2002  0.6200 -0.4153
  532SOL    HW1 1595   1.401   1.498   0.336 -1.9698 -1.3152 -0.4943
  532SOL    HW2 1596   1.554   1.546   0.410 -3.9703 -0.4515  1.5767
  533SOL     OW 1597   0.508   0.154   2.433  0.3137 -0.3614 -0.2822
  533SOL    HW1 1598   0.547   0.218   2.368 -0.8505 -2.3490  0.3089
  533SOL    HW2 1599   0.573   0.132   2.507  3.2494 -0.9253  2.0906
  534SOL     OW 1600   0.529   2.403   3.007  0.3261  0.3449  0.2791
  534SOL    HW1 1601   0.514   2.464   2.926 -1.9418  1.3628 -0.6455
  534SOL    HW2 1602   0.578   2.449   0.040  1.0870  0.2989 -1.3877
  535SOL     OW 1603   0.226   0.019   0.638 -0.3061 -0.1198 -0.3853
  535SOL    HW1 1604   0.262   3.032   0.729 -0.6803 -0.2725 -1.2906
  535SOL    HW2 1605   0.188   0.114   0.641 -2.5510  0.6544  0.7569
  536SOL     OW 1606   0.108   1.079   2.003 -0.1666  0.5026 -0.0080
  536SOL    HW1 1607   0.124   1.081   1.899 -0.9979  2.6901  0.2886
  536SOL    HW2 1608   0.094   0.985   2.029  0.1086  2.0031 -2.5544
  537SOL     OW 1609   1.189   0.021   1.339 -0.4083 -0.0999  0.1957
  537SOL    HW1 1610   1.096   0.059   1.331  2.2026 -1.2443 -2.4836
  537SOL    HW2 1611   1.205   2.986   1.267 -0.1396 -1.9384 -0.3199
  538SOL     OW 1612   2.800   1.822   0.628  0.2343  0.1389 -0.2110
  538SOL    HW1 1613   2.892   1.813   0.594 -3.5362  1.2991  1.6604
  538SOL    HW2 1614   2.790   1.766   0.713 -0.0730  2.0406 -0.6242
  539SOL     OW 1615   2.650   0.831   2.179 -0.3558 -0.3392  0.0401
  539SOL    HW1 1616   2.667   0.793   2.275 -0.6891  0.7405  0.8098
  539SOL    HW2 1617   2.620   0.755   2.116 -1.0676 -2.0977  0.3105
  540SOL     OW 1618   1.514   1.104   2.164  0.1503  0.3114  0.0255
  540SOL    HW1 1619   1.540   1.179   2.230  0.1712 -2.1278 -1.4672
  540SOL    HW2 1620   1.496   1.143   2.073 -0.6248  1.8856 -0.2331
  541SOL     OW 1621   0.793   0.859   1.904  0.4131 -0.0621 -0.4838
  541SOL    HW1 1622   0.843   0.807   1.979 -0.2022 -0.3259 -0.6077
  541SOL    HW2 1623   0.700   0.811   1.902 -0.1297 -1.4214 -1.3682
  542SOL     OW 1624   2.134   2.958   2.386  0.3989  0.6229 -0.5170
  542SOL    HW1 1625   2.034   2.943   2.397 -2.2484  0.6307  0.7586
  542SOL    HW2 1626   2.153   3.040   2.326 -0.4689  0.3015  0.1843
  543SOL     OW 1627   1.018   0.066   0.416  0.2553 -0.6566  0.3577
  543SOL    HW1 1628   1.028   3.029   0.482 -0.5503 -0.5562  1.5496
  543SOL    HW2 1629   1.081   0.058   0.330  2.4558  1.8067  0.0196
  544SOL     OW 1630   2.720   1.599   1.764 -0.2760 -0.0030 -0.1706
  544SOL    HW1 1631   2.726   1.503   1.798  0.2302  0.1938 -1.2090
  544SOL    HW2 1632   2.682   1.662   1.840 -1.5313  2.5191 -0.0277
  545SOL     OW 1633   2.073   2.100   1.711 -0.6765  0.2556 -0.3123
  545SOL    HW1 1634   2.167   2.079   1.677  0.8315  1.0492  0.0800
  545SOL    HW2 1635   1.996   2.042   1.672 -0.6443 -0.2483  0.3810
  546SOL     OW 1636   0.321   0.174   2.869  0.0356  0.0259 -0.3759
  546SOL    HW1 1637   0.298   0.105   2.800 -0.7608  1.6761  0.6020
  546SOL    HW2 1638   0.244   0.179   2.933 -0.0686  0.3438 -0.6830
  547SOL     OW 1639   1.807   0.863   0.412 -0.2523  0.2715 -0.0987
  547SOL    HW1 1640   1.730   0.838   0.480  0.2568 -0.8314  1.0647
  547SOL    HW2 1641   1.804   0.965   0.393 -1.7838  1.4648  1.4046
  548SOL     OW 1642   2.039   1.479   2.259 -0.2783  0.0055 -0.1021
  548SOL    HW1 1643   2.020   1.462   2.356 -1.9576  0.5956 -1.3360
  548SOL    HW2 1644   2.106   1.414   2.212  0.2277 -1.4159 -0.8307
  549SOL     OW 1645   1.991   2.958   0.601  0.2574 -0.4737 -0.3679
  549SOL    HW1 1646   2.061   2.972   0.528  0.9982 -0.4700 -0.4756
  549SOL    HW2 1647   2.011   3.020   0.684  1.6872  1.2235  3.5457
  550SOL     OW 1648   2.080   2.087   0.699  0.7150  0.1465  0.1830
  550SOL    HW1 1649   2.003   2.093   0.630 -0.4734 -0.9737  0.7631
  550SOL    HW2 1650   2.067   2.006   0.757 -2.3116 -0.3858 -2.1827
  551SOL     OW 1651   0.985   2.865   1.608  0.1104  0.5757 -0.0461
  551SOL    HW1 1652   0.943   2.877   1.513  1.3841 -0.3972 -2.7570
  551SOL    HW2 1653   1.003   2.949   1.659  0.6004 -1.3526 -1.4829
  552SOL     OW 1654   2.708   2.057   2.580  0.1463  0.1071 -1.0712
  552SOL    HW1 1655   2.762   2.043   2.671  1.5963 -0.2803  1.3041
  552SOL    HW2 1656   2.770   2.060   2.502 -2.4115 -1.9680  0.1007
  553SOL     OW 1657   0.303   3.003   0.907 -0.4567 -0.1339 -0.0852
  553SOL    HW1 1658   0.317   3.036   1.003  3.5083  2.3313 -1.3616
  553SOL    HW2 1659   0.240   2.924   0.898  1.8395  0.3751  0.0200
  554SOL     OW 1660   2.322   2.082   1.605  0.4325 -0.3467  0.0231
  554SOL    HW1 1661   2.309   2.063   1.502  0.6107  0.1463 -2.9532
  554SOL    HW2 1662   2.416   2.115   1.628 -0.1830 -1.1129  2.0927
  555SOL     OW 1663   1.162   2.219   1.844  0.6269 -0.2954  0.0900
  555SOL    HW1 1664   1.237   2.210   1.775 -0.4138 -0.4169  1.4305
  555SOL    HW2 1665   1.129   2.314   1.857  0.0640 -1.1177 -0.0472
  556SOL     OW 1666   1.141   1.871   1.720  0.1449 -0.7881 -0.0370
  556SOL    HW1 1667   1.068   1.941   1.723 -0.5852  0.9312  1.0513
  556SOL    HW2 1668   1.201   1.885   1.800 -0.3583 -1.6460  0.4161
  557SOL     OW 1669   1.902   2.239   2.240  0.2161 -0.0074  0.2881
  557SOL    HW1 1670   1.909   2.140   2.232 -0.7974 -0.4654 -3.4155
  557SOL    HW2 1671   1.956   2.283   2.310 -1.8429 -1.9424 -0.0491
  558SOL     OW 1672   0.421   2.620   1.781 -0.4055  0.2143 -0.1457
  558SOL    HW1 1673   0.454   2.663   1.864 -1.0680  0.2666 -1.4056
  558SOL    HW2 1674   0.500   2.594   1.718  1.7605 -0.7652 -1.2286
  559SOL     OW 1675   2.162   2.866   1.055 -0.2627 -0.4821  0.4361
  559SOL    HW1 1676   2.204   2.950   1.097  1.7606  0.1260  1.6042
  559SOL    HW2 1677   2.181   2.791   1.117  0.9674 -0.4483  3.1901
  560SOL     OW 1678   1.381   2.240   0.271 -0.4158  0.1155  0.1948
  560SOL    HW1 1679   1.304   2.171   0.286  0.7306  0.4090  0.3959
  560SOL    HW2 1680   1.468   2.186   0.275 -2.5093 -1.0612  1.2632
  561SOL     OW 1681   1.040   0.353   0.001  0.2399 -0.0078 -0.0868
  561SOL    HW1 1682   1.056   0.296   2.959 -1.7381  1.1234  0.1585
  561SOL    HW2 1683   1.088   0.443   0.003 -1.6241 -3.5398  2.6285
  562SOL     OW 1684   0.672   0.144   2.664  0.3198  0.3334 -0.0113
  562SOL    HW1 1685   0.631   0.207   2.730 -0.5351  0.9777 -1.6285
  562SOL    HW2 1686   0.768   0.166   2.649 -1.0582  0.5544  0.1557
  563SOL     OW 1687   1.283   1.811   2.778  0.0703 -0.1773 -0.4095
  563SOL    HW1 1688   1.364   1.773   2.833  0.6839 -0.1173  1.7054
  563SOL    HW2 1689   1.235   1.737   2.727  0.4480  0.0264  2.7236
  564SOL     OW 1690   2.275   1.113   1.033 -0.1466  0.0531 -0.5363
  564SOL    HW1 1691   2.358   1.070   1.070 -1.6501  2.5766 -2.5493
  564SOL    HW2 1692   2.276   1.109   0.935  0.2436  2.8648  2.8165
  565SOL     OW 1693   1.062   3.018   2.975  0.2923  0.2452 -0.1162
  565SOL    HW1 1694   0.972   2.966   2.983  0.2365 -2.0645  0.0596
  565SOL    HW2 1695   1.065   0.058   2.911  1.0795 -0.4760 -0.3897
  566SOL     OW 1696   1.614   0.085   2.380  1.0145  0.0390 -0.9174
  566SOL    HW1 1697   1.684   0.083   2.304 -0.7214  1.1540 -2.4826
  566SOL    HW2 1698   1.617   3.033   2.426 -0.0629 -0.6669 -0.4680
  567SOL     OW 1699   2.089   1.478   0.529 -0.6572  0.5766 -0.3307
  567SOL    HW1 1700   2.119   1.429   0.613  0.3320 -0.5720  2.6424
  567SOL    HW2 1701   2.174   1.526   0.493 -0.5149 -1.1381  0.7439
  568SOL     OW 1702   1.890   1.902   0.051  0.2644 -0.1939  0.2115
  568SOL    HW1 1703   1.987   1.883   0.065 -0.4525  0.6587  2.9534
  568SOL    HW2 1704   1.880   1.992   3.034 -1.2905  1.5232 -3.0419
  569SOL     OW 1705   2.089   1.170   2.951 -0.0880  0.1580  0.4235
  569SOL    HW1 1706   2.017   1.100   2.958  1.5875  3.9781 -0.2717
  569SOL    HW2 1707   2.168   1.142   3.007 -3.6780  0.9094 -2.2565
  570SOL     OW 1708   0.028   2.564   1.484 -0.7436 -0.0961 -0.0606
  570SOL    HW1 1709   0.015   2.668   1.480 -3.2386  0.6917  0.1917
  570SOL    HW2 1710   0.121   2.547   1.525  0.5538 -0.8631 -0.7871
  571SOL     OW 1711   0.273   0.832   1.937 -0.5772  0.3169  0.1399
  571SOL    HW1 1712   0.346   0.895   1.965  0.4424 -1.4668 -0.6420
  571SOL    HW2 1713   0.205   0.805   2.006  0.3469 -0.4115  2.6278
  572SOL     OW 1714   1.019   1.448   0.927 -0.3136  0.1315  0.6868
  572SOL    HW1 1715   0.951   1.391   0.879  1.0545 -0.7785  0.6152
  572SOL    HW2 1716   1.067   1.507   0.861  2.2880  0.8631  0.9258
  573SOL     OW 1717   0.998   1.754   2.849 -0.2832 -0.0704 -0.1775
  573SOL    HW1 1718   0.964   1.819   2.779  1.3365  1.1160  2.7810
  573SOL    HW2 1719   1.097   1.765   2.857 -0.9539  0.0058  0.1034
  574SOL     OW 1720   0.946   2.964   0.676  0.6434  0.7445  0.3148
  574SOL    HW1 1721   0.852   2.979   0.636  1.2426 -0.8640 -0.2271
  574SOL    HW2 1722   0.960   0.005   0.731 -2.1326 -0.6393 -0.9761
  575SOL     OW 1723   0.493   0.958   1.655 -0.3939 -0.4234 -0.2297
  575SOL    HW1 1724   0.412   0.897   1.650  0.5604  0.9541 -1.9305
  575SOL    HW2 1725   0.538   0.956   1.748  0.8550 -2.1401 -0.2367
  576SOL     OW 1726   1.954   0.036   1.395  0.3940  0.4220 -0.2675
  576SOL    HW1 1727   2.037   3.024   1.437 -1.3041 -4.9146  0.0535
  576SOL    HW2 1728   1.913   3.019   1.322  0.7450 -1.7564  1.3501
  577SOL     OW 1729   0.693   1.110   1.846 -0.0555  0.3270 -0.0204
  577SOL    HW1 1730   0.710   1.173   1.766  2.3097  1.3333  2.3965
  577SOL    HW2 1731   0.757   1.031   1.840 -3.2932 -0.5255 -1.4784
  578SOL     OW 1732   2.058   0.545   2.654  0.2711  0.2392  0.3368
  578SOL    HW1 1733   2.001   0.464   2.646 -1.0066  3.0031 -0.8772
  578SOL    HW2 1734   2.028   0.612   2.585 -0.9819  0.6835 -0.2225
  579SOL     OW 1735   2.265   2.537   1.722  0.2307 -0.3721 -0.0822
  579SOL    HW1 1736   2.320   2.472   1.783  2.8283  1.3933  1.6629
  579SOL    HW2 1737   2.189   2.484   1.680 -0.1186 -0.6474 -1.6296
  580SOL     OW 1738   2.071   1.212   2.630  0.1269 -0.0602 -0.3239
  580SOL    HW1 1739   2.075   1.313   2.633 -1.5379 -2.3871 -1.7342
  580SOL    HW2 1740   1.994   1.174   2.689 -2.3502 -3.8495  1.7992
  581SOL     OW 1741   1.264   1.183   2.983 -0.2942  0.0015  0.1742
  581SOL    HW1 1742   1.348   1.218   3.027 -0.6019 -0.1509 -0.0114
  581SOL    HW2 1743   1.230   1.102   3.033 -1.7679 -1.6394  1.0422
  582SOL     OW 1744   1.062   1.594   1.719  0.3176  0.2444 -0.0985
  582SOL    HW1 1745   1.140   1.529   1.715  0.7023  1.7917 -1.6993
  582SOL    HW2 1746   1.086   1.693   1.706 -0.8196 -0.3716  0.5171
  583SOL     OW 1747   1.848   1.206   1.372  0.1935 -0.6288  0.6693
  583SOL    HW1 1748   1.746   1.222   1.380 -1.0667  0.5106 -0.9478
  583SOL    HW2 1749   1.873   1.185   1.275  0.0307  2.4023  2.0387
  584SOL     OW 1750   1.585   2.455   0.548  0.2001 -0.0326  0.0060
  584SOL    HW1 1751   1.533   2.365   0.562  0.4270 -0.1341 -0.0867
  584SOL    HW2 1752   1.669   2.459   0.604  0.4786  0.9895 -0.4152
  585SOL     OW 1753   1.878   2.810   2.576 -0.1113  0.0644  0.8736
  585SOL    HW1 1754   1.899   2.712   2.548  1.2884 -1.6874  1.7907
  585SOL    HW2 1755   1.930   2.830   2.662 -1.6650  1.8297  0.8382
  586SOL     OW 1756   2.578   2.327   0.974  0.2942 -0.1850 -0.5569
  586SOL    HW1 1757   2.477   2.350   0.972 -0.6636  0.4167  0.1450
  586SOL    HW2 1758   2.597   2.228   0.995  0.9426  3.5447 -1.4245
  587SOL     OW 1759   1.044   1.708   0.112  0.0536  0.1147 -0.0123
  587SOL    HW1 1760   1.009   1.794   0.071 -0.5562  1.2887  1.5521
  587SOL    HW2 1761   1.115   1.663   0.060  2.0440 -0.1473  1.2883
  588SOL     OW 1762   0.478   0.307   0.922  0.3596 -0.4459 -0.9770
  588SOL    HW1 1763   0.536   0.319   1.008  1.1898 -0.0790  0.7322
  588SOL    HW2 1764   0.528   0.268   0.849 -3.0807  0.2447  2.0749
  589SOL     OW 1765   1.138   0.297   0.303 -0.0915  0.0079 -0.1479
  589SOL    HW1 1766   1.071   0.371   0.275  0.0740  3.5034  0.3936
  589SOL    HW2 1767   1.116   0.209   0.257 -0.3074  0.6322  0.4367
  590SOL     OW 1768   1.378   0.158   2.780 -0.5339 -0.0809  0.3848
  590SOL    HW1 1769   1.424   0.190   2.694 -1.4388  0.0019  1.6404
  590SOL    HW2 1770   1.450   0.131   2.851  3.2156 -3.0774 -1.0983
  591SOL     OW 1771   3.011   2.359   2.192  0.1067  0.2308 -0.3555
  591SOL    HW1 1772   0.009   2.331   2.104 -1.6896 -1.0701  1.0154
  591SOL    HW2 1773   2.946   2.434   2.185 -1.4458 -1.7029 -1.9496
  592SOL     OW 1774   2.686   1.457   2.044 -0.0579  0.9158 -0.5886
  592SOL    HW1 1775   2.724   1.382   1.976  0.1781 -0.8123  1.5205
  592SOL    HW2 1776   2.747   1.536   2.057  0.1444 -2.0024  0.6896
  593SOL     OW 1777   1.687   1.372   1.618 -0.0858 -0.2785 -1.0987
  593SOL    HW1 1778   1.648   1.318   1.542  1.7338  2.2340  1.0813
  593SOL    HW2 1779   1.717   1.310   1.693  0.6721  0.1668 -0.7573
  594SOL     OW 1780   2.815   1.188   0.200  0.1314 -0.2134 -0.0839
  594SOL    HW1 1781   2.893   1.130   0.231 -1.3596  0.3106  2.6826
  594SOL    HW2 1782   2.732   1.130   0.173  0.9463  1.6757 -2.1876
  595SOL     OW 1783   0.624   0.667   0.374  0.4476 -0.7490 -0.1468
  595SOL    HW1 1784   0.546   0.633   0.432  1.2794  0.1316 -1.7643
  595SOL    HW2 1785   0.691   0.722   0.435  1.0666 -0.6697  2.1561
  596SOL     OW 1786   0.517   1.251   1.439  0.0623  0.1671  0.2656
  596SOL    HW1 1787   0.481   1.347   1.444 -1.2719 -1.4235  2.1621
  596SOL    HW2 1788   0.441   1.187   1.466 -1.4286 -2.0640  3.1663
  597SOL     OW 1789   1.164   1.876   0.772  0.8345  0.1837 -0.2235
  597SOL    HW1 1790   1.169   1.927   0.859  1.9227 -0.0290 -4.1178
  597SOL    HW2 1791   1.168   1.932   0.690 -0.1855 -1.5268 -0.3947
  598SOL     OW 1792   0.108   0.172   1.739  0.8342  0.1585  0.2795
  598SOL    HW1 1793   0.112   0.164   1.841 -1.9301  0.5110 -0.9902
  598SOL    HW2 1794   0.070   0.079   1.711 -0.2509  0.2264  1.2316
  599SOL     OW 1795   0.294   1.388   2.611  0.4013  0.1497  0.0174
  599SOL    HW1 1796   0.212   1.426   2.654  0.6776 -0.1481 -2.1117
  599SOL    HW2 1797   0.286   1.399   2.509 -1.1067  1.5253 -2.3099
  600SOL     OW 1798   0.636   0.715   2.758 -0.1539 -0.3076 -0.2074
  600SOL    HW1 1799   0.631   0.799   2.704 -1.3403  0.0490  1.5042
  600SOL    HW2 1800   0.713   0.658   2.726  0.2227  2.0649 -0.6510
  601SOL     OW 1801   0.724   0.966   1.491  0.2640  0.1077  0.0587
  601SOL    HW1 1802   0.694   0.901   1.420  0.2686  0.1618  1.0950
  601SOL    HW2 1803   0.640   0.996   1.542 -0.0041  2.1435  1.7329
  602SOL     OW 1804   0.419   0.075   0.086 -0.3158  0.0402  0.6208
  602SOL    HW1 1805   0.515   0.091   0.101 -3.5854 -3.3009  1.0732
  602SOL    HW2 1806   0.388   0.106   3.034  2.0056  0.4465 -0.7784
  603SOL     OW 1807   1.437   2.640   2.449  0.2334  0.3162  0.6902
  603SOL    HW1 1808   1.458   2.633   2.549 -0.5937 -2.7798  0.2228
  603SOL    HW2 1809   1.371   2.717   2.423  0.8538  0.6572  2.4385
  604SOL     OW 1810   0.207   2.589   2.809 -0.0696 -0.1265  0.8374
  604SOL    HW1 1811   0.177   2.506   2.861 -0.8745 -0.5328  0.7646
  604SOL    HW2 1812   0.311   2.597   2.804  1.7813 -0.7932  1.0992
  605SOL     OW 1813   2.419   1.206   1.560  0.1294  0.0811  1.1034
  605SOL    HW1 1814   2.419   1.311   1.568  0.2161  0.0180  0.3689
  605SOL    HW2 1815   2.333   1.172   1.516  0.5445  0.9625 -0.4888
  606SOL     OW 1816   0.896   1.103   2.586 -0.5481  0.5383  0.5952
  606SOL    HW1 1817   0.848   1.162   2.658 -1.7638 -1.6016 -1.3264
  606SOL    HW2 1818   0.833   1.067   2.514 -1.6935 -2.2167 -1.4839
  607SOL     OW 1819   0.883   0.383   0.789  0.2874 -0.0546 -0.4290
  607SOL    HW1 1820   0.871   0.485   0.793  1.4762  1.6187  0.3289
  607SOL    HW2 1821   0.961   0.368   0.720  1.1342 -1.8139 -1.2692
  608SOL     OW 1822   2.837   1.556   1.523 -0.0813  0.2041  0.1643
  608SOL    HW1 1823   2.795   1.607   1.601  0.1339 -0.6387 -1.7925
  608SOL    HW2 1824   2.785   1.469   1.508  1.2020  0.1275  1.9791
  609SOL     OW 1825   2.264   0.423   0.418 -0.3923  0.2387  0.3884
  609SOL    HW1 1826   2.253   0.426   0.320  0.9371 -0.4633  2.0267
  609SOL    HW2 1827   2.299   0.510   0.460  1.0963  2.0987  2.6031
  610SOL     OW 1828   0.237   2.709   1.190  0.0858  0.1722 -0.1432
  610SOL    HW1 1829   0.255   2.798   1.232 -0.8109  1.2932 -2.4816
  610SOL    HW2 1830   0.144   2.705   1.149  0.4133 -2.2674  1.4202
  611SOL     OW 1831   1.507   1.780   0.262  0.4303  0.2362 -0.3731
  611SOL    HW1 1832   1.565   1.726   0.323  0.1351  0.3172 -1.8340
  611SOL    HW2 1833   1.556   1.818   0.181  0.4338  0.7916 -0.9223
  612SOL     OW 1834   0.481   0.104   1.851 -0.4448 -0.2770  0.0997
  612SOL    HW1 1835   0.562   0.042   1.854  0.7816 -1.8526  1.4131
  612SOL    HW2 1836   0.449   0.112   1.756  1.4777 -1.4280  0.5983
  613SOL     OW 1837   0.421   2.146   0.752  0.5208 -0.0551 -0.3365
  613SOL    HW1 1838   0.395   2.236   0.781 -0.6819 -2.0906 -0.1755
  613SOL    HW2 1839   0.491   2.137   0.679  0.3530 -0.0419  0.8751
  614SOL     OW 1840   2.130   0.183   1.914  0.2410 -0.6485 -0.1878
  614SOL    HW1 1841   2.167   0.246   1.986  0.7355 -2.5276 -0.2669
  614SOL    HW2 1842   2.153   0.087   1.935 -0.4517 -0.8458 -1.7825
  615SOL     OW 1843   1.354   1.452   0.657 -0.1933 -0.4043  0.0369
  615SOL    HW1 1844   1.394   1.458   0.563 -0.7582 -1.2090  1.0445
  615SOL    HW2 1845   1.272   1.512   0.658 -2.1740  2.7062  0.6063
  616SOL     OW 1846   1.834   1.478   0.647 -0.2151 -0.0683 -0.0828
  616SOL    HW1 1847   1.814   1.397   0.710  0.7525 -2.4674  0.3062
  616SOL    HW2 1848   1.913   1.455   0.594  2.1311  0.9368 -1.4550
  617SOL     OW 1849   1.648   0.632   0.014 -0.0831 -0.0238  0.0243
  617SOL    HW1 1850   1.611   0.730   0.017 -1.6475  0.7666  2.1225
  617SOL    HW2 1851   1.678   0.604   0.106  4.1231 -1.3325 -1.2549
  618SOL     OW 1852   0.866   0.486   1.772  0.3123 -0.3902  0.2571
  618SOL    HW1 1853   0.853   0.428   1.853  0.0213  1.1632 -0.4063
  618SOL    HW2 1854   0.797   0.453   1.706  0.6334 -0.7439  2.7225
  619SOL     OW 1855   0.398   1.518   1.427  0.0347  0.2137 -0.4140
  619SOL    HW1 1856   0.302   1.502   1.398 -1.1416 -0.4309  0.1401
  619SOL    HW2 1857   0.401   1.518   1.528  0.9093  2.8068 -1.7313
  620SOL     OW 1858   2.527   2.860   2.619  0.3400  0.3909 -0.4763
  620SOL    HW1 1859   2.586   2.928   2.578  0.4026 -2.3985  1.6665
  620SOL    HW2 1860   2.430   2.898   2.611 -1.1561  2.1807  0.3372
  621SOL     OW 1861   2.398   1.765   2.942 -0.1779 -0.0848  0.3128
  621SOL    HW1 1862   2.432   1.797   3.033  0.9346 -0.6455  3.2987
  621SOL    HW2 1863   2.395   1.842   2.876 -0.8912 -0.4098 -0.2593
  622SOL     OW 1864   1.277   0.571   2.765 -0.6348  0.0487 -0.0945
  622SOL    HW1 1865   1.319   0.528   2.845 -1.1720  1.4387 -1.8146
  622SOL    HW2 1866   1.344   0.626   2.707 -0.5507  4.2215 -0.5667
  623SOL     OW 1867   0.843   1.506   1.522 -0.5429 -0.2539 -0.2796
  623SOL    HW1 1868   0.930   1.516   1.575  1.0470  1.4740 -0.5197
  623SOL    HW2 1869   0.797   1.425   1.557 -0.9185  2.5877 -0.0501
  624SOL     OW 1870   2.825   0.100   0.408 -0.0919  0.0406  0.0529
  624SOL    HW1 1871   2.888   0.075   0.332 -1.8733  0.2837  0.7114
  624SOL    HW2 1872   2.867   0.161   0.473  0.8873  1.0587  0.0093
  625SOL     OW 1873   0.809   2.101   0.761 -0.5046  0.0718 -0.2603
  625SOL    HW1 1874   0.733   2.088   0.690 -2.6714 -2.9730 -0.9824
  625SOL    HW2 1875   0.880   2.170   0.739  0.7923  0.0312  1.4617
  626SOL     OW 1876   2.714   0.721   2.402  0.0224  0.2716  0.0953
  626SOL    HW1 1877   2.800   0.666   2.401  0.8094 -0.1574  1.6926
  626SOL    HW2 1878   2.640   0.685   2.462  0.6572  0.6294  0.4153
  627SOL     OW 1879   0.913   1.912   2.652 -0.2319  0.3161 -0.5439
  627SOL    HW1 1880   0.994   1.969   2.622  0.4465 -3.2068  0.3160
  627SOL    HW2 1881   0.849   1.898   2.576 -2.4958  1.2384 -0.3821
  628SOL     OW 1882   2.809   2.479   2.729 -0.2392  0.0576 -0.1797
  628SOL    HW1 1883   2.762   2.448   2.645  1.7392  0.1252 -1.8050
  628SOL    HW2 1884   2.743   2.544   2.772  0.2583 -0.2266  1.2345
  629SOL     OW 1885   0.950   2.967   2.572  0.1082 -0.3757 -0.0057
  629SOL    HW1 1886   0.964   2.868   2.548  1.0484  1.6287  0.7154
  629SOL    HW2 1887   0.922   3.028   2.497 -0.8947  0.1250  3.7525
  630SOL     OW 1888   0.853   0.285   1.971 -0.1482 -0.1955  0.3646
  630SOL    HW1 1889   0.920   0.286   2.052  2.1527 -1.7510  0.0724
  630SOL    HW2 1890   0.852   0.188   1.937 -1.2255 -1.9962  0.0246
  631SOL     OW 1891   2.103   1.023   0.420  0.0333  0.3954  0.1713
  631SOL    HW1 1892   2.136   0.939   0.374 -0.8900  0.2966 -0.9600
  631SOL    HW2 1893   2.015   1.057   0.386 -0.0938 -2.5344 -2.1191
  632SOL     OW 1894   2.535   0.154   1.786  0.2919  0.0491 -0.1762
  632SOL    HW1 1895   2.475   0.086   1.737  3.4425  1.6798 -1.0327
  632SOL    HW2 1896   2.619   0.158   1.732 -0.5850 -3.3869  1.2124
  633SOL     OW 1897   1.339   1.084   0.295 -0.5643  0.0900  1.0343
  633SOL    HW1 1898   1.257   1.136   0.329  2.7011 -0.5092 -0.8973
  633SOL    HW2 1899   1.349   0.996   0.347  1.6465 -3.0627  1.7312
  634SOL     OW 1900   2.608   2.714   2.077 -0.4095  0.4615 -0.0896
  634SOL    HW1 1901   2.638   2.649   2.002  1.8197 -0.5857 -2.6530
  634SOL    HW2 1902   2.627   2.682   2.169  1.9670 -1.3330 -0.4289
  635SOL     OW 1903   1.582   0.254   0.394  0.0662  0.5204 -0.0926
  635SOL    HW1 1904   1.547   0.162   0.367  1.2159 -2.1362  0.7597
  635SOL    HW2 1905   1.678   0.249   0.422 -0.3868 -1.3468 -1.3947
  636SOL     OW 1906   0.675   1.215   0.538  0.0054  0.1219 -0.0526
  636SOL    HW1 1907   0.637   1.254   0.447 -0.6693  2.0738 -2.9562
  636SOL    HW2 1908   0.618   1.136   0.563  0.6795  1.6358 -0.5793
  637SOL     OW 1909   2.451   2.007   0.087 -0.2120  0.0134 -0.2843
  637SOL    HW1 1910   2.522   1.935   0.109  2.9612 -1.7252  1.6911
  637SOL    HW2 1911   2.425   2.048   0.178 -2.0307  1.1606  2.6512
  638SOL     OW 1912   1.420   2.404   2.310 -0.1544  0.0453  0.2410
  638SOL    HW1 1913   1.424   2.415   2.212  1.1957 -0.4113 -0.9499
  638SOL    HW2 1914   1.408   2.501   2.346  0.2016  1.8043 -2.4815
  639SOL     OW 1915   1.429   1.844   0.639 -0.0527  0.5498  0.0765
  639SOL    HW1 1916   1.384   1.823   0.551  0.2532  0.1600  1.3209
  639SOL    HW2 1917   1.360   1.892   0.696  0.3146 -2.1389 -1.6345
  640SOL     OW 1918   2.125   2.752   0.327 -0.0128  0.3469  0.1411
  640SOL    HW1 1919   2.056   2.724   0.259 -3.2444 -1.8766  2.1299
  640SOL    HW2 1920   2.124   2.852   0.350  1.4332  0.4895 -1.5785
  641SOL     OW 1921   2.837   0.536   2.999  0.1468  0.2097  0.4688
  641SOL    HW1 1922   2.834   0.528   0.061  0.3713  0.4822  2.3699
  641SOL    HW2 1923   2.845   0.441   2.966 -2.0720 -1.1841 -0.6238
  642SOL     OW 1924   0.545   0.585   1.182 -0.6845 -0.5810  0.0144
  642SOL    HW1 1925   0.455   0.574   1.141  1.7784 -1.7970  2.0643
  642SOL    HW2 1926   0.583   0.494   1.204  0.3801  0.1923  1.5447
  643SOL     OW 1927   0.690   1.243   2.226 -0.0016  0.1106  0.1176
  643SOL    HW1 1928   0.594   1.225   2.186 -1.7941 -1.3472  1.3381
  643SOL    HW2 1929   0.690   1.321   2.294 -1.2369 -0.5291 -0.9551
  644SOL     OW 1930   1.533   2.032   0.393 -0.0553  0.5857 -0.5339
  644SOL    HW1 1931   1.491   1.950   0.345 -0.3327 -1.6654 -0.6714
  644SOL    HW2 1932   1.634   2.023   0.384  1.0198 -0.2993 -0.7705
  645SOL     OW 1933   1.264   1.991   0.245 -0.3610 -0.0671 -0.0320
  645SOL    HW1 1934   1.286   1.955   0.153 -1.7668  0.8636 -0.0814
  645SOL    HW2 1935   1.268   1.924   0.318 -0.1799  1.0847 -0.6473
  646SOL     OW 1936   0.182   1.782   2.733 -0.0635 -0.5221 -0.4978
  646SOL    HW1 1937   0.216   1.737   2.649 -1.0333  1.0963  2.1535
  646SOL    HW2 1938   0.158   1.878   2.704 -0.0882 -0.7545 -0.2762
  647SOL     OW 1939   1.118   0.278   1.056  0.2153  0.0532 -0.8266
  647SOL    HW1 1940   1.215   0.261   1.068 -0.7287  1.9397 -3.5878
  647SOL    HW2 1941   1.088   0.372   1.076 -1.2993  0.7098 -2.0767
  648SOL     OW 1942   1.453   0.348   0.822 -0.2398  0.5253  0.4688
  648SOL    HW1 1943   1.421   0.320   0.911 -0.4453  0.7375 -1.2140
  648SOL    HW2 1944   1.496   0.265   0.771  0.7366 -1.9961  1.8085
  649SOL     OW 1945   1.077   1.616   0.355  0.9693  0.0783  0.1592
  649SOL    HW1 1946   1.042   1.683   0.283 -1.7256 -1.1373  1.5071
  649SOL    HW2 1947   1.090   1.521   0.315 -0.4698 -2.1235  0.8916
  650SOL     OW 1948   2.452   1.425   1.864 -0.2711 -0.0654  0.6667
  650SOL    HW1 1949   2.551   1.403   1.843  1.5976 -1.0722  0.4434
  650SOL    HW2 1950   2.451   1.495   1.934  1.1100 -2.0839 -1.5400
  651SOL     OW 1951   1.548   2.024   2.809  0.4851 -0.2618  0.2010
  651SOL    HW1 1952   1.514   2.107   2.858 -3.3262 -2.2141 -3.0016
  651SOL    HW2 1953   1.597   2.045   2.726 -0.8461  0.9279  2.4638
  652SOL     OW 1954   2.451   1.602   0.181 -0.6904  0.0125  0.2014
  652SOL    HW1 1955   2.518   1.674   0.148 -0.8902  1.9016 -1.4468
  652SOL    HW2 1956   2.450   1.527   0.113 -0.1706  0.4883 -1.7608
  653SOL     OW 1957   0.276   0.455   0.827  0.0214  0.1493  0.2627
  653SOL    HW1 1958   0.354   0.388   0.839 -0.5156 -2.0642 -1.4315
  653SOL    HW2 1959   0.188   0.411   0.849  1.9225  0.0635  0.4794
  654SOL     OW 1960   2.851   0.183   2.203 -0.0781  0.1500 -0.3006
  654SOL    HW1 1961   2.756   0.151   2.232 -0.8947 -0.8249 -0.7035
  654SOL    HW2 1962   2.926   0.124   2.236  0.2204 -2.1518  0.9970
  655SOL     OW 1963   0.308   2.392   0.765  0.6235 -0.5635  0.2092
  655SOL    HW1 1964   0.284   2.472   0.707 -1.3254 -1.7441 -0.4374
  655SOL    HW2 1965   0.245   2.318   0.729  0.1551  0.3925 -0.1860
  656SOL     OW 1966   0.001   2.915   2.664  0.0364 -0.4501 -0.0201
  656SOL    HW1 1967   3.027   2.817   2.669  1.0008 -0.7308  0.6930
  656SOL    HW2 1968   3.010   2.957   2.754  2.0016  0.2480  1.0007
  657SOL     OW 1969   0.215   1.181   0.073 -0.2014  0.2840 -0.5485
  657SOL    HW1 1970   0.237   1.227   0.162 -0.7420  3.2174  0.9277
  657SOL    HW2 1971   0.299   1.150   0.031 -2.1146 -0.9633  0.4849
  658SOL     OW 1972   2.382   1.795   1.224  0.0199  0.0407 -0.2591
  658SOL    HW1 1973   2.356   1.879   1.175  2.2044  0.6838  0.1883
  658SOL    HW2 1974   2.340   1.794   1.318  2.3342  1.6300 -0.7015
  659SOL     OW 1975   1.545   2.592   0.116 -0.4114  0.6617 -0.1595
  659SOL    HW1 1976   1.483   2.516   0.083  3.0029 -1.7304 -0.3763
  659SOL    HW2 1977   1.596   2.648   0.046 -2.4552  0.5046 -0.4347
  660SOL     OW 1978   1.529   0.960   2.763  0.4405 -0.4384 -0.7270
  660SOL    HW1 1979   1.565   0.972   2.668  1.2785  1.0811 -2.2367
  660SOL    HW2 1980   1.463   1.035   2.776 -2.4257  2.3628  1.6826
  661SOL     OW 1981   0.225   2.050   1.231 -0.1702  0.0182 -0.0109
  661SOL    HW1 1982   0.222   2.094   1.138 -1.8881 -0.7071  1.5658
  661SOL    HW2 1983   0.130   2.047   1.264  2.5181 -1.2614 -0.1911
  662SOL     OW 1984   0.347   0.487   0.014  0.0529 -0.1874 -0.0988
  662SOL    HW1 1985   0.288   0.548   3.001 -0.7745  2.7278 -1.4121
  662SOL    HW2 1986   0.286   0.446   0.083  0.6236 -1.8777 -1.0097
  663SOL     OW 1987   2.282   1.787   1.476 -0.4783 -0.3646 -0.1176
  663SOL    HW1 1988   2.233   1.702   1.452  2.9734 -0.7365 -0.6327
  663SOL    HW2 1989   2.373   1.760   1.514 -2.0106  0.6029  0.3310
  664SOL     OW 1990   0.986   1.135   1.127 -0.3735  0.1779 -0.1820
  664SOL    HW1 1991   0.889   1.135   1.166 -0.5716  0.8047 -1.1701
  664SOL    HW2 1992   1.049   1.196   1.180 -0.8308 -0.7862 -0.1438
  665SOL     OW 1993   1.888   2.648   2.035 -0.0381  0.3898 -0.1156
  665SOL    HW1 1994   1.823   2.708   2.086 -0.2548 -0.7922  0.5669
  665SOL    HW2 1995   1.923   2.702   1.957  0.4627  0.3831  1.2353
  666SOL     OW 1996   2.792   2.681   0.239 -0.4154 -0.0921  0.5337
  666SOL    HW1 1997   2.863   2.603   0.252 -0.3240 -0.4787  0.4519
  666SOL    HW2 1998   2.808   2.750   0.310  0.3547  1.1285  1.2834
  667SOL     OW 1999   2.778   1.102   1.612 -0.2680  0.0123 -0.2440
  667SOL    HW1 2000   2.726   1.039   1.555  3.4544  1.8484 -0.2242
  667SOL    HW2 2001   2.750   1.100   1.710  1.0100 -0.4281  0.1007
  668SOL     OW 2002   0.366   0.738   2.560  0.3575  0.7189 -0.0795
  668SOL    HW1 2003   0.378   0.726   2.663  0.8500  0.8562  1.7261
  668SOL    HW2 2004   0.266   0.730   2.532 -3.6171  0.0921 -1.1800
  669SOL     OW 2005   2.229   1.896   2.369  0.0311 -0.2919 -0.0182
  669SOL    HW1 2006   2.179   1.853   2.293 -1.3073  0.0502 -0.0812
  669SOL    HW2 2007   2.277   1.976   2.330 -1.2065 -0.9538  2.6771
  670SOL     OW 2008   2.764   1.348   1.805 -0.0536  0.5710 -0.0282
  670SOL    HW1 2009   2.722   1.255   1.825  0.0857  0.7496 -1.1915
  670SOL    HW2 2010   2.851   1.343   1.753  0.7597  1.2559  1.8490
  671SOL     OW 2011   2.842   1.380   0.796  0.6543  0.1798  0.4043
  671SOL    HW1 2012   2.920   1.443   0.775  0.1749 -0.9246  0.3665
  671SOL    HW2 2013   2.754   1.408   0.752 -3.4027 -0.2028 -0.0145
  672SOL     OW 2014   2.407   0.692   2.095 -0.0625 -0.0537  0.2104
  672SOL    HW1 2015   2.318   0.736   2.115 -1.4820  1.6254 -0.6695
  672SOL    HW2 2016   2.458   0.738   2.021 -2.5231  1.0561  2.0942
  673SOL     OW 2017   2.490   0.088   2.317 -0.5200 -0.1102  0.8331
  673SOL    HW1 2018   2.465   0.132   2.226 -0.8740 -1.5304 -0.3419
  673SOL    HW2 2019   2.494   3.027   2.299 -0.6708 -0.5046 -0.7826
  674SOL     OW 2020   1.528   2.397   1.404  0.2494 -0.2000 -0.4465
  674SOL    HW1 2021   1.545   2.372   1.502 -1.1861 -1.2908 -2.3328
  674SOL    HW2 2022   1.611   2.380   1.349 -0.2684  2.7105  3.3543
  675SOL     OW 2023   0.831   0.659   0.767 -0.2560 -0.1655  0.6808
  675SOL    HW1 2024   0.819   0.681   0.868 -1.0748  0.7790 -2.3420
  675SOL    HW2 2025   0.797   0.731   0.701 -0.4042 -1.1132 -1.0629
  676SOL     OW 2026   1.663   0.955   0.826  0.0838 -0.0649  0.3048
  676SOL    HW1 2027   1.699   1.050   0.801  1.9120  2.7879  0.4366
  676SOL    HW2 2028   1.610   0.911   0.754  2.2937  2.5617  0.1186
  677SOL     OW 2029   2.513   1.307   2.204  0.0264  0.4874  0.3705
  677SOL    HW1 2030   2.509   1.205   2.219 -0.3909 -1.4712  1.5525
  677SOL    HW2 2031   2.597   1.332   2.153  1.1129 -0.9970  1.5320
  678SOL     OW 2032   2.639   1.765   1.108 -0.0372  0.4609 -0.0101
  678SOL    HW1 2033   2.715   1.713   1.153 -0.2533 -0.6991  1.4459
  678SOL    HW2 2034   2.547   1.745   1.148  0.0945 -0.3352  1.7585
  679SOL     OW 2035   2.195   2.623   0.084  0.3993 -0.2370 -0.0172
  679SOL    HW1 2036   2.203   2.650   0.182  1.6657 -1.7301  0.4350
  679SOL    HW2 2037   2.098   2.634   0.054  0.5015  1.1927 -2.1078
  680SOL     OW 2038   0.088   2.290   1.935  0.0615 -0.4352 -0.0168
  680SOL    HW1 2039   0.148   2.288   1.851 -1.7908  1.4085 -1.9707
  680SOL    HW2 2040   0.056   2.194   1.959 -0.5369 -0.8650  0.4204
  681SOL     OW 2041   0.680   1.312   1.641 -0.2985  0.6620  0.6784
  681SOL    HW1 2042   0.613   1.277   1.572  1.9512  2.1668  0.5011
  681SOL    HW2 2043   0.632   1.373   1.706 -1.3744 -0.7710 -0.5431
  682SOL     OW 2044   1.195   2.607   0.738 -0.1852  0.0196 -0.1970
  682SOL    HW1 2045   1.246   2.537   0.681  2.3917 -0.1788 -1.9934
  682SOL    HW2 2046   1.126   2.558   0.800 -0.9536 -0.9114  1.2881
  683SOL     OW 2047   2.125   1.429   0.811  0.0344  0.1560  0.2551
  683SOL    HW1 2048   2.062   1.483   0.872 -1.9527  1.2086  1.0912
  683SOL    HW2 2049   2.099   1.331   0.817 -2.6610  0.8756  1.0161
  684SOL     OW 2050   0.413   2.267   1.932 -0.1228  0.2134  0.1211
  684SOL    HW1 2051   0.432   2.182   1.983 -1.4573  0.3598 -2.8150
  684SOL    HW2 2052   0.347   2.256   1.849 -2.7327 -0.0575 -0.2938
  685SOL     OW 2053   1.496   1.680   2.904  0.5415 -0.3381 -0.6297
  685SOL    HW1 2054   1.522   1.752   2.974  1.0380  1.1679  0.6955
  685SOL    HW2 2055   1.574   1.630   2.869 -2.6712  2.2691  0.7631
  686SOL     OW 2056   3.021   0.878   1.282 -0.1138  0.0386 -0.2062
  686SOL    HW1 2057   2.983   0.965   1.315 -0.0104  2.2216  0.9925
  686SOL    HW2 2058   0.061   0.854   1.337 -0.9269 -1.9787  1.2832
  687SOL     OW 2059   0.845   2.284   2.748 -0.1890 -0.1186 -0.2318
  687SOL    HW1 2060   0.783   2.258   2.825  1.3087 -0.2728 -0.4327
  687SOL    HW2 2061   0.791   2.283   2.662  0.3583 -0.4338  1.6661
  688SOL     OW 2062   2.618   1.771   1.947  0.1452 -0.2266 -0.4706
  688SOL    HW1 2063   2.525   1.735   1.960 -1.7510  1.6138  0.6013
  688SOL    HW2 2064   2.678   1.778   2.032  1.9822  1.6527 -0.4774
  689SOL     OW 2065   1.990   0.545   1.932  0.5270  0.1695  0.5026
  689SOL    HW1 2066   2.088   0.554   1.898  1.5282 -0.5649  0.5801
  689SOL    HW2 2067   1.925   0.561   1.854  0.4123 -0.7708 -0.8414
  690SOL     OW 2068   2.062   0.936   1.084 -0.1101 -0.3191 -0.2730
  690SOL    HW1 2069   2.140   0.995   1.059 -5.3253  0.5754 -0.5415
  690SOL    HW2 2070   2.002   0.909   1.004  0.9537  0.6924  0.9937
  691SOL     OW 2071   0.815   1.617   1.823 -0.3264  0.3582  0.4195
  691SOL    HW1 2072   0.767   1.703   1.805 -1.2716  1.8723  0.8726
  691SOL    HW2 2073   0.906   1.606   1.771  2.2969 -1.7551 -0.5686
  692SOL     OW 2074   2.044   0.297   1.437 -0.5661  0.2158 -0.1312
  692SOL    HW1 2075   2.053   0.318   1.537  0.5869  1.3603  1.9442
  692SOL    HW2 2076   2.026   0.199   1.423  1.3910 -0.7205 -0.6352
  693SOL     OW 2077   0.415   1.170   2.177 -0.5202  0.1988 -0.1888
  693SOL    HW1 2078   0.370   1.118   2.252  1.4215  1.4454 -1.9226
  693SOL    HW2 2079   0.420   1.114   2.090  0.1121 -2.7123  3.0525
  694SOL     OW 2080   1.758   2.777   1.395 -0.1371  0.1954  0.5192
  694SOL    HW1 2081   1.681   2.791   1.326  1.8968  0.7388  2.6660
  694SOL    HW2 2082   1.841   2.738   1.345 -0.0553  1.4497 -0.1486
  695SOL     OW 2083   1.431   1.188   1.898  0.2946  0.3491  0.2813
  695SOL    HW1 2084   1.339   1.152   1.879 -0.7717  3.8685  0.4027
  695SOL    HW2 2085   1.434   1.286   1.866 -0.0844 -1.0148 -0.5294
  696SOL     OW 2086   1.360   0.028   0.603 -0.5353 -0.1300  0.2197
  696SOL    HW1 2087   1.292   0.098   0.571 -1.2819  0.1862 -0.8983
  696SOL    HW2 2088   1.309   3.001   0.663 -0.5228  1.9996  0.1109
  697SOL     OW 2089   1.131   0.230   0.608 -0.0340 -0.3098 -0.0346
  697SOL    HW1 2090   1.165   0.324   0.595 -0.3500 -2.2449  0.0059
  697SOL    HW2 2091   1.102   0.193   0.516 -2.4531  0.8201 -0.7261
  698SOL     OW 2092   1.374   1.187   2.737 -0.6434  0.1874  0.6427
  698SOL    HW1 2093   1.363   1.260   2.668  1.9462 -0.1639 -1.1231
  698SOL    HW2 2094   1.322   1.209   2.821  2.2075 -1.7232 -0.1676
  699SOL     OW 2095   1.440   1.412   1.092  0.2909  0.5132  0.0774
  699SOL    HW1 2096   1.415   1.508   1.109 -0.0896  0.3331 -0.9940
  699SOL    HW2 2097   1.360   1.351   1.060  0.8674 -1.6094  2.1025
  700SOL     OW 2098   1.559   3.025   0.364  0.2506  0.6436 -0.8013
  700SOL    HW1 2099   1.495   3.013   0.440 -1.7733 -2.2961 -0.1492
  700SOL    HW2 2100   1.652   2.981   0.387 -2.3466  0.7694  1.8136
  701SOL     OW 2101   0.098   0.189   2.003  0.1092 -0.3114 -0.5695
  701SOL    HW1 2102   0.136   0.286   2.008  0.8118  0.3529 -0.6943
  701SOL    HW2 2103   0.093   0.143   2.092  3.5127 -1.3569 -1.4119
  702SOL     OW 2104   1.066   2.758   0.277  0.4550  0.0879 -0.1531
  702SOL    HW1 2105   1.164   2.785   0.257  1.3957 -0.4833  2.0588
  702SOL    HW2 2106   1.055   2.737   0.376 -0.6447 -0.0758 -1.4386
  703SOL     OW 2107   2.435   2.622   2.552 -0.4018  0.0351 -0.1476
  703SOL    HW1 2108   2.357   2.641   2.490  2.9443  0.9091 -0.9018
  703SOL    HW2 2109   2.479   2.718   2.564  0.4145  2.2680  0.2026
  704SOL     OW 2110   0.712   2.219   0.975 -0.0417 -0.1688 -0.7786
  704SOL    HW1 2111   0.749   2.189   0.885 -1.5989  0.2988  0.8188
  704SOL    HW2 2112   0.653   2.140   1.022 -4.1316 -2.7660  0.2352
  705SOL     OW 2113   0.003   0.630   1.840  0.0859  0.0881  0.2359
  705SOL    HW1 2114   2.965   0.685   1.879 -0.4557 -0.3411  0.2034
  705SOL    HW2 2115   0.055   0.689   1.777 -2.2028  0.1307  0.1878
  706SOL     OW 2116   1.802   2.935   0.415 -0.1636  0.3185 -0.0128
  706SOL    HW1 2117   1.778   2.841   0.386  1.1093  1.0098  0.3617
  706SOL    HW2 2118   1.868   2.933   0.495 -0.7904  0.4047 -1.0205
  707SOL     OW 2119   1.273   1.914   1.942  0.1944 -0.1525 -0.3649
  707SOL    HW1 2120   1.236   1.865   2.023 -1.1465  0.0059 -1.2723
  707SOL    HW2 2121   1.252   2.015   1.942  1.0674  1.6455  1.0289
  708SOL     OW 2122   2.887   2.376   1.539 -0.5358  0.0455 -0.2202
  708SOL    HW1 2123   2.799   2.345   1.494 -2.4226  0.3206  1.7559
  708SOL    HW2 2124   2.929   2.466   1.514 -0.8401 -2.0153 -0.5202
  709SOL     OW 2125   1.719   0.521   1.674 -0.4999 -0.5202 -0.3015
  709SOL    HW1 2126   1.766   0.492   1.589  1.6481  1.5375 -0.7390
  709SOL    HW2 2127   1.618   0.517   1.662  4.2590  2.2514 -0.4436
  710SOL     OW 2128   2.510   0.472   1.552 -0.2707 -0.6099 -0.8311
  710SOL    HW1 2129   2.577   0.449   1.625  1.2900  0.4180 -0.5005
  710SOL    HW2 2130   2.500   0.403   1.479  0.0628 -0.6587 -0.3305
  711SOL     OW 2131   0.053   2.053   0.450  0.3331 -0.0155 -0.4809
  711SOL    HW1 2132   0.155   2.062   0.470  3.1469 -0.4356  1.2589
  711SOL    HW2 2133   0.027   1.956   0.462 -0.6062  1.0732  0.7185
  712SOL     OW 2134   0.483   2.537   2.343 -0.3352  0.5499  0.5323
  712SOL    HW1 2135   0.434   2.480   2.269 -1.2269 -3.1628 -2.4357
  712SOL    HW2 2136   0.523   2.621   2.301 -1.8604 -1.3053 -1.0485
  713SOL     OW 2137   1.917   0.943   2.986 -0.0076 -0.0069 -0.1913
  713SOL    HW1 2138   1.925   0.846   2.953 -0.8828 -0.7321  0.7256
  713SOL    HW2 2139   1.861   0.949   0.034 -1.8376  2.5553  1.6019
  714SOL     OW 2140   0.719   1.629   0.658 -0.1045  0.0570 -0.3441
  714SOL    HW1 2141   0.815   1.644   0.679 -1.0991  1.6977  1.7947
  714SOL    HW2 2142   0.675   1.641   0.746  2.3095 -0.6452  2.3670
  715SOL     OW 2143   1.844   0.003   0.155 -0.9336 -0.5542 -0.0653
  715SOL    HW1 2144   1.834   3.001   0.248 -0.2121 -2.2698 -0.1276
  715SOL    HW2 2145   1.801   0.095   0.156 -0.7485 -1.0596  1.1911
  716SOL     OW 2146   0.458   0.437   1.597  0.2923  0.0696  0.1382
  716SOL    HW1 2147   0.437   0.442   1.699  0.7961 -0.7389  1.2979
  716SOL    HW2 2148   0.373   0.399   1.545 -3.6529  0.3746 -2.1995
  717SOL     OW 2149   2.880   0.801   0.237 -0.0337 -0.2539 -0.0333
  717SOL    HW1 2150   2.947   0.841   0.170  1.5929 -0.4833  1.4943
  717SOL    HW2 2151   2.881   0.702   0.233 -1.1547  0.1910  2.2067
  718SOL     OW 2152   1.207   0.922   0.064  0.1530  0.3573  0.5416
  718SOL    HW1 2153   1.294   0.950   0.111 -0.8826  1.0520 -2.4985
  718SOL    HW2 2154   1.205   0.824   0.034 -1.6384  0.2680 -0.5618
  719SOL     OW 2155   2.886   1.429   0.134 -0.2543 -0.2807 -0.2026
  719SOL    HW1 2156   2.835   1.341   0.150  1.3975 -0.8628 -2.4378
  719SOL    HW2 2157   2.902   1.436   0.034 -3.6441 -0.1931  0.6556
  720SOL     OW 2158   1.481   0.909   1.045  1.4125  0.2509 -0.1891
  720SOL    HW1 2159   1.556   0.959   1.001 -0.8733  1.8490 -0.0055
  720SOL    HW2 2160   1.476   0.812   1.013  0.0453  1.2617  0.3411
  721SOL     OW 2161   2.634   0.735   0.345  0.5824  0.0271 -0.7002
  721SOL    HW1 2162   2.724   0.779   0.322 -1.9903  1.5052 -0.2291
  721SOL    HW2 2163   2.649   0.643   0.384  0.4605 -1.2866  0.2240
  722SOL     OW 2164   0.747   1.061   2.866  0.0751 -0.5285  0.2581
  722SOL    HW1 2165   0.706   1.001   2.793 -1.0556  0.3697  0.6745
  722SOL    HW2 2166   0.845   1.037   2.883 -0.4444  1.8307 -0.7685
  723SOL     OW 2167   0.533   0.988   0.620  0.2911  0.5521 -0.3805
  723SOL    HW1 2168   0.524   0.988   0.718 -0.5789  2.2873 -0.4674
  723SOL    HW2 2169   0.441   1.001   0.582  1.2903  0.9591  0.5336
  724SOL     OW 2170   1.126   2.475   1.846  0.0477  0.2685 -0.2838
  724SOL    HW1 2171   1.038   2.470   1.795  1.3829  0.4531  1.0106
  724SOL    HW2 2172   1.189   2.550   1.814  1.7990  2.1547  0.5138
  725SOL     OW 2173   2.564   0.976   1.498 -0.6585  0.1772 -0.0958
  725SOL    HW1 2174   2.505   1.055   1.523  2.4315 -1.9305 -1.0622
  725SOL    HW2 2175   2.529   0.889   1.536  0.3065  0.5846 -1.5174
  726SOL     OW 2176   1.738   2.683   0.299  0.2152 -0.2462 -0.0259
  726SOL    HW1 2177   1.777   2.635   0.383  1.3578  0.8839  2.5591
  726SOL    HW2 2178   1.646   2.650   0.266 -1.6123  0.7051 -1.2422
  727SOL     OW 2179   1.255   1.007   2.203 -0.4322  0.9053 -0.2631
  727SOL    HW1 2180   1.216   1.023   2.295  1.0699  1.7233  0.2539
  727SOL    HW2 2181   1.344   1.049   2.193 -0.0974 -0.4613 -1.4929
  728SOL     OW 2182   1.378   2.532   1.180 -0.0856 -0.4233 -0.0785
  728SOL    HW1 2183   1.285   2.564   1.202  0.7660 -0.5442 -0.4497
  728SOL    HW2 2184   1.430   2.537   1.268 -0.2040 -2.2446 -0.7451
  729SOL     OW 2185   1.724   0.658   1.305  0.3863  0.0871  0.6224
  729SOL    HW1 2186   1.672   0.590   1.250  1.6171  2.7375 -0.8902
  729SOL    HW2 2187   1.654   0.705   1.361 -2.8451 -1.3259  0.2588
  730SOL     OW 2188   0.533   2.079   2.084  0.8434  0.2774 -0.5049
  730SOL    HW1 2189   0.605   2.148   2.092 -1.7443 -0.2486 -0.6741
  730SOL    HW2 2190   0.569   1.987   2.068 -1.1660  0.4362  0.8601
  731SOL     OW 2191   0.458   0.320   0.587  0.1303  0.3552 -0.2435
  731SOL    HW1 2192   0.533   0.282   0.650  0.2641  0.7790  1.3171
  731SOL    HW2 2193   0.442   0.255   0.505  1.2982 -2.5125  1.4719
  732SOL     OW 2194   0.616   0.537   3.025  0.2201 -0.1939  0.5648
  732SOL    HW1 2195   0.653   0.630   0.002  0.2585 -1.5446  1.1279
  732SOL    HW2 2196   0.516   0.543   3.030  0.8560  1.3711  0.7025
  733SOL     OW 2197   1.033   2.426   1.146  0.2907 -0.0811  0.1027
  733SOL    HW1 2198   0.944   2.391   1.188 -2.1888 -2.6608  0.3070
  733SOL    HW2 2199   1.071   2.501   1.201 -0.8404  0.5014 -0.0433
  734SOL     OW 2200   0.059   2.015   2.608 -0.2893 -0.1514 -0.5629
  734SOL    HW1 2201   3.020   2.028   2.546  0.7339  0.9800 -0.8770
  734SOL    HW2 2202   0.068   2.099   2.671  0.6871  0.3189  0.5770
  735SOL     OW 2203   0.943   2.953   1.001  0.0088  0.0041  0.2786
  735SOL    HW1 2204   0.842   2.972   0.996 -0.7396 -0.6522  0.0598
  735SOL    HW2 2205   0.996   3.029   0.951  0.5469 -0.6067 -0.4109
  736SOL     OW 2206   1.684   0.375   2.906  0.2162 -0.6044  0.0549
  736SOL    HW1 2207   1.667   0.415   2.810 -1.0743  0.0627 -2.4406
  736SOL    HW2 2208   1.679   0.444   2.976 -0.7826  1.9496 -2.1387
  737SOL     OW 2209   2.947   0.275   0.600  0.2417 -0.2751 -0.0671
  737SOL    HW1 2210   0.010   0.271   0.620 -0.8983  2.1132 -1.0356
  737SOL    HW2 2211   2.904   0.350   0.652 -1.6841 -0.3842  1.9840
  738SOL     OW 2212   2.487   2.853   1.178 -0.2007 -0.0624 -0.4444
  738SOL    HW1 2213   2.444   2.933   1.135  1.1742  0.2168 -0.3939
  738SOL    HW2 2214   2.477   2.778   1.113  0.0484 -0.2622  0.3572
  739SOL     OW 2215   1.378   2.203   3.018  0.1333  0.4500 -0.1620
  739SOL    HW1 2216   1.472   2.200   0.019  0.5915  0.6853  2.2051
  739SOL    HW2 2217   1.329   2.118   0.003 -1.0565  0.3111 -0.0920
  740SOL     OW 2218   1.557   2.812   1.221  0.6038  0.2670  0.0249
  740SOL    HW1 2219   1.504   2.891   1.255  1.5714 -2.0790  3.0671
  740SOL    HW2 2220   1.512   2.767   1.139 -2.8539 -1.1607 -1.7014
  741SOL     OW 2221   1.929   0.637   0.754  0.1116  0.2982 -0.2345
  741SOL    HW1 2222   1.987   0.656   0.675  0.7972 -0.8410  1.7037
  741SOL    HW2 2223   1.907   0.726   0.802 -0.8783 -0.9891  0.4781
  742SOL     OW 2224   1.278   2.171   2.117  0.6621  0.7699 -0.5365
  742SOL    HW1 2225   1.377   2.160   2.142  2.0639 -0.6133  0.2649
  742SOL    HW2 2226   1.269   2.213   2.022 -1.2696  1.3222 -1.5349
  743SOL     OW 2227   2.224   0.560   1.787  0.9778  0.0623  0.0903
  743SOL    HW1 2228   2.237   0.654   1.810 -1.7317 -0.1397  1.7433
  743SOL    HW2 2229   2.309   0.507   1.803 -1.0414  0.5011 -1.9959
  744SOL     OW 2230   2.407   0.276   1.138 -0.1189 -0.2174  0.2620
  744SOL    HW1 2231   2.441   0.304   1.042  1.2318  0.6584 -0.2181
  744SOL    HW2 2232   2.306   0.303   1.144 -1.8609 -0.7106 -2.5786
  745SOL     OW 2233   1.958   1.160   1.622  0.0070 -0.0680 -0.3291
  745SOL    HW1 2234   1.993   1.255   1.648  3.2680  1.6125 -2.1996
  745SOL    HW2 2235   1.906   1.174   1.531 -1.6046  2.8212 -6.3068
  746SOL     OW 2236   1.218   1.248   1.002 -0.4342  0.5913 -0.0966
  746SOL    HW1 2237   1.141   1.311   0.981  1.1942  0.4736 -0.8355
  746SOL    HW2 2238   1.226   1.165   0.945  0.0269 -0.1800  1.1547
  747SOL     OW 2239   1.892   1.160   1.107 -0.2734  0.2665  0.3106
  747SOL    HW1 2240   1.911   1.063   1.099 -1.5949  0.6650 -1.0440
  747SOL    HW2 2241   1.920   1.211   1.028  1.5370 -0.9309  1.8068
  748SOL     OW 2242   2.961   2.520   0.717  0.2059 -0.0647  0.2000
  748SOL    HW1 2243   2.945   2.437   0.777 -0.8580 -0.2686 -1.0564
  748SOL    HW2 2244   2.929   2.505   0.622  0.1624  1.1406 -0.7698
  749SOL     OW 2245   0.086   0.077   2.247 -0.5702  1.1581  0.2042
  749SOL    HW1 2246   0.022   0.030   2.311  1.5913 -1.1546  0.4018
  749SOL    HW2 2247   0.177   0.043   2.260 -0.7501 -1.0331 -1.5421
  750SOL     OW 2248   2.207   0.609   1.049  0.4105 -0.7910 -0.3396
  750SOL    HW1 2249   2.282   0.673   1.075  0.4003  0.5645 -2.2557
  750SOL    HW2 2250   2.129   0.597   1.117 -0.7116 -0.6754  1.7584
  751SOL     OW 2251   2.923   0.605   0.645 -0.0881 -0.0600 -0.4989
  751SOL    HW1 2252   2.922   0.623   0.747 -1.3261  0.4816  2.3103
  751SOL    HW2 2253   2.991   0.674   0.611 -0.7760  0.2667 -0.2282
  752SOL     OW 2254   2.991   2.674   1.080 -0.5678 -0.0736  0.2347
  752SOL    HW1 2255   2.942   2.749   1.025 -1.1081  1.0528 -1.2612
  752SOL    HW2 2256   2.952   2.581   1.068  0.9034  0.2698  0.2452
  753SOL     OW 2257   1.240   0.336   1.961 -0.3237  0.1825 -0.4240
  753SOL    HW1 2258   1.201   0.412   1.911  0.3996 -0.0442 -0.4645
  753SOL    HW2 2259   1.328   0.304   1.920  0.1179 -1.3451  1.4393
  754SOL     OW 2260   1.574   2.355   1.668 -0.4691 -0.0839 -0.5427
  754SOL    HW1 2261   1.665   2.367   1.710 -0.1088 -2.1468  3.3261
  754SOL    HW2 2262   1.504   2.335   1.744  0.9204 -0.7667 -0.9141
  755SOL     OW 2263   2.743   1.119   0.599  0.2973 -0.4365 -0.1899
  755SOL    HW1 2264   2.717   1.206   0.541  0.4454  3.7637 -2.7406
  755SOL    HW2 2265   2.797   1.051   0.543 -2.5878  0.4302 -1.5187
  756SOL     OW 2266   1.644   1.600   2.363  0.7331  0.1134  0.3496
  756SOL    HW1 2267   1.726   1.551   2.399  0.1542 -0.5932 -0.7041
  756SOL    HW2 2268   1.552   1.556   2.363 -3.1115  0.2300  1.1076
  757SOL     OW 2269   1.478   2.689   0.471 -0.2274 -0.4715  0.2508
  757SOL    HW1 2270   1.387   2.702   0.423  1.0053  1.3579 -1.9411
  757SOL    HW2 2271   1.506   2.587   0.468  0.4401  1.9480 -1.9509
  758SOL     OW 2272   0.597   2.886   1.236 -0.3218  0.3832 -0.0709
  758SOL    HW1 2273   0.567   2.791   1.204 -0.4725  0.5164 -0.3117
  758SOL    HW2 2274   0.618   2.948   1.156  0.3833 -2.0984 -0.3809
  759SOL     OW 2275   0.205   0.958   0.988  0.3938  0.5876  0.0698
  759SOL    HW1 2276   0.103   0.942   0.978 -4.2430  0.4939  2.2993
  759SOL    HW2 2277   0.214   1.046   1.041  0.9627  2.0335 -1.6579
  760SOL     OW 2278   2.264   1.297   1.261 -0.1553 -0.0393  0.3142
  760SOL    HW1 2279   2.239   1.233   1.338 -2.3726  0.0947  0.7644
  760SOL    HW2 2280   2.250   1.248   1.171 -2.7136  0.2200  1.2234
  761SOL     OW 2281   1.309   1.020   0.842 -0.8792 -0.2311 -0.1530
  761SOL    HW1 2282   1.372   0.974   0.910 -0.3218  0.8293  0.4729
  761SOL    HW2 2283   1.250   0.955   0.791 -0.3125 -0.6983 -0.9368
  762SOL     OW 2284   2.219   2.064   1.354  0.4306  0.6414 -0.5199
  762SOL    HW1 2285   2.151   1.992   1.371  0.3225 -1.6467 -1.5662
  762SOL    HW2 2286   2.175   2.148   1.311  1.8125 -0.6800  1.5804
  763SOL     OW 2287   1.166   1.394   1.908 -0.8826  0.4885  0.3742
  763SOL    HW1 2288   1.158   1.387   2.009  0.7272 -1.6901 -2.0099
  763SOL    HW2 2289   1.259   1.405   1.879 -0.2362  0.2485  1.9722
  764SOL     OW 2290   2.995   1.764   2.253  0.5547 -0.2059  0.2196
  764SOL    HW1 2291   0.030   1.835   2.244  1.0731  2.5437  1.1072
  764SOL    HW2 2292   2.982   1.729   2.345  0.9860 -2.4291 -0.8809
  765SOL     OW 2293   1.147   2.648   1.248 -0.7129  0.0215 -0.2555
  765SOL    HW1 2294   1.120   2.644   1.350 -0.2908 -1.0429 -1.1517
  765SOL    HW2 2295   1.179   2.743   1.217  0.4934  3.5187  0.0816
  766SOL     OW 2296   0.708   2.246   2.509  0.0384  0.6432  0.9134
  766SOL    HW1 2297   0.803   2.239   2.464  2.6203 -0.6895 -1.5050
  766SOL    HW2 2298   0.643   2.175   2.476  1.4505  1.0547  0.1668
  767SOL     OW 2299   1.594   0.208   2.623 -0.5460  0.5322 -0.1402
  767SOL    HW1 2300   1.610   0.176   2.526  1.5365  0.1794  0.3081
  767SOL    HW2 2301   1.673   0.177   2.680 -0.2734 -1.9193 -2.2537
  768SOL     OW 2302   1.336   2.315   2.760  0.3521  0.4745  0.2832
  768SOL    HW1 2303   1.240   2.298   2.730 -0.6327  0.9750 -0.5125
  768SOL    HW2 2304   1.357   2.266   2.846  0.8260  0.0080 -1.8921
  769SOL     OW 2305   2.827   2.694   1.326 -0.5111  0.3203  0.0825
  769SOL    HW1 2306   2.891   2.674   1.245  4.3215  0.0599 -1.3285
  769SOL    HW2 2307   2.796   2.790   1.309 -0.0251 -1.1834  0.3502
  770SOL     OW 2308   0.612   2.834   2.900 -0.2707  0.2281  0.2665
  770SOL    HW1 2309   0.628   2.928   2.862  2.3500  0.6163  0.2228
  770SOL    HW2 2310   0.705   2.798   2.926  0.2665  2.3932  1.6035
  771SOL     OW 2311   0.801   2.659   2.651 -0.0045  0.0970 -0.1947
  771SOL    HW1 2312   0.836   2.697   2.739 -0.5461 -1.0458 -0.4343
  771SOL    HW2 2313   0.732   2.590   2.674  1.3017  0.4118 -0.3514
  772SOL     OW 2314   2.471   0.062   2.021  0.1377  0.1647 -0.7258
  772SOL    HW1 2315   2.409   3.023   2.002  0.6039 -2.3348 -0.9590
  772SOL    HW2 2316   2.510   0.104   1.936 -2.4085 -0.3000 -0.4795
  773SOL     OW 2317   0.884   2.458   1.749 -0.6842  0.3381 -0.7698
  773SOL    HW1 2318   0.867   2.492   1.657  0.2204 -1.5244 -1.0154
  773SOL    HW2 2319   0.801   2.408   1.786 -1.6553 -1.5319 -2.2145
  774SOL     OW 2320   1.596   0.513   2.229 -0.6458  0.0964  0.1225
  774SOL    HW1 2321   1.657   0.430   2.220  0.8833 -1.1495 -1.5585
  774SOL    HW2 2322   1.547   0.539   2.143 -2.0179  1.9199  0.8492
  775SOL     OW 2323   2.001   2.839   2.815  0.0493  0.6856 -0.4867
  775SOL    HW1 2324   2.082   2.881   2.859  2.2455 -0.2304 -2.9631
  775SOL    HW2 2325   2.026   2.746   2.780  1.8250 -3.9642 -0.2812
  776SOL     OW 2326   2.186   0.844   2.039  1.0135  0.1675 -0.2578
  776SOL    HW1 2327   2.100   0.895   2.015 -0.5827 -0.5314 -2.5707
  776SOL    HW2 2328   2.238   0.830   1.952 -0.5979 -1.8180 -1.7666
  777SOL     OW 2329   2.808   0.991   2.455 -0.3497 -0.2078  0.5215
  777SOL    HW1 2330   2.791   0.892   2.424  1.0305 -0.8423 -0.4300
  777SOL    HW2 2331   2.736   1.030   2.518 -0.7666 -0.3169  0.8389
  778SOL     OW 2332   2.072   0.561   2.214  0.7001 -0.2155  0.2593
  778SOL    HW1 2333   2.047   0.599   2.308  2.8930  2.4395  0.9728
  778SOL    HW2 2334   2.013   0.592   2.133  2.3548  2.7862 -2.3016
  779SOL     OW 2335   2.975   0.013   0.190 -0.0893 -0.2483 -0.3362
  779SOL    HW1 2336   2.971   2.969   0.136  3.0259 -1.1245  1.3584
  779SOL    HW2 2337   0.027   0.037   0.222  0.2376  0.1998  2.1111
  780SOL     OW 2338   2.349   0.171   2.561  0.4445  0.2955 -0.7131
  780SOL    HW1 2339   2.304   0.229   2.493 -0.5842 -2.1869 -0.4964
  780SOL    HW2 2340   2.447   0.150   2.534 -0.1338 -0.1864  1.2428
  781SOL     OW 2341   0.353   0.102   1.603 -0.5942  0.2440 -0.2743
  781SOL    HW1 2342   0.366   3.040   1.600 -3.1466  0.4722 -2.1085
  781SOL    HW2 2343   0.257   0.136   1.619 -1.1108 -0.4179 -1.5421
  782SOL     OW 2344   1.879   2.148   2.985 -0.2771  0.0457  0.4516
  782SOL    HW1 2345   1.971   2.185   3.027  0.9298 -0.3497  2.6897
  782SOL    HW2 2346   1.889   2.140   2.887  1.2971  0.0105  0.8343
  783SOL     OW 2347   0.803   1.781   1.461  0.0334 -0.6680 -0.1072
  783SOL    HW1 2348   0.884   1.845   1.450 -1.9403 -0.1741 -0.3090
  783SOL    HW2 2349   0.833   1.684   1.470  0.2450 -2.7168 -0.1107
  784SOL     OW 2350   1.830   0.350   2.185  0.5739 -0.2045  0.0482
  784SOL    HW1 2351   1.872   0.257   2.177 -0.2574  1.2692  1.2470
  784SOL    HW2 2352   1.833   0.395   2.094  1.9608  1.3031  2.7788
  785SOL     OW 2353   2.950   0.617   0.917  0.1581 -0.4674  0.2646
  785SOL    HW1 2354   2.980   0.691   0.979 -1.5831  1.6632  0.0203
  785SOL    HW2 2355   2.868   0.579   0.957  0.0189 -0.8808 -0.5719
  786SOL     OW 2356   1.729   2.739   0.648  0.4032  0.3450  0.9968
  786SOL    HW1 2357   1.633   2.716   0.614  0.4301 -0.3614  1.5752
  786SOL    HW2 2358   1.809   2.693   0.599  3.4479 -3.1388 -1.2619
  787SOL     OW 2359   1.067   0.127   0.837  0.0056 -0.5097  0.2978
  787SOL    HW1 2360   1.100   0.180   0.755 -0.7509 -0.8258  2.1393
  787SOL    HW2 2361   1.090   0.182   0.922  2.1908  4.8484 -0.1170
  788SOL     OW 2362   0.220   1.192   1.110 -0.2601  0.7575 -0.5105
  788SOL    HW1 2363   0.162   1.223   1.186  2.3164  2.0624 -0.0356
  788SOL    HW2 2364   0.221   1.262   1.038 -0.9973  0.3885  2.7786
  789SOL     OW 2365   0.069   0.812   2.128  0.2568 -0.3263  0.3225
  789SOL    HW1 2366   3.027   0.765   2.093  0.7625 -0.7484 -0.4013
  789SOL    HW2 2367   0.046   0.885   2.198 -2.2277  1.3793  3.2294
  790SOL     OW 2368   0.910   0.278   2.631 -0.3501 -0.1151 -0.0333
  790SOL    HW1 2369   0.848   0.342   2.677  1.8403  1.7578 -3.0029
  790SOL    HW2 2370   0.883   0.280   2.532  1.1332 -0.2764  2.0188
  791SOL     OW 2371   2.511   0.382   0.125 -0.3449 -0.2476  0.1618
  791SOL    HW1 2372   2.419   0.396   0.171 -0.8092 -0.5760  1.3786
  791SOL    HW2 2373   2.575   0.317   0.178  0.1669 -1.2353  2.2522
  792SOL     OW 2374   1.470   0.664   0.954  0.0682 -0.2306  0.6245
  792SOL    HW1 2375   1.472   0.632   0.858  1.0111  1.1859  1.3269
  792SOL    HW2 2376   1.524   0.599   1.010 -2.1179  3.6035 -1.9236
  793SOL     OW 2377   0.103   0.023   1.442 -0.2205  0.5841  0.5509
  793SOL    HW1 2378   0.172   2.999   1.398  1.7142  1.1352  0.0354
  793SOL    HW2 2379   0.099   0.108   1.386 -2.2865  0.5846 -0.5260
  794SOL     OW 2380   0.150   0.458   1.969 -0.0784  0.0725 -0.1552
  794SOL    HW1 2381   0.078   0.504   1.911 -1.9037  0.8656  2.0370
  794SOL    HW2 2382   0.172   0.507   2.055  2.1456  0.7716 -0.4962
  795SOL     OW 2383   0.272   2.311   2.562 -0.1909 -0.3966  0.4753
  795SOL    HW1 2384   0.355   2.358   2.542 -0.3935 -1.3841  0.0736
  795SOL    HW2 2385   0.190   2.360   2.526 -1.0465  0.0632  1.5203
  796SOL     OW 2386   1.977   0.286   2.586  0.0538 -0.4040 -0.3161
  796SOL    HW1 2387   1.902   0.336   2.538  0.2135  0.2387 -1.6477
  796SOL    HW2 2388   1.950   0.229   2.660 -0.7295  1.7297 -2.0255
  797SOL     OW 2389   2.363   2.270   2.709  0.4637  0.6041  0.6009
  797SOL    HW1 2390   2.434   2.308   2.767 -0.5908 -0.0773 -1.7865
  797SOL    HW2 2391   2.273   2.286   2.751  1.1398 -0.5578 -0.3538
  798SOL     OW 2392   0.223   0.854   1.457  0.1738  0.2314 -0.4756
  798SOL    HW1 2393   0.244   0.778   1.397 -1.0269  1.7403 -0.8017
  798SOL    HW2 2394   0.235   0.821   1.555  0.8283  2.1215 -1.1847
  799SOL     OW 2395   0.711   0.353   1.596 -0.5242  0.0054 -0.2894
  799SOL    HW1 2396   0.610   0.372   1.613 -1.0203  0.8699 -0.3039
  799SOL    HW2 2397   0.737   0.254   1.588 -1.6633  0.0513  0.8669
  800SOL     OW 2398   2.988   2.447   0.241 -0.0223 -0.4889 -0.0441
  800SOL    HW1 2399   2.992   2.347   0.215  0.0888 -2.7823 -0.4583
  800SOL    HW2 2400   0.029   2.471   0.300  0.4027 -0.8864  1.9850
  801SOL     OW 2401   1.706   1.853   0.635 -0.1911  0.4355  0.2921
  801SOL    HW1 2402   1.716   1.785   0.715  1.5058 -0.8447  1.0591
  801SOL    HW2 2403   1.607   1.872   0.619 -1.9675 -3.4120 -4.2241
  802SOL     OW 2404   0.729   0.446   0.234  0.3406 -0.2340 -0.4302
  802SOL    HW1 2405   0.721   0.537   0.284  0.3509 -1.5312 -2.5387
  802SOL    HW2 2406   0.690   0.462   0.143 -0.1770  0.0144  0.1962
  803SOL     OW 2407   1.124   1.022   1.945  0.4132  0.0942 -0.8906
  803SOL    HW1 2408   1.175   0.993   1.859  0.0906 -2.0923 -0.1655
  803SOL    HW2 2409   1.183   1.020   2.026  1.0591  1.0865  0.0203
  804SOL     OW 2410   1.848   2.015   1.275  0.3925  0.5323  0.2100
  804SOL    HW1 2411   1.866   2.013   1.373  0.7663 -2.5137  0.7068
  804SOL    HW2 2412   1.926   1.988   1.220 -1.0782  2.9089  4.0007
  805SOL     OW 2413   2.962   2.120   2.383  0.4614 -0.3220 -0.1887
  805SOL    HW1 2414   3.025   2.058   2.332 -1.6028  1.6341 -1.7936
  805SOL    HW2 2415   2.926   2.196   2.326 -0.9093  1.4833 -0.2756
  806SOL     OW 2416   0.592   2.372   0.371 -0.1074  0.2812  0.1803
  806SOL    HW1 2417   0.609   2.428   0.291 -0.3415  1.1414  0.3147
  806SOL    HW2 2418   0.494   2.353   0.379 -0.6629  1.6240  1.2370
  807SOL     OW 2419   2.316   0.963   2.848 -0.5847  0.2721 -0.1927
  807SOL    HW1 2420   2.304   0.988   2.947  0.7838 -2.0694  1.7679
  807SOL    HW2 2421   2.226   0.942   2.800 -0.6067 -1.2106 -2.2112
  808SOL     OW 2422   1.462   2.219   0.593 -0.1060  0.2471 -0.1730
  808SOL    HW1 2423   1.504   2.158   0.521 -0.8712 -0.2430 -1.9874
  808SOL    HW2 2424   1.488   2.177   0.682 -0.6195 -1.6888  0.6659
  809SOL     OW 2425   0.312   0.710   0.727 -0.4819  0.1497 -0.2931
  809SOL    HW1 2426   0.376   0.778   0.764  0.5741 -0.4564 -1.6317
  809SOL    HW2 2427   0.310   0.622   0.777  0.2720  1.6316  0.0255
  810SOL     OW 2428   1.244   1.584   2.977 -0.0215 -0.1998 -0.2221
  810SOL    HW1 2429   1.197   1.546   2.895  0.3972 -0.5414  0.0644
  810SOL    HW2 2430   1.341   1.602   2.951 -1.2045  2.0350 -0.9245
  811SOL     OW 2431   1.295   2.989   1.574  0.1714  0.4856  0.8533
  811SOL    HW1 2432   1.367   2.921   1.553 -0.3669  2.7714  1.5059
  811SOL    HW2 2433   1.257   3.023   1.486  0.2809 -1.1124 -0.0710
  812SOL     OW 2434   1.595   0.158   0.688 -0.1484 -0.3942  0.3792
  812SOL    HW1 2435   1.513   0.118   0.645  0.9212 -0.2944  0.1359
  812SOL    HW2 2436   1.622   0.094   0.762 -2.7694  0.5410  1.6025
  813SOL     OW 2437   1.493   2.876   2.127 -0.2035  0.0221 -0.5465
  813SOL    HW1 2438   1.417   2.808   2.119 -0.2599  0.3285 -0.7096
  813SOL    HW2 2439   1.467   2.970   2.156 -1.7307  1.7733 -0.3866
  814SOL     OW 2440   1.287   2.965   1.847  0.2266 -0.1174 -0.0109
  814SOL    HW1 2441   1.384   2.956   1.878 -2.2424  0.9195 -1.7657
  814SOL    HW2 2442   1.293   2.990   1.749  1.7352 -0.0501  0.1591
  815SOL     OW 2443   0.198   0.012   0.225 -0.1035  0.8261  0.2454
  815SOL    HW1 2444   0.247   0.001   0.320  0.8347  0.5731  1.3891
  815SOL    HW2 2445   0.281   0.017   0.164  1.9663  0.4198  1.4639
  816SOL     OW 2446   2.435   1.369   2.678  0.5884 -0.5422  0.1272
  816SOL    HW1 2447   2.381   1.280   2.660 -0.3313  1.1480 -1.2353
  816SOL    HW2 2448   2.479   1.371   2.771 -2.9769 -0.3793 -1.6831
  817SOL     OW 2449   2.500   2.219   2.510 -0.2161  0.1040  0.7736
  817SOL    HW1 2450   2.440   2.247   2.584  3.0908  0.8027  0.2372
  817SOL    HW2 2451   2.579   2.162   2.536  0.5710  3.1831  1.2428
  818SOL     OW 2452   1.083   1.338   0.201 -0.1256 -0.2367 -0.0978
  818SOL    HW1 2453   1.066   1.284   0.284  0.3963  0.8002 -3.9328
  818SOL    HW2 2454   1.172   1.388   0.205 -2.0385  0.8460  0.8464
  819SOL     OW 2455   1.749   1.301   0.016  0.1344 -0.3046  0.2350
  819SOL    HW1 2456   1.711   1.314   2.963 -1.5865  0.7643  1.0158
  819SOL    HW2 2457   1.847   1.327   0.017 -0.4529 -3.6549 -0.3971
  820SOL     OW 2458   0.421   1.290   0.738 -0.0371 -0.5532 -0.2647
  820SOL    HW1 2459   0.490   1.252   0.803 -1.3595 -0.0123 -0.5718
  820SOL    HW2 2460   0.462   1.347   0.664 -3.6735 -0.6400  2.0416
  821SOL     OW 2461   0.310   2.921   1.351 -0.0970 -0.1246 -0.2760
  821SOL    HW1 2462   0.405   2.926   1.313 -2.9928 -0.5475 -1.1516
  821SOL    HW2 2463   0.313   2.878   1.441 -0.0590 -0.0575 -0.0373
  822SOL     OW 2464   2.009   1.815   2.794  0.1271  0.0456 -0.6381
  822SOL    HW1 2465   2.085   1.868   2.834 -0.8534 -1.0985 -1.8335
  822SOL    HW2 2466   1.981   1.852   2.707  1.8201 -1.3898 -0.5580
  823SOL     OW 2467   0.583   0.362   2.259  0.1415  0.2414 -0.2329
  823SOL    HW1 2468   0.591   0.359   2.155 -0.0643 -0.5787  1.2069
  823SOL    HW2 2469   0.522   0.442   2.282  0.0431 -1.0273 -1.8679
  824SOL     OW 2470   2.395   2.871   1.435 -0.0306  0.1025 -0.7204
  824SOL    HW1 2471   2.302   2.915   1.444 -0.7405  3.3378  0.2842
  824SOL    HW2 2472   2.451   2.897   1.356 -2.3866 -1.0401  0.1579
  825SOL     OW 2473   0.283   1.659   2.298 -0.5574 -0.4205  0.2311
  825SOL    HW1 2474   0.314   1.745   2.245  1.3595 -1.2344 -1.0682
  825SOL    HW2 2475   0.184   1.653   2.312  0.9655  1.1382 -0.0503
  826SOL     OW 2476   1.558   0.095   2.985 -0.0320 -0.0751 -0.4054
  826SOL    HW1 2477   1.613   0.170   3.026  0.3615 -0.5180  0.9614
  826SOL    HW2 2478   1.614   0.028   2.934  0.2892  2.7338  0.6745
  827SOL     OW 2479   3.012   2.003   1.964 -0.5616  0.1855 -0.3053
  827SOL    HW1 2480   3.018   1.914   1.909  0.8104 -1.5863 -0.7870
  827SOL    HW2 2481   0.019   1.993   2.054 -1.5168 -0.1956 -1.2062
  828SOL     OW 2482   0.149   0.225   1.246  0.0910  0.1711  0.0709
  828SOL    HW1 2483   0.210   0.166   1.192 -1.6232 -1.5955  2.0580
  828SOL    HW2 2484   0.074   0.272   1.193 -0.6404 -0.6929 -0.6488
  829SOL     OW 2485   0.997   1.601   2.007  0.4108  0.2095  0.1470
  829SOL    HW1 2486   1.034   1.506   1.986 -0.0558 -0.7800 -0.0587
  829SOL    HW2 2487   0.920   1.628   1.945  0.2990  0.8860  1.1470
  830SOL     OW 2488   0.926   0.892   1.661  0.0412  0.2246 -0.2399
  830SOL    HW1 2489   0.845   0.918   1.604  0.7968 -1.3584 -0.0323
  830SOL    HW2 2490   0.899   0.881   1.756  0.0796  0.1694  0.1548
  831SOL     OW 2491   2.636   1.800   0.092  0.6924 -0.0170 -0.8464
  831SOL    HW1 2492   2.713   1.791   0.029 -2.4040  1.7236  2.5080
  831SOL    HW2 2493   2.667   1.818   0.192  0.6654  2.6358  3.5992
  832SOL     OW 2494   1.098   2.222   2.730  0.2369 -0.1766  0.4485
  832SOL    HW1 2495   1.104   2.151   2.660  0.0810  0.5050 -0.9959
  832SOL    HW2 2496   1.003   2.255   2.754  2.7480 -1.6749 -0.5646
  833SOL     OW 2497   0.231   0.372   1.455 -0.1346 -0.2455 -0.0522
  833SOL    HW1 2498   0.158   0.369   1.529 -0.6632 -0.1380 -1.4779
  833SOL    HW2 2499   0.203   0.311   1.375  2.1538 -0.6757 -0.0168
  834SOL     OW 2500   2.898   0.877   1.048  0.1027 -0.1078 -0.7924
  834SOL    HW1 2501   2.952   0.895   1.134  0.1616  1.7954  2.6128
  834SOL    HW2 2502   2.821   0.938   1.054  1.1645 -2.1700  1.0254
  835SOL     OW 2503   2.701   0.495   0.470 -0.3248  0.1442  0.5381
  835SOL    HW1 2504   2.781   0.529   0.524  0.8688 -0.7347  0.7414
  835SOL    HW2 2505   2.646   0.428   0.520  0.6440  1.5587 -1.2373
  836SOL     OW 2506   0.540   1.968   2.727 -0.1273 -0.0808  0.0556
  836SOL    HW1 2507   0.503   1.879   2.749  1.3637  1.3331 -1.5700
  836SOL    HW2 2508   0.505   1.987   2.631  0.7920 -4.2128 -2.7427
  837SOL     OW 2509   1.274   1.799   0.421  0.2057 -0.4589 -0.1045
  837SOL    HW1 2510   1.333   1.770   0.347 -2.7173  1.4606  1.6366
  837SOL    HW2 2511   1.199   1.732   0.424  2.4845  1.2789 -0.4734
  838SOL     OW 2512   2.146   0.934   2.339 -0.2849 -0.2818  0.8402
  838SOL    HW1 2513   2.237   0.944   2.384 -0.1759  0.0921  0.2516
  838SOL    HW2 2514   2.165   0.919   2.242 -0.0145  1.9456 -1.0671
  839SOL     OW 2515   1.092   1.209   2.432  0.3953 -0.3506  0.6476
  839SOL    HW1 2516   1.028   1.186   2.508 -0.8060  3.0779  0.1848
  839SOL    HW2 2517   1.040   1.196   2.343 -0.3543 -0.3397 -0.1907
  840SOL     OW 2518   0.793   0.991   0.177 -0.0497 -0.0699 -0.0466
  840SOL    HW1 2519   0.710   0.940   0.153  3.3669  2.5997  1.0181
  840SOL    HW2 2520   0.783   1.088   0.146  0.2847  0.2645  0.5876
  841SOL     OW 2521   1.024   2.086   3.022  0.1629 -0.1825  0.1919
  841SOL    HW1 2522   1.022   2.187   3.026 -0.8426 -1.6525 -1.0655
  841SOL    HW2 2523   0.937   2.048   2.980  1.2577  0.1316  0.6248
  842SOL     OW 2524   0.428   0.581   0.532  0.3977 -0.4431  0.1036
  842SOL    HW1 2525   0.385   0.643   0.602 -0.6335  0.3057 -1.1219
  842SOL    HW2 2526   0.445   0.488   0.572 -1.9180  2.3086  2.4306
  843SOL     OW 2527   0.574   0.807   1.315  0.5621  0.3198  0.2176
  843SOL    HW1 2528   0.541   0.896   1.281  2.1977 -1.2913  0.9656
  843SOL    HW2 2529   0.550   0.737   1.248 -3.6067  1.3941 -0.7665
  844SOL     OW 2530   2.118   2.621   2.692 -0.1089  0.2901 -0.2338
  844SOL    HW1 2531   2.204   2.580   2.727 -1.0851 -0.3513 -0.0903
  844SOL    HW2 2532   2.085   2.575   2.605  0.9014 -0.0361 -1.6388
  845SOL     OW 2533   2.476   2.940   1.690  0.2083 -0.1183 -0.2050
  845SOL    HW1 2534   2.557   2.884   1.723  1.7109  1.5135  0.4897
  845SOL    HW2 2535   2.473   2.926   1.591  1.7636  1.9803  1.1268
  846SOL     OW 2536   1.638   1.031   2.520 -0.2006 -0.2899  0.0351
  846SOL    HW1 2537   1.672   1.011   2.429 -2.3942 -1.0168  0.5539
  846SOL    HW2 2538   1.598   1.127   2.518  0.5292 -1.4196  0.3838
  847SOL     OW 2539   0.043   0.428   1.656 -0.0732 -0.6259  0.3332
  847SOL    HW1 2540   3.017   0.484   1.713  0.7305 -0.3288 -2.9497
  847SOL    HW2 2541   0.046   0.338   1.696  0.3006  5.8096 -2.1418
  848SOL     OW 2542   2.543   2.663   0.154  0.2176 -0.2673  0.2038
  848SOL    HW1 2543   2.635   2.689   0.179 -2.0502  0.3200 -1.0997
  848SOL    HW2 2544   2.478   2.665   0.234  1.5219 -1.3497  2.3976
  849SOL     OW 2545   0.535   2.913   0.804  0.0363 -0.1170 -0.2449
  849SOL    HW1 2546   0.495   2.829   0.758  0.8199 -2.3443  0.3930
  849SOL    HW2 2547   0.455   2.965   0.841  1.5321 -1.2007  1.0916
  850SOL     OW 2548   0.640   2.126   0.552  0.6563 -0.3468  0.1923
  850SOL    HW1 2549   0.650   2.219   0.505  0.0625 -1.0994  1.3011
  850SOL    HW2 2550   0.661   2.054   0.482  1.2940 -0.6599  1.3327
  851SOL     OW 2551   2.200   0.479   2.884  0.3497  0.3905  0.1215
  851SOL    HW1 2552   2.162   0.507   2.793  2.7478 -0.6385  0.2288
  851SOL    HW2 2553   2.181   0.383   2.912 -1.3210 -0.8856  2.2125
  852SOL     OW 2554   1.676   2.093   2.579 -0.0005  0.0160  0.1462
  852SOL    HW1 2555   1.684   1.992   2.584 -0.9284  0.9630  0.1276
  852SOL    HW2 2556   1.668   2.130   2.484 -0.2108 -1.3982 -0.8007
  853SOL     OW 2557   3.022   2.142   0.205  0.0280 -0.5558 -0.3434
  853SOL    HW1 2558   3.024   2.082   0.125  2.0738  1.2634 -1.9759
  853SOL    HW2 2559   3.039   2.097   0.296  0.8579 -1.1138 -0.3640
  854SOL     OW 2560   1.229   0.736   2.141 -0.2026 -0.2985 -0.0195
  854SOL    HW1 2561   1.213   0.681   2.224  3.0264 -0.3015 -2.4757
  854SOL    HW2 2562   1.244   0.834   2.164  1.9883  0.5566  0.4208
  855SOL     OW 2563   0.172   2.594   0.632  0.0640  0.5196 -0.0278
  855SOL    HW1 2564   0.089   2.565   0.682 -2.1628  0.1524  0.5251
  855SOL    HW2 2565   0.153   2.582   0.530  1.9199  1.3595 -1.7193
  856SOL     OW 2566   0.375   2.845   2.548  0.0175  0.1092 -0.0388
  856SOL    HW1 2567   0.331   2.757   2.522  1.2632  0.1088 -2.5291
  856SOL    HW2 2568   0.475   2.848   2.535 -1.9764  0.2533 -1.7256
  857SOL     OW 2569   1.176   0.298   1.557  0.3479 -0.6986 -0.0256
  857SOL    HW1 2570   1.162   0.340   1.651  1.0797  0.9665 -2.1575
  857SOL    HW2 2571   1.090   0.293   1.500 -2.5412 -2.1884 -1.5427
  858SOL     OW 2572   3.024   2.161   1.588  0.0156  0.5865  0.0331
  858SOL    HW1 2573   2.966   2.242   1.581  3.3086 -0.9455  0.5874
  858SOL    HW2 2574   0.069   2.164   1.645 -0.5945  0.3640  0.8615
  859SOL     OW 2575   1.986   2.770   1.829 -0.0303  0.1510 -0.3300
  859SOL    HW1 2576   2.085   2.778   1.801  1.8033  2.2683  1.4832
  859SOL    HW2 2577   1.931   2.713   1.763 -1.6171  0.6047 -0.8985
  860SOL     OW 2578   1.875   0.238   0.505  0.4060 -0.0554  0.0590
  860SOL    HW1 2579   1.829   0.185   0.578  1.0749 -2.5195  0.0725
  860SOL    HW2 2580   1.976   0.231   0.529  2.1478 -3.2628 -1.3304
  861SOL     OW 2581   2.749   0.832   0.832  0.1909  0.2801  0.2400
  861SOL    HW1 2582   2.815   0.825   0.910 -0.5751  0.5477 -0.6855
  861SOL    HW2 2583   2.797   0.836   0.743  0.4111  0.7675  1.9342
  862SOL     OW 2584   1.840   0.741   1.770 -0.1240 -0.0599  0.5947
  862SOL    HW1 2585   1.790   0.663   1.732  0.3617 -0.7715 -0.0864
  862SOL    HW2 2586   1.893   0.786   1.693 -0.3772 -1.1859 -2.0325
  863SOL     OW 2587   0.746   0.713   1.066 -0.4163  0.1868  0.2003
  863SOL    HW1 2588   0.656   0.668   1.093 -0.9242  3.3179 -0.1945
  863SOL    HW2 2589   0.799   0.724   1.151 -0.4535 -1.1000 -1.3237
  864SOL     OW 2590   2.715   2.983   2.068 -0.4523  0.3970 -0.4166
  864SOL    HW1 2591   2.686   2.885   2.081 -0.3695  0.9179 -0.0132
  864SOL    HW2 2592   2.636   0.005   2.047 -0.9384  0.8097  1.3395
  865SOL     OW 2593   1.150   0.588   2.380  0.5948 -0.2758 -0.0802
  865SOL    HW1 2594   1.181   0.676   2.410  2.6929 -0.5830 -2.9505
  865SOL    HW2 2595   1.168   0.517   2.451  0.6321  0.6406 -2.1561
  866SOL     OW 2596   2.529   2.482   0.465  0.3266 -0.4460  0.3443
  866SOL    HW1 2597   2.625   2.488   0.439 -1.6809 -0.5549  0.9441
  866SOL    HW2 2598   2.512   2.449   0.562 -1.5181  1.5626  2.9007
  867SOL     OW 2599   2.699   2.679   0.596 -0.0243 -0.2441 -0.2752
  867SOL    HW1 2600   2.699   2.585   0.560 -0.1939 -0.2523  1.9310
  867SOL    HW2 2601   2.763   2.734   0.539  0.0931  1.5623  1.2827
  868SOL     OW 2602   1.537   0.880   3.035 -0.3556 -0.1451  0.3685
  868SOL    HW1 2603   1.523   0.916   2.942  0.6751 -0.3428  0.9448
  868SOL    HW2 2604   1.605   0.930   0.044 -2.2778 -2.4556 -1.8438
  869SOL     OW 2605   2.707   2.273   0.662  0.3004  0.0387  0.6238
  869SOL    HW1 2606   2.790   2.260   0.716 -1.2727 -0.7444 -0.4939
  869SOL    HW2 2607   2.623   2.289   0.717 -1.0982 -1.4214  0.2581
  870SOL     OW 2608   2.100   1.931   0.396  0.0616  0.6964  0.3603
  870SOL    HW1 2609   2.064   1.898   0.489  2.2253  0.7112  2.1249
  870SOL    HW2 2610   2.176   1.875   0.365 -0.6931 -1.0050  0.6551
  871SOL     OW 2611   0.753   1.128   1.260 -0.0364 -0.6641  0.2503
  871SOL    HW1 2612   0.666   1.096   1.221  0.3602 -0.2770 -1.7167
  871SOL    HW2 2613   0.766   1.088   1.352 -0.9491 -0.3118 -0.9076
  872SOL     OW 2614   1.100   2.034   2.237 -0.3548  0.0050  0.3274
  872SOL    HW1 2615   1.181   2.083   2.189  0.8151  1.0721 -1.9010
  872SOL    HW2 2616   1.090   1.945   2.194  1.1132  3.4454  1.2922
  873SOL     OW 2617   0.664   2.355   1.866 -0.4987  0.1275 -0.1413
  873SOL    HW1 2618   0.697   2.426   1.934  1.0954 -0.4343 -1.3286
  873SOL    HW2 2619   0.570   2.337   1.887  3.0317 -2.2615 -0.7167
  874SOL     OW 2620   0.719   0.295   1.044  0.2419  0.4320  0.6412
  874SOL    HW1 2621   0.795   0.345   0.988  2.1235 -0.4710 -1.7338
  874SOL    HW2 2622   0.720   0.327   1.143  3.9678 -1.3417  2.0259
  875SOL     OW 2623   2.938   0.327   1.207 -0.0449  0.3419 -0.2078
  875SOL    HW1 2624   2.960   0.425   1.206 -1.8334  2.1276  1.2004
  875SOL    HW2 2625   2.901   0.300   1.296  1.2536 -1.2449 -1.0822
  876SOL     OW 2626   0.486   0.880   0.234 -0.2357 -0.2813 -0.7448
  876SOL    HW1 2627   0.525   0.789   0.254 -1.0600  0.9617  0.3997
  876SOL    HW2 2628   0.385   0.876   0.223  1.5188  1.3092 -1.3819
  877SOL     OW 2629   1.191   0.619   1.382  0.3382 -0.3474  0.5101
  877SOL    HW1 2630   1.229   0.546   1.324  1.3908 -0.1630 -1.1577
  877SOL    HW2 2631   1.108   0.665   1.339  0.5060  0.8566 -0.7341
  878SOL     OW 2632   1.670   2.305   0.283 -0.2521 -0.7810 -0.1824
  878SOL    HW1 2633   1.591   2.359   0.315 -0.8769  0.2125 -0.3077
  878SOL    HW2 2634   1.749   2.316   0.348 -1.7400 -1.3582  1.6196
  879SOL     OW 2635   2.678   1.348   1.455 -0.1761  0.0920 -0.6983
  879SOL    HW1 2636   2.622   1.362   1.374  0.4415  2.3772  1.1949
  879SOL    HW2 2637   2.652   1.270   1.512  0.1932  1.7675  1.0096
  880SOL     OW 2638   1.260   2.404   0.590  0.3768  0.6645 -0.3215
  880SOL    HW1 2639   1.325   2.323   0.585 -0.9089 -3.0797 -1.6928
  880SOL    HW2 2640   1.248   2.431   0.490  0.9054  0.9696  0.4937
  881SOL     OW 2641   0.716   1.949   0.359 -0.2037  0.4007  0.5530
  881SOL    HW1 2642   0.810   1.950   0.394  0.3153 -2.7640 -2.0921
  881SOL    HW2 2643   0.720   1.923   0.262  0.2750  0.5758 -0.5075
  882SOL     OW 2644   1.956   0.702   1.186 -0.0075 -0.2475  0.2337
  882SOL    HW1 2645   1.966   0.795   1.145 -0.1636  2.2600  1.4713
  882SOL    HW2 2646   1.867   0.696   1.245 -4.3435 -0.7625 -1.2260
  883SOL     OW 2647   1.589   0.941   1.562 -0.3103  0.2898  0.5445
  883SOL    HW1 2648   1.562   0.853   1.522  3.0360 -2.0435  1.6166
  883SOL    HW2 2649   1.577   0.938   1.665  3.1787 -0.3049  0.0241
  884SOL     OW 2650   2.884   0.528   0.239 -0.0373 -0.3135 -0.2223
  884SOL    HW1 2651   2.816   0.496   0.306  0.4774 -1.5853 -0.9964
  884SOL    HW2 2652   2.980   0.545   0.271  1.6803 -0.9341 -1.9969
  885SOL     OW 2653   1.180   1.599   2.648  0.2933  0.0263  0.1951
  885SOL    HW1 2654   1.211   1.656   2.569  3.7295  0.7047  0.9088
  885SOL    HW2 2655   1.093   1.542   2.633 -0.5145 -3.2686 -1.0060
  886SOL     OW 2656   1.369   1.970   2.544  0.0456 -0.2117  0.0450
  886SOL    HW1 2657   1.409   2.061   2.519 -0.2942 -0.2469  0.6614
  886SOL    HW2 2658   1.381   1.942   2.638  3.2279 -0.5695 -2.1001
  887SOL     OW 2659   1.393   0.219   1.076  0.1016  0.9326  0.5137
  887SOL    HW1 2660   1.362   0.124   1.038  0.5336 -0.9901  1.4546
  887SOL    HW2 2661   1.401   0.217   1.178 -1.8176  2.4643  1.0048
  888SOL     OW 2662   2.521   0.748   1.642 -0.3556  0.8198  0.2339
  888SOL    HW1 2663   2.618   0.777   1.647  3.3046 -0.7220  1.1209
  888SOL    HW2 2664   2.505   0.654   1.606  1.3607 -1.3856  0.2675
  889SOL     OW 2665   2.731   2.632   0.872 -0.6910 -0.2935  0.4494
  889SOL    HW1 2666   2.736   2.630   0.770  1.6146  2.8657  1.7441
  889SOL    HW2 2667   2.758   2.546   0.924  2.4576 -1.9458  0.8334
  890SOL     OW 2668   1.834   1.976   0.316 -0.1313  0.2285 -0.2961
  890SOL    HW1 2669   1.835   1.974   0.217 -1.0566  0.4997 -1.4221
  890SOL    HW2 2670   1.913   1.932   0.355  1.1582 -0.4474  1.3405
  891SOL     OW 2671   0.623   0.967   2.658 -0.0314  0.1347  0.6649
  891SOL    HW1 2672   0.538   1.021   2.675 -0.3773  0.6836 -0.9004
  891SOL    HW2 2673   0.648   0.963   2.562 -2.5544  1.1878 -2.0638
  892SOL     OW 2674   2.785   2.985   1.525  0.2043 -0.0680  0.0665
  892SOL    HW1 2675   2.855   2.918   1.551 -0.0396  2.2201  1.0733
  892SOL    HW2 2676   2.741   2.964   1.434  1.7408 -1.4784 -4.5371
  893SOL     OW 2677   1.338   3.021   0.933 -0.2779  0.3333  0.0352
  893SOL    HW1 2678   1.424   3.008   0.881  1.2448 -0.8134 -1.7563
  893SOL    HW2 2679   1.256   3.005   0.871 -3.1585 -0.0582 -3.0566
  894SOL     OW 2680   2.551   0.602   0.748 -0.2861 -0.1729  0.4270
  894SOL    HW1 2681   2.599   0.521   0.715 -1.8042  0.6952 -2.7242
  894SOL    HW2 2682   2.619   0.665   0.787  1.1385 -1.6737 -2.2180
  895SOL     OW 2683   1.809   1.403   2.450  0.2762 -0.0513  0.2396
  895SOL    HW1 2684   1.836   1.412   2.548  0.6714  1.3244  2.4594
  895SOL    HW2 2685   1.850   1.315   2.409 -1.0642 -0.4681  2.1574
  896SOL     OW 2686   1.453   0.455   1.703 -0.2704 -0.4428 -0.1970
  896SOL    HW1 2687   1.370   0.518   1.683 -0.5787  3.0174 -0.7507
  896SOL    HW2 2688   1.458   0.362   1.655 -0.1194 -2.1619 -2.5568
  897SOL     OW 2689   0.699   1.408   1.935  0.4378 -0.9143 -0.0369
  897SOL    HW1 2690   0.751   1.318   1.928  2.9451 -3.5354  0.8040
  897SOL    HW2 2691   0.751   1.487   1.893  2.8447  0.7929  0.2902
  898SOL     OW 2692   2.233   2.311   2.197  0.3944  0.0404 -0.0145
  898SOL    HW1 2693   2.193   2.286   2.106 -2.1051 -1.8309  0.0256
  898SOL    HW2 2694   2.297   2.233   2.223  0.1541  0.8163  0.9704
  899SOL     OW 2695   1.273   1.459   1.584  0.1579 -0.3770 -0.1802
  899SOL    HW1 2696   1.247   1.375   1.533  2.7446 -0.6338 -0.6634
  899SOL    HW2 2697   1.272   1.544   1.527  0.0218  0.2482  0.8074
  900SOL     OW 2698   1.127   2.062   2.528  0.7535 -0.4604 -0.1252
  900SOL    HW1 2699   1.229   2.056   2.532  1.9713 -0.8783  2.2213
  900SOL    HW2 2700   1.097   2.080   2.433  0.2535  0.9144  0.2700
  901SOL     OW 2701   0.512   2.064   2.388 -0.4848 -0.6021  0.0197
  901SOL    HW1 2702   0.491   2.110   2.298 -1.6679 -0.1494 -1.0601
  901SOL    HW2 2703   0.425   2.034   2.437  0.2260  0.7563 -1.5695
  902SOL     OW 2704   2.196   1.616   0.103  0.3660  0.1503  0.1331
  902SOL    HW1 2705   2.116   1.554   0.118  2.5174  1.3395  1.6397
  902SOL    HW2 2706   2.277   1.606   0.166  0.0423  0.1659 -0.7706
  903SOL     OW 2707   1.955   1.644   0.367 -0.0700  0.3395 -1.2043
  903SOL    HW1 2708   1.934   1.631   0.268  0.2752 -2.8320  1.8683
  903SOL    HW2 2709   2.011   1.566   0.404 -0.3525 -0.6488 -2.6616
  904SOL     OW 2710   0.927   0.695   2.591  0.0226  0.2698 -1.1438
  904SOL    HW1 2711   0.984   0.609   2.596  0.7510 -2.3963  0.6025
  904SOL    HW2 2712   0.971   0.768   2.648 -0.5951 -1.5104  0.7641
  905SOL     OW 2713   2.770   0.475   1.055  0.0704 -0.3802 -0.4594
  905SOL    HW1 2714   2.691   0.496   1.115 -0.1652 -2.6384 -1.8439
  905SOL    HW2 2715   2.826   0.407   1.104  1.7279  1.8588 -0.1195
  906SOL     OW 2716   2.693   2.068   0.490 -0.2805  0.4195 -0.0261
  906SOL    HW1 2717   2.692   1.974   0.538  1.2887 -0.8514  1.7167
  906SOL    HW2 2718   2.723   2.146   0.551 -1.6392 -0.3821  1.5250
  907SOL     OW 2719   1.365   0.412   0.376  0.1399  0.2325 -0.0401
  907SOL    HW1 2720   1.449   0.351   0.391  0.0940  1.0242 -1.5078
  907SOL    HW2 2721   1.296   0.370   0.319  2.1031  2.5104  0.5359
  908SOL     OW 2722   1.740   0.037   1.559  0.4460 -0.2111  0.2070
  908SOL    HW1 2723   1.815   0.039   1.486  1.5837  0.2523  0.5718
  908SOL    HW2 2724   1.778   0.007   1.647 -2.7168 -0.2078  0.1821
  909SOL     OW 2725   2.415   0.760   1.119  0.3415 -0.3672 -0.3650
  909SOL    HW1 2726   2.472   0.684   1.153 -1.2813 -2.2228  1.3015
  909SOL    HW2 2727   2.457   0.815   1.045 -0.4759 -0.6458  2.0241
  910SOL     OW 2728   0.927   2.777   2.223  0.0936 -0.6159  0.1518
  910SOL    HW1 2729   0.935   2.764   2.322 -4.0958  1.3993 -1.7822
  910SOL    HW2 2730   0.946   2.694   2.172  1.8013  0.8963 -0.9465
  911SOL     OW 2731   2.304   0.838   1.768  0.0540  0.0473 -0.2561
  911SOL    HW1 2732   2.384   0.806   1.711 -1.4465 -0.2819 -1.9151
  911SOL    HW2 2733   2.233   0.865   1.704  0.7680 -0.6962 -1.7938
  912SOL     OW 2734   2.649   1.939   1.487 -0.0533  0.2553  0.7361
  912SOL    HW1 2735   2.573   1.986   1.433 -1.9952 -1.9411 -0.9203
  912SOL    HW2 2736   2.648   1.954   1.591 -0.7935 -0.1132 -1.1699
  913SOL     OW 2737   2.498   2.079   1.327  0.5282  0.2294  0.5151
  913SOL    HW1 2738   2.397   2.102   1.326 -0.4652 -0.6663  0.4884
  913SOL    HW2 2739   2.537   2.077   1.231 -0.9139 -1.4322 -1.5177
  914SOL     OW 2740   1.949   1.669   1.515  0.1789 -0.0985  0.1401
  914SOL    HW1 2741   2.046   1.668   1.495 -3.4305 -0.4621 -3.0010
  914SOL    HW2 2742   1.925   1.617   1.600 -2.8747  0.0696  1.2867
  915SOL     OW 2743   1.304   1.664   1.400 -0.0657 -0.2573  0.6347
  915SOL    HW1 2744   1.304   1.770   1.410  0.0836  2.4274 -1.1266
  915SOL    HW2 2745   1.224   1.635   1.338 -2.7649  1.0960 -3.4616
  916SOL     OW 2746   2.495   2.628   1.582  0.0631  0.5408  0.2527
  916SOL    HW1 2747   2.439   2.699   1.537 -1.0790 -1.8340  1.1728
  916SOL    HW2 2748   2.435   2.576   1.648 -0.0911 -0.5622  2.3500
  917SOL     OW 2749   2.569   1.580   2.831  0.7488  0.5286  0.4132
  917SOL    HW1 2750   2.502   1.655   2.854 -2.2287  0.9553  1.6550
  917SOL    HW2 2751   2.529   1.529   2.750 -0.8709 -0.6023 -1.5667
  918SOL     OW 2752   1.655   2.255   2.341 -0.2821  0.3040  0.1654
  918SOL    HW1 2753   1.623   2.351   2.337 -0.3760 -0.0419  0.8405
  918SOL    HW2 2754   1.737   2.245   2.275 -0.0604  2.6163 -5.5228
  919SOL     OW 2755   1.338   2.168   1.630 -0.3769 -0.1394 -0.2468
  919SOL    HW1 2756   1.434   2.140   1.648 -0.9057  0.9285 -0.7710
  919SOL    HW2 2757   1.313   2.164   1.534 -0.7301 -0.4932  2.5975
  920SOL     OW 2758   2.897   0.280   2.800  0.1238 -0.3272 -0.0919
  920SOL    HW1 2759   2.965   0.324   2.737 -1.2277 -2.9554  1.9145
  920SOL    HW2 2760   2.857   0.197   2.757  0.9190  0.3311  0.4390
  921SOL     OW 2761   2.713   0.098   2.498  0.1761 -0.0297 -0.3410
  921SOL    HW1 2762   2.729   0.198   2.518 -2.2945 -0.5131  0.7081
  921SOL    HW2 2763   2.640   0.095   2.426  1.4281 -0.7033 -2.1459
  922SOL     OW 2764   2.333   2.068   0.610  0.5229  0.2707 -0.4885
  922SOL    HW1 2765   2.241   2.090   0.647 -0.2137  1.6590 -1.5332
  922SOL    HW2 2766   2.388   2.007   0.675  0.9607 -1.4480  1.4159
  923SOL     OW 2767   0.293   1.709   0.423  0.2488 -0.0444 -0.1305
  923SOL    HW1 2768   0.308   1.752   0.335 -0.3889 -0.6873 -0.4467
  923SOL    HW2 2769   0.388   1.693   0.462 -0.3318 -1.4725  1.2553
  924SOL     OW 2770   1.375   0.450   2.988 -0.1955  0.0225 -0.4609
  924SOL    HW1 2771   1.439   0.512   3.034 -2.2284  1.3880 -1.7585
  924SOL    HW2 2772   1.418   0.356   2.968  1.7456 -0.9158 -1.3357
  925SOL     OW 2773   2.389   1.170   0.786  0.3406 -0.3856 -0.2211
  925SOL    HW1 2774   2.396   1.274   0.790  2.5383 -1.0643  1.0483
  925SOL    HW2 2775   2.378   1.149   0.687 -0.3088  0.9088  1.5195
  926SOL     OW 2776   2.719   1.082   1.143 -0.0669  0.1740 -0.1636
  926SOL    HW1 2777   2.627   1.045   1.171 -0.4342  1.1785 -0.5759
  926SOL    HW2 2778   2.707   1.134   1.054  2.4531 -1.5933  0.4046
  927SOL     OW 2779   0.532   1.307   0.319  0.4177  0.1886  0.3024
  927SOL    HW1 2780   0.451   1.244   0.319 -0.8474 -3.2200 -3.6614
  927SOL    HW2 2781   0.554   1.328   0.219  0.0081  1.6690 -1.1400
  928SOL     OW 2782   0.071   0.337   2.389  0.3663 -0.6393 -0.3520
  928SOL    HW1 2783   0.070   0.249   2.344  1.3751 -1.3944  0.6710
  928SOL    HW2 2784   0.166   0.375   2.402  2.3419 -0.2154  1.0251
  929SOL     OW 2785   2.724   2.924   1.260  0.1269  0.0840 -0.1847
  929SOL    HW1 2786   2.762   2.997   1.197  2.0074 -0.3333  0.1047
  929SOL    HW2 2787   2.635   2.895   1.223  0.4005 -1.2788  0.8164
  930SOL     OW 2788   1.896   1.937   1.538 -0.0307  0.0250 -0.4922
  930SOL    HW1 2789   1.835   1.958   1.614 -0.7627 -1.8646  0.8476
  930SOL    HW2 2790   1.917   1.838   1.531 -0.6668 -0.7210 -0.0585
  931SOL     OW 2791   1.521   1.302   0.836 -0.4169  0.1972 -0.4716
  931SOL    HW1 2792   1.505   1.340   0.928  1.0591  0.3315 -2.4273
  931SOL    HW2 2793   1.454   1.335   0.765  0.3653  0.5352  0.2978
  932SOL     OW 2794   2.885   1.098   1.335 -0.0372 -0.2166 -0.4922
  932SOL    HW1 2795   2.827   1.115   1.420  0.8249 -0.3062  4.9377
  932SOL    HW2 2796   2.822   1.106   1.254  0.4419 -0.1642 -1.8259
  933SOL     OW 2797   2.371   1.476   1.596 -0.0083 -0.7189  0.6329
  933SOL    HW1 2798   2.362   1.485   1.698 -1.0562  3.4869  2.3624
  933SOL    HW2 2799   2.420   1.562   1.566 -0.1028  2.5552  2.0994
  934SOL     OW 2800   1.689   0.133   1.100 -0.1153  0.1976  0.3616
  934SOL    HW1 2801   1.621   0.126   1.029 -3.0519  0.0822 -0.1613
  934SOL    HW2 2802   1.723   0.041   1.137  1.7038 -1.5591  0.9786
  935SOL     OW 2803   0.330   1.556   1.021 -0.0246 -0.6398  0.0121
  935SOL    HW1 2804   0.368   1.500   1.099 -0.1666 -0.1811 -0.5134
  935SOL    HW2 2805   0.320   1.654   1.052  0.7747 -1.4083  0.6496
  936SOL     OW 2806   2.986   1.146   0.897 -0.0505 -0.3712  0.2602
  936SOL    HW1 2807   2.904   1.189   0.854 -1.1293 -0.0604 -0.8352
  936SOL    HW2 2808   0.017   1.217   0.899 -0.7386  0.5279 -0.9997
  937SOL     OW 2809   1.668   2.644   0.904 -0.1085  0.5611 -0.2757
  937SOL    HW1 2810   1.570   2.672   0.931 -2.0754 -0.1084  0.5321
  937SOL    HW2 2811   1.678   2.681   0.811  0.7971  0.1876  1.3439
  938SOL     OW 2812   2.346   2.435   1.000  0.1903  0.0735  0.1700
  938SOL    HW1 2813   2.385   2.533   1.004  0.7505 -0.4102  0.1357
  938SOL    HW2 2814   2.276   2.425   0.927 -0.9253 -0.2156  0.5224
  939SOL     OW 2815   0.347   2.050   2.966 -0.3309 -0.3905  0.1823
  939SOL    HW1 2816   0.376   1.952   2.949  0.5771 -2.9632  0.5646
  939SOL    HW2 2817   0.389   2.073   0.016  1.5702  2.3039 -0.0769
  940SOL     OW 2818   2.925   2.820   0.033  0.1172 -0.1442 -0.2428
  940SOL    HW1 2819   2.868   2.779   0.103  0.5824  1.2828 -0.9970
  940SOL    HW2 2820   3.004   2.757   0.009  0.0856 -0.5518 -0.0927
  941SOL     OW 2821   0.854   2.696   2.912 -0.3320 -0.0139 -0.1890
  941SOL    HW1 2822   0.885   2.596   2.905  0.6773 -1.5416  1.5847
  941SOL    HW2 2823   0.880   2.742   2.999  0.9500  1.1912 -0.5878
  942SOL     OW 2824   1.539   1.935   1.572 -0.5515 -0.2931  0.4737
  942SOL    HW1 2825   1.586   1.985   1.649 -0.8171  0.6014 -0.2465
  942SOL    HW2 2826   1.569   1.839   1.549 -3.2727 -2.3404 -1.0508
  943SOL     OW 2827   2.185   1.126   1.483  0.4469  0.5088 -0.2365
  943SOL    HW1 2828   2.106   1.156   1.545 -1.7375  1.7893  1.8009
  943SOL    HW2 2829   2.158   1.047   1.422 -0.4013  0.2808  0.2446
  944SOL     OW 2830   2.113   0.881   1.352  0.1739 -0.0985  0.0675
  944SOL    HW1 2831   2.101   0.888   1.251  1.1840 -0.4592  0.9267
  944SOL    HW2 2832   2.159   0.792   1.362 -0.3388 -0.0105 -2.1651
  945SOL     OW 2833   2.885   2.861   0.913 -0.1650 -0.3545  0.4343
  945SOL    HW1 2834   2.814   2.793   0.881 -1.7329  1.5296  0.1289
  945SOL    HW2 2835   2.833   2.943   0.953 -1.1658 -1.4012  1.7021
  946SOL     OW 2836   0.603   0.656   1.586  0.3777 -0.4576 -0.0551
  946SOL    HW1 2837   0.612   0.702   1.496  1.3840  1.9347 -0.6047
  946SOL    HW2 2838   0.535   0.575   1.587 -2.4611 -0.0399  0.1116
  947SOL     OW 2839   0.437   2.719   0.634 -0.2371 -0.0064 -0.3395
  947SOL    HW1 2840   0.461   2.723   0.533 -3.2227  0.6488 -0.3328
  947SOL    HW2 2841   0.343   2.682   0.645  1.5212  2.0676  1.6530
  948SOL     OW 2842   0.022   1.364   1.744  0.1416  0.4944  0.1286
  948SOL    HW1 2843   0.040   1.440   1.678  0.3159  1.4139 -2.3761
  948SOL    HW2 2844   0.094   1.291   1.742  0.1077  0.3645 -1.3048
  949SOL     OW 2845   0.421   0.992   2.425 -0.4861 -0.8938 -0.4084
  949SOL    HW1 2846   0.505   0.977   2.367  0.6274 -0.8077  1.5351
  949SOL    HW2 2847   0.394   0.904   2.473 -2.1791 -0.9386  2.3222
  950SOL     OW 2848   1.023   0.513   1.147 -0.0827  0.4393  0.2464
  950SOL    HW1 2849   0.971   0.601   1.145  1.6111 -0.2985 -1.2066
  950SOL    HW2 2850   1.122   0.535   1.139 -2.7267  0.4392 -2.7027
  951SOL     OW 2851   0.809   1.997   2.026  0.4484  0.4326  0.0304
  951SOL    HW1 2852   0.860   1.997   1.938 -1.2835 -0.2176  0.5922
  951SOL    HW2 2853   0.777   2.089   2.062 -1.9328 -1.1409  1.3413
  952SOL     OW 2854   0.384   1.776   2.914  0.0723 -0.6300 -0.6511
  952SOL    HW1 2855   0.415   1.683   2.932  2.3830  1.5534 -2.4263
  952SOL    HW2 2856   0.301   1.783   2.858  0.7105  0.7734  0.8587
  953SOL     OW 2857   1.811   0.032   2.194  0.0802 -0.1893 -0.3990
  953SOL    HW1 2858   1.902   0.036   2.235  0.5668 -1.1473 -3.0695
  953SOL    HW2 2859   1.808   0.074   2.099 -2.7365 -0.7673  1.2430
  954SOL     OW 2860   1.735   1.195   0.705 -0.1456 -0.1944  0.0010
  954SOL    HW1 2861   1.721   1.141   0.619 -1.9021 -1.0729 -0.8776
  954SOL    HW2 2862   1.645   1.224   0.745 -1.3836  3.8067 -0.0185
  955SOL     OW 2863   0.337   2.430   2.146 -0.1222  0.3988  0.2169
  955SOL    HW1 2864   0.365   2.382   2.060 -1.5775  0.8097 -1.7184
  955SOL    HW2 2865   0.280   2.510   2.119 -2.0350 -1.8415 -2.6766
  956SOL     OW 2866   1.508   0.736   1.438 -0.1994  0.0725 -1.0367
  956SOL    HW1 2867   1.464   0.792   1.370  0.9674 -0.7619  3.0673
  956SOL    HW2 2868   1.437   0.696   1.498 -0.0925  1.8941  0.8790
  957SOL     OW 2869   2.089   1.501   2.563  0.1665 -0.1076 -0.6303
  957SOL    HW1 2870   2.180   1.494   2.519  0.4347  0.6179  0.0771
  957SOL    HW2 2871   2.051   1.595   2.540 -0.6045 -1.7342 -0.3996
  958SOL     OW 2872   0.996   2.462   0.867 -0.0411 -0.0994  0.2227
  958SOL    HW1 2873   0.912   2.518   0.862 -0.3581  0.1046 -1.9407
  958SOL    HW2 2874   1.028   2.445   0.964 -0.5789 -2.8965  0.3101
  959SOL     OW 2875   1.703   1.819   2.570  0.1762  0.4444 -0.0741
  959SOL    HW1 2876   1.622   1.773   2.521 -0.8187 -0.8605 -0.1231
  959SOL    HW2 2877   1.719   1.776   2.659 -0.6592  1.6059 -1.0301
  960SOL     OW 2878   0.146   0.222   0.034  0.4096  0.5191  0.5046
  960SOL    HW1 2879   0.046   0.229   0.019  1.1357  1.2669  0.6228
  960SOL    HW2 2880   0.178   0.159   0.113  2.4098 -1.7895 -0.9118
  961SOL     OW 2881   0.584   0.829   2.243 -0.3733  0.6578  0.0609
  961SOL    HW1 2882   0.683   0.804   2.266  1.8525 -0.2533 -0.4717
  961SOL    HW2 2883   0.525   0.748   2.265  2.1306 -1.3635  0.3569
  962SOL     OW 2884   0.854   1.329   2.751  0.0233 -0.4286  0.0779
  962SOL    HW1 2885   0.925   1.300   2.824 -2.5547  0.1500  0.0506
  962SOL    HW2 2886   0.758   1.337   2.779  1.4212  1.2348 -1.6319
  963SOL     OW 2887   2.214   1.585   2.849  0.3387 -0.0689 -0.4458
  963SOL    HW1 2888   2.214   1.630   2.757  2.5607 -0.0808  3.1919
  963SOL    HW2 2889   2.264   1.654   2.912  1.5058  1.3390  1.3551
  964SOL     OW 2890   1.410   2.671   0.963  0.5923  0.2668  0.2428
  964SOL    HW1 2891   1.337   2.653   0.888 -1.5304  2.1406 -2.3917
  964SOL    HW2 2892   1.392   2.617   1.047  2.6933 -0.2332 -0.5529
  965SOL     OW 2893   0.798   2.318   1.213 -0.1052  0.4802 -0.0798
  965SOL    HW1 2894   0.725   2.284   1.277 -1.4358  3.5010  0.7028
  965SOL    HW2 2895   0.769   2.292   1.117  0.2670 -2.4677 -2.1264
  966SOL     OW 2896   0.111   1.408   0.224  0.1662  0.0399  0.3102
  966SOL    HW1 2897   0.015   1.422   0.193  0.8901  0.4654 -0.9346
  966SOL    HW2 2898   0.112   1.361   0.313 -0.5713 -1.8782 -2.4563
  967SOL     OW 2899   1.563   2.941   1.860 -0.1669  0.0921 -0.3300
  967SOL    HW1 2900   1.565   2.913   1.961  1.5199 -1.3679  0.5424
  967SOL    HW2 2901   1.654   2.970   1.832 -1.2007 -0.8592  1.2622
  968SOL     OW 2902   1.923   0.880   0.880 -0.0532  0.2641 -0.0864
  968SOL    HW1 2903   1.981   0.922   0.808  0.4840  1.8247 -1.9054
  968SOL    HW2 2904   1.822   0.911   0.887  0.8541  1.6261  2.2016
  969SOL     OW 2905   0.230   1.676   1.882  0.8037 -0.1352 -0.2527
  969SOL    HW1 2906   0.305   1.712   1.819 -0.4805  0.3061  0.3119
  969SOL    HW2 2907   0.139   1.692   1.834 -0.1795  0.5920  1.9780
  970SOL     OW 2908   2.348   1.546   1.094  0.0623 -0.3239  0.1330
  970SOL    HW1 2909   2.300   1.479   1.154 -1.0619  0.4026 -0.7519
  970SOL    HW2 2910   2.351   1.639   1.134 -0.1025  0.4467 -1.8656
  971SOL     OW 2911   0.966   0.364   1.371  0.5791 -0.4028 -0.1011
  971SOL    HW1 2912   1.005   0.385   1.278  1.3758 -0.1480 -0.3426
  971SOL    HW2 2913   0.928   0.450   1.422 -1.2830  3.3108  2.3735
  972SOL     OW 2914   0.836   0.340   2.361 -0.3910 -0.3949  0.1352
  972SOL    HW1 2915   0.914   0.353   2.290  0.4068 -0.5418 -2.1013
  972SOL    HW2 2916   0.746   0.356   2.318  1.6396 -0.0567 -1.1362
  973SOL     OW 2917   0.526   1.350   1.163 -0.0295  0.5275  0.1131
  973SOL    HW1 2918   0.483   1.285   1.231 -0.2478  0.0232  1.9590
  973SOL    HW2 2919   0.606   1.394   1.207 -1.1078  1.2871  1.1732
  974SOL     OW 2920   1.949   1.027   1.940 -0.1143 -0.5272  0.8849
  974SOL    HW1 2921   1.912   1.093   1.874 -1.3018 -0.6890  1.3627
  974SOL    HW2 2922   1.941   0.932   1.903  1.3677  0.4540 -2.8862
  975SOL     OW 2923   2.574   0.144   0.322  0.2498  0.3060  0.1961
  975SOL    HW1 2924   2.547   0.053   0.295  0.5147  0.7825 -2.6082
  975SOL    HW2 2925   2.665   0.139   0.371  0.2474 -0.0409  1.7851
  976SOL     OW 2926   3.006   1.770   1.812 -0.0519 -0.0671 -0.5427
  976SOL    HW1 2927   2.966   1.720   1.889 -3.6260 -0.1493  1.7909
  976SOL    HW2 2928   2.947   1.770   1.732 -0.7827  2.5172  2.9473
  977SOL     OW 2929   0.668   2.542   0.153 -0.1331 -0.0363  0.5001
  977SOL    HW1 2930   0.610   2.625   0.161 -1.3894  1.3146  0.1383
  977SOL    HW2 2931   0.767   2.561   0.167 -1.6142  0.0178  1.2836
  978SOL     OW 2932   0.650   1.648   0.047  0.3318  0.1150  0.4627
  978SOL    HW1 2933   0.566   1.597   0.023  0.6998  0.3017 -0.0385
  978SOL    HW2 2934   0.719   1.584   0.089 -1.8071 -2.8516 -0.6518
  979SOL     OW 2935   1.366   1.923   1.226 -0.3192  0.6590  0.0716
  979SOL    HW1 2936   1.343   1.924   1.324  0.8663 -1.9955 -1.3323
  979SOL    HW2 2937   1.467   1.911   1.218 -0.3356  1.1437 -4.2171
  980SOL     OW 2938   0.573   1.544   2.125 -0.3083 -0.0064 -0.2765
  980SOL    HW1 2939   0.614   1.490   2.050  0.5706 -2.3544  0.8758
  980SOL    HW2 2940   0.475   1.571   2.108 -2.8681 -0.1285  0.1738
  981SOL     OW 2941   0.047   1.308   0.476 -0.1891  0.3122  0.1311
  981SOL    HW1 2942   0.129   1.353   0.514 -2.6629 -0.2180  0.2362
  981SOL    HW2 2943   3.000   1.347   0.514  0.3883  1.2517 -0.6271
  982SOL     OW 2944   2.360   2.560   2.806  0.7342  0.1463  0.2093
  982SOL    HW1 2945   2.386   2.588   2.708  1.9212  1.3389 -1.4297
  982SOL    HW2 2946   2.374   2.635   2.872  0.4717  0.2811 -4.4787
  983SOL     OW 2947   1.819   0.448   1.426 -0.2515  0.1634  0.1739
  983SOL    HW1 2948   1.798   0.542   1.386 -1.0314  3.2310 -1.4223
  983SOL    HW2 2949   1.915   0.414   1.414  0.5938  0.0811  1.6110
  984SOL     OW 2950   0.825   0.079   2.353 -0.7433  0.2554  0.5775
  984SOL    HW1 2951   0.862   0.055   2.263  0.1235 -0.1064  3.1993
  984SOL    HW2 2952   0.815   0.177   2.372  2.7714 -1.8077  0.1896
  985SOL     OW 2953   1.563   2.151   1.938  0.1590 -0.2195  0.1332
  985SOL    HW1 2954   1.543   2.115   2.029  0.5488  0.0742  0.5774
  985SOL    HW2 2955   1.560   2.250   1.944 -0.8846 -0.3882 -1.5800
  986SOL     OW 2956   2.134   0.116   2.213  0.3703 -0.1170  0.7081
  986SOL    HW1 2957   2.154   0.055   2.139  2.4008  1.4791  0.2353
  986SOL    HW2 2958   2.173   0.208   2.190 -0.5192  0.9536  2.3882
  987SOL     OW 2959   2.715   0.417   2.059 -0.2794 -0.4403 -0.5245
  987SOL    HW1 2960   2.770   0.345   2.104  1.3767 -0.4830 -1.7290
  987SOL    HW2 2961   2.617   0.417   2.088  0.7700  0.6479  2.2827
  988SOL     OW 2962   2.461   0.444   2.151 -0.1044  0.0436  0.0831
  988SOL    HW1 2963   2.465   0.422   2.252 -0.4993  0.4673  0.5696
  988SOL    HW2 2964   2.443   0.548   2.140  1.0590 -0.2234 -1.0883
  989SOL     OW 2965   2.100   2.300   2.415  0.2348 -0.4437  0.2067
  989SOL    HW1 2966   2.150   2.315   2.324  1.0025 -2.7878 -2.1884
  989SOL    HW2 2967   2.120   2.207   2.468 -0.4370 -5.3207 -0.3806
  990SOL     OW 2968   0.448   1.048   3.031  0.5092  0.8635 -0.8764
  990SOL    HW1 2969   0.469   1.001   0.080 -1.8873 -0.1285 -0.3489
  990SOL    HW2 2970   0.532   1.085   2.984  0.7535 -2.0956 -0.5049
  991SOL     OW 2971   0.719   1.029   2.404  0.1256  1.0712 -0.2035
  991SOL    HW1 2972   0.778   0.954   2.376 -1.8048  3.9209  0.8604
  991SOL    HW2 2973   0.716   1.098   2.326  0.0715 -0.1919 -0.9289
  992SOL     OW 2974   2.795   2.133   1.886  0.1865 -0.1520 -0.2420
  992SOL    HW1 2975   2.835   2.224   1.863  0.0374  0.2570  1.7184
  992SOL    HW2 2976   2.865   2.073   1.923 -2.5367  0.3550  0.9699
  993SOL     OW 2977   0.668   0.213   0.742 -0.4059  0.3903 -0.4076
  993SOL    HW1 2978   0.741   0.281   0.769  0.5073  2.4342  0.7875
  993SOL    HW2 2979   0.708   0.132   0.690  0.8766 -0.0522 -2.0354
  994SOL     OW 2980   0.287   2.140   1.511 -0.3482 -0.4409 -0.1112
  994SOL    HW1 2981   0.321   2.046   1.502 -1.5520 -0.8277  1.1831
  994SOL    HW2 2982   0.256   2.175   1.423  1.3770 -1.8406 -1.8085
  995SOL     OW 2983   2.344   1.526   2.453 -0.2330 -0.0901 -0.2636
  995SOL    HW1 2984   2.385   1.449   2.505  0.3334 -0.8109 -1.9850
  995SOL    HW2 2985   2.324   1.611   2.509 -0.7285  3.2715  0.4525
  996SOL     OW 2986   1.841   1.406   2.724  0.5326  0.6199 -0.0449
  996SOL    HW1 2987   1.909   1.419   2.797 -0.4491  1.3413 -2.0134
  996SOL    HW2 2988   1.777   1.330   2.748  0.6975 -1.6057 -1.5519
  997SOL     OW 2989   1.729   1.178   1.815 -0.1200  0.0084 -0.4290
  997SOL    HW1 2990   1.676   1.110   1.765  1.8992  0.2873 -0.4108
  997SOL    HW2 2991   1.673   1.218   1.891 -0.7826 -1.9098  0.1218
  998SOL     OW 2992   2.349   2.023   1.043 -1.0510  0.2794  0.3335
  998SOL    HW1 2993   2.252   2.041   1.064 -0.4715  0.6408  1.3156
  998SOL    HW2 2994   2.358   1.947   0.969  0.3921 -2.1515 -1.6371
  999SOL     OW 2995   2.329   2.404   0.035 -0.4915  0.0703 -0.5452
  999SOL    HW1 2996   2.297   2.501   0.051  0.2061 -0.3905  0.9234
  999SOL    HW2 2997   2.351   2.365   0.126 -0.6696  3.1276 -0.9626
 1000SOL     OW 2998   0.640   2.898   2.415 -0.4526 -0.2758 -0.1744
 1000SOL    HW1 2999   0.656   2.997   2.403 -1.1846  1.5687  0.9201
 1000SOL    HW2 3000   0.728   2.856   2.446  2.3836  0.9986 -4.0044
   3.04013   3.04013   3.04013
