1000 SPC/Fw water molecules t= 284.00000 step= 284000
 3000
    1SOL     OW    1   2.696   2.884   0.787 -0.3805 -0.6223 -0.5529
    1SOL    HW1    2   2.727   2.788   0.773  4.6645  0.7493  2.1768
    1SOL    HW2    3   2.779   2.945   0.776  0.4304 -1.1580 -0.7414
    2SOL     OW    4   2.569   1.899   0.861 -0.1030 -1.4068 -0.2243
    2SOL    HW1    5   2.645   1.846   0.824 -1.5719  0.4410  1.2276
    2SOL    HW2    6   2.549   1.862   0.955  3.1624  1.4890  3.0375
    3SOL     OW    7   1.055   2.713   2.832  0.0304  0.1633  0.7464
    3SOL    HW1    8   0.952   2.711   2.839 -3.4454  0.9606  0.0306
    3SOL    HW2    9   1.087   2.647   2.761  0.2696 -1.4811  0.6657
    4SOL     OW   10   1.938   2.244   1.296 -0.1652 -0.1687 -0.0599
    4SOL    HW1   11   1.998   2.324   1.308 -0.2974 -0.6839 -1.2619
    4SOL    HW2   12   1.996   2.162   1.287 -1.6379 -0.3034 -1.7864
    5SOL     OW   13   1.433   0.929   1.379 -0.4122 -0.1061 -0.0290
    5SOL    HW1   14   1.366   0.961   1.312  1.9207  0.4893  5.0887
    5SOL    HW2   15   1.524   0.971   1.366 -1.8923 -2.7851  4.7303
    6SOL     OW   16   2.229   2.979   0.118 -0.1993 -0.3128 -0.3287
    6SOL    HW1   17   2.178   2.923   0.052 -2.2389  1.3649  0.1978
    6SOL    HW2   18   2.178   2.988   0.208 -3.6370 -2.3278  0.7070
    7SOL     OW   19   2.712   1.128   1.326  0.0406 -0.1648 -0.3472
    7SOL    HW1   20   2.815   1.139   1.344  2.6036  1.6615  1.0165
    7SOL    HW2   21   2.680   1.185   1.249  0.5877 -2.8819  2.7850
    8SOL     OW   22   1.330   2.708   1.345 -0.2396 -0.0241  0.6130
    8SOL    HW1   23   1.309   2.771   1.267 -2.1474  1.0862 -1.8748
    8SOL    HW2   24   1.297   2.615   1.328  1.5787  1.8690  1.2584
    9SOL     OW   25   1.653   3.027   2.063  0.1414  0.4176 -0.0146
    9SOL    HW1   26   1.714   0.028   2.037 -1.6352 -1.1734 -0.1706
    9SOL    HW2   27   1.600   3.000   1.981  0.0647  0.0986  0.9714
   10SOL     OW   28   0.689   2.149   0.772  0.1366 -0.0817 -0.3492
   10SOL    HW1   29   0.672   2.249   0.783  0.3762 -0.3613 -3.1189
   10SOL    HW2   30   0.761   2.140   0.703  0.7326  1.0136 -0.0724
   11SOL     OW   31   1.666   1.520   1.001  0.2608  0.4740  0.2713
   11SOL    HW1   32   1.728   1.438   1.003  0.1563 -0.3536 -1.2188
   11SOL    HW2   33   1.566   1.500   1.011 -0.7904  1.7390 -0.9984
   12SOL     OW   34   2.605   2.721   1.931 -0.0363 -0.4238 -0.0004
   12SOL    HW1   35   2.629   2.793   2.003  1.2339  2.4248 -2.8871
   12SOL    HW2   36   2.675   2.649   1.932 -0.3026  1.1697  0.0978
   13SOL     OW   37   2.191   0.240   0.355 -0.2952  0.1512 -0.4189
   13SOL    HW1   38   2.193   0.342   0.364  1.2173 -1.0806 -1.7593
   13SOL    HW2   39   2.202   0.198   0.454  1.0185  0.0112  0.4254
   14SOL     OW   40   1.774   2.311   0.660  0.1756  0.3749  0.2941
   14SOL    HW1   41   1.848   2.279   0.595  2.6425 -1.3082 -1.7399
   14SOL    HW2   42   1.734   2.227   0.698  2.1419  0.9789  0.3338
   15SOL     OW   43   2.935   1.824   1.671 -0.2713  0.1929  0.1096
   15SOL    HW1   44   2.864   1.760   1.698  3.3396  1.5834  0.8607
   15SOL    HW2   45   3.028   1.783   1.691  1.5487 -0.5608 -0.0145
   16SOL     OW   46   1.995   2.274   0.506 -0.3669  0.2502  0.1485
   16SOL    HW1   47   2.044   2.356   0.548  2.5925  2.1826  1.0415
   16SOL    HW2   48   2.055   2.198   0.520 -0.4780  3.2107  0.0191
   17SOL     OW   49   0.721   0.006   1.503 -0.2938 -0.3326  0.5321
   17SOL    HW1   50   0.727   3.070   1.602  2.2990 -1.3221 -2.5169
   17SOL    HW2   51   0.773   0.090   1.480 -1.3713 -0.5780  1.3883
   18SOL     OW   52   1.206   1.070   0.044 -0.2002  0.2719  0.1528
   18SOL    HW1   53   1.299   1.109   0.072  3.9348 -1.2965  0.9792
   18SOL    HW2   54   1.207   1.036   3.028  0.7274 -0.4116  3.5757
   19SOL     OW   55   1.845   1.958   0.332 -0.0629  0.3899 -0.2672
   19SOL    HW1   56   1.946   1.942   0.335 -0.4347  2.1420  0.9201
   19SOL    HW2   57   1.781   1.873   0.316 -0.6146 -1.3025 -0.5322
   20SOL     OW   58   2.630   1.830   1.904  0.3192  0.0276 -0.7901
   20SOL    HW1   59   2.642   1.933   1.895  1.8056  1.3628  2.2636
   20SOL    HW2   60   2.528   1.819   1.898 -1.2858  0.4883  0.0660
   21SOL     OW   61   0.861   1.342   0.568 -0.3234  0.1551 -0.3626
   21SOL    HW1   62   0.830   1.274   0.632  0.5785  0.7795 -2.5883
   21SOL    HW2   63   0.778   1.387   0.518 -0.6820 -0.7593 -0.3844
   22SOL     OW   64   2.193   2.828   1.467  0.0911 -0.3397 -0.1912
   22SOL    HW1   65   2.124   2.857   1.536 -0.5268  1.3974  1.7343
   22SOL    HW2   66   2.271   2.891   1.468  1.1682 -1.2673  0.5893
   23SOL     OW   67   2.960   0.792   1.936 -0.0625 -0.1998  0.0604
   23SOL    HW1   68   2.876   0.747   1.977 -2.1752  0.6206  0.3180
   23SOL    HW2   69   2.993   0.865   1.999 -1.6926 -0.6306 -1.2179
   24SOL     OW   70   2.188   2.527   0.403  0.6410 -0.8005 -0.7387
   24SOL    HW1   71   2.286   2.518   0.442  0.1979 -2.4126  0.7328
   24SOL    HW2   72   2.180   2.477   0.315 -0.4592 -1.3132 -0.9708
   25SOL     OW   73   1.282   3.066   2.398  0.6461  0.4178  0.1552
   25SOL    HW1   74   1.374   3.032   2.370  0.6671  0.8721 -0.8154
   25SOL    HW2   75   1.288   0.080   2.435 -0.4211 -1.0158 -1.8912
   26SOL     OW   76   1.421   2.208   0.143 -0.0261  0.2088  0.3889
   26SOL    HW1   77   1.462   2.253   0.227 -0.3371 -1.2810  0.0907
   26SOL    HW2   78   1.414   2.269   0.062  0.1027 -0.0748 -3.1793
   27SOL     OW   79   2.378   1.674   0.208  0.6702 -0.2756 -0.2016
   27SOL    HW1   80   2.273   1.682   0.200 -2.7285  0.4030 -0.7935
   27SOL    HW2   81   2.419   1.737   0.145 -1.7160 -0.1305  1.1418
   28SOL     OW   82   0.015   1.199   1.759 -0.0933 -0.6605  0.0640
   28SOL    HW1   83   2.992   1.198   1.771 -0.3459  0.0480  0.9655
   28SOL    HW2   84   0.040   1.189   1.663 -1.3056  0.3797 -1.7532
   29SOL     OW   85   2.281   2.280   1.267  0.4731 -0.6489  0.3915
   29SOL    HW1   86   2.273   2.380   1.254 -1.9269 -2.1032 -0.5000
   29SOL    HW2   87   2.349   2.261   1.340  2.6687 -0.8851 -2.7636
   30SOL     OW   88   1.811   0.556   0.652 -0.1130  0.2579  0.7477
   30SOL    HW1   89   1.759   0.538   0.565 -1.8022 -0.6965  3.0030
   30SOL    HW2   90   1.754   0.617   0.709 -0.4629 -1.5074 -0.3340
   31SOL     OW   91   2.239   2.583   1.661  0.0698 -0.2453  0.2431
   31SOL    HW1   92   2.201   2.663   1.610 -1.1976 -1.0543 -1.0450
   31SOL    HW2   93   2.175   2.507   1.656  1.2953  1.0864  2.4839
   32SOL     OW   94   0.896   1.891   1.172  0.1002  0.2777  0.4803
   32SOL    HW1   95   0.920   1.878   1.071 -0.8920 -2.5052 -0.3914
   32SOL    HW2   96   0.891   1.991   1.182 -0.7059 -3.2064 -1.8950
   33SOL     OW   97   0.412   0.031   2.556 -0.0129 -0.5071  0.0879
   33SOL    HW1   98   0.474   0.111   2.577 -1.7927  1.7780  1.4396
   33SOL    HW2   99   0.333   0.037   2.620 -1.0663 -2.0948  2.1726
   34SOL     OW  100   1.452   2.782   0.546  0.4150 -0.4558 -0.0778
   34SOL    HW1  101   1.515   2.854   0.587 -0.3707  0.3989 -1.6405
   34SOL    HW2  102   1.427   2.711   0.618  1.7467 -1.9982  2.3226
   35SOL     OW  103   2.036   2.785   1.254  0.5126 -0.5169  0.4372
   35SOL    HW1  104   2.091   2.771   1.170 -1.7418  0.7859 -1.7541
   35SOL    HW2  105   2.089   2.795   1.339  0.9109  3.0991 -3.9426
   36SOL     OW  106   1.896   2.410   2.261  0.0961  0.2472 -0.1919
   36SOL    HW1  107   1.902   2.316   2.303 -0.3864 -0.2814 -1.5985
   36SOL    HW2  108   1.977   2.475   2.276 -1.2967  1.5314  1.2947
   37SOL     OW  109   0.962   0.021   2.041 -0.0380 -0.5925  0.1094
   37SOL    HW1  110   0.988   0.066   1.953  0.0615  1.3359  1.5012
   37SOL    HW2  111   1.046   3.065   2.089  1.0049 -0.6172 -1.3457
   38SOL     OW  112   0.103   2.758   2.738 -0.1705 -0.5128  0.1407
   38SOL    HW1  113   0.144   2.817   2.663 -0.0878  1.4240 -0.3609
   38SOL    HW2  114   0.177   2.706   2.794  1.7950  0.3745  1.2953
   39SOL     OW  115   2.276   0.868   1.709 -0.0047 -0.2579 -0.1035
   39SOL    HW1  116   2.328   0.947   1.668 -0.0015  1.2394 -0.7529
   39SOL    HW2  117   2.176   0.882   1.694  0.0671 -4.0366 -2.6231
   40SOL     OW  118   1.103   2.977   0.109  0.3532  0.0628  0.1504
   40SOL    HW1  119   1.032   2.995   0.178 -0.6459  0.2113  1.4113
   40SOL    HW2  120   1.142   3.064   0.077  0.1376 -1.5268  0.5852
   41SOL     OW  121   2.043   1.163   1.163  0.2808 -0.2234 -0.1337
   41SOL    HW1  122   2.092   1.125   1.247  0.3470 -0.5075  1.8883
   41SOL    HW2  123   2.093   1.131   1.084  0.8078 -2.2367 -0.6388
   42SOL     OW  124   0.674   0.421   0.931  0.8556  0.3945 -0.7090
   42SOL    HW1  125   0.772   0.389   0.934 -0.3819 -0.6216 -1.1570
   42SOL    HW2  126   0.625   0.364   0.858 -0.1099 -0.4523  0.5980
   43SOL     OW  127   2.452   1.421   2.695 -0.5679  0.0161 -0.2797
   43SOL    HW1  128   2.461   1.457   2.790 -3.3869  1.0814  2.0034
   43SOL    HW2  129   2.359   1.377   2.678 -1.1459  2.7945 -0.3861
   44SOL     OW  130   2.745   0.038   1.556  0.3710 -0.4050 -0.4868
   44SOL    HW1  131   2.814   3.080   1.497 -0.5070  1.2263  0.6241
   44SOL    HW2  132   2.734   3.064   1.641  0.5342 -1.2532 -1.3226
   45SOL     OW  133   0.478   2.696   1.687 -0.6927 -0.0677  0.5391
   45SOL    HW1  134   0.413   2.779   1.701 -1.0277  1.1152 -0.0804
   45SOL    HW2  135   0.448   2.614   1.632 -1.2069 -0.0705  0.1306
   46SOL     OW  136   1.700   2.925   2.527 -0.5472  0.3242  0.2304
   46SOL    HW1  137   1.682   3.018   2.552  2.0073 -0.8445 -2.4702
   46SOL    HW2  138   1.795   2.910   2.495  3.3101  0.6366  2.3433
   47SOL     OW  139   1.663   1.769   0.877 -0.1050  0.5289 -0.9639
   47SOL    HW1  140   1.643   1.833   0.952 -2.2314 -2.7906 -2.6112
   47SOL    HW2  141   1.677   1.677   0.919 -0.2167  4.0907 -0.9043
   48SOL     OW  142   0.792   2.128   0.465 -0.1762 -0.2135  0.2221
   48SOL    HW1  143   0.762   2.218   0.429 -0.3005 -2.0690  0.1620
   48SOL    HW2  144   0.714   2.065   0.467  0.7248  0.2166 -0.4471
   49SOL     OW  145   2.302   0.173   2.485 -0.4159 -0.4025  0.1653
   49SOL    HW1  146   2.344   0.096   2.534  0.3001 -1.9663 -3.2333
   49SOL    HW2  147   2.205   0.165   2.504  1.9778 -1.8893 -0.7267
   50SOL     OW  148   1.985   0.486   0.327 -0.7398  1.0747 -0.0942
   50SOL    HW1  149   1.929   0.558   0.367 -1.7268 -4.8125 -2.4337
   50SOL    HW2  150   1.919   0.425   0.279  0.5521  1.1454  2.5106
   51SOL     OW  151   1.997   0.995   0.659 -0.5283 -0.4536  0.1279
   51SOL    HW1  152   2.092   0.993   0.695  1.8221  0.9599 -1.6715
   51SOL    HW2  153   1.925   0.979   0.732  0.2163 -1.4216 -0.0632
   52SOL     OW  154   1.251   1.304   1.577 -0.0382  0.6271 -0.2085
   52SOL    HW1  155   1.316   1.235   1.615 -1.9178  1.8779 -1.7476
   52SOL    HW2  156   1.155   1.263   1.565 -2.0889 -0.4873  2.6329
   53SOL     OW  157   0.830   1.672   2.318  0.2543 -0.2991 -0.5214
   53SOL    HW1  158   0.798   1.645   2.228 -0.6417 -0.7390  1.8262
   53SOL    HW2  159   0.788   1.761   2.351 -0.8562  0.0168  0.4215
   54SOL     OW  160   2.572   0.122   1.350 -0.6265  0.8540  0.1815
   54SOL    HW1  161   2.635   0.109   1.426  0.2406  0.6700 -1.4044
   54SOL    HW2  162   2.516   0.204   1.356 -0.1275 -0.4184  1.3140
   55SOL     OW  163   2.757   1.766   0.728 -0.2158  0.2332 -0.0401
   55SOL    HW1  164   2.855   1.797   0.721  1.7387 -0.1896 -0.2758
   55SOL    HW2  165   2.739   1.698   0.655 -0.5402  2.0151 -0.3756
   56SOL     OW  166   1.360   0.125   2.014  0.3305 -0.5549 -0.2919
   56SOL    HW1  167   1.289   0.079   2.068 -0.1872  0.5092 -2.5098
   56SOL    HW2  168   1.404   0.057   1.953  1.4939  0.5178 -1.3926
   57SOL     OW  169   1.382   1.568   0.082  0.6903 -0.6040  0.2916
   57SOL    HW1  170   1.425   1.528   0.166 -1.1367 -0.3648 -0.4416
   57SOL    HW2  171   1.438   1.644   0.042 -2.5134  2.2895 -3.4466
   58SOL     OW  172   0.245   1.178   1.916  0.3988  0.0712  0.2136
   58SOL    HW1  173   0.152   1.207   1.878 -2.4440  0.5036  1.9118
   58SOL    HW2  174   0.301   1.259   1.941 -0.1519 -0.9562 -1.1904
   59SOL     OW  175   1.418   0.065   3.028 -0.0691  0.2549  0.6480
   59SOL    HW1  176   1.429   3.052   3.009  0.4517  3.9581  0.5802
   59SOL    HW2  177   1.321   0.100   3.037 -0.8654 -2.5823  1.0351
   60SOL     OW  178   2.882   2.065   0.335  0.0565  0.6952 -0.1946
   60SOL    HW1  179   2.801   2.009   0.309  0.6032  1.1917 -0.3997
   60SOL    HW2  180   2.842   2.151   0.381 -0.8361 -2.8534 -0.1936
   61SOL     OW  181   1.132   2.522   0.159 -0.2868 -0.0385  0.1105
   61SOL    HW1  182   1.158   2.549   0.255  1.4235  2.5118  2.7894
   61SOL    HW2  183   1.183   2.581   0.093  0.2814  0.5850  2.0368
   62SOL     OW  184   2.159   2.058   2.584 -0.7447 -0.1464  0.4694
   62SOL    HW1  185   2.138   1.959   2.600 -1.7836  1.8569 -2.1258
   62SOL    HW2  186   2.099   2.091   2.510  1.9438  1.0291 -1.0900
   63SOL     OW  187   2.202   2.130   0.608 -0.1744 -0.2710 -0.5288
   63SOL    HW1  188   2.265   2.140   0.684  2.5666 -1.5958  0.8563
   63SOL    HW2  189   2.139   2.051   0.618  1.8530 -0.3298 -0.9552
   64SOL     OW  190   1.802   1.226   2.769  0.1208 -0.3628  0.4467
   64SOL    HW1  191   1.751   1.247   2.852  1.4002 -0.1455 -1.5170
   64SOL    HW2  192   1.784   1.127   2.750 -0.4672  1.3586 -0.7808
   65SOL     OW  193   1.264   2.006   2.822  0.3439 -0.4694 -0.0306
   65SOL    HW1  194   1.279   1.998   2.921  0.7815  0.0399  0.0197
   65SOL    HW2  195   1.287   1.918   2.771  0.0355 -0.1250  0.3935
   66SOL     OW  196   0.133   1.170   2.178  0.2478 -0.0542 -0.1094
   66SOL    HW1  197   0.195   1.147   2.254  0.8111 -1.3197 -0.5900
   66SOL    HW2  198   0.189   1.154   2.095 -0.6453 -0.4164  2.2601
   67SOL     OW  199   2.467   2.862   0.194 -0.0458 -0.0311  0.4262
   67SOL    HW1  200   2.383   2.887   0.136 -4.0901 -0.2287 -0.4969
   67SOL    HW2  201   2.546   2.914   0.164 -2.2298 -0.7670  0.2870
   68SOL     OW  202   1.035   2.496   1.435  0.1565  0.0487  0.2172
   68SOL    HW1  203   1.073   2.484   1.527  1.0427  1.4397 -0.6727
   68SOL    HW2  204   1.112   2.490   1.368 -0.1971  1.6253 -1.6859
   69SOL     OW  205   0.802   2.533   0.573 -0.6967  0.4428 -0.3339
   69SOL    HW1  206   0.864   2.519   0.658  0.7592 -1.0990  3.2967
   69SOL    HW2  207   0.725   2.599   0.594 -0.7928 -0.8166 -2.3484
   70SOL     OW  208   2.593   0.402   2.581 -0.0677 -0.1471  0.0644
   70SOL    HW1  209   2.515   0.393   2.649 -1.2138 -1.9364  1.2004
   70SOL    HW2  210   2.640   0.490   2.597 -0.7069 -0.9153 -1.4361
   71SOL     OW  211   0.614   1.327   2.460  0.3179  0.6313 -0.3346
   71SOL    HW1  212   0.642   1.414   2.507  1.6678  2.0193  2.6547
   71SOL    HW2  213   0.572   1.257   2.515  1.2638  0.2217 -0.5897
   72SOL     OW  214   0.037   2.164   0.278 -0.1013 -0.4095  0.3130
   72SOL    HW1  215   0.039   2.233   0.209  1.1474 -1.2146  3.2969
   72SOL    HW2  216   3.028   2.140   0.322 -0.1947  1.3896 -1.9661
   73SOL     OW  217   0.977   1.312   0.327 -0.1507 -0.4931  0.6979
   73SOL    HW1  218   0.914   1.306   0.248 -0.0493  1.2963 -0.8067
   73SOL    HW2  219   0.927   1.309   0.414  0.1830  1.9541 -0.8123
   74SOL     OW  220   2.045   2.807   3.055  0.1517 -0.3779  0.0077
   74SOL    HW1  221   1.956   2.853   3.056  2.3433 -2.8887  2.4817
   74SOL    HW2  222   2.042   2.715   3.010  0.4755  0.2228  1.1149
   75SOL     OW  223   2.398   1.723   1.018  0.1142 -0.1768 -0.0198
   75SOL    HW1  224   2.406   1.749   1.115 -1.4047  0.3075 -2.7807
   75SOL    HW2  225   2.306   1.677   1.001 -1.0103  1.9162  1.8503
   76SOL     OW  226   2.013   2.530   1.434  0.1010  0.4505 -0.7560
   76SOL    HW1  227   2.000   2.477   1.520  1.1673 -3.2336 -1.5585
   76SOL    HW2  228   1.927   2.577   1.402 -1.4036  0.5758 -2.0576
   77SOL     OW  229   2.382   0.166   1.820  0.4599 -0.1842 -0.0240
   77SOL    HW1  230   2.322   0.191   1.898 -2.9414 -0.2435  2.2476
   77SOL    HW2  231   2.418   0.067   1.825  1.3587  0.7799 -0.6226
   78SOL     OW  232   1.519   0.789   2.964  0.3030  0.2054  0.1513
   78SOL    HW1  233   1.543   0.702   3.020  1.2229 -0.8613  2.9752
   78SOL    HW2  234   1.492   0.775   2.864  0.1846 -0.2936 -1.6672
   79SOL     OW  235   2.604   1.521   2.075  0.0075 -0.3480 -0.0222
   79SOL    HW1  236   2.667   1.591   2.118 -0.0132  1.5119 -0.4540
   79SOL    HW2  237   2.595   1.437   2.137 -0.5963 -1.0799  0.8686
   80SOL     OW  238   2.083   1.464   1.642  0.1396 -0.7013  0.3526
   80SOL    HW1  239   2.029   1.398   1.593  0.0051  3.3413  2.8033
   80SOL    HW2  240   2.034   1.553   1.649 -1.7428  1.0350 -1.6122
   81SOL     OW  241   1.198   0.715   1.414 -0.1405 -0.7564  0.3469
   81SOL    HW1  242   1.237   0.697   1.505 -2.6576 -0.3912 -2.1652
   81SOL    HW2  243   1.258   0.780   1.357 -1.4028 -1.2398 -0.9198
   82SOL     OW  244   1.330   2.656   1.607 -0.3846  0.0305  0.1717
   82SOL    HW1  245   1.402   2.583   1.609 -0.9227 -1.2203  2.1667
   82SOL    HW2  246   1.323   2.695   1.514 -0.4018 -2.1472  1.3322
   83SOL     OW  247   0.300   0.138   0.470 -0.5376 -0.0595 -0.5817
   83SOL    HW1  248   0.280   0.085   0.557 -0.2380  0.2385  1.1461
   83SOL    HW2  249   0.217   0.189   0.446  3.4691 -3.1860  0.8676
   84SOL     OW  250   0.322   1.048   2.986  0.1437 -0.1993 -0.0331
   84SOL    HW1  251   0.253   1.055   2.905  1.2151  0.2437 -3.1237
   84SOL    HW2  252   0.307   1.112   3.057 -1.7109 -1.4807 -5.0505
   85SOL     OW  253   2.590   2.025   1.619  0.4076  0.2011  0.5748
   85SOL    HW1  254   2.565   1.926   1.600  1.3951 -2.2618  0.4006
   85SOL    HW2  255   2.572   2.044   1.716  0.4810  2.2892 -3.2189
   86SOL     OW  256   2.901   2.467   1.624 -0.7427  0.5125 -0.0604
   86SOL    HW1  257   2.879   2.411   1.705 -1.5221 -0.3524  0.5827
   86SOL    HW2  258   3.000   2.484   1.618  1.6092  1.1272 -1.8070
   87SOL     OW  259   0.776   0.299   2.419  0.3001  0.1448 -0.4799
   87SOL    HW1  260   0.859   0.250   2.389 -2.7176 -1.2062  1.7853
   87SOL    HW2  261   0.716   0.246   2.479 -1.7330  1.2228 -0.2906
   88SOL     OW  262   0.526   2.233   1.153 -0.5661 -0.1085 -0.5703
   88SOL    HW1  263   0.599   2.192   1.096 -2.7503 -0.4919 -1.4689
   88SOL    HW2  264   0.517   2.179   1.239  2.6863 -2.5682 -2.5646
   89SOL     OW  265   0.839   0.759   1.594  0.1821 -0.0221  0.3450
   89SOL    HW1  266   0.879   0.671   1.563  2.3878  1.7305 -0.9231
   89SOL    HW2  267   0.804   0.752   1.693 -0.5908  0.8899 -0.0045
   90SOL     OW  268   0.033   1.570   1.449  0.1546 -0.6439  0.0696
   90SOL    HW1  269   0.019   1.662   1.409  2.2881 -2.3928 -1.1895
   90SOL    HW2  270   0.093   1.516   1.384  1.9606 -0.8252 -2.2967
   91SOL     OW  271   1.241   1.165   0.693 -0.2212  0.1711 -0.3732
   91SOL    HW1  272   1.161   1.187   0.754 -1.1894 -1.0030  2.4766
   91SOL    HW2  273   1.263   1.063   0.684 -0.4770 -2.5261  1.2213
   92SOL     OW  274   2.613   0.572   0.985 -0.2992 -0.0870  0.3320
   92SOL    HW1  275   2.553   0.620   1.055  0.4025  1.6615  1.0595
   92SOL    HW2  276   2.561   0.522   0.912  0.7227 -0.6876  2.8321
   93SOL     OW  277   1.732   0.950   2.832  0.4682  0.7696 -0.4286
   93SOL    HW1  278   1.671   0.920   2.907 -3.0374  1.4087 -2.2572
   93SOL    HW2  279   1.747   0.867   2.774  1.3904  1.7007  0.5361
   94SOL     OW  280   2.357   1.621   2.193  0.4793 -0.3059  0.2960
   94SOL    HW1  281   2.334   1.682   2.114 -0.3604 -0.3892 -0.4069
   94SOL    HW2  282   2.410   1.541   2.165 -0.6500  3.7523 -1.0805
   95SOL     OW  283   1.912   0.541   1.236 -0.1493  0.4325  0.2852
   95SOL    HW1  284   1.843   0.587   1.176  3.4213  0.4003  0.4828
   95SOL    HW2  285   1.987   0.497   1.186 -1.7244  0.0773  0.7077
   96SOL     OW  286   2.469   0.044   2.078 -0.4670 -0.2442 -0.5911
   96SOL    HW1  287   2.486   0.006   1.984  0.3439 -0.3388  2.2539
   96SOL    HW2  288   2.489   0.145   2.085  0.7491 -1.0813 -1.5101
   97SOL     OW  289   2.419   0.375   1.329  0.0989  0.1788  0.7099
   97SOL    HW1  290   2.457   0.463   1.337 -3.2915 -1.9019 -0.6857
   97SOL    HW2  291   2.335   0.371   1.385 -1.0249 -0.4719 -2.5437
   98SOL     OW  292   1.523   2.487   1.639  0.2597 -0.2103  0.2041
   98SOL    HW1  293   1.476   2.446   1.719  1.3543 -2.7714  0.5643
   98SOL    HW2  294   1.556   2.421   1.569  1.2550 -0.6604 -1.6703
   99SOL     OW  295   2.457   2.195   1.458 -0.1428 -0.3827  0.1557
   99SOL    HW1  296   2.481   2.275   1.515 -0.2761  1.6393 -3.0693
   99SOL    HW2  297   2.480   2.102   1.495  1.6094  0.6200  0.5226
  100SOL     OW  298   0.611   0.803   2.695 -0.0283  0.2791 -0.2973
  100SOL    HW1  299   0.517   0.772   2.709 -1.2221 -0.2006  3.9535
  100SOL    HW2  300   0.653   0.810   2.788  0.6855 -0.8773 -0.3099
  101SOL     OW  301   1.892   0.469   2.872 -0.3303  0.0027 -0.0630
  101SOL    HW1  302   1.894   0.391   2.936  0.5326  2.2025 -0.7174
  101SOL    HW2  303   1.888   0.561   2.927  1.6488  1.6775  0.7510
  102SOL     OW  304   0.354   0.784   1.736  0.3206 -0.0982 -0.0131
  102SOL    HW1  305   0.275   0.763   1.676  0.4540  0.0957 -1.4069
  102SOL    HW2  306   0.427   0.712   1.728 -0.8885  1.2904  2.3128
  103SOL     OW  307   2.757   0.629   2.786 -0.2970 -0.1145 -0.0953
  103SOL    HW1  308   2.820   0.704   2.745  1.3794  3.4782  0.4895
  103SOL    HW2  309   2.804   0.541   2.782  1.8405  0.1819  0.8284
  104SOL     OW  310   0.754   0.548   2.561  0.3066 -0.1565 -0.5014
  104SOL    HW1  311   0.764   0.628   2.498  1.5565 -1.3052 -0.5600
  104SOL    HW2  312   0.770   0.462   2.511 -0.7896  3.7665 -1.3163
  105SOL     OW  313   2.309   1.823   1.640 -0.0036 -0.0629  0.2391
  105SOL    HW1  314   2.251   1.756   1.593 -2.4356  2.3489 -0.9444
  105SOL    HW2  315   2.252   1.892   1.680  0.1070  1.1977 -1.2152
  106SOL     OW  316   2.175   0.722   0.597  0.5314  0.0527 -0.3262
  106SOL    HW1  317   2.191   0.641   0.544  0.4258 -0.1915 -0.1953
  106SOL    HW2  318   2.077   0.757   0.579 -4.6895  0.7393  1.2707
  107SOL     OW  319   0.303   1.720   0.740 -0.2211  0.6001 -0.3262
  107SOL    HW1  320   0.325   1.751   0.834 -0.2350  1.0348 -3.7994
  107SOL    HW2  321   0.382   1.734   0.678 -1.6498 -0.8599 -2.2212
  108SOL     OW  322   2.678   2.522   1.487 -0.1704 -0.0389 -0.3517
  108SOL    HW1  323   2.761   2.544   1.543  0.8376  0.4314  0.4898
  108SOL    HW2  324   2.700   2.537   1.387 -0.1942  2.0956  1.1808
  109SOL     OW  325   1.721   0.055   0.923 -1.3036 -0.1915  0.5735
  109SOL    HW1  326   1.660   0.096   0.852 -2.9527 -1.4823 -3.5421
  109SOL    HW2  327   1.787   0.127   0.960  1.7290  1.1818  0.1076
  110SOL     OW  328   0.567   2.233   2.581  0.1089 -0.0329 -0.4275
  110SOL    HW1  329   0.550   2.205   2.485  0.6315  0.3898 -0.4032
  110SOL    HW2  330   0.647   2.185   2.619  0.0841  0.4799 -3.9037
  111SOL     OW  331   1.457   2.680   1.932 -0.4118  0.0760 -1.0571
  111SOL    HW1  332   1.430   2.585   1.911  2.7894  0.4309 -1.6615
  111SOL    HW2  333   1.507   2.720   1.856 -3.1371  0.5575  0.7861
  112SOL     OW  334   1.882   2.387   2.907  0.9239 -0.4697  0.1397
  112SOL    HW1  335   1.809   2.444   2.947 -0.5534 -2.1813 -0.2584
  112SOL    HW2  336   1.847   2.320   2.839 -0.7573  1.6437 -1.6352
  113SOL     OW  337   1.528   2.333   1.400 -0.7189  0.8552 -0.7131
  113SOL    HW1  338   1.553   2.373   1.308 -2.5577 -2.2879  0.4718
  113SOL    HW2  339   1.606   2.269   1.435  0.0953 -2.8949  0.8005
  114SOL     OW  340   2.752   0.930   0.776  0.7641  0.6027  0.2919
  114SOL    HW1  341   2.756   0.982   0.862 -3.4294  0.3089  1.2068
  114SOL    HW2  342   2.777   0.835   0.786 -2.3650 -1.6972 -0.4385
  115SOL     OW  343   0.588   0.923   2.968  0.4675  0.4610 -0.5285
  115SOL    HW1  344   0.489   0.952   2.955 -2.3853 -1.0552  1.2924
  115SOL    HW2  345   0.586   0.857   3.050 -0.2281 -2.0937  3.0705
  116SOL     OW  346   2.538   1.334   2.276 -0.2546 -0.5225 -0.6161
  116SOL    HW1  347   2.582   1.316   2.363  0.1676  1.4930  0.1748
  116SOL    HW2  348   2.474   1.259   2.248 -0.0247 -2.4368  0.5566
  117SOL     OW  349   0.355   2.691   0.550  0.1823 -0.2798  0.3630
  117SOL    HW1  350   0.299   2.614   0.586 -1.0176 -0.8459 -1.4072
  117SOL    HW2  351   0.407   2.668   0.463 -2.1215 -0.2081  0.7003
  118SOL     OW  352   0.799   1.936   2.355 -0.0365 -0.2072 -0.9655
  118SOL    HW1  353   0.839   2.008   2.420  0.7625  0.3950  1.9579
  118SOL    HW2  354   0.697   1.940   2.363 -1.5651  1.3930 -0.7767
  119SOL     OW  355   0.198   2.288   2.786 -0.0836 -0.5792  0.5516
  119SOL    HW1  356   0.131   2.214   2.819  1.3399 -2.2946  1.3835
  119SOL    HW2  357   0.282   2.293   2.846 -2.3711 -0.2269 -2.2447
  120SOL     OW  358   0.974   0.797   2.961  0.2098  0.6034 -0.1387
  120SOL    HW1  359   1.069   0.831   2.943  1.3608 -0.0194  0.3970
  120SOL    HW2  360   0.955   0.802   3.062 -3.3445  0.6419 -0.8986
  121SOL     OW  361   1.250   2.857   1.115  0.1449 -0.3482 -0.1937
  121SOL    HW1  362   1.222   2.818   1.023 -0.5985 -0.2973 -1.1558
  121SOL    HW2  363   1.321   2.929   1.100  0.5858  0.0144 -4.6228
  122SOL     OW  364   2.442   2.424   1.608  0.2365 -0.6503  0.6979
  122SOL    HW1  365   2.368   2.495   1.629  0.8225 -0.9146  1.8609
  122SOL    HW2  366   2.527   2.467   1.572  0.7783 -1.7087  0.4646
  123SOL     OW  367   0.642   2.435   0.793  0.2745  0.0410  0.1560
  123SOL    HW1  368   0.611   2.491   0.712  1.1960 -3.8290 -0.0453
  123SOL    HW2  369   0.581   2.451   0.877 -0.6430 -1.8429  1.2438
  124SOL     OW  370   2.227   0.823   3.042 -0.3959  0.5433  0.6611
  124SOL    HW1  371   2.182   0.822   2.950  0.0422 -0.2832  3.4001
  124SOL    HW2  372   2.226   0.727   3.076 -0.8391 -1.6105 -0.2806
  125SOL     OW  373   0.550   0.912   0.353  0.3848  0.1053  0.3522
  125SOL    HW1  374   0.520   0.868   0.440 -0.9433 -0.9481 -2.8256
  125SOL    HW2  375   0.622   0.978   0.375 -0.2052  0.3327 -0.3902
  126SOL     OW  376   3.056   1.414   0.464  0.6935  0.2656  0.3483
  126SOL    HW1  377   0.045   1.440   0.537  0.0580  0.3475  1.7396
  126SOL    HW2  378   2.961   1.405   0.499  0.7949  1.8624  0.6278
  127SOL     OW  379   0.573   1.744   2.086 -0.1729 -0.2062 -0.0456
  127SOL    HW1  380   0.662   1.692   2.083 -2.4825  0.0407 -1.3026
  127SOL    HW2  381   0.515   1.710   2.008  0.8249  1.2916  1.1284
  128SOL     OW  382   0.728   1.163   2.963  0.8780 -0.3977 -0.1553
  128SOL    HW1  383   0.801   1.176   2.895  0.1922  0.4399  0.4225
  128SOL    HW2  384   0.685   1.073   2.956  0.5246  1.5263  0.4162
  129SOL     OW  385   2.557   1.345   0.837  0.5268  0.1540  0.2491
  129SOL    HW1  386   2.609   1.370   0.748  1.9964 -1.9722  1.2310
  129SOL    HW2  387   2.467   1.392   0.839  1.4411  0.8430 -0.8670
  130SOL     OW  388   2.365   1.097   1.587 -0.7128  0.3304  0.3902
  130SOL    HW1  389   2.453   1.045   1.609  0.9603  0.3057  0.4083
  130SOL    HW2  390   2.378   1.194   1.600 -0.6427 -2.6653 -0.6449
  131SOL     OW  391   2.754   3.069   2.846  0.4487  0.0863  0.0587
  131SOL    HW1  392   2.836   3.032   2.798  2.7317  1.0759  0.2023
  131SOL    HW2  393   2.774   0.031   2.934 -1.2931  3.0807 -1.3162
  132SOL     OW  394   0.092   1.779   1.233 -0.2033 -0.3149 -0.3539
  132SOL    HW1  395   0.176   1.748   1.192 -2.3918  1.7683  1.5660
  132SOL    HW2  396   0.032   1.836   1.173  1.8580  1.1112  2.7092
  133SOL     OW  397   0.810   0.433   1.293  0.3710 -0.3712 -0.0343
  133SOL    HW1  398   0.876   0.497   1.341 -0.3417  0.2176  1.1619
  133SOL    HW2  399   0.716   0.444   1.329 -2.1165  1.6594  1.0507
  134SOL     OW  400   0.153   1.969   0.062 -0.5725  0.1482 -0.3921
  134SOL    HW1  401   0.072   1.942   0.013  2.9032 -1.3056  0.7905
  134SOL    HW2  402   0.134   2.023   0.146  3.4599 -2.1697 -0.1746
  135SOL     OW  403   1.915   0.790   1.389 -0.0748 -0.1175 -0.1395
  135SOL    HW1  404   1.834   0.795   1.445  0.3287 -0.4169  1.2593
  135SOL    HW2  405   1.917   0.704   1.335 -0.3907 -0.0676  0.0290
  136SOL     OW  406   0.157   1.125   0.518 -0.5331  0.0895 -0.5086
  136SOL    HW1  407   0.217   1.207   0.512 -0.7186  0.5676  0.4967
  136SOL    HW2  408   0.077   1.133   0.458 -0.7641 -1.1806  0.9452
  137SOL     OW  409   2.975   1.240   0.701 -0.3725 -0.0577  0.4953
  137SOL    HW1  410   3.024   1.157   0.740  3.9527  3.7435 -0.0472
  137SOL    HW2  411   3.003   1.321   0.759  0.0240 -0.9118  2.0654
  138SOL     OW  412   1.807   0.938   0.856 -0.0585  0.3468  0.2175
  138SOL    HW1  413   1.748   0.866   0.817  2.1480  1.2629  3.7375
  138SOL    HW2  414   1.847   0.907   0.945 -0.0682  0.1777 -1.2690
  139SOL     OW  415   1.603   2.681   0.188 -0.5135  0.7363  0.1911
  139SOL    HW1  416   1.632   2.778   0.184  2.1071  0.6643 -2.3703
  139SOL    HW2  417   1.628   2.645   0.281 -0.5460 -0.4492 -1.2955
  140SOL     OW  418   1.376   1.533   1.618 -0.2402 -0.2849 -0.0655
  140SOL    HW1  419   1.468   1.528   1.662  0.8302 -0.9798  1.0647
  140SOL    HW2  420   1.326   1.442   1.608  1.5078 -0.9221 -1.3571
  141SOL     OW  421   1.576   2.085   0.473  0.3199  0.1238  0.2689
  141SOL    HW1  422   1.638   2.036   0.412  0.4185  2.2677  2.5080
  141SOL    HW2  423   1.484   2.074   0.434  0.2502 -0.5517  2.9189
  142SOL     OW  424   0.813   0.582   2.999 -0.7622 -0.2277  0.0860
  142SOL    HW1  425   0.805   0.534   0.010 -0.4304 -1.2343 -1.9291
  142SOL    HW2  426   0.870   0.665   2.997  0.4563 -0.3755  0.6397
  143SOL     OW  427   0.407   2.322   2.966  0.2218  0.3878  0.2546
  143SOL    HW1  428   0.445   2.231   2.947  0.7625  1.5717  0.6187
  143SOL    HW2  429   0.370   2.320   3.061  0.2846 -0.0469 -3.0988
  144SOL     OW  430   1.475   3.002   1.079  0.0410  0.2305 -0.0795
  144SOL    HW1  431   1.468   0.021   1.056  0.4296  0.5695  0.7366
  144SOL    HW2  432   1.568   2.984   1.105 -1.6600  0.4847 -1.9176
  145SOL     OW  433   1.974   1.243   0.209 -0.3100 -0.7485  0.0256
  145SOL    HW1  434   1.994   1.230   0.308  0.9489  1.0017  2.4223
  145SOL    HW2  435   1.878   1.284   0.191 -2.7134  1.8228 -1.3526
  146SOL     OW  436   3.070   2.330   0.635 -0.1640  0.0344 -0.0427
  146SOL    HW1  437   0.058   2.262   0.671 -3.2326  1.0836 -2.6339
  146SOL    HW2  438   2.976   2.295   0.641  1.3894  1.7521 -0.3680
  147SOL     OW  439   2.412   3.014   1.495  0.4178 -0.0609 -0.1202
  147SOL    HW1  440   2.454   2.939   1.546 -1.6625  3.9095  0.8636
  147SOL    HW2  441   2.465   3.029   1.412 -3.7392 -3.5809 -0.8436
  148SOL     OW  442   1.453   3.008   1.863  0.3062  0.0591  0.6432
  148SOL    HW1  443   1.513   2.986   1.784 -1.9873  1.3652  2.0768
  148SOL    HW2  444   1.372   2.947   1.859 -1.3201  1.5121  1.2588
  149SOL     OW  445   1.840   0.586   2.323 -0.3723 -0.3500 -0.6455
  149SOL    HW1  446   1.895   0.530   2.385  0.8295 -0.8594  1.0274
  149SOL    HW2  447   1.835   0.547   2.229 -0.9089  0.3830 -1.6683
  150SOL     OW  448   0.266   2.881   0.261 -0.4894 -0.2688 -0.1614
  150SOL    HW1  449   0.360   2.901   0.293  0.8095 -0.2094 -1.0000
  150SOL    HW2  450   0.247   2.932   0.174  1.3130  2.1483 -1.6300
  151SOL     OW  451   0.271   2.339   0.154 -0.3327  0.7566 -0.1619
  151SOL    HW1  452   0.295   2.411   0.224  0.6624 -1.7378 -2.6449
  151SOL    HW2  453   0.177   2.344   0.116  2.7027  0.2618 -0.5561
  152SOL     OW  454   2.945   3.001   0.745 -0.8004  0.2031  0.2553
  152SOL    HW1  455   3.045   3.015   0.756 -2.4525  0.0543  0.8752
  152SOL    HW2  456   2.897   0.004   0.777  0.5481 -1.4666  0.4197
  153SOL     OW  457   2.439   0.047   0.937 -0.0097 -0.4038 -0.4138
  153SOL    HW1  458   2.358   0.003   0.890  1.5662 -1.5140  0.2932
  153SOL    HW2  459   2.478   0.116   0.875  1.2520  0.8877  0.7281
  154SOL     OW  460   0.822   0.506   1.903  0.0581  0.2906 -0.2968
  154SOL    HW1  461   0.895   0.495   1.975  1.4654  0.3734 -0.3572
  154SOL    HW2  462   0.769   0.595   1.916  0.1188 -1.0834 -0.1712
  155SOL     OW  463   2.966   1.198   1.060  0.3704 -0.5612  0.3967
  155SOL    HW1  464   2.994   1.281   1.001  0.9234  1.9792 -2.8481
  155SOL    HW2  465   2.971   1.229   1.153 -0.5407 -0.2179 -2.6354
  156SOL     OW  466   2.874   2.174   0.059  0.1302  0.4467  0.0078
  156SOL    HW1  467   2.881   2.131   0.150 -0.0445 -1.4159 -2.7837
  156SOL    HW2  468   2.818   2.107   0.007  0.8739  0.0151  1.5575
  157SOL     OW  469   0.893   0.788   0.136 -0.2860 -0.3539 -0.3975
  157SOL    HW1  470   0.891   0.743   0.227  2.0633 -0.9271  1.3426
  157SOL    HW2  471   0.925   0.888   0.147  1.4561  1.5982  3.1931
  158SOL     OW  472   2.406   3.036   2.615  0.5305  0.6442  0.4554
  158SOL    HW1  473   2.441   0.007   2.695 -0.7129 -1.7629 -0.8632
  158SOL    HW2  474   2.343   2.960   2.644  1.0212 -0.2061  0.4316
  159SOL     OW  475   0.787   0.120   0.433 -0.4123  0.3143 -0.1953
  159SOL    HW1  476   0.819   0.080   0.521  0.0314  1.1676 -0.8504
  159SOL    HW2  477   0.844   0.196   0.397 -1.6170  1.2658 -0.9378
  160SOL     OW  478   1.346   1.792   2.636 -0.0394  0.1909  0.4822
  160SOL    HW1  479   1.298   1.823   2.549  0.5859  0.6964 -2.3617
  160SOL    HW2  480   1.305   1.701   2.662 -1.8227 -0.2036  1.1244
  161SOL     OW  481   3.004   1.057   2.536 -0.5913 -0.6503  0.1153
  161SOL    HW1  482   2.923   1.076   2.477 -2.9800 -2.4340  2.8236
  161SOL    HW2  483   3.037   1.134   2.591  0.2072 -0.6965 -0.0576
  162SOL     OW  484   0.442   2.376   1.569 -0.3057 -0.2694  0.4020
  162SOL    HW1  485   0.365   2.347   1.509 -0.5067  3.0653 -0.8733
  162SOL    HW2  486   0.494   2.293   1.597 -0.0787 -3.3431 -1.8470
  163SOL     OW  487   2.296   0.269   2.235 -0.2133 -0.6171 -0.3166
  163SOL    HW1  488   2.300   0.370   2.243 -0.1845  0.5858 -1.3053
  163SOL    HW2  489   2.299   0.232   2.329  0.7104  0.7656  2.1550
  164SOL     OW  490   2.476   1.368   0.545 -0.3131  0.4694 -0.3019
  164SOL    HW1  491   2.567   1.354   0.513 -3.1318  4.2845  0.3125
  164SOL    HW2  492   2.440   1.449   0.503 -0.6659  0.0878  4.5860
  165SOL     OW  493   0.196   0.222   1.642  0.0810 -0.5858 -0.3555
  165SOL    HW1  494   0.139   0.182   1.719  0.2234  0.9764  1.0722
  165SOL    HW2  495   0.263   0.151   1.615 -0.4207 -1.5847 -0.2965
  166SOL     OW  496   2.082   1.190   0.477  0.4264  0.3964 -0.4055
  166SOL    HW1  497   2.042   1.120   0.535 -0.1872  1.2638  0.2372
  166SOL    HW2  498   2.177   1.163   0.451  1.0441 -1.0261 -0.0368
  167SOL     OW  499   0.337   0.586   0.478  0.0403 -0.6036 -0.0018
  167SOL    HW1  500   0.291   0.604   0.390 -0.0219  0.8917 -0.1959
  167SOL    HW2  501   0.370   0.675   0.523  0.7732  2.7965  1.7125
  168SOL     OW  502   1.676   2.561   2.317 -0.0017 -0.2509 -0.0392
  168SOL    HW1  503   1.745   2.489   2.291  0.5236 -0.8415  2.6652
  168SOL    HW2  504   1.693   2.642   2.263 -0.7834 -1.1821 -2.0814
  169SOL     OW  505   0.570   1.341   0.850  0.3581  0.1609  0.1812
  169SOL    HW1  506   0.558   1.264   0.778 -1.3803 -1.5648 -1.8520
  169SOL    HW2  507   0.614   1.304   0.933 -1.1416 -1.7429 -0.1247
  170SOL     OW  508   0.016   0.570   1.336 -0.5634 -0.4165 -0.1414
  170SOL    HW1  509   0.095   0.513   1.320  0.4161  0.2424  0.8341
  170SOL    HW2  510   3.056   0.554   1.428  1.8195 -0.3982 -0.6424
  171SOL     OW  511   1.279   2.386   2.503  0.2869 -0.4312 -0.3875
  171SOL    HW1  512   1.352   2.382   2.573 -0.2120 -0.1555 -1.1929
  171SOL    HW2  513   1.310   2.448   2.427 -4.1798 -0.3976  0.2486
  172SOL     OW  514   0.119   2.813   1.284 -0.2560 -0.0311 -0.2423
  172SOL    HW1  515   0.192   2.744   1.265 -1.3946  1.7956  1.5520
  172SOL    HW2  516   0.148   2.906   1.252 -0.4095 -2.0018 -1.3886
  173SOL     OW  517   1.496   0.753   2.706  0.7591 -1.1732  0.5331
  173SOL    HW1  518   1.530   0.658   2.723  0.5751  1.1042  1.0336
  173SOL    HW2  519   1.549   0.796   2.626  0.4413  2.3892 -0.2817
  174SOL     OW  520   1.840   3.073   2.868 -0.3958 -0.0579  0.0203
  174SOL    HW1  521   1.760   0.017   2.809  1.5099  0.0354  1.8319
  174SOL    HW2  522   1.820   2.998   2.935  3.5640  0.5484 -0.3099
  175SOL     OW  523   1.854   2.224   0.282  0.0440  0.4016  0.7444
  175SOL    HW1  524   1.852   2.125   0.289 -1.0459  3.5310  0.4055
  175SOL    HW2  525   1.903   2.269   0.356  0.5809  0.2222  0.1760
  176SOL     OW  526   1.908   0.230   3.016 -0.8888 -0.0799 -0.3380
  176SOL    HW1  527   1.982   0.196   0.001  3.0133  0.6094  0.8237
  176SOL    HW2  528   1.874   0.158   2.951  0.2913  0.1580 -1.7109
  177SOL     OW  529   1.124   1.952   0.505 -0.0657  0.8901  0.3136
  177SOL    HW1  530   1.052   1.917   0.443  2.2285  0.8716  1.6180
  177SOL    HW2  531   1.096   2.047   0.532 -2.0467 -0.3863  1.3541
  178SOL     OW  532   2.634   2.080   3.006  0.1722 -0.1572  0.7828
  178SOL    HW1  533   2.581   2.098   2.922  0.4316 -0.7716 -1.7166
  178SOL    HW2  534   2.586   2.113   0.010  0.6345 -1.2925  2.2772
  179SOL     OW  535   0.369   2.939   2.851 -0.6189 -0.0692 -0.4383
  179SOL    HW1  536   0.360   2.857   2.798  0.1231  2.0214  1.2623
  179SOL    HW2  537   0.344   3.025   2.800 -0.7144  0.4376 -0.9376
  180SOL     OW  538   1.480   1.139   0.963 -0.1331  0.1031  0.3764
  180SOL    HW1  539   1.439   1.234   0.966 -0.1979  1.6958  1.8935
  180SOL    HW2  540   1.538   1.115   0.882 -2.5382  0.3033  0.1421
  181SOL     OW  541   1.930   0.925   2.089 -0.1688 -0.0842  0.2160
  181SOL    HW1  542   1.828   0.913   2.075 -0.2814 -0.8997  1.7028
  181SOL    HW2  543   1.986   0.856   2.038 -0.3970 -0.4374  1.7437
  182SOL     OW  544   2.791   2.915   2.448 -1.0918 -0.4460 -0.2198
  182SOL    HW1  545   2.716   2.847   2.449  0.9709 -0.4044  1.2229
  182SOL    HW2  546   2.883   2.876   2.473 -0.1978 -1.0171  1.5028
  183SOL     OW  547   1.315   0.841   2.221 -0.0155 -0.4482 -0.6320
  183SOL    HW1  548   1.410   0.839   2.253 -1.3000 -1.6943  1.8401
  183SOL    HW2  549   1.314   0.773   2.147 -1.9566 -0.2131  2.1647
  184SOL     OW  550   0.560   1.133   1.465  0.2423 -0.6417  0.3019
  184SOL    HW1  551   0.572   1.232   1.445  1.3619 -1.0833 -0.2887
  184SOL    HW2  552   0.515   1.119   1.552 -1.4414 -0.0579 -2.0296
  185SOL     OW  553   1.949   0.773   0.438  0.5496 -0.1408 -0.1253
  185SOL    HW1  554   1.887   0.856   0.448 -3.1985  0.3390  2.1863
  185SOL    HW2  555   2.014   0.779   0.361 -2.2367  2.2742 -1.3695
  186SOL     OW  556   0.730   2.697   3.054  0.0305 -0.2358 -0.0071
  186SOL    HW1  557   0.627   2.712   3.061 -2.1187  0.3945 -0.3459
  186SOL    HW2  558   0.742   2.701   2.951  0.0055  0.5252  0.2408
  187SOL     OW  559   2.310   1.090   3.051  0.6760  0.0154 -0.2058
  187SOL    HW1  560   2.257   1.006   3.057 -1.6225  1.0350  1.7374
  187SOL    HW2  561   2.270   1.153   2.979 -1.4252  1.1730 -0.7485
  188SOL     OW  562   0.067   1.650   0.946  0.4510 -0.4557  0.3568
  188SOL    HW1  563   0.167   1.667   0.965 -3.0775  3.5893 -1.0889
  188SOL    HW2  564   0.010   1.729   0.973  1.2034  0.8599  1.6045
  189SOL     OW  565   2.581   0.317   0.140  0.2220  0.0971 -0.5617
  189SOL    HW1  566   2.638   0.316   0.056 -0.6469 -0.1636 -1.1095
  189SOL    HW2  567   2.534   0.228   0.163 -1.9798 -0.0223  0.4202
  190SOL     OW  568   1.135   1.493   1.900  0.1187  0.1117 -0.0456
  190SOL    HW1  569   1.100   1.495   1.996 -0.6982 -0.3626 -1.0606
  190SOL    HW2  570   1.225   1.452   1.896 -0.5174  0.8099  0.6662
  191SOL     OW  571   3.003   0.469   1.591  0.0255  0.1753  0.3576
  191SOL    HW1  572   2.932   0.453   1.519  0.9614  0.5325 -1.4446
  191SOL    HW2  573   2.973   0.446   1.685 -0.8405  0.2537  0.7402
  192SOL     OW  574   1.893   1.567   1.225  0.1161 -0.0545  0.4324
  192SOL    HW1  575   1.883   1.663   1.195 -1.9531 -1.2915 -0.4255
  192SOL    HW2  576   1.869   1.502   1.153  2.5511  3.8566  0.1074
  193SOL     OW  577   1.179   0.543   0.912 -0.8166  0.0322  0.3225
  193SOL    HW1  578   1.093   0.551   0.962  0.1717 -2.4862  0.7390
  193SOL    HW2  579   1.170   0.480   0.832  0.0874 -2.2193  2.0191
  194SOL     OW  580   1.142   2.459   1.667  0.4656  0.0856 -0.1659
  194SOL    HW1  581   1.221   2.519   1.653  0.9876  0.5071 -0.7787
  194SOL    HW2  582   1.116   2.457   1.765 -2.2681 -2.0321 -1.9700
  195SOL     OW  583   2.390   0.394   2.768 -0.6698 -0.0055 -0.7964
  195SOL    HW1  584   2.301   0.426   2.733 -1.7685 -2.3115 -3.0717
  195SOL    HW2  585   2.382   0.346   2.859 -2.5391 -2.0388  2.7698
  196SOL     OW  586   1.098   2.483   1.923 -0.1057 -0.1938  0.0241
  196SOL    HW1  587   1.073   2.581   1.942 -2.4469  0.0908 -0.2338
  196SOL    HW2  588   1.150   2.436   1.999  2.4641  1.0026 -0.1076
  197SOL     OW  589   0.895   2.830   0.973  0.1309  0.4719 -1.0437
  197SOL    HW1  590   0.898   2.911   1.038  1.3956  0.7582  1.3791
  197SOL    HW2  591   0.973   2.829   0.907 -3.9520 -0.0540  1.1667
  198SOL     OW  592   0.959   0.865   0.590  0.8882  0.6755  0.3571
  198SOL    HW1  593   0.944   0.856   0.691  1.6688 -2.6133  3.4343
  198SOL    HW2  594   0.885   0.920   0.543  0.6140 -1.5800 -1.1383
  199SOL     OW  595   0.033   2.693   1.989 -0.1764 -0.1640  0.4507
  199SOL    HW1  596   3.023   2.656   1.959  0.9679 -0.9542  0.3443
  199SOL    HW2  597   0.093   2.614   2.010 -0.8429  2.7714 -1.8075
  200SOL     OW  598   2.031   1.951   2.218 -0.5795 -0.0931 -0.8131
  200SOL    HW1  599   2.013   1.851   2.211 -1.3096  3.3783  1.7057
  200SOL    HW2  600   2.070   1.986   2.130 -1.4197  1.2100  0.0677
  201SOL     OW  601   0.243   2.055   1.572 -0.5094 -0.0679  0.2199
  201SOL    HW1  602   0.155   2.048   1.524 -1.8727 -1.6789  0.4685
  201SOL    HW2  603   0.236   2.123   1.648 -0.9109  0.1694  2.1015
  202SOL     OW  604   2.503   0.137   0.510  0.1063 -0.8497 -0.9737
  202SOL    HW1  605   2.499   0.194   0.426 -1.8253 -2.2690  0.2481
  202SOL    HW2  606   2.552   0.051   0.497  1.1258  1.0184  3.5660
  203SOL     OW  607   1.222   2.337   2.123  0.2856  0.3714  0.3372
  203SOL    HW1  608   1.240   2.233   2.118 -2.4963 -0.8039  1.0641
  203SOL    HW2  609   1.280   2.379   2.196 -0.2270 -0.7163 -0.2950
  204SOL     OW  610   1.136   2.184   1.842 -0.7821 -0.2912  0.0438
  204SOL    HW1  611   1.237   2.161   1.818  1.6176  0.9281  1.1535
  204SOL    HW2  612   1.131   2.284   1.859  0.2453  2.4265  1.7024
  205SOL     OW  613   1.285   1.714   1.795  0.0937 -0.2616 -0.3983
  205SOL    HW1  614   1.328   1.687   1.707 -0.8819 -2.1046  0.6464
  205SOL    HW2  615   1.238   1.631   1.833 -3.2378 -0.1340 -2.8688
  206SOL     OW  616   0.410   0.596   2.561 -0.0968 -0.0978  0.8797
  206SOL    HW1  617   0.507   0.596   2.574 -2.9919 -1.1661 -0.9646
  206SOL    HW2  618   0.377   0.690   2.545 -1.2104 -1.0677 -1.2777
  207SOL     OW  619   1.022   0.145   1.807 -0.3362  0.8673 -0.2757
  207SOL    HW1  620   0.957   0.220   1.784  1.2862 -2.4339 -1.2897
  207SOL    HW2  621   1.119   0.164   1.774  2.2791  1.6521 -1.1125
  208SOL     OW  622   0.699   2.720   1.951  0.3334 -0.5013 -0.7477
  208SOL    HW1  623   0.722   2.643   1.889 -0.5274  1.1628  1.3046
  208SOL    HW2  624   0.647   2.796   1.915  1.6428 -4.3504  2.1829
  209SOL     OW  625   1.277   0.647   0.005  0.1758 -0.5409 -0.0791
  209SOL    HW1  626   1.378   0.651   0.022 -0.4845  0.7802 -1.4056
  209SOL    HW2  627   1.255   0.606   2.993 -1.8427 -0.2360 -2.8266
  210SOL     OW  628   0.177   0.500   0.693 -0.4960 -0.0366  0.5819
  210SOL    HW1  629   0.079   0.487   0.662  0.3075  0.0698 -1.9434
  210SOL    HW2  630   0.239   0.517   0.609  2.9436  0.5701 -1.0043
  211SOL     OW  631   0.547   0.548   1.315  0.1904 -0.3463 -0.4609
  211SOL    HW1  632   0.488   0.576   1.239  1.4408 -1.2362  1.0327
  211SOL    HW2  633   0.498   0.550   1.404  0.2955  1.4760 -0.8411
  212SOL     OW  634   1.112   1.740   1.301  0.4357 -0.4759  0.1530
  212SOL    HW1  635   1.021   1.753   1.258  0.6172 -0.9055 -1.4380
  212SOL    HW2  636   1.123   1.793   1.385 -0.6358 -0.0428 -1.5797
  213SOL     OW  637   1.989   0.069   1.799  0.2112 -0.0830 -0.3902
  213SOL    HW1  638   2.058   0.070   1.723 -1.2881 -0.9981  1.5502
  213SOL    HW2  639   1.977   3.056   1.842 -1.7583  1.5276  1.9374
  214SOL     OW  640   0.822   2.380   2.391  0.0910 -0.2776  0.0081
  214SOL    HW1  641   0.874   2.413   2.307 -2.7689  2.3528 -1.2786
  214SOL    HW2  642   0.725   2.368   2.354 -2.4576  1.0939  0.2109
  215SOL     OW  643   2.769   1.596   1.203  0.7821 -0.2046  0.7343
  215SOL    HW1  644   2.809   1.685   1.222 -1.2765  1.8843  0.2971
  215SOL    HW2  645   2.775   1.566   1.105  0.6450 -2.4190 -1.0052
  216SOL     OW  646   0.307   0.918   1.967 -0.1719  0.4830  0.0231
  216SOL    HW1  647   0.296   0.851   1.889  1.7235  0.4556 -0.5749
  216SOL    HW2  648   0.263   1.003   1.941  0.0519 -0.3527 -1.6471
  217SOL     OW  649   0.016   0.140   0.133 -0.7200 -0.3170  0.0824
  217SOL    HW1  650   3.069   0.239   0.119 -1.8172  2.9441 -0.8378
  217SOL    HW2  651   3.070   0.100   0.222  2.0257  1.7468 -0.1429
  218SOL     OW  652   1.679   1.962   1.353 -0.0377 -0.1367  0.1278
  218SOL    HW1  653   1.583   1.935   1.365 -0.9729 -0.0244 -0.3332
  218SOL    HW2  654   1.705   1.976   1.256  2.8608  0.0479 -1.0508
  219SOL     OW  655   1.497   0.290   0.112 -0.4503  0.1706 -0.4258
  219SOL    HW1  656   1.482   0.204   0.062  0.4736 -3.0590  1.3495
  219SOL    HW2  657   1.524   0.268   0.211  0.2216 -0.5929  3.2012
  220SOL     OW  658   1.631   1.973   1.063  0.2552  0.4287 -0.0068
  220SOL    HW1  659   1.664   2.069   1.043  0.7273 -0.5455  0.3199
  220SOL    HW2  660   1.529   1.981   1.087  0.2383 -2.4074 -1.1709
  221SOL     OW  661   0.032   0.552   0.289 -0.8855 -0.5535 -0.2761
  221SOL    HW1  662   0.123   0.592   0.255  0.4462  1.5865  5.8181
  221SOL    HW2  663   3.067   0.491   0.219  0.9075 -0.7456  0.6012
  222SOL     OW  664   0.957   2.742   1.527  0.0937 -0.1528 -0.4045
  222SOL    HW1  665   0.906   2.786   1.452 -1.6332 -2.1883  3.3925
  222SOL    HW2  666   0.992   2.651   1.498  1.5646  1.5364 -0.0183
  223SOL     OW  667   1.222   0.520   2.866  0.0863  0.0684  0.0417
  223SOL    HW1  668   1.206   0.550   2.770 -0.2382  2.5130  0.6355
  223SOL    HW2  669   1.141   0.454   2.884 -2.0038 -2.5108  0.6489
  224SOL     OW  670   2.733   0.400   1.178  0.2541 -0.0197 -0.0110
  224SOL    HW1  671   2.686   0.424   1.266  0.1196 -0.8298 -0.3421
  224SOL    HW2  672   2.702   0.460   1.100 -0.1162 -0.6951 -1.3355
  225SOL     OW  673   0.786   1.184   1.590 -0.2714 -0.2908  0.2929
  225SOL    HW1  674   0.803   1.284   1.586 -0.1342  2.3791  0.8978
  225SOL    HW2  675   0.705   1.152   1.537 -3.3133  0.1444 -1.9129
  226SOL     OW  676   1.117   3.005   0.676 -0.5593 -0.1013 -0.0105
  226SOL    HW1  677   1.019   3.034   0.666 -2.6021 -2.1358  2.1192
  226SOL    HW2  678   1.160   2.993   0.586 -0.7724 -2.1567  2.4930
  227SOL     OW  679   1.065   1.912   1.797  0.2641 -0.2393  0.0964
  227SOL    HW1  680   1.143   1.850   1.816 -0.0335  1.4350 -1.1711
  227SOL    HW2  681   1.084   2.003   1.838 -0.7615  0.3873 -0.7712
  228SOL     OW  682   0.551   2.933   1.885 -0.2288 -0.4741 -0.3840
  228SOL    HW1  683   0.518   3.003   1.816 -0.9137  2.3575 -1.2623
  228SOL    HW2  684   0.521   2.964   1.978  1.2659 -1.0360 -0.3409
  229SOL     OW  685   2.605   0.772   0.359  0.3364 -0.0045  0.1427
  229SOL    HW1  686   2.666   0.839   0.404  1.1695  0.1017 -0.1329
  229SOL    HW2  687   2.579   0.806   0.268  2.6827 -1.0865 -3.2763
  230SOL     OW  688   0.120   1.758   1.750  0.2691  0.5145 -0.5005
  230SOL    HW1  689   0.209   1.773   1.692  1.3094  0.3559 -1.3542
  230SOL    HW2  690   0.107   1.656   1.762  1.2723  2.5699 -1.8250
  231SOL     OW  691   1.019   2.967   1.233  0.1706  0.4647 -0.1795
  231SOL    HW1  692   0.945   2.897   1.257 -1.8792  1.9772  0.2764
  231SOL    HW2  693   1.109   2.922   1.216 -0.7387 -0.7452 -0.7657
  232SOL     OW  694   2.248   2.417   0.100 -0.5618  0.0786  0.4913
  232SOL    HW1  695   2.195   2.484   0.044 -1.1080  1.1319  1.3542
  232SOL    HW2  696   2.249   2.333   0.048  0.4207  1.9927  2.3376
  233SOL     OW  697   1.198   2.756   3.071  0.3399  0.0140 -0.4806
  233SOL    HW1  698   1.150   2.836   0.030 -0.1761  1.7889 -0.6488
  233SOL    HW2  699   1.155   2.730   2.983  1.1277 -0.2081 -0.0052
  234SOL     OW  700   0.661   0.947   2.243  0.6689  0.3858  0.3101
  234SOL    HW1  701   0.652   0.969   2.144  1.7602 -1.6442  0.5172
  234SOL    HW2  702   0.706   1.024   2.292  2.3244  1.1297 -0.2874
  235SOL     OW  703   3.076   2.332   0.072 -0.5282 -0.3498 -0.1517
  235SOL    HW1  704   3.047   2.430   0.056 -0.2849  1.2083 -2.1153
  235SOL    HW2  705   3.000   2.263   0.074 -0.5902  3.1692 -2.2639
  236SOL     OW  706   2.076   2.434   2.591 -0.5191  0.1171 -0.3793
  236SOL    HW1  707   2.110   2.381   2.672 -2.1376  2.9041  1.3973
  236SOL    HW2  708   2.016   2.373   2.530 -1.0125 -0.5383 -0.0010
  237SOL     OW  709   2.225   1.037   1.356 -0.5696  0.1542 -0.1460
  237SOL    HW1  710   2.306   1.023   1.291 -1.4811 -3.3288 -2.8519
  237SOL    HW2  711   2.265   1.061   1.448  1.2276 -0.1904 -3.0765
  238SOL     OW  712   1.536   2.998   2.321  0.0564  0.3521  0.2518
  238SOL    HW1  713   1.598   2.959   2.390  0.4018 -4.4010 -3.7676
  238SOL    HW2  714   1.578   3.015   2.230  0.8212 -1.5958  4.3658
  239SOL     OW  715   0.892   1.897   2.108 -0.1335 -0.0801  0.3461
  239SOL    HW1  716   0.859   1.912   2.204 -0.3545 -0.6035 -1.3848
  239SOL    HW2  717   0.887   1.982   2.052 -2.1443 -0.2984  1.5389
  240SOL     OW  718   2.871   2.810   0.536 -0.3953 -0.8354 -0.0349
  240SOL    HW1  719   2.954   2.801   0.477 -0.7344 -0.2889  2.2192
  240SOL    HW2  720   2.889   2.869   0.613  0.8316 -0.1761  0.1132
  241SOL     OW  721   1.357   1.993   3.071 -0.0821 -0.1867 -0.9080
  241SOL    HW1  722   1.396   2.058   0.058  0.0007  0.9637 -1.2529
  241SOL    HW2  723   1.410   1.908   3.074  0.4478  3.0392  0.6531
  242SOL     OW  724   2.006   0.997   0.097 -0.8704 -0.3034 -0.2034
  242SOL    HW1  725   2.004   1.096   0.132  1.7698  1.4141 -0.6010
  242SOL    HW2  726   2.085   0.951   0.138 -2.6009 -0.8482  1.4534
  243SOL     OW  727   0.593   0.324   2.084 -0.0712 -0.1516  0.0451
  243SOL    HW1  728   0.541   0.406   2.045 -3.8704 -1.9634  0.3770
  243SOL    HW2  729   0.682   0.353   2.126  2.2558  0.6807  3.6295
  244SOL     OW  730   1.464   2.555   2.859 -0.0183  0.5810 -0.5116
  244SOL    HW1  731   1.445   2.634   2.803 -0.0319 -1.8227  3.9491
  244SOL    HW2  732   1.563   2.566   2.891 -0.0712  2.8822 -1.8355
  245SOL     OW  733   1.775   2.898   3.067  0.1621  0.1902  0.0977
  245SOL    HW1  734   1.689   2.868   3.024  2.9917 -1.7534  2.0375
  245SOL    HW2  735   1.773   2.908   0.088  0.1622 -0.2797 -4.4190
  246SOL     OW  736   1.326   1.138   2.462  0.3878  0.2766  0.4354
  246SOL    HW1  737   1.422   1.149   2.423  0.5365 -0.1096 -0.3365
  246SOL    HW2  738   1.279   1.226   2.482  0.0696  2.5092  0.0909
  247SOL     OW  739   2.961   0.539   2.308  0.3928 -0.0476 -0.1823
  247SOL    HW1  740   2.999   0.628   2.273 -0.2461 -1.2904  1.0625
  247SOL    HW2  741   3.022   0.459   2.288 -0.9806 -2.1635  0.5783
  248SOL     OW  742   0.068   1.486   1.698 -0.0271 -0.2967 -0.4171
  248SOL    HW1  743   0.127   1.406   1.715 -0.3355  0.0126  4.0461
  248SOL    HW2  744   0.063   1.528   1.599 -2.9952  1.3688 -1.3851
  249SOL     OW  745   2.791   0.516   0.230 -0.1069 -0.8328  0.2450
  249SOL    HW1  746   2.737   0.434   0.201  0.3155 -3.8059 -2.3721
  249SOL    HW2  747   2.796   0.588   0.156  1.5351 -1.6209  1.3508
  250SOL     OW  748   2.916   0.227   0.558  0.2770  0.3709 -0.7919
  250SOL    HW1  749   2.857   0.308   0.538  0.4444  1.3867  0.5927
  250SOL    HW2  750   2.877   0.178   0.642 -0.8560  0.4090  4.8990
  251SOL     OW  751   0.778   1.318   2.058  0.4036 -0.3983  0.1589
  251SOL    HW1  752   0.854   1.273   2.107  2.1958  0.7277 -1.2889
  251SOL    HW2  753   0.755   1.273   1.970  2.5080  2.3732  1.9329
  252SOL     OW  754   1.634   1.818   1.578  0.3097 -0.6169  0.3500
  252SOL    HW1  755   1.670   1.887   1.512  0.4874 -1.7200 -0.8337
  252SOL    HW2  756   1.654   1.726   1.537 -0.4708  0.2668 -0.0781
  253SOL     OW  757   1.707   2.152   1.891  0.0523  0.8590 -0.1372
  253SOL    HW1  758   1.716   2.072   1.957  0.3946 -0.9099 -1.5648
  253SOL    HW2  759   1.694   2.237   1.940  2.1278 -1.6786 -0.3992
  254SOL     OW  760   0.596   2.207   2.310  0.3139 -0.2683  0.0925
  254SOL    HW1  761   0.569   2.123   2.261 -3.0780  0.4163 -1.8256
  254SOL    HW2  762   0.565   2.288   2.255  1.3375  1.7936 -0.5353
  255SOL     OW  763   1.410   0.531   0.519  0.0255 -0.5261  0.0948
  255SOL    HW1  764   1.356   0.525   0.431 -3.2073  2.8904 -1.1696
  255SOL    HW2  765   1.366   0.470   0.589 -2.2146  1.2609 -1.8387
  256SOL     OW  766   1.811   2.196   1.032  0.1280  0.2060  0.0317
  256SOL    HW1  767   1.869   2.201   1.114  0.0086  0.7926  0.9008
  256SOL    HW2  768   1.859   2.193   0.944  0.0842  1.2960  2.3488
  257SOL     OW  769   0.290   2.295   2.531 -0.3160 -1.1017 -0.2180
  257SOL    HW1  770   0.394   2.289   2.545  0.0754  0.3917  0.5321
  257SOL    HW2  771   0.245   2.294   2.624  0.9993  1.4428  1.7742
  258SOL     OW  772   0.318   1.159   2.409 -0.4673  0.3775  0.1232
  258SOL    HW1  773   0.384   1.137   2.486 -0.7841  1.0797 -0.5689
  258SOL    HW2  774   0.298   1.258   2.408  1.9705 -0.5284  1.1346
  259SOL     OW  775   1.161   0.926   2.446  0.3205 -0.1535 -0.7618
  259SOL    HW1  776   1.216   1.012   2.462  1.6880  3.3346  3.3815
  259SOL    HW2  777   1.221   0.856   2.393  4.4860 -3.8048 -2.3916
  260SOL     OW  778   2.235   0.644   0.871  0.1043 -0.6025 -0.0784
  260SOL    HW1  779   2.220   0.728   0.928  1.2466  1.1090  1.2186
  260SOL    HW2  780   2.238   0.674   0.771 -0.7797  0.9114 -3.8646
  261SOL     OW  781   0.780   0.415   0.139  0.6915  0.3958  0.1408
  261SOL    HW1  782   0.701   0.455   0.190  2.8417 -0.8608  0.7917
  261SOL    HW2  783   0.848   0.369   0.202 -1.3667  0.3734  0.1940
  262SOL     OW  784   2.025   2.702   2.659  0.2882 -0.1249 -0.4292
  262SOL    HW1  785   2.053   2.608   2.623 -3.0392 -1.5739 -0.8760
  262SOL    HW2  786   2.041   2.777   2.594  1.3140  0.1095  0.5420
  263SOL     OW  787   0.758   1.774   2.786 -0.1445 -0.1247 -0.0948
  263SOL    HW1  788   0.858   1.762   2.766  0.1633  1.3423  0.3774
  263SOL    HW2  789   0.704   1.763   2.703  0.1382  0.8850  2.3833
  264SOL     OW  790   0.436   1.417   1.723 -0.4143  0.3890 -0.0458
  264SOL    HW1  791   0.501   1.487   1.684  2.2916  1.4717  1.9794
  264SOL    HW2  792   0.452   1.404   1.823  1.1030 -0.3242  0.1302
  265SOL     OW  793   0.779   1.023   0.423 -0.4248 -0.0724  0.1074
  265SOL    HW1  794   0.798   1.082   0.501  0.6683 -2.2054  0.0644
  265SOL    HW2  795   0.827   1.042   0.337  0.6992  1.6319  2.5459
  266SOL     OW  796   1.638   1.766   0.285  0.3116  0.4737 -0.0051
  266SOL    HW1  797   1.691   1.681   0.288 -0.2540 -0.6058 -0.9684
  266SOL    HW2  798   1.580   1.779   0.368 -1.5662 -0.6391 -1.5912
  267SOL     OW  799   2.771   0.313   3.024  0.7770  0.4599  0.1151
  267SOL    HW1  800   2.811   0.225   3.051 -3.2290  2.1075 -0.9584
  267SOL    HW2  801   2.819   0.351   2.945  1.8066 -1.0579  1.1488
  268SOL     OW  802   0.640   0.526   2.814  0.3693 -0.3571  0.2469
  268SOL    HW1  803   0.684   0.529   2.723  0.3495 -0.1333  1.4629
  268SOL    HW2  804   0.708   0.554   2.887 -3.5202  2.9370  2.0556
  269SOL     OW  805   1.636   0.570   2.513  0.5372  0.3529  0.1792
  269SOL    HW1  806   1.550   0.618   2.496 -0.2966  0.4964  0.8744
  269SOL    HW2  807   1.697   0.576   2.430  0.8375  1.5769 -0.0497
  270SOL     OW  808   0.928   0.994   2.570 -0.8158  0.0835  0.4952
  270SOL    HW1  809   1.006   0.976   2.511  0.9430 -0.6088 -1.6496
  270SOL    HW2  810   0.869   0.912   2.577 -1.7469 -1.3480 -1.3018
  271SOL     OW  811   2.767   0.957   3.077  0.0410 -0.1520 -0.2010
  271SOL    HW1  812   2.747   1.021   0.074  0.0027  0.9737  0.5140
  271SOL    HW2  813   2.725   0.996   2.995 -0.4674  2.5276 -0.9568
  272SOL     OW  814   2.447   1.716   2.652  0.5837 -0.0173 -0.3322
  272SOL    HW1  815   2.476   1.786   2.586 -0.3127 -0.6138 -0.2855
  272SOL    HW2  816   2.439   1.625   2.611  0.5587  2.3261  1.3924
  273SOL     OW  817   0.121   0.229   2.472 -0.3016  0.3068 -0.4362
  273SOL    HW1  818   0.094   0.140   2.422 -1.2599  0.1187 -1.6884
  273SOL    HW2  819   0.214   0.260   2.439 -0.3174 -1.7540  1.8972
  274SOL     OW  820   2.946   3.039   1.409  0.1271  0.1665  0.0921
  274SOL    HW1  821   2.915   3.053   1.314 -1.0557 -0.9983  1.1384
  274SOL    HW2  822   3.033   0.003   1.428 -1.4807  0.4124 -0.6502
  275SOL     OW  823   1.968   1.438   0.510 -0.5756 -0.2933  0.4338
  275SOL    HW1  824   2.009   1.346   0.526  0.0286  0.3071  3.3689
  275SOL    HW2  825   1.879   1.447   0.554  1.3850 -0.4881  0.4264
  276SOL     OW  826   0.319   1.421   2.740 -0.5867 -0.0425  0.8893
  276SOL    HW1  827   0.403   1.375   2.776  1.6058  0.9938 -1.5769
  276SOL    HW2  828   0.301   1.407   2.641 -0.1930 -0.0076  0.2451
  277SOL     OW  829   2.109   2.581   1.965 -0.0732 -0.4704 -0.5238
  277SOL    HW1  830   2.185   2.629   1.919 -0.0861  0.8273  1.1597
  277SOL    HW2  831   2.061   2.645   2.028 -0.1465 -0.1554 -3.4661
  278SOL     OW  832   2.165   0.279   1.445  0.2656  0.1341 -0.2044
  278SOL    HW1  833   2.177   0.201   1.512 -1.4497 -0.2766  0.6585
  278SOL    HW2  834   2.130   0.251   1.355 -0.3372 -1.6760  0.2592
  279SOL     OW  835   1.421   1.172   2.955 -0.1035  0.2493  0.4862
  279SOL    HW1  836   1.409   1.131   2.859 -0.8204  1.7471  1.3292
  279SOL    HW2  837   1.449   1.101   3.023  0.8159  0.3892  1.1141
  280SOL     OW  838   0.614   1.683   1.067  0.0518 -0.1646 -0.1935
  280SOL    HW1  839   0.641   1.780   1.075  0.9386  2.6724 -0.3310
  280SOL    HW2  840   0.641   1.646   0.976 -0.3683 -0.7921  0.8863
  281SOL     OW  841   0.272   0.005   2.296  0.3579 -0.4706 -0.5262
  281SOL    HW1  842   0.324   0.060   2.368 -0.2291  0.9206  1.2183
  281SOL    HW2  843   0.253   0.063   2.212 -0.7885  1.2948 -0.1007
  282SOL     OW  844   0.068   1.040   1.471 -0.5015  0.8863  0.3857
  282SOL    HW1  845   0.011   1.108   1.425 -0.1723 -0.7080 -1.5938
  282SOL    HW2  846   0.131   0.991   1.405  1.6931 -1.6140 -3.2382
  283SOL     OW  847   1.671   2.132   2.486 -0.3118 -0.1884  0.0924
  283SOL    HW1  848   1.703   2.036   2.499 -1.6433 -0.7302  2.1542
  283SOL    HW2  849   1.572   2.143   2.513  1.8465  1.0548 -2.4467
  284SOL     OW  850   1.767   0.906   0.211  0.6519 -0.3004 -0.1540
  284SOL    HW1  851   1.780   0.946   0.304 -0.4267  3.1543  0.4732
  284SOL    HW2  852   1.848   0.926   0.154 -1.1753 -0.1126 -0.9254
  285SOL     OW  853   2.964   2.773   2.913 -0.3433 -0.3624 -0.4701
  285SOL    HW1  854   3.007   2.764   2.818 -0.2545  1.1694  1.0466
  285SOL    HW2  855   2.988   2.858   2.965 -2.0835  0.2846 -0.7542
  286SOL     OW  856   2.065   2.484   1.118  0.8440  0.1143 -0.1091
  286SOL    HW1  857   2.149   2.515   1.170  3.9798  2.7770  0.4037
  286SOL    HW2  858   1.979   2.521   1.158  0.7498 -1.4255  0.0764
  287SOL     OW  859   0.735   0.715   1.193 -0.2163  1.0084 -0.2353
  287SOL    HW1  860   0.666   0.652   1.242 -2.3519 -1.8065  2.9548
  287SOL    HW2  861   0.781   0.785   1.255 -1.4233  0.2728  0.3990
  288SOL     OW  862   1.331   2.738   0.223  0.0013  0.1385  0.5204
  288SOL    HW1  863   1.427   2.722   0.191 -1.8668 -1.2845  0.7505
  288SOL    HW2  864   1.276   2.751   0.139  0.7904 -1.4801  0.0520
  289SOL     OW  865   0.026   1.886   2.885 -0.1574  0.3343  0.3439
  289SOL    HW1  866   0.094   1.929   2.825 -0.7401 -1.6588  0.7052
  289SOL    HW2  867   3.017   1.930   2.865  3.3079  0.4460 -0.2954
  290SOL     OW  868   1.064   2.543   0.684  0.5190 -0.3737 -0.0034
  290SOL    HW1  869   1.097   2.603   0.609 -0.6158 -2.4422 -2.4511
  290SOL    HW2  870   1.117   2.458   0.688  0.5272 -1.0816  0.3430
  291SOL     OW  871   2.111   1.758   0.065  0.4410 -0.1190 -0.1753
  291SOL    HW1  872   2.172   1.736   3.067  1.2538 -0.7171 -1.8536
  291SOL    HW2  873   2.036   1.815   0.033  0.6529 -2.1374 -0.2389
  292SOL     OW  874   0.742   1.150   1.851 -0.0346 -0.4781 -0.1458
  292SOL    HW1  875   0.817   1.084   1.868 -0.0659 -0.7651  0.7008
  292SOL    HW2  876   0.733   1.161   1.751 -0.5227 -1.0227 -2.9497
  293SOL     OW  877   2.171   2.700   0.978 -0.1540 -0.3147 -0.0699
  293SOL    HW1  878   2.265   2.681   0.949 -0.0931 -0.4616  0.4800
  293SOL    HW2  879   2.124   2.615   1.007  3.7258 -1.3070  1.3181
  294SOL     OW  880   0.066   0.743   2.238  0.2181 -0.5684  0.3108
  294SOL    HW1  881   0.095   0.735   2.340  0.5579  0.6865  2.0392
  294SOL    HW2  882   0.130   0.689   2.178  1.3046 -2.2099 -0.5905
  295SOL     OW  883   0.904   1.900   0.346  0.0499 -0.3686  0.1322
  295SOL    HW1  884   0.842   1.980   0.359 -2.0365 -0.7529 -0.1915
  295SOL    HW2  885   0.965   1.925   0.261  0.2598  1.6997 -1.1518
  296SOL     OW  886   2.110   1.796   2.585 -0.1329  0.5148 -0.4997
  296SOL    HW1  887   2.133   1.729   2.511  0.8436  0.6274 -1.6374
  296SOL    HW2  888   2.077   1.747   2.671  1.5354 -2.1132  0.2314
  297SOL     OW  889   2.906   0.379   2.767 -0.1521 -0.4640 -0.0145
  297SOL    HW1  890   2.969   0.409   2.696  1.3834 -0.8687 -0.3458
  297SOL    HW2  891   2.861   0.291   2.743  0.9854  1.3470  0.0562
  298SOL     OW  892   0.640   2.134   3.046 -0.0682  0.5066  0.2617
  298SOL    HW1  893   0.660   2.037   3.075  1.3740  0.7754  1.9034
  298SOL    HW2  894   0.611   2.201   0.037  2.0915 -0.5568 -1.2848
  299SOL     OW  895   1.387   2.923   2.757  0.2873  0.4899  0.2451
  299SOL    HW1  896   1.439   2.978   2.685  1.7709 -0.3015 -1.3116
  299SOL    HW2  897   1.383   2.821   2.729 -1.6256 -2.4386 -2.6242
  300SOL     OW  898   2.774   0.449   0.505 -0.1029  0.2232  0.2079
  300SOL    HW1  899   2.674   0.461   0.532  2.3278  0.3281  2.8456
  300SOL    HW2  900   2.793   0.479   0.411 -0.0185 -0.4593 -1.5308
  301SOL     OW  901   1.064   0.910   1.671  0.4089  0.4706 -0.0837
  301SOL    HW1  902   1.003   0.834   1.637  1.0240  2.1077 -1.3275
  301SOL    HW2  903   1.062   0.981   1.597  1.0591  0.1487  0.4374
  302SOL     OW  904   3.058   2.494   2.729 -0.0177  0.0787 -0.0841
  302SOL    HW1  905   0.058   2.425   2.740  1.3099 -2.4298  0.1974
  302SOL    HW2  906   0.004   2.591   2.723 -1.4846 -0.2886 -2.9078
  303SOL     OW  907   3.067   0.016   2.347 -0.0689 -0.4774 -0.0318
  303SOL    HW1  908   3.065   3.028   2.270 -1.4847  2.6743 -2.9296
  303SOL    HW2  909   2.970   0.051   2.358  1.1498 -0.1977  0.4736
  304SOL     OW  910   2.861   0.319   1.403  0.2141  0.3864 -0.7597
  304SOL    HW1  911   2.804   0.249   1.449  1.8957  0.7958  0.6507
  304SOL    HW2  912   2.826   0.341   1.313 -0.7291 -0.1115  2.4796
  305SOL     OW  913   0.478   2.985   2.125 -0.2819 -0.2167 -0.5437
  305SOL    HW1  914   0.582   2.997   2.152  5.6343 -0.2759  1.2002
  305SOL    HW2  915   0.409   3.034   2.189 -1.6993  2.4508  1.1683
  306SOL     OW  916   2.638   1.006   1.564 -0.1263  0.1450 -0.1697
  306SOL    HW1  917   2.714   0.989   1.625 -1.3707  1.4804 -2.7678
  306SOL    HW2  918   2.662   1.056   1.476  2.2583 -0.2372  0.7468
  307SOL     OW  919   1.456   0.695   1.115 -0.2940 -0.1131 -0.0045
  307SOL    HW1  920   1.414   0.630   1.178  1.5710  0.3763 -1.3144
  307SOL    HW2  921   1.385   0.761   1.083 -2.2955 -0.2597  1.5107
  308SOL     OW  922   0.032   2.129   1.403  0.4431  0.2025  0.2575
  308SOL    HW1  923   3.063   2.220   1.412 -1.6824  3.1207  0.7395
  308SOL    HW2  924   0.081   2.122   1.314 -0.2370  0.0003 -2.8743
  309SOL     OW  925   2.423   1.778   1.297 -0.4227 -0.1575 -0.2200
  309SOL    HW1  926   2.435   1.879   1.297 -0.2665 -0.3394 -1.9895
  309SOL    HW2  927   2.496   1.741   1.356 -2.0375  2.0410 -1.0088
  310SOL     OW  928   2.684   1.592   0.141 -0.2710 -0.2430  0.0905
  310SOL    HW1  929   2.677   1.598   0.039 -0.7715 -1.3547 -0.3184
  310SOL    HW2  930   2.589   1.596   0.181  0.4365 -1.3761 -0.2650
  311SOL     OW  931   2.327   1.982   2.917 -0.1048 -0.2302  0.3127
  311SOL    HW1  932   2.414   2.000   2.872 -2.8041 -0.0026 -2.5288
  311SOL    HW2  933   2.281   1.905   2.870  0.8270 -0.3433  0.0405
  312SOL     OW  934   2.810   1.515   0.916  0.1215 -0.1876  0.9108
  312SOL    HW1  935   2.766   1.583   0.854 -1.9689  2.2468  1.3269
  312SOL    HW2  936   2.758   1.431   0.913  0.1479 -1.8688 -1.5782
  313SOL     OW  937   2.736   2.356   1.140 -0.1117 -0.0415 -0.4853
  313SOL    HW1  938   2.737   2.293   1.219 -3.2170 -0.8161 -1.3550
  313SOL    HW2  939   2.743   2.451   1.178  3.8441  0.7108  0.2041
  314SOL     OW  940   1.000   2.187   0.803 -0.3927 -0.2822  0.4870
  314SOL    HW1  941   0.956   2.266   0.841  1.3805  0.4626 -2.4505
  314SOL    HW2  942   0.944   2.106   0.816  0.3732  0.6477 -1.2467
  315SOL     OW  943   0.447   2.691   2.667 -1.1600  0.2827  0.0524
  315SOL    HW1  944   0.483   2.756   2.596  2.2719  0.7843 -3.6277
  315SOL    HW2  945   0.503   2.605   2.656  0.0413  2.0471 -0.0833
  316SOL     OW  946   0.153   0.963   0.766  0.9014  0.4020 -0.1592
  316SOL    HW1  947   0.167   1.038   0.699  3.2516 -0.0075 -0.7664
  316SOL    HW2  948   0.082   0.897   0.736 -0.8112 -0.9142  0.9307
  317SOL     OW  949   1.921   0.443   0.865 -0.2536 -0.0039 -0.2696
  317SOL    HW1  950   1.897   0.483   0.774 -2.6560  0.6942 -2.7992
  317SOL    HW2  951   2.016   0.471   0.891 -0.9845  0.3268 -2.1439
  318SOL     OW  952   3.078   2.502   0.424  0.8153 -0.2549  0.0047
  318SOL    HW1  953   2.988   2.503   0.374 -0.6932  1.3058  2.5087
  318SOL    HW2  954   3.072   2.442   0.506 -2.1181  1.5201  0.1552
  319SOL     OW  955   0.651   1.548   2.916  0.2723 -0.3796 -0.1300
  319SOL    HW1  956   0.666   1.642   2.873 -2.0503  0.9592  0.6697
  319SOL    HW2  957   0.679   1.543   3.017  1.0171 -1.9223  1.6543
  320SOL     OW  958   0.817   2.901   2.404 -0.1322 -0.6808 -0.0658
  320SOL    HW1  959   0.893   2.919   2.469 -0.3513 -0.8385 -1.7537
  320SOL    HW2  960   0.726   2.917   2.438  0.0912 -0.4896 -4.1223
  321SOL     OW  961   1.529   2.838   2.969 -0.4455 -0.6895  0.7633
  321SOL    HW1  962   1.496   2.741   2.970  0.1494 -0.3266 -1.7511
  321SOL    HW2  963   1.488   2.886   2.888 -1.9934  0.8143 -0.0000
  322SOL     OW  964   2.513   1.404   1.827  0.1409  0.5624  0.3129
  322SOL    HW1  965   2.555   1.476   1.886  0.2671 -0.1891  2.1224
  322SOL    HW2  966   2.504   1.315   1.878  1.9207  0.9971  1.8255
  323SOL     OW  967   2.507   0.540   0.514  0.1130 -0.0516 -0.7834
  323SOL    HW1  968   2.405   0.523   0.512  2.7232 -0.4229 -0.7016
  323SOL    HW2  969   2.524   0.631   0.468 -2.8323 -0.7027  0.6984
  324SOL     OW  970   0.161   0.029   2.706  0.7579  0.2166  0.3924
  324SOL    HW1  971   0.186   0.063   2.802 -0.9933  0.8107  0.9473
  324SOL    HW2  972   0.064   0.047   2.685 -1.9704  3.3785 -2.1868
  325SOL     OW  973   1.541   0.312   1.955  0.2826 -0.2849 -0.1599
  325SOL    HW1  974   1.613   0.249   1.925 -1.9878 -1.2220 -2.7737
  325SOL    HW2  975   1.458   0.259   1.985  1.2503 -1.6233  1.8784
  326SOL     OW  976   2.497   2.727   1.124  0.0332  0.0490 -0.2749
  326SOL    HW1  977   2.521   2.825   1.133 -2.3041 -0.3794  2.5241
  326SOL    HW2  978   2.471   2.707   1.026  0.6405 -0.6959 -1.3356
  327SOL     OW  979   1.514   0.509   2.768  0.4827  0.3101  0.5068
  327SOL    HW1  980   1.446   0.509   2.843 -3.4771  1.1882  0.1882
  327SOL    HW2  981   1.580   0.433   2.778  2.7475 -1.0692  0.5888
  328SOL     OW  982   2.773   1.133   2.420 -0.0459  0.2202  0.0023
  328SOL    HW1  983   2.771   1.128   2.322 -0.0974 -1.8975  4.1649
  328SOL    HW2  984   2.730   1.218   2.458  0.2541  1.8030 -1.7439
  329SOL     OW  985   1.787   2.557   1.718  0.2477  0.7516 -0.6400
  329SOL    HW1  986   1.703   2.498   1.719 -0.1328 -0.1356 -0.6811
  329SOL    HW2  987   1.762   2.647   1.674 -0.4415  0.7148  0.0061
  330SOL     OW  988   2.558   1.705   1.602  0.2160 -0.1075  0.0912
  330SOL    HW1  989   2.462   1.726   1.630  2.2807  2.8944  0.9278
  330SOL    HW2  990   2.609   1.649   1.669 -0.2608 -0.2274 -2.1389
  331SOL     OW  991   0.380   1.613   1.485 -0.1687 -0.1977  0.2847
  331SOL    HW1  992   0.383   1.510   1.472  1.7905  0.7651 -2.3322
  331SOL    HW2  993   0.410   1.670   1.404 -5.5848  4.6237 -3.0794
  332SOL     OW  994   0.609   0.282   1.197 -0.0009  0.3028  0.0435
  332SOL    HW1  995   0.581   0.335   1.115 -3.1591  1.4956  0.8215
  332SOL    HW2  996   0.698   0.315   1.227 -1.1578  1.5150 -3.2906
  333SOL     OW  997   2.142   2.559   2.361  0.0319  0.0262  0.5530
  333SOL    HW1  998   2.138   2.512   2.455  2.1949 -1.9811  1.3439
  333SOL    HW2  999   2.190   2.651   2.381 -0.4830  2.1278  1.6134
  334SOL     OW 1000   1.070   1.120   1.243 -0.0228  0.7331 -0.1497
  334SOL    HW1 1001   1.061   1.223   1.229 -0.9001 -1.6199 -0.4771
  334SOL    HW2 1002   1.164   1.098   1.223  1.2594  1.0227  1.0715
  335SOL     OW 1003   0.763   2.719   2.791 -0.0957  0.1838  0.1437
  335SOL    HW1 1004   0.713   2.795   2.742  0.6971  2.4698  1.2997
  335SOL    HW2 1005   0.795   2.653   2.726 -1.6627  3.4580  0.4791
  336SOL     OW 1006   2.497   2.462   2.060 -0.3011  0.0136 -0.1145
  336SOL    HW1 1007   2.534   2.544   2.014 -0.4502 -2.1296  1.5849
  336SOL    HW2 1008   2.470   2.391   1.991 -1.5913 -0.6069 -1.8305
  337SOL     OW 1009   2.347   1.617   0.459  0.4966 -0.5849  0.2341
  337SOL    HW1 1010   2.388   1.654   0.373 -2.7478 -1.8428  0.6515
  337SOL    HW2 1011   2.363   1.668   0.545 -1.8861 -0.4424 -1.0498
  338SOL     OW 1012   1.107   1.934   1.515 -0.4475  0.2705  0.1485
  338SOL    HW1 1013   1.075   2.018   1.469  1.3934 -1.9682  3.2711
  338SOL    HW2 1014   1.056   1.916   1.602  1.5317 -0.9182 -0.1423
  339SOL     OW 1015   3.035   0.965   2.148  0.1962 -0.1062 -0.1247
  339SOL    HW1 1016   0.002   0.878   2.179  2.5367 -0.8074  1.3379
  339SOL    HW2 1017   0.020   1.042   2.179  0.4708 -2.2500  2.7410
  340SOL     OW 1018   1.620   2.823   1.351  0.0314 -0.6127 -0.0792
  340SOL    HW1 1019   1.656   2.869   1.266 -0.8727  1.3816  0.8051
  340SOL    HW2 1020   1.515   2.814   1.341  0.5826 -3.2952 -1.1234
  341SOL     OW 1021   1.878   1.369   1.061  0.1022  0.3406 -0.3381
  341SOL    HW1 1022   1.947   1.310   1.106 -2.5188 -1.1564 -2.7688
  341SOL    HW2 1023   1.912   1.415   0.978 -0.9620  1.8752 -0.3087
  342SOL     OW 1024   0.321   1.473   0.865 -0.0561  0.5353  0.2641
  342SOL    HW1 1025   0.390   1.413   0.819  2.2967  0.4386 -1.0573
  342SOL    HW2 1026   0.320   1.566   0.827  0.2438 -1.6173 -2.0677
  343SOL     OW 1027   2.097   0.479   1.605 -0.3430  0.0502  0.2926
  343SOL    HW1 1028   2.124   0.391   1.560  1.1966  0.9751 -1.8653
  343SOL    HW2 1029   2.127   0.561   1.554 -0.8719  0.6280 -0.0836
  344SOL     OW 1030   2.008   2.855   0.834  0.0997  0.3583 -0.0099
  344SOL    HW1 1031   2.063   2.796   0.895 -2.1003  1.4710 -3.8067
  344SOL    HW2 1032   1.910   2.823   0.849  0.5615  1.3794  0.7526
  345SOL     OW 1033   2.705   2.696   2.962  0.0362  0.6671  0.2267
  345SOL    HW1 1034   2.669   2.751   2.885 -0.2833 -0.8406  0.7744
  345SOL    HW2 1035   2.801   2.721   2.970  2.1471  0.8739  1.6426
  346SOL     OW 1036   2.923   0.757   0.364 -0.3285 -0.0226 -0.4761
  346SOL    HW1 1037   2.834   0.734   0.327  2.7351  0.1813  0.9995
  346SOL    HW2 1038   2.990   0.687   0.339 -2.1714  0.2587 -0.2779
  347SOL     OW 1039   1.819   2.631   1.164  0.1439 -0.2772  0.1246
  347SOL    HW1 1040   1.859   2.704   1.218  0.7662  0.7443 -2.3518
  347SOL    HW2 1041   1.776   2.673   1.079 -1.5452  2.7461 -2.3702
  348SOL     OW 1042   1.536   1.482   2.039 -0.3069  0.2144 -0.1220
  348SOL    HW1 1043   1.463   1.411   2.038  2.5240  2.6100  1.2459
  348SOL    HW2 1044   1.499   1.576   2.045  0.8006 -1.8395 -0.2621
  349SOL     OW 1045   2.281   1.229   2.161 -0.3490  0.2436  0.6198
  349SOL    HW1 1046   2.211   1.163   2.130 -2.1670 -0.3902 -2.7255
  349SOL    HW2 1047   2.361   1.221   2.095  2.6036 -0.5241  0.6796
  350SOL     OW 1048   0.364   2.041   1.049  0.1375  0.3901 -0.5638
  350SOL    HW1 1049   0.416   2.122   1.074  3.1081  1.7162  0.4827
  350SOL    HW2 1050   0.272   2.056   1.083 -0.8570  0.1398 -1.4218
  351SOL     OW 1051   1.019   0.510   2.172 -0.1654  0.0494  0.3348
  351SOL    HW1 1052   1.096   0.444   2.179  0.6467 -0.8708  0.0766
  351SOL    HW2 1053   1.023   0.591   2.235 -0.1992 -2.5338  0.4854
  352SOL     OW 1054   0.978   2.874   1.751  0.0222 -0.4148 -0.2046
  352SOL    HW1 1055   0.928   2.959   1.754  2.8636 -1.1576  0.2326
  352SOL    HW2 1056   0.972   2.831   1.658  2.1408  2.1969 -1.2705
  353SOL     OW 1057   1.049   1.685   2.475 -0.5021 -0.3656 -0.3415
  353SOL    HW1 1058   1.117   1.747   2.436 -0.7892  0.8269  1.6318
  353SOL    HW2 1059   0.967   1.675   2.409 -2.1927 -1.9724 -1.9073
  354SOL     OW 1060   1.743   1.447   0.676 -0.0492 -0.1978  0.0241
  354SOL    HW1 1061   1.670   1.505   0.637 -1.6557 -1.0260 -0.5896
  354SOL    HW2 1062   1.710   1.370   0.724  2.3945  0.9173 -0.6410
  355SOL     OW 1063   2.227   0.100   0.574  0.2755  0.2038  0.2857
  355SOL    HW1 1064   2.214   0.030   0.652 -0.3331  0.1603  0.2624
  355SOL    HW2 1065   2.328   0.110   0.553  0.4830  0.2802  2.3615
  356SOL     OW 1066   0.133   1.085   2.797 -0.3728 -0.3300  0.1934
  356SOL    HW1 1067   0.059   1.018   2.804  0.5002  1.7592  0.3644
  356SOL    HW2 1068   0.104   1.175   2.756 -2.4551 -1.2745 -0.5987
  357SOL     OW 1069   2.936   2.854   1.590  0.3870 -0.0253 -0.5567
  357SOL    HW1 1070   2.939   2.925   1.517 -0.4199 -0.6218 -2.5271
  357SOL    HW2 1071   3.024   2.805   1.592 -2.7251 -0.5795  0.7895
  358SOL     OW 1072   3.060   1.283   2.669  0.6410 -0.2278  0.0032
  358SOL    HW1 1073   0.005   1.373   2.623  3.8605 -0.4060 -2.5615
  358SOL    HW2 1074   2.963   1.284   2.710 -1.6352  1.8201  0.6650
  359SOL     OW 1075   2.568   2.472   2.531 -0.0735  0.1480  0.3625
  359SOL    HW1 1076   2.515   2.557   2.554 -1.7143  1.2510 -0.9212
  359SOL    HW2 1077   2.609   2.488   2.437  0.1933  1.5332  1.7753
  360SOL     OW 1078   1.423   1.432   0.943  0.0995 -0.1485  0.0624
  360SOL    HW1 1079   1.419   1.433   0.840 -0.7051  1.9891 -2.6733
  360SOL    HW2 1080   1.348   1.489   0.981 -0.0767  2.1023  2.3304
  361SOL     OW 1081   2.271   2.271   0.982  0.0582 -0.0626  0.3169
  361SOL    HW1 1082   2.252   2.270   1.083 -0.9279 -3.1747  0.2676
  361SOL    HW2 1083   2.192   2.299   0.923 -0.2548  1.1916 -0.3108
  362SOL     OW 1084   1.674   1.203   1.157  0.0800 -0.5912  0.0846
  362SOL    HW1 1085   1.752   1.264   1.128  2.0062  0.5616 -1.9401
  362SOL    HW2 1086   1.608   1.184   1.080 -1.5958  1.0256 -0.8547
  363SOL     OW 1087   2.586   1.826   0.405 -0.4245  0.5570  0.1714
  363SOL    HW1 1088   2.629   1.875   0.328  0.2036 -3.6211  3.2004
  363SOL    HW2 1089   2.498   1.867   0.434 -0.3386 -1.3879  0.5444
  364SOL     OW 1090   2.220   0.076   1.612  0.1009  0.0507  0.1835
  364SOL    HW1 1091   2.286   0.014   1.564 -0.6173  3.0914 -2.4031
  364SOL    HW2 1092   2.271   0.128   1.683 -1.8934 -0.8000 -3.0726
  365SOL     OW 1093   0.191   2.612   0.946 -0.3719 -0.2982  0.6321
  365SOL    HW1 1094   0.197   2.608   0.843 -0.3995 -1.7613  2.7047
  365SOL    HW2 1095   0.093   2.603   0.973  2.4583  1.1773  0.5403
  366SOL     OW 1096   3.024   1.089   0.079  0.1205  0.0235 -0.2737
  366SOL    HW1 1097   0.028   1.132   0.042  0.2001  0.0632  0.7095
  366SOL    HW2 1098   3.017   1.081   0.181 -0.4616  2.6153  2.1872
  367SOL     OW 1099   2.328   2.440   2.834  0.2215  0.2303 -0.5447
  367SOL    HW1 1100   2.309   2.343   2.817 -2.7943 -1.7803  2.6631
  367SOL    HW2 1101   2.427   2.453   2.850 -2.9729 -0.5450  1.8066
  368SOL     OW 1102   3.046   1.901   1.045  0.6100 -0.2566 -0.5780
  368SOL    HW1 1103   2.955   1.896   1.095 -1.3076 -0.9874  2.5392
  368SOL    HW2 1104   3.049   1.933   0.947  1.8645  1.3742 -2.6547
  369SOL     OW 1105   0.789   0.723   0.386 -0.2840 -0.2812 -0.1602
  369SOL    HW1 1106   0.755   0.647   0.446 -0.6192 -1.2412  0.5450
  369SOL    HW2 1107   0.754   0.816   0.410 -0.5123  3.2375  0.2979
  370SOL     OW 1108   0.659   0.052   0.954  0.0231  0.0199  0.2206
  370SOL    HW1 1109   0.609   0.002   1.026  0.1205 -0.5137 -1.0258
  370SOL    HW2 1110   0.604   0.137   0.941  2.9995  0.6405  1.1290
  371SOL     OW 1111   2.085   1.454   0.001  0.0405 -0.7268 -0.3774
  371SOL    HW1 1112   2.077   1.445   0.104 -0.6913 -1.7534  1.2297
  371SOL    HW2 1113   2.037   1.537   3.053 -0.8464  0.9755  0.7985
  372SOL     OW 1114   0.335   0.815   2.759  0.0693  0.1777 -0.3130
  372SOL    HW1 1115   0.255   0.880   2.758 -1.2265  0.8018 -0.2599
  372SOL    HW2 1116   0.310   0.732   2.811  1.1615 -0.0852  0.6697
  373SOL     OW 1117   2.822   0.670   3.075  0.7676 -0.1661 -0.0002
  373SOL    HW1 1118   2.804   0.768   0.010 -1.6384 -0.7306  0.1632
  373SOL    HW2 1119   2.815   0.644   2.978  2.7717 -2.9427 -0.1744
  374SOL     OW 1120   0.896   2.242   3.034 -0.2009  0.4454  0.0287
  374SOL    HW1 1121   0.812   2.201   3.001  3.2465  3.3469  0.8108
  374SOL    HW2 1122   0.879   2.340   3.061 -2.3807 -3.7032 -0.1443
  375SOL     OW 1123   1.240   0.258   0.254  0.2367  0.6055  0.0162
  375SOL    HW1 1124   1.302   0.329   0.221 -1.7699 -1.7394  0.1290
  375SOL    HW2 1125   1.254   0.228   0.350 -1.8348 -0.3565 -1.6601
  376SOL     OW 1126   0.183   2.461   2.031 -0.4038  0.5155  0.3996
  376SOL    HW1 1127   0.256   2.433   1.965  2.1351 -1.1892  1.0488
  376SOL    HW2 1128   0.176   2.400   2.114 -0.1588  2.6188  1.2679
  377SOL     OW 1129   2.795   1.904   2.814  0.0853  0.6385 -0.3374
  377SOL    HW1 1130   2.748   1.988   2.842  0.2920 -2.1061 -2.5854
  377SOL    HW2 1131   2.745   1.820   2.846 -0.3717  0.8964 -2.7878
  378SOL     OW 1132   1.566   1.080   0.501  0.1422  0.0325 -0.1386
  378SOL    HW1 1133   1.545   1.155   0.440  0.7068 -1.6617  1.3255
  378SOL    HW2 1134   1.507   0.997   0.484 -2.4340 -2.2255 -0.5004
  379SOL     OW 1135   1.089   1.559   0.415  0.3745 -0.0622 -0.7968
  379SOL    HW1 1136   1.042   1.474   0.383  0.2931  0.8733 -1.2432
  379SOL    HW2 1137   1.035   1.602   0.488  0.2275  0.7258  3.8097
  380SOL     OW 1138   2.020   2.413   1.677  0.0809 -0.7305 -0.3017
  380SOL    HW1 1139   2.032   2.346   1.750  0.3201 -0.5506 -0.8457
  380SOL    HW2 1140   1.928   2.460   1.700  0.1696 -0.9628  0.7913
  381SOL     OW 1141   2.809   1.122   2.140  0.2269 -0.1934  0.5959
  381SOL    HW1 1142   2.908   1.089   2.136 -0.4746 -1.6589 -0.6417
  381SOL    HW2 1143   2.754   1.104   2.052 -1.6992  0.8305 -0.4249
  382SOL     OW 1144   2.847   2.540   0.268  0.4000  0.3255 -0.1099
  382SOL    HW1 1145   2.915   2.530   0.190  0.2657  0.0150 -0.0599
  382SOL    HW2 1146   2.760   2.575   0.228  0.7786 -0.7299  0.7993
  383SOL     OW 1147   1.588   1.181   2.068  0.0645  0.3165  0.0871
  383SOL    HW1 1148   1.681   1.215   2.039  0.2960  0.2905 -1.3663
  383SOL    HW2 1149   1.514   1.208   2.005 -0.8944  2.1775 -0.2157
  384SOL     OW 1150   0.919   2.138   2.509 -0.2637  0.1432  0.7656
  384SOL    HW1 1151   0.892   2.229   2.470 -3.3507 -1.0192 -0.8476
  384SOL    HW2 1152   0.922   2.134   2.610 -1.7596 -1.9299 -0.0123
  385SOL     OW 1153   2.489   2.208   0.569  0.2578 -0.3231 -0.1977
  385SOL    HW1 1154   2.467   2.309   0.538  0.5098  1.3149 -2.6787
  385SOL    HW2 1155   2.486   2.198   0.667 -0.6376 -0.0507 -0.1018
  386SOL     OW 1156   1.484   1.408   0.290 -0.0027 -0.0542  0.3664
  386SOL    HW1 1157   1.444   1.462   0.364  1.8308 -1.2238  1.1594
  386SOL    HW2 1158   1.446   1.310   0.287 -0.2608 -2.1493  0.6310
  387SOL     OW 1159   2.809   0.739   1.285 -0.2545  0.2265 -0.1052
  387SOL    HW1 1160   2.853   0.774   1.368 -1.9162 -1.0238  0.5993
  387SOL    HW2 1161   2.879   0.728   1.215 -1.6622  1.0250  0.6489
  388SOL     OW 1162   3.058   0.713   1.105 -0.2276  0.1227  0.2785
  388SOL    HW1 1163   0.023   0.806   1.108 -1.5587  1.1064 -0.1608
  388SOL    HW2 1164   3.064   0.669   1.199 -0.2503 -2.5216  0.4916
  389SOL     OW 1165   1.815   1.172   2.487 -0.0514 -0.1981  0.0754
  389SOL    HW1 1166   1.794   1.226   2.569 -2.0589  1.4538 -0.9381
  389SOL    HW2 1167   1.838   1.233   2.407 -0.2374 -1.5470 -0.8823
  390SOL     OW 1168   1.526   2.353   0.373 -0.0977 -0.1516 -0.0940
  390SOL    HW1 1169   1.563   2.444   0.396  2.8568 -2.0395  0.0336
  390SOL    HW2 1170   1.544   2.287   0.447 -2.9893  1.8197 -1.9710
  391SOL     OW 1171   1.174   2.093   1.056 -0.1553 -0.1846  0.0272
  391SOL    HW1 1172   1.249   2.040   1.105  0.8267  0.0133 -1.0199
  391SOL    HW2 1173   1.217   2.160   0.988 -1.2656 -1.7545  2.4492
  392SOL     OW 1174   2.347   2.769   1.852 -0.2782  0.1512 -0.5147
  392SOL    HW1 1175   2.304   2.699   1.797  1.6496  3.7103  0.3669
  392SOL    HW2 1176   2.448   2.747   1.871  3.3833  0.7359 -0.1513
  393SOL     OW 1177   1.732   2.317   2.688 -0.0401  0.6262 -0.5197
  393SOL    HW1 1178   1.692   2.407   2.673 -0.1411 -2.3441  0.0539
  393SOL    HW2 1179   1.709   2.248   2.612  1.1841 -0.8929 -1.6911
  394SOL     OW 1180   0.178   2.912   2.520  0.2436  0.1694 -0.3092
  394SOL    HW1 1181   0.169   2.978   2.596 -0.8329 -0.3305 -2.3109
  394SOL    HW2 1182   0.196   2.952   2.430 -0.4817  0.3430  0.7306
  395SOL     OW 1183   0.368   1.391   1.115  0.0888 -0.3850  0.0936
  395SOL    HW1 1184   0.320   1.423   1.028  1.7113  1.0321  0.9647
  395SOL    HW2 1185   0.465   1.371   1.098  0.2955 -0.1061  0.1710
  396SOL     OW 1186   2.146   0.895   2.766  0.3175 -0.3056 -0.2659
  396SOL    HW1 1187   2.060   0.937   2.808  0.4048  1.5053 -0.3063
  396SOL    HW2 1188   2.148   0.942   2.677 -0.5976  1.3104 -0.7153
  397SOL     OW 1189   3.061   0.474   2.566 -0.9046 -0.1036  0.7037
  397SOL    HW1 1190   0.050   0.402   2.548 -0.1693 -0.0359  0.3200
  397SOL    HW2 1191   3.008   0.486   2.480 -1.7995 -1.3624  3.0667
  398SOL     OW 1192   1.803   2.916   0.247 -0.4222 -0.0713 -0.1632
  398SOL    HW1 1193   1.812   3.005   0.299 -0.6126 -0.6926 -1.4774
  398SOL    HW2 1194   1.873   2.853   0.277  4.1145  3.4847 -1.3571
  399SOL     OW 1195   2.120   2.303   2.001  0.1967  0.4755 -0.3533
  399SOL    HW1 1196   2.168   2.298   2.091 -1.1672 -2.3135  0.9956
  399SOL    HW2 1197   2.116   2.403   1.975 -1.4517 -1.0599 -3.5571
  400SOL     OW 1198   2.996   1.885   2.221 -0.5001 -0.0926 -0.1549
  400SOL    HW1 1199   3.043   1.866   2.132  0.4585 -0.1586 -1.5318
  400SOL    HW2 1200   2.897   1.847   2.223 -0.8570 -1.7761  0.1016
  401SOL     OW 1201   0.521   0.764   0.577 -0.2924  0.0849  0.3914
  401SOL    HW1 1202   0.582   0.687   0.564 -2.4602  1.6423 -1.6230
  401SOL    HW2 1203   0.503   0.782   0.676 -1.2605 -0.3826  2.6382
  402SOL     OW 1204   0.717   3.050   2.201 -0.1043  0.2865  0.1809
  402SOL    HW1 1205   0.761   2.996   2.274 -0.2944 -0.5468 -0.1150
  402SOL    HW2 1206   0.787   0.008   2.137  2.0157  1.4340  0.0357
  403SOL     OW 1207   2.954   1.502   1.904  0.4527  0.3177 -0.4607
  403SOL    HW1 1208   3.028   1.502   1.831  2.1902 -0.7181  0.4356
  403SOL    HW2 1209   2.981   1.467   1.996  0.8505 -0.5814 -0.3589
  404SOL     OW 1210   2.947   2.026   2.629  0.1843  0.1112  0.0656
  404SOL    HW1 1211   2.877   1.973   2.679 -1.1144  1.2796  1.4079
  404SOL    HW2 1212   2.990   2.087   2.701  1.6406 -1.6557  2.8723
  405SOL     OW 1213   2.044   0.118   2.581  0.0132  1.0043  0.1819
  405SOL    HW1 1214   2.068   0.036   2.635 -2.0325  4.7097 -0.8369
  405SOL    HW2 1215   1.955   0.109   2.531  0.5583  1.1794  2.2042
  406SOL     OW 1216   1.346   2.029   0.345 -0.0656  0.2435  0.1607
  406SOL    HW1 1217   1.351   2.097   0.269  0.5837 -0.4280  0.1119
  406SOL    HW2 1218   1.249   2.010   0.365 -1.3809 -0.0206 -1.4122
  407SOL     OW 1219   1.721   1.333   0.149 -0.3978 -0.2905  0.6831
  407SOL    HW1 1220   1.699   1.320   0.051  1.2798  2.7776  2.1356
  407SOL    HW2 1221   1.636   1.368   0.193  0.4980  1.3092  0.1121
  408SOL     OW 1222   0.403   1.054   1.686 -0.1987  0.3389 -0.0191
  408SOL    HW1 1223   0.364   0.959   1.693  0.3902 -0.7525  3.0903
  408SOL    HW2 1224   0.368   1.114   1.759  0.9529  1.4314 -0.7626
  409SOL     OW 1225   2.841   1.257   2.851 -0.1459 -0.0677 -0.5409
  409SOL    HW1 1226   2.751   1.239   2.814 -1.1431 -0.5227 -0.3410
  409SOL    HW2 1227   2.833   1.255   2.953  1.7818  2.0276  3.7242
  410SOL     OW 1228   2.370   1.798   0.667 -0.3692 -0.5699 -0.1285
  410SOL    HW1 1229   2.424   1.820   0.754  1.4800  1.7438 -0.1897
  410SOL    HW2 1230   2.368   1.871   0.597  0.1355  0.1399  0.4318
  411SOL     OW 1231   0.102   0.323   0.412  0.1433  0.3367  0.4229
  411SOL    HW1 1232   0.075   0.417   0.378 -0.5040  4.2218  0.6930
  411SOL    HW2 1233   0.028   0.276   0.464 -2.2854  0.2690  1.3119
  412SOL     OW 1234   1.864   0.102   0.404 -0.5463  0.0640  0.1221
  412SOL    HW1 1235   1.873   0.051   0.495 -2.7729 -0.5084  1.2695
  412SOL    HW2 1236   1.942   0.166   0.392  0.0163  1.3981  1.7465
  413SOL     OW 1237   1.248   0.246   1.641  0.6773 -0.2295 -0.0269
  413SOL    HW1 1238   1.337   0.278   1.676  1.7530  1.4962 -1.2504
  413SOL    HW2 1239   1.258   0.155   1.597 -0.8625 -0.1979 -2.1409
  414SOL     OW 1240   0.301   1.027   0.294 -0.1243  0.5237 -0.7253
  414SOL    HW1 1241   0.245   1.038   0.379  0.7233  0.0279 -0.2297
  414SOL    HW2 1242   0.379   0.964   0.313 -1.4965  1.5283  0.9220
  415SOL     OW 1243   2.729   1.394   0.365  0.1024  0.3886 -0.4687
  415SOL    HW1 1244   2.770   1.301   0.346 -3.5779  1.0803  0.7741
  415SOL    HW2 1245   2.704   1.440   0.277 -0.5509 -1.7576 -1.3833
  416SOL     OW 1246   2.348   0.615   0.179 -0.0326  0.1297  0.4268
  416SOL    HW1 1247   2.312   0.581   0.094 -0.1850  0.3043 -0.6284
  416SOL    HW2 1248   2.444   0.648   0.169  1.0487 -0.9670 -0.3745
  417SOL     OW 1249   2.475   2.421   0.267  0.3074  0.2176  0.3020
  417SOL    HW1 1250   2.390   2.422   0.210 -2.1611  0.0042  1.0044
  417SOL    HW2 1251   2.550   2.465   0.212 -1.2212 -0.5674 -0.2446
  418SOL     OW 1252   3.054   0.400   0.070  0.3130  0.0008  0.1451
  418SOL    HW1 1253   2.952   0.423   0.064  0.4991  3.3646  1.2668
  418SOL    HW2 1254   0.027   0.455   0.003 -2.7470  0.6771 -1.7037
  419SOL     OW 1255   0.857   0.903   0.844  0.3210 -0.0958  0.6369
  419SOL    HW1 1256   0.906   0.938   0.927  0.3938  1.6256 -1.0925
  419SOL    HW2 1257   0.798   0.824   0.868 -4.2962 -1.6114  0.5115
  420SOL     OW 1258   0.459   0.869   0.823  0.0833 -0.5164 -0.4252
  420SOL    HW1 1259   0.357   0.858   0.817  1.6532 -0.2927  0.7506
  420SOL    HW2 1260   0.479   0.892   0.919 -0.2056 -2.8486  3.3252
  421SOL     OW 1261   0.415   2.071   0.242 -0.4404  0.6891 -0.7011
  421SOL    HW1 1262   0.401   2.018   0.162  0.7168  0.1645  1.9202
  421SOL    HW2 1263   0.423   2.171   0.222  0.0555 -0.1805 -0.2596
  422SOL     OW 1264   2.862   0.404   1.823 -0.4238 -0.2796  0.3398
  422SOL    HW1 1265   2.874   0.360   1.911  0.8523  0.6198 -2.0406
  422SOL    HW2 1266   2.771   0.392   1.786  0.2054 -2.0122  2.4641
  423SOL     OW 1267   1.913   1.939   3.071  0.2248 -0.3146 -0.4828
  423SOL    HW1 1268   1.831   1.918   3.016  1.1569 -2.6545  1.2804
  423SOL    HW2 1269   1.936   2.036   0.008 -1.7026 -2.8434 -0.0171
  424SOL     OW 1270   1.789   1.598   2.491  0.5830  0.1638  0.5995
  424SOL    HW1 1271   1.802   1.553   2.398  1.2173 -0.0658  1.3537
  424SOL    HW2 1272   1.849   1.556   2.561 -0.9574 -2.2392  1.7212
  425SOL     OW 1273   3.023   2.883   2.165 -0.6681  0.4498  0.2904
  425SOL    HW1 1274   3.007   2.863   2.262  0.1132  2.3158 -0.4110
  425SOL    HW2 1275   3.066   2.800   2.122 -1.5342 -0.9291 -1.4989
  426SOL     OW 1276   1.974   2.710   0.289 -0.0252 -0.2042  0.3284
  426SOL    HW1 1277   1.919   2.639   0.242  0.7176 -0.2730  1.9318
  426SOL    HW2 1278   2.068   2.684   0.307  1.0497 -0.1821  1.5603
  427SOL     OW 1279   0.257   1.429   2.424  0.1861 -0.0793 -0.0817
  427SOL    HW1 1280   0.255   1.504   2.358 -1.2154 -0.4887 -2.4931
  427SOL    HW2 1281   0.177   1.437   2.485  1.5304  1.8933  0.2338
  428SOL     OW 1282   2.248   1.265   2.659 -0.0602  0.5860  0.1565
  428SOL    HW1 1283   2.226   1.173   2.617  2.9664  0.8641 -3.0415
  428SOL    HW2 1284   2.206   1.280   2.754 -0.0123  1.7787  0.8565
  429SOL     OW 1285   2.427   2.874   0.717  0.0889 -0.0804 -0.1996
  429SOL    HW1 1286   2.515   2.906   0.747  0.1883  1.3702 -0.9656
  429SOL    HW2 1287   2.417   2.862   0.614 -1.0839 -0.3943  2.2385
  430SOL     OW 1288   1.501   1.877   2.261 -0.0176 -0.0821 -0.1741
  430SOL    HW1 1289   1.488   1.814   2.184 -0.8342  1.5376  1.7409
  430SOL    HW2 1290   1.422   1.870   2.330 -2.2789 -1.8437  3.8726
  431SOL     OW 1291   2.824   2.061   1.757  0.3762 -0.4206  0.1096
  431SOL    HW1 1292   2.737   2.059   1.702 -0.7797 -1.0203 -2.2361
  431SOL    HW2 1293   2.885   1.982   1.731 -0.6879  1.8495  2.7028
  432SOL     OW 1294   1.186   2.099   2.486 -0.1533  0.7908 -0.1784
  432SOL    HW1 1295   1.079   2.093   2.487 -2.6263  0.9158 -1.7575
  432SOL    HW2 1296   1.216   2.192   2.463 -2.1644 -0.9670  1.0899
  433SOL     OW 1297   1.181   2.790   0.864 -0.6915  0.2381  0.7776
  433SOL    HW1 1298   1.219   2.697   0.859  0.7025 -1.8153  1.8439
  433SOL    HW2 1299   1.160   2.831   0.772 -1.8720 -0.3058 -1.5553
  434SOL     OW 1300   0.267   1.931   2.340  0.2335 -0.1839 -0.7423
  434SOL    HW1 1301   0.178   1.920   2.386 -0.9686  2.3160 -0.5541
  434SOL    HW2 1302   0.249   2.002   2.271 -0.3175  0.0594  2.1846
  435SOL     OW 1303   0.208   1.554   0.533 -0.1250  0.0644  0.2707
  435SOL    HW1 1304   0.168   1.596   0.450  1.3840  0.4291  0.3260
  435SOL    HW2 1305   0.243   1.623   0.603  1.2969  3.1764  0.3114
  436SOL     OW 1306   0.649   2.035   1.950 -0.0194 -0.2390 -0.4533
  436SOL    HW1 1307   0.623   1.940   1.989  1.3083 -0.0522  3.1169
  436SOL    HW2 1308   0.748   2.051   1.950  3.1217 -1.6986 -0.1794
  437SOL     OW 1309   1.115   0.705   0.425 -0.3155 -0.3658  0.0924
  437SOL    HW1 1310   1.029   0.737   0.473 -0.6115  2.8216  2.1919
  437SOL    HW2 1311   1.160   0.783   0.377 -0.1860 -1.5966 -0.1637
  438SOL     OW 1312   0.461   1.961   0.704 -0.0274  0.2905  0.0886
  438SOL    HW1 1313   0.365   1.985   0.712  1.6673 -1.0057  1.7904
  438SOL    HW2 1314   0.525   2.025   0.758  2.7112  0.2014  0.2228
  439SOL     OW 1315   1.043   2.731   1.964  0.0667 -0.2024  0.0894
  439SOL    HW1 1316   0.975   2.737   2.035  1.3256 -0.8090 -2.9378
  439SOL    HW2 1317   1.019   2.783   1.878 -1.8291  0.4145 -0.0017
  440SOL     OW 1318   1.823   0.074   1.507 -0.2368 -0.1700  0.8040
  440SOL    HW1 1319   1.854   0.111   1.598 -1.4449  1.5038  3.8642
  440SOL    HW2 1320   1.834   0.152   1.440  1.2933  3.8044 -0.6143
  441SOL     OW 1321   0.380   0.023   1.654 -0.4630  0.2003 -0.0814
  441SOL    HW1 1322   0.326   3.015   1.663  0.0478 -2.0613  0.0889
  441SOL    HW2 1323   0.472   3.077   1.621  0.7980  3.7653  2.5325
  442SOL     OW 1324   2.101   1.863   0.327 -0.3943  0.1547  0.0947
  442SOL    HW1 1325   2.060   1.786   0.373 -0.9491  2.2809  0.4416
  442SOL    HW2 1326   2.114   1.842   0.230  0.4607 -0.6554  1.3545
  443SOL     OW 1327   2.567   0.229   2.370  0.4412  0.4549 -0.2940
  443SOL    HW1 1328   2.476   0.221   2.321 -0.8502 -1.0289  1.0891
  443SOL    HW2 1329   2.562   0.280   2.455  1.0457 -0.9770 -0.0601
  444SOL     OW 1330   2.084   1.195   1.926  0.2282 -0.1328  0.2960
  444SOL    HW1 1331   2.132   1.107   1.933 -1.4860  0.4496 -0.3558
  444SOL    HW2 1332   2.144   1.268   1.905 -1.8958 -3.3134  2.7334
  445SOL     OW 1333   2.736   2.201   1.376 -0.2559  0.3733  0.4857
  445SOL    HW1 1334   2.778   2.115   1.412  2.4863  0.4530 -1.6484
  445SOL    HW2 1335   2.650   2.218   1.422  2.1184  0.0663 -1.8642
  446SOL     OW 1336   2.747   1.149   0.588 -0.3347  0.5488  0.4847
  446SOL    HW1 1337   2.836   1.188   0.616 -2.7077 -2.5098 -0.9858
  446SOL    HW2 1338   2.733   1.059   0.625  1.1711  0.8208  0.4584
  447SOL     OW 1339   1.143   1.774   0.729  0.0986 -0.9809 -0.3455
  447SOL    HW1 1340   1.236   1.789   0.779  1.7128  0.6231  1.1235
  447SOL    HW2 1341   1.143   1.837   0.644  1.0120  0.8682 -1.3263
  448SOL     OW 1342   1.338   1.302   1.964 -0.5117  0.3743 -0.5003
  448SOL    HW1 1343   1.389   1.270   1.883 -1.5439 -0.0069 -0.2080
  448SOL    HW2 1344   1.277   1.228   2.001  2.0373 -0.5538 -0.2255
  449SOL     OW 1345   0.454   1.358   0.246 -0.5660  0.4450  0.1558
  449SOL    HW1 1346   0.399   1.441   0.216 -2.9755 -0.9624  1.2457
  449SOL    HW2 1347   0.430   1.269   0.204 -1.1533  0.9614 -2.1039
  450SOL     OW 1348   2.385   2.305   1.863  0.4412  0.1202  0.3215
  450SOL    HW1 1349   2.389   2.349   1.766  0.9535  0.7392 -1.6780
  450SOL    HW2 1350   2.289   2.266   1.882 -1.3368 -0.9131  0.5508
  451SOL     OW 1351   1.933   0.303   2.238  0.0824  0.3615 -0.2640
  451SOL    HW1 1352   1.999   0.357   2.299 -1.1395  1.7432  1.3929
  451SOL    HW2 1353   1.915   0.351   2.152  0.8119 -3.3092  3.2889
  452SOL     OW 1354   1.116   0.096   1.377  0.4409  0.3552  0.7202
  452SOL    HW1 1355   1.072   0.021   1.325  0.8973  0.7619  1.7265
  452SOL    HW2 1356   1.044   0.160   1.414 -2.0274 -0.4668  1.4124
  453SOL     OW 1357   0.995   1.578   0.887 -0.0570 -0.0942 -0.3548
  453SOL    HW1 1358   1.054   1.648   0.841  0.5326  0.5014  1.7055
  453SOL    HW2 1359   0.894   1.580   0.864  1.7968  0.5996 -0.2525
  454SOL     OW 1360   0.513   1.123   0.683  0.3956  0.1565 -0.4758
  454SOL    HW1 1361   0.491   1.031   0.723  2.4720  0.4425 -2.3274
  454SOL    HW2 1362   0.441   1.161   0.621 -2.0672 -1.5333  1.0495
  455SOL     OW 1363   2.984   2.887   0.180  0.5941 -0.1613  0.2266
  455SOL    HW1 1364   3.022   2.890   0.275  0.5109  0.0829  1.6062
  455SOL    HW2 1365   3.055   2.907   0.109 -1.2086 -0.2622 -1.0770
  456SOL     OW 1366   2.440   2.131   0.815  0.5227 -0.3419 -0.0417
  456SOL    HW1 1367   2.365   2.151   0.884 -0.0367  2.3972  0.8750
  456SOL    HW2 1368   2.495   2.048   0.825 -1.5564  2.1913  0.9469
  457SOL     OW 1369   1.597   0.216   0.359 -0.5105 -0.4118 -0.7495
  457SOL    HW1 1370   1.689   0.193   0.406  0.4751 -2.2046  1.0823
  457SOL    HW2 1371   1.519   0.165   0.404 -0.6399 -1.6417  2.4109
  458SOL     OW 1372   2.663   2.987   0.475 -0.1240 -0.0299  0.0453
  458SOL    HW1 1373   2.749   2.942   0.514 -0.3240  1.9092 -2.5122
  458SOL    HW2 1374   2.583   2.932   0.506 -1.3874 -0.5965  2.5015
  459SOL     OW 1375   2.085   0.374   2.704 -0.2196 -0.1940  0.0915
  459SOL    HW1 1376   2.009   0.406   2.769 -0.5551 -0.6017  0.8719
  459SOL    HW2 1377   2.084   0.274   2.679  3.1038  0.5845 -0.4234
  460SOL     OW 1378   2.879   0.057   3.077  0.0741  0.4922 -0.0950
  460SOL    HW1 1379   2.966   0.097   0.030 -0.5181  3.4807  0.1542
  460SOL    HW2 1380   2.838   3.072   0.063  0.0769  1.3392 -0.7558
  461SOL     OW 1381   0.782   1.472   1.261 -0.1113  0.5706  0.3040
  461SOL    HW1 1382   0.777   1.570   1.284 -0.1030 -1.6434  0.5369
  461SOL    HW2 1383   0.872   1.450   1.215 -0.1703 -1.2155 -1.0860
  462SOL     OW 1384   2.543   2.781   1.612 -0.1677  0.1517  0.0805
  462SOL    HW1 1385   2.633   2.761   1.656 -0.7563  0.4746 -1.9098
  462SOL    HW2 1386   2.522   2.724   1.530  0.2173 -1.4159  1.5998
  463SOL     OW 1387   2.576   1.149   2.892  0.1349  0.2470  0.1172
  463SOL    HW1 1388   2.543   1.205   2.972  3.9686  0.3953 -0.3286
  463SOL    HW2 1389   2.508   1.076   2.866  1.3691  1.9420  1.8666
  464SOL     OW 1390   0.217   2.457   1.335  0.4759  0.5494 -0.1027
  464SOL    HW1 1391   0.287   2.523   1.303 -0.3557  0.3211 -1.9446
  464SOL    HW2 1392   0.141   2.440   1.265 -0.3821 -0.3960 -1.5769
  465SOL     OW 1393   0.366   1.313   0.510  0.0950 -0.2132  0.0245
  465SOL    HW1 1394   0.424   1.318   0.425  1.0298 -0.9227  0.9102
  465SOL    HW2 1395   0.324   1.405   0.526  0.5573  1.7894 -0.4540
  466SOL     OW 1396   1.215   0.301   2.193 -0.5488 -0.0740 -0.2229
  466SOL    HW1 1397   1.276   0.335   2.267 -0.0038 -0.7791  0.3431
  466SOL    HW2 1398   1.267   0.255   2.118 -0.7019  0.9815 -1.6198
  467SOL     OW 1399   0.990   0.759   2.297 -0.3338 -0.4074 -0.3931
  467SOL    HW1 1400   0.907   0.764   2.357 -1.0141  1.3906  2.1600
  467SOL    HW2 1401   1.066   0.823   2.322  0.9664 -1.6634 -0.7306
  468SOL     OW 1402   0.099   0.825   2.510  0.7025 -0.1060 -0.3098
  468SOL    HW1 1403   0.198   0.849   2.491 -2.0975 -0.2950  0.7482
  468SOL    HW2 1404   0.044   0.908   2.514  0.6475 -3.2622  1.6206
  469SOL     OW 1405   0.239   2.039   0.430 -0.4089 -0.1321 -0.7852
  469SOL    HW1 1406   0.321   2.039   0.368 -3.1020  1.6591 -0.2843
  469SOL    HW2 1407   0.176   2.103   0.380  1.7476  2.2160  1.1023
  470SOL     OW 1408   2.709   1.592   2.455 -0.0686 -0.1401 -0.1615
  470SOL    HW1 1409   2.631   1.642   2.412 -1.1216 -0.2541  2.9922
  470SOL    HW2 1410   2.793   1.588   2.398 -0.4479  0.9060 -0.2743
  471SOL     OW 1411   1.619   0.779   2.230 -0.2361 -0.2479  0.1572
  471SOL    HW1 1412   1.619   0.680   2.208 -2.2593 -1.4953 -1.6471
  471SOL    HW2 1413   1.624   0.783   2.331 -2.0114 -1.3097  2.5626
  472SOL     OW 1414   0.614   2.649   1.195 -0.4312  0.2385 -0.2874
  472SOL    HW1 1415   0.684   2.578   1.211 -0.2980 -3.4585  1.8207
  472SOL    HW2 1416   0.614   2.684   1.098 -0.7922 -0.6375 -1.8570
  473SOL     OW 1417   1.009   0.169   2.290 -0.7451 -0.1038 -0.1274
  473SOL    HW1 1418   1.077   0.231   2.248 -1.8609  0.9078  1.2327
  473SOL    HW2 1419   1.014   0.079   2.249 -0.2049  1.9369 -0.1833
  474SOL     OW 1420   1.816   2.845   1.512 -0.1428 -0.4725  0.2771
  474SOL    HW1 1421   1.806   2.941   1.544  1.3787  0.8891  0.8974
  474SOL    HW2 1422   1.738   2.818   1.450 -2.8034 -1.5305 -4.2525
  475SOL     OW 1423   1.871   0.249   1.029 -0.2800  0.1254 -0.0374
  475SOL    HW1 1424   1.898   0.320   0.953  0.5355  2.2731 -2.7612
  475SOL    HW2 1425   1.947   0.246   1.096 -2.4248 -1.0169 -0.4406
  476SOL     OW 1426   0.523   0.853   1.093 -0.0495 -0.4298 -0.4208
  476SOL    HW1 1427   0.511   0.944   1.132  0.9639  1.4426 -0.6113
  476SOL    HW2 1428   0.614   0.810   1.113  0.0795 -0.2757 -0.0719
  477SOL     OW 1429   1.207   2.585   0.411 -0.2970  0.3572  0.2345
  477SOL    HW1 1430   1.258   2.652   0.350 -1.9173 -1.1102 -1.7587
  477SOL    HW2 1431   1.260   2.516   0.457  0.8884  0.3284 -0.0783
  478SOL     OW 1432   0.185   2.219   2.312  0.3952 -0.7502 -0.6289
  478SOL    HW1 1433   0.256   2.217   2.241 -1.7666 -2.4617 -0.7112
  478SOL    HW2 1434   0.220   2.245   2.405 -0.3343 -0.5437 -1.5193
  479SOL     OW 1435   2.948   0.234   1.052  0.6928 -0.3116 -0.3122
  479SOL    HW1 1436   2.874   0.298   1.090 -3.9061  1.5766  1.0288
  479SOL    HW2 1437   3.039   0.264   1.091  1.1236  1.4921  2.0121
  480SOL     OW 1438   0.453   2.375   0.456  0.0395  0.3456  0.1311
  480SOL    HW1 1439   0.547   2.385   0.417  0.4199  2.0150 -0.7728
  480SOL    HW2 1440   0.381   2.430   0.406  2.4314  1.0057 -1.9746
  481SOL     OW 1441   2.143   2.054   1.247  0.4261 -0.1741 -0.1625
  481SOL    HW1 1442   2.167   1.958   1.226 -1.3959  0.1142  0.3124
  481SOL    HW2 1443   2.219   2.125   1.246  0.4457  3.3346 -0.1464
  482SOL     OW 1444   1.119   2.483   2.710  0.1095  0.0544  0.4178
  482SOL    HW1 1445   1.153   2.437   2.625  0.7774  1.0683  0.7322
  482SOL    HW2 1446   1.126   2.416   2.789  0.6843 -0.6708  2.6962
  483SOL     OW 1447   0.537   2.391   2.136  0.0100  0.0401 -0.4394
  483SOL    HW1 1448   0.496   2.484   2.134  2.3555 -1.9791  1.7989
  483SOL    HW2 1449   0.618   2.392   2.077 -1.7522 -1.4126 -2.6127
  484SOL     OW 1450   0.976   0.554   1.458 -0.0662  0.0717  0.4979
  484SOL    HW1 1451   1.009   0.498   1.533 -1.3716 -0.0054  1.5086
  484SOL    HW2 1452   1.059   0.594   1.417  1.2979 -1.0096 -1.5718
  485SOL     OW 1453   1.798   0.730   2.689 -0.1014  0.1085  0.0921
  485SOL    HW1 1454   1.862   0.785   2.625  2.9539 -1.8509 -0.2689
  485SOL    HW2 1455   1.750   0.652   2.637 -1.5831 -1.7637 -3.2482
  486SOL     OW 1456   2.430   2.646   0.886 -0.2545 -0.2222  0.4035
  486SOL    HW1 1457   2.482   2.559   0.884  1.4481 -0.2463 -3.1604
  486SOL    HW2 1458   2.442   2.697   0.800 -0.6562  1.8652  0.6835
  487SOL     OW 1459   0.757   2.269   1.515  0.5416  0.7197 -0.1234
  487SOL    HW1 1460   0.684   2.267   1.442  1.3862  0.4064  0.1130
  487SOL    HW2 1461   0.727   2.246   1.609  1.4882 -0.5226  1.9044
  488SOL     OW 1462   2.287   1.699   2.903 -0.0585 -0.0357  0.3761
  488SOL    HW1 1463   2.349   1.719   2.820 -0.0065  0.8537 -0.0724
  488SOL    HW2 1464   2.316   1.608   2.945  1.9625 -1.4305 -0.1666
  489SOL     OW 1465   1.976   3.043   1.304  0.0151 -0.9326 -0.3643
  489SOL    HW1 1466   1.995   2.945   1.292  0.8406  3.1582 -0.1424
  489SOL    HW2 1467   1.929   3.061   1.394 -1.1452 -0.0052 -1.1051
  490SOL     OW 1468   0.878   1.570   0.068 -0.5258 -0.1399  0.6127
  490SOL    HW1 1469   0.977   1.592   0.076 -1.6660  1.3704 -0.5711
  490SOL    HW2 1470   0.827   1.646   0.113  1.6691  1.2450 -0.1883
  491SOL     OW 1471   0.487   2.088   1.416  0.3083  0.3064  0.4929
  491SOL    HW1 1472   0.395   2.098   1.457 -1.3533  1.0255  2.0035
  491SOL    HW2 1473   0.513   1.995   1.379  1.1718  1.0784 -1.9089
  492SOL     OW 1474   0.852   1.733   1.838 -0.4814 -0.4291  0.4447
  492SOL    HW1 1475   0.884   1.695   1.749 -0.9065  0.1123 -0.6764
  492SOL    HW2 1476   0.888   1.830   1.850 -0.1789  0.0764  1.9668
  493SOL     OW 1477   2.829   2.211   0.724 -0.5059  0.1253  0.6331
  493SOL    HW1 1478   2.783   2.154   0.652 -0.7689  0.9447  3.2912
  493SOL    HW2 1479   2.900   2.150   0.767 -1.1187  0.8049  2.7053
  494SOL     OW 1480   2.699   2.032   0.601 -0.0183  0.6262  0.2697
  494SOL    HW1 1481   2.638   2.063   0.526  3.0591  0.0802 -1.7880
  494SOL    HW2 1482   2.677   1.931   0.622 -0.7040 -3.0604 -1.8685
  495SOL     OW 1483   2.725   2.982   0.194  0.8764  0.2368 -0.0731
  495SOL    HW1 1484   2.806   2.926   0.184 -2.0866  1.2535  0.8884
  495SOL    HW2 1485   2.706   2.998   0.295  0.3067  1.0256 -0.1304
  496SOL     OW 1486   2.556   3.001   1.152 -0.2687  0.2062 -0.2385
  496SOL    HW1 1487   2.505   3.028   1.070  0.1160 -2.0042  5.8006
  496SOL    HW2 1488   2.546   3.065   1.232 -1.0531 -1.9610 -1.5641
  497SOL     OW 1489   2.516   0.993   2.511  0.3358 -0.0086  0.0274
  497SOL    HW1 1490   2.590   1.060   2.500  2.6766 -0.6475  0.8637
  497SOL    HW2 1491   2.502   0.972   2.609  1.5802 -1.5319 -2.9217
  498SOL     OW 1492   2.876   1.981   1.441  0.1526  0.0461  0.7629
  498SOL    HW1 1493   2.875   1.932   1.532 -0.4814  0.0675 -1.8636
  498SOL    HW2 1494   2.969   2.026   1.438  1.5088  0.8063  0.6069
  499SOL     OW 1495   0.871   2.528   2.610 -0.1260  0.2208  0.3633
  499SOL    HW1 1496   0.961   2.525   2.662  2.9970  0.3235  2.5585
  499SOL    HW2 1497   0.879   2.489   2.515  2.0549  0.2621 -0.3821
  500SOL     OW 1498   1.738   0.646   0.198 -0.3497  0.2139 -0.6164
  500SOL    HW1 1499   1.753   0.749   0.214 -1.4947  2.3083  1.4985
  500SOL    HW2 1500   1.716   0.605   0.284  0.5217  0.6398 -1.3460
  501SOL     OW 1501   1.469   0.428   1.703 -0.1819  0.0427 -0.7019
  501SOL    HW1 1502   1.543   0.453   1.637 -0.4599 -0.2586  0.2961
  501SOL    HW2 1503   1.503   0.384   1.797  1.9329 -3.2397  2.4990
  502SOL     OW 1504   2.326   0.609   1.737  0.2433  0.0611 -0.2308
  502SOL    HW1 1505   2.318   0.711   1.743 -0.9600 -0.5606 -0.8230
  502SOL    HW2 1506   2.242   0.577   1.690 -2.9722  0.1388  1.5886
  503SOL     OW 1507   2.323   1.826   1.973 -0.1762  0.1078  0.8235
  503SOL    HW1 1508   2.250   1.757   1.950 -0.0763 -3.0372  0.2068
  503SOL    HW2 1509   2.285   1.913   2.006  2.4374 -2.1784 -1.6213
  504SOL     OW 1510   1.452   1.193   1.746 -0.5959 -0.0143 -0.4318
  504SOL    HW1 1511   1.555   1.196   1.729  0.8976  0.3328  0.3058
  504SOL    HW2 1512   1.420   1.097   1.741  1.8497  1.0880  1.3483
  505SOL     OW 1513   0.559   0.597   1.764 -0.2578 -0.2399 -0.6393
  505SOL    HW1 1514   0.607   0.508   1.749  0.0639 -0.6987  2.3830
  505SOL    HW2 1515   0.628   0.668   1.803  3.0278  1.5116  2.2493
  506SOL     OW 1516   0.429   0.332   2.839  0.1562  0.3745 -0.4877
  506SOL    HW1 1517   0.345   0.391   2.830  0.9408  1.3036  1.4939
  506SOL    HW2 1518   0.501   0.400   2.844 -1.6195 -1.9257  1.2763
  507SOL     OW 1519   0.507   0.103   0.274  0.1738  0.5103 -0.3768
  507SOL    HW1 1520   0.408   0.110   0.300  0.6498 -1.7558  0.2520
  507SOL    HW2 1521   0.522   0.124   0.178  0.4941  0.0075  2.0097
  508SOL     OW 1522   0.726   0.771   1.880 -0.0386 -0.0379  0.0399
  508SOL    HW1 1523   0.677   0.846   1.928 -0.2896 -0.9038  0.7422
  508SOL    HW2 1524   0.817   0.758   1.924  2.5941 -0.4757  1.2971
  509SOL     OW 1525   1.397   2.398   1.026 -0.1821  0.3679 -0.0597
  509SOL    HW1 1526   1.469   2.401   1.094 -2.0804 -0.5534 -0.9786
  509SOL    HW2 1527   1.397   2.312   0.973  1.3790  3.1652  0.8128
  510SOL     OW 1528   2.883   1.447   1.497 -0.3757 -0.2695 -0.2884
  510SOL    HW1 1529   2.977   1.489   1.487  0.4490 -0.1410  1.7202
  510SOL    HW2 1530   2.816   1.519   1.508 -0.5121  0.2108 -2.6181
  511SOL     OW 1531   1.017   2.181   1.432 -0.5249 -0.8186  0.0010
  511SOL    HW1 1532   1.115   2.210   1.447 -1.0276 -0.2832 -0.6433
  511SOL    HW2 1533   0.951   2.241   1.482 -0.5585 -0.5159  1.0153
  512SOL     OW 1534   3.023   1.771   0.688 -0.5391  0.2266  0.1522
  512SOL    HW1 1535   0.007   1.698   0.710  1.4323 -1.5163  0.8775
  512SOL    HW2 1536   3.027   1.805   0.594  2.0737 -0.2803  1.1565
  513SOL     OW 1537   3.066   1.615   2.969 -0.2847 -0.1249 -0.4470
  513SOL    HW1 1538   0.025   1.708   2.936  3.7808  0.4155 -0.8704
  513SOL    HW2 1539   0.051   1.544   2.957 -1.1661 -0.0909  1.9146
  514SOL     OW 1540   2.428   1.993   2.512  0.1025  0.2800 -0.0128
  514SOL    HW1 1541   2.348   1.996   2.570 -1.7273 -0.4387 -1.7646
  514SOL    HW2 1542   2.430   2.079   2.456 -1.7076  0.9858  0.2818
  515SOL     OW 1543   2.348   0.987   0.759 -0.3880 -0.2994  0.0104
  515SOL    HW1 1544   2.331   0.887   0.768  1.8426 -0.9080 -2.5351
  515SOL    HW2 1545   2.417   1.018   0.829  2.5383  0.0697 -0.3620
  516SOL     OW 1546   2.496   1.826   0.010 -0.1842  0.3795  0.1286
  516SOL    HW1 1547   2.431   1.888   3.051  1.7512 -0.8981  1.7028
  516SOL    HW2 1548   2.555   1.781   3.021  2.0839  1.2407  0.4080
  517SOL     OW 1549   0.546   1.320   2.825  0.9400 -0.6131  0.0757
  517SOL    HW1 1550   0.589   1.410   2.847  2.3144  1.4772 -0.8508
  517SOL    HW2 1551   0.597   1.254   2.873 -2.4014  2.4789 -1.0658
  518SOL     OW 1552   2.807   0.082   2.299  0.1881  0.1806  1.0962
  518SOL    HW1 1553   2.716   0.128   2.321 -2.0007 -0.2095  0.5910
  518SOL    HW2 1554   2.793   3.070   2.348 -3.0931 -0.7651  1.6379
  519SOL     OW 1555   1.654   1.294   2.978  0.4235  0.3715 -0.0393
  519SOL    HW1 1556   1.558   1.258   2.986  0.3424  1.6457 -0.1183
  519SOL    HW2 1557   1.657   1.397   2.964 -0.3023  0.6316 -1.3917
  520SOL     OW 1558   2.572   2.751   2.419 -0.2079  0.5517 -0.0071
  520SOL    HW1 1559   2.528   2.831   2.375 -0.9959 -0.2815  1.2951
  520SOL    HW2 1560   2.611   2.678   2.354  1.4656  2.0270 -0.3216
  521SOL     OW 1561   0.301   1.660   2.247 -0.4595  0.1863  0.4804
  521SOL    HW1 1562   0.399   1.658   2.218 -2.4644 -0.8096 -0.2302
  521SOL    HW2 1563   0.282   1.751   2.288  0.8823 -2.8763  1.4493
  522SOL     OW 1564   1.273   2.748   2.118 -0.1583 -0.1639 -0.3807
  522SOL    HW1 1565   1.351   2.734   2.056  1.0901  0.2358  1.2315
  522SOL    HW2 1566   1.183   2.735   2.070  0.6340 -2.2322  1.2802
  523SOL     OW 1567   2.693   2.090   1.050  0.9334  0.1099 -0.4880
  523SOL    HW1 1568   2.726   2.183   1.077  1.0113  1.5029  0.2960
  523SOL    HW2 1569   2.707   2.063   0.953 -3.3061  2.5296  1.9912
  524SOL     OW 1570   1.629   2.085   0.740 -0.2616  0.3592  0.7570
  524SOL    HW1 1571   1.631   1.987   0.773 -0.2972 -0.1926  2.2845
  524SOL    HW2 1572   1.592   2.091   0.647 -0.1080  0.1192 -1.2232
  525SOL     OW 1573   2.953   0.572   0.682  0.1037 -0.3973  0.1844
  525SOL    HW1 1574   2.902   0.592   0.769 -2.0298  3.0962  3.0012
  525SOL    HW2 1575   2.891   0.523   0.621  2.5186 -1.0094  0.3500
  526SOL     OW 1576   1.532   2.822   0.898 -0.4107  0.6178  0.5714
  526SOL    HW1 1577   1.558   2.881   0.820  0.1698 -0.7260 -0.3135
  526SOL    HW2 1578   1.494   2.883   0.974  0.7885  0.5573  0.5958
  527SOL     OW 1579   2.076   1.914   0.958 -0.3493 -0.0253 -0.0143
  527SOL    HW1 1580   2.071   1.869   0.866 -0.5911  0.5308 -2.2272
  527SOL    HW2 1581   2.110   1.849   1.027  1.9182  1.4099 -1.6600
  528SOL     OW 1582   2.310   2.790   2.885 -0.2000  0.0940  0.6251
  528SOL    HW1 1583   2.242   2.836   2.944  2.6857  0.3941 -0.1977
  528SOL    HW2 1584   2.404   2.816   2.908 -2.0604  0.8640 -0.4047
  529SOL     OW 1585   1.153   1.376   2.519 -0.4573 -0.0607 -0.5696
  529SOL    HW1 1586   1.220   1.439   2.566 -0.9054  1.6259 -2.7543
  529SOL    HW2 1587   1.065   1.383   2.570  3.9112  0.1088 -2.6520
  530SOL     OW 1588   2.134   0.919   2.286  0.0859 -0.0596  1.0775
  530SOL    HW1 1589   2.210   0.862   2.243 -1.2408 -2.6442  0.3271
  530SOL    HW2 1590   2.054   0.925   2.222 -0.8833  1.2383  1.0734
  531SOL     OW 1591   0.157   0.830   0.005 -0.5008  0.0881 -0.5928
  531SOL    HW1 1592   0.233   0.899   3.076  1.4597 -2.0748  0.2192
  531SOL    HW2 1593   0.090   0.842   3.014 -0.3787 -0.2751  0.2799
  532SOL     OW 1594   1.355   1.530   0.502  0.0766 -0.2452 -0.0562
  532SOL    HW1 1595   1.379   1.485   0.589 -1.9877 -2.3026  0.1326
  532SOL    HW2 1596   1.256   1.532   0.468 -0.5322 -0.6258 -0.9846
  533SOL     OW 1597   0.230   0.513   2.218 -0.6074 -0.1075  0.8959
  533SOL    HW1 1598   0.302   0.534   2.155 -2.0550 -0.3716  3.8963
  533SOL    HW2 1599   0.269   0.480   2.305  1.3504  0.4687 -0.1390
  534SOL     OW 1600   1.368   0.661   2.501  0.1556  0.3672  0.3846
  534SOL    HW1 1601   1.283   0.607   2.527  0.5042 -1.0798  1.6032
  534SOL    HW2 1602   1.416   0.696   2.581 -1.4976  0.1679 -2.2907
  535SOL     OW 1603   0.534   0.503   0.242 -0.2179  0.0052 -0.3742
  535SOL    HW1 1604   0.540   0.554   0.329  0.7066  2.4056 -1.2957
  535SOL    HW2 1605   0.504   0.558   0.164 -1.6988  2.0620  2.7564
  536SOL     OW 1606   0.505   0.575   3.046  0.6046 -0.5250  0.8027
  536SOL    HW1 1607   0.560   0.647   0.017  0.7299  2.1924  1.1072
  536SOL    HW2 1608   0.536   0.558   2.951  2.4166 -0.5973  0.3193
  537SOL     OW 1609   1.574   3.057   1.602 -0.0345  0.4944  0.0807
  537SOL    HW1 1610   1.481   3.077   1.566  2.2143  0.6225 -1.3719
  537SOL    HW2 1611   1.636   0.041   1.551 -0.4269  0.3369 -1.5188
  538SOL     OW 1612   0.479   2.732   0.048  0.4183  0.2047  0.8069
  538SOL    HW1 1613   0.466   2.837   0.040  1.7673 -0.3578 -0.8930
  538SOL    HW2 1614   0.410   2.682   3.070  0.7644  1.0788  1.9362
  539SOL     OW 1615   2.834   1.291   1.787 -0.4797  0.1685  0.7549
  539SOL    HW1 1616   2.786   1.316   1.699  0.7565  0.6748  0.7238
  539SOL    HW2 1617   2.840   1.366   1.853  0.5455 -2.0496 -1.1525
  540SOL     OW 1618   2.208   1.635   1.367  0.8819  0.3428  0.0706
  540SOL    HW1 1619   2.292   1.693   1.379  1.2602 -0.4889  0.2817
  540SOL    HW2 1620   2.229   1.534   1.373 -0.9138 -2.8664 -0.3496
  541SOL     OW 1621   0.577   2.191   1.722  0.5082  0.6191  0.6030
  541SOL    HW1 1622   0.509   2.132   1.673 -0.1276  1.3089 -1.0450
  541SOL    HW2 1623   0.604   2.153   1.813 -0.7720 -0.1599 -3.2890
  542SOL     OW 1624   2.259   0.955   1.979  0.5686  0.1697 -0.0773
  542SOL    HW1 1625   2.256   0.915   1.882  0.9592 -1.4498 -3.6985
  542SOL    HW2 1626   2.300   0.889   2.044 -1.1355 -2.0956 -0.2650
  543SOL     OW 1627   1.038   0.457   0.510 -0.0410  0.3553  0.0118
  543SOL    HW1 1628   1.094   0.546   0.489  0.0976  1.8918  0.1745
  543SOL    HW2 1629   0.975   0.477   0.592 -2.8327  0.8070  0.9322
  544SOL     OW 1630   2.009   1.815   1.467 -0.1523  0.3065  0.2012
  544SOL    HW1 1631   1.947   1.856   1.400 -1.1086  0.5775 -2.0421
  544SOL    HW2 1632   2.056   1.736   1.421 -2.4100  1.2769  0.9581
  545SOL     OW 1633   1.462   1.523   1.215 -0.0681 -0.1491  0.4651
  545SOL    HW1 1634   1.426   1.429   1.239 -0.0719 -0.6685 -2.8454
  545SOL    HW2 1635   1.536   1.558   1.273 -0.2459 -2.0888 -1.2185
  546SOL     OW 1636   0.184   0.133   2.980  0.2121  0.2019 -0.5812
  546SOL    HW1 1637   0.106   0.189   3.015 -2.4585  2.7986  0.8476
  546SOL    HW2 1638   0.267   0.150   3.037  0.3925  3.6635 -0.2081
  547SOL     OW 1639   2.224   0.545   3.026  0.6895 -0.4047  0.2592
  547SOL    HW1 1640   2.165   0.465   3.043 -0.6500 -1.5711 -0.4898
  547SOL    HW2 1641   2.212   0.572   2.927  1.8977  0.6155 -0.4571
  548SOL     OW 1642   2.626   2.107   2.168  1.0921  0.0231 -0.6226
  548SOL    HW1 1643   2.573   2.157   2.242 -0.6296  0.5707  3.0792
  548SOL    HW2 1644   2.716   2.069   2.197  0.7189  1.5426  1.8817
  549SOL     OW 1645   2.232   3.017   0.792  0.3029  0.1274 -0.0566
  549SOL    HW1 1646   2.311   2.947   0.789 -1.0975 -1.1886 -2.6363
  549SOL    HW2 1647   2.145   2.965   0.807  0.7956 -1.1961 -0.9686
  550SOL     OW 1648   2.429   1.072   0.217  0.2001 -0.0737 -0.0107
  550SOL    HW1 1649   2.394   1.055   0.123  0.7163  0.5586 -4.1472
  550SOL    HW2 1650   2.368   1.041   0.295  0.4176  1.3900  1.3520
  551SOL     OW 1651   1.309   3.074   1.572  0.2729  0.0701 -0.2041
  551SOL    HW1 1652   1.281   3.023   1.658 -0.1842 -2.5358  3.0254
  551SOL    HW2 1653   1.234   3.077   1.502  0.6580 -0.4187  2.9540
  552SOL     OW 1654   2.614   2.618   0.134 -0.2508  0.0920  0.4232
  552SOL    HW1 1655   2.640   2.638   0.033  2.2866  0.4160  0.0487
  552SOL    HW2 1656   2.550   2.686   0.171 -0.5731  0.7148  1.1988
  553SOL     OW 1657   0.818   0.009   0.702 -0.5115  0.2997  0.4094
  553SOL    HW1 1658   0.766   0.013   0.791  0.9136 -1.4428  0.2526
  553SOL    HW2 1659   0.800   3.001   0.655  0.2920  0.1517 -3.9991
  554SOL     OW 1660   1.894   2.142   1.697  0.0630  0.3473 -0.3148
  554SOL    HW1 1661   1.826   2.140   1.772  2.7678 -0.4202  0.1391
  554SOL    HW2 1662   1.848   2.169   1.611 -0.2172  3.4295  2.3577
  555SOL     OW 1663   1.428   2.402   1.882  0.2998  0.7152 -0.1075
  555SOL    HW1 1664   1.521   2.400   1.928 -1.6068 -2.1322  0.4446
  555SOL    HW2 1665   1.380   2.326   1.925 -1.7768  1.7056  0.1201
  556SOL     OW 1666   1.683   1.769   0.613  0.7291 -0.0365  0.1553
  556SOL    HW1 1667   1.677   1.769   0.715 -0.9977  0.8303 -2.6041
  556SOL    HW2 1668   1.591   1.790   0.573  0.6554  1.5785  2.3143
  557SOL     OW 1669   1.299   2.080   2.129  0.1188  0.1761 -0.3310
  557SOL    HW1 1670   1.260   2.012   2.063  0.8765  2.3500  0.1108
  557SOL    HW2 1671   1.381   2.049   2.175 -3.8075 -2.9845 -0.1387
  558SOL     OW 1672   0.038   0.346   2.149  0.1647  0.4045 -0.4735
  558SOL    HW1 1673   0.070   0.251   2.118  0.6810 -2.1583  0.5705
  558SOL    HW2 1674   0.114   0.414   2.162  4.8754  0.7458  0.1813
  559SOL     OW 1675   2.190   2.906   2.054 -0.1927  0.7964  0.4855
  559SOL    HW1 1676   2.252   2.862   1.987 -2.4278 -0.1877  0.6874
  559SOL    HW2 1677   2.250   2.955   2.121 -1.6234  0.2254  0.9028
  560SOL     OW 1678   0.438   3.003   0.023  0.4985  0.8945 -0.5822
  560SOL    HW1 1679   0.437   0.021   0.037 -0.7152 -0.6545  2.9197
  560SOL    HW2 1680   0.430   2.968   3.011 -0.1111 -1.4241 -0.3650
  561SOL     OW 1681   1.437   1.158   0.266 -0.9519 -0.1436 -0.2578
  561SOL    HW1 1682   1.486   1.082   0.215  1.1037 -2.4825  0.3347
  561SOL    HW2 1683   1.358   1.121   0.317  2.9948  0.5047 -0.5718
  562SOL     OW 1684   0.812   1.154   2.392  0.3974  0.2323 -0.5080
  562SOL    HW1 1685   0.738   1.223   2.425  1.6676 -0.9508  1.3572
  562SOL    HW2 1686   0.849   1.101   2.474 -2.6344 -1.1515  2.0325
  563SOL     OW 1687   1.550   2.161   2.864 -0.2371 -0.3618  0.5453
  563SOL    HW1 1688   1.476   2.202   2.919  1.0358 -1.4894  1.9610
  563SOL    HW2 1689   1.602   2.237   2.821 -0.0617 -0.4123  0.2536
  564SOL     OW 1690   3.075   1.917   0.474  0.0759 -0.4540  0.0316
  564SOL    HW1 1691   0.081   1.971   0.462  0.6642 -0.0771 -0.4558
  564SOL    HW2 1692   2.992   1.965   0.440 -1.8897 -1.2005 -1.1678
  565SOL     OW 1693   1.113   2.987   2.795  0.0813  0.2708 -0.2981
  565SOL    HW1 1694   1.058   2.969   2.880  1.6873  1.4990 -0.3355
  565SOL    HW2 1695   1.211   2.952   2.781  2.8533 -0.9185 -1.6798
  566SOL     OW 1696   1.771   2.743   2.745  0.6387  0.1914 -0.7465
  566SOL    HW1 1697   1.866   2.724   2.719 -2.6934 -0.5250 -2.5698
  566SOL    HW2 1698   1.738   2.838   2.718 -0.9412  0.8655 -1.2425
  567SOL     OW 1699   2.341   1.354   1.119  0.0762 -0.8017 -0.0062
  567SOL    HW1 1700   2.297   1.299   1.049  1.2647 -0.2860  0.9550
  567SOL    HW2 1701   2.281   1.438   1.133 -2.0805 -1.0688  1.1989
  568SOL     OW 1702   2.100   1.243   2.900 -0.4475 -0.2560 -0.7574
  568SOL    HW1 1703   2.039   1.161   2.899 -1.5159 -0.0255 -2.5043
  568SOL    HW2 1704   2.074   1.315   2.971  0.2858 -0.0796  0.2244
  569SOL     OW 1705   2.148   1.614   2.378  0.1326 -0.1744 -0.2954
  569SOL    HW1 1706   2.236   1.601   2.332 -2.7873 -0.2670 -1.5017
  569SOL    HW2 1707   2.087   1.674   2.318  2.0847  1.7030  1.3454
  570SOL     OW 1708   2.858   2.521   2.002  0.1935 -0.1905  0.2510
  570SOL    HW1 1709   2.889   2.498   2.096 -1.5964 -0.8731  1.9691
  570SOL    HW2 1710   2.819   2.438   1.954 -0.4162 -1.5088  0.1402
  571SOL     OW 1711   0.474   0.167   1.905 -0.1268  0.3475  0.1629
  571SOL    HW1 1712   0.537   0.216   1.966  0.4178  0.3003  1.1907
  571SOL    HW2 1713   0.475   0.198   1.808 -0.4911 -1.3791  1.9713
  572SOL     OW 1714   1.003   1.910   0.921  0.5248  0.2456 -0.2371
  572SOL    HW1 1715   1.051   1.851   0.855 -0.9202 -0.6680  0.7753
  572SOL    HW2 1716   1.068   1.963   0.979 -1.8334 -1.4519  0.5599
  573SOL     OW 1717   1.282   0.553   0.264  0.3840 -0.4740 -0.1551
  573SOL    HW1 1718   1.204   0.597   0.314 -0.2034 -1.8657 -0.4232
  573SOL    HW2 1719   1.281   0.577   0.164 -0.1634 -0.2853 -3.1738
  574SOL     OW 1720   0.566   2.949   0.409 -0.2540  0.2586  0.4262
  574SOL    HW1 1721   0.546   3.030   0.350  0.3302 -1.1108 -4.2070
  574SOL    HW2 1722   0.666   2.949   0.429 -0.6663  1.0104  0.8492
  575SOL     OW 1723   0.168   1.367   1.308 -0.2777  0.1511 -0.2432
  575SOL    HW1 1724   0.208   1.334   1.395 -0.9752 -0.5654 -1.7754
  575SOL    HW2 1725   0.232   1.414   1.247 -1.5205 -0.3796  1.9779
  576SOL     OW 1726   2.642   0.289   1.687  0.6448 -0.4423 -0.0088
  576SOL    HW1 1727   2.667   0.199   1.645 -0.0262 -1.1771  0.6270
  576SOL    HW2 1728   2.559   0.278   1.748  3.7400  1.3793  0.7017
  577SOL     OW 1729   2.745   1.628   1.774  0.0385  0.3876  0.5934
  577SOL    HW1 1730   2.702   1.698   1.831  2.9737 -1.1115  2.1897
  577SOL    HW2 1731   2.801   1.566   1.828 -3.0721  3.8956 -1.0076
  578SOL     OW 1732   1.184   3.011   2.159 -0.0111  0.3121  0.1101
  578SOL    HW1 1733   1.210   3.046   2.248 -1.5954  1.1904 -1.0708
  578SOL    HW2 1734   1.192   2.908   2.136  1.2949 -0.6378  0.2238
  579SOL     OW 1735   2.100   2.040   1.961 -0.4561 -0.1920 -0.5008
  579SOL    HW1 1736   2.080   2.020   1.865  0.0191  1.1755 -1.0880
  579SOL    HW2 1737   2.077   2.139   1.987 -0.6663 -0.4889  3.7445
  580SOL     OW 1738   1.815   1.237   1.966 -0.0196  0.0306  0.2806
  580SOL    HW1 1739   1.911   1.211   1.975 -1.4042  2.6858  0.1273
  580SOL    HW2 1740   1.804   1.338   1.953 -1.5473  1.8215  2.3858
  581SOL     OW 1741   1.583   1.092   2.332  0.2421 -0.6050 -0.2389
  581SOL    HW1 1742   1.594   1.108   2.229  3.1318 -1.9478 -3.0411
  581SOL    HW2 1743   1.665   1.118   2.389 -0.3861  2.4420 -0.9032
  582SOL     OW 1744   2.750   2.330   1.838 -0.8282  0.4570 -0.0389
  582SOL    HW1 1745   2.772   2.228   1.843  0.5059 -3.5391 -1.2240
  582SOL    HW2 1746   2.671   2.347   1.773  0.2930  1.1338 -2.8452
  583SOL     OW 1747   1.675   1.166   0.757 -0.0345 -0.3625 -0.4185
  583SOL    HW1 1748   1.642   1.126   0.671 -0.4655 -0.6782 -1.1861
  583SOL    HW2 1749   1.744   1.105   0.796 -2.5828  0.7297 -2.1485
  584SOL     OW 1750   0.760   2.377   0.334  0.1119  0.3156 -0.2693
  584SOL    HW1 1751   0.774   2.438   0.417  2.5053  3.1961  1.3742
  584SOL    HW2 1752   0.802   2.409   0.248 -0.1165 -0.3264  0.0106
  585SOL     OW 1753   2.999   2.608   0.057 -0.0358  0.3018 -0.1349
  585SOL    HW1 1754   3.008   2.695   0.111 -0.5531 -0.4479  1.6245
  585SOL    HW2 1755   2.987   2.638   3.039 -0.9373  0.3833 -2.9081
  586SOL     OW 1756   2.352   1.113   0.480  0.2027  0.1215  0.5875
  586SOL    HW1 1757   2.370   1.064   0.570  2.3539 -1.0090  2.1963
  586SOL    HW2 1758   2.418   1.189   0.475 -0.9640 -0.6672  0.1993
  587SOL     OW 1759   3.030   1.395   0.207 -0.6252  0.0281 -0.5321
  587SOL    HW1 1760   2.998   1.487   0.170 -2.0158  0.6715  1.8409
  587SOL    HW2 1761   3.032   1.406   0.312  1.6538  0.0136  1.9416
  588SOL     OW 1762   0.538   0.279   0.774  0.2600  0.0579  0.1214
  588SOL    HW1 1763   0.549   0.263   0.672 -0.4824 -0.9032 -0.8336
  588SOL    HW2 1764   0.439   0.283   0.792  2.5149  1.3119 -1.7175
  589SOL     OW 1765   1.452   0.127   0.743  0.2501  0.8013 -0.1253
  589SOL    HW1 1766   1.381   0.102   0.813  1.7266 -2.4547 -0.2598
  589SOL    HW2 1767   1.504   0.207   0.776 -1.2823 -0.0687 -0.7285
  590SOL     OW 1768   2.505   2.147   0.147  0.1548 -0.1887  0.1617
  590SOL    HW1 1769   2.407   2.139   0.125 -1.2855 -0.5061 -1.8970
  590SOL    HW2 1770   2.514   2.217   0.224 -0.3699 -1.4097 -2.4297
  591SOL     OW 1771   3.032   2.187   1.895  0.0818 -0.0552  1.1921
  591SOL    HW1 1772   3.039   2.210   1.994  1.1495  0.2485 -0.2067
  591SOL    HW2 1773   2.952   2.135   1.862 -1.9468 -0.7895 -0.5200
  592SOL     OW 1774   0.164   1.486   2.078 -0.6685 -0.6300  0.7355
  592SOL    HW1 1775   0.083   1.437   2.108  2.4324  0.1250  1.9943
  592SOL    HW2 1776   0.181   1.569   2.135 -1.3051 -3.2892 -2.2705
  593SOL     OW 1777   1.405   1.904   1.426  0.1370  0.5066 -0.3312
  593SOL    HW1 1778   1.307   1.903   1.456 -0.6065  0.4476 -0.6086
  593SOL    HW2 1779   1.469   1.871   1.497 -2.3945  0.2198 -1.1639
  594SOL     OW 1780   0.492   1.131   2.619  0.2224 -0.5638 -0.0270
  594SOL    HW1 1781   0.507   1.033   2.636  0.4917 -0.8757 -1.0620
  594SOL    HW2 1782   0.506   1.185   2.706 -1.1044 -0.7917  1.3721
  595SOL     OW 1783   1.648   0.695   0.819  0.2160  0.3435  0.0181
  595SOL    HW1 1784   1.554   0.661   0.819  1.8214 -0.2034 -0.4762
  595SOL    HW2 1785   1.674   0.711   0.916  2.0417 -1.5007  1.0015
  596SOL     OW 1786   0.445   1.085   1.215 -0.2439  0.4694 -0.3407
  596SOL    HW1 1787   0.487   1.159   1.156  1.5821  1.6479 -0.7697
  596SOL    HW2 1788   0.456   1.102   1.313 -1.2818 -0.5802 -1.9674
  597SOL     OW 1789   0.256   2.576   2.484  0.5752 -0.0535 -0.5251
  597SOL    HW1 1790   0.327   2.630   2.524 -0.6338  1.0350  1.7867
  597SOL    HW2 1791   0.277   2.478   2.503 -0.8299  2.3526  0.6946
  598SOL     OW 1792   2.488   2.247   2.382  0.1454 -0.1436  0.3169
  598SOL    HW1 1793   2.423   2.289   2.312 -0.2002  2.2655 -1.1244
  598SOL    HW2 1794   2.542   2.314   2.443  0.0921 -0.8640 -0.6659
  599SOL     OW 1795   1.206   1.156   0.412  0.8831 -0.5600 -0.2060
  599SOL    HW1 1796   1.136   1.219   0.375 -1.1540  0.1674  1.7724
  599SOL    HW2 1797   1.194   1.149   0.512  0.7195  2.8711 -0.3714
  600SOL     OW 1798   1.659   0.486   0.428 -0.3203  0.0698  0.2939
  600SOL    HW1 1799   1.657   0.392   0.390  1.0072 -0.9993  0.5729
  600SOL    HW2 1800   1.565   0.514   0.456  0.1295 -3.0184 -0.3171
  601SOL     OW 1801   0.519   0.310   1.658 -0.3160 -0.2764  0.1344
  601SOL    HW1 1802   0.428   0.352   1.677  1.0143  0.7022  0.0932
  601SOL    HW2 1803   0.522   0.257   1.570  3.8189 -0.9407 -2.5819
  602SOL     OW 1804   0.357   2.360   0.728  0.2118  0.1835 -0.1599
  602SOL    HW1 1805   0.411   2.349   0.813  2.2429 -1.0909 -0.3275
  602SOL    HW2 1806   0.419   2.344   0.647  0.3267 -1.8458 -0.8330
  603SOL     OW 1807   1.078   2.898   2.524  0.4306  0.5216  0.1978
  603SOL    HW1 1808   1.079   2.914   2.622  0.1354 -1.1103 -2.0545
  603SOL    HW2 1809   1.155   2.950   2.486  1.0538 -1.1603 -0.1273
  604SOL     OW 1810   0.849   2.481   0.078  0.6772 -0.2764  0.4960
  604SOL    HW1 1811   0.935   2.510   0.125 -1.5737  1.4866 -1.5724
  604SOL    HW2 1812   0.815   2.564   0.030  0.8116 -0.4692  2.2807
  605SOL     OW 1813   1.659   1.524   1.678 -0.5853  0.5697  0.1203
  605SOL    HW1 1814   1.718   1.588   1.736  0.3250  2.1757 -2.4280
  605SOL    HW2 1815   1.697   1.427   1.689  2.1344 -2.2916 -0.1036
  606SOL     OW 1816   0.935   1.170   2.781  0.4101 -0.2320 -0.1986
  606SOL    HW1 1817   0.948   1.097   2.715 -1.6279  1.2703  2.0783
  606SOL    HW2 1818   0.936   1.258   2.732  0.6994  1.8054 -1.6260
  607SOL     OW 1819   0.835   1.044   1.154  0.0826  0.1351  0.5451
  607SOL    HW1 1820   0.779   1.001   1.229 -1.1078 -0.0165  2.5888
  607SOL    HW2 1821   0.924   1.084   1.186  0.4914  1.6321 -1.5662
  608SOL     OW 1822   2.555   2.091   1.901  0.3556  0.2883  1.1319
  608SOL    HW1 1823   2.484   2.161   1.882 -0.2378  1.0511  0.4141
  608SOL    HW2 1824   2.578   2.074   2.002  1.1835 -1.7523  0.3716
  609SOL     OW 1825   2.118   0.138   0.107 -0.1587 -0.7987  0.3038
  609SOL    HW1 1826   2.139   0.193   0.194  1.8964 -0.8713  3.4413
  609SOL    HW2 1827   2.153   0.043   0.116  0.2622  2.8110  0.5869
  610SOL     OW 1828   0.337   2.426   1.810  0.6909 -0.3187  0.1463
  610SOL    HW1 1829   0.374   2.511   1.850 -0.3724 -1.8522  0.6846
  610SOL    HW2 1830   0.392   2.394   1.735 -3.9809 -0.8820 -0.5566
  611SOL     OW 1831   1.306   1.706   1.118  0.8047  0.3686  0.4934
  611SOL    HW1 1832   1.221   1.709   1.173  1.9163 -0.0748 -0.0124
  611SOL    HW2 1833   1.371   1.635   1.153  1.7856  1.1109 -0.9132
  612SOL     OW 1834   0.520   0.179   2.306  0.2286  0.1178  0.5209
  612SOL    HW1 1835   0.552   0.240   2.231 -1.2512 -1.3740  0.7426
  612SOL    HW2 1836   0.595   0.115   2.336 -2.1495 -1.6060  2.3575
  613SOL     OW 1837   2.688   1.091   0.293 -0.4606 -0.3696  0.0490
  613SOL    HW1 1838   2.594   1.103   0.256 -0.5341 -0.9677 -1.3436
  613SOL    HW2 1839   2.699   1.126   0.389 -0.7911 -1.3675 -1.2734
  614SOL     OW 1840   1.772   0.169   1.951  0.0743 -0.4196  0.6611
  614SOL    HW1 1841   1.848   0.133   1.891  0.1338 -0.9023  0.1101
  614SOL    HW2 1842   1.793   0.263   1.986  0.6923 -1.4751 -1.4773
  615SOL     OW 1843   0.818   1.456   1.549  0.0366  0.2984  0.0718
  615SOL    HW1 1844   0.897   1.513   1.585 -1.2893  1.6069  0.4055
  615SOL    HW2 1845   0.806   1.459   1.450  0.2403  0.0431 -3.3769
  616SOL     OW 1846   1.586   1.753   0.027 -0.2039 -0.1589 -0.1246
  616SOL    HW1 1847   1.641   1.749   0.116  1.6612 -2.6813 -1.7013
  616SOL    HW2 1848   1.616   1.841   3.057  2.6664  0.2384 -0.9419
  617SOL     OW 1849   2.097   3.028   0.356  0.2294 -0.0085  0.1790
  617SOL    HW1 1850   2.055   2.958   0.418 -1.9401  1.5075 -0.8237
  617SOL    HW2 1851   2.143   0.021   0.410 -0.7001 -3.0704 -0.1991
  618SOL     OW 1852   0.752   0.795   2.470 -0.2065 -0.3276  0.6346
  618SOL    HW1 1853   0.696   0.792   2.559 -2.2963 -0.9123  1.3904
  618SOL    HW2 1854   0.700   0.838   2.391 -0.0918  0.3905 -3.1702
  619SOL     OW 1855   2.280   1.419   0.757 -1.1235  0.1706  0.0807
  619SOL    HW1 1856   2.230   1.506   0.749 -1.6946 -1.4095  2.4614
  619SOL    HW2 1857   2.336   1.404   0.672  2.8504 -0.6797  0.4711
  620SOL     OW 1858   2.098   2.541   2.951  0.3964  0.0678  0.3500
  620SOL    HW1 1859   2.023   2.474   2.916 -3.7447 -0.7415  0.0560
  620SOL    HW2 1860   2.189   2.514   2.906  2.7567 -3.9096  1.6578
  621SOL     OW 1861   2.369   1.462   2.983 -0.7805  0.3012  0.1058
  621SOL    HW1 1862   2.274   1.450   3.019 -0.4951 -0.1025 -0.0015
  621SOL    HW2 1863   2.430   1.412   3.042 -1.7278 -2.0663  1.3756
  622SOL     OW 1864   1.415   2.495   2.287  0.0501 -0.5303  0.0134
  622SOL    HW1 1865   1.369   2.555   2.217  3.1354  0.3591  0.6560
  622SOL    HW2 1866   1.501   2.545   2.317 -0.5566  1.9729  1.6453
  623SOL     OW 1867   0.703   1.697   0.353  0.4251 -0.4150  0.0519
  623SOL    HW1 1868   0.789   1.754   0.367  2.1004  0.7397 -0.7905
  623SOL    HW2 1869   0.652   1.731   0.269  0.9601 -0.0067 -0.7331
  624SOL     OW 1870   0.417   0.205   0.009  0.2360 -0.4132  0.4886
  624SOL    HW1 1871   0.377   0.259   0.088  0.4283 -1.0580  2.0501
  624SOL    HW2 1872   0.442   0.265   3.009  1.0185 -0.1624 -3.4177
  625SOL     OW 1873   0.578   1.663   0.618  0.0821 -0.4569  0.0125
  625SOL    HW1 1874   0.577   1.575   0.567  0.5090 -0.0461  1.0284
  625SOL    HW2 1875   0.600   1.744   0.553 -0.5092  1.1881 -2.3464
  626SOL     OW 1876   2.573   2.848   2.786  0.1062 -0.2357  0.2980
  626SOL    HW1 1877   2.536   2.836   2.695  1.3875  0.8500 -1.7728
  626SOL    HW2 1878   2.653   2.916   2.786  1.1971  3.1753  1.1849
  627SOL     OW 1879   1.301   1.523   2.694  0.2740  0.2549 -0.1499
  627SOL    HW1 1880   1.400   1.520   2.689 -1.9054 -0.8532 -1.4590
  627SOL    HW2 1881   1.269   1.503   2.790  1.9668 -0.0076  2.5990
  628SOL     OW 1882   0.340   0.372   2.429  0.2694 -0.0328  0.1965
  628SOL    HW1 1883   0.413   0.304   2.419 -1.2963  2.8905 -4.2443
  628SOL    HW2 1884   0.374   0.459   2.477  1.8115  3.6841  1.7437
  629SOL     OW 1885   0.269   2.828   1.985 -0.6584 -0.1911  0.2570
  629SOL    HW1 1886   0.181   2.793   2.006  2.8826  1.1497  2.2850
  629SOL    HW2 1887   0.289   2.910   2.045  2.2357  0.1761  0.3494
  630SOL     OW 1888   1.722   1.242   1.710 -0.0218  0.2937 -0.2623
  630SOL    HW1 1889   1.759   1.179   1.640  2.0185 -0.4684  0.2453
  630SOL    HW2 1890   1.758   1.219   1.804 -0.3227 -1.0706 -1.2218
  631SOL     OW 1891   2.165   0.832   0.266  0.5356 -0.6761 -0.0827
  631SOL    HW1 1892   2.206   0.778   0.189 -3.5927 -1.6776 -1.0281
  631SOL    HW2 1893   2.225   0.832   0.345  0.2746  0.2376 -1.9148
  632SOL     OW 1894   2.188   0.200   1.997  0.4569  0.2318  0.4066
  632SOL    HW1 1895   2.187   0.195   2.101  1.7276 -0.4688  1.4320
  632SOL    HW2 1896   2.111   0.149   1.960 -1.8440 -0.5078  2.7017
  633SOL     OW 1897   0.844   2.821   0.199 -0.3912 -0.2859 -0.4682
  633SOL    HW1 1898   0.858   2.770   0.287 -1.3514 -1.8067 -0.7142
  633SOL    HW2 1899   0.778   2.775   0.137 -1.2270  1.1473 -0.0477
  634SOL     OW 1900   1.363   2.690   2.633  0.0108  0.1121  0.0509
  634SOL    HW1 1901   1.286   2.671   2.568 -0.7179 -0.2662 -0.3400
  634SOL    HW2 1902   1.451   2.663   2.586  2.6235 -1.9822 -1.3247
  635SOL     OW 1903   2.364   0.254   3.032 -0.1399  0.0751  0.4150
  635SOL    HW1 1904   2.414   0.287   0.029  0.7679 -0.0165  1.4916
  635SOL    HW2 1905   2.287   0.188   3.051 -0.8193 -2.1212  1.8824
  636SOL     OW 1906   0.789   1.113   0.699 -0.0674 -0.3696  0.6204
  636SOL    HW1 1907   0.686   1.123   0.686  0.1335  0.7327  1.1162
  636SOL    HW2 1908   0.821   1.038   0.754  0.6273  1.4031 -2.0509
  637SOL     OW 1909   0.188   2.142   0.702 -0.1835 -0.0305 -0.5769
  637SOL    HW1 1910   0.259   2.208   0.731 -0.2784  0.5390  1.6150
  637SOL    HW2 1911   0.213   2.100   0.613  1.1038 -0.0626 -0.1616
  638SOL     OW 1912   0.752   0.043   2.827 -0.0126 -0.3412 -0.6950
  638SOL    HW1 1913   0.796   3.038   2.867 -0.3032 -0.5310  0.6706
  638SOL    HW2 1914   0.705   0.097   2.906 -0.8810 -0.1030 -0.5361
  639SOL     OW 1915   1.439   1.782   0.501 -0.3674  0.4102  0.1621
  639SOL    HW1 1916   1.412   1.685   0.500 -0.3530 -0.5955  1.8149
  639SOL    HW2 1917   1.359   1.843   0.497  1.4598 -2.2394  0.0435
  640SOL     OW 1918   1.772   2.719   0.885  0.0726 -0.4040  0.3300
  640SOL    HW1 1919   1.785   2.669   0.794  2.4467  0.6808 -1.9222
  640SOL    HW2 1920   1.675   2.743   0.902  2.3904  0.2241  0.0224
  641SOL     OW 1921   0.049   2.819   0.418  0.2737 -0.0395  0.3444
  641SOL    HW1 1922   0.135   2.837   0.371 -1.4620  0.1637  3.4447
  641SOL    HW2 1923   0.069   2.763   0.498  1.7618  0.2563  0.7269
  642SOL     OW 1924   0.783   0.273   1.783  0.1818 -0.1462 -0.0732
  642SOL    HW1 1925   0.692   0.280   1.740  1.8910 -0.2975  0.6238
  642SOL    HW2 1926   0.810   0.350   1.841 -1.1660 -2.1081 -0.0551
  643SOL     OW 1927   0.536   1.906   2.296  0.2882 -0.4012 -0.1283
  643SOL    HW1 1928   0.435   1.913   2.308 -2.4294  0.7417 -1.4370
  643SOL    HW2 1929   0.559   1.839   2.220  0.8474 -0.2835  1.3062
  644SOL     OW 1930   0.785   2.882   0.540  0.4949  0.0769  0.3492
  644SOL    HW1 1931   0.703   2.829   0.564 -2.1815  1.6512 -0.1235
  644SOL    HW2 1932   0.857   2.818   0.505  1.1642  1.2632  1.7206
  645SOL     OW 1933   1.087   1.931   0.133  0.0574 -0.0395 -0.1277
  645SOL    HW1 1934   1.146   1.983   0.072 -0.8112 -2.3762 -0.2377
  645SOL    HW2 1935   1.123   1.837   0.144  1.1318 -0.6253  0.0443
  646SOL     OW 1936   0.184   1.229   0.121 -0.1969  0.0467  0.2036
  646SOL    HW1 1937   0.217   1.168   0.194 -1.1855 -0.3661  0.3000
  646SOL    HW2 1938   0.106   1.287   0.148  2.8552  0.7945 -2.0243
  647SOL     OW 1939   1.030   0.123   1.062 -0.0363  0.3879 -0.6870
  647SOL    HW1 1940   1.063   0.201   1.119  0.2173 -0.9510  1.9259
  647SOL    HW2 1941   1.019   0.038   1.115 -0.0713  0.8238 -3.6375
  648SOL     OW 1942   2.768   2.965   1.777 -0.1437  0.5779 -0.5189
  648SOL    HW1 1943   2.832   2.977   1.854 -1.7861 -0.8823  0.3514
  648SOL    HW2 1944   2.810   2.887   1.720 -0.3376 -1.8841 -1.1570
  649SOL     OW 1945   0.730   2.124   2.771  0.0082  0.5254 -0.0637
  649SOL    HW1 1946   0.824   2.081   2.779  0.3077  1.1846 -1.1657
  649SOL    HW2 1947   0.667   2.116   2.852 -2.7333  1.0410  1.8477
  650SOL     OW 1948   0.370   1.828   1.646  0.1848 -0.1497 -0.1790
  650SOL    HW1 1949   0.326   1.900   1.588 -0.1681 -2.2854 -0.1342
  650SOL    HW2 1950   0.378   1.744   1.595  1.5660 -1.3891 -0.0795
  651SOL     OW 1951   0.717   0.149   0.014 -0.2762  0.2558 -0.0661
  651SOL    HW1 1952   0.773   0.089   0.079 -0.1285  1.6080  1.9486
  651SOL    HW2 1953   0.707   0.244   0.052 -0.0393  0.1408 -0.8203
  652SOL     OW 1954   2.683   1.962   0.196  0.8395  0.1399 -0.1739
  652SOL    HW1 1955   2.671   1.897   0.123 -0.6785  2.2707  2.2932
  652SOL    HW2 1956   2.603   2.023   0.197 -0.7629 -0.9426 -1.3643
  653SOL     OW 1957   0.247   0.213   0.780 -0.6370  0.4930 -0.6496
  653SOL    HW1 1958   0.184   0.132   0.789  0.8957  2.3545 -0.6322
  653SOL    HW2 1959   0.198   0.293   0.744 -1.8433 -1.8312 -0.0494
  654SOL     OW 1960   1.674   0.096   2.689  0.0049  0.0441  0.4504
  654SOL    HW1 1961   1.721   0.187   2.672 -2.0826  1.4549 -2.9758
  654SOL    HW2 1962   1.579   0.126   2.711  2.4329  1.2458  1.2377
  655SOL     OW 1963   0.814   2.431   1.264 -0.1972 -0.3049  0.0377
  655SOL    HW1 1964   0.867   2.457   1.348 -0.1011  1.9246  2.8629
  655SOL    HW2 1965   0.851   2.342   1.225  1.1455  0.4824  0.8387
  656SOL     OW 1966   0.269   0.453   1.788 -0.0296  0.4947  0.1420
  656SOL    HW1 1967   0.219   0.536   1.806  1.5853  1.8862 -2.2569
  656SOL    HW2 1968   0.202   0.380   1.759 -1.0794 -3.1955 -0.0351
  657SOL     OW 1969   2.393   0.519   2.056 -0.4120  0.6800 -0.3343
  657SOL    HW1 1970   2.387   0.539   1.957  1.5947 -1.5768  0.2028
  657SOL    HW2 1971   2.438   0.430   2.077  0.5179  0.1324 -2.9256
  658SOL     OW 1972   2.141   1.700   1.109  0.2870 -0.3009 -0.4201
  658SOL    HW1 1973   2.037   1.699   1.116 -1.6222  4.0210  3.7227
  658SOL    HW2 1974   2.178   1.677   1.201 -1.5237  0.1848  1.7777
  659SOL     OW 1975   2.508   0.108   2.822  0.3485  0.3516 -0.0066
  659SOL    HW1 1976   2.479   0.159   2.905 -2.5808  0.9561  1.4624
  659SOL    HW2 1977   2.595   0.061   2.835 -1.3721  1.4121 -1.8639
  660SOL     OW 1978   1.276   1.411   2.960 -0.1756  0.2707  0.0499
  660SOL    HW1 1979   1.312   1.466   3.033  1.1794 -2.4577 -0.1817
  660SOL    HW2 1980   1.323   1.321   2.961 -0.4122 -1.0389 -1.8975
  661SOL     OW 1981   2.783   2.451   0.840 -0.0534  0.4477 -0.4386
  661SOL    HW1 1982   2.800   2.360   0.792 -1.2174 -0.7062 -1.4138
  661SOL    HW2 1983   2.696   2.446   0.900  1.0056  1.2957  1.4736
  662SOL     OW 1984   0.606   0.779   0.126 -0.8135  0.6154  0.4627
  662SOL    HW1 1985   0.708   0.783   0.126 -1.3945 -0.2155  1.3579
  662SOL    HW2 1986   0.577   0.835   0.205  0.4917 -0.0250  0.7825
  663SOL     OW 1987   1.057   2.260   0.157  0.1566 -0.2278  0.1230
  663SOL    HW1 1988   1.090   2.358   0.144  0.3002  0.4126  1.9318
  663SOL    HW2 1989   0.990   2.233   0.084  0.1291 -0.4249  0.8625
  664SOL     OW 1990   0.725   2.545   1.732  0.5023 -0.2308 -0.3803
  664SOL    HW1 1991   0.801   2.563   1.664  1.7469  1.7966 -1.5520
  664SOL    HW2 1992   0.641   2.588   1.688  0.0779  1.2955 -1.4085
  665SOL     OW 1993   2.140   2.085   1.652  0.1909 -0.4861 -0.8126
  665SOL    HW1 1994   2.039   2.105   1.660 -0.0821  1.0396  3.0740
  665SOL    HW2 1995   2.180   2.139   1.578  0.7547 -1.0739 -0.7326
  666SOL     OW 1996   0.536   2.694   0.325  0.0186 -0.3415 -0.4921
  666SOL    HW1 1997   0.551   2.782   0.371  0.6721 -0.7694 -0.1248
  666SOL    HW2 1998   0.515   2.703   0.228  2.3670 -1.9102  0.7474
  667SOL     OW 1999   1.958   1.716   1.711  0.3303 -0.5711 -0.0536
  667SOL    HW1 2000   1.962   1.767   1.622  0.4492  1.8825 -1.2825
  667SOL    HW2 2001   1.871   1.755   1.758 -3.3321 -1.8083 -0.8998
  668SOL     OW 2002   0.365   0.849   2.430 -0.1535  0.0232  0.8425
  668SOL    HW1 2003   0.371   0.947   2.406 -0.3485  1.2522  2.9896
  668SOL    HW2 2004   0.389   0.790   2.351  0.5726  1.6647  0.5872
  669SOL     OW 2005   1.944   2.161   2.391  0.6735 -0.4596 -0.6041
  669SOL    HW1 2006   1.863   2.116   2.445  0.3079 -0.9821  0.5985
  669SOL    HW2 2007   1.997   2.098   2.340  0.2153 -1.1891  1.9314
  670SOL     OW 2008   2.242   2.168   0.018 -0.0051 -0.4024 -0.2812
  670SOL    HW1 2009   2.265   2.087   3.037 -0.2551 -2.1062  1.7982
  670SOL    HW2 2010   2.138   2.177   0.038 -3.4538 -3.7007 -0.9273
  671SOL     OW 2011   0.647   1.292   1.102  0.6046  0.2066 -0.3743
  671SOL    HW1 2012   0.689   1.375   1.152  1.0310 -0.1011  0.1589
  671SOL    HW2 2013   0.713   1.211   1.102  1.5303 -1.0749  0.0251
  672SOL     OW 2014   2.521   0.907   2.265 -0.3127  0.7670  0.0402
  672SOL    HW1 2015   2.616   0.940   2.234  1.2534  0.5632 -0.2422
  672SOL    HW2 2016   2.503   0.956   2.355 -0.2555 -1.2521  0.9835
  673SOL     OW 2017   2.788   2.016   2.403 -0.0275  0.1387  0.3932
  673SOL    HW1 2018   2.720   1.939   2.428 -3.1131 -2.9295  1.3075
  673SOL    HW2 2019   2.847   2.047   2.479  0.1953  2.3869 -0.6379
  674SOL     OW 2020   1.225   2.671   2.375 -0.3804 -0.9862  0.1351
  674SOL    HW1 2021   1.154   2.733   2.406  1.0210 -0.2471 -3.0504
  674SOL    HW2 2022   1.257   2.709   2.287  0.3069 -1.9782  0.3514
  675SOL     OW 2023   0.747   0.926   1.384 -0.3477  0.1302 -0.8001
  675SOL    HW1 2024   0.794   0.879   1.464 -1.6077 -3.3316  1.1301
  675SOL    HW2 2025   0.666   0.977   1.417  1.5591  0.5991  0.7485
  676SOL     OW 2026   1.812   0.991   0.469  0.1845  0.1741  0.2059
  676SOL    HW1 2027   1.714   1.027   0.485 -3.3055  0.1397 -2.0307
  676SOL    HW2 2028   1.880   1.008   0.542 -1.3966  1.1366 -0.7573
  677SOL     OW 2029   2.823   1.516   2.968 -0.2111  0.0534  0.2421
  677SOL    HW1 2030   2.815   1.445   2.900  0.6191  0.7362  2.2669
  677SOL    HW2 2031   2.921   1.541   2.973 -1.1404 -0.1813  0.2302
  678SOL     OW 2032   0.032   2.370   1.149 -0.1303  0.1453 -0.1508
  678SOL    HW1 2033   3.043   2.361   1.224  2.1023 -0.3046 -1.0182
  678SOL    HW2 2034   3.078   2.438   1.081  0.5424 -0.9638 -1.6078
  679SOL     OW 2035   2.060   2.595   0.658 -0.1429 -0.8688 -0.4433
  679SOL    HW1 2036   2.094   2.532   0.736  2.4693  0.6437  1.2757
  679SOL    HW2 2037   2.114   2.580   0.573 -2.6060  3.2724  1.2752
  680SOL     OW 2038   0.002   2.522   2.433 -0.3042  0.3373  0.1216
  680SOL    HW1 2039   3.061   2.509   2.533 -2.6998  1.0207  3.9106
  680SOL    HW2 2040   0.102   2.532   2.418  1.1126 -1.6638  0.0066
  681SOL     OW 2041   2.982   1.266   1.335 -0.1619  0.5661 -0.1053
  681SOL    HW1 2042   3.059   1.307   1.286 -0.9186  0.8124 -3.7526
  681SOL    HW2 2043   2.930   1.329   1.398 -1.8225  0.6049  2.5920
  682SOL     OW 2044   0.498   1.834   1.311 -0.3569 -0.2153 -0.1293
  682SOL    HW1 2045   0.529   1.784   1.232 -0.9204  1.8118  0.2528
  682SOL    HW2 2046   0.561   1.826   1.391 -0.4594 -0.2006  0.2437
  683SOL     OW 2047   2.601   1.558   1.396  0.2456  0.4723 -0.2813
  683SOL    HW1 2048   2.675   1.586   1.331  1.6261  2.5903 -0.0353
  683SOL    HW2 2049   2.605   1.620   1.479  1.2499  1.6141 -1.6627
  684SOL     OW 2050   2.808   1.259   0.063  0.1704 -0.0760 -0.1711
  684SOL    HW1 2051   2.865   1.174   0.058 -2.7271 -2.4219 -0.7108
  684SOL    HW2 2052   2.863   1.323   0.116 -0.0497 -1.1284  0.9553
  685SOL     OW 2053   0.959   1.045   0.160 -0.6674 -0.4326  0.0188
  685SOL    HW1 2054   0.906   1.128   0.147  3.1874 -1.2773  1.1523
  685SOL    HW2 2055   1.055   1.056   0.124 -1.3104 -0.3130 -0.7688
  686SOL     OW 2056   0.361   0.144   1.035  0.0262  0.4123 -0.0506
  686SOL    HW1 2057   0.289   0.188   1.092  1.0287  3.3840  1.5024
  686SOL    HW2 2058   0.331   0.151   0.935 -0.9756  0.3357 -1.9104
  687SOL     OW 2059   1.058   1.280   2.295  0.4801 -0.0870  0.3376
  687SOL    HW1 2060   0.971   1.242   2.327  1.8627  1.2049  0.6630
  687SOL    HW2 2061   1.109   1.314   2.379  0.1959 -2.2652  1.0483
  688SOL     OW 2062   0.761   1.735   1.332 -0.3317 -0.1170 -0.2880
  688SOL    HW1 2063   0.825   1.782   1.267  0.9381 -1.0338 -0.1780
  688SOL    HW2 2064   0.752   1.792   1.419 -0.5003 -1.0720 -0.7905
  689SOL     OW 2065   1.731   0.711   1.089  0.1803 -0.8681 -0.0267
  689SOL    HW1 2066   1.635   0.721   1.129  0.2123 -1.0942  0.0820
  689SOL    HW2 2067   1.802   0.776   1.124  2.4444 -2.6515 -0.8902
  690SOL     OW 2068   2.773   1.013   1.039 -0.0061 -0.0827 -0.3335
  690SOL    HW1 2069   2.849   1.080   1.056 -1.2823  1.2005  1.4058
  690SOL    HW2 2070   2.747   0.962   1.124  1.0326  1.3547 -1.1123
  691SOL     OW 2071   0.166   2.238   1.750  0.1888 -0.4156  0.3831
  691SOL    HW1 2072   0.084   2.203   1.801  0.5955  1.3375  1.7195
  691SOL    HW2 2073   0.220   2.302   1.807 -2.3685 -0.7023 -0.9025
  692SOL     OW 2074   1.739   2.989   1.149 -0.9100 -0.5743  0.0439
  692SOL    HW1 2075   1.732   3.033   1.058 -0.8107 -2.0839 -1.3811
  692SOL    HW2 2076   1.830   2.985   1.187  0.3860  0.2631  0.4043
  693SOL     OW 2077   0.023   1.523   2.533  0.1950 -0.5102 -0.1144
  693SOL    HW1 2078   0.043   1.614   2.577  0.8992 -1.8859  0.4107
  693SOL    HW2 2079   3.026   1.523   2.469  0.9881  1.1813  1.3801
  694SOL     OW 2080   2.184   0.844   1.041  0.1805  0.4625 -0.4207
  694SOL    HW1 2081   2.255   0.825   1.116  1.2080  2.5363  0.7923
  694SOL    HW2 2082   2.089   0.825   1.068 -0.5920 -0.9628 -0.3676
  695SOL     OW 2083   1.035   1.123   1.509  0.6518  0.2299  0.0849
  695SOL    HW1 2084   0.931   1.115   1.528 -0.4259  0.0397  1.3515
  695SOL    HW2 2085   1.048   1.126   1.412  1.7110 -0.6276  0.7836
  696SOL     OW 2086   1.609   2.984   0.663  0.7543  0.1310 -0.3431
  696SOL    HW1 2087   1.555   3.069   0.671  1.0506 -1.3758  0.7480
  696SOL    HW2 2088   1.706   3.009   0.647 -0.8241 -0.5608 -0.6109
  697SOL     OW 2089   0.905   0.271   0.835  0.0498  0.8052  0.2095
  697SOL    HW1 2090   0.844   0.212   0.776  0.7328  0.1697  0.5908
  697SOL    HW2 2091   0.908   0.227   0.922  0.0879  0.8921  0.5738
  698SOL     OW 2092   1.820   1.489   2.267  0.0059 -0.1453  0.4138
  698SOL    HW1 2093   1.723   1.488   2.234 -1.9745  0.7469  1.4992
  698SOL    HW2 2094   1.873   1.402   2.255 -2.4431  2.5090  1.6887
  699SOL     OW 2095   1.305   1.000   1.127  0.1865 -0.6416  0.6466
  699SOL    HW1 2096   1.359   1.057   1.062  0.2278  0.5357  0.0556
  699SOL    HW2 2097   1.248   0.941   1.072  4.8115 -0.8388  0.6284
  700SOL     OW 2098   1.275   2.949   0.417  0.7197  0.8985  0.4588
  700SOL    HW1 2099   1.289   2.903   0.323 -0.6903  0.5593 -3.9194
  700SOL    HW2 2100   1.331   2.892   0.477  1.0978  1.7479 -1.1718
  701SOL     OW 2101   2.355   2.649   2.650 -0.6257 -0.2889 -1.0054
  701SOL    HW1 2102   2.316   2.565   2.683  1.0841  1.3116 -0.4472
  701SOL    HW2 2103   2.335   2.717   2.724  0.4669 -1.0165 -1.9357
  702SOL     OW 2104   0.961   0.308   0.313 -0.2493  0.5595  0.0088
  702SOL    HW1 2105   1.058   0.303   0.279  1.0306 -2.6371 -0.5316
  702SOL    HW2 2106   0.962   0.366   0.402 -2.2767  0.3197  2.4378
  703SOL     OW 2107   2.580   0.326   2.118  0.7452 -0.1224  0.3096
  703SOL    HW1 2108   2.586   0.343   2.218 -0.1215 -1.2279  0.2829
  703SOL    HW2 2109   2.662   0.284   2.083 -0.9152  0.4687  1.0019
  704SOL     OW 2110   3.024   2.022   0.796 -0.3321 -0.7279  0.2993
  704SOL    HW1 2111   3.002   1.927   0.758 -0.9198 -1.7871 -1.4475
  704SOL    HW2 2112   0.036   2.050   0.760  0.2892  1.6504  1.0028
  705SOL     OW 2113   2.664   2.917   2.118 -0.1236  0.1599 -0.3505
  705SOL    HW1 2114   2.746   2.904   2.177  0.7659  0.8688  0.6937
  705SOL    HW2 2115   2.653   3.014   2.087  0.1083  1.6510 -2.7018
  706SOL     OW 2116   2.510   2.386   0.914  0.2417  0.3475  0.0154
  706SOL    HW1 2117   2.530   2.315   0.844 -1.2196 -0.7311 -0.8758
  706SOL    HW2 2118   2.419   2.374   0.954  3.1102  1.8878  0.6773
  707SOL     OW 2119   0.801   2.381   1.934  0.0627 -0.1155 -0.0333
  707SOL    HW1 2120   0.831   2.450   2.005  0.7349 -0.9557 -0.1300
  707SOL    HW2 2121   0.805   2.427   1.842  0.8432  0.9039 -0.3790
  708SOL     OW 2122   3.047   2.779   2.408 -0.1269 -0.1552 -0.0759
  708SOL    HW1 2123   3.050   2.674   2.402 -0.0982  0.2648  0.7186
  708SOL    HW2 2124   0.038   2.820   2.473  0.4205 -0.2459  2.8817
  709SOL     OW 2125   1.946   2.925   1.940  0.4991  0.2352  0.9441
  709SOL    HW1 2126   2.017   2.910   2.010 -2.2429 -0.2199 -1.3441
  709SOL    HW2 2127   1.859   2.894   1.974  2.6268  1.0748  2.7841
  710SOL     OW 2128   1.620   0.872   2.495 -0.3461  0.0619  0.2433
  710SOL    HW1 2129   1.721   0.886   2.507  0.3121 -1.6127 -0.4778
  710SOL    HW2 2130   1.577   0.949   2.448  1.4569 -1.2704  0.3582
  711SOL     OW 2131   0.804   1.900   0.015 -0.3959 -0.0006 -0.2313
  711SOL    HW1 2132   0.903   1.913   0.050  1.5610 -1.1733 -0.7759
  711SOL    HW2 2133   0.810   1.900   2.997 -1.2785  2.4260  1.7579
  712SOL     OW 2134   0.600   2.488   2.610  0.5165 -0.3267 -0.1218
  712SOL    HW1 2135   0.692   2.513   2.592  0.3311 -2.8944  0.6704
  712SOL    HW2 2136   0.584   2.390   2.611 -2.8106  1.5524 -0.8574
  713SOL     OW 2137   1.626   1.549   2.882 -0.0011 -0.1808 -0.1015
  713SOL    HW1 2138   1.609   1.587   2.789 -0.0716 -1.2009 -0.1006
  713SOL    HW2 2139   1.643   1.622   2.953  1.9490  0.8721  1.5457
  714SOL     OW 2140   1.037   1.593   1.654 -0.4628  0.5065  0.2100
  714SOL    HW1 2141   1.116   1.639   1.619 -1.3192  0.2916  0.9635
  714SOL    HW2 2142   1.064   1.530   1.721 -3.3285 -1.0455 -0.7393
  715SOL     OW 2143   1.758   0.347   2.670 -0.4030 -0.3481 -0.1002
  715SOL    HW1 2144   1.709   0.415   2.616  0.5596  1.6132  1.6944
  715SOL    HW2 2145   1.812   0.390   2.748 -1.8457  0.3813  1.4475
  716SOL     OW 2146   2.907   2.433   2.242 -0.2160  0.5280  0.0289
  716SOL    HW1 2147   2.930   2.339   2.213 -0.3500 -1.7429 -2.8397
  716SOL    HW2 2148   2.985   2.468   2.300  2.5251  1.7226 -2.1974
  717SOL     OW 2149   2.869   0.636   0.924  0.3857  0.4191 -0.3067
  717SOL    HW1 2150   2.939   0.650   1.001  1.8576 -1.5239  3.0773
  717SOL    HW2 2151   2.774   0.627   0.960 -0.8083  2.5995 -1.5782
  718SOL     OW 2152   0.728   1.565   2.550  0.1976  0.5704 -0.7693
  718SOL    HW1 2153   0.650   1.629   2.574 -1.4874 -0.7755  1.9503
  718SOL    HW2 2154   0.773   1.583   2.459  0.2473  0.2086 -0.9935
  719SOL     OW 2155   1.971   1.002   2.922 -0.6664 -0.7161  0.4140
  719SOL    HW1 2156   1.878   0.994   2.889 -0.1320 -0.9503  2.0764
  719SOL    HW2 2157   1.978   1.008   3.023  1.3442 -0.3888  2.4452
  720SOL     OW 2158   0.889   0.518   0.729 -0.0133  0.1490  0.0274
  720SOL    HW1 2159   0.886   0.584   0.811  1.6911 -0.5769  2.8993
  720SOL    HW2 2160   0.907   0.426   0.769 -0.5423  3.7341 -0.6911
  721SOL     OW 2161   2.538   0.221   0.768  0.1408  0.1977  0.0923
  721SOL    HW1 2162   2.510   0.314   0.789 -0.6882 -1.1113  2.5201
  721SOL    HW2 2163   2.515   0.199   0.674 -0.3357  0.3187  1.8677
  722SOL     OW 2164   2.410   0.668   2.543 -0.2482  0.4074 -0.1237
  722SOL    HW1 2165   2.387   0.645   2.638  0.6057 -1.7256  0.1682
  722SOL    HW2 2166   2.468   0.755   2.538 -0.9478  2.0084 -1.3893
  723SOL     OW 2167   2.407   0.114   0.214  0.0682  0.1837  0.0469
  723SOL    HW1 2168   2.369   0.030   0.169 -0.2452  3.0111 -0.5991
  723SOL    HW2 2169   2.333   0.181   0.241  0.8759  0.0467 -2.2209
  724SOL     OW 2170   0.796   1.590   2.071  0.2069  0.3021 -0.5448
  724SOL    HW1 2171   0.775   1.492   2.055  0.8161  1.6680  0.1287
  724SOL    HW2 2172   0.829   1.632   1.984 -2.4090 -1.9817 -1.5944
  725SOL     OW 2173   1.645   0.256   1.181 -0.1005  0.7371 -0.2850
  725SOL    HW1 2174   1.732   0.271   1.127 -1.5352 -1.9005 -0.8459
  725SOL    HW2 2175   1.629   0.156   1.190 -2.2591  0.9930  1.2772
  726SOL     OW 2176   1.812   2.477   0.157 -0.1100  0.1762  0.0149
  726SOL    HW1 2177   1.727   2.498   0.105 -4.0522 -0.3260  1.1963
  726SOL    HW2 2178   1.807   2.388   0.204  1.2630 -0.9977 -1.7738
  727SOL     OW 2179   1.711   1.598   1.417 -0.1138  0.2884  0.1758
  727SOL    HW1 2180   1.717   1.552   1.507 -1.8922 -1.9353 -0.8739
  727SOL    HW2 2181   1.787   1.568   1.361  0.9266 -1.5506  0.9680
  728SOL     OW 2182   2.279   2.557   1.264  0.3729  0.2067 -0.5634
  728SOL    HW1 2183   2.230   2.586   1.345  0.2055  0.1391  1.9035
  728SOL    HW2 2184   2.346   2.629   1.232  0.4220  1.9733 -2.6467
  729SOL     OW 2185   1.943   1.512   0.843 -0.4301 -0.4285  0.1530
  729SOL    HW1 2186   2.020   1.583   0.825  3.8858  0.7518 -0.4332
  729SOL    HW2 2187   1.871   1.505   0.770  0.9880  0.0536 -2.7452
  730SOL     OW 2188   0.964   0.701   2.691 -0.1734  0.2449  0.7605
  730SOL    HW1 2189   0.883   0.662   2.646 -0.0638 -0.0241  0.2548
  730SOL    HW2 2190   0.948   0.733   2.786 -0.5230 -0.0575  0.4796
  731SOL     OW 2191   0.479   2.987   1.106 -0.3795  0.1929  0.2104
  731SOL    HW1 2192   0.486   2.971   1.204 -2.3177  3.8983  2.5994
  731SOL    HW2 2193   0.439   0.000   1.088  1.3078  1.2448 -0.8526
  732SOL     OW 2194   1.445   0.847   0.448  0.4843  0.8135  0.1503
  732SOL    HW1 2195   1.382   0.852   0.367  0.1680 -1.3628 -0.4840
  732SOL    HW2 2196   1.458   0.749   0.468  0.8557  1.0482  0.8899
  733SOL     OW 2197   0.717   2.091   1.021  0.2634 -0.2759  0.1568
  733SOL    HW1 2198   0.714   2.102   0.919  3.6490 -1.3605  3.4972
  733SOL    HW2 2199   0.808   2.117   1.059 -2.6521 -1.7552  2.8173
  734SOL     OW 2200   0.256   2.536   0.337 -0.3599  0.5198 -0.1306
  734SOL    HW1 2201   0.252   2.619   0.276  2.3583 -0.6383 -1.2359
  734SOL    HW2 2202   0.161   2.524   0.373 -1.0574 -0.4876  1.5120
  735SOL     OW 2203   1.224   0.283   1.218  0.4389 -0.0464 -0.2559
  735SOL    HW1 2204   1.199   0.213   1.291  0.6524  1.2038  0.1313
  735SOL    HW2 2205   1.294   0.248   1.154  1.4237  0.0963  2.2250
  736SOL     OW 2206   1.964   2.183   0.032  0.7267 -0.5753 -0.6169
  736SOL    HW1 2207   1.916   2.198   0.123 -0.0887  1.1970 -1.1547
  736SOL    HW2 2208   1.952   2.272   3.062 -4.0494  1.2997 -0.3069
  737SOL     OW 2209   0.080   0.973   1.018  0.0650 -0.7653 -0.2518
  737SOL    HW1 2210   0.041   1.069   1.023  0.2802  3.1269  0.0952
  737SOL    HW2 2211   0.110   0.957   0.922 -2.5817 -0.4816 -0.8369
  738SOL     OW 2212   2.310   2.382   2.208 -0.0095 -0.5391  0.4629
  738SOL    HW1 2213   2.382   2.412   2.144 -2.1386  1.6980 -0.2323
  738SOL    HW2 2214   2.249   2.453   2.243  2.7106  0.2714 -0.6958
  739SOL     OW 2215   1.131   2.269   2.881  0.1968  0.2095 -0.8997
  739SOL    HW1 2216   1.182   2.178   2.876  2.3375  0.2019 -0.3913
  739SOL    HW2 2217   1.046   2.257   2.927  3.4564  0.1963 -1.7815
  740SOL     OW 2218   1.427   0.218   1.029  0.4798  0.3203 -0.5204
  740SOL    HW1 2219   1.500   0.260   1.085  0.9456 -2.5558 -0.7294
  740SOL    HW2 2220   1.383   0.285   0.969  0.1686 -1.5801  0.9265
  741SOL     OW 2221   3.067   0.800   0.618  0.6138  0.2761 -0.2797
  741SOL    HW1 2222   3.023   0.837   0.537 -0.1082 -0.1461 -0.7454
  741SOL    HW2 2223   3.037   0.703   0.638  0.5166 -1.2754  1.4392
  742SOL     OW 2224   0.921   1.418   2.681 -0.3791  0.0195 -0.1630
  742SOL    HW1 2225   0.979   1.456   2.754  0.4146  2.2508 -0.2221
  742SOL    HW2 2226   0.850   1.488   2.658  0.4978 -2.3586 -0.7664
  743SOL     OW 2227   0.963   0.764   2.008 -0.1315 -0.2850 -0.1667
  743SOL    HW1 2228   0.970   0.769   2.109  0.6714 -1.4038 -1.1065
  743SOL    HW2 2229   0.974   0.861   1.971  0.9273 -0.0962 -1.0943
  744SOL     OW 2230   1.816   0.334   1.384 -0.1822 -0.5868  0.0410
  744SOL    HW1 2231   1.734   0.320   1.324  1.7939 -0.4944 -0.0394
  744SOL    HW2 2232   1.875   0.417   1.370 -0.5762  0.0985 -2.1017
  745SOL     OW 2233   1.677   1.001   1.334  0.0804 -0.5152 -0.0577
  745SOL    HW1 2234   1.667   1.065   1.252 -3.2608 -2.3704 -2.0417
  745SOL    HW2 2235   1.760   1.022   1.394  0.3420  0.7037  1.2319
  746SOL     OW 2236   2.214   1.211   0.930 -0.3513 -0.1019 -0.1612
  746SOL    HW1 2237   2.220   1.262   0.841 -3.4187  0.0256  0.9575
  746SOL    HW2 2238   2.262   1.120   0.923 -1.8485  0.5063  1.5991
  747SOL     OW 2239   2.628   1.335   1.168 -0.1034  0.0353 -0.0459
  747SOL    HW1 2240   2.537   1.342   1.122  1.8269 -1.6656 -0.5216
  747SOL    HW2 2241   2.641   1.415   1.233 -2.1743  0.8507 -3.1628
  748SOL     OW 2242   0.598   1.956   0.476  0.5656 -0.4520  0.1273
  748SOL    HW1 2243   0.540   1.953   0.561 -0.1153  1.6579 -0.3840
  748SOL    HW2 2244   0.544   1.954   0.389  0.6539  0.5129 -3.3351
  749SOL     OW 2245   2.271   2.779   2.444 -0.1207 -0.2598  0.2479
  749SOL    HW1 2246   2.320   2.744   2.524 -1.8627  0.9172  0.2061
  749SOL    HW2 2247   2.329   2.845   2.389  6.4971  0.7693 -2.4926
  750SOL     OW 2248   2.457   0.471   0.785  1.2580  0.2263  0.0837
  750SOL    HW1 2249   2.481   0.502   0.692  0.8633  1.2954  1.4947
  750SOL    HW2 2250   2.367   0.512   0.814 -2.1595  1.4254  0.0957
  751SOL     OW 2251   2.410   2.839   0.459  0.2310 -0.0314  0.5937
  751SOL    HW1 2252   2.312   2.859   0.451  0.2921  0.9098  1.0062
  751SOL    HW2 2253   2.453   2.827   0.367 -1.3434  1.0475  3.5263
  752SOL     OW 2254   0.125   3.056   0.805  0.8120  0.6206  0.1576
  752SOL    HW1 2255   0.161   3.027   0.899 -1.2236 -0.2401  0.7061
  752SOL    HW2 2256   0.197   3.024   0.739  0.0281 -2.6745 -0.9673
  753SOL     OW 2257   1.642   0.914   1.981  0.1167  0.0008 -0.2804
  753SOL    HW1 2258   1.637   1.010   1.983  1.2462 -4.1421 -0.6315
  753SOL    HW2 2259   1.617   0.870   2.069  1.1042  1.1250 -0.3905
  754SOL     OW 2260   1.739   2.193   1.462 -0.2134 -0.4851 -0.0236
  754SOL    HW1 2261   1.819   2.236   1.404  1.2107  1.1343  2.6921
  754SOL    HW2 2262   1.717   2.103   1.428 -0.5444  1.0165  2.2976
  755SOL     OW 2263   2.529   1.092   0.948  0.2173  0.2105 -0.6553
  755SOL    HW1 2264   2.617   1.056   0.982  0.8824  1.6334 -2.2043
  755SOL    HW2 2265   2.545   1.188   0.923  0.9236 -1.5638  0.0689
  756SOL     OW 2266   1.018   1.507   2.918 -0.4263 -0.5329  0.1595
  756SOL    HW1 2267   1.103   1.450   2.936  0.2859  1.9124 -2.0078
  756SOL    HW2 2268   0.955   1.505   2.999 -1.7703 -1.6424  2.1252
  757SOL     OW 2269   1.414   2.622   0.772  0.8039  0.1695  0.5862
  757SOL    HW1 2270   1.474   2.671   0.837  0.6876 -0.2086 -1.7903
  757SOL    HW2 2271   1.392   2.526   0.812 -1.0694 -5.1978  2.7529
  758SOL     OW 2272   1.245   2.878   1.754  0.0492 -0.2029 -0.0965
  758SOL    HW1 2273   1.143   2.887   1.752 -0.0590 -1.4527 -2.7454
  758SOL    HW2 2274   1.281   2.799   1.698  1.2478 -0.3941  0.9439
  759SOL     OW 2275   0.155   0.519   0.966 -0.4135 -0.0302 -0.4461
  759SOL    HW1 2276   0.140   0.500   0.870  0.5772  1.7508  0.7850
  759SOL    HW2 2277   0.080   0.578   1.004  0.0847  1.2208  1.4265
  760SOL     OW 2278   2.474   0.997   1.196  0.6197 -0.3764 -0.5520
  760SOL    HW1 2279   2.480   1.075   1.133  1.9500 -3.2625  0.9178
  760SOL    HW2 2280   2.552   0.999   1.265 -3.2025 -1.0446 -1.2616
  761SOL     OW 2281   1.889   3.054   0.658 -0.4511 -0.3814  0.9010
  761SOL    HW1 2282   1.929   2.974   0.600  2.1083 -1.6745 -2.6731
  761SOL    HW2 2283   1.930   3.059   0.749  0.6042 -2.0031 -1.8117
  762SOL     OW 2284   2.032   1.661   2.814  0.2425  0.0809 -0.5670
  762SOL    HW1 2285   1.998   1.568   2.785 -1.2671 -1.2939 -0.2648
  762SOL    HW2 2286   2.123   1.657   2.861 -0.9594 -0.6543  2.8200
  763SOL     OW 2287   0.676   1.876   1.558  0.6009 -0.0934  0.2764
  763SOL    HW1 2288   0.658   1.941   1.636 -0.1256  2.5122 -0.7650
  763SOL    HW2 2289   0.632   1.785   1.574  1.6483 -0.9615  0.3509
  764SOL     OW 2290   3.003   2.222   2.855 -0.3192 -0.0025  0.5211
  764SOL    HW1 2291   2.989   2.230   2.953 -0.8119 -1.8080 -1.2146
  764SOL    HW2 2292   2.952   2.299   2.816  0.3263  0.7862  0.3675
  765SOL     OW 2293   0.338   2.674   1.192 -0.3664 -0.2948  0.1050
  765SOL    HW1 2294   0.433   2.661   1.226  0.6787  1.8454  1.6945
  765SOL    HW2 2295   0.325   2.677   1.093  0.6615 -0.6089  0.7143
  766SOL     OW 2296   3.024   2.184   2.186  0.7229 -0.0522  0.0862
  766SOL    HW1 2297   0.033   2.206   2.229 -1.7588  2.4399 -1.2639
  766SOL    HW2 2298   2.993   2.094   2.210 -2.5255  2.9088  1.0557
  767SOL     OW 2299   2.289   0.521   2.349 -0.3296 -0.4769  0.1890
  767SOL    HW1 2300   2.308   0.570   2.265  2.4227  1.6678  1.8348
  767SOL    HW2 2301   2.328   0.563   2.430 -1.3326 -0.8341  1.6588
  768SOL     OW 2302   1.443   0.198   2.779  0.0104 -0.0026  0.2043
  768SOL    HW1 2303   1.458   0.136   2.859 -0.7855  1.8681 -3.0564
  768SOL    HW2 2304   1.374   0.268   2.800  0.5142 -0.1528 -2.7616
  769SOL     OW 2305   3.012   2.574   0.998 -0.5662 -0.3647 -0.5665
  769SOL    HW1 2306   2.934   2.525   0.952 -0.2588 -2.2270 -0.9691
  769SOL    HW2 2307   2.981   2.652   1.051 -0.5656 -2.0982 -1.2156
  770SOL     OW 2308   0.594   0.206   2.651 -0.2564  0.1080 -0.0917
  770SOL    HW1 2309   0.647   0.140   2.711  1.8506 -1.2343  0.1164
  770SOL    HW2 2310   0.537   0.265   2.713  0.4286 -1.7892 -1.1472
  771SOL     OW 2311   1.426   1.726   2.057 -0.4551 -0.2111 -0.0892
  771SOL    HW1 2312   1.423   1.753   1.957  0.5178  2.6856  0.4600
  771SOL    HW2 2313   1.331   1.720   2.096 -1.6060 -2.4173  2.5660
  772SOL     OW 2314   1.634   2.570   2.582 -0.4481  0.1123  0.0484
  772SOL    HW1 2315   1.671   2.648   2.628 -2.5351 -0.0268 -4.7059
  772SOL    HW2 2316   1.665   2.574   2.484  0.4038 -0.5568 -1.8185
  773SOL     OW 2317   1.647   0.761   1.499 -0.2311 -0.0571 -0.5041
  773SOL    HW1 2318   1.577   0.780   1.566  1.0985 -0.3562 -2.4784
  773SOL    HW2 2319   1.621   0.805   1.409 -0.7405 -0.7141 -2.7225
  774SOL     OW 2320   0.917   0.563   1.052 -0.3582  0.1891 -0.1493
  774SOL    HW1 2321   0.920   0.481   1.112  1.6399  2.3824  2.0959
  774SOL    HW2 2322   0.842   0.625   1.084 -0.1218 -1.8297  0.6397
  775SOL     OW 2323   2.078   2.970   2.741  0.0300 -0.1715 -0.4642
  775SOL    HW1 2324   1.993   3.008   2.783  1.2664 -1.3627 -1.6371
  775SOL    HW2 2325   2.080   2.870   2.764  2.6721 -1.3776 -0.0237
  776SOL     OW 2326   2.179   0.732   1.450 -0.0091  0.3883  0.4543
  776SOL    HW1 2327   2.074   0.737   1.431 -2.8777 -1.1270 -1.4494
  776SOL    HW2 2328   2.220   0.824   1.434  2.6623 -0.1610  0.4188
  777SOL     OW 2329   3.005   1.337   2.136  0.9344 -0.2696 -0.5655
  777SOL    HW1 2330   0.008   1.290   2.165 -0.5985 -0.0139 -0.9814
  777SOL    HW2 2331   2.921   1.280   2.156 -5.2450  0.1015 -1.7621
  778SOL     OW 2332   2.954   0.776   2.670  0.2130 -0.0105 -0.4325
  778SOL    HW1 2333   3.042   0.748   2.623  2.8554 -0.2938  0.1213
  778SOL    HW2 2334   2.920   0.874   2.653  0.1852  2.5975  1.5955
  779SOL     OW 2335   0.160   0.555   3.031  0.3893  0.0423 -0.3495
  779SOL    HW1 2336   0.125   0.647   3.055  1.3819  0.2920 -1.0296
  779SOL    HW2 2337   0.181   0.539   2.931 -0.6632  1.0917 -2.4139
  780SOL     OW 2338   2.538   1.815   2.352 -0.3286  0.0457 -0.8850
  780SOL    HW1 2339   2.482   1.758   2.295  0.4229  1.4068  0.7378
  780SOL    HW2 2340   2.488   1.879   2.412 -0.2660 -0.0739  2.1330
  781SOL     OW 2341   2.689   1.077   1.899 -0.1702  0.4945 -0.3847
  781SOL    HW1 2342   2.723   1.161   1.853 -1.3250 -0.3257  0.4981
  781SOL    HW2 2343   2.724   0.987   1.872 -3.1334  1.3337 -0.1621
  782SOL     OW 2344   0.971   2.003   2.761 -0.2938 -0.3047  0.0173
  782SOL    HW1 2345   0.966   1.906   2.730 -0.1569  2.4238 -0.3065
  782SOL    HW2 2346   1.062   2.025   2.795 -0.3285  2.3965  0.8227
  783SOL     OW 2347   1.196   2.471   1.208  0.2400 -0.0322  0.3772
  783SOL    HW1 2348   1.253   2.399   1.164  1.0579 -1.7585  3.4578
  783SOL    HW2 2349   1.125   2.518   1.149 -3.0068  1.5283 -0.8226
  784SOL     OW 2350   2.036   0.456   2.448 -0.2601  0.0476 -0.1597
  784SOL    HW1 2351   2.052   0.437   2.551 -0.0833 -0.1079  1.0645
  784SOL    HW2 2352   2.124   0.487   2.413 -0.8352 -0.6710  1.6677
  785SOL     OW 2353   0.069   0.056   1.816 -0.4017 -0.1004  0.2672
  785SOL    HW1 2354   3.060   0.026   1.855  0.1223  0.2944  1.6201
  785SOL    HW2 2355   0.122   3.055   1.784 -1.0357 -0.9141  1.3491
  786SOL     OW 2356   1.052   2.202   0.452 -0.6341  0.3732  0.2951
  786SOL    HW1 2357   1.063   2.253   0.365  0.5566 -0.3800  3.2195
  786SOL    HW2 2358   0.955   2.175   0.460 -0.8932 -1.1573 -2.5626
  787SOL     OW 2359   1.199   0.108   0.852 -0.1104 -0.2251  0.5696
  787SOL    HW1 2360   1.179   0.037   0.779 -1.0916  2.5550  0.0489
  787SOL    HW2 2361   1.134   0.086   0.931 -0.6053 -2.1437  0.4831
  788SOL     OW 2362   0.012   1.391   0.878  0.0834  0.2888  0.4325
  788SOL    HW1 2363   3.070   1.484   0.922 -0.0244  0.3043  1.7274
  788SOL    HW2 2364   0.102   1.397   0.824  3.2394 -1.6130 -0.7125
  789SOL     OW 2365   2.337   0.753   2.150 -0.3461  0.2403 -0.2729
  789SOL    HW1 2366   2.366   0.665   2.101  1.2444 -0.2428  1.0586
  789SOL    HW2 2367   2.412   0.785   2.209 -1.2517 -0.8133 -2.8746
  790SOL     OW 2368   1.025   0.339   2.949  0.1540  0.2632  0.0942
  790SOL    HW1 2369   0.955   0.402   2.986 -2.5629  1.2167 -2.3617
  790SOL    HW2 2370   0.990   0.271   2.880  0.0143  0.9808  0.4240
  791SOL     OW 2371   0.108   2.941   3.047  0.1469  0.4002  0.4641
  791SOL    HW1 2372   0.107   3.041   3.029 -1.3010  0.4350  0.5650
  791SOL    HW2 2373   0.199   2.897   3.025  1.2217  1.6797  0.5605
  792SOL     OW 2374   1.377   0.658   2.037 -0.5869 -0.0191 -0.0052
  792SOL    HW1 2375   1.430   0.595   2.096  2.9822 -1.5320  1.4295
  792SOL    HW2 2376   1.431   0.671   1.954 -1.9444  0.3162 -0.1873
  793SOL     OW 2377   0.135   0.284   1.120  0.1623 -0.3124 -0.0044
  793SOL    HW1 2378   0.174   0.351   1.057  0.4044  1.8194 -1.5453
  793SOL    HW2 2379   0.136   0.318   1.215  1.0136 -0.5132 -1.6710
  794SOL     OW 2380   0.248   0.125   2.035 -0.0531  0.1692  0.6158
  794SOL    HW1 2381   0.342   0.138   1.999 -3.1852 -1.3851  3.2111
  794SOL    HW2 2382   0.182   0.084   1.962  1.4336 -1.0535 -0.8929
  795SOL     OW 2383   0.653   1.449   0.418  0.1252 -0.3843  0.2012
  795SOL    HW1 2384   0.590   1.414   0.343  1.2790 -0.9512  2.5491
  795SOL    HW2 2385   0.673   1.545   0.392  0.6028 -3.0198  2.3949
  796SOL     OW 2386   3.034   0.871   2.907 -0.0743 -0.1627  0.1714
  796SOL    HW1 2387   3.003   0.827   2.822 -1.9224  1.0337 -3.1173
  796SOL    HW2 2388   2.958   0.936   2.937  4.6220  1.0973 -2.2369
  797SOL     OW 2389   1.879   0.059   2.353  0.1289  0.1021  0.0484
  797SOL    HW1 2390   1.785   0.042   2.315 -3.1222  0.0480 -1.0478
  797SOL    HW2 2391   1.912   0.138   2.299 -0.4967  1.2369 -0.3589
  798SOL     OW 2392   0.127   3.080   1.239 -0.3770 -0.0962  1.0087
  798SOL    HW1 2393   0.126   3.063   1.141 -0.2206 -1.3147  0.9178
  798SOL    HW2 2394   0.123   0.098   1.262  0.1175  1.0375 -0.8838
  799SOL     OW 2395   2.834   0.916   1.743  0.5688  0.1451  0.2417
  799SOL    HW1 2396   2.859   0.887   1.651 -0.4637  0.6940  0.6245
  799SOL    HW2 2397   2.885   0.858   1.812  0.6992  0.1007 -0.1147
  800SOL     OW 2398   2.966   1.668   0.158 -0.4021  0.4471 -0.3169
  800SOL    HW1 2399   2.874   1.637   0.178  0.6632  0.5386 -1.7822
  800SOL    HW2 2400   2.985   1.665   0.058  0.8127  0.3552  1.4794
  801SOL     OW 2401   1.950   1.720   0.519 -0.5297 -0.2893  0.8133
  801SOL    HW1 2402   1.958   1.625   0.488 -0.1238 -0.1283  0.7150
  801SOL    HW2 2403   1.855   1.742   0.550 -1.8873  0.9208  1.0217
  802SOL     OW 2404   1.384   1.039   2.710 -0.3515 -0.1352  0.1067
  802SOL    HW1 2405   1.372   1.092   2.623 -3.1848 -0.6603 -1.3386
  802SOL    HW2 2406   1.447   0.956   2.702 -1.5417 -3.2054  0.1988
  803SOL     OW 2407   0.905   2.141   1.964 -0.1219  0.4069 -0.0802
  803SOL    HW1 2408   0.847   2.223   1.961  1.1341 -1.6414  1.9317
  803SOL    HW2 2409   0.991   2.143   1.913 -0.7270  1.4172  2.2422
  804SOL     OW 2410   1.362   2.203   0.836  0.0545  0.3218 -0.3551
  804SOL    HW1 2411   1.452   2.152   0.820  1.3751  0.4732  1.5021
  804SOL    HW2 2412   1.340   2.258   0.750  0.5563 -1.3461 -1.3001
  805SOL     OW 2413   2.593   2.326   2.746 -0.0130 -0.2042 -0.0662
  805SOL    HW1 2414   2.690   2.333   2.779  0.7493  0.4663  1.7141
  805SOL    HW2 2415   2.582   2.366   2.649  0.2689  0.1886 -1.3302
  806SOL     OW 2416   3.036   0.064   0.369  0.2987 -0.4272 -0.1557
  806SOL    HW1 2417   2.975   0.118   0.432 -2.9450  3.3747 -0.5311
  806SOL    HW2 2418   3.065   3.055   0.413  4.2476 -0.7059 -0.2113
  807SOL     OW 2419   2.508   0.684   2.912  0.1637 -0.1482 -0.6402
  807SOL    HW1 2420   2.589   0.659   2.854 -1.4738  0.2549  3.0915
  807SOL    HW2 2421   2.451   0.602   2.942 -0.3188 -0.7266  0.1949
  808SOL     OW 2422   0.879   2.395   0.898 -0.0737 -0.3005  0.6150
  808SOL    HW1 2423   0.916   2.470   0.954  1.3639 -1.3576 -0.2196
  808SOL    HW2 2424   0.785   2.424   0.860 -0.8823  1.4574 -2.5146
  809SOL     OW 2425   2.784   0.168   2.634 -0.0004  0.3897  0.1732
  809SOL    HW1 2426   2.749   0.078   2.664  1.4226 -0.5906 -1.3731
  809SOL    HW2 2427   2.722   0.219   2.574  1.6820 -1.8791 -0.2334
  810SOL     OW 2428   1.440   1.338   0.694 -0.0318 -0.9020  0.6965
  810SOL    HW1 2429   1.365   1.272   0.712 -0.0610  1.1913  1.7141
  810SOL    HW2 2430   1.528   1.286   0.695  0.1719 -0.2883 -0.2175
  811SOL     OW 2431   2.040   2.845   1.667  0.5096 -0.2441 -0.4149
  811SOL    HW1 2432   1.970   2.822   1.595  1.5075 -3.3149 -0.1513
  811SOL    HW2 2433   1.996   2.866   1.754 -0.4274  0.4037 -0.6622
  812SOL     OW 2434   1.642   2.613   0.446  0.9596  0.3069  1.0873
  812SOL    HW1 2435   1.705   2.605   0.522 -4.2014 -1.2380 -3.7950
  812SOL    HW2 2436   1.563   2.675   0.474  1.8492 -0.6844  0.0274
  813SOL     OW 2437   1.137   0.624   1.855  0.2799  0.5346 -0.5327
  813SOL    HW1 2438   1.209   0.618   1.923 -1.4374 -0.9714  0.2267
  813SOL    HW2 2439   1.054   0.664   1.907 -0.2998  4.5303  3.4707
  814SOL     OW 2440   0.503   3.055   1.369  0.4424  0.4710  0.1367
  814SOL    HW1 2441   0.455   0.065   1.370  1.4449 -2.1654 -2.4244
  814SOL    HW2 2442   0.589   3.067   1.422 -1.8674 -0.7385  1.7284
  815SOL     OW 2443   0.314   2.947   0.615  0.2140 -0.2653  0.1057
  815SOL    HW1 2444   0.392   2.981   0.556  0.1833 -2.0702 -1.2778
  815SOL    HW2 2445   0.300   2.848   0.607 -1.1153  1.7295 -2.2409
  816SOL     OW 2446   2.664   1.337   2.522 -0.0871 -0.0658  0.7229
  816SOL    HW1 2447   2.586   1.340   2.587 -0.1386  0.9716 -2.7495
  816SOL    HW2 2448   2.690   1.437   2.509  2.9819  2.3463  0.1987
  817SOL     OW 2449   1.170   0.149   3.071 -0.4924 -0.2675 -0.2015
  817SOL    HW1 2450   1.183   0.202   0.078  1.6503  1.2718  0.5535
  817SOL    HW2 2451   1.109   0.210   3.014 -1.1217 -1.0136  1.3942
  818SOL     OW 2452   1.564   0.547   0.014 -0.1543  0.1114  0.5146
  818SOL    HW1 2453   1.626   0.594   0.083  2.5320  1.1315  2.1511
  818SOL    HW2 2454   1.559   0.447   0.033  0.4350  1.1761  2.7129
  819SOL     OW 2455   1.716   2.599   2.948  0.2577 -0.4894 -0.3012
  819SOL    HW1 2456   1.757   2.657   2.875 -0.7439 -0.8197 -0.9033
  819SOL    HW2 2457   1.726   2.652   3.035 -0.6257 -0.0829 -1.3536
  820SOL     OW 2458   1.548   0.984   0.085  0.0887  0.6614  0.1349
  820SOL    HW1 2459   1.518   0.924   0.006 -0.8598  3.8666 -3.4614
  820SOL    HW2 2460   1.634   0.941   0.127  2.0433 -0.6234 -2.6264
  821SOL     OW 2461   0.391   0.541   1.526  0.0629 -0.6476 -0.9538
  821SOL    HW1 2462   0.333   0.621   1.506 -0.0720 -1.6287 -1.9888
  821SOL    HW2 2463   0.368   0.504   1.617  1.3448  0.9335 -2.0844
  822SOL     OW 2464   0.945   2.472   2.174 -0.7057  0.0344 -0.0339
  822SOL    HW1 2465   1.020   2.429   2.124 -1.6052 -1.6799  0.8881
  822SOL    HW2 2466   0.938   2.572   2.155  0.2301  1.5535  0.2685
  823SOL     OW 2467   0.387   1.394   1.981 -0.3079  0.5193  0.7297
  823SOL    HW1 2468   0.302   1.441   2.018  1.4782  0.3635  1.2626
  823SOL    HW2 2469   0.463   1.409   2.048 -1.5615 -0.4556 -2.4463
  824SOL     OW 2470   1.712   2.769   2.080  0.5667 -0.4536 -0.2315
  824SOL    HW1 2471   1.659   2.692   2.043  0.9410 -2.0356  0.3699
  824SOL    HW2 2472   1.667   2.861   2.068  0.4730 -1.3289  0.4106
  825SOL     OW 2473   0.808   1.294   0.099  0.2183 -0.0970  0.1628
  825SOL    HW1 2474   0.825   1.396   0.101  0.3532  2.4058 -0.3900
  825SOL    HW2 2475   0.776   1.254   0.013  3.3149  1.1575 -0.8770
  826SOL     OW 2476   2.218   0.625   2.761 -0.1437 -0.0920 -0.3810
  826SOL    HW1 2477   2.151   0.559   2.719  0.9980  0.5791 -1.4806
  826SOL    HW2 2478   2.174   0.719   2.766 -0.6362  0.4540  0.3864
  827SOL     OW 2479   0.443   2.050   2.817  0.5214  0.0530  0.0950
  827SOL    HW1 2480   0.493   2.111   2.754 -0.8477  0.3843  0.4111
  827SOL    HW2 2481   0.368   2.009   2.763  0.9254  0.9285  2.0573
  828SOL     OW 2482   0.050   0.238   1.400 -0.9671  0.4505 -0.5835
  828SOL    HW1 2483   0.107   0.264   1.485 -0.6621  1.2092  0.5466
  828SOL    HW2 2484   3.031   0.248   1.416  2.3676 -0.4040 -0.0169
  829SOL     OW 2485   1.030   1.389   1.179  0.1369 -0.0870  1.2239
  829SOL    HW1 2486   1.119   1.399   1.222 -0.8243  1.0883 -2.5155
  829SOL    HW2 2487   1.036   1.421   1.083 -0.2487  1.8702 -0.0911
  830SOL     OW 2488   0.507   1.385   1.358  0.3961  0.0301 -0.2519
  830SOL    HW1 2489   0.588   1.444   1.337 -0.4955 -0.5606 -2.2134
  830SOL    HW2 2490   0.456   1.369   1.270 -2.7999 -0.6254  2.2291
  831SOL     OW 2491   0.578   1.792   0.099 -0.1826 -0.0171  0.3097
  831SOL    HW1 2492   0.663   1.830   0.058  0.2626 -2.5086  0.4766
  831SOL    HW2 2493   0.498   1.803   0.041  2.4644 -0.8147 -0.3304
  832SOL     OW 2494   0.907   2.952   2.976  0.0778  0.2937 -0.2613
  832SOL    HW1 2495   0.975   2.985   3.044  1.4114  3.9941  0.2120
  832SOL    HW2 2496   0.856   2.878   3.026  0.1024  0.5025  0.0179
  833SOL     OW 2497   0.052   0.658   1.756  0.4697 -0.2929  0.4348
  833SOL    HW1 2498   0.005   0.588   1.705 -0.7616  4.6174 -0.5322
  833SOL    HW2 2499   3.074   0.706   1.826  0.4235 -0.1634 -2.6229
  834SOL     OW 2500   0.369   0.625   1.125  0.2670 -0.3237  0.0850
  834SOL    HW1 2501   0.300   0.599   1.056  0.2477  2.8449  0.3832
  834SOL    HW2 2502   0.407   0.715   1.106  0.8358 -0.5966 -0.6154
  835SOL     OW 2503   2.822   3.075   1.171 -0.2893 -0.3213 -0.7885
  835SOL    HW1 2504   2.859   0.067   1.111  2.9289 -0.0915  0.7763
  835SOL    HW2 2505   2.733   3.056   1.139  3.7075  2.2665  0.3960
  836SOL     OW 2506   0.370   1.874   3.021 -0.1747  0.2418 -0.4200
  836SOL    HW1 2507   0.282   1.889   3.064  2.8176 -1.2437  1.0805
  836SOL    HW2 2508   0.395   1.951   2.954  1.5740  0.3849 -1.3082
  837SOL     OW 2509   1.801   1.807   2.756  0.5302  0.0656 -0.6095
  837SOL    HW1 2510   1.732   1.750   2.711 -3.0932 -0.5646 -1.8330
  837SOL    HW2 2511   1.885   1.754   2.783  0.7701 -1.0757  0.0660
  838SOL     OW 2512   2.432   1.163   1.961 -0.6933 -0.2778 -0.5059
  838SOL    HW1 2513   2.352   1.100   1.955  1.0667 -1.3307 -0.0823
  838SOL    HW2 2514   2.516   1.108   1.947 -0.7165  1.1360 -1.4808
  839SOL     OW 2515   1.253   0.895   0.659 -0.1516  0.8235  0.2769
  839SOL    HW1 2516   1.164   0.860   0.630 -3.7249 -0.2785  0.2595
  839SOL    HW2 2517   1.318   0.865   0.588  0.6939 -1.2502 -1.9516
  840SOL     OW 2518   1.443   0.505   0.931 -0.0727 -0.6328 -0.3156
  840SOL    HW1 2519   1.342   0.508   0.912 -0.4904 -1.9414  1.2581
  840SOL    HW2 2520   1.465   0.567   1.011  2.4821 -1.8617  2.8118
  841SOL     OW 2521   0.610   2.707   0.663 -0.2286  0.7368 -0.4391
  841SOL    HW1 2522   0.618   2.741   0.760 -0.6491  1.7772  0.7805
  841SOL    HW2 2523   0.513   2.719   0.634 -0.9541 -0.8156 -0.5011
  842SOL     OW 2524   0.687   0.543   0.549  0.1889 -0.1276 -0.3997
  842SOL    HW1 2525   0.760   0.539   0.619  1.7655 -3.5443 -0.3061
  842SOL    HW2 2526   0.637   0.454   0.542 -0.6367  2.3873 -0.0814
  843SOL     OW 2527   0.580   0.979   1.989  0.3817  0.0460 -0.2387
  843SOL    HW1 2528   0.620   1.064   1.951  2.3090 -0.2718  1.0615
  843SOL    HW2 2529   0.478   0.970   1.978 -0.5466 -0.1351 -0.0603
  844SOL     OW 2530   1.368   2.346   2.984  0.7003 -0.2762 -0.0215
  844SOL    HW1 2531   1.406   2.437   2.954 -0.8899 -0.8378  0.1735
  844SOL    HW2 2532   1.276   2.327   2.945 -0.5737  0.7181  1.2803
  845SOL     OW 2533   2.658   2.539   2.275  0.3570 -0.3217  0.6512
  845SOL    HW1 2534   2.754   2.512   2.280  0.0708 -1.1415  2.2770
  845SOL    HW2 2535   2.611   2.489   2.199 -0.0176 -1.6661 -0.7794
  846SOL     OW 2536   1.765   1.872   2.508  1.4935 -0.3815 -0.5560
  846SOL    HW1 2537   1.763   1.877   2.611 -3.3383  1.3050 -1.5576
  846SOL    HW2 2538   1.778   1.773   2.488 -0.4585  1.9268 -0.5226
  847SOL     OW 2539   1.950   2.887   2.441 -0.3172 -0.2333 -0.1198
  847SOL    HW1 2540   1.994   2.821   2.381  2.2846  0.1201 -0.5431
  847SOL    HW2 2541   1.968   2.984   2.419 -0.6705  0.9692  1.6654
  848SOL     OW 2542   0.539   0.335   0.490 -0.0261 -0.4192  0.1750
  848SOL    HW1 2543   0.444   0.365   0.470 -0.6485  1.3846 -0.6443
  848SOL    HW2 2544   0.568   0.254   0.432  0.4699 -0.2202  0.2183
  849SOL     OW 2545   0.775   2.838   1.323 -0.4008 -0.1071 -0.0314
  849SOL    HW1 2546   0.706   2.777   1.281 -1.0519 -2.4970  2.2249
  849SOL    HW2 2547   0.726   2.915   1.375 -0.8421 -1.5654  1.1008
  850SOL     OW 2548   0.115   1.713   0.320  0.0548 -0.0181 -0.1760
  850SOL    HW1 2549   0.038   1.696   0.253 -0.2518 -2.5513 -1.0164
  850SOL    HW2 2550   0.094   1.801   0.368 -2.9936 -0.4102  0.4046
  851SOL     OW 2551   0.268   0.650   0.190 -0.1063  0.3903  0.0035
  851SOL    HW1 2552   0.246   0.726   0.123  2.6374  1.6465 -2.2347
  851SOL    HW2 2553   0.286   0.564   0.136  0.9038 -1.6201 -1.0559
  852SOL     OW 2554   1.398   2.117   1.775 -0.5641 -0.1732  0.2096
  852SOL    HW1 2555   1.495   2.107   1.790  2.2314 -0.6849 -0.1652
  852SOL    HW2 2556   1.370   2.116   1.679 -0.5655  0.3530  0.2398
  853SOL     OW 2557   0.282   1.538   0.154  0.6217 -0.2394 -0.0865
  853SOL    HW1 2558   0.236   1.519   0.065  2.6594 -1.1610 -0.2223
  853SOL    HW2 2559   0.232   1.610   0.213 -0.9852  1.9024 -1.2415
  854SOL     OW 2560   1.864   1.107   1.506  0.3643 -0.0106 -0.4538
  854SOL    HW1 2561   1.901   1.183   1.448 -0.0773 -3.1196  2.0779
  854SOL    HW2 2562   1.939   1.068   1.560  2.4729 -1.0713  0.8742
  855SOL     OW 2563   0.554   2.301   0.168 -0.3432 -0.1414 -0.1449
  855SOL    HW1 2564   0.469   2.353   0.158  1.1817 -1.1350 -0.6298
  855SOL    HW2 2565   0.627   2.354   0.215  3.4313 -0.6141 -2.3457
  856SOL     OW 2566   2.938   3.069   1.970 -0.3583 -0.0403 -0.1221
  856SOL    HW1 2567   2.911   0.084   1.998  1.7129  1.5312  2.5114
  856SOL    HW2 2568   2.964   3.008   2.049  0.2852  0.8468 -3.2785
  857SOL     OW 2569   0.411   0.511   2.013 -0.4422 -0.2791  0.4935
  857SOL    HW1 2570   0.351   0.449   1.959  1.2890  0.4096 -0.0820
  857SOL    HW2 2571   0.429   0.594   1.956  1.3365 -0.2159  0.5538
  858SOL     OW 2572   2.926   1.562   2.305 -0.1655 -0.0354  0.3489
  858SOL    HW1 2573   2.955   1.479   2.255  2.2123  2.7221  0.1663
  858SOL    HW2 2574   2.924   1.637   2.238 -1.4172 -1.4210  1.7825
  859SOL     OW 2575   1.998   2.827   0.529  0.5748 -0.1305 -0.3978
  859SOL    HW1 2576   1.956   2.777   0.443 -3.4471  0.1796 -0.7068
  859SOL    HW2 2577   2.018   2.759   0.606  2.9990  0.8991  0.5606
  860SOL     OW 2578   1.803   0.314   0.179 -0.2754  0.1935 -0.1549
  860SOL    HW1 2579   1.823   0.268   0.090  1.7109 -1.3276 -0.5778
  860SOL    HW2 2580   1.728   0.273   0.230 -1.0658  1.0771 -0.8240
  861SOL     OW 2581   0.700   0.686   0.875  0.1069 -0.1206 -0.2577
  861SOL    HW1 2582   0.607   0.735   0.869  0.9541  2.3882 -3.6522
  861SOL    HW2 2583   0.692   0.590   0.901 -0.9888 -1.2682  2.0460
  862SOL     OW 2584   1.788   0.649   1.782  0.2865 -0.0017  0.7262
  862SOL    HW1 2585   1.687   0.674   1.767  0.9095  1.2072 -1.3045
  862SOL    HW2 2586   1.806   0.565   1.730 -4.5701 -0.4036  0.8874
  863SOL     OW 2587   0.344   1.773   0.997  0.0809 -0.0901  0.1773
  863SOL    HW1 2588   0.349   1.875   0.974 -0.6233 -0.3969  0.4054
  863SOL    HW2 2589   0.413   1.752   1.071 -0.1331 -1.0717  1.3419
  864SOL     OW 2590   2.491   3.013   1.843 -0.0400  0.3295 -0.4467
  864SOL    HW1 2591   2.581   2.993   1.798 -0.8390 -1.5992  0.5074
  864SOL    HW2 2592   2.423   2.931   1.839  0.4490 -2.6383  0.6967
  865SOL     OW 2593   1.363   0.510   1.278 -0.0530  0.3778  0.2829
  865SOL    HW1 2594   1.326   0.550   1.362 -2.3989  0.6322  0.0233
  865SOL    HW2 2595   1.321   0.419   1.261  0.2673  0.4086 -0.9792
  866SOL     OW 2596   2.478   2.488   0.519  0.0671  0.1522 -0.4172
  866SOL    HW1 2597   2.486   2.491   0.416  0.3678  2.9915  1.0135
  866SOL    HW2 2598   2.542   2.553   0.566  2.9928  2.2236  0.4406
  867SOL     OW 2599   2.686   2.622   0.635 -0.3491 -0.2058 -0.3052
  867SOL    HW1 2600   2.737   2.556   0.700  2.9606 -2.1204 -0.7690
  867SOL    HW2 2601   2.751   2.685   0.582 -0.4150  1.5100 -2.1165
  868SOL     OW 2602   1.259   1.852   2.385  0.6552 -0.1152  0.4233
  868SOL    HW1 2603   1.242   1.855   2.284  0.7459  0.9341  0.7244
  868SOL    HW2 2604   1.230   1.942   2.423  0.9698  0.2614 -3.5936
  869SOL     OW 2605   2.123   1.513   0.312  0.4674  0.3139 -0.0099
  869SOL    HW1 2606   2.068   1.473   0.392 -1.2626  4.2274  1.4876
  869SOL    HW2 2607   2.218   1.533   0.337  2.0945  0.6950  1.5327
  870SOL     OW 2608   2.359   1.959   0.441 -0.5329 -0.3108 -0.0350
  870SOL    HW1 2609   2.373   2.056   0.464  0.7424 -0.4075 -0.4453
  870SOL    HW2 2610   2.263   1.941   0.407 -0.0135 -1.2915 -0.4591
  871SOL     OW 2611   2.994   0.822   1.513 -0.1893  0.2478  0.0891
  871SOL    HW1 2612   3.027   0.916   1.507 -1.2427 -0.0882  0.6506
  871SOL    HW2 2613   3.046   0.757   1.575  1.4821  0.0387  0.5368
  872SOL     OW 2614   0.544   1.768   2.594 -0.1725  0.0128 -0.3245
  872SOL    HW1 2615   0.529   1.858   2.547 -2.7454 -0.4890 -1.7908
  872SOL    HW2 2616   0.466   1.748   2.654  0.2869 -1.6899 -1.5145
  873SOL     OW 2617   0.453   2.662   2.069 -0.2209  0.0118  0.3850
  873SOL    HW1 2618   0.385   2.734   2.041 -0.5714  1.7541  0.3719
  873SOL    HW2 2619   0.533   2.686   2.013  2.3618  0.8975 -1.7329
  874SOL     OW 2620   1.179   1.087   2.110 -0.3975 -0.1627 -0.1556
  874SOL    HW1 2621   1.140   1.149   2.178  1.5560 -0.8393  0.4564
  874SOL    HW2 2622   1.228   1.008   2.156  0.0606 -2.2112  1.4189
  875SOL     OW 2623   2.953   2.782   1.186 -0.3448  0.1571 -0.2385
  875SOL    HW1 2624   3.044   2.804   1.229  0.1278 -0.4116  0.5586
  875SOL    HW2 2625   2.897   2.865   1.165 -1.8057  0.0289 -1.4730
  876SOL     OW 2626   1.016   1.338   0.799  0.3200  0.2081  0.3200
  876SOL    HW1 2627   1.017   1.431   0.844 -1.4312 -1.8488  3.0009
  876SOL    HW2 2628   0.973   1.341   0.703  0.9110  0.6978  0.5131
  877SOL     OW 2629   0.428   0.225   1.372 -0.3617 -0.1005 -0.6374
  877SOL    HW1 2630   0.337   0.249   1.329 -4.3280  0.9065  0.4370
  877SOL    HW2 2631   0.504   0.221   1.299 -1.4484 -0.3438  0.3188
  878SOL     OW 2632   2.611   1.679   2.880 -0.4700  0.2170 -0.4153
  878SOL    HW1 2633   2.686   1.608   2.891  0.6620  0.6213  1.0829
  878SOL    HW2 2634   2.577   1.694   2.788 -0.9325 -0.4209 -0.6011
  879SOL     OW 2635   2.510   2.019   1.252 -0.9708 -0.2682 -0.3047
  879SOL    HW1 2636   2.468   2.094   1.306 -0.8146  2.4159  1.0053
  879SOL    HW2 2637   2.569   2.048   1.175  1.3731  1.0245 -0.1044
  880SOL     OW 2638   0.931   2.160   1.180 -0.2669 -0.2503  0.0240
  880SOL    HW1 2639   0.955   2.163   1.279  0.9873  0.5839 -1.2572
  880SOL    HW2 2640   1.011   2.151   1.118 -3.9459  1.8305 -3.0542
  881SOL     OW 2641   1.377   1.960   1.173  0.5924  0.5184 -0.1608
  881SOL    HW1 2642   1.386   1.963   1.276 -0.0419  1.9494  3.3549
  881SOL    HW2 2643   1.361   1.861   1.139 -1.5998 -1.5985  0.6632
  882SOL     OW 2644   2.126   1.308   2.356 -0.1765 -0.0485  0.5213
  882SOL    HW1 2645   2.199   1.265   2.297  0.0021 -1.6807 -2.0030
  882SOL    HW2 2646   2.142   1.407   2.374 -0.8162  0.4825  2.2484
  883SOL     OW 2647   1.212   0.380   0.706 -0.8920  0.2504  0.6397
  883SOL    HW1 2648   1.162   0.374   0.619 -1.1490  1.2574  1.6748
  883SOL    HW2 2649   1.216   0.288   0.750 -0.8688  0.0936 -1.4099
  884SOL     OW 2650   0.211   2.901   1.011  0.1766 -0.3547  0.3757
  884SOL    HW1 2651   0.304   2.913   1.049 -1.0095  3.2721  0.7098
  884SOL    HW2 2652   0.174   2.804   1.002 -4.3456 -1.2407  2.4602
  885SOL     OW 2653   0.984   1.008   1.924  0.2067 -0.1871 -0.4808
  885SOL    HW1 2654   1.010   1.002   1.825 -3.5272  0.5025 -1.5473
  885SOL    HW2 2655   1.054   1.055   1.985 -3.5736 -0.0090  2.6063
  886SOL     OW 2656   1.166   0.985   2.881 -0.0514 -0.2436  0.6653
  886SOL    HW1 2657   1.090   1.049   2.865 -0.7268  0.4957  1.7156
  886SOL    HW2 2658   1.227   0.972   2.796  0.8577  2.1682  0.1735
  887SOL     OW 2659   1.652   0.337   0.845 -0.2241  0.3248  0.2176
  887SOL    HW1 2660   1.577   0.399   0.877 -1.6083 -5.7072 -1.1522
  887SOL    HW2 2661   1.740   0.391   0.847 -3.0277 -0.7146  0.6364
  888SOL     OW 2662   2.484   1.378   1.551  0.1388 -0.5551 -0.4541
  888SOL    HW1 2663   2.529   1.432   1.476 -1.9407  0.0174  0.4473
  888SOL    HW2 2664   2.516   1.409   1.644  3.2650  0.9840  0.3470
  889SOL     OW 2665   0.112   2.098   1.142 -0.2897  0.6020 -0.2023
  889SOL    HW1 2666   0.067   2.188   1.137  2.2473 -3.1087  0.6427
  889SOL    HW2 2667   0.066   2.020   1.093 -0.1631  0.1676 -0.3336
  890SOL     OW 2668   1.200   2.306   0.659 -0.4093  0.7406 -0.1966
  890SOL    HW1 2669   1.135   2.300   0.578 -0.1648 -0.8708  1.4672
  890SOL    HW2 2670   1.155   2.245   0.728 -1.1990 -0.4598 -3.6049
  891SOL     OW 2671   2.665   0.547   2.353  0.4999 -0.2836  0.7942
  891SOL    HW1 2672   2.762   0.538   2.332 -0.2123 -1.1311 -1.6159
  891SOL    HW2 2673   2.634   0.475   2.416 -0.8718  1.3703 -1.8358
  892SOL     OW 2674   0.072   2.462   1.553 -0.6571  0.4014 -0.3246
  892SOL    HW1 2675   0.129   2.459   1.470  0.0284  0.1576  0.9402
  892SOL    HW2 2676   0.097   2.386   1.620 -1.7598  0.3907  1.1907
  893SOL     OW 2677   1.063   0.416   1.678 -0.1846 -0.1377  0.5280
  893SOL    HW1 2678   1.140   0.353   1.662 -2.8665  1.3743  1.4348
  893SOL    HW2 2679   1.077   0.481   1.754 -0.4671 -0.1098 -0.6267
  894SOL     OW 2680   2.808   0.137   0.819 -0.1331 -0.3812 -0.3677
  894SOL    HW1 2681   2.859   0.167   0.902  1.2308 -0.7530  2.0108
  894SOL    HW2 2682   2.713   0.175   0.826  1.4197  2.0053  1.0811
  895SOL     OW 2683   1.989   1.688   2.164 -0.0163  0.2151 -0.4482
  895SOL    HW1 2684   1.927   1.620   2.211  1.6538  1.1546 -0.1500
  895SOL    HW2 2685   2.038   1.651   2.088 -1.9317  0.2052  1.9619
  896SOL     OW 2686   1.677   0.499   1.571 -0.1660 -0.3073  0.4736
  896SOL    HW1 2687   1.760   0.460   1.525  1.9248  2.5938  1.8266
  896SOL    HW2 2688   1.662   0.593   1.538 -3.1123  3.4682  3.0372
  897SOL     OW 2689   0.622   1.612   1.662 -0.0270 -0.1475  0.2923
  897SOL    HW1 2690   0.657   1.667   1.745  0.7678  1.6988 -0.0228
  897SOL    HW2 2691   0.696   1.572   1.610 -2.2155 -0.6134  2.1928
  898SOL     OW 2692   1.725   1.974   2.117  0.3938 -0.4263 -0.2194
  898SOL    HW1 2693   1.662   1.949   2.196 -1.7486  0.9844  0.6444
  898SOL    HW2 2694   1.816   1.956   2.147 -5.2299 -2.3950 -0.7808
  899SOL     OW 2695   1.974   1.969   0.634  0.5506 -0.0075  0.0245
  899SOL    HW1 2696   1.985   1.878   0.589 -2.1340 -0.3943 -0.9181
  899SOL    HW2 2697   1.885   2.010   0.610 -0.4079 -2.1381 -1.8962
  900SOL     OW 2698   1.076   0.287   2.540 -0.2914 -0.0535 -0.0949
  900SOL    HW1 2699   1.024   0.252   2.622  3.0903  0.2746  1.7879
  900SOL    HW2 2700   1.031   0.256   2.454  0.5775 -0.8092 -1.0408
  901SOL     OW 2701   1.082   1.520   2.160  0.0926 -0.4207 -0.0164
  901SOL    HW1 2702   0.980   1.534   2.178 -0.4254 -0.4137 -0.2618
  901SOL    HW2 2703   1.108   1.441   2.215 -2.4729 -1.2206  0.4755
  902SOL     OW 2704   1.894   0.657   3.040 -0.1173 -0.5559 -0.0105
  902SOL    HW1 2705   1.902   0.755   3.018 -0.9306  1.9735 -2.7381
  902SOL    HW2 2706   1.853   0.640   0.052  4.2803  4.0069 -1.1051
  903SOL     OW 2707   1.900   0.913   2.500 -0.0583 -0.2902 -0.1992
  903SOL    HW1 2708   1.863   1.007   2.477 -2.2833  1.3114 -2.5327
  903SOL    HW2 2709   1.974   0.891   2.438  0.9386  0.6114 -0.5829
  904SOL     OW 2710   2.018   0.980   1.724 -0.3583  0.2020 -0.8107
  904SOL    HW1 2711   2.010   0.917   1.801 -0.4876  3.1431 -0.4865
  904SOL    HW2 2712   2.001   1.078   1.754 -0.3449  1.7627  0.1441
  905SOL     OW 2713   2.153   0.452   1.018 -0.3803  0.7280  0.2218
  905SOL    HW1 2714   2.189   0.529   0.962  0.8794 -1.5718 -0.7528
  905SOL    HW2 2715   2.228   0.384   1.050  1.7682 -2.3109  2.7775
  906SOL     OW 2716   2.671   1.596   0.540  0.7055 -0.0257  0.1203
  906SOL    HW1 2717   2.712   1.524   0.482 -1.0871  2.0784  1.2199
  906SOL    HW2 2718   2.633   1.670   0.487  0.0831  0.0657  0.6431
  907SOL     OW 2719   1.316   0.130   0.497 -0.1110 -0.2442 -0.2865
  907SOL    HW1 2720   1.357   0.124   0.591  0.2928 -2.3151 -1.1896
  907SOL    HW2 2721   1.296   0.034   0.457 -0.5770 -1.7674 -1.3635
  908SOL     OW 2722   1.659   2.395   2.026 -0.1315 -0.6272 -0.2038
  908SOL    HW1 2723   1.626   2.357   2.118 -1.9805  0.2057  3.1596
  908SOL    HW2 2724   1.753   2.422   2.031  0.0332  0.5782 -1.0689
  909SOL     OW 2725   2.565   0.539   1.619  0.3943  0.4461 -0.3146
  909SOL    HW1 2726   2.471   0.546   1.655  2.7550 -0.5148 -0.9796
  909SOL    HW2 2727   2.613   0.447   1.627  1.0290 -0.2175  2.1051
  910SOL     OW 2728   1.330   0.195   2.548  0.3994 -0.6702  0.2727
  910SOL    HW1 2729   1.243   0.241   2.539 -0.3239 -2.2546 -0.3822
  910SOL    HW2 2730   1.372   0.204   2.641  1.2430 -0.5327 -1.2799
  911SOL     OW 2731   2.198   1.003   2.528  0.9267 -0.4846 -0.1409
  911SOL    HW1 2732   2.168   0.968   2.435 -0.2133 -1.2469 -0.1540
  911SOL    HW2 2733   2.296   1.026   2.520 -1.4738  1.4601 -1.8628
  912SOL     OW 2734   2.964   2.353   1.358 -0.6837  0.0536  0.5673
  912SOL    HW1 2735   2.880   2.293   1.372  0.1086  0.5635  0.3250
  912SOL    HW2 2736   2.960   2.433   1.427  0.9315 -1.5702 -0.1088
  913SOL     OW 2737   2.739   1.753   2.171  0.0991 -0.1697  0.1530
  913SOL    HW1 2738   2.670   1.810   2.225 -2.2518  2.6121  0.0678
  913SOL    HW2 2739   2.729   1.779   2.070  0.0568  6.0698 -0.9140
  914SOL     OW 2740   2.144   1.666   0.739  0.1441 -0.2015  0.2969
  914SOL    HW1 2741   2.231   1.715   0.714 -1.0831 -0.5338 -1.3248
  914SOL    HW2 2742   2.089   1.670   0.654  0.9593 -1.5784  3.3282
  915SOL     OW 2743   0.860   2.731   2.153  0.3340 -0.3015  0.8008
  915SOL    HW1 2744   0.840   2.779   2.238  1.0067 -1.2080 -2.0557
  915SOL    HW2 2745   0.781   2.739   2.089 -1.6138 -1.1751 -0.7951
  916SOL     OW 2746   0.435   2.462   0.980  0.2795  0.1770 -0.0471
  916SOL    HW1 2747   0.445   2.407   1.065  1.1420  0.5389 -0.1462
  916SOL    HW2 2748   0.346   2.512   0.977  0.9553  2.1234  1.8401
  917SOL     OW 2749   2.419   0.918   2.780 -0.1630 -0.2450  0.2053
  917SOL    HW1 2750   2.319   0.924   2.775  0.6168  0.8829 -1.2232
  917SOL    HW2 2751   2.449   0.843   2.839  0.7998 -0.8565  1.3399
  918SOL     OW 2752   1.551   2.254   2.253  0.0827  0.3574 -0.3108
  918SOL    HW1 2753   1.606   2.195   2.317  0.5882 -0.9133  3.2580
  918SOL    HW2 2754   1.493   2.324   2.294  0.1199 -2.7750 -4.1604
  919SOL     OW 2755   2.016   2.142   0.849 -0.3138 -0.0350 -0.3138
  919SOL    HW1 2756   2.007   2.105   0.753 -0.1217 -2.7508 -1.2534
  919SOL    HW2 2757   2.044   2.065   0.914  0.0665 -0.4693  1.2365
  920SOL     OW 2758   1.405   0.410   2.375 -0.3318 -0.3783  0.4590
  920SOL    HW1 2759   1.417   0.354   2.458 -1.5045 -1.9681 -1.3167
  920SOL    HW2 2760   1.386   0.505   2.406  1.5886  0.4411 -2.0240
  921SOL     OW 2761   0.190   0.540   2.741  0.1164  0.1730  0.1358
  921SOL    HW1 2762   0.267   0.559   2.675 -0.1396 -0.3090 -1.5887
  921SOL    HW2 2763   0.107   0.531   2.684  2.5125  1.0370 -0.3620
  922SOL     OW 2764   2.811   1.867   1.215 -0.1962  0.5209 -0.5528
  922SOL    HW1 2765   2.840   1.909   1.302 -1.1094 -2.0149 -1.2784
  922SOL    HW2 2766   2.742   1.926   1.168 -2.0070 -0.6154  3.4653
  923SOL     OW 2767   0.035   1.873   2.497 -0.1835  0.1832 -0.3159
  923SOL    HW1 2768   3.050   1.854   2.422 -2.7670 -0.6307  0.8113
  923SOL    HW2 2769   3.062   1.937   2.556  1.0912 -0.7018  1.0261
  924SOL     OW 2770   1.557   0.500   2.165  0.3203  0.4710 -0.2558
  924SOL    HW1 2771   1.570   0.432   2.090  1.2974 -0.6003  0.1465
  924SOL    HW2 2772   1.507   0.455   2.246 -0.4964 -2.6159  2.1915
  925SOL     OW 2773   2.989   1.041   0.357 -0.0590 -0.1059  0.2670
  925SOL    HW1 2774   2.963   0.945   0.347 -1.3975  3.9565  0.0481
  925SOL    HW2 2775   2.944   1.079   0.436  3.9429 -4.2847 -2.2028
  926SOL     OW 2776   2.320   0.237   1.104 -0.2778 -0.2123 -0.3550
  926SOL    HW1 2777   2.383   0.173   1.054  0.9242  0.4204 -2.7611
  926SOL    HW2 2778   2.355   0.276   1.192 -0.1947 -1.5407  2.4317
  927SOL     OW 2779   1.219   0.812   0.931  0.1489  0.1715 -0.3104
  927SOL    HW1 2780   1.244   0.845   0.837  1.0189  0.7796 -0.7674
  927SOL    HW2 2781   1.194   0.714   0.933  0.5553  0.8972  0.2957
  928SOL     OW 2782   2.861   0.247   2.091 -0.3454 -0.2535  0.0471
  928SOL    HW1 2783   2.831   0.187   2.171  0.0981  1.6954  4.2538
  928SOL    HW2 2784   2.955   0.290   2.111 -0.6054  0.2039 -0.7259
  929SOL     OW 2785   2.404   0.734   1.195  0.8194  0.1296  0.5735
  929SOL    HW1 2786   2.441   0.693   1.281 -1.6582  0.5037 -1.3077
  929SOL    HW2 2787   2.444   0.828   1.188  1.5730 -2.7476  0.3691
  930SOL     OW 2788   2.076   2.403   0.848 -0.8053 -0.1012 -0.3879
  930SOL    HW1 2789   2.033   2.313   0.827  0.5180 -0.7719 -1.9973
  930SOL    HW2 2790   2.078   2.426   0.949 -0.1678 -2.1428 -2.1076
  931SOL     OW 2791   1.904   0.911   1.158 -0.6108  0.5622 -0.4211
  931SOL    HW1 2792   1.909   0.868   1.250  4.3067  1.9852 -0.8709
  931SOL    HW2 2793   1.899   1.009   1.166 -1.0473  1.4347 -0.5262
  932SOL     OW 2794   0.216   0.744   1.425  0.0437  0.0951  0.3466
  932SOL    HW1 2795   0.143   0.675   1.410  0.8952  1.7222 -0.0475
  932SOL    HW2 2796   0.227   0.801   1.337 -0.1180  2.5684 -0.4368
  933SOL     OW 2797   2.125   1.646   1.925  0.5790 -0.4882 -0.0735
  933SOL    HW1 2798   2.155   1.550   1.898  1.1977 -3.1171  0.7733
  933SOL    HW2 2799   2.062   1.686   1.852 -0.2557 -0.2931 -1.5046
  934SOL     OW 2800   1.571   2.787   1.701  0.4027  0.7967 -0.0416
  934SOL    HW1 2801   1.508   2.728   1.640 -3.2676 -0.2423 -1.4349
  934SOL    HW2 2802   1.614   2.859   1.645  0.4714 -1.7563  1.6302
  935SOL     OW 2803   0.221   0.908   1.220 -0.9070 -0.1402 -0.4168
  935SOL    HW1 2804   0.169   0.925   1.132 -0.7199 -0.0999 -0.1814
  935SOL    HW2 2805   0.312   0.960   1.220  3.0338  1.1930 -0.7821
  936SOL     OW 2806   2.589   0.594   1.353 -0.5986  0.1288 -0.2315
  936SOL    HW1 2807   2.574   0.615   1.454  0.4702  1.3609  0.4083
  936SOL    HW2 2808   2.677   0.636   1.322 -1.6114  0.9544 -4.4866
  937SOL     OW 2809   0.908   0.249   1.480  0.1513  0.3295 -0.1800
  937SOL    HW1 2810   0.845   0.317   1.437  2.8294 -0.6874 -2.3487
  937SOL    HW2 2811   0.942   0.281   1.573  1.7331  1.4228 -1.6093
  938SOL     OW 2812   0.173   2.537   0.668  0.0667  0.2792  0.1003
  938SOL    HW1 2813   0.083   2.493   0.659 -1.1707  0.5640 -2.0720
  938SOL    HW2 2814   0.248   2.471   0.684  0.0498 -2.2377  0.7002
  939SOL     OW 2815   2.808   2.433   2.872 -0.0926  0.6050  0.0414
  939SOL    HW1 2816   2.889   2.489   2.846 -1.2497 -0.6634 -0.9142
  939SOL    HW2 2817   2.741   2.492   2.921 -0.2168  0.5660  0.6110
  940SOL     OW 2818   1.672   1.947   2.952 -0.3632  0.1752 -0.0498
  940SOL    HW1 2819   1.612   2.018   2.913 -1.5452 -1.1002 -1.5065
  940SOL    HW2 2820   1.717   1.895   2.876  1.2304 -0.2132 -0.8223
  941SOL     OW 2821   1.796   2.581   0.649  0.1832  0.3503 -0.4351
  941SOL    HW1 2822   1.772   2.484   0.668 -0.1687 -1.8074 -0.6197
  941SOL    HW2 2823   1.901   2.580   0.634 -0.6916 -1.5026  0.8760
  942SOL     OW 2824   1.873   1.832   1.133  0.0123 -0.5184  0.4421
  942SOL    HW1 2825   1.931   1.882   1.067 -2.0329 -0.6431  3.2036
  942SOL    HW2 2826   1.776   1.861   1.115 -0.0622  2.4068 -1.2377
  943SOL     OW 2827   2.027   0.732   1.892  0.0520  0.0273  0.0113
  943SOL    HW1 2828   1.932   0.709   1.858 -2.2952  0.0256 -0.6540
  943SOL    HW2 2829   2.088   0.650   1.890  1.0492  1.7092  1.5631
  944SOL     OW 2830   1.530   0.753   1.779  0.2821  0.2589 -0.3285
  944SOL    HW1 2831   1.582   0.818   1.833 -0.6248  1.6229 -1.9210
  944SOL    HW2 2832   1.441   0.786   1.750  2.0065  1.1568  1.7429
  945SOL     OW 2833   2.728   2.602   1.225  0.1303  0.3822 -0.6669
  945SOL    HW1 2834   2.664   2.662   1.174 -2.4011  2.6163 -2.8152
  945SOL    HW2 2835   2.814   2.657   1.244  2.2061 -0.2843 -2.2977
  946SOL     OW 2836   0.713   1.584   0.829 -0.0374 -0.1679  0.6112
  946SOL    HW1 2837   0.661   1.500   0.853 -0.6052  0.3108  1.3318
  946SOL    HW2 2838   0.666   1.626   0.744 -1.7132 -0.9045 -0.7593
  947SOL     OW 2839   0.974   2.578   1.086 -0.1815 -0.2061  0.5170
  947SOL    HW1 2840   0.935   2.670   1.054  0.8486  1.2554 -1.3150
  947SOL    HW2 2841   0.909   2.522   1.142 -0.3934 -1.4470  0.1126
  948SOL     OW 2842   0.275   1.291   1.562 -0.0936  0.3905 -0.4342
  948SOL    HW1 2843   0.257   1.188   1.570  1.1337 -1.0794  0.3657
  948SOL    HW2 2844   0.337   1.326   1.638  1.6338  2.6798  0.0970
  949SOL     OW 2845   0.418   0.791   2.181  0.6421  0.2140 -0.1039
  949SOL    HW1 2846   0.504   0.833   2.212 -0.1790  1.1676  1.8501
  949SOL    HW2 2847   0.368   0.843   2.106 -0.2584 -0.0037  0.5940
  950SOL     OW 2848   0.257   0.464   1.312 -0.2506 -0.1394  0.3068
  950SOL    HW1 2849   0.331   0.454   1.385 -1.1220  0.0167  0.7702
  950SOL    HW2 2850   0.284   0.525   1.231 -2.5569  0.4337 -1.8158
  951SOL     OW 2851   1.166   1.772   2.150  0.2387  0.4596 -0.3885
  951SOL    HW1 2852   1.135   1.675   2.176 -0.9653 -2.6732 -0.3297
  951SOL    HW2 2853   1.083   1.834   2.133 -0.4919  0.8480  0.1257
  952SOL     OW 2854   1.140   1.657   0.172  0.5248  0.2106 -0.3993
  952SOL    HW1 2855   1.126   1.636   0.271  0.8577  1.4706 -0.6166
  952SOL    HW2 2856   1.224   1.615   0.137  0.6096 -1.8226  0.4055
  953SOL     OW 2857   0.988   0.158   2.765  0.1405  0.1185 -0.3543
  953SOL    HW1 2858   0.894   0.122   2.766  1.0932  3.1640  1.3296
  953SOL    HW2 2859   1.051   0.079   2.771  0.1551 -0.7052  4.9846
  954SOL     OW 2860   1.831   1.575   0.239  0.1262 -0.4456  0.3257
  954SOL    HW1 2861   1.790   1.488   0.215  2.2898 -2.6824  1.9729
  954SOL    HW2 2862   1.932   1.569   0.244 -3.8446  1.4609  1.0902
  955SOL     OW 2863   0.335   2.583   2.905  0.2668  0.4031 -0.4510
  955SOL    HW1 2864   0.390   2.636   2.838  1.2483 -0.4830  2.5373
  955SOL    HW2 2865   0.371   2.487   2.916  1.3216  0.8357 -0.6879
  956SOL     OW 2866   1.343   0.938   1.650  0.5923  0.1634  0.7452
  956SOL    HW1 2867   1.378   0.927   1.555  0.1114 -0.8039 -0.5729
  956SOL    HW2 2868   1.244   0.904   1.651 -0.5343 -1.7099  1.1908
  957SOL     OW 2869   1.740   1.820   1.836 -0.1583 -0.7010 -0.5324
  957SOL    HW1 2870   1.692   1.874   1.910 -1.1058  0.0577 -1.7765
  957SOL    HW2 2871   1.691   1.818   1.746  2.4323 -0.2817  1.1189
  958SOL     OW 2872   1.264   2.261   1.509  0.2395  0.0875 -0.6233
  958SOL    HW1 2873   1.219   2.326   1.576  3.2459  1.7772 -1.5329
  958SOL    HW2 2874   1.354   2.290   1.484 -0.5275  0.8076 -0.3672
  959SOL     OW 2875   1.260   1.386   1.324  0.2409  0.1184 -0.0792
  959SOL    HW1 2876   1.247   1.487   1.313 -1.3807  0.1561  0.4820
  959SOL    HW2 2877   1.260   1.355   1.424 -1.3980  0.5577  3.4055
  960SOL     OW 2878   0.203   1.422   2.984  0.2093 -0.1720 -0.1226
  960SOL    HW1 2879   0.229   1.354   3.052 -2.4178  0.9850 -0.8625
  960SOL    HW2 2880   0.247   1.399   2.900  0.7352  1.1916  2.8769
  961SOL     OW 2881   0.564   1.374   2.207  0.0908  0.2951 -0.5271
  961SOL    HW1 2882   0.580   1.341   2.304  0.5661 -0.2746  0.6726
  961SOL    HW2 2883   0.639   1.340   2.151  1.5094  0.6486  2.3679
  962SOL     OW 2884   1.382   1.773   0.854 -0.2200  0.4053  0.0469
  962SOL    HW1 2885   1.485   1.777   0.850 -0.3889  0.1314  1.0748
  962SOL    HW2 2886   1.347   1.740   0.942  0.5800  2.1846 -1.2377
  963SOL     OW 2887   1.434   2.156   2.609  0.5990  0.1481  0.3835
  963SOL    HW1 2888   1.362   2.089   2.598  1.7726  0.3852 -0.1483
  963SOL    HW2 2889   1.483   2.148   2.697 -1.0250  0.1227 -1.0898
  964SOL     OW 2890   0.854   0.003   0.204  0.2341  0.1246  0.2213
  964SOL    HW1 2891   0.814   0.037   0.292  0.0524  0.2873 -2.5106
  964SOL    HW2 2892   0.858   2.980   0.203  3.2053  1.8910  1.4541
  965SOL     OW 2893   0.614   2.790   0.948 -0.1646  0.6801  0.1395
  965SOL    HW1 2894   0.710   2.813   0.929  0.8359 -1.5137  1.8722
  965SOL    HW2 2895   0.561   2.870   0.975  0.1300 -2.5752  0.0372
  966SOL     OW 2896   0.359   1.702   2.785  0.0852  0.6696 -0.3026
  966SOL    HW1 2897   0.363   1.759   2.868 -0.8055 -1.7624 -0.3234
  966SOL    HW2 2898   0.336   1.603   2.811 -0.3353 -0.9788  0.3693
  967SOL     OW 2899   0.536   2.899   2.463  0.0654 -0.2904  0.1954
  967SOL    HW1 2900   0.483   2.977   2.504 -1.1890 -0.5677  0.6769
  967SOL    HW2 2901   0.505   2.867   2.368 -1.2861  0.1678 -0.5898
  968SOL     OW 2902   2.247   0.535   0.405  0.7345 -0.7388 -0.4217
  968SOL    HW1 2903   2.149   0.515   0.370 -2.2321  1.3861 -2.7785
  968SOL    HW2 2904   2.296   0.579   0.326  1.6356 -2.2144 -0.2520
  969SOL     OW 2905   3.049   1.758   1.977  0.4851 -0.1647  0.8008
  969SOL    HW1 2906   0.027   1.779   1.899  1.8911  1.3523  1.1439
  969SOL    HW2 2907   2.991   1.678   1.950 -0.1034 -2.4937  0.5288
  970SOL     OW 2908   2.265   1.367   1.393  0.1532 -0.0712  0.2286
  970SOL    HW1 2909   2.327   1.324   1.323  0.4721 -2.1180 -1.6984
  970SOL    HW2 2910   2.320   1.364   1.479  1.6966 -0.3856 -1.0984
  971SOL     OW 2911   2.056   0.203   1.198 -0.0359 -0.3248 -0.0593
  971SOL    HW1 2912   2.144   0.189   1.151 -0.0403 -1.5237 -0.5354
  971SOL    HW2 2913   2.003   0.120   1.222  1.1149 -2.1524  1.3521
  972SOL     OW 2914   0.216   2.881   1.728 -0.0895 -0.2695  0.5660
  972SOL    HW1 2915   0.223   2.854   1.826  1.0674 -0.9373  1.2679
  972SOL    HW2 2916   0.165   2.815   1.672  1.4647 -2.1342 -0.9466
  973SOL     OW 2917   2.566   0.791   0.089  0.9012  0.2372  0.3494
  973SOL    HW1 2918   2.647   0.846   0.069 -2.5714 -1.2401 -0.1605
  973SOL    HW2 2919   2.531   0.754   0.004  1.5978  2.9865  2.5886
  974SOL     OW 2920   1.905   1.214   2.238 -0.2887 -0.0310 -0.1751
  974SOL    HW1 2921   2.004   1.233   2.276  2.9167  1.9971  2.4469
  974SOL    HW2 2922   1.908   1.153   2.156 -0.8390 -0.5953 -2.6772
  975SOL     OW 2923   0.089   2.733   1.537 -0.4727  0.9751  0.3328
  975SOL    HW1 2924   0.096   2.755   1.439  2.7798 -0.5632 -0.6545
  975SOL    HW2 2925   0.087   2.631   1.553  1.7599 -1.3794 -1.1648
  976SOL     OW 2926   0.433   1.679   1.874 -0.1186  0.0777  0.3615
  976SOL    HW1 2927   0.397   1.755   1.815  0.8125 -0.2466  0.2590
  976SOL    HW2 2928   0.428   1.593   1.821 -2.1179 -1.8751 -0.9033
  977SOL     OW 2929   0.945   2.696   0.417 -0.1894 -0.8789  0.0017
  977SOL    HW1 2930   1.034   2.653   0.388 -1.0793  0.7614 -1.9906
  977SOL    HW2 2931   0.893   2.627   0.469  1.5479 -0.1040 -0.4600
  978SOL     OW 2932   0.244   1.914   2.673 -0.5359  0.0009 -0.5933
  978SOL    HW1 2933   0.200   1.904   2.583  2.4987 -1.5353  1.4084
  978SOL    HW2 2934   0.283   1.824   2.706  0.6901  1.3912 -0.5732
  979SOL     OW 2935   1.644   2.392   1.183  0.5800 -0.3733 -0.1319
  979SOL    HW1 2936   1.706   2.470   1.169  0.7276 -2.4636 -0.5827
  979SOL    HW2 2937   1.683   2.309   1.141 -0.3704 -1.4341 -1.3120
  980SOL     OW 2938   1.013   1.728   2.750 -0.3911 -0.3764  0.2182
  980SOL    HW1 2939   1.017   1.700   2.649 -3.0319  1.4853 -0.1698
  980SOL    HW2 2940   1.028   1.646   2.812  0.1129 -1.2545 -0.3090
  981SOL     OW 2941   2.424   2.982   2.321  0.2950 -0.0755  0.0538
  981SOL    HW1 2942   2.454   3.028   2.237 -1.6677  0.3074  1.1138
  981SOL    HW2 2943   2.403   3.047   2.397  1.2652 -2.3064 -0.7822
  982SOL     OW 2944   2.990   3.071   2.603  0.7572  0.4272  0.0095
  982SOL    HW1 2945   3.036   3.073   2.513 -0.8344 -1.3376  0.0213
  982SOL    HW2 2946   2.915   0.062   2.610 -3.2958 -0.1787  0.5175
  983SOL     OW 2947   2.235   1.411   1.843  0.0735 -0.0425  0.3745
  983SOL    HW1 2948   2.334   1.401   1.838 -0.9597 -0.8345  0.2228
  983SOL    HW2 2949   2.195   1.425   1.750  0.1529 -0.8161 -2.7037
  984SOL     OW 2950   1.285   0.623   1.640 -0.3961  0.3244 -0.0270
  984SOL    HW1 2951   1.217   0.623   1.715  3.3641 -2.6947 -0.4810
  984SOL    HW2 2952   1.340   0.538   1.656 -3.2683 -0.3327 -1.7277
  985SOL     OW 2953   1.783   1.491   1.931  0.6929  0.4085 -0.5372
  985SOL    HW1 2954   1.687   1.491   1.967 -0.6156 -0.6342  1.9262
  985SOL    HW2 2955   1.818   1.589   1.940  0.3501  1.7941  2.0798
  986SOL     OW 2956   1.828   0.471   2.021  0.3367 -0.0604  0.1935
  986SOL    HW1 2957   1.906   0.524   1.979 -1.3013  0.5063  0.0723
  986SOL    HW2 2958   1.740   0.514   1.982 -0.8873 -0.3271  1.2415
  987SOL     OW 2959   2.089   0.445   1.870  0.4154  0.6609  0.2441
  987SOL    HW1 2960   2.148   0.379   1.916  0.5815  0.3992  1.2559
  987SOL    HW2 2961   2.093   0.446   1.770 -2.1808  1.4908 -1.2705
  988SOL     OW 2962   2.709   0.684   2.032 -0.7006 -0.0849 -0.5091
  988SOL    HW1 2963   2.645   0.722   2.101 -0.1261  1.3331  0.8357
  988SOL    HW2 2964   2.716   0.590   2.055 -0.2913  2.4788 -0.3529
  989SOL     OW 2965   2.144   2.266   2.787  0.3655 -0.1047 -0.2382
  989SOL    HW1 2966   2.164   2.175   2.738 -0.0746  0.0052 -0.4438
  989SOL    HW2 2967   2.082   2.245   2.868 -2.1345  0.9016  3.8025
  990SOL     OW 2968   1.147   0.516   2.614 -0.5679  0.0279 -0.0810
  990SOL    HW1 2969   1.113   0.425   2.586  1.5125  2.0706  0.7590
  990SOL    HW2 2970   1.071   0.584   2.624 -1.3405 -0.8683  0.9312
  991SOL     OW 2971   1.237   0.913   0.292 -0.2228 -0.4432 -0.0714
  991SOL    HW1 2972   1.211   0.994   0.353  0.0656  1.2266  0.2218
  991SOL    HW2 2973   1.203   0.927   0.194 -2.0784 -0.9306 -2.0062
  992SOL     OW 2974   2.543   2.062   2.758  0.0043 -0.3183  0.7455
  992SOL    HW1 2975   2.574   2.159   2.746 -0.2805  3.3420 -1.1220
  992SOL    HW2 2976   2.554   2.022   2.666 -0.6407  0.2495  2.8214
  993SOL     OW 2977   0.303   0.351   0.198 -0.0142 -0.0276  0.0134
  993SOL    HW1 2978   0.384   0.391   0.239  0.3865 -0.4826 -1.9767
  993SOL    HW2 2979   0.229   0.327   0.267 -0.8747  1.3006  0.9057
  994SOL     OW 2980   0.323   2.161   2.096 -0.3504  0.1553 -0.3033
  994SOL    HW1 2981   0.417   2.196   2.080  0.6597 -0.9795  2.8612
  994SOL    HW2 2982   0.297   2.099   2.015 -2.3474 -0.1156 -2.5863
  995SOL     OW 2983   1.962   1.438   2.719 -0.5189 -0.1988  0.2572
  995SOL    HW1 2984   1.887   1.368   2.737 -0.3799 -0.9506  1.3906
  995SOL    HW2 2985   2.045   1.386   2.688 -2.5387 -0.4915 -1.2014
  996SOL     OW 2986   1.578   1.655   2.646  0.2027 -0.1135  0.5710
  996SOL    HW1 2987   1.635   1.649   2.565  0.9512 -0.3043  0.7794
  996SOL    HW2 2988   1.493   1.713   2.638  0.2466 -0.2227 -0.5438
  997SOL     OW 2989   1.981   1.339   1.404  0.2021 -0.5782  0.0851
  997SOL    HW1 2990   2.084   1.349   1.391  2.5228  2.2663  2.8281
  997SOL    HW2 2991   1.933   1.418   1.360 -0.6873 -1.1820  1.7605
  998SOL     OW 2992   2.535   1.273   0.064  0.5524  0.0443 -0.1668
  998SOL    HW1 2993   2.490   1.205   0.130 -0.5626  0.1982  3.2962
  998SOL    HW2 2994   2.635   1.269   0.073 -1.3194  1.7389  0.5868
  999SOL     OW 2995   2.750   2.294   0.415  0.1230  0.2875 -0.1099
  999SOL    HW1 2996   2.654   2.299   0.452 -0.2341  0.7593 -0.1413
  999SOL    HW2 2997   2.763   2.380   0.358  1.2538 -2.6372  1.2390
 1000SOL     OW 2998   0.766   3.074   1.774 -0.5793  0.2907 -0.4480
 1000SOL    HW1 2999   0.724   3.031   1.854  0.2523 -1.1158  0.0890
 1000SOL    HW2 3000   0.797   0.089   1.793 -1.3142 -2.0132 -1.4203
   3.08017   3.08017   3.08017
