1000 SPC/Fw water molecules t=  15.00000 step= 15000
 3000
    1SOL     OW    1   1.740   2.673   0.321  0.4005  0.0900  0.4921
    1SOL    HW1    2   1.691   2.756   0.285  0.9631 -0.9742  4.4213
    1SOL    HW2    3   1.682   2.586   0.301 -1.1751 -2.8560 -1.5894
    2SOL     OW    4   1.263   0.746   1.834 -0.1330  0.2577 -0.5253
    2SOL    HW1    5   1.306   0.652   1.817  0.8852 -3.2404 -1.5636
    2SOL    HW2    6   1.333   0.813   1.864 -3.2625 -0.7940  2.9390
    3SOL     OW    7   0.772   3.036   2.783 -0.3652  0.6767  0.0826
    3SOL    HW1    8   0.752   0.042   2.734 -1.3035  0.5266 -3.3215
    3SOL    HW2    9   0.688   2.988   2.808  0.7695  0.5168 -0.1212
    4SOL     OW   10   1.596   1.574   2.996 -0.6435 -0.2054 -0.0619
    4SOL    HW1   11   1.504   1.539   3.024  1.0783  0.1257 -0.7137
    4SOL    HW2   12   1.585   1.673   2.972 -0.5137 -0.8912  0.6976
    5SOL     OW   13   0.849   0.919   2.206 -0.1496  0.0177  0.1828
    5SOL    HW1   14   0.879   0.824   2.239  1.1336 -3.0445 -3.8997
    5SOL    HW2   15   0.887   0.990   2.269  0.8339 -2.7115  0.2456
    6SOL     OW   16   2.034   0.848   2.564 -0.7323 -0.1971  0.4148
    6SOL    HW1   17   2.006   0.792   2.485 -0.2726 -0.3131  0.7501
    6SOL    HW2   18   2.090   0.929   2.539 -1.0810  0.5832 -0.6365
    7SOL     OW   19   0.391   0.949   1.306 -0.2864 -0.1030  0.2417
    7SOL    HW1   20   0.430   0.917   1.219 -1.3723 -1.5910  4.7161
    7SOL    HW2   21   0.358   1.048   1.289 -2.0353  2.2726  1.7095
    8SOL     OW   22   2.024   2.776   1.960  0.1046 -0.1698 -0.4478
    8SOL    HW1   23   1.979   2.792   1.873 -0.6542 -0.4827 -0.1585
    8SOL    HW2   24   2.050   2.866   2.005  1.4146 -0.2231 -0.9711
    9SOL     OW   25   0.106   2.491   0.751 -0.3359  0.0434  0.1796
    9SOL    HW1   26   0.107   2.432   0.669  0.8566 -1.4938 -2.2276
    9SOL    HW2   27   0.198   2.528   0.772  0.6707 -0.4599  0.0183
   10SOL     OW   28   2.998   2.320   2.478  0.3649 -0.2115 -0.2318
   10SOL    HW1   29   2.988   2.395   2.412  1.3492  0.5044  0.7316
   10SOL    HW2   30   3.068   2.255   2.444  0.6771  0.8245  1.3670
   11SOL     OW   31   0.460   1.625   0.066 -0.0635 -0.2710 -0.1882
   11SOL    HW1   32   0.496   1.540   0.109  0.6444  0.1776 -2.1429
   11SOL    HW2   33   0.490   1.709   0.115  1.5195  2.8021  0.9144
   12SOL     OW   34   2.123   2.627   0.767 -0.0908 -0.3319  0.2512
   12SOL    HW1   35   2.043   2.582   0.808  0.4784  0.5703 -0.9284
   12SOL    HW2   36   2.122   2.730   0.781  0.6607  2.5538 -0.2846
   13SOL     OW   37   0.167   0.387   2.642  0.2446 -0.1912 -0.3416
   13SOL    HW1   38   0.241   0.336   2.689 -0.8071 -0.1793  2.6852
   13SOL    HW2   39   0.171   0.488   2.671 -0.3937 -0.9651  2.4280
   14SOL     OW   40   1.139   1.056   1.703 -0.0947 -0.0213  0.1033
   14SOL    HW1   41   1.129   0.961   1.667 -1.8483 -1.5019 -0.8053
   14SOL    HW2   42   1.047   1.082   1.742 -0.7101 -2.1655  2.1014
   15SOL     OW   43   0.421   1.435   2.015 -0.0204 -0.6816  0.2521
   15SOL    HW1   44   0.413   1.382   1.929 -1.3637  2.9478 -0.2855
   15SOL    HW2   45   0.343   1.408   2.079 -3.5603 -2.7650 -1.4659
   16SOL     OW   46   1.587   1.000   2.852  0.2043 -0.1796  0.1202
   16SOL    HW1   47   1.527   1.076   2.818 -0.4772  1.6660  0.5174
   16SOL    HW2   48   1.645   1.041   2.928 -0.4401 -0.7017  0.6155
   17SOL     OW   49   3.052   2.442   2.224 -0.7102  0.0107 -0.2839
   17SOL    HW1   50   3.044   2.538   2.194 -2.3285 -0.2732  0.2254
   17SOL    HW2   51   3.015   2.377   2.152  0.6323 -1.0447 -3.3025
   18SOL     OW   52   1.493   1.307   0.643 -0.5618 -0.1040  0.6014
   18SOL    HW1   53   1.571   1.241   0.658  2.4159 -0.1284 -0.0199
   18SOL    HW2   54   1.403   1.277   0.683 -0.9890  0.9579 -1.1328
   19SOL     OW   55   0.112   1.259   1.878  0.2457 -0.6873 -0.3964
   19SOL    HW1   56   0.213   1.259   1.852  0.0979  4.1093  1.7746
   19SOL    HW2   57   0.066   1.190   1.814  0.8928  1.9687 -0.6879
   20SOL     OW   58   2.002   2.097   2.922 -0.1236 -0.0951  0.2035
   20SOL    HW1   59   2.050   2.141   2.998  1.2403 -0.0919 -0.8133
   20SOL    HW2   60   1.968   2.164   2.856 -0.6513 -1.1709 -1.7482
   21SOL     OW   61   1.864   1.817   1.087 -0.0504 -0.4200  0.3154
   21SOL    HW1   62   1.883   1.784   1.181 -0.0352 -0.0994 -1.9893
   21SOL    HW2   63   1.938   1.783   1.023  2.1240 -2.5876 -3.0019
   22SOL     OW   64   1.901   2.214   1.376  0.4112  0.4875 -0.1557
   22SOL    HW1   65   1.833   2.187   1.447 -2.2938 -0.7335  1.1906
   22SOL    HW2   66   1.928   2.314   1.375  1.1360  0.1806 -0.6029
   23SOL     OW   67   2.950   1.132   1.414 -0.6722  0.7454 -0.0523
   23SOL    HW1   68   2.940   1.048   1.345 -0.3148 -3.0890 -3.0164
   23SOL    HW2   69   2.864   1.138   1.466 -3.2174 -1.5227 -2.0259
   24SOL     OW   70   1.679   1.289   1.814 -0.0046  0.1049 -0.2892
   24SOL    HW1   71   1.671   1.249   1.721  0.0386  1.4646 -0.6443
   24SOL    HW2   72   1.746   1.367   1.810 -1.2413  2.6588 -1.8320
   25SOL     OW   73   1.927   0.065   2.278 -0.2594 -0.0423  0.1829
   25SOL    HW1   74   2.023   0.082   2.314  1.1316  1.2719 -0.4602
   25SOL    HW2   75   1.875   0.156   2.285 -2.2622  2.5674  1.8980
   26SOL     OW   76   0.673   2.907   0.616 -0.1671 -0.1020  0.4554
   26SOL    HW1   77   0.742   2.948   0.679 -0.6811 -2.3957 -0.1716
   26SOL    HW2   78   0.713   2.845   0.546  1.5803 -0.9027  2.1400
   27SOL     OW   79   1.244   1.165   1.050  0.7217 -0.3254  0.0513
   27SOL    HW1   80   1.341   1.176   1.017  2.0956 -1.1953 -2.9680
   27SOL    HW2   81   1.191   1.246   1.021  1.7292 -0.6829  0.8119
   28SOL     OW   82   2.152   2.523   1.102  0.0502  0.6884 -0.5222
   28SOL    HW1   83   2.122   2.606   1.050  0.1117 -0.6911  1.2035
   28SOL    HW2   84   2.222   2.557   1.168  0.5448  2.9843 -0.9882
   29SOL     OW   85   2.223   2.866   2.306  0.2949 -0.4748  0.1693
   29SOL    HW1   86   2.139   2.834   2.353 -0.4749  2.1689 -1.7436
   29SOL    HW2   87   2.275   2.927   2.368  0.6379  1.6912 -1.1532
   30SOL     OW   88   0.087   2.817   1.958  0.7190 -0.0095  0.2085
   30SOL    HW1   89   0.037   2.867   1.878  0.7778  0.9124 -2.4443
   30SOL    HW2   90   0.142   2.878   2.016  0.7295 -0.7173  1.2047
   31SOL     OW   91   2.968   1.780   2.118  0.3070 -0.2012 -0.0641
   31SOL    HW1   92   3.003   1.870   2.152  2.5489  0.3883  1.1664
   31SOL    HW2   93   3.034   1.748   2.045 -0.2025  2.4073 -0.5997
   32SOL     OW   94   1.090   2.095   2.333  0.1105  0.1224  0.3975
   32SOL    HW1   95   1.085   1.997   2.296 -0.8828  0.0787  0.3855
   32SOL    HW2   96   1.168   2.153   2.294 -0.6284  0.5493  1.2815
   33SOL     OW   97   0.430   0.352   3.021  0.3365 -0.1713  0.3199
   33SOL    HW1   98   0.425   0.360   0.034  0.6837  0.9755 -2.5684
   33SOL    HW2   99   0.520   0.387   2.990 -2.6447  0.3877  0.6008
   34SOL     OW  100   2.845   0.161   0.084 -0.4959 -0.2925 -0.1802
   34SOL    HW1  101   2.931   0.116   0.065 -2.0609 -0.2204 -2.3760
   34SOL    HW2  102   2.803   0.200   3.086  2.4649 -0.0737 -0.9260
   35SOL     OW  103   2.890   2.585   1.694 -0.0789 -0.0220  0.2010
   35SOL    HW1  104   2.985   2.585   1.727 -0.2868  0.9621 -2.5178
   35SOL    HW2  105   2.875   2.679   1.654 -0.2613 -0.8836 -1.8903
   36SOL     OW  106   2.349   3.077   2.418  0.3011  0.1111 -0.7755
   36SOL    HW1  107   2.405   0.013   2.507 -1.8612  0.9892  3.3974
   36SOL    HW2  108   2.277   0.059   2.406  0.0206 -2.2181  0.0893
   37SOL     OW  109   1.625   2.818   3.010  0.1239  0.1037  0.6500
   37SOL    HW1  110   1.722   2.796   2.980  2.2132 -0.0349  1.8884
   37SOL    HW2  111   1.579   2.867   2.931 -2.4736  0.1400 -4.2982
   38SOL     OW  112   0.419   0.649   0.520 -0.0749 -0.0523  0.4665
   38SOL    HW1  113   0.458   0.563   0.549 -3.2742  3.3500 -1.5718
   38SOL    HW2  114   0.367   0.696   0.594  0.3877  0.1648 -0.5570
   39SOL     OW  115   1.027   1.898   2.131 -0.2006  0.1649  0.1538
   39SOL    HW1  116   1.073   1.804   2.126  1.0920  0.3775 -2.1931
   39SOL    HW2  117   1.102   1.963   2.105 -0.1916 -0.9179  2.3208
   40SOL     OW  118   2.921   0.807   2.818  0.1428 -0.4966  0.2353
   40SOL    HW1  119   2.904   0.892   2.761 -0.4424 -0.0994 -1.2205
   40SOL    HW2  120   3.005   0.808   2.870  0.5208 -0.5217 -1.4395
   41SOL     OW  121   1.326   0.520   1.678 -0.1592 -0.0256 -0.2608
   41SOL    HW1  122   1.390   0.475   1.608  3.3929 -2.7779  0.7191
   41SOL    HW2  123   1.319   0.454   1.758  1.0146 -1.0047  1.7357
   42SOL     OW  124   2.262   0.210   1.140 -0.3106  0.6797 -0.1358
   42SOL    HW1  125   2.287   0.255   1.048  2.5658  0.6864  0.3854
   42SOL    HW2  126   2.285   0.271   1.217 -1.6163 -1.1059 -3.5145
   43SOL     OW  127   1.355   0.766   1.509 -0.1007 -0.1549 -0.5893
   43SOL    HW1  128   1.442   0.817   1.530  1.3507 -1.7340 -0.7716
   43SOL    HW2  129   1.337   0.690   1.575 -1.1389 -1.2255  0.5502
   44SOL     OW  130   0.260   0.787   0.091  0.0694 -0.3641  0.2972
   44SOL    HW1  131   0.254   0.723   0.173  1.2763 -0.6937  0.3100
   44SOL    HW2  132   0.221   0.882   0.115 -0.0213 -1.3611 -0.5288
   45SOL     OW  133   0.503   1.769   1.761 -0.5293 -0.1042 -0.4823
   45SOL    HW1  134   0.585   1.709   1.787  2.6059  1.7426  0.0095
   45SOL    HW2  135   0.546   1.852   1.705 -0.0619  1.4436 -2.6169
   46SOL     OW  136   2.265   2.668   1.968 -0.6215  0.2382  0.5436
   46SOL    HW1  137   2.318   2.747   1.994  2.8927  1.3394 -1.3012
   46SOL    HW2  138   2.167   2.686   1.972 -0.4553  1.5619  1.0783
   47SOL     OW  139   0.184   1.884   1.619 -0.4251  0.0260  0.5800
   47SOL    HW1  140   0.213   1.787   1.634 -0.6516  0.0327  1.0300
   47SOL    HW2  141   0.241   1.944   1.674  0.4181 -0.7155  0.5758
   48SOL     OW  142   1.209   2.452   2.764  0.5973  0.3729  0.2154
   48SOL    HW1  143   1.183   2.372   2.710 -0.9404  0.7929  3.7811
   48SOL    HW2  144   1.137   2.478   2.831  0.2607  0.0816 -1.2194
   49SOL     OW  145   2.490   1.528   1.809  0.2297 -0.2710 -0.0122
   49SOL    HW1  146   2.559   1.595   1.768 -0.0928 -0.0354 -0.0492
   49SOL    HW2  147   2.538   1.486   1.892  0.1891 -1.2514  1.9732
   50SOL     OW  148   1.086   2.824   0.469  0.1415  0.1111  0.1045
   50SOL    HW1  149   1.168   2.851   0.514  0.6988  0.2342 -0.5807
   50SOL    HW2  150   1.020   2.898   0.458 -0.6538 -2.3842  4.1364
   51SOL     OW  151   1.212   0.302   1.235  0.2909 -0.0823 -0.0544
   51SOL    HW1  152   1.155   0.336   1.310 -0.4891 -0.7465 -3.2798
   51SOL    HW2  153   1.154   0.268   1.159 -1.6573 -0.3802  0.6910
   52SOL     OW  154   0.515   0.972   0.546 -0.5026  0.3712  0.3837
   52SOL    HW1  155   0.576   0.953   0.464  1.8983  1.3697 -2.4427
   52SOL    HW2  156   0.465   1.058   0.538 -0.9622 -0.6871  0.2983
   53SOL     OW  157   1.278   3.064   2.684  0.5511 -0.0113  0.3604
   53SOL    HW1  158   1.185   3.023   2.697 -2.9880 -0.9645 -1.7199
   53SOL    HW2  159   1.286   0.039   2.602  1.5222 -1.0502  1.2478
   54SOL     OW  160   2.110   0.347   2.191 -0.1811  0.0346  0.2284
   54SOL    HW1  161   2.182   0.420   2.164  1.0243  2.9294 -1.2082
   54SOL    HW2  162   2.044   0.339   2.116 -0.8588  2.9163 -2.2129
   55SOL     OW  163   2.825   2.576   0.159 -0.5244 -0.0250 -0.2248
   55SOL    HW1  164   2.914   2.604   0.193  1.6058  1.5093 -0.3905
   55SOL    HW2  165   2.748   2.639   0.182 -2.0844  0.7948 -1.0116
   56SOL     OW  166   0.745   0.199   1.898  0.0873  0.1800 -0.1583
   56SOL    HW1  167   0.674   0.131   1.918  0.1793  1.0845 -0.4413
   56SOL    HW2  168   0.777   0.250   1.985 -0.5993  0.2223  0.1077
   57SOL     OW  169   1.740   0.914   2.460  0.3878 -0.1899  0.3011
   57SOL    HW1  170   1.731   0.961   2.372  1.2628 -3.9364  2.9301
   57SOL    HW2  171   1.839   0.899   2.479  0.0965 -0.8176  0.1108
   58SOL     OW  172   3.043   1.086   2.101  0.2815 -0.4793 -0.1079
   58SOL    HW1  173   2.967   1.066   2.035  0.1381  0.6199  1.8327
   58SOL    HW2  174   3.085   1.004   2.141  0.2532 -0.8901 -2.3118
   59SOL     OW  175   0.488   2.612   1.474 -0.0609 -0.0202  0.4306
   59SOL    HW1  176   0.500   2.696   1.531 -2.1694  0.0662  0.0586
   59SOL    HW2  177   0.539   2.617   1.385 -2.1719 -0.0601 -0.9282
   60SOL     OW  178   2.072   2.869   0.412 -0.1617  0.2342 -0.4022
   60SOL    HW1  179   2.080   2.774   0.448  0.4007 -1.1149  1.4560
   60SOL    HW2  180   2.153   2.888   0.361 -3.8327  0.3894  1.8325
   61SOL     OW  181   1.491   2.321   0.356 -0.7733 -0.1653 -0.8241
   61SOL    HW1  182   1.545   2.260   0.415  1.7668  1.8298 -1.9139
   61SOL    HW2  183   1.543   2.361   0.280 -1.9258 -0.2173  3.3498
   62SOL     OW  184   1.829   2.727   2.861 -0.2987 -0.2599 -0.1052
   62SOL    HW1  185   1.901   2.734   2.790  0.3908  0.3838  0.3348
   62SOL    HW2  186   1.794   2.632   2.866 -0.6864 -0.7469 -0.4585
   63SOL     OW  187   2.233   0.777   0.651 -0.4504  0.1639 -0.0125
   63SOL    HW1  188   2.248   0.838   0.571  2.3886  0.7696 -1.5766
   63SOL    HW2  189   2.129   0.764   0.657 -1.2191  1.5760  0.3350
   64SOL     OW  190   1.648   1.151   0.015  0.7733 -0.4045  0.0428
   64SOL    HW1  191   1.693   1.215   0.074 -1.6890  0.1897 -2.9525
   64SOL    HW2  192   1.544   1.156   0.024 -2.3166 -1.3253 -0.5496
   65SOL     OW  193   0.698   2.421   1.472 -0.3490  0.0508 -0.7113
   65SOL    HW1  194   0.648   2.364   1.403 -0.7399 -0.4819  2.9361
   65SOL    HW2  195   0.628   2.468   1.528  0.8737 -0.2200 -1.7624
   66SOL     OW  196   0.970   1.230   1.509  0.4806  0.2874 -0.0131
   66SOL    HW1  197   1.055   1.186   1.475  0.6777  1.1438 -0.8721
   66SOL    HW2  198   0.950   1.196   1.606 -1.1961  1.8045  1.3895
   67SOL     OW  199   2.364   2.057   1.765 -0.3137 -0.2109  0.1645
   67SOL    HW1  200   2.446   2.032   1.708 -0.8279 -0.5343 -0.9593
   67SOL    HW2  201   2.308   1.979   1.804  2.3508  1.8480 -1.3128
   68SOL     OW  202   0.928   1.646   1.898 -0.3024 -0.0608 -0.0573
   68SOL    HW1  203   0.848   1.592   1.869  0.9834  0.3721  3.0077
   68SOL    HW2  204   0.901   1.727   1.950  1.2788 -3.8033 -0.4469
   69SOL     OW  205   0.066   2.903   0.060  0.2311 -0.5780  0.2222
   69SOL    HW1  206   0.102   2.827   0.119  1.0133  2.3867 -3.6197
   69SOL    HW2  207   0.089   2.998   0.102 -0.5433  0.8848  2.1446
   70SOL     OW  208   2.222   1.026   2.480  0.7316 -0.2109  0.1288
   70SOL    HW1  209   2.157   1.059   2.407 -0.7297  1.9230 -1.1833
   70SOL    HW2  210   2.319   1.031   2.444  0.0131  2.1189 -0.8343
   71SOL     OW  211   0.826   2.246   0.883 -0.1176 -0.0884  0.0638
   71SOL    HW1  212   0.906   2.309   0.900  0.0976  0.1387  0.2635
   71SOL    HW2  213   0.826   2.162   0.942  2.9833  0.4564 -2.8734
   72SOL     OW  214   2.621   2.054   0.498  0.2595 -0.0389  0.0755
   72SOL    HW1  215   2.675   2.122   0.449 -1.5572 -3.1184 -1.3775
   72SOL    HW2  216   2.615   2.079   0.596  1.8857  1.3558 -3.5081
   73SOL     OW  217   1.498   0.781   0.827 -0.1084  0.4058  0.0351
   73SOL    HW1  218   1.547   0.857   0.879 -0.2649  0.0338 -0.4961
   73SOL    HW2  219   1.551   0.698   0.842 -0.0622  2.3436  0.0105
   74SOL     OW  220   2.709   2.108   2.129  0.0463  0.3581  0.4012
   74SOL    HW1  221   2.737   2.161   2.044 -0.2462 -2.2504  3.2197
   74SOL    HW2  222   2.669   2.169   2.199 -0.0685 -1.7215 -0.9631
   75SOL     OW  223   1.367   1.893   1.847  0.6854 -0.3556  0.4031
   75SOL    HW1  224   1.332   1.862   1.758  1.6395 -2.0541 -0.6997
   75SOL    HW2  225   1.385   1.817   1.914 -0.0533  0.7298  0.2554
   76SOL     OW  226   1.390   1.456   1.311 -0.5202 -0.2946  0.0209
   76SOL    HW1  227   1.389   1.357   1.290  0.2275  0.3380 -0.7362
   76SOL    HW2  228   1.462   1.506   1.261  0.0370 -1.1986 -1.3235
   77SOL     OW  229   2.482   1.190   1.588  0.5892 -0.5327 -0.2778
   77SOL    HW1  230   2.477   1.287   1.552 -3.0396  1.9495 -0.1630
   77SOL    HW2  231   2.417   1.128   1.541  2.3956 -0.6242  2.2760
   78SOL     OW  232   1.619   0.555   0.278  0.2438  0.5004  0.5313
   78SOL    HW1  233   1.638   0.614   0.200 -1.5235  0.2511 -1.8061
   78SOL    HW2  234   1.553   0.597   0.339  0.6119  2.8956 -0.9875
   79SOL     OW  235   0.957   1.410   2.100  0.3118 -0.1797 -0.2924
   79SOL    HW1  236   0.988   1.380   2.012 -6.0090 -0.5201  1.2743
   79SOL    HW2  237   0.855   1.412   2.107  2.4814  2.3024  1.4024
   80SOL     OW  238   1.002   0.289   1.450 -0.1381 -0.1870  0.2097
   80SOL    HW1  239   1.004   0.393   1.456  0.3768  0.2358 -0.8702
   80SOL    HW2  240   1.056   0.253   1.531  0.3574 -2.3425  0.3544
   81SOL     OW  241   0.593   2.351   0.133  0.2516  0.4440 -0.7865
   81SOL    HW1  242   0.652   2.377   0.055 -0.8091  0.7081 -1.3025
   81SOL    HW2  243   0.643   2.346   0.222 -0.8781  0.3909  1.6294
   82SOL     OW  244   1.117   0.151   1.634  0.2665 -0.1226 -0.5760
   82SOL    HW1  245   1.070   0.112   1.718 -1.1242  1.0163  2.2253
   82SOL    HW2  246   1.208   0.102   1.622 -0.3188  0.8559 -2.5494
   83SOL     OW  247   0.356   2.210   0.975 -0.5826 -0.6944 -0.4429
   83SOL    HW1  248   0.264   2.184   1.018  0.3314 -2.2143  1.3734
   83SOL    HW2  249   0.362   2.219   0.873  1.2011 -2.6029  1.7747
   84SOL     OW  250   2.837   1.582   0.954 -0.2220  0.0992 -0.2281
   84SOL    HW1  251   2.835   1.489   0.919  0.0008 -0.1485  0.0207
   84SOL    HW2  252   2.932   1.621   0.938  1.3638  2.2403 -1.6515
   85SOL     OW  253   2.146   2.092   1.257 -0.2973 -0.3535 -0.3449
   85SOL    HW1  254   2.071   2.077   1.189  1.3998 -2.5092  2.9471
   85SOL    HW2  255   2.136   2.023   1.332 -1.8281  2.4693  1.0244
   86SOL     OW  256   1.417   2.308   1.946  0.0964  0.0268  0.2155
   86SOL    HW1  257   1.346   2.300   1.876  1.5161  1.2022  1.2241
   86SOL    HW2  258   1.479   2.392   1.925  0.2101  2.9457  0.4622
   87SOL     OW  259   2.306   1.615   0.753 -0.1709  0.5422 -0.8414
   87SOL    HW1  260   2.261   1.584   0.669  0.5161 -1.1941  0.4773
   87SOL    HW2  261   2.374   1.685   0.724  1.1203  0.0350 -0.4967
   88SOL     OW  262   0.410   3.086   0.910 -0.1179 -0.1396  0.3570
   88SOL    HW1  263   0.418   3.012   0.837  0.8449 -1.5657 -1.2689
   88SOL    HW2  264   0.495   0.048   0.924 -1.8339 -2.6521 -0.8211
   89SOL     OW  265   0.309   0.686   1.963 -0.4227 -0.6078  0.5688
   89SOL    HW1  266   0.280   0.729   2.050  1.4704  0.5679  0.0072
   89SOL    HW2  267   0.409   0.655   1.974  1.8418  0.0099  1.8746
   90SOL     OW  268   2.907   1.948   0.369 -0.3950 -0.8257  0.1971
   90SOL    HW1  269   2.850   2.031   0.380 -0.3439 -4.7503  1.8694
   90SOL    HW2  270   2.889   1.881   0.440 -0.8166 -1.1928  0.3511
   91SOL     OW  271   0.832   2.023   1.072  0.4735 -0.3423  0.7992
   91SOL    HW1  272   0.914   2.025   1.129 -1.8072  0.3168 -0.4738
   91SOL    HW2  273   0.762   1.955   1.114 -3.0368 -0.0496  2.6584
   92SOL     OW  274   2.206   3.068   1.893 -0.1696 -0.3283  0.0073
   92SOL    HW1  275   2.306   3.060   1.922  0.2602 -1.0519  1.9474
   92SOL    HW2  276   2.154   3.040   1.979  0.2648 -2.3745  0.4459
   93SOL     OW  277   0.387   1.706   2.895 -0.1666 -0.6301 -0.3582
   93SOL    HW1  278   0.413   1.663   2.987  2.3290 -0.2964  4.8253
   93SOL    HW2  279   0.473   1.739   2.842  1.6942  0.5031  1.1991
   94SOL     OW  280   2.455   0.057   1.963  0.5200  0.2758 -0.5380
   94SOL    HW1  281   2.445   0.147   2.004 -1.0573 -1.9205 -0.2734
   94SOL    HW2  282   2.532   0.058   1.904  0.6746 -0.3371  2.5364
   95SOL     OW  283   1.811   0.312   1.757 -0.2001 -0.3688 -0.3585
   95SOL    HW1  284   1.746   0.239   1.778  1.2510  0.1380  0.0904
   95SOL    HW2  285   1.896   0.267   1.724 -0.6356 -2.3881  0.1556
   96SOL     OW  286   0.339   0.318   1.746 -0.3745  0.2245 -0.0945
   96SOL    HW1  287   0.255   0.283   1.792 -0.5424  0.0994  1.1541
   96SOL    HW2  288   0.331   0.409   1.710 -1.4960 -2.5691  1.9210
   97SOL     OW  289   2.001   0.151   1.595 -0.1571  0.3748 -0.0577
   97SOL    HW1  290   1.955   0.200   1.519 -1.4453 -0.7359 -1.3321
   97SOL    HW2  291   1.974   0.054   1.605  3.9829 -1.2429 -0.4198
   98SOL     OW  292   1.987   2.310   1.846  0.1646 -0.3967  0.0213
   98SOL    HW1  293   2.084   2.306   1.808 -0.6531 -2.2451 -0.8538
   98SOL    HW2  294   1.989   2.310   1.949 -0.1090 -0.3964 -0.3363
   99SOL     OW  295   0.518   0.850   1.071  0.2552 -0.7073 -0.1003
   99SOL    HW1  296   0.459   0.913   1.012  1.1848 -1.6470 -0.7234
   99SOL    HW2  297   0.554   0.769   1.021 -0.9979  1.2478  0.4177
  100SOL     OW  298   2.715   1.842   2.036 -0.1853 -0.1893 -0.5745
  100SOL    HW1  299   2.695   1.931   2.085 -0.8371 -0.0917 -0.0119
  100SOL    HW2  300   2.809   1.811   2.055 -2.4623  1.2243 -0.7941
  101SOL     OW  301   1.718   0.184   0.073 -0.0562  0.5001  0.6477
  101SOL    HW1  302   1.717   0.287   0.058 -0.6277 -0.8222 -1.1195
  101SOL    HW2  303   1.815   0.168   0.096  0.5305 -0.4740  0.2815
  102SOL     OW  304   0.001   3.069   1.033  0.3754  0.3908  0.0287
  102SOL    HW1  305   3.041   3.008   0.968  0.1667  0.3689 -1.1009
  102SOL    HW2  306   0.079   3.021   1.079  0.1109  0.5128  1.9838
  103SOL     OW  307   0.271   2.859   2.366  0.1126 -0.1281  0.3849
  103SOL    HW1  308   0.180   2.820   2.384  1.2835  1.0800  2.0204
  103SOL    HW2  309   0.343   2.793   2.407  2.2740 -2.0111  0.4619
  104SOL     OW  310   0.394   2.253   1.566 -0.2150 -0.2872 -0.9766
  104SOL    HW1  311   0.301   2.270   1.524  0.9194  1.4550  1.2538
  104SOL    HW2  312   0.455   2.241   1.484  0.8903 -2.5750  0.1218
  105SOL     OW  313   0.594   2.033   2.106  0.3881 -0.1964  0.1978
  105SOL    HW1  314   0.509   1.985   2.146  0.3675  1.4787  3.6976
  105SOL    HW2  315   0.606   2.121   2.155  0.2289  1.7724  0.9491
  106SOL     OW  316   2.467   2.962   0.471  0.0602 -0.2922  0.0491
  106SOL    HW1  317   2.420   2.942   0.557  1.6969 -0.5168 -3.6402
  106SOL    HW2  318   2.535   2.891   0.449 -0.8785 -2.9221 -0.9413
  107SOL     OW  319   0.644   1.325   1.189  0.1648 -0.1663  0.2616
  107SOL    HW1  320   0.555   1.284   1.171  0.3614  1.7743 -1.1004
  107SOL    HW2  321   0.701   1.280   1.260 -2.0866 -0.8465 -3.0211
  108SOL     OW  322   2.834   1.087   1.903  0.3269 -0.2604 -0.2432
  108SOL    HW1  323   2.738   1.089   1.879  0.7562 -1.4943 -0.2614
  108SOL    HW2  324   2.871   1.185   1.904 -1.0092  0.0853  1.3601
  109SOL     OW  325   2.022   2.850   3.033 -0.2267 -0.0961  0.0888
  109SOL    HW1  326   1.982   2.942   3.042  1.3339 -3.0648 -3.6173
  109SOL    HW2  327   1.957   2.786   2.988  2.4135 -0.0289  1.7802
  110SOL     OW  328   0.181   2.037   2.718  0.1297  0.2880  0.0932
  110SOL    HW1  329   0.086   2.001   2.728  1.2916  1.9297  2.1807
  110SOL    HW2  330   0.236   2.023   2.802 -0.3179 -2.3679 -1.1312
  111SOL     OW  331   2.642   0.839   2.325 -0.5537 -0.0617 -0.2059
  111SOL    HW1  332   2.693   0.797   2.244  0.6658 -1.7743 -1.4911
  111SOL    HW2  333   2.708   0.840   2.402  3.1094 -2.8649 -1.6091
  112SOL     OW  334   2.305   2.696   1.656 -0.2843  0.7379 -0.0135
  112SOL    HW1  335   2.254   2.784   1.642  2.4256  0.8236 -0.5050
  112SOL    HW2  336   2.349   2.693   1.746 -2.9233  0.7142 -2.4046
  113SOL     OW  337   2.136   2.001   2.644  0.3457 -0.1968 -0.2191
  113SOL    HW1  338   2.165   1.915   2.689  0.9387 -0.6238  2.0339
  113SOL    HW2  339   2.077   2.061   2.702  0.7105  1.4367 -0.0964
  114SOL     OW  340   0.665   0.187   0.367  0.3891  0.1726  0.0407
  114SOL    HW1  341   0.702   0.159   0.276 -1.3188 -2.1318 -1.8752
  114SOL    HW2  342   0.735   0.223   0.429 -0.0714  2.7186  0.1533
  115SOL     OW  343   0.030   1.947   0.018 -0.4812 -0.1567  0.0094
  115SOL    HW1  344   0.023   1.849   0.040  1.4279  1.8897 -0.0965
  115SOL    HW2  345   0.112   1.969   3.047 -2.3511 -0.8819  1.9495
  116SOL     OW  346   2.917   1.331   1.888 -0.5086  0.4787 -0.1902
  116SOL    HW1  347   3.016   1.304   1.893 -0.3082  0.1439  0.2375
  116SOL    HW2  348   2.902   1.396   1.811  2.7333  2.3897 -2.7297
  117SOL     OW  349   1.936   0.311   1.381 -0.0411 -0.2630  0.3117
  117SOL    HW1  350   2.000   0.378   1.334 -0.7310  0.4246 -1.8156
  117SOL    HW2  351   1.842   0.345   1.377  1.8310 -2.8799 -1.1276
  118SOL     OW  352   2.797   2.776   2.089 -0.4810 -0.6485  0.4957
  118SOL    HW1  353   2.766   2.718   2.014  0.9728  1.5858  2.0785
  118SOL    HW2  354   2.873   2.738   2.139  0.5248  0.3185  1.9215
  119SOL     OW  355   0.335   1.644   1.590  0.1214  0.1538 -0.6860
  119SOL    HW1  356   0.386   1.565   1.550 -3.7555  0.9862 -1.9807
  119SOL    HW2  357   0.406   1.696   1.645 -1.6747 -0.3498 -1.9083
  120SOL     OW  358   0.379   1.323   1.776  0.0733 -0.2146 -0.0381
  120SOL    HW1  359   0.407   1.223   1.776 -3.1776 -1.1348 -2.4019
  120SOL    HW2  360   0.351   1.349   1.681 -1.3515  3.7269 -2.3443
  121SOL     OW  361   1.665   1.103   0.716 -0.2289 -0.4177 -0.5155
  121SOL    HW1  362   1.689   1.032   0.646 -0.5589  0.0417 -2.9536
  121SOL    HW2  363   1.660   1.056   0.807 -0.6358 -0.3263  0.5249
  122SOL     OW  364   2.359   2.295   2.830  0.4063 -0.4005 -0.5336
  122SOL    HW1  365   2.287   2.365   2.848  2.4997 -1.8675  0.9885
  122SOL    HW2  366   2.366   2.278   2.733  1.1621 -0.5521  1.0184
  123SOL     OW  367   0.268   0.038   0.192 -0.0511 -0.8074 -0.0692
  123SOL    HW1  368   0.268   0.031   0.290  0.3460 -2.5988 -1.9518
  123SOL    HW2  369   0.363   0.072   0.159  1.6772  0.0510  1.7143
  124SOL     OW  370   1.770   1.243   0.257  0.4669 -0.7123 -0.0529
  124SOL    HW1  371   1.844   1.298   0.309  2.8827 -0.3954 -1.4280
  124SOL    HW2  372   1.675   1.261   0.300  0.9676 -0.3483  0.3517
  125SOL     OW  373   0.028   0.848   2.187 -0.0122 -0.2116  0.2122
  125SOL    HW1  374   3.075   0.833   2.277  0.7434 -0.1573 -3.7953
  125SOL    HW2  375   0.132   0.851   2.200  1.6644 -1.8087  1.2334
  126SOL     OW  376   0.027   2.706   2.968 -0.0439 -0.0873 -0.3320
  126SOL    HW1  377   3.031   2.717   2.910  1.5369  0.9247  0.4161
  126SOL    HW2  378   0.053   2.794   3.017  2.5778  0.2180  0.5151
  127SOL     OW  379   2.850   1.829   0.117  0.0031 -0.4050  0.0410
  127SOL    HW1  380   2.872   1.876   0.206 -3.2999  3.2728 -0.1538
  127SOL    HW2  381   2.801   1.901   0.063 -0.7509  1.4737  0.0395
  128SOL     OW  382   0.987   1.046   0.967 -0.2536 -0.0370 -0.1079
  128SOL    HW1  383   1.047   1.114   1.018 -0.7338  0.7544  3.1723
  128SOL    HW2  384   0.896   1.021   1.010 -0.9319 -2.2555 -0.8174
  129SOL     OW  385   2.332   2.316   1.109 -0.0370 -0.2184 -0.3564
  129SOL    HW1  386   2.270   2.245   1.131  3.4190  0.2834 -1.1015
  129SOL    HW2  387   2.289   2.407   1.111  2.4682 -2.4963  1.2244
  130SOL     OW  388   2.012   0.777   0.181  0.2163  0.2138  0.1895
  130SOL    HW1  389   2.085   0.847   0.162 -1.7682 -1.7079 -0.5798
  130SOL    HW2  390   1.941   0.782   0.103 -2.4719  1.7409 -2.8794
  131SOL     OW  391   2.903   1.531   2.613 -0.1514  0.0613  0.9221
  131SOL    HW1  392   2.932   1.550   2.515  1.3219 -0.9499 -0.6383
  131SOL    HW2  393   2.967   1.573   2.680  0.8944  0.3940 -0.2123
  132SOL     OW  394   1.146   0.977   2.162 -0.4048  0.2500  0.5260
  132SOL    HW1  395   1.070   1.008   2.221 -1.9836  0.8687  0.8903
  132SOL    HW2  396   1.110   0.929   2.078  1.4688 -1.7922  0.2248
  133SOL     OW  397   0.438   1.304   0.823  0.0248  0.0957  0.4610
  133SOL    HW1  398   0.532   1.283   0.782  1.9011  1.5905 -1.0978
  133SOL    HW2  399   0.446   1.378   0.886 -0.1517 -0.0274 -0.0267
  134SOL     OW  400   0.051   1.578   3.074  0.6336  0.2951 -0.0470
  134SOL    HW1  401   0.099   1.601   0.073  0.5687 -0.2462 -1.3447
  134SOL    HW2  402   0.106   1.510   3.021 -1.2605  0.2404 -0.6306
  135SOL     OW  403   1.655   0.802   0.091 -0.4234  0.3437 -0.1962
  135SOL    HW1  404   1.567   0.801   0.039 -0.7977  0.0554 -2.2273
  135SOL    HW2  405   1.722   0.828   0.017 -0.4172  0.0177 -1.2955
  136SOL     OW  406   2.021   1.856   1.395  0.0873 -0.0820 -0.4802
  136SOL    HW1  407   1.996   1.761   1.395  0.0964  0.1713 -1.0550
  136SOL    HW2  408   1.937   1.910   1.389 -3.3402 -0.3056  2.2780
  137SOL     OW  409   2.379   2.565   0.821 -0.2926 -0.1584  0.4550
  137SOL    HW1  410   2.407   2.649   0.873 -1.4606 -1.1025 -0.5840
  137SOL    HW2  411   2.285   2.583   0.776 -1.4409  0.3054 -1.2483
  138SOL     OW  412   2.185   0.505   1.825 -0.0800 -0.5781  0.2707
  138SOL    HW1  413   2.100   0.492   1.875  3.3922 -0.6220  1.7008
  138SOL    HW2  414   2.200   0.418   1.774 -3.6252  2.4014 -0.7532
  139SOL     OW  415   2.640   2.336   2.886 -0.2505 -0.6470  0.3086
  139SOL    HW1  416   2.549   2.313   2.842  0.2882  0.8397 -1.5342
  139SOL    HW2  417   2.711   2.365   2.817  1.7088  0.0979  0.2932
  140SOL     OW  418   1.593   2.021   2.248  0.0814  0.1930 -0.2118
  140SOL    HW1  419   1.692   2.043   2.278  1.7862 -1.1152 -1.0092
  140SOL    HW2  420   1.582   1.918   2.240 -2.3110 -3.3942 -1.6021
  141SOL     OW  421   1.002   1.113   2.360  0.8954  0.9163  0.0917
  141SOL    HW1  422   1.052   1.194   2.320 -2.2601 -1.1811  1.4143
  141SOL    HW2  423   1.051   1.065   2.430 -1.5610  1.1648 -2.2620
  142SOL     OW  424   1.908   2.578   2.116 -0.3734  0.7465  0.1037
  142SOL    HW1  425   1.974   2.499   2.137 -0.0414  4.5907 -1.6296
  142SOL    HW2  426   1.950   2.661   2.085 -3.1526 -1.4974  0.3825
  143SOL     OW  427   1.218   2.358   0.379  0.0062  0.1890  0.0678
  143SOL    HW1  428   1.320   2.352   0.352  0.5622 -0.5894 -0.7285
  143SOL    HW2  429   1.217   2.383   0.478  2.2086 -1.3698 -0.9157
  144SOL     OW  430   0.831   2.694   0.466  0.5893  0.0964  0.7440
  144SOL    HW1  431   0.928   2.697   0.444 -0.4361 -0.9850 -1.8970
  144SOL    HW2  432   0.774   2.703   0.384 -1.4062 -0.9768  1.2625
  145SOL     OW  433   1.665   2.452   2.593 -0.8551  0.1593 -0.0734
  145SOL    HW1  434   1.615   2.534   2.552  2.0705  3.6326 -0.9262
  145SOL    HW2  435   1.669   2.456   2.691 -0.9789  1.6465 -2.4643
  146SOL     OW  436   1.972   2.663   0.165  0.3517  0.1293  0.0712
  146SOL    HW1  437   2.013   2.751   0.136  2.0662 -0.9124 -1.5186
  146SOL    HW2  438   1.896   2.682   0.239 -3.1666  2.0946  2.6364
  147SOL     OW  439   0.089   1.596   1.676 -0.1228  0.1254 -0.3698
  147SOL    HW1  440   0.186   1.618   1.656 -2.3194  0.6710 -0.0230
  147SOL    HW2  441   0.046   1.556   1.597  0.5512 -0.6153 -2.9094
  148SOL     OW  442   1.651   2.901   0.187 -0.5842 -0.1012  0.2717
  148SOL    HW1  443   1.732   2.961   0.210  0.0667  0.8725  3.7032
  148SOL    HW2  444   1.621   2.910   0.091 -1.0655  1.6588 -0.6259
  149SOL     OW  445   0.701   1.935   3.066  0.0306  0.2389  0.4407
  149SOL    HW1  446   0.739   1.959   2.974 -1.8403  0.5991  3.9033
  149SOL    HW2  447   0.633   2.003   0.014  0.6703 -0.0489  0.7952
  150SOL     OW  448   0.298   2.633   1.106  0.0220  0.1864  0.1265
  150SOL    HW1  449   0.311   2.701   1.180  0.0123  1.6443 -0.6963
  150SOL    HW2  450   0.197   2.618   1.094 -0.2535  0.1596 -0.5330
  151SOL     OW  451   0.401   1.272   3.061  0.5522 -0.4065 -0.1011
  151SOL    HW1  452   0.459   1.254   2.979  0.0182  1.2447 -1.7510
  151SOL    HW2  453   0.458   1.301   0.055  1.1716  2.3248  0.3274
  152SOL     OW  454   3.063   2.164   0.857  0.5667 -0.1789  0.5909
  152SOL    HW1  455   2.998   2.084   0.866 -0.9253  1.0806  0.8354
  152SOL    HW2  456   3.011   2.254   0.859  0.4189 -0.8225  2.5503
  153SOL     OW  457   1.580   2.203   0.718 -0.0856 -0.9876  0.3636
  153SOL    HW1  458   1.655   2.178   0.653 -0.3556 -2.6461  0.5901
  153SOL    HW2  459   1.505   2.138   0.706  1.5505 -0.2365  0.7034
  154SOL     OW  460   0.559   0.053   1.522 -0.2042  0.3053  0.2202
  154SOL    HW1  461   0.510   0.087   1.436 -0.0705  2.1269 -2.0580
  154SOL    HW2  462   0.629   0.117   1.560 -0.0025  0.7546  2.7219
  155SOL     OW  463   2.778   2.189   0.343 -0.0337  0.0306 -0.2696
  155SOL    HW1  464   2.803   2.254   0.418  1.9973 -1.5127  0.3257
  155SOL    HW2  465   2.754   2.238   0.258  0.3155  0.6114 -3.0534
  156SOL     OW  466   2.468   1.959   0.312  0.6398  0.7144 -0.3035
  156SOL    HW1  467   2.433   2.049   0.279  1.2651 -0.6363  1.6956
  156SOL    HW2  468   2.538   1.974   0.386  1.3902 -0.9858 -0.3919
  157SOL     OW  469   0.541   2.904   1.837 -0.5242 -0.2735  0.6147
  157SOL    HW1  470   0.568   2.986   1.894 -0.2306  1.6904  1.4907
  157SOL    HW2  471   0.508   2.831   1.892 -0.4629  2.7452 -1.0789
  158SOL     OW  472   1.264   0.600   1.030  0.3468  0.3704  0.0252
  158SOL    HW1  473   1.275   0.702   1.014 -0.1362 -2.1001 -2.0023
  158SOL    HW2  474   1.195   0.580   1.101  1.7893  2.2553 -2.1099
  159SOL     OW  475   1.894   1.036   0.008  0.1988  0.1432 -0.1793
  159SOL    HW1  476   1.798   1.051   0.043 -0.2962 -2.6640  0.0063
  159SOL    HW2  477   1.906   0.941   3.065  0.4419  1.1454 -1.4705
  160SOL     OW  478   1.119   1.917   0.518 -0.5252 -0.1390  0.1425
  160SOL    HW1  479   1.171   1.960   0.439  0.7964  3.5071  1.6134
  160SOL    HW2  480   1.054   1.988   0.554  4.7515  0.2958  2.3744
  161SOL     OW  481   2.570   2.044   2.499 -0.0370 -0.3060 -0.0172
  161SOL    HW1  482   2.664   2.079   2.521 -2.5067  0.3622  0.9078
  161SOL    HW2  483   2.570   1.941   2.516 -0.5494 -4.6345  1.0730
  162SOL     OW  484   0.136   2.331   1.471 -0.5246 -0.3179  0.2645
  162SOL    HW1  485   0.062   2.265   1.479 -1.1417  1.8016 -0.7262
  162SOL    HW2  486   0.150   2.345   1.369  0.7712 -0.5937 -0.8852
  163SOL     OW  487   0.207   0.647   2.711 -0.0768  0.0123 -0.7747
  163SOL    HW1  488   0.238   0.663   2.807  0.6048 -2.7937 -1.3099
  163SOL    HW2  489   0.204   0.733   2.654  1.5486 -1.3809  1.3913
  164SOL     OW  490   0.230   2.590   2.700 -0.1252 -0.0547  0.4681
  164SOL    HW1  491   0.195   2.504   2.737  1.6941  2.0233  1.5245
  164SOL    HW2  492   0.227   2.653   2.775 -1.5249 -3.1388 -1.9607
  165SOL     OW  493   2.456   0.834   1.628 -0.1832  0.3679 -0.3437
  165SOL    HW1  494   2.425   0.908   1.572 -1.5909 -0.7298  3.2152
  165SOL    HW2  495   2.552   0.805   1.616 -2.3828  0.8207  0.4108
  166SOL     OW  496   1.985   1.588   1.386 -0.0917 -0.4177 -0.4630
  166SOL    HW1  497   2.029   1.513   1.446  0.0801  0.7312  0.5893
  166SOL    HW2  498   1.924   1.556   1.313  0.0842  1.5775  1.8647
  167SOL     OW  499   0.170   0.876   2.590  0.4528 -0.6400 -0.4098
  167SOL    HW1  500   0.104   0.872   2.510 -1.0929 -0.3811 -1.4430
  167SOL    HW2  501   0.131   0.946   2.655  2.0562 -2.2741  2.7855
  168SOL     OW  502   2.089   0.311   2.652 -0.3895 -0.3363  0.2276
  168SOL    HW1  503   2.012   0.260   2.688  1.8444  1.4717 -2.6162
  168SOL    HW2  504   2.084   0.410   2.682 -2.7700  0.0352  0.3266
  169SOL     OW  505   0.703   1.014   3.062  0.2576 -0.2483  0.1026
  169SOL    HW1  506   0.623   0.982   0.026 -0.3545 -1.6665 -1.7504
  169SOL    HW2  507   0.689   1.005   2.961  2.8146  2.6606  0.7745
  170SOL     OW  508   0.919   1.175   1.783  0.1575 -0.2255 -0.2848
  170SOL    HW1  509   0.835   1.212   1.810  3.0335 -3.3927 -2.2281
  170SOL    HW2  510   0.997   1.213   1.838  0.6912  0.3357  1.5721
  171SOL     OW  511   1.305   2.712   1.181 -0.5988 -0.4194  0.0111
  171SOL    HW1  512   1.298   2.803   1.221  1.7136 -1.1433  0.9642
  171SOL    HW2  513   1.404   2.689   1.167 -1.1808  1.3225 -0.5405
  172SOL     OW  514   0.826   2.911   1.769  0.0941 -0.3665  0.3625
  172SOL    HW1  515   0.729   2.903   1.781  1.6563  2.4910 -0.3260
  172SOL    HW2  516   0.871   2.822   1.770  1.5971  1.8566  0.7519
  173SOL     OW  517   0.706   2.568   0.665  0.0244  0.2807  0.0879
  173SOL    HW1  518   0.766   2.613   0.597 -3.5165  0.2470  1.6278
  173SOL    HW2  519   0.685   2.637   0.735  2.9269  0.8068  0.7706
  174SOL     OW  520   2.196   0.090   0.415  0.2947  0.1074 -0.5400
  174SOL    HW1  521   2.104   0.071   0.453  1.4813 -1.2546 -0.3195
  174SOL    HW2  522   2.222   0.016   0.345  0.1805 -3.0601 -0.7733
  175SOL     OW  523   1.085   1.358   0.960 -0.4263  0.2675 -0.3259
  175SOL    HW1  524   1.110   1.454   0.963  0.8817 -0.1715  1.8917
  175SOL    HW2  525   0.989   1.353   0.931  1.1109 -0.3964 -0.8447
  176SOL     OW  526   0.963   1.869   0.861  0.3456  0.4492 -0.8263
  176SOL    HW1  527   1.011   1.949   0.813  0.8993 -2.3603  0.7851
  176SOL    HW2  528   0.907   1.907   0.941 -0.1088  0.9240  0.4558
  177SOL     OW  529   1.497   1.225   0.957  0.0267  0.3559 -0.3276
  177SOL    HW1  530   1.568   1.157   0.958 -0.2256  2.5913 -1.0755
  177SOL    HW2  531   1.508   1.308   0.897 -2.1103  0.8820 -0.5518
  178SOL     OW  532   2.229   1.589   0.486  0.5321  0.3041 -0.2591
  178SOL    HW1  533   2.332   1.606   0.485  2.8857 -0.6034  0.0464
  178SOL    HW2  534   2.214   1.510   0.418  2.0658 -0.5626 -2.4661
  179SOL     OW  535   1.277   2.919   0.117  0.4490 -0.1199  0.7940
  179SOL    HW1  536   1.240   2.842   0.170 -1.0303  1.3743 -1.1588
  179SOL    HW2  537   1.375   2.938   0.127  2.4617 -2.4278 -1.4070
  180SOL     OW  538   1.831   1.197   1.364 -0.1067  0.0407 -0.0394
  180SOL    HW1  539   1.774   1.228   1.443 -0.7064 -3.2034  0.3877
  180SOL    HW2  540   1.857   1.276   1.308  3.1937  0.0485  0.9922
  181SOL     OW  541   0.594   0.860   1.764  0.4746 -0.0602  0.1652
  181SOL    HW1  542   0.695   0.873   1.765 -0.0079 -3.2173 -0.3377
  181SOL    HW2  543   0.569   0.774   1.819 -0.8071  0.3059  0.6910
  182SOL     OW  544   2.862   0.981   2.602 -0.3262  0.3710  0.1173
  182SOL    HW1  545   2.766   0.967   2.638 -2.8464  0.4311 -0.6253
  182SOL    HW2  546   2.893   1.081   2.599  0.0942 -3.1594 -2.3268
  183SOL     OW  547   1.519   0.372   2.048  0.4465  0.3088 -0.5100
  183SOL    HW1  548   1.585   0.412   1.979  3.0681  0.1010 -0.7049
  183SOL    HW2  549   1.496   0.452   2.112  0.8121  2.1667 -0.7329
  184SOL     OW  550   0.687   0.581   1.194  0.5138 -0.4673 -0.1041
  184SOL    HW1  551   0.710   0.629   1.107 -0.6581  2.2095  0.1375
  184SOL    HW2  552   0.728   0.492   1.199 -2.8895  1.0008 -0.4792
  185SOL     OW  553   2.281   1.206   0.447  0.2002  0.5580 -0.0070
  185SOL    HW1  554   2.378   1.214   0.430  1.7767 -0.7458  3.1686
  185SOL    HW2  555   2.237   1.264   0.374  1.0609 -0.2768 -0.1454
  186SOL     OW  556   0.313   2.148   0.272  0.2938  0.1312  0.0392
  186SOL    HW1  557   0.218   2.122   0.263  2.5604  1.8633 -1.4901
  186SOL    HW2  558   0.360   2.170   0.182  2.8117  1.2434  1.6054
  187SOL     OW  559   1.797   1.916   2.951  0.0500  0.1341 -0.1706
  187SOL    HW1  560   1.820   1.821   2.978 -2.8006 -1.9202 -3.3072
  187SOL    HW2  561   1.870   1.987   2.972  0.5137 -0.3386  0.9028
  188SOL     OW  562   1.231   2.526   1.410  0.1431 -0.0486  0.6382
  188SOL    HW1  563   1.180   2.609   1.383  2.0070 -2.3186 -1.9004
  188SOL    HW2  564   1.328   2.525   1.371  0.4278  1.3173 -0.6314
  189SOL     OW  565   2.633   1.187   2.714 -0.8287 -0.4612 -0.0113
  189SOL    HW1  566   2.545   1.236   2.723  3.6365  1.4499 -0.5328
  189SOL    HW2  567   2.671   1.196   2.619  0.2069 -0.0371  0.1790
  190SOL     OW  568   0.917   2.680   2.259  0.2106  0.0336 -0.0998
  190SOL    HW1  569   0.828   2.659   2.209 -1.4008 -1.0996 -0.6475
  190SOL    HW2  570   0.894   2.717   2.351 -1.6652 -1.9868  2.0218
  191SOL     OW  571   2.627   1.141   1.184 -0.4889  0.1034 -0.0532
  191SOL    HW1  572   2.657   1.087   1.266  0.6761  2.6661 -1.0156
  191SOL    HW2  573   2.562   1.210   1.219  2.4004 -1.1270  0.4262
  192SOL     OW  574   2.136   0.526   1.016  0.6856 -0.1306 -0.2942
  192SOL    HW1  575   2.126   0.509   1.120 -0.7849 -2.8324  4.0874
  192SOL    HW2  576   2.182   0.450   0.974 -1.2129  2.9246  3.5835
  193SOL     OW  577   0.987   0.184   0.217  0.0480 -0.0711 -0.1834
  193SOL    HW1  578   1.078   0.179   0.165  0.2032  0.0753  1.8572
  193SOL    HW2  579   0.906   0.203   0.156  0.0170  0.4723  0.1573
  194SOL     OW  580   1.588   2.338   1.098  0.2571 -0.1874 -0.3308
  194SOL    HW1  581   1.595   2.361   0.996  0.4599  2.1649  0.5438
  194SOL    HW2  582   1.648   2.258   1.116  0.1918 -1.2261 -0.5179
  195SOL     OW  583   2.746   0.964   0.504 -0.1988 -0.0708 -0.9294
  195SOL    HW1  584   2.748   0.949   0.603 -2.9587 -2.3346 -1.0850
  195SOL    HW2  585   2.727   0.875   0.460 -2.8361  0.5557 -0.4286
  196SOL     OW  586   0.562   2.405   1.728  0.2336  0.7906 -0.5668
  196SOL    HW1  587   0.515   2.334   1.671 -1.9676 -2.8151 -0.9376
  196SOL    HW2  588   0.494   2.463   1.770  0.6947 -0.7710 -3.1013
  197SOL     OW  589   2.847   0.447   2.399 -0.3385 -0.0862 -0.3575
  197SOL    HW1  590   2.873   0.528   2.456  1.8860  0.5093 -1.2531
  197SOL    HW2  591   2.792   0.379   2.451 -1.2997  0.9360 -0.9056
  198SOL     OW  592   2.203   1.404   0.273  0.5210 -0.1987  0.3979
  198SOL    HW1  593   2.306   1.418   0.253 -0.6006  0.9941  0.1475
  198SOL    HW2  594   2.143   1.446   0.199  0.4112  1.5701 -1.9210
  199SOL     OW  595   2.377   0.651   1.924  0.2345 -0.3403 -0.2504
  199SOL    HW1  596   2.468   0.618   1.915 -3.5141  1.2161  3.2741
  199SOL    HW2  597   2.318   0.592   1.868  0.3071  0.9364  1.9162
  200SOL     OW  598   1.874   0.029   2.931  0.0075 -0.3831  0.3859
  200SOL    HW1  599   1.937   0.114   2.918  3.0768  2.9524 -0.5042
  200SOL    HW2  600   1.778   0.064   2.945  1.0728  0.6960 -0.4455
  201SOL     OW  601   2.592   0.142   1.064  0.1537  0.2389 -0.1504
  201SOL    HW1  602   2.586   0.155   1.159  3.1380 -2.1377 -4.9028
  201SOL    HW2  603   2.606   0.234   1.021 -0.6881  1.3084  0.1413
  202SOL     OW  604   2.984   2.746   0.346  0.2559 -0.0911 -0.3059
  202SOL    HW1  605   3.072   2.764   0.301  0.6433  0.6524  0.3080
  202SOL    HW2  606   2.989   2.686   0.431  0.1184  1.6247  2.3822
  203SOL     OW  607   1.760   1.791   0.639  0.5079 -0.0871 -0.4078
  203SOL    HW1  608   1.667   1.810   0.677  1.4792  0.1633 -1.5299
  203SOL    HW2  609   1.806   1.879   0.610 -1.9752  0.9599 -1.2340
  204SOL     OW  610   0.332   1.702   1.967 -0.6002 -0.0689 -0.0010
  204SOL    HW1  611   0.390   1.726   1.888 -1.3420  0.3874  1.0701
  204SOL    HW2  612   0.373   1.628   2.023  0.4007  1.4882  1.3188
  205SOL     OW  613   0.703   0.686   0.909 -0.0309 -0.4315 -0.4128
  205SOL    HW1  614   0.694   0.752   0.833 -0.5185  0.5159 -1.9839
  205SOL    HW2  615   0.793   0.708   0.961  1.3375 -0.9487  1.1845
  206SOL     OW  616   0.320   0.760   2.930 -0.3225  0.4199  0.8962
  206SOL    HW1  617   0.294   0.747   3.026 -0.0378 -2.1628 -2.5722
  206SOL    HW2  618   0.318   0.861   2.908 -1.1827 -0.0228  0.5809
  207SOL     OW  619   1.174   2.516   1.697  0.0000  0.2983 -0.1036
  207SOL    HW1  620   1.196   2.420   1.730  1.4912 -1.0768 -1.1014
  207SOL    HW2  621   1.198   2.530   1.599 -0.2737  1.6794  0.0642
  208SOL     OW  622   2.418   0.226   1.565  0.1629 -0.0806  0.1160
  208SOL    HW1  623   2.507   0.187   1.590 -0.1664 -0.4801 -0.7985
  208SOL    HW2  624   2.358   0.222   1.648  0.2488 -0.6949  0.2183
  209SOL     OW  625   1.938   0.720   0.622 -0.0100 -0.4281 -0.1231
  209SOL    HW1  626   1.924   0.705   0.724  0.9407 -1.4460  2.6305
  209SOL    HW2  627   1.873   0.788   0.587 -1.2950  1.5257 -2.1016
  210SOL     OW  628   2.583   1.193   0.428 -0.3221 -0.2546  0.0450
  210SOL    HW1  629   2.616   1.124   0.499 -0.3834  0.4246  4.3648
  210SOL    HW2  630   2.572   1.280   0.479  0.2621  1.8669  2.3262
  211SOL     OW  631   1.099   3.058   3.020  0.5954  0.2189 -0.0065
  211SOL    HW1  632   1.084   0.062   3.063  0.7443 -0.2230  1.4405
  211SOL    HW2  633   1.170   3.011   3.077  1.5302  0.1783  0.4647
  212SOL     OW  634   1.938   1.983   0.573  0.1251 -0.0675  0.2847
  212SOL    HW1  635   2.003   1.975   0.652  0.8364  2.1923 -0.7149
  212SOL    HW2  636   1.995   2.005   0.492 -0.3571 -2.2521  0.8295
  213SOL     OW  637   2.376   0.032   0.101  0.4519 -0.4272  0.2592
  213SOL    HW1  638   2.337   3.059   0.025  0.2750  0.5278 -1.1716
  213SOL    HW2  639   2.390   0.124   0.065  1.6778 -1.3083 -0.4482
  214SOL     OW  640   1.161   2.357   2.115  0.0037  0.6475  0.2133
  214SOL    HW1  641   1.172   2.452   2.144 -0.1009  0.1082 -2.9767
  214SOL    HW2  642   1.250   2.308   2.088 -4.1450 -2.3341  0.9499
  215SOL     OW  643   0.269   1.462   1.158  0.0005  0.6295 -0.7027
  215SOL    HW1  644   0.183   1.439   1.101  0.3486 -1.1293  1.1986
  215SOL    HW2  645   0.342   1.503   1.100  0.2125  2.0980  0.0488
  216SOL     OW  646   0.437   2.722   2.562 -0.1439  0.1457  0.4706
  216SOL    HW1  647   0.516   2.660   2.563 -1.4872  2.1445 -0.7691
  216SOL    HW2  648   0.360   2.682   2.616 -0.4369 -2.2896  0.6588
  217SOL     OW  649   2.667   1.423   1.458 -0.2186  0.2134  0.0531
  217SOL    HW1  650   2.711   1.504   1.408  1.5861 -0.2371 -0.6399
  217SOL    HW2  651   2.717   1.402   1.546  0.7972 -3.6165  0.3578
  218SOL     OW  652   0.898   2.150   1.480  0.4766 -0.6713  0.2260
  218SOL    HW1  653   0.793   2.147   1.473 -0.0582  0.0039 -1.3049
  218SOL    HW2  654   0.917   2.151   1.579 -0.3260 -0.8763 -0.8560
  219SOL     OW  655   2.094   1.828   0.157  0.3037 -0.4331  0.2437
  219SOL    HW1  656   2.150   1.848   0.238 -0.6721 -0.7935  0.2809
  219SOL    HW2  657   2.152   1.849   0.071  0.4995  0.9291 -2.0954
  220SOL     OW  658   2.092   0.238   2.985 -0.3034 -0.1138 -0.3725
  220SOL    HW1  659   2.090   0.338   3.010  1.7945 -1.9458  0.2448
  220SOL    HW2  660   2.189   0.209   2.981 -1.6427  0.7489 -2.5276
  221SOL     OW  661   3.026   0.800   0.279  0.5387  0.2129 -0.3844
  221SOL    HW1  662   3.074   0.715   0.314 -3.0264 -0.4468 -0.1010
  221SOL    HW2  663   0.005   0.875   0.292 -0.3806 -0.9670  0.7608
  222SOL     OW  664   1.606   1.496   0.828  0.6328 -0.0130  0.5170
  222SOL    HW1  665   1.591   1.435   0.746  2.9843 -1.0518  0.4619
  222SOL    HW2  666   1.701   1.523   0.835 -4.0653  1.8784 -0.7598
  223SOL     OW  667   1.082   0.405   2.870  0.4343 -0.5584  0.2604
  223SOL    HW1  668   1.145   0.336   2.904  1.7288 -0.7406 -0.7098
  223SOL    HW2  669   0.986   0.396   2.898  0.2359  0.6839  1.1002
  224SOL     OW  670   0.820   2.913   1.027  0.3326  0.1738  0.0423
  224SOL    HW1  671   0.772   2.941   1.114 -1.1485  0.4165 -0.0123
  224SOL    HW2  672   0.924   2.907   1.031  0.3130 -1.6360 -1.8199
  225SOL     OW  673   0.917   2.921   2.109  0.1657 -0.4386  0.6663
  225SOL    HW1  674   0.922   2.821   2.089  0.5589 -1.5426  0.3224
  225SOL    HW2  675   0.827   2.934   2.152 -0.4463  0.7588 -2.3661
  226SOL     OW  676   1.373   1.639   0.826 -0.3085 -0.0424 -0.0614
  226SOL    HW1  677   1.411   1.736   0.812 -0.2334 -0.2027 -1.2185
  226SOL    HW2  678   1.452   1.574   0.845  4.1844  0.5210  1.3355
  227SOL     OW  679   0.401   2.021   1.373 -0.0442 -0.0099  0.2219
  227SOL    HW1  680   0.305   2.035   1.393  2.4109 -0.3872  1.5219
  227SOL    HW2  681   0.419   1.972   1.287 -0.8774  0.6264  2.2267
  228SOL     OW  682   0.076   1.782   0.606 -0.5683  0.3678  0.0128
  228SOL    HW1  683   0.165   1.744   0.590 -1.8619 -0.6296  0.5697
  228SOL    HW2  684   0.081   1.881   0.624  1.0562 -1.9071  2.1771
  229SOL     OW  685   2.661   0.186   2.941 -0.1022 -0.7285 -0.0892
  229SOL    HW1  686   2.595   0.246   2.989  1.9975 -2.6936  0.2739
  229SOL    HW2  687   2.625   0.096   2.923  0.3886 -1.9791  0.3331
  230SOL     OW  688   2.567   0.541   0.320 -0.0677  0.1243 -0.0897
  230SOL    HW1  689   2.615   0.451   0.296  0.4915 -0.7347  1.7053
  230SOL    HW2  690   2.532   0.587   0.235  1.7779  2.1321 -0.7261
  231SOL     OW  691   2.081   1.553   0.086  0.0353 -0.3871 -0.3815
  231SOL    HW1  692   2.011   1.548   0.013  1.8167 -1.7144  0.3587
  231SOL    HW2  693   2.097   1.651   0.110  0.0483  0.1652 -1.3476
  232SOL     OW  694   1.973   2.067   1.043 -0.1177 -0.1543 -0.1715
  232SOL    HW1  695   1.892   2.008   1.043  1.7268  1.4126 -1.6757
  232SOL    HW2  696   2.032   2.042   0.963  1.9520 -0.3259 -0.4555
  233SOL     OW  697   0.212   2.840   1.516  0.3413  0.2289 -0.0638
  233SOL    HW1  698   0.206   2.740   1.548 -2.2887  0.6419 -0.0660
  233SOL    HW2  699   0.121   2.869   1.480  3.1976 -0.8335 -0.5563
  234SOL     OW  700   0.725   0.231   2.668  0.3045  0.1614  0.1007
  234SOL    HW1  701   0.811   0.230   2.611 -0.6467 -1.1679 -0.6274
  234SOL    HW2  702   0.685   0.327   2.671  1.5384  1.5796 -0.1058
  235SOL     OW  703   2.570   1.143   1.854  0.1926 -0.1898  0.1735
  235SOL    HW1  704   2.500   1.076   1.892 -1.7202  0.4264 -0.5551
  235SOL    HW2  705   2.547   1.160   1.754  0.9318  0.8544 -0.6849
  236SOL     OW  706   1.342   2.808   1.516  0.1618 -0.0047 -0.0668
  236SOL    HW1  707   1.259   2.829   1.454 -1.9347  2.1826  0.9632
  236SOL    HW2  708   1.418   2.756   1.468 -0.1377  0.5216  0.1752
  237SOL     OW  709   0.644   1.508   2.701  0.7886  0.6330 -0.3068
  237SOL    HW1  710   0.657   1.500   2.600 -2.9831  0.2622  1.0891
  237SOL    HW2  711   0.601   1.597   2.726  1.7216  0.5126  1.0675
  238SOL     OW  712   0.911   0.672   2.307 -0.0268 -0.6494  0.6364
  238SOL    HW1  713   1.005   0.660   2.342 -0.4829  2.3872 -2.7846
  238SOL    HW2  714   0.844   0.631   2.371  0.7325 -2.2821 -1.1261
  239SOL     OW  715   0.650   1.702   2.182 -0.3596 -0.3177 -0.2846
  239SOL    HW1  716   0.581   1.771   2.157  0.7736  1.2746  1.4002
  239SOL    HW2  717   0.726   1.755   2.227 -0.7162  0.4404  2.8808
  240SOL     OW  718   2.288   2.931   0.279 -0.2369 -0.4534  0.0079
  240SOL    HW1  719   2.323   2.998   0.212 -1.3363  2.5022  0.5463
  240SOL    HW2  720   2.346   2.947   0.365  1.1098 -0.1980  2.8517
  241SOL     OW  721   0.315   1.181   0.286  0.0327  0.1365  0.7176
  241SOL    HW1  722   0.339   1.183   0.384 -2.4657 -0.5721 -2.7844
  241SOL    HW2  723   0.387   1.227   0.228 -1.4132  1.3364 -1.9010
  242SOL     OW  724   1.549   2.654   1.417  0.3813 -1.0772 -0.2201
  242SOL    HW1  725   1.609   2.578   1.453  0.7706 -0.2516 -2.4441
  242SOL    HW2  726   1.554   2.656   1.313  0.7182 -0.6424  0.1662
  243SOL     OW  727   0.791   2.480   1.849 -0.0247  0.4392 -0.1934
  243SOL    HW1  728   0.861   2.531   1.793 -0.0525 -1.6309 -0.2723
  243SOL    HW2  729   0.716   2.447   1.787  1.2050 -1.0402  0.9435
  244SOL     OW  730   2.332   0.692   2.587 -0.4793  0.0487  0.0781
  244SOL    HW1  731   2.245   0.645   2.588  1.1211  1.0371  0.7272
  244SOL    HW2  732   2.337   0.783   2.633  2.6717  3.1585  0.4898
  245SOL     OW  733   1.564   2.620   1.155 -0.5357  0.0148  0.0606
  245SOL    HW1  734   1.545   2.525   1.167 -0.3433  3.1344  1.3835
  245SOL    HW2  735   1.625   2.649   1.078  0.9344  1.7276  3.2118
  246SOL     OW  736   1.475   0.077   0.283 -0.3233 -0.0502  0.2381
  246SOL    HW1  737   1.489   0.025   0.195  1.1193 -1.1085 -0.2581
  246SOL    HW2  738   1.386   0.062   0.329  3.0840  2.9556 -0.2696
  247SOL     OW  739   1.733   0.547   1.682 -0.8123 -0.0936 -0.1825
  247SOL    HW1  740   1.674   0.520   1.608  0.8696  0.3326  2.0558
  247SOL    HW2  741   1.761   0.458   1.730 -0.2724 -2.5031  0.3087
  248SOL     OW  742   0.049   2.142   1.906 -0.3336 -0.1643  0.2493
  248SOL    HW1  743   0.142   2.155   1.863  0.9055  0.9970 -1.0206
  248SOL    HW2  744   3.081   2.076   1.845 -0.0196 -0.6876  1.9426
  249SOL     OW  745   0.460   0.392   0.216 -0.1927  0.3598 -0.1712
  249SOL    HW1  746   0.393   0.468   0.219  0.0510 -1.0777  0.6327
  249SOL    HW2  747   0.483   0.365   0.313  0.3375  0.7713 -0.3374
  250SOL     OW  748   2.528   0.191   2.280  0.3761 -0.1133  0.0062
  250SOL    HW1  749   2.456   0.122   2.316  0.8117 -0.7952 -0.3199
  250SOL    HW2  750   2.504   0.230   2.189  0.6744  0.0966 -0.6500
  251SOL     OW  751   1.478   0.524   3.039  0.0579  0.3056  0.4553
  251SOL    HW1  752   1.388   0.502   3.077  1.8366 -1.1264  0.9192
  251SOL    HW2  753   1.486   0.618   2.999  0.5343  1.2726 -2.5399
  252SOL     OW  754   1.186   2.638   2.180 -0.0839 -0.7782 -0.2208
  252SOL    HW1  755   1.088   2.636   2.209  0.3443  0.8553 -0.4109
  252SOL    HW2  756   1.199   2.710   2.111 -0.7288 -1.5116  2.3962
  253SOL     OW  757   2.702   2.658   0.518 -0.6462 -0.3145  0.1488
  253SOL    HW1  758   2.755   2.738   0.475  0.5681 -0.7980 -1.2155
  253SOL    HW2  759   2.624   2.625   0.459  2.0604  1.5291 -1.7999
  254SOL     OW  760   2.285   1.157   1.144 -0.2786  0.2383  0.2022
  254SOL    HW1  761   2.346   1.213   1.200 -0.4830  1.5289 -0.9482
  254SOL    HW2  762   2.313   1.158   1.044 -1.0342  1.3263 -0.0254
  255SOL     OW  763   0.615   2.719   1.264 -0.4386  0.3350  0.0687
  255SOL    HW1  764   0.657   2.811   1.257  1.8984  0.1676 -0.8064
  255SOL    HW2  765   0.603   2.670   1.173 -0.8305 -2.8430 -2.1211
  256SOL     OW  766   1.809   1.654   1.617 -0.1017 -0.5418 -0.7252
  256SOL    HW1  767   1.812   1.569   1.684  0.8416 -0.9264  1.2307
  256SOL    HW2  768   1.885   1.647   1.552  1.4097 -0.4085  0.1342
  257SOL     OW  769   0.457   2.197   2.347 -0.1893 -0.1244 -0.4513
  257SOL    HW1  770   0.519   2.272   2.374  1.1724 -1.9567  0.9751
  257SOL    HW2  771   0.432   2.144   2.430 -1.8201 -1.4585 -0.8360
  258SOL     OW  772   0.665   2.742   0.861 -0.3852  0.3194  0.4356
  258SOL    HW1  773   0.725   2.803   0.919  1.7300  1.4336 -0.4422
  258SOL    HW2  774   0.588   2.698   0.917 -0.0219  0.5196  3.5623
  259SOL     OW  775   1.414   0.551   2.649 -0.5327 -0.4976 -0.2678
  259SOL    HW1  776   1.494   0.621   2.650  1.4728  3.2055 -0.0306
  259SOL    HW2  777   1.321   0.595   2.673  1.3275 -0.8566  2.0178
  260SOL     OW  778   0.419   0.430   0.872 -0.5114  0.3307  0.1672
  260SOL    HW1  779   0.367   0.401   0.793 -1.7804 -0.8866  1.5361
  260SOL    HW2  780   0.518   0.431   0.851 -0.9115 -2.3643  0.9648
  261SOL     OW  781   0.760   0.081   2.374  0.4365 -0.2937 -0.4388
  261SOL    HW1  782   0.733   0.030   2.293 -4.0198 -0.1626 -0.0812
  261SOL    HW2  783   0.856   0.063   2.415  1.9114 -0.5925  3.4726
  262SOL     OW  784   0.947   2.674   1.717 -0.0111  0.6737 -0.0374
  262SOL    HW1  785   0.933   2.679   1.616 -0.1695 -0.3672  0.7692
  262SOL    HW2  786   1.028   2.617   1.745  1.8503  0.6729 -1.6369
  263SOL     OW  787   0.839   2.048   2.827  0.1511 -0.3463 -0.0175
  263SOL    HW1  788   0.801   2.098   2.747  2.7514 -0.1729  1.6309
  263SOL    HW2  789   0.929   2.086   2.846 -1.5535 -0.1165  1.9205
  264SOL     OW  790   1.549   1.568   1.092 -0.0567  0.2569 -0.2984
  264SOL    HW1  791   1.552   1.671   1.088 -2.5981 -0.8983  1.8209
  264SOL    HW2  792   1.551   1.530   0.996 -0.9305  0.8104  0.4338
  265SOL     OW  793   0.973   2.368   0.258 -0.6170  0.5682  0.1822
  265SOL    HW1  794   1.065   2.373   0.301 -0.4884 -0.4635 -0.7466
  265SOL    HW2  795   0.947   2.463   0.227 -0.1708  1.4478 -0.3496
  266SOL     OW  796   2.807   0.689   0.863 -0.0181 -1.0144 -0.1046
  266SOL    HW1  797   2.759   0.672   0.775 -0.7798  0.2848  2.4123
  266SOL    HW2  798   2.876   0.616   0.884 -1.2580  1.6933 -0.2513
  267SOL     OW  799   0.170   1.619   0.204 -0.3522  0.2446  0.1806
  267SOL    HW1  800   0.177   1.546   0.273  0.7399 -0.1822 -0.8431
  267SOL    HW2  801   0.219   1.702   0.234  1.6694 -0.7820  0.2894
  268SOL     OW  802   1.439   0.329   0.192 -0.0984  0.2184 -0.0749
  268SOL    HW1  803   1.506   0.397   0.231  0.8909  2.6245  0.7958
  268SOL    HW2  804   1.462   0.236   0.227 -0.0544  2.2539 -1.8668
  269SOL     OW  805   2.762   0.712   2.121  0.9329 -0.2018  0.7095
  269SOL    HW1  806   2.721   0.715   2.026 -0.8227  1.1429 -0.1693
  269SOL    HW2  807   2.823   0.631   2.134  2.3122  0.0603 -0.5772
  270SOL     OW  808   2.952   1.125   0.415 -0.0228  1.0643 -0.4733
  270SOL    HW1  809   2.869   1.071   0.444 -0.7716 -0.4514  0.3298
  270SOL    HW2  810   2.966   1.117   0.314  1.2705  2.0727 -0.4897
  271SOL     OW  811   2.864   1.514   2.097  0.1831  0.3250 -0.1951
  271SOL    HW1  812   2.925   1.463   2.031  1.1176 -0.1754  1.8257
  271SOL    HW2  813   2.874   1.618   2.106  1.1479  1.1616  0.5690
  272SOL     OW  814   2.437   2.469   1.889 -0.4890 -0.0865  0.4214
  272SOL    HW1  815   2.526   2.504   1.918  0.5422  1.7084  0.3166
  272SOL    HW2  816   2.359   2.532   1.916  0.9984  0.5194 -0.4913
  273SOL     OW  817   0.281   2.493   0.180  0.2274 -0.2167  0.0947
  273SOL    HW1  818   0.328   2.456   0.261  0.1844  3.2508 -4.1152
  273SOL    HW2  819   0.183   2.482   0.199 -2.5539  1.7094  1.1415
  274SOL     OW  820   0.733   2.293   0.630  0.4122  0.3178 -0.0218
  274SOL    HW1  821   0.724   2.393   0.651 -0.5112 -1.1923  1.8318
  274SOL    HW2  822   0.779   2.244   0.711  1.2245  0.7899  2.8483
  275SOL     OW  823   1.672   1.921   2.718 -0.4678  0.1853  0.0108
  275SOL    HW1  824   1.740   1.922   2.790  2.5292  2.2667  1.0446
  275SOL    HW2  825   1.710   1.885   2.632  0.2736  1.0421  0.2904
  276SOL     OW  826   2.513   1.435   2.225  0.2449 -0.3133 -0.2903
  276SOL    HW1  827   2.545   1.391   2.138  0.1467  2.8382  1.2328
  276SOL    HW2  828   2.523   1.534   2.214 -0.7505 -2.6421  0.4921
  277SOL     OW  829   2.167   0.072   0.794  0.2654  0.4387  0.1436
  277SOL    HW1  830   2.097   0.139   0.768 -0.3900  1.2449  1.3382
  277SOL    HW2  831   2.124   0.002   0.853  1.7961  1.0651  0.7416
  278SOL     OW  832   1.492   0.325   2.472  0.3488 -0.3469  0.1823
  278SOL    HW1  833   1.430   0.246   2.485 -0.9024  0.9272 -0.5165
  278SOL    HW2  834   1.444   0.400   2.518 -0.5044 -2.6358 -1.5123
  279SOL     OW  835   1.120   2.825   0.982  0.9954 -0.1462 -0.4529
  279SOL    HW1  836   1.183   2.788   1.051 -1.3228 -2.1146  1.9654
  279SOL    HW2  837   1.092   2.761   0.911 -2.6962  2.6858  0.3095
  280SOL     OW  838   1.241   1.219   0.721 -0.6384 -0.2120  0.8033
  280SOL    HW1  839   1.224   1.199   0.619  0.2203 -1.6173 -1.4948
  280SOL    HW2  840   1.170   1.178   0.772 -0.9516  1.3078 -0.6960
  281SOL     OW  841   2.210   1.902   0.431  0.4404 -0.1419 -0.5723
  281SOL    HW1  842   2.195   1.804   0.457  2.2088  1.3976  0.0394
  281SOL    HW2  843   2.303   1.923   0.396 -2.0989  0.4832 -0.9840
  282SOL     OW  844   2.861   1.351   0.544 -0.4785  0.6541  0.3435
  282SOL    HW1  845   2.879   1.260   0.504 -0.4504  1.2293 -0.4307
  282SOL    HW2  846   2.894   1.416   0.477  0.5452 -4.5230  3.6094
  283SOL     OW  847   1.681   2.896   2.616  0.3630  0.0211 -0.0480
  283SOL    HW1  848   1.706   2.937   2.530 -0.6415  1.4190  1.3073
  283SOL    HW2  849   1.770   2.864   2.659  2.0271 -2.0206 -0.6768
  284SOL     OW  850   0.518   0.058   2.638 -0.0101  0.3565  0.2285
  284SOL    HW1  851   0.605   0.110   2.651 -1.8751  1.6434 -0.6751
  284SOL    HW2  852   0.443   0.087   2.701 -2.2025  0.7807 -0.9210
  285SOL     OW  853   1.856   1.598   2.962 -0.0078  0.3848 -0.3178
  285SOL    HW1  854   1.759   1.577   2.977  2.3306 -2.0779 -0.3761
  285SOL    HW2  855   1.879   1.600   2.862 -0.8072 -0.3648  0.5533
  286SOL     OW  856   1.661   2.160   1.527 -0.1124 -0.6931 -0.2347
  286SOL    HW1  857   1.588   2.094   1.505 -0.4950 -1.0342 -0.9566
  286SOL    HW2  858   1.719   2.123   1.603  1.1286 -1.0179  2.9665
  287SOL     OW  859   1.718   0.008   1.522  0.4419  0.1589  0.0842
  287SOL    HW1  860   1.679   0.026   1.616 -0.1624  2.2134  1.7067
  287SOL    HW2  861   1.713   0.089   1.461  2.8321 -0.9267 -1.1028
  288SOL     OW  862   0.408   2.720   2.023  0.3912 -0.1530  0.3681
  288SOL    HW1  863   0.389   2.635   1.964  0.0463  1.1717  0.3180
  288SOL    HW2  864   0.415   2.687   2.119 -1.5707 -0.6226  0.4251
  289SOL     OW  865   0.330   1.747   0.828  0.0982  0.4963 -0.0758
  289SOL    HW1  866   0.281   1.769   0.916 -0.3619 -2.5331  0.2282
  289SOL    HW2  867   0.361   1.838   0.790  2.2183 -1.7118 -1.1314
  290SOL     OW  868   0.897   2.113   1.747  0.6950 -0.3188 -0.1344
  290SOL    HW1  869   0.859   2.024   1.780  1.2867  0.2259 -2.3225
  290SOL    HW2  870   0.913   2.177   1.824  0.3418  1.2111 -2.5498
  291SOL     OW  871   1.720   0.116   0.402  0.5246 -1.0128 -0.6235
  291SOL    HW1  872   1.621   0.123   0.372 -1.1351 -0.3410  0.6205
  291SOL    HW2  873   1.763   0.036   0.363  1.0461 -1.3750  1.2253
  292SOL     OW  874   0.261   0.388   1.325 -0.1281  0.0343  0.0608
  292SOL    HW1  875   0.328   0.435   1.259  1.0561 -0.6528 -1.0524
  292SOL    HW2  876   0.238   0.451   1.405 -0.1777  2.6528  2.3125
  293SOL     OW  877   2.433   1.551   1.121 -0.4638  0.1096 -0.1438
  293SOL    HW1  878   2.506   1.623   1.106 -0.9046  1.4073 -1.4428
  293SOL    HW2  879   2.435   1.479   1.046 -1.3049  2.2245  1.7757
  294SOL     OW  880   0.338   0.033   2.403 -0.5591 -0.6661  0.1933
  294SOL    HW1  881   0.298   3.030   2.404 -0.1171  1.5600  1.0828
  294SOL    HW2  882   0.396   0.044   2.485 -0.5310  0.4461 -1.2623
  295SOL     OW  883   0.880   1.359   0.508 -0.6707 -0.0505 -0.1867
  295SOL    HW1  884   0.957   1.374   0.576 -1.0277 -1.1369  1.8861
  295SOL    HW2  885   0.907   1.293   0.435 -1.0648 -0.7031 -1.6748
  296SOL     OW  886   2.355   1.177   0.888 -0.0207  0.7076  0.1815
  296SOL    HW1  887   2.284   1.173   0.814  0.8598 -2.5947 -0.2137
  296SOL    HW2  888   2.398   1.266   0.882 -0.4277 -1.6118  2.4301
  297SOL     OW  889   1.761   0.437   2.604 -0.5854 -0.5355  0.3053
  297SOL    HW1  890   1.662   0.418   2.586 -3.0323 -2.4525  1.6719
  297SOL    HW2  891   1.807   0.456   2.516  0.0156  0.2499 -1.7594
  298SOL     OW  892   0.973   0.302   2.597 -0.4602 -0.3232  0.2737
  298SOL    HW1  893   1.038   0.340   2.660 -0.6682  1.8566 -0.3428
  298SOL    HW2  894   0.975   0.350   2.508  0.0319  1.9789  0.2693
  299SOL     OW  895   1.048   0.552   1.832 -0.5750 -0.1330 -0.0122
  299SOL    HW1  896   0.978   0.549   1.762 -0.4423 -0.3930  3.8179
  299SOL    HW2  897   1.092   0.643   1.834 -0.8974  0.9428  0.8637
  300SOL     OW  898   2.666   0.120   1.618 -0.2433 -0.5186 -0.4149
  300SOL    HW1  899   2.703   0.086   1.529  2.0340  3.0540  0.0278
  300SOL    HW2  900   2.737   0.143   1.686 -2.1829  1.6036 -0.9305
  301SOL     OW  901   1.813   0.793   1.577 -0.0445 -0.0470 -0.2916
  301SOL    HW1  902   1.724   0.842   1.567 -0.3860  0.3954  0.2382
  301SOL    HW2  903   1.801   0.706   1.632  1.3402 -0.4776  2.6360
  302SOL     OW  904   0.821   2.737   2.690 -0.3454  0.1890 -0.2775
  302SOL    HW1  905   0.824   2.769   2.595 -3.4573 -4.6913 -0.0671
  302SOL    HW2  906   0.870   2.790   2.761 -2.4532  4.5289  1.4037
  303SOL     OW  907   1.938   1.845   1.747 -0.0681  0.0381 -0.3922
  303SOL    HW1  908   1.903   1.940   1.730 -3.9626  0.9096  1.6558
  303SOL    HW2  909   1.890   1.778   1.689 -0.1230  1.8823  2.0233
  304SOL     OW  910   0.520   3.067   0.480 -0.2296  0.0284 -0.6960
  304SOL    HW1  911   0.565   0.064   0.441 -2.5758  0.0686 -0.1587
  304SOL    HW2  912   0.584   3.009   0.535 -0.2071  0.0519 -1.8397
  305SOL     OW  913   1.364   0.850   0.306 -0.3505 -0.2168  0.2115
  305SOL    HW1  914   1.387   0.950   0.301 -1.5572  1.9337  0.4327
  305SOL    HW2  915   1.426   0.807   0.376 -0.1358 -0.0878  1.1613
  306SOL     OW  916   0.550   1.376   0.190  0.1176  0.1060 -0.2348
  306SOL    HW1  917   0.648   1.390   0.201  0.0551  0.7262  1.7775
  306SOL    HW2  918   0.506   1.420   0.273  1.1210  1.7589  2.6963
  307SOL     OW  919   0.588   0.633   1.940 -0.6782  0.1675 -0.7237
  307SOL    HW1  920   0.668   0.641   2.004  1.8594 -3.6690  0.2314
  307SOL    HW2  921   0.583   0.543   1.897 -0.5360  0.6875  0.3338
  308SOL     OW  922   0.585   0.129   1.183  0.3080  0.3100 -0.5709
  308SOL    HW1  923   0.605   0.134   1.081 -2.2744  0.4180 -1.7699
  308SOL    HW2  924   0.487   0.149   1.213 -1.3219 -0.2425  4.3567
  309SOL     OW  925   2.252   0.927   0.131 -0.6099  0.0536 -0.0664
  309SOL    HW1  926   2.343   0.896   0.102  0.5480  1.6051  2.2310
  309SOL    HW2  927   2.225   1.006   0.080  0.2369 -3.5451  2.5018
  310SOL     OW  928   1.345   1.521   3.044 -0.0231 -0.1591 -0.1196
  310SOL    HW1  929   1.290   1.437   3.027 -1.4992 -4.1770 -1.3704
  310SOL    HW2  930   1.294   1.610   3.024 -2.0269  1.6026 -1.6300
  311SOL     OW  931   1.829   2.496   2.390  0.8090  0.2622  0.0514
  311SOL    HW1  932   1.763   2.486   2.316  2.2885 -0.3668  2.4936
  311SOL    HW2  933   1.777   2.475   2.472  1.2987  0.6390  1.1939
  312SOL     OW  934   2.275   2.948   3.000 -0.3719  0.0336 -0.2723
  312SOL    HW1  935   2.285   2.978   2.903 -0.1730 -1.2680  4.3640
  312SOL    HW2  936   2.184   2.909   3.016  2.2075 -1.4084 -1.1556
  313SOL     OW  937   0.595   0.754   0.337  0.1480  0.5369  0.1388
  313SOL    HW1  938   0.536   0.718   0.414  0.5948  0.0899  1.8798
  313SOL    HW2  939   0.684   0.793   0.375 -0.9086  0.6218  2.9738
  314SOL     OW  940   2.616   1.473   0.034 -0.0221  0.0791 -0.0048
  314SOL    HW1  941   2.584   1.550   3.057  0.8784 -1.4801 -0.6063
  314SOL    HW2  942   2.709   1.492   0.069 -4.1772  0.1993 -1.4360
  315SOL     OW  943   1.620   0.683   1.884 -0.2079  0.0946 -0.9429
  315SOL    HW1  944   1.656   0.626   1.807 -0.8960 -2.5632  1.0561
  315SOL    HW2  945   1.688   0.754   1.916  1.6585 -0.7487  0.0407
  316SOL     OW  946   0.012   0.820   0.596 -0.1846 -0.5589  0.6019
  316SOL    HW1  947   0.105   0.855   0.575  1.1889  1.3771  0.7492
  316SOL    HW2  948   3.051   0.890   0.656 -2.6694 -2.2662  1.1788
  317SOL     OW  949   0.753   0.177   0.096 -0.0102 -0.2038  0.3348
  317SOL    HW1  950   0.785   0.210   0.009 -0.7120  1.3631  0.3775
  317SOL    HW2  951   0.653   0.155   0.094  0.1819  1.1433  1.9867
  318SOL     OW  952   2.361   2.630   1.242  0.2478  0.1545  0.1189
  318SOL    HW1  953   2.456   2.653   1.278  0.4021  0.8634  0.0347
  318SOL    HW2  954   2.288   2.628   1.310  0.8468 -1.6247 -5.3801
  319SOL     OW  955   1.068   1.447   0.659  0.0872 -0.2865 -0.1864
  319SOL    HW1  956   1.128   1.379   0.705 -1.0757  1.1737 -0.7471
  319SOL    HW2  957   1.121   1.523   0.615 -0.2179  2.9119  0.8074
  320SOL     OW  958   0.603   2.321   1.041 -0.1999  0.5462  0.3501
  320SOL    HW1  959   0.513   2.273   1.014 -0.4246 -0.7861  1.5660
  320SOL    HW2  960   0.684   2.308   0.977 -2.2491 -2.3304  0.6033
  321SOL     OW  961   2.230   2.504   2.251  0.5797  0.4094 -0.9399
  321SOL    HW1  962   2.227   2.400   2.242  0.2603  0.8767 -1.5221
  321SOL    HW2  963   2.203   2.546   2.166  1.9279 -0.6453  0.8798
  322SOL     OW  964   2.795   2.439   2.688  0.3695 -0.2623  0.3645
  322SOL    HW1  965   2.853   2.418   2.605  0.4956  1.5044 -0.2266
  322SOL    HW2  966   2.702   2.476   2.661  0.2833  1.9486  2.4685
  323SOL     OW  967   2.721   0.632   0.609  0.3834  0.9867 -0.1086
  323SOL    HW1  968   2.729   0.673   0.514  0.2451  0.5467  1.2504
  323SOL    HW2  969   2.620   0.615   0.627 -0.7403 -0.2652 -0.3888
  324SOL     OW  970   2.313   2.103   2.444  0.1999 -0.1865 -0.3004
  324SOL    HW1  971   2.409   2.079   2.455 -0.7968  2.2567  2.0595
  324SOL    HW2  972   2.255   2.044   2.512 -1.1164 -1.0743  2.6358
  325SOL     OW  973   1.140   0.594   2.425  0.1045  0.0474  0.3193
  325SOL    HW1  974   1.203   0.662   2.379  1.6931  0.7730  1.3748
  325SOL    HW2  975   1.160   0.600   2.528 -0.5926 -3.0505 -1.8508
  326SOL     OW  976   2.808   2.381   0.546  0.2695 -0.7231  0.1426
  326SOL    HW1  977   2.802   2.481   0.538 -0.6498  1.3069  0.7999
  326SOL    HW2  978   2.898   2.372   0.589 -1.4847  1.2998 -1.4167
  327SOL     OW  979   2.567   3.023   2.882 -0.0663  0.1214  0.1975
  327SOL    HW1  980   2.495   2.954   2.902  2.8412 -2.3404 -1.0583
  327SOL    HW2  981   2.653   2.969   2.868 -1.5182  2.9351 -1.5012
  328SOL     OW  982   1.139   0.317   0.409  0.0723 -0.1875  0.3002
  328SOL    HW1  983   1.086   0.280   0.326 -1.4145  0.2044 -0.0212
  328SOL    HW2  984   1.194   0.399   0.376 -0.4010  3.5659 -0.9295
  329SOL     OW  985   2.143   0.744   1.391 -0.2105 -0.2457 -0.2482
  329SOL    HW1  986   2.191   0.819   1.341 -0.8078  1.9477  0.4056
  329SOL    HW2  987   2.181   0.737   1.483 -0.4266  0.3061 -2.2347
  330SOL     OW  988   1.035   0.317   0.651 -0.3124 -0.6294 -0.2624
  330SOL    HW1  989   1.067   0.320   0.551 -2.2277  2.2200  0.6948
  330SOL    HW2  990   1.083   0.390   0.706 -1.9428  1.2808  1.7551
  331SOL     OW  991   0.556   2.128   1.866  0.2897 -0.6087  0.2351
  331SOL    HW1  992   0.578   2.077   1.954  1.7697 -1.1622 -0.3799
  331SOL    HW2  993   0.601   2.219   1.868  0.0761 -0.5426  0.8312
  332SOL     OW  994   2.257   2.306   1.725 -0.5189  0.7674  0.0287
  332SOL    HW1  995   2.293   2.349   1.803 -0.4490 -0.1974 -0.4433
  332SOL    HW2  996   2.283   2.209   1.729  1.7681  1.1377  0.0229
  333SOL     OW  997   2.963   2.842   0.903 -0.5455  0.1863  0.3439
  333SOL    HW1  998   2.898   2.821   0.985  0.3762  0.0302  4.5999
  333SOL    HW2  999   2.913   2.874   0.818 -1.1484  1.9596  2.3185
  334SOL     OW 1000   0.009   1.688   0.918 -0.1158  0.2012 -0.1157
  334SOL    HW1 1001   0.052   1.725   1.002 -1.9419 -1.0039 -4.3544
  334SOL    HW2 1002   0.066   1.695   0.838 -2.0936  1.5637  0.0195
  335SOL     OW 1003   0.649   2.557   2.618 -0.3546  0.0939 -0.3842
  335SOL    HW1 1004   0.643   2.484   2.687  1.8109 -0.8853 -0.3566
  335SOL    HW2 1005   0.718   2.623   2.657 -1.5653 -2.1333  0.1795
  336SOL     OW 1006   0.087   2.569   1.830  0.1322 -0.2564 -0.0600
  336SOL    HW1 1007   0.131   2.574   1.734  0.2261  0.2693 -1.2036
  336SOL    HW2 1008   0.101   2.654   1.887  0.8669  2.0055  1.5229
  337SOL     OW 1009   0.852   1.828   2.337 -0.1384  0.4674  0.1786
  337SOL    HW1 1010   0.911   1.864   2.260 -0.5291  0.8251 -0.3360
  337SOL    HW2 1011   0.904   1.784   2.418  2.9132  0.9449  2.4653
  338SOL     OW 1012   1.017   0.035   2.471  0.5613 -0.1027  0.3780
  338SOL    HW1 1013   1.062   0.029   2.378  0.2001 -1.5578  0.3971
  338SOL    HW2 1014   1.017   0.127   2.512 -0.8233 -3.2624 -2.0138
  339SOL     OW 1015   0.190   1.401   2.928  0.1001 -0.2897 -0.0324
  339SOL    HW1 1016   0.231   1.439   2.840  0.4734  2.5612 -1.2813
  339SOL    HW2 1017   0.263   1.351   2.970 -2.3502  0.1896 -1.6664
  340SOL     OW 1018   2.124   0.485   1.290  0.1986  0.0569 -0.5622
  340SOL    HW1 1019   2.123   0.577   1.335  0.7812  2.3718 -0.1658
  340SOL    HW2 1020   2.213   0.442   1.304  0.2562  1.6395 -0.1713
  341SOL     OW 1021   1.922   1.100   0.974  0.0532  0.3738 -0.1245
  341SOL    HW1 1022   1.954   1.155   1.055 -0.1708  2.8539  1.1549
  341SOL    HW2 1023   2.000   1.035   0.950  1.7529 -0.1532 -0.4746
  342SOL     OW 1024   2.139   2.498   2.846 -0.3396 -0.2856 -0.5694
  342SOL    HW1 1025   2.175   2.516   2.941  0.9107  1.4080  0.3260
  342SOL    HW2 1026   2.126   2.584   2.793  2.9110 -0.1757  2.2971
  343SOL     OW 1027   0.018   2.601   1.107 -0.2802  0.0475  0.0136
  343SOL    HW1 1028   3.049   2.672   1.152 -0.5928  1.8186  0.3440
  343SOL    HW2 1029   3.068   2.507   1.130 -0.9716 -1.1265  0.1608
  344SOL     OW 1030   2.393   2.802   0.923  0.3722 -0.7038  0.1064
  344SOL    HW1 1031   2.372   2.836   0.831  0.5370 -0.2033  0.5674
  344SOL    HW2 1032   2.333   2.853   0.986 -1.6497 -0.3241  1.1337
  345SOL     OW 1033   2.409   2.403   0.412  0.2019  0.1299  0.1998
  345SOL    HW1 1034   2.422   2.316   0.358 -1.5325 -0.4521  1.1717
  345SOL    HW2 1035   2.461   2.486   0.386  1.4912  0.3428 -0.8580
  346SOL     OW 1036   1.215   2.260   1.787  0.9153  0.4076  0.2077
  346SOL    HW1 1037   1.121   2.229   1.813 -3.3509  0.7095 -1.6957
  346SOL    HW2 1038   1.261   2.186   1.737 -0.0235  1.3417  1.6832
  347SOL     OW 1039   1.241   2.055   2.064  0.7265  0.4609 -0.4961
  347SOL    HW1 1040   1.279   2.054   1.969 -1.9457 -2.9738  0.0016
  347SOL    HW2 1041   1.301   2.086   2.134 -1.5996 -0.0956  1.2486
  348SOL     OW 1042   0.752   1.705   1.435 -0.7875  0.0609 -0.6114
  348SOL    HW1 1043   0.742   1.763   1.349  0.8603 -1.5996 -1.2393
  348SOL    HW2 1044   0.797   1.753   1.515  0.6163  2.7558 -0.7629
  349SOL     OW 1045   1.698   1.370   1.533 -0.0241 -0.2702  0.5107
  349SOL    HW1 1046   1.748   1.412   1.452 -1.2115 -0.0594 -0.9969
  349SOL    HW2 1047   1.609   1.415   1.556  0.0987 -4.0840 -0.3426
  350SOL     OW 1048   2.446   2.304   0.861  0.4279  0.0290  0.2546
  350SOL    HW1 1049   2.416   2.281   0.957 -0.7238 -1.8731  0.7587
  350SOL    HW2 1050   2.453   2.407   0.860 -0.6909 -1.0257  0.6794
  351SOL     OW 1051   0.314   0.058   1.942  0.1691  0.4872  0.1000
  351SOL    HW1 1052   0.302   0.017   1.846  0.9288 -1.9733 -2.9619
  351SOL    HW2 1053   0.279   3.077   2.004 -0.2584 -2.1049 -1.8955
  352SOL     OW 1054   0.725   1.043   0.301  0.6249 -0.1821  0.6306
  352SOL    HW1 1055   0.794   0.969   0.304  0.2608  2.4962  0.0756
  352SOL    HW2 1056   0.647   1.023   0.236 -2.0970 -1.1914  0.3941
  353SOL     OW 1057   0.830   1.464   2.939 -0.5492  0.2713 -0.1586
  353SOL    HW1 1058   0.875   1.555   2.959  1.6783  1.5682  1.0781
  353SOL    HW2 1059   0.756   1.478   2.870 -0.4549  1.0498 -0.2678
  354SOL     OW 1060   1.824   2.498   1.747 -0.1455 -0.1306 -0.0900
  354SOL    HW1 1061   1.755   2.476   1.670 -1.2409 -0.0796 -0.1968
  354SOL    HW2 1062   1.883   2.418   1.779 -1.9318 -0.8671  0.4549
  355SOL     OW 1063   2.196   0.741   2.877 -0.1271  0.1505 -0.0227
  355SOL    HW1 1064   2.138   0.825   2.870 -1.1136 -0.3682  1.6921
  355SOL    HW2 1065   2.295   0.770   2.872  2.2462  0.3607 -2.2118
  356SOL     OW 1066   0.558   2.245   1.306 -0.1227  0.2405 -0.0372
  356SOL    HW1 1067   0.587   2.254   1.207 -1.8387  0.0949 -0.5895
  356SOL    HW2 1068   0.509   2.162   1.333  0.0343  0.4933 -1.2666
  357SOL     OW 1069   3.027   2.971   1.785 -0.0098  0.7163  0.1401
  357SOL    HW1 1070   2.977   2.905   1.730 -1.6827 -0.5987 -1.7084
  357SOL    HW2 1071   3.057   3.055   1.733 -1.4217  0.2859  1.0819
  358SOL     OW 1072   2.284   1.878   1.542  0.6458  0.4647  0.3487
  358SOL    HW1 1073   2.186   1.870   1.514 -1.3012  0.7195 -1.3821
  358SOL    HW2 1074   2.299   1.851   1.640  3.2504 -0.0081  0.0617
  359SOL     OW 1075   1.984   2.283   2.495 -0.0574 -0.0726  0.1762
  359SOL    HW1 1076   1.932   2.358   2.447  1.4609  2.4290  3.0402
  359SOL    HW2 1077   1.977   2.301   2.596  0.4623 -2.1777  0.6268
  360SOL     OW 1078   1.374   2.587   0.764 -0.4759  0.1862 -0.2573
  360SOL    HW1 1079   1.280   2.618   0.752  1.4914 -0.7218  1.3590
  360SOL    HW2 1080   1.435   2.671   0.739  1.1072  0.5124 -0.7840
  361SOL     OW 1081   1.957   0.077   0.552 -0.2300  0.0737 -0.2010
  361SOL    HW1 1082   1.870   0.104   0.507 -0.5392  0.5227 -1.8616
  361SOL    HW2 1083   1.958   3.066   0.561 -3.5162  1.4624 -0.6130
  362SOL     OW 1084   1.583   0.964   1.548  0.2124  0.2037 -0.2232
  362SOL    HW1 1085   1.602   0.999   1.454  0.5904  0.9086 -1.4128
  362SOL    HW2 1086   1.510   1.024   1.586 -0.2564  2.1559  0.7415
  363SOL     OW 1087   1.907   1.549   2.053 -0.1650 -0.4643  0.1342
  363SOL    HW1 1088   1.817   1.521   2.093  1.7013  0.7917  0.6413
  363SOL    HW2 1089   1.986   1.509   2.107  2.2378  1.7370  2.9715
  364SOL     OW 1090   0.736   0.715   1.429 -0.3675  0.2514  0.0783
  364SOL    HW1 1091   0.725   0.679   1.334 -0.6964  2.4227 -0.1125
  364SOL    HW2 1092   0.725   0.816   1.435 -2.8945 -2.6224 -0.8611
  365SOL     OW 1093   0.439   0.586   2.585  0.3623  0.1352 -0.4649
  365SOL    HW1 1094   0.357   0.603   2.650 -1.8618  0.9257  0.8544
  365SOL    HW2 1095   0.403   0.557   2.494  1.1556  1.3965 -2.0875
  366SOL     OW 1096   2.275   1.567   2.948 -0.7741 -0.5206 -0.6931
  366SOL    HW1 1097   2.237   1.537   3.035  2.9002  0.8745  0.8555
  366SOL    HW2 1098   2.373   1.598   2.956 -2.4993 -0.4114 -0.0560
  367SOL     OW 1099   2.914   2.674   2.774 -0.1952  0.8954 -0.2974
  367SOL    HW1 1100   2.872   2.578   2.765 -0.2612  2.5879  2.5082
  367SOL    HW2 1101   2.942   2.712   2.685  4.2108  1.0058  1.8986
  368SOL     OW 1102   2.943   1.197   1.122 -0.4332  0.2785 -0.4764
  368SOL    HW1 1103   2.984   1.137   1.201  1.8467 -2.2798 -2.6447
  368SOL    HW2 1104   2.843   1.190   1.131 -0.3737  0.0973  1.4672
  369SOL     OW 1105   0.658   2.905   2.213 -0.4287  0.4263 -0.2729
  369SOL    HW1 1106   0.669   2.806   2.190  1.0274  1.5885 -0.7673
  369SOL    HW2 1107   0.612   2.914   2.305  0.4348 -2.5033 -1.5680
  370SOL     OW 1108   2.984   0.300   0.585 -0.3638  0.2249 -0.1079
  370SOL    HW1 1109   3.016   0.264   0.494 -1.2427  0.6700 -0.8700
  370SOL    HW2 1110   2.984   0.399   0.588  1.0345 -0.7711  1.0848
  371SOL     OW 1111   1.025   2.333   1.327 -0.3415  0.1042  0.0492
  371SOL    HW1 1112   1.115   2.371   1.355  0.4787  2.9339  4.2783
  371SOL    HW2 1113   0.986   2.263   1.390  0.3997 -2.3055  0.2808
  372SOL     OW 1114   2.633   0.321   2.503  0.5005 -0.3967 -0.7915
  372SOL    HW1 1115   2.682   0.243   2.544 -2.5163  1.6595  0.8179
  372SOL    HW2 1116   2.577   0.297   2.421 -0.0845 -2.1560 -1.8508
  373SOL     OW 1117   0.130   2.065   0.648  0.2439 -0.1389 -0.2154
  373SOL    HW1 1118   0.228   2.056   0.672 -0.4809 -1.2932 -2.5521
  373SOL    HW2 1119   0.078   2.096   0.732  0.2438 -1.1335 -0.2607
  374SOL     OW 1120   0.068   0.066   2.560 -0.0047  0.2588 -0.1940
  374SOL    HW1 1121   0.004   0.145   2.553  0.0006 -0.5891 -1.4108
  374SOL    HW2 1122   0.159   0.092   2.517  2.3398 -1.0464 -1.7502
  375SOL     OW 1123   0.648   0.482   2.703  0.3047  0.4888  0.0010
  375SOL    HW1 1124   0.562   0.509   2.652  1.2637 -0.7801 -1.7467
  375SOL    HW2 1125   0.659   0.548   2.776 -1.5714 -3.2412 -2.0739
  376SOL     OW 1126   2.760   2.257   1.916 -0.0977 -0.7590  0.1085
  376SOL    HW1 1127   2.704   2.275   1.833 -0.5022  0.0173 -1.0575
  376SOL    HW2 1128   2.857   2.286   1.902  0.7713  3.0586 -0.8767
  377SOL     OW 1129   1.267   0.209   2.878 -0.1650 -0.3179  0.0992
  377SOL    HW1 1130   1.256   0.120   2.830  0.2677  1.1823  1.4803
  377SOL    HW2 1131   1.355   0.253   2.843  2.3540 -0.6838  0.1983
  378SOL     OW 1132   2.656   0.816   2.659  0.1589 -0.1245  0.0350
  378SOL    HW1 1133   2.657   0.714   2.649 -2.3670 -2.4146 -0.6567
  378SOL    HW2 1134   2.565   0.839   2.689  2.0315 -1.9915 -2.1979
  379SOL     OW 1135   1.202   0.874   2.989  0.1376  0.0312 -0.4875
  379SOL    HW1 1136   1.178   0.889   2.893 -0.3969  0.3984 -0.0758
  379SOL    HW2 1137   1.163   0.946   3.053 -0.7913  0.4406  1.2552
  380SOL     OW 1138   0.066   1.692   1.935  0.7796 -0.2377 -0.1502
  380SOL    HW1 1139   0.170   1.696   1.939  1.5957 -1.1583 -1.3447
  380SOL    HW2 1140   0.044   1.649   1.841  3.2840 -0.5330  0.8809
  381SOL     OW 1141   0.112   1.176   2.510 -0.2587 -0.6267  0.3660
  381SOL    HW1 1142   0.137   1.171   2.409  1.4925  0.1770  0.0280
  381SOL    HW2 1143   0.030   1.231   2.529 -0.5837  1.4501 -0.2490
  382SOL     OW 1144   2.288   2.281   0.605  0.0164  0.9358 -0.1123
  382SOL    HW1 1145   2.338   2.324   0.524 -0.7759  1.3822 -2.4792
  382SOL    HW2 1146   2.324   2.315   0.693  0.0941  0.8085 -2.1926
  383SOL     OW 1147   0.798   1.710   0.278  0.0749  0.1966 -0.4415
  383SOL    HW1 1148   0.875   1.770   0.250  0.5166 -0.3258 -3.1153
  383SOL    HW2 1149   0.810   1.674   0.374  1.4153  1.0231 -0.1669
  384SOL     OW 1150   0.815   2.104   2.380  0.5231  0.3137 -0.3090
  384SOL    HW1 1151   0.915   2.112   2.374 -1.5077 -0.2322  0.4195
  384SOL    HW2 1152   0.795   2.005   2.386  0.2715  1.5485 -2.5821
  385SOL     OW 1153   2.381   2.018   0.841  0.0575  0.3769  0.3863
  385SOL    HW1 1154   2.343   1.995   0.935 -0.3610 -2.4683  1.6165
  385SOL    HW2 1155   2.395   2.119   0.833  0.0158 -1.0351  0.1729
  386SOL     OW 1156   2.286   0.870   1.172  0.2335 -0.4226 -0.0995
  386SOL    HW1 1157   2.294   0.831   1.082  0.2337  3.2775  6.2981
  386SOL    HW2 1158   2.260   0.971   1.160 -1.3038  0.2231  2.0413
  387SOL     OW 1159   0.030   0.751   1.916 -0.5809  0.1936  0.1224
  387SOL    HW1 1160   0.015   0.799   2.001  1.4015  2.6868  0.8542
  387SOL    HW2 1161   0.130   0.734   1.915  0.5916  1.8097  0.7593
  388SOL     OW 1162   0.659   1.441   2.141 -0.1870  0.1006  0.2839
  388SOL    HW1 1163   0.665   1.540   2.155  1.0765 -1.8774  0.5569
  388SOL    HW2 1164   0.562   1.418   2.122 -3.8612  0.1956  0.5280
  389SOL     OW 1165   0.667   1.003   2.028  0.3138  0.5067  0.3277
  389SOL    HW1 1166   0.738   0.975   2.099  1.3830  2.5794  5.0984
  389SOL    HW2 1167   0.644   0.927   1.964 -1.1258  0.7011  0.0686
  390SOL     OW 1168   2.848   2.981   0.681  0.2398  0.5625  0.3311
  390SOL    HW1 1169   2.781   3.042   0.717  2.9317 -2.4798  0.1866
  390SOL    HW2 1170   2.815   2.940   0.592 -0.3952 -1.1750 -0.8444
  391SOL     OW 1171   1.783   1.496   1.237 -0.0987  0.4600  0.1718
  391SOL    HW1 1172   1.694   1.520   1.194 -0.7462 -0.8523  0.4295
  391SOL    HW2 1173   1.838   1.425   1.190  1.3707  1.5785 -0.6232
  392SOL     OW 1174   2.783   2.848   2.931  0.6918  0.2930 -0.1215
  392SOL    HW1 1175   2.862   2.911   2.953 -1.3569  0.9723  1.0913
  392SOL    HW2 1176   2.807   2.767   2.870 -1.5195 -0.3609 -1.8891
  393SOL     OW 1177   1.552   2.184   2.669  0.1823 -0.6593  0.1191
  393SOL    HW1 1178   1.607   2.097   2.672  0.5784  0.6647 -0.9464
  393SOL    HW2 1179   1.575   2.244   2.593 -0.9066 -1.7121  0.3941
  394SOL     OW 1180   0.140   2.338   2.762  0.6237  0.6865  0.3756
  394SOL    HW1 1181   0.154   2.245   2.734 -0.3570  3.9911  1.0881
  394SOL    HW2 1182   0.041   2.347   2.783  1.9817 -1.2702 -2.2211
  395SOL     OW 1183   0.272   0.267   0.675 -0.0051  0.2277 -0.0302
  395SOL    HW1 1184   0.280   0.251   0.777  1.5039 -0.6283  3.1290
  395SOL    HW2 1185   0.217   0.194   0.626  1.3961 -1.0617 -2.8854
  396SOL     OW 1186   2.273   0.344   0.439  0.1974 -0.2412  0.4231
  396SOL    HW1 1187   2.195   0.410   0.462  0.3583  0.7166  2.1639
  396SOL    HW2 1188   2.247   0.246   0.446  0.1524  0.1749 -1.4068
  397SOL     OW 1189   3.025   0.813   2.440 -0.1844 -0.5257  0.0834
  397SOL    HW1 1190   3.029   0.738   2.510  1.8318 -0.8665  2.2014
  397SOL    HW2 1191   2.960   0.879   2.461  3.2623 -3.2121 -0.9840
  398SOL     OW 1192   0.866   2.941   3.039  0.2392  0.5713 -0.3650
  398SOL    HW1 1193   0.796   2.990   2.985  1.0327  1.1746 -0.5533
  398SOL    HW2 1194   0.956   2.992   3.026  2.3308  3.4194 -0.6337
  399SOL     OW 1195   1.954   0.430   1.937  0.0389 -0.2212  0.2493
  399SOL    HW1 1196   1.892   0.421   2.017  2.1439  2.6859  0.0159
  399SOL    HW2 1197   1.896   0.397   1.859  1.6566 -1.6892  2.3072
  400SOL     OW 1198   1.126   1.932   2.733 -0.7612 -0.1748 -0.1031
  400SOL    HW1 1199   1.168   1.973   2.649  1.2307  1.4029  0.6144
  400SOL    HW2 1200   1.094   2.005   2.802  0.0400 -1.8487  0.4399
  401SOL     OW 1201   0.331   1.278   2.648 -0.4265 -0.6500 -0.6759
  401SOL    HW1 1202   0.330   1.382   2.639 -1.5734  1.5803  1.8241
  401SOL    HW2 1203   0.242   1.244   2.615  1.6866 -0.1744  0.6755
  402SOL     OW 1204   0.368   2.850   0.362 -0.5235  0.1886  0.1282
  402SOL    HW1 1205   0.421   2.764   0.382  2.0559 -3.3459 -2.4745
  402SOL    HW2 1206   0.416   2.927   0.408  2.8430  0.2323  1.5839
  403SOL     OW 1207   0.409   1.065   1.755 -0.3261 -0.6475  0.1175
  403SOL    HW1 1208   0.461   0.982   1.785  1.5000  1.4661  4.9541
  403SOL    HW2 1209   0.366   1.050   1.664 -0.7816 -0.5203  2.6411
  404SOL     OW 1210   2.472   2.509   2.362  0.1793  0.2066 -0.7728
  404SOL    HW1 1211   2.524   2.589   2.315  0.2886  2.1563 -1.8904
  404SOL    HW2 1212   2.378   2.498   2.321  3.0275 -0.0124  2.3194
  405SOL     OW 1213   2.859   0.214   1.790 -0.1077  0.0387 -0.6819
  405SOL    HW1 1214   2.874   0.202   1.889 -0.0986 -2.5831 -0.8757
  405SOL    HW2 1215   2.941   0.257   1.747  0.9276 -0.1480 -2.1055
  406SOL     OW 1216   1.119   1.449   2.703  0.1424 -0.2003 -0.2600
  406SOL    HW1 1217   1.031   1.480   2.655 -2.2816  0.6757 -0.2879
  406SOL    HW2 1218   1.181   1.526   2.715 -1.3365 -0.3883 -0.3707
  407SOL     OW 1219   2.016   0.944   2.830  0.2098  0.2053 -0.1197
  407SOL    HW1 1220   2.020   0.919   2.733 -1.3929 -1.3063 -1.6127
  407SOL    HW2 1221   2.000   1.043   2.846  1.5826 -1.4838 -0.8093
  408SOL     OW 1222   0.445   2.602   2.264  0.1640 -0.6571  0.1841
  408SOL    HW1 1223   0.538   2.571   2.284  0.0735  0.1449 -1.0004
  408SOL    HW2 1224   0.376   2.538   2.303 -1.6794 -1.6402 -1.4415
  409SOL     OW 1225   0.185   2.351   1.205 -0.4670 -0.3756  0.0211
  409SOL    HW1 1226   0.086   2.349   1.183 -1.1331 -0.9873 -0.5332
  409SOL    HW2 1227   0.239   2.419   1.153 -1.2893  0.5288 -1.3500
  410SOL     OW 1228   2.878   1.719   0.518  0.5250  0.7149 -0.2127
  410SOL    HW1 1229   2.973   1.736   0.552  1.2116  0.4975  0.3566
  410SOL    HW2 1230   2.886   1.648   0.452  1.7824  2.3549  0.7431
  411SOL     OW 1231   2.601   2.949   1.192  0.3472  0.3662 -0.5321
  411SOL    HW1 1232   2.496   2.950   1.213 -1.4893 -0.2331 -0.6514
  411SOL    HW2 1233   2.621   3.019   1.120 -0.3279 -1.4227 -2.6238
  412SOL     OW 1234   2.226   0.222   1.734  0.1119 -0.4924  0.4176
  412SOL    HW1 1235   2.229   0.163   1.816 -1.9503  0.5278  2.1493
  412SOL    HW2 1236   2.135   0.196   1.693  0.9224 -1.1377 -0.0240
  413SOL     OW 1237   0.058   0.293   2.123 -0.1614  0.5740 -0.1551
  413SOL    HW1 1238   0.061   0.303   2.222  0.7453 -0.6498 -0.4942
  413SOL    HW2 1239   0.149   0.318   2.086 -0.0534  0.6892  1.0275
  414SOL     OW 1240   2.793   1.193   3.023 -0.2261 -0.0450 -0.3194
  414SOL    HW1 1241   2.695   1.223   3.037  0.2798 -0.6969  2.4416
  414SOL    HW2 1242   2.807   1.115   3.085 -2.0630  1.5287  1.2151
  415SOL     OW 1243   1.012   2.481   2.965  0.0478 -0.0357 -0.0566
  415SOL    HW1 1244   1.080   2.461   3.039  1.5801 -1.8765  0.7609
  415SOL    HW2 1245   0.967   2.572   2.986 -0.2130 -0.9247  1.2552
  416SOL     OW 1246   1.343   2.998   2.290 -0.0981  0.0586  0.2754
  416SOL    HW1 1247   1.360   2.902   2.310  1.5892  3.9681 -1.1393
  416SOL    HW2 1248   1.405   3.025   2.212  1.0356 -0.0392 -2.1676
  417SOL     OW 1249   0.224   0.688   1.059  0.2427  0.5208 -0.1331
  417SOL    HW1 1250   0.305   0.637   1.093  2.4464 -2.1477 -0.0474
  417SOL    HW2 1251   0.200   0.663   0.961  0.0802  0.7616 -1.8990
  418SOL     OW 1252   2.609   0.057   0.772  0.0470  0.1435 -0.2079
  418SOL    HW1 1253   2.618   0.087   0.869  0.7869 -2.1472  0.0321
  418SOL    HW2 1254   2.651   0.133   0.710  1.3893  2.0157 -1.4614
  419SOL     OW 1255   0.368   2.885   0.073  0.0197 -0.2391 -0.3478
  419SOL    HW1 1256   0.405   2.829   0.148 -0.1175 -0.9993 -1.9395
  419SOL    HW2 1257   0.312   2.959   0.116  1.0516 -0.3351 -1.0810
  420SOL     OW 1258   0.220   1.046   1.561 -0.1372  0.7133  0.3496
  420SOL    HW1 1259   0.227   0.945   1.537  4.0974 -0.8653 -1.4104
  420SOL    HW2 1260   0.140   1.067   1.622 -0.5067  0.3328  1.7957
  421SOL     OW 1261   1.877   2.529   0.877 -0.1645 -0.2351  0.4687
  421SOL    HW1 1262   1.915   2.447   0.930  3.2266  0.5895 -2.4040
  421SOL    HW2 1263   1.783   2.511   0.848  3.8164  1.3944  2.2534
  422SOL     OW 1264   0.078   0.286   1.148  0.4782  0.3911  0.6462
  422SOL    HW1 1265   0.104   0.242   1.058  0.4995 -1.4285 -2.5968
  422SOL    HW2 1266   0.155   0.337   1.189  0.1737 -0.1577 -1.4436
  423SOL     OW 1267   0.697   1.280   1.923  0.1346  0.4940  0.3336
  423SOL    HW1 1268   0.686   1.179   1.944  0.3579 -0.6406 -2.0670
  423SOL    HW2 1269   0.700   1.330   2.012  1.6320 -0.1427  2.0780
  424SOL     OW 1270   1.731   2.145   0.481  0.4163  0.2126 -0.0516
  424SOL    HW1 1271   1.755   2.158   0.386  2.2428 -2.9726  1.6826
  424SOL    HW2 1272   1.795   2.081   0.528  0.3840  1.0915  0.3106
  425SOL     OW 1273   2.692   3.009   1.836 -0.1545 -0.6316  0.0625
  425SOL    HW1 1274   2.726   3.039   1.745  0.8168  2.0716 -0.0202
  425SOL    HW2 1275   2.770   3.026   1.898 -0.3556  0.3157  2.5192
  426SOL     OW 1276   0.096   2.667   2.415 -0.6895 -0.0791  0.1072
  426SOL    HW1 1277   0.025   2.666   2.486  1.6356  2.7573 -1.9239
  426SOL    HW2 1278   0.166   2.588   2.420  5.3583 -3.0814 -0.6498
  427SOL     OW 1279   0.949   3.049   0.369  0.0313  0.3544  0.2283
  427SOL    HW1 1280   0.974   0.044   0.314  3.2265 -1.6453 -0.8012
  427SOL    HW2 1281   0.880   2.994   0.313  0.9557 -1.0958  0.2661
  428SOL     OW 1282   2.749   0.335   1.391 -0.2108  0.1977  0.4543
  428SOL    HW1 1283   2.748   0.233   1.375 -0.4708 -3.5601 -1.7847
  428SOL    HW2 1284   2.691   0.375   1.321  1.1229  0.1236  0.8047
  429SOL     OW 1285   2.074   2.890   0.844  0.7849 -0.1336  0.0123
  429SOL    HW1 1286   1.991   2.920   0.795 -0.0540  3.1043  0.7992
  429SOL    HW2 1287   2.060   2.866   0.939 -1.6741  1.0824 -0.3766
  430SOL     OW 1288   0.955   1.634   2.523 -0.3260  0.4054  1.0868
  430SOL    HW1 1289   0.940   1.683   2.612 -0.0890 -2.3026 -1.8703
  430SOL    HW2 1290   0.887   1.561   2.499 -2.5625  0.9533 -1.6128
  431SOL     OW 1291   0.128   2.040   1.402  0.0560 -0.5376 -0.1268
  431SOL    HW1 1292   0.137   1.967   1.474  2.2227 -0.4053 -1.1595
  431SOL    HW2 1293   0.039   2.087   1.405  1.2103  3.7661 -0.6701
  432SOL     OW 1294   1.517   2.682   2.553  0.2420 -0.4003  0.7225
  432SOL    HW1 1295   1.581   2.760   2.574  0.4910  1.8134  2.3638
  432SOL    HW2 1296   1.454   2.710   2.477 -4.0430  1.0330 -0.3269
  433SOL     OW 1297   1.134   0.327   2.346  0.0210  0.5744  0.0060
  433SOL    HW1 1298   1.095   0.299   2.252  0.9830 -3.6726 -1.6619
  433SOL    HW2 1299   1.137   0.428   2.366 -2.8121  0.9226  0.3009
  434SOL     OW 1300   0.705   2.648   2.103  0.1975  0.0059 -0.0509
  434SOL    HW1 1301   0.745   2.564   2.060  1.2317  0.7455  0.2913
  434SOL    HW2 1302   0.623   2.682   2.049  0.4478  0.6014  0.8928
  435SOL     OW 1303   0.497   0.083   0.031 -0.0296 -0.2866 -0.1600
  435SOL    HW1 1304   0.492   3.081   3.071 -0.9299 -0.8723  0.0101
  435SOL    HW2 1305   0.443   0.153   3.066 -3.1037 -0.1601  0.0694
  436SOL     OW 1306   0.504   1.163   2.439  0.2662  0.0394  0.4395
  436SOL    HW1 1307   0.448   1.207   2.517  1.5448 -1.4309 -0.8896
  436SOL    HW2 1308   0.603   1.161   2.462 -0.0039  2.2554  2.6672
  437SOL     OW 1309   1.117   2.277   2.602 -0.2279 -0.7381  0.2287
  437SOL    HW1 1310   1.137   2.209   2.530  1.7582 -0.6907  0.8130
  437SOL    HW2 1311   1.070   2.354   2.558 -1.0435  1.1710  2.7356
  438SOL     OW 1312   0.917   1.060   0.705  0.5871  0.1342  0.5416
  438SOL    HW1 1313   0.928   1.072   0.804  2.2640 -0.3739 -2.9920
  438SOL    HW2 1314   0.991   1.005   0.658  1.3341 -0.4448 -2.4089
  439SOL     OW 1315   2.866   1.240   2.272 -0.1123  0.4710 -0.3031
  439SOL    HW1 1316   2.921   1.168   2.217  1.2939 -3.2504 -0.1775
  439SOL    HW2 1317   2.871   1.328   2.221 -2.0374  0.8547  0.6902
  440SOL     OW 1318   2.844   0.437   2.989 -0.2243 -0.0900 -0.1162
  440SOL    HW1 1319   2.911   0.427   2.913  0.5000 -1.5822  2.4975
  440SOL    HW2 1320   2.785   0.511   2.966  0.0451 -1.1605 -0.8996
  441SOL     OW 1321   0.907   1.801   1.646  0.2548  0.0090 -0.1127
  441SOL    HW1 1322   0.985   1.863   1.667 -1.9055  0.4312 -1.5885
  441SOL    HW2 1323   0.888   1.735   1.722 -0.2989 -0.2041 -0.8069
  442SOL     OW 1324   1.969   1.383   0.892 -0.0352  0.4669  0.2342
  442SOL    HW1 1325   1.938   1.298   0.846  2.7787  1.9980  1.8893
  442SOL    HW2 1326   1.937   1.464   0.838 -1.1730 -0.6662 -0.2769
  443SOL     OW 1327   2.379   2.128   3.031 -0.0384 -0.2026 -0.2174
  443SOL    HW1 1328   2.373   2.206   2.963 -1.6248 -1.3909 -1.8418
  443SOL    HW2 1329   2.315   2.051   3.020  1.8757 -0.5589 -0.7627
  444SOL     OW 1330   1.870   1.377   2.649  0.1823  0.2873 -0.3238
  444SOL    HW1 1331   1.954   1.350   2.591 -0.8737 -0.2777  0.8150
  444SOL    HW2 1332   1.868   1.475   2.647 -1.2851 -2.7565  0.0760
  445SOL     OW 1333   0.411   2.281   2.076  0.4290 -0.1757  0.0584
  445SOL    HW1 1334   0.398   2.263   2.178  0.2633 -1.8867  0.0754
  445SOL    HW2 1335   0.506   2.310   2.057  1.1859 -1.8309 -0.3239
  446SOL     OW 1336   0.867   0.810   1.720  0.4767 -0.1885 -0.3613
  446SOL    HW1 1337   0.818   0.731   1.696  2.3675  1.8187  1.9392
  446SOL    HW2 1338   0.913   0.852   1.637 -3.8409  0.1303  1.2106
  447SOL     OW 1339   1.091   0.906   0.548 -0.2947 -0.8556  0.4913
  447SOL    HW1 1340   1.138   0.986   0.516 -2.7608 -1.3491  2.9228
  447SOL    HW2 1341   1.159   0.836   0.582  1.0054 -0.5966  0.2081
  448SOL     OW 1342   1.166   1.333   2.251 -1.1178 -0.0884  0.3283
  448SOL    HW1 1343   1.186   1.416   2.306  0.9861 -1.5719  0.6468
  448SOL    HW2 1344   1.100   1.353   2.179  0.0936 -1.1283 -0.6035
  449SOL     OW 1345   0.204   1.670   2.455 -0.0367  0.0159  0.0701
  449SOL    HW1 1346   0.188   1.601   2.377  0.2427 -3.5491 -3.3625
  449SOL    HW2 1347   0.122   1.728   2.471  0.1461  1.3839  1.5766
  450SOL     OW 1348   2.132   1.454   2.161 -0.0704  0.6428 -0.1096
  450SOL    HW1 1349   2.187   1.473   2.246  2.9171  1.4515 -0.0412
  450SOL    HW2 1350   2.177   1.484   2.071  1.4757 -1.9294 -1.0136
  451SOL     OW 1351   2.449   1.344   1.292 -0.3887  0.0383 -0.0632
  451SOL    HW1 1352   2.425   1.422   1.229  0.8226 -0.2897  0.6364
  451SOL    HW2 1353   2.513   1.382   1.359  3.0884  2.3941  0.1388
  452SOL     OW 1354   0.772   1.135   1.344 -0.8448  0.0098 -0.5661
  452SOL    HW1 1355   0.702   1.090   1.407 -0.0190  0.7116  0.5354
  452SOL    HW2 1356   0.852   1.181   1.399  0.9995  0.3123  1.1435
  453SOL     OW 1357   0.518   1.937   1.028  0.2518  0.4134  0.0442
  453SOL    HW1 1358   0.446   2.002   1.007  2.9361 -1.6104 -0.2705
  453SOL    HW2 1359   0.569   1.895   0.945  0.2280 -2.1979  0.3780
  454SOL     OW 1360   1.289   1.677   0.293  0.3544  0.1437  0.5121
  454SOL    HW1 1361   1.386   1.637   0.297  2.4830 -2.3288  1.1498
  454SOL    HW2 1362   1.244   1.694   0.385 -0.3673  0.4849  0.8428
  455SOL     OW 1363   1.693   0.578   0.883 -0.1440 -0.2105 -0.5382
  455SOL    HW1 1364   1.708   0.476   0.891  0.8747 -0.6498  0.9113
  455SOL    HW2 1365   1.786   0.626   0.889  2.3715 -1.5176 -1.9479
  456SOL     OW 1366   1.828   2.935   0.708  0.2114 -0.3774  0.1644
  456SOL    HW1 1367   1.818   2.841   0.661 -0.5150 -3.3924 -2.9687
  456SOL    HW2 1368   1.748   2.997   0.693  1.3132  1.0184 -0.2077
  457SOL     OW 1369   1.967   0.714   2.337 -0.1405 -0.3536 -0.0225
  457SOL    HW1 1370   2.046   0.758   2.297 -4.4682 -0.7681  0.1273
  457SOL    HW2 1371   1.895   0.684   2.266 -2.1669 -2.1101  2.9283
  458SOL     OW 1372   2.581   0.547   2.621  0.0088  0.0085  0.0114
  458SOL    HW1 1373   2.486   0.570   2.595  0.4742  0.2449 -1.2737
  458SOL    HW2 1374   2.609   0.461   2.573  0.9427 -2.4180  0.4063
  459SOL     OW 1375   2.626   1.251   2.392 -0.0913 -0.0381  0.1042
  459SOL    HW1 1376   2.584   1.328   2.347 -1.7184 -1.3435  2.2237
  459SOL    HW2 1377   2.717   1.232   2.355 -1.4294  0.1484 -1.2350
  460SOL     OW 1378   0.846   1.033   2.740  0.0179 -0.3737 -0.4148
  460SOL    HW1 1379   0.873   1.099   2.815  0.0133 -1.1085  0.8090
  460SOL    HW2 1380   0.746   1.010   2.744 -2.0942  0.4318  1.1436
  461SOL     OW 1381   0.480   2.132   0.013  0.0957 -0.0340 -0.1846
  461SOL    HW1 1382   0.534   2.202   0.063 -0.9964  0.8723  2.3847
  461SOL    HW2 1383   0.436   2.173   3.013  0.8014  0.1096  0.6176
  462SOL     OW 1384   1.096   3.073   2.222  0.1302  0.0150 -0.0306
  462SOL    HW1 1385   1.192   3.035   2.228 -1.0668 -3.1782  1.0547
  462SOL    HW2 1386   1.035   2.995   2.196  0.1597 -0.1776  0.1674
  463SOL     OW 1387   2.012   2.330   2.124  0.1348  0.0947 -0.1674
  463SOL    HW1 1388   1.938   2.259   2.113  0.0462  0.4045  0.0658
  463SOL    HW2 1389   2.086   2.290   2.187  1.5005 -0.8446 -0.1981
  464SOL     OW 1390   2.809   2.636   0.773 -0.4265  0.2771 -0.5332
  464SOL    HW1 1391   2.773   2.705   0.838  0.9854  0.4823 -0.7156
  464SOL    HW2 1392   2.765   2.645   0.683 -1.0071 -1.2694  0.9117
  465SOL     OW 1393   2.997   0.103   1.252  0.2804  0.0875  0.2870
  465SOL    HW1 1394   3.032   0.074   1.159  2.2957 -2.0645 -0.6901
  465SOL    HW2 1395   3.043   0.192   1.263 -1.9843 -2.8250  1.6217
  466SOL     OW 1396   1.299   2.739   2.398 -0.0336 -0.0313  0.0042
  466SOL    HW1 1397   1.247   2.719   2.485  2.7543 -0.8143 -0.0098
  466SOL    HW2 1398   1.247   2.711   2.314 -1.0604 -0.6296 -2.2646
  467SOL     OW 1399   0.051   2.359   0.252 -0.0986 -0.2546 -0.4168
  467SOL    HW1 1400   0.021   2.261   0.256  0.6407 -0.9841  0.2637
  467SOL    HW2 1401   0.023   2.405   0.167  0.5654  2.7095  1.4661
  468SOL     OW 1402   2.170   1.889   2.984 -0.2010 -0.0312  0.2494
  468SOL    HW1 1403   2.165   1.804   2.932 -0.8329  0.3602  2.3473
  468SOL    HW2 1404   2.104   1.959   2.946 -2.3127  0.4420 -0.3397
  469SOL     OW 1405   0.967   2.124   0.600 -0.1697 -0.1704 -0.2692
  469SOL    HW1 1406   1.010   2.211   0.571 -2.1667  0.2905 -2.2823
  469SOL    HW2 1407   0.872   2.134   0.569  0.0814 -1.4428 -2.4488
  470SOL     OW 1408   1.953   0.698   0.889 -0.3713  0.3189 -0.1984
  470SOL    HW1 1409   2.017   0.634   0.925 -1.2458 -0.0521 -2.5614
  470SOL    HW2 1410   1.986   0.797   0.891 -0.1811  2.0259  0.6331
  471SOL     OW 1411   0.380   1.859   0.375  0.4125  0.1476  0.3310
  471SOL    HW1 1412   0.462   1.870   0.306  0.7837  3.1125 -2.1779
  471SOL    HW2 1413   0.322   1.947   0.358 -0.6633  3.7995  1.9581
  472SOL     OW 1414   2.612   1.793   2.559 -0.2631 -0.4281  0.1874
  472SOL    HW1 1415   2.627   1.708   2.619 -0.1288  1.7268  0.0912
  472SOL    HW2 1416   2.697   1.818   2.504  0.1417 -0.4723  1.2755
  473SOL     OW 1417   1.523   1.849   0.782  1.0104 -0.5889  0.1250
  473SOL    HW1 1418   1.465   1.931   0.748 -1.3136 -0.4792 -1.3540
  473SOL    HW2 1419   1.543   1.858   0.881 -4.7545 -1.4574  0.2826
  474SOL     OW 1420   2.647   0.408   0.977  0.6735  0.1655  0.4836
  474SOL    HW1 1421   2.593   0.420   0.894 -2.9883  1.0083  1.3643
  474SOL    HW2 1422   2.746   0.433   0.965 -1.2791  0.5631 -1.3878
  475SOL     OW 1423   2.584   2.880   1.531 -0.1301  0.1262 -0.3610
  475SOL    HW1 1424   2.565   2.781   1.546 -1.9026  0.1723  1.9304
  475SOL    HW2 1425   2.500   2.938   1.527  0.4551 -0.9626  0.7045
  476SOL     OW 1426   0.686   0.427   0.822  0.1071  0.1716  0.7453
  476SOL    HW1 1427   0.717   0.399   0.730  0.2386  1.3753  0.3979
  476SOL    HW2 1428   0.694   0.525   0.835  0.5764 -1.7066 -1.3135
  477SOL     OW 1429   1.321   2.428   1.058 -0.4296 -0.0513  0.2095
  477SOL    HW1 1430   1.412   2.383   1.061 -0.6309 -0.2465 -0.3611
  477SOL    HW2 1431   1.320   2.521   1.093  0.4243 -1.6766  0.0578
  478SOL     OW 1432   1.423   2.612   2.797 -0.0321  0.0877 -0.1300
  478SOL    HW1 1433   1.335   2.560   2.783  0.3385  1.2575 -1.1183
  478SOL    HW2 1434   1.463   2.647   2.712 -0.8013 -0.2714  2.9934
  479SOL     OW 1435   2.372   0.945   1.870  0.3455 -0.1305  0.3865
  479SOL    HW1 1436   2.404   0.866   1.930  2.0440  3.0568  1.7077
  479SOL    HW2 1437   2.396   0.922   1.774  1.3315 -1.7320  0.5631
  480SOL     OW 1438   2.812   2.111   2.562  0.0646 -0.4588  0.4062
  480SOL    HW1 1439   2.865   2.188   2.521  0.7431  0.2999 -1.3920
  480SOL    HW2 1440   2.871   2.054   2.622 -0.3758 -0.8010 -0.9321
  481SOL     OW 1441   1.696   0.016   1.794  0.3284  0.7408  0.1120
  481SOL    HW1 1442   1.704   3.002   1.823  0.7741 -2.3398  1.7078
  481SOL    HW2 1443   1.637   0.058   1.862  2.0580 -2.1807  1.7100
  482SOL     OW 1444   1.438   2.434   2.286  0.2631  0.0789  0.4208
  482SOL    HW1 1445   1.507   2.503   2.250  1.3316  3.2322 -0.4133
  482SOL    HW2 1446   1.357   2.487   2.318  1.5720 -1.3267  1.2681
  483SOL     OW 1447   1.129   2.697   2.617  0.4119 -0.1924  0.7939
  483SOL    HW1 1448   1.161   2.631   2.685 -1.6036  0.4898 -0.4828
  483SOL    HW2 1449   1.080   2.772   2.666 -1.0191 -1.4627  2.9841
  484SOL     OW 1450   2.336   3.035   1.466 -0.5355 -0.3814 -0.4556
  484SOL    HW1 1451   2.271   2.982   1.522  1.2587 -0.7304  1.8111
  484SOL    HW2 1452   2.338   0.046   1.487  0.5135 -3.1317 -0.4056
  485SOL     OW 1453   2.020   0.465   0.523 -0.1824 -0.0225  0.5353
  485SOL    HW1 1454   1.994   0.557   0.559 -0.4833 -1.5181  0.5709
  485SOL    HW2 1455   1.949   0.429   0.459 -0.9962 -0.0025 -1.3601
  486SOL     OW 1456   2.217   2.568   2.549 -0.2256 -0.3977  0.2274
  486SOL    HW1 1457   2.270   2.652   2.578  5.5446  1.2315  0.4109
  486SOL    HW2 1458   2.225   2.564   2.445 -0.6480 -2.2541 -1.0772
  487SOL     OW 1459   1.478   0.684   0.478  0.0168 -0.0836  0.0813
  487SOL    HW1 1460   1.383   0.671   0.520  0.2305  1.1852  3.4435
  487SOL    HW2 1461   1.541   0.632   0.536  0.4711  2.5714  1.4160
  488SOL     OW 1462   2.673   2.864   2.502 -0.5387 -0.5332 -0.4203
  488SOL    HW1 1463   2.630   2.836   2.411  0.2459 -1.3486 -2.4929
  488SOL    HW2 1464   2.625   2.819   2.581 -0.1094  0.1291 -1.3817
  489SOL     OW 1465   1.453   2.833   0.375 -0.3902  0.1078  0.3597
  489SOL    HW1 1466   1.438   2.886   0.463  0.6179  0.7176  0.3631
  489SOL    HW2 1467   1.523   2.871   0.312  0.7396 -2.0844  2.0495
  490SOL     OW 1468   1.729   0.465   3.079  0.1758 -0.0295  0.0409
  490SOL    HW1 1469   1.759   0.509   2.992 -1.0767  3.2420 -0.6434
  490SOL    HW2 1470   1.626   0.465   3.080  3.0884  0.5598 -2.4714
  491SOL     OW 1471   0.719   2.988   1.273 -0.4020  0.0849  0.0754
  491SOL    HW1 1472   0.667   3.068   1.233 -0.2647 -0.8781 -1.3173
  491SOL    HW2 1473   0.767   3.018   1.360  0.8587 -0.6692  1.3255
  492SOL     OW 1474   1.812   2.671   0.595 -0.1502  0.0368  0.2522
  492SOL    HW1 1475   1.871   2.599   0.634 -0.6475 -0.2582 -2.4270
  492SOL    HW2 1476   1.792   2.653   0.498  1.5795 -0.0959 -1.1620
  493SOL     OW 1477   1.258   2.215   3.070 -0.0079  0.1777 -0.4936
  493SOL    HW1 1478   1.327   2.259   3.006  0.6834  0.2635  0.0027
  493SOL    HW2 1479   1.241   2.265   0.069 -0.6019 -1.4385 -1.3813
  494SOL     OW 1480   0.882   0.846   0.366  0.3911  0.4919 -0.3121
  494SOL    HW1 1481   0.899   0.763   0.309 -1.9208 -0.2303 -0.2402
  494SOL    HW2 1482   0.957   0.867   0.433  2.6602  2.2842  0.8993
  495SOL     OW 1483   2.684   0.418   1.661  0.7220 -0.0942  0.3253
  495SOL    HW1 1484   2.729   0.336   1.685 -1.4480  0.2793  0.0618
  495SOL    HW2 1485   2.652   0.412   1.566  2.8468 -2.2769  0.4255
  496SOL     OW 1486   2.335   2.332   2.572 -0.4220  0.0555  0.0052
  496SOL    HW1 1487   2.274   2.413   2.554  1.1879  0.8698  0.6387
  496SOL    HW2 1488   2.310   2.246   2.524  2.0418  0.4905 -1.3428
  497SOL     OW 1489   1.621   1.402   2.468 -0.0087 -0.2870 -0.2936
  497SOL    HW1 1490   1.671   1.401   2.559  3.2600 -1.9703  5.0752
  497SOL    HW2 1491   1.521   1.381   2.478 -1.9040  2.2698  0.3037
  498SOL     OW 1492   0.913   2.609   0.877  0.2514 -0.6648  0.4069
  498SOL    HW1 1493   0.811   2.613   0.873 -0.2626 -1.6762  1.0876
  498SOL    HW2 1494   0.938   2.584   0.970 -0.7351  1.5080 -2.6279
  499SOL     OW 1495   0.108   2.037   1.083 -0.7730  0.5001  0.3853
  499SOL    HW1 1496   0.056   2.099   1.018 -0.2553 -0.0196 -0.6036
  499SOL    HW2 1497   0.106   2.080   1.176 -2.3316 -2.5945  0.1790
  500SOL     OW 1498   0.815   2.678   3.015 -0.5341  0.4896  0.0282
  500SOL    HW1 1499   0.724   2.646   2.985  2.1078  0.6273 -0.0113
  500SOL    HW2 1500   0.816   2.781   3.029 -0.0434  2.5877 -0.0091
  501SOL     OW 1501   1.868   3.013   0.295  0.2238 -0.1295 -0.3590
  501SOL    HW1 1502   1.939   2.961   0.344 -3.5412  1.5664  0.2117
  501SOL    HW2 1503   1.907   3.063   0.217  0.2450  1.4209 -0.3319
  502SOL     OW 1504   0.025   0.355   0.811 -0.3755  0.0828  0.4363
  502SOL    HW1 1505   3.037   0.322   0.747 -1.8493  1.8031 -0.5733
  502SOL    HW2 1506   0.092   0.284   0.834 -1.2617  3.3449  0.4141
  503SOL     OW 1507   2.080   2.982   2.117 -0.4450 -0.1928  0.0257
  503SOL    HW1 1508   2.137   2.942   2.194  0.4964 -3.8648 -0.4682
  503SOL    HW2 1509   2.018   3.048   2.152  2.0308 -4.3188 -0.8281
  504SOL     OW 1510   2.150   1.087   1.861  0.4397  0.6382  0.2864
  504SOL    HW1 1511   2.090   1.027   1.803 -3.4376  1.3765 -1.0001
  504SOL    HW2 1512   2.244   1.044   1.878 -1.6381  1.2542  1.4162
  505SOL     OW 1513   1.739   2.978   2.361 -0.2074  0.4874  0.3699
  505SOL    HW1 1514   1.820   3.038   2.334  2.8548  0.1987 -0.5006
  505SOL    HW2 1515   1.689   2.942   2.280  1.9606 -0.1126 -0.8961
  506SOL     OW 1516   0.007   0.470   1.901 -0.6820  0.0311 -0.0386
  506SOL    HW1 1517   3.083   0.398   1.974  0.8748  0.6735 -0.7805
  506SOL    HW2 1518   0.028   0.567   1.934  3.0060 -0.7754  1.3641
  507SOL     OW 1519   1.821   0.366   0.295  0.0785 -0.3248  0.1464
  507SOL    HW1 1520   1.744   0.435   0.278 -0.0187 -0.0865 -0.3443
  507SOL    HW2 1521   1.787   0.271   0.298  1.0101  0.2508 -0.1382
  508SOL     OW 1522   2.062   0.793   2.029 -0.5931  0.3120 -0.0944
  508SOL    HW1 1523   2.137   0.760   1.972  1.0714  0.0990 -0.2086
  508SOL    HW2 1524   2.104   0.849   2.099 -0.9054 -1.7278  0.0725
  509SOL     OW 1525   0.598   1.770   2.735 -1.2649  0.1216 -0.1514
  509SOL    HW1 1526   0.699   1.792   2.749 -0.8358 -2.4647 -1.9330
  509SOL    HW2 1527   0.581   1.794   2.641 -0.4056 -1.9338  0.7605
  510SOL     OW 1528   0.075   0.966   1.003  0.1719  0.3050 -0.3965
  510SOL    HW1 1529   0.117   0.881   1.047  2.4550 -3.2311  1.2547
  510SOL    HW2 1530   3.081   0.998   1.062  0.3614  0.9908  3.6731
  511SOL     OW 1531   1.392   1.148   1.655 -0.5477  0.4732  0.2755
  511SOL    HW1 1532   1.297   1.142   1.696  1.3871  1.4228  2.0729
  511SOL    HW2 1533   1.417   1.244   1.629 -0.3344 -1.4467  2.9952
  512SOL     OW 1534   0.403   2.007   0.719 -0.4445 -0.5098  0.1552
  512SOL    HW1 1535   0.493   1.961   0.696 -0.3812  1.0662 -0.7171
  512SOL    HW2 1536   0.405   2.110   0.704 -1.3881 -2.3005 -2.0276
  513SOL     OW 1537   0.381   2.549   0.773  0.5588 -0.0076  0.2757
  513SOL    HW1 1538   0.386   2.647   0.747  0.1695  2.1895 -0.9596
  513SOL    HW2 1539   0.466   2.523   0.817 -2.8506  2.4352 -1.0032
  514SOL     OW 1540   0.743   1.975   0.457 -0.0268 -0.3225  0.3317
  514SOL    HW1 1541   0.815   1.910   0.430 -2.3274 -1.8851 -1.4443
  514SOL    HW2 1542   0.690   2.012   0.378  2.3972 -2.4420 -0.3025
  515SOL     OW 1543   0.285   0.119   2.791 -0.5108 -0.3022 -0.2908
  515SOL    HW1 1544   0.287   0.021   2.813  0.7845 -0.9922  2.0968
  515SOL    HW2 1545   0.221   0.176   2.847 -1.9322  0.0642  4.4336
  516SOL     OW 1546   2.026   0.103   1.199 -0.2912  0.5920  0.0986
  516SOL    HW1 1547   1.989   0.180   1.258 -1.3718 -1.6654 -1.4011
  516SOL    HW2 1548   2.124   0.129   1.175  2.2148  0.7682 -0.0378
  517SOL     OW 1549   1.866   1.613   0.803  0.0040  0.4642  0.1239
  517SOL    HW1 1550   1.833   1.675   0.730  2.1804  1.2096  0.2852
  517SOL    HW2 1551   1.947   1.650   0.847  0.4477  2.1377  0.1587
  518SOL     OW 1552   1.715   2.739   0.962 -0.4312 -0.3080  0.3224
  518SOL    HW1 1553   1.793   2.685   0.923  0.4435  1.5332 -0.4509
  518SOL    HW2 1554   1.654   2.775   0.888 -0.1038  1.8159  0.3631
  519SOL     OW 1555   0.014   2.446   3.052 -0.1072 -0.0686  0.0384
  519SOL    HW1 1556   3.063   2.386   2.977 -1.1389 -1.2947 -0.7607
  519SOL    HW2 1557   0.017   2.546   3.023  0.7414  0.8649 -1.5645
  520SOL     OW 1558   2.055   1.858   2.245  0.4416 -0.0290  0.0852
  520SOL    HW1 1559   2.028   1.938   2.303  1.5597  2.0441  0.1514
  520SOL    HW2 1560   2.019   1.854   2.146 -3.6755  1.0796 -3.2153
  521SOL     OW 1561   1.269   3.074   1.881  0.1433 -0.1513 -0.1767
  521SOL    HW1 1562   1.265   3.082   1.779  1.9838 -1.2850 -2.1836
  521SOL    HW2 1563   1.176   0.007   1.919  1.8788 -0.3472 -1.1227
  522SOL     OW 1564   0.352   2.484   1.888 -0.1789  0.1071 -0.0835
  522SOL    HW1 1565   0.249   2.482   1.878 -2.6273 -0.6113 -0.6745
  522SOL    HW2 1566   0.379   2.420   1.963  1.3521 -1.8408  2.2853
  523SOL     OW 1567   0.950   2.283   1.950 -0.3804 -0.3920  0.2030
  523SOL    HW1 1568   0.900   2.366   1.914  1.3116 -2.4697  0.6328
  523SOL    HW2 1569   1.016   2.311   2.025  0.2065 -1.4809  0.3481
  524SOL     OW 1570   2.193   2.130   0.257  0.9271  0.8044  0.0270
  524SOL    HW1 1571   2.288   2.160   0.240 -0.3649 -1.1484  0.2668
  524SOL    HW2 1572   2.173   2.082   0.346 -2.7914 -3.0331 -0.1870
  525SOL     OW 1573   2.704   0.651   2.925 -0.1806  0.2868  0.4549
  525SOL    HW1 1574   2.622   0.704   2.960  1.0710  2.4762  0.5116
  525SOL    HW2 1575   2.765   0.715   2.869 -1.4846 -1.5541  1.3143
  526SOL     OW 1576   0.423   2.825   0.742  0.0382 -0.3418 -0.1847
  526SOL    HW1 1577   0.512   2.826   0.695 -0.3028 -0.4767  0.2233
  526SOL    HW2 1578   0.345   2.853   0.683  1.2340  1.4621  1.1105
  527SOL     OW 1579   3.057   1.049   0.769 -0.2698 -0.4534 -0.0219
  527SOL    HW1 1580   0.018   1.010   0.852  1.5575 -1.4580 -1.6997
  527SOL    HW2 1581   2.956   1.020   0.772 -0.8847  2.6009 -2.4956
  528SOL     OW 1582   0.774   1.194   2.508 -0.3407 -0.2998  0.7523
  528SOL    HW1 1583   0.802   1.152   2.596 -0.1743 -1.7055 -1.0666
  528SOL    HW2 1584   0.842   1.169   2.433  0.3071  3.0325  0.0136
  529SOL     OW 1585   0.948   1.217   0.259 -0.2545  0.2838  0.1553
  529SOL    HW1 1586   0.878   1.141   0.257 -2.2163 -0.4043  1.0474
  529SOL    HW2 1587   0.906   1.302   0.211 -1.5040 -1.4700 -2.1179
  530SOL     OW 1588   1.046   0.842   1.958  0.2029 -0.2274  0.0975
  530SOL    HW1 1589   0.970   0.824   1.889  0.0308  0.8013  0.3228
  530SOL    HW2 1590   1.142   0.817   1.926  1.7598  1.9552 -2.1792
  531SOL     OW 1591   1.240   2.509   0.065 -0.0981  0.2594  0.3327
  531SOL    HW1 1592   1.228   2.551   0.158 -0.4805  0.5912  0.0315
  531SOL    HW2 1593   1.333   2.530   0.026 -0.6141  0.6267 -0.0649
  532SOL     OW 1594   2.403   0.713   2.329 -0.3033  0.7580  0.2133
  532SOL    HW1 1595   2.493   0.754   2.304 -1.3452  0.1910 -1.6664
  532SOL    HW2 1596   2.388   0.710   2.434 -2.6854  0.3817  2.2461
  533SOL     OW 1597   2.928   0.150   2.051  0.6607  0.2759  0.7117
  533SOL    HW1 1598   3.019   0.194   2.067 -0.6757  1.6371  2.3904
  533SOL    HW2 1599   2.942   0.051   2.071 -0.5609  2.1067  0.5779
  534SOL     OW 1600   2.650   3.048   0.196 -0.5902 -0.0932  0.1537
  534SOL    HW1 1601   2.702   0.041   0.158 -1.7971  2.0962 -0.3543
  534SOL    HW2 1602   2.552   3.072   0.198  3.1744  0.2648 -1.6629
  535SOL     OW 1603   0.683   0.541   0.204 -0.3712  0.5568 -0.3329
  535SOL    HW1 1604   0.646   0.619   0.253  1.1051 -1.4902 -1.2422
  535SOL    HW2 1605   0.630   0.450   0.220 -4.3372 -2.4442 -0.5790
  536SOL     OW 1606   1.267   2.197   1.233  0.6741  0.2065  0.0900
  536SOL    HW1 1607   1.176   2.149   1.230  1.9539  2.2141  0.9881
  536SOL    HW2 1608   1.267   2.272   1.168 -1.7418 -0.6984  0.1513
  537SOL     OW 1609   2.814   2.373   1.538  0.1157 -0.0797 -0.4642
  537SOL    HW1 1610   2.849   2.444   1.600  0.4648  3.2128 -1.1798
  537SOL    HW2 1611   2.723   2.347   1.570 -1.3084  0.6339 -0.0937
  538SOL     OW 1612   0.698   2.306   0.377  0.5576 -0.4335  0.4077
  538SOL    HW1 1613   0.788   2.300   0.328  2.7078  1.2134  1.4902
  538SOL    HW2 1614   0.712   2.288   0.475 -0.9679  0.5253 -2.6501
  539SOL     OW 1615   2.008   1.138   2.336 -0.0765 -0.1701 -0.0667
  539SOL    HW1 1616   1.911   1.123   2.312  0.2088 -0.2640 -1.6128
  539SOL    HW2 1617   2.058   1.154   2.245 -0.7828 -1.1728  0.4273
  540SOL     OW 1618   1.869   0.762   2.993 -0.1353 -0.5130 -0.9195
  540SOL    HW1 1619   1.868   0.674   2.949 -1.2667  1.5983  0.6036
  540SOL    HW2 1620   1.919   0.820   2.931 -0.6217 -1.7410  0.5846
  541SOL     OW 1621   0.491   0.858   2.546 -0.5019  0.6261  0.2560
  541SOL    HW1 1622   0.489   0.758   2.535 -1.1013  0.1923 -0.2939
  541SOL    HW2 1623   0.396   0.886   2.572  0.8085 -1.9088  0.4750
  542SOL     OW 1624   1.364   2.690   1.764 -0.2952  0.3162  0.0248
  542SOL    HW1 1625   1.296   2.615   1.746  1.2377  0.6692  0.2409
  542SOL    HW2 1626   1.383   2.735   1.673 -1.9494 -1.2976  2.4978
  543SOL     OW 1627   0.611   2.671   0.235  0.6631 -0.0516  0.1786
  543SOL    HW1 1628   0.577   2.603   0.164 -0.3062  1.6499 -2.3192
  543SOL    HW2 1629   0.593   2.637   0.330 -0.2986  2.6312 -1.0716
  544SOL     OW 1630   2.943   2.037   2.255 -0.3262 -0.4651 -0.4665
  544SOL    HW1 1631   2.869   2.090   2.212  1.9091 -1.4014  0.3808
  544SOL    HW2 1632   3.027   2.093   2.271  0.6851 -1.0056  0.0668
  545SOL     OW 1633   1.276   1.756   1.608  0.4329  0.0202  0.0865
  545SOL    HW1 1634   1.219   1.796   1.530  0.2874  1.8697 -2.8189
  545SOL    HW2 1635   1.228   1.686   1.658  0.4437  2.7489 -3.2739
  546SOL     OW 1636   3.009   0.398   2.780  0.0690 -0.1671  0.6127
  546SOL    HW1 1637   2.971   0.303   2.791 -4.2758 -0.7227  1.6933
  546SOL    HW2 1638   0.009   0.397   2.724 -3.3800 -1.2321  0.7895
  547SOL     OW 1639   1.463   3.050   0.993 -0.5750  0.5303  0.1148
  547SOL    HW1 1640   1.386   3.041   1.063 -0.4087  0.5040 -2.6315
  547SOL    HW2 1641   1.549   3.009   1.023  3.2215 -0.1692 -1.2360
  548SOL     OW 1642   1.348   1.939   0.007  0.0444  0.3044 -0.1845
  548SOL    HW1 1643   1.409   1.931   0.089 -0.8265 -0.7783  0.5823
  548SOL    HW2 1644   1.311   2.033   3.077  0.2088 -0.3600 -2.5030
  549SOL     OW 1645   2.105   0.510   3.023 -0.0054 -0.4947 -0.2086
  549SOL    HW1 1646   2.097   0.541   0.034  0.3253  0.6995 -3.0737
  549SOL    HW2 1647   2.137   0.591   2.966 -1.8028  2.1707 -0.9452
  550SOL     OW 1648   2.819   2.016   0.869 -0.1318 -0.1744  0.3304
  550SOL    HW1 1649   2.792   2.098   0.819 -0.2743 -0.8848  1.6134
  550SOL    HW2 1650   2.772   1.931   0.829 -2.1497  0.6550 -1.8762
  551SOL     OW 1651   0.981   0.172   1.103  0.5033  0.2749  0.2731
  551SOL    HW1 1652   0.922   0.255   1.092  1.0346  5.1756  1.2557
  551SOL    HW2 1653   1.016   0.138   1.011 -0.7265  1.2695 -4.4026
  552SOL     OW 1654   3.072   1.641   2.796  0.0201  0.5572 -1.2585
  552SOL    HW1 1655   0.062   1.585   2.766 -2.2021 -1.2061 -0.3208
  552SOL    HW2 1656   3.058   1.607   2.894  0.3704 -1.5315 -0.5618
  553SOL     OW 1657   2.520   2.627   0.294 -0.2820  0.6587 -0.2669
  553SOL    HW1 1658   2.565   2.671   0.215  3.1426 -2.3743 -0.7941
  553SOL    HW2 1659   2.418   2.611   0.280 -2.6144 -1.9336 -0.8714
  554SOL     OW 1660   2.067   1.123   1.491  0.2280 -0.4139 -0.0174
  554SOL    HW1 1661   1.983   1.152   1.444  0.6157 -0.8586  1.8829
  554SOL    HW2 1662   2.050   1.055   1.565 -0.6822  0.0599  1.1518
  555SOL     OW 1663   0.699   2.385   2.362  0.1899 -0.0135  0.1368
  555SOL    HW1 1664   0.694   2.444   2.447  0.7551  0.9350  3.9700
  555SOL    HW2 1665   0.740   2.300   2.392  0.4697  0.3157  1.6915
  556SOL     OW 1666   1.128   1.340   1.898  0.0526 -0.2804  0.1431
  556SOL    HW1 1667   1.217   1.324   1.943 -0.6910 -0.0648  0.4296
  556SOL    HW2 1668   1.133   1.415   1.828 -0.0281 -1.2778  0.1166
  557SOL     OW 1669   1.271   2.977   1.228 -0.3206  0.5475 -0.1179
  557SOL    HW1 1670   1.321   3.051   1.271 -1.0333 -3.0331  1.4276
  557SOL    HW2 1671   1.171   3.005   1.223 -0.6825 -2.4980  0.9935
  558SOL     OW 1672   0.309   0.518   2.352 -0.3104  0.0704  0.0863
  558SOL    HW1 1673   0.342   0.423   2.331  1.8494 -0.2969  0.9419
  558SOL    HW2 1674   0.209   0.516   2.349 -0.1598  1.4855 -2.3628
  559SOL     OW 1675   1.232   2.697   0.264 -0.4765 -0.0026 -0.0595
  559SOL    HW1 1676   1.170   2.744   0.331  0.1020  1.0694  1.4339
  559SOL    HW2 1677   1.326   2.699   0.299  0.0289 -0.3529 -0.1519
  560SOL     OW 1678   1.501   1.996   0.236  0.3365 -0.1782 -0.0104
  560SOL    HW1 1679   1.561   1.944   0.297  0.2103  3.0949 -0.6318
  560SOL    HW2 1680   1.545   2.083   0.208  0.4460  0.8174  0.2663
  561SOL     OW 1681   1.327   2.922   0.588  0.4605  0.2251  0.2872
  561SOL    HW1 1682   1.302   3.017   0.563  0.1949  0.9778 -1.7515
  561SOL    HW2 1683   1.318   2.903   0.684  0.4249 -0.1233  1.7779
  562SOL     OW 1684   0.295   0.773   2.230  1.7408  0.0678  0.7325
  562SOL    HW1 1685   0.352   0.852   2.252 -1.2621 -0.9758 -1.2547
  562SOL    HW2 1686   0.336   0.687   2.266 -1.2201  2.0230 -1.9291
  563SOL     OW 1687   1.361   2.041   2.528  0.2252 -0.2447  0.0985
  563SOL    HW1 1688   1.337   2.088   2.441  1.9551 -1.1786 -1.7533
  563SOL    HW2 1689   1.419   2.101   2.588  3.0607 -0.8490 -0.7434
  564SOL     OW 1690   2.478   0.699   1.251  0.1358  0.4435 -0.2535
  564SOL    HW1 1691   2.401   0.755   1.210  0.4443  0.5473  0.5127
  564SOL    HW2 1692   2.507   0.742   1.340  0.2465  1.7915 -1.7219
  565SOL     OW 1693   1.391   1.115   0.294 -0.3868 -0.1831 -0.1854
  565SOL    HW1 1694   1.379   1.150   0.203  0.5359  1.2709  1.0356
  565SOL    HW2 1695   1.460   1.176   0.342 -0.5065  1.0920  2.2397
  566SOL     OW 1696   2.274   2.489   0.027 -0.0129  0.3001  0.3572
  566SOL    HW1 1697   2.375   2.501   0.015  1.8797 -0.7338 -0.3841
  566SOL    HW2 1698   2.236   2.551   0.097 -0.2976 -0.1649 -3.2848
  567SOL     OW 1699   1.689   0.973   0.949  0.0944 -0.1296  0.0297
  567SOL    HW1 1700   1.781   1.020   0.963  0.4115  0.7434  1.7555
  567SOL    HW2 1701   1.684   0.885   1.003  0.2966  1.8950 -0.5867
  568SOL     OW 1702   1.217   1.586   2.381  0.0619  0.0681 -0.1179
  568SOL    HW1 1703   1.142   1.622   2.438  1.3400  0.7147  0.0576
  568SOL    HW2 1704   1.304   1.626   2.414 -2.4901 -1.5334 -1.8561
  569SOL     OW 1705   2.093   1.683   0.932  0.4043 -0.0480  0.0131
  569SOL    HW1 1706   2.165   1.636   0.882 -2.3477  1.4729  0.4659
  569SOL    HW2 1707   2.128   1.701   1.028  1.1508 -0.3013  1.5319
  570SOL     OW 1708   2.610   2.264   2.340  0.0934 -0.1962  0.0197
  570SOL    HW1 1709   2.552   2.349   2.334 -0.5068  0.9035  0.6570
  570SOL    HW2 1710   2.576   2.201   2.408  0.3344  3.1542  0.0502
  571SOL     OW 1711   2.787   1.854   1.779 -0.1708  0.0278  0.5610
  571SOL    HW1 1712   2.745   1.817   1.864 -0.6627  0.0437  1.4705
  571SOL    HW2 1713   2.730   1.933   1.741 -0.3615  0.4926  0.7066
  572SOL     OW 1714   1.433   2.311   2.883  0.3907 -0.0001 -0.1279
  572SOL    HW1 1715   1.388   2.392   2.839 -0.0577  0.4665 -1.4341
  572SOL    HW2 1716   1.468   2.258   2.799 -2.1389  1.6917 -2.2164
  573SOL     OW 1717   1.702   2.112   1.213 -0.0636 -0.3246  0.3476
  573SOL    HW1 1718   1.622   2.087   1.273  1.7167 -1.3876 -0.6610
  573SOL    HW2 1719   1.774   2.154   1.271  1.1508  0.4844 -0.8799
  574SOL     OW 1720   1.081   2.756   1.369  0.1567 -0.3283  0.0001
  574SOL    HW1 1721   0.990   2.717   1.400  1.1216  0.4094  0.3925
  574SOL    HW2 1722   1.071   2.816   1.291 -0.5938 -0.4687 -0.1802
  575SOL     OW 1723   0.940   0.710   1.032  0.0747  0.2163 -0.1128
  575SOL    HW1 1724   0.984   0.770   0.965 -1.8640  0.7544 -0.5535
  575SOL    HW2 1725   0.999   0.672   1.107 -0.4807  2.2706  1.1717
  576SOL     OW 1726   2.354   0.360   1.342 -0.0431 -0.0285  0.1323
  576SOL    HW1 1727   2.444   0.389   1.300  2.6205  1.1294 -0.2670
  576SOL    HW2 1728   2.367   0.311   1.435  1.0275 -1.1158 -0.9543
  577SOL     OW 1729   2.337   0.232   2.741  0.0518 -0.3835  0.0066
  577SOL    HW1 1730   2.401   0.308   2.766 -1.2606 -2.0748  0.8658
  577SOL    HW2 1731   2.254   0.271   2.694 -1.9647  2.3524  0.7179
  578SOL     OW 1732   1.968   1.835   2.003 -0.2444 -0.5526 -0.5975
  578SOL    HW1 1733   1.934   1.749   2.036 -0.9865  0.1151  2.6533
  578SOL    HW2 1734   1.964   1.840   1.900  1.4725 -0.2576 -0.1416
  579SOL     OW 1735   0.703   1.821   1.174  0.6266 -0.1843  0.0906
  579SOL    HW1 1736   0.611   1.864   1.143 -0.4189 -0.1751 -1.3758
  579SOL    HW2 1737   0.727   1.746   1.105 -1.0779  1.1714 -0.3578
  580SOL     OW 1738   1.497   2.980   2.810  0.0322 -0.0005 -0.2686
  580SOL    HW1 1739   1.412   2.994   2.763  1.1160 -1.9071  1.7403
  580SOL    HW2 1740   1.568   2.958   2.739 -0.9644  2.1319  1.4726
  581SOL     OW 1741   0.846   0.597   2.052 -0.4755  0.5124  0.4610
  581SOL    HW1 1742   0.929   0.574   1.996  3.3976 -3.1632 -3.5959
  581SOL    HW2 1743   0.863   0.643   2.139  0.2502 -4.4909 -2.3569
  582SOL     OW 1744   0.280   0.854   0.674 -0.0824  0.2735  0.0831
  582SOL    HW1 1745   0.256   0.894   0.766 -0.6924  0.6242 -1.0376
  582SOL    HW2 1746   0.367   0.895   0.638  1.4033 -0.5522 -1.1193
  583SOL     OW 1747   0.821   1.896   1.956 -0.3297  0.5851 -0.7220
  583SOL    HW1 1748   0.735   1.934   2.000  0.6817  0.7000 -2.1973
  583SOL    HW2 1749   0.907   1.925   2.003  3.6546 -0.6039  1.9040
  584SOL     OW 1750   2.257   2.660   0.245 -0.2593  0.0798 -0.1078
  584SOL    HW1 1751   2.170   2.633   0.291 -0.4434  0.2098  1.2882
  584SOL    HW2 1752   2.274   2.760   0.259 -0.0609 -0.9250 -0.1512
  585SOL     OW 1753   2.095   0.573   2.684  0.0394 -0.2166 -0.5890
  585SOL    HW1 1754   2.125   0.618   2.770 -1.0744  0.9242 -3.0011
  585SOL    HW2 1755   2.036   0.638   2.630 -0.1655  0.2342 -1.1133
  586SOL     OW 1756   0.516   1.518   0.414  0.1521 -0.2496 -0.7456
  586SOL    HW1 1757   0.611   1.548   0.439  2.7497 -0.6699  4.0061
  586SOL    HW2 1758   0.446   1.560   0.474 -0.9401 -0.3664  0.3319
  587SOL     OW 1759   1.593   1.826   1.048  0.4590 -0.4126  0.4879
  587SOL    HW1 1760   1.694   1.832   1.062  0.8695  0.4894 -2.2547
  587SOL    HW2 1761   1.543   1.875   1.125  0.0722 -0.5745  2.4299
  588SOL     OW 1762   0.431   0.495   1.138  0.3072  0.6014 -0.1107
  588SOL    HW1 1763   0.523   0.522   1.172 -1.4674 -0.7127 -1.3475
  588SOL    HW2 1764   0.430   0.482   1.040 -0.4001 -0.0036  2.0271
  589SOL     OW 1765   1.700   2.931   1.128  0.4586 -0.1548  0.0552
  589SOL    HW1 1766   1.718   2.836   1.086  1.3302 -2.7529 -2.6466
  589SOL    HW2 1767   1.720   2.938   1.227 -1.9564  0.9262  0.2955
  590SOL     OW 1768   1.738   0.959   0.322  0.3178 -0.0158  0.2491
  590SOL    HW1 1769   1.706   0.882   0.260 -0.9645 -1.1479 -0.2658
  590SOL    HW2 1770   1.716   1.048   0.276 -0.5754  1.5834  0.7535
  591SOL     OW 1771   2.251   2.232   2.214  0.6067 -0.4394  0.4364
  591SOL    HW1 1772   2.254   2.184   2.302  0.8780 -1.7993 -0.8749
  591SOL    HW2 1773   2.295   2.181   2.139 -0.9092  1.9092  1.2340
  592SOL     OW 1774   1.470   2.053   1.328 -0.4461 -0.3842  0.5280
  592SOL    HW1 1775   1.445   1.952   1.310 -1.0370 -1.4202 -1.3860
  592SOL    HW2 1776   1.411   2.111   1.268  1.1894  1.3090 -1.6271
  593SOL     OW 1777   0.653   0.148   0.912 -0.2083  0.4726 -0.2179
  593SOL    HW1 1778   0.715   0.093   0.847 -0.1194 -0.9152 -1.0942
  593SOL    HW2 1779   0.677   0.244   0.902  0.4134 -0.3749 -1.0489
  594SOL     OW 1780   2.878   0.862   1.767 -0.1221 -0.5015  0.2315
  594SOL    HW1 1781   2.876   0.941   1.828 -0.5202 -2.1089 -2.4052
  594SOL    HW2 1782   2.950   0.794   1.794 -0.2220  1.4822 -0.2246
  595SOL     OW 1783   0.167   2.898   0.634  0.1980 -0.1252  0.4022
  595SOL    HW1 1784   0.100   2.839   0.593  1.1318  2.8479 -1.3165
  595SOL    HW2 1785   0.167   2.889   0.734  1.7312  1.2222 -3.4365
  596SOL     OW 1786   2.981   0.298   1.559 -0.5646 -0.2209  0.2653
  596SOL    HW1 1787   3.041   0.378   1.574  1.1296 -0.2144 -0.5656
  596SOL    HW2 1788   2.906   0.311   1.494  1.1686 -2.2317  1.9227
  597SOL     OW 1789   2.284   0.937   0.407  0.2501  0.1627 -0.0663
  597SOL    HW1 1790   2.263   0.929   0.309  0.7088  0.2965 -0.4422
  597SOL    HW2 1791   2.289   1.036   0.429 -2.1344  3.0547  1.4290
  598SOL     OW 1792   0.570   0.022   2.024 -0.3898  0.2152  0.2286
  598SOL    HW1 1793   0.470   0.053   2.020 -0.0718  0.9982 -0.4396
  598SOL    HW2 1794   0.585   3.032   2.092  3.4716  0.9718  0.9060
  599SOL     OW 1795   2.616   1.721   0.250 -0.3127  0.0879 -0.0042
  599SOL    HW1 1796   2.553   1.801   0.260 -0.0502  0.0355 -0.9536
  599SOL    HW2 1797   2.694   1.743   0.184 -0.9825 -1.6015  1.2984
  600SOL     OW 1798   1.109   1.116   0.045 -0.1284  0.3704  0.1985
  600SOL    HW1 1799   1.032   1.150   3.075 -2.2843  0.7540 -0.9234
  600SOL    HW2 1800   1.080   1.123   0.142 -2.7764 -2.8309 -0.4203
  601SOL     OW 1801   1.367   1.188   0.029  0.4896  0.0280 -0.6134
  601SOL    HW1 1802   1.382   1.238   3.027 -1.6617  2.3075 -1.9421
  601SOL    HW2 1803   1.269   1.158   0.033 -0.8860 -2.0524  1.4820
  602SOL     OW 1804   0.867   3.033   1.500  0.1914  0.2082  0.4053
  602SOL    HW1 1805   0.852   2.967   1.578 -1.0232 -0.5345  0.2316
  602SOL    HW2 1806   0.879   0.044   1.527  1.5193  0.3505 -0.1404
  603SOL     OW 1807   0.851   2.851   2.467 -0.0560  0.0780 -0.2709
  603SOL    HW1 1808   0.759   2.888   2.487  0.1984 -0.6746  1.1567
  603SOL    HW2 1809   0.923   2.925   2.466  1.1474 -2.4660  0.8456
  604SOL     OW 1810   2.885   2.994   2.191 -0.6298 -0.2497 -0.0447
  604SOL    HW1 1811   2.826   3.033   2.266  1.2044  0.7705  2.0223
  604SOL    HW2 1812   2.858   2.898   2.163 -1.7197  0.1874 -0.4507
  605SOL     OW 1813   2.701   2.704   1.314  0.2582 -0.1611 -0.1032
  605SOL    HW1 1814   2.658   2.678   1.402 -1.7071  0.5510  0.1184
  605SOL    HW2 1815   2.669   2.797   1.283  0.3643  2.6084 -0.8931
  606SOL     OW 1816   2.985   1.884   2.719 -0.2730 -0.4851  0.7480
  606SOL    HW1 1817   2.955   1.949   2.792  1.2566  1.0745 -1.3768
  606SOL    HW2 1818   3.026   1.797   2.759 -0.3531 -1.1435  1.4983
  607SOL     OW 1819   0.784   0.363   0.555 -0.8974  0.3363 -0.7128
  607SOL    HW1 1820   0.784   0.462   0.534 -0.7501 -2.5376 -1.3876
  607SOL    HW2 1821   0.882   0.337   0.581 -2.8138  0.6689  0.3315
  608SOL     OW 1822   1.587   1.748   2.232 -0.1590  0.0009 -0.0338
  608SOL    HW1 1823   1.523   1.736   2.149 -0.1321  0.7837 -0.8925
  608SOL    HW2 1824   1.648   1.665   2.236 -0.8749  0.3648  1.1960
  609SOL     OW 1825   2.926   0.479   0.964  0.1285  0.3112  0.5700
  609SOL    HW1 1826   3.010   0.444   0.913  3.4871 -2.4711  0.8946
  609SOL    HW2 1827   2.947   0.471   1.065 -0.0732  0.0415  3.5727
  610SOL     OW 1828   0.795   2.341   3.042 -0.0350 -0.1549 -0.0728
  610SOL    HW1 1829   0.875   2.393   3.004  3.0112 -1.5172 -1.8819
  610SOL    HW2 1830   0.824   2.259   0.009 -1.7646 -2.2480  0.7600
  611SOL     OW 1831   1.900   1.238   0.631 -0.1763  0.2034  0.5944
  611SOL    HW1 1832   1.932   1.196   0.541 -1.2813  0.4310 -3.4319
  611SOL    HW2 1833   1.813   1.199   0.657  1.8601  3.5687 -0.9238
  612SOL     OW 1834   1.005   2.488   2.452  0.7518  0.1557 -0.5864
  612SOL    HW1 1835   1.049   2.579   2.480  2.3235 -0.3366  1.1217
  612SOL    HW2 1836   0.943   2.498   2.370 -1.9251  0.7069  0.5539
  613SOL     OW 1837   1.228   1.670   0.586  0.4229  0.4610  0.0634
  613SOL    HW1 1838   1.308   1.647   0.647  1.3843  1.4000  0.9577
  613SOL    HW2 1839   1.185   1.765   0.606 -0.1998 -0.7873 -2.3007
  614SOL     OW 1840   2.574   2.324   1.698  0.3903 -0.0432 -0.7451
  614SOL    HW1 1841   2.516   2.331   1.620  3.1538 -0.9277 -0.1679
  614SOL    HW2 1842   2.528   2.353   1.784 -0.9715  2.0421  0.8058
  615SOL     OW 1843   2.501   1.181   0.046  0.0460 -0.6635  0.6340
  615SOL    HW1 1844   2.511   1.278   0.074  0.3215  0.2245  0.4392
  615SOL    HW2 1845   2.407   1.167   0.002 -1.7429  0.1475  0.0236
  616SOL     OW 1846   1.563   0.164   0.825  0.2488  0.4321 -0.2457
  616SOL    HW1 1847   1.512   0.115   0.898  1.5457 -1.1732 -0.9045
  616SOL    HW2 1848   1.654   0.199   0.854 -3.5944  0.1129 -1.2778
  617SOL     OW 1849   0.572   1.260   2.837 -0.2454  0.1714 -0.0680
  617SOL    HW1 1850   0.588   1.361   2.822  1.9954  3.8494 -1.5360
  617SOL    HW2 1851   0.533   1.219   2.751 -3.2228 -0.8722  1.5007
  618SOL     OW 1852   0.290   0.589   1.635 -0.3264 -0.1771 -0.6601
  618SOL    HW1 1853   0.326   0.649   1.561  0.0259  1.2348  0.7126
  618SOL    HW2 1854   0.285   0.644   1.723  2.9242 -0.0516  1.4454
  619SOL     OW 1855   2.714   0.805   1.571  0.2717  0.0080  0.1056
  619SOL    HW1 1856   2.761   0.726   1.520  2.1807 -1.6942 -2.8406
  619SOL    HW2 1857   2.768   0.831   1.652 -0.8368 -0.4162  1.0989
  620SOL     OW 1858   2.037   1.253   0.045 -0.1800  0.5218  0.0157
  620SOL    HW1 1859   1.977   1.171   0.047  1.3953  1.6398  0.5832
  620SOL    HW2 1860   2.035   1.302   0.131  0.4241  2.2394 -1.9205
  621SOL     OW 1861   2.338   3.034   1.197  0.1339 -0.4492 -0.4188
  621SOL    HW1 1862   2.319   0.046   1.171  1.3934  1.4381 -1.9785
  621SOL    HW2 1863   2.324   3.023   1.301  0.7238 -0.3543  0.7087
  622SOL     OW 1864   1.479   0.646   2.140  0.8933  0.1507 -0.9282
  622SOL    HW1 1865   1.473   0.671   2.043  0.9531  1.6338 -0.1905
  622SOL    HW2 1866   1.401   0.679   2.198  1.0407 -0.6003 -0.9633
  623SOL     OW 1867   1.092   0.864   2.743 -0.1396 -0.1056  0.0061
  623SOL    HW1 1868   1.000   0.908   2.756  1.3844  1.6259 -2.1766
  623SOL    HW2 1869   1.142   0.912   2.662  2.4648 -1.5292 -4.4380
  624SOL     OW 1870   1.979   0.283   0.710  0.0825  0.3379  0.5679
  624SOL    HW1 1871   1.956   0.201   0.648  1.6140  0.3893  0.9050
  624SOL    HW2 1872   2.024   0.357   0.655  2.6757 -1.1529  1.4879
  625SOL     OW 1873   0.764   1.598   0.541  0.1307 -0.3699  0.3688
  625SOL    HW1 1874   0.815   1.511   0.529  2.2084 -0.3465 -1.7726
  625SOL    HW2 1875   0.770   1.621   0.641 -0.7305  0.7204 -2.4081
  626SOL     OW 1876   1.730   1.118   2.277 -0.8791 -0.2660  0.5827
  626SOL    HW1 1877   1.733   1.134   2.174  0.2712  1.8737 -5.0809
  626SOL    HW2 1878   1.663   1.179   2.321  0.2109 -1.1752  0.2089
  627SOL     OW 1879   0.612   0.399   1.785 -0.4827  0.0587 -0.0065
  627SOL    HW1 1880   0.671   0.327   1.827 -3.5704  2.4371  2.1713
  627SOL    HW2 1881   0.521   0.363   1.753 -0.4567  0.9371 -2.8050
  628SOL     OW 1882   1.929   0.452   2.395  0.1260 -0.9242  0.3576
  628SOL    HW1 1883   1.967   0.410   2.312 -0.2752  1.7810  0.1688
  628SOL    HW2 1884   1.953   0.552   2.396  2.0285 -0.5500 -0.1549
  629SOL     OW 1885   0.831   1.441   0.133  0.0033 -0.0302 -0.3422
  629SOL    HW1 1886   0.805   1.525   0.187 -0.3348 -2.9723 -0.5950
  629SOL    HW2 1887   0.833   1.457   0.033 -0.1939 -1.3915  3.0144
  630SOL     OW 1888   0.823   0.342   2.112  0.6168 -0.4936 -0.2407
  630SOL    HW1 1889   0.839   0.441   2.096 -0.5027  0.8130 -0.0494
  630SOL    HW2 1890   0.743   0.322   2.175  1.8052 -0.8465 -3.9179
  631SOL     OW 1891   2.624   1.091   0.929 -0.1618  0.3693 -0.8600
  631SOL    HW1 1892   2.654   1.126   1.022  1.6691  0.9771 -2.7278
  631SOL    HW2 1893   2.525   1.111   0.915 -1.1075 -0.6807 -3.4723
  632SOL     OW 1894   2.474   1.429   0.865 -0.1315 -0.0615  0.5976
  632SOL    HW1 1895   2.524   1.379   0.787  0.8625 -2.0572 -3.3337
  632SOL    HW2 1896   2.425   1.506   0.822 -0.1654 -0.4884 -0.8603
  633SOL     OW 1897   0.790   1.310   0.971  0.0923 -0.5514  0.8037
  633SOL    HW1 1898   0.727   1.323   1.047  2.6135  1.2643 -3.2077
  633SOL    HW2 1899   0.739   1.306   0.882 -0.6330  1.3191 -3.9832
  634SOL     OW 1900   1.602   3.056   0.632 -0.1432 -0.3326 -0.0138
  634SOL    HW1 1901   1.589   0.003   0.533  1.2104  1.5452 -1.8693
  634SOL    HW2 1902   1.565   0.043   0.693 -0.6889 -0.1890 -1.2518
  635SOL     OW 1903   1.867   0.740   1.322 -0.0861 -0.0420  0.3310
  635SOL    HW1 1904   1.967   0.757   1.325  1.4023  0.4899  1.1138
  635SOL    HW2 1905   1.828   0.754   1.415  1.3224 -1.2453 -0.9889
  636SOL     OW 1906   1.254   0.747   0.683 -0.3806  0.4537 -0.0422
  636SOL    HW1 1907   1.325   0.779   0.744 -1.8633  1.5412 -0.1905
  636SOL    HW2 1908   1.221   0.651   0.706  0.1650 -2.7235  0.6297
  637SOL     OW 1909   1.618   2.154   3.044 -0.1428 -0.1692  0.0525
  637SOL    HW1 1910   1.544   2.195   2.993  1.5669 -3.3942  1.5612
  637SOL    HW2 1911   1.649   2.072   2.988 -1.0722  0.6506 -1.4083
  638SOL     OW 1912   1.030   2.940   2.786  0.1531  0.2701  0.1770
  638SOL    HW1 1913   1.058   2.971   2.878 -0.8308 -1.3930 -1.0712
  638SOL    HW2 1914   0.938   2.979   2.775 -1.0402  1.7254  1.0312
  639SOL     OW 1915   1.283   2.108   1.558  0.4456 -0.0122  0.3905
  639SOL    HW1 1916   1.327   2.047   1.491  0.4513  1.7706  0.7731
  639SOL    HW2 1917   1.267   2.202   1.515 -0.4141  1.7000 -0.4508
  640SOL     OW 1918   0.549   2.894   2.867  0.0612 -0.0004  0.2929
  640SOL    HW1 1919   0.560   2.800   2.903 -1.3528  4.1850 -1.7444
  640SOL    HW2 1920   0.448   2.911   2.844 -1.8263  0.7161  0.5385
  641SOL     OW 1921   0.278   0.604   0.284 -0.3816  0.6638  0.2156
  641SOL    HW1 1922   0.180   0.577   0.308 -1.3593 -1.5218 -0.2676
  641SOL    HW2 1923   0.326   0.616   0.373  0.0626  0.4685 -0.1921
  642SOL     OW 1924   0.233   1.670   1.326  0.7928  0.0802 -0.0332
  642SOL    HW1 1925   0.258   1.661   1.423 -0.5090  0.9266  1.1891
  642SOL    HW2 1926   0.250   1.579   1.280 -2.0128 -1.8414  0.3180
  643SOL     OW 1927   0.437   1.810   2.467 -0.1893  0.0285 -0.3347
  643SOL    HW1 1928   0.458   1.814   2.369  1.0981 -2.4400  0.0400
  643SOL    HW2 1929   0.348   1.758   2.471 -2.6385 -1.8410  1.2453
  644SOL     OW 1930   1.628   2.440   0.147  0.6543 -0.2331  0.3084
  644SOL    HW1 1931   1.711   2.444   0.087 -3.9852 -1.1161  2.0514
  644SOL    HW2 1932   1.548   2.492   0.114  1.3511 -0.4532  0.9972
  645SOL     OW 1933   1.844   2.098   1.757 -0.1321 -0.0331 -0.2070
  645SOL    HW1 1934   1.757   2.101   1.805  1.1102  1.0530 -1.1318
  645SOL    HW2 1935   1.898   2.181   1.779  1.3653 -0.1361  1.4506
  646SOL     OW 1936   0.930   2.603   0.169  0.1008 -0.2101  0.2434
  646SOL    HW1 1937   1.018   2.659   0.167 -0.8244 -0.7297  1.0481
  646SOL    HW2 1938   0.869   2.618   0.087  0.8784 -0.2963 -1.0145
  647SOL     OW 1939   0.259   2.941   2.113 -0.2884 -0.3740 -0.4960
  647SOL    HW1 1940   0.248   2.914   2.210  0.4638 -1.7890  1.7649
  647SOL    HW2 1941   0.305   2.868   2.062  0.1962  1.8546 -1.3270
  648SOL     OW 1942   2.809   0.972   0.795 -0.9906  0.8808 -0.4955
  648SOL    HW1 1943   2.790   0.873   0.812  0.0431  0.7236 -1.3160
  648SOL    HW2 1944   2.738   1.035   0.833  2.2243 -0.8390  1.4267
  649SOL     OW 1945   2.032   2.701   2.698  0.6444  0.0378 -0.0164
  649SOL    HW1 1946   2.070   2.625   2.646  0.4003  2.2382  0.4910
  649SOL    HW2 1947   2.038   2.784   2.636 -0.9093 -0.9991 -1.3781
  650SOL     OW 1948   2.260   1.570   1.946 -0.6179  0.5831 -0.0329
  650SOL    HW1 1949   2.219   1.498   1.889  2.9347  1.2700 -1.4532
  650SOL    HW2 1950   2.359   1.571   1.922 -0.2007 -2.3394 -0.9703
  651SOL     OW 1951   1.266   1.666   2.759  0.2064 -0.4594  0.0597
  651SOL    HW1 1952   1.202   1.745   2.756 -1.2935 -3.1773  1.0862
  651SOL    HW2 1953   1.361   1.695   2.785  2.0795 -1.1374  2.1709
  652SOL     OW 1954   0.598   2.925   2.494  0.2249  0.8502 -0.5412
  652SOL    HW1 1955   0.533   2.849   2.512 -0.2650  1.2792 -0.2973
  652SOL    HW2 1956   0.569   3.011   2.531 -0.0491 -1.8274  1.4903
  653SOL     OW 1957   2.269   1.957   1.078 -0.6837 -0.0111  0.5846
  653SOL    HW1 1958   2.251   1.860   1.118  0.4742 -4.6897  0.5904
  653SOL    HW2 1959   2.252   2.028   1.147  2.0624  1.7059 -0.6766
  654SOL     OW 1960   2.396   2.884   2.077 -0.0201 -0.3803  0.7286
  654SOL    HW1 1961   2.336   2.894   2.157  1.8060  2.2780  0.0519
  654SOL    HW2 1962   2.423   2.976   2.043 -2.2283 -0.3153  1.9362
  655SOL     OW 1963   2.589   2.260   1.208 -0.1772 -0.2621 -0.2078
  655SOL    HW1 1964   2.655   2.335   1.188 -1.1133  0.1900  1.2717
  655SOL    HW2 1965   2.494   2.283   1.178  0.7481  0.4856 -0.6976
  656SOL     OW 1966   2.562   1.907   2.812 -0.1308  0.1333  0.2041
  656SOL    HW1 1967   2.611   1.877   2.731 -0.0896 -1.2222  0.1680
  656SOL    HW2 1968   2.482   1.968   2.791  1.8651  3.4403 -1.1383
  657SOL     OW 1969   0.060   1.229   0.589  0.2726  0.0323 -0.3395
  657SOL    HW1 1970   0.006   1.175   0.517 -0.4996 -2.0449 -1.8022
  657SOL    HW2 1971   0.046   1.180   0.672 -1.2039  0.1379 -1.8471
  658SOL     OW 1972   1.396   1.442   1.575  0.4247 -0.8714 -0.4778
  658SOL    HW1 1973   1.378   1.446   1.475 -1.7592  0.4833 -1.9947
  658SOL    HW2 1974   1.321   1.483   1.628 -0.1680 -2.3116  0.2556
  659SOL     OW 1975   1.022   3.043   1.254  0.5406  0.4306 -0.5287
  659SOL    HW1 1976   0.996   0.043   1.204  0.5092 -1.0966 -0.8232
  659SOL    HW2 1977   0.968   3.033   1.343  0.6269  1.3550  3.2548
  660SOL     OW 1978   2.281   0.717   0.931 -0.4124  0.5553 -0.4045
  660SOL    HW1 1979   2.281   0.712   0.830  1.5147 -0.0589 -1.4517
  660SOL    HW2 1980   2.231   0.637   0.972  0.4032  0.6110 -0.1131
  661SOL     OW 1981   0.582   1.841   0.192 -0.0546  0.0060  0.1184
  661SOL    HW1 1982   0.659   1.795   0.242 -0.9419 -2.9348 -3.7938
  661SOL    HW2 1983   0.621   1.865   0.103  0.9937 -0.2388  4.0799
  662SOL     OW 1984   2.201   0.872   2.236 -0.3801 -0.5570  0.7254
  662SOL    HW1 1985   2.266   0.805   2.278  1.7112  1.3447  1.3455
  662SOL    HW2 1986   2.263   0.954   2.215  1.5132  1.8748  0.2531
  663SOL     OW 1987   2.009   1.309   1.144  0.2674  0.1074 -0.2547
  663SOL    HW1 1988   2.010   1.347   1.050 -0.6601 -0.4342 -0.1183
  663SOL    HW2 1989   2.101   1.309   1.183 -1.4034  0.7087 -2.7281
  664SOL     OW 1990   0.245   2.992   1.122  0.3363 -0.0467 -0.0935
  664SOL    HW1 1991   0.303   3.004   1.037 -0.5419 -0.5451 -2.1510
  664SOL    HW2 1992   0.295   2.939   1.191  0.0876  1.0886  0.7500
  665SOL     OW 1993   1.495   0.355   2.817  0.0055  0.2290  0.7411
  665SOL    HW1 1994   1.494   0.385   2.912 -1.8450 -0.7042 -0.3056
  665SOL    HW2 1995   1.445   0.424   2.756 -2.5141  3.3096 -0.7907
  666SOL     OW 1996   0.375   0.262   2.265 -0.1356 -0.5124  0.0769
  666SOL    HW1 1997   0.361   0.163   2.296 -3.2091 -0.0062 -1.2790
  666SOL    HW2 1998   0.367   0.272   2.164 -0.5689  1.3991  0.6053
  667SOL     OW 1999   1.524   1.750   1.518  0.3035 -0.6993 -0.0721
  667SOL    HW1 2000   1.595   1.707   1.574 -0.2186  1.3131 -1.6706
  667SOL    HW2 2001   1.428   1.751   1.560 -1.4865 -1.5372  1.1704
  668SOL     OW 2002   0.174   1.457   2.298  0.1069  0.2162 -0.3265
  668SOL    HW1 2003   0.189   1.364   2.333 -1.6935  1.6857 -1.3473
  668SOL    HW2 2004   0.125   1.460   2.209 -1.6305  0.8432  1.2394
  669SOL     OW 2005   2.542   2.533   3.043  0.0202  0.5649 -0.0371
  669SOL    HW1 2006   2.587   2.462   2.983  0.1403  0.4913  1.9063
  669SOL    HW2 2007   2.608   2.578   0.021  1.9768  1.5290  0.4472
  670SOL     OW 2008   2.644   1.355   1.987  0.0165  0.1684 -0.3494
  670SOL    HW1 2009   2.619   1.267   1.941 -0.6928  1.6307  2.9330
  670SOL    HW2 2010   2.745   1.378   1.980  3.0229 -0.0669  2.9531
  671SOL     OW 2011   2.509   1.816   0.714  0.2865  0.5598  0.1562
  671SOL    HW1 2012   2.600   1.791   0.749 -1.8139 -0.4371 -0.5654
  671SOL    HW2 2013   2.475   1.905   0.746  1.5731 -3.2744 -0.8968
  672SOL     OW 2014   1.331   1.152   2.027 -0.0261 -0.0596 -0.6093
  672SOL    HW1 2015   1.398   1.088   1.978 -1.3298  0.4756 -2.2138
  672SOL    HW2 2016   1.253   1.095   2.059 -0.8560  3.2521 -1.1620
  673SOL     OW 2017   2.673   2.048   1.649 -0.5432  0.1037  0.0685
  673SOL    HW1 2018   2.657   2.147   1.663  0.2148  0.2514 -1.2864
  673SOL    HW2 2019   2.700   2.026   1.552  0.3883 -1.2413  0.4676
  674SOL     OW 2020   1.107   1.537   1.698  0.2602 -0.2405  0.4314
  674SOL    HW1 2021   1.043   1.582   1.762 -0.2925 -1.1834 -0.9372
  674SOL    HW2 2022   1.056   1.520   1.612  3.2098 -1.1300  0.2880
  675SOL     OW 2023   0.062   0.722   1.275 -0.1725 -0.0383  0.3390
  675SOL    HW1 2024   0.111   0.712   1.184  0.2585 -1.0029  1.1986
  675SOL    HW2 2025   3.068   0.666   1.268  4.7222  0.2867  0.7993
  676SOL     OW 2026   2.959   0.937   1.222  0.0255  0.6903 -0.6144
  676SOL    HW1 2027   3.039   0.881   1.250 -0.5787 -0.8728  1.1724
  676SOL    HW2 2028   2.882   0.881   1.183 -1.8173  3.5108 -0.0568
  677SOL     OW 2029   2.110   1.327   2.503 -0.2200 -0.3447 -0.0886
  677SOL    HW1 2030   2.066   1.247   2.458  1.1061  0.5901  1.2009
  677SOL    HW2 2031   2.179   1.382   2.448  1.1089  1.1272 -2.1892
  678SOL     OW 2032   2.652   1.730   1.114  0.5881 -0.8841 -0.2563
  678SOL    HW1 2033   2.710   1.684   1.042 -0.4125 -1.5324  0.4411
  678SOL    HW2 2034   2.665   1.834   1.122 -1.2350  1.6193 -2.2008
  679SOL     OW 2035   0.502   2.630   0.479 -0.3111 -0.3623 -0.2838
  679SOL    HW1 2036   0.553   2.612   0.567 -0.3113  1.7263  0.7456
  679SOL    HW2 2037   0.443   2.546   0.467  0.9740  0.1797 -0.5378
  680SOL     OW 2038   0.199   1.786   1.087 -0.3975  0.6463  0.0563
  680SOL    HW1 2039   0.186   1.886   1.077  1.0075 -0.1483 -0.9432
  680SOL    HW2 2040   0.215   1.754   1.183 -1.5209  3.1868 -0.9585
  681SOL     OW 2041   1.027   0.128   0.842 -0.4753  0.4997  0.0921
  681SOL    HW1 2042   1.016   0.205   0.773 -4.2775  2.0084 -2.3268
  681SOL    HW2 2043   1.111   0.076   0.820 -0.7085  0.6630  0.6049
  682SOL     OW 2044   1.960   2.725   1.675 -0.7523 -0.0103 -0.4188
  682SOL    HW1 2045   1.965   2.623   1.698 -0.2030 -0.6506 -2.5411
  682SOL    HW2 2046   1.873   2.738   1.630 -0.2732 -1.2190 -0.8191
  683SOL     OW 2047   2.361   1.449   1.581 -0.3126  0.7549 -0.1718
  683SOL    HW1 2048   2.378   1.529   1.520 -0.2654  0.7625  1.3567
  683SOL    HW2 2049   2.392   1.483   1.674 -0.7152  1.1287 -0.1322
  684SOL     OW 2050   2.871   1.492   1.677  0.0382  0.4006 -0.1703
  684SOL    HW1 2051   2.823   1.576   1.650  2.5685  0.5809  2.7892
  684SOL    HW2 2052   2.969   1.501   1.656 -2.1859 -1.1611 -2.5349
  685SOL     OW 2053   1.593   1.568   0.265 -0.0095  0.4716  0.2124
  685SOL    HW1 2054   1.627   1.658   0.303 -0.0603 -0.2712  3.1903
  685SOL    HW2 2055   1.661   1.542   0.195  1.2446  1.3858 -4.2995
  686SOL     OW 2056   2.861   0.580   1.534 -0.9671 -0.0498 -0.2653
  686SOL    HW1 2057   2.961   0.592   1.561 -1.1333 -1.2260  0.5538
  686SOL    HW2 2058   2.810   0.518   1.595  1.6450 -1.8879  1.4607
  687SOL     OW 2059   1.630   0.115   2.846  0.2530 -0.2454 -0.5432
  687SOL    HW1 2060   1.565   0.035   2.830 -1.8323  1.1168  1.0035
  687SOL    HW2 2061   1.579   0.204   2.832 -1.0449  1.4998  0.9262
  688SOL     OW 2062   1.409   1.783   2.417 -0.2388  0.7528 -0.2352
  688SOL    HW1 2063   1.386   1.872   2.458 -0.7403 -3.9991 -0.8337
  688SOL    HW2 2064   1.479   1.792   2.340  0.1114 -0.1757  0.2924
  689SOL     OW 2065   2.143   1.348   1.807 -0.0805 -0.0499  0.0220
  689SOL    HW1 2066   2.157   1.251   1.841 -0.5802 -1.1383 -0.9561
  689SOL    HW2 2067   2.204   1.381   1.732  1.2234  1.9143  2.2647
  690SOL     OW 2068   2.193   2.299   1.465  0.3574  0.1176  0.2551
  690SOL    HW1 2069   2.201   2.300   1.567  2.4518  1.6852  3.0918
  690SOL    HW2 2070   2.174   2.210   1.420  1.2580  2.3204  0.6470
  691SOL     OW 2071   0.337   1.655   0.558  0.8450 -0.1888  0.4266
  691SOL    HW1 2072   0.355   1.731   0.490 -3.7896 -1.9999 -1.0115
  691SOL    HW2 2073   0.346   1.698   0.650  0.8748 -1.3041 -0.4808
  692SOL     OW 2074   2.940   2.777   2.529  0.0522  0.0494 -0.0376
  692SOL    HW1 2075   2.844   2.811   2.523 -0.0534  0.1517 -1.6778
  692SOL    HW2 2076   2.998   2.819   2.456  1.8747 -0.2464 -1.7024
  693SOL     OW 2077   0.066   1.439   2.061 -0.7032  0.0717  0.1925
  693SOL    HW1 2078   0.080   1.529   2.017  1.7706 -0.2278  0.1132
  693SOL    HW2 2079   0.090   1.366   1.996 -2.5506  0.6944 -0.6654
  694SOL     OW 2080   2.469   0.320   2.054 -0.2585  0.5723  0.2749
  694SOL    HW1 2081   2.531   0.375   2.000 -1.4148 -0.3588  2.3986
  694SOL    HW2 2082   2.396   0.374   2.093  2.4508 -3.0996 -2.1089
  695SOL     OW 2083   1.301   0.773   2.292  0.3769  0.2098 -0.0521
  695SOL    HW1 2084   1.367   0.824   2.355  0.4547  1.6434  1.2613
  695SOL    HW2 2085   1.253   0.841   2.233 -0.8068  0.2823  0.7521
  696SOL     OW 2086   2.152   2.933   1.650 -0.4476 -0.0975  0.0019
  696SOL    HW1 2087   2.161   2.974   1.743 -3.2002  0.3141 -1.0894
  696SOL    HW2 2088   2.090   2.855   1.648 -0.2358  0.3326  0.7298
  697SOL     OW 2089   1.071   0.217   2.081  0.5390 -0.1255 -0.1873
  697SOL    HW1 2090   1.083   0.129   2.133  0.7833 -1.2183  1.1316
  697SOL    HW2 2091   0.984   0.263   2.103  2.6636  2.5310  0.0195
  698SOL     OW 2092   2.363   1.724   2.507 -0.4761  0.0077  0.3123
  698SOL    HW1 2093   2.335   1.762   2.412 -1.2565 -0.3352 -0.8602
  698SOL    HW2 2094   2.470   1.735   2.520  2.6071 -0.2049 -2.0402
  699SOL     OW 2095   2.039   0.516   0.207 -0.5465  0.2780  0.4467
  699SOL    HW1 2096   2.032   0.617   0.202 -1.0847 -0.8810 -0.2458
  699SOL    HW2 2097   1.951   0.469   0.216  1.0819 -2.6763 -1.1869
  700SOL     OW 2098   1.230   3.036   0.846 -0.3369 -0.0112  0.3878
  700SOL    HW1 2099   1.329   3.038   0.869 -2.3145  3.5907 -1.5870
  700SOL    HW2 2100   1.184   2.978   0.917  0.5115  1.4270 -2.9199
  701SOL     OW 2101   2.980   0.574   0.578  0.3369 -0.2362  0.0821
  701SOL    HW1 2102   2.879   0.583   0.590 -1.2482 -0.3599 -0.9074
  701SOL    HW2 2103   3.023   0.664   0.601  1.2953  0.1043 -0.0240
  702SOL     OW 2104   1.714   2.807   1.558  0.3006  0.0487  0.0818
  702SOL    HW1 2105   1.656   2.758   1.492 -1.5376  1.5391 -4.1745
  702SOL    HW2 2106   1.699   2.908   1.549 -4.0247  1.2347 -1.7933
  703SOL     OW 2107   2.934   0.560   1.250 -0.5325 -0.7576  0.4753
  703SOL    HW1 2108   2.876   0.644   1.222 -1.0873  0.1005  0.4054
  703SOL    HW2 2109   2.919   0.521   1.342 -1.0343  2.2649 -1.3345
  704SOL     OW 2110   0.834   2.673   1.464  0.3311  0.2864  0.4116
  704SOL    HW1 2111   0.810   2.576   1.454 -1.2642 -1.6557 -0.1701
  704SOL    HW2 2112   0.757   2.734   1.435 -0.8512  0.8717 -2.5806
  705SOL     OW 2113   0.281   1.945   2.970  0.3799  0.3563  0.3860
  705SOL    HW1 2114   0.300   1.851   2.929 -0.8490 -1.3716  0.5593
  705SOL    HW2 2115   0.349   1.977   3.033  1.3198  0.9101  0.3335
  706SOL     OW 2116   0.043   0.123   0.044  0.0121 -0.4298 -0.3307
  706SOL    HW1 2117   0.090   0.190   3.070 -0.5524 -2.0080  2.1767
  706SOL    HW2 2118   0.111   0.098   0.116  0.5331  0.9651  0.5033
  707SOL     OW 2119   1.599   2.924   2.141  0.4037 -0.0732 -0.4581
  707SOL    HW1 2120   1.578   3.007   2.081 -1.4619 -0.6148  0.3603
  707SOL    HW2 2121   1.590   2.834   2.094  0.5892  0.2395  0.7558
  708SOL     OW 2122   0.290   3.052   1.687  0.0040  0.0322 -0.3383
  708SOL    HW1 2123   0.374   0.014   1.659  0.5152 -1.5422 -1.2531
  708SOL    HW2 2124   0.260   2.974   1.628 -0.6319  1.2446  1.3379
  709SOL     OW 2125   0.011   0.538   1.637 -0.4312  0.0844  0.3462
  709SOL    HW1 2126   0.107   0.566   1.618  1.6563 -0.2456 -1.3728
  709SOL    HW2 2127   0.003   0.525   1.734 -0.3947  0.3356 -2.8086
  710SOL     OW 2128   0.333   1.048   0.939  0.4627  0.6488 -0.1320
  710SOL    HW1 2129   0.347   1.132   0.884 -0.3792 -0.8581 -1.7883
  710SOL    HW2 2130   0.235   1.037   0.962 -0.5818 -2.3729  2.0422
  711SOL     OW 2131   2.474   2.821   1.836 -0.1786 -0.3023 -0.0085
  711SOL    HW1 2132   2.460   2.842   1.934  1.7243 -1.4811 -1.1500
  711SOL    HW2 2133   2.531   2.900   1.795  1.8226  3.5459 -2.3026
  712SOL     OW 2134   0.229   2.428   2.359 -0.1043 -0.2040  0.3913
  712SOL    HW1 2135   0.146   2.431   2.305  1.6951  1.1231 -0.7524
  712SOL    HW2 2136   0.220   2.373   2.445  1.0097  0.7382 -1.3522
  713SOL     OW 2137   2.722   0.239   0.614 -0.5055 -0.5469  0.3844
  713SOL    HW1 2138   2.664   0.233   0.533  1.6079  0.1737 -1.1565
  713SOL    HW2 2139   2.823   0.240   0.597  1.2053  0.1328  1.3072
  714SOL     OW 2140   1.816   1.835   2.508 -0.0532  0.1646  0.1537
  714SOL    HW1 2141   1.765   1.796   2.432 -0.4381  0.0405  2.7460
  714SOL    HW2 2142   1.878   1.913   2.481  1.3189  1.7786 -0.3027
  715SOL     OW 2143   0.126   0.633   0.813 -0.1573 -0.4674 -0.5092
  715SOL    HW1 2144   0.097   0.540   0.781  1.1162 -0.8769 -3.1412
  715SOL    HW2 2145   0.108   0.711   0.749 -0.6064 -0.6316 -0.5710
  716SOL     OW 2146   0.823   0.529   1.639 -0.7038  0.5977  0.1764
  716SOL    HW1 2147   0.796   0.581   1.556 -1.0096 -1.7599  4.0291
  716SOL    HW2 2148   0.747   0.483   1.687 -0.7783  3.1117  0.2531
  717SOL     OW 2149   0.745   0.500   2.447 -0.0842 -0.9423  0.3498
  717SOL    HW1 2150   0.720   0.416   2.399 -1.6620  1.4266  1.4108
  717SOL    HW2 2151   0.730   0.493   2.547  1.8633 -1.8354 -1.0960
  718SOL     OW 2152   1.235   0.056   0.443  0.2058  0.0481  0.3089
  718SOL    HW1 2153   1.217   0.151   0.472 -2.5922 -2.7202 -1.0467
  718SOL    HW2 2154   1.146   0.019   0.409  1.7011 -0.2393 -0.7690
  719SOL     OW 2155   2.961   2.314   2.852  0.4851  0.2295  0.0521
  719SOL    HW1 2156   2.928   2.221   2.882  2.0726  1.2514  1.4564
  719SOL    HW2 2157   2.895   2.364   2.792  0.7984  1.9974 -2.3368
  720SOL     OW 2158   1.088   0.542   1.507  0.3647  0.4122  0.1026
  720SOL    HW1 2159   1.163   0.508   1.570 -0.5406 -0.2592 -0.9410
  720SOL    HW2 2160   0.997   0.550   1.547 -1.0423  0.4150 -2.2189
  721SOL     OW 2161   0.137   2.809   0.902 -0.2493  0.1061  0.1658
  721SOL    HW1 2162   0.179   2.743   0.965 -1.9561 -0.2262  1.0079
  721SOL    HW2 2163   0.038   2.818   0.907  2.8772  2.6064  2.1456
  722SOL     OW 2164   0.907   1.194   2.959  0.0801  0.3930  0.8625
  722SOL    HW1 2165   0.879   1.293   2.950 -0.7409  1.0779 -0.2282
  722SOL    HW2 2166   0.836   1.145   3.012  1.4502  1.4968  0.3274
  723SOL     OW 2167   2.323   1.006   1.466 -0.0370  0.4636  0.9900
  723SOL    HW1 2168   2.335   1.035   1.369  0.6966  2.1605 -1.4908
  723SOL    HW2 2169   2.227   1.029   1.495  0.7594 -0.9604 -2.1748
  724SOL     OW 2170   0.981   1.911   0.255  0.5291 -0.3388  0.4415
  724SOL    HW1 2171   1.036   1.878   0.177 -2.3310  3.0288  0.4136
  724SOL    HW2 2172   1.048   1.928   0.328 -2.6310 -1.8246 -1.4045
  725SOL     OW 2173   0.240   0.807   1.454 -0.3146 -0.2081  0.0897
  725SOL    HW1 2174   0.308   0.866   1.395  2.1311  2.1544 -3.1659
  725SOL    HW2 2175   0.163   0.777   1.394  1.8412 -1.4628 -0.7051
  726SOL     OW 2176   2.592   0.962   2.920 -0.0840 -0.1705 -0.3140
  726SOL    HW1 2177   2.576   1.008   3.011  2.5253 -0.9132 -1.3717
  726SOL    HW2 2178   2.647   1.014   2.853  1.0144 -3.1618  1.9021
  727SOL     OW 2179   2.003   1.217   2.849 -0.0020 -0.1867  0.1593
  727SOL    HW1 2180   2.018   1.249   2.944  2.4231 -0.3730 -0.1367
  727SOL    HW2 2181   1.938   1.271   2.792 -0.7294  0.9112 -0.2533
  728SOL     OW 2182   1.841   2.485   1.313 -0.3890  0.7568 -0.4269
  728SOL    HW1 2183   1.875   2.580   1.299 -1.0213  0.2345  1.5862
  728SOL    HW2 2184   1.850   2.428   1.228 -0.8721  0.2228  2.4346
  729SOL     OW 2185   1.826   0.856   1.956  0.1743  0.5381  0.3752
  729SOL    HW1 2186   1.920   0.825   1.982 -1.1784 -0.7490 -2.2893
  729SOL    HW2 2187   1.814   0.957   1.955 -1.6056  0.3408 -1.3513
  730SOL     OW 2188   1.196   0.497   0.779 -0.0614 -0.2733 -0.4597
  730SOL    HW1 2189   1.217   0.527   0.874  1.1949 -1.3798 -0.8369
  730SOL    HW2 2190   1.280   0.440   0.742  0.9826 -2.0447 -0.4211
  731SOL     OW 2191   0.597   0.702   2.887 -0.1724  0.2077 -0.2396
  731SOL    HW1 2192   0.614   0.797   2.848  0.8943  3.9862 -0.9888
  731SOL    HW2 2193   0.510   0.700   2.937  0.0208 -1.1346 -1.6881
  732SOL     OW 2194   0.716   0.848   0.697 -0.0739 -0.2879 -0.2851
  732SOL    HW1 2195   0.788   0.916   0.718  0.3729 -1.8843 -0.6251
  732SOL    HW2 2196   0.640   0.883   0.646 -0.7626  1.2951  2.1227
  733SOL     OW 2197   1.411   1.682   2.030  0.3801 -0.4392  0.4004
  733SOL    HW1 2198   1.314   1.689   2.059  1.3611 -0.9403 -2.2463
  733SOL    HW2 2199   1.435   1.588   1.992  0.0689 -2.7375 -1.0882
  734SOL     OW 2200   0.378   2.274   2.897 -0.0522 -0.3555 -0.1058
  734SOL    HW1 2201   0.302   2.337   2.871  2.7912  1.1283 -1.9059
  734SOL    HW2 2202   0.459   2.303   2.842 -0.6410 -0.7626  1.3124
  735SOL     OW 2203   2.523   0.400   0.729  0.1406 -0.1580 -0.1946
  735SOL    HW1 2204   2.466   0.471   0.681  0.4063 -0.1080 -0.3220
  735SOL    HW2 2205   2.596   0.362   0.671 -1.2674 -2.1397  3.9695
  736SOL     OW 2206   2.287   1.481   2.370 -0.6587 -0.1857 -0.3030
  736SOL    HW1 2207   2.364   1.456   2.310 -1.5842 -0.1137 -1.7008
  736SOL    HW2 2208   2.319   1.559   2.430  2.3202  4.1049  1.4952
  737SOL     OW 2209   0.028   0.541   0.353 -0.0509  0.2667  0.3417
  737SOL    HW1 2210   3.046   0.513   0.278  0.4859 -0.1374  2.3290
  737SOL    HW2 2211   3.062   0.547   0.439  1.4030  0.8496 -1.7397
  738SOL     OW 2212   1.033   2.016   1.270  0.6358 -0.1417  0.2190
  738SOL    HW1 2213   1.062   1.934   1.322 -1.0186  2.3897  0.0891
  738SOL    HW2 2214   0.981   2.070   1.341  2.2569 -0.7731  0.9650
  739SOL     OW 2215   1.230   2.810   1.976 -1.0836  0.4346 -0.1627
  739SOL    HW1 2216   1.289   2.744   1.923  2.4536  0.1153 -1.4505
  739SOL    HW2 2217   1.257   2.910   1.960  0.5802  5.3690 -0.7398
  740SOL     OW 2218   2.173   2.573   1.455 -0.6582  0.3246 -0.1916
  740SOL    HW1 2219   2.174   2.470   1.444 -0.2792  2.3191  0.1996
  740SOL    HW2 2220   2.217   2.601   1.541 -1.3714  2.8023  1.7152
  741SOL     OW 2221   2.306   0.445   0.180 -0.5423 -0.3628  0.0672
  741SOL    HW1 2222   2.348   0.411   0.263  0.6229 -1.6949 -1.9928
  741SOL    HW2 2223   2.216   0.481   0.192 -1.0347 -0.3614  3.1181
  742SOL     OW 2224   1.470   2.605   3.058 -0.3604  0.5831  0.2720
  742SOL    HW1 2225   1.529   2.689   3.073 -0.3084 -0.5668 -0.8247
  742SOL    HW2 2226   1.441   2.608   2.959  1.7025  0.1601 -1.6318
  743SOL     OW 2227   2.353   1.073   2.151 -0.0172 -0.0183  0.3554
  743SOL    HW1 2228   2.403   1.087   2.238 -2.3473  2.1967 -0.2352
  743SOL    HW2 2229   2.414   1.083   2.069 -0.0363 -1.2622  0.4130
  744SOL     OW 2230   0.013   0.198   0.354  0.1303 -0.3637  0.1730
  744SOL    HW1 2231   0.098   0.155   0.398 -0.7113  1.0378 -2.4624
  744SOL    HW2 2232   0.028   0.209   0.257 -3.6499  2.0864  0.8712
  745SOL     OW 2233   2.112   1.380   1.488  0.0867  0.1824  0.3981
  745SOL    HW1 2234   2.090   1.283   1.492  1.5474 -0.3334  0.0107
  745SOL    HW2 2235   2.209   1.404   1.506 -1.1488  2.1082 -1.2741
  746SOL     OW 2236   0.868   1.611   0.786  0.0799 -0.1757  0.7177
  746SOL    HW1 2237   0.902   1.698   0.824  0.3829  2.0477 -0.5006
  746SOL    HW2 2238   0.941   1.554   0.741 -1.6245 -2.5747 -0.8456
  747SOL     OW 2239   0.984   1.493   1.461  0.0986  0.3635  0.0405
  747SOL    HW1 2240   0.894   1.532   1.428 -2.4282 -2.7426  1.0950
  747SOL    HW2 2241   0.979   1.393   1.473  0.0758 -0.0099 -2.9983
  748SOL     OW 2242   0.284   2.941   2.896  0.1844  0.8062  0.5679
  748SOL    HW1 2243   0.193   2.918   2.854  1.1371 -2.0819  1.3908
  748SOL    HW2 2244   0.296   2.898   2.987 -0.4934 -0.8089  2.3678
  749SOL     OW 2245   0.054   1.052   2.770 -0.5674 -0.3462 -0.2446
  749SOL    HW1 2246   0.031   1.090   2.861  0.8435  0.0383 -2.0547
  749SOL    HW2 2247   3.079   1.097   2.704 -0.0729  1.7957  1.3789
  750SOL     OW 2248   1.455   0.933   1.872  0.0505 -0.0292  0.0024
  750SOL    HW1 2249   1.459   1.005   1.800 -0.4194 -2.4020 -0.6103
  750SOL    HW2 2250   1.533   0.868   1.869  1.0782 -1.0905 -1.3530
  751SOL     OW 2251   2.773   0.738   0.376  0.1985 -0.4238  0.1126
  751SOL    HW1 2252   2.863   0.774   0.341  0.0572  0.6189 -0.8497
  751SOL    HW2 2253   2.746   0.657   0.316 -0.8521 -3.0223  1.6397
  752SOL     OW 2254   2.669   2.740   0.986 -0.7399  0.2792  0.4231
  752SOL    HW1 2255   2.672   2.798   1.072 -0.2984  0.3694  2.2666
  752SOL    HW2 2256   2.575   2.749   0.947 -1.9982  0.1764  0.1626
  753SOL     OW 2257   0.894   2.483   1.111 -0.3776  0.1477 -0.3015
  753SOL    HW1 2258   0.949   2.448   1.191 -0.4746 -1.7603 -1.8022
  753SOL    HW2 2259   0.799   2.490   1.138 -0.0624 -2.3672 -2.4336
  754SOL     OW 2260   3.040   2.715   2.173 -0.1126  0.4575  0.5483
  754SOL    HW1 2261   0.013   2.712   2.257 -0.6906 -2.0235  2.0832
  754SOL    HW2 2262   3.085   2.755   2.089  1.0625  0.5617  0.6784
  755SOL     OW 2263   2.408   0.611   3.058  0.9596 -0.1892  0.0212
  755SOL    HW1 2264   2.480   0.667   0.016  0.6903 -3.4578 -0.1113
  755SOL    HW2 2265   2.357   0.563   0.046  0.5542 -1.4180  1.9290
  756SOL     OW 2266   1.880   2.462   0.019  0.2621  0.3318  0.0139
  756SOL    HW1 2267   1.922   2.533   0.073  1.2983 -1.0000  0.0469
  756SOL    HW2 2268   1.947   2.388   3.085  0.0089  1.8964 -0.3403
  757SOL     OW 2269   2.508   0.200   0.424 -0.7838 -0.0343 -0.1097
  757SOL    HW1 2270   2.414   0.239   0.423 -0.0652  0.7623  1.2630
  757SOL    HW2 2271   2.512   0.104   0.464  0.7154  2.4480  1.6914
  758SOL     OW 2272   2.027   0.926   1.671 -0.1261  0.1900 -0.5490
  758SOL    HW1 2273   1.938   0.888   1.655  4.0746  2.9574 -1.9793
  758SOL    HW2 2274   2.099   0.845   1.675  2.9047 -0.1100 -2.5500
  759SOL     OW 2275   2.568   0.444   1.229  0.1810  0.0108  0.5877
  759SOL    HW1 2276   2.523   0.537   1.234  2.8644  0.6993  0.1746
  759SOL    HW2 2277   2.599   0.426   1.132  1.0847 -0.7616  3.1591
  760SOL     OW 2278   0.241   1.304   1.519  0.0989 -0.4217  0.3301
  760SOL    HW1 2279   0.230   1.207   1.546  1.2385  1.2502  0.1273
  760SOL    HW2 2280   0.152   1.351   1.515  1.5707 -0.4037 -0.3592
  761SOL     OW 2281   1.188   0.588   3.063 -0.0400 -0.6355 -0.5311
  761SOL    HW1 2282   1.135   0.532   2.997 -1.5082  0.0497 -0.1791
  761SOL    HW2 2283   1.184   0.688   3.048 -0.7038 -0.7259  2.1360
  762SOL     OW 2284   1.093   1.780   1.415 -0.1815  0.1998  0.2817
  762SOL    HW1 2285   1.115   1.723   1.334 -1.3123  0.0998  0.2106
  762SOL    HW2 2286   1.011   1.746   1.463 -2.9922 -1.1974 -1.3158
  763SOL     OW 2287   1.062   0.834   1.549  0.5782  1.0995 -0.2516
  763SOL    HW1 2288   1.128   0.759   1.532  2.8028 -0.9648  0.0143
  763SOL    HW2 2289   1.031   0.872   1.463  0.4237 -1.5801  0.2208
  764SOL     OW 2290   0.287   2.630   3.035  0.0833  0.4419  0.3703
  764SOL    HW1 2291   0.187   2.647   3.011 -1.0062  1.3452 -2.8081
  764SOL    HW2 2292   0.294   2.561   0.024 -1.2178 -1.8569 -0.7907
  765SOL     OW 2293   0.523   2.853   1.565  0.3934  0.2190 -0.0598
  765SOL    HW1 2294   0.503   2.867   1.665  1.5905  0.7465 -1.6816
  765SOL    HW2 2295   0.555   2.947   1.532 -3.0911  2.6837  2.3626
  766SOL     OW 2296   2.542   1.693   2.187  0.0843  0.2497  0.2671
  766SOL    HW1 2297   2.458   1.749   2.208 -0.4595 -1.6326  1.0322
  766SOL    HW2 2298   2.606   1.738   2.124 -2.4092  3.5362  1.3888
  767SOL     OW 2299   1.462   1.209   2.275 -0.1797  0.1857  0.9989
  767SOL    HW1 2300   1.414   1.249   2.352  2.4072  1.2690 -0.5818
  767SOL    HW2 2301   1.403   1.196   2.192  0.2046  1.5109  0.5817
  768SOL     OW 2302   1.669   1.796   0.369  0.2314 -0.2613 -0.6851
  768SOL    HW1 2303   1.709   1.766   0.460 -0.3795 -1.2500  0.7855
  768SOL    HW2 2304   1.739   1.854   0.329 -0.0855 -1.5068  2.8417
  769SOL     OW 2305   0.441   1.546   0.967 -0.3891  0.4333 -0.1513
  769SOL    HW1 2306   0.414   1.606   0.889  0.0217  0.6656 -2.7930
  769SOL    HW2 2307   0.541   1.572   0.995  2.2596 -1.0471 -0.7848
  770SOL     OW 2308   1.456   0.964   2.395  0.2837  0.4136  0.5577
  770SOL    HW1 2309   1.540   0.947   2.443 -1.3723  2.5589 -0.5417
  770SOL    HW2 2310   1.460   1.054   2.347  0.5792  1.7547 -3.0674
  771SOL     OW 2311   2.741   0.025   2.406  0.3234 -0.1991 -0.4074
  771SOL    HW1 2312   2.664   0.085   2.382 -0.7808 -1.8868 -0.2734
  771SOL    HW2 2313   2.712   3.021   2.449  1.0025 -7.5907  1.2696
  772SOL     OW 2314   2.324   1.852   2.258  0.1189 -0.0280 -0.0478
  772SOL    HW1 2315   2.223   1.867   2.252 -2.7799  0.4846  0.9857
  772SOL    HW2 2316   2.368   1.938   2.218  0.2686  0.0986  0.5789
  773SOL     OW 2317   0.714   1.540   1.780  0.6187  0.3643  0.1595
  773SOL    HW1 2318   0.684   1.458   1.832 -1.9453 -0.1937  1.3205
  773SOL    HW2 2319   0.683   1.533   1.684 -1.8447  0.1618  1.4630
  774SOL     OW 2320   1.469   0.794   2.988 -0.0117  0.0081  0.0513
  774SOL    HW1 2321   1.519   0.850   2.918  1.6095  0.6196  1.1222
  774SOL    HW2 2322   1.369   0.805   2.974 -1.5856  0.6297 -0.4947
  775SOL     OW 2323   1.727   2.437   2.865 -0.3999 -0.1878 -0.2890
  775SOL    HW1 2324   1.775   2.433   2.953  1.2618  0.9229  1.0507
  775SOL    HW2 2325   1.624   2.429   2.875 -1.5698 -0.1841 -0.8789
  776SOL     OW 2326   3.043   1.101   1.679 -0.1479 -0.1490  0.1240
  776SOL    HW1 2327   2.964   1.052   1.727 -0.2548  1.0915 -0.2263
  776SOL    HW2 2328   3.025   1.095   1.579 -1.3407  0.5246  0.8362
  777SOL     OW 2329   2.438   2.044   2.081  0.0703 -0.0192  0.1855
  777SOL    HW1 2330   2.505   2.113   2.108 -2.2392 -0.1169 -1.9199
  777SOL    HW2 2331   2.460   1.998   1.995 -0.6130  0.1877  2.3705
  778SOL     OW 2332   1.809   1.116   1.980 -0.1123  0.0450  0.1999
  778SOL    HW1 2333   1.761   1.182   1.919  0.9215 -0.9098 -0.9074
  778SOL    HW2 2334   1.900   1.151   2.018 -0.6685 -0.1325  0.6134
  779SOL     OW 2335   2.881   1.013   0.151 -0.0481 -0.1659 -0.5624
  779SOL    HW1 2336   2.927   0.927   0.176 -3.3464  2.4181  1.9301
  779SOL    HW2 2337   2.790   1.022   0.193 -0.3383 -0.7302  2.6347
  780SOL     OW 2338   2.254   3.049   2.756 -0.0135 -0.6866  0.1478
  780SOL    HW1 2339   2.157   3.037   2.727  2.1956  3.0005 -0.3265
  780SOL    HW2 2340   2.279   0.061   2.764  0.6100 -4.0031 -0.5856
  781SOL     OW 2341   2.826   1.617   1.338  0.0704  0.5144 -0.1611
  781SOL    HW1 2342   2.925   1.589   1.324 -0.9658 -0.3768 -1.1854
  781SOL    HW2 2343   2.778   1.632   1.246  0.4119  1.4233 -1.1055
  782SOL     OW 2344   2.668   2.020   0.037 -0.1233  0.3402  0.7014
  782SOL    HW1 2345   2.672   2.101   0.100 -2.6546 -2.6676 -1.2956
  782SOL    HW2 2346   2.592   2.032   3.055  0.1184  1.8731 -2.7400
  783SOL     OW 2347   0.706   1.604   1.020  0.0593  0.3022 -0.2031
  783SOL    HW1 2348   0.729   1.526   1.081  0.4075 -1.0759  0.4206
  783SOL    HW2 2349   0.750   1.600   0.929 -0.1704  1.4835  1.3067
  784SOL     OW 2350   2.584   0.952   0.253 -0.3328  0.1098  0.0384
  784SOL    HW1 2351   2.547   1.021   0.181 -0.7923 -1.1063 -2.7132
  784SOL    HW2 2352   2.596   0.999   0.345 -0.3262  3.3465 -0.5509
  785SOL     OW 2353   2.100   2.612   0.488 -0.3918  0.1943 -0.0501
  785SOL    HW1 2354   2.098   2.599   0.591 -1.0216  0.0672  0.2996
  785SOL    HW2 2355   2.090   2.520   0.449 -1.9811 -0.0805  0.2729
  786SOL     OW 2356   0.683   2.181   2.607 -0.0493 -0.5685 -0.6959
  786SOL    HW1 2357   0.731   2.162   2.518 -0.4145  2.0021 -1.8271
  786SOL    HW2 2358   0.596   2.124   2.615  0.4902 -0.6477  1.1794
  787SOL     OW 2359   1.456   0.374   1.196 -0.5185 -0.2207  0.0348
  787SOL    HW1 2360   1.354   0.352   1.215  0.7072  2.6183 -0.5661
  787SOL    HW2 2361   1.443   0.456   1.139 -0.6040  2.2718  1.4068
  788SOL     OW 2362   0.508   0.916   0.146  0.2757 -0.1410 -0.1071
  788SOL    HW1 2363   0.544   0.845   0.210 -0.5264  2.3740 -1.0321
  788SOL    HW2 2364   0.418   0.886   0.109  0.7195  0.6974 -2.1697
  789SOL     OW 2365   2.811   1.977   1.395  0.5602  0.3024 -0.0250
  789SOL    HW1 2366   2.819   1.880   1.426  1.0216 -1.8028  3.4025
  789SOL    HW2 2367   2.754   1.987   1.308 -1.3114 -0.2599 -1.3916
  790SOL     OW 2368   1.303   0.340   1.885  0.2196 -0.5351 -0.0112
  790SOL    HW1 2369   1.365   0.342   1.967 -2.9714  2.1611 -1.3131
  790SOL    HW2 2370   1.205   0.337   1.901  1.5922 -0.9398  0.3999
  791SOL     OW 2371   1.207   0.595   0.276 -1.1197  0.2276  0.0511
  791SOL    HW1 2372   1.219   0.567   0.176 -0.7699  0.3521 -1.3129
  791SOL    HW2 2373   1.258   0.678   0.288 -0.8595 -3.6151 -0.5571
  792SOL     OW 2374   1.333   3.084   1.607 -0.7802  1.0000  0.4331
  792SOL    HW1 2375   1.346   2.983   1.604  2.9972  0.3989  2.3728
  792SOL    HW2 2376   1.366   0.036   1.515  3.7428  0.6727 -5.4449
  793SOL     OW 2377   0.835   3.035   0.787 -0.0349  0.2152 -0.0488
  793SOL    HW1 2378   0.915   0.012   0.797  0.1265  1.8352 -1.0131
  793SOL    HW2 2379   0.816   2.989   0.874  1.0982 -2.1547 -0.7396
  794SOL     OW 2380   0.440   1.007   2.239 -0.3475  0.9710  0.1093
  794SOL    HW1 2381   0.531   0.987   2.189  0.7145  0.9962 -0.3525
  794SOL    HW2 2382   0.456   1.069   2.315 -0.3283 -0.3209 -0.3239
  795SOL     OW 2383   2.998   1.517   2.356 -0.0966  0.0570  0.3004
  795SOL    HW1 2384   2.949   1.508   2.268 -2.0605  0.1741  2.0784
  795SOL    HW2 2385   0.010   1.503   2.349  0.7483 -1.8570 -2.6735
  796SOL     OW 2386   2.050   1.208   2.093  0.1120 -0.3200  0.5194
  796SOL    HW1 2387   2.096   1.157   2.018  2.2592  2.4043 -0.8358
  796SOL    HW2 2388   2.078   1.306   2.101 -2.2551 -0.4302 -1.4718
  797SOL     OW 2389   0.054   2.924   2.724  0.9798 -0.1945  0.5499
  797SOL    HW1 2390   0.054   3.013   2.670  0.0331  3.5596 -1.3486
  797SOL    HW2 2391   0.002   2.856   2.672  2.3753  3.6050  3.7171
  798SOL     OW 2392   0.224   2.058   2.139 -0.3356 -0.0106 -0.1392
  798SOL    HW1 2393   0.132   2.068   2.093  0.8463  1.6572 -1.1879
  798SOL    HW2 2394   0.287   2.127   2.105 -1.0682 -0.3333 -1.0945
  799SOL     OW 2395   2.716   2.315   0.085 -0.4238  0.4850 -0.3577
  799SOL    HW1 2396   2.770   2.402   0.099 -1.1498  0.8259  3.0757
  799SOL    HW2 2397   2.682   2.313   3.075  0.5122 -1.4145 -0.1199
  800SOL     OW 2398   1.135   1.649   0.961  0.8639 -0.1407 -0.2476
  800SOL    HW1 2399   1.097   1.739   0.940  3.6119 -1.1814 -0.3551
  800SOL    HW2 2400   1.220   1.627   0.910  0.0896 -0.8019  1.2021
  801SOL     OW 2401   2.452   0.616   0.583 -0.0328  0.4698 -0.8017
  801SOL    HW1 2402   2.369   0.671   0.597 -0.8400  1.9953 -0.2814
  801SOL    HW2 2403   2.471   0.601   0.483  0.6665 -1.0348 -1.5151
  802SOL     OW 2404   2.516   1.651   0.503  0.7936  0.3694  0.0809
  802SOL    HW1 2405   2.565   1.679   0.417 -1.8100  0.0784 -1.7546
  802SOL    HW2 2406   2.522   1.721   0.570  1.8887 -0.2399 -1.8142
  803SOL     OW 2407   1.474   1.807   2.900 -0.0834 -0.2201  1.0080
  803SOL    HW1 2408   1.530   1.862   2.832  2.9117  0.7035  1.5215
  803SOL    HW2 2409   1.425   1.872   2.965 -0.8821 -0.7608 -1.6878
  804SOL     OW 2410   1.855   1.955   0.260 -0.4983 -0.5668  0.7244
  804SOL    HW1 2411   1.848   2.053   0.219 -3.6676 -1.3786 -3.8254
  804SOL    HW2 2412   1.908   1.897   0.194  0.4572 -1.6379 -2.3467
  805SOL     OW 2413   2.523   1.660   2.952 -0.4580  0.1113  0.3369
  805SOL    HW1 2414   2.552   1.756   2.932  3.2090  0.0777  2.1727
  805SOL    HW2 2415   2.574   1.606   2.883  0.8195 -0.1092 -0.2363
  806SOL     OW 2416   0.746   0.631   0.553 -0.2054 -0.3967 -0.1247
  806SOL    HW1 2417   0.833   0.639   0.502 -1.2153 -0.7303 -2.7925
  806SOL    HW2 2418   0.733   0.713   0.620 -0.1121  0.8306  0.7086
  807SOL     OW 2419   2.432   1.384   2.746 -0.0152  0.1822 -0.6892
  807SOL    HW1 2420   2.398   1.470   2.781 -0.1369  1.7121 -0.3485
  807SOL    HW2 2421   2.358   1.313   2.741 -2.1886 -0.6309 -2.8684
  808SOL     OW 2422   0.132   1.456   0.433  0.1417  0.5045 -0.2005
  808SOL    HW1 2423   0.104   1.369   0.486  1.6531 -0.5516  0.8273
  808SOL    HW2 2424   0.176   1.527   0.491 -0.1721  2.7074  1.8006
  809SOL     OW 2425   2.384   0.909   2.749 -0.1088 -0.0429 -0.1488
  809SOL    HW1 2426   2.444   0.943   2.824 -0.2076  0.0041 -0.9777
  809SOL    HW2 2427   2.319   0.983   2.720 -2.1440  1.4754 -0.5813
  810SOL     OW 2428   1.173   1.151   0.470  0.1955  0.0415 -0.0411
  810SOL    HW1 2429   1.254   1.153   0.409  0.4381  1.4380 -1.3234
  810SOL    HW2 2430   1.087   1.172   0.422  2.4601  0.7678 -0.6981
  811SOL     OW 2431   1.599   2.437   0.858  0.2884 -0.1655 -0.1518
  811SOL    HW1 2432   1.527   2.499   0.821  1.3000 -3.1746  3.4667
  811SOL    HW2 2433   1.589   2.343   0.822  3.1497 -1.1015  3.3932
  812SOL     OW 2434   0.223   2.584   1.592  0.7085 -0.3484 -0.3581
  812SOL    HW1 2435   0.183   2.513   1.532  2.0093  1.5414  1.3720
  812SOL    HW2 2436   0.322   2.598   1.568  0.8451 -0.9990 -3.1933
  813SOL     OW 2437   0.984   0.020   1.842  0.4579  0.0496  0.4570
  813SOL    HW1 2438   0.930   3.023   1.811 -1.6293 -0.7990  0.9054
  813SOL    HW2 2439   0.952   0.057   1.933 -3.7450  1.1289 -2.8734
  814SOL     OW 2440   1.313   0.135   2.458  0.4269 -0.7474  0.8465
  814SOL    HW1 2441   1.339   0.051   2.408 -0.3190  0.2586  0.5208
  814SOL    HW2 2442   1.265   0.201   2.397  1.0883  1.3792 -2.9623
  815SOL     OW 2443   0.293   0.323   2.015 -0.1821  0.1824  0.0974
  815SOL    HW1 2444   0.308   0.227   1.972 -2.8510 -2.2502  0.0299
  815SOL    HW2 2445   0.317   0.406   1.964 -1.2350  0.7285  1.2756
  816SOL     OW 2446   2.408   0.266   3.061  0.1077 -0.1284 -0.0053
  816SOL    HW1 2447   2.389   0.326   0.056 -1.3149  0.3989  2.6233
  816SOL    HW2 2448   2.411   0.328   2.977 -1.4212  2.3025 -0.1945
  817SOL     OW 2449   1.834   0.166   2.655 -0.6633 -0.3662  0.3893
  817SOL    HW1 2450   1.837   0.261   2.622 -0.1219 -2.8775 -0.4906
  817SOL    HW2 2451   1.763   0.149   2.723  1.7474 -0.2195 -1.7915
  818SOL     OW 2452   2.023   0.083   0.112  0.3019  0.3126 -0.0062
  818SOL    HW1 2453   2.070   0.143   0.180  1.4253  0.7973 -0.0605
  818SOL    HW2 2454   2.024   0.119   0.015  0.3160 -0.7029 -2.1138
  819SOL     OW 2455   2.440   1.494   0.223  0.1266  0.1412 -0.0966
  819SOL    HW1 2456   2.480   1.572   0.279  1.6464 -0.6167  1.6799
  819SOL    HW2 2457   2.513   1.478   0.150  0.0714 -1.5441 -0.3134
  820SOL     OW 2458   0.056   2.064   0.267  0.2221 -0.2071 -0.0830
  820SOL    HW1 2459   0.028   2.018   0.176 -0.7933 -1.6266 -3.0774
  820SOL    HW2 2460   0.020   2.014   0.344  1.2814  3.3052 -0.9249
  821SOL     OW 2461   2.937   2.796   1.234 -0.1042  0.2699  0.2242
  821SOL    HW1 2462   2.847   2.749   1.255 -3.1457 -0.4829 -1.0493
  821SOL    HW2 2463   2.972   2.844   1.315  1.1518 -0.1317  1.8600
  822SOL     OW 2464   2.557   2.549   2.648  0.5460  0.5970 -0.4356
  822SOL    HW1 2465   2.489   2.607   2.699 -1.1055  2.9793  1.2194
  822SOL    HW2 2466   2.516   2.506   2.563 -0.2518 -3.7077 -2.8634
  823SOL     OW 2467   1.657   0.167   2.288  0.3620  0.1201 -0.1822
  823SOL    HW1 2468   1.614   0.234   2.350 -3.3944  0.6984  0.1246
  823SOL    HW2 2469   1.668   0.078   2.331 -1.2487  1.6601  0.3132
  824SOL     OW 2470   2.392   1.672   1.412 -0.2627  0.6349 -0.3189
  824SOL    HW1 2471   2.348   1.760   1.441 -0.6962  0.2758  2.7546
  824SOL    HW2 2472   2.420   1.675   1.313  1.5097  0.9065  0.4739
  825SOL     OW 2473   2.807   1.830   2.383 -0.1937  0.8136 -0.0865
  825SOL    HW1 2474   2.790   1.759   2.313  1.6675 -2.3736  0.6225
  825SOL    HW2 2475   2.830   1.919   2.345  1.5867 -3.8114 -0.4952
  826SOL     OW 2476   2.468   1.039   2.381 -0.3517  0.0230 -0.4803
  826SOL    HW1 2477   2.518   1.127   2.390 -2.6672 -1.9183  0.1949
  826SOL    HW2 2478   2.537   0.956   2.377  5.2162 -0.7929  2.5036
  827SOL     OW 2479   2.521   2.625   1.525 -0.2194 -0.3947 -1.1279
  827SOL    HW1 2480   2.503   2.539   1.472  0.7578 -0.2419  0.3905
  827SOL    HW2 2481   2.434   2.650   1.571  0.3006  0.2355  1.5955
  828SOL     OW 2482   2.862   2.846   1.572  0.6684 -0.4163 -0.1789
  828SOL    HW1 2483   2.937   2.883   1.514 -0.6818  0.0689 -0.4558
  828SOL    HW2 2484   2.765   2.853   1.534  0.7891  0.8576  2.7284
  829SOL     OW 2485   1.377   2.174   2.274 -0.1487 -0.9710  0.0885
  829SOL    HW1 2486   1.398   2.275   2.276  1.2583  0.4659  2.3712
  829SOL    HW2 2487   1.467   2.129   2.271 -1.0410 -2.4206  5.8763
  830SOL     OW 2488   1.620   0.499   0.616  0.0585 -0.0443 -0.1339
  830SOL    HW1 2489   1.667   0.524   0.702  1.2520 -0.3169  1.1628
  830SOL    HW2 2490   1.679   0.471   0.544 -0.0109  0.9675  0.7305
  831SOL     OW 2491   2.602   1.402   0.594 -0.2961  0.5245 -0.3379
  831SOL    HW1 2492   2.705   1.389   0.604  0.1361 -0.7480  1.9940
  831SOL    HW2 2493   2.576   1.500   0.575 -0.8826  1.4395  0.8988
  832SOL     OW 2494   1.550   2.532   1.884 -0.7814  0.4073 -0.1248
  832SOL    HW1 2495   1.486   2.588   1.834  0.2767  1.3687  2.0479
  832SOL    HW2 2496   1.641   2.530   1.844 -0.9647 -0.8703  0.2455
  833SOL     OW 2497   0.014   2.956   2.369 -0.2558 -0.0848 -0.0451
  833SOL    HW1 2498   3.053   2.976   2.281 -0.6488  0.1264 -1.9990
  833SOL    HW2 2499   0.021   3.043   2.430  0.1294  0.5802  5.3574
  834SOL     OW 2500   1.038   0.920   1.267 -0.3250 -0.0524  0.3547
  834SOL    HW1 2501   1.100   0.995   1.290 -3.5648 -1.4702 -0.1697
  834SOL    HW2 2502   1.015   0.919   1.169  2.6306  1.2964 -0.5882
  835SOL     OW 2503   2.957   0.615   2.604  0.1585 -0.8595 -0.8339
  835SOL    HW1 2504   2.934   0.682   2.677  0.3804 -0.6770 -0.3373
  835SOL    HW2 2505   2.951   0.521   2.634  2.3937  1.3026 -0.4603
  836SOL     OW 2506   1.067   2.349   0.977  0.7495 -0.3064 -0.6633
  836SOL    HW1 2507   0.994   2.394   1.041 -2.1534  0.9017  3.5376
  836SOL    HW2 2508   1.165   2.380   0.995 -1.2852 -1.5195 -0.6594
  837SOL     OW 2509   2.110   0.944   0.882 -0.6296  0.7790  0.3819
  837SOL    HW1 2510   2.119   1.009   0.805 -1.1265 -2.7976  1.0676
  837SOL    HW2 2511   2.202   0.906   0.902  0.6101 -0.1762 -2.6116
  838SOL     OW 2512   1.349   1.295   2.500  0.4637  0.3185 -0.0553
  838SOL    HW1 2513   1.387   1.287   2.594 -0.4226 -1.3974  0.9462
  838SOL    HW2 2514   1.267   1.355   2.494 -0.9534  0.1164 -2.7898
  839SOL     OW 2515   0.624   2.372   2.823 -0.0308 -0.1565  0.3754
  839SOL    HW1 2516   0.660   2.304   2.758 -0.6004  0.6452 -0.0963
  839SOL    HW2 2517   0.676   2.367   2.909  2.6179 -0.3108  2.2827
  840SOL     OW 2518   0.547   2.611   2.948 -0.2903 -0.1261  0.0528
  840SOL    HW1 2519   0.454   2.633   2.985  0.7232  1.6460  1.4993
  840SOL    HW2 2520   0.557   2.517   2.904  0.4731 -0.9007  0.0224
  841SOL     OW 2521   1.771   2.202   0.182 -0.5755  0.0006  0.2379
  841SOL    HW1 2522   1.710   2.194   0.101  1.0048 -0.4126 -0.3266
  841SOL    HW2 2523   1.787   2.301   0.208 -1.6695 -2.1211 -2.9847
  842SOL     OW 2524   1.221   1.041   2.555  0.1434  0.1708 -1.3635
  842SOL    HW1 2525   1.261   1.128   2.594 -1.0989  1.7993 -1.6238
  842SOL    HW2 2526   1.289   1.003   2.494 -1.6524  3.1757  0.4535
  843SOL     OW 2527   1.580   2.778   0.714 -0.1881  0.1055 -0.1446
  843SOL    HW1 2528   1.603   2.720   0.638  0.2135  0.7062  0.0412
  843SOL    HW2 2529   1.558   2.878   0.685  2.7985  2.2258 -2.2200
  844SOL     OW 2530   2.407   2.799   2.659 -0.4080 -0.5285  0.3541
  844SOL    HW1 2531   2.383   2.899   2.658  0.0025 -2.4297  0.1088
  844SOL    HW2 2532   2.421   2.776   2.758  1.2061  0.5982 -4.1705
  845SOL     OW 2533   2.731   2.464   1.113 -0.6179  0.0187 -0.0580
  845SOL    HW1 2534   2.749   2.559   1.145 -2.8139  2.5232 -1.7787
  845SOL    HW2 2535   2.701   2.478   1.019 -3.0218  1.9275 -0.7004
  846SOL     OW 2536   0.088   2.121   2.388 -0.0422 -0.1450  0.3712
  846SOL    HW1 2537   0.155   2.122   2.313 -2.4045  1.6551  0.3067
  846SOL    HW2 2538   0.079   2.030   2.431 -1.0847  1.1114 -1.9254
  847SOL     OW 2539   1.514   0.410   1.522 -0.0702 -0.6847 -0.1648
  847SOL    HW1 2540   1.566   0.405   1.435 -2.0217 -0.9126 -2.5077
  847SOL    HW2 2541   1.524   0.323   1.574  0.8914  0.3028 -1.2169
  848SOL     OW 2542   0.141   0.303   2.961  0.3119  0.4674 -0.2363
  848SOL    HW1 2543   0.232   0.348   2.973  0.6060  1.5998  0.5423
  848SOL    HW2 2544   0.064   0.368   2.948 -1.2727 -0.2665 -0.9095
  849SOL     OW 2545   0.750   0.520   3.028 -0.3482  0.2085  0.0774
  849SOL    HW1 2546   0.695   0.595   2.986  0.0077  2.0494  1.0442
  849SOL    HW2 2547   0.738   0.523   0.043 -0.1835 -2.3231  2.0417
  850SOL     OW 2548   0.531   2.578   1.016 -0.0878 -0.3266  0.1675
  850SOL    HW1 2549   0.545   2.479   1.035 -2.0400 -0.9107 -0.8130
  850SOL    HW2 2550   0.437   2.598   1.055 -0.1359 -3.1271  0.4249
  851SOL     OW 2551   2.155   0.187   2.407 -0.2473  0.1288 -0.0103
  851SOL    HW1 2552   2.142   0.248   2.328 -0.5912 -2.2718  0.4767
  851SOL    HW2 2553   2.148   0.235   2.493  0.1064 -2.3587 -1.3598
  852SOL     OW 2554   1.670   1.460   2.183 -0.3188  0.7067  0.1077
  852SOL    HW1 2555   1.669   1.429   2.281 -0.6093 -1.7343 -0.8189
  852SOL    HW2 2556   1.592   1.424   2.129 -0.1637 -1.4372  0.8735
  853SOL     OW 2557   3.023   2.635   0.601  0.2174  0.1679 -0.1632
  853SOL    HW1 2558   0.011   2.602   0.664  1.4215 -2.8478 -1.1418
  853SOL    HW2 2559   2.937   2.659   0.648  2.7729 -0.7229  0.9583
  854SOL     OW 2560   2.303   0.307   0.890 -0.8981  0.7308  0.2268
  854SOL    HW1 2561   2.257   0.228   0.839  1.3530 -1.0663  0.2934
  854SOL    HW2 2562   2.394   0.317   0.845  1.2800 -2.2503  0.1910
  855SOL     OW 2563   1.372   2.042   0.687  0.3335  0.3637 -0.0246
  855SOL    HW1 2564   1.334   2.023   0.595  0.0719 -0.4100 -0.9081
  855SOL    HW2 2565   1.297   2.067   0.754 -0.2736 -3.0908  1.6037
  856SOL     OW 2566   2.677   0.316   0.245 -0.4685 -0.3323 -0.0227
  856SOL    HW1 2567   2.630   0.275   0.328  1.5601 -1.7098 -0.0283
  856SOL    HW2 2568   2.734   0.250   0.194 -0.4478 -0.8554  1.0815
  857SOL     OW 2569   1.733   2.848   1.832  0.0446  0.8083  0.6392
  857SOL    HW1 2570   1.735   2.809   1.737 -2.4082 -0.7287  0.4645
  857SOL    HW2 2571   1.759   2.776   1.905 -1.0734 -0.8749  1.6942
  858SOL     OW 2572   2.467   2.353   1.456  0.1423 -0.6248 -0.1828
  858SOL    HW1 2573   2.525   2.309   1.382 -0.0653 -2.4609  2.0705
  858SOL    HW2 2574   2.369   2.338   1.445  2.7126  0.1440  1.7010
  859SOL     OW 2575   1.176   2.398   0.640 -0.2626 -0.0132 -0.2136
  859SOL    HW1 2576   1.094   2.451   0.669  0.0736  0.7110 -0.4977
  859SOL    HW2 2577   1.258   2.432   0.679 -1.6801 -1.8579  0.1390
  860SOL     OW 2578   2.087   2.259   0.027  0.5558  0.2227 -0.0860
  860SOL    HW1 2579   2.160   2.329   0.025 -2.3423 -1.3040  0.6150
  860SOL    HW2 2580   2.100   2.204   0.112 -1.7570  0.1467 -0.4251
  861SOL     OW 2581   1.966   2.729   1.329  0.5602  0.2842  0.2343
  861SOL    HW1 2582   2.005   2.692   1.411  2.1402  1.2558  1.2378
  861SOL    HW2 2583   1.939   2.827   1.331  1.1770 -3.4174 -1.2208
  862SOL     OW 2584   1.992   3.019   2.697  0.2773  0.6860 -0.1456
  862SOL    HW1 2585   1.958   0.014   2.645  0.1779  1.3143  2.6260
  862SOL    HW2 2586   1.936   3.028   2.782 -1.1959 -0.3007 -0.0188
  863SOL     OW 2587   0.497   0.383   0.511 -0.3326  0.2365  0.1793
  863SOL    HW1 2588   0.598   0.368   0.524  1.7229 -0.2140 -1.2620
  863SOL    HW2 2589   0.438   0.309   0.548  0.3272  1.7391  0.1841
  864SOL     OW 2590   2.667   2.629   1.894  0.2749 -0.0132 -0.0989
  864SOL    HW1 2591   2.720   2.594   1.812  0.7178 -0.2502 -0.4241
  864SOL    HW2 2592   2.604   2.713   1.879 -1.3497  0.7128 -0.4234
  865SOL     OW 2593   2.898   2.052   2.954  0.7654 -0.0520  0.0316
  865SOL    HW1 2594   2.967   2.021   3.023  0.6231  0.7123 -4.5961
  865SOL    HW2 2595   2.803   2.043   2.991 -1.1626  3.7369 -0.5722
  866SOL     OW 2596   2.466   0.441   2.864  0.0301 -0.4215 -0.0751
  866SOL    HW1 2597   2.549   0.462   2.809 -0.7935  1.0280  0.1181
  866SOL    HW2 2598   2.434   0.525   2.915  0.0643  0.9942  0.8180
  867SOL     OW 2599   2.894   0.203   2.539 -0.4490 -0.0609  0.7485
  867SOL    HW1 2600   2.860   0.130   2.479  1.7572 -1.2092 -0.2445
  867SOL    HW2 2601   2.883   0.187   2.641 -0.5094 -1.9202 -0.4848
  868SOL     OW 2602   1.096   2.672   0.709  0.0793 -0.3713 -0.5324
  868SOL    HW1 2603   1.016   2.663   0.774 -0.8723  0.4188  2.4097
  868SOL    HW2 2604   1.067   2.733   0.633 -0.1491  0.2832  1.4867
  869SOL     OW 2605   1.390   1.191   1.267 -0.1677  0.0498  0.2147
  869SOL    HW1 2606   1.327   1.174   1.189 -2.3390  0.0645 -0.7974
  869SOL    HW2 2607   1.474   1.132   1.265 -0.4629 -0.1157 -0.1273
  870SOL     OW 2608   1.746   1.856   1.368 -0.0161  0.4845 -0.4138
  870SOL    HW1 2609   1.712   1.945   1.339  2.3228 -0.9281  1.1199
  870SOL    HW2 2610   1.670   1.793   1.399 -0.8422 -1.7855 -2.6303
  871SOL     OW 2611   1.169   1.616   1.226  0.1433 -0.1389  0.3447
  871SOL    HW1 2612   1.236   1.542   1.247 -0.6067 -0.7129 -0.6585
  871SOL    HW2 2613   1.140   1.615   1.127  0.3650  0.1609 -2.1553
  872SOL     OW 2614   1.241   0.866   0.980  0.1207  0.7848 -0.7078
  872SOL    HW1 2615   1.281   0.936   1.045  1.5124 -0.9549  1.8812
  872SOL    HW2 2616   1.193   0.911   0.901  1.0367  0.8384 -0.8077
  873SOL     OW 2617   1.542   0.814   2.642  0.4801 -0.0822  0.4710
  873SOL    HW1 2618   1.544   0.887   2.712 -0.6468  1.9898  1.0071
  873SOL    HW2 2619   1.619   0.819   2.577 -0.2347  1.0793  1.3607
  874SOL     OW 2620   0.342   1.221   1.258 -0.3596 -0.4421 -0.3598
  874SOL    HW1 2621   0.327   1.247   1.354 -1.4038 -0.3674 -1.6061
  874SOL    HW2 2622   0.311   1.298   1.203 -0.3395  0.1670  1.5466
  875SOL     OW 2623   2.665   2.797   0.088  0.6222  0.3282  0.5157
  875SOL    HW1 2624   2.680   2.890   0.128 -1.5768 -1.1717 -0.3619
  875SOL    HW2 2625   2.683   2.805   3.075 -0.6559  0.5741  0.6252
  876SOL     OW 2626   1.144   0.607   2.701  0.3223 -0.2144  0.1136
  876SOL    HW1 2627   1.127   0.536   2.772 -0.5185  2.4707  3.6307
  876SOL    HW2 2628   1.114   0.703   2.729  0.3951  3.7535  0.8989
  877SOL     OW 2629   3.071   2.965   1.429  0.1273 -0.1902  0.1085
  877SOL    HW1 2630   0.028   3.024   1.501  0.0701 -1.6610 -0.1114
  877SOL    HW2 2631   3.035   3.013   1.342  1.9298  1.9475 -3.9920
  878SOL     OW 2632   1.955   2.329   2.768  0.0970 -0.1936  0.0691
  878SOL    HW1 2633   1.862   2.373   2.778 -1.1240 -0.6414 -0.8209
  878SOL    HW2 2634   2.027   2.389   2.806 -0.2449 -0.6943 -0.8743
  879SOL     OW 2635   2.209   1.828   1.802 -0.3507 -0.2570 -0.8087
  879SOL    HW1 2636   2.115   1.844   1.763  2.0947 -0.8208  1.5295
  879SOL    HW2 2637   2.203   1.763   1.881  3.2960  3.1616  0.6265
  880SOL     OW 2638   0.752   0.983   1.093  0.0346 -0.0722 -0.7383
  880SOL    HW1 2639   0.779   1.020   1.184  0.6422  0.1789  2.4987
  880SOL    HW2 2640   0.659   0.942   1.105 -1.3921  0.3839 -0.7899
  881SOL     OW 2641   1.138   1.772   0.081 -0.2706 -0.1495  1.0122
  881SOL    HW1 2642   1.205   1.825   0.021 -0.9999  2.1149  0.9648
  881SOL    HW2 2643   1.189   1.726   0.157  0.1356 -0.4889  0.0253
  882SOL     OW 2644   1.633   0.186   1.292 -1.0523 -0.1477 -0.2293
  882SOL    HW1 2645   1.570   0.265   1.275 -0.4868 -2.0194  0.5259
  882SOL    HW2 2646   1.674   0.154   1.202 -0.8547 -1.4142 -0.8341
  883SOL     OW 2647   1.760   0.640   2.182  0.3548  0.1355  0.0048
  883SOL    HW1 2648   1.658   0.648   2.185 -2.0547  0.7681  1.7091
  883SOL    HW2 2649   1.792   0.714   2.117  0.5194  0.4860  0.6439
  884SOL     OW 2650   2.924   0.479   0.164 -0.0992 -0.5351  0.0453
  884SOL    HW1 2651   2.913   0.481   0.066  1.8843  2.0215  2.6705
  884SOL    HW2 2652   2.862   0.406   0.200  1.7396 -0.9121  3.1280
  885SOL     OW 2653   1.118   2.107   0.821 -0.4924 -0.5225 -0.0594
  885SOL    HW1 2654   1.049   2.128   0.756  3.0852  0.6348 -0.7478
  885SOL    HW2 2655   1.126   2.189   0.884 -1.3542  2.2381  2.5765
  886SOL     OW 2656   1.412   1.204   2.771  0.0308 -0.1776 -0.1899
  886SOL    HW1 2657   1.476   1.278   2.792  0.2978  0.5095  0.7178
  886SOL    HW2 2658   1.320   1.229   2.808 -0.3184  1.9829  1.0994
  887SOL     OW 2659   1.497   0.225   1.703  0.6406 -0.1077 -0.0442
  887SOL    HW1 2660   1.519   0.130   1.709 -2.2719  2.3514  0.5790
  887SOL    HW2 2661   1.417   0.253   1.768 -1.2561 -2.1660  0.4239
  888SOL     OW 2662   2.660   1.681   1.620  0.3326 -0.0841 -0.1536
  888SOL    HW1 2663   2.700   1.772   1.652  1.2437 -1.3421  1.8216
  888SOL    HW2 2664   2.609   1.695   1.536  3.2777 -0.3415  1.9009
  889SOL     OW 2665   2.938   2.411   0.843  0.2302  0.1179  0.4094
  889SOL    HW1 2666   3.032   2.449   0.819  0.6076  0.9761 -2.7222
  889SOL    HW2 2667   2.877   2.487   0.833  0.9528 -0.2331 -0.3171
  890SOL     OW 2668   0.379   1.844   2.185  0.4210  0.1047  0.0704
  890SOL    HW1 2669   0.361   1.782   2.108 -1.5429  1.2960 -1.0258
  890SOL    HW2 2670   0.307   1.912   2.186  0.9476  1.2845  1.0507
  891SOL     OW 2671   0.606   1.844   0.642 -0.0176 -0.1676  0.6010
  891SOL    HW1 2672   0.651   1.907   0.573  1.8069 -0.0862  2.2065
  891SOL    HW2 2673   0.614   1.743   0.624 -2.4643  2.2405  1.7029
  892SOL     OW 2674   2.979   2.186   1.409  0.0461 -0.1192 -0.4677
  892SOL    HW1 2675   2.919   2.257   1.454  3.0027  1.5457  1.3457
  892SOL    HW2 2676   2.933   2.094   1.410  0.3764  1.4223 -1.8535
  893SOL     OW 2677   0.041   0.069   1.627 -0.1777 -0.2764  0.3393
  893SOL    HW1 2678   3.079   0.154   1.594 -2.6272  1.0906  1.1483
  893SOL    HW2 2679   0.136   0.080   1.657  0.2076 -0.2179 -1.4458
  894SOL     OW 2680   2.761   1.766   0.766 -0.3253 -0.7780 -0.0350
  894SOL    HW1 2681   2.813   1.756   0.681  0.0436  1.6427  0.4471
  894SOL    HW2 2682   2.802   1.705   0.842  4.5473 -1.6053  2.9673
  895SOL     OW 2683   1.685   2.430   1.533 -0.3226  0.0885  0.5199
  895SOL    HW1 2684   1.676   2.327   1.526  1.5316  2.4718  0.1730
  895SOL    HW2 2685   1.746   2.459   1.463 -1.1394  0.9386  3.5587
  896SOL     OW 2686   0.343   0.130   1.303  0.8652 -0.1225 -0.4332
  896SOL    HW1 2687   0.257   0.079   1.273 -2.3375 -0.7125  1.1499
  896SOL    HW2 2688   0.319   0.222   1.341 -0.2677 -1.1481  0.5711
  897SOL     OW 2689   1.202   1.095   1.417 -0.2408  0.1514  0.2970
  897SOL    HW1 2690   1.279   1.152   1.381  0.4846 -0.0088  0.4195
  897SOL    HW2 2691   1.231   1.058   1.507  1.5698  0.3762  0.6074
  898SOL     OW 2692   0.772   0.204   1.624 -0.7899  0.1372  0.6518
  898SOL    HW1 2693   0.784   0.193   1.725  1.5155 -1.4306  1.3100
  898SOL    HW2 2694   0.844   0.266   1.587  1.1851 -0.0716  0.3463
  899SOL     OW 2695   1.503   0.015   0.021 -0.3034  0.0686 -0.4454
  899SOL    HW1 2696   1.574   0.083   0.022 -1.0237  0.8012  0.9250
  899SOL    HW2 2697   1.488   3.060   3.018 -1.7181 -3.9853  3.1119
  900SOL     OW 2698   0.630   0.287   2.293  0.3912 -0.0631 -0.6859
  900SOL    HW1 2699   0.663   0.209   2.347  4.0939 -0.5289  0.9948
  900SOL    HW2 2700   0.533   0.290   2.275 -0.5236  1.2623  1.3630
  901SOL     OW 2701   0.867   2.140   0.158  0.5447  0.5701 -0.2072
  901SOL    HW1 2702   0.886   2.051   0.203 -1.0148  1.9589 -1.6214
  901SOL    HW2 2703   0.920   2.217   0.192 -1.5672  0.6412 -1.1598
  902SOL     OW 2704   1.771   0.325   0.890 -0.0640 -0.2652  0.9783
  902SOL    HW1 2705   1.839   0.333   0.814  0.5009  2.1745  0.6535
  902SOL    HW2 2706   1.808   0.269   0.965 -2.2809  1.9578 -1.1098
  903SOL     OW 2707   2.913   1.239   2.540 -0.2974  0.0820 -0.6992
  903SOL    HW1 2708   2.908   1.331   2.579  1.3837 -2.2420 -0.7718
  903SOL    HW2 2709   2.899   1.245   2.438 -0.4866  0.9286 -0.4955
  904SOL     OW 2710   1.550   1.330   0.388 -0.3147 -0.3026 -0.4113
  904SOL    HW1 2711   1.542   1.425   0.348 -0.6649  1.3046 -0.8863
  904SOL    HW2 2712   1.536   1.336   0.490 -0.4365  0.8740  0.4589
  905SOL     OW 2713   1.908   2.985   1.344  0.2000  0.4122  0.4530
  905SOL    HW1 2714   1.857   3.031   1.415  0.3128 -1.3473 -1.1267
  905SOL    HW2 2715   1.973   3.048   1.290  3.2461  0.9013 -0.6448
  906SOL     OW 2716   2.094   2.810   1.110 -0.1283  0.6688  0.7667
  906SOL    HW1 2717   2.041   2.761   1.183  0.6764 -0.8712  0.7450
  906SOL    HW2 2718   2.144   2.884   1.147  0.0163 -0.6609 -1.6457
  907SOL     OW 2719   2.000   1.074   0.420  0.2191  0.4673 -0.1437
  907SOL    HW1 2720   2.047   0.985   0.435  1.4367  0.8571 -1.6865
  907SOL    HW2 2721   1.921   1.061   0.354  1.6170 -1.9602 -3.5205
  908SOL     OW 2722   1.731   0.483   1.337 -0.1848  0.3619  0.1852
  908SOL    HW1 2723   1.645   0.523   1.307 -0.6981 -0.0768 -0.7637
  908SOL    HW2 2724   1.800   0.555   1.340 -2.1960 -3.4784 -2.3607
  909SOL     OW 2725   2.378   3.002   0.716  0.5054 -0.3347 -0.1730
  909SOL    HW1 2726   2.471   3.047   0.740  3.4357  1.5589  2.7253
  909SOL    HW2 2727   2.299   3.065   0.727  3.5288 -1.8350 -1.0728
  910SOL     OW 2728   2.311   0.510   2.150 -0.2151  0.2581  0.2744
  910SOL    HW1 2729   2.319   0.559   2.062 -2.0722 -0.3362  1.6960
  910SOL    HW2 2730   2.332   0.574   2.231  0.1614 -2.5082  2.1878
  911SOL     OW 2731   2.500   0.029   2.625  0.3369 -0.1348 -0.1269
  911SOL    HW1 2732   2.465   0.123   2.654 -1.3357  1.4488 -0.0952
  911SOL    HW2 2733   2.547   3.065   2.704  0.4809 -2.0775  2.7546
  912SOL     OW 2734   0.600   0.964   1.496  0.7740  0.1685 -0.6235
  912SOL    HW1 2735   0.574   0.931   1.591 -1.5884 -3.2540  0.0322
  912SOL    HW2 2736   0.528   0.932   1.435 -1.1504  0.4133  1.5308
  913SOL     OW 2737   3.003   2.345   1.183 -0.5337 -0.0534  0.4950
  913SOL    HW1 2738   2.921   2.349   1.122  1.1187 -1.8249 -1.6640
  913SOL    HW2 2739   2.989   2.273   1.255 -1.5581  0.7391  1.4100
  914SOL     OW 2740   1.678   0.750   1.106  0.6348 -0.5818  0.3619
  914SOL    HW1 2741   1.747   0.736   1.185  1.1357  1.2257  0.4395
  914SOL    HW2 2742   1.688   0.677   1.034  2.3639 -2.1994 -1.2841
  915SOL     OW 2743   3.066   1.544   1.229  0.7035 -0.0303  0.1705
  915SOL    HW1 2744   0.071   1.586   1.252 -1.9742 -2.2246  1.8091
  915SOL    HW2 2745   3.069   1.497   1.140  0.1890 -0.1932  0.0072
  916SOL     OW 2746   1.936   2.352   1.076 -0.5856 -0.3153  0.1602
  916SOL    HW1 2747   2.014   2.408   1.101 -3.9243 -1.5182 -2.0092
  916SOL    HW2 2748   1.957   2.252   1.071  2.2657 -0.9072 -1.1306
  917SOL     OW 2749   1.641   2.562   2.150 -0.1036 -0.4891 -0.1660
  917SOL    HW1 2750   1.742   2.579   2.139 -2.0085  1.7361 -2.8472
  917SOL    HW2 2751   1.599   2.531   2.062 -0.0297  0.1392 -1.1907
  918SOL     OW 2752   1.979   2.037   2.432 -0.8221  0.3721 -0.0130
  918SOL    HW1 2753   1.976   2.135   2.455  0.9733 -1.0702 -0.1472
  918SOL    HW2 2754   2.045   1.990   2.492  0.8086 -0.8914  3.4641
  919SOL     OW 2755   0.798   0.320   1.219  0.0834 -0.3852 -0.1813
  919SOL    HW1 2756   0.709   0.275   1.221  1.1983  0.6565  0.0231
  919SOL    HW2 2757   0.853   0.285   1.294 -4.1200  0.0598 -2.8431
  920SOL     OW 2758   2.814   0.418   2.123 -0.0283 -0.5924  0.0865
  920SOL    HW1 2759   2.849   0.324   2.113 -0.1268 -0.0114  0.9093
  920SOL    HW2 2760   2.817   0.444   2.223  0.6687  0.7145  0.0249
  921SOL     OW 2761   2.707   1.040   1.453 -0.1844  0.2347 -0.0817
  921SOL    HW1 2762   2.725   0.949   1.492  0.5820 -0.2213  1.2476
  921SOL    HW2 2763   2.629   1.089   1.497  2.4873 -3.5148  0.6450
  922SOL     OW 2764   2.676   2.210   0.724  0.4915 -0.0250  0.1016
  922SOL    HW1 2765   2.596   2.251   0.766  1.0173 -1.5729 -1.6419
  922SOL    HW2 2766   2.730   2.274   0.663  1.6438  0.0196  0.2964
  923SOL     OW 2767   0.410   2.385   0.388 -0.3351 -0.0003 -0.2981
  923SOL    HW1 2768   0.354   2.315   0.341  2.1312 -0.7535  3.5555
  923SOL    HW2 2769   0.509   2.361   0.376  0.8449 -1.7934  1.2298
  924SOL     OW 2770   1.191   1.298   2.904  0.1988 -0.1590 -0.1659
  924SOL    HW1 2771   1.101   1.263   2.940  0.3331  1.3185  0.3167
  924SOL    HW2 2772   1.176   1.365   2.828 -0.9482 -1.4028  2.4001
  925SOL     OW 2773   2.923   1.313   0.801 -0.1979  0.1744 -0.0689
  925SOL    HW1 2774   2.945   1.213   0.811  0.8825 -0.3508  3.3448
  925SOL    HW2 2775   2.908   1.343   0.707  0.2788 -0.8115  1.2928
  926SOL     OW 2776   0.180   0.146   0.915  0.1194 -0.5677 -0.0915
  926SOL    HW1 2777   0.264   0.090   0.926 -1.7072 -0.6394 -1.4008
  926SOL    HW2 2778   0.100   0.105   0.970 -0.3738 -0.6233  1.2037
  927SOL     OW 2779   0.414   2.060   2.576 -0.0502  0.3106 -0.2126
  927SOL    HW1 2780   0.339   2.066   2.642  3.3415  1.1804 -1.0384
  927SOL    HW2 2781   0.427   1.967   2.539  2.4987 -1.3450 -2.5590
  928SOL     OW 2782   0.037   0.362   2.396 -0.2767 -0.9183 -0.1917
  928SOL    HW1 2783   0.083   0.365   2.490 -0.2712  2.3702  1.2539
  928SOL    HW2 2784   3.026   0.390   2.399 -1.5394  0.0038  0.0130
  929SOL     OW 2785   2.702   2.001   1.123 -0.2690  0.1555  0.6643
  929SOL    HW1 2786   2.655   2.089   1.136 -2.2604  0.6824  2.3669
  929SOL    HW2 2787   2.738   1.995   1.028 -0.1566 -0.7967  0.0767
  930SOL     OW 2788   1.793   0.359   2.138 -0.0718  0.0893  0.4969
  930SOL    HW1 2789   1.759   0.271   2.180  1.9018 -2.4321  0.4937
  930SOL    HW2 2790   1.763   0.448   2.185 -0.1084  1.2815  2.8262
  931SOL     OW 2791   2.268   1.136   3.019  0.3030 -0.0711 -0.0255
  931SOL    HW1 2792   2.188   1.181   3.065  0.0773 -2.6660 -0.0096
  931SOL    HW2 2793   2.263   1.142   2.919 -1.6213 -1.4828  0.3152
  932SOL     OW 2794   1.721   0.875   0.560 -0.3994  0.2617 -0.7504
  932SOL    HW1 2795   1.640   0.820   0.577  0.6852  0.2891 -0.1348
  932SOL    HW2 2796   1.725   0.917   0.469 -1.3973 -0.9847 -0.7886
  933SOL     OW 2797   2.147   1.134   0.686 -0.2724  0.2248 -0.5006
  933SOL    HW1 2798   2.189   1.154   0.595 -0.1429 -2.6120  1.8605
  933SOL    HW2 2799   2.064   1.187   0.695  2.8284 -0.5754 -1.0392
  934SOL     OW 2800   2.244   1.160   2.724 -0.1711  0.1663  0.1833
  934SOL    HW1 2801   2.157   1.206   2.750 -0.7256  1.2387 -1.5816
  934SOL    HW2 2802   2.234   1.131   2.625 -0.1636 -2.6295 -1.2015
  935SOL     OW 2803   0.033   1.362   1.007  0.0974  0.2541 -0.0119
  935SOL    HW1 2804   0.028   1.379   0.910 -0.8255  0.9701  0.0903
  935SOL    HW2 2805   3.042   1.296   1.024  1.7258 -0.4783 -2.2079
  936SOL     OW 2806   0.156   2.730   0.254 -0.2899  0.0438  0.1606
  936SOL    HW1 2807   0.225   2.785   0.307 -1.3986  2.1751 -0.7777
  936SOL    HW2 2808   0.212   2.657   0.202  1.1348 -0.2607  0.5722
  937SOL     OW 2809   3.008   2.380   1.914 -0.5723 -0.2455 -0.4523
  937SOL    HW1 2810   3.069   2.456   1.883  0.6754  1.0646 -1.3136
  937SOL    HW2 2811   3.066   2.294   1.925 -0.5955  1.8443  1.3605
  938SOL     OW 2812   2.440   2.217   0.193 -0.7618 -0.2252 -0.6510
  938SOL    HW1 2813   2.512   2.290   0.201  3.3313  0.5267 -0.2342
  938SOL    HW2 2814   2.432   2.184   0.094 -1.0847  2.7583 -1.7732
  939SOL     OW 2815   1.105   0.645   1.257  0.6979 -0.0107 -0.4808
  939SOL    HW1 2816   1.134   0.606   1.346  0.6342  1.8451  0.0836
  939SOL    HW2 2817   1.071   0.739   1.275 -2.6168  0.4515 -0.6541
  940SOL     OW 2818   2.442   2.760   2.921  0.2053 -0.2500 -0.0112
  940SOL    HW1 2819   2.364   2.809   2.966 -0.6175 -1.9123  1.4335
  940SOL    HW2 2820   2.469   2.679   2.971 -0.1764  5.8381 -4.6346
  941SOL     OW 2821   2.583   2.737   2.254  0.5462 -0.2565  0.0189
  941SOL    HW1 2822   2.669   2.740   2.201  0.4572 -0.0823  1.8259
  941SOL    HW2 2823   2.507   2.771   2.188  0.1875  1.0930  1.8244
  942SOL     OW 2824   1.399   0.104   1.370  0.3692  0.2355  0.4099
  942SOL    HW1 2825   1.496   0.130   1.351 -0.1873  0.0617  1.1018
  942SOL    HW2 2826   1.335   0.180   1.340 -0.0619 -1.1690  0.6646
  943SOL     OW 2827   0.692   1.482   2.436  0.2797 -0.6404 -0.2592
  943SOL    HW1 2828   0.697   1.381   2.443  2.0335 -0.5000 -0.6492
  943SOL    HW2 2829   0.669   1.514   2.344  0.6184 -0.1015  2.1471
  944SOL     OW 2830   2.762   0.750   1.132 -0.9151 -1.1129  0.3783
  944SOL    HW1 2831   2.751   0.749   1.031 -0.9901  1.5089  1.7215
  944SOL    HW2 2832   2.678   0.708   1.165  0.8017 -0.0430 -1.0022
  945SOL     OW 2833   2.898   0.148   2.804 -0.3085  0.2054 -0.8541
  945SOL    HW1 2834   2.815   0.176   2.855 -2.6118  0.7881 -1.7800
  945SOL    HW2 2835   2.941   0.062   2.850  2.6154 -1.4984  0.6662
  946SOL     OW 2836   3.079   1.420   1.468  0.4272 -0.4756 -0.0492
  946SOL    HW1 2837   3.077   1.478   1.383 -1.1103  1.5953 -1.8959
  946SOL    HW2 2838   3.015   1.342   1.449 -3.6455  0.8281 -2.1223
  947SOL     OW 2839   0.836   0.266   2.949 -0.1415  0.0271  0.1081
  947SOL    HW1 2840   0.797   0.359   2.982 -0.9976  1.0727  3.3453
  947SOL    HW2 2841   0.800   0.234   2.859 -0.3638 -1.9090  1.4156
  948SOL     OW 2842   2.211   1.707   1.166 -0.2085 -0.1699 -0.3801
  948SOL    HW1 2843   2.162   1.684   1.256 -0.0833  0.7805  1.3322
  948SOL    HW2 2844   2.281   1.640   1.143 -1.7730 -0.6972 -0.9471
  949SOL     OW 2845   0.322   1.033   2.906  0.6251 -0.3000 -0.1813
  949SOL    HW1 2846   0.344   1.098   2.982  0.0975  1.5115  1.4264
  949SOL    HW2 2847   0.222   1.051   2.873  1.0184  2.4744  1.1897
  950SOL     OW 2848   0.367   2.858   1.297  0.8104 -0.1305 -0.7554
  950SOL    HW1 2849   0.320   2.851   1.387 -0.3646  2.9737  1.0737
  950SOL    HW2 2850   0.463   2.824   1.297 -0.8379  1.1520 -1.1423
  951SOL     OW 2851   0.919   1.760   2.745 -0.1789  0.0525  0.0501
  951SOL    HW1 2852   0.940   1.702   2.827  1.1664  1.2606  0.7455
  951SOL    HW2 2853   0.971   1.854   2.759  2.6624  1.7057  0.0042
  952SOL     OW 2854   0.679   1.250   0.709 -0.6767  0.0299 -0.1102
  952SOL    HW1 2855   0.723   1.157   0.723 -2.6568  0.9818 -0.4916
  952SOL    HW2 2856   0.726   1.297   0.632  0.4112  0.3849 -0.7354
  953SOL     OW 2857   2.196   1.702   2.725 -0.3889  0.1524 -0.4190
  953SOL    HW1 2858   2.250   1.692   2.636  0.3420  2.2212 -0.7199
  953SOL    HW2 2859   2.222   1.631   2.792  1.2046  0.7754  0.2997
  954SOL     OW 2860   1.409   0.359   0.708 -0.0251  0.1420 -0.0204
  954SOL    HW1 2861   1.483   0.401   0.652 -2.7390 -1.2670 -0.7625
  954SOL    HW2 2862   1.432   0.281   0.764 -1.5089  0.3813 -2.1485
  955SOL     OW 2863   0.909   1.704   3.034  0.2268  0.2701 -0.0763
  955SOL    HW1 2864   0.840   1.776   3.053 -0.3353  2.0598  0.8731
  955SOL    HW2 2865   0.996   1.737   3.073 -2.2595  1.3597  0.4776
  956SOL     OW 2866   2.628   0.526   1.915  0.1191 -0.0076 -0.5721
  956SOL    HW1 2867   2.652   0.494   1.822 -0.2716  0.0528 -0.4263
  956SOL    HW2 2868   2.698   0.498   1.983  0.8104 -0.1638 -0.7541
  957SOL     OW 2869   1.843   2.100   2.056 -0.1747 -0.0742 -0.2614
  957SOL    HW1 2870   1.901   2.018   2.051 -2.4292  0.0292  1.4462
  957SOL    HW2 2871   1.751   2.089   2.006 -1.6514  2.1645 -1.1298
  958SOL     OW 2872   1.628   1.039   1.280 -0.5083  0.1964 -0.1476
  958SOL    HW1 2873   1.709   1.092   1.314 -0.6553 -0.9035 -0.4566
  958SOL    HW2 2874   1.649   0.995   1.190 -1.7918  2.4934 -1.4457
  959SOL     OW 2875   1.596   2.096   1.894  0.9220 -0.3977  0.3253
  959SOL    HW1 2876   1.523   2.027   1.871  0.3311 -1.0095  1.2956
  959SOL    HW2 2877   1.552   2.178   1.944 -0.4123  0.9826  3.4082
  960SOL     OW 2878   0.570   0.939   2.799  0.4602 -0.3042  0.0893
  960SOL    HW1 2879   0.488   0.980   2.845  1.0970 -1.0235 -0.7690
  960SOL    HW2 2880   0.544   0.917   2.702  0.0595 -1.4884 -0.1231
  961SOL     OW 2881   0.027   1.183   2.986  0.5470  0.0506  0.6321
  961SOL    HW1 2882   0.089   1.261   2.968  0.2036 -2.4894 -0.2879
  961SOL    HW2 2883   3.021   1.222   3.002  0.9253  1.0908  3.3684
  962SOL     OW 2884   1.074   2.159   2.889 -0.3546  0.3577 -0.7245
  962SOL    HW1 2885   1.131   2.165   2.974 -2.4800 -0.9065 -0.8416
  962SOL    HW2 2886   1.045   2.246   2.852 -0.3535 -0.0929 -0.9765
  963SOL     OW 2887   2.862   1.567   0.062 -0.5354 -0.3971 -0.1822
  963SOL    HW1 2888   2.947   1.544   0.011  2.5638 -0.6004 -2.9970
  963SOL    HW2 2889   2.848   1.668   0.067 -0.5552 -1.2616 -1.0351
  964SOL     OW 2890   0.691   2.309   2.105  0.0694  0.1012 -0.1330
  964SOL    HW1 2891   0.771   2.273   2.054 -2.6040 -2.8764  0.9651
  964SOL    HW2 2892   0.719   2.362   2.190  3.4147 -0.5388  1.4367
  965SOL     OW 2893   1.400   1.804   1.275  0.1579  0.0372 -0.1544
  965SOL    HW1 2894   1.307   1.776   1.244 -1.2770  2.6974 -0.6488
  965SOL    HW2 2895   1.432   1.757   1.361  0.7905 -3.2529  2.7697
  966SOL     OW 2896   2.967   1.532   0.352  0.0043  0.0768  0.2674
  966SOL    HW1 2897   3.060   1.491   0.363 -0.2663 -0.5224  1.3238
  966SOL    HW2 2898   2.936   1.533   0.255 -0.8686 -1.5208  0.0390
  967SOL     OW 2899   1.943   2.795   2.410  0.3453 -0.2088 -0.2455
  967SOL    HW1 2900   1.866   2.853   2.409  3.1436 -0.6722  0.2691
  967SOL    HW2 2901   1.916   2.698   2.405  0.4546  2.2987  2.4484
  968SOL     OW 2902   1.622   1.376   2.806  0.0298  0.0452  0.4347
  968SOL    HW1 2903   1.717   1.374   2.766  1.0618  1.2457 -0.0229
  968SOL    HW2 2904   1.611   1.451   2.873 -1.0022  2.3335  0.1971
  969SOL     OW 2905   0.191   1.146   2.251  0.2872  0.3050 -0.2508
  969SOL    HW1 2906   0.134   1.145   2.168  2.9055 -0.2880 -1.6819
  969SOL    HW2 2907   0.272   1.081   2.234 -0.0354 -1.0613  0.5421
  970SOL     OW 2908   2.787   2.913   0.414 -0.7623  0.1835 -0.1650
  970SOL    HW1 2909   2.882   2.880   0.380  3.1060  1.8781 -2.1672
  970SOL    HW2 2910   2.755   2.978   0.342 -1.7720  1.1254 -3.8838
  971SOL     OW 2911   2.108   1.953   0.798 -0.1648 -0.4933 -0.0182
  971SOL    HW1 2912   2.205   1.988   0.800  2.3140 -1.6764  0.4332
  971SOL    HW2 2913   2.109   1.865   0.845  2.3968 -1.7640  1.6565
  972SOL     OW 2914   0.236   1.562   2.702  0.6568  0.1896 -0.0294
  972SOL    HW1 2915   0.218   1.605   2.609  1.6617  1.1154  2.9112
  972SOL    HW2 2916   0.299   1.610   2.766 -2.1298  0.5498 -0.6451
  973SOL     OW 2917   0.954   0.542   0.345 -0.0931 -0.0267 -0.3523
  973SOL    HW1 2918   0.889   0.542   0.270 -1.9079  0.4485 -0.0198
  973SOL    HW2 2919   1.046   0.569   0.309  2.8989 -2.1448  0.7396
  974SOL     OW 2920   2.213   0.722   1.660  0.8773  0.3309  0.3537
  974SOL    HW1 2921   2.180   0.639   1.714  1.2290  1.2353  1.1537
  974SOL    HW2 2922   2.317   0.723   1.655 -0.4097  1.2087 -0.3089
  975SOL     OW 2923   0.236   0.030   0.469  0.1970 -0.4504 -0.5482
  975SOL    HW1 2924   0.338   0.019   0.464 -1.1113 -0.9622  1.2488
  975SOL    HW2 2925   0.205   3.037   0.525 -1.2709 -0.0102 -0.7370
  976SOL     OW 2926   0.576   1.503   1.492 -0.4893  0.0628 -0.5183
  976SOL    HW1 2927   0.563   1.435   1.414  1.5471 -0.9277 -0.2600
  976SOL    HW2 2928   0.649   1.570   1.461 -0.3566  0.7268  1.3294
  977SOL     OW 2929   1.267   2.080   0.339  0.3646 -0.4516 -0.1899
  977SOL    HW1 2930   1.353   2.068   0.286  1.3192 -1.0358 -0.0755
  977SOL    HW2 2931   1.226   2.172   0.337  1.2552 -3.0297  1.0368
  978SOL     OW 2932   0.137   1.025   0.154  0.6527 -0.0312  0.5052
  978SOL    HW1 2933   0.075   1.071   0.089 -0.0977  1.2555  1.3454
  978SOL    HW2 2934   0.180   1.107   0.204 -1.7609  1.5901 -0.0029
  979SOL     OW 2935   1.939   1.479   0.332 -0.2643 -0.3453 -0.1793
  979SOL    HW1 2936   2.026   1.532   0.325 -0.4599 -1.8712  0.8301
  979SOL    HW2 2937   1.894   1.503   0.420  1.1941 -0.1117 -1.4538
  980SOL     OW 2938   0.555   1.994   1.595 -0.0814 -0.3785  0.1048
  980SOL    HW1 2939   0.557   2.072   1.653 -2.4525 -0.2462 -3.0201
  980SOL    HW2 2940   0.491   2.015   1.514  1.5691  1.3979 -0.1821
  981SOL     OW 2941   2.637   1.579   2.709  0.3083  0.4582  0.6862
  981SOL    HW1 2942   2.735   1.550   2.698  3.9642 -1.5228  2.6247
  981SOL    HW2 2943   2.580   1.493   2.695  0.0703 -0.9764 -0.0068
  982SOL     OW 2944   0.318   2.073   1.759  0.0536  0.3001 -0.3184
  982SOL    HW1 2945   0.334   2.146   1.687 -2.9194  1.1393  0.3587
  982SOL    HW2 2946   0.399   2.063   1.822  0.7147 -2.9260 -0.0202
  983SOL     OW 2947   1.501   0.044   2.001  0.1820  0.5398 -0.3274
  983SOL    HW1 2948   1.415   0.024   1.955  0.1154  1.0407 -0.1429
  983SOL    HW2 2949   1.501   0.138   2.035 -1.5898 -1.8595  0.0537
  984SOL     OW 2950   2.992   3.017   2.929 -0.3344  0.0501  0.4067
  984SOL    HW1 2951   3.043   3.039   3.012  0.8554 -0.1342 -1.3250
  984SOL    HW2 2952   3.060   2.984   2.855  1.6568 -1.2058 -1.0876
  985SOL     OW 2953   1.484   1.398   1.967 -0.1521  0.0618  0.4184
  985SOL    HW1 2954   1.551   1.374   1.891  0.6178  3.2710 -1.0525
  985SOL    HW2 2955   1.435   1.313   1.995 -0.2946 -2.2613  0.1199
  986SOL     OW 2956   1.860   0.542   2.853  0.1269  0.5458  0.0533
  986SOL    HW1 2957   1.960   0.512   2.866  2.6422 -1.6723  2.3702
  986SOL    HW2 2958   1.816   0.491   2.773 -0.3472  2.2173 -1.2226
  987SOL     OW 2959   3.083   1.859   2.469 -0.1250 -0.2052  0.1071
  987SOL    HW1 2960   3.060   1.858   2.565  2.0387 -2.0701 -1.7110
  987SOL    HW2 2961   3.004   1.837   2.418  1.5367  0.6946  2.5860
  988SOL     OW 2962   2.753   0.061   1.350  0.7297 -0.8397 -0.5024
  988SOL    HW1 2963   2.848   0.065   1.325 -1.1715  1.0345 -0.3362
  988SOL    HW2 2964   2.713   3.063   1.315  0.9774  1.0513 -0.1643
  989SOL     OW 2965   1.792   0.097   1.083  0.1638  0.0194 -0.4557
  989SOL    HW1 2966   1.755   0.003   1.062  0.9044 -0.7317 -0.8818
  989SOL    HW2 2967   1.886   0.085   1.117 -2.3764  0.4577 -1.6369
  990SOL     OW 2968   2.608   0.753   0.078 -0.2983  0.5573 -0.1666
  990SOL    HW1 2969   2.705   0.740   0.041  0.8120 -2.8085 -0.8553
  990SOL    HW2 2970   2.607   0.818   0.159 -1.8549 -0.5468 -1.4790
  991SOL     OW 2971   0.347   1.190   0.579 -0.6743 -0.2697  0.3862
  991SOL    HW1 2972   0.246   1.204   0.569 -0.3669  1.0339  0.9228
  991SOL    HW2 2973   0.382   1.239   0.659  0.6773 -0.1542 -0.0800
  992SOL     OW 2974   1.878   1.453   1.796 -0.4496  0.4666  0.1349
  992SOL    HW1 2975   1.878   1.498   1.886 -0.1592 -0.7912 -1.5798
  992SOL    HW2 2976   1.972   1.415   1.780  0.6999 -0.2188 -1.6259
  993SOL     OW 2977   0.457   2.270   0.719 -0.6673 -0.3773  0.2245
  993SOL    HW1 2978   0.411   2.323   0.646 -0.8270  1.7720 -0.3237
  993SOL    HW2 2979   0.558   2.276   0.708  1.5458 -0.6983  1.2035
  994SOL     OW 2980   3.034   1.957   1.748 -0.1805 -0.0241  0.3001
  994SOL    HW1 2981   2.936   1.929   1.760  2.0071 -0.5932 -2.2727
  994SOL    HW2 2982   0.000   1.899   1.683 -1.4423 -1.8398  1.5176
  995SOL     OW 2983   1.934   1.661   2.664  0.0809 -0.0793 -0.2027
  995SOL    HW1 2984   1.904   1.731   2.597  0.3353 -2.1645  0.6215
  995SOL    HW2 2985   2.035   1.662   2.676  0.7824  2.1652  0.7846
  996SOL     OW 2986   2.075   2.352   0.394 -0.1691  0.7119  0.4749
  996SOL    HW1 2987   2.110   2.277   0.331  0.5822 -1.8575  0.6948
  996SOL    HW2 2988   2.115   2.343   0.485 -1.2702 -0.8130 -1.9308
  997SOL     OW 2989   1.149   1.660   2.131  0.9079 -0.1598  0.2303
  997SOL    HW1 2990   1.168   1.616   2.220  0.2198 -3.4101  1.0628
  997SOL    HW2 2991   1.079   1.600   2.085 -3.1138 -0.7401 -3.2666
  998SOL     OW 2992   0.032   2.313   0.542  0.5794 -0.3071  0.4625
  998SOL    HW1 2993   0.031   2.337   0.441  0.8270 -0.8016 -2.2744
  998SOL    HW2 2994   0.071   2.224   0.554 -1.3893  1.4435 -1.0693
  999SOL     OW 2995   0.788   2.870   0.210  0.0370 -0.1217 -0.5081
  999SOL    HW1 2996   0.719   2.791   0.211 -1.8976  0.5010  2.3459
  999SOL    HW2 2997   0.815   2.891   0.114 -0.0157  2.1709 -0.5691
 1000SOL     OW 2998   1.234   0.202   0.067  0.1510  0.1252 -0.0792
 1000SOL    HW1 2999   1.263   0.199   3.053  2.9187 -1.6013  0.2540
 1000SOL    HW2 3000   1.315   0.231   0.124 -2.4422 -1.0533  0.3902
   3.08607   3.08607   3.08607
