1000 SPC/Fw water molecules t=  70.00000 step= 70000
 3000
    1SOL     OW    1   2.084   2.752   0.762  0.1896  0.0641 -0.7386
    1SOL    HW1    2   2.012   2.779   0.698 -0.0592  0.0981  1.2406
    1SOL    HW2    3   2.171   2.735   0.715 -4.5281  0.8691 -0.7602
    2SOL     OW    4   0.870   1.214   2.502  0.2803  0.1675 -0.0535
    2SOL    HW1    5   0.797   1.219   2.577 -1.1325 -2.1890 -0.2738
    2SOL    HW2    6   0.925   1.300   2.497  1.6121 -1.0918 -0.4772
    3SOL     OW    7   1.450   2.738   2.514 -0.2803 -0.0596  0.4197
    3SOL    HW1    8   1.480   2.805   2.586 -0.2375 -0.5016  0.5278
    3SOL    HW2    9   1.481   2.646   2.538 -0.4066  2.5615  1.0555
    4SOL     OW   10   1.148   1.923   2.806  0.2526  0.1276  0.3927
    4SOL    HW1   11   1.170   1.981   2.728  0.4264 -0.5901  0.1069
    4SOL    HW2   12   1.232   1.906   2.856  0.1977  0.3409 -0.6779
    5SOL     OW   13   0.841   0.623   1.761 -0.3664 -0.3385 -0.2335
    5SOL    HW1   14   0.913   0.697   1.749  0.7452 -0.6425 -1.1302
    5SOL    HW2   15   0.797   0.630   1.850  1.7055  1.7672 -0.3457
    6SOL     OW   16   1.880   0.562   2.548 -0.1382  0.1889 -0.6491
    6SOL    HW1   17   1.834   0.619   2.479 -0.5909  3.1113  3.0663
    6SOL    HW2   18   1.825   0.475   2.567  0.4075 -2.2819  1.0335
    7SOL     OW   19   0.229   0.285   1.653 -0.2361  0.2961 -0.0661
    7SOL    HW1   20   0.181   0.369   1.624  0.7068  1.6695  0.2269
    7SOL    HW2   21   0.280   0.301   1.742  0.7593  3.2943 -1.5001
    8SOL     OW   22   1.993   3.082   1.956 -0.4604 -0.3767 -0.6508
    8SOL    HW1   23   1.907   3.052   2.004  2.4520 -0.6302 -1.4076
    8SOL    HW2   24   1.984   0.073   1.928  0.1607  1.4974  1.7145
    9SOL     OW   25   0.254   2.997   0.657 -0.6166  0.7905 -0.0861
    9SOL    HW1   26   0.323   3.071   0.678  1.1748  0.1870  1.6002
    9SOL    HW2   27   0.181   3.027   0.587  0.8879 -0.5844 -1.0586
   10SOL     OW   28   0.602   2.213   2.319 -0.2692  0.5241  0.1429
   10SOL    HW1   29   0.648   2.301   2.327  0.4928 -0.9851 -0.1887
   10SOL    HW2   30   0.542   2.210   2.238 -0.3299 -0.9176  2.5599
   11SOL     OW   31   0.725   1.649   0.182  0.0930  0.3679 -0.0234
   11SOL    HW1   32   0.677   1.564   0.150 -0.4092 -1.6752 -1.0083
   11SOL    HW2   33   0.677   1.687   0.259  0.6915  1.8176 -3.0059
   12SOL     OW   34   2.889   2.879   1.388 -0.3120  0.2370  0.4557
   12SOL    HW1   35   2.843   2.894   1.293 -1.1297  1.3102 -1.9258
   12SOL    HW2   36   2.978   2.835   1.378 -5.1053  0.6438 -1.5842
   13SOL     OW   37   0.807   2.838   0.313  0.6170 -0.6036  0.4603
   13SOL    HW1   38   0.816   2.867   0.214 -1.3246 -2.4900  0.8961
   13SOL    HW2   39   0.705   2.828   0.335 -0.3624  0.0300  2.5746
   14SOL     OW   40   1.506   1.737   1.351 -0.0759  0.1307 -0.0331
   14SOL    HW1   41   1.434   1.712   1.422  1.7821  1.0689  1.1206
   14SOL    HW2   42   1.583   1.668   1.340  0.5535 -1.3535  1.7093
   15SOL     OW   43   0.350   1.880   2.366  0.2696 -0.0677  0.3403
   15SOL    HW1   44   0.449   1.891   2.373 -0.7202  0.4161 -0.4915
   15SOL    HW2   45   0.302   1.914   2.451 -1.4937 -2.4599 -3.3746
   16SOL     OW   46   1.524   0.507   2.740 -0.2183  0.2641 -0.8862
   16SOL    HW1   47   1.537   0.577   2.664  0.2317  0.8847 -0.9808
   16SOL    HW2   48   1.579   0.533   2.817 -2.0145  0.7790 -1.3358
   17SOL     OW   49   3.045   2.404   2.350  0.2949 -0.1005  0.2025
   17SOL    HW1   50   0.030   2.386   2.385 -3.5979 -2.0608  0.0332
   17SOL    HW2   51   3.054   2.407   2.248  0.6573  0.1416 -0.2050
   18SOL     OW   52   1.166   1.315   0.833  0.9284 -0.3900  0.4814
   18SOL    HW1   53   1.134   1.412   0.807  0.7027  3.1712 -1.2877
   18SOL    HW2   54   1.119   1.281   0.918  3.3651  0.0994  0.8998
   19SOL     OW   55   2.660   2.008   2.373  0.1351  0.4080 -0.4710
   19SOL    HW1   56   2.733   1.984   2.308 -1.7543 -2.1914 -0.9301
   19SOL    HW2   57   2.681   1.992   2.472 -0.7684  2.3028 -0.0613
   20SOL     OW   58   2.358   2.305   2.476 -0.4765 -0.2184 -0.5788
   20SOL    HW1   59   2.400   2.387   2.439 -0.4722 -0.9373  2.3143
   20SOL    HW2   60   2.256   2.309   2.490  0.9591 -0.6229  0.7931
   21SOL     OW   61   1.472   1.820   0.258 -0.4498  0.3266 -0.2722
   21SOL    HW1   62   1.436   1.727   0.283 -2.2814  2.3563  0.8472
   21SOL    HW2   63   1.478   1.870   0.344 -3.8446 -0.0815 -1.5188
   22SOL     OW   64   2.168   2.321   1.535  0.1817  0.6355  0.0978
   22SOL    HW1   65   2.223   2.351   1.452  1.5646 -0.3407  1.8083
   22SOL    HW2   66   2.065   2.311   1.516  0.3520 -0.5775  1.4366
   23SOL     OW   67   2.982   1.125   1.208  0.0606 -0.0566 -0.4022
   23SOL    HW1   68   2.984   1.226   1.202  0.8462 -2.0265  1.9387
   23SOL    HW2   69   3.007   1.083   1.119 -0.2777  2.4678 -0.6889
   24SOL     OW   70   2.425   1.462   1.971  0.1646  0.3831 -0.3704
   24SOL    HW1   71   2.435   1.421   1.874 -2.2422 -1.7386 -0.4171
   24SOL    HW2   72   2.507   1.455   2.029 -2.0029 -0.8799 -3.1712
   25SOL     OW   73   2.003   0.228   2.296 -0.5196 -0.3262  0.6701
   25SOL    HW1   74   2.083   0.283   2.320 -0.0547  1.1789 -1.5349
   25SOL    HW2   75   2.035   0.142   2.253  1.2434 -0.4359  0.5791
   26SOL     OW   76   1.024   0.079   0.504 -0.7694  0.3032  0.5290
   26SOL    HW1   77   0.993   0.128   0.419  0.5074  0.3559 -1.1107
   26SOL    HW2   78   1.119   0.113   0.521 -2.1759  0.0281  0.4854
   27SOL     OW   79   0.794   1.554   0.578 -0.6145 -0.7994 -0.1479
   27SOL    HW1   80   0.772   1.648   0.553  1.5601 -2.4796 -1.2785
   27SOL    HW2   81   0.785   1.547   0.681  0.6780 -0.9820  1.5191
   28SOL     OW   82   2.410   2.132   1.047  0.7409 -0.2061 -0.0136
   28SOL    HW1   83   2.331   2.118   1.106  1.9045  1.0069  1.9323
   28SOL    HW2   84   2.429   2.226   1.026  1.1029 -2.9098 -2.0434
   29SOL     OW   85   2.155   0.094   1.664 -0.2234  0.0094  0.8580
   29SOL    HW1   86   2.076   0.032   1.672 -2.1176  2.0226  0.8657
   29SOL    HW2   87   2.240   0.065   1.716 -1.7723 -1.3750  1.0980
   30SOL     OW   88   0.866   2.969   1.169  0.2661  0.6540  0.2673
   30SOL    HW1   89   0.853   2.869   1.185  0.8591 -2.1872 -1.7733
   30SOL    HW2   90   0.884   3.017   1.262 -0.5419  0.1539  0.3417
   31SOL     OW   91   3.041   1.942   1.882  0.3004  0.1504  0.5625
   31SOL    HW1   92   0.004   1.870   1.868 -2.3970  2.2022  0.9942
   31SOL    HW2   93   2.949   1.900   1.877 -1.3888 -2.2454  3.3696
   32SOL     OW   94   1.357   1.643   2.135 -0.0693  0.1655  0.1856
   32SOL    HW1   95   1.338   1.696   2.048  2.3976  0.0105  0.4902
   32SOL    HW2   96   1.454   1.613   2.140  0.1790  1.6492  0.4462
   33SOL     OW   97   0.326   0.123   2.948  0.1980  0.0487  0.1068
   33SOL    HW1   98   0.307   0.221   2.921  0.9113 -2.0937 -1.3551
   33SOL    HW2   99   0.399   0.090   2.887  0.0565 -2.8951 -1.2331
   34SOL     OW  100   2.495   3.016   0.500 -0.1055 -0.0243  0.0436
   34SOL    HW1  101   2.457   3.037   0.590 -2.7188  2.2611 -0.1056
   34SOL    HW2  102   2.554   2.930   0.502  1.8732 -2.8238  1.3831
   35SOL     OW  103   2.738   0.232   1.389  0.5060  0.1048  0.7787
   35SOL    HW1  104   2.718   0.286   1.473 -0.6288 -0.5121 -0.7837
   35SOL    HW2  105   2.652   0.213   1.335 -0.5122  1.4993 -0.2519
   36SOL     OW  106   2.660   2.837   2.490 -0.0526  0.0645  0.5452
   36SOL    HW1  107   2.563   2.864   2.485 -0.5355  1.5673  1.1324
   36SOL    HW2  108   2.699   2.810   2.395  0.0200  0.1886 -0.0476
   37SOL     OW  109   1.624   2.660   2.975  0.3099  0.5006  0.1205
   37SOL    HW1  110   1.601   2.761   2.974 -0.2941  1.6434 -1.5992
   37SOL    HW2  111   1.571   2.615   3.052  0.4339 -1.0945 -1.1337
   38SOL     OW  112   3.044   1.130   3.051 -0.5948 -0.5284  0.7971
   38SOL    HW1  113   2.948   1.125   3.074  1.8352  1.7454 -3.2575
   38SOL    HW2  114   0.000   1.089   0.018  0.3318 -1.3068  1.5547
   39SOL     OW  115   1.735   1.747   2.119 -0.9438 -0.5127  0.1668
   39SOL    HW1  116   1.669   1.823   2.135  0.5866 -1.1867 -1.6309
   39SOL    HW2  117   1.686   1.660   2.130  2.7241 -0.0643  0.3303
   40SOL     OW  118   0.230   0.292   2.497  0.0520  0.3309 -0.4240
   40SOL    HW1  119   0.160   0.259   2.562 -0.4270  1.5018 -2.0150
   40SOL    HW2  120   0.325   0.286   2.527  3.1728  1.1882 -2.3829
   41SOL     OW  121   1.802   1.279   1.890  0.5761 -0.0326  0.3842
   41SOL    HW1  122   1.731   1.262   1.964 -0.3074  0.0163  0.9559
   41SOL    HW2  123   1.765   1.353   1.830  1.4112  0.5666  0.8591
   42SOL     OW  124   3.033   0.224   1.614  0.4422  0.3863 -0.7483
   42SOL    HW1  125   2.982   0.166   1.544  1.2240  1.8399 -2.6366
   42SOL    HW2  126   3.085   0.299   1.578  0.2629 -2.3821  1.4089
   43SOL     OW  127   1.414   1.266   1.849  0.2350 -0.6009  0.3303
   43SOL    HW1  128   1.316   1.280   1.876 -2.7484 -0.1060  1.0576
   43SOL    HW2  129   1.426   1.190   1.784 -0.4801  3.0982 -0.3380
   44SOL     OW  130   0.051   0.257   0.058 -0.4941 -0.9609 -0.2779
   44SOL    HW1  131   0.118   0.324   0.023 -0.3781 -2.0615  0.7802
   44SOL    HW2  132   0.061   0.176   0.006  0.1896  5.3864  1.6384
   45SOL     OW  133   0.356   2.117   1.028 -0.3371  0.3004 -0.0196
   45SOL    HW1  134   0.305   2.152   1.107  2.2618 -2.2000 -1.5526
   45SOL    HW2  135   0.343   2.020   1.016  0.2582  1.3034  0.2659
   46SOL     OW  136   2.515   2.901   1.799  0.1155  0.3465  0.2490
   46SOL    HW1  137   2.475   2.995   1.812 -3.1169  0.6077  1.9796
   46SOL    HW2  138   2.597   2.892   1.861 -1.0488 -0.7606  4.0861
   47SOL     OW  139   0.669   1.608   1.188 -0.1382 -0.6278  0.4334
   47SOL    HW1  140   0.661   1.508   1.178 -0.7007  3.6252  0.0280
   47SOL    HW2  141   0.689   1.655   1.102 -2.9690 -1.8935  2.1739
   48SOL     OW  142   0.542   2.654   0.238  0.2735 -0.4988 -0.1023
   48SOL    HW1  143   0.467   2.717   0.201 -1.5407  3.8229  1.3609
   48SOL    HW2  144   0.546   2.641   0.342 -0.7575  2.6330 -0.6457
   49SOL     OW  145   2.918   1.557   1.654  0.0942  0.2530  0.7271
   49SOL    HW1  146   2.877   1.603   1.733  4.1597 -1.4853 -0.3689
   49SOL    HW2  147   2.893   1.459   1.643  0.4341  1.5234  2.5629
   50SOL     OW  148   1.679   0.354   0.529  0.4057  0.2883 -0.0622
   50SOL    HW1  149   1.759   0.396   0.486 -1.8291  2.8070  1.9523
   50SOL    HW2  150   1.647   0.425   0.601 -0.3787  2.9392  2.0736
   51SOL     OW  151   1.112   0.549   1.108 -0.5264 -0.7050 -0.3157
   51SOL    HW1  152   1.107   0.644   1.069 -0.0530 -1.8163 -0.6859
   51SOL    HW2  153   1.022   0.502   1.096  1.4385 -2.8129 -0.8804
   52SOL     OW  154   0.724   1.148   0.524 -0.1170  1.3134 -0.0901
   52SOL    HW1  155   0.646   1.091   0.488  0.1052  0.1811 -1.2512
   52SOL    HW2  156   0.697   1.212   0.598  1.0462  1.0272 -1.7663
   53SOL     OW  157   1.229   3.046   2.471 -0.0453  0.2867  0.2098
   53SOL    HW1  158   1.274   3.079   2.558  1.9566 -0.6219 -0.2428
   53SOL    HW2  159   1.193   2.951   2.488  0.5330 -1.2587 -0.4708
   54SOL     OW  160   1.790   0.519   1.660  0.2773 -0.5657 -0.0751
   54SOL    HW1  161   1.782   0.587   1.585  2.3715  1.6650  2.7526
   54SOL    HW2  162   1.877   0.535   1.713  1.0084  1.7316 -0.1058
   55SOL     OW  163   2.916   2.759   0.510  0.2740 -0.8438  0.2143
   55SOL    HW1  164   2.895   2.675   0.568  0.1139  1.7594  0.0848
   55SOL    HW2  165   2.931   2.837   0.574 -0.8705  0.8876 -0.8882
   56SOL     OW  166   1.267   2.673   1.725  0.1928  0.5284 -0.4229
   56SOL    HW1  167   1.263   2.751   1.792  0.3470  2.0127 -0.9084
   56SOL    HW2  168   1.252   2.704   1.628 -0.9001  0.1048  2.4993
   57SOL     OW  169   1.607   0.975   2.591  0.5230  0.7796 -0.3022
   57SOL    HW1  170   1.622   0.988   2.691 -0.8258  0.3389  0.0461
   57SOL    HW2  171   1.592   0.875   2.584 -1.0426 -0.2523  0.4407
   58SOL     OW  172   0.247   1.182   2.026  0.3380 -0.2591  0.1697
   58SOL    HW1  173   0.277   1.094   1.988 -1.2264  5.0363 -0.3804
   58SOL    HW2  174   0.146   1.195   2.018 -1.9521 -1.7418 -0.7206
   59SOL     OW  175   0.652   2.465   2.006  0.1052  0.6488  0.6916
   59SOL    HW1  176   0.635   2.359   2.016  1.2023 -3.8180  0.7249
   59SOL    HW2  177   0.694   2.503   2.092 -0.5260  0.8071  0.3912
   60SOL     OW  178   2.472   2.393   0.207 -0.1661 -0.5503 -0.2701
   60SOL    HW1  179   2.503   2.298   0.197 -0.1385  2.3191  0.7901
   60SOL    HW2  180   2.492   2.450   0.124 -1.3702  0.5360  0.3925
   61SOL     OW  181   1.073   2.771   0.729  0.5106  0.7306  0.6963
   61SOL    HW1  182   1.105   2.675   0.712 -0.2082 -3.4325 -0.5324
   61SOL    HW2  183   1.017   2.801   0.648 -1.5150 -1.5921 -0.1863
   62SOL     OW  184   1.692   2.305   2.647 -0.3092  0.6292  0.4353
   62SOL    HW1  185   1.675   2.284   2.548 -0.1673 -0.2833 -0.2291
   62SOL    HW2  186   1.698   2.221   2.701  0.8357 -0.2221  1.4065
   63SOL     OW  187   2.073   0.659   2.924  0.6236 -0.5617  0.2471
   63SOL    HW1  188   2.117   0.643   2.827  0.8413  0.5384 -4.6417
   63SOL    HW2  189   2.138   0.684   3.001 -0.7664  2.0527 -1.4090
   64SOL     OW  190   1.181   1.518   0.108 -0.1774 -0.0048 -0.8510
   64SOL    HW1  191   1.139   1.498   0.017  0.4134  0.3464 -0.9055
   64SOL    HW2  192   1.118   1.558   0.180  1.3572 -0.4355 -1.2332
   65SOL     OW  193   0.928   3.074   1.401  0.0649  0.4838  0.2871
   65SOL    HW1  194   1.014   3.035   1.435 -1.5108  2.2152 -0.2692
   65SOL    HW2  195   0.923   0.071   1.426  0.5976  1.2336 -0.9682
   66SOL     OW  196   0.633   1.228   1.511  0.1193 -0.6017  0.0956
   66SOL    HW1  197   0.590   1.140   1.523  1.3073  2.0758 -0.1082
   66SOL    HW2  198   0.732   1.230   1.536  2.7166 -0.7125  0.6051
   67SOL     OW  199   2.477   2.467   1.776 -0.2604 -0.1867 -0.1225
   67SOL    HW1  200   2.488   2.466   1.879  1.4072  0.0323  0.1091
   67SOL    HW2  201   2.564   2.498   1.731  3.2988 -0.9240 -1.6528
   68SOL     OW  202   0.927   1.080   1.958 -0.0607 -0.4433  0.1801
   68SOL    HW1  203   0.944   1.001   1.898  1.4328  0.1270 -3.9216
   68SOL    HW2  204   0.834   1.087   2.004  1.5381  3.1654 -0.2440
   69SOL     OW  205   2.588   2.543   0.025  0.7118  0.1063 -0.0782
   69SOL    HW1  206   2.662   2.606   0.041 -2.3597 -1.2481 -0.2012
   69SOL    HW2  207   2.515   2.599   3.088 -0.9445  0.0585 -1.8501
   70SOL     OW  208   2.439   0.598   2.671 -0.0942 -0.0871  0.3918
   70SOL    HW1  209   2.471   0.500   2.671 -1.9062 -0.4148 -1.2769
   70SOL    HW2  210   2.500   0.668   2.713 -1.3668 -1.5316  1.5000
   71SOL     OW  211   0.036   2.138   0.428 -0.5950  0.1953  0.0685
   71SOL    HW1  212   3.085   2.065   0.384  1.0127  0.1749  2.9817
   71SOL    HW2  213   0.115   2.160   0.364 -0.4080 -0.1645  1.7135
   72SOL     OW  214   2.959   1.962   0.292  0.7889 -0.5886 -0.3325
   72SOL    HW1  215   2.904   1.879   0.264 -1.1746 -1.2264 -2.3115
   72SOL    HW2  216   2.971   2.022   0.208 -0.5002 -0.5213 -1.1836
   73SOL     OW  217   0.932   0.545   0.826 -0.0374 -0.0772  0.2426
   73SOL    HW1  218   1.034   0.557   0.829  1.4623  2.3263  0.6886
   73SOL    HW2  219   0.884   0.610   0.891 -4.7056  1.8977  1.6996
   74SOL     OW  220   2.689   2.258   2.158  0.3779  0.7368 -0.1452
   74SOL    HW1  221   2.611   2.197   2.145  0.8081  2.0406  0.6496
   74SOL    HW2  222   2.748   2.245   2.075 -2.5293  0.2931  0.7387
   75SOL     OW  223   1.783   1.738   1.821  0.4217  0.3046 -0.4818
   75SOL    HW1  224   1.763   1.731   1.920  0.4390 -1.3670  0.4199
   75SOL    HW2  225   1.701   1.735   1.768  0.2387  0.1189 -0.5649
   76SOL     OW  226   1.176   2.033   1.084 -0.2066 -0.0257 -0.3648
   76SOL    HW1  227   1.233   1.954   1.113  0.9868 -1.2677 -1.8071
   76SOL    HW2  228   1.082   1.998   1.082  1.7634  1.3660 -0.1885
   77SOL     OW  229   2.902   1.680   1.922  0.1759 -0.4367  0.3292
   77SOL    HW1  230   2.935   1.603   1.982 -1.2445 -0.0408 -3.2804
   77SOL    HW2  231   2.821   1.735   1.962 -1.6690  1.1261 -0.6290
   78SOL     OW  232   1.641   0.522   0.741 -0.2026  0.2047  0.0499
   78SOL    HW1  233   1.615   0.453   0.813 -1.7171  0.1079  2.3631
   78SOL    HW2  234   1.595   0.609   0.761  1.4663 -0.4013 -0.2222
   79SOL     OW  235   2.050   1.392   1.821 -0.0593 -0.1006 -0.6615
   79SOL    HW1  236   2.121   1.370   1.894 -0.4237 -0.5991  2.9808
   79SOL    HW2  237   1.963   1.355   1.858 -0.1832 -1.0366 -2.0484
   80SOL     OW  238   1.160   0.318   1.275  0.3515 -0.4695 -0.2523
   80SOL    HW1  239   1.145   0.413   1.239 -0.1204  3.0102 -3.2367
   80SOL    HW2  240   1.249   0.311   1.326  0.2752 -0.0905  0.0809
   81SOL     OW  241   0.776   2.455   0.731  0.1557 -0.0376 -0.2590
   81SOL    HW1  242   0.804   2.541   0.679  1.8669  1.5604 -1.5476
   81SOL    HW2  243   0.849   2.384   0.730  0.1152  1.9221 -0.2729
   82SOL     OW  244   1.321   0.420   1.790  0.2517  0.1885 -0.6077
   82SOL    HW1  245   1.416   0.452   1.797  2.1685  0.2638 -0.5934
   82SOL    HW2  246   1.282   0.394   1.878  0.2490  4.3093 -0.7651
   83SOL     OW  247   0.369   2.305   0.523  0.5702  0.1545  0.8991
   83SOL    HW1  248   0.340   2.240   0.448  1.1057  0.4055  0.4180
   83SOL    HW2  249   0.315   2.300   0.605  1.3755  1.5209  2.5587
   84SOL     OW  250   2.728   1.558   0.104 -0.2738  0.3556 -0.1932
   84SOL    HW1  251   2.766   1.475   0.056  3.7277 -0.4960 -0.4077
   84SOL    HW2  252   2.713   1.632   0.030 -0.9405 -1.0067  2.2330
   85SOL     OW  253   2.885   2.312   1.617  0.2693 -0.1477 -0.1327
   85SOL    HW1  254   2.790   2.268   1.609  0.7808  2.6461 -0.3363
   85SOL    HW2  255   2.953   2.250   1.664  0.7829  3.4357 -0.9451
   86SOL     OW  256   1.707   2.809   1.151 -0.3231 -0.5250 -0.3100
   86SOL    HW1  257   1.797   2.764   1.134  0.2648  0.7467 -0.6004
   86SOL    HW2  258   1.720   2.911   1.148  0.1864  0.7679 -0.6874
   87SOL     OW  259   2.775   1.768   0.271  0.3610  0.2761 -0.2337
   87SOL    HW1  260   2.682   1.791   0.315 -2.7491 -0.0382 -0.1663
   87SOL    HW2  261   2.766   1.697   0.205  2.8771  0.7156  2.0103
   88SOL     OW  262   0.880   0.408   1.099 -0.9277  0.0570 -0.1339
   88SOL    HW1  263   0.789   0.438   1.139 -3.5630  0.1046 -0.0443
   88SOL    HW2  264   0.886   0.313   1.069  0.6916  0.0590 -0.3531
   89SOL     OW  265   0.799   2.876   1.766 -0.2577 -0.0259 -0.1022
   89SOL    HW1  266   0.808   2.934   1.848  0.6484 -0.2421 -3.0504
   89SOL    HW2  267   0.771   2.785   1.796  0.3053 -1.3273 -1.5403
   90SOL     OW  268   3.099   1.670   1.041  0.4529 -0.3073  0.5112
   90SOL    HW1  269   3.008   1.645   1.003 -0.5555  0.9620 -0.2195
   90SOL    HW2  270   0.003   1.767   1.058  1.2372 -1.2369  0.7060
   91SOL     OW  271   1.363   1.826   1.111  0.1481  1.1259  0.7723
   91SOL    HW1  272   1.400   1.788   1.196 -1.7429 -1.7876  1.8923
   91SOL    HW2  273   1.309   1.753   1.068  0.6773  0.2938  0.8048
   92SOL     OW  274   2.921   3.033   1.884  0.4604 -0.3608 -0.2968
   92SOL    HW1  275   2.891   0.017   1.850  1.2650 -0.3528  0.9291
   92SOL    HW2  276   2.990   2.983   1.828  0.5046 -0.7193 -0.8691
   93SOL     OW  277   0.136   1.349   2.654  0.2334 -0.1989 -0.6542
   93SOL    HW1  278   0.162   1.295   2.738  2.3233  1.2453  1.9009
   93SOL    HW2  279   0.137   1.291   2.572 -2.7927 -0.3668 -1.5912
   94SOL     OW  280   2.378   0.020   1.827  0.4170  0.1079 -0.3961
   94SOL    HW1  281   2.336   0.035   1.921  0.1555 -0.2127  1.2129
   94SOL    HW2  282   2.463   0.071   1.805  1.4432  0.9585  1.7152
   95SOL     OW  283   1.693   0.904   2.183 -0.4381 -0.1716  0.1573
   95SOL    HW1  284   1.594   0.929   2.171  1.3303  0.1901 -1.4130
   95SOL    HW2  285   1.720   0.844   2.108  0.3396  0.2847  2.9241
   96SOL     OW  286   2.858   0.787   1.737  0.1037  0.0665  0.6688
   96SOL    HW1  287   2.899   0.839   1.810 -1.4970 -0.7939 -3.4099
   96SOL    HW2  288   2.813   0.848   1.663 -3.4653  1.2854 -1.0257
   97SOL     OW  289   2.359   0.096   1.503 -0.1538  0.2361 -0.5681
   97SOL    HW1  290   2.267   0.071   1.539  0.6062  0.5192 -0.1937
   97SOL    HW2  291   2.425   0.020   1.523 -0.2898 -1.6066 -1.6470
   98SOL     OW  292   2.236   2.661   1.410  0.1947  0.2248  0.3677
   98SOL    HW1  293   2.295   2.716   1.467 -4.2439  0.6942 -0.2163
   98SOL    HW2  294   2.149   2.640   1.464 -1.2248 -2.1077 -0.1981
   99SOL     OW  295   2.710   0.316   1.648 -0.0897  0.1946  0.3979
   99SOL    HW1  296   2.694   0.415   1.669 -2.9427 -0.0561 -1.2123
   99SOL    HW2  297   2.806   0.276   1.663  3.2624 -2.5722  0.6955
  100SOL     OW  298   2.263   1.669   1.997 -0.8638  0.3918  0.2117
  100SOL    HW1  299   2.327   1.585   2.002  1.1356 -1.2637 -1.3364
  100SOL    HW2  300   2.169   1.646   2.029  0.5884 -1.7037 -0.2770
  101SOL     OW  301   2.324   0.125   0.045 -0.0299  0.0865 -0.3527
  101SOL    HW1  302   2.342   0.039   0.101 -0.2250  0.9335  1.8287
  101SOL    HW2  303   2.260   0.182   0.096 -0.9376  0.2788 -1.1432
  102SOL     OW  304   0.644   0.491   1.212 -0.1790  0.0216 -0.5424
  102SOL    HW1  305   0.660   0.435   1.294 -0.2006  0.6881 -0.1622
  102SOL    HW2  306   0.544   0.513   1.195 -0.0424  1.9834  0.1925
  103SOL     OW  307   2.765   0.107   2.321  0.0685  0.0380  0.4588
  103SOL    HW1  308   2.724   0.116   2.416 -0.9698 -0.6152 -0.4194
  103SOL    HW2  309   2.820   0.020   2.315  1.7608 -1.7731  2.8523
  104SOL     OW  310   3.071   2.896   1.695  0.1941 -0.0255  0.2668
  104SOL    HW1  311   2.984   2.852   1.661 -0.2257 -0.4056  1.4577
  104SOL    HW2  312   0.030   2.823   1.736  5.3210 -3.2670 -0.4394
  105SOL     OW  313   1.427   0.972   2.163 -0.3365 -0.6489  0.7107
  105SOL    HW1  314   1.386   1.064   2.175 -1.1817 -0.8735  1.2658
  105SOL    HW2  315   1.352   0.908   2.136  0.3471 -0.5422 -0.9648
  106SOL     OW  316   1.923   0.614   0.834  0.6550  0.2993  0.0112
  106SOL    HW1  317   1.885   0.669   0.913 -0.6633  0.6486  0.5169
  106SOL    HW2  318   1.849   0.581   0.772 -0.4107 -2.3723  2.7688
  107SOL     OW  319   0.593   0.877   1.228  0.1626 -0.1914 -0.2342
  107SOL    HW1  320   0.529   0.815   1.280  0.9743 -0.2676  0.7755
  107SOL    HW2  321   0.690   0.845   1.236  1.3164 -0.8669  1.0065
  108SOL     OW  322   3.059   0.569   2.299 -0.3310 -0.0297  0.4704
  108SOL    HW1  323   3.002   0.602   2.220  0.2993  1.5123  0.5350
  108SOL    HW2  324   3.021   0.495   2.359  2.0359  1.6639 -0.1543
  109SOL     OW  325   2.038   0.035   2.851 -0.0256 -0.0322  0.1999
  109SOL    HW1  326   2.134   0.012   2.877  1.0373 -2.3518  2.1729
  109SOL    HW2  327   2.011   3.083   2.771 -0.0633  0.5075  1.8674
  110SOL     OW  328   0.029   1.773   2.763 -0.2513 -0.2010  0.4876
  110SOL    HW1  329   3.040   1.809   2.762  3.4905 -0.7227 -0.9631
  110SOL    HW2  330   0.062   1.779   2.859  0.2743 -0.9322 -0.2818
  111SOL     OW  331   2.824   0.498   2.629  0.2576 -0.4253  0.4329
  111SOL    HW1  332   2.759   0.439   2.682  2.2051 -1.1659  1.5588
  111SOL    HW2  333   2.865   0.448   2.549 -0.1203 -1.4607 -1.2975
  112SOL     OW  334   2.707   2.646   0.950  0.1664  0.2389 -0.6094
  112SOL    HW1  335   2.730   2.564   1.009  1.4595 -3.8892  1.1767
  112SOL    HW2  336   2.782   2.710   0.949  2.9403 -0.6500  0.9080
  113SOL     OW  337   2.140   2.193   2.135  0.8548  0.0819  0.1842
  113SOL    HW1  338   2.238   2.192   2.154 -0.9931  0.1937  3.1436
  113SOL    HW2  339   2.109   2.285   2.115  2.5058 -4.6220 -0.7305
  114SOL     OW  340   2.756   3.089   0.437  0.1769  0.1700 -0.5126
  114SOL    HW1  341   2.657   3.069   0.442  0.8993  1.2681  0.8368
  114SOL    HW2  342   2.767   0.083   0.445  0.7160 -0.9215  2.5387
  115SOL     OW  343   2.789   1.797   3.056  0.1176  0.4696  0.6281
  115SOL    HW1  344   2.876   1.799   0.002  0.6473 -0.6026 -2.5150
  115SOL    HW2  345   2.793   1.797   2.952 -3.2894  2.3624 -1.8177
  116SOL     OW  346   3.102   1.325   1.790  0.4492 -0.3669 -0.2353
  116SOL    HW1  347   0.077   1.385   1.762  0.2675  1.2987  1.2887
  116SOL    HW2  348   3.064   1.363   1.881 -0.6498 -0.9837  2.6616
  117SOL     OW  349   2.087   0.250   1.059 -0.7336 -0.0294  0.2833
  117SOL    HW1  350   2.038   0.165   1.029 -0.5693  0.1961  1.1303
  117SOL    HW2  351   2.028   0.298   1.132 -0.7550  0.7403  0.3306
  118SOL     OW  352   3.082   2.209   1.749  0.1429  0.2840 -0.1955
  118SOL    HW1  353   3.060   2.117   1.792  0.4712  0.1131 -0.1713
  118SOL    HW2  354   0.075   2.214   1.722  0.8434  1.3908  0.8651
  119SOL     OW  355   0.857   1.940   1.340 -0.2371 -0.0899 -0.1152
  119SOL    HW1  356   0.807   2.021   1.317 -0.7615 -1.5065 -1.9433
  119SOL    HW2  357   0.790   1.877   1.382  1.3426  2.6748 -1.5027
  120SOL     OW  358   0.410   1.623   1.299  0.3883 -0.0784 -0.2307
  120SOL    HW1  359   0.343   1.686   1.344  0.5793  1.7671 -0.0920
  120SOL    HW2  360   0.476   1.666   1.234 -0.0498 -0.8607  0.7351
  121SOL     OW  361   2.004   1.307   1.164  0.2621 -0.2291 -0.5494
  121SOL    HW1  362   1.930   1.368   1.136 -0.1707 -3.6472  1.7369
  121SOL    HW2  363   2.074   1.351   1.224  1.4015 -0.1754  0.8940
  122SOL     OW  364   1.940   1.854   2.577  0.7013 -0.4587  0.5415
  122SOL    HW1  365   1.874   1.796   2.524  0.2670  1.6022  0.3175
  122SOL    HW2  366   1.965   1.941   2.530  0.3540  0.5079 -1.5915
  123SOL     OW  367   2.986   2.953   0.319 -0.1779  0.3715 -0.2048
  123SOL    HW1  368   2.919   3.025   0.342 -0.0848 -1.2605  0.4281
  123SOL    HW2  369   2.960   2.867   0.356  1.6651  2.2106 -0.2190
  124SOL     OW  370   0.909   1.089   0.334 -0.3296 -0.1845 -0.4616
  124SOL    HW1  371   0.849   1.111   0.412 -1.7759  0.6034  1.7339
  124SOL    HW2  372   0.910   1.163   0.266  1.6878 -0.6646 -2.7333
  125SOL     OW  373   0.079   1.446   2.242 -0.0625 -0.6245 -0.2599
  125SOL    HW1  374   0.127   1.533   2.266 -0.9557  0.2384 -1.3232
  125SOL    HW2  375   0.130   1.367   2.276 -0.9670 -2.2830  1.2090
  126SOL     OW  376   0.048   2.688   0.110  0.0970 -0.6300 -0.0583
  126SOL    HW1  377   0.048   2.793   0.125  0.5086 -0.2488 -0.2291
  126SOL    HW2  378   0.051   2.646   0.204 -1.8765  1.4871 -1.4765
  127SOL     OW  379   2.941   1.720   0.516  0.4369 -0.6188  0.7782
  127SOL    HW1  380   2.886   1.730   0.430  1.0140  0.7996 -2.6499
  127SOL    HW2  381   2.963   1.627   0.541  0.3073  2.1752 -1.4917
  128SOL     OW  382   1.175   1.083   0.705  0.1690  0.2449  0.1872
  128SOL    HW1  383   1.163   1.166   0.767  0.9808  1.1560  0.9079
  128SOL    HW2  384   1.277   1.071   0.689 -0.5575  0.2089  1.5508
  129SOL     OW  385   2.009   2.128   1.346 -0.5639 -0.5156 -0.3447
  129SOL    HW1  386   2.087   2.091   1.397 -1.9226 -1.4853 -0.6809
  129SOL    HW2  387   1.927   2.089   1.380  0.7501 -0.2015 -2.3365
  130SOL     OW  388   1.947   1.054   0.795  0.1407  0.1966 -0.3212
  130SOL    HW1  389   1.893   1.101   0.719 -0.4445  2.1168 -2.9616
  130SOL    HW2  390   2.022   1.115   0.837 -2.4721 -1.3367  0.6227
  131SOL     OW  391   2.875   1.162   2.702  0.1132  0.1224 -0.4848
  131SOL    HW1  392   2.858   1.152   2.803 -1.4199  1.5999 -2.8017
  131SOL    HW2  393   2.789   1.166   2.648  1.1846  1.5296  0.5258
  132SOL     OW  394   1.617   1.216   2.094 -0.5764  0.2590 -0.2418
  132SOL    HW1  395   1.666   1.180   2.175 -3.7472 -0.2119  0.1735
  132SOL    HW2  396   1.523   1.180   2.090 -1.4168 -0.4140  0.7578
  133SOL     OW  397   0.131   1.103   0.157 -0.0154  0.0029 -0.3165
  133SOL    HW1  398   0.187   1.062   0.233  1.9386 -2.4733  1.7605
  133SOL    HW2  399   0.081   1.183   0.201 -1.5555  1.4410  2.2700
  134SOL     OW  400   2.621   0.918   0.484  0.0354 -0.3630  0.3618
  134SOL    HW1  401   2.647   0.981   0.402  1.3538  3.0734  0.8478
  134SOL    HW2  402   2.588   0.985   0.551  2.7052 -0.3165  3.5994
  135SOL     OW  403   1.811   0.878   2.978 -0.0847 -0.2011 -0.0539
  135SOL    HW1  404   1.821   0.794   2.922 -0.2130  2.1293 -1.2817
  135SOL    HW2  405   1.817   0.864   3.080 -0.7864  2.8513  1.3483
  136SOL     OW  406   1.738   2.022   1.747  0.2115 -0.5764 -0.3552
  136SOL    HW1  407   1.765   1.928   1.781 -2.1160 -0.5793 -1.2130
  136SOL    HW2  408   1.635   2.023   1.743  0.1989 -1.0228 -1.0024
  137SOL     OW  409   2.595   2.546   0.389 -0.6940  0.9123 -0.5833
  137SOL    HW1  410   2.585   2.513   0.485  0.4794  0.5352 -1.4414
  137SOL    HW2  411   2.541   2.484   0.323  0.1603 -2.0820  1.1748
  138SOL     OW  412   2.288   0.352   1.473 -0.0947  0.0194 -0.2404
  138SOL    HW1  413   2.217   0.373   1.546 -0.3181  1.3361  2.2026
  138SOL    HW2  414   2.324   0.255   1.477  3.4882  0.7589 -0.7382
  139SOL     OW  415   2.657   0.104   2.554  0.4340  0.2695  0.0128
  139SOL    HW1  416   2.584   0.144   2.613 -2.6605  0.3817 -1.3164
  139SOL    HW2  417   2.716   0.043   2.609 -3.3013  1.0184  0.5750
  140SOL     OW  418   1.051   1.790   2.105 -0.4259  0.9058  0.5078
  140SOL    HW1  419   1.082   1.753   2.195 -0.4916  0.0008 -0.3872
  140SOL    HW2  420   1.136   1.815   2.051  0.7584 -0.3719  0.4745
  141SOL     OW  421   0.803   0.538   2.420 -0.2268 -0.2943 -0.0957
  141SOL    HW1  422   0.723   0.578   2.374 -0.7376 -0.8586  1.8633
  141SOL    HW2  423   0.894   0.573   2.383  1.9515  1.7170 -2.2714
  142SOL     OW  424   2.778   2.640   2.731 -0.3727  0.4943  0.1956
  142SOL    HW1  425   2.725   2.683   2.804  0.0851 -0.0453 -0.1097
  142SOL    HW2  426   2.735   2.662   2.644  1.3894  2.4618  0.7184
  143SOL     OW  427   1.062   2.111   0.365 -0.6781  0.0686 -0.3472
  143SOL    HW1  428   1.013   2.188   0.412 -1.3214  3.8317  0.6675
  143SOL    HW2  429   1.149   2.086   0.419  3.3599 -1.5708 -0.2749
  144SOL     OW  430   1.475   2.601   0.109  0.2059 -0.1025 -0.1980
  144SOL    HW1  431   1.401   2.553   0.064  4.5531  3.9521  1.2952
  144SOL    HW2  432   1.441   2.685   0.155  1.1476 -0.4912 -0.7365
  145SOL     OW  433   1.485   1.953   2.729 -0.3358  0.1224 -0.1004
  145SOL    HW1  434   1.571   2.011   2.744  1.5980  4.3956 -0.9071
  145SOL    HW2  435   1.485   1.891   2.648 -0.9838 -1.1262  0.7880
  146SOL     OW  436   2.603   2.998   2.913  0.4497 -0.2636  0.2697
  146SOL    HW1  437   2.633   2.988   3.010 -0.4617  0.6636 -0.0756
  146SOL    HW2  438   2.688   3.007   2.857  1.2666 -0.4249 -0.2872
  147SOL     OW  439   2.714   1.131   0.959  0.2206  0.0704 -0.5220
  147SOL    HW1  440   2.709   1.135   1.061  0.2145 -0.1785  0.9010
  147SOL    HW2  441   2.661   1.209   0.919 -0.5675 -1.3847  0.2440
  148SOL     OW  442   2.214   2.789   0.074  0.4997  0.2799 -0.3368
  148SOL    HW1  443   2.188   2.730   0.152  0.0622 -2.6619  0.6931
  148SOL    HW2  444   2.142   2.790   3.104 -1.7326 -1.8969  2.6082
  149SOL     OW  445   0.667   1.722   2.712  0.0922 -0.3379 -0.1241
  149SOL    HW1  446   0.737   1.738   2.638 -1.8009 -0.7612 -2.5941
  149SOL    HW2  447   0.643   1.811   2.757  2.6304  0.4946  1.0375
  150SOL     OW  448   0.334   2.597   0.448 -0.6299 -0.5127  0.0819
  150SOL    HW1  449   0.418   2.624   0.503  2.1982  1.5429  0.9525
  150SOL    HW2  450   0.339   2.498   0.431 -1.2155  2.2248  0.6961
  151SOL     OW  451   0.301   1.014   0.362 -0.0141 -0.3052  0.3352
  151SOL    HW1  452   0.258   0.925   0.387  0.5724 -1.8059  1.5930
  151SOL    HW2  453   0.313   1.076   0.443 -0.2396 -0.5099  1.6102
  152SOL     OW  454   2.715   2.033   0.504  0.1606 -0.1038  0.4384
  152SOL    HW1  455   2.814   2.009   0.484 -1.5405 -1.2736 -1.3723
  152SOL    HW2  456   2.657   1.956   0.473  0.9105  2.3082 -0.9686
  153SOL     OW  457   1.870   2.449   0.732 -0.5088  0.6066 -0.7764
  153SOL    HW1  458   1.921   2.477   0.815  1.0993 -0.2565 -4.0933
  153SOL    HW2  459   1.935   2.430   0.656  1.0715 -0.3042 -1.7352
  154SOL     OW  460   1.100   2.643   1.001 -0.2405  0.0996 -0.1348
  154SOL    HW1  461   1.087   2.718   0.935 -2.3024 -1.0665  0.6861
  154SOL    HW2  462   1.009   2.592   1.005 -0.1043 -0.1109  2.1625
  155SOL     OW  463   2.826   1.819   0.721  0.6251  0.3757  0.3911
  155SOL    HW1  464   2.726   1.833   0.705 -1.5000  1.5944 -1.9243
  155SOL    HW2  465   2.880   1.787   0.639 -0.0275 -0.1760 -0.2557
  156SOL     OW  466   2.675   2.348   2.965  0.2930 -0.1102 -0.0692
  156SOL    HW1  467   2.604   2.320   2.899 -0.3947 -0.3077 -2.3563
  156SOL    HW2  468   2.636   2.416   3.030  1.6343 -0.3982  2.3987
  157SOL     OW  469   0.570   2.225   1.499  0.5093 -0.2115 -0.3668
  157SOL    HW1  470   0.643   2.208   1.430  1.5076  0.0332  0.2229
  157SOL    HW2  471   0.479   2.206   1.453  1.3991  1.6382  0.3493
  158SOL     OW  472   1.487   0.309   0.189  0.1139 -0.1276  0.1004
  158SOL    HW1  473   1.577   0.312   0.145 -0.9826  0.3117  1.5919
  158SOL    HW2  474   1.494   0.245   0.269 -0.3311  0.5240 -1.0228
  159SOL     OW  475   1.377   0.766   0.332 -0.1825  0.3265 -0.1725
  159SOL    HW1  476   1.412   0.668   0.351  0.5130 -0.5407  1.2228
  159SOL    HW2  477   1.276   0.768   0.358 -0.9990 -0.5977  1.3559
  160SOL     OW  478   0.696   1.295   0.748 -0.1429 -0.4522  0.2951
  160SOL    HW1  479   0.620   1.253   0.805  0.4822 -0.3911  0.5614
  160SOL    HW2  480   0.737   1.379   0.786 -2.8710 -0.9817 -1.6396
  161SOL     OW  481   0.176   2.455   2.546  0.4927  0.1058  0.4110
  161SOL    HW1  482   0.148   2.391   2.618 -0.9755  0.6712 -4.1030
  161SOL    HW2  483   0.271   2.488   2.563  3.1623  1.2357  0.0542
  162SOL     OW  484   0.204   2.323   1.185  0.2244 -0.1463 -0.6282
  162SOL    HW1  485   0.105   2.337   1.173 -2.3722  0.3318  1.6325
  162SOL    HW2  486   0.245   2.416   1.178 -0.6088 -2.9192  0.0794
  163SOL     OW  487   0.040   0.484   2.775 -0.3434 -0.4150 -1.1300
  163SOL    HW1  488   0.061   0.573   2.731  0.3322 -0.5579  3.5924
  163SOL    HW2  489   3.046   0.488   2.805  0.4725 -0.4954  0.3913
  164SOL     OW  490   0.395   2.996   2.476 -0.6200 -0.7170  0.3988
  164SOL    HW1  491   0.441   2.996   2.568 -1.4699 -1.1546  0.4014
  164SOL    HW2  492   0.307   2.942   2.488 -1.4523  1.6943  2.3602
  165SOL     OW  493   2.341   0.620   1.839  0.5859  0.1595  0.0044
  165SOL    HW1  494   2.257   0.572   1.872 -0.1544  1.9124  0.5346
  165SOL    HW2  495   2.333   0.635   1.739 -0.9467  1.7985  1.3337
  166SOL     OW  496   1.885   2.242   1.735 -0.0001 -0.3101 -0.1298
  166SOL    HW1  497   1.942   2.259   1.821  0.3798  2.1704  0.8296
  166SOL    HW2  498   1.822   2.164   1.745 -0.1317 -1.2613  0.6741
  167SOL     OW  499   0.678   0.995   2.435 -0.2356  0.3477 -0.0548
  167SOL    HW1  500   0.660   1.092   2.414 -2.9042  0.1177  1.0327
  167SOL    HW2  501   0.768   0.984   2.486 -4.3601 -2.2844 -0.0050
  168SOL     OW  502   2.352   0.071   2.088 -0.8826 -0.1711 -0.1999
  168SOL    HW1  503   2.379   0.162   2.128 -3.9959  0.8944 -1.8011
  168SOL    HW2  504   2.252   0.065   2.107  0.4049 -1.2804  0.6580
  169SOL     OW  505   0.159   0.772   0.409 -0.4059  0.2147  0.7977
  169SOL    HW1  506   0.241   0.708   0.422  3.6077 -2.0627  3.2606
  169SOL    HW2  507   0.108   0.751   0.317 -0.5583 -2.6475 -4.4640
  170SOL     OW  508   0.228   1.426   1.685 -0.0241 -0.2064  0.0757
  170SOL    HW1  509   0.169   1.450   1.604  0.1779 -3.5185 -1.5118
  170SOL    HW2  510   0.327   1.446   1.669  2.3394 -2.1929  0.7139
  171SOL     OW  511   1.141   2.266   1.820 -0.0386 -0.2203  0.9008
  171SOL    HW1  512   1.062   2.250   1.757  0.8653  1.6612  0.2369
  171SOL    HW2  513   1.211   2.326   1.774 -0.0654 -0.6996 -0.5500
  172SOL     OW  514   1.473   2.774   2.029 -0.4471 -0.3303 -0.8358
  172SOL    HW1  515   1.373   2.760   2.012  0.0253 -0.0988 -1.9664
  172SOL    HW2  516   1.489   2.808   2.127 -0.3951 -0.7154 -1.6333
  173SOL     OW  517   1.417   2.563   0.733  0.0529 -0.3421 -0.0398
  173SOL    HW1  518   1.460   2.475   0.750  2.2614  1.3938  1.3494
  173SOL    HW2  519   1.466   2.638   0.786  0.4655 -1.1437 -0.3432
  174SOL     OW  520   2.239   3.084   0.417  0.4851 -0.1842 -1.0230
  174SOL    HW1  521   2.335   3.073   0.422  0.8257  1.0339  2.3022
  174SOL    HW2  522   2.215   0.080   0.435 -1.3716  0.0508  0.0508
  175SOL     OW  523   0.906   1.381   0.428 -0.2715  0.3479 -0.6417
  175SOL    HW1  524   0.873   1.459   0.489  0.2059  1.9402 -0.0471
  175SOL    HW2  525   0.899   1.288   0.472  0.0811 -1.5050  1.0177
  176SOL     OW  526   0.699   1.805   0.480 -0.5372  0.7135  0.0159
  176SOL    HW1  527   0.705   1.900   0.453 -1.4101 -2.4149  2.0705
  176SOL    HW2  528   0.606   1.763   0.466 -3.1484 -1.7077 -1.4445
  177SOL     OW  529   1.156   1.209   1.640  0.1738 -0.6861  0.3862
  177SOL    HW1  530   1.156   1.248   1.736 -1.7235  1.3782  0.3745
  177SOL    HW2  531   1.239   1.158   1.625 -1.2663 -0.1483 -0.1276
  178SOL     OW  532   2.532   1.829   0.375  0.0154 -0.0326  0.0857
  178SOL    HW1  533   2.472   1.913   0.379 -0.7355 -1.1759 -0.3344
  178SOL    HW2  534   2.471   1.746   0.367 -0.2944 -0.6445  0.5999
  179SOL     OW  535   1.255   2.475   0.001 -0.3668  0.0411  0.7203
  179SOL    HW1  536   1.262   2.446   3.009 -0.4634 -1.0580 -1.1831
  179SOL    HW2  537   1.183   2.417   0.049 -0.1317  0.6249  2.0340
  180SOL     OW  538   1.987   1.447   2.139 -0.1199  0.6909  0.2367
  180SOL    HW1  539   1.994   1.547   2.138 -1.4633 -5.3845  1.4130
  180SOL    HW2  540   2.064   1.420   2.084 -3.0577  2.7015  3.0178
  181SOL     OW  541   0.890   0.920   2.596 -0.1687 -0.1851  0.2513
  181SOL    HW1  542   0.979   0.967   2.582  1.0002 -2.4807  0.3366
  181SOL    HW2  543   0.909   0.824   2.621  0.6765  0.1840 -2.7383
  182SOL     OW  544   2.803   1.101   2.334 -0.2340 -0.1411 -0.4776
  182SOL    HW1  545   2.728   1.114   2.407 -3.2113 -0.1158  1.9019
  182SOL    HW2  546   2.895   1.087   2.379 -1.4880 -1.0919 -2.1292
  183SOL     OW  547   1.356   0.576   2.326 -0.4543 -0.5167  0.4287
  183SOL    HW1  548   1.308   0.531   2.404  0.8139 -0.0411  2.5860
  183SOL    HW2  549   1.296   0.595   2.244 -0.9499  2.3368 -0.4303
  184SOL     OW  550   0.604   0.454   1.746 -0.0220  0.0006 -0.2986
  184SOL    HW1  551   0.694   0.498   1.722  1.2256 -0.4001  1.2826
  184SOL    HW2  552   0.538   0.472   1.674  0.0878 -0.5857  2.7749
  185SOL     OW  553   2.118   1.722   0.548 -0.5539 -0.1061  0.2363
  185SOL    HW1  554   2.166   1.796   0.602 -0.5463 -2.8642 -3.1264
  185SOL    HW2  555   2.094   1.648   0.609  1.0203  2.5864 -0.0862
  186SOL     OW  556   0.299   1.939   0.180  0.2722  0.1350  0.1804
  186SOL    HW1  557   0.386   1.891   0.180  0.7070 -2.0078 -0.4524
  186SOL    HW2  558   0.242   1.878   0.244 -0.7924 -1.3509  0.3424
  187SOL     OW  559   2.048   2.014   0.346 -0.2921  0.1519  0.3430
  187SOL    HW1  560   1.971   2.061   0.395 -1.2113  0.3207 -0.2065
  187SOL    HW2  561   2.032   2.019   0.243 -0.2541 -2.3013  0.5413
  188SOL     OW  562   1.062   2.271   0.968 -0.0818 -0.2864 -0.4651
  188SOL    HW1  563   1.112   2.220   1.041 -1.6057 -0.0402  1.8572
  188SOL    HW2  564   0.991   2.327   1.012  2.7588 -2.4722  2.2945
  189SOL     OW  565   2.279   1.348   2.754 -0.0971 -0.1442  0.6430
  189SOL    HW1  566   2.365   1.297   2.773  0.7135 -0.5501 -0.2937
  189SOL    HW2  567   2.214   1.319   2.828 -1.0786 -1.3729  1.0284
  190SOL     OW  568   1.041   2.397   2.027 -0.3180 -0.3890 -0.4272
  190SOL    HW1  569   1.064   2.343   1.940 -2.1420 -0.0004 -2.8029
  190SOL    HW2  570   0.978   2.347   2.089  2.1023  0.0778  0.0294
  191SOL     OW  571   2.556   0.796   1.387  0.2702  0.5374 -0.0204
  191SOL    HW1  572   2.593   0.816   1.293  0.3008  3.2279  0.1930
  191SOL    HW2  573   2.538   0.697   1.391 -0.4152 -0.1103 -0.6760
  192SOL     OW  574   2.699   0.591   1.763 -0.5141 -0.3769  1.0025
  192SOL    HW1  575   2.609   0.611   1.812 -0.8994  0.8749  0.4272
  192SOL    HW2  576   2.753   0.677   1.739 -1.4535  0.0716 -0.7026
  193SOL     OW  577   0.628   0.060   0.416  0.2910 -0.3463 -0.3882
  193SOL    HW1  578   0.669   0.111   0.493 -2.3224 -2.4004 -0.6644
  193SOL    HW2  579   0.576   3.080   0.444  0.4500 -0.5215 -0.4344
  194SOL     OW  580   1.310   2.417   1.671  0.1820  0.3286 -0.2805
  194SOL    HW1  581   1.379   2.414   1.594  2.6119 -1.1011 -1.4504
  194SOL    HW2  582   1.287   2.517   1.697  2.1186  0.4188  0.4335
  195SOL     OW  583   2.469   1.087   0.651 -0.1789 -0.6377  0.2210
  195SOL    HW1  584   2.493   1.165   0.712  1.7632 -2.4752 -1.0709
  195SOL    HW2  585   2.477   1.116   0.553 -2.6239 -0.2388  1.9860
  196SOL     OW  586   0.904   2.243   1.662  0.2695  0.1713  0.6768
  196SOL    HW1  587   0.899   2.317   1.589  0.9515 -0.6485  0.8215
  196SOL    HW2  588   0.833   2.255   1.731  0.7589 -1.3979 -2.9864
  197SOL     OW  589   0.279   0.762   2.445  0.7708  0.1579  0.0171
  197SOL    HW1  590   0.266   0.837   2.375  0.8264  3.3545 -5.0438
  197SOL    HW2  591   0.275   0.676   2.396 -0.3779 -1.6563  1.5024
  198SOL     OW  592   1.459   0.844   0.089 -0.5161 -0.0286  0.0188
  198SOL    HW1  593   1.422   0.819   0.181  0.8956 -0.0192 -1.2217
  198SOL    HW2  594   1.459   0.943   0.069  1.1979  0.4462 -1.3745
  199SOL     OW  595   2.687   0.695   2.188 -0.0863  0.0512 -0.4751
  199SOL    HW1  596   2.678   0.713   2.290  0.3363  1.5562 -1.2305
  199SOL    HW2  597   2.608   0.727   2.127  4.4379 -0.2582  0.3843
  200SOL     OW  598   2.415   2.668   2.563  0.0871  0.5863  0.2845
  200SOL    HW1  599   2.457   2.704   2.655  0.8918  4.5610  2.1228
  200SOL    HW2  600   2.464   2.588   2.518  0.3718 -1.7416 -1.2625
  201SOL     OW  601   2.501   0.204   1.254  0.0770  0.2135 -0.1070
  201SOL    HW1  602   2.420   0.168   1.308 -3.5654  0.2712 -0.0535
  201SOL    HW2  603   2.485   0.192   1.155  0.1226  2.6127  1.4328
  202SOL     OW  604   0.075   2.968   0.156 -0.3230  0.1373 -0.2660
  202SOL    HW1  605   3.103   2.963   0.221 -0.4678 -0.7219  1.8580
  202SOL    HW2  606   0.164   2.949   0.203 -0.7719 -0.8863  0.4206
  203SOL     OW  607   1.063   2.273   2.674  0.1266 -0.8500 -0.8359
  203SOL    HW1  608   0.990   2.227   2.733  1.3715  0.2777  3.1956
  203SOL    HW2  609   1.132   2.204   2.642  1.6202 -0.4360 -0.4909
  204SOL     OW  610   0.632   1.957   2.400  0.2041 -0.2798 -0.6222
  204SOL    HW1  611   0.615   2.052   2.361 -2.0605  2.6548 -0.8187
  204SOL    HW2  612   0.716   1.956   2.461 -0.8599 -1.6022 -0.3489
  205SOL     OW  613   0.897   0.955   1.321 -0.1538  0.2519 -0.4558
  205SOL    HW1  614   0.886   0.854   1.313 -1.3372 -1.3658  0.9507
  205SOL    HW2  615   0.992   0.977   1.355 -1.3120 -4.7037  0.6619
  206SOL     OW  616   0.133   0.721   2.669  0.0410  0.1662 -0.1698
  206SOL    HW1  617   0.059   0.787   2.664  0.7210  2.5839 -1.7727
  206SOL    HW2  618   0.193   0.731   2.584  1.7421 -0.1413 -0.8183
  207SOL     OW  619   1.773   2.366   2.009 -0.3922 -0.7379  0.0834
  207SOL    HW1  620   1.861   2.394   1.960  5.2154  1.6264 -1.5359
  207SOL    HW2  621   1.693   2.401   1.957  0.7902  0.9857  2.2664
  208SOL     OW  622   0.763   2.749   1.265  0.2289  0.2872 -0.1519
  208SOL    HW1  623   0.692   2.689   1.222 -0.1875  2.6245 -0.8484
  208SOL    HW2  624   0.731   2.783   1.358 -2.2217 -2.6628  1.4287
  209SOL     OW  625   1.422   1.399   0.077  0.0823  0.0388 -0.3457
  209SOL    HW1  626   1.322   1.427   0.085 -2.2199 -1.1062 -0.4984
  209SOL    HW2  627   1.477   1.475   0.118  0.5832  2.8811  1.4688
  210SOL     OW  628   2.351   0.542   0.747 -0.2495  0.7618 -0.8750
  210SOL    HW1  629   2.266   0.525   0.806  0.4813  0.4445  0.9596
  210SOL    HW2  630   2.411   0.453   0.744  0.9311 -4.4881 -1.6715
  211SOL     OW  631   1.439   2.836   0.229  0.0585  0.3885 -0.2065
  211SOL    HW1  632   1.359   2.828   0.293 -0.1621 -0.2560  3.0248
  211SOL    HW2  633   1.473   2.930   0.214 -0.4044 -1.4912  1.3812
  212SOL     OW  634   2.152   2.211   0.736  0.8169  0.3381 -0.4473
  212SOL    HW1  635   2.185   2.307   0.727  1.8980  0.8471 -2.4226
  212SOL    HW2  636   2.074   2.204   0.806 -1.0232  1.8702  0.4291
  213SOL     OW  637   1.831   0.661   2.809 -0.3257  0.1201  0.3843
  213SOL    HW1  638   1.928   0.654   2.839 -0.8882  0.5009  2.6101
  213SOL    HW2  639   1.821   0.658   2.710  2.4932  0.4516 -0.5062
  214SOL     OW  640   0.870   1.461   1.968  0.0748 -0.7948  1.0029
  214SOL    HW1  641   0.864   1.544   2.027  1.5092 -3.6300 -0.8372
  214SOL    HW2  642   0.922   1.387   2.016  0.0007 -0.2133 -0.0356
  215SOL     OW  643   0.147   1.445   0.530  0.2022 -0.2812 -0.3546
  215SOL    HW1  644   0.215   1.497   0.579  0.1468 -0.2837  1.2404
  215SOL    HW2  645   0.053   1.473   0.566 -1.0165  2.1240  1.3045
  216SOL     OW  646   0.430   2.577   2.348 -0.4504 -0.2860 -0.0658
  216SOL    HW1  647   0.431   2.477   2.328 -0.4723 -1.7264 -0.3040
  216SOL    HW2  648   0.487   2.600   2.428 -1.3284 -0.0104  1.1589
  217SOL     OW  649   2.653   0.841   1.155 -0.1345 -0.3059 -0.0798
  217SOL    HW1  650   2.610   0.821   1.067  0.4044  0.7764  2.3519
  217SOL    HW2  651   2.660   0.943   1.162  1.3977  0.1378  0.1293
  218SOL     OW  652   0.968   1.996   1.916 -0.3298  0.6083 -0.4605
  218SOL    HW1  653   1.035   2.000   1.842 -1.3846 -0.2235  1.1947
  218SOL    HW2  654   0.988   1.924   1.991 -1.1675  0.5491  1.0154
  219SOL     OW  655   2.196   1.417   0.309 -0.2883  0.8920  0.7280
  219SOL    HW1  656   2.187   1.363   0.222 -0.5065 -0.8728 -0.5735
  219SOL    HW2  657   2.151   1.369   0.386 -1.8946 -2.9653 -1.1016
  220SOL     OW  658   2.115   1.082   0.331 -0.2621  0.2338  0.1552
  220SOL    HW1  659   2.166   1.060   0.244  1.7954 -0.7430 -0.0927
  220SOL    HW2  660   2.083   0.994   0.372 -0.2752  0.1257  0.9709
  221SOL     OW  661   3.085   0.489   0.334  0.0927 -0.7313  0.4953
  221SOL    HW1  662   0.031   0.555   0.272  1.7492  0.2819  0.7802
  221SOL    HW2  663   2.990   0.471   0.299 -2.1870 -0.3108  2.2116
  222SOL     OW  664   1.357   1.313   0.455  0.6878 -0.1686  0.2547
  222SOL    HW1  665   1.352   1.345   0.556  0.8105 -0.4882 -0.0923
  222SOL    HW2  666   1.280   1.247   0.430 -0.8629 -2.1374 -2.1529
  223SOL     OW  667   0.773   0.192   3.105  0.0606 -0.0929 -0.1648
  223SOL    HW1  668   0.726   0.104   0.002 -0.7052  1.4535  2.9294
  223SOL    HW2  669   0.828   0.197   3.017 -1.2234  0.1922 -0.5427
  224SOL     OW  670   1.433   0.314   1.389 -0.1204  0.1731 -0.0714
  224SOL    HW1  671   1.405   0.259   1.468  1.2254 -1.1982  0.0944
  224SOL    HW2  672   1.443   0.252   1.306  0.9348 -1.5239 -0.8597
  225SOL     OW  673   0.143   2.512   1.424  0.0629  0.1653 -0.3970
  225SOL    HW1  674   0.143   2.414   1.393  1.2589  0.7363 -0.8445
  225SOL    HW2  675   0.128   2.526   1.526  3.5113  1.0804  0.6278
  226SOL     OW  676   0.981   1.586   0.275 -0.5030  0.1308 -0.4172
  226SOL    HW1  677   0.949   1.508   0.335  1.7742 -0.0814  2.1895
  226SOL    HW2  678   0.907   1.652   0.267 -0.2209 -0.7350  0.6231
  227SOL     OW  679   0.772   1.528   0.861  0.2135  0.1469  0.0214
  227SOL    HW1  680   0.736   1.623   0.878 -0.5903 -0.0427 -1.3698
  227SOL    HW2  681   0.806   1.492   0.946 -0.5871 -1.2911 -2.9208
  228SOL     OW  682   0.284   1.826   0.640  0.3623 -0.1865  0.7341
  228SOL    HW1  683   0.294   1.727   0.658 -1.3412  0.1013  1.4083
  228SOL    HW2  684   0.310   1.861   0.548 -1.2415  1.8695 -1.1066
  229SOL     OW  685   2.440   0.172   2.733 -0.2848 -0.1959 -0.0143
  229SOL    HW1  686   2.364   0.233   2.705 -2.2740 -1.3339 -0.0434
  229SOL    HW2  687   2.404   0.093   2.789  1.2786 -0.7880  3.9603
  230SOL     OW  688   1.808   1.199   0.611 -0.0219 -0.8834 -0.2546
  230SOL    HW1  689   1.773   1.268   0.679 -0.7135  2.9654  2.0506
  230SOL    HW2  690   1.735   1.182   0.540 -0.6314  1.6290 -0.9449
  231SOL     OW  691   1.257   1.468   2.513 -0.1184  0.4841 -0.3315
  231SOL    HW1  692   1.335   1.507   2.563 -0.5120  1.5144  0.0258
  231SOL    HW2  693   1.286   1.374   2.479  0.5195  0.4509  0.1379
  232SOL     OW  694   2.557   2.423   0.626  0.0735 -0.2223  0.1228
  232SOL    HW1  695   2.608   2.339   0.666  0.6620  1.0211 -0.3492
  232SOL    HW2  696   2.462   2.435   0.670 -2.1512  0.2234 -1.2734
  233SOL     OW  697   0.532   2.375   0.833  0.1630 -0.6152  0.7303
  233SOL    HW1  698   0.614   2.400   0.787 -0.6378  0.7972  0.4422
  233SOL    HW2  699   0.452   2.429   0.799 -3.2699  1.2394  2.7335
  234SOL     OW  700   0.565   0.593   2.728 -0.0207  0.2776 -0.0073
  234SOL    HW1  701   0.520   0.672   2.675 -0.5272  1.8319 -2.4482
  234SOL    HW2  702   0.554   0.601   2.831  1.0598  1.3080  0.2998
  235SOL     OW  703   2.697   0.758   2.457 -0.2681  0.1901  0.9503
  235SOL    HW1  704   2.726   0.692   2.528  1.3707 -1.7623 -0.2354
  235SOL    HW2  705   2.783   0.814   2.441  2.1517 -2.9008  1.2510
  236SOL     OW  706   1.617   2.848   1.491  0.2946  0.3117 -0.2829
  236SOL    HW1  707   1.559   2.797   1.424  1.0401 -0.7295 -0.3442
  236SOL    HW2  708   1.660   2.776   1.551  0.0159 -1.2207 -0.7512
  237SOL     OW  709   0.903   1.512   2.270 -0.4449 -0.9282  0.8214
  237SOL    HW1  710   0.828   1.578   2.281 -1.6976 -0.3425 -2.6854
  237SOL    HW2  711   0.937   1.499   2.365  0.9873  1.9874  1.0725
  238SOL     OW  712   1.068   0.191   2.214 -0.0900 -0.4214 -0.1249
  238SOL    HW1  713   1.097   0.207   2.309  0.4243 -2.6618 -1.0008
  238SOL    HW2  714   0.990   0.122   2.201  0.0061  3.5477 -0.7473
  239SOL     OW  715   0.366   2.267   2.129  0.5501 -0.5059 -0.2863
  239SOL    HW1  716   0.466   2.270   2.110  1.0631 -0.8782 -1.6418
  239SOL    HW2  717   0.311   2.316   2.060 -1.6218  0.0196 -1.1506
  240SOL     OW  718   2.642   2.787   0.515  0.1988  0.1923 -0.0847
  240SOL    HW1  719   2.613   2.708   0.456 -0.1879  4.2434 -0.6139
  240SOL    HW2  720   2.744   2.785   0.528 -2.4054  0.8332  1.1754
  241SOL     OW  721   2.602   1.341   0.800 -0.3469  0.1428 -0.1712
  241SOL    HW1  722   2.549   1.377   0.720  1.0998 -0.3066 -1.7935
  241SOL    HW2  723   2.553   1.372   0.886  0.0383  0.7090 -0.3088
  242SOL     OW  724   1.986   2.493   1.910 -0.3343 -0.4684 -0.1314
  242SOL    HW1  725   2.072   2.488   1.854  1.6006 -2.4200  2.4146
  242SOL    HW2  726   1.958   2.587   1.934  1.1248 -0.7713 -2.6471
  243SOL     OW  727   0.732   2.605   1.795  0.2258 -0.6654 -0.3133
  243SOL    HW1  728   0.680   2.546   1.861  0.0015 -0.0475 -0.9676
  243SOL    HW2  729   0.830   2.610   1.823 -2.5048  1.1649 -3.0838
  244SOL     OW  730   2.118   0.570   2.669 -0.0861  0.2281  0.8053
  244SOL    HW1  731   2.027   0.566   2.624 -1.1271 -1.4887  0.5903
  244SOL    HW2  732   2.162   0.477   2.671  0.6926 -2.7280 -0.3819
  245SOL     OW  733   1.409   0.549   1.038  0.3138 -0.1563  0.1265
  245SOL    HW1  734   1.434   0.576   0.943 -1.5712 -0.0337  0.7754
  245SOL    HW2  735   1.315   0.549   1.064  3.0334 -0.6035 -2.5476
  246SOL     OW  736   1.910   2.600   3.026 -0.5230  0.1496  0.6761
  246SOL    HW1  737   1.981   2.636   2.961 -1.5207  1.6587  0.5468
  246SOL    HW2  738   1.823   2.576   2.972  0.5123  1.2909  1.2046
  247SOL     OW  739   1.189   0.794   2.581  0.3650  0.7061  0.3618
  247SOL    HW1  740   1.235   0.754   2.660 -0.1455  1.7578  1.4257
  247SOL    HW2  741   1.184   0.894   2.580 -1.8306  0.0239 -0.4356
  248SOL     OW  742   0.249   2.179   1.721  0.1888 -0.1268  0.7068
  248SOL    HW1  743   0.264   2.270   1.761 -0.0165  0.2731 -1.1314
  248SOL    HW2  744   0.320   2.110   1.738  1.3619  2.8736 -2.1998
  249SOL     OW  745   2.567   0.534   0.217  0.8438  0.6545  0.4414
  249SOL    HW1  746   2.557   0.564   0.119 -2.6541 -0.0308  1.6229
  249SOL    HW2  747   2.559   0.438   0.229  0.1069  1.2922 -3.9758
  250SOL     OW  748   2.778   2.989   2.679 -0.2027 -0.4783  0.2174
  250SOL    HW1  749   2.858   2.943   2.715 -0.4566  0.4860 -0.6489
  250SOL    HW2  750   2.741   2.948   2.595 -1.1839  0.6115 -0.8959
  251SOL     OW  751   1.449   0.660   2.995 -0.2637  0.1264  0.0751
  251SOL    HW1  752   1.440   0.729   3.069 -0.0696 -0.8552 -0.4246
  251SOL    HW2  753   1.540   0.614   2.995  2.1122  0.2569  0.8154
  252SOL     OW  754   1.305   2.100   1.949  0.3416  0.1635  0.1316
  252SOL    HW1  755   1.251   2.172   1.897  0.2683  0.1078 -0.2749
  252SOL    HW2  756   1.327   2.131   2.045 -0.4743 -2.6021  2.6542
  253SOL     OW  757   2.327   2.507   0.956  0.0046 -0.1639 -0.5847
  253SOL    HW1  758   2.360   2.594   1.006  1.5738  2.1697  1.4156
  253SOL    HW2  759   2.412   2.455   0.936  0.9655 -0.7341 -1.0047
  254SOL     OW  760   2.235   1.327   0.740  0.1616 -0.2692  0.0856
  254SOL    HW1  761   2.192   1.291   0.652 -1.1209 -0.9649  0.4997
  254SOL    HW2  762   2.188   1.305   0.827  2.6413  0.1782 -3.4000
  255SOL     OW  763   1.420   0.093   1.206  0.5073  0.4508 -0.5658
  255SOL    HW1  764   1.383   0.049   1.126 -0.2102  0.0203 -0.4251
  255SOL    HW2  765   1.421   0.029   1.292 -1.1654 -2.2714  2.6425
  256SOL     OW  766   1.892   2.373   1.503 -0.2736 -0.1574  0.1281
  256SOL    HW1  767   1.872   2.333   1.591 -0.8317 -0.5347  0.3066
  256SOL    HW2  768   1.818   2.352   1.440  2.6807  1.8977  1.7698
  257SOL     OW  769   0.641   2.732   2.574 -0.4921 -0.1778 -0.1670
  257SOL    HW1  770   0.729   2.745   2.519 -0.5875  2.5529 -0.6266
  257SOL    HW2  771   0.639   2.816   2.631  0.9059  1.6854 -1.8518
  258SOL     OW  772   0.878   2.617   0.495 -0.5116  0.3365  0.5568
  258SOL    HW1  773   0.878   2.672   0.412  0.7291 -1.3327  1.0136
  258SOL    HW2  774   0.975   2.576   0.504  1.4413 -0.9385 -0.5126
  259SOL     OW  775   1.515   0.238   2.709  0.3480  0.6436  0.2558
  259SOL    HW1  776   1.549   0.195   2.792 -0.1394 -0.2834 -4.2703
  259SOL    HW2  777   1.484   0.331   2.733  0.0351  0.6601  0.8185
  260SOL     OW  778   2.488   0.529   1.395 -0.3382  0.3800 -0.2312
  260SOL    HW1  779   2.551   0.453   1.373 -2.5820 -0.9103  0.1577
  260SOL    HW2  780   2.405   0.500   1.447  2.2808  2.7826  1.0581
  261SOL     OW  781   0.814   0.535   2.675 -0.0638 -0.1099 -0.3421
  261SOL    HW1  782   0.725   0.583   2.691  0.1743 -1.8860  0.9644
  261SOL    HW2  783   0.825   0.512   2.579 -0.4561  0.8719  3.8495
  262SOL     OW  784   1.419   2.421   2.319 -0.1129  0.1996  0.3407
  262SOL    HW1  785   1.340   2.463   2.262 -1.8134 -0.2702  0.2707
  262SOL    HW2  786   1.508   2.458   2.292 -0.1843  0.3551 -1.0529
  263SOL     OW  787   0.525   1.952   2.782 -0.2199  0.4870  0.4984
  263SOL    HW1  788   0.549   2.045   2.818  3.5932  0.7803  1.1581
  263SOL    HW2  789   0.435   1.950   2.734  2.1806 -1.2448  0.1033
  264SOL     OW  790   1.141   1.586   0.797  0.5152 -0.0595 -0.0337
  264SOL    HW1  791   1.088   1.628   0.721 -0.5665 -1.1514 -1.6636
  264SOL    HW2  792   1.239   1.615   0.793  0.2457  0.7633 -0.1255
  265SOL     OW  793   1.167   2.544   0.607 -0.2832 -0.2117  0.3267
  265SOL    HW1  794   1.177   2.452   0.567 -1.3329  2.0658 -0.9890
  265SOL    HW2  795   1.255   2.571   0.651 -1.7143 -0.8641 -2.2637
  266SOL     OW  796   1.881   0.830   1.021 -0.1059 -0.1016 -0.2145
  266SOL    HW1  797   1.921   0.800   1.115 -1.0296  2.5958 -1.3725
  266SOL    HW2  798   1.936   0.904   0.982  3.4821  1.1481  3.5978
  267SOL     OW  799   2.973   1.421   2.752 -0.1965 -0.4216 -0.1349
  267SOL    HW1  800   3.060   1.386   2.710  1.2019 -0.2485 -1.1839
  267SOL    HW2  801   2.906   1.349   2.764 -1.8412  0.7998 -0.3124
  268SOL     OW  802   1.571   3.082   0.223  0.3824 -0.4809 -0.4871
  268SOL    HW1  803   1.650   3.025   0.240 -3.0828  1.4508  2.1749
  268SOL    HW2  804   1.565   0.036   0.307  2.2912  1.0216 -1.0379
  269SOL     OW  805   2.862   0.689   2.810  0.7169  0.4805 -0.1639
  269SOL    HW1  806   2.847   0.605   2.749 -1.3486 -2.2558 -0.4992
  269SOL    HW2  807   2.936   0.748   2.774 -3.5511 -4.2753 -0.3641
  270SOL     OW  808   0.026   1.483   0.059 -0.6507 -0.5689  0.0260
  270SOL    HW1  809   0.022   1.421   0.141 -0.3293  0.0420  0.5344
  270SOL    HW2  810   0.111   1.456   0.004  2.0842 -1.8735 -3.1011
  271SOL     OW  811   2.641   1.192   2.558 -0.0991  0.0653  0.0229
  271SOL    HW1  812   2.588   1.277   2.538 -0.6390 -1.0261  1.1630
  271SOL    HW2  813   2.583   1.105   2.546  0.5381 -1.6969 -0.0115
  272SOL     OW  814   2.777   2.406   2.381  0.5083 -0.3100  1.1569
  272SOL    HW1  815   2.876   2.410   2.383 -0.7796 -3.2391 -2.1894
  272SOL    HW2  816   2.744   2.360   2.296 -1.0311  1.1915 -0.3463
  273SOL     OW  817   0.226   2.696   0.708 -0.0050 -0.4740  0.0056
  273SOL    HW1  818   0.229   2.797   0.712 -2.7848 -1.1763 -1.6995
  273SOL    HW2  819   0.202   2.670   0.614 -0.7493 -0.1348 -0.6647
  274SOL     OW  820   0.976   2.265   0.718 -0.5573  0.1696  0.1533
  274SOL    HW1  821   1.064   2.265   0.664 -2.7489  0.4440 -1.4178
  274SOL    HW2  822   0.995   2.269   0.819  0.2711 -0.0753 -2.0895
  275SOL     OW  823   2.411   1.563   0.369  0.1345 -0.2896 -0.6352
  275SOL    HW1  824   2.333   1.509   0.346  5.2738  3.4524  1.6225
  275SOL    HW2  825   2.495   1.504   0.360  0.8646 -0.5783  0.0204
  276SOL     OW  826   2.636   1.563   1.183 -0.6356 -0.4761 -0.0627
  276SOL    HW1  827   2.715   1.515   1.235 -0.2957 -1.3739 -0.3499
  276SOL    HW2  828   2.663   1.664   1.169 -0.3992  0.2284  0.9606
  277SOL     OW  829   2.432   3.054   0.793  0.1392 -0.4454  0.7491
  277SOL    HW1  830   2.446   2.955   0.804 -0.7879  0.1568  0.3586
  277SOL    HW2  831   2.513   3.100   0.828 -1.8974  2.8565 -1.8895
  278SOL     OW  832   1.436   0.268   2.442  0.3137 -0.1301 -0.1382
  278SOL    HW1  833   1.345   0.316   2.446 -2.6655  3.3092  1.7429
  278SOL    HW2  834   1.483   0.263   2.531  1.1174 -1.3601 -0.7706
  279SOL     OW  835   1.485   2.706   1.292 -0.0288 -0.1642  0.2491
  279SOL    HW1  836   1.560   2.744   1.237 -0.9869 -1.4123  2.7371
  279SOL    HW2  837   1.445   2.627   1.244 -2.7395  0.6426  2.0080
  280SOL     OW  838   0.914   0.972   0.647 -0.1114  0.4989 -0.5509
  280SOL    HW1  839   0.846   1.045   0.611 -0.1803  1.3851  3.1973
  280SOL    HW2  840   1.005   1.024   0.652  1.4771  4.4259 -2.3299
  281SOL     OW  841   2.475   1.426   2.597 -0.4097  0.3600 -0.0702
  281SOL    HW1  842   2.478   1.529   2.605  1.2130 -0.9323  0.4686
  281SOL    HW2  843   2.384   1.393   2.636  0.0158  1.0006  1.1122
  282SOL     OW  844   0.020   1.335   0.290 -0.3123  0.1554  0.2454
  282SOL    HW1  845   3.034   1.295   0.320  0.5237  0.5178  2.1865
  282SOL    HW2  846   0.072   1.377   0.363 -0.0208 -1.0405 -0.7146
  283SOL     OW  847   1.796   2.807   2.598  0.1401  0.4269  0.1703
  283SOL    HW1  848   1.787   2.785   2.498 -0.3862  1.9555 -0.4652
  283SOL    HW2  849   1.788   2.720   2.656 -4.0909  0.1176  0.7730
  284SOL     OW  850   0.590   3.077   0.015  0.1499 -0.4576 -0.1289
  284SOL    HW1  851   0.520   0.029   0.070 -1.8103  1.1527  0.3130
  284SOL    HW2  852   0.537   3.000   3.075 -1.8889 -2.9273 -3.4050
  285SOL     OW  853   2.174   1.626   2.448 -0.1272  0.0415 -0.2889
  285SOL    HW1  854   2.201   1.654   2.544  1.7961  1.7469  1.9773
  285SOL    HW2  855   2.172   1.707   2.390 -0.6724 -3.1775 -1.9884
  286SOL     OW  856   1.267   2.131   0.823 -0.0840 -0.0684 -0.3141
  286SOL    HW1  857   1.178   2.155   0.866  0.4553 -0.2166 -1.8136
  286SOL    HW2  858   1.345   2.168   0.880  0.6273 -0.6346  1.0468
  287SOL     OW  859   1.710   0.391   1.127  0.3595  0.5576  0.2614
  287SOL    HW1  860   1.647   0.452   1.168  4.3550 -3.1784 -1.5104
  287SOL    HW2  861   1.802   0.393   1.171 -0.4990  0.5293  0.8192
  288SOL     OW  862   0.876   2.780   2.426 -0.5807  0.5055 -0.0829
  288SOL    HW1  863   0.973   2.767   2.431 -0.3437  0.5140  0.4321
  288SOL    HW2  864   0.840   2.745   2.337  0.3405 -1.7118  0.3166
  289SOL     OW  865   0.002   1.161   0.765 -1.0010 -0.5784 -0.2131
  289SOL    HW1  866   0.016   1.252   0.730  1.5378 -1.8901  0.9005
  289SOL    HW2  867   3.026   1.113   0.730  0.4726  0.0793  0.3507
  290SOL     OW  868   1.275   2.274   1.156  0.2114 -0.0765 -0.3054
  290SOL    HW1  869   1.318   2.270   1.066 -0.4308  1.6182  3.7143
  290SOL    HW2  870   1.228   2.186   1.168 -0.1870  0.5747 -2.8189
  291SOL     OW  871   1.846   2.933   0.575 -0.1908 -0.2112 -0.1741
  291SOL    HW1  872   1.834   3.009   0.642 -0.5075  0.4159  0.1064
  291SOL    HW2  873   1.818   2.843   0.620 -0.6650 -1.7369  0.1908
  292SOL     OW  874   0.417   0.128   2.070  1.0506  0.5650  0.2650
  292SOL    HW1  875   0.393   0.115   2.172  0.6944 -1.6923  2.1726
  292SOL    HW2  876   0.386   0.046   2.014  0.4488 -2.4352 -1.9495
  293SOL     OW  877   2.379   1.889   0.916  0.4397 -0.3064 -0.2381
  293SOL    HW1  878   2.355   1.798   0.959  0.7726  0.9648  1.2761
  293SOL    HW2  879   2.384   1.976   0.975  0.5136 -1.6913  1.2526
  294SOL     OW  880   0.846   0.040   2.181  0.3642 -0.0658 -0.0664
  294SOL    HW1  881   0.800   3.097   2.253 -1.0432  2.1923  1.6058
  294SOL    HW2  882   0.805   0.021   2.088  0.1585  2.0153 -0.4739
  295SOL     OW  883   1.271   1.422   1.165  0.5834 -0.0567 -0.0532
  295SOL    HW1  884   1.364   1.393   1.138 -1.0543 -0.0740 -0.1262
  295SOL    HW2  885   1.197   1.359   1.127 -1.8991  0.2333 -2.1457
  296SOL     OW  886   2.169   1.936   0.740 -0.0100  0.1034  0.0062
  296SOL    HW1  887   2.237   1.936   0.810 -0.2121  3.0054 -1.0143
  296SOL    HW2  888   2.164   2.034   0.709  1.2998  0.6656 -0.3982
  297SOL     OW  889   2.342   3.079   2.896  0.6672 -0.3723  0.3325
  297SOL    HW1  890   2.442   3.050   2.903 -0.6790  0.8693 -0.7782
  297SOL    HW2  891   2.317   0.021   2.980 -1.9739 -0.2919  0.2854
  298SOL     OW  892   1.112   0.192   2.495 -0.0008 -0.2444  0.0266
  298SOL    HW1  893   1.057   0.164   2.573  0.7475  2.6428 -0.8217
  298SOL    HW2  894   1.164   0.113   2.461  2.7606 -0.8831  0.8846
  299SOL     OW  895   1.202   2.821   1.985 -0.0594  0.5805 -0.2173
  299SOL    HW1  896   1.157   2.862   1.903 -1.1484 -0.7302  1.7681
  299SOL    HW2  897   1.197   2.889   2.060  0.4460  1.5129 -1.5587
  300SOL     OW  898   2.641   0.127   1.846 -0.4737 -0.0775  0.5752
  300SOL    HW1  899   2.693   0.172   1.920 -0.2125 -1.6921 -0.8971
  300SOL    HW2  900   2.656   0.184   1.764 -0.3470  0.9478 -0.4819
  301SOL     OW  901   2.097   0.502   2.009  0.2964 -0.4546  0.1667
  301SOL    HW1  902   2.186   0.499   2.059 -0.7772 -0.7065 -0.3406
  301SOL    HW2  903   2.049   0.413   2.003 -3.4204  2.0379 -0.6793
  302SOL     OW  904   0.353   2.461   2.979 -0.0942 -0.5271  0.1427
  302SOL    HW1  905   0.336   2.391   2.911  0.6372  1.3626  2.0643
  302SOL    HW2  906   0.265   2.516   2.985 -2.7540  1.1277  0.7740
  303SOL     OW  907   1.810   1.990   1.485  0.2294 -0.0715 -0.1973
  303SOL    HW1  908   1.711   1.988   1.450 -2.1839 -0.5221 -0.8156
  303SOL    HW2  909   1.809   2.030   1.576  3.0654 -1.0127 -0.5685
  304SOL     OW  910   3.078   0.662   1.159 -0.3963  0.7968 -0.0146
  304SOL    HW1  911   2.988   0.675   1.205 -0.2650  0.0493 -1.8997
  304SOL    HW2  912   3.071   0.696   1.065  2.0664 -0.7688  2.6086
  305SOL     OW  913   0.652   0.903   0.698  0.4417 -0.1047  0.2168
  305SOL    HW1  914   0.627   0.883   0.792  2.1396  0.9505 -1.9712
  305SOL    HW2  915   0.756   0.909   0.682  0.4969 -1.7886 -0.8042
  306SOL     OW  916   0.370   1.048   2.936 -0.1257  0.3891 -0.2999
  306SOL    HW1  917   0.467   1.043   2.889  3.0100 -0.7495  1.1233
  306SOL    HW2  918   0.326   0.954   2.933 -0.8966 -1.0248  2.2637
  307SOL     OW  919   1.316   0.201   1.613 -0.0929 -0.4116 -0.1954
  307SOL    HW1  920   1.284   0.281   1.671 -0.2954  1.6946 -0.7282
  307SOL    HW2  921   1.346   0.120   1.668  1.9092 -0.9394  0.8517
  308SOL     OW  922   0.558   0.804   0.962  0.0469 -0.0292 -0.3649
  308SOL    HW1  923   0.464   0.775   0.939  0.4749 -0.6902 -1.0572
  308SOL    HW2  924   0.560   0.844   1.057  1.6005  1.7396  1.4079
  309SOL     OW  925   2.348   0.889   0.802 -0.3632 -0.7957  1.0969
  309SOL    HW1  926   2.263   0.852   0.758 -1.3132 -1.4674  0.2312
  309SOL    HW2  927   2.399   0.964   0.751  2.2933 -0.9260 -0.5622
  310SOL     OW  928   0.777   1.313   2.900 -0.4416 -0.0610 -0.2555
  310SOL    HW1  929   0.864   1.265   2.865  1.6547 -1.8544  2.3565
  310SOL    HW2  930   0.751   1.281   2.993 -0.8111  2.3702  0.5485
  311SOL     OW  931   2.398   2.665   2.196 -0.1594 -0.5119  0.1311
  311SOL    HW1  932   2.419   2.759   2.156 -1.4189  2.6814 -1.4582
  311SOL    HW2  933   2.336   2.672   2.278 -3.1648  1.1880 -1.0096
  312SOL     OW  934   2.073   2.067   0.050  0.2943 -0.3067 -0.3792
  312SOL    HW1  935   2.139   2.058   3.078 -0.6241 -2.6765  0.0052
  312SOL    HW2  936   2.046   2.163   0.065 -0.6931 -0.6943  1.5293
  313SOL     OW  937   0.347   0.043   0.107 -0.7118 -0.3091  0.1395
  313SOL    HW1  938   0.289   0.094   0.170  2.9893 -1.9259 -2.2558
  313SOL    HW2  939   0.335   0.079   0.012 -0.1725 -1.0266 -2.0265
  314SOL     OW  940   2.561   1.289   2.843  0.2092 -0.0367 -0.3299
  314SOL    HW1  941   2.527   1.351   2.915 -1.6084 -1.8569 -0.7738
  314SOL    HW2  942   2.617   1.335   2.770  3.5359 -1.2408 -0.6554
  315SOL     OW  943   1.650   0.550   2.249 -0.2580  0.0930  0.7687
  315SOL    HW1  944   1.552   0.531   2.277  3.3446  0.9146 -0.1814
  315SOL    HW2  945   1.693   0.622   2.306  1.6492  0.3473 -1.5058
  316SOL     OW  946   2.925   0.981   0.640 -0.1020 -0.0575 -0.3881
  316SOL    HW1  947   2.871   0.958   0.726 -1.6341  1.6048 -0.0921
  316SOL    HW2  948   2.908   0.913   0.573  3.8232  2.7934 -1.1359
  317SOL     OW  949   0.822   2.939   0.068 -0.6274 -0.0323 -0.1160
  317SOL    HW1  950   0.879   2.936   3.088  2.2633 -0.3481  1.0147
  317SOL    HW2  951   0.736   2.989   0.048  0.1796 -1.6075  0.5959
  318SOL     OW  952   2.367   2.706   1.162 -0.4526  0.1717 -0.3063
  318SOL    HW1  953   2.307   2.717   1.243 -0.7781  0.3277  0.7830
  318SOL    HW2  954   2.459   2.673   1.194  1.4786  1.4292  3.0537
  319SOL     OW  955   1.098   1.469   2.952 -0.0573 -0.0940 -0.7173
  319SOL    HW1  956   1.085   1.370   2.944  0.9001  0.9412 -1.4404
  319SOL    HW2  957   1.011   1.515   2.934  0.3867  0.9801  2.8313
  320SOL     OW  958   0.626   1.763   0.940  0.2930  0.3983  0.4037
  320SOL    HW1  959   0.532   1.769   0.903  2.2102  0.4226 -0.3610
  320SOL    HW2  960   0.676   1.852   0.934 -3.0853  3.3545  1.3981
  321SOL     OW  961   1.931   2.755   1.941  0.0943 -0.2390 -0.5084
  321SOL    HW1  962   2.026   2.788   1.942 -0.0684 -0.2256  0.8607
  321SOL    HW2  963   1.869   2.818   1.992 -0.7152 -1.8238  0.0091
  322SOL     OW  964   2.394   2.031   2.407 -0.0838  0.2441  0.4707
  322SOL    HW1  965   2.381   2.130   2.420 -0.9686 -1.6730  1.9060
  322SOL    HW2  966   2.489   2.010   2.368 -1.8699  1.6723  0.7936
  323SOL     OW  967   2.318   0.190   0.636 -0.3124  0.2793  0.0413
  323SOL    HW1  968   2.341   0.110   0.689  0.4121 -0.9301  0.0672
  323SOL    HW2  969   2.390   0.213   0.563  2.3392  1.7022 -1.0875
  324SOL     OW  970   2.919   2.690   2.358 -0.4230  0.0230 -0.5890
  324SOL    HW1  971   3.001   2.674   2.417 -3.4260  0.2101  0.4974
  324SOL    HW2  972   2.853   2.617   2.377  0.3705  3.2933 -1.1403
  325SOL     OW  973   1.019   0.626   2.872  0.1506 -0.0726 -0.2249
  325SOL    HW1  974   1.091   0.559   2.842  1.2031  2.6012  0.7280
  325SOL    HW2  975   0.934   0.621   2.819  0.8938  1.0853  0.1736
  326SOL     OW  976   2.582   2.346   1.320  0.1830  0.6672 -0.5999
  326SOL    HW1  977   2.490   2.388   1.339 -0.7326  2.7563  1.1236
  326SOL    HW2  978   2.614   2.304   1.409 -0.6491 -1.9326 -1.7056
  327SOL     OW  979   2.358   2.996   0.170  0.0333 -0.4602  0.1691
  327SOL    HW1  980   2.297   3.025   0.247  2.0157  1.9519  1.4766
  327SOL    HW2  981   2.330   2.904   0.142  0.4124  2.0748  0.7633
  328SOL     OW  982   0.435   0.755   1.462  0.4320  0.1033 -0.0152
  328SOL    HW1  983   0.455   0.664   1.499 -0.2067  0.6563 -1.8755
  328SOL    HW2  984   0.355   0.752   1.397 -2.6667  2.9034  1.4195
  329SOL     OW  985   2.028   0.748   1.560  0.0044  0.5309 -0.3623
  329SOL    HW1  986   2.007   0.726   1.659 -2.1613 -0.5435  2.4419
  329SOL    HW2  987   2.075   0.674   1.510 -0.3987 -0.5188 -1.1187
  330SOL     OW  988   0.403   0.596   1.154 -0.1370  0.5248  0.6854
  330SOL    HW1  989   0.341   0.543   1.091  0.9333  0.8277 -2.2447
  330SOL    HW2  990   0.354   0.657   1.216 -1.3651 -3.0489 -1.3014
  331SOL     OW  991   0.626   1.365   1.890  0.1997  0.1969 -0.8818
  331SOL    HW1  992   0.723   1.397   1.915 -1.8333  0.6601  2.1508
  331SOL    HW2  993   0.596   1.419   1.809 -1.0249 -2.6799  2.5171
  332SOL     OW  994   0.069   2.494   1.676 -0.1868 -0.2828  0.1754
  332SOL    HW1  995   0.045   2.558   1.755 -0.4963 -1.9795  2.7303
  332SOL    HW2  996   3.092   2.458   1.630  1.8876  3.7072 -1.4752
  333SOL     OW  997   2.947   2.801   0.951  0.0007  0.9270 -1.5079
  333SOL    HW1  998   3.013   2.851   0.900 -1.7483 -0.2212  0.3403
  333SOL    HW2  999   2.992   2.727   1.011 -2.2928  1.7943  1.9641
  334SOL     OW 1000   0.298   1.226   0.540 -0.6406 -0.2499 -0.0230
  334SOL    HW1 1001   0.297   1.193   0.634  1.2006 -1.4564 -1.2304
  334SOL    HW2 1002   0.232   1.306   0.529  0.6541  2.1296 -1.8649
  335SOL     OW 1003   0.540   2.661   3.011 -0.1081 -0.0324  0.3458
  335SOL    HW1 1004   0.470   2.590   2.999 -1.9135 -1.3773 -0.5528
  335SOL    HW2 1005   0.616   2.628   3.071  0.3789 -0.9886  0.3627
  336SOL     OW 1006   3.003   2.684   2.093 -0.0077  0.3909  0.3229
  336SOL    HW1 1007   2.991   2.676   2.196 -1.3804  0.2797  0.4580
  336SOL    HW2 1008   2.917   2.651   2.044  0.7028 -0.1345 -0.6072
  337SOL     OW 1009   1.475   2.033   1.725  0.5639  1.1542  0.1296
  337SOL    HW1 1010   1.438   2.070   1.643 -0.9068 -0.9180  0.2609
  337SOL    HW2 1011   1.408   2.045   1.802  1.0121  0.5972  2.0165
  338SOL     OW 1012   0.840   0.266   2.817 -0.4311 -0.2781 -0.0707
  338SOL    HW1 1013   0.838   0.361   2.788  1.5480  0.1004  1.2191
  338SOL    HW2 1014   0.901   0.203   2.761  2.4078 -1.0360  0.1564
  339SOL     OW 1015   0.504   0.902   2.231 -0.3108  0.1662 -0.6655
  339SOL    HW1 1016   0.515   0.886   2.129  2.6031  2.6319 -1.4655
  339SOL    HW2 1017   0.585   0.960   2.261  1.8178  0.0534 -0.8194
  340SOL     OW 1018   2.153   0.494   0.909 -0.4698  0.2102  0.2930
  340SOL    HW1 1019   2.129   0.398   0.941 -0.7983 -0.1849 -1.6383
  340SOL    HW2 1020   2.068   0.548   0.886  1.5348  1.0270  1.0020
  341SOL     OW 1021   2.108   1.178   0.964 -0.1072 -0.0633 -0.1162
  341SOL    HW1 1022   2.041   1.224   1.030 -0.4590  0.5031  0.4645
  341SOL    HW2 1023   2.160   1.106   1.014  0.3063  0.4938  2.0056
  342SOL     OW 1024   2.088   2.545   2.813 -0.1512 -0.4032  0.3037
  342SOL    HW1 1025   2.179   2.507   2.843 -2.3815 -1.4502 -3.0029
  342SOL    HW2 1026   2.020   2.470   2.828 -0.9677 -1.7883 -0.0380
  343SOL     OW 1027   0.872   2.481   1.466  0.3322  0.5388 -0.3597
  343SOL    HW1 1028   0.926   2.558   1.430 -0.9418 -1.7190  3.9589
  343SOL    HW2 1029   0.774   2.486   1.438  0.3767 -0.2357 -0.8326
  344SOL     OW 1030   2.446   2.804   1.517  0.4210 -0.8399  0.1997
  344SOL    HW1 1031   2.495   2.810   1.602 -1.8617 -2.0630 -0.6215
  344SOL    HW2 1032   2.498   2.748   1.445 -1.2577 -1.9613 -1.3659
  345SOL     OW 1033   2.359   2.201   3.037  0.2648  1.1903  0.2582
  345SOL    HW1 1034   2.359   2.143   0.018  0.5974  0.1967 -0.1211
  345SOL    HW2 1035   2.333   2.147   2.948  0.6944 -2.6351 -1.8415
  346SOL     OW 1036   1.691   2.266   1.335 -0.4895  0.9120 -0.1079
  346SOL    HW1 1037   1.748   2.282   1.255 -0.0773 -0.5476 -1.5132
  346SOL    HW2 1038   1.650   2.174   1.349 -2.6962 -1.3639  3.2046
  347SOL     OW 1039   1.105   1.806   1.721  0.3657  0.1903 -0.1031
  347SOL    HW1 1040   1.079   1.873   1.655  2.6639  0.8190 -2.1223
  347SOL    HW2 1041   1.033   1.736   1.735  1.0340  0.7443 -0.9060
  348SOL     OW 1042   0.385   1.932   1.909 -0.2318 -0.4787  0.8880
  348SOL    HW1 1043   0.337   1.980   1.981  1.1267 -2.5921 -1.4749
  348SOL    HW2 1044   0.448   1.872   1.958  0.0123  2.6702  0.9176
  349SOL     OW 1045   1.738   1.602   1.340 -0.0586  0.4775 -0.5465
  349SOL    HW1 1046   1.703   1.543   1.414 -2.8066  0.5102  0.8619
  349SOL    HW2 1047   1.820   1.655   1.376  0.1089  0.1076 -1.0411
  350SOL     OW 1048   2.367   2.169   0.566  0.1281 -0.4000 -0.1799
  350SOL    HW1 1049   2.282   2.163   0.621  0.2483 -2.4734  0.6914
  350SOL    HW2 1050   2.397   2.263   0.538  0.0987 -1.8380 -1.1020
  351SOL     OW 1051   0.714   2.905   1.505  0.1737 -0.1745  0.0800
  351SOL    HW1 1052   0.732   2.873   1.596  0.2450 -1.4301 -3.9622
  351SOL    HW2 1053   0.784   2.975   1.474 -2.4552  0.7809  0.1807
  352SOL     OW 1054   0.277   1.121   0.787 -0.4263  0.5708 -0.2486
  352SOL    HW1 1055   0.306   1.024   0.800 -1.0559  1.2251 -0.0163
  352SOL    HW2 1056   0.177   1.132   0.800 -2.1764  0.3091  0.6037
  353SOL     OW 1057   1.183   1.688   2.344  0.2340 -0.1683 -0.0650
  353SOL    HW1 1058   1.209   1.616   2.417  0.0168 -2.8683  0.8136
  353SOL    HW2 1059   1.257   1.693   2.272  2.6988  0.4333 -1.8021
  354SOL     OW 1060   1.768   2.970   2.029  0.2328  0.0150  0.3095
  354SOL    HW1 1061   1.713   3.017   2.103  1.1141  1.3320  0.2367
  354SOL    HW2 1062   1.712   2.956   1.950  2.6586  3.2968  1.7650
  355SOL     OW 1063   2.220   1.286   0.062 -0.1722 -0.4636 -0.7183
  355SOL    HW1 1064   2.265   1.199   0.084  0.7626  3.1897 -2.5690
  355SOL    HW2 1065   2.170   1.266   3.077 -0.2642 -1.6922 -1.3077
  356SOL     OW 1066   2.841   1.454   1.295 -0.0192  0.3189  0.2696
  356SOL    HW1 1067   2.869   1.402   1.377  0.4052  2.5568 -0.0823
  356SOL    HW2 1068   2.906   1.442   1.219  1.1989  0.6854  1.7974
  357SOL     OW 1069   0.386   2.628   1.433 -0.5902  0.3068 -0.0040
  357SOL    HW1 1070   0.380   2.726   1.415 -0.8231 -2.4139  3.6128
  357SOL    HW2 1071   0.293   2.583   1.420 -0.2605 -0.6517 -1.2394
  358SOL     OW 1072   2.531   1.748   1.356 -0.1924 -0.6096 -0.1227
  358SOL    HW1 1073   2.467   1.743   1.434 -1.1373 -2.2883 -0.7571
  358SOL    HW2 1074   2.525   1.660   1.306 -3.2098 -0.3461 -1.8579
  359SOL     OW 1075   2.197   2.775   2.679 -0.2034  0.1106 -0.4946
  359SOL    HW1 1076   2.289   2.751   2.645 -2.8018  0.8721  1.8345
  359SOL    HW2 1077   2.149   2.687   2.708 -0.6870 -0.9324 -0.8678
  360SOL     OW 1078   1.302   3.077   0.995  0.2110 -0.3795  0.0261
  360SOL    HW1 1079   1.377   3.039   0.929  3.4451 -1.8718 -0.8112
  360SOL    HW2 1080   1.211   3.034   0.982  1.2589  1.3271 -0.7736
  361SOL     OW 1081   2.243   0.453   0.327  0.3775  0.4966  0.0474
  361SOL    HW1 1082   2.196   0.437   0.417 -1.4452  2.4000 -1.3374
  361SOL    HW2 1083   2.252   0.553   0.312 -1.0545 -0.7705 -0.0785
  362SOL     OW 1084   1.588   1.164   0.911  0.0777 -0.4759 -0.4663
  362SOL    HW1 1085   1.629   1.225   0.838  0.1229 -0.2283  0.4772
  362SOL    HW2 1086   1.556   1.216   0.998  0.5997  0.9456  1.6550
  363SOL     OW 1087   2.233   1.234   2.363 -0.6547  0.6348 -0.2367
  363SOL    HW1 1088   2.181   1.292   2.430 -0.0780  1.5311 -0.9976
  363SOL    HW2 1089   2.177   1.159   2.324  2.2045 -0.0411 -0.0396
  364SOL     OW 1090   0.287   0.256   1.237  0.2488 -0.2464  0.0622
  364SOL    HW1 1091   0.223   0.337   1.235 -0.0844  2.4441  2.6792
  364SOL    HW2 1092   0.226   0.175   1.232 -2.5894  2.3966 -0.4196
  365SOL     OW 1093   0.570   0.142   2.774 -0.1692  0.2517  0.0471
  365SOL    HW1 1094   0.576   0.039   2.757  2.3371 -1.4391 -0.4858
  365SOL    HW2 1095   0.646   0.161   2.835  0.7445  0.1559  0.5496
  366SOL     OW 1096   2.005   2.277   2.821  0.3696  0.0191 -0.7591
  366SOL    HW1 1097   1.913   2.272   2.864  0.7714  2.0507 -0.5388
  366SOL    HW2 1098   2.061   2.197   2.848 -1.2586  1.5451  1.1008
  367SOL     OW 1099   2.916   2.322   0.206  0.1576 -0.2949 -0.2177
  367SOL    HW1 1100   2.893   2.423   0.198 -1.6849 -0.0536 -0.5381
  367SOL    HW2 1101   2.942   2.312   0.305 -1.1418 -0.1684  0.4126
  368SOL     OW 1102   2.698   1.102   1.221  0.1288  0.4142  0.5413
  368SOL    HW1 1103   2.660   1.166   1.289 -1.1462  0.5265 -0.4537
  368SOL    HW2 1104   2.798   1.098   1.224 -1.9901 -0.9079 -0.3004
  369SOL     OW 1105   0.966   0.054   2.699  0.0981  0.6205 -0.4940
  369SOL    HW1 1106   0.882   3.105   2.675 -2.7926  1.8125  0.0519
  369SOL    HW2 1107   1.024   0.006   2.765 -2.3016  2.2227 -0.9759
  370SOL     OW 1108   2.797   0.249   0.552  0.2002 -0.5262 -0.3074
  370SOL    HW1 1109   2.768   0.340   0.597 -0.8113  3.3025  1.4294
  370SOL    HW2 1110   2.896   0.233   0.562 -0.7973 -1.4816  0.7963
  371SOL     OW 1111   1.484   2.239   0.922 -0.7890  0.1829  0.1146
  371SOL    HW1 1112   1.556   2.169   0.906 -1.2223  0.8581 -1.9743
  371SOL    HW2 1113   1.520   2.332   0.903  2.2718 -0.3348  0.9878
  372SOL     OW 1114   3.007   0.897   2.655  0.0281  0.2055 -0.5183
  372SOL    HW1 1115   3.025   0.871   2.558  0.5893 -0.8240  1.8751
  372SOL    HW2 1116   2.972   0.996   2.672  0.4686  2.5109  1.0140
  373SOL     OW 1117   2.854   1.584   0.883  0.6066  0.2666  0.3394
  373SOL    HW1 1118   2.822   1.680   0.850 -2.0729  1.0621 -0.7523
  373SOL    HW2 1119   2.786   1.508   0.900 -1.9256 -1.8917 -0.3212
  374SOL     OW 1120   0.491   2.967   2.717  0.0961  0.1377 -0.2567
  374SOL    HW1 1121   0.410   2.935   2.768  1.2810 -1.8577  1.9419
  374SOL    HW2 1122   0.567   2.952   2.779 -2.0134  1.9142 -0.8228
  375SOL     OW 1123   0.075   3.085   3.022 -0.2334 -0.2019 -0.0697
  375SOL    HW1 1124   0.171   3.105   2.990  0.3025  0.3981 -0.6528
  375SOL    HW2 1125   0.073   3.035   0.009 -1.5755 -0.0322 -0.2403
  376SOL     OW 1126   0.008   1.991   1.540  0.3446  0.0243  0.4214
  376SOL    HW1 1127   0.065   2.004   1.617 -1.8627  0.6742 -1.9347
  376SOL    HW2 1128   3.045   1.910   1.554  0.5095 -1.0213 -1.1246
  377SOL     OW 1129   1.689   2.197   2.382  0.4577 -0.4930  0.1390
  377SOL    HW1 1130   1.665   2.145   2.300  0.7201  1.7463 -3.0521
  377SOL    HW2 1131   1.722   2.291   2.365 -1.6188  0.2507  1.5912
  378SOL     OW 1132   0.484   0.336   2.612 -0.4802 -0.0388  0.6148
  378SOL    HW1 1133   0.519   0.426   2.646  1.1886 -2.5102 -0.7659
  378SOL    HW2 1134   0.528   0.261   2.660 -3.4751 -0.2343 -1.2192
  379SOL     OW 1135   0.389   0.601   0.392  0.4473 -0.2000 -0.1347
  379SOL    HW1 1136   0.444   0.643   0.465  0.6673 -0.9303 -2.0730
  379SOL    HW2 1137   0.447   0.525   0.352 -0.6133 -1.3414 -3.4522
  380SOL     OW 1138   0.287   1.812   1.702 -0.3899  0.3055  0.5521
  380SOL    HW1 1139   0.207   1.760   1.725  1.9755  0.2532 -0.8563
  380SOL    HW2 1140   0.331   1.857   1.780 -1.3254 -1.7238 -1.0080
  381SOL     OW 1141   0.294   0.936   1.885 -0.1299 -0.0782  0.2070
  381SOL    HW1 1142   0.199   0.894   1.896  0.8871 -1.2122  0.5035
  381SOL    HW2 1143   0.297   0.997   1.804 -1.4282  1.2541 -0.8178
  382SOL     OW 1144   2.323   2.004   0.381  0.6622  0.2068  0.5255
  382SOL    HW1 1145   2.218   2.004   0.377  1.3078  1.8378  1.5894
  382SOL    HW2 1146   2.358   2.069   0.454 -1.0497  0.9038  0.3936
  383SOL     OW 1147   0.265   1.942   2.685 -0.1281 -0.2036 -0.0753
  383SOL    HW1 1148   0.212   1.873   2.729 -1.6134  1.3825 -1.4147
  383SOL    HW2 1149   0.209   2.018   2.656  1.0434  0.3100 -0.2550
  384SOL     OW 1150   0.830   2.152   2.731 -0.3635  0.0461 -0.3378
  384SOL    HW1 1151   0.854   2.098   2.818 -0.0180  3.2601 -0.1502
  384SOL    HW2 1152   0.742   2.199   2.752  0.1575 -3.7654  0.4370
  385SOL     OW 1153   2.562   1.852   0.728  0.7551 -0.2344  0.3144
  385SOL    HW1 1154   2.532   1.855   0.828  4.0667 -2.7816  0.9243
  385SOL    HW2 1155   2.524   1.931   0.679  2.9499 -1.1698 -0.6101
  386SOL     OW 1156   2.242   1.369   1.603 -0.0842 -0.5686 -0.3212
  386SOL    HW1 1157   2.332   1.404   1.632  0.7851 -0.3756  2.1457
  386SOL    HW2 1158   2.175   1.390   1.676 -1.2701 -0.9332  1.5593
  387SOL     OW 1159   2.821   1.335   2.197 -0.2022 -0.4961  0.6636
  387SOL    HW1 1160   2.816   1.263   2.270  0.0312  0.6704  1.1562
  387SOL    HW2 1161   2.737   1.397   2.191 -0.1333 -1.2933 -1.4257
  388SOL     OW 1162   0.065   1.701   1.809  0.3062  0.3024 -0.0712
  388SOL    HW1 1163   0.108   1.656   1.890 -1.5031  3.2653  0.0597
  388SOL    HW2 1164   3.074   1.675   1.800  0.2441 -0.1749 -0.7150
  389SOL     OW 1165   1.789   1.015   1.818 -0.2370 -0.0608 -0.0253
  389SOL    HW1 1166   1.771   1.024   1.721 -1.5700  2.2123  1.1503
  389SOL    HW2 1167   1.781   1.107   1.866 -2.9337 -0.2650  2.6421
  390SOL     OW 1168   1.908   0.141   0.494  0.3450 -0.1617  0.3659
  390SOL    HW1 1169   1.886   0.088   0.574  0.1361  0.1211 -1.4497
  390SOL    HW2 1170   1.839   0.215   0.485 -1.3796 -0.1989  0.5027
  391SOL     OW 1171   2.024   1.810   1.222  0.1566 -0.0877 -0.0666
  391SOL    HW1 1172   2.109   1.854   1.253 -2.3424 -0.9527  1.4170
  391SOL    HW2 1173   1.976   1.772   1.304  1.6805  0.1150  1.3326
  392SOL     OW 1174   2.853   2.577   0.301  0.0686 -1.1995  0.3444
  392SOL    HW1 1175   2.913   2.617   0.373  1.2572  0.4931  0.8640
  392SOL    HW2 1176   2.764   2.558   0.347 -1.1642 -0.4254  3.9375
  393SOL     OW 1177   1.938   1.857   2.864  0.0793  0.1040 -0.0152
  393SOL    HW1 1178   1.924   1.759   2.898 -0.9954 -0.6737 -0.7126
  393SOL    HW2 1179   1.953   1.868   2.761 -1.1901  1.3946  1.6743
  394SOL     OW 1180   0.180   2.924   2.624 -0.5337 -0.3696 -0.0082
  394SOL    HW1 1181   0.119   2.978   2.679  0.2290 -2.2047  0.6304
  394SOL    HW2 1182   0.228   2.858   2.691  2.2518  2.2117  0.0020
  395SOL     OW 1183   0.371   0.366   0.736 -0.8248 -0.4873 -0.0578
  395SOL    HW1 1184   0.329   0.385   0.647  0.9098  0.8974  1.5402
  395SOL    HW2 1185   0.448   0.433   0.751 -1.9059  1.8534 -0.1239
  396SOL     OW 1186   1.561   0.925   0.460 -0.7358  0.4283 -0.4203
  396SOL    HW1 1187   1.631   0.848   0.459  1.0315 -2.0659  0.3265
  396SOL    HW2 1188   1.482   0.896   0.405  1.0916 -0.6159  2.4433
  397SOL     OW 1189   0.602   0.660   2.281 -0.3403 -0.1340 -0.6575
  397SOL    HW1 1190   0.525   0.593   2.258 -0.9329  1.0781 -0.0480
  397SOL    HW2 1191   0.562   0.754   2.292  0.1025  0.2374  0.2690
  398SOL     OW 1192   0.691   0.252   0.596  0.7261  0.0570 -0.2066
  398SOL    HW1 1193   0.717   0.279   0.696  0.0425  0.5116  2.7768
  398SOL    HW2 1194   0.730   0.321   0.535 -0.9369  2.4598 -0.8152
  399SOL     OW 1195   1.969   2.966   1.684 -0.1955  0.2978 -0.5128
  399SOL    HW1 1196   1.969   3.001   1.780  0.9678  0.2163  0.9134
  399SOL    HW2 1197   1.993   2.870   1.676  1.1226  0.1091  2.1914
  400SOL     OW 1198   0.799   1.715   2.060  0.0667  0.1982  0.1549
  400SOL    HW1 1199   0.895   1.747   2.063 -1.6787  1.2226  1.0033
  400SOL    HW2 1200   0.764   1.709   2.153 -0.6122 -1.3894 -3.3828
  401SOL     OW 1201   0.640   1.243   2.662 -0.5115  0.2990  0.8855
  401SOL    HW1 1202   0.664   1.278   2.754 -2.1142 -2.6344  0.8405
  401SOL    HW2 1203   0.612   1.144   2.675 -1.7703  3.2684 -1.4266
  402SOL     OW 1204   2.945   2.061   0.778  0.1005 -0.3280 -0.0068
  402SOL    HW1 1205   3.047   2.041   0.767  2.7084 -1.8476  0.7958
  402SOL    HW2 1206   2.901   1.969   0.766  0.0410  2.5453  0.8176
  403SOL     OW 1207   0.251   0.969   2.269  0.4514 -0.4717  0.0309
  403SOL    HW1 1208   0.178   0.924   2.210  1.5827 -0.1839  1.1011
  403SOL    HW2 1209   0.344   0.942   2.248 -0.4979 -3.4656  1.0151
  404SOL     OW 1210   0.218   2.399   1.929  0.5354 -0.4156 -0.3014
  404SOL    HW1 1211   0.165   2.403   1.842  2.4243  0.7239 -1.2644
  404SOL    HW2 1212   0.262   2.490   1.942 -1.2382 -0.8721 -1.2099
  405SOL     OW 1213   0.135   0.405   1.996 -0.1590 -0.3262 -0.0899
  405SOL    HW1 1214   0.224   0.371   1.957 -0.4750 -0.9732 -1.3932
  405SOL    HW2 1215   0.106   0.357   2.081  0.9501  0.0643 -0.9465
  406SOL     OW 1216   1.440   1.630   2.647 -0.3339  0.2406  0.6810
  406SOL    HW1 1217   1.406   1.712   2.590  0.1257  1.0332 -1.6351
  406SOL    HW2 1218   1.524   1.657   2.696 -3.8486  0.5276 -0.2524
  407SOL     OW 1219   1.375   1.224   2.414  0.1484 -0.5540 -0.3143
  407SOL    HW1 1220   1.324   1.158   2.351 -0.1163  0.2193 -1.0228
  407SOL    HW2 1221   1.472   1.227   2.391 -0.4761 -1.2297 -0.1809
  408SOL     OW 1222   0.766   3.026   2.579  0.5327 -0.1965 -0.0246
  408SOL    HW1 1223   0.697   3.053   2.512 -0.6828 -2.3625  3.4173
  408SOL    HW2 1224   0.831   2.960   2.543 -0.9457  3.4466  1.3924
  409SOL     OW 1225   0.098   2.034   0.683 -0.4408  0.1423 -0.1431
  409SOL    HW1 1226   0.066   2.083   0.600  0.2069 -0.4104  1.4283
  409SOL    HW2 1227   0.144   1.947   0.653 -2.0683  1.9097 -3.7537
  410SOL     OW 1228   2.638   1.405   0.333 -0.0094  0.1406  0.1102
  410SOL    HW1 1229   2.719   1.350   0.368  1.3106  0.7330  3.2959
  410SOL    HW2 1230   2.680   1.470   0.264  1.4606  1.6889  0.9851
  411SOL     OW 1231   0.113   0.055   1.238 -0.4077  0.7453 -0.3451
  411SOL    HW1 1232   0.114   3.103   1.324  0.3245  1.3880 -1.5654
  411SOL    HW2 1233   0.122   3.094   1.160  2.6663 -2.1028 -0.3067
  412SOL     OW 1234   1.710   0.698   1.452 -0.0494  0.1671  0.4342
  412SOL    HW1 1235   1.651   0.629   1.410 -0.1826 -0.2181  1.8325
  412SOL    HW2 1236   1.655   0.779   1.481  1.0161 -1.2674 -1.3798
  413SOL     OW 1237   0.683   3.087   1.949  0.1041  0.2122 -0.0408
  413SOL    HW1 1238   0.637   3.059   1.867  2.3423  1.5418  0.7005
  413SOL    HW2 1239   0.670   0.081   1.960 -2.2733 -5.4554 -3.6687
  414SOL     OW 1240   2.842   1.607   2.627  0.6918 -0.4178  0.0189
  414SOL    HW1 1241   2.881   1.533   2.685 -0.7241 -0.2851 -2.7880
  414SOL    HW2 1242   2.878   1.605   2.531  0.2114 -0.3727  1.8531
  415SOL     OW 1243   0.728   2.549   0.071  0.4473 -0.3510 -0.1852
  415SOL    HW1 1244   0.818   2.569   0.101 -5.6304 -1.8219 -1.1443
  415SOL    HW2 1245   0.662   2.589   0.134  0.4304 -0.3689 -1.6535
  416SOL     OW 1246   1.875   3.006   3.045  0.0534  0.0494 -0.3379
  416SOL    HW1 1247   1.894   3.039   0.037  1.1432  0.8232 -0.0959
  416SOL    HW2 1248   1.929   3.074   2.986  0.4644  5.7351 -0.1789
  417SOL     OW 1249   0.037   0.450   0.837 -0.1182 -0.3508  0.2806
  417SOL    HW1 1250   0.114   0.501   0.884  3.9597  1.1382 -0.6105
  417SOL    HW2 1251   0.050   0.350   0.833  0.7209  0.3537  1.5102
  418SOL     OW 1252   2.329   0.077   1.038 -0.5400 -0.4605 -0.3738
  418SOL    HW1 1253   2.251   0.143   1.041 -1.6137 -2.1369  1.3683
  418SOL    HW2 1254   2.322   0.020   0.955 -0.2269 -2.3099  2.3337
  419SOL     OW 1255   0.007   2.975   0.827 -1.0591 -0.2510 -0.1841
  419SOL    HW1 1256   3.024   2.982   0.781  1.1534  0.4711  0.8432
  419SOL    HW2 1257   0.085   2.997   0.772 -2.6715 -1.3985  2.0959
  420SOL     OW 1258   0.045   1.525   1.497  0.4249 -0.0126 -0.3999
  420SOL    HW1 1259   0.053   1.440   1.436  0.1282 -0.2247 -1.5230
  420SOL    HW2 1260   3.066   1.541   1.556  1.5308 -0.3219  0.7057
  421SOL     OW 1261   1.246   2.918   0.577 -0.2979  0.2716 -0.0288
  421SOL    HW1 1262   1.174   2.903   0.644  0.7011  1.8837 -0.9505
  421SOL    HW2 1263   1.215   2.873   0.483 -0.1599  0.3756 -1.2652
  422SOL     OW 1264   0.656   0.310   1.407  0.1880  0.1186  0.3933
  422SOL    HW1 1265   0.749   0.269   1.417 -1.5088  0.1975 -0.4179
  422SOL    HW2 1266   0.591   0.233   1.382 -0.1999 -1.6953 -0.6081
  423SOL     OW 1267   1.143   1.260   1.929 -0.2309 -0.6936 -0.3956
  423SOL    HW1 1268   1.151   1.321   2.010  2.9380 -0.1043  2.2859
  423SOL    HW2 1269   1.073   1.185   1.950 -1.0780 -3.1053 -0.9547
  424SOL     OW 1270   2.130   1.782   0.035  0.0707 -0.3783  0.1848
  424SOL    HW1 1271   2.143   1.882   0.054 -3.3478  0.6366 -1.3549
  424SOL    HW2 1272   2.133   1.739   0.131 -0.6572  1.8313  1.6487
  425SOL     OW 1273   0.108   0.204   2.183  0.7136  0.1509  0.2947
  425SOL    HW1 1274   0.030   0.139   2.210 -2.0093 -3.1615  0.2338
  425SOL    HW2 1275   0.195   0.163   2.217  1.0096 -1.8964 -0.3899
  426SOL     OW 1276   0.300   2.735   2.782  0.4200  0.2433 -0.6481
  426SOL    HW1 1277   0.240   2.701   2.858  0.7137 -4.0779  0.7945
  426SOL    HW2 1278   0.341   2.656   2.736  0.6882  4.3913 -0.9718
  427SOL     OW 1279   1.031   0.868   2.960 -0.0678  0.2764  0.1627
  427SOL    HW1 1280   1.127   0.900   2.960  0.3247 -1.0189 -0.5037
  427SOL    HW2 1281   1.019   0.770   2.921 -0.5718 -1.0695  1.5718
  428SOL     OW 1282   2.708   0.956   1.550  0.6120 -0.6573 -0.6825
  428SOL    HW1 1283   2.651   0.882   1.510 -2.8823  1.2387 -1.3257
  428SOL    HW2 1284   2.789   0.980   1.493  1.8992 -0.3326  2.5446
  429SOL     OW 1285   2.155   2.863   0.995 -0.3676  0.1571  0.3035
  429SOL    HW1 1286   2.229   2.800   1.033  1.6259 -1.2240  0.0209
  429SOL    HW2 1287   2.123   2.824   0.905  1.1822 -2.3385  0.0998
  430SOL     OW 1288   0.991   1.471   2.528 -0.5241  0.7261 -0.1965
  430SOL    HW1 1289   0.954   1.556   2.575 -2.2963  2.5146  1.9156
  430SOL    HW2 1290   1.090   1.468   2.523 -2.2380 -1.9752  0.0120
  431SOL     OW 1291   2.647   1.486   1.522  0.1810  0.3641  0.7286
  431SOL    HW1 1292   2.733   1.536   1.498  3.6414 -1.3590 -3.6645
  431SOL    HW2 1293   2.633   1.406   1.461 -1.5011 -0.8997  0.3365
  432SOL     OW 1294   0.902   2.387   2.502 -0.0290 -0.0017 -0.1023
  432SOL    HW1 1295   0.812   2.409   2.542 -2.1004 -1.5480 -0.9041
  432SOL    HW2 1296   0.962   2.348   2.578  0.7493  0.6510  2.5873
  433SOL     OW 1297   1.783   0.316   2.156  0.2786  0.5754  0.1602
  433SOL    HW1 1298   1.869   0.281   2.204  1.2916 -1.6214 -0.4096
  433SOL    HW2 1299   1.759   0.405   2.189 -0.0894  0.0562  0.7156
  434SOL     OW 1300   0.731   2.468   2.291  0.2669  0.5165 -0.8835
  434SOL    HW1 1301   0.725   2.568   2.271 -1.9613 -4.0871 -0.0011
  434SOL    HW2 1302   0.810   2.452   2.359  1.5537 -2.5216  0.3840
  435SOL     OW 1303   0.340   2.897   0.230  0.2199 -0.4055  0.3031
  435SOL    HW1 1304   0.356   2.989   0.192 -0.3703 -0.7207  2.2252
  435SOL    HW2 1305   0.380   2.887   0.323 -0.8273 -0.8862  0.8039
  436SOL     OW 1306   0.726   0.677   2.040  0.3182 -0.1024 -0.0296
  436SOL    HW1 1307   0.673   0.755   2.002 -1.3946  0.0995 -1.3271
  436SOL    HW2 1308   0.678   0.639   2.122  1.5431  1.3745  0.9512
  437SOL     OW 1309   0.576   2.322   2.561 -0.1282  0.0164 -0.5872
  437SOL    HW1 1310   0.586   2.255   2.482 -0.2001 -1.2833 -1.2410
  437SOL    HW2 1311   0.567   2.279   2.656  2.1238  0.7738  0.3391
  438SOL     OW 1312   0.898   1.359   1.518  0.9203  0.4509  0.2921
  438SOL    HW1 1313   0.918   1.460   1.511 -0.4649 -1.6882  1.9196
  438SOL    HW2 1314   0.971   1.307   1.561 -1.1323  1.7151 -1.8918
  439SOL     OW 1315   2.458   1.068   2.345  0.3090  0.3478  0.4285
  439SOL    HW1 1316   2.451   0.993   2.412 -0.2955 -1.2912 -0.7545
  439SOL    HW2 1317   2.383   1.138   2.345 -0.5108 -0.1363  0.7115
  440SOL     OW 1318   0.127   0.642   0.171 -0.3065 -0.0546 -0.2645
  440SOL    HW1 1319   0.167   0.571   0.104 -1.3559 -0.1606  0.4699
  440SOL    HW2 1320   0.141   0.730   0.125  2.3455  1.1061  0.4773
  441SOL     OW 1321   1.325   2.108   1.517 -0.3434  0.6009  0.4189
  441SOL    HW1 1322   1.354   2.203   1.497  0.5523  0.8803 -2.4978
  441SOL    HW2 1323   1.222   2.102   1.521  2.2716 -0.0373  0.1750
  442SOL     OW 1324   2.076   1.535   0.726  0.4744 -0.1208  0.7897
  442SOL    HW1 1325   2.074   1.590   0.809  1.2130 -1.5498 -1.0290
  442SOL    HW2 1326   2.140   1.458   0.728 -0.0760  2.3211  1.6009
  443SOL     OW 1327   2.745   2.001   2.633 -0.0422 -0.7426  0.3874
  443SOL    HW1 1328   2.757   2.102   2.655 -0.8873 -0.8905 -0.1901
  443SOL    HW2 1329   2.658   1.966   2.667 -0.5028 -0.0663  0.7433
  444SOL     OW 1330   1.561   1.635   3.047 -0.4319  0.5942 -0.1397
  444SOL    HW1 1331   1.607   1.590   0.021  0.5731  0.2946 -0.1994
  444SOL    HW2 1332   1.483   1.580   3.006  2.4055  1.1748  1.7678
  445SOL     OW 1333   2.708   2.899   1.983 -1.0192 -0.4829  0.2523
  445SOL    HW1 1334   2.723   2.797   1.984 -1.0832  1.8862 -0.7107
  445SOL    HW2 1335   2.798   2.949   1.961 -0.2737 -2.0834  1.0471
  446SOL     OW 1336   0.747   0.948   1.642  0.7304  0.1278  0.4935
  446SOL    HW1 1337   0.766   0.919   1.548 -0.1457  0.1437  0.5973
  446SOL    HW2 1338   0.830   0.941   1.697 -2.2733  1.0535 -1.3483
  447SOL     OW 1339   0.823   0.731   1.010 -0.5655 -0.4774 -0.0542
  447SOL    HW1 1340   0.729   0.756   0.995  1.9429 -1.5288  0.4899
  447SOL    HW2 1341   0.835   0.691   1.101 -1.3232  1.1072 -1.6453
  448SOL     OW 1342   1.007   1.071   2.316  0.8773 -0.2084  0.3630
  448SOL    HW1 1343   0.958   1.134   2.382 -0.7440 -1.3607  0.3269
  448SOL    HW2 1344   0.953   0.990   2.291 -0.4679 -0.1087  0.0624
  449SOL     OW 1345   3.097   2.072   2.120  0.3184  0.0902 -0.3171
  449SOL    HW1 1346   0.094   2.057   2.132  5.3804  0.1974  0.9078
  449SOL    HW2 1347   3.066   2.014   2.041  1.7307 -1.4485 -2.4048
  450SOL     OW 1348   2.443   1.838   2.112  0.1764 -0.3846 -0.0821
  450SOL    HW1 1349   2.446   1.818   2.208 -0.9469  1.9406 -4.9977
  450SOL    HW2 1350   2.363   1.782   2.073 -1.5969 -2.2406 -0.1600
  451SOL     OW 1351   2.549   1.237   1.410 -0.2461 -0.2095  0.0763
  451SOL    HW1 1352   2.471   1.252   1.349  0.2961 -2.2506  0.8152
  451SOL    HW2 1353   2.536   1.143   1.450 -2.7447 -0.1794  2.4589
  452SOL     OW 1354   0.130   1.291   1.390 -0.1571  0.2129 -0.1786
  452SOL    HW1 1355   0.091   1.194   1.393 -1.9439 -3.1362  0.4927
  452SOL    HW2 1356   0.228   1.296   1.365 -2.3025  0.9199 -0.8853
  453SOL     OW 1357   0.327   0.842   0.811 -0.0495  0.2096  0.0782
  453SOL    HW1 1358   0.387   0.808   0.729  2.0335 -0.3178 -0.5760
  453SOL    HW2 1359   0.229   0.813   0.801 -0.3051  1.2988  1.0974
  454SOL     OW 1360   0.467   1.683   0.405  0.5661 -0.0764  0.4313
  454SOL    HW1 1361   0.465   1.606   0.473  0.2418 -3.9312  0.7410
  454SOL    HW2 1362   0.407   1.662   0.323 -0.2730 -0.8941 -2.2412
  455SOL     OW 1363   1.639   0.906   0.997  0.7526 -0.4202 -0.1490
  455SOL    HW1 1364   1.637   0.995   0.958  2.6774 -1.9095  0.8647
  455SOL    HW2 1365   1.735   0.872   1.009 -0.3371 -0.2685  1.8588
  456SOL     OW 1366   1.634   2.459   0.858  0.2067  0.5547  0.0382
  456SOL    HW1 1367   1.625   2.559   0.877  1.3887 -4.3734  0.5391
  456SOL    HW2 1368   1.703   2.434   0.782  2.1571 -0.3613 -3.0518
  457SOL     OW 1369   1.753   0.340   2.578  0.0408  0.1235  0.4477
  457SOL    HW1 1370   1.752   0.261   2.513  0.0884  0.1823 -1.0556
  457SOL    HW2 1371   1.668   0.349   2.627  0.3362 -0.4955  2.8416
  458SOL     OW 1372   2.499   0.625   3.067 -0.1454 -0.0572 -0.4566
  458SOL    HW1 1373   2.477   0.525   3.045 -0.0621 -1.4997  0.5442
  458SOL    HW2 1374   2.538   0.666   2.983 -1.7966  0.1341 -1.3301
  459SOL     OW 1375   3.014   1.422   2.038 -0.7417 -0.3229  0.3901
  459SOL    HW1 1376   3.086   1.452   2.101  0.2945  0.5744  1.1572
  459SOL    HW2 1377   2.946   1.365   2.093 -2.0642 -0.9384  2.3743
  460SOL     OW 1378   0.289   0.787   2.907  0.5675 -0.1070 -0.3339
  460SOL    HW1 1379   0.240   0.756   2.826  0.1313 -0.2811  2.6887
  460SOL    HW2 1380   0.368   0.726   2.922  1.7442 -3.3717  0.9479
  461SOL     OW 1381   3.017   2.391   0.506  0.5989  0.1430  0.3629
  461SOL    HW1 1382   2.993   2.409   0.601 -1.1709  0.6656 -0.1787
  461SOL    HW2 1383   3.056   2.296   0.488 -1.1792 -1.5492 -0.0906
  462SOL     OW 1384   0.110   0.048   1.759  0.5565 -0.5489  0.5980
  462SOL    HW1 1385   0.031   0.008   1.708 -0.4238 -1.2965 -1.9562
  462SOL    HW2 1386   0.126   0.145   1.732  1.7616 -2.9864  2.2829
  463SOL     OW 1387   1.690   2.095   2.015  0.1526  0.4530 -0.0728
  463SOL    HW1 1388   1.728   2.052   1.929  1.9792  0.7913 -0.6853
  463SOL    HW2 1389   1.714   2.195   2.030 -1.9984 -0.0299  1.4267
  464SOL     OW 1390   0.341   2.816   1.213 -0.7669 -0.4301 -1.0758
  464SOL    HW1 1391   0.380   2.870   1.286 -1.4259 -0.7828 -0.9723
  464SOL    HW2 1392   0.272   2.873   1.166 -0.6165 -1.7629  0.6644
  465SOL     OW 1393   0.355   0.026   1.588  0.1612 -0.1011 -0.1339
  465SOL    HW1 1394   0.419   0.001   1.658 -2.1682  2.0042  1.4860
  465SOL    HW2 1395   0.311   0.111   1.616  0.1612 -0.7601 -1.2801
  466SOL     OW 1396   1.182   1.992   2.394 -0.1832  0.3210 -0.2213
  466SOL    HW1 1397   1.183   1.897   2.361  1.3535 -3.0346 -0.4430
  466SOL    HW2 1398   1.086   2.023   2.404  1.3273  0.7932  0.4185
  467SOL     OW 1399   2.999   1.464   0.669  0.8314 -0.2412  0.4137
  467SOL    HW1 1400   2.970   1.518   0.754  1.4545 -1.9226  0.8966
  467SOL    HW2 1401   2.942   1.381   0.659 -0.3034  1.1401  0.7287
  468SOL     OW 1402   2.268   1.959   2.638  0.1405  0.6239 -0.0817
  468SOL    HW1 1403   2.201   1.882   2.609  0.6685  2.8279  1.3547
  468SOL    HW2 1404   2.320   1.997   2.559  0.1820 -1.7288  0.5939
  469SOL     OW 1405   1.213   2.239   0.577 -0.0746 -0.4431 -0.0352
  469SOL    HW1 1406   1.294   2.238   0.518  0.4470 -0.4221  0.0897
  469SOL    HW2 1407   1.234   2.204   0.671 -3.6722  0.0101 -3.2353
  470SOL     OW 1408   1.926   1.732   1.467  0.5434 -0.2845  0.2732
  470SOL    HW1 1409   1.895   1.829   1.487  2.6236 -0.4282  1.0104
  470SOL    HW2 1410   1.958   1.683   1.550 -0.0945 -0.2263 -0.9891
  471SOL     OW 1411   0.366   2.390   0.142  0.3468 -0.3310  0.0755
  471SOL    HW1 1412   0.427   2.460   0.179 -1.7002 -1.7758  0.7717
  471SOL    HW2 1413   0.326   2.415   0.051  1.1204  0.2749 -2.1374
  472SOL     OW 1414   2.519   1.755   2.370  0.7875  0.7182 -0.1154
  472SOL    HW1 1415   2.502   1.709   2.458  2.4961  0.3816 -0.1195
  472SOL    HW2 1416   2.594   1.817   2.377 -1.0412 -1.3836 -0.6857
  473SOL     OW 1417   1.565   2.722   0.911  0.3274 -0.2848 -0.2091
  473SOL    HW1 1418   1.628   2.761   0.981  2.2627 -0.3471 -1.3228
  473SOL    HW2 1419   1.502   2.794   0.867 -0.8854  0.7011 -1.1147
  474SOL     OW 1420   2.884   0.041   1.492  0.0517  0.1046  0.1384
  474SOL    HW1 1421   2.884   3.044   1.457 -1.8567 -2.3509 -2.4321
  474SOL    HW2 1422   2.807   0.086   1.442 -0.4673 -2.9310  1.4499
  475SOL     OW 1423   2.184   2.855   1.915  0.1191 -0.0048 -0.2316
  475SOL    HW1 1424   2.267   2.862   1.857  2.5975 -0.0049 -0.7992
  475SOL    HW2 1425   2.161   2.948   1.939  0.0467 -0.3235  0.2150
  476SOL     OW 1426   0.307   0.422   0.978  0.2460  0.2128  0.3059
  476SOL    HW1 1427   0.326   0.388   0.883 -1.2693  0.2334 -1.5583
  476SOL    HW2 1428   0.317   0.349   1.053  0.7605  0.6138  2.2070
  477SOL     OW 1429   0.775   1.987   0.941  0.2002  0.0135  0.1733
  477SOL    HW1 1430   0.723   2.072   0.976 -0.1920  0.9461 -0.4971
  477SOL    HW2 1431   0.860   1.963   0.991 -1.5917 -0.7827  2.3004
  478SOL     OW 1432   0.824   2.539   2.749  0.0567  0.1033  0.0651
  478SOL    HW1 1433   0.799   2.474   2.828 -4.1339 -0.8846  0.5032
  478SOL    HW2 1434   0.745   2.605   2.730  0.5204 -0.4684 -0.5203
  479SOL     OW 1435   0.060   0.867   2.096  0.9020 -0.1168 -0.0634
  479SOL    HW1 1436   3.069   0.892   2.118 -2.5926  2.9498  1.8374
  479SOL    HW2 1437   0.052   0.798   2.024 -0.0156 -1.2644  1.0491
  480SOL     OW 1438   0.292   2.211   2.845 -0.4602 -0.6413 -0.5883
  480SOL    HW1 1439   0.261   2.172   2.934 -0.5061 -0.3983 -1.0727
  480SOL    HW2 1440   0.205   2.245   2.795 -1.3048 -0.6692 -0.5490
  481SOL     OW 1441   1.626   0.008   2.252 -0.5284  0.1899  0.0652
  481SOL    HW1 1442   1.694   0.058   2.309 -1.9819 -0.6318  1.8898
  481SOL    HW2 1443   1.546   0.068   2.225 -1.3940 -2.4370  0.2931
  482SOL     OW 1444   1.770   1.960   3.070  0.1078 -0.0851 -0.2325
  482SOL    HW1 1445   1.752   1.920   0.055 -0.2477 -0.1282 -0.4344
  482SOL    HW2 1446   1.822   1.899   3.009 -1.2311  1.5499 -1.3943
  483SOL     OW 1447   1.094   2.650   2.830  0.3766  0.2495 -0.8508
  483SOL    HW1 1448   1.178   2.594   2.834 -0.2658 -1.5586 -0.2576
  483SOL    HW2 1449   1.009   2.598   2.806 -1.8085 -1.2505  0.0965
  484SOL     OW 1450   0.576   2.839   0.734 -0.2744  0.5421  0.1052
  484SOL    HW1 1451   0.662   2.897   0.752  3.0741  2.0404  2.5956
  484SOL    HW2 1452   0.511   2.844   0.813 -0.5299 -0.6580  1.9645
  485SOL     OW 1453   2.103   0.796   0.730  0.0125  0.4570  0.3291
  485SOL    HW1 1454   2.083   0.870   0.795 -2.1743  0.5922 -0.7408
  485SOL    HW2 1455   2.049   0.712   0.749 -0.4141  1.8783 -2.9163
  486SOL     OW 1456   2.038   2.762   2.212  0.1883 -0.3423  0.3717
  486SOL    HW1 1457   2.102   2.774   2.291  1.5338 -1.0646 -2.0514
  486SOL    HW2 1458   2.080   2.693   2.147 -0.7759  1.0860 -1.4525
  487SOL     OW 1459   1.299   1.928   0.668 -0.1982  0.3442  0.3678
  487SOL    HW1 1460   1.209   1.894   0.631 -2.4277  0.4673 -2.2495
  487SOL    HW2 1461   1.286   1.993   0.746 -0.1880  2.6155  1.9709
  488SOL     OW 1462   2.139   0.264   0.180 -0.7502 -0.0904 -0.1616
  488SOL    HW1 1463   2.173   0.344   0.241  1.2402  0.2473 -0.0076
  488SOL    HW2 1464   2.078   0.301   0.106  0.1293  0.1906 -1.7640
  489SOL     OW 1465   2.085   2.879   0.462  0.0112 -0.8397 -0.0527
  489SOL    HW1 1466   2.131   2.970   0.448 -0.9877 -1.4442  0.4679
  489SOL    HW2 1467   1.994   2.888   0.505  2.0144  0.9133 -1.1912
  490SOL     OW 1468   1.624   2.924   2.957 -0.2782 -0.1333  0.7183
  490SOL    HW1 1469   1.719   2.951   2.993 -0.2850  0.2091  1.5297
  490SOL    HW2 1470   1.550   2.969   3.008  3.0057  0.2036  1.0115
  491SOL     OW 1471   0.870   0.120   0.980  0.6309 -0.1802 -0.1575
  491SOL    HW1 1472   0.970   0.119   0.981 -0.4831 -0.7492  1.0747
  491SOL    HW2 1473   0.840   0.057   1.046  0.3777  1.6412 -3.3029
  492SOL     OW 1474   1.785   2.948   0.307 -0.2660  0.4605 -0.6147
  492SOL    HW1 1475   1.789   2.936   0.408  1.6001  1.0190  1.6571
  492SOL    HW2 1476   1.795   2.860   0.252 -1.1797 -2.9579 -2.4443
  493SOL     OW 1477   1.730   2.574   2.727 -0.6132 -0.2438  0.0439
  493SOL    HW1 1478   1.723   2.477   2.693  0.7320 -1.1673 -0.5375
  493SOL    HW2 1479   1.690   2.586   2.819 -0.5289 -1.5474 -1.9859
  494SOL     OW 1480   0.464   1.250   0.940  0.1954  0.1162  0.2222
  494SOL    HW1 1481   0.459   1.206   1.034 -0.6353  0.4793  0.4067
  494SOL    HW2 1482   0.410   1.205   0.867  1.6505  0.5862 -2.0960
  495SOL     OW 1483   3.018   0.276   1.894 -0.4265  0.1503  0.1352
  495SOL    HW1 1484   3.035   0.268   1.789  2.0421  0.6624 -0.8015
  495SOL    HW2 1485   3.100   0.318   1.937 -1.4807 -0.4523 -2.2272
  496SOL     OW 1486   2.519   2.493   2.064 -0.2120  0.2105 -0.3728
  496SOL    HW1 1487   2.557   2.414   2.115 -1.4957  2.6590 -0.7210
  496SOL    HW2 1488   2.448   2.551   2.116 -1.8049  1.6091 -0.0918
  497SOL     OW 1489   1.821   1.323   2.850 -0.3513  0.6324  0.1047
  497SOL    HW1 1490   1.812   1.311   2.749 -2.0085 -0.7454 -1.5871
  497SOL    HW2 1491   1.734   1.301   2.899  0.2180 -1.3739 -0.7829
  498SOL     OW 1492   0.910   2.012   0.663 -0.1653  0.0487 -0.2213
  498SOL    HW1 1493   0.950   2.107   0.676  1.3748 -0.2886 -2.3404
  498SOL    HW2 1494   0.866   1.980   0.751  0.4052 -2.1094 -0.3749
  499SOL     OW 1495   0.254   1.609   1.050 -0.1495  0.1178  0.3149
  499SOL    HW1 1496   0.153   1.622   1.067  0.7684 -0.1385  1.9170
  499SOL    HW2 1497   0.301   1.562   1.126 -0.6508  1.2680  0.5954
  500SOL     OW 1498   1.542   2.717   0.499  0.2695 -0.1578 -0.2722
  500SOL    HW1 1499   1.522   2.742   0.400 -0.1466 -0.1532 -1.3191
  500SOL    HW2 1500   1.451   2.710   0.545 -0.6400  1.5036 -0.6077
  501SOL     OW 1501   2.056   2.537   0.914 -0.6141 -0.0192 -0.2243
  501SOL    HW1 1502   2.151   2.514   0.942 -1.8030 -0.0600 -0.9545
  501SOL    HW2 1503   2.063   2.614   0.846 -0.2503  1.4478 -0.8412
  502SOL     OW 1504   0.469   0.489   1.518  0.0595 -0.2669 -0.2565
  502SOL    HW1 1505   0.370   0.475   1.507  3.9991 -0.1229 -1.1703
  502SOL    HW2 1506   0.529   0.434   1.452  2.7402 -1.4549  1.9623
  503SOL     OW 1507   2.090   0.353   1.637  0.0658  0.0342  0.4319
  503SOL    HW1 1508   2.002   0.358   1.589  0.3681  0.6227 -1.4512
  503SOL    HW2 1509   2.097   0.266   1.695  0.0277  0.3630  0.5699
  504SOL     OW 1510   2.038   0.927   1.955 -0.1475  0.2393  0.0239
  504SOL    HW1 1511   1.969   0.958   1.887  1.8590 -0.0400  0.4996
  504SOL    HW2 1512   2.131   0.975   1.944  1.1023 -0.0311 -1.6079
  505SOL     OW 1513   1.145   3.003   2.179 -0.2041  0.3500  0.3657
  505SOL    HW1 1514   1.106   3.096   2.161 -0.6657  0.7478 -0.2107
  505SOL    HW2 1515   1.174   2.995   2.277  1.0496 -0.8998  0.6067
  506SOL     OW 1516   0.374   0.342   1.882  0.3191  0.2253  0.2508
  506SOL    HW1 1517   0.456   0.387   1.842 -0.7866 -0.8096  2.2760
  506SOL    HW2 1518   0.401   0.268   1.949  2.6701 -0.7184  1.6947
  507SOL     OW 1519   1.579   0.157   2.961 -0.3100 -0.2721 -0.0950
  507SOL    HW1 1520   1.634   0.212   3.022  0.8749  0.7103 -1.3556
  507SOL    HW2 1521   1.532   0.076   3.006  0.3416 -3.1440  1.9146
  508SOL     OW 1522   2.343   0.588   2.436 -0.4444  0.1779 -0.6027
  508SOL    HW1 1523   2.385   0.580   2.530  1.0765  1.1228  0.2882
  508SOL    HW2 1524   2.366   0.679   2.394 -0.6158  2.9837 -0.1390
  509SOL     OW 1525   0.708   1.255   2.284  0.5746  0.1309 -0.0791
  509SOL    HW1 1526   0.767   1.215   2.355  1.3552 -1.5657 -2.1063
  509SOL    HW2 1527   0.728   1.354   2.264  1.3910  0.0568 -1.9731
  510SOL     OW 1528   2.872   0.430   0.913  0.3873 -0.2049 -0.4202
  510SOL    HW1 1529   2.962   0.470   0.904 -4.3880 -0.7094  3.1368
  510SOL    HW2 1530   2.804   0.454   0.841  0.2176  1.4874 -0.0538
  511SOL     OW 1531   1.737   1.467   1.082 -0.1405  0.4728 -0.1804
  511SOL    HW1 1532   1.738   1.505   0.991  0.6692 -1.4870  2.4484
  511SOL    HW2 1533   1.742   1.541   1.147 -0.0491 -1.7379 -1.9262
  512SOL     OW 1534   0.481   1.456   0.586  0.3262  0.2690 -0.1414
  512SOL    HW1 1535   0.451   1.383   0.522 -0.2956 -0.3099  1.6880
  512SOL    HW2 1536   0.580   1.440   0.609 -0.1694  0.6041 -1.2005
  513SOL     OW 1537   0.623   2.193   1.042 -0.1759  0.4255 -0.4786
  513SOL    HW1 1538   0.553   2.133   1.086 -0.2935  0.8346 -0.0451
  513SOL    HW2 1539   0.582   2.243   0.958 -0.6219  0.8870 -0.3680
  514SOL     OW 1540   0.186   2.104   3.073  0.1622  0.4620 -0.8287
  514SOL    HW1 1541   0.096   2.122   0.010 -0.5333  0.4215 -2.4583
  514SOL    HW2 1542   0.243   2.052   0.037 -2.0120 -0.4399  0.4728
  515SOL     OW 1543   2.906   0.151   0.156 -0.1198 -0.2195  0.3014
  515SOL    HW1 1544   2.980   0.210   0.115  1.8068  0.0316 -4.2069
  515SOL    HW2 1545   2.912   0.058   0.112  2.6259  2.8806  0.2199
  516SOL     OW 1546   2.013   3.086   0.997  0.0958 -0.2107 -0.5980
  516SOL    HW1 1547   1.944   3.084   1.073 -2.5272  2.0589  2.1601
  516SOL    HW2 1548   2.071   3.000   0.998 -0.8233 -2.1129 -0.3880
  517SOL     OW 1549   1.347   1.575   0.302 -0.0341  0.6585 -0.0885
  517SOL    HW1 1550   1.360   1.497   0.363 -0.6686 -0.2310 -0.2937
  517SOL    HW2 1551   1.277   1.549   0.233  1.0039  1.0371 -0.9669
  518SOL     OW 1552   1.384   0.766   1.401  0.1335  0.8083  0.8332
  518SOL    HW1 1553   1.438   0.683   1.376  0.9584 -2.4647  1.7870
  518SOL    HW2 1554   1.414   0.844   1.348  1.4462 -2.1620 -1.1904
  519SOL     OW 1555   2.668   2.158   0.254 -0.5225 -0.4410  0.2747
  519SOL    HW1 1556   2.687   2.116   0.342 -0.3602  3.1409 -4.1119
  519SOL    HW2 1557   2.754   2.170   0.207 -1.7516 -1.9575 -0.0618
  520SOL     OW 1558   2.196   2.107   1.865 -0.5552 -0.1032  0.3311
  520SOL    HW1 1559   2.230   2.010   1.864 -0.2985 -2.3913 -0.0868
  520SOL    HW2 1560   2.162   2.133   1.957  0.4624  0.2854 -1.1276
  521SOL     OW 1561   1.567   2.856   2.272  0.2737 -0.4053 -0.2574
  521SOL    HW1 1562   1.507   2.836   2.351 -0.4143 -0.8093  0.2334
  521SOL    HW2 1563   1.585   2.959   2.270  0.9774  0.8948  0.5490
  522SOL     OW 1564   2.785   0.233   2.045 -0.1044 -0.6216 -0.0459
  522SOL    HW1 1565   2.869   0.261   1.995 -0.0105 -0.0444  0.4413
  522SOL    HW2 1566   2.810   0.179   2.125 -2.0604  1.1647 -2.6660
  523SOL     OW 1567   1.045   2.015   1.552  0.3640 -0.1414 -0.1187
  523SOL    HW1 1568   0.991   2.094   1.583  1.4203  1.9585 -1.6467
  523SOL    HW2 1569   1.018   1.978   1.459 -1.9892 -0.4958  0.7754
  524SOL     OW 1570   2.159   2.048   2.871  0.4637 -0.3639  0.4964
  524SOL    HW1 1571   2.205   2.009   2.790  0.1623  1.0004  0.3017
  524SOL    HW2 1572   2.077   1.985   2.894 -1.2850  0.1101  0.3868
  525SOL     OW 1573   2.812   1.034   0.288 -0.2756  0.1866 -0.5932
  525SOL    HW1 1574   2.859   0.947   0.297  0.8449  0.0227  1.7168
  525SOL    HW2 1575   2.803   1.051   0.189  0.9663  0.3164 -0.9977
  526SOL     OW 1576   1.063   2.955   0.941  0.0464 -0.7584 -0.1563
  526SOL    HW1 1577   1.058   2.890   0.864  0.6148 -1.2208 -0.1744
  526SOL    HW2 1578   1.007   2.920   1.019  0.0219 -1.3610 -0.2108
  527SOL     OW 1579   2.433   1.523   0.635  0.2223  0.0169 -0.7700
  527SOL    HW1 1580   2.343   1.478   0.654  0.4376 -2.5227 -1.8194
  527SOL    HW2 1581   2.444   1.546   0.535 -0.0983 -1.5582  1.0452
  528SOL     OW 1582   0.489   0.852   2.576  0.8011 -0.5029  0.1392
  528SOL    HW1 1583   0.542   0.895   2.506 -0.3393  0.2395  1.8818
  528SOL    HW2 1584   0.399   0.819   2.529 -0.6955 -1.1329  1.2527
  529SOL     OW 1585   0.567   1.470   0.041  0.2150  0.6684  0.1441
  529SOL    HW1 1586   0.530   1.511   3.059 -2.6149  0.3089 -2.9681
  529SOL    HW2 1587   0.537   1.378   0.060  0.0622  2.0616  1.1167
  530SOL     OW 1588   1.485   0.987   1.802 -0.1064 -0.3280  0.2160
  530SOL    HW1 1589   1.563   0.953   1.853 -1.1007  0.7209  0.6475
  530SOL    HW2 1590   1.393   0.977   1.851 -1.1998  0.0710 -1.3426
  531SOL     OW 1591   1.253   2.201   2.941 -0.3776 -0.0854  0.4421
  531SOL    HW1 1592   1.269   2.257   2.855  0.6212  2.4847 -0.7222
  531SOL    HW2 1593   1.346   2.194   2.990  2.4726  1.9211 -1.5321
  532SOL     OW 1594   2.253   0.716   0.009 -0.2884  0.0389  0.3469
  532SOL    HW1 1595   2.228   0.713   0.109  0.3631  1.7141 -0.1872
  532SOL    HW2 1596   2.344   0.672   3.102 -0.0093  1.2248  0.5692
  533SOL     OW 1597   2.855   0.590   2.013 -0.2588  0.2339 -0.1521
  533SOL    HW1 1598   2.793   0.543   1.945 -0.7636 -0.2575  0.4495
  533SOL    HW2 1599   2.795   0.642   2.078  2.4216 -2.2712  1.2653
  534SOL     OW 1600   1.907   0.053   0.171 -0.0626 -0.1204  0.0275
  534SOL    HW1 1601   1.854   3.100   0.238  0.1621  1.7334  0.5252
  534SOL    HW2 1602   1.983   0.106   0.208 -3.1066 -4.3421 -1.7429
  535SOL     OW 1603   0.504   0.457   0.103  0.5931  0.1773 -0.1352
  535SOL    HW1 1604   0.590   0.491   0.140 -1.2301 -0.4936  0.8374
  535SOL    HW2 1605   0.474   0.388   0.174 -0.4859  0.8063  3.2596
  536SOL     OW 1606   0.513   1.455   1.631 -0.5557 -0.0018  0.2082
  536SOL    HW1 1607   0.550   1.545   1.590 -0.3644  1.8235 -0.1579
  536SOL    HW2 1608   0.560   1.373   1.593 -1.3320 -0.6040  0.2207
  537SOL     OW 1609   0.310   2.667   1.908  0.3837 -0.1017 -0.1505
  537SOL    HW1 1610   0.386   2.683   1.845 -3.0251  0.6981  0.8666
  537SOL    HW2 1611   0.319   2.717   2.002  2.4008  1.4271 -0.2951
  538SOL     OW 1612   3.044   2.134   0.067 -0.0512  0.3384 -0.5211
  538SOL    HW1 1613   3.014   2.220   0.123 -0.9850  0.3043  0.8016
  538SOL    HW2 1614   2.987   2.129   3.086  0.0226 -0.6226  1.0678
  539SOL     OW 1615   2.584   0.751   2.844  0.0756  0.1282  0.5046
  539SOL    HW1 1616   2.677   0.725   2.816  2.0455  1.9484 -0.0450
  539SOL    HW2 1617   2.572   0.850   2.848  0.1320 -2.3895 -1.2081
  540SOL     OW 1618   1.729   0.765   0.129  0.1743 -0.4184 -0.3016
  540SOL    HW1 1619   1.782   0.850   0.141 -1.7438 -0.9956 -1.1614
  540SOL    HW2 1620   1.632   0.784   0.111  1.8028  1.5035  0.8664
  541SOL     OW 1621   0.943   0.475   2.081  0.7654  0.1617  0.0828
  541SOL    HW1 1622   0.914   0.378   2.086  0.3162  1.2409  0.2270
  541SOL    HW2 1623   0.868   0.541   2.070 -0.8209  0.5295 -1.7203
  542SOL     OW 1624   1.752   2.443   2.262  0.0027  0.1902  0.3152
  542SOL    HW1 1625   1.756   2.546   2.262  1.5888  1.7345 -0.6647
  542SOL    HW2 1626   1.768   2.406   2.170 -1.9543  0.1879  0.9213
  543SOL     OW 1627   0.945   2.932   0.544 -0.1479 -0.8435  0.4560
  543SOL    HW1 1628   0.982   3.026   0.528  1.9737  1.7840  1.9108
  543SOL    HW2 1629   0.901   2.887   0.458 -0.0836 -1.8126 -1.4724
  544SOL     OW 1630   2.710   1.812   2.044  0.1656  0.5627  0.5174
  544SOL    HW1 1631   2.772   1.823   2.124  2.1504 -0.2008 -3.4180
  544SOL    HW2 1632   2.610   1.825   2.067  2.6429  0.2249  0.8820
  545SOL     OW 1633   1.555   2.015   1.382  0.0148 -0.8401 -0.2958
  545SOL    HW1 1634   1.465   2.052   1.422  3.0717 -0.2831 -1.7747
  545SOL    HW2 1635   1.539   1.918   1.369  1.1644 -0.9508 -2.4494
  546SOL     OW 1636   0.608   3.097   2.360  0.8891  0.7146  0.4302
  546SOL    HW1 1637   0.603   0.088   2.393  0.1874 -1.3635  0.5032
  546SOL    HW2 1638   0.528   3.038   2.392  0.2866 -3.3671  0.9898
  547SOL     OW 1639   1.230   0.435   0.582 -0.3736 -0.4476 -0.3010
  547SOL    HW1 1640   1.198   0.371   0.656  0.4388 -0.2726 -0.0199
  547SOL    HW2 1641   1.162   0.441   0.509 -1.1390  2.4939  1.4936
  548SOL     OW 1642   1.532   2.108   0.016  0.1887  0.2894 -0.7196
  548SOL    HW1 1643   1.601   2.035   0.005  1.0653 -2.0870  0.8633
  548SOL    HW2 1644   1.445   2.066   0.045 -0.4965  0.7339  1.1037
  549SOL     OW 1645   1.872   0.981   0.132 -0.3371 -0.2480  0.6041
  549SOL    HW1 1646   1.912   1.012   0.218  2.1709 -1.0259 -2.8879
  549SOL    HW2 1647   1.807   1.057   0.104 -1.2759 -1.1787 -3.2534
  550SOL     OW 1648   2.439   2.042   0.142 -0.5326  0.3920 -0.3868
  550SOL    HW1 1649   2.383   2.023   0.228 -0.4396 -0.2361  1.0758
  550SOL    HW2 1650   2.518   2.103   0.173  0.0128  0.3694 -0.1204
  551SOL     OW 1651   1.212   0.643   1.625 -0.3428  0.3941 -0.8397
  551SOL    HW1 1652   1.285   0.692   1.579  1.1978  1.0770  2.4459
  551SOL    HW2 1653   1.252   0.557   1.672  2.3839 -2.4582  0.8348
  552SOL     OW 1654   0.056   2.308   2.753  0.5485  0.2323 -0.7810
  552SOL    HW1 1655   0.030   2.245   2.674  2.7003 -0.4188 -0.4954
  552SOL    HW2 1656   3.080   2.349   2.792  3.2765  0.1121 -0.9227
  553SOL     OW 1657   2.814   2.565   0.658 -0.2127 -0.0734 -0.1830
  553SOL    HW1 1658   2.858   2.528   0.743 -0.6906 -2.6345 -0.5787
  553SOL    HW2 1659   2.720   2.531   0.639 -0.3751  1.7486 -1.7382
  554SOL     OW 1660   2.007   1.650   1.726 -0.0168  0.3308 -0.2264
  554SOL    HW1 1661   2.024   1.554   1.761 -0.0805  0.2906  0.3982
  554SOL    HW2 1662   1.916   1.689   1.760  0.1869 -0.1533  2.4278
  555SOL     OW 1663   1.339   2.141   2.226  0.1590  0.2265  0.4104
  555SOL    HW1 1664   1.271   2.105   2.292  1.6693  1.3510  1.3623
  555SOL    HW2 1665   1.376   2.223   2.268 -2.1030 -1.5560  4.0456
  556SOL     OW 1666   1.311   1.698   1.553  0.1259  0.0318  0.0298
  556SOL    HW1 1667   1.226   1.747   1.586 -2.4487 -2.0848  0.5120
  556SOL    HW2 1668   1.276   1.606   1.523 -2.1616 -2.5248 -0.8985
  557SOL     OW 1669   1.428   0.004   1.743 -0.0421  0.1904 -0.3962
  557SOL    HW1 1670   1.494   3.033   1.767 -1.5074  1.1378 -3.3199
  557SOL    HW2 1671   1.348   0.022   1.812 -0.2890 -0.4004  3.6235
  558SOL     OW 1672   0.533   2.936   2.140  0.2081 -0.2426 -0.2704
  558SOL    HW1 1673   0.585   2.978   2.061 -0.3697  0.5922 -0.0099
  558SOL    HW2 1674   0.531   2.997   2.221  2.4532  0.7260 -1.4196
  559SOL     OW 1675   2.002   2.365   0.073  0.0586 -0.2540 -0.3313
  559SOL    HW1 1676   1.973   2.455   0.039 -1.8619 -1.8058  0.8482
  559SOL    HW2 1677   2.094   2.374   0.118 -0.1693 -0.5178  0.1177
  560SOL     OW 1678   1.432   2.197   0.440  0.6740 -0.4231  0.2678
  560SOL    HW1 1679   1.444   2.095   0.432 -1.5976 -0.1694  1.7966
  560SOL    HW2 1680   1.474   2.250   0.364 -0.8990  0.4954 -0.5335
  561SOL     OW 1681   1.229   0.341   0.130 -0.0374  0.0489  0.3628
  561SOL    HW1 1682   1.215   0.420   0.064  0.0306 -0.1903 -0.6842
  561SOL    HW2 1683   1.327   0.346   0.161 -1.9677  1.3556  1.5301
  562SOL     OW 1684   0.435   1.385   2.080 -0.2533 -0.0671  0.4904
  562SOL    HW1 1685   0.367   1.313   2.071  0.6655 -0.2056 -3.3370
  562SOL    HW2 1686   0.499   1.385   2.003  0.5004 -0.4349  3.2531
  563SOL     OW 1687   1.270   2.102   2.648  0.0799 -0.1096 -1.4108
  563SOL    HW1 1688   1.269   2.078   2.551  0.4717 -1.1193  0.2916
  563SOL    HW2 1689   1.351   2.059   2.699  0.0817 -2.7151  1.0838
  564SOL     OW 1690   2.773   0.883   0.851 -0.0234  0.4826  0.4874
  564SOL    HW1 1691   2.690   0.826   0.865  1.3484  3.3823 -0.8053
  564SOL    HW2 1692   2.770   0.963   0.910 -1.2207  0.8137  0.2912
  565SOL     OW 1693   0.411   1.194   0.076 -0.6627  0.2864 -0.2096
  565SOL    HW1 1694   0.384   1.132   3.104  0.0333  1.7361 -0.8288
  565SOL    HW2 1695   0.332   1.222   0.134 -0.0563 -1.2398  1.2930
  566SOL     OW 1696   2.524   2.783   2.779  0.4037 -0.0104  0.4298
  566SOL    HW1 1697   2.565   2.865   2.813  2.0590  0.1535  1.5957
  566SOL    HW2 1698   2.475   2.739   2.856 -0.5527  1.4165  2.5366
  567SOL     OW 1699   1.539   1.290   1.140 -0.3908  0.4150  0.3445
  567SOL    HW1 1700   1.626   1.344   1.126  1.1884 -0.5574  0.5539
  567SOL    HW2 1701   1.539   1.230   1.223 -2.6633 -1.6895  0.0658
  568SOL     OW 1702   1.371   1.507   2.891  0.1257  0.4139  0.0341
  568SOL    HW1 1703   1.281   1.514   2.938 -0.9832 -2.2472  1.3105
  568SOL    HW2 1704   1.379   1.547   2.797 -0.3361  0.1105  0.1525
  569SOL     OW 1705   2.343   1.687   2.966 -0.2478  0.2140 -0.1557
  569SOL    HW1 1706   2.411   1.762   2.969  1.3194 -1.3070  0.8394
  569SOL    HW2 1707   2.259   1.704   3.019  0.2130  0.1974  0.1179
  570SOL     OW 1708   2.812   2.246   1.909  0.3906 -0.1393 -0.4773
  570SOL    HW1 1709   2.911   2.250   1.908 -0.6459  1.8278  2.8976
  570SOL    HW2 1710   2.781   2.319   1.849 -1.5037 -1.7541  0.6060
  571SOL     OW 1711   2.902   1.844   1.588 -0.2864  0.5928 -0.2153
  571SOL    HW1 1712   2.891   1.742   1.587  0.8956 -1.6602  0.2957
  571SOL    HW2 1713   2.859   1.877   1.672  1.1045  1.7136 -1.8797
  572SOL     OW 1714   1.829   2.201   0.360 -0.2170 -0.0749 -0.7990
  572SOL    HW1 1715   1.767   2.215   0.281 -0.3349  0.0580 -1.2307
  572SOL    HW2 1716   1.872   2.291   0.389  1.6581  0.9028  2.6274
  573SOL     OW 1717   1.504   1.947   0.490 -0.3925  0.4564 -0.0952
  573SOL    HW1 1718   1.588   1.978   0.540  0.6399  0.0389  1.5562
  573SOL    HW2 1719   1.421   1.922   0.547  0.4022 -1.3463 -0.0422
  574SOL     OW 1720   1.456   3.094   1.447 -0.1369  0.4651 -0.4672
  574SOL    HW1 1721   1.517   3.006   1.454 -1.0632 -4.4671 -1.0208
  574SOL    HW2 1722   1.454   0.038   1.537  2.6534 -1.0736 -0.4136
  575SOL     OW 1723   0.473   1.118   1.169 -0.0563  0.6429 -0.6729
  575SOL    HW1 1724   0.540   1.043   1.199 -0.2766  3.8856  1.9026
  575SOL    HW2 1725   0.473   1.200   1.233 -0.1890 -2.9847 -1.6747
  576SOL     OW 1726   2.500   0.494   1.047  0.0269 -0.0410 -0.1877
  576SOL    HW1 1727   2.589   0.486   1.097 -0.8608  0.2271  1.9630
  576SOL    HW2 1728   2.489   0.415   0.983  1.2682 -3.5989 -1.0867
  577SOL     OW 1729   1.507   0.731   2.552  0.2094 -0.3116  0.1504
  577SOL    HW1 1730   1.427   0.755   2.612 -0.1632 -0.0029  0.8292
  577SOL    HW2 1731   1.479   0.700   2.457  0.1406  1.9964 -0.5986
  578SOL     OW 1732   2.089   1.393   2.554  0.4339  0.6138  0.1913
  578SOL    HW1 1733   2.166   1.374   2.609  0.9664  1.5921 -3.2472
  578SOL    HW2 1734   2.097   1.483   2.508  2.8819 -1.0671  3.1297
  579SOL     OW 1735   0.693   1.760   1.411 -0.4229 -0.2160 -0.0759
  579SOL    HW1 1736   0.642   1.742   1.494  1.0171 -2.4005 -3.9552
  579SOL    HW2 1737   0.654   1.712   1.331 -0.3395  0.5195  1.3606
  580SOL     OW 1738   1.563   2.289   0.213  0.9316 -0.2661  0.7338
  580SOL    HW1 1739   1.590   2.384   0.178 -0.4863 -0.4343  0.1290
  580SOL    HW2 1740   1.528   2.238   0.131 -0.0445  0.5285  0.4603
  581SOL     OW 1741   0.923   0.813   2.188 -0.0867  0.0305 -0.7225
  581SOL    HW1 1742   0.850   0.766   2.135  2.1222 -0.6610 -1.4166
  581SOL    HW2 1743   0.979   0.743   2.235  1.4156  1.7033 -3.0992
  582SOL     OW 1744   0.865   1.221   1.271 -0.4534 -0.1879  0.3925
  582SOL    HW1 1745   0.877   1.123   1.290 -1.4906 -1.0893 -1.1680
  582SOL    HW2 1746   0.879   1.275   1.358 -0.2602 -5.0533  0.4006
  583SOL     OW 1747   0.654   1.109   2.012  0.4833 -0.4214  0.5059
  583SOL    HW1 1748   0.640   1.181   1.944  0.8137  0.8758 -2.7553
  583SOL    HW2 1749   0.642   1.156   2.104 -1.5741  0.7651  1.6779
  584SOL     OW 1750   2.055   2.661   0.289 -0.1656 -0.1459  0.0415
  584SOL    HW1 1751   1.956   2.655   0.251 -4.5151  0.3005 -1.0911
  584SOL    HW2 1752   2.074   2.745   0.348  1.0516  1.1033 -0.7978
  585SOL     OW 1753   1.927   0.290   2.806 -0.3348  0.1879 -0.1541
  585SOL    HW1 1754   1.957   0.193   2.815  0.5179  0.3244  1.7251
  585SOL    HW2 1755   1.857   0.300   2.732  0.4850 -1.9204  0.6435
  586SOL     OW 1756   0.084   1.797   0.325 -0.3299  0.4429  0.2024
  586SOL    HW1 1757   0.016   1.806   0.407  0.1454 -0.8655  5.1964
  586SOL    HW2 1758   0.033   1.774   0.236 -3.3541 -0.6302 -1.3273
  587SOL     OW 1759   1.852   1.776   0.426 -0.5387 -0.6320 -0.2653
  587SOL    HW1 1760   1.842   1.690   0.476 -3.3967 -0.8387  3.4881
  587SOL    HW2 1761   1.945   1.788   0.391  0.7664 -0.2864  0.7178
  588SOL     OW 1762   0.268   0.124   0.899  0.1411  0.1796 -0.0450
  588SOL    HW1 1763   0.331   0.054   0.943 -0.3300 -2.8235  3.1768
  588SOL    HW2 1764   0.322   0.189   0.844  0.6856 -0.1828 -1.1424
  589SOL     OW 1765   1.091   0.803   1.040 -0.0062 -0.0267 -0.1570
  589SOL    HW1 1766   0.995   0.779   1.010 -1.7998  1.2141 -1.4110
  589SOL    HW2 1767   1.107   0.902   1.067  0.9461  3.2853 -3.3440
  590SOL     OW 1768   1.362   1.154   0.140  0.5323 -0.6285  0.2605
  590SOL    HW1 1769   1.412   1.239   0.114 -2.0942 -5.6393  0.2210
  590SOL    HW2 1770   1.348   1.143   0.237  1.0530 -1.0981 -1.1741
  591SOL     OW 1771   2.516   2.494   2.400 -0.2546 -0.0917  0.2345
  591SOL    HW1 1772   2.496   2.534   2.306  1.3919 -0.8213 -0.8783
  591SOL    HW2 1773   2.609   2.448   2.395 -0.2650 -1.3727  0.5750
  592SOL     OW 1774   1.689   2.050   0.874  0.2967 -0.2561  0.4148
  592SOL    HW1 1775   1.707   2.050   0.773 -1.1194  2.0982  0.2475
  592SOL    HW2 1776   1.771   2.034   0.933  2.0049 -1.6189 -1.6044
  593SOL     OW 1777   1.133   0.177   1.033  0.3610 -0.5509  0.2282
  593SOL    HW1 1778   1.212   0.112   1.022  2.2865 -1.4940 -0.3406
  593SOL    HW2 1779   1.141   0.233   1.120 -0.7027  0.8541  1.2488
  594SOL     OW 1780   2.982   0.828   2.388  0.1579 -0.5715 -0.2322
  594SOL    HW1 1781   2.972   0.872   2.298  0.7410  1.0003 -1.6508
  594SOL    HW2 1782   3.047   0.752   2.368  0.0629 -1.8862  0.0906
  595SOL     OW 1783   0.649   2.527   1.136  0.4615  0.2997 -0.2046
  595SOL    HW1 1784   0.579   2.490   1.071  0.0422  0.8653  0.9785
  595SOL    HW2 1785   0.631   2.494   1.230  2.1504  1.8853 -2.4005
  596SOL     OW 1786   0.225   0.736   1.301  0.0647 -0.3995 -0.0804
  596SOL    HW1 1787   0.221   0.834   1.266 -1.4406  0.2325 -0.6388
  596SOL    HW2 1788   0.145   0.685   1.269  0.5109  0.1060 -0.7674
  597SOL     OW 1789   1.729   1.856   0.204  0.1918 -0.0927  0.1519
  597SOL    HW1 1790   1.630   1.859   0.220  1.1625 -0.3982 -3.5635
  597SOL    HW2 1791   1.778   1.857   0.294  1.4342 -0.2761  3.1504
  598SOL     OW 1792   0.491   2.715   1.670  0.0219 -0.0913  0.0118
  598SOL    HW1 1793   0.459   2.667   1.590  1.3535  0.3679  3.0682
  598SOL    HW2 1794   0.570   2.659   1.703 -4.1996 -2.7517 -0.2605
  599SOL     OW 1795   2.498   1.920   2.766 -0.7220 -0.1238 -0.1061
  599SOL    HW1 1796   2.407   1.939   2.721 -0.8668 -0.7586 -1.0890
  599SOL    HW2 1797   2.490   1.921   2.868  1.8856  0.5754 -0.9977
  600SOL     OW 1798   0.725   0.722   0.400  0.0630 -0.0190 -0.1582
  600SOL    HW1 1799   0.690   0.812   0.381  0.6278 -1.1482  0.6806
  600SOL    HW2 1800   0.789   0.733   0.478  1.0293  2.4558  3.4446
  601SOL     OW 1801   0.924   0.708   0.598 -0.8859  0.2781 -0.0213
  601SOL    HW1 1802   0.921   0.799   0.644 -0.3926 -0.8075  0.5907
  601SOL    HW2 1803   0.908   0.632   0.665 -1.5063 -0.3191 -1.0560
  602SOL     OW 1804   1.438   2.934   0.770 -0.3398  0.5951  0.4017
  602SOL    HW1 1805   1.503   3.011   0.794  1.3682 -0.3990 -2.3787
  602SOL    HW2 1806   1.402   2.944   0.675 -1.2246  2.4241 -1.0322
  603SOL     OW 1807   0.715   2.731   2.205  0.4160  0.1385 -0.0230
  603SOL    HW1 1808   0.635   2.775   2.165 -2.3245 -0.9292 -0.6867
  603SOL    HW2 1809   0.801   2.770   2.162  3.1582  0.8872 -1.2452
  604SOL     OW 1810   2.892   2.981   2.348  0.0032  0.1224  0.0759
  604SOL    HW1 1811   2.959   3.008   2.276 -3.3370  0.6003  3.6092
  604SOL    HW2 1812   2.897   2.890   2.396 -2.0309  0.8120  0.6432
  605SOL     OW 1813   2.672   2.083   1.162  0.4362  0.5078  0.1270
  605SOL    HW1 1814   2.587   2.100   1.113  3.0548 -0.3242  2.7868
  605SOL    HW2 1815   2.659   2.064   1.262  2.7688 -0.9187 -0.0023
  606SOL     OW 1816   0.465   1.526   2.887  0.3714 -0.0253  0.2390
  606SOL    HW1 1817   0.413   1.614   2.893 -0.4966  1.6999  0.8296
  606SOL    HW2 1818   0.460   1.498   2.791 -1.1920 -2.9854 -0.2066
  607SOL     OW 1819   0.862   0.120   0.251  0.0002  0.0663  0.3688
  607SOL    HW1 1820   0.776   0.086   0.298 -2.3160 -2.0960  1.7288
  607SOL    HW2 1821   0.835   0.163   0.163  2.0830  0.1050  0.6901
  608SOL     OW 1822   1.649   1.173   2.380  0.3241  0.7565  0.4712
  608SOL    HW1 1823   1.718   1.204   2.444  0.7115 -2.7991 -1.0641
  608SOL    HW2 1824   1.645   1.069   2.388  1.6869 -1.4111  1.5220
  609SOL     OW 1825   2.890   0.161   0.949 -0.5461 -0.5998 -0.4896
  609SOL    HW1 1826   2.928   0.125   1.034 -2.2496 -0.4463 -1.5804
  609SOL    HW2 1827   2.894   0.263   0.948  0.3049 -0.2575 -1.2199
  610SOL     OW 1828   0.591   2.642   0.513  0.4078  0.2112 -0.6482
  610SOL    HW1 1829   0.689   2.608   0.500 -1.5085  0.2717  2.2407
  610SOL    HW2 1830   0.584   2.696   0.600  0.1142  0.3133 -0.6333
  611SOL     OW 1831   1.645   1.053   2.847 -0.1783 -0.4785  0.3274
  611SOL    HW1 1832   1.706   0.988   2.894  1.6083  1.5124 -0.9224
  611SOL    HW2 1833   1.618   1.132   2.906 -0.8171  1.8197 -0.2755
  612SOL     OW 1834   0.939   2.145   2.368 -0.6892 -0.4741  0.3150
  612SOL    HW1 1835   0.911   2.074   2.438 -0.9181  1.1134 -1.9627
  612SOL    HW2 1836   0.936   2.237   2.412 -0.4242  0.2636 -0.0737
  613SOL     OW 1837   1.054   2.327   0.152 -0.5983 -0.2360 -0.0894
  613SOL    HW1 1838   1.072   2.258   0.225  2.3413 -0.4639 -1.2981
  613SOL    HW2 1839   1.013   2.283   0.067 -0.6718  0.8003  1.2645
  614SOL     OW 1840   2.805   2.801   1.643  0.3036 -0.1686  0.0809
  614SOL    HW1 1841   2.819   2.831   1.548 -2.7003  1.4293  0.8698
  614SOL    HW2 1842   2.760   2.875   1.692 -0.5482  2.1583  1.5741
  615SOL     OW 1843   2.439   1.428   3.041  0.4595 -0.5492  0.0857
  615SOL    HW1 1844   2.428   1.528   3.020 -1.7718  2.2442 -0.0132
  615SOL    HW2 1845   2.381   1.399   0.014 -1.4052 -0.8417 -2.1108
  616SOL     OW 1846   1.503   0.163   0.415 -0.3583  0.4117  0.5566
  616SOL    HW1 1847   1.422   0.136   0.470  0.0311  1.9323  1.1679
  616SOL    HW2 1848   1.561   0.231   0.469  2.0120  0.9425  4.8175
  617SOL     OW 1849   0.963   0.860   0.168  0.1165 -0.3038  0.0502
  617SOL    HW1 1850   0.993   0.894   0.077 -0.2419 -0.1565  0.3992
  617SOL    HW2 1851   0.929   0.936   0.225  4.7863 -1.7170 -2.2727
  618SOL     OW 1852   0.733   0.260   1.905 -0.0379 -0.0044  0.3020
  618SOL    HW1 1853   0.721   0.311   1.992  1.5613 -0.2917  1.9218
  618SOL    HW2 1854   0.719   0.324   1.824 -3.1447  2.1533 -2.1906
  619SOL     OW 1855   2.970   1.017   1.460 -0.1908 -0.4056 -0.0757
  619SOL    HW1 1856   3.051   0.962   1.484 -0.4170  0.7393  1.3879
  619SOL    HW2 1857   2.976   1.054   1.363 -2.1961  1.1572 -1.3213
  620SOL     OW 1858   2.054   0.988   2.853  0.3157  0.4083  0.2250
  620SOL    HW1 1859   2.047   0.984   2.752  1.0092 -0.9594  1.8866
  620SOL    HW2 1860   1.962   0.962   2.895 -0.4304 -1.5089 -1.3034
  621SOL     OW 1861   2.616   2.688   1.282  0.1806 -0.0790 -0.1949
  621SOL    HW1 1862   2.653   2.762   1.222  1.7885  1.2875 -1.2131
  621SOL    HW2 1863   2.682   2.616   1.295 -0.2880  1.3746 -0.3427
  622SOL     OW 1864   1.363   0.808   2.792 -0.0084  0.2665  0.1664
  622SOL    HW1 1865   1.334   0.900   2.817 -2.1245 -1.2715  1.7026
  622SOL    HW2 1866   1.407   0.760   2.870  0.6916 -0.8295  0.3025
  623SOL     OW 1867   1.216   0.560   3.090 -0.3780  0.5519 -0.1020
  623SOL    HW1 1868   1.312   0.590   3.067  1.6265 -2.1427 -0.1692
  623SOL    HW2 1869   1.158   0.625   3.037  1.4833 -0.1431 -1.2262
  624SOL     OW 1870   1.911   0.527   0.151 -0.3572  0.6086 -0.2262
  624SOL    HW1 1871   1.847   0.604   0.144  1.1379 -2.3718 -0.5629
  624SOL    HW2 1872   1.959   0.512   0.065  1.4293  1.3438 -0.1412
  625SOL     OW 1873   1.076   1.246   1.079  0.3472  0.4025 -0.1918
  625SOL    HW1 1874   1.123   1.159   1.096  0.5734  3.9747 -1.5480
  625SOL    HW2 1875   1.002   1.260   1.147  0.7511  1.7556 -0.4898
  626SOL     OW 1876   1.552   1.301   2.943 -0.2897 -0.2428  0.2038
  626SOL    HW1 1877   1.535   1.291   3.046 -0.3724 -1.4242 -0.1975
  626SOL    HW2 1878   1.472   1.361   2.910  1.0587 -1.0230 -0.1734
  627SOL     OW 1879   0.924   2.809   2.084 -0.0710  0.4061 -0.3857
  627SOL    HW1 1880   0.958   2.740   2.012  0.8742 -0.6125 -1.3405
  627SOL    HW2 1881   0.997   2.880   2.097 -2.1716  2.9265  0.1695
  628SOL     OW 1882   2.476   0.235   2.289 -0.4499  0.5244  0.3050
  628SOL    HW1 1883   2.524   0.296   2.227 -1.0792  1.0012  1.5990
  628SOL    HW2 1884   2.553   0.183   2.329 -2.3190  2.9289 -0.4011
  629SOL     OW 1885   0.755   0.912   3.010  0.1065 -0.2434  0.1352
  629SOL    HW1 1886   0.848   0.937   2.966  3.9208  0.5027 -3.2637
  629SOL    HW2 1887   0.765   0.837   3.074 -2.9606 -0.4118 -0.7583
  630SOL     OW 1888   1.253   0.279   2.043 -0.2530 -0.3416  0.1696
  630SOL    HW1 1889   1.174   0.238   2.097 -2.2910  0.2029  2.1905
  630SOL    HW2 1890   1.341   0.271   2.095  0.4023  2.3404  0.6738
  631SOL     OW 1891   2.731   0.485   0.666  0.4826 -0.3578 -0.0904
  631SOL    HW1 1892   2.657   0.551   0.650  1.2365 -0.2082  0.8889
  631SOL    HW2 1893   2.822   0.521   0.639 -1.7651  1.8948  1.6746
  632SOL     OW 1894   2.226   1.052   1.305  0.2485  0.3304  0.2542
  632SOL    HW1 1895   2.139   1.075   1.356 -1.9909  0.3552  0.8234
  632SOL    HW2 1896   2.218   0.983   1.228  0.2281 -0.4192 -0.0216
  633SOL     OW 1897   1.481   0.755   0.820  0.7170  0.4757  0.5440
  633SOL    HW1 1898   1.456   0.818   0.739 -2.4542 -0.5817  1.1401
  633SOL    HW2 1899   1.531   0.802   0.901  1.0972  1.3158  1.2067
  634SOL     OW 1900   1.869   0.010   0.767  0.1799 -0.1435  0.5732
  634SOL    HW1 1901   1.946   3.094   0.836 -1.0745  0.4535  1.2977
  634SOL    HW2 1902   1.780   0.025   0.816 -1.4284  2.0959  1.1409
  635SOL     OW 1903   1.512   0.945   1.221 -0.8123  0.3827  0.4630
  635SOL    HW1 1904   1.565   0.917   1.140  1.9204 -3.3485  3.6510
  635SOL    HW2 1905   1.562   1.019   1.275  2.9026 -1.1015  0.2436
  636SOL     OW 1906   0.575   0.535   0.787  0.2797 -0.0934 -0.1965
  636SOL    HW1 1907   0.573   0.593   0.868 -0.7224 -0.4587  1.0761
  636SOL    HW2 1908   0.649   0.465   0.794 -1.8340 -2.2288  0.7253
  637SOL     OW 1909   2.019   2.349   0.531  0.0223  0.1959 -0.5775
  637SOL    HW1 1910   2.057   2.266   0.575 -1.2026  2.0233 -0.7190
  637SOL    HW2 1911   2.063   2.383   0.448 -0.3818  1.7079  1.6123
  638SOL     OW 1912   1.554   2.896   2.714  0.8277 -0.5258  0.9388
  638SOL    HW1 1913   1.577   2.901   2.813  1.4372  1.1957 -1.6003
  638SOL    HW2 1914   1.640   2.879   2.660 -1.4033  0.5973 -0.7957
  639SOL     OW 1915   0.775   2.184   1.280  0.2095  0.4317 -0.2588
  639SOL    HW1 1916   0.851   2.246   1.286 -0.3684 -2.6387 -0.8468
  639SOL    HW2 1917   0.727   2.210   1.193  1.1597  0.7340  2.1381
  640SOL     OW 1918   0.076   2.601   0.374 -0.2462 -0.4654  0.0250
  640SOL    HW1 1919   0.015   2.533   0.421 -0.2447  0.3628 -0.1446
  640SOL    HW2 1920   0.171   2.591   0.402 -2.7898 -0.2324 -1.7211
  641SOL     OW 1921   0.252   0.466   3.091  0.0567  0.1845  0.2521
  641SOL    HW1 1922   0.342   0.459   0.033 -0.1981 -1.0714  0.8204
  641SOL    HW2 1923   0.266   0.438   2.994 -2.7084  0.4484  0.5910
  642SOL     OW 1924   0.031   0.994   1.009 -0.1085 -0.5627  0.3163
  642SOL    HW1 1925   0.008   0.898   0.993 -0.9572  1.3412 -1.3228
  642SOL    HW2 1926   0.031   1.053   0.920  1.2711  3.5218 -2.8404
  643SOL     OW 1927   0.515   1.714   2.047 -0.1888 -0.1212 -0.9838
  643SOL    HW1 1928   0.613   1.735   2.019  2.6522  3.4862  1.5785
  643SOL    HW2 1929   0.504   1.644   2.119  0.2010 -2.4503 -2.0795
  644SOL     OW 1930   1.779   2.676   0.620 -0.0821  0.2206  0.4831
  644SOL    HW1 1931   1.793   2.580   0.658 -1.4423  1.3705  1.2917
  644SOL    HW2 1932   1.696   2.687   0.566  0.6805 -2.2505  1.5730
  645SOL     OW 1933   1.802   2.373   1.076  0.1410  0.3572  0.2996
  645SOL    HW1 1934   1.834   2.459   1.113  2.7713 -0.9273  0.3282
  645SOL    HW2 1935   1.733   2.395   1.002 -2.7145 -0.5690 -2.2316
  646SOL     OW 1936   1.180   2.824   0.340 -0.3776  0.1124  0.7179
  646SOL    HW1 1937   1.144   2.733   0.313  0.3741 -1.5563 -0.6628
  646SOL    HW2 1938   1.149   2.901   0.276 -1.4168 -1.2750  1.8934
  647SOL     OW 1939   0.488   2.976   1.771  0.0759 -0.1921 -0.0760
  647SOL    HW1 1940   0.415   2.998   1.838  1.1736 -1.1638 -1.3305
  647SOL    HW2 1941   0.490   2.883   1.731  1.5058  1.6580  1.3991
  648SOL     OW 1942   1.818   1.041   1.341 -0.3437  0.1078 -0.3778
  648SOL    HW1 1943   1.891   1.060   1.407  0.8831 -0.4007 -2.7365
  648SOL    HW2 1944   1.847   0.986   1.263 -0.6678 -0.1829 -1.2397
  649SOL     OW 1945   1.727   2.070   2.807 -0.4928 -0.0285  0.4178
  649SOL    HW1 1946   1.813   2.017   2.795  0.3535 -1.8692 -2.1510
  649SOL    HW2 1947   1.724   2.107   2.902  1.2088  2.7894  0.8275
  650SOL     OW 1948   2.378   1.672   1.554 -0.3313 -0.5149  0.1086
  650SOL    HW1 1949   2.332   1.723   1.633  0.6250 -0.1739  1.1681
  650SOL    HW2 1950   2.454   1.608   1.581 -0.2968 -3.5627 -2.5778
  651SOL     OW 1951   1.372   1.846   2.942  0.3591  0.4193  0.2258
  651SOL    HW1 1952   1.437   1.783   2.991  1.8729 -0.9394 -0.0025
  651SOL    HW2 1953   1.413   1.886   2.858  0.5208 -0.4079 -1.4771
  652SOL     OW 1954   0.974   2.878   2.950  0.0021  0.0761 -0.2906
  652SOL    HW1 1955   1.036   2.809   2.909  0.6341  3.0255  1.5467
  652SOL    HW2 1956   1.025   2.966   2.950 -0.1637  1.3045  1.6254
  653SOL     OW 1957   2.172   2.252   1.159 -0.2052 -0.0774  0.0225
  653SOL    HW1 1958   2.097   2.213   1.219  0.2204 -1.2976  0.0433
  653SOL    HW2 1959   2.135   2.274   1.067  0.0550  2.2188 -0.2590
  654SOL     OW 1960   2.737   2.619   1.979  0.2054 -0.3733  0.6828
  654SOL    HW1 1961   2.743   2.588   1.882 -2.9373 -1.1313  0.9797
  654SOL    HW2 1962   2.661   2.570   2.028 -0.4630 -1.2241  0.5492
  655SOL     OW 1963   2.862   2.201   1.014 -0.6505  0.6770 -0.2552
  655SOL    HW1 1964   2.884   2.154   0.926 -1.0855 -0.9512  0.1999
  655SOL    HW2 1965   2.789   2.155   1.070  0.1965  1.1278 -0.1224
  656SOL     OW 1966   0.453   2.548   2.643  0.5749  0.4492 -0.2320
  656SOL    HW1 1967   0.518   2.626   2.624 -1.6850 -0.2922 -4.0015
  656SOL    HW2 1968   0.487   2.462   2.604  0.6660  1.5635 -0.4090
  657SOL     OW 1969   2.935   0.793   0.418 -0.4800 -0.2409  0.7585
  657SOL    HW1 1970   2.977   0.728   0.482 -1.2024  0.9689 -5.1061
  657SOL    HW2 1971   2.895   0.743   0.343 -0.7908  0.3567  2.3694
  658SOL     OW 1972   1.566   1.828   0.937  0.0491 -0.1809 -0.1722
  658SOL    HW1 1973   1.504   1.843   1.017 -1.8852  0.8024 -3.0324
  658SOL    HW2 1974   1.605   1.918   0.908 -1.1339  0.4361  0.0299
  659SOL     OW 1975   1.528   0.536   1.287  0.4156 -0.5573  0.0363
  659SOL    HW1 1976   1.489   0.455   1.330  1.5291 -1.3252 -1.2245
  659SOL    HW2 1977   1.480   0.558   1.197  0.2797  0.1245 -1.5913
  660SOL     OW 1978   1.600   1.194   0.430 -0.0510 -0.2892  0.0448
  660SOL    HW1 1979   1.594   1.090   0.425  2.0471 -1.6279 -0.1975
  660SOL    HW2 1980   1.510   1.249   0.442 -2.8545  2.4927 -1.5976
  661SOL     OW 1981   0.301   1.586   0.196 -0.5170 -0.5363  1.0432
  661SOL    HW1 1982   0.326   1.557   0.098  1.1271 -3.8226 -1.6729
  661SOL    HW2 1983   0.204   1.561   0.219 -1.8747  0.3384 -0.3327
  662SOL     OW 1984   2.881   0.901   2.149 -0.3924  0.3301 -0.4966
  662SOL    HW1 1985   2.818   0.831   2.110  1.2357 -0.3929 -2.1390
  662SOL    HW2 1986   2.817   0.965   2.197 -0.6783  0.6921  1.6141
  663SOL     OW 1987   2.196   1.471   1.342 -0.3118  0.0771 -0.7235
  663SOL    HW1 1988   2.237   1.562   1.331 -1.3582 -0.8652 -0.3099
  663SOL    HW2 1989   2.223   1.444   1.437  0.7133 -0.0855  0.0372
  664SOL     OW 1990   0.627   3.088   1.152 -0.2635  0.3809  0.0515
  664SOL    HW1 1991   0.720   3.055   1.177  1.8953  1.6956 -0.4418
  664SOL    HW2 1992   0.579   0.029   1.232 -1.5137 -1.1782  2.4604
  665SOL     OW 1993   1.156   3.077   2.877  0.5652  0.4112 -0.5247
  665SOL    HW1 1994   1.229   3.083   2.809 -2.2599 -2.0020  2.1527
  665SOL    HW2 1995   1.184   0.023   2.963  0.7618 -0.9866  0.6589
  666SOL     OW 1996   0.405   0.495   2.141  0.1218 -0.4270  0.3847
  666SOL    HW1 1997   0.396   0.538   2.047  1.8198  1.8484  0.6837
  666SOL    HW2 1998   0.318   0.479   2.199 -0.8662 -0.4438  2.8946
  667SOL     OW 1999   1.806   1.472   2.343  0.3381 -0.3210  0.1780
  667SOL    HW1 2000   1.868   1.455   2.264  2.7098  0.7609 -0.5249
  667SOL    HW2 2001   1.821   1.402   2.413  1.2925  0.4067 -1.2460
  668SOL     OW 2002   0.069   1.605   2.561  0.3890  0.5153  0.2892
  668SOL    HW1 2003   0.112   1.513   2.576  1.4050  0.7167  1.8083
  668SOL    HW2 2004   0.045   1.640   2.651  1.0722 -1.5478  0.4497
  669SOL     OW 2005   2.208   2.998   2.525  0.2385  0.1281 -0.8354
  669SOL    HW1 2006   2.302   2.995   2.490 -0.0244 -1.2630  0.6821
  669SOL    HW2 2007   2.198   2.930   2.601  2.7821  1.9915  0.3173
  670SOL     OW 2008   2.525   0.940   2.557 -0.3873 -0.1593  0.1454
  670SOL    HW1 2009   2.593   0.876   2.527  0.4935  2.8905 -0.4335
  670SOL    HW2 2010   2.458   0.898   2.618 -2.1677  0.9993  0.6338
  671SOL     OW 2011   2.525   1.877   3.046  0.5157  0.4630  0.6940
  671SOL    HW1 2012   2.488   1.917   0.023  0.3827 -0.2851 -3.4594
  671SOL    HW2 2013   2.623   1.851   3.066  2.1346  0.5909  2.5755
  672SOL     OW 2014   2.612   1.493   2.184 -0.4012 -0.2257 -0.4862
  672SOL    HW1 2015   2.538   1.450   2.230  1.8608  1.0438  0.1875
  672SOL    HW2 2016   2.606   1.595   2.178  2.0816 -2.4396 -1.6184
  673SOL     OW 2017   3.066   1.387   1.141  0.6600  0.2877  0.1531
  673SOL    HW1 2018   3.059   1.487   1.117  0.1099 -0.0190 -0.7738
  673SOL    HW2 2019   0.059   1.358   1.133 -1.6836  0.5503  2.4425
  674SOL     OW 2020   1.274   1.825   1.958 -0.2817 -0.3353 -0.7834
  674SOL    HW1 2021   1.299   1.928   1.962  0.5011  0.0056 -0.9053
  674SOL    HW2 2022   1.241   1.806   1.861 -1.9340  0.1336  0.5583
  675SOL     OW 2023   2.748   0.425   1.164 -0.1792  0.2344 -0.0357
  675SOL    HW1 2024   2.792   0.414   1.075  0.3432 -2.6276  1.0442
  675SOL    HW2 2025   2.785   0.355   1.229  0.0788 -2.2583  1.8192
  676SOL     OW 2026   2.821   1.256   0.652  0.1348 -0.3151 -0.3193
  676SOL    HW1 2027   2.744   1.290   0.709 -2.1679  1.0404  0.8476
  676SOL    HW2 2028   2.823   1.161   0.632  0.5071  4.4402  1.9098
  677SOL     OW 2029   1.601   1.514   2.156  0.1572  0.0481  0.1353
  677SOL    HW1 2030   1.634   1.500   2.255  1.1926 -0.7362  2.3245
  677SOL    HW2 2031   1.624   1.423   2.107  2.0259 -0.7699  1.3098
  678SOL     OW 2032   2.481   1.417   1.027 -0.1782  0.2371 -0.0879
  678SOL    HW1 2033   2.560   1.473   1.070  1.7403  1.1165  2.0409
  678SOL    HW2 2034   2.443   1.349   1.093 -0.5230  0.0289 -1.8748
  679SOL     OW 2035   0.330   2.568   1.119  0.2397  0.5388 -0.1134
  679SOL    HW1 2036   0.259   2.601   1.055  1.8708 -0.3601 -0.8324
  679SOL    HW2 2037   0.369   2.648   1.167  1.7503  2.8117 -3.8297
  680SOL     OW 2038   2.778   1.805   1.136  0.5485 -0.3170 -0.1013
  680SOL    HW1 2039   2.883   1.804   1.140  3.2011 -2.2465  0.2302
  680SOL    HW2 2040   2.740   1.898   1.156  0.6361  1.1062  0.3966
  681SOL     OW 2041   0.830   0.689   1.287  0.3125  0.0807  0.4956
  681SOL    HW1 2042   0.884   0.663   1.365  0.9834  0.5217 -1.5632
  681SOL    HW2 2043   0.751   0.624   1.270  0.4552 -1.5978  2.5799
  682SOL     OW 2044   1.602   0.051   0.862  0.1423  0.2027  0.0905
  682SOL    HW1 2045   1.633   0.074   0.958 -2.1971  1.1781  0.1076
  682SOL    HW2 2046   1.591   0.136   0.813 -1.6682 -2.1013  0.4597
  683SOL     OW 2047   2.498   1.360   1.711 -0.1330 -0.0910 -0.4319
  683SOL    HW1 2048   2.552   1.403   1.636 -0.7728 -1.7014 -0.6517
  683SOL    HW2 2049   2.540   1.270   1.740 -1.1220  0.2738  2.3694
  684SOL     OW 2050   0.211   1.740   1.435  0.2417 -0.5183  0.1175
  684SOL    HW1 2051   0.143   1.668   1.463  0.2235 -2.1892  1.8734
  684SOL    HW2 2052   0.251   1.791   1.516  4.0826  1.4281  1.1393
  685SOL     OW 2053   2.131   1.689   0.287 -0.3713 -0.3411  0.4377
  685SOL    HW1 2054   2.155   1.722   0.378 -0.8361 -2.5075  0.5177
  685SOL    HW2 2055   2.142   1.589   0.288  0.8307 -2.2129 -0.4598
  686SOL     OW 2056   2.689   0.140   0.791 -0.0010 -0.7344  0.3381
  686SOL    HW1 2057   2.765   0.128   0.862 -0.6850  1.1251  1.0434
  686SOL    HW2 2058   2.727   0.185   0.708  0.7172 -0.4360 -1.2863
  687SOL     OW 2059   1.372   0.022   2.698 -0.6220  0.2071  0.3926
  687SOL    HW1 2060   1.421   0.117   2.699  2.0590  4.2390 -0.4488
  687SOL    HW2 2061   1.446   3.056   2.703  3.0482 -2.0769  1.6906
  688SOL     OW 2062   1.482   1.858   2.463 -0.1724  0.0831 -0.2133
  688SOL    HW1 2063   1.576   1.812   2.471  1.9927  0.0416  0.0043
  688SOL    HW2 2064   1.479   1.904   2.374  1.3338 -2.2859  1.2231
  689SOL     OW 2065   2.777   1.145   1.972 -0.3922  0.1665 -0.0361
  689SOL    HW1 2066   2.788   1.171   2.064  0.6195  0.5050 -3.3048
  689SOL    HW2 2067   2.872   1.120   1.931  0.1156 -2.4502  0.8687
  690SOL     OW 2068   1.916   1.948   1.020 -0.0786  0.4737  0.5465
  690SOL    HW1 2069   1.964   1.917   1.106  3.0897  1.0458 -0.7350
  690SOL    HW2 2070   1.930   1.877   0.945 -1.8846 -2.8036 -2.2835
  691SOL     OW 2071   0.744   1.373   1.077 -0.0768 -0.2920 -0.3860
  691SOL    HW1 2072   0.786   1.321   1.158 -0.5433  2.3640 -2.1424
  691SOL    HW2 2073   0.682   1.311   1.025 -0.4538  2.4268 -0.4906
  692SOL     OW 2074   2.523   2.958   2.183  0.2298  0.1681 -0.1064
  692SOL    HW1 2075   2.450   3.016   2.143 -0.6968  0.6237  1.9569
  692SOL    HW2 2076   2.610   2.963   2.125 -0.6033 -1.6886 -1.3685
  693SOL     OW 2077   2.938   1.580   2.379 -0.5156 -0.5105  0.5961
  693SOL    HW1 2078   3.041   1.585   2.405  4.2904  0.8347  0.2171
  693SOL    HW2 2079   2.927   1.511   2.301  0.5674 -0.6697 -0.3178
  694SOL     OW 2080   1.964   0.361   1.291 -0.1349 -0.5641 -0.2876
  694SOL    HW1 2081   1.937   0.313   1.375 -0.9893  1.3429 -0.6805
  694SOL    HW2 2082   2.045   0.422   1.301  0.6997  1.3794 -0.9683
  695SOL     OW 2083   1.265   1.045   2.885 -0.4010 -1.0207 -0.0276
  695SOL    HW1 2084   1.229   1.098   2.969 -1.2568 -1.1995  0.3376
  695SOL    HW2 2085   1.326   1.103   2.824  1.5236 -0.3516  1.9173
  696SOL     OW 2086   1.895   0.230   1.894  0.0953 -0.2898 -0.1096
  696SOL    HW1 2087   1.837   0.258   1.975 -1.6682 -0.8560 -1.7948
  696SOL    HW2 2088   1.838   0.221   1.810 -0.3917  0.2625  0.2703
  697SOL     OW 2089   1.483   0.270   2.168 -0.1555  0.1724  0.5090
  697SOL    HW1 2090   1.460   0.274   2.267 -2.8856  0.8242  0.9398
  697SOL    HW2 2091   1.579   0.304   2.159  0.4182 -1.0222  0.0757
  698SOL     OW 2092   1.722   1.697   2.475 -0.6689  0.5908 -0.6141
  698SOL    HW1 2093   1.707   1.668   2.572 -1.0108 -3.1782 -0.2062
  698SOL    HW2 2094   1.759   1.620   2.414  1.7461 -0.2394 -1.0020
  699SOL     OW 2095   1.746   0.738   0.406  0.1399  0.2132  0.5805
  699SOL    HW1 2096   1.745   0.720   0.308 -0.5998  0.7755  3.7427
  699SOL    HW2 2097   1.778   0.654   0.451  0.5157  3.0487  1.7361
  700SOL     OW 2098   1.435   3.073   3.093 -0.3290  0.5632  0.0334
  700SOL    HW1 2099   1.455   3.078   0.089 -0.0473  1.6312 -1.0542
  700SOL    HW2 2100   1.353   0.024   3.080  0.0498 -0.4700 -1.3618
  701SOL     OW 2101   0.045   0.407   1.226 -0.0785 -0.1821 -0.1237
  701SOL    HW1 2102   0.013   0.496   1.175 -1.1762  2.7718  0.5447
  701SOL    HW2 2103   0.003   0.328   1.187 -2.3385  1.2007  1.5624
  702SOL     OW 2104   1.837   0.245   1.522  0.2999  0.2364 -0.0650
  702SOL    HW1 2105   1.767   0.283   1.583 -0.5913  1.1387  0.8526
  702SOL    HW2 2106   1.805   0.152   1.489  2.6444  1.4896 -0.5388
  703SOL     OW 2107   2.819   0.660   1.253 -0.6962 -0.5665 -0.5546
  703SOL    HW1 2108   2.796   0.560   1.243 -0.1780 -0.6131  0.4853
  703SOL    HW2 2109   2.754   0.717   1.201  2.4749 -2.7727  1.5819
  704SOL     OW 2110   1.010   2.328   1.250  0.0551  0.5662 -0.5050
  704SOL    HW1 2111   1.114   2.344   1.239 -0.8467 -2.2275 -3.2622
  704SOL    HW2 2112   0.968   2.418   1.280 -2.1396  2.7784  1.5222
  705SOL     OW 2113   0.161   1.712   2.228 -1.1002  0.2790 -0.4049
  705SOL    HW1 2114   0.174   1.704   2.130 -1.5958 -1.1441  3.0031
  705SOL    HW2 2115   0.250   1.740   2.271  0.2514 -0.0134  1.9091
  706SOL     OW 2116   2.643   0.356   2.773 -0.0160  0.7178  0.0693
  706SOL    HW1 2117   2.573   0.280   2.772 -1.9025 -1.7538 -0.6984
  706SOL    HW2 2118   2.703   0.352   2.855  0.5098  0.1385 -1.7849
  707SOL     OW 2119   1.793   2.706   2.323  0.1230  0.1931 -0.0102
  707SOL    HW1 2120   1.866   2.741   2.259 -1.9139  1.1994 -2.2153
  707SOL    HW2 2121   1.710   2.766   2.313 -1.6725 -1.9179  0.3897
  708SOL     OW 2122   0.605   2.488   1.393 -0.0751 -0.0529 -0.2822
  708SOL    HW1 2123   0.519   2.545   1.411 -1.8659  1.8961  0.3073
  708SOL    HW2 2124   0.600   2.392   1.430  1.2253 -3.6985 -0.2004
  709SOL     OW 2125   0.028   0.866   1.790  0.0978  0.7726  0.2015
  709SOL    HW1 2126   0.031   0.873   1.689  1.2537 -2.0685  1.3530
  709SOL    HW2 2127   0.019   0.771   1.826 -0.7195 -0.4085 -1.8401
  710SOL     OW 2128   0.063   0.451   1.494  0.0376 -0.5099 -0.3232
  710SOL    HW1 2129   0.053   0.425   1.399  1.7752  1.5171  1.0105
  710SOL    HW2 2130   3.102   0.529   1.510  1.4620  3.0953  0.4720
  711SOL     OW 2131   3.069   2.579   1.064 -0.2757  0.8372 -0.4488
  711SOL    HW1 2132   3.042   2.510   1.131 -1.4173  0.0702 -1.0891
  711SOL    HW2 2133   0.025   2.543   0.992  0.2829 -0.6107 -0.2781
  712SOL     OW 2134   0.305   0.111   2.329  0.3264  0.2557  0.1106
  712SOL    HW1 2135   0.327   0.025   2.379  1.7656  0.3075  0.7867
  712SOL    HW2 2136   0.269   0.185   2.388 -1.2249  2.4315 -0.8629
  713SOL     OW 2137   2.444   0.277   0.412 -0.4147  0.0633  0.2202
  713SOL    HW1 2138   2.386   0.342   0.367  2.0330 -1.0760 -1.0352
  713SOL    HW2 2139   2.535   0.279   0.364  0.6089  1.5218  0.9285
  714SOL     OW 2140   1.762   1.596   0.137 -0.3858 -0.0095 -1.1235
  714SOL    HW1 2141   1.765   1.684   0.189 -0.7234 -0.1699  1.7939
  714SOL    HW2 2142   1.761   1.512   0.199 -1.0683  1.8856  1.3788
  715SOL     OW 2143   0.023   0.188   0.822  0.0236  0.2879  0.3366
  715SOL    HW1 2144   0.113   0.154   0.847 -2.8659  0.5941  2.0993
  715SOL    HW2 2145   3.048   0.146   0.875 -2.2765 -2.4810  0.1206
  716SOL     OW 2146   1.219   0.554   2.091 -0.4872 -0.1197  0.0817
  716SOL    HW1 2147   1.270   0.469   2.072 -0.1506 -1.1988  0.2978
  716SOL    HW2 2148   1.119   0.532   2.087 -1.2273 -2.2284  1.8107
  717SOL     OW 2149   0.267   0.359   2.839  0.0816  0.1001 -0.2794
  717SOL    HW1 2150   0.209   0.434   2.793 -0.2275  2.5017 -2.9885
  717SOL    HW2 2151   0.339   0.333   2.769 -0.3901 -0.2882 -1.5886
  718SOL     OW 2152   1.081   0.471   0.308 -0.3934 -0.1425  0.6477
  718SOL    HW1 2153   1.107   0.569   0.311  0.7201  1.6775 -1.1084
  718SOL    HW2 2154   1.144   0.434   0.236  2.5230  0.3266  0.9148
  719SOL     OW 2155   2.521   2.304   2.710  0.3067  0.3038 -0.5787
  719SOL    HW1 2156   2.614   2.289   2.671 -0.9168 -0.5788 -2.5623
  719SOL    HW2 2157   2.455   2.302   2.629  2.7576 -2.0293 -1.5313
  720SOL     OW 2158   1.165   0.944   1.388 -0.5915  0.5422  0.5197
  720SOL    HW1 2159   1.219   0.996   1.455 -0.1476 -0.4952 -0.1126
  720SOL    HW2 2160   1.202   0.848   1.378  2.4134  0.7827 -0.5874
  721SOL     OW 2161   0.012   2.764   1.353  0.1355 -0.0436 -0.3541
  721SOL    HW1 2162   0.049   2.670   1.337 -1.2795 -3.6358 -3.0079
  721SOL    HW2 2163   0.076   2.839   1.346 -1.5356 -1.2365  0.0173
  722SOL     OW 2164   0.880   1.594   2.921 -0.1384  0.8345 -0.2160
  722SOL    HW1 2165   0.817   1.516   2.939 -1.2034 -0.1619  1.5716
  722SOL    HW2 2166   0.877   1.658   3.002 -0.0303 -0.7323  0.2213
  723SOL     OW 2167   2.088   0.355   0.555 -0.4306  0.7401  0.2164
  723SOL    HW1 2168   2.017   0.283   0.570  0.7833  0.5885 -0.4182
  723SOL    HW2 2169   2.184   0.321   0.581  0.6439 -3.0518 -0.1186
  724SOL     OW 2170   0.761   2.367   2.969 -0.5588 -0.5439  0.6326
  724SOL    HW1 2171   0.844   2.324   3.005 -0.1637  2.1350  1.6472
  724SOL    HW2 2172   0.714   2.430   3.036  1.0469 -0.3394  1.1106
  725SOL     OW 2173   0.220   0.989   1.199 -0.0104 -0.0120 -0.6829
  725SOL    HW1 2174   0.135   0.998   1.144  0.8622  0.3807  1.6527
  725SOL    HW2 2175   0.294   1.033   1.148  1.4140 -1.1139  0.6010
  726SOL     OW 2176   2.557   0.676   0.600  0.0471 -0.1500 -0.1439
  726SOL    HW1 2177   2.577   0.775   0.566  0.3467  1.2373 -0.1747
  726SOL    HW2 2178   2.465   0.662   0.646 -1.5259 -1.4652  4.5226
  727SOL     OW 2179   1.847   1.266   2.561 -0.1945  0.2705 -0.1840
  727SOL    HW1 2180   1.928   1.322   2.572 -0.0721 -0.1930  1.3664
  727SOL    HW2 2181   1.858   1.171   2.600 -0.4641 -2.6332 -0.0619
  728SOL     OW 2182   1.803   3.051   1.480 -0.2987  0.2740 -0.0343
  728SOL    HW1 2183   1.867   3.025   1.553 -2.7065  1.6608 -0.4998
  728SOL    HW2 2184   1.729   2.979   1.460 -2.3206 -1.3066 -0.6940
  729SOL     OW 2185   2.353   0.769   2.238  0.0317  0.2466  0.0858
  729SOL    HW1 2186   2.391   0.738   2.150  1.1455 -0.9270 -1.2019
  729SOL    HW2 2187   2.317   0.861   2.237  1.7772  1.1060  0.8461
  730SOL     OW 2188   0.988   0.586   1.502  0.2274  0.0389 -0.3189
  730SOL    HW1 2189   0.935   0.573   1.588  0.9491  0.1569  2.2155
  730SOL    HW2 2190   1.080   0.618   1.522 -4.3099 -1.8318 -0.7641
  731SOL     OW 2191   0.177   0.171   0.295  0.3559 -0.0390  0.3372
  731SOL    HW1 2192   0.112   0.196   0.219  2.8044  1.6123  0.5977
  731SOL    HW2 2193   0.199   0.253   0.354 -0.3430  1.3916 -0.9308
  732SOL     OW 2194   0.217   0.403   0.440  0.0458  0.0938 -0.5301
  732SOL    HW1 2195   0.274   0.489   0.432 -0.7341  2.5172  0.6952
  732SOL    HW2 2196   0.119   0.410   0.413  0.8044 -2.4678  2.0300
  733SOL     OW 2197   1.689   1.691   2.749 -0.4314  0.0259 -0.7013
  733SOL    HW1 2198   1.784   1.717   2.750 -1.5849 -1.3698  2.0176
  733SOL    HW2 2199   1.660   1.670   2.845  1.8354 -0.7204 -1.7652
  734SOL     OW 2200   0.007   1.852   2.434  0.2505  0.1848 -0.3479
  734SOL    HW1 2201   0.046   1.824   2.346  0.8336 -0.3635 -0.9362
  734SOL    HW2 2202   0.023   1.781   2.502 -1.7594 -1.6513  0.5367
  735SOL     OW 2203   1.932   0.703   1.280 -0.0845  0.4503 -0.8653
  735SOL    HW1 2204   2.010   0.660   1.325 -3.0190  1.6715  0.0459
  735SOL    HW2 2205   1.855   0.711   1.344  0.6840 -2.3239  0.7992
  736SOL     OW 2206   1.138   1.180   3.084  0.5648 -0.0840 -0.0766
  736SOL    HW1 2207   1.066   1.236   0.026 -1.3381 -0.2801  0.7193
  736SOL    HW2 2208   1.220   1.173   0.035 -2.7521  1.9601 -4.0703
  737SOL     OW 2209   3.068   0.212   0.569 -0.1135 -0.0773  0.6092
  737SOL    HW1 2210   3.098   0.128   0.527  2.4281  3.5386  1.8491
  737SOL    HW2 2211   3.095   0.207   0.669 -0.4709  0.6284  1.7341
  738SOL     OW 2212   0.650   2.162   1.767 -0.2807  0.6158 -0.3894
  738SOL    HW1 2213   0.624   2.195   1.677 -1.6759 -0.6120 -1.5435
  738SOL    HW2 2214   0.682   2.066   1.757 -0.2901 -0.5908  1.2693
  739SOL     OW 2215   1.162   2.784   2.534 -0.1666 -0.0099  0.0292
  739SOL    HW1 2216   1.134   2.765   2.629  2.6320  4.2561  3.6304
  739SOL    HW2 2217   1.252   2.740   2.511 -1.5631  2.0667  1.0396
  740SOL     OW 2218   2.004   2.604   1.584  0.3993  0.4402  0.3776
  740SOL    HW1 2219   1.946   2.523   1.557 -0.0224 -0.5249 -0.5280
  740SOL    HW2 2220   2.066   2.577   1.660  0.8194  0.8341  0.8018
  741SOL     OW 2221   2.205   0.717   0.305  0.2011 -0.5751 -0.2687
  741SOL    HW1 2222   2.303   0.736   0.340  0.6285  2.5505 -0.3316
  741SOL    HW2 2223   2.153   0.776   0.374  0.1954 -0.8589  3.0548
  742SOL     OW 2224   1.023   2.640   0.011 -0.5119 -0.0236 -0.1372
  742SOL    HW1 2225   0.995   2.703   3.042 -0.6604  0.7071 -1.3012
  742SOL    HW2 2226   1.111   2.591   3.098 -0.1038 -0.1937 -0.5148
  743SOL     OW 2227   2.499   0.728   2.010 -0.0256 -0.1507 -0.0875
  743SOL    HW1 2228   2.493   0.830   2.003  0.0741  0.4553  0.9191
  743SOL    HW2 2229   2.443   0.676   1.938 -0.5451 -0.0082 -0.9623
  744SOL     OW 2230   2.492   0.312   0.845 -0.0788 -0.0307 -0.0109
  744SOL    HW1 2231   2.411   0.277   0.795  0.9822  1.9385 -2.1082
  744SOL    HW2 2232   2.576   0.253   0.829  0.4047 -1.7802 -2.8810
  745SOL     OW 2233   2.621   1.124   1.735  0.1798 -0.2671 -0.0683
  745SOL    HW1 2234   2.640   1.046   1.677  1.4279  0.9610  2.4134
  745SOL    HW2 2235   2.681   1.117   1.815 -0.7707 -1.1094  1.3679
  746SOL     OW 2236   1.419   1.397   0.731  0.2283 -0.5878 -0.0223
  746SOL    HW1 2237   1.436   1.500   0.738 -0.7556  1.2975  0.7800
  746SOL    HW2 2238   1.334   1.370   0.787  0.2283  1.9531  1.0056
  747SOL     OW 2239   1.526   1.761   1.701 -0.2224 -0.5359 -0.1301
  747SOL    HW1 2240   1.509   1.861   1.712 -2.3640  3.4384  0.4695
  747SOL    HW2 2241   1.459   1.719   1.639  1.4628 -1.9664  2.6673
  748SOL     OW 2242   0.399   2.889   3.058  0.0684 -0.1929  0.2460
  748SOL    HW1 2243   0.438   2.801   3.024 -2.3663 -2.1500  0.5238
  748SOL    HW2 2244   0.358   2.879   0.046  1.5069  1.0603  1.9125
  749SOL     OW 2245   0.223   1.186   2.431 -0.1899  0.0912  0.2840
  749SOL    HW1 2246   0.241   1.109   2.362  0.5952 -0.1315 -0.0763
  749SOL    HW2 2247   0.307   1.240   2.450  1.9845 -0.7422 -1.3766
  750SOL     OW 2248   1.800   0.759   2.381 -0.3475  0.5067  0.2365
  750SOL    HW1 2249   1.876   0.738   2.311 -2.1765  0.8303  0.0784
  750SOL    HW2 2250   1.739   0.829   2.337  1.0712 -0.4322 -0.8553
  751SOL     OW 2251   2.458   0.781   0.287 -0.2581  1.0790  0.4145
  751SOL    HW1 2252   2.495   0.693   0.257  2.4693 -1.4008 -0.9583
  751SOL    HW2 2253   2.516   0.818   0.362  0.3295 -0.5947  2.0254
  752SOL     OW 2254   0.255   2.240   0.773 -0.1627  0.5183 -0.3375
  752SOL    HW1 2255   0.192   2.155   0.759 -1.4036 -0.6104  0.6826
  752SOL    HW2 2256   0.316   2.216   0.846 -1.7136 -0.4521  0.6832
  753SOL     OW 2257   1.301   2.536   1.189 -0.2874  0.5710 -0.0625
  753SOL    HW1 2258   1.306   2.437   1.194 -2.5898  2.0043 -2.6077
  753SOL    HW2 2259   1.250   2.569   1.111  1.0739  2.0673  0.9074
  754SOL     OW 2260   0.268   3.020   1.934  0.1094 -0.0251 -0.1816
  754SOL    HW1 2261   0.223   2.945   1.986 -1.7495  1.8383 -1.7900
  754SOL    HW2 2262   0.199   3.069   1.878  0.2502 -2.7824  0.1177
  755SOL     OW 2263   2.045   0.854   0.465  0.3659 -0.3587  0.1074
  755SOL    HW1 2264   1.952   0.823   0.440  0.9470  1.9100  0.4989
  755SOL    HW2 2265   2.056   0.857   0.568 -0.2821  2.4583  0.3718
  756SOL     OW 2266   2.072   2.329   2.556  0.1057 -0.4942  0.2185
  756SOL    HW1 2267   2.064   2.318   2.659 -0.3601 -1.4126 -0.7064
  756SOL    HW2 2268   2.022   2.417   2.525 -3.3174  2.8501 -1.0811
  757SOL     OW 2269   1.891   0.484   0.403 -0.5393 -0.4211 -0.2369
  757SOL    HW1 2270   1.910   0.488   0.300  0.1882 -1.9647 -2.4209
  757SOL    HW2 2271   1.970   0.442   0.449 -1.2034 -0.6000 -2.0268
  758SOL     OW 2272   2.145   0.549   1.362 -0.2391 -0.3798  0.1955
  758SOL    HW1 2273   2.197   0.491   1.429 -1.5833 -0.2957  0.7746
  758SOL    HW2 2274   2.201   0.578   1.282 -0.0244  0.3009 -1.4213
  759SOL     OW 2275   2.262   0.622   1.135  0.4771 -0.3515  0.7444
  759SOL    HW1 2276   2.357   0.586   1.136 -0.2274 -0.4179  0.9364
  759SOL    HW2 2277   2.211   0.583   1.057  0.5872  0.5628 -0.1385
  760SOL     OW 2278   2.352   1.274   1.228  0.3499 -0.2589 -0.2967
  760SOL    HW1 2279   2.285   1.349   1.252 -2.8958 -2.8781 -1.7125
  760SOL    HW2 2280   2.314   1.178   1.221 -0.3224 -0.6073  0.5978
  761SOL     OW 2281   0.591   0.336   0.326  0.4855  0.0252  0.4249
  761SOL    HW1 2282   0.688   0.370   0.337 -1.0167 -4.2520 -2.1194
  761SOL    HW2 2283   0.588   0.234   0.338  0.9978  0.7389  2.3777
  762SOL     OW 2284   0.958   1.866   1.094 -0.4513 -0.7383 -0.2622
  762SOL    HW1 2285   1.005   1.777   1.081 -3.5576  0.4120 -3.5930
  762SOL    HW2 2286   0.921   1.883   1.188  0.1739 -0.3175 -0.1012
  763SOL     OW 2287   1.396   1.076   1.553 -0.1048 -0.2344  0.0319
  763SOL    HW1 2288   1.441   1.013   1.623  3.0358 -4.3365  1.8659
  763SOL    HW2 2289   1.472   1.113   1.496  2.3936 -1.3291  0.0493
  764SOL     OW 2290   0.460   1.596   2.614 -0.3166 -0.0025 -0.3754
  764SOL    HW1 2291   0.390   1.666   2.596  0.6011  0.4222  0.9900
  764SOL    HW2 2292   0.544   1.640   2.645 -0.6918  0.6908 -2.2420
  765SOL     OW 2293   1.025   2.627   1.288 -0.6171 -0.8405 -0.0647
  765SOL    HW1 2294   0.932   2.674   1.277 -1.7222 -0.9131 -1.2934
  765SOL    HW2 2295   1.087   2.656   1.210  1.4845  1.3888  0.4382
  766SOL     OW 2296   2.806   2.290   2.640  0.1313  0.2217  0.1733
  766SOL    HW1 2297   2.861   2.348   2.701 -0.7083  0.4585  0.7123
  766SOL    HW2 2298   2.788   2.333   2.549 -2.2269 -3.2954 -0.9663
  767SOL     OW 2299   1.163   1.088   2.602  0.9003  0.1989  0.1343
  767SOL    HW1 2300   1.249   1.083   2.654 -0.3731 -1.6834 -2.9159
  767SOL    HW2 2301   1.166   1.167   2.535  1.4453  2.1422  0.4375
  768SOL     OW 2302   1.313   1.951   0.088  0.0386  0.1847 -0.0476
  768SOL    HW1 2303   1.322   1.914   3.097  0.2684  0.8883  0.8328
  768SOL    HW2 2304   1.369   1.897   0.152 -0.8022 -0.7523 -0.8101
  769SOL     OW 2305   0.360   2.166   1.344 -0.0891 -0.2156  0.2788
  769SOL    HW1 2306   0.322   2.240   1.283  0.6079 -1.1385 -1.9399
  769SOL    HW2 2307   0.298   2.085   1.355 -3.3763 -1.0693 -0.6107
  770SOL     OW 2308   1.415   1.165   2.686  0.2394  0.1312 -0.1535
  770SOL    HW1 2309   1.508   1.162   2.722  0.4571  0.7007  0.6755
  770SOL    HW2 2310   1.421   1.165   2.584  0.7021 -0.2419 -0.6346
  771SOL     OW 2311   0.133   2.857   2.113 -0.4026  0.1433  0.3087
  771SOL    HW1 2312   0.220   2.807   2.130  0.4522 -2.7252 -1.8257
  771SOL    HW2 2313   0.055   2.797   2.135  0.2916  0.9471 -1.2617
  772SOL     OW 2314   2.467   2.192   1.791  0.5290 -0.8729  0.0069
  772SOL    HW1 2315   2.471   2.294   1.773  1.7666  0.7396  0.4611
  772SOL    HW2 2316   2.383   2.151   1.759  0.0673  0.2108  2.6135
  773SOL     OW 2317   0.550   1.744   1.648  0.1621 -0.0447 -0.4956
  773SOL    HW1 2318   0.448   1.742   1.664 -1.0467 -1.4354  0.8995
  773SOL    HW2 2319   0.602   1.812   1.707  0.1695  1.3342  1.2504
  774SOL     OW 2320   1.229   0.428   2.533 -0.1792 -0.4104  0.1042
  774SOL    HW1 2321   1.172   0.344   2.527 -1.1906  2.1222  1.1732
  774SOL    HW2 2322   1.228   0.460   2.632 -3.7903  1.2651  1.8636
  775SOL     OW 2323   2.066   2.829   2.958 -0.1340 -0.1340 -0.0419
  775SOL    HW1 2324   1.980   2.888   2.966 -0.2322 -0.6116 -1.7565
  775SOL    HW2 2325   2.109   2.837   2.865 -0.7292 -1.9231 -0.9524
  776SOL     OW 2326   0.012   0.631   1.911 -0.1625  0.0598 -0.5423
  776SOL    HW1 2327   3.023   0.591   1.917  0.8720  0.4567 -0.9392
  776SOL    HW2 2328   0.072   0.559   1.957 -0.5576 -3.1749  0.1031
  777SOL     OW 2329   2.429   2.132   2.081 -0.0944  0.6555 -0.0849
  777SOL    HW1 2330   2.439   2.033   2.099  1.5016 -1.2275  2.2164
  777SOL    HW2 2331   2.428   2.147   1.980  2.5083  0.2752 -0.9720
  778SOL     OW 2332   1.980   1.125   2.281  0.8192 -0.1577 -0.6374
  778SOL    HW1 2333   1.975   1.208   2.221  0.4885 -0.5052 -1.3184
  778SOL    HW2 2334   1.887   1.088   2.315 -3.2236 -3.3326  0.8066
  779SOL     OW 2335   2.488   1.160   0.396 -0.4326 -0.4231  0.3344
  779SOL    HW1 2336   2.530   1.248   0.358 -0.2022  0.5785 -1.1964
  779SOL    HW2 2337   2.409   1.135   0.340  1.0298  0.7960 -0.7213
  780SOL     OW 2338   2.405   0.365   3.034  0.1515 -0.3484  0.0783
  780SOL    HW1 2339   2.367   0.375   2.940  1.4999  1.4627 -0.3856
  780SOL    HW2 2340   2.375   0.276   3.075  0.2162  0.8682 -1.8346
  781SOL     OW 2341   0.151   1.968   1.293 -0.2092 -0.2458 -0.1431
  781SOL    HW1 2342   0.083   2.010   1.363 -0.5250  1.1546  0.3825
  781SOL    HW2 2343   0.177   1.871   1.320  0.6835 -2.8848 -2.4379
  782SOL     OW 2344   2.349   2.424   2.886 -0.3816  0.0698 -0.7508
  782SOL    HW1 2345   2.412   2.389   2.817  1.5666  0.8190  0.0628
  782SOL    HW2 2346   2.331   2.352   2.962  0.6990 -0.9182  1.0971
  783SOL     OW 2347   0.445   1.315   1.331 -0.3244 -0.8900  0.3216
  783SOL    HW1 2348   0.493   1.277   1.413  1.6037 -1.0298 -0.7072
  783SOL    HW2 2349   0.437   1.416   1.345  0.2997 -1.5317  0.0295
  784SOL     OW 2350   1.669   0.504   2.999  0.2166 -0.0913 -0.7194
  784SOL    HW1 2351   1.748   0.544   2.950 -1.4202  2.2188 -1.0762
  784SOL    HW2 2352   1.687   0.412   3.032 -1.4137 -1.4586 -0.7483
  785SOL     OW 2353   2.537   2.799   0.780 -0.1647 -0.0097  0.2413
  785SOL    HW1 2354   2.588   2.760   0.858  1.1613  0.2550 -1.8466
  785SOL    HW2 2355   2.585   2.781   0.694  0.1723  0.5498 -0.7553
  786SOL     OW 2356   0.871   2.189   2.110  0.1049 -0.0683  0.2368
  786SOL    HW1 2357   0.902   2.129   2.035  1.8439  1.2403  0.4178
  786SOL    HW2 2358   0.917   2.162   2.199  3.6130 -1.7523 -0.6545
  787SOL     OW 2359   1.227   1.047   1.143  0.0113  0.0833  0.1717
  787SOL    HW1 2360   1.198   1.021   1.237  0.2881  0.2771  0.6072
  787SOL    HW2 2361   1.330   1.035   1.135  1.9124  1.5677  0.1935
  788SOL     OW 2362   2.996   0.549   0.595  0.0571  0.4767  0.1479
  788SOL    HW1 2363   3.058   0.529   0.675 -1.4137  2.6203  2.1107
  788SOL    HW2 2364   3.031   0.508   0.508 -2.9630 -0.4614  1.2823
  789SOL     OW 2365   3.031   1.943   1.135  0.8876 -0.0904 -0.1637
  789SOL    HW1 2366   2.989   2.026   1.105  0.5427 -1.7318  1.7864
  789SOL    HW2 2367   0.010   1.957   1.191 -0.0684 -0.9188  0.8280
  790SOL     OW 2368   1.060   0.625   2.359 -0.0995 -0.1593  0.0981
  790SOL    HW1 2369   1.096   0.542   2.409  1.0705  2.3887  0.2471
  790SOL    HW2 2370   1.097   0.706   2.406  0.5619 -0.6666  1.9022
  791SOL     OW 2371   1.419   0.506   0.378  0.4048 -0.5422  0.0786
  791SOL    HW1 2372   1.444   0.433   0.311  2.8318  2.4531 -2.0968
  791SOL    HW2 2373   1.370   0.463   0.456 -1.5373 -2.3870 -1.8484
  792SOL     OW 2374   1.604   2.900   1.830  0.0363  0.1035 -0.0369
  792SOL    HW1 2375   1.539   2.848   1.894 -1.7029 -0.8364  1.2345
  792SOL    HW2 2376   1.624   2.836   1.751 -0.7644 -2.4110 -0.6329
  793SOL     OW 2377   1.203   0.602   0.803  0.5422 -1.3737 -0.1431
  793SOL    HW1 2378   1.220   0.703   0.809  0.7857  2.1000  0.2148
  793SOL    HW2 2379   1.251   0.560   0.728 -0.2884  0.5698  2.8776
  794SOL     OW 2380   0.542   0.876   1.957  0.0636 -0.1175  0.2348
  794SOL    HW1 2381   0.447   0.896   1.919 -0.5824  2.0669 -1.1976
  794SOL    HW2 2382   0.596   0.966   1.965 -0.5885  1.1826  0.2190
  795SOL     OW 2383   0.278   2.012   2.155  0.3220  0.3990 -0.4736
  795SOL    HW1 2384   0.301   1.962   2.241 -0.0859 -0.7200  1.6894
  795SOL    HW2 2385   0.327   2.100   2.165 -1.1437 -2.2493  2.6535
  796SOL     OW 2386   2.502   1.024   2.084 -0.0770 -0.0919  0.1547
  796SOL    HW1 2387   2.494   1.048   2.178  1.1696 -1.6086 -2.5668
  796SOL    HW2 2388   2.592   1.050   2.051 -0.7219  2.2876  2.1685
  797SOL     OW 2389   2.938   2.427   2.860 -0.5060 -0.4022  0.2834
  797SOL    HW1 2390   2.884   2.506   2.827 -0.9664 -0.6568 -0.4580
  797SOL    HW2 2391   2.887   2.385   2.939  1.7664  1.3885 -0.1351
  798SOL     OW 2392   3.088   2.346   2.091  0.0200  0.5278  0.1748
  798SOL    HW1 2393   0.057   2.363   2.025  1.9234  1.4074 -2.4178
  798SOL    HW2 2394   3.098   2.247   2.121 -0.4190  0.5375 -0.0701
  799SOL     OW 2395   0.568   2.241   2.829  0.1099  0.1439 -0.1609
  799SOL    HW1 2396   0.608   2.293   2.904 -0.0803 -2.4996 -1.0779
  799SOL    HW2 2397   0.466   2.231   2.845  0.6811 -1.3419 -1.7302
  800SOL     OW 2398   0.896   1.799   0.030  0.1676 -0.1585 -0.6461
  800SOL    HW1 2399   0.832   1.750   0.095  0.3888  0.1403  4.2135
  800SOL    HW2 2400   0.954   1.865   0.080 -2.0664 -1.6038 -1.0854
  801SOL     OW 2401   1.674   1.429   1.540  0.3334  0.3887  0.1367
  801SOL    HW1 2402   1.764   1.380   1.558 -0.5396  0.7825 -1.2913
  801SOL    HW2 2403   1.628   1.449   1.630 -0.6314  0.6429  1.3481
  802SOL     OW 2404   2.882   1.278   0.386  0.5738  0.1185 -0.1200
  802SOL    HW1 2405   2.866   1.284   0.489  0.3219  2.3704  3.7633
  802SOL    HW2 2406   2.847   1.184   0.351 -0.2161 -2.0556  1.0517
  803SOL     OW 2407   0.955   1.722   2.684 -0.0952  0.0637  0.3584
  803SOL    HW1 2408   0.898   1.661   2.749  0.3614  0.5239  1.2412
  803SOL    HW2 2409   1.022   1.768   2.747  0.1874  2.5683 -2.0106
  804SOL     OW 2410   1.781   1.405   0.315  0.2993 -0.2539  0.4429
  804SOL    HW1 2411   1.720   1.341   0.367  0.6443  1.0760  1.7949
  804SOL    HW2 2412   1.838   1.460   0.383 -0.1044 -2.2070 -0.0039
  805SOL     OW 2413   2.562   1.666   2.642  0.3482  0.1554  0.1419
  805SOL    HW1 2414   2.553   1.745   2.703  1.3638 -3.3997 -0.7459
  805SOL    HW2 2415   2.656   1.621   2.637  4.1198 -0.7633  1.4053
  806SOL     OW 2416   0.471   2.936   0.496  0.1167 -0.1013  0.1565
  806SOL    HW1 2417   0.379   2.951   0.536 -0.9868  0.9869  0.0874
  806SOL    HW2 2418   0.534   2.893   0.564  0.8782  1.1254  0.6951
  807SOL     OW 2419   1.940   1.566   2.805  0.4688 -0.4402  0.9184
  807SOL    HW1 2420   1.950   1.598   2.901  0.0965  0.9059 -1.7734
  807SOL    HW2 2421   1.899   1.473   2.812 -1.1899 -0.8131 -0.3967
  808SOL     OW 2422   0.307   1.580   0.743  0.1031 -0.2770 -0.3805
  808SOL    HW1 2423   0.393   1.536   0.712 -0.5929 -1.6444  0.2555
  808SOL    HW2 2424   0.291   1.560   0.839  3.3352 -2.4656 -2.1029
  809SOL     OW 2425   2.348   1.020   0.164  0.1289 -0.3531 -0.2067
  809SOL    HW1 2426   2.360   0.997   0.065 -2.3810  3.6023 -1.6412
  809SOL    HW2 2427   2.363   0.937   0.220  3.8499 -3.2516  1.3005
  810SOL     OW 2428   0.588   1.004   0.326  0.2076  0.2657 -0.4626
  810SOL    HW1 2429   0.615   1.072   0.260  1.3534 -0.9313 -0.7897
  810SOL    HW2 2430   0.485   0.986   0.325 -2.1743  0.1428 -0.2612
  811SOL     OW 2431   1.447   2.374   1.448  0.5396 -0.1965 -0.0943
  811SOL    HW1 2432   1.399   2.443   1.390  0.8810  0.3870  0.4190
  811SOL    HW2 2433   1.546   2.369   1.432 -0.3447  0.9457  2.3684
  812SOL     OW 2434   0.970   2.631   1.901  0.8241  0.3522 -0.0208
  812SOL    HW1 2435   1.053   2.638   1.839  1.8537  1.9974 -1.4126
  812SOL    HW2 2436   0.990   2.546   1.958 -1.1039  0.0543  2.4315
  813SOL     OW 2437   1.230   0.049   1.913 -0.1275  0.5246 -0.2702
  813SOL    HW1 2438   1.239   0.133   1.971 -0.9841  1.6898  0.4388
  813SOL    HW2 2439   1.149   3.095   1.926  0.2527 -0.0882  2.8009
  814SOL     OW 2440   1.259   2.428   2.788 -0.0593 -0.0946 -0.4810
  814SOL    HW1 2441   1.321   2.444   2.711 -2.2622 -0.3060  1.3634
  814SOL    HW2 2442   1.187   2.363   2.752 -1.5012 -0.5856  1.3726
  815SOL     OW 2443   0.634   0.268   2.405 -0.4044 -0.1088 -0.6264
  815SOL    HW1 2444   0.572   0.289   2.484 -2.0080 -0.3469 -1.2483
  815SOL    HW2 2445   0.705   0.341   2.386  0.3437  0.6376 -0.6405
  816SOL     OW 2446   2.002   0.417   3.024  0.1450 -0.7953 -0.1405
  816SOL    HW1 2447   2.037   0.512   2.993  0.7837  0.8736 -1.7900
  816SOL    HW2 2448   1.985   0.354   2.946 -1.0575 -0.5593 -2.2080
  817SOL     OW 2449   2.249   0.347   2.386  0.4547 -0.0588 -0.2300
  817SOL    HW1 2450   2.327   0.303   2.343 -0.7821  2.5739 -2.9266
  817SOL    HW2 2451   2.269   0.446   2.399 -0.1705  0.6971  1.0331
  818SOL     OW 2452   1.743   0.287   0.070  0.2178  0.6018 -0.3949
  818SOL    HW1 2453   1.809   0.351   0.117  2.7813  0.3992 -0.9301
  818SOL    HW2 2454   1.792   0.197   0.070  0.0303  2.2320  0.1848
  819SOL     OW 2455   2.233   1.689   2.711 -0.5696  0.1461 -0.5287
  819SOL    HW1 2456   2.148   1.641   2.740  0.1406 -2.2353 -0.1619
  819SOL    HW2 2457   2.286   1.694   2.801  0.2401 -1.2548  2.7749
  820SOL     OW 2458   0.145   1.839   3.007  0.0364  0.2819 -0.2438
  820SOL    HW1 2459   0.158   1.936   2.991 -1.6224 -0.8387 -0.2139
  820SOL    HW2 2460   0.236   1.800   3.019  0.7101  3.8451 -0.9705
  821SOL     OW 2461   0.195   2.962   1.057 -0.5370 -0.0215 -0.4063
  821SOL    HW1 2462   0.292   2.986   1.030 -1.8441  0.9248 -0.2329
  821SOL    HW2 2463   0.139   2.960   0.972  0.4155  3.7304  0.9852
  822SOL     OW 2464   2.764   2.748   0.084  0.1031 -0.2444  0.6020
  822SOL    HW1 2465   2.765   2.677   0.157 -1.2252 -0.7218  0.0684
  822SOL    HW2 2466   2.854   2.794   0.077 -0.4634 -1.7119 -0.2476
  823SOL     OW 2467   1.250   0.503   2.805 -0.1249  0.1302  0.2483
  823SOL    HW1 2468   1.249   0.468   2.903  1.3340  0.0231 -1.2745
  823SOL    HW2 2469   1.350   0.525   2.787  1.3394  0.5688 -1.6241
  824SOL     OW 2470   2.711   1.956   1.805 -0.2811  0.2852 -0.2200
  824SOL    HW1 2471   2.693   1.890   1.885 -3.8176 -1.0008  3.0349
  824SOL    HW2 2472   2.650   2.041   1.813  1.3365  0.2942  2.1191
  825SOL     OW 2473   0.032   2.124   2.529  0.1716 -0.0294 -0.3741
  825SOL    HW1 2474   0.011   2.028   2.502 -0.4339 -0.9799  2.6354
  825SOL    HW2 2475   3.097   2.187   2.463 -1.3734  4.4410  0.8834
  826SOL     OW 2476   2.357   1.454   2.287 -0.6608 -0.4183  0.8022
  826SOL    HW1 2477   2.328   1.359   2.299 -1.2738  1.7903  0.5538
  826SOL    HW2 2478   2.315   1.506   2.365 -1.3152 -0.0362  2.7891
  827SOL     OW 2479   2.327   2.409   1.335  0.0799 -0.5728  0.4495
  827SOL    HW1 2480   2.289   2.353   1.259  2.6833  4.3377  2.0223
  827SOL    HW2 2481   2.283   2.502   1.339  0.7293 -1.3177 -2.1504
  828SOL     OW 2482   0.103   3.004   1.463 -0.3028 -0.2535 -0.4050
  828SOL    HW1 2483   0.063   2.935   1.525 -1.1691 -0.8444  1.5829
  828SOL    HW2 2484   0.149   3.068   1.529 -2.2488  0.5541 -1.6067
  829SOL     OW 2485   1.439   2.471   2.588 -0.1342 -0.5957  0.0682
  829SOL    HW1 2486   1.527   2.423   2.626  3.1053 -1.9008 -1.2406
  829SOL    HW2 2487   1.425   2.450   2.488 -0.0443  0.3743 -0.6613
  830SOL     OW 2488   0.743   0.341   0.857  0.2215  0.1114 -0.1646
  830SOL    HW1 2489   0.759   0.244   0.885 -0.9377 -0.1236 -1.9313
  830SOL    HW2 2490   0.811   0.408   0.888 -0.2223  1.8000  2.4803
  831SOL     OW 2491   2.883   1.401   3.041  0.2315 -0.1419 -0.1931
  831SOL    HW1 2492   2.973   1.412   3.094  3.5619 -0.4999  0.9712
  831SOL    HW2 2493   2.902   1.405   2.942  1.1105  0.6487  2.1544
  832SOL     OW 2494   1.526   1.936   2.192  0.1712  0.2925  0.2577
  832SOL    HW1 2495   1.444   1.997   2.197 -2.7957 -0.9282 -1.4550
  832SOL    HW2 2496   1.593   1.975   2.126  2.2109 -1.3663 -3.8594
  833SOL     OW 2497   0.652   0.355   2.138 -0.1598 -0.3541  0.4334
  833SOL    HW1 2498   0.659   0.290   2.219 -0.5367 -0.3571 -1.5787
  833SOL    HW2 2499   0.560   0.392   2.127  1.7069 -1.0159 -1.0675
  834SOL     OW 2500   0.496   0.995   1.562 -0.0114  0.5497  0.7510
  834SOL    HW1 2501   0.468   0.913   1.509  2.2936  2.0922 -0.3978
  834SOL    HW2 2502   0.579   0.963   1.610  0.2584 -0.5273  1.3918
  835SOL     OW 2503   2.787   1.066   3.096 -0.4032 -0.0703 -0.6608
  835SOL    HW1 2504   2.804   0.967   3.087 -1.8324  1.5017  1.4144
  835SOL    HW2 2505   2.707   1.101   3.043  2.0796 -1.8055 -0.5471
  836SOL     OW 2506   1.044   1.989   0.139  0.1981  0.1317  0.2176
  836SOL    HW1 2507   1.038   2.039   0.231  3.3468 -0.2878 -2.6262
  836SOL    HW2 2508   1.146   1.969   0.118  0.4569 -2.4813 -1.0295
  837SOL     OW 2509   1.749   1.646   0.846 -0.4730  0.3620  0.4249
  837SOL    HW1 2510   1.835   1.686   0.811 -0.1817  1.4338 -0.6973
  837SOL    HW2 2511   1.678   1.715   0.875  1.0187  1.1322 -0.1205
  838SOL     OW 2512   1.233   1.155   2.203 -0.3147 -0.2212 -0.3814
  838SOL    HW1 2513   1.144   1.112   2.228 -0.8733 -2.6749  3.8262
  838SOL    HW2 2514   1.217   1.253   2.179  1.7025 -0.4754 -1.1483
  839SOL     OW 2515   0.849   1.959   2.554 -0.6836 -0.3756  0.5499
  839SOL    HW1 2516   0.898   1.881   2.599  3.7358  0.4363 -1.3530
  839SOL    HW2 2517   0.825   2.031   2.624 -0.5023 -1.0281 -0.6972
  840SOL     OW 2518   0.925   2.342   0.424  0.4263  0.1057 -0.2300
  840SOL    HW1 2519   0.923   2.415   0.356  0.1241  1.1063  1.0076
  840SOL    HW2 2520   0.828   2.318   0.450 -1.7344  0.1639 -2.5542
  841SOL     OW 2521   1.798   2.722   0.174 -0.7853 -0.1148  0.1165
  841SOL    HW1 2522   1.709   2.676   0.180 -1.1253 -0.2946 -1.5070
  841SOL    HW2 2523   1.837   2.703   0.082 -0.1696 -2.9792  0.7707
  842SOL     OW 2524   0.533   0.634   2.983  0.1258 -0.6531  0.3869
  842SOL    HW1 2525   0.508   0.555   3.041  0.1526 -1.5846 -3.8336
  842SOL    HW2 2526   0.603   0.700   3.020 -0.0415  2.2972 -1.3618
  843SOL     OW 2527   1.145   0.228   0.757  0.3647  0.3119 -0.3939
  843SOL    HW1 2528   1.065   0.216   0.694 -1.4046 -1.8323 -0.0997
  843SOL    HW2 2529   1.115   0.247   0.856  0.6522  0.9787  0.6129
  844SOL     OW 2530   3.007   2.777   2.729 -0.8134  0.1398  0.4332
  844SOL    HW1 2531   3.070   2.745   2.654  2.0540  1.6508  1.5137
  844SOL    HW2 2532   2.922   2.723   2.733 -0.4426  0.5628 -1.0986
  845SOL     OW 2533   2.545   2.358   0.938 -0.1683  0.1838  0.0310
  845SOL    HW1 2534   2.569   2.289   0.866 -1.0519  1.2283  0.4064
  845SOL    HW2 2535   2.624   2.374   1.001  0.1379 -4.3262 -0.9579
  846SOL     OW 2536   2.891   1.921   2.248  0.7862  0.3188 -0.4800
  846SOL    HW1 2537   2.954   1.978   2.191 -0.2568  1.7457 -0.2207
  846SOL    HW2 2538   2.937   1.880   2.332  2.9272 -1.0892  1.4759
  847SOL     OW 2539   1.057   0.830   1.744 -0.0648 -0.4872 -0.2195
  847SOL    HW1 2540   1.120   0.892   1.796 -1.9610  0.7409  0.9033
  847SOL    HW2 2541   1.109   0.756   1.693  3.6323 -0.9693 -1.8681
  848SOL     OW 2542   2.617   2.978   0.089 -0.1055 -0.2626 -0.2546
  848SOL    HW1 2543   2.528   2.976   0.143 -0.2262  2.5010  1.1256
  848SOL    HW2 2544   2.676   2.903   0.118  1.4139  0.6444 -1.3438
  849SOL     OW 2545   0.692   2.834   2.858  0.2109  0.2101  0.1354
  849SOL    HW1 2546   0.628   2.779   2.915 -0.5161 -0.1724 -0.7194
  849SOL    HW2 2547   0.792   2.814   2.853 -2.3616  0.6234 -2.8215
  850SOL     OW 2548   1.235   2.713   1.455 -0.1590  0.1227 -0.0276
  850SOL    HW1 2549   1.312   2.709   1.387  3.4196 -0.6054 -2.5221
  850SOL    HW2 2550   1.149   2.676   1.409  1.5056  0.2754  0.1321
  851SOL     OW 2551   2.595   0.401   2.113  0.0343  0.0303  0.3180
  851SOL    HW1 2552   2.643   0.486   2.143 -0.1481 -0.2981  0.0711
  851SOL    HW2 2553   2.667   0.345   2.065  2.4388  1.1242  1.5889
  852SOL     OW 2554   2.139   0.918   2.345  0.3145 -0.9329 -0.2068
  852SOL    HW1 2555   2.062   0.985   2.332 -1.7400 -0.7858  1.6101
  852SOL    HW2 2556   2.111   0.825   2.311  1.0135 -2.9180 -2.3738
  853SOL     OW 2557   2.869   2.965   0.665  0.1279  0.1834  0.3421
  853SOL    HW1 2558   2.801   2.976   0.737  1.9286 -0.5784 -0.8671
  853SOL    HW2 2559   2.836   3.018   0.580  1.1900 -0.2558 -1.3000
  854SOL     OW 2560   2.196   1.303   2.012 -0.0988 -0.1739  0.3068
  854SOL    HW1 2561   2.203   1.202   2.025 -1.2851 -0.2158 -0.8651
  854SOL    HW2 2562   2.286   1.348   2.022  0.3427  3.2166  1.9668
  855SOL     OW 2563   1.066   2.585   0.270 -0.1829  0.0732  0.0780
  855SOL    HW1 2564   1.033   2.612   0.174  2.4412 -0.1294 -2.1068
  855SOL    HW2 2565   1.096   2.486   0.266 -1.4308  0.5685  2.6979
  856SOL     OW 2566   3.102   0.207   2.651  0.2171 -0.2409  0.2209
  856SOL    HW1 2567   3.084   0.119   2.699 -0.9756  4.2150 -1.1934
  856SOL    HW2 2568   3.098   0.284   2.720 -2.5245 -0.0828  0.6463
  857SOL     OW 2569   1.079   2.940   1.776 -0.3867 -0.4884  0.0424
  857SOL    HW1 2570   1.123   2.987   1.694 -1.1834  0.4250 -1.1870
  857SOL    HW2 2571   0.985   2.908   1.751 -0.0742  1.9183  0.8355
  858SOL     OW 2572   2.648   2.193   1.557  0.2102 -0.5493  0.5837
  858SOL    HW1 2573   2.671   2.110   1.501  0.8390  1.3308  1.2470
  858SOL    HW2 2574   2.594   2.165   1.643 -0.7981  1.7481  1.6023
  859SOL     OW 2575   1.571   2.464   1.863  0.4475  0.4234 -0.1177
  859SOL    HW1 2576   1.477   2.429   1.830 -2.4508 -2.2343 -2.1549
  859SOL    HW2 2577   1.564   2.559   1.886  1.4243 -3.8101 -0.4142
  860SOL     OW 2578   2.391   2.694   2.997 -0.6299  0.4180 -0.1625
  860SOL    HW1 2579   2.351   2.620   2.943  1.6452 -2.1464 -0.4783
  860SOL    HW2 2580   2.311   2.746   3.045 -1.9379  1.4969 -0.7908
  861SOL     OW 2581   2.269   2.710   0.575  0.0005 -0.5479 -0.5941
  861SOL    HW1 2582   2.217   2.762   0.507  1.7838  0.3792 -1.8220
  861SOL    HW2 2583   2.358   2.754   0.593  1.0107 -0.3913 -0.8669
  862SOL     OW 2584   1.820   0.097   2.418  0.6851  0.5674 -0.3780
  862SOL    HW1 2585   1.824   0.042   2.505 -0.6997 -0.1808  1.0918
  862SOL    HW2 2586   1.902   0.159   2.408  0.8625  3.1053  1.1255
  863SOL     OW 2587   3.027   0.766   0.906  0.3870  0.0762 -0.1580
  863SOL    HW1 2588   3.069   0.764   0.810 -2.4426  0.8733  2.6445
  863SOL    HW2 2589   2.925   0.788   0.903 -1.7146  0.9838  0.2706
  864SOL     OW 2590   0.364   2.743   2.155  0.4332  0.2282  0.3238
  864SOL    HW1 2591   0.427   2.822   2.163 -0.9883  0.2626 -1.2019
  864SOL    HW2 2592   0.397   2.668   2.215 -1.0348  1.6853 -0.1359
  865SOL     OW 2593   0.674   1.174   0.020  0.6016  0.1055 -0.0863
  865SOL    HW1 2594   0.688   1.080   3.082  0.3912 -0.3588 -1.7504
  865SOL    HW2 2595   0.573   1.175   0.045 -2.4546  1.4037 -0.8931
  866SOL     OW 2596   2.787   0.746   3.083 -0.4072 -0.1072 -0.5156
  866SOL    HW1 2597   2.829   0.720   2.996  0.4053 -2.2349 -2.3723
  866SOL    HW2 2598   2.685   0.764   3.069 -3.6845 -0.0143  0.2101
  867SOL     OW 2599   3.077   3.047   2.791  0.0661  0.1374  0.1434
  867SOL    HW1 2600   0.014   3.068   2.886 -0.0775  1.2605  2.7888
  867SOL    HW2 2601   3.045   2.953   2.772  1.7298 -4.0119 -2.0167
  868SOL     OW 2602   1.301   0.081   0.583  0.4134 -0.6556 -0.3978
  868SOL    HW1 2603   1.262   0.140   0.659 -2.0337  0.3758 -0.5677
  868SOL    HW2 2604   1.273   3.089   0.586  1.1507  1.2239  0.5502
  869SOL     OW 2605   1.410   1.674   0.784  0.0689  0.4456  0.0270
  869SOL    HW1 2606   1.407   1.727   0.697 -1.4363 -0.5032 -0.5671
  869SOL    HW2 2607   1.484   1.718   0.838  2.4942  0.2436  0.4730
  870SOL     OW 2608   1.924   1.809   0.746  0.0500  0.1896  0.6586
  870SOL    HW1 2609   2.020   1.846   0.754 -1.2794 -0.0893  0.0307
  870SOL    HW2 2610   1.892   1.817   0.648 -0.9327 -0.9366 -1.9585
  871SOL     OW 2611   1.223   1.456   1.430  0.0219 -0.2005  0.2700
  871SOL    HW1 2612   1.251   1.373   1.483  1.1773 -0.6823  0.9879
  871SOL    HW2 2613   1.243   1.445   1.329 -0.5924  1.7391 -0.9898
  872SOL     OW 2614   0.880   1.642   1.751  0.4572  0.0974 -0.0844
  872SOL    HW1 2615   0.897   1.586   1.664 -0.8475 -1.2719 -3.3920
  872SOL    HW2 2616   0.869   1.582   1.829 -0.2442  2.9750 -0.7725
  873SOL     OW 2617   0.990   1.161   2.849 -0.5594  0.0933  0.0753
  873SOL    HW1 2618   1.013   1.108   2.764 -2.2164 -2.6348 -2.4696
  873SOL    HW2 2619   1.062   1.140   2.919 -0.5370 -0.3241  0.4048
  874SOL     OW 2620   0.270   1.327   1.117 -0.0551 -0.0724 -0.6051
  874SOL    HW1 2621   0.334   1.308   1.193 -2.3599 -0.4134 -1.5336
  874SOL    HW2 2622   0.320   1.347   1.029  2.8197 -0.0234 -2.6241
  875SOL     OW 2623   2.498   2.946   1.088  0.1003 -0.6243  0.4054
  875SOL    HW1 2624   2.455   2.860   1.112  0.1879  2.3430 -0.1969
  875SOL    HW2 2625   2.423   3.018   1.096  0.5953 -0.6134  1.3885
  876SOL     OW 2626   0.764   0.700   0.081 -0.4819  0.0556  0.2617
  876SOL    HW1 2627   0.761   0.598   0.095  0.5429 -1.5702  1.0814
  876SOL    HW2 2628   0.838   0.740   0.145 -0.9744 -1.3121  1.6539
  877SOL     OW 2629   2.988   0.167   1.201 -0.6953 -0.0728  0.2491
  877SOL    HW1 2630   2.931   0.185   1.290 -0.5971 -0.2925  0.6088
  877SOL    HW2 2631   3.079   0.117   1.217  3.5867 -0.3638 -0.1534
  878SOL     OW 2632   1.831   2.220   3.039  0.1030  1.0058  0.1919
  878SOL    HW1 2633   1.886   2.278   0.001  0.0403  0.8010  2.4725
  878SOL    HW2 2634   1.819   2.125   3.072  0.7950 -1.3288  0.4975
  879SOL     OW 2635   2.195   2.028   1.562  0.0939 -0.3475  0.0409
  879SOL    HW1 2636   2.234   1.956   1.627 -0.7882  1.8398  2.9392
  879SOL    HW2 2637   2.187   2.119   1.606  0.0827 -0.4730  0.7770
  880SOL     OW 2638   0.965   0.284   1.717  0.4356  0.1821 -0.0029
  880SOL    HW1 2639   1.007   0.366   1.766 -0.4281  3.7005 -0.2403
  880SOL    HW2 2640   0.892   0.239   1.773  0.4486 -0.0198 -0.1433
  881SOL     OW 2641   0.913   1.976   2.926  0.1666 -0.0488 -0.3414
  881SOL    HW1 2642   1.001   1.957   2.882 -0.6419 -0.6052 -0.4459
  881SOL    HW2 2643   0.888   1.911   3.003  0.4435 -1.1670 -0.6170
  882SOL     OW 2644   2.263   1.108   1.674  0.3210  0.2991 -0.1248
  882SOL    HW1 2645   2.277   1.208   1.662 -0.4921 -0.1428  2.2246
  882SOL    HW2 2646   2.327   1.057   1.611  1.0239  0.0282  0.1483
  883SOL     OW 2647   1.185   0.836   2.109  0.2823 -0.3426 -0.2560
  883SOL    HW1 2648   1.088   0.862   2.127  2.7429 -1.5155  0.9224
  883SOL    HW2 2649   1.194   0.738   2.089  2.0876  0.9578  0.8466
  884SOL     OW 2650   2.763   0.387   3.016  0.4047 -0.5952 -0.5110
  884SOL    HW1 2651   2.853   0.438   3.011  1.6651  2.3891  0.1273
  884SOL    HW2 2652   2.748   0.366   0.011  0.1887  1.8668  1.0787
  885SOL     OW 2653   0.269   2.198   0.287  0.4002 -0.0109  0.1952
  885SOL    HW1 2654   0.272   2.107   0.245 -0.0756 -0.0570  3.1368
  885SOL    HW2 2655   0.315   2.275   0.234 -0.8432 -0.5652 -0.7916
  886SOL     OW 2656   2.092   1.243   2.900 -0.4515 -0.1876  0.0320
  886SOL    HW1 2657   2.081   1.142   2.885 -2.3664 -1.5241  0.8733
  886SOL    HW2 2658   1.999   1.288   2.898  0.9516 -0.0730  2.0968
  887SOL     OW 2659   1.573   0.498   1.833  0.1383 -0.0524  0.1192
  887SOL    HW1 2660   1.585   0.578   1.893  1.2062 -0.8917 -3.2099
  887SOL    HW2 2661   1.650   0.512   1.766 -2.2796  1.5298  2.7563
  888SOL     OW 2662   2.920   1.291   1.559 -0.2833  0.0870  0.1374
  888SOL    HW1 2663   2.867   1.208   1.540 -0.4910  0.8222 -0.5348
  888SOL    HW2 2664   3.004   1.267   1.610  0.7926  1.0201 -1.0552
  889SOL     OW 2665   3.013   2.413   0.804 -0.0908  0.2940 -0.0589
  889SOL    HW1 2666   3.104   2.460   0.807  1.0703  0.5314  0.4917
  889SOL    HW2 2667   2.996   2.373   0.896  0.8613 -0.5553  0.1681
  890SOL     OW 2668   0.052   2.691   2.523  0.3882  0.0000 -0.3461
  890SOL    HW1 2669   0.110   2.607   2.531  3.0044  3.0586 -0.4613
  890SOL    HW2 2670   0.102   2.774   2.548 -3.0606 -2.3217 -0.6702
  891SOL     OW 2671   0.561   1.872   0.137 -0.0343 -0.0277  0.2358
  891SOL    HW1 2672   0.619   1.947   0.174 -1.1192  1.4203 -0.1529
  891SOL    HW2 2673   0.612   1.783   0.126 -0.0159 -0.4856 -1.3705
  892SOL     OW 2674   3.031   2.339   1.187 -0.1772  0.1890  0.3389
  892SOL    HW1 2675   3.030   2.289   1.274 -0.7749 -2.4103 -1.1470
  892SOL    HW2 2676   2.965   2.300   1.118 -0.0105  0.6770  1.5782
  893SOL     OW 2677   0.434   2.928   1.432 -0.2691  0.7332 -0.0347
  893SOL    HW1 2678   0.522   2.916   1.482 -0.3790  0.0028  2.7928
  893SOL    HW2 2679   0.379   2.997   1.484  0.5756 -1.2300 -0.3617
  894SOL     OW 2680   2.338   1.614   0.904 -0.4402  0.1674  0.6871
  894SOL    HW1 2681   2.396   1.556   0.967  3.4904 -1.3843 -0.5042
  894SOL    HW2 2682   2.387   1.619   0.810  3.4961  1.5178 -0.1213
  895SOL     OW 2683   2.762   2.532   1.720  0.1264  0.2834  0.5889
  895SOL    HW1 2684   2.816   2.461   1.666  1.9452 -0.9581 -0.7529
  895SOL    HW2 2685   2.764   2.625   1.682  0.0690  1.4316 -2.0851
  896SOL     OW 2686   0.935   0.233   1.441 -0.1424  0.6834  0.0877
  896SOL    HW1 2687   0.988   0.291   1.378 -1.4231  0.3129  0.2965
  896SOL    HW2 2688   0.959   0.257   1.537  0.2893  0.9365 -2.2474
  897SOL     OW 2689   0.935   1.622   1.465  0.6096 -0.0905 -0.1305
  897SOL    HW1 2690   0.859   1.685   1.434 -0.8706 -1.3179  0.5162
  897SOL    HW2 2691   1.011   1.616   1.396  3.0916 -0.4968  0.6783
  898SOL     OW 2692   1.701   2.654   1.675 -0.4254  0.1440  0.5106
  898SOL    HW1 2693   1.674   2.558   1.680  0.2813 -1.4409  0.1170
  898SOL    HW2 2694   1.781   2.673   1.736 -3.2171 -0.1274  1.3487
  899SOL     OW 2695   0.801   0.449   0.108  0.1547  0.6801 -0.8946
  899SOL    HW1 2696   0.885   0.443   0.165 -0.0631  1.5485 -4.0412
  899SOL    HW2 2697   0.782   0.362   0.056 -0.1491  0.3073 -0.3104
  900SOL     OW 2698   1.233   2.553   2.146  0.3691 -0.4681  0.0155
  900SOL    HW1 2699   1.164   2.491   2.099 -0.6727  1.1779 -0.1686
  900SOL    HW2 2700   1.248   2.639   2.101  2.1793  0.4103  0.6456
  901SOL     OW 2701   0.987   2.218   3.031  0.3733  0.2074  0.0488
  901SOL    HW1 2702   1.084   2.217   2.994  2.4908  0.2979 -2.0096
  901SOL    HW2 2703   0.948   2.122   3.030 -1.8791 -0.8616  1.4917
  902SOL     OW 2704   1.681   1.393   0.737 -0.3209  0.1369 -0.1812
  902SOL    HW1 2705   1.708   1.482   0.779 -0.5767 -1.3968 -1.5053
  902SOL    HW2 2706   1.580   1.365   0.743  1.1509 -0.1428  0.2844
  903SOL     OW 2707   2.543   1.024   2.900  0.2161  0.5702 -0.3690
  903SOL    HW1 2708   2.554   1.126   2.887  0.4124  0.9272  0.4125
  903SOL    HW2 2709   2.446   0.998   2.926 -1.3032  0.4108 -0.5367
  904SOL     OW 2710   0.916   1.297   0.108  0.1630  0.0975 -0.2847
  904SOL    HW1 2711   0.824   1.257   0.076 -3.7641 -0.1244 -0.7306
  904SOL    HW2 2712   0.897   1.386   0.161  0.9831  1.4992  0.8928
  905SOL     OW 2713   1.837   3.059   1.211  0.3379  0.0619  0.4409
  905SOL    HW1 2714   1.768   0.025   1.180  0.3625 -0.1230  0.1137
  905SOL    HW2 2715   1.847   3.042   1.311  0.6835  0.1785  1.2724
  906SOL     OW 2716   2.744   2.453   1.138 -0.0367  0.3007 -0.3018
  906SOL    HW1 2717   2.843   2.433   1.161  0.3382 -0.8090 -0.0689
  906SOL    HW2 2718   2.681   2.408   1.211 -2.0311 -1.9106  1.9972
  907SOL     OW 2719   1.180   1.127   0.421 -0.2884 -0.7510  0.0715
  907SOL    HW1 2720   1.184   1.102   0.520  1.2178 -0.1891  0.9059
  907SOL    HW2 2721   1.086   1.113   0.389  0.1470 -1.6903 -0.1067
  908SOL     OW 2722   1.668   0.130   1.107  0.4888 -0.2047  0.0156
  908SOL    HW1 2723   1.580   0.137   1.160  0.8420  1.0033  2.0987
  908SOL    HW2 2724   1.702   0.221   1.094 -1.1052 -1.8110  0.1248
  909SOL     OW 2725   2.394   0.987   1.489 -0.5323  0.2103 -0.0280
  909SOL    HW1 2726   2.451   0.905   1.476  0.3406 -0.0078 -0.4441
  909SOL    HW2 2727   2.327   1.007   1.414  0.0180 -0.8163 -1.8565
  910SOL     OW 2728   1.997   0.731   2.177 -0.2480 -0.2054  0.3607
  910SOL    HW1 2729   2.004   0.804   2.105 -0.7553  2.2431 -0.0946
  910SOL    HW2 2730   2.029   0.641   2.143 -1.0187  1.4648  1.6408
  911SOL     OW 2731   2.117   0.826   2.598 -0.0741 -0.0720  0.1110
  911SOL    HW1 2732   2.157   0.849   2.508  1.1091  0.3943  0.6470
  911SOL    HW2 2733   2.142   0.728   2.622  3.7337 -2.1316 -1.6973
  912SOL     OW 2734   0.259   1.104   1.678  0.0899 -0.0512  0.3622
  912SOL    HW1 2735   0.344   1.075   1.633 -0.3457  0.6154  0.4974
  912SOL    HW2 2736   0.228   1.193   1.639 -1.4925 -1.1854  1.2863
  913SOL     OW 2737   3.063   2.229   1.435  0.3437 -0.9336 -0.4138
  913SOL    HW1 2738   3.069   2.135   1.476 -2.6196  2.5177 -1.2121
  913SOL    HW2 2739   3.002   2.294   1.486  0.5437  0.5469  0.9294
  914SOL     OW 2740   1.742   0.760   1.918  0.5592  0.6526  0.2836
  914SOL    HW1 2741   1.742   0.855   1.879 -1.4328 -0.4224  2.2865
  914SOL    HW2 2742   1.813   0.705   1.867  0.7688 -1.0462 -0.7566
  915SOL     OW 2743   2.230   0.940   1.061 -0.9608 -0.5614  0.0533
  915SOL    HW1 2744   2.242   0.846   1.085  0.2140  0.7638 -0.5249
  915SOL    HW2 2745   2.281   0.959   0.971 -0.5229  0.9572 -1.6326
  916SOL     OW 2746   1.997   2.189   0.940 -0.5279  0.2507  0.0359
  916SOL    HW1 2747   1.941   2.260   0.989  0.4351  0.6028  1.7564
  916SOL    HW2 2748   1.975   2.097   0.977  0.2893  0.3270 -4.9624
  917SOL     OW 2749   1.971   2.097   2.468 -0.3650  0.0396  0.0323
  917SOL    HW1 2750   1.889   2.117   2.407  0.3461  1.7486 -1.3826
  917SOL    HW2 2751   2.019   2.179   2.506 -1.1803  0.6959 -1.5742
  918SOL     OW 2752   1.956   2.567   2.496  0.1321 -0.4006 -0.9847
  918SOL    HW1 2753   1.917   2.593   2.581  1.1247  2.8275 -1.4254
  918SOL    HW2 2754   1.881   2.576   2.426 -4.7969 -0.1767  2.9729
  919SOL     OW 2755   1.181   2.984   1.534 -0.0799  0.2109 -0.5951
  919SOL    HW1 2756   1.231   2.899   1.519 -0.5805 -0.0294 -1.5346
  919SOL    HW2 2757   1.236   3.065   1.508 -1.5524 -1.4455 -0.2912
  920SOL     OW 2758   2.949   0.347   2.432  0.3977 -0.2293 -0.3738
  920SOL    HW1 2759   3.025   0.305   2.485 -0.4641  0.0180 -1.3080
  920SOL    HW2 2760   2.883   0.275   2.415  0.1342 -0.0693 -1.7208
  921SOL     OW 2761   0.091   0.883   1.527 -0.2351  0.2279  0.3202
  921SOL    HW1 2762   0.105   0.784   1.513 -0.0556  2.0489 -0.8705
  921SOL    HW2 2763   0.171   0.940   1.492  1.7041  1.5194 -0.7965
  922SOL     OW 2764   2.203   2.419   0.273 -0.1455 -0.2914  0.1431
  922SOL    HW1 2765   2.162   2.511   0.293 -0.5907  0.7988 -0.0242
  922SOL    HW2 2766   2.305   2.418   0.282  0.3485 -0.5385  1.0728
  923SOL     OW 2767   0.660   2.288   0.496  0.0358  0.3583  0.1749
  923SOL    HW1 2768   0.694   2.249   0.585  0.1534  2.0368 -0.1395
  923SOL    HW2 2769   0.565   2.316   0.504  4.5912 -1.1505  1.4730
  924SOL     OW 2770   1.113   0.731   0.390  0.1007 -0.5190  0.1207
  924SOL    HW1 2771   1.047   0.775   0.329  2.5547  0.2751 -1.5011
  924SOL    HW2 2772   1.063   0.715   0.477 -1.2311  1.1802 -1.8203
  925SOL     OW 2773   2.556   0.742   0.923 -0.1600  0.3024 -0.2905
  925SOL    HW1 2774   2.540   0.646   0.956  0.7143 -1.9708  1.0369
  925SOL    HW2 2775   2.473   0.773   0.877  0.0176 -2.0212  0.2426
  926SOL     OW 2776   0.489   0.111   1.335  0.3890  0.0884  0.2596
  926SOL    HW1 2777   0.456   0.055   1.414  1.3419 -1.0453 -1.9133
  926SOL    HW2 2778   0.411   0.164   1.299  0.4303 -1.3327 -1.5854
  927SOL     OW 2779   0.492   1.522   2.297  0.3620  0.5412 -0.3057
  927SOL    HW1 2780   0.501   1.451   2.367  2.4484  1.2994  0.9034
  927SOL    HW2 2781   0.463   1.480   2.204 -2.3272  0.7857  0.1316
  928SOL     OW 2782   0.226   0.512   2.352 -0.5302  0.0571  0.2093
  928SOL    HW1 2783   0.128   0.517   2.323  0.6757 -0.1754 -0.3316
  928SOL    HW2 2784   0.241   0.429   2.411 -1.1828 -0.3040  0.1819
  929SOL     OW 2785   2.761   2.901   1.174  0.4637  0.0872 -0.0393
  929SOL    HW1 2786   2.812   2.870   1.092  1.8235 -0.1671  0.3653
  929SOL    HW2 2787   2.678   2.954   1.145 -0.2090  0.9453 -0.6055
  930SOL     OW 2788   1.994   0.676   1.834 -0.2910  0.1899  0.1309
  930SOL    HW1 2789   2.035   0.598   1.885  1.0910 -3.1454  0.5433
  930SOL    HW2 2790   2.021   0.768   1.871 -1.1405 -3.5833  1.3093
  931SOL     OW 2791   1.717   1.197   0.094 -0.4107  0.3809  0.0234
  931SOL    HW1 2792   1.778   1.274   0.088 -3.5031 -2.1314  0.3815
  931SOL    HW2 2793   1.646   1.211   0.170  1.9604 -2.4207  1.7670
  932SOL     OW 2794   2.083   1.257   0.528  0.2270 -0.4558  0.8105
  932SOL    HW1 2795   2.103   1.192   0.451  2.6542  2.3737 -1.2927
  932SOL    HW2 2796   1.985   1.246   0.547  0.4111  0.6540  2.7160
  933SOL     OW 2797   2.094   1.672   0.977  0.0726  0.1035  0.5742
  933SOL    HW1 2798   2.191   1.660   0.947  0.6913  0.3616 -0.2039
  933SOL    HW2 2799   2.086   1.720   1.067 -1.2720 -1.0080  0.0387
  934SOL     OW 2800   1.870   1.006   2.602 -0.1254 -0.2415 -0.0968
  934SOL    HW1 2801   1.918   0.917   2.581 -0.1045 -0.8200  0.7147
  934SOL    HW2 2802   1.772   0.994   2.613  3.2642  1.8107  3.7543
  935SOL     OW 2803   0.067   0.808   0.668 -0.6106  0.1303  0.2892
  935SOL    HW1 2804   0.102   0.781   0.578 -0.0478  1.5689  0.4288
  935SOL    HW2 2805   0.005   0.891   0.654 -0.0400 -0.8830  1.5450
  936SOL     OW 2806   0.442   3.020   0.939  0.0283 -0.0302 -0.2442
  936SOL    HW1 2807   0.502   3.041   1.020  0.5684 -2.4876  2.3883
  936SOL    HW2 2808   0.476   3.059   0.854 -0.6546 -2.8953 -0.1344
  937SOL     OW 2809   3.048   3.051   2.145 -0.4927  0.2754  0.0706
  937SOL    HW1 2810   0.014   2.976   2.160 -0.8274 -1.2605  0.9451
  937SOL    HW2 2811   3.012   3.049   2.046  0.7411  1.7864 -2.0943
  938SOL     OW 2812   0.123   2.615   2.959 -0.5531 -0.2735 -0.2663
  938SOL    HW1 2813   0.034   2.574   2.929  2.3362  1.4529  0.7568
  938SOL    HW2 2814   0.106   2.657   3.052 -0.0682 -0.2401  0.4977
  939SOL     OW 2815   1.101   1.651   1.061 -0.3018 -0.2730 -0.2838
  939SOL    HW1 2816   1.144   1.571   1.100 -0.5471  2.5169  1.7233
  939SOL    HW2 2817   1.099   1.648   0.959 -1.3625  0.4140  1.9154
  940SOL     OW 2818   3.023   0.491   3.059 -0.0976 -0.1134 -0.4015
  940SOL    HW1 2819   3.090   0.422   3.093  3.4598  0.3592 -1.5356
  940SOL    HW2 2820   3.036   0.582   0.008 -0.7787 -0.0481 -1.4059
  941SOL     OW 2821   2.235   0.306   2.649  0.0645 -0.5678 -0.2232
  941SOL    HW1 2822   2.238   0.326   2.549  0.6655 -1.0692  1.3690
  941SOL    HW2 2823   2.161   0.249   2.671  0.3142  3.4484 -0.4028
  942SOL     OW 2824   1.572   0.336   0.909 -0.1296  0.1183 -0.0384
  942SOL    HW1 2825   1.468   0.335   0.919 -2.3194 -3.4780  1.7944
  942SOL    HW2 2826   1.607   0.344   1.003 -0.1315  1.5039 -3.8559
  943SOL     OW 2827   1.232   0.990   1.891 -0.6101 -0.1632  0.1478
  943SOL    HW1 2828   1.215   0.931   1.978 -1.8695 -0.7370  0.9851
  943SOL    HW2 2829   1.223   1.085   1.915  0.3486 -2.1684  0.5209
  944SOL     OW 2830   2.046   1.029   1.511 -0.1359  0.2885  0.2714
  944SOL    HW1 2831   2.036   0.927   1.525  0.4077  0.5568  1.7460
  944SOL    HW2 2832   2.127   1.062   1.565  1.3741 -0.2727  0.4304
  945SOL     OW 2833   2.626   0.245   0.199 -0.3152 -0.8264  0.1739
  945SOL    HW1 2834   2.560   0.187   0.151  1.8641 -0.1172 -0.6088
  945SOL    HW2 2835   2.714   0.198   0.205  1.5822  1.8232 -0.0024
  946SOL     OW 2836   3.010   1.084   1.863 -0.0452  0.0522 -0.1443
  946SOL    HW1 2837   3.052   1.167   1.829  2.1732 -0.6273  0.1013
  946SOL    HW2 2838   3.060   0.998   1.826  1.2088 -3.7144  1.4469
  947SOL     OW 2839   1.058   3.027   0.191  0.2113  0.0026  0.0561
  947SOL    HW1 2840   0.976   2.968   0.173  0.7741 -0.2080  3.5437
  947SOL    HW2 2841   1.021   0.008   0.226 -1.1957 -1.2384 -0.6835
  948SOL     OW 2842   2.264   1.898   1.324 -0.5152 -0.2564 -0.1615
  948SOL    HW1 2843   2.229   1.939   1.410 -1.1244 -0.8443  0.8824
  948SOL    HW2 2844   2.363   1.899   1.322  0.2000  1.8314 -2.4230
  949SOL     OW 2845   0.232   1.405   3.029  0.2118  0.0105  0.3074
  949SOL    HW1 2846   0.185   1.326   2.979 -0.0539  2.8825 -1.1951
  949SOL    HW2 2847   0.324   1.427   2.991 -1.1169 -0.5102  0.8570
  950SOL     OW 2848   0.869   2.513   0.992  0.3378 -0.5430  0.5773
  950SOL    HW1 2849   0.789   2.525   1.062 -1.0393  0.8900  0.0511
  950SOL    HW2 2850   0.837   2.490   0.895 -0.9915 -1.5853 -3.2996
  951SOL     OW 2851   0.448   1.341   2.512 -0.1462 -0.3521 -0.6330
  951SOL    HW1 2852   0.434   1.438   2.535 -1.4886 -4.0682 -0.6655
  951SOL    HW2 2853   0.521   1.306   2.586  2.3398 -1.2118  3.0717
  952SOL     OW 2854   0.484   0.719   0.618  0.3138 -0.2583 -0.0568
  952SOL    HW1 2855   0.513   0.645   0.681  1.2124 -0.8917  0.4558
  952SOL    HW2 2856   0.559   0.785   0.614 -1.7288  1.5732 -0.9679
  953SOL     OW 2857   2.466   3.032   2.438 -0.2655 -0.3353  0.0115
  953SOL    HW1 2858   2.479   3.013   2.342 -0.1951 -0.3681  2.7436
  953SOL    HW2 2859   2.541   3.090   2.478 -4.9693 -2.0470  0.0391
  954SOL     OW 2860   1.442   1.022   0.683  0.1664  0.3598  0.3039
  954SOL    HW1 2861   1.484   1.082   0.751 -0.7163  0.4336 -1.0859
  954SOL    HW2 2862   1.502   0.995   0.602  3.2070 -2.2924 -1.3213
  955SOL     OW 2863   0.762   2.058   0.329 -0.1654 -0.3691 -0.3174
  955SOL    HW1 2864   0.863   2.065   0.346  1.2716 -0.4660 -0.2462
  955SOL    HW2 2865   0.712   2.143   0.350 -0.0628 -1.1783  1.2190
  956SOL     OW 2866   2.349   0.498   2.149 -0.2490 -0.1401 -0.3733
  956SOL    HW1 2867   2.341   0.552   2.234 -1.0077 -2.5827 -0.5822
  956SOL    HW2 2868   2.442   0.458   2.138 -0.5239  0.5089  0.5348
  957SOL     OW 2869   2.199   2.470   1.756 -0.4722  0.2331 -0.2683
  957SOL    HW1 2870   2.302   2.472   1.775  2.5646 -1.2166 -0.0360
  957SOL    HW2 2871   2.184   2.411   1.673 -0.9646 -1.0683 -0.4517
  958SOL     OW 2872   1.595   1.182   1.398 -0.4818 -0.2840  0.0717
  958SOL    HW1 2873   1.599   1.272   1.448  1.6753  0.0272  2.6255
  958SOL    HW2 2874   1.689   1.138   1.387  1.3132 -0.1749 -0.9395
  959SOL     OW 2875   2.031   1.721   2.149 -0.3728  0.3340  0.6739
  959SOL    HW1 2876   1.933   1.737   2.137 -1.2364  0.9075  0.5392
  959SOL    HW2 2877   2.074   1.798   2.195  1.0214 -0.2276 -0.4886
  960SOL     OW 2878   0.608   0.993   2.790  0.2866  0.4539  0.3449
  960SOL    HW1 2879   0.584   0.931   2.709  0.0731 -0.5081  1.0282
  960SOL    HW2 2880   0.672   0.949   2.852 -0.6417  1.3688  0.3112
  961SOL     OW 2881   0.148   1.188   2.882  0.3984  0.5427  0.3750
  961SOL    HW1 2882   0.070   1.142   2.932  0.4748 -0.1514  0.5537
  961SOL    HW2 2883   0.239   1.147   2.900 -0.4767 -0.8764 -0.8050
  962SOL     OW 2884   0.689   1.703   2.304  0.3600  0.0763  0.0612
  962SOL    HW1 2885   0.605   1.645   2.305  0.4545 -1.3459 -2.4073
  962SOL    HW2 2886   0.672   1.795   2.337  0.8884 -0.0798  0.5233
  963SOL     OW 2887   2.856   2.135   2.993  0.1640  0.1913  0.2788
  963SOL    HW1 2888   2.783   2.210   2.999 -0.5022 -0.4716 -0.8768
  963SOL    HW2 2889   2.814   2.042   2.993 -2.4158 -2.3381  2.1589
  964SOL     OW 2890   0.747   1.891   1.780 -0.1681  0.8348 -0.1312
  964SOL    HW1 2891   0.798   1.935   1.852 -2.7893 -0.2392 -1.3925
  964SOL    HW2 2892   0.800   1.805   1.747  2.2744 -1.7363 -0.2693
  965SOL     OW 2893   1.775   2.018   0.583  0.2681 -0.7289 -0.0590
  965SOL    HW1 2894   1.792   2.099   0.522  2.1365 -0.8350 -2.8421
  965SOL    HW2 2895   1.802   1.934   0.535 -0.9526  0.6482 -0.2185
  966SOL     OW 2896   3.065   1.746   0.086 -0.0169  0.2270 -0.2459
  966SOL    HW1 2897   0.032   1.784   0.026  0.2235 -2.5794  0.1892
  966SOL    HW2 2898   3.067   1.642   0.075  0.9302 -3.5139 -1.0439
  967SOL     OW 2899   2.133   3.061   2.214 -0.2793 -0.3772  0.3869
  967SOL    HW1 2900   2.198   3.021   2.286  2.7461 -1.9036 -0.9041
  967SOL    HW2 2901   2.070   2.997   2.166  3.4735  0.8464 -1.3494
  968SOL     OW 2902   0.835   0.451   0.432  0.5494  0.2628 -0.5440
  968SOL    HW1 2903   0.790   0.546   0.427 -0.6787  1.9119  0.8882
  968SOL    HW2 2904   0.933   0.453   0.402  1.6650 -2.1164 -0.0064
  969SOL     OW 2905   0.248   1.644   1.994 -0.1208  0.8390  0.0217
  969SOL    HW1 2906   0.322   1.714   1.978  1.7227  1.5989  0.2211
  969SOL    HW2 2907   0.287   1.551   2.013 -0.4820 -0.6679  0.1460
  970SOL     OW 2908   1.936   2.684   1.096  0.1083 -0.0245 -0.2042
  970SOL    HW1 2909   1.976   2.620   1.026  0.2416 -0.4110  0.5562
  970SOL    HW2 2910   2.015   2.739   1.138  0.0369  2.5368 -1.8224
  971SOL     OW 2911   2.290   2.466   0.689 -0.2369  0.0154  0.4672
  971SOL    HW1 2912   2.272   2.551   0.635 -0.3219  2.0611  0.4293
  971SOL    HW2 2913   2.296   2.485   0.792  1.1809 -0.0179  5.6800
  972SOL     OW 2914   3.050   1.162   2.427 -0.1840  0.3445 -0.1900
  972SOL    HW1 2915   3.023   1.213   2.510  0.9564  0.4380 -1.3471
  972SOL    HW2 2916   0.049   1.149   2.419  4.2277  1.1842 -0.3609
  973SOL     OW 2917   0.524   0.057   0.734  0.0362  0.4291  0.5709
  973SOL    HW1 2918   0.624   0.025   0.737  4.4016 -1.4995  0.0287
  973SOL    HW2 2919   0.516   0.141   0.684  2.7702  0.3251  1.1370
  974SOL     OW 2920   2.274   1.038   1.926  0.0486 -0.4473  0.0958
  974SOL    HW1 2921   2.278   1.076   1.829 -3.1084  0.3871 -3.2812
  974SOL    HW2 2922   2.361   1.045   1.981  2.7123  0.7318  1.1155
  975SOL     OW 2923   0.086   3.094   0.469  0.1968  0.3761 -0.1756
  975SOL    HW1 2924   0.009   3.039   0.429 -0.4313  0.4410 -1.4107
  975SOL    HW2 2925   0.118   0.065   0.400 -0.6067  3.2185 -3.4988
  976SOL     OW 2926   0.345   1.852   0.926  0.1324 -0.0350 -0.5943
  976SOL    HW1 2927   0.305   1.774   0.973 -1.9724  0.3048  0.0066
  976SOL    HW2 2928   0.304   1.875   0.835 -1.9464  1.6131 -1.3485
  977SOL     OW 2929   1.025   1.776   0.600  0.2679  0.3217  0.0780
  977SOL    HW1 2930   0.993   1.762   0.508 -2.6521 -1.2470 -0.1694
  977SOL    HW2 2931   0.979   1.858   0.641  3.5128 -0.3165 -1.8348
  978SOL     OW 2932   0.131   0.869   0.023  0.2529  0.2923  0.3562
  978SOL    HW1 2933   0.172   0.835   3.042 -0.3735 -0.4130 -0.9275
  978SOL    HW2 2934   0.164   0.961   0.049 -0.4674 -3.1874  0.0202
  979SOL     OW 2935   1.880   1.518   0.542 -0.3583 -0.0973  0.3053
  979SOL    HW1 2936   1.967   1.532   0.594  1.0053  1.4920  0.4881
  979SOL    HW2 2937   1.810   1.481   0.606  0.5120  0.7844  2.1716
  980SOL     OW 2938   0.612   2.203   2.030 -0.2500  0.3413  0.5324
  980SOL    HW1 2939   0.710   2.201   2.052 -0.0188  1.1068 -0.3201
  980SOL    HW2 2940   0.605   2.177   1.935  1.2505  0.4960  5.2392
  981SOL     OW 2941   2.300   0.943   2.974  0.0511 -0.1049  0.0598
  981SOL    HW1 2942   2.214   0.969   2.933  0.5049 -0.4606 -0.3529
  981SOL    HW2 2943   2.295   0.857   3.024  0.6822 -0.1071 -2.7922
  982SOL     OW 2944   0.047   2.690   1.868 -0.0767 -0.6174 -0.4638
  982SOL    HW1 2945   0.010   2.693   1.965  0.8641 -0.8900  1.1967
  982SOL    HW2 2946   0.147   2.692   1.878  0.1196  3.2134  0.1211
  983SOL     OW 2947   1.637   0.260   1.722 -0.4904  0.2454 -0.2812
  983SOL    HW1 2948   1.620   0.353   1.759 -0.3906 -0.6345 -1.8520
  983SOL    HW2 2949   1.551   0.208   1.725  2.7096  0.2602 -1.8919
  984SOL     OW 2950   1.957   3.034   2.627 -0.4515  0.1338  0.1339
  984SOL    HW1 2951   2.049   3.031   2.583  0.8507  1.0844 -2.0583
  984SOL    HW2 2952   1.905   2.952   2.596 -0.9918  1.5289  1.1657
  985SOL     OW 2953   1.589   1.461   1.819  0.3987 -0.4266  0.2151
  985SOL    HW1 2954   1.536   1.379   1.834  0.5844  2.2469 -1.1824
  985SOL    HW2 2955   1.531   1.546   1.819  1.3981 -0.5270  0.1656
  986SOL     OW 2956   2.202   2.615   2.401  0.3722  0.2331  0.3554
  986SOL    HW1 2957   2.285   2.634   2.462 -0.9070  1.2318 -1.7814
  986SOL    HW2 2958   2.106   2.603   2.438 -1.2383 -2.3975  2.1397
  987SOL     OW 2959   2.862   1.818   2.786 -0.1228  0.3751 -0.1938
  987SOL    HW1 2960   2.853   1.729   2.727 -1.0775 -0.8336 -0.0231
  987SOL    HW2 2961   2.821   1.897   2.735 -0.9571 -2.3567 -0.5391
  988SOL     OW 2962   2.950   0.619   1.507  0.1483  0.7255  0.1967
  988SOL    HW1 2963   2.917   0.658   1.589  0.7914 -2.2309 -2.3835
  988SOL    HW2 2964   2.898   0.656   1.428 -1.0379  0.8896 -2.3205
  989SOL     OW 2965   1.890   1.256   1.602 -0.4802 -0.0831  0.1549
  989SOL    HW1 2966   1.945   1.213   1.526 -0.1339 -1.3154 -0.1674
  989SOL    HW2 2967   1.947   1.278   1.684 -0.7629 -1.5668  1.1436
  990SOL     OW 2968   2.826   0.623   0.210  0.4000  0.2092  1.2466
  990SOL    HW1 2969   2.834   0.653   0.112 -1.8477 -1.7352  0.7617
  990SOL    HW2 2970   2.737   0.577   0.230  0.2567 -0.1762  1.7142
  991SOL     OW 2971   0.421   1.772   2.995  0.8342 -0.0596  0.2161
  991SOL    HW1 2972   0.453   1.851   2.934 -0.8631  0.0731  0.5442
  991SOL    HW2 2973   0.477   1.762   3.078 -2.8877 -2.2952 -1.5809
  992SOL     OW 2974   2.224   1.816   1.761  0.6750  0.3790  0.0301
  992SOL    HW1 2975   2.132   1.771   1.747  3.0210 -1.4025 -2.8688
  992SOL    HW2 2976   2.260   1.776   1.849 -3.9894  0.4303  2.0328
  993SOL     OW 2977   0.760   3.030   0.763  0.3470 -0.1614  0.3132
  993SOL    HW1 2978   0.797   3.086   0.837 -1.2249 -2.8665 -0.2394
  993SOL    HW2 2979   0.833   2.990   0.701  0.9845 -1.5982 -0.6146
  994SOL     OW 2980   2.697   1.951   1.416 -0.3918 -0.1320  0.2006
  994SOL    HW1 2981   2.788   1.916   1.413  0.4812  1.0942  1.1282
  994SOL    HW2 2982   2.634   1.871   1.398  0.7817  1.0398  1.8975
  995SOL     OW 2983   2.153   1.915   2.286  0.0132  0.7453 -0.2040
  995SOL    HW1 2984   2.120   2.013   2.292  1.7302 -1.2812  2.2628
  995SOL    HW2 2985   2.251   1.923   2.308 -1.1630  0.6727  1.2982
  996SOL     OW 2986   1.897   1.668   3.043  0.6452 -0.2775  0.0887
  996SOL    HW1 2987   1.844   1.622   0.012  0.5010 -2.1218  1.8202
  996SOL    HW2 2988   1.974   1.716   3.090 -1.4858 -2.2190 -1.4936
  997SOL     OW 2989   1.158   1.412   2.175  0.3720  0.1044  0.0889
  997SOL    HW1 2990   1.068   1.447   2.209  0.5964 -1.1299 -0.4292
  997SOL    HW2 2991   1.231   1.470   2.217 -0.6277  1.5782  0.2548
  998SOL     OW 2992   2.692   2.213   0.735  0.1301  0.0310 -0.5722
  998SOL    HW1 2993   2.668   2.141   0.667 -0.9150  0.8920  0.9480
  998SOL    HW2 2994   2.782   2.190   0.775 -0.4132  0.4448 -1.4567
  999SOL     OW 2995   0.159   2.497   0.864 -0.1758  0.7714 -0.1756
  999SOL    HW1 2996   0.210   2.408   0.859 -0.5079  1.8344 -2.2413
  999SOL    HW2 2997   0.196   2.576   0.806 -0.4627  0.1178  1.2736
 1000SOL     OW 2998   1.200   0.089   0.017 -0.0858  0.2393 -0.0522
 1000SOL    HW1 2999   1.142   0.026   0.070 -0.5296  2.2831 -0.3254
 1000SOL    HW2 3000   1.198   0.178   0.061 -0.7424 -0.0273 -1.3333
   3.10510   3.10510   3.10510
