1000 SPC/Fw water molecules t= 339.00000 step= 339000
 3000
    1SOL     OW    1   2.509   0.182   1.380 -0.2436  0.2606 -0.3589
    1SOL    HW1    2   2.564   0.096   1.384  0.7861 -2.4980 -2.4537
    1SOL    HW2    3   2.485   0.212   1.475  2.3163  1.2071  1.3148
    2SOL     OW    4   2.694   2.565   1.050  0.4912  0.1231  0.5583
    2SOL    HW1    5   2.695   2.634   1.123 -1.3566 -0.6578 -0.5613
    2SOL    HW2    6   2.680   2.470   1.091 -0.2220 -2.5562 -0.4243
    3SOL     OW    7   1.114   3.026   2.676 -0.0921  0.2350 -0.3627
    3SOL    HW1    8   1.129   3.001   2.776  1.6752 -0.9384  1.0319
    3SOL    HW2    9   1.020   3.011   2.639 -0.9133 -2.4816 -0.1902
    4SOL     OW   10   1.754   2.661   1.945  0.4737 -0.3529 -0.1393
    4SOL    HW1   11   1.766   2.648   2.043  0.2619 -0.9697  0.3434
    4SOL    HW2   12   1.842   2.696   1.906  2.3167  2.1275  0.6395
    5SOL     OW   13   1.588   1.101   1.804 -0.3842 -0.0079 -0.3824
    5SOL    HW1   14   1.660   1.040   1.764 -0.1445  1.9029  0.6296
    5SOL    HW2   15   1.515   1.039   1.838 -4.5935  2.0603  0.1352
    6SOL     OW   16   1.867   2.828   0.740  0.0754  0.1049 -0.2951
    6SOL    HW1   17   1.790   2.774   0.785 -1.8655 -3.7865  1.1522
    6SOL    HW2   18   1.942   2.770   0.697  1.7987 -0.6461 -2.9862
    7SOL     OW   19   2.076   1.300   1.118 -0.3731  0.1952 -0.2033
    7SOL    HW1   20   2.024   1.361   1.183 -0.8639  1.3119  0.9612
    7SOL    HW2   21   2.033   1.209   1.105  2.4161 -0.2533 -0.2721
    8SOL     OW   22   0.706   1.852   1.337 -0.0691 -0.1048  0.4047
    8SOL    HW1   23   0.657   1.770   1.352  2.9065  2.2797 -1.3555
    8SOL    HW2   24   0.677   1.932   1.395  2.1063 -1.0153  2.2912
    9SOL     OW   25   1.203   2.339   2.057  0.7323  0.0470 -0.6864
    9SOL    HW1   26   1.163   2.328   2.154 -2.9111  0.5443 -1.3483
    9SOL    HW2   27   1.207   2.248   2.010 -1.7797  0.4604 -0.7047
   10SOL     OW   28   0.234   2.145   0.794  0.4318 -0.2501 -0.1394
   10SOL    HW1   29   0.323   2.096   0.788 -2.7756 -0.1477 -0.8372
   10SOL    HW2   30   0.198   2.146   0.888  0.9965  0.0807  1.6537
   11SOL     OW   31   1.631   2.085   1.222  0.3376  0.0934 -0.2876
   11SOL    HW1   32   1.585   2.178   1.227 -0.1203  0.1111  1.0054
   11SOL    HW2   33   1.604   2.024   1.297  0.4936 -1.8775  0.3420
   12SOL     OW   34   2.493   0.442   2.238 -0.0994  0.0468 -1.0084
   12SOL    HW1   35   2.565   0.499   2.186 -1.2406  1.7931 -0.5640
   12SOL    HW2   36   2.500   0.344   2.212 -0.7367  1.1575 -1.1896
   13SOL     OW   37   2.750   2.792   0.645  0.1432  0.4097 -0.2289
   13SOL    HW1   38   2.718   2.767   0.736  2.4777  0.7414  1.8731
   13SOL    HW2   39   2.851   2.770   0.641 -2.2847  2.0810  2.9175
   14SOL     OW   40   1.592   1.610   2.899  0.2935 -0.7637  0.4407
   14SOL    HW1   41   1.653   1.532   2.925  0.5147 -0.8132 -0.1622
   14SOL    HW2   42   1.644   1.698   2.878 -0.1152  2.6067  0.6923
   15SOL     OW   43   2.911   2.709   1.580 -0.1769  0.1372  0.1708
   15SOL    HW1   44   2.986   2.779   1.558 -0.0744 -2.0777  0.4427
   15SOL    HW2   45   2.825   2.758   1.597  1.1041  0.2254  1.2948
   16SOL     OW   46   2.828   2.833   0.177  0.4867 -0.0771 -0.2975
   16SOL    HW1   47   2.784   2.798   0.261  1.2329 -0.6797  1.6472
   16SOL    HW2   48   2.929   2.832   0.183 -4.2524  2.7413 -1.6841
   17SOL     OW   49   0.245   0.358   1.035 -0.0161  0.0028  0.0273
   17SOL    HW1   50   0.306   0.439   1.055  2.1444 -1.6277  0.1706
   17SOL    HW2   51   0.277   0.273   1.064  0.8762  0.7922 -0.2358
   18SOL     OW   52   2.289   0.670   0.457 -0.3585  0.6098  0.7058
   18SOL    HW1   53   2.297   0.761   0.493  0.2903 -0.5453 -3.8266
   18SOL    HW2   54   2.340   0.598   0.512 -1.0537 -1.4413  0.4886
   19SOL     OW   55   1.762   1.733   0.186 -0.1953 -0.5623 -0.3190
   19SOL    HW1   56   1.756   1.833   0.156 -0.3895  1.4827  0.4919
   19SOL    HW2   57   1.857   1.703   0.164  0.7942  1.8689 -0.0312
   20SOL     OW   58   2.427   2.131   2.274 -0.6451  0.4754 -0.3429
   20SOL    HW1   59   2.415   2.061   2.203 -0.6174  1.0853  0.1487
   20SOL    HW2   60   2.337   2.169   2.307 -1.2211  1.2124  2.3395
   21SOL     OW   61   1.816   0.185   0.457 -0.0942 -0.0952 -0.7436
   21SOL    HW1   62   1.839   0.093   0.489 -1.9461  4.7341  1.7470
   21SOL    HW2   63   1.897   0.249   0.462  1.3550 -1.0963  0.9747
   22SOL     OW   64   2.572   0.333   1.613  0.9229  0.3918 -0.3376
   22SOL    HW1   65   2.499   0.304   1.681 -2.0203 -0.2223  2.1090
   22SOL    HW2   66   2.537   0.408   1.563  1.0898 -0.7915  0.0900
   23SOL     OW   67   0.459   0.683   1.867 -0.2852  0.0198  0.0597
   23SOL    HW1   68   0.406   0.679   1.956 -0.3829  0.1210 -0.7110
   23SOL    HW2   69   0.559   0.709   1.879  2.7344 -1.7829 -0.7188
   24SOL     OW   70   2.685   2.709   0.400 -0.0733  0.5718  0.4415
   24SOL    HW1   71   2.675   2.610   0.382 -0.7838  2.3640  1.0224
   24SOL    HW2   72   2.685   2.729   0.498  0.0890  0.3284  4.7714
   25SOL     OW   73   1.384   2.674   2.654 -0.1249  0.2439 -0.3408
   25SOL    HW1   74   1.418   2.698   2.562 -0.4701 -1.8615 -1.1760
   25SOL    HW2   75   1.404   2.747   2.725 -1.4106  3.5415  4.9987
   26SOL     OW   76   1.119   2.562   0.187  0.5160 -0.0252  0.2202
   26SOL    HW1   77   1.189   2.561   0.113 -0.2643  2.1518 -0.5463
   26SOL    HW2   78   1.156   2.629   0.253  0.5721  0.3085 -1.8326
   27SOL     OW   79   2.249   0.745   3.103  0.1185  0.4060  0.3578
   27SOL    HW1   80   2.166   0.752   0.038 -0.1118 -0.0261 -1.9294
   27SOL    HW2   81   2.312   0.825   3.113  1.1093 -1.4777  0.1393
   28SOL     OW   82   0.938   1.625   0.948 -0.0077 -0.0127  0.0288
   28SOL    HW1   83   1.010   1.612   0.880 -1.7491  0.8882 -1.8151
   28SOL    HW2   84   0.863   1.558   0.932  0.6978  1.9955 -0.2429
   29SOL     OW   85   3.054   2.782   1.848  1.1072  0.0671  0.2183
   29SOL    HW1   86   0.030   2.757   1.833 -4.1278 -0.4671 -0.0149
   29SOL    HW2   87   2.995   2.763   1.769  1.7671 -0.1888 -1.6383
   30SOL     OW   88   1.321   0.028   1.333 -0.2977 -0.1300  0.0547
   30SOL    HW1   89   1.408   3.120   1.371 -0.1573  0.2620  0.4529
   30SOL    HW2   90   1.328   0.113   1.270 -0.1785  1.7760 -0.5203
   31SOL     OW   91   2.209   3.003   2.304  0.4363 -0.2082 -0.0413
   31SOL    HW1   92   2.170   3.042   2.389 -2.9542 -0.1560  2.1069
   31SOL    HW2   93   2.132   2.996   2.235 -0.9346 -0.8654  0.0125
   32SOL     OW   94   0.711   1.385   0.584 -0.3453  0.2977 -0.2823
   32SOL    HW1   95   0.786   1.436   0.544 -2.3737  0.9337 -0.0156
   32SOL    HW2   96   0.644   1.446   0.624  0.4149  0.4156 -0.4968
   33SOL     OW   97   0.233   1.125   2.478 -0.3524  1.0372 -0.0907
   33SOL    HW1   98   0.151   1.084   2.528  0.3185  0.5768 -1.3138
   33SOL    HW2   99   0.217   1.115   2.378  0.3436 -0.3988 -0.8731
   34SOL     OW  100   2.688   3.090   0.592 -0.0888  0.5986  0.0367
   34SOL    HW1  101   2.700   2.990   0.574 -0.7793  1.2161 -2.4343
   34SOL    HW2  102   2.777   0.008   0.615  0.0611 -0.9111 -0.9459
   35SOL     OW  103   2.443   2.843   2.083  0.1220  0.4391 -0.2632
   35SOL    HW1  104   2.373   2.774   2.113 -0.8013  1.5444 -0.6829
   35SOL    HW2  105   2.448   2.920   2.147 -1.0890 -1.8054  0.6650
   36SOL     OW  106   2.112   2.247   3.099 -0.0561 -0.3034 -0.3015
   36SOL    HW1  107   2.167   2.320   3.052  1.5745  1.1294  1.8012
   36SOL    HW2  108   2.031   2.232   3.037 -1.4831 -0.7368 -0.5761
   37SOL     OW  109   1.539   0.219   2.195 -0.3176 -0.1108 -0.3251
   37SOL    HW1  110   1.512   0.238   2.295 -0.8724  0.4423  1.7147
   37SOL    HW2  111   1.509   0.126   2.166  1.9195 -2.4645  1.5037
   38SOL     OW  112   0.220   0.515   2.656 -0.3796  0.1184 -0.1538
   38SOL    HW1  113   0.207   0.615   2.646 -1.1116 -1.6888  4.8501
   38SOL    HW2  114   0.317   0.487   2.644  0.7978  2.3190  2.5815
   39SOL     OW  115   1.922   1.295   1.523  0.5481 -0.2807  0.2335
   39SOL    HW1  116   1.978   1.300   1.439 -0.8795  0.8930 -1.3761
   39SOL    HW2  117   1.973   1.261   1.603  0.1701 -0.0380 -2.0263
   40SOL     OW  118   1.201   2.765   0.380  0.6968  0.3103 -0.5616
   40SOL    HW1  119   1.246   2.854   0.374 -1.3936 -3.4512 -1.3928
   40SOL    HW2  120   1.264   2.689   0.416  2.4686 -2.4738 -2.1176
   41SOL     OW  121   2.274   1.249   0.887  0.4509 -0.2739  0.0063
   41SOL    HW1  122   2.303   1.282   0.979 -0.7999 -0.4588 -1.8006
   41SOL    HW2  123   2.304   1.313   0.811 -0.3301  2.6019 -2.2296
   42SOL     OW  124   1.053   0.322   1.340 -0.1390 -0.0458  0.0801
   42SOL    HW1  125   1.044   0.286   1.242 -0.3934  0.8104 -0.3592
   42SOL    HW2  126   1.067   0.245   1.405  1.6789 -1.7288  2.3636
   43SOL     OW  127   0.098   1.433   2.362 -0.2635  0.0764 -0.0983
   43SOL    HW1  128   0.039   1.353   2.381 -0.0098  0.2896 -0.8156
   43SOL    HW2  129   0.183   1.437   2.423  2.2194  1.8780  0.1799
   44SOL     OW  130   2.458   3.075   1.691  0.2555  0.2161  0.4811
   44SOL    HW1  131   2.437   0.048   1.716  1.0478 -0.3446 -0.9879
   44SOL    HW2  132   2.528   3.032   1.746  0.8032  0.6231 -2.0556
   45SOL     OW  133   1.179   2.973   1.987 -0.6238  0.3099 -0.6850
   45SOL    HW1  134   1.244   3.011   2.055  1.2564 -1.3036 -0.3858
   45SOL    HW2  135   1.205   2.881   1.952 -4.7235  3.0177  1.8428
   46SOL     OW  136   1.147   2.573   2.624  0.3104 -0.3004 -0.6236
   46SOL    HW1  137   1.246   2.608   2.640  3.2970 -0.5405  0.3826
   46SOL    HW2  138   1.085   2.644   2.582 -2.8216  1.2595 -1.5954
   47SOL     OW  139   1.411   1.646   0.689  0.7877 -0.6272  0.1892
   47SOL    HW1  140   1.407   1.618   0.592 -0.3264 -3.4195  0.2581
   47SOL    HW2  141   1.493   1.603   0.737  2.0863 -2.5039  2.6280
   48SOL     OW  142   1.163   2.371   0.768  0.1311 -0.0307  0.0215
   48SOL    HW1  143   1.097   2.345   0.697 -1.4433  1.0912  0.2702
   48SOL    HW2  144   1.115   2.351   0.859  0.3127  2.3661 -1.1037
   49SOL     OW  145   2.158   3.013   2.796  0.0712 -0.4672 -0.5053
   49SOL    HW1  146   2.171   3.052   2.704  1.2968 -1.7022  1.2092
   49SOL    HW2  147   2.068   2.967   2.793  0.4531 -0.0813  0.8417
   50SOL     OW  148   1.818   0.012   2.929  0.0935 -0.2821 -0.1797
   50SOL    HW1  149   1.852   0.094   2.981  0.2389 -0.6819  1.2401
   50SOL    HW2  150   1.810   0.044   2.838 -0.1704  2.5056  3.1129
   51SOL     OW  151   2.481   0.553   1.434 -0.2330 -0.4945  0.0217
   51SOL    HW1  152   2.501   0.653   1.457  1.1065  0.2414  0.8147
   51SOL    HW2  153   2.541   0.513   1.361 -0.2198  0.1070  0.2783
   52SOL     OW  154   1.003   1.502   0.511 -0.3235 -0.6569  0.4278
   52SOL    HW1  155   1.067   1.566   0.457  2.7651 -0.3903  1.4515
   52SOL    HW2  156   0.998   1.533   0.609 -0.4110  0.8026  2.0949
   53SOL     OW  157   0.278   1.658   2.749  0.2414  0.1364  0.3445
   53SOL    HW1  158   0.264   1.748   2.708 -0.0932 -2.3023  0.3098
   53SOL    HW2  159   0.246   1.650   2.846  0.6623 -1.2281 -0.3095
   54SOL     OW  160   2.686   1.486   1.748 -0.3264 -0.3666 -0.2778
   54SOL    HW1  161   2.722   1.544   1.675 -0.2319 -0.2965  2.0824
   54SOL    HW2  162   2.751   1.473   1.826  0.6880 -1.3431  1.0440
   55SOL     OW  163   2.316   2.016   0.577 -1.2641 -0.3022  0.5552
   55SOL    HW1  164   2.345   1.934   0.637  0.1882 -0.8967 -0.2563
   55SOL    HW2  165   2.260   2.080   0.638 -1.3262  1.3894  2.2716
   56SOL     OW  166   1.515   0.219   1.609 -0.1968  0.1563 -0.2605
   56SOL    HW1  167   1.582   0.295   1.614  0.4807  2.5872 -2.6612
   56SOL    HW2  168   1.424   0.267   1.626  0.5075 -1.2777 -1.3487
   57SOL     OW  169   1.756   1.084   2.869  0.0620  0.5285 -0.2230
   57SOL    HW1  170   1.773   1.031   2.789 -1.8052 -1.6189  1.9529
   57SOL    HW2  171   1.714   1.033   2.947  0.0555 -0.0445  0.1961
   58SOL     OW  172   0.018   0.492   1.190  0.2041  0.1992 -0.3121
   58SOL    HW1  173   0.106   0.458   1.151  2.9500  0.9646  0.2783
   58SOL    HW2  174   3.121   0.580   1.146 -2.4057  0.4490 -1.6665
   59SOL     OW  175   1.621   2.741   0.224  0.3165 -0.4484  0.8967
   59SOL    HW1  176   1.602   2.841   0.247  1.1597  1.7566 -0.8405
   59SOL    HW2  177   1.611   2.678   0.301  2.7960  1.6207  2.0007
   60SOL     OW  178   2.787   1.859   2.930  0.0550  0.1720 -0.1153
   60SOL    HW1  179   2.820   1.799   3.010 -0.6388 -2.4478  5.4295
   60SOL    HW2  180   2.687   1.855   2.926 -1.7510 -2.3544  0.5694
   61SOL     OW  181   0.848   2.692   0.810 -0.0230  0.2787 -0.2366
   61SOL    HW1  182   0.805   2.754   0.874 -2.1052 -1.2053 -2.2095
   61SOL    HW2  183   0.827   2.597   0.839 -0.8413  2.6991  1.0817
   62SOL     OW  184   1.802   1.297   2.638  0.2546  0.4697  0.5594
   62SOL    HW1  185   1.720   1.361   2.624  1.2127 -1.7831 -0.2386
   62SOL    HW2  186   1.774   1.235   2.710 -1.5475  1.9018 -0.6304
   63SOL     OW  187   2.221   2.295   0.287 -0.2528 -0.2318 -0.1613
   63SOL    HW1  188   2.277   2.377   0.300  0.7401 -1.8000 -0.5336
   63SOL    HW2  189   2.195   2.284   0.188  0.3130 -0.2358 -1.1296
   64SOL     OW  190   1.674   0.932   0.021  0.2170  0.1701 -0.1634
   64SOL    HW1  191   1.652   0.903   3.049  1.6051  2.5058  3.8457
   64SOL    HW2  192   1.646   0.853   0.080  0.7076 -1.2596  0.9041
   65SOL     OW  193   1.973   1.802   2.248  0.4445 -0.2148  0.0897
   65SOL    HW1  194   2.072   1.780   2.243 -0.2814 -0.5112  0.2037
   65SOL    HW2  195   1.942   1.831   2.156  0.0644 -2.9665  0.6355
   66SOL     OW  196   0.237   0.994   1.078 -0.3406  0.4138 -0.5652
   66SOL    HW1  197   0.193   0.964   0.992  0.8927 -2.1977 -0.6717
   66SOL    HW2  198   0.204   1.084   1.106  0.1467  0.2609 -0.3866
   67SOL     OW  199   2.090   3.089   2.522  0.4533 -0.1911 -0.3813
   67SOL    HW1  200   2.033   0.049   2.518  1.7708 -1.1348 -2.0192
   67SOL    HW2  201   2.024   3.010   2.533 -2.2072  1.4170 -0.3407
   68SOL     OW  202   1.120   2.315   1.384 -0.0378  0.7202 -0.0694
   68SOL    HW1  203   1.166   2.352   1.301 -2.1071 -1.4569 -0.1095
   68SOL    HW2  204   1.180   2.238   1.413  0.6511  0.7869 -1.9879
   69SOL     OW  205   0.738   2.527   2.973 -0.2550  0.0445  0.4263
   69SOL    HW1  206   0.741   2.581   3.056 -1.1696 -1.8575 -3.9710
   69SOL    HW2  207   0.810   2.450   2.970  1.8878 -1.2287  0.6912
   70SOL     OW  208   3.055   0.640   2.316  0.2912  0.6349 -0.1605
   70SOL    HW1  209   3.087   0.656   2.222  1.9386  2.0307 -0.9985
   70SOL    HW2  210   3.035   0.730   2.361 -1.8117  1.3728 -0.2196
   71SOL     OW  211   0.951   1.569   3.086  0.3915  0.4841 -0.1216
   71SOL    HW1  212   0.905   1.505   3.017 -0.5351 -1.7620 -1.4987
   71SOL    HW2  213   0.877   1.628   0.004  0.0583 -0.5017  1.3093
   72SOL     OW  214   0.042   1.711   2.413 -0.2823 -0.1894 -0.0577
   72SOL    HW1  215   0.076   1.618   2.386  0.2499 -4.8320 -0.2070
   72SOL    HW2  216   0.062   1.780   2.342 -2.1402 -3.9815  2.6612
   73SOL     OW  217   1.757   1.262   0.339 -0.1407 -0.6108  0.0444
   73SOL    HW1  218   1.789   1.206   0.256  2.4457 -0.5214 -0.2743
   73SOL    HW2  219   1.761   1.207   0.426  1.0403  0.7874  2.7671
   74SOL     OW  220   2.446   2.745   2.739  0.0529  0.5619 -0.3860
   74SOL    HW1  221   2.509   2.682   2.698  0.1832 -0.2191 -0.4975
   74SOL    HW2  222   2.350   2.707   2.731 -0.7314  0.3404 -0.3817
   75SOL     OW  223   2.096   1.957   0.971  0.2403 -0.4822  0.1751
   75SOL    HW1  224   2.028   2.035   0.968 -0.4437  2.7030  1.4983
   75SOL    HW2  225   2.047   1.870   0.972  2.1322 -0.1758  1.4147
   76SOL     OW  226   2.760   2.174   2.093  0.3611  0.2695  0.0293
   76SOL    HW1  227   2.723   2.190   2.188 -1.7794 -1.0795 -1.0597
   76SOL    HW2  228   2.740   2.246   2.024  1.9175 -0.1658  1.4384
   77SOL     OW  229   2.761   0.216   2.258 -0.0775 -0.1911  0.0160
   77SOL    HW1  230   2.695   0.197   2.182 -1.3778 -0.2809 -0.4193
   77SOL    HW2  231   2.784   0.318   2.261 -1.7620 -0.4012 -0.7066
   78SOL     OW  232   2.117   1.177   0.072  0.6562 -0.2251  0.2708
   78SOL    HW1  233   2.096   1.170   3.094 -1.1528  1.2623 -0.8433
   78SOL    HW2  234   2.175   1.258   0.090  0.1824 -1.4263 -3.3156
   79SOL     OW  235   2.405   1.644   2.574 -0.3950 -0.8821 -0.5906
   79SOL    HW1  236   2.332   1.599   2.520  0.3702  3.3626  0.5753
   79SOL    HW2  237   2.479   1.685   2.521  0.1143  0.7854  2.0645
   80SOL     OW  238   1.541   1.611   1.584 -0.1890 -0.3112  0.0910
   80SOL    HW1  239   1.547   1.701   1.630  2.0376  0.0175  0.8951
   80SOL    HW2  240   1.491   1.542   1.637 -1.7943  2.0313 -0.8179
   81SOL     OW  241   1.945   0.682   1.884  0.1463  0.3476  0.0266
   81SOL    HW1  242   1.911   0.737   1.960 -1.6913  1.7483 -0.9515
   81SOL    HW2  243   2.034   0.716   1.855  0.3732  0.2146 -0.1152
   82SOL     OW  244   1.803   1.812   1.434  0.1591  0.2221 -0.3891
   82SOL    HW1  245   1.834   1.730   1.485 -1.5313  0.0159  1.1242
   82SOL    HW2  246   1.766   1.777   1.345  1.0908 -0.0880  0.5477
   83SOL     OW  247   0.112   0.130   0.174 -0.0161 -0.4389 -0.0178
   83SOL    HW1  248   0.157   0.217   0.140  1.4761 -0.5083 -0.0048
   83SOL    HW2  249   0.020   0.115   0.136  2.2186  1.6317 -0.9087
   84SOL     OW  250   0.570   0.916   0.076 -0.1332  0.5998  0.4498
   84SOL    HW1  251   0.585   0.845   0.151  2.3044 -0.1930  0.7012
   84SOL    HW2  252   0.494   0.883   0.017  1.8687 -2.5185  0.3645
   85SOL     OW  253   2.621   2.035   1.362  0.0220 -0.0926  0.3028
   85SOL    HW1  254   2.538   1.998   1.323  2.4224  1.1255 -1.7054
   85SOL    HW2  255   2.704   1.991   1.326 -1.8795  1.2136  0.4350
   86SOL     OW  256   0.452   2.719   1.327 -0.3023  0.1808  0.0796
   86SOL    HW1  257   0.519   2.643   1.331 -1.1132 -1.2836 -0.7848
   86SOL    HW2  258   0.438   2.738   1.226 -1.3434  1.5627 -3.4810
   87SOL     OW  259   0.505   2.539   2.365 -0.4252  0.3536 -0.6185
   87SOL    HW1  260   0.578   2.502   2.307  0.3704  3.4594 -0.9475
   87SOL    HW2  261   0.425   2.481   2.372 -0.1703  1.9128 -0.2551
   88SOL     OW  262   0.137   2.374   0.356  1.2734 -0.3635  0.6725
   88SOL    HW1  263   0.084   2.303   0.307 -0.9979  1.8623 -1.2215
   88SOL    HW2  264   0.158   2.361   0.456  0.6815  2.1242  1.6605
   89SOL     OW  265   0.908   0.831   0.875  0.5019 -0.8250 -0.9350
   89SOL    HW1  266   0.966   0.747   0.871 -0.5083 -1.9239 -0.6044
   89SOL    HW2  267   0.916   0.865   0.973  1.5115  0.4242  0.8471
   90SOL     OW  268   0.237   1.076   1.724  0.0898 -0.0884  0.0756
   90SOL    HW1  269   0.195   1.155   1.675 -0.0603  0.2640 -0.7121
   90SOL    HW2  270   0.308   1.113   1.785 -0.5191  0.3013 -0.2074
   91SOL     OW  271   1.138   0.635   0.914 -0.0865 -0.2992  0.6666
   91SOL    HW1  272   1.071   0.575   0.866 -0.3549  0.5534  1.3440
   91SOL    HW2  273   1.169   0.593   1.006  0.0906 -2.1950  3.5771
   92SOL     OW  274   1.814   1.085   1.076  0.0939 -0.2979 -0.1961
   92SOL    HW1  275   1.856   1.023   1.144  0.9491 -0.2846  2.0389
   92SOL    HW2  276   1.784   1.033   0.994  2.8034  0.5059  0.9706
   93SOL     OW  277   2.651   1.069   2.215 -0.2922 -0.1380  0.3027
   93SOL    HW1  278   2.699   0.979   2.227 -0.9857  3.0443 -2.0059
   93SOL    HW2  279   2.568   1.078   2.271  1.5664  2.0898 -3.0488
   94SOL     OW  280   1.973   1.787   2.680 -0.3687  0.4002 -0.0231
   94SOL    HW1  281   1.902   1.845   2.630 -1.9534  0.4881 -0.9019
   94SOL    HW2  282   2.069   1.806   2.646  0.6269  1.3513 -1.9256
   95SOL     OW  283   2.782   0.543   1.395  0.4011 -0.3935 -0.2927
   95SOL    HW1  284   2.867   0.593   1.379 -2.3607  0.8694 -1.3892
   95SOL    HW2  285   2.760   0.492   1.303  0.2955  0.0537 -2.5977
   96SOL     OW  286   2.605   2.929   1.882  0.1007 -0.2185  0.6496
   96SOL    HW1  287   2.702   2.934   1.914 -4.3197  1.0161  0.4440
   96SOL    HW2  288   2.545   2.902   1.958  1.6294  1.0303  3.7050
   97SOL     OW  289   2.618   1.051   1.521  0.4719  0.5314 -0.5888
   97SOL    HW1  290   2.685   0.988   1.563  0.4019  1.3294 -0.1889
   97SOL    HW2  291   2.594   1.132   1.576  1.7016 -1.8930 -0.7429
   98SOL     OW  292   1.736   2.249   1.669  0.0303  0.4449 -0.1388
   98SOL    HW1  293   1.742   2.152   1.635  3.4062 -0.1108 -0.2683
   98SOL    HW2  294   1.685   2.255   1.756  0.8770  0.5252  1.1177
   99SOL     OW  295   0.534   2.416   1.606  0.7940 -0.0404  0.1837
   99SOL    HW1  296   0.586   2.405   1.522 -2.5761 -0.2320 -0.5580
   99SOL    HW2  297   0.520   2.513   1.632  0.1117 -0.5742 -2.9216
  100SOL     OW  298   1.105   0.612   2.834 -0.1506  0.5688  0.1201
  100SOL    HW1  299   1.067   0.575   2.921  3.2809  0.2447  1.0097
  100SOL    HW2  300   1.093   0.546   2.757  0.4616  0.6438 -2.6608
  101SOL     OW  301   2.482   0.192   2.679  0.3950 -0.2356  0.0809
  101SOL    HW1  302   2.506   0.093   2.679 -0.6309  0.2577  2.1451
  101SOL    HW2  303   2.480   0.212   2.777  1.4732 -0.2121 -0.8670
  102SOL     OW  304   0.557   0.643   1.386 -0.4461 -0.2253  0.0952
  102SOL    HW1  305   0.488   0.616   1.312 -1.7140 -1.3803  1.5561
  102SOL    HW2  306   0.547   0.597   1.475  1.5710  0.6762  1.4641
  103SOL     OW  307   0.923   0.440   2.440  0.4853  0.5733  0.0465
  103SOL    HW1  308   1.025   0.454   2.452  0.6785  0.6955  0.3799
  103SOL    HW2  309   0.903   0.364   2.504  2.4276  0.9975  0.1592
  104SOL     OW  310   0.983   0.953   2.642 -1.1111 -0.0306 -0.2074
  104SOL    HW1  311   0.950   0.988   2.732  0.4634 -0.4849 -1.2916
  104SOL    HW2  312   1.073   0.913   2.658 -1.6886 -1.9062 -2.0897
  105SOL     OW  313   2.198   2.168   1.683 -0.5738  0.2142  0.2006
  105SOL    HW1  314   2.205   2.175   1.784  0.4281 -2.0226 -0.3591
  105SOL    HW2  315   2.290   2.192   1.639  1.3789  3.0770 -0.6749
  106SOL     OW  316   1.888   3.030   0.511 -0.5941 -0.3468 -0.1246
  106SOL    HW1  317   1.879   2.969   0.593 -0.0814 -1.0729  1.5981
  106SOL    HW2  318   1.967   3.010   0.452  1.7940 -0.9483 -0.1730
  107SOL     OW  319   2.402   1.937   0.976 -0.4501  0.1063 -0.0769
  107SOL    HW1  320   2.308   1.976   0.973 -0.4611  1.2854  1.2325
  107SOL    HW2  321   2.417   1.872   0.900  0.3689 -3.2331 -1.8112
  108SOL     OW  322   2.689   3.088   1.464 -0.5330 -0.3347 -0.1331
  108SOL    HW1  323   2.681   3.019   1.536 -2.2009  1.7916  2.9077
  108SOL    HW2  324   2.748   0.040   1.499 -1.6771  0.3906  0.9984
  109SOL     OW  325   2.091   2.491   1.082 -0.4974  0.4995  0.3078
  109SOL    HW1  326   2.091   2.460   1.180  1.2740 -3.1502  2.4976
  109SOL    HW2  327   2.111   2.593   1.072  0.4662  0.2332  0.8991
  110SOL     OW  328   0.723   1.691   2.011 -0.1230 -0.1432 -0.0529
  110SOL    HW1  329   0.681   1.645   1.931 -0.6126  0.4679  0.1112
  110SOL    HW2  330   0.681   1.779   2.034 -0.7217 -3.0893 -1.2633
  111SOL     OW  331   1.680   2.155   2.249  0.6260 -0.2997 -0.1615
  111SOL    HW1  332   1.768   2.198   2.216  1.6479  0.2277 -1.2799
  111SOL    HW2  333   1.615   2.121   2.181  0.3852 -0.1873  0.6999
  112SOL     OW  334   1.578   1.711   2.507  0.1662  0.1655 -0.8630
  112SOL    HW1  335   1.531   1.751   2.430  0.5964 -2.3605 -0.3712
  112SOL    HW2  336   1.675   1.735   2.498 -2.4939 -2.8371 -1.7384
  113SOL     OW  337   1.728   1.981   1.637 -0.3061 -0.2222  0.5660
  113SOL    HW1  338   1.645   1.933   1.680  0.2235 -0.3014  2.3774
  113SOL    HW2  339   1.768   1.921   1.565 -1.1646  1.3489  1.7661
  114SOL     OW  340   2.893   1.107   0.897 -0.0465 -0.0120  0.1920
  114SOL    HW1  341   2.960   1.044   0.943 -0.6168  1.3486  1.9899
  114SOL    HW2  342   2.801   1.063   0.885  0.7146 -1.3352 -0.3482
  115SOL     OW  343   0.582   0.735   0.278 -0.3664  0.3011 -0.4525
  115SOL    HW1  344   0.516   0.781   0.343 -0.9986  0.5237 -1.1412
  115SOL    HW2  345   0.540   0.656   0.234  0.7384  1.3431 -0.9255
  116SOL     OW  346   2.642   1.800   2.543 -0.6422  0.4547  0.3132
  116SOL    HW1  347   2.634   1.902   2.525  0.0930  2.8225 -0.0151
  116SOL    HW2  348   2.673   1.790   2.636 -1.7884 -0.5471 -1.5486
  117SOL     OW  349   3.030   2.772   0.705 -0.2465  0.2614 -0.6057
  117SOL    HW1  350   3.066   2.701   0.641 -1.6143  1.0260  1.6303
  117SOL    HW2  351   3.056   2.743   0.800  0.2917 -3.1137 -1.5823
  118SOL     OW  352   0.973   1.516   2.723 -0.2352  0.4223  0.0599
  118SOL    HW1  353   0.949   1.608   2.696  2.3465 -0.4031  0.4370
  118SOL    HW2  354   1.048   1.481   2.657 -0.4213 -3.4276  0.0844
  119SOL     OW  355   0.557   2.064   0.363 -0.0541 -0.5908 -0.2541
  119SOL    HW1  356   0.460   2.045   0.391 -3.2996  1.4658 -0.8587
  119SOL    HW2  357   0.586   2.163   0.374 -0.4346  0.5937  0.8976
  120SOL     OW  358   1.438   0.393   0.427  0.2895 -0.2114  0.0051
  120SOL    HW1  359   1.461   0.450   0.343 -0.5089 -1.0562 -1.5016
  120SOL    HW2  360   1.507   0.320   0.452  2.1444  0.1198  0.6993
  121SOL     OW  361   1.383   2.560   0.405  0.2340  0.0883  0.0934
  121SOL    HW1  362   1.484   2.553   0.412 -0.6586 -1.6656  1.9784
  121SOL    HW2  363   1.343   2.465   0.384 -1.3335 -1.0644 -0.1471
  122SOL     OW  364   2.522   2.399   1.918 -0.5691  0.2887 -0.1574
  122SOL    HW1  365   2.475   2.470   1.863  4.0602  0.7089  1.6558
  122SOL    HW2  366   2.603   2.359   1.867  2.4710 -2.0465  0.7747
  123SOL     OW  367   0.637   1.834   0.713 -0.1481 -0.3456  0.7519
  123SOL    HW1  368   0.658   1.850   0.616  0.7437 -0.4736  0.9097
  123SOL    HW2  369   0.716   1.857   0.773 -0.4096 -0.8226 -1.3260
  124SOL     OW  370   2.938   0.770   0.153  0.6412 -0.2806  0.1190
  124SOL    HW1  371   3.030   0.732   0.182 -0.0525 -0.5498  1.2868
  124SOL    HW2  372   2.863   0.726   0.209 -1.8538 -2.0536 -1.5893
  125SOL     OW  373   0.449   0.954   0.413 -0.1225  0.3377 -0.1176
  125SOL    HW1  374   0.409   0.888   0.482 -0.7719 -2.7750 -0.4914
  125SOL    HW2  375   0.487   1.033   0.458 -3.1953 -1.1389 -1.1514
  126SOL     OW  376   2.952   1.865   0.652  0.3906  0.1175  0.1087
  126SOL    HW1  377   2.902   1.823   0.731  1.3924  0.9478  2.1627
  126SOL    HW2  378   3.046   1.890   0.677 -0.3434  0.4434 -1.4391
  127SOL     OW  379   1.496   1.852   1.709 -0.2142 -0.8875  0.9344
  127SOL    HW1  380   1.514   1.827   1.803 -0.1545 -0.7161 -1.2579
  127SOL    HW2  381   1.396   1.837   1.684 -2.6889 -0.0945 -0.3389
  128SOL     OW  382   0.952   1.131   0.138 -0.3494 -0.7097  0.3633
  128SOL    HW1  383   0.876   1.199   0.129 -1.2225 -0.6819  0.8728
  128SOL    HW2  384   1.043   1.179   0.143  1.8822 -3.3682  0.6171
  129SOL     OW  385   1.680   1.670   1.195  0.5850 -0.2545  0.7210
  129SOL    HW1  386   1.641   1.725   1.119  0.9620  5.0057  0.2911
  129SOL    HW2  387   1.612   1.619   1.254  0.3538  0.0983 -0.8698
  130SOL     OW  388   2.325   1.656   1.602  0.1351 -0.3277  0.3301
  130SOL    HW1  389   2.296   1.752   1.590 -1.4041  0.6002 -1.5591
  130SOL    HW2  390   2.350   1.641   1.698 -0.0801  0.3654 -1.7798
  131SOL     OW  391   0.141   2.839   2.786  0.0597  0.1059 -0.2342
  131SOL    HW1  392   0.068   2.874   2.725 -1.2178 -1.6213  2.7114
  131SOL    HW2  393   0.221   2.792   2.744 -2.2383  1.5592  2.2281
  132SOL     OW  394   2.550   1.641   0.641 -0.0427 -0.9934  0.7548
  132SOL    HW1  395   2.593   1.623   0.550 -0.9612  0.8910 -0.8515
  132SOL    HW2  396   2.615   1.620   0.720 -0.9116 -1.1175 -2.6458
  133SOL     OW  397   0.491   0.002   1.956  0.1494  0.0959  0.1747
  133SOL    HW1  398   0.446   3.037   1.993  0.4228 -0.8781  2.7106
  133SOL    HW2  399   0.469   0.074   2.023 -0.9957 -3.3181  0.1064
  134SOL     OW  400   0.052   1.744   2.945 -0.5930  0.6825  0.0402
  134SOL    HW1  401   3.082   1.737   2.991  3.3033 -1.2511  2.8267
  134SOL    HW2  402   0.075   1.841   2.918 -1.7271  0.0023 -1.7527
  135SOL     OW  403   1.490   0.665   1.948 -0.1622 -0.1952  0.9725
  135SOL    HW1  404   1.431   0.750   1.942 -0.8468  3.3599  1.4844
  135SOL    HW2  405   1.563   0.671   1.879 -0.7960  2.8130 -0.6998
  136SOL     OW  406   2.738   1.543   0.408 -0.7380  0.0558 -0.5384
  136SOL    HW1  407   2.824   1.592   0.383 -0.1058 -1.4566 -0.8002
  136SOL    HW2  408   2.683   1.545   0.321  0.9013  1.1148 -0.1013
  137SOL     OW  409   2.956   1.821   0.928  0.5716  0.4020  0.1706
  137SOL    HW1  410   2.917   1.790   1.021 -2.3791 -3.6284  1.8477
  137SOL    HW2  411   2.984   1.920   0.921  2.4027  1.4223 -1.1395
  138SOL     OW  412   2.557   0.683   1.115 -0.2637 -0.6701  0.3585
  138SOL    HW1  413   2.575   0.591   1.146 -3.6026  2.9461 -2.9636
  138SOL    HW2  414   2.562   0.756   1.184 -1.0002  0.5312  0.3244
  139SOL     OW  415   1.280   2.605   3.090 -0.5352  0.0393 -0.7303
  139SOL    HW1  416   1.353   2.673   3.091 -4.0162 -1.4672 -2.8432
  139SOL    HW2  417   1.225   2.612   3.004 -1.3461 -1.5606 -0.3155
  140SOL     OW  418   1.133   1.696   1.154  0.4502  0.4343 -0.3639
  140SOL    HW1  419   1.058   1.672   1.083 -0.7048 -4.0427  0.0440
  140SOL    HW2  420   1.171   1.788   1.126  0.5840  0.5061  0.5094
  141SOL     OW  421   1.261   2.322   0.440  0.0790  0.5253  0.0636
  141SOL    HW1  422   1.168   2.290   0.419  0.9086 -1.4151 -1.7039
  141SOL    HW2  423   1.271   2.341   0.539 -1.8372  0.6350  0.7718
  142SOL     OW  424   0.893   0.375   0.871  0.6602 -0.2619  0.0410
  142SOL    HW1  425   0.829   0.433   0.818  0.3626 -0.2087  2.0143
  142SOL    HW2  426   0.939   0.314   0.806 -0.5714 -2.3945  1.0926
  143SOL     OW  427   0.752   1.294   0.044 -0.0652 -0.1753  0.0871
  143SOL    HW1  428   0.791   1.329   3.077 -1.6372 -1.4157 -1.5102
  143SOL    HW2  429   0.666   1.242   0.025  0.6961  1.7256  1.1756
  144SOL     OW  430   1.739   2.625   0.888 -0.1766 -0.3576  0.0058
  144SOL    HW1  431   1.656   2.615   0.826 -0.0564 -0.4975  0.1239
  144SOL    HW2  432   1.814   2.567   0.849 -0.1258  0.3909 -1.6838
  145SOL     OW  433   2.047   0.537   2.705  0.1201  0.2621  0.0169
  145SOL    HW1  434   2.005   0.560   2.615 -1.4956  1.8109 -2.9469
  145SOL    HW2  435   2.149   0.550   2.693  0.3403 -1.8910 -0.3742
  146SOL     OW  436   0.122   2.867   0.379  0.0331 -0.3516 -0.0665
  146SOL    HW1  437   0.060   2.913   0.447  0.8503 -0.0290  0.4004
  146SOL    HW2  438   0.172   2.938   0.326 -0.7581  0.1826 -1.7842
  147SOL     OW  439   2.049   0.330   2.137  0.1795 -0.6006 -0.0872
  147SOL    HW1  440   2.108   0.293   2.213  0.3989 -0.5807 -0.0595
  147SOL    HW2  441   2.092   0.413   2.088  0.7822  0.4535 -1.8030
  148SOL     OW  442   1.130   0.258   1.871  0.8269 -0.0248  0.4857
  148SOL    HW1  443   1.209   0.282   1.928  0.1722 -0.4398  1.2705
  148SOL    HW2  444   1.083   0.182   1.915  1.6096  0.4480 -1.2466
  149SOL     OW  445   1.637   0.386   1.992 -0.2749  0.3724  0.1093
  149SOL    HW1  446   1.654   0.471   2.048  0.9308  0.2069  0.4531
  149SOL    HW2  447   1.576   0.324   2.045 -1.9524  0.0364  0.6772
  150SOL     OW  448   3.114   0.104   2.982  0.3912 -0.1595 -0.4424
  150SOL    HW1  449   3.073   0.139   3.065  0.3316 -0.6535 -0.3431
  150SOL    HW2  450   3.053   0.117   2.903  0.8019 -2.4582  0.6984
  151SOL     OW  451   0.463   1.300   0.242 -0.4528  0.5308  0.3677
  151SOL    HW1  452   0.470   1.247   0.150 -0.3329  1.2357 -0.3929
  151SOL    HW2  453   0.541   1.368   0.236 -1.1228  1.4668 -0.6188
  152SOL     OW  454   2.988   0.297   0.476 -0.3485  0.2381 -0.0354
  152SOL    HW1  455   2.956   0.313   0.383  0.3524 -2.1729  1.9955
  152SOL    HW2  456   2.979   0.371   0.547 -1.8817 -1.1391  3.8422
  153SOL     OW  457   2.584   0.418   1.221  1.0835  0.4810 -0.1830
  153SOL    HW1  458   2.532   0.337   1.259 -0.0089  0.6641  0.8929
  153SOL    HW2  459   2.635   0.392   1.135 -0.4811 -0.7099  0.4910
  154SOL     OW  460   1.604   2.961   2.073  0.5047  0.5450  0.2015
  154SOL    HW1  461   1.666   2.993   1.996  2.6480 -0.0939 -1.7344
  154SOL    HW2  462   1.587   2.864   2.057 -0.2928 -0.1404  1.7330
  155SOL     OW  463   0.090   1.938   0.685  0.0588 -0.3866  0.5313
  155SOL    HW1  464   0.135   2.009   0.745 -0.6018 -1.7921 -1.1161
  155SOL    HW2  465   0.136   1.845   0.677  0.9974 -3.0873 -0.6575
  156SOL     OW  466   2.191   2.007   3.047 -0.0880 -0.2348 -0.4019
  156SOL    HW1  467   2.204   2.011   2.946  1.6217  0.3773 -3.1864
  156SOL    HW2  468   2.167   2.105   3.074 -1.2921 -0.6091 -1.1186
  157SOL     OW  469   0.863   0.165   0.634  0.2773 -0.1739  0.1490
  157SOL    HW1  470   0.810   0.252   0.613 -1.0247 -0.4863  0.2160
  157SOL    HW2  471   0.931   0.145   0.564  1.3003 -0.7439  0.6401
  158SOL     OW  472   2.324   0.675   2.208 -0.2540  0.0256  0.2247
  158SOL    HW1  473   2.382   0.603   2.245  1.5069 -0.3828  0.8799
  158SOL    HW2  474   2.368   0.725   2.125 -2.3090 -1.9397  2.7619
  159SOL     OW  475   0.106   0.182   0.451  0.2191  0.2945  0.2984
  159SOL    HW1  476   0.015   0.231   0.458  0.1060  1.3982 -1.3322
  159SOL    HW2  477   0.120   0.137   0.359  2.6115 -1.2689 -1.0615
  160SOL     OW  478   1.538   2.031   2.050 -0.6826 -0.3013 -0.0906
  160SOL    HW1  479   1.441   2.015   2.072 -0.1559 -0.9454  1.7535
  160SOL    HW2  480   1.575   1.945   2.007 -1.0773 -0.2941 -2.9085
  161SOL     OW  481   2.731   0.626   2.709 -0.2244  0.0985 -0.1066
  161SOL    HW1  482   2.791   0.704   2.725 -0.9906 -0.0778  0.9206
  161SOL    HW2  483   2.789   0.545   2.690 -0.5031  2.7956 -1.3104
  162SOL     OW  484   0.844   2.500   1.721 -0.6472 -0.0892  0.0546
  162SOL    HW1  485   0.901   2.532   1.643 -0.2648 -0.6256  1.5331
  162SOL    HW2  486   0.807   2.582   1.773  0.7514 -0.4735 -0.1006
  163SOL     OW  487   2.768   0.221   2.548 -0.3020 -0.2140 -0.8635
  163SOL    HW1  488   2.765   0.211   2.443  0.5078 -1.2464 -0.1123
  163SOL    HW2  489   2.673   0.229   2.585 -1.7457  1.9809  1.9798
  164SOL     OW  490   2.050   1.601   0.205 -0.4997 -0.0639  0.1014
  164SOL    HW1  491   2.019   1.569   0.113  1.2351 -0.0749  0.9933
  164SOL    HW2  492   2.133   1.661   0.195 -1.2143  0.7750  0.7885
  165SOL     OW  493   3.042   0.310   1.532  0.0748 -0.1645 -0.3842
  165SOL    HW1  494   3.078   0.402   1.565 -0.6898 -2.2868 -1.4355
  165SOL    HW2  495   3.034   0.307   1.430  1.1225  3.0855 -2.8306
  166SOL     OW  496   2.363   0.554   2.951  0.2663  0.4580  0.2354
  166SOL    HW1  497   2.469   0.545   2.949  2.8628  1.5762 -1.7215
  166SOL    HW2  498   2.337   0.640   3.001  2.2804 -2.1102 -0.2161
  167SOL     OW  499   2.798   0.772   3.027 -0.3045 -0.0836 -0.1438
  167SOL    HW1  500   2.851   0.753   3.112 -1.0538  1.5138  1.4615
  167SOL    HW2  501   2.855   0.780   2.943  0.5651  1.8467 -1.4852
  168SOL     OW  502   1.761   2.789   2.888  0.9095 -0.0348 -0.0150
  168SOL    HW1  503   1.847   2.778   2.940 -1.0714 -0.2724  1.4092
  168SOL    HW2  504   1.732   2.885   2.883 -0.7778  0.1784  0.0932
  169SOL     OW  505   0.071   1.594   0.946 -0.1252 -0.0349  0.3733
  169SOL    HW1  506   3.097   1.604   0.903 -3.8885  0.5840  0.3803
  169SOL    HW2  507   0.127   1.527   0.895  1.7262  0.0284  0.7092
  170SOL     OW  508   3.022   0.693   1.361 -0.0870 -0.0461 -0.1826
  170SOL    HW1  509   3.078   0.619   1.394 -1.4277  3.0112  2.4368
  170SOL    HW2  510   3.087   0.766   1.335 -0.7134  0.4546  1.7964
  171SOL     OW  511   2.129   2.142   1.950 -0.2369  0.4342 -0.2041
  171SOL    HW1  512   2.064   2.074   1.913 -2.9284 -1.0124  2.3234
  171SOL    HW2  513   2.208   2.088   1.999 -0.1369 -2.6472 -0.4234
  172SOL     OW  514   0.275   2.404   1.524  0.6631 -0.4737  0.4438
  172SOL    HW1  515   0.257   2.305   1.502 -0.9365 -1.2907 -0.0987
  172SOL    HW2  516   0.369   2.412   1.561 -1.4553  0.4187 -0.8724
  173SOL     OW  517   1.388   1.054   0.260  0.4596  0.3537 -0.3435
  173SOL    HW1  518   1.412   0.995   0.337 -2.3591  2.7315 -1.7118
  173SOL    HW2  519   1.368   0.991   0.185 -1.1842 -1.9337 -2.3309
  174SOL     OW  520   1.320   3.102   2.416  0.0735  0.1381  0.0065
  174SOL    HW1  521   1.395   3.076   2.483 -0.9524 -3.2779 -0.1095
  174SOL    HW2  522   1.249   3.025   2.412 -1.0170 -1.8129 -2.5313
  175SOL     OW  523   1.752   1.820   0.887  0.0050 -0.1661 -0.0944
  175SOL    HW1  524   1.823   1.754   0.914  1.1955  0.1046 -0.0218
  175SOL    HW2  525   1.665   1.791   0.926  2.5167  1.4125 -0.7478
  176SOL     OW  526   1.414   0.087   0.028 -0.3781  0.2297  0.4572
  176SOL    HW1  527   1.462   0.117   0.113 -2.2811  0.7722  0.1022
  176SOL    HW2  528   1.409   0.164   3.085 -0.1633 -0.6307  0.6658
  177SOL     OW  529   0.645   1.043   2.909 -0.1357 -0.0047 -0.2245
  177SOL    HW1  530   0.587   0.991   2.843 -3.2899 -1.4629  0.2327
  177SOL    HW2  531   0.607   1.021   3.003  0.7189  0.2301  2.2438
  178SOL     OW  532   2.661   2.312   2.624 -0.3726 -0.1923  0.0276
  178SOL    HW1  533   2.745   2.282   2.573 -1.2505 -0.0903  0.2492
  178SOL    HW2  534   2.605   2.379   2.576 -2.6403  1.7277  0.6325
  179SOL     OW  535   2.821   0.196   2.977 -0.0038  0.0025  0.4596
  179SOL    HW1  536   2.852   0.185   2.880  0.6530  0.4282 -1.0322
  179SOL    HW2  537   2.825   0.112   3.029  0.5644  1.7102  1.6600
  180SOL     OW  538   1.749   1.173   0.595 -0.4185  0.3027 -0.6665
  180SOL    HW1  539   1.675   1.163   0.667 -1.8054  0.0259  0.4705
  180SOL    HW2  540   1.828   1.106   0.605  0.8003 -2.0029 -1.0457
  181SOL     OW  541   1.960   1.535   2.535 -0.4136  0.1030 -0.0150
  181SOL    HW1  542   1.951   1.608   2.607  0.2133  0.1719  1.4007
  181SOL    HW2  543   1.929   1.443   2.569 -1.4502 -0.0482  1.5652
  182SOL     OW  544   2.867   2.599   2.575 -0.1742 -0.0292  0.8121
  182SOL    HW1  545   2.877   2.631   2.476  3.1141  2.4199 -1.1913
  182SOL    HW2  546   2.771   2.585   2.595  1.3160 -1.7813 -1.1553
  183SOL     OW  547   1.884   0.822   2.115  0.4184 -0.3372  0.2142
  183SOL    HW1  548   1.859   0.920   2.114  1.0637 -2.5630  0.2870
  183SOL    HW2  549   1.948   0.802   2.195 -1.9407  0.1456  1.5001
  184SOL     OW  550   0.133   1.309   1.638 -0.2787 -0.3117 -0.4278
  184SOL    HW1  551   0.188   1.344   1.561 -0.1312  3.5458  0.0895
  184SOL    HW2  552   0.052   1.368   1.642 -0.6268 -1.4387 -0.0273
  185SOL     OW  553   1.644   0.330   1.010  0.1469  0.0470 -0.1101
  185SOL    HW1  554   1.592   0.330   1.098 -0.8848  0.6093 -1.1807
  185SOL    HW2  555   1.584   0.368   0.933  0.7309  1.7508  0.3256
  186SOL     OW  556   0.285   2.502   2.833  0.0195  0.2054 -0.2025
  186SOL    HW1  557   0.230   2.423   2.791 -1.9621 -0.2432 -0.2792
  186SOL    HW2  558   0.275   2.589   2.777  3.1127 -0.4701 -2.3360
  187SOL     OW  559   2.756   1.268   0.459  0.4221  0.3000 -0.2104
  187SOL    HW1  560   2.762   1.367   0.442  1.3461 -4.6095 -1.4268
  187SOL    HW2  561   2.660   1.236   0.449 -0.9145 -0.6960 -2.5887
  188SOL     OW  562   2.492   1.463   1.211 -0.0357  0.1910  0.1592
  188SOL    HW1  563   2.570   1.418   1.260  0.5301 -0.5502  2.9484
  188SOL    HW2  564   2.527   1.527   1.142 -1.0512  2.2027 -0.5585
  189SOL     OW  565   2.901   0.430   2.641 -0.1441  0.3661 -0.0477
  189SOL    HW1  566   2.851   0.344   2.606 -2.5934 -0.8883  1.0745
  189SOL    HW2  567   2.985   0.436   2.578  0.1817  2.6050 -0.3213
  190SOL     OW  568   1.307   1.020   1.614  0.1961 -0.1014 -0.5231
  190SOL    HW1  569   1.362   1.102   1.635 -2.4918  1.8626 -0.1134
  190SOL    HW2  570   1.209   1.040   1.623  3.5552 -2.0780 -1.6367
  191SOL     OW  571   0.528   0.486   2.122 -0.2910 -0.5399  0.1194
  191SOL    HW1  572   0.443   0.469   2.068  4.7464 -0.2075  0.2783
  191SOL    HW2  573   0.576   0.399   2.143  0.1561  1.7024  0.7030
  192SOL     OW  574   1.922   2.101   1.262 -0.1694 -0.4584 -0.5509
  192SOL    HW1  575   1.921   2.192   1.308  1.9129  0.6603  1.1436
  192SOL    HW2  576   1.827   2.068   1.246 -0.4133  0.6103  0.9685
  193SOL     OW  577   1.826   0.606   1.316 -0.9419 -0.3768 -0.0470
  193SOL    HW1  578   1.749   0.575   1.375  1.3195  0.0944  1.1541
  193SOL    HW2  579   1.808   0.591   1.216  1.8873 -3.0089  0.2567
  194SOL     OW  580   0.466   2.143   1.305  0.0975  0.0888  0.4023
  194SOL    HW1  581   0.368   2.151   1.337 -1.4344  3.3259 -0.9664
  194SOL    HW2  582   0.477   2.154   1.204  1.1402  2.2537  0.2301
  195SOL     OW  583   1.604   0.156   0.247  0.0105  0.4838  0.7191
  195SOL    HW1  584   1.658   0.160   0.332 -1.1279  1.6453  1.3580
  195SOL    HW2  585   1.648   0.215   0.174  0.1783  3.8724  0.1219
  196SOL     OW  586   0.327   1.318   1.407  0.5492  0.0481 -0.1663
  196SOL    HW1  587   0.313   1.417   1.403 -1.2268 -0.0815  0.5873
  196SOL    HW2  588   0.390   1.285   1.477 -3.4917 -0.6278  1.0707
  197SOL     OW  589   0.874   0.306   1.767 -0.1550  0.4129 -0.5887
  197SOL    HW1  590   0.968   0.291   1.791 -2.6032  4.7497 -0.0269
  197SOL    HW2  591   0.863   0.395   1.716  0.2816  0.5058 -1.2243
  198SOL     OW  592   0.616   1.213   1.233  0.0601  0.4942  0.3305
  198SOL    HW1  593   0.692   1.267   1.283  1.2779  3.4175  0.8928
  198SOL    HW2  594   0.581   1.138   1.290 -0.6621 -2.1944 -0.5846
  199SOL     OW  595   0.087   2.472   1.723 -0.1666  0.6526  0.1942
  199SOL    HW1  596   0.125   2.565   1.730 -0.4817  1.5660 -0.0229
  199SOL    HW2  597   0.133   2.421   1.649 -0.1309  2.4007  1.6687
  200SOL     OW  598   1.722   1.583   1.834  0.3030 -0.2377  0.1649
  200SOL    HW1  599   1.747   1.585   1.733  0.3604 -2.7130  2.1060
  200SOL    HW2  600   1.789   1.526   1.881  0.6583  2.6402  1.9291
  201SOL     OW  601   0.560   1.903   2.090  0.0849  0.2595 -0.2392
  201SOL    HW1  602   0.577   1.902   2.191 -0.5607 -0.4034  0.1197
  201SOL    HW2  603   0.461   1.917   2.069 -3.3705  1.8223  0.6352
  202SOL     OW  604   1.629   0.568   3.059 -1.0113 -0.1505 -0.6613
  202SOL    HW1  605   1.665   0.624   2.984  0.3263  1.4375  0.9260
  202SOL    HW2  606   1.602   0.626   0.014  0.7432 -0.8595 -3.1194
  203SOL     OW  607   1.239   2.713   1.859  0.3126  0.2068 -0.0606
  203SOL    HW1  608   1.335   2.675   1.869  0.3424  1.3366 -0.9205
  203SOL    HW2  609   1.171   2.643   1.889 -1.1031  0.8860  0.3786
  204SOL     OW  610   0.636   1.843   1.694  0.2150 -0.4398 -0.5357
  204SOL    HW1  611   0.622   1.915   1.624 -0.1622 -1.8818 -1.4772
  204SOL    HW2  612   0.550   1.789   1.707  0.1655 -0.5817 -0.2682
  205SOL     OW  613   1.572   1.778   1.971 -0.1782  0.2891 -0.6290
  205SOL    HW1  614   1.640   1.713   1.932  1.1668 -1.0094 -0.8486
  205SOL    HW2  615   1.507   1.724   2.026  1.7041  0.1262 -0.1178
  206SOL     OW  616   0.136   1.426   2.088 -0.0818  0.1123 -0.1108
  206SOL    HW1  617   0.210   1.358   2.073  0.6258 -0.0951  1.5418
  206SOL    HW2  618   0.107   1.412   2.184 -0.2685 -1.9632 -3.2358
  207SOL     OW  619   0.778   2.936   2.122 -0.0906  0.3348  0.0751
  207SOL    HW1  620   0.699   2.953   2.182 -2.6594  0.4391 -1.3530
  207SOL    HW2  621   0.785   3.003   2.049  0.3802 -2.2890  0.7984
  208SOL     OW  622   0.576   2.520   1.954 -0.1681  0.5016 -0.3409
  208SOL    HW1  623   0.583   2.591   1.882  0.6665  0.4471 -1.6361
  208SOL    HW2  624   0.580   2.433   1.910  1.5197  0.7896 -0.2110
  209SOL     OW  625   1.331   3.004   0.378 -0.1133 -0.1753  0.1716
  209SOL    HW1  626   1.424   3.006   0.347  0.4599  0.6951  2.2078
  209SOL    HW2  627   1.306   3.076   0.445  1.9882 -0.1044 -1.3420
  210SOL     OW  628   2.571   0.614   0.592  0.0663  0.0730 -0.1879
  210SOL    HW1  629   2.582   0.539   0.520  0.8934 -0.4927  1.3409
  210SOL    HW2  630   2.601   0.696   0.542  2.7781 -0.9632  2.2445
  211SOL     OW  631   0.571   0.580   1.637 -0.2043 -0.2948  0.4878
  211SOL    HW1  632   0.521   0.622   1.715 -0.6838 -2.2205 -0.7020
  211SOL    HW2  633   0.672   0.559   1.649  3.9193  0.3614  1.7047
  212SOL     OW  634   1.379   2.175   1.479 -0.0415  0.2710  0.0451
  212SOL    HW1  635   1.446   2.098   1.479 -0.4049  0.0477 -3.5358
  212SOL    HW2  636   1.432   2.260   1.454 -1.2664  0.4692 -0.2612
  213SOL     OW  637   2.748   0.424   1.878  0.2261 -0.1582  0.1768
  213SOL    HW1  638   2.717   0.355   1.806 -1.9624 -0.1085  0.9631
  213SOL    HW2  639   2.850   0.433   1.881  0.9023  0.3826  0.9166
  214SOL     OW  640   0.711   2.471   2.211  0.0366 -0.3248  0.0955
  214SOL    HW1  641   0.655   2.500   2.132  0.1662 -0.6369 -2.8538
  214SOL    HW2  642   0.802   2.517   2.220 -0.1143 -0.3148 -1.9849
  215SOL     OW  643   2.802   1.630   1.546  0.3047  0.0764 -0.3160
  215SOL    HW1  644   2.887   1.692   1.548  1.8981  2.4060 -3.1416
  215SOL    HW2  645   2.744   1.640   1.471 -1.5356 -3.3159  3.1665
  216SOL     OW  646   0.676   1.152   2.162  0.1347 -0.2697  0.8782
  216SOL    HW1  647   0.711   1.229   2.103 -0.9380 -0.0112 -0.4717
  216SOL    HW2  648   0.679   1.175   2.258 -2.2197 -0.5672 -1.9232
  217SOL     OW  649   2.707   0.352   0.988  0.2958 -0.1286  0.0028
  217SOL    HW1  650   2.713   0.416   0.911 -0.9357 -3.0112  1.4348
  217SOL    HW2  651   2.794   0.297   0.997  2.5910 -2.4661 -0.1369
  218SOL     OW  652   1.256   1.911   0.999 -0.1646  0.2852  0.0868
  218SOL    HW1  653   1.262   1.889   0.897 -1.6047  1.4906  0.9183
  218SOL    HW2  654   1.199   1.994   1.014 -2.3097  0.4121 -1.3825
  219SOL     OW  655   2.066   2.688   0.601 -0.8400  0.0173 -0.6909
  219SOL    HW1  656   2.141   2.616   0.617  0.7004 -1.6478  0.2245
  219SOL    HW2  657   2.049   2.694   0.502 -2.0076 -1.7895  1.1361
  220SOL     OW  658   1.776   2.412   0.194  0.5392 -0.1831  0.1563
  220SOL    HW1  659   1.691   2.400   0.145  2.2347  0.6693 -0.1563
  220SOL    HW2  660   1.833   2.330   0.184  1.0032  2.2868  0.6675
  221SOL     OW  661   2.969   1.891   0.223  0.0412 -0.2052  0.4243
  221SOL    HW1  662   2.896   1.964   0.213 -3.4591  0.3379  2.6412
  221SOL    HW2  663   2.941   1.816   0.284 -0.5423  0.7340  0.0937
  222SOL     OW  664   0.571   2.395   0.866 -0.0180 -0.3391 -0.4301
  222SOL    HW1  665   0.544   2.398   0.768  0.2515  0.0854 -0.2632
  222SOL    HW2  666   0.670   2.404   0.874  0.9327  2.1636 -1.3326
  223SOL     OW  667   1.063   0.148   0.435 -0.1521 -0.4870 -0.3237
  223SOL    HW1  668   1.145   0.151   0.500 -1.5239 -1.5605 -1.3740
  223SOL    HW2  669   1.064   0.062   0.392  0.4860  3.3224  1.0323
  224SOL     OW  670   2.839   1.318   1.099 -0.0846  0.1018  0.8225
  224SOL    HW1  671   2.844   1.244   1.027 -1.5843 -1.0641 -3.0525
  224SOL    HW2  672   2.778   1.292   1.178  0.2062 -0.0667 -0.7821
  225SOL     OW  673   3.087   1.852   1.312  0.4369 -0.1899  0.5989
  225SOL    HW1  674   0.041   1.910   1.277  0.2340 -0.0914  1.6651
  225SOL    HW2  675   3.093   1.760   1.271 -0.0655  2.7777 -2.6175
  226SOL     OW  676   0.756   2.994   0.958  0.2433  0.0241  0.2319
  226SOL    HW1  677   0.747   3.027   0.860 -1.9596  1.2535 -0.2020
  226SOL    HW2  678   0.813   3.056   1.017  0.5618  1.1679 -0.0792
  227SOL     OW  679   1.011   1.364   1.609 -0.0749  0.2877 -0.0549
  227SOL    HW1  680   0.997   1.423   1.686 -1.1268 -1.8647 -2.2354
  227SOL    HW2  681   1.074   1.402   1.536  1.1300 -0.6158 -0.9726
  228SOL     OW  682   0.749   0.329   2.031  0.1769 -0.3346 -0.2439
  228SOL    HW1  683   0.766   0.322   1.932  0.4378 -2.0685 -1.0852
  228SOL    HW2  684   0.806   0.404   2.061 -2.5369  1.9801  0.8216
  229SOL     OW  685   2.977   0.863   2.478  0.2684 -0.0817  0.5957
  229SOL    HW1  686   2.927   0.858   2.567  0.4567 -1.5227  1.0706
  229SOL    HW2  687   3.052   0.926   2.487 -1.5930 -1.7901 -0.2715
  230SOL     OW  688   3.095   0.721   1.031 -0.1013  0.0240  0.3745
  230SOL    HW1  689   3.018   0.743   0.970  0.1228  0.2837 -1.3678
  230SOL    HW2  690   0.008   0.811   1.071  2.8744  3.6937 -0.3198
  231SOL     OW  691   1.378   3.063   2.146 -0.0196 -0.3268  0.0488
  231SOL    HW1  692   1.470   3.040   2.118 -1.4489  0.4515 -0.0663
  231SOL    HW2  693   1.361   3.078   2.249  1.0374 -1.5153  2.7263
  232SOL     OW  694   0.096   2.053   0.277 -0.1054  0.0024 -0.7559
  232SOL    HW1  695   0.160   2.028   0.354  1.5138 -2.4917 -0.4791
  232SOL    HW2  696   0.013   1.997   0.282  1.1140 -4.0855 -0.2947
  233SOL     OW  697   1.516   2.468   2.786  0.1818 -0.2747  0.1233
  233SOL    HW1  698   1.490   2.390   2.731 -4.1046  0.4161  1.2417
  233SOL    HW2  699   1.492   2.559   2.749  3.9118  0.6528 -0.7117
  234SOL     OW  700   0.707   1.137   1.743 -0.1970 -0.0669  0.2312
  234SOL    HW1  701   0.761   1.059   1.701  0.6910  1.1666 -0.3732
  234SOL    HW2  702   0.757   1.178   1.827  0.4112  0.7930  0.8222
  235SOL     OW  703   0.102   2.446   2.497  0.2779 -0.9686  0.2691
  235SOL    HW1  704   0.171   2.419   2.429  1.4792  0.0267  1.0593
  235SOL    HW2  705   0.103   2.385   2.582 -1.7983  0.5487 -0.1312
  236SOL     OW  706   1.733   1.858   2.871 -0.1629 -0.5479 -0.4495
  236SOL    HW1  707   1.801   1.852   2.798  1.1617 -1.4124  1.4206
  236SOL    HW2  708   1.659   1.924   2.844  0.8575  1.9742  1.1019
  237SOL     OW  709   1.497   0.686   0.705  0.4725  0.4265  0.2850
  237SOL    HW1  710   1.508   0.734   0.796  1.3219  2.6150 -0.6929
  237SOL    HW2  711   1.401   0.686   0.674  0.1872 -0.2714  1.1323
  238SOL     OW  712   0.903   2.686   2.120 -0.2419 -0.4818 -0.5360
  238SOL    HW1  713   0.838   2.765   2.119 -2.4260  1.9270 -1.2735
  238SOL    HW2  714   0.932   2.650   2.030 -0.0270  3.0711  0.7357
  239SOL     OW  715   1.045   2.524   1.919 -0.0515 -0.0123 -0.2308
  239SOL    HW1  716   0.991   2.503   1.835 -2.3530  2.9376  0.0920
  239SOL    HW2  717   1.096   2.448   1.961  1.8794 -0.3960  0.3924
  240SOL     OW  718   1.888   3.098   0.831 -0.3535  0.3161  0.1300
  240SOL    HW1  719   1.874   3.000   0.812 -0.2883  1.0239  3.7389
  240SOL    HW2  720   1.960   0.024   0.774 -1.0903 -0.3386 -2.1866
  241SOL     OW  721   1.258   1.273   2.466 -0.3287 -0.2709 -0.7642
  241SOL    HW1  722   1.180   1.206   2.459 -2.3722 -1.2383  1.6074
  241SOL    HW2  723   1.231   1.363   2.508  1.4824  1.4353  2.0436
  242SOL     OW  724   2.631   0.552   2.950 -0.5901  0.1627  0.1158
  242SOL    HW1  725   2.696   0.607   3.002  0.4184 -2.4843  0.9104
  242SOL    HW2  726   2.648   0.574   2.851  0.5276 -1.5574 -2.1995
  243SOL     OW  727   0.951   0.570   1.387 -1.0481 -0.0911 -0.1403
  243SOL    HW1  728   0.980   0.477   1.352  2.6214 -1.8992 -2.1005
  243SOL    HW2  729   1.031   0.631   1.386  0.8037  0.7364  1.0320
  244SOL     OW  730   1.418   2.913   2.800  0.3294  0.5002  0.1859
  244SOL    HW1  731   1.323   2.937   2.836  4.1257  3.0048 -0.6028
  244SOL    HW2  732   1.486   2.942   2.868 -0.1326  1.4254  1.6562
  245SOL     OW  733   1.992   2.769   3.057  0.1730 -0.0784  0.5806
  245SOL    HW1  734   1.947   2.760   0.028 -1.0608  1.2698  3.3598
  245SOL    HW2  735   2.078   2.824   3.071 -0.2226 -0.6649 -1.3211
  246SOL     OW  736   0.764   0.807   1.413 -0.3826 -0.1802  0.1845
  246SOL    HW1  737   0.693   0.732   1.404 -0.0962 -1.0332  1.3867
  246SOL    HW2  738   0.858   0.767   1.402  4.2323  0.9854  2.2333
  247SOL     OW  739   0.336   0.357   1.986 -0.0352 -0.4748  0.3361
  247SOL    HW1  740   0.238   0.320   1.972 -1.9393 -1.0178  2.8528
  247SOL    HW2  741   0.383   0.356   1.895 -0.8989  1.0415 -2.2129
  248SOL     OW  742   3.030   1.340   1.987 -0.0790  0.1172  0.1787
  248SOL    HW1  743   2.955   1.410   2.002 -0.2343 -1.8805  1.9494
  248SOL    HW2  744   3.113   1.390   2.016 -1.1514 -2.6991  0.8549
  249SOL     OW  745   0.202   0.367   0.052 -0.1208  0.0941  0.2316
  249SOL    HW1  746   0.288   0.315   0.071 -0.8117  1.4422 -1.5335
  249SOL    HW2  747   0.154   0.315   3.101 -2.3763  0.4167  1.8024
  250SOL     OW  748   2.966   0.124   0.107  0.8601  0.6300 -0.3082
  250SOL    HW1  749   2.917   0.196   0.154  0.9021 -3.7155 -1.4631
  250SOL    HW2  750   2.910   0.039   0.095  0.9712 -1.0695  2.5172
  251SOL     OW  751   0.900   1.774   1.641 -0.2393 -0.0974  0.1432
  251SOL    HW1  752   0.921   1.869   1.612 -1.0738 -0.0856  0.0210
  251SOL    HW2  753   0.805   1.762   1.661  2.4009  0.6397 -2.2941
  252SOL     OW  754   1.914   2.156   0.975 -0.0957  0.1018  0.0974
  252SOL    HW1  755   1.824   2.168   0.927 -0.9003  1.1095 -0.3983
  252SOL    HW2  756   1.904   2.172   1.076 -0.6955  0.1676  0.0350
  253SOL     OW  757   1.813   1.887   2.500  0.3341 -0.0163  0.3252
  253SOL    HW1  758   1.859   1.862   2.413  0.3299  2.0668 -0.6345
  253SOL    HW2  759   1.772   1.981   2.485 -0.4619 -0.2726 -0.6030
  254SOL     OW  760   0.811   2.181   2.128  0.2083 -0.3439 -0.6666
  254SOL    HW1  761   0.782   2.125   2.050  0.9959 -1.4502  0.6294
  254SOL    HW2  762   0.825   2.278   2.103 -1.9784 -0.7686  2.2750
  255SOL     OW  763   1.122   0.134   1.497 -0.1087  0.6915  0.5633
  255SOL    HW1  764   1.210   0.105   1.448  1.9391  1.6636 -1.5184
  255SOL    HW2  765   1.091   0.055   1.560 -0.2342  0.7530  0.5263
  256SOL     OW  766   2.421   2.306   1.540 -0.1918  0.2387 -0.1728
  256SOL    HW1  767   2.380   2.265   1.456  2.4330 -1.8556 -1.1724
  256SOL    HW2  768   2.514   2.345   1.519  0.3420  1.3081 -1.1093
  257SOL     OW  769   0.644   2.163   2.823  0.7780  0.1996 -0.3204
  257SOL    HW1  770   0.585   2.239   2.860 -1.6881  2.9882  0.6163
  257SOL    HW2  771   0.672   2.100   2.897  0.5083 -0.3677 -1.5340
  258SOL     OW  772   0.449   1.226   2.611 -0.1515  0.2136  0.5550
  258SOL    HW1  773   0.421   1.294   2.678  2.2796 -3.7628 -2.3244
  258SOL    HW2  774   0.372   1.183   2.562  1.2439  0.0505  2.8478
  259SOL     OW  775   0.640   1.505   2.226  0.0164  0.1856  0.5164
  259SOL    HW1  776   0.649   1.571   2.141  0.1547  1.2869 -2.5298
  259SOL    HW2  777   0.730   1.489   2.272 -0.8556  0.4771  1.8971
  260SOL     OW  778   1.851   0.852   1.406  0.6723 -0.0830  0.2602
  260SOL    HW1  779   1.761   0.882   1.366 -0.4805 -0.2507  1.7337
  260SOL    HW2  780   1.875   0.760   1.367 -0.2203 -0.2835  1.4898
  261SOL     OW  781   1.334   3.088   0.778  0.0856  0.1162  0.0984
  261SOL    HW1  782   1.433   3.060   0.778  4.0097 -1.0469 -1.8764
  261SOL    HW2  783   1.265   3.026   0.816  1.7289  0.9886 -0.1602
  262SOL     OW  784   2.052   2.118   2.630  0.3099  0.5100  0.4941
  262SOL    HW1  785   2.064   2.059   2.547  3.0109  2.3792  1.3599
  262SOL    HW2  786   2.016   2.210   2.601 -2.3520  1.1622 -1.3246
  263SOL     OW  787   0.251   1.542   3.034  0.3445  0.2646 -0.4537
  263SOL    HW1  788   0.162   1.582   3.004  1.7073 -0.2288  0.7504
  263SOL    HW2  789   0.238   1.464   3.097 -2.5769 -1.4124 -0.2398
  264SOL     OW  790   0.223   1.966   1.223 -0.8195  0.3968 -0.0649
  264SOL    HW1  791   0.236   1.896   1.155 -0.0773  1.4582  2.8149
  264SOL    HW2  792   0.289   1.962   1.302  0.7951 -0.1731  3.5603
  265SOL     OW  793   0.636   0.789   0.881  0.4762  0.2544  0.5301
  265SOL    HW1  794   0.737   0.795   0.879 -1.1883  2.2218  1.3875
  265SOL    HW2  795   0.595   0.873   0.844 -0.4156 -1.5932 -1.2318
  266SOL     OW  796   1.545   1.626   0.062 -0.1203  0.8355  0.2200
  266SOL    HW1  797   1.567   1.638   3.079  1.5319 -1.0567 -2.5230
  266SOL    HW2  798   1.632   1.642   0.118  1.5073  0.7093 -0.1010
  267SOL     OW  799   0.732   0.801   2.608 -0.0836  0.1426 -0.2882
  267SOL    HW1  800   0.828   0.821   2.586  0.8796  0.4241  0.6563
  267SOL    HW2  801   0.702   0.724   2.553  2.2615  1.6936  0.6077
  268SOL     OW  802   0.808   0.807   3.056  0.5697  0.2255 -0.3029
  268SOL    HW1  803   0.731   0.849   3.109 -0.5649  1.2773  2.7166
  268SOL    HW2  804   0.897   0.844   3.086 -0.6776  1.9915 -0.4452
  269SOL     OW  805   1.897   2.912   2.530 -0.6788 -0.1701 -0.2612
  269SOL    HW1  806   1.827   2.956   2.468 -1.8123 -2.7588 -0.1548
  269SOL    HW2  807   1.848   2.828   2.561  0.4505  4.5072  0.9835
  270SOL     OW  808   1.158   1.241   2.838 -0.0236  0.1371 -0.4315
  270SOL    HW1  809   1.249   1.234   2.883 -0.0793 -0.2450  0.1721
  270SOL    HW2  810   1.106   1.152   2.829 -0.0002  1.2252  0.2099
  271SOL     OW  811   0.058   0.599   0.197 -0.0895  0.5143 -0.0544
  271SOL    HW1  812   0.120   0.674   0.163 -1.7110  0.7657 -0.7245
  271SOL    HW2  813   0.083   0.513   0.147  0.1774 -0.2964 -2.8355
  272SOL     OW  814   2.452   1.318   2.518 -0.0518  1.0766  0.5821
  272SOL    HW1  815   2.389   1.367   2.582 -0.4852  0.0631  1.0143
  272SOL    HW2  816   2.500   1.243   2.558 -2.7045  5.5559 -0.1548
  273SOL     OW  817   0.150   0.265   2.269  0.6536  0.2646 -0.0706
  273SOL    HW1  818   0.224   0.203   2.309  3.7894  0.7730 -1.4298
  273SOL    HW2  819   0.096   0.310   2.342 -0.3385  0.4725 -1.7648
  274SOL     OW  820   0.047   0.259   2.022 -0.0070 -0.0417 -0.1303
  274SOL    HW1  821   0.038   0.165   1.982  0.4477 -2.5174  2.1708
  274SOL    HW2  822   0.072   0.267   2.125  0.1222 -0.1497  1.5510
  275SOL     OW  823   1.880   1.404   0.667  0.0592  0.1246  0.9980
  275SOL    HW1  824   1.819   1.330   0.630 -0.0984 -0.9788 -2.1588
  275SOL    HW2  825   1.911   1.463   0.591  2.4193 -1.2368  0.7254
  276SOL     OW  826   0.263   0.819   2.622  0.3956  0.1934  0.0396
  276SOL    HW1  827   0.273   0.777   2.529 -1.8608 -0.4372  0.5520
  276SOL    HW2  828   0.340   0.883   2.634 -0.3820 -0.5508  0.1842
  277SOL     OW  829   2.034   2.645   2.496 -0.2234  0.0104 -0.3562
  277SOL    HW1  830   2.113   2.638   2.434  1.8912  0.7613  0.6960
  277SOL    HW2  831   1.999   2.741   2.487 -0.8682 -0.0568 -0.1866
  278SOL     OW  832   1.880   0.127   1.769 -0.0654  0.7614 -0.1390
  278SOL    HW1  833   1.870   0.221   1.754  0.0565 -2.4299  1.2994
  278SOL    HW2  834   1.929   0.086   1.688 -0.2633 -1.3534  0.0140
  279SOL     OW  835   1.578   1.281   0.017 -0.4474 -0.0179  0.0886
  279SOL    HW1  836   1.514   1.333   0.082  0.0683 -1.6116  0.0961
  279SOL    HW2  837   1.646   1.238   0.076  0.8835 -1.6693  0.6862
  280SOL     OW  838   0.722   1.421   0.277 -0.1963  0.3872  0.7438
  280SOL    HW1  839   0.786   1.386   0.350 -0.5406 -1.2577 -0.7972
  280SOL    HW2  840   0.747   1.377   0.185  2.4588 -0.0670  0.4168
  281SOL     OW  841   3.074   2.941   1.566  0.1066  0.4917 -0.0521
  281SOL    HW1  842   0.037   2.947   1.625  0.4248  2.2164  3.1600
  281SOL    HW2  843   2.996   2.991   1.608  1.0357  1.0763  1.4624
  282SOL     OW  844   3.033   2.306   0.763 -0.1316  0.2823 -0.1940
  282SOL    HW1  845   0.003   2.316   0.715 -3.0775 -2.5085 -0.3586
  282SOL    HW2  846   2.954   2.291   0.704  2.1447 -1.2514 -0.2072
  283SOL     OW  847   1.148   1.807   2.075 -0.1709  0.1394  0.1067
  283SOL    HW1  848   1.133   1.894   2.129 -1.0501  2.2162  0.4444
  283SOL    HW2  849   1.071   1.745   2.081  4.4586  0.2823  0.4168
  284SOL     OW  850   2.035   0.562   0.455 -0.5318  0.1392 -0.5280
  284SOL    HW1  851   2.043   0.457   0.459  2.6685 -0.6204 -2.3592
  284SOL    HW2  852   2.134   0.592   0.458  3.4235  1.5550 -0.3201
  285SOL     OW  853   0.211   2.918   2.441  0.1936  0.0587  0.3827
  285SOL    HW1  854   0.149   2.842   2.438 -1.6251 -0.5952 -0.7269
  285SOL    HW2  855   0.307   2.876   2.417  3.8991 -2.0453 -1.4176
  286SOL     OW  856   2.182   2.684   1.393 -0.3291 -0.0561 -0.0154
  286SOL    HW1  857   2.256   2.632   1.351 -0.6450  2.6155 -0.4804
  286SOL    HW2  858   2.187   2.784   1.373  1.1169 -1.6295 -0.0362
  287SOL     OW  859   0.466   1.577   1.084 -0.2396 -0.5793 -0.1562
  287SOL    HW1  860   0.462   1.474   1.089 -1.2380 -1.2002  0.6002
  287SOL    HW2  861   0.514   1.621   1.158 -2.4071 -2.1738  1.2203
  288SOL     OW  862   1.926   2.166   2.937  0.6928  0.1404 -0.2304
  288SOL    HW1  863   1.826   2.175   2.968 -1.6471  0.7276 -1.6202
  288SOL    HW2  864   1.925   2.116   2.849 -0.9564  1.5928 -1.1395
  289SOL     OW  865   0.523   1.917   2.410 -0.3528 -0.4288 -0.1714
  289SOL    HW1  866   0.598   1.974   2.381 -2.3398 -1.8025  2.3515
  289SOL    HW2  867   0.521   1.907   2.513  0.5941  0.7653  0.1861
  290SOL     OW  868   1.054   2.319   1.026 -0.3089 -0.3302  0.0767
  290SOL    HW1  869   1.136   2.360   1.080  3.0206  0.3008 -0.5405
  290SOL    HW2  870   1.042   2.223   1.058  0.3599  0.4881  1.1536
  291SOL     OW  871   1.765   1.398   2.961  0.1452  0.0026 -0.3124
  291SOL    HW1  872   1.828   1.324   2.935 -2.3428 -3.1101  0.3881
  291SOL    HW2  873   1.697   1.368   3.030 -0.7832  0.2141 -1.5025
  292SOL     OW  874   1.198   1.316   0.867 -0.3686 -0.0479  0.4897
  292SOL    HW1  875   1.234   1.249   0.800  1.3436  1.5597 -0.4042
  292SOL    HW2  876   1.261   1.313   0.951 -0.9361 -3.3278 -1.2082
  293SOL     OW  877   1.425   2.897   1.044  0.0068  0.5826 -0.0425
  293SOL    HW1  878   1.495   2.902   1.112  0.2912  2.9061 -1.8040
  293SOL    HW2  879   1.469   2.875   0.954  0.5390  0.3822 -2.3356
  294SOL     OW  880   2.836   1.128   2.800  0.2386  0.5660  0.2152
  294SOL    HW1  881   2.837   1.159   2.898  0.7245 -2.4050 -2.2578
  294SOL    HW2  882   2.919   1.169   2.757  2.9672 -0.6356 -2.9034
  295SOL     OW  883   1.609   2.084   2.748  0.4852 -0.3413 -0.5684
  295SOL    HW1  884   1.614   2.143   2.831  0.2272 -2.8832 -1.1968
  295SOL    HW2  885   1.665   2.117   2.675  1.6765 -0.5054 -2.4745
  296SOL     OW  886   2.057   1.270   2.279  0.5048  0.0109  0.8132
  296SOL    HW1  887   1.986   1.212   2.243  2.5713  0.4753 -2.3082
  296SOL    HW2  888   2.060   1.290   2.380  0.0279  0.4298  0.2942
  297SOL     OW  889   0.189   0.808   2.179  0.2268  0.6923  0.1547
  297SOL    HW1  890   0.172   0.785   2.083  0.4745  0.0910  2.3338
  297SOL    HW2  891   0.167   0.906   2.201 -1.3513  0.6424  0.6123
  298SOL     OW  892   1.048   2.050   2.284  0.1637  0.6389  0.9238
  298SOL    HW1  893   0.967   2.095   2.243 -1.3485  0.4792  0.7511
  298SOL    HW2  894   1.006   1.977   2.349 -1.1506 -2.2403 -0.6238
  299SOL     OW  895   0.707   2.965   2.606  0.1701  0.2801 -0.1228
  299SOL    HW1  896   0.767   2.977   2.525 -0.2794 -0.3193  1.5094
  299SOL    HW2  897   0.718   2.873   2.641 -0.7099  2.1212  0.8443
  300SOL     OW  898   0.272   1.081   2.955 -0.8282  0.7145 -0.0665
  300SOL    HW1  899   0.202   1.061   3.030 -1.7960 -1.6592  3.3693
  300SOL    HW2  900   0.226   1.129   2.882  0.1976  1.5370 -1.0008
  301SOL     OW  901   1.449   1.257   1.633  0.0814  0.4796 -0.4362
  301SOL    HW1  902   1.508   1.198   1.690 -1.2367 -0.9504  0.7598
  301SOL    HW2  903   1.430   1.343   1.684  0.8926  0.7746  1.9069
  302SOL     OW  904   2.601   2.080   2.457  0.2145 -0.3246 -0.4330
  302SOL    HW1  905   2.675   2.159   2.449  2.6103  3.4647 -0.1282
  302SOL    HW2  906   2.523   2.102   2.392 -1.7301  1.3751 -2.6881
  303SOL     OW  907   0.019   0.179   2.571  0.0517  0.4507 -0.6444
  303SOL    HW1  908   0.111   0.141   2.544 -1.3565  0.9262 -0.9980
  303SOL    HW2  909   0.024   0.275   2.539 -0.8563  0.0458 -1.0111
  304SOL     OW  910   3.110   0.551   1.621  0.4346  0.1853  0.2389
  304SOL    HW1  911   0.083   0.572   1.639  0.1337 -0.0976 -0.2882
  304SOL    HW2  912   3.056   0.639   1.609 -0.9296  0.6857  1.1797
  305SOL     OW  913   2.899   3.082   1.753  0.3441  0.1950 -0.3863
  305SOL    HW1  914   2.855   3.031   1.831 -1.9830  0.5710 -0.6384
  305SOL    HW2  915   2.844   0.041   1.722 -1.7564  0.3558  0.6236
  306SOL     OW  916   2.700   1.317   1.333 -0.3633 -0.2456 -0.1238
  306SOL    HW1  917   2.681   1.219   1.328  0.3354  1.7780  2.5050
  306SOL    HW2  918   2.782   1.336   1.389  2.2230  1.2970  1.4782
  307SOL     OW  919   2.100   0.292   1.080 -0.5406  0.2159 -0.4825
  307SOL    HW1  920   2.022   0.259   1.020  0.5970 -0.3471 -1.7617
  307SOL    HW2  921   2.106   0.396   1.070  1.6177 -2.9341  1.9556
  308SOL     OW  922   2.821   1.892   1.256 -0.3310 -0.2890 -0.2425
  308SOL    HW1  923   2.810   1.947   1.170  2.7627  1.1374 -0.2372
  308SOL    HW2  924   2.922   1.872   1.265 -1.0962 -0.3883 -0.4459
  309SOL     OW  925   2.219   1.893   1.622  0.2381 -0.8223  0.1536
  309SOL    HW1  926   2.176   1.912   1.529 -1.9463 -0.1715 -1.3690
  309SOL    HW2  927   2.214   1.983   1.667 -0.6718 -0.4581 -1.4485
  310SOL     OW  928   2.405   1.603   0.004  0.0858  0.6788 -0.7343
  310SOL    HW1  929   2.334   1.661   0.051 -3.1900 -1.0849  0.2297
  310SOL    HW2  930   2.420   1.620   3.028 -1.1743  0.0128  1.3112
  311SOL     OW  931   2.295   1.368   2.725  0.1149  0.1156 -0.0336
  311SOL    HW1  932   2.358   1.328   2.799  0.4000 -1.2962  2.1684
  311SOL    HW2  933   2.229   1.436   2.763 -0.0598 -0.7809 -2.1162
  312SOL     OW  934   1.362   2.338   1.717 -0.3430  0.0937 -0.3569
  312SOL    HW1  935   1.400   2.313   1.808  1.9153 -1.7290  0.0305
  312SOL    HW2  936   1.355   2.256   1.663 -2.0600  0.3524  0.3446
  313SOL     OW  937   0.372   2.756   1.077 -0.2098  0.3135  0.1710
  313SOL    HW1  938   0.276   2.758   1.104  1.5237  0.9621  0.6516
  313SOL    HW2  939   0.384   2.678   1.010  0.1670  0.9648 -1.7146
  314SOL     OW  940   1.067   1.679   1.430  0.4416  0.0455 -0.0910
  314SOL    HW1  941   1.061   1.716   1.333 -1.3159  0.1900 -2.4233
  314SOL    HW2  942   0.993   1.712   1.494 -0.7777  0.6695  0.8374
  315SOL     OW  943   0.548   3.002   2.246  0.2723  0.4831  0.4022
  315SOL    HW1  944   0.536   3.099   2.269 -0.2363 -2.4893 -0.4497
  315SOL    HW2  945   0.465   2.954   2.207 -2.3067 -1.5142  1.5556
  316SOL     OW  946   3.053   2.088   0.934 -0.3911 -0.5750  0.4397
  316SOL    HW1  947   3.046   2.146   0.851 -1.2152 -0.5224 -2.2016
  316SOL    HW2  948   0.002   2.130   0.996 -2.4918 -2.4628  2.0222
  317SOL     OW  949   1.858   0.592   0.231  0.2488  0.0436 -0.5456
  317SOL    HW1  950   1.816   0.511   0.193 -0.2584  0.2198  0.0259
  317SOL    HW2  951   1.910   0.585   0.319  1.3552 -1.5174  3.3790
  318SOL     OW  952   3.021   2.448   0.040 -0.4215  0.0721 -0.5065
  318SOL    HW1  953   2.988   2.528   3.104  1.2202  1.7139 -1.2601
  318SOL    HW2  954   2.986   2.448   0.134 -2.1729  2.1988 -0.2890
  319SOL     OW  955   1.641   1.748   0.424 -0.4481 -0.1754  0.2935
  319SOL    HW1  956   1.559   1.692   0.434  0.1848  3.0858 -0.8045
  319SOL    HW2  957   1.678   1.750   0.329  0.4343 -1.5063 -1.5077
  320SOL     OW  958   0.708   2.539   2.556 -0.1974 -0.1336 -0.4276
  320SOL    HW1  959   0.637   2.562   2.487 -2.1112 -4.5415  1.1186
  320SOL    HW2  960   0.726   2.439   2.554  0.7893 -1.3718 -0.2669
  321SOL     OW  961   1.030   3.076   0.227  0.4298 -0.2516 -0.0789
  321SOL    HW1  962   0.993   2.983   0.246 -0.2429 -1.0376  1.9489
  321SOL    HW2  963   1.107   3.068   0.166 -1.4004  0.3613  1.9189
  322SOL     OW  964   2.254   1.160   2.132  0.7359  0.4137 -0.1543
  322SOL    HW1  965   2.181   1.211   2.182 -1.4679  0.4031  2.2723
  322SOL    HW2  966   2.306   1.118   2.208  1.3878  1.9023 -0.1850
  323SOL     OW  967   2.842   1.045   0.629 -0.2753 -0.2869  0.6176
  323SOL    HW1  968   2.862   1.067   0.725 -1.1477 -1.2524 -1.9632
  323SOL    HW2  969   2.858   1.123   0.568  2.2847 -4.2988 -1.0273
  324SOL     OW  970   0.014   0.451   2.499 -0.0777 -0.4139  0.0906
  324SOL    HW1  971   3.120   0.538   2.439 -1.7248  2.1723 -0.5354
  324SOL    HW2  972   0.093   0.464   2.564  1.4637  1.0837  0.2573
  325SOL     OW  973   1.006   0.076   2.459  0.4625 -0.6444 -0.1916
  325SOL    HW1  974   1.094   0.082   2.410 -0.4798  1.1337 -0.1022
  325SOL    HW2  975   1.014   0.115   2.552  3.4984 -0.7178 -2.0273
  326SOL     OW  976   2.377   2.854   1.127  0.3563 -0.0857 -0.5244
  326SOL    HW1  977   2.464   2.801   1.135 -2.8983  2.5368  1.0164
  326SOL    HW2  978   2.367   2.891   1.032 -0.6548  0.2239  2.2106
  327SOL     OW  979   1.614   0.697   0.185  0.4478  0.2388 -0.3840
  327SOL    HW1  980   1.703   0.663   0.219 -1.4187 -1.7867  2.4889
  327SOL    HW2  981   1.551   0.730   0.261 -1.0257  0.7623  0.4647
  328SOL     OW  982   3.056   1.805   2.066 -0.0645 -0.6305  0.0062
  328SOL    HW1  983   3.030   1.848   2.153 -0.1711  2.4640  0.7307
  328SOL    HW2  984   0.019   1.849   2.041  2.0709 -0.0650 -0.5358
  329SOL     OW  985   2.207   2.677   2.049  0.3349 -0.0989  0.6153
  329SOL    HW1  986   2.244   2.589   2.012 -1.1476 -0.4236 -0.0706
  329SOL    HW2  987   2.219   2.744   1.974 -0.9515 -2.7903  1.2465
  330SOL     OW  988   2.447   1.613   1.836 -0.0215  0.6218 -0.7237
  330SOL    HW1  989   2.418   1.552   1.915  1.7601 -1.0294 -0.1765
  330SOL    HW2  990   2.543   1.602   1.821 -2.7014 -0.8827  3.1789
  331SOL     OW  991   2.793   2.088   1.005  0.5668  0.1666  0.1709
  331SOL    HW1  992   2.888   2.100   0.963  2.7899 -1.1832 -3.1593
  331SOL    HW2  993   2.723   2.083   0.930  1.3890  2.7429  2.1751
  332SOL     OW  994   0.779   2.745   0.090  0.7552  0.4548 -0.0362
  332SOL    HW1  995   0.687   2.777   0.111  0.4346 -2.3174 -0.9594
  332SOL    HW2  996   0.839   2.755   0.172 -0.4298 -0.0063 -2.0422
  333SOL     OW  997   1.992   0.229   2.473  0.3197 -0.3930  0.2634
  333SOL    HW1  998   1.917   0.272   2.422  1.8496  0.0635  2.2836
  333SOL    HW2  999   2.080   0.227   2.421 -2.3978 -0.8264 -1.9871
  334SOL     OW 1000   0.572   1.196   0.469  0.2688 -0.3552  0.5382
  334SOL    HW1 1001   0.623   1.267   0.521  2.4223 -0.0142  0.3650
  334SOL    HW2 1002   0.546   1.232   0.379  2.2746  0.6020 -1.5517
  335SOL     OW 1003   0.056   2.979   2.154 -0.0231  0.1374 -0.1675
  335SOL    HW1 1004   0.059   3.011   2.250  1.3868  0.7274 -0.5715
  335SOL    HW2 1005   0.037   3.055   2.083 -0.0927 -0.1763 -4.7482
  336SOL     OW 1006   2.864   3.060   2.245 -0.2972 -0.3607  0.3182
  336SOL    HW1 1007   2.949   3.055   2.303  3.1811  2.3123 -0.5894
  336SOL    HW2 1008   2.822   0.032   2.239 -0.0442  2.4556  0.5891
  337SOL     OW 1009   1.614   1.502   0.792 -0.1349  0.7352 -0.0674
  337SOL    HW1 1010   1.590   1.457   0.882 -2.9816  2.0111 -1.1895
  337SOL    HW2 1011   1.708   1.475   0.766 -3.4132 -1.3045  2.9755
  338SOL     OW 1012   0.849   1.895   0.898 -0.3554 -0.4892 -0.7667
  338SOL    HW1 1013   0.874   1.796   0.912  0.0118 -0.1269  1.0428
  338SOL    HW2 1014   0.843   1.938   0.992  2.7891  0.4469  0.0658
  339SOL     OW 1015   3.009   0.990   1.140  0.4645 -1.0388  0.4097
  339SOL    HW1 1016   3.099   1.018   1.174 -2.2214 -0.0400 -0.5008
  339SOL    HW2 1017   2.957   0.937   1.210  0.0173 -0.4019 -2.9176
  340SOL     OW 1018   1.510   2.638   1.843  0.1861 -0.5122 -0.0904
  340SOL    HW1 1019   1.607   2.660   1.867  2.4753  0.2928  0.6116
  340SOL    HW2 1020   1.497   2.611   1.745  2.1405 -1.5324  3.0907
  341SOL     OW 1021   2.045   1.466   0.873  0.1395  0.1856  0.2968
  341SOL    HW1 1022   2.078   1.401   0.946  2.1662  0.4640  2.2537
  341SOL    HW2 1023   1.987   1.412   0.807 -0.2087 -0.4405  0.4872
  342SOL     OW 1024   2.950   1.596   0.791 -0.1180 -0.3176 -0.3530
  342SOL    HW1 1025   2.852   1.576   0.780  1.2610  1.7253  1.4345
  342SOL    HW2 1026   2.961   1.670   0.862 -2.2014 -0.3426  3.3816
  343SOL     OW 1027   2.550   1.237   1.726 -0.0381 -0.1290  0.3060
  343SOL    HW1 1028   2.565   1.189   1.816 -1.7442  0.1173  1.4037
  343SOL    HW2 1029   2.602   1.327   1.723  0.0594 -0.6385  3.1816
  344SOL     OW 1030   2.079   0.565   1.069 -0.2752 -0.2212 -0.6562
  344SOL    HW1 1031   1.982   0.585   1.057  0.1981 -0.2786  0.2069
  344SOL    HW2 1032   2.111   0.604   1.160 -1.2366 -1.0500  0.4262
  345SOL     OW 1033   0.275   0.077   2.425  0.1208  0.0137  0.2470
  345SOL    HW1 1034   0.220   3.110   2.416  0.0067 -0.0264  1.9437
  345SOL    HW2 1035   0.370   0.063   2.469  3.0171 -0.0938 -0.0616
  346SOL     OW 1036   2.598   1.600   0.191 -0.3504  0.4932  0.0400
  346SOL    HW1 1037   2.550   1.674   0.239  1.4964 -1.4920 -1.6726
  346SOL    HW2 1038   2.556   1.587   0.099  3.8883  1.1760  1.9882
  347SOL     OW 1039   1.957   2.784   1.787 -0.2030  0.2232 -0.4004
  347SOL    HW1 1040   2.038   2.737   1.749 -1.8266  0.4889  0.8398
  347SOL    HW2 1041   1.892   2.839   1.728 -1.1439  0.6770  2.7040
  348SOL     OW 1042   1.054   1.083   1.654  0.1386 -0.1221  0.0320
  348SOL    HW1 1043   1.022   1.172   1.614 -0.5014  1.1848  1.1822
  348SOL    HW2 1044   0.994   1.001   1.625  0.2159  1.4770 -1.0607
  349SOL     OW 1045   2.237   1.046   1.891  0.1815  0.4583 -0.2536
  349SOL    HW1 1046   2.231   1.086   1.985 -0.3169  0.4098 -1.3546
  349SOL    HW2 1047   2.329   1.057   1.846 -1.1396  0.2792 -0.4255
  350SOL     OW 1048   2.518   2.417   0.551  0.4574 -0.3201 -0.1355
  350SOL    HW1 1049   2.503   2.344   0.479  0.7607  0.9023  0.3910
  350SOL    HW2 1050   2.592   2.389   0.613  1.4000 -1.3386  0.5025
  351SOL     OW 1051   0.217   0.229   1.607  0.1308  0.1971  0.8890
  351SOL    HW1 1052   0.258   0.166   1.538  1.0201 -1.1490 -1.9646
  351SOL    HW2 1053   0.118   0.247   1.587 -1.9640 -0.3032 -0.3492
  352SOL     OW 1054   1.622   2.278   1.926  0.1048 -0.0791 -0.1505
  352SOL    HW1 1055   1.597   2.363   1.980  0.8404  0.3268  0.8774
  352SOL    HW2 1056   1.590   2.188   1.971 -0.6508 -0.8274  0.7935
  353SOL     OW 1057   0.906   1.285   2.562  0.7850  0.2202 -0.5184
  353SOL    HW1 1058   0.939   1.331   2.645  0.2687 -2.7886  1.0203
  353SOL    HW2 1059   0.964   1.215   2.522 -1.9880 -0.3591 -1.3624
  354SOL     OW 1060   1.430   1.574   0.425 -0.3907  0.3403  0.0059
  354SOL    HW1 1061   1.461   1.481   0.411  3.2452  4.8918  1.9860
  354SOL    HW2 1062   1.343   1.598   0.379 -0.4372 -2.6347 -1.9377
  355SOL     OW 1063   1.892   0.257   0.928 -0.1361 -0.1632 -0.2129
  355SOL    HW1 1064   1.877   0.168   0.884  0.1171  1.9036  1.0949
  355SOL    HW2 1065   1.805   0.294   0.964  0.9403 -0.0113 -1.1739
  356SOL     OW 1066   2.837   1.222   3.053  0.4061 -0.4886 -0.3345
  356SOL    HW1 1067   2.920   1.284   3.044  0.3169  1.4069  0.8956
  356SOL    HW2 1068   2.857   1.152   0.002 -0.9772 -1.1280  0.4443
  357SOL     OW 1069   0.013   3.117   1.912  0.9708  0.0410 -0.2059
  357SOL    HW1 1070   0.096   3.098   1.858 -0.8312  0.3896  2.0078
  357SOL    HW2 1071   3.048   3.105   1.862 -0.0830  0.6360  0.1353
  358SOL     OW 1072   0.402   1.336   2.857  0.4304  0.0502 -0.0229
  358SOL    HW1 1073   0.377   1.414   2.913 -2.2211 -0.9682  1.2058
  358SOL    HW2 1074   0.443   1.259   2.905  1.0938  1.1705 -1.6306
  359SOL     OW 1075   2.810   2.876   2.738  0.7281  0.3379 -0.0136
  359SOL    HW1 1076   2.739   2.799   2.752 -0.5843 -3.8881  1.1622
  359SOL    HW2 1077   2.843   2.893   2.831 -0.7900  1.4386 -2.6482
  360SOL     OW 1078   1.614   0.945   1.293  0.1274 -0.2970  0.2246
  360SOL    HW1 1079   1.622   1.040   1.331 -1.1492 -0.4937 -0.4302
  360SOL    HW2 1080   1.524   0.936   1.241 -3.0793 -1.4163  1.1297
  361SOL     OW 1081   2.049   2.445   1.363  0.5477  0.5157  0.2603
  361SOL    HW1 1082   2.023   2.408   1.456  4.0443  0.5447  0.3481
  361SOL    HW2 1083   2.082   2.540   1.367 -0.6097  0.4122 -1.0373
  362SOL     OW 1084   1.514   0.674   1.148  0.0134 -0.0195 -0.2869
  362SOL    HW1 1085   1.563   0.643   1.234 -1.6127  2.7183  1.1563
  362SOL    HW2 1086   1.416   0.647   1.150 -2.9107 -0.6676 -3.7012
  363SOL     OW 1087   2.277   2.512   0.686 -0.2158  0.3794 -0.1161
  363SOL    HW1 1088   2.370   2.505   0.642 -0.6524  2.7823 -1.5154
  363SOL    HW2 1089   2.279   2.475   0.781 -1.0032  0.1984 -1.6122
  364SOL     OW 1090   0.116   0.334   0.802 -0.1316  0.3355  0.5917
  364SOL    HW1 1091   0.121   0.247   0.757 -0.8495  2.4770  0.3954
  364SOL    HW2 1092   0.182   0.342   0.880  0.0702 -0.7667  3.2785
  365SOL     OW 1093   0.326   2.824   0.610 -0.4560 -0.1162  0.1271
  365SOL    HW1 1094   0.285   2.885   0.539 -2.2175  1.1935 -0.7630
  365SOL    HW2 1095   0.341   2.882   0.693  1.7735  0.1700  0.7439
  366SOL     OW 1096   0.032   1.496   0.496  0.2254  0.1556  0.2732
  366SOL    HW1 1097   0.015   1.517   0.594  1.5781 -1.4876  1.3650
  366SOL    HW2 1098   0.101   1.420   0.492 -1.1217 -0.8850 -1.6526
  367SOL     OW 1099   2.659   2.272   2.887  0.6558  0.2732  0.5206
  367SOL    HW1 1100   2.742   2.270   2.945  3.3948 -0.0176  0.2307
  367SOL    HW2 1101   2.687   2.288   2.791  1.1383  2.4266  0.1341
  368SOL     OW 1102   2.344   1.786   0.734 -0.7977 -0.0824 -0.0521
  368SOL    HW1 1103   2.250   1.752   0.702 -1.1482 -1.8174 -2.6270
  368SOL    HW2 1104   2.420   1.725   0.700  1.1032  1.9157 -1.7108
  369SOL     OW 1105   1.066   0.753   0.306  1.0745 -0.3803 -0.3502
  369SOL    HW1 1106   1.010   0.840   0.327 -3.1845  0.0232  1.9593
  369SOL    HW2 1107   1.121   0.736   0.389 -0.3376  1.2785 -0.6624
  370SOL     OW 1108   0.489   2.993   1.089  0.0695 -0.0863  0.1718
  370SOL    HW1 1109   0.433   2.909   1.083 -1.5437 -1.2122 -1.6172
  370SOL    HW2 1110   0.559   2.995   1.014  0.6578 -2.6237  1.0590
  371SOL     OW 1111   2.668   1.502   2.679 -0.0869  0.2088  0.1454
  371SOL    HW1 1112   2.596   1.516   2.610 -0.6255 -0.4580 -0.2614
  371SOL    HW2 1113   2.632   1.444   2.755  0.2856  3.4132  0.2078
  372SOL     OW 1114   0.694   0.591   2.432  0.1670  0.3893 -0.3599
  372SOL    HW1 1115   0.690   0.640   2.343  0.4605  3.9416  0.9479
  372SOL    HW2 1116   0.772   0.532   2.451 -1.0291  0.5467  1.2729
  373SOL     OW 1117   0.579   0.378   3.056  0.3827 -0.4656  0.3245
  373SOL    HW1 1118   0.560   0.375   2.952 -0.7696 -1.0091 -2.4769
  373SOL    HW2 1119   0.674   0.391   3.080 -1.1060  1.9588  0.3379
  374SOL     OW 1120   1.224   2.090   0.109 -0.4699 -0.3631 -0.2529
  374SOL    HW1 1121   1.239   2.157   0.032  0.6795  0.7548 -0.2314
  374SOL    HW2 1122   1.314   2.061   0.147  2.6531 -1.8904 -2.2180
  375SOL     OW 1123   0.909   2.866   1.632 -0.0431 -0.0821  0.1167
  375SOL    HW1 1124   0.963   2.947   1.665  1.3387  2.7361  0.7160
  375SOL    HW2 1125   0.872   2.888   1.539 -2.0117 -0.6117 -1.8857
  376SOL     OW 1126   0.320   2.605   2.009 -0.0261 -0.1721  0.0012
  376SOL    HW1 1127   0.265   2.516   2.018  0.2235 -2.7551  1.1423
  376SOL    HW2 1128   0.417   2.581   1.983 -2.8065  1.7455  1.3219
  377SOL     OW 1129   2.446   2.030   0.051  0.0470  0.0365  0.4199
  377SOL    HW1 1130   2.352   2.010   0.076  0.1095 -1.3235 -1.9289
  377SOL    HW2 1131   2.479   1.989   3.080  2.7296 -0.8022 -1.1428
  378SOL     OW 1132   2.328   0.251   0.591 -0.0455  0.5461  0.8093
  378SOL    HW1 1133   2.319   0.346   0.622 -0.2710  0.5344 -2.9846
  378SOL    HW2 1134   2.396   0.201   0.651  0.3785  2.5801 -2.9439
  379SOL     OW 1135   0.980   0.511   0.611 -0.5179  0.1347 -0.0119
  379SOL    HW1 1136   0.962   0.442   0.541 -1.3854  2.6372  1.3292
  379SOL    HW2 1137   0.898   0.572   0.624 -0.0535  2.3329  2.5029
  380SOL     OW 1138   2.732   2.314   1.785  0.7617  0.3887 -0.4917
  380SOL    HW1 1139   2.823   2.357   1.776 -1.4713  1.0980 -0.6114
  380SOL    HW2 1140   2.717   2.240   1.719  1.1611  2.4489 -2.3544
  381SOL     OW 1141   2.797   1.480   2.008 -1.1738 -0.4323  0.5100
  381SOL    HW1 1142   2.812   1.580   2.021  1.2033 -2.8999 -0.9591
  381SOL    HW2 1143   2.734   1.442   2.080  0.7424 -0.0166 -2.4520
  382SOL     OW 1144   3.007   2.032   2.894  0.1994  0.0068 -0.3496
  382SOL    HW1 1145   2.976   2.115   2.943  2.7409  1.4767 -1.7856
  382SOL    HW2 1146   2.931   1.961   2.902 -2.2634 -0.9029 -1.7621
  383SOL     OW 1147   1.470   0.931   2.680  0.3068 -0.2129 -0.0412
  383SOL    HW1 1148   1.484   1.034   2.682  1.9707  2.4001  1.8029
  383SOL    HW2 1149   1.477   0.899   2.584 -0.7462  0.7364  3.9890
  384SOL     OW 1150   1.322   2.088   2.244  0.5424 -0.5655 -0.2369
  384SOL    HW1 1151   1.347   2.175   2.296  2.4968  1.8209  0.2245
  384SOL    HW2 1152   1.220   2.067   2.255 -0.9328 -1.1823  0.8050
  385SOL     OW 1153   2.653   2.707   0.022  0.0138 -0.0535  0.3170
  385SOL    HW1 1154   2.647   2.617   0.072 -0.2982  1.5632  0.1890
  385SOL    HW2 1155   2.704   2.775   0.080 -0.6307  0.6262  2.4606
  386SOL     OW 1156   1.540   1.082   0.799 -0.1841 -0.2057  0.6692
  386SOL    HW1 1157   1.468   1.121   0.734  1.8620 -1.6426  0.5847
  386SOL    HW2 1158   1.510   0.991   0.834  0.6798  0.1476 -0.6141
  387SOL     OW 1159   3.034   1.896   1.608  0.3019 -0.4347  0.6011
  387SOL    HW1 1160   3.055   1.978   1.666  0.8343 -1.6157 -0.5545
  387SOL    HW2 1161   3.041   1.929   1.510  0.4229  1.1124  0.0622
  388SOL     OW 1162   0.522   1.178   1.560  0.1710 -0.5425 -0.0983
  388SOL    HW1 1163   0.584   1.180   1.639 -1.0149 -0.9634 -0.8476
  388SOL    HW2 1164   0.541   1.101   1.499 -0.5664  0.4315  4.7653
  389SOL     OW 1165   2.103   0.944   2.512 -0.5190  0.1531 -0.1501
  389SOL    HW1 1166   2.145   0.902   2.596  1.2993 -2.4429  1.3395
  389SOL    HW2 1167   2.104   1.043   2.512 -0.5548 -4.2817 -2.5368
  390SOL     OW 1168   1.096   1.751   0.100 -0.0274  0.1897  0.4532
  390SOL    HW1 1169   1.021   1.804   0.145  2.7952 -2.4785  0.4853
  390SOL    HW2 1170   1.055   1.677   0.044  0.8144 -2.5231  2.2021
  391SOL     OW 1171   1.120   1.699   0.377 -0.1026  0.4011 -0.1226
  391SOL    HW1 1172   1.071   1.765   0.434 -2.5871  0.0404 -0.7144
  391SOL    HW2 1173   1.139   1.720   0.280  1.9638  0.9202  2.6412
  392SOL     OW 1174   2.698   3.005   2.515 -0.5202 -0.0014  0.1461
  392SOL    HW1 1175   2.766   3.017   2.443  0.6705 -1.2272 -0.6872
  392SOL    HW2 1176   2.742   2.957   2.589 -0.0582  1.1106 -1.7073
  393SOL     OW 1177   1.544   2.277   0.119  0.0701  0.6891  0.9083
  393SOL    HW1 1178   1.525   2.222   0.202  3.1222 -2.0067 -1.9886
  393SOL    HW2 1179   1.461   2.281   0.060 -0.4573 -0.0799  2.2889
  394SOL     OW 1180   0.797   0.155   2.239  0.0475  0.1519 -0.2396
  394SOL    HW1 1181   0.891   0.119   2.220  1.4244  0.1226  0.7800
  394SOL    HW2 1182   0.770   0.213   2.161 -2.7284  0.7687  2.1023
  395SOL     OW 1183   0.272   1.600   1.393  0.0942 -0.0259 -0.3604
  395SOL    HW1 1184   0.273   1.641   1.489  2.2869  2.2042  1.1686
  395SOL    HW2 1185   0.190   1.623   1.334 -0.6836 -4.3837 -2.1109
  396SOL     OW 1186   2.139   1.592   2.853  0.3853 -0.1823  0.1379
  396SOL    HW1 1187   2.079   1.638   2.784 -3.9286 -0.6302 -1.6529
  396SOL    HW2 1188   2.079   1.568   2.936 -1.3320  2.5442  2.2935
  397SOL     OW 1189   0.367   0.829   2.998  0.2825  0.2215  0.2086
  397SOL    HW1 1190   0.341   0.764   2.920 -4.7145 -0.8189 -0.4027
  397SOL    HW2 1191   0.352   0.928   2.974  1.5267  2.0158  1.5918
  398SOL     OW 1192   0.849   2.497   0.145  0.0811 -0.4065 -0.3284
  398SOL    HW1 1193   0.949   2.515   0.160  0.5703  0.4560 -1.5103
  398SOL    HW2 1194   0.800   2.583   0.125  0.5562  0.8856  0.2118
  399SOL     OW 1195   1.932   2.369   2.583  0.4201 -0.2095  0.0595
  399SOL    HW1 1196   1.902   2.422   2.670  2.1673 -0.8725  0.1039
  399SOL    HW2 1197   1.977   2.435   2.518  0.1209 -0.2642 -0.2300
  400SOL     OW 1198   0.001   1.068   1.852 -0.5062  0.2740  0.0084
  400SOL    HW1 1199   3.072   1.154   1.839 -1.6636 -0.0441 -2.6138
  400SOL    HW2 1200   0.081   1.068   1.788 -1.6545 -1.5100  0.6046
  401SOL     OW 1201   0.717   0.566   0.710  0.1101  0.2103 -0.0006
  401SOL    HW1 1202   0.648   0.499   0.672  0.0737 -0.1563 -1.0179
  401SOL    HW2 1203   0.674   0.643   0.764  0.4304  3.3550  0.9797
  402SOL     OW 1204   0.980   0.177   2.738  0.1474 -0.0207 -0.0269
  402SOL    HW1 1205   0.923   0.261   2.768 -3.8543  1.7905 -0.0010
  402SOL    HW2 1206   0.931   0.091   2.767  0.3115  2.5527 -0.9493
  403SOL     OW 1207   2.694   1.866   1.724 -0.1777  0.4087 -0.0439
  403SOL    HW1 1208   2.767   1.881   1.793  1.9521  0.6369 -2.8480
  403SOL    HW2 1209   2.708   1.789   1.660  0.1263  1.9820  1.6236
  404SOL     OW 1210   2.656   2.379   1.443 -0.5343  0.4078  0.4603
  404SOL    HW1 1211   2.747   2.403   1.482 -1.8241  1.1079  2.2428
  404SOL    HW2 1212   2.668   2.357   1.343 -1.1114  2.5404  1.5986
  405SOL     OW 1213   1.921   0.270   2.738  0.0439 -0.4748  0.2948
  405SOL    HW1 1214   1.945   0.265   2.636  1.2110  1.8800  0.3885
  405SOL    HW2 1215   1.951   0.361   2.770 -0.9579 -1.9024  0.3339
  406SOL     OW 1216   1.389   1.853   0.066 -0.2656  0.5286  0.2101
  406SOL    HW1 1217   1.443   1.772   0.096  0.5049 -1.2180  1.1159
  406SOL    HW2 1218   1.299   1.848   0.105  4.8290 -3.2530  0.9460
  407SOL     OW 1219   1.837   1.792   0.631 -0.2295 -0.8968  0.0307
  407SOL    HW1 1220   1.797   1.792   0.722 -2.0098 -1.4397 -0.7888
  407SOL    HW2 1221   1.767   1.764   0.560  1.4244 -0.6226 -0.6747
  408SOL     OW 1222   3.039   0.244   1.244 -0.3605  0.1340  0.4702
  408SOL    HW1 1223   3.055   0.342   1.223  0.2398 -2.7912  0.7287
  408SOL    HW2 1224   3.117   0.179   1.222  4.3759 -0.5650 -2.0724
  409SOL     OW 1225   2.333   1.355   0.081  0.1996  0.4116  0.3941
  409SOL    HW1 1226   2.419   1.301   0.100  3.5959  0.7445 -0.6477
  409SOL    HW2 1227   2.356   1.444   0.046  1.1576  0.8616  0.4843
  410SOL     OW 1228   2.280   2.395   0.934 -0.0885  0.5102 -0.8898
  410SOL    HW1 1229   2.202   2.430   0.993 -1.9293  0.9235  1.6221
  410SOL    HW2 1230   2.343   2.333   0.990 -0.0133 -4.4994  0.1209
  411SOL     OW 1231   0.265   3.042   0.230  0.1198 -0.1044 -0.3738
  411SOL    HW1 1232   0.208   0.004   0.203  0.5223  0.6327 -0.5277
  411SOL    HW2 1233   0.289   2.996   0.143 -0.1387 -1.8543 -1.2821
  412SOL     OW 1234   1.605   2.997   0.295 -0.3448 -0.5867  1.0769
  412SOL    HW1 1235   1.592   3.085   0.248  0.1737 -2.4416  2.8324
  412SOL    HW2 1236   1.626   3.010   0.395  0.1770 -1.1160  0.1352
  413SOL     OW 1237   1.809   0.350   2.289  0.9770 -0.8251  0.4019
  413SOL    HW1 1238   1.890   0.334   2.229  1.6917  0.6278  2.4640
  413SOL    HW2 1239   1.715   0.318   2.263 -1.9068 -0.0871  2.8553
  414SOL     OW 1240   0.016   0.566   0.479 -0.0904 -0.4995  0.4723
  414SOL    HW1 1241   0.010   0.573   0.376 -2.0096 -0.5220  1.6143
  414SOL    HW2 1242   0.102   0.517   0.501 -0.4930 -0.0368 -0.8981
  415SOL     OW 1243   3.048   1.353   0.771 -0.0161 -0.6455  0.1906
  415SOL    HW1 1244   2.984   1.294   0.824  0.3883  0.4369 -0.6426
  415SOL    HW2 1245   3.003   1.448   0.767 -2.2045 -0.6811  0.8403
  416SOL     OW 1246   0.043   0.742   2.760  0.3865 -0.2951 -0.1881
  416SOL    HW1 1247   0.083   0.705   2.846 -0.0279  0.4355  0.1048
  416SOL    HW2 1248   0.117   0.792   2.704  1.9576 -0.3864 -2.3777
  417SOL     OW 1249   2.566   0.110   0.994  0.4680 -0.2281 -0.6591
  417SOL    HW1 1250   2.490   0.111   1.061 -0.4683 -2.0294  2.2444
  417SOL    HW2 1251   2.616   0.198   0.998 -1.2553  1.6561  0.0149
  418SOL     OW 1252   0.850   3.052   2.828  0.9244 -0.4259  0.5482
  418SOL    HW1 1253   0.880   2.974   2.885  2.6627  0.9181 -1.3214
  418SOL    HW2 1254   0.778   3.025   2.756 -1.8218 -1.1705 -1.1224
  419SOL     OW 1255   0.161   0.927   0.839  0.8405 -0.0783  0.3698
  419SOL    HW1 1256   0.183   0.992   0.764  1.8691 -1.3296 -1.1326
  419SOL    HW2 1257   0.177   0.832   0.817 -1.0344  0.6648  0.9500
  420SOL     OW 1258   2.935   1.308   1.501 -0.3570  0.1725  0.4968
  420SOL    HW1 1259   2.949   1.370   1.579 -0.8749  4.5124 -2.4548
  420SOL    HW2 1260   2.981   1.218   1.516 -0.3694  2.1207  2.2682
  421SOL     OW 1261   1.360   1.979   2.936 -0.2191  0.1817 -0.3888
  421SOL    HW1 1262   1.391   1.924   2.855  3.8516  1.1641 -0.1791
  421SOL    HW2 1263   1.371   1.936   3.026  1.7617 -1.5485  1.9933
  422SOL     OW 1264   2.435   0.900   2.519 -0.2675 -0.2323 -0.3927
  422SOL    HW1 1265   2.338   0.894   2.550 -1.6402  0.9724 -0.6032
  422SOL    HW2 1266   2.470   0.808   2.504 -3.3422  2.0249 -0.8586
  423SOL     OW 1267   1.941   1.436   0.386 -0.2223  0.1196  0.3226
  423SOL    HW1 1268   1.980   1.497   0.314 -0.0443  1.1891 -2.3270
  423SOL    HW2 1269   1.872   1.369   0.351 -0.8049 -0.4492  0.4031
  424SOL     OW 1270   0.795   0.977   2.015  0.1081  0.0650  0.5497
  424SOL    HW1 1271   0.737   1.047   2.059 -0.7947  1.8735 -2.2213
  424SOL    HW2 1272   0.887   1.021   1.988  0.0934  0.2989 -2.9186
  425SOL     OW 1273   3.027   2.752   2.127  1.1863  0.3327 -0.2481
  425SOL    HW1 1274   3.036   2.735   2.026  1.1052 -0.9516  0.3176
  425SOL    HW2 1275   3.079   2.832   2.153 -0.0798 -2.4479 -2.4392
  426SOL     OW 1276   2.428   2.800   0.420  0.0836  0.5904 -0.6732
  426SOL    HW1 1277   2.520   2.777   0.381 -2.7527 -0.2011  0.0157
  426SOL    HW2 1278   2.438   2.838   0.514 -1.7368  0.6617 -0.2324
  427SOL     OW 1279   0.711   0.640   2.858  0.3873 -0.6314  0.5037
  427SOL    HW1 1280   0.731   0.689   2.774  2.1399 -0.0945 -0.2517
  427SOL    HW2 1281   0.724   0.704   2.936  1.3409  1.7808  1.9964
  428SOL     OW 1282   2.547   1.288   2.841  0.2949 -0.0988  0.3911
  428SOL    HW1 1283   2.612   1.274   2.917  0.0890  0.1682 -0.0484
  428SOL    HW2 1284   2.561   1.221   2.768 -0.0645 -0.7528 -0.5672
  429SOL     OW 1285   2.648   0.424   0.083  0.1345 -0.3839  0.4326
  429SOL    HW1 1286   2.568   0.485   0.107 -1.6001  1.5690  0.4881
  429SOL    HW2 1287   2.659   0.419   3.100 -0.8688 -1.5605 -0.2780
  430SOL     OW 1288   1.451   2.458   2.088  0.1848 -0.2487 -0.3311
  430SOL    HW1 1289   1.440   2.562   2.103 -0.4849 -2.2680  0.9871
  430SOL    HW2 1290   1.365   2.417   2.070  1.8872  0.3706  0.7913
  431SOL     OW 1291   0.238   2.144   1.467 -0.1748  0.3599  0.2553
  431SOL    HW1 1292   0.151   2.118   1.420 -0.8248 -0.9713 -1.3912
  431SOL    HW2 1293   0.247   2.101   1.561  0.3927 -1.9599  0.1548
  432SOL     OW 1294   1.959   2.727   2.146 -0.3498  0.0866 -0.4002
  432SOL    HW1 1295   1.935   2.818   2.184  0.5858  0.2324 -2.3943
  432SOL    HW2 1296   2.041   2.733   2.084  2.5895  0.5797 -2.7364
  433SOL     OW 1297   1.046   2.143   0.317 -0.1714  0.3418 -0.0944
  433SOL    HW1 1298   1.022   2.056   0.370 -2.5172  2.7668  1.3445
  433SOL    HW2 1299   1.122   2.128   0.246  1.9028  0.8268 -1.9553
  434SOL     OW 1300   0.282   1.924   2.656 -1.1848 -0.6870 -0.6002
  434SOL    HW1 1301   0.387   1.936   2.667  3.0486  2.3909  0.7989
  434SOL    HW2 1302   0.231   1.970   2.732  0.3106 -2.3386  1.2549
  435SOL     OW 1303   0.066   1.053   0.484 -0.2176 -0.0587  0.1200
  435SOL    HW1 1304   3.119   1.123   0.448  1.6474  2.8862 -1.4919
  435SOL    HW2 1305   0.022   0.967   0.515 -0.8533  0.6463  2.7787
  436SOL     OW 1306   0.540   2.670   1.691 -0.3879  0.1913 -0.2601
  436SOL    HW1 1307   0.495   2.754   1.656  1.2356  0.7078 -3.9959
  436SOL    HW2 1308   0.643   2.681   1.710  1.0784 -1.4194  1.1083
  437SOL     OW 1309   0.767   3.041   0.699  0.5254  0.1541  0.0194
  437SOL    HW1 1310   0.792   0.008   0.653 -0.1490  0.2456 -1.2017
  437SOL    HW2 1311   0.781   2.970   0.635 -0.8218  2.8683  1.0325
  438SOL     OW 1312   0.176   2.351   0.633  0.1603  0.8506  0.0212
  438SOL    HW1 1313   0.217   2.441   0.658 -0.1972 -0.5046  1.0674
  438SOL    HW2 1314   0.209   2.278   0.694 -3.2250 -1.0322 -2.6791
  439SOL     OW 1315   0.804   2.258   1.549  0.1283  0.4237 -0.6054
  439SOL    HW1 1316   0.823   2.283   1.450  0.4554  0.0831 -3.0963
  439SOL    HW2 1317   0.823   2.335   1.611 -0.6455  2.2151 -1.8233
  440SOL     OW 1318   1.966   3.009   2.185  0.2520  0.2712 -0.0470
  440SOL    HW1 1319   1.992   3.078   2.117 -2.1653 -2.4668 -0.3289
  440SOL    HW2 1320   1.910   3.041   2.264  1.9494 -2.8900  0.7266
  441SOL     OW 1321   3.034   0.434   1.878 -0.7638 -0.1703 -0.5918
  441SOL    HW1 1322   3.071   0.356   1.937  0.2646 -0.4946 -3.7828
  441SOL    HW2 1323   3.068   0.432   1.781  0.1976 -1.7705 -1.0094
  442SOL     OW 1324   1.951   2.450   0.834 -0.9943  0.0457 -0.0533
  442SOL    HW1 1325   2.014   2.496   0.769  3.5826 -0.2618  0.1281
  442SOL    HW2 1326   1.995   2.445   0.926 -1.3827  2.0905  1.5304
  443SOL     OW 1327   2.735   0.838   2.295  0.4738  0.5980  0.9151
  443SOL    HW1 1328   2.666   0.770   2.332  0.3784 -2.0774 -1.6196
  443SOL    HW2 1329   2.821   0.856   2.342  1.1056  0.6741 -0.3248
  444SOL     OW 1330   1.840   1.077   2.172  0.7728 -0.2865  0.1651
  444SOL    HW1 1331   1.801   1.129   2.094 -0.2485 -1.4995  1.5277
  444SOL    HW2 1332   1.773   1.066   2.247  0.6228  1.0528  0.9827
  445SOL     OW 1333   3.046   2.394   1.202  0.2323 -0.3621  0.2288
  445SOL    HW1 1334   0.019   2.429   1.177  1.4209 -1.0991  3.1967
  445SOL    HW2 1335   2.978   2.439   1.142  0.9332  1.5949 -0.4603
  446SOL     OW 1336   2.798   1.618   1.087  0.0021  0.1248 -0.0905
  446SOL    HW1 1337   2.764   1.639   1.178  2.2267 -0.6436 -2.6682
  446SOL    HW2 1338   2.840   1.529   1.082 -0.4023  2.6358 -0.0528
  447SOL     OW 1339   0.554   1.027   0.738 -0.3445 -0.8595 -0.4059
  447SOL    HW1 1340   0.555   1.093   0.812 -0.5218 -0.3710 -1.3348
  447SOL    HW2 1341   0.544   1.076   0.651  0.6389  0.1929  2.9536
  448SOL     OW 1342   1.357   1.654   2.104  0.5876 -0.4335 -0.6701
  448SOL    HW1 1343   1.268   1.707   2.089 -2.5383  1.2463 -2.3988
  448SOL    HW2 1344   1.349   1.554   2.085  0.8701 -1.8844 -0.9897
  449SOL     OW 1345   1.453   1.302   0.359 -0.5250 -0.0669 -0.2686
  449SOL    HW1 1346   1.556   1.287   0.362 -0.1239 -3.4673 -0.2306
  449SOL    HW2 1347   1.411   1.216   0.333  2.2195  3.0667 -1.4236
  450SOL     OW 1348   2.864   2.658   2.308  0.3608  0.3127 -0.3289
  450SOL    HW1 1349   2.911   2.701   2.228 -2.0927 -1.7393  0.8353
  450SOL    HW2 1350   2.761   2.690   2.304 -2.8462  1.0506  0.2466
  451SOL     OW 1351   2.411   0.406   2.488  1.0934  0.1890  0.3696
  451SOL    HW1 1352   2.459   0.417   2.396  1.1263 -0.1023  0.5303
  451SOL    HW2 1353   2.454   0.339   2.551 -0.6083 -2.8738 -0.5259
  452SOL     OW 1354   1.553   0.301   1.245 -0.0637  0.4557 -0.0530
  452SOL    HW1 1355   1.634   0.242   1.265 -1.2951  0.4778  0.9638
  452SOL    HW2 1356   1.547   0.376   1.309  0.2689 -1.4570 -1.4410
  453SOL     OW 1357   1.800   0.984   1.687  0.1072 -0.5706 -0.0479
  453SOL    HW1 1358   1.826   0.986   1.588  0.5892  0.9719 -1.1088
  453SOL    HW2 1359   1.871   1.033   1.738  2.0548  1.0251  0.0196
  454SOL     OW 1360   2.957   1.713   0.426  0.3849 -0.5623 -0.1725
  454SOL    HW1 1361   3.036   1.658   0.464 -1.7507 -0.9788 -0.8754
  454SOL    HW2 1362   2.929   1.785   0.495  1.6346  1.4490  0.9601
  455SOL     OW 1363   2.929   0.110   0.682 -0.6368  0.1110  0.2958
  455SOL    HW1 1364   2.969   0.174   0.610 -2.2399  2.1725  0.5568
  455SOL    HW2 1365   2.937   0.151   0.774 -0.5439 -0.7265 -1.4662
  456SOL     OW 1366   0.105   2.769   1.173 -0.5694  0.3151  0.3692
  456SOL    HW1 1367   0.074   2.859   1.208 -0.6149 -1.4385  0.0292
  456SOL    HW2 1368   0.115   2.699   1.243  1.3749 -0.0822 -0.4321
  457SOL     OW 1369   1.304   0.090   0.553  0.3211  0.3005 -0.1830
  457SOL    HW1 1370   1.297   0.036   0.640  2.3459  1.2339 -1.0088
  457SOL    HW2 1371   1.396   0.132   0.559 -1.2070  0.0682 -1.0000
  458SOL     OW 1372   2.487   0.102   0.731 -1.0022  0.0892  0.5616
  458SOL    HW1 1373   2.497   0.102   0.833 -2.5790 -0.5568  0.0367
  458SOL    HW2 1374   2.559   0.043   0.681  0.9800  1.3491 -1.0479
  459SOL     OW 1375   2.304   0.559   2.690 -0.6771  0.0305 -0.0720
  459SOL    HW1 1376   2.339   0.501   2.615  0.5765  0.9419  0.1891
  459SOL    HW2 1377   2.360   0.548   2.777 -1.4553 -0.6354  1.0728
  460SOL     OW 1378   2.935   2.920   2.990 -0.1185 -0.1246 -0.0483
  460SOL    HW1 1379   2.879   2.981   3.050  0.1694 -0.4818 -3.6440
  460SOL    HW2 1380   3.033   2.902   3.026  1.0089 -0.4796 -0.2914
  461SOL     OW 1381   0.976   1.921   0.476  0.5468  0.0663  0.2021
  461SOL    HW1 1382   0.991   1.948   0.570  1.2463 -3.0082 -0.0220
  461SOL    HW2 1383   0.876   1.901   0.468  2.4790  0.5014 -1.9032
  462SOL     OW 1384   2.411   2.197   1.116 -0.0124  0.2815 -0.3696
  462SOL    HW1 1385   2.342   2.184   1.192 -2.5546  1.3653 -0.0681
  462SOL    HW2 1386   2.433   2.111   1.070 -0.2735  0.9506  0.3172
  463SOL     OW 1387   2.491   0.968   0.626 -0.0560 -0.1752  0.4060
  463SOL    HW1 1388   2.391   0.954   0.606 -4.0237 -0.2607  2.0510
  463SOL    HW2 1389   2.558   0.910   0.574  1.0560 -0.0326  0.9391
  464SOL     OW 1390   0.290   0.081   1.402  0.1245  0.2231  0.3006
  464SOL    HW1 1391   0.264   0.063   1.304 -0.4090 -3.5728  1.6201
  464SOL    HW2 1392   0.375   0.039   1.425  0.0969  0.2368 -2.9944
  465SOL     OW 1393   2.823   1.476   0.092  0.1932 -0.6763  0.4989
  465SOL    HW1 1394   2.736   1.526   0.110  0.2848 -0.1703 -1.1698
  465SOL    HW2 1395   2.800   1.378   0.071 -2.7554  1.1480 -2.1612
  466SOL     OW 1396   1.688   0.130   2.686  0.2308  0.0789 -0.5175
  466SOL    HW1 1397   1.777   0.177   2.688  3.0652  0.3844 -3.0582
  466SOL    HW2 1398   1.613   0.194   2.711 -0.0321 -1.0016  0.0269
  467SOL     OW 1399   0.833   0.553   1.649  0.0845 -0.0651  0.1919
  467SOL    HW1 1400   0.890   0.573   1.734 -1.6696  1.8002 -0.8657
  467SOL    HW2 1401   0.884   0.542   1.559  0.6022 -1.5745 -1.8457
  468SOL     OW 1402   0.520   0.947   2.676 -0.5064  0.3369 -0.4560
  468SOL    HW1 1403   0.509   1.044   2.650  0.5186 -2.2627  0.4242
  468SOL    HW2 1404   0.601   0.899   2.633 -0.8626 -1.5178 -1.3007
  469SOL     OW 1405   0.231   2.106   0.015 -0.4136 -0.1364  0.0170
  469SOL    HW1 1406   0.214   2.200   3.108 -2.9798 -1.5387  0.9173
  469SOL    HW2 1407   0.169   2.070   0.082  3.0576 -0.6975 -1.9892
  470SOL     OW 1408   2.223   1.840   2.592 -0.0815 -0.4999  0.3385
  470SOL    HW1 1409   2.298   1.769   2.604 -0.0724  0.9737  2.5888
  470SOL    HW2 1410   2.232   1.919   2.656  1.8209  0.6326 -0.0079
  471SOL     OW 1411   2.682   1.337   2.210  0.3765  0.0108 -0.0961
  471SOL    HW1 1412   2.696   1.235   2.207  1.2380 -0.7353 -0.3690
  471SOL    HW2 1413   2.722   1.382   2.293 -2.1255 -2.1749  0.1298
  472SOL     OW 1414   0.520   2.698   0.478 -0.0101 -0.0512 -0.1977
  472SOL    HW1 1415   0.466   2.688   0.391  0.8311 -3.0519 -1.1825
  472SOL    HW2 1416   0.469   2.754   0.550  1.3280  1.1727  0.2848
  473SOL     OW 1417   0.656   0.012   3.008 -0.2913 -0.1567  0.1258
  473SOL    HW1 1418   0.650   0.014   3.114 -4.5413 -0.3032 -0.4739
  473SOL    HW2 1419   0.744   3.114   2.968 -1.2747 -2.4619 -1.2934
  474SOL     OW 1420   1.730   3.004   2.332 -0.1445 -0.3998 -0.2977
  474SOL    HW1 1421   1.651   3.019   2.392 -0.1911 -1.2471  1.8635
  474SOL    HW2 1422   1.700   2.985   2.238 -1.4850  0.6872 -0.6926
  475SOL     OW 1423   1.657   2.519   0.428  0.1728 -0.4710 -0.0104
  475SOL    HW1 1424   1.689   2.472   0.514 -1.3704 -0.0031  0.2751
  475SOL    HW2 1425   1.694   2.473   0.346  2.4486  0.0328 -0.3731
  476SOL     OW 1426   0.197   0.662   0.845  0.2064  0.0446 -0.0360
  476SOL    HW1 1427   0.108   0.643   0.887 -2.4118 -1.4451 -1.9203
  476SOL    HW2 1428   0.275   0.600   0.864 -0.3811  0.0043 -4.4247
  477SOL     OW 1429   1.439   2.370   0.842 -0.1120 -0.4651  0.3453
  477SOL    HW1 1430   1.503   2.330   0.773 -1.6668  3.2815 -0.4216
  477SOL    HW2 1431   1.341   2.347   0.822  0.2573  0.2163 -0.0770
  478SOL     OW 1432   0.257   2.306   2.329 -0.2708  0.1945  0.1462
  478SOL    HW1 1433   0.235   2.206   2.338  3.2716  0.1867 -0.1701
  478SOL    HW2 1434   0.258   2.336   2.231  2.2876 -0.9778  2.3820
  479SOL     OW 1435   2.445   0.656   0.830  0.5834  0.2780  0.1907
  479SOL    HW1 1436   2.492   0.649   0.742 -2.5390  0.2840 -0.9013
  479SOL    HW2 1437   2.506   0.664   0.908 -0.0226 -0.4218 -1.4960
  480SOL     OW 1438   3.081   2.778   0.186  0.5958 -0.1830 -0.3824
  480SOL    HW1 1439   0.025   2.790   0.261 -0.8530 -0.2686 -0.2471
  480SOL    HW2 1440   0.010   2.777   0.099 -0.2495 -0.2914  0.6131
  481SOL     OW 1441   2.639   2.754   1.237 -0.4500  0.5814  0.2936
  481SOL    HW1 1442   2.580   2.741   1.320 -0.5229 -0.6903  1.1824
  481SOL    HW2 1443   2.717   2.817   1.255 -0.7440  2.1440  0.1166
  482SOL     OW 1444   1.273   2.225   2.844 -0.1578 -0.0096 -0.4032
  482SOL    HW1 1445   1.307   2.136   2.880 -1.9304  0.5252 -0.6640
  482SOL    HW2 1446   1.312   2.262   2.760 -1.5676 -1.7739  0.1218
  483SOL     OW 1447   0.555   1.939   2.679 -0.0554  0.3686 -0.2761
  483SOL    HW1 1448   0.591   1.855   2.718  2.1117  0.1430  0.3913
  483SOL    HW2 1449   0.597   2.020   2.724  0.7872 -0.2187  1.5088
  484SOL     OW 1450   0.947   0.915   1.180 -0.2040  0.6859 -0.0603
  484SOL    HW1 1451   0.868   0.886   1.239  1.2029 -1.9401 -0.8503
  484SOL    HW2 1452   1.041   0.899   1.222 -0.1788  0.2533  1.7932
  485SOL     OW 1453   2.507   0.656   0.131  0.1310 -0.5221  0.0355
  485SOL    HW1 1454   2.410   0.632   0.151  0.3680  0.8279  1.4317
  485SOL    HW2 1455   2.507   0.745   0.081 -1.2162  1.9345 -2.4914
  486SOL     OW 1456   1.759   0.123   1.241  0.6235 -0.1303 -0.2271
  486SOL    HW1 1457   1.710   0.067   1.313 -1.8342 -1.7780  3.1835
  486SOL    HW2 1458   1.856   0.136   1.255 -0.7322 -3.2732  1.1162
  487SOL     OW 1459   0.182   2.438   1.151  0.3223 -0.0358 -0.4306
  487SOL    HW1 1460   0.243   2.476   1.079  1.6938  0.4890  0.4173
  487SOL    HW2 1461   0.189   2.505   1.230  0.9118 -0.6291 -0.3558
  488SOL     OW 1462   2.501   1.188   0.459 -0.2885  0.4236  0.1007
  488SOL    HW1 1463   2.461   1.156   0.366 -0.9688 -1.4580 -2.1447
  488SOL    HW2 1464   2.497   1.112   0.524  0.6020  0.9990 -2.6609
  489SOL     OW 1465   1.779   3.046   1.075  0.0286 -0.0635  0.1046
  489SOL    HW1 1466   1.819   3.049   0.982 -1.3185 -1.7358  0.8592
  489SOL    HW2 1467   1.755   0.021   1.114 -1.2940 -0.2620 -0.4648
  490SOL     OW 1468   0.783   0.390   0.470 -0.0423  0.0861  0.0065
  490SOL    HW1 1469   0.692   0.367   0.426 -1.9165  2.6155 -2.3310
  490SOL    HW2 1470   0.814   0.479   0.432 -1.1174  0.8295  0.9817
  491SOL     OW 1471   0.500   2.458   0.605 -1.0594  0.5674 -0.3356
  491SOL    HW1 1472   0.532   2.393   0.533  1.0547 -4.0266  0.9159
  491SOL    HW2 1473   0.516   2.553   0.580  1.0982  2.4169 -2.5035
  492SOL     OW 1474   1.212   1.517   2.595 -0.2545 -0.8102  0.1507
  492SOL    HW1 1475   1.247   1.483   2.687 -0.2907  0.6458  4.2054
  492SOL    HW2 1476   1.248   1.612   2.571 -0.3285  0.4427  0.1786
  493SOL     OW 1477   0.038   2.699   0.924 -0.0117 -0.0585  0.1684
  493SOL    HW1 1478   3.103   2.621   0.953 -0.0268  2.3894  0.5531
  493SOL    HW2 1479   0.064   2.754   1.005  2.0511 -0.5507 -2.5860
  494SOL     OW 1480   2.804   2.112   0.168 -0.0037  0.2213  0.3195
  494SOL    HW1 1481   2.817   2.183   0.236 -2.1368 -3.1101 -5.8380
  494SOL    HW2 1482   2.726   2.061   0.200  6.3618 -1.3115  0.8729
  495SOL     OW 1483   2.524   1.887   2.919 -0.0351  0.3971 -0.2404
  495SOL    HW1 1484   2.509   1.964   2.857 -0.4428  0.6674  0.5002
  495SOL    HW2 1485   2.464   1.807   2.893 -0.0715 -1.0706  0.7245
  496SOL     OW 1486   2.806   0.174   1.598  0.7821  0.0255 -0.6654
  496SOL    HW1 1487   2.902   0.212   1.583  2.1791 -0.0660 -0.4681
  496SOL    HW2 1488   2.730   0.247   1.611 -2.3631  1.2393 -0.2292
  497SOL     OW 1489   2.504   0.904   3.094 -0.2364 -0.1298 -0.0335
  497SOL    HW1 1490   2.468   0.944   3.004 -1.5085 -0.7159 -2.8938
  497SOL    HW2 1491   2.599   0.880   3.091 -2.1595 -0.1623  1.6560
  498SOL     OW 1492   0.104   1.961   2.230  0.6102  0.6138  0.4503
  498SOL    HW1 1493   0.025   2.022   2.200 -1.4761  0.3179 -1.2205
  498SOL    HW2 1494   0.123   1.974   2.328 -1.3495 -2.4257 -1.3656
  499SOL     OW 1495   1.033   2.333   2.939 -0.4513 -0.0111 -0.4872
  499SOL    HW1 1496   0.998   2.277   3.020 -2.1872 -0.6005  0.7522
  499SOL    HW2 1497   1.110   2.282   2.900 -3.2281  0.7329 -0.6074
  500SOL     OW 1498   1.592   3.022   3.017 -0.0027 -0.2810 -0.3366
  500SOL    HW1 1499   1.676   3.064   2.975 -1.6944 -0.0911 -0.4291
  500SOL    HW2 1500   1.550   3.091   3.078  0.6829  0.0331 -1.7912
  501SOL     OW 1501   1.475   3.095   1.739 -0.3641  0.0336  0.2280
  501SOL    HW1 1502   1.557   3.062   1.791 -1.1621  1.5559  2.8376
  501SOL    HW2 1503   1.492   0.063   1.693  1.3961 -2.3409 -1.0547
  502SOL     OW 1504   2.838   0.852   2.040 -0.0735  0.5841 -0.3909
  502SOL    HW1 1505   2.922   0.794   2.034  0.7948  1.3496 -1.8603
  502SOL    HW2 1506   2.782   0.828   2.120  1.6524  1.5306  0.7452
  503SOL     OW 1507   2.221   2.287   2.365 -0.0082 -0.1069 -0.1732
  503SOL    HW1 1508   2.174   2.375   2.337 -0.3598  0.4815 -0.8313
  503SOL    HW2 1509   2.163   2.201   2.369 -2.2360  0.3947 -2.3272
  504SOL     OW 1510   1.677   0.747   1.726  0.3356  0.4287 -0.5418
  504SOL    HW1 1511   1.720   0.836   1.700 -2.8120 -3.3581  1.6409
  504SOL    HW2 1512   1.733   0.683   1.783  3.0003 -0.8619  1.1269
  505SOL     OW 1513   0.808   0.916   1.659 -0.0951 -0.2971  0.4137
  505SOL    HW1 1514   0.799   0.867   1.569  1.1567 -2.3100 -0.9498
  505SOL    HW2 1515   0.786   0.852   1.738  2.4748 -1.5593  0.0097
  506SOL     OW 1516   0.292   0.677   2.394  0.3991 -0.0495  0.3139
  506SOL    HW1 1517   0.264   0.722   2.303 -0.5426  0.1005  1.4731
  506SOL    HW2 1518   0.363   0.606   2.375  2.8722  0.3207 -1.4794
  507SOL     OW 1519   0.301   2.988   3.090 -0.4821  0.0289  0.6280
  507SOL    HW1 1520   0.389   2.943   3.059  0.6526 -0.3236  0.2744
  507SOL    HW2 1521   0.267   3.050   3.017  3.1702 -0.1678 -2.0313
  508SOL     OW 1522   1.388   0.748   1.685  0.5050  0.0317 -0.9379
  508SOL    HW1 1523   1.486   0.724   1.676  2.0321  0.7971  0.1922
  508SOL    HW2 1524   1.374   0.850   1.676 -0.5506  0.0796  0.7559
  509SOL     OW 1525   1.211   2.008   1.360 -0.5925  0.0576 -0.4484
  509SOL    HW1 1526   1.235   1.915   1.394 -1.2544  0.8254  1.3755
  509SOL    HW2 1527   1.276   2.079   1.401  0.9178  2.1765  0.4511
  510SOL     OW 1528   2.470   1.494   2.289  0.2143 -0.0037  0.5436
  510SOL    HW1 1529   2.448   1.438   2.370  1.6512 -0.0882 -1.5432
  510SOL    HW2 1530   2.543   1.440   2.243  0.0426 -3.0904  0.2631
  511SOL     OW 1531   0.791   2.004   1.139  0.2791  0.1744 -0.6411
  511SOL    HW1 1532   0.716   2.067   1.114 -1.4193 -0.4404 -0.6474
  511SOL    HW2 1533   0.754   1.936   1.205  1.5152  2.6828 -1.6094
  512SOL     OW 1534   2.454   2.210   0.410 -0.0237 -0.5422 -0.4059
  512SOL    HW1 1535   2.384   2.238   0.345 -1.4529 -0.3087  1.0319
  512SOL    HW2 1536   2.416   2.153   0.485 -0.5886  2.0318 -1.1505
  513SOL     OW 1537   2.987   1.780   2.612  0.1580  0.2721 -0.0615
  513SOL    HW1 1538   3.053   1.754   2.541 -1.5617  0.9644  1.9988
  513SOL    HW2 1539   2.972   1.705   2.681 -1.3683 -1.6886  0.5646
  514SOL     OW 1540   0.019   2.707   2.442 -0.1756 -0.2198 -0.3088
  514SOL    HW1 1541   0.042   2.611   2.456 -2.1719  2.1572  0.6932
  514SOL    HW2 1542   3.048   2.717   2.397  0.8234 -0.4026  0.8658
  515SOL     OW 1543   2.174   1.177   1.436 -0.3329 -0.3114  0.2910
  515SOL    HW1 1544   2.235   1.209   1.360  1.6880  0.9546  0.1343
  515SOL    HW2 1545   2.211   1.224   1.523  1.1150  1.4294  1.5647
  516SOL     OW 1546   2.528   2.283   3.119  0.0304 -0.0509  0.1020
  516SOL    HW1 1547   2.565   2.282   3.026 -0.4419  0.6162 -0.2584
  516SOL    HW2 1548   2.513   2.185   0.025 -0.7576 -0.2460 -0.0033
  517SOL     OW 1549   1.327   0.913   0.041 -0.1696  0.2740  0.0653
  517SOL    HW1 1550   1.398   0.933   3.087  3.3744 -0.1617 -2.9163
  517SOL    HW2 1551   1.331   0.816   0.077  1.6467 -0.2157  1.7184
  518SOL     OW 1552   3.093   3.092   2.402  0.0129 -0.1323 -0.1259
  518SOL    HW1 1553   3.082   0.064   2.438 -1.9822 -3.5567 -0.1650
  518SOL    HW2 1554   3.108   3.031   2.483 -2.4382  1.3913  0.4227
  519SOL     OW 1555   1.459   1.834   2.297  0.3700  0.0803 -0.1953
  519SOL    HW1 1556   1.404   1.769   2.242  0.9168 -4.7670 -0.6730
  519SOL    HW2 1557   1.449   1.930   2.267  1.3962 -2.7823  0.9564
  520SOL     OW 1558   3.050   2.891   2.631 -0.1771  0.2573  0.2524
  520SOL    HW1 1559   3.068   2.809   2.571  0.9245 -1.1343  1.3330
  520SOL    HW2 1560   2.955   2.886   2.667 -0.4722  1.1671  2.3048
  521SOL     OW 1561   0.258   1.668   2.096 -0.2364 -0.6351 -0.1165
  521SOL    HW1 1562   0.317   1.643   2.177 -2.6615  0.0279  0.1585
  521SOL    HW2 1563   0.195   1.586   2.080  3.4561 -3.6706 -0.6115
  522SOL     OW 1564   0.773   2.744   1.819  0.0827 -0.0802 -0.0208
  522SOL    HW1 1565   0.840   2.778   1.749 -1.6346  0.2339 -0.0997
  522SOL    HW2 1566   0.776   2.805   1.906  1.8987 -0.6832  1.2272
  523SOL     OW 1567   0.199   2.600   1.378 -0.7505  0.1092 -0.3018
  523SOL    HW1 1568   0.217   2.523   1.447  2.9027 -0.7172  0.0050
  523SOL    HW2 1569   0.285   2.657   1.375  2.1437  0.9128 -0.4348
  524SOL     OW 1570   1.508   2.623   0.721  0.2184  0.2371 -0.2216
  524SOL    HW1 1571   1.517   2.603   0.624  1.9910  0.3211 -0.5044
  524SOL    HW2 1572   1.473   2.546   0.781 -3.0674 -1.6468  4.6412
  525SOL     OW 1573   2.430   1.001   1.063 -0.6989  0.1923  0.1471
  525SOL    HW1 1574   2.372   1.077   1.098  2.2230  1.1674  0.6101
  525SOL    HW2 1575   2.373   0.923   1.035 -1.1609  2.6823  2.3071
  526SOL     OW 1576   0.923   2.267   0.655 -0.5081  0.4404 -0.7613
  526SOL    HW1 1577   0.901   2.290   0.558  0.8486 -1.2166  3.0589
  526SOL    HW2 1578   0.928   2.162   0.673 -1.3027 -2.5451  0.6873
  527SOL     OW 1579   2.602   2.088   0.797 -0.2826  0.0869 -0.3413
  527SOL    HW1 1580   2.650   2.040   0.719 -1.5931  0.6470  1.5703
  527SOL    HW2 1581   2.513   2.044   0.821 -0.8840  2.1575 -2.1098
  528SOL     OW 1582   2.204   0.335   3.007  0.1485 -0.3454 -0.7119
  528SOL    HW1 1583   2.262   0.422   2.994  1.3922  3.2438 -1.5095
  528SOL    HW2 1584   2.254   0.247   3.008  0.2412  0.1530  2.5811
  529SOL     OW 1585   1.009   1.121   1.941  0.0153  0.1804  0.2957
  529SOL    HW1 1586   1.041   1.203   1.995 -1.8216  0.6228  3.1984
  529SOL    HW2 1587   1.035   1.128   1.842  0.1112  0.7331 -0.0336
  530SOL     OW 1588   2.610   1.128   2.639 -0.0027  0.1636  0.2856
  530SOL    HW1 1589   2.694   1.118   2.700 -0.6122  1.0773 -0.0667
  530SOL    HW2 1590   2.602   1.054   2.568  0.7807  0.3441 -0.9771
  531SOL     OW 1591   1.048   0.921   3.094 -0.4939 -0.0599  0.2106
  531SOL    HW1 1592   1.150   0.913   3.092 -0.0336 -0.7872  4.1702
  531SOL    HW2 1593   1.018   0.984   0.047  1.0058  1.1099  0.5436
  532SOL     OW 1594   2.007   0.717   0.682 -0.1151 -0.8995 -0.5449
  532SOL    HW1 1595   2.009   0.633   0.747  1.2981 -1.9090  1.2821
  532SOL    HW2 1596   2.019   0.689   0.585 -2.2510  1.6780  0.1285
  533SOL     OW 1597   0.520   0.941   2.180  0.2290 -0.4752  0.1459
  533SOL    HW1 1598   0.421   0.953   2.207 -0.8146 -0.6735 -0.8346
  533SOL    HW2 1599   0.576   1.023   2.198  0.1868  0.4963  1.5297
  534SOL     OW 1600   1.525   3.037   2.584  0.5007 -0.0264 -0.2380
  534SOL    HW1 1601   1.584   3.109   2.627 -0.7526 -1.5632  1.8070
  534SOL    HW2 1602   1.480   2.982   2.660 -0.0967  0.0913 -2.1979
  535SOL     OW 1603   0.824   0.105   0.267 -0.5981  0.7371 -0.2373
  535SOL    HW1 1604   0.860   0.176   0.327 -0.2398 -1.8834  1.4435
  535SOL    HW2 1605   0.902   0.042   0.247 -0.9209  2.5873 -0.4615
  536SOL     OW 1606   1.128   2.942   1.195 -0.1501 -0.6422 -0.2207
  536SOL    HW1 1607   1.209   2.987   1.239 -0.9359 -2.1514 -1.6638
  536SOL    HW2 1608   1.156   2.853   1.154 -0.3485  1.1551 -1.0789
  537SOL     OW 1609   1.734   3.042   1.854 -0.3251  0.4943 -0.3650
  537SOL    HW1 1610   1.770   2.980   1.782  0.1196 -0.7843  0.6780
  537SOL    HW2 1611   1.773   0.015   1.841 -0.5365 -0.2067 -3.2811
  538SOL     OW 1612   0.365   2.714   2.677 -0.2880  0.1811 -0.0125
  538SOL    HW1 1613   0.439   2.653   2.712  0.4217 -0.3666  0.9736
  538SOL    HW2 1614   0.396   2.774   2.601 -0.6959 -1.1392 -3.9592
  539SOL     OW 1615   3.006   1.694   1.817  0.4738 -0.5716  0.0360
  539SOL    HW1 1616   3.001   1.749   1.729  2.1658 -3.0239 -1.3162
  539SOL    HW2 1617   3.025   1.748   1.900  0.5386  0.7206 -1.0976
  540SOL     OW 1618   2.561   2.435   2.185 -0.3502  0.2027 -0.0823
  540SOL    HW1 1619   2.482   2.374   2.218 -2.7089  1.2283  0.9044
  540SOL    HW2 1620   2.569   2.429   2.083 -0.3094 -2.8379 -3.2255
  541SOL     OW 1621   0.212   2.973   1.688 -0.0388 -0.6205  0.2240
  541SOL    HW1 1622   0.252   3.058   1.731  2.3855  2.9168 -0.5723
  541SOL    HW2 1623   0.283   2.947   1.621 -1.2637 -1.4461  1.2139
  542SOL     OW 1624   3.057   0.670   2.035  0.1382  0.4397 -0.4001
  542SOL    HW1 1625   0.017   0.721   1.998  1.3213  0.2805 -2.3662
  542SOL    HW2 1626   3.059   0.583   1.980  1.0676  2.7781 -1.4992
  543SOL     OW 1627   0.636   0.372   1.017  0.1857 -0.1206  0.0541
  543SOL    HW1 1628   0.729   0.361   0.972 -1.1411  0.7250 -0.1015
  543SOL    HW2 1629   0.641   0.335   1.112 -1.3357  0.2223 -1.6989
  544SOL     OW 1630   2.247   2.199   1.332  0.3189 -0.0802  0.1397
  544SOL    HW1 1631   2.200   2.108   1.329  4.1319 -2.2563 -0.7960
  544SOL    HW2 1632   2.184   2.278   1.332 -1.5149 -0.2853  3.8515
  545SOL     OW 1633   1.151   1.582   0.771 -0.4314  0.1257 -0.1700
  545SOL    HW1 1634   1.239   1.632   0.747  2.0647  0.0940  1.4877
  545SOL    HW2 1635   1.165   1.482   0.780  1.4548  0.8788 -1.3652
  546SOL     OW 1636   2.833   0.473   2.229  0.2082 -0.2263  0.1822
  546SOL    HW1 1637   2.773   0.537   2.177  0.3670  1.6141  0.2564
  546SOL    HW2 1638   2.921   0.520   2.252 -0.9920 -2.7853  0.2892
  547SOL     OW 1639   2.972   0.565   2.857  0.0263 -0.1934 -0.8590
  547SOL    HW1 1640   2.922   0.510   2.784  1.4630  0.9388 -1.7267
  547SOL    HW2 1641   3.052   0.620   2.821 -1.0474  0.7859 -0.7815
  548SOL     OW 1642   2.505   2.072   2.725  0.4646  0.2129  0.4461
  548SOL    HW1 1643   2.570   2.118   2.785 -1.7120 -0.6133  0.5420
  548SOL    HW2 1644   2.527   2.093   2.626 -2.6648 -0.6974 -0.7042
  549SOL     OW 1645   2.271   0.493   0.684  0.1573 -0.3110 -0.2076
  549SOL    HW1 1646   2.175   0.482   0.718 -0.7959 -1.1245  5.7865
  549SOL    HW2 1647   2.315   0.565   0.740 -1.2886 -0.6400 -0.8056
  550SOL     OW 1648   2.425   1.366   0.640  0.3902  0.5852 -0.1060
  550SOL    HW1 1649   2.426   1.463   0.617 -1.4575 -3.4819  0.5326
  550SOL    HW2 1650   2.433   1.307   0.559  0.5895  0.5579  2.0818
  551SOL     OW 1651   1.364   2.568   1.575 -0.0085 -0.3573 -0.5023
  551SOL    HW1 1652   1.325   2.495   1.634  3.3304  2.0980 -1.4222
  551SOL    HW2 1653   1.295   2.632   1.529  0.9217  1.4293  0.6888
  552SOL     OW 1654   2.398   2.422   2.561  0.1624 -0.2336 -0.0982
  552SOL    HW1 1655   2.350   2.351   2.510 -0.2852  1.5240  2.1636
  552SOL    HW2 1656   2.340   2.479   2.618  1.5917  0.3717 -1.0400
  553SOL     OW 1657   0.799   2.786   0.556 -0.0806  0.1776  0.5650
  553SOL    HW1 1658   0.829   2.751   0.645 -2.4884 -1.7913  0.6095
  553SOL    HW2 1659   0.707   2.745   0.535 -2.4046  1.3820 -0.6552
  554SOL     OW 1660   2.119   2.621   1.654  0.3774  0.0467  0.2731
  554SOL    HW1 1661   2.035   2.562   1.639 -0.6064  0.5692  0.4531
  554SOL    HW2 1662   2.156   2.665   1.566  2.0086 -0.9050  1.2988
  555SOL     OW 1663   1.935   2.226   2.166  0.2616 -0.4498 -0.0982
  555SOL    HW1 1664   1.976   2.319   2.192  0.0253  0.9480  0.2954
  555SOL    HW2 1665   1.993   2.179   2.096  0.1239  1.5709  1.3581
  556SOL     OW 1666   1.236   0.374   0.621 -0.1305  1.0301  0.2997
  556SOL    HW1 1667   1.142   0.416   0.618  2.4350 -1.0209 -0.5311
  556SOL    HW2 1668   1.309   0.427   0.570 -1.5467  2.8853  0.3837
  557SOL     OW 1669   0.962   2.025   1.564 -0.0331 -0.2206 -0.0205
  557SOL    HW1 1670   1.008   2.008   1.478 -2.3638  0.2505  3.6285
  557SOL    HW2 1671   0.919   2.119   1.556 -0.8040  0.9232  0.0129
  558SOL     OW 1672   2.828   1.460   2.424  0.0188 -0.3483 -0.1620
  558SOL    HW1 1673   2.877   1.548   2.409 -0.5176 -0.5639  2.5026
  558SOL    HW2 1674   2.769   1.465   2.506  1.0754  1.7983 -3.9802
  559SOL     OW 1675   2.046   2.461   2.216  0.0874 -0.0988 -0.3759
  559SOL    HW1 1676   2.083   2.444   2.123 -0.4683 -4.0796 -1.0423
  559SOL    HW2 1677   1.996   2.551   2.211 -0.2029  0.7316 -0.5140
  560SOL     OW 1678   0.573   0.229   2.409  0.6853 -0.0376 -0.2885
  560SOL    HW1 1679   0.672   0.220   2.381 -2.3288  3.0004 -0.7771
  560SOL    HW2 1680   0.543   0.160   2.486 -0.0090 -2.7852  3.1108
  561SOL     OW 1681   1.186   0.315   0.266 -0.1039 -0.3546 -0.1619
  561SOL    HW1 1682   1.233   0.360   0.341 -0.9869 -0.7647 -0.5184
  561SOL    HW2 1683   1.145   0.226   0.299  0.1943  0.3498 -0.3448
  562SOL     OW 1684   0.778   1.352   1.970 -0.4759  0.1773 -0.8394
  562SOL    HW1 1685   0.696   1.405   1.960  0.3476 -4.2698  1.5333
  562SOL    HW2 1686   0.857   1.410   1.945  0.7218 -0.7858 -1.8910
  563SOL     OW 1687   1.924   2.197   0.169  0.0548  0.3951  0.0925
  563SOL    HW1 1688   1.992   2.224   0.099 -1.7461 -0.9364 -0.0386
  563SOL    HW2 1689   1.964   2.157   0.257  0.3254 -0.1352  0.0056
  564SOL     OW 1690   2.796   2.284   0.643  0.4402  0.3071  0.4514
  564SOL    HW1 1691   2.755   2.343   0.717  1.5155  0.6069 -0.3182
  564SOL    HW2 1692   2.750   2.195   0.631  0.4900 -2.3444 -1.2816
  565SOL     OW 1693   0.509   0.048   2.591 -0.2358  0.4089  0.2490
  565SOL    HW1 1694   0.478   0.061   2.687  1.0201 -2.6603  0.1797
  565SOL    HW2 1695   0.563   3.082   2.591 -3.2670  0.7435  0.4172
  566SOL     OW 1696   1.556   2.780   2.465  0.3283  0.0259 -0.1554
  566SOL    HW1 1697   1.632   2.738   2.525  0.5947  0.3399 -1.2998
  566SOL    HW2 1698   1.526   2.872   2.488  1.1457 -0.9830  0.9385
  567SOL     OW 1699   2.106   1.941   1.384 -0.0794 -0.0015  0.6357
  567SOL    HW1 1700   2.111   1.847   1.343 -2.5997  2.5666  0.4020
  567SOL    HW2 1701   2.043   2.000   1.331  0.7131 -1.0515  0.4543
  568SOL     OW 1702   2.066   0.868   2.887  0.6278  0.2209  0.8941
  568SOL    HW1 1703   1.985   0.822   2.843 -2.6666 -0.0246 -0.8795
  568SOL    HW2 1704   2.084   0.833   2.981 -0.6414 -0.6394  2.0125
  569SOL     OW 1705   2.321   1.991   2.055 -0.4473  0.7174  0.4854
  569SOL    HW1 1706   2.377   1.972   1.970 -0.2997 -1.3363  0.4087
  569SOL    HW2 1707   2.283   1.906   2.086  0.2859 -1.8580 -1.0546
  570SOL     OW 1708   2.843   2.946   1.988  0.1865  0.2617  0.2945
  570SOL    HW1 1709   2.857   2.979   2.084 -1.4100  0.0716 -1.4450
  570SOL    HW2 1710   2.919   2.886   1.958 -0.5193  2.4607 -1.2961
  571SOL     OW 1711   0.144   0.854   1.304  0.0662 -0.0141  0.1173
  571SOL    HW1 1712   0.179   0.901   1.222 -2.8033 -0.4823 -0.0482
  571SOL    HW2 1713   0.219   0.859   1.369 -0.3685 -1.7693 -1.2461
  572SOL     OW 1714   0.037   1.610   1.227 -0.1244 -0.2676  0.2419
  572SOL    HW1 1715   0.001   1.517   1.254 -2.0687  1.0720 -1.2506
  572SOL    HW2 1716   0.052   1.599   1.126  1.7216  0.4040 -2.7605
  573SOL     OW 1717   0.821   0.620   0.340 -0.6167 -0.3868 -0.0813
  573SOL    HW1 1718   0.739   0.680   0.326 -2.8648 -3.1343  0.1621
  573SOL    HW2 1719   0.905   0.663   0.302  0.2755  0.2786 -1.5945
  574SOL     OW 1720   0.416   0.212   0.095 -0.0205  0.3263  0.3387
  574SOL    HW1 1721   0.476   0.276   0.045 -1.7657  0.1797  1.9251
  574SOL    HW2 1722   0.468   0.129   0.121 -0.0887  1.2838  0.9575
  575SOL     OW 1723   0.860   2.419   0.860 -0.7390  0.4503 -1.1328
  575SOL    HW1 1724   0.887   2.371   0.774 -2.0958 -0.9158  1.8887
  575SOL    HW2 1725   0.916   2.377   0.934 -0.6206 -3.3575 -0.2085
  576SOL     OW 1726   3.108   2.996   1.295 -0.7145  0.0086  0.3191
  576SOL    HW1 1727   3.006   3.008   1.285  0.5371 -1.6616 -0.7856
  576SOL    HW2 1728   0.009   2.995   1.395 -0.7873 -1.3157  0.0973
  577SOL     OW 1729   2.846   1.968   1.941 -0.4492  0.4286  0.7074
  577SOL    HW1 1730   2.793   2.047   1.979  1.1932 -1.7813  0.1410
  577SOL    HW2 1731   2.937   1.996   1.893  3.8827  2.5389 -1.0310
  578SOL     OW 1732   1.181   2.854   2.410 -0.4539 -0.6636  0.0607
  578SOL    HW1 1733   1.169   2.782   2.338  1.2835 -1.1246 -1.5177
  578SOL    HW2 1734   1.096   2.877   2.460  0.1358  3.6213  0.8182
  579SOL     OW 1735   2.007   1.835   1.975  0.4733  0.1227 -0.2970
  579SOL    HW1 1736   1.942   1.906   1.942  0.6136 -0.5242 -0.4236
  579SOL    HW2 1737   2.039   1.767   1.905 -1.3906  0.1527 -2.7896
  580SOL     OW 1738   1.665   0.606   2.135  0.2777  0.4142 -0.5590
  580SOL    HW1 1739   1.591   0.633   2.070  0.3830 -1.8856 -1.2886
  580SOL    HW2 1740   1.727   0.683   2.154  0.8442  2.2876 -0.9117
  581SOL     OW 1741   0.873   1.455   2.347 -0.4053  0.1000 -0.5716
  581SOL    HW1 1742   0.899   1.547   2.376 -1.8055 -1.4721  0.4499
  581SOL    HW2 1743   0.864   1.397   2.430 -0.8744  3.5491  2.3625
  582SOL     OW 1744   0.183   2.711   1.797 -0.6576 -0.2349 -0.0010
  582SOL    HW1 1745   0.239   2.671   1.870 -3.2679 -0.8258 -2.5850
  582SOL    HW2 1746   0.194   2.815   1.789  1.0813  2.3727  1.0047
  583SOL     OW 1747   1.354   1.305   1.369  0.2700  0.1157 -0.0218
  583SOL    HW1 1748   1.386   1.285   1.465  1.5583  0.1622 -0.2577
  583SOL    HW2 1749   1.262   1.349   1.374  1.5897  3.3079  0.5254
  584SOL     OW 1750   1.452   1.873   2.672 -0.2608  0.4263 -0.0669
  584SOL    HW1 1751   1.503   1.806   2.619 -0.2770  2.0672 -0.3657
  584SOL    HW2 1752   1.505   1.956   2.687 -1.0350 -0.1491  0.0115
  585SOL     OW 1753   0.263   2.495   0.156  0.1158  0.1786 -0.1138
  585SOL    HW1 1754   0.263   2.435   0.073  2.0488 -0.2547  0.7643
  585SOL    HW2 1755   0.221   2.443   0.238  2.1034 -1.3384  0.3581
  586SOL     OW 1756   1.946   2.035   0.662 -0.3806  0.2562 -0.2174
  586SOL    HW1 1757   1.901   1.946   0.641 -2.5299  0.0821 -1.7961
  586SOL    HW2 1758   1.987   2.035   0.756 -0.1820  1.2946 -1.2736
  587SOL     OW 1759   2.743   2.025   0.572  0.2577 -0.6282 -0.0685
  587SOL    HW1 1760   2.836   1.985   0.584  1.5770  2.0054 -1.4305
  587SOL    HW2 1761   2.701   2.002   0.483  1.4257  1.4429  1.6733
  588SOL     OW 1762   2.347   0.153   1.130 -0.8125 -0.2978  0.9778
  588SOL    HW1 1763   2.389   0.149   1.223 -0.8720  0.2010  0.6786
  588SOL    HW2 1764   2.256   0.199   1.135 -0.2305  2.9792  0.5211
  589SOL     OW 1765   0.450   0.539   0.900  0.0990 -0.3431 -0.2881
  589SOL    HW1 1766   0.505   0.464   0.946 -0.4035 -0.4903  2.3052
  589SOL    HW2 1767   0.512   0.618   0.886  0.1704  2.3822  0.5900
  590SOL     OW 1768   2.686   2.465   0.131  0.2719  0.0075  0.1823
  590SOL    HW1 1769   2.621   2.416   0.074 -0.2593  0.2333 -0.6440
  590SOL    HW2 1770   2.740   2.403   0.193 -0.7475 -0.9388  0.5505
  591SOL     OW 1771   0.607   2.280   1.840 -0.2341 -0.0944  0.2007
  591SOL    HW1 1772   0.669   2.201   1.848 -1.4762  2.5036  0.4871
  591SOL    HW2 1773   0.598   2.306   1.740  1.0499 -1.2421 -2.1316
  592SOL     OW 1774   0.648   1.463   1.550  0.4886  0.1886  1.0049
  592SOL    HW1 1775   0.740   1.432   1.527 -1.7865 -1.6372  0.3024
  592SOL    HW2 1776   0.579   1.387   1.538 -2.0021 -0.1465 -0.1170
  593SOL     OW 1777   1.052   2.071   1.121 -0.7863 -0.5226  0.0997
  593SOL    HW1 1778   1.118   2.050   1.197  0.0433 -1.1390  0.0750
  593SOL    HW2 1779   0.962   2.033   1.143  3.4461  2.3273  1.8628
  594SOL     OW 1780   0.867   1.380   2.936  0.6535  0.6078 -0.1933
  594SOL    HW1 1781   0.877   1.282   2.928  3.2509  0.9490  1.5547
  594SOL    HW2 1782   0.915   1.437   2.865 -1.5471 -1.5201 -0.6602
  595SOL     OW 1783   1.257   0.541   1.133  0.2931 -0.1662  0.3089
  595SOL    HW1 1784   1.277   0.443   1.119 -1.4724 -1.6008 -0.9479
  595SOL    HW2 1785   1.209   0.561   1.221  0.6539  0.2859  0.0992
  596SOL     OW 1786   0.287   1.446   0.841 -0.1765 -0.4219  0.1499
  596SOL    HW1 1787   0.359   1.443   0.911  1.0585  0.9743  1.3870
  596SOL    HW2 1788   0.269   1.350   0.811 -2.5898 -1.2166  0.2247
  597SOL     OW 1789   0.138   2.022   2.866  0.2309  0.1118  0.9516
  597SOL    HW1 1790   0.034   2.017   2.868 -0.1370  1.1127 -2.3240
  597SOL    HW2 1791   0.178   2.043   2.954 -1.4083 -0.8928 -2.8831
  598SOL     OW 1792   2.064   2.065   2.357 -0.0685 -0.3499  0.6656
  598SOL    HW1 1793   1.991   2.125   2.318  1.9838 -0.1857 -1.6364
  598SOL    HW2 1794   2.063   1.967   2.326 -0.8325  0.1407  0.9538
  599SOL     OW 1795   1.479   0.419   0.814 -0.2743  0.2633  0.1707
  599SOL    HW1 1796   1.497   0.509   0.765 -1.3405  2.3715 -0.8814
  599SOL    HW2 1797   1.386   0.412   0.846  0.4995  2.2845 -1.4095
  600SOL     OW 1798   0.937   2.836   0.328 -0.0211 -0.5717 -0.1977
  600SOL    HW1 1799   0.900   2.841   0.424 -0.6011  0.6327  0.3708
  600SOL    HW2 1800   1.028   2.788   0.333  2.9288 -0.3561 -1.1351
  601SOL     OW 1801   0.616   0.209   1.234 -0.3750  0.0262  0.0528
  601SOL    HW1 1802   0.690   0.140   1.247  0.4277 -1.1982 -0.8103
  601SOL    HW2 1803   0.602   0.260   1.316  0.7664  1.3472  0.3902
  602SOL     OW 1804   3.072   2.991   0.557  0.3591 -0.4206  0.6725
  602SOL    HW1 1805   3.053   2.916   0.617  0.4543  0.4482 -0.3919
  602SOL    HW2 1806   3.091   3.077   0.609  1.4650 -0.3442 -2.1596
  603SOL     OW 1807   0.916   2.723   2.534  0.1310 -0.0071  0.1206
  603SOL    HW1 1808   0.911   2.798   2.466  3.5275 -1.3955 -1.2899
  603SOL    HW2 1809   0.832   2.665   2.538  0.6655  0.2165  0.5197
  604SOL     OW 1810   1.066   2.595   2.906  0.4186  0.0959 -0.1059
  604SOL    HW1 1811   1.056   2.499   2.949 -0.7269 -1.4385  3.1275
  604SOL    HW2 1812   1.094   2.582   2.808 -0.0764  1.0202 -3.5168
  605SOL     OW 1813   0.738   0.741   1.871 -0.4290 -0.5015  0.2311
  605SOL    HW1 1814   0.814   0.671   1.865  0.3378 -1.0731  0.9414
  605SOL    HW2 1815   0.746   0.813   1.948 -1.5169  3.4235  0.8488
  606SOL     OW 1816   1.495   0.549   2.575 -0.1485 -0.3793  0.1276
  606SOL    HW1 1817   1.399   0.575   2.543 -2.4286 -0.5213 -2.4792
  606SOL    HW2 1818   1.495   0.464   2.629 -0.0881 -0.0797 -1.0122
  607SOL     OW 1819   0.098   1.160   1.278  0.5199 -0.4497  0.5004
  607SOL    HW1 1820   0.185   1.191   1.314 -1.2322 -0.4619 -2.7760
  607SOL    HW2 1821   0.030   1.236   1.271 -0.5116 -3.0989 -0.4543
  608SOL     OW 1822   3.024   2.395   2.312 -0.1742  0.5102 -0.1009
  608SOL    HW1 1823   2.972   2.484   2.317 -0.5025  0.1255  1.0518
  608SOL    HW2 1824   3.112   2.394   2.366 -0.2434  1.0940  3.2701
  609SOL     OW 1825   1.745   0.367   0.074  0.3656 -0.0480 -0.3658
  609SOL    HW1 1826   1.815   0.324   0.016 -1.1849 -1.0369  0.1917
  609SOL    HW2 1827   1.688   0.441   0.028  0.0837  0.5559 -0.4612
  610SOL     OW 1828   0.895   2.786   1.102  0.1529  0.5380  0.1968
  610SOL    HW1 1829   0.836   2.847   1.047 -1.8004  0.4586 -2.3109
  610SOL    HW2 1830   0.977   2.827   1.142  1.5292 -0.4220 -1.1434
  611SOL     OW 1831   0.885   0.942   0.325  0.3388  0.2721 -0.3147
  611SOL    HW1 1832   0.785   0.933   0.353 -0.5358  0.0855 -2.0857
  611SOL    HW2 1833   0.901   1.022   0.265  2.0953  0.0928 -0.5086
  612SOL     OW 1834   1.192   0.715   2.422 -0.4022  0.3329 -0.1171
  612SOL    HW1 1835   1.229   0.621   2.437 -2.9825 -1.5103 -0.4743
  612SOL    HW2 1836   1.189   0.766   2.507 -1.2261 -0.6538 -1.9582
  613SOL     OW 1837   2.221   0.914   0.561  0.3495 -0.7605 -0.0345
  613SOL    HW1 1838   2.159   0.891   0.640 -1.3194 -3.3745  0.4136
  613SOL    HW2 1839   2.156   0.938   0.481 -4.0701 -3.8364 -1.4508
  614SOL     OW 1840   1.809   0.452   1.816  0.0517  0.5177 -0.4112
  614SOL    HW1 1841   1.740   0.417   1.881  0.9080  2.4927 -0.8549
  614SOL    HW2 1842   1.866   0.532   1.848  0.8055  1.6139 -0.7279
  615SOL     OW 1843   0.558   2.156   1.030 -0.0077  0.2066  0.2428
  615SOL    HW1 1844   0.515   2.089   0.968  2.9045 -1.1629 -0.1016
  615SOL    HW2 1845   0.571   2.239   0.975 -1.4360 -2.7171 -0.7481
  616SOL     OW 1846   1.662   1.078   2.389 -0.1816  0.1970  0.4152
  616SOL    HW1 1847   1.657   1.178   2.373  0.4674  1.4388  1.4403
  616SOL    HW2 1848   1.705   1.051   2.478 -0.7927  0.3287  0.1966
  617SOL     OW 1849   1.877   2.718   0.200 -0.1210 -0.0128  0.2395
  617SOL    HW1 1850   1.780   2.752   0.203  0.0416  0.2702 -1.8154
  617SOL    HW2 1851   1.874   2.619   0.193 -0.2757  0.0822  1.2865
  618SOL     OW 1852   0.903   1.071   2.875 -0.6165 -0.0727 -0.0894
  618SOL    HW1 1853   0.807   1.063   2.888  2.2077  0.4214 -3.1812
  618SOL    HW2 1854   0.959   1.034   2.949  2.9878  0.8380 -0.5953
  619SOL     OW 1855   2.595   1.305   0.846 -0.1976 -0.4128  0.1217
  619SOL    HW1 1856   2.613   1.207   0.869 -1.8730 -3.1069 -0.1303
  619SOL    HW2 1857   2.521   1.321   0.776 -1.5636  0.9009 -0.8560
  620SOL     OW 1858   2.461   2.860   2.993  0.5004  0.4161  0.3250
  620SOL    HW1 1859   2.439   2.820   2.899 -1.1075  1.7735  0.0979
  620SOL    HW2 1860   2.518   2.799   3.056  0.4117 -1.0223  3.8598
  621SOL     OW 1861   2.083   1.012   0.323 -0.4264  0.4809  0.2251
  621SOL    HW1 1862   2.100   1.053   0.231  0.5369 -2.8933 -0.2548
  621SOL    HW2 1863   2.076   1.087   0.392 -1.3958 -3.2498 -0.1914
  622SOL     OW 1864   1.071   2.329   2.604 -0.2538 -0.4745  0.3462
  622SOL    HW1 1865   1.106   2.426   2.597  0.0737 -1.8392  0.8719
  622SOL    HW2 1866   1.109   2.285   2.687 -0.6435 -1.0626 -0.8764
  623SOL     OW 1867   0.498   1.726   3.120  0.0849  0.1572 -0.2220
  623SOL    HW1 1868   0.424   1.692   3.065  2.4741  2.6639  0.7857
  623SOL    HW2 1869   0.485   1.825   0.019  0.1249 -1.6740 -2.0307
  624SOL     OW 1870   0.456   0.099   2.841 -0.2318 -0.6331 -0.7646
  624SOL    HW1 1871   0.532   0.063   2.903  1.8720 -0.0577 -1.3520
  624SOL    HW2 1872   0.363   0.063   2.866 -2.1859 -0.2490 -2.3075
  625SOL     OW 1873   0.821   1.817   0.122 -0.0602  0.1500  0.1374
  625SOL    HW1 1874   0.795   1.880   0.045 -0.3000  2.1161  3.2351
  625SOL    HW2 1875   0.735   1.798   0.175  1.0689 -1.2776  1.8158
  626SOL     OW 1876   2.543   0.191   0.170 -0.2400  0.1299  0.2798
  626SOL    HW1 1877   2.547   0.113   0.100  1.5786 -1.5989 -1.4439
  626SOL    HW2 1878   2.590   0.275   0.130  1.7078  1.0702 -2.3218
  627SOL     OW 1879   1.404   1.190   2.930 -0.0013 -0.0152 -0.1846
  627SOL    HW1 1880   1.462   1.235   3.003  0.3877  0.5317  1.5677
  627SOL    HW2 1881   1.453   1.186   2.842  0.0258 -3.4190 -1.7367
  628SOL     OW 1882   1.206   0.815   2.692 -0.0259 -0.2689  0.1043
  628SOL    HW1 1883   1.172   0.749   2.764  0.6753  0.8493 -0.4654
  628SOL    HW2 1884   1.298   0.850   2.716 -0.8703  0.1393  0.6095
  629SOL     OW 1885   0.274   0.066   1.812  0.8944 -0.5015 -0.1991
  629SOL    HW1 1886   0.364   0.054   1.852 -4.4542  0.5039 -0.4744
  629SOL    HW2 1887   0.265   0.152   1.760  2.5841 -2.6640  1.7156
  630SOL     OW 1888   2.589   1.062   1.939  0.1678  0.1008 -0.2372
  630SOL    HW1 1889   2.626   1.073   2.033  0.5990  0.4016  2.2900
  630SOL    HW2 1890   2.649   1.006   1.880 -2.3019 -2.1194  0.9748
  631SOL     OW 1891   2.087   1.051   0.869  0.1443 -0.3188  0.0114
  631SOL    HW1 1892   2.154   1.127   0.872 -2.7109 -1.9706 -0.5689
  631SOL    HW2 1893   2.131   0.967   0.897 -0.2170  6.4618 -2.4120
  632SOL     OW 1894   2.695   0.603   1.640 -0.3116 -0.1161  0.4459
  632SOL    HW1 1895   2.717   0.532   1.709  0.6100  0.6403  0.6651
  632SOL    HW2 1896   2.734   0.581   1.549  3.2680 -0.7970 -0.5975
  633SOL     OW 1897   0.893   2.792   2.974 -0.1106 -0.3239  0.1028
  633SOL    HW1 1898   0.940   2.705   2.963 -1.8181  1.3736 -1.5638
  633SOL    HW2 1899   0.845   2.798   3.069 -1.2816 -1.7770  3.7495
  634SOL     OW 1900   1.499   2.776   3.097  0.2493  0.0439  0.2235
  634SOL    HW1 1901   1.539   2.740   0.061 -0.8829 -0.6589 -0.5157
  634SOL    HW2 1902   1.530   2.868   3.063 -1.2689  0.3990 -0.3845
  635SOL     OW 1903   2.879   0.384   0.227 -0.6804  0.0933 -0.6058
  635SOL    HW1 1904   2.947   0.408   0.155 -0.5548  0.3805  0.1740
  635SOL    HW2 1905   2.791   0.385   0.179  0.5709 -3.3375 -1.3992
  636SOL     OW 1906   0.268   1.350   0.445 -0.4281  0.0227 -0.6970
  636SOL    HW1 1907   0.354   1.328   0.391  1.7946  4.5007 -3.0784
  636SOL    HW2 1908   0.267   1.306   0.538  2.9156  1.4432  2.5858
  637SOL     OW 1909   0.346   2.727   0.269 -0.0987  0.0507 -0.1083
  637SOL    HW1 1910   0.307   2.642   0.228  0.7179  0.9598  0.1185
  637SOL    HW2 1911   0.270   2.782   0.308 -1.3211  1.2718 -1.0894
  638SOL     OW 1912   2.952   2.571   0.330  0.2614  0.2127  0.2267
  638SOL    HW1 1913   2.986   2.639   0.265  0.1444 -1.7782 -1.7205
  638SOL    HW2 1914   3.007   2.578   0.419  0.5304  2.4071  0.5742
  639SOL     OW 1915   1.195   1.233   0.196  0.5185 -0.2849  0.1538
  639SOL    HW1 1916   1.263   1.159   0.218  0.2390  1.3478 -1.5963
  639SOL    HW2 1917   1.248   1.318   0.173  1.5504  0.7231  0.7708
  640SOL     OW 1918   1.560   2.349   1.103  0.4296  0.2338 -0.2306
  640SOL    HW1 1919   1.623   2.430   1.121  1.2535 -2.2367  1.3065
  640SOL    HW2 1920   1.536   2.349   1.004  1.4085 -1.4923 -1.7692
  641SOL     OW 1921   2.966   2.493   0.957  0.1764 -0.5539 -0.2744
  641SOL    HW1 1922   2.994   2.435   0.882  2.3849  1.3336  1.5967
  641SOL    HW2 1923   2.872   2.523   0.938  2.1781 -0.9394  0.3814
  642SOL     OW 1924   0.780   3.112   1.882  0.1902 -0.3017 -0.5298
  642SOL    HW1 1925   0.784   0.008   1.786 -0.6875  1.9800  4.0142
  642SOL    HW2 1926   0.684   0.008   1.917 -0.6730 -1.5980 -0.2844
  643SOL     OW 1927   0.797   2.263   2.614  0.0747  0.6588 -0.4650
  643SOL    HW1 1928   0.892   2.300   2.621 -3.0852  0.7922  0.4753
  643SOL    HW2 1929   0.764   2.228   2.707 -0.5717 -0.3452  0.3049
  644SOL     OW 1930   1.132   2.632   0.833  0.3016  0.3003 -0.0131
  644SOL    HW1 1931   1.163   2.543   0.800  0.6134  1.2168  0.7031
  644SOL    HW2 1932   1.037   2.658   0.803 -0.8749 -1.0215  0.9514
  645SOL     OW 1933   1.320   1.395   2.013 -0.2894  0.0008  0.0962
  645SOL    HW1 1934   1.227   1.367   2.032  0.9657 -0.8175  1.5523
  645SOL    HW2 1935   1.384   1.332   2.067 -0.3225  1.1255 -0.1221
  646SOL     OW 1936   0.487   1.165   3.118  0.3476 -0.2865 -0.3100
  646SOL    HW1 1937   0.413   1.126   3.059  0.2948  4.5653  1.0217
  646SOL    HW2 1938   0.518   1.089   0.063 -0.4330 -2.4735  1.5652
  647SOL     OW 1939   1.237   0.231   0.841  0.1326 -0.5098  0.7506
  647SOL    HW1 1940   1.247   0.276   0.752  1.0137 -0.0249 -0.0515
  647SOL    HW2 1941   1.229   0.131   0.831  0.9965  0.1959 -0.6828
  648SOL     OW 1942   2.671   2.823   1.621  0.3683  0.1422  0.5249
  648SOL    HW1 1943   2.629   2.857   1.708 -0.3228  2.7148 -1.2109
  648SOL    HW2 1944   2.611   2.771   1.566  2.0231 -0.9774  2.7861
  649SOL     OW 1945   0.724   2.037   3.079 -0.8103 -0.1798 -0.0284
  649SOL    HW1 1946   0.804   2.096   3.107  2.9426 -0.6625  0.3987
  649SOL    HW2 1947   0.639   2.071   0.001 -0.2389  1.5593  2.0568
  650SOL     OW 1948   2.971   2.212   1.566 -0.9590  0.0733  0.2976
  650SOL    HW1 1949   2.979   2.309   1.536  1.6653 -0.0923  1.3738
  650SOL    HW2 1950   2.877   2.178   1.562  1.7022  1.0537 -0.5379
  651SOL     OW 1951   0.216   3.110   2.864  0.9294 -0.2726  0.0703
  651SOL    HW1 1952   0.186   3.020   2.819 -1.1839 -2.2084 -0.9975
  651SOL    HW2 1953   0.132   0.037   2.904  2.6269  1.8769 -0.4264
  652SOL     OW 1954   2.220   1.796   0.089 -0.2315 -0.3892 -1.0488
  652SOL    HW1 1955   2.186   1.857   0.014  1.1017 -2.0468 -1.9490
  652SOL    HW2 1956   2.209   1.834   0.183  1.9084  2.3550 -2.3125
  653SOL     OW 1957   0.173   0.055   0.692  0.3987 -0.1337 -0.1596
  653SOL    HW1 1958   0.254   0.098   0.738 -0.6272 -0.1927 -0.1166
  653SOL    HW2 1959   0.171   0.085   0.592  2.4928 -0.6983 -2.5592
  654SOL     OW 1960   1.249   2.988   0.054 -0.0684  0.4019  0.0477
  654SOL    HW1 1961   1.291   2.945   0.138  0.3184 -1.0889  1.1049
  654SOL    HW2 1962   1.298   3.072   0.026 -0.4439  0.3020 -1.8297
  655SOL     OW 1963   0.835   2.778   1.370  0.1598  0.8925 -0.2234
  655SOL    HW1 1964   0.859   2.766   1.269  0.8790 -0.4530 -0.4598
  655SOL    HW2 1965   0.842   2.680   1.413  0.5221 -0.3038  0.1285
  656SOL     OW 1966   0.438   0.169   2.158  0.0355  0.0005  0.2446
  656SOL    HW1 1967   0.488   0.207   2.244  1.3427 -1.6666 -0.2085
  656SOL    HW2 1968   0.367   0.232   2.118 -1.1413  1.7325  2.4118
  657SOL     OW 1969   1.935   0.579   2.453 -0.8117 -0.3706  0.4146
  657SOL    HW1 1970   1.886   0.518   2.385 -0.8148  1.3245  0.4759
  657SOL    HW2 1971   2.001   0.635   2.395 -0.4591  3.0510  0.1084
  658SOL     OW 1972   2.053   1.676   1.257 -0.1743  0.0895 -0.0565
  658SOL    HW1 1973   1.979   1.606   1.273  1.4173 -0.4253  0.2247
  658SOL    HW2 1974   2.140   1.638   1.285 -1.7385 -0.4442  1.2014
  659SOL     OW 1975   2.899   2.639   3.008 -0.1252  0.4103  0.1470
  659SOL    HW1 1976   2.932   2.737   3.008 -0.6437 -0.2992 -3.2210
  659SOL    HW2 1977   2.800   2.633   3.030  0.3339  2.3062  0.7559
  660SOL     OW 1978   1.250   0.664   0.128 -0.7284  0.0199  0.2152
  660SOL    HW1 1979   1.242   0.587   0.064 -2.6732 -0.9297  1.0001
  660SOL    HW2 1980   1.164   0.685   0.177  3.4083  2.5476 -0.9945
  661SOL     OW 1981   2.413   2.892   0.847 -0.2949  0.5144 -0.1592
  661SOL    HW1 1982   2.362   2.883   0.757 -1.4240  2.6738 -1.0115
  661SOL    HW2 1983   2.493   2.827   0.853  0.2243 -1.3424 -0.3458
  662SOL     OW 1984   0.495   0.381   0.617  0.2292 -0.7445 -0.3768
  662SOL    HW1 1985   0.402   0.423   0.619 -2.5406 -0.0784  0.3621
  662SOL    HW2 1986   0.523   0.359   0.523 -0.3066 -0.9632  1.2599
  663SOL     OW 1987   1.483   2.307   2.340 -0.2675 -0.3186  0.4731
  663SOL    HW1 1988   1.562   2.251   2.311  0.7854  3.4046  1.0938
  663SOL    HW2 1989   1.470   2.394   2.289 -0.3845  1.8531 -1.7484
  664SOL     OW 1990   0.610   2.380   1.349 -0.5410  0.8935 -0.0242
  664SOL    HW1 1991   0.699   2.339   1.325 -0.5389  0.7592  3.7774
  664SOL    HW2 1992   0.538   2.307   1.349 -0.6277 -1.8841  3.0073
  665SOL     OW 1993   1.523   1.936   1.418 -0.0375  0.5418 -0.0791
  665SOL    HW1 1994   1.582   1.889   1.487 -1.3367 -1.1904  0.9656
  665SOL    HW2 1995   1.456   1.867   1.372 -2.4525 -1.8662 -0.1137
  666SOL     OW 1996   0.520   2.860   2.961 -0.3567 -0.5914 -0.1894
  666SOL    HW1 1997   0.540   2.953   2.924  2.6220 -0.7439  0.9563
  666SOL    HW2 1998   0.568   2.800   2.895 -1.1586  1.5079 -1.3728
  667SOL     OW 1999   1.518   1.519   1.344  0.2929 -0.4929 -0.1377
  667SOL    HW1 2000   1.468   1.427   1.351  2.3320  0.5942 -0.1082
  667SOL    HW2 2001   1.549   1.549   1.438 -0.7485  3.5527 -0.2181
  668SOL     OW 2002   1.153   0.389   2.233  0.2840 -0.1975 -0.0319
  668SOL    HW1 2003   1.063   0.372   2.195  2.4249  0.8852  1.8785
  668SOL    HW2 2004   1.231   0.378   2.164  1.5011 -2.0640 -1.0906
  669SOL     OW 2005   2.205   2.385   2.008 -0.0786 -0.2629  0.2991
  669SOL    HW1 2006   2.304   2.358   2.018 -1.5447 -2.1227  0.5762
  669SOL    HW2 2007   2.166   2.305   1.952  0.6546 -4.6626 -1.4726
  670SOL     OW 2008   2.196   1.919   0.353 -0.0515  0.1010 -0.4142
  670SOL    HW1 2009   2.247   1.948   0.438 -0.9257  2.9538  0.2325
  670SOL    HW2 2010   2.096   1.936   0.365  1.9838 -2.0402 -0.8224
  671SOL     OW 2011   1.384   1.030   1.144  0.4126 -0.0278  0.3862
  671SOL    HW1 2012   1.351   0.962   1.078  2.5230  0.4250 -0.6110
  671SOL    HW2 2013   1.398   1.122   1.099  0.5408  0.9474 -0.7578
  672SOL     OW 2014   2.503   1.742   2.197  0.1436  0.3791  0.2912
  672SOL    HW1 2015   2.593   1.747   2.145  1.1088  0.6109  0.3903
  672SOL    HW2 2016   2.503   1.651   2.249  1.8874 -1.0411  0.2915
  673SOL     OW 2017   2.773   1.754   2.102 -0.4598 -0.5478  0.0984
  673SOL    HW1 2018   2.797   1.847   2.056 -2.1380 -1.1948 -0.3048
  673SOL    HW2 2019   2.800   1.766   2.199 -1.0838 -1.1183 -2.8839
  674SOL     OW 2020   1.152   2.645   2.250  0.4235  0.4781  0.2339
  674SOL    HW1 2021   1.195   2.551   2.252 -0.3480 -1.7750 -0.6835
  674SOL    HW2 2022   1.068   2.645   2.197 -0.4294 -1.6453 -2.5503
  675SOL     OW 2023   0.555   0.958   1.368 -0.2146 -0.1218 -0.3234
  675SOL    HW1 2024   0.513   0.920   1.285  1.1243 -0.3551 -1.4748
  675SOL    HW2 2025   0.632   0.896   1.397  0.0188 -0.5374 -1.1989
  676SOL     OW 2026   2.033   0.475   0.811  0.0324  0.1220 -0.4312
  676SOL    HW1 2027   1.963   0.406   0.841 -0.0109  1.1523  1.7289
  676SOL    HW2 2028   2.083   0.514   0.892 -0.8681 -1.3543  0.5671
  677SOL     OW 2029   2.423   1.647   2.862  0.5417 -0.4399 -0.0329
  677SOL    HW1 2030   2.464   1.620   2.773 -0.3215  0.6430  4.2272
  677SOL    HW2 2031   2.326   1.630   2.867  0.7758 -1.1063 -0.9337
  678SOL     OW 2032   0.125   3.027   0.924  0.0814 -0.3831  0.2426
  678SOL    HW1 2033   0.175   2.942   0.940  2.0719 -0.3688  2.8651
  678SOL    HW2 2034   0.138   3.069   0.832 -2.2129  0.4179  0.0238
  679SOL     OW 2035   2.332   0.154   0.331 -0.7084  0.4136  0.8328
  679SOL    HW1 2036   2.418   0.168   0.276  1.5341  0.9939 -1.0891
  679SOL    HW2 2037   2.347   0.186   0.429  0.5298 -1.5041  0.5960
  680SOL     OW 2038   0.230   2.354   2.063 -0.3280 -0.4958 -0.2385
  680SOL    HW1 2039   0.301   2.305   2.012  1.4185  1.4032 -1.1028
  680SOL    HW2 2040   0.139   2.345   2.023  0.1285 -2.3994  4.2657
  681SOL     OW 2041   2.641   1.705   1.343 -0.3104  0.5191 -0.5864
  681SOL    HW1 2042   2.696   1.776   1.295  2.2328  2.9022 -1.8595
  681SOL    HW2 2043   2.547   1.742   1.370 -1.5944 -1.2402 -1.8866
  682SOL     OW 2044   3.045   2.359   2.001 -0.1493 -0.2073  0.2547
  682SOL    HW1 2045   2.989   2.412   1.935  1.2562 -0.0369 -1.6979
  682SOL    HW2 2046   3.053   2.408   2.091  3.1554 -1.3704 -1.2410
  683SOL     OW 2047   3.057   2.126   1.821  0.0821 -0.3994  0.3520
  683SOL    HW1 2048   3.069   2.191   1.900  0.6946 -0.4949 -2.6609
  683SOL    HW2 2049   2.999   2.163   1.748  2.7247  0.0134  0.4575
  684SOL     OW 2050   2.199   1.513   2.427 -0.5729  0.2744 -0.1458
  684SOL    HW1 2051   2.110   1.543   2.466 -0.2979  2.2445 -0.6272
  684SOL    HW2 2052   2.190   1.439   2.354  0.0339  0.0959 -0.2482
  685SOL     OW 2053   1.459   0.860   0.419 -0.0721  0.2797  0.1715
  685SOL    HW1 2054   1.378   0.808   0.463 -1.4319 -2.6969  1.2681
  685SOL    HW2 2055   1.541   0.847   0.479 -1.8428  0.1466  1.4259
  686SOL     OW 2056   0.481   3.044   0.724  0.0006 -0.5719  0.3895
  686SOL    HW1 2057   0.457   0.020   0.749 -0.0156  0.4700  1.4640
  686SOL    HW2 2058   0.584   3.026   0.725  2.9568  0.3348  1.1841
  687SOL     OW 2059   1.464   1.244   2.185  0.2161 -0.2835 -0.3146
  687SOL    HW1 2060   1.488   1.304   2.265 -1.8174 -0.5687  2.7538
  687SOL    HW2 2061   1.417   1.158   2.215  0.5838 -1.7008 -2.7916
  688SOL     OW 2062   1.349   1.735   1.334  0.0935  0.3339 -0.0962
  688SOL    HW1 2063   1.273   1.711   1.267  1.1608  0.7194  0.2780
  688SOL    HW2 2064   1.431   1.680   1.322 -2.1279 -1.1852 -1.9404
  689SOL     OW 2065   2.008   0.136   1.319  0.2296  0.2164 -0.1691
  689SOL    HW1 2066   2.075   0.144   1.246  1.2014 -0.9490  3.9953
  689SOL    HW2 2067   2.005   0.221   1.373  1.2789 -0.5156 -2.6547
  690SOL     OW 2068   3.050   1.367   1.258  0.2878 -0.3948 -0.6617
  690SOL    HW1 2069   3.015   1.355   1.356 -1.5356  0.5096  2.1523
  690SOL    HW2 2070   2.977   1.356   1.192 -0.7370 -2.9069 -0.5534
  691SOL     OW 2071   0.347   2.526   0.940 -0.2170  0.0439 -0.3151
  691SOL    HW1 2072   0.434   2.480   0.918 -1.4376 -1.5978  0.5332
  691SOL    HW2 2073   0.294   2.545   0.855  0.9262  0.6326  1.3315
  692SOL     OW 2074   2.318   0.445   1.745 -0.3384  0.2748 -0.0984
  692SOL    HW1 2075   2.359   0.534   1.712 -0.6457 -1.4274  0.7977
  692SOL    HW2 2076   2.310   0.450   1.847 -0.9393 -2.3778  1.6228
  693SOL     OW 2077   0.267   1.916   2.017  0.2557  0.2496  0.1637
  693SOL    HW1 2078   0.260   1.815   2.042 -2.6574  1.9454  0.7691
  693SOL    HW2 2079   0.213   1.969   2.084  2.3172 -0.7656 -1.4458
  694SOL     OW 2080   1.471   1.461   1.813 -0.0609  0.1656  0.1192
  694SOL    HW1 2081   1.546   1.524   1.841 -0.0372 -1.3138 -0.2034
  694SOL    HW2 2082   1.413   1.433   1.893  1.1696  0.2530 -0.1628
  695SOL     OW 2083   0.467   0.847   1.109  0.5835 -0.8543 -0.1424
  695SOL    HW1 2084   0.389   0.916   1.096 -0.1355  1.7888  0.1643
  695SOL    HW2 2085   0.512   0.816   1.025 -1.5223 -1.7058  2.5548
  696SOL     OW 2086   1.604   3.056   0.565  0.0920 -0.4210  0.0536
  696SOL    HW1 2087   1.577   0.032   0.575  0.5306  0.7347 -1.3620
  696SOL    HW2 2088   1.707   3.048   0.545 -0.3234  0.1181  1.1615
  697SOL     OW 2089   1.272   0.325   1.630 -0.0042  0.2388  0.4594
  697SOL    HW1 2090   1.223   0.339   1.715  1.3945 -2.1489 -0.9697
  697SOL    HW2 2091   1.215   0.258   1.577 -2.8486 -1.8010 -1.2218
  698SOL     OW 2092   1.880   1.433   2.005  0.3042  0.2132 -0.8149
  698SOL    HW1 2093   1.802   1.369   1.995  3.1251  1.3214 -0.5763
  698SOL    HW2 2094   1.867   1.490   2.089 -1.1751  0.2602  2.1310
  699SOL     OW 2095   2.219   0.531   1.477  0.2454 -0.0315 -0.0376
  699SOL    HW1 2096   2.318   0.523   1.447  1.4748 -1.3390 -2.6218
  699SOL    HW2 2097   2.203   0.502   1.574  0.8838  0.0197  0.4526
  700SOL     OW 2098   0.930   2.243   0.059  0.2818 -0.6316  0.0626
  700SOL    HW1 2099   0.893   2.322   0.111 -0.6321  0.5135  3.1443
  700SOL    HW2 2100   1.010   2.202   0.103 -0.4226  2.2908  2.7989
  701SOL     OW 2101   2.210   2.542   2.707  0.7230 -0.0978 -0.0239
  701SOL    HW1 2102   2.131   2.572   2.651 -0.3524 -0.8360  0.8910
  701SOL    HW2 2103   2.178   2.511   2.800  0.9351 -1.6875 -1.0580
  702SOL     OW 2104   0.933   3.112   1.138 -0.1321  0.1490  0.4920
  702SOL    HW1 2105   0.945   0.088   1.110 -2.0485  1.0408  1.0427
  702SOL    HW2 2106   1.018   3.054   1.122  1.5460  0.4549  0.1249
  703SOL     OW 2107   2.244   0.245   2.293 -0.0232  0.0430 -0.3964
  703SOL    HW1 2108   2.297   0.287   2.376  2.2044 -1.4082  0.3303
  703SOL    HW2 2109   2.314   0.191   2.237 -0.7253 -0.6958 -2.3357
  704SOL     OW 2110   2.828   2.299   0.362 -0.6562  0.0586 -0.0405
  704SOL    HW1 2111   2.860   2.397   0.353  0.5300  0.9492 -0.0576
  704SOL    HW2 2112   2.840   2.264   0.457  0.7347 -0.1153  0.9365
  705SOL     OW 2113   2.481   0.140   2.168 -0.4932  0.1200  0.4251
  705SOL    HW1 2114   2.435   0.118   2.079  0.9128 -0.9130 -2.6642
  705SOL    HW2 2115   2.491   0.054   2.223 -1.4252  0.6365  1.2576
  706SOL     OW 2116   2.240   2.952   1.335  0.2880  0.0049 -0.5473
  706SOL    HW1 2117   2.305   2.923   1.264 -0.9418 -1.0287 -2.0249
  706SOL    HW2 2118   2.158   3.002   1.293 -3.9080 -0.6196 -1.4337
  707SOL     OW 2119   0.865   2.954   2.382  0.4780  0.1820 -0.6770
  707SOL    HW1 2120   0.832   2.926   2.291  0.1250  1.9022  0.8773
  707SOL    HW2 2121   0.917   3.046   2.375  3.4604  1.3698  0.1566
  708SOL     OW 2122   2.950   2.448   1.771 -0.2670 -0.1866  0.5119
  708SOL    HW1 2123   2.912   2.524   1.713 -1.4860  1.8156  0.5006
  708SOL    HW2 2124   3.056   2.444   1.771  2.1026 -0.2532  0.9252
  709SOL     OW 2125   1.759   0.410   1.569  0.5498 -0.1828 -0.4208
  709SOL    HW1 2126   1.846   0.384   1.525 -1.6079 -0.4354 -1.3270
  709SOL    HW2 2127   1.777   0.429   1.666  0.6904 -4.6099  0.8060
  710SOL     OW 2128   1.255   0.152   2.645  0.3217  0.9274 -0.1247
  710SOL    HW1 2129   1.200   0.180   2.726 -0.1083  1.6030  1.2276
  710SOL    HW2 2130   1.220   0.062   2.610 -1.2359  0.8213 -3.1517
  711SOL     OW 2131   0.884   1.808   2.729  0.1035 -0.0447 -0.3523
  711SOL    HW1 2132   0.969   1.803   2.787  0.8462  1.5031 -1.5433
  711SOL    HW2 2133   0.797   1.805   2.779 -1.7804  2.6800 -1.1265
  712SOL     OW 2134   1.107   1.862   2.951 -0.1182 -0.7016 -0.5108
  712SOL    HW1 2135   1.107   1.829   3.046 -1.0814  0.1678 -1.6254
  712SOL    HW2 2136   1.195   1.903   2.928 -1.4790  0.6058 -0.7082
  713SOL     OW 2137   2.119   1.212   2.570 -0.5986 -0.5310 -0.6274
  713SOL    HW1 2138   2.043   1.213   2.637 -0.2948 -0.6522 -0.5720
  713SOL    HW2 2139   2.197   1.263   2.611 -1.8694 -0.1174 -0.3077
  714SOL     OW 2140   0.940   1.541   1.817 -0.3662  0.3347  0.7363
  714SOL    HW1 2141   0.973   1.589   1.904  0.9404 -1.2242  2.3328
  714SOL    HW2 2142   0.910   1.611   1.747  0.3861  3.5236 -1.6909
  715SOL     OW 2143   1.927   0.260   3.013 -0.2026 -0.0750  0.3455
  715SOL    HW1 2144   2.029   0.265   3.017 -1.6849 -0.2039  0.5547
  715SOL    HW2 2145   1.895   0.261   2.916  2.0852  0.7273 -0.9086
  716SOL     OW 2146   2.955   2.460   1.451 -0.3858 -0.2114  0.7336
  716SOL    HW1 2147   2.933   2.558   1.467  2.1108  0.7914 -2.5235
  716SOL    HW2 2148   2.991   2.439   1.356 -1.7721 -0.2560  2.4652
  717SOL     OW 2149   2.630   1.028   0.886 -0.1511 -0.3776 -0.4391
  717SOL    HW1 2150   2.562   1.008   0.958  1.2896 -1.9188  0.7057
  717SOL    HW2 2151   2.587   1.003   0.799  2.4890 -2.4367  0.4682
  718SOL     OW 2152   1.234   1.773   1.657  0.3982 -0.2751 -0.3126
  718SOL    HW1 2153   1.219   1.722   1.570  1.7975 -0.4807  0.2521
  718SOL    HW2 2154   1.184   1.735   1.735  1.8109  3.3720 -0.9327
  719SOL     OW 2155   2.566   0.260   2.916 -0.4504 -0.0159  0.5312
  719SOL    HW1 2156   2.597   0.354   2.924  2.5665  0.4480 -2.3267
  719SOL    HW2 2157   2.632   0.196   2.963 -0.7753 -1.7749  2.3234
  720SOL     OW 2158   1.063   0.250   1.082 -0.1756 -0.1073 -0.3037
  720SOL    HW1 2159   1.163   0.261   1.082 -0.9786 -0.1927 -1.8026
  720SOL    HW2 2160   1.019   0.308   1.005 -0.7308 -0.0600 -2.5540
  721SOL     OW 2161   2.682   0.846   0.504  0.1055  0.0249  0.2835
  721SOL    HW1 2162   2.698   0.808   0.414 -3.0415 -0.1896  0.2272
  721SOL    HW2 2163   2.748   0.922   0.523  0.7692 -1.7500 -0.5829
  722SOL     OW 2164   0.454   2.801   2.429 -0.0817  0.0764 -0.4019
  722SOL    HW1 2165   0.478   2.705   2.396 -0.4397 -1.3412 -0.9724
  722SOL    HW2 2166   0.505   2.876   2.378  1.2157  1.3208  0.3685
  723SOL     OW 2167   1.581   0.197   0.620 -0.6263 -0.1351 -0.3749
  723SOL    HW1 2168   1.685   0.206   0.619  0.6115  0.3536  0.3425
  723SOL    HW2 2169   1.546   0.242   0.705 -1.7080 -2.3201 -0.9992
  724SOL     OW 2170   0.968   1.593   2.072  0.6966 -0.3904 -0.0333
  724SOL    HW1 2171   0.941   1.590   2.175 -2.6798 -0.6449  1.8914
  724SOL    HW2 2172   0.885   1.620   2.026 -2.5336  0.4441 -0.2346
  725SOL     OW 2173   1.603   0.002   1.428 -0.2579  0.1617  0.8379
  725SOL    HW1 2174   1.572   0.073   1.495 -0.7801  1.0526  1.5004
  725SOL    HW2 2175   1.587   3.028   1.461  0.5455 -0.7568 -0.5758
  726SOL     OW 2176   2.291   2.979   0.258 -0.5071 -0.4382  0.3163
  726SOL    HW1 2177   2.303   3.080   0.273  0.8170  0.6557 -0.5833
  726SOL    HW2 2178   2.352   2.926   0.319  4.3466  1.7589 -2.1882
  727SOL     OW 2179   1.296   1.896   0.729  0.2586  0.6253  0.5661
  727SOL    HW1 2180   1.364   1.973   0.723 -0.0008  1.4098  1.5324
  727SOL    HW2 2181   1.337   1.803   0.717  0.2919 -0.0014  1.2729
  728SOL     OW 2182   2.245   2.711   2.333  0.1698 -0.4690 -0.3273
  728SOL    HW1 2183   2.201   2.679   2.251 -1.2041 -1.2723  2.2639
  728SOL    HW2 2184   2.244   2.812   2.338 -0.4595 -0.0549 -0.1192
  729SOL     OW 2185   2.003   2.338   1.603  0.2535  0.3531  0.0587
  729SOL    HW1 2186   2.068   2.272   1.634 -2.6820  1.0111 -1.6939
  729SOL    HW2 2187   1.912   2.312   1.635  1.0913  3.8869 -1.2779
  730SOL     OW 2188   1.594   0.848   2.897 -0.0288  0.5910 -0.3091
  730SOL    HW1 2189   1.688   0.812   2.876  3.3922 -0.0444 -1.0037
  730SOL    HW2 2190   1.546   0.867   2.805 -1.6339  0.0506 -1.0634
  731SOL     OW 2191   0.772   3.045   1.361 -0.0338  0.1138  0.3772
  731SOL    HW1 2192   0.826   3.068   1.280 -1.5317 -3.6674 -1.0539
  731SOL    HW2 2193   0.777   2.941   1.376 -2.3117 -2.9830  0.6043
  732SOL     OW 2194   1.325   0.273   1.100 -0.6743  0.1693  0.0659
  732SOL    HW1 2195   1.415   0.278   1.147 -2.4496 -0.9590 -2.7364
  732SOL    HW2 2196   1.330   0.242   1.005  1.1117  2.7520 -0.8158
  733SOL     OW 2197   0.839   1.135   1.051 -0.8832 -0.0074  0.5138
  733SOL    HW1 2198   0.897   1.054   1.065 -0.1284 -2.1003 -3.9049
  733SOL    HW2 2199   0.763   1.149   1.121 -0.3385 -1.4412 -1.9904
  734SOL     OW 2200   2.981   2.454   2.802  0.0740 -0.2566 -0.2082
  734SOL    HW1 2201   2.930   2.485   2.715 -0.6234 -1.5195 -1.2930
  734SOL    HW2 2202   2.956   2.513   2.880  1.1871 -0.9173  0.3801
  735SOL     OW 2203   1.199   2.748   1.456  0.1140 -0.5223  0.4338
  735SOL    HW1 2204   1.153   2.813   1.397  1.7723  1.5261 -0.2125
  735SOL    HW2 2205   1.228   2.799   1.542  1.6754 -0.3707  2.9299
  736SOL     OW 2206   1.724   1.987   0.133 -0.2149 -0.0514 -0.5039
  736SOL    HW1 2207   1.628   2.019   0.137  0.2762 -0.9270 -2.8643
  736SOL    HW2 2208   1.787   2.066   0.146 -1.0980 -2.3574  2.2930
  737SOL     OW 2209   3.115   2.147   1.345  0.8629  0.5120 -0.3988
  737SOL    HW1 2210   3.094   2.229   1.292 -0.8311  0.3004 -0.5691
  737SOL    HW2 2211   3.077   2.153   1.435  3.1881  0.3625 -0.8326
  738SOL     OW 2212   1.905   2.492   2.814  0.4237 -0.1476 -0.5123
  738SOL    HW1 2213   1.825   2.486   2.881 -1.6749  2.1023  1.6954
  738SOL    HW2 2214   1.995   2.504   2.858 -1.2099  0.4150 -1.1159
  739SOL     OW 2215   1.445   2.261   2.615  0.3567 -0.3478  0.0054
  739SOL    HW1 2216   1.464   2.250   2.516 -2.6376 -2.5065  1.5326
  739SOL    HW2 2217   1.492   2.188   2.667  0.1808  1.1529 -1.7668
  740SOL     OW 2218   1.228   2.703   1.073  0.0459  0.6879 -0.3140
  740SOL    HW1 2219   1.303   2.773   1.062  0.9232  2.9718 -0.1668
  740SOL    HW2 2220   1.196   2.674   0.984  1.2520  2.8347  3.7153
  741SOL     OW 2221   3.004   1.200   0.363  0.6726 -0.2207 -0.2859
  741SOL    HW1 2222   2.914   1.229   0.402  3.1584 -1.1356 -2.3415
  741SOL    HW2 2223   3.066   1.276   0.339  2.4559 -0.9983  0.7499
  742SOL     OW 2224   1.002   1.684   2.351  0.8882  0.0043 -0.2372
  742SOL    HW1 2225   1.099   1.681   2.385  0.7641 -0.5558  1.7513
  742SOL    HW2 2226   0.954   1.757   2.405 -2.3461 -0.7868  1.7287
  743SOL     OW 2227   1.062   1.108   2.437 -0.1232  0.0068 -0.1480
  743SOL    HW1 2228   1.008   1.055   2.509 -1.3937 -1.4881  0.8364
  743SOL    HW2 2229   1.080   1.044   2.356 -0.2837 -1.1178 -1.8075
  744SOL     OW 2230   2.246   2.962   1.592  0.8316  0.1844 -0.1465
  744SOL    HW1 2231   2.339   2.992   1.628 -1.4173 -1.9472  1.0069
  744SOL    HW2 2232   2.252   2.955   1.488 -4.0058 -0.6675  0.8361
  745SOL     OW 2233   1.887   1.462   1.238  0.7005  0.1245 -0.7269
  745SOL    HW1 2234   1.818   1.533   1.206 -0.0726 -2.2828 -0.3635
  745SOL    HW2 2235   1.851   1.404   1.308  3.1121  0.7964 -1.4809
  746SOL     OW 2236   1.917   0.963   0.695 -0.2025  0.1574 -0.0189
  746SOL    HW1 2237   1.977   1.011   0.762 -1.5044 -3.3825  0.0759
  746SOL    HW2 2238   1.945   0.869   0.677 -1.2457  3.5717  0.3910
  747SOL     OW 2239   2.104   1.689   0.666  0.3860 -0.6145  0.6025
  747SOL    HW1 2240   2.117   1.611   0.726 -0.7328  0.4130 -2.2463
  747SOL    HW2 2241   2.008   1.708   0.645 -2.4367  0.1279 -1.0890
  748SOL     OW 2242   0.316   1.665   0.458  0.1980 -0.0625  0.3304
  748SOL    HW1 2243   0.266   1.576   0.452  0.6830  2.4207  0.2187
  748SOL    HW2 2244   0.398   1.666   0.398 -0.9522  0.2884  0.9288
  749SOL     OW 2245   0.113   2.306   2.773 -0.1157  0.8821 -0.0291
  749SOL    HW1 2246   0.116   2.204   2.796  0.6881 -1.6188  2.6840
  749SOL    HW2 2247   0.017   2.337   2.769  0.9843  1.1416 -1.8962
  750SOL     OW 2248   2.228   0.817   0.971 -0.7998 -0.2917  0.2128
  750SOL    HW1 2249   2.282   0.740   0.932  0.6378 -2.7002  1.1131
  750SOL    HW2 2250   2.177   0.778   1.051 -0.8451 -2.6317  1.4120
  751SOL     OW 2251   2.772   3.064   0.031  0.4401  0.1647 -0.2629
  751SOL    HW1 2252   2.673   3.085   0.013 -0.2221 -0.3003  1.1689
  751SOL    HW2 2253   2.782   2.977   0.081 -0.5011  0.7738 -0.6185
  752SOL     OW 2254   2.252   2.907   0.636 -0.4507  0.5765  0.7887
  752SOL    HW1 2255   2.217   2.990   0.596 -0.9752 -1.2940  0.1028
  752SOL    HW2 2256   2.197   2.828   0.608  2.3752  2.3254 -1.6005
  753SOL     OW 2257   1.832   1.570   2.302 -0.1112 -0.4906 -0.3018
  753SOL    HW1 2258   1.865   1.532   2.393  1.8638 -2.8011  0.0105
  753SOL    HW2 2259   1.879   1.659   2.285 -2.3443 -2.0229 -3.0564
  754SOL     OW 2260   2.400   2.537   1.695 -0.0138  0.0955  0.0864
  754SOL    HW1 2261   2.427   2.448   1.658 -0.1236  0.9437  0.0594
  754SOL    HW2 2262   2.298   2.550   1.686  1.2121  3.1345 -0.8440
  755SOL     OW 2263   2.580   0.911   1.280 -0.1350  0.4029 -0.4343
  755SOL    HW1 2264   2.541   0.948   1.196  0.8860 -4.0663  0.5750
  755SOL    HW2 2265   2.587   0.983   1.351  2.6945 -0.2827  0.4061
  756SOL     OW 2266   1.176   1.437   3.020  0.0213  0.2007 -0.1574
  756SOL    HW1 2267   1.144   1.351   2.971 -0.6669 -2.4732 -0.6156
  756SOL    HW2 2268   1.094   1.489   3.052 -3.0802  0.8752  1.7220
  757SOL     OW 2269   1.731   2.600   1.160  0.0587 -0.4956 -0.5255
  757SOL    HW1 2270   1.766   2.613   1.068 -0.6344 -0.5703 -1.0669
  757SOL    HW2 2271   1.765   2.518   1.202 -0.3748  3.0773  1.9509
  758SOL     OW 2272   0.865   2.280   1.295 -0.0611 -0.5086 -0.1268
  758SOL    HW1 2273   0.961   2.294   1.325 -0.1363 -0.9126  1.8003
  758SOL    HW2 2274   0.859   2.292   1.191 -0.7202 -1.0442 -0.6578
  759SOL     OW 2275   2.326   1.233   1.178 -0.4334 -0.1089  0.1375
  759SOL    HW1 2276   2.392   1.306   1.198  0.2272  0.0280  0.2646
  759SOL    HW2 2277   2.234   1.270   1.150  2.0195  1.3817 -0.6341
  760SOL     OW 2278   2.132   0.912   1.446 -0.2465  0.1763 -0.3499
  760SOL    HW1 2279   2.037   0.890   1.459 -0.2984 -0.3260 -1.5698
  760SOL    HW2 2280   2.144   1.011   1.445 -0.5201  0.6629  1.4730
  761SOL     OW 2281   2.085   2.803   0.361  0.0029 -0.6272 -0.3491
  761SOL    HW1 2282   2.013   2.775   0.293  1.6951 -1.9440  1.3561
  761SOL    HW2 2283   2.155   2.865   0.325 -1.0774  1.4368  1.8151
  762SOL     OW 2284   1.950   1.555   3.081 -0.3755  0.2633  0.6252
  762SOL    HW1 2285   1.888   1.489   3.030  2.7635  0.3416 -1.7434
  762SOL    HW2 2286   1.933   1.652   3.061  2.2143  1.1354 -2.3986
  763SOL     OW 2287   0.547   1.626   1.351  0.6603 -0.9123 -0.3879
  763SOL    HW1 2288   0.445   1.613   1.350 -0.2677 -0.1714  0.9112
  763SOL    HW2 2289   0.591   1.576   1.430  0.9467 -0.1668 -0.0203
  764SOL     OW 2290   0.168   2.359   3.077 -0.3791  0.3481  0.5107
  764SOL    HW1 2291   0.078   2.406   3.092  3.7701  1.4725  3.0325
  764SOL    HW2 2292   0.206   2.390   2.985  0.5354  1.9302  1.3857
  765SOL     OW 2293   0.549   0.030   1.481 -0.2389  0.3414  0.3135
  765SOL    HW1 2294   0.631   3.111   1.427 -0.4149 -0.4593 -0.5589
  765SOL    HW2 2295   0.587   0.067   1.571  2.0326 -0.6520  0.6253
  766SOL     OW 2296   3.018   2.140   2.203 -0.3611 -0.9990 -0.3158
  766SOL    HW1 2297   3.042   2.229   2.237  1.4999 -0.1796 -2.4516
  766SOL    HW2 2298   2.926   2.133   2.159  0.5084 -0.3295 -1.2185
  767SOL     OW 2299   3.000   1.111   2.160  0.1630 -0.2662  0.1146
  767SOL    HW1 2300   2.953   1.026   2.132  0.5173  0.0825  1.7030
  767SOL    HW2 2301   2.982   1.187   2.092 -0.1401 -1.7897 -1.3302
  768SOL     OW 2302   0.819   0.385   2.802  0.1612  0.4473 -0.2666
  768SOL    HW1 2303   0.723   0.360   2.792 -0.5867 -0.1528 -0.8548
  768SOL    HW2 2304   0.834   0.476   2.847 -0.3778 -1.3612 -0.7144
  769SOL     OW 2305   2.132   2.762   1.084 -0.0572 -0.5250 -0.0899
  769SOL    HW1 2306   2.227   2.799   1.088  2.1026 -1.9090 -0.5204
  769SOL    HW2 2307   2.066   2.833   1.111  1.4879 -1.6521  0.1537
  770SOL     OW 2308   2.940   0.125   2.749  0.3508  0.0400  0.2184
  770SOL    HW1 2309   2.868   0.148   2.682 -1.1988 -3.5358  0.3295
  770SOL    HW2 2310   3.023   0.129   2.694  0.0197  1.2312 -0.6408
  771SOL     OW 2311   1.833   2.050   1.875 -0.1777  0.0534 -0.5131
  771SOL    HW1 2312   1.789   2.014   1.794  3.7531  0.4253 -0.1046
  771SOL    HW2 2313   1.796   2.142   1.907 -1.4516  3.3919 -0.0271
  772SOL     OW 2314   1.172   0.397   0.006 -0.1898 -0.4655 -0.4099
  772SOL    HW1 2315   1.171   0.364   0.105 -2.2306 -0.3857  1.1381
  772SOL    HW2 2316   1.077   0.421   3.098  0.0823  2.1687  3.5163
  773SOL     OW 2317   2.751   0.880   1.797  0.1426 -0.3244  0.1950
  773SOL    HW1 2318   2.793   0.870   1.892 -1.7120  2.2573  0.1715
  773SOL    HW2 2319   2.734   0.788   1.750 -1.3738 -0.0301  0.2960
  774SOL     OW 2320   1.065   0.944   0.683  0.1338  0.1947  0.0432
  774SOL    HW1 2321   1.033   1.028   0.640  3.1245 -3.2974 -0.9565
  774SOL    HW2 2322   0.990   0.900   0.742  1.5641  0.3526  0.3074
  775SOL     OW 2323   2.506   3.111   3.095 -0.1345  0.0295  0.0348
  775SOL    HW1 2324   2.419   0.032   3.062  1.0841 -1.8231  1.0069
  775SOL    HW2 2325   2.510   3.016   3.053  0.0746  1.1961  1.2526
  776SOL     OW 2326   2.344   1.413   2.038 -0.8205 -0.4447 -0.6338
  776SOL    HW1 2327   2.375   1.453   2.129  0.4483 -0.2343 -0.1512
  776SOL    HW2 2328   2.311   1.317   2.040  0.7800 -0.4926 -0.8644
  777SOL     OW 2329   0.140   1.340   2.772 -0.3357  0.0032  0.6482
  777SOL    HW1 2330   0.148   1.411   2.701  0.8740  0.8161  3.0032
  777SOL    HW2 2331   0.232   1.322   2.815 -2.4234  0.4001  1.9701
  778SOL     OW 2332   0.490   0.542   0.141  0.1971 -0.1221 -0.0147
  778SOL    HW1 2333   0.534   0.476   0.074 -3.0583 -1.4917 -1.4717
  778SOL    HW2 2334   0.407   0.591   0.103  1.0515  1.2111 -0.1235
  779SOL     OW 2335   0.474   0.460   2.529  0.4939  0.1015  0.0850
  779SOL    HW1 2336   0.547   0.528   2.515  1.8422 -1.1284  0.1739
  779SOL    HW2 2337   0.491   0.376   2.469  0.3655 -3.0046 -1.7798
  780SOL     OW 2338   2.231   0.813   2.701  0.8199 -0.0479 -0.6380
  780SOL    HW1 2339   2.170   0.831   2.781 -0.1737  0.8551  1.0910
  780SOL    HW2 2340   2.247   0.711   2.702 -0.6374  1.0609  0.5302
  781SOL     OW 2341   3.022   0.826   1.643 -0.0830 -0.2050 -0.0296
  781SOL    HW1 2342   3.017   0.910   1.590 -1.2839 -1.9153  2.7442
  781SOL    HW2 2343   3.009   0.851   1.738  0.6898 -0.2832 -0.3060
  782SOL     OW 2344   0.697   1.823   2.932 -0.2664  0.0441  0.1741
  782SOL    HW1 2345   0.744   1.890   2.991 -0.8577 -1.3455 -3.1355
  782SOL    HW2 2346   0.610   1.789   2.976  2.5281 -0.7898 -0.9155
  783SOL     OW 2347   0.994   2.554   1.480 -0.6095 -0.4115  0.2314
  783SOL    HW1 2348   1.043   2.642   1.475  0.0350  0.7602  0.2765
  783SOL    HW2 2349   1.047   2.478   1.434 -1.7389 -0.8258 -0.3103
  784SOL     OW 2350   1.446   0.362   3.015 -0.1775  0.1166  0.1632
  784SOL    HW1 2351   1.343   0.372   3.022  1.1615 -0.3653  0.3072
  784SOL    HW2 2352   1.491   0.447   3.044 -1.0341 -1.6084  1.6648
  785SOL     OW 2353   0.888   0.539   2.145 -0.2165 -0.6001 -0.2131
  785SOL    HW1 2354   0.809   0.609   2.132  0.4898 -2.3049  0.3581
  785SOL    HW2 2355   0.887   0.504   2.242 -3.3547 -2.7055 -1.8819
  786SOL     OW 2356   0.719   1.855   0.455 -0.3398  0.6515  0.0859
  786SOL    HW1 2357   0.696   1.766   0.411 -0.7479 -0.9696  2.7478
  786SOL    HW2 2358   0.664   1.930   0.415  0.6482 -1.9226  0.3919
  787SOL     OW 2359   1.162   0.705   0.582 -0.0358 -0.9263 -0.4629
  787SOL    HW1 2360   1.123   0.791   0.615 -2.0282  0.9412 -0.1907
  787SOL    HW2 2361   1.093   0.630   0.581  2.1927 -2.4964  0.4493
  788SOL     OW 2362   2.310   1.609   1.344 -0.0975 -0.2081 -0.3400
  788SOL    HW1 2363   2.380   1.554   1.292  1.5075 -2.0622 -2.6979
  788SOL    HW2 2364   2.330   1.606   1.445  0.4573 -0.3774  0.9550
  789SOL     OW 2365   3.014   1.247   2.404 -0.7784  0.6092 -0.4057
  789SOL    HW1 2366   3.012   1.197   2.315  2.1748  1.3703 -1.7717
  789SOL    HW2 2367   2.948   1.325   2.415  1.9306 -0.5927 -1.2860
  790SOL     OW 2368   0.593   0.011   0.158 -0.6321  0.0013  0.8759
  790SOL    HW1 2369   0.579   3.037   0.184  0.8311  2.0287  0.2104
  790SOL    HW2 2370   0.674   0.053   0.208 -0.3512 -1.1011 -0.0639
  791SOL     OW 2371   0.263   0.739   0.104  0.1947  0.8787  0.4000
  791SOL    HW1 2372   0.286   0.824   0.154  0.6486 -2.2902 -0.8856
  791SOL    HW2 2373   0.282   0.752   0.005  1.4775  0.5141 -0.5071
  792SOL     OW 2374   1.719   0.704   2.590  0.1573 -0.2346 -0.2036
  792SOL    HW1 2375   1.632   0.654   2.588  1.3883 -0.2209 -0.2291
  792SOL    HW2 2376   1.785   0.660   2.522 -1.2022  0.0734 -0.0052
  793SOL     OW 2377   3.005   0.469   0.700  0.0904 -0.5129 -0.2309
  793SOL    HW1 2378   3.053   0.520   0.623 -1.2998  0.2657 -1.2604
  793SOL    HW2 2379   3.077   0.417   0.751  2.7139 -1.6967  1.5830
  794SOL     OW 2380   0.428   0.373   1.721  0.4641  0.5880 -0.1300
  794SOL    HW1 2381   0.481   0.451   1.682  2.9487  0.6382  1.6885
  794SOL    HW2 2382   0.343   0.338   1.676 -0.8407 -1.6483 -1.0998
  795SOL     OW 2383   0.234   1.370   0.109 -0.6837 -0.2908 -0.2600
  795SOL    HW1 2384   0.298   1.343   0.182  0.1187 -1.5088 -4.8925
  795SOL    HW2 2385   0.139   1.374   0.138  2.1052  1.0187 -2.0960
  796SOL     OW 2386   0.071   1.032   0.017 -0.4668  0.1097  0.3640
  796SOL    HW1 2387   0.120   1.022   0.107  1.5816  0.8627  2.3666
  796SOL    HW2 2388   3.090   1.041   0.027  0.8120  0.6060 -0.4999
  797SOL     OW 2389   1.695   2.503   2.978 -0.0554  0.0741 -0.3854
  797SOL    HW1 2390   1.697   2.595   3.021 -1.2854 -0.1458 -1.2373
  797SOL    HW2 2391   1.620   2.500   2.909  1.9096 -0.5737 -0.5008
  798SOL     OW 2392   2.843   0.779   0.892  0.3935 -0.0953  0.2293
  798SOL    HW1 2393   2.824   0.680   0.885  1.5575 -0.6189  0.5398
  798SOL    HW2 2394   2.755   0.832   0.890 -3.2871  2.3815 -1.4347
  799SOL     OW 2395   2.459   0.785   1.982 -0.0332  0.4614  0.4755
  799SOL    HW1 2396   2.489   0.882   1.973  1.4999  2.2841 -1.9355
  799SOL    HW2 2397   2.436   0.742   1.894  0.1174  1.3742 -0.2211
  800SOL     OW 2398   0.268   1.967   0.471 -0.1613  0.3242  0.2549
  800SOL    HW1 2399   0.202   1.960   0.548  1.2527  1.3404 -0.8282
  800SOL    HW2 2400   0.307   1.876   0.454  0.7254  0.2922 -0.1598
  801SOL     OW 2401   1.484   2.098   0.708  0.3401 -0.1949 -0.1154
  801SOL    HW1 2402   1.549   2.075   0.637 -0.9896  0.1647  3.1637
  801SOL    HW2 2403   1.524   2.079   0.799 -1.1530  0.0008  1.1325
  802SOL     OW 2404   1.351   1.498   2.825  0.1089  0.0876  0.7874
  802SOL    HW1 2405   1.282   1.480   2.900  2.5558  0.7204  0.4960
  802SOL    HW2 2406   1.434   1.545   2.860 -1.7427  0.6319  2.6235
  803SOL     OW 2407   0.199   2.017   1.731 -0.0315 -0.1465 -0.2378
  803SOL    HW1 2408   0.118   2.063   1.767  1.0208 -1.5530 -3.2809
  803SOL    HW2 2409   0.268   2.000   1.804 -0.0258 -1.1202 -3.4301
  804SOL     OW 2410   1.266   2.445   1.132  0.3104  0.2267 -0.3906
  804SOL    HW1 2411   1.359   2.414   1.116  0.7612  2.1198  1.5813
  804SOL    HW2 2412   1.259   2.541   1.115  0.3711 -1.6902 -0.5769
  805SOL     OW 2413   2.246   2.036   2.790  0.1720 -0.1217  0.1804
  805SOL    HW1 2414   2.172   2.095   2.752 -0.4942  0.9175 -1.6102
  805SOL    HW2 2415   2.339   2.070   2.763  0.9817  0.3529 -0.5731
  806SOL     OW 2416   2.114   0.102   0.698 -0.3487 -0.2326 -0.5559
  806SOL    HW1 2417   2.126   0.074   0.801 -0.8548 -0.0303 -1.9081
  806SOL    HW2 2418   2.191   0.160   0.662 -1.1369  2.4636  1.6088
  807SOL     OW 2419   3.077   1.153   2.681 -0.7519 -0.3599 -0.5988
  807SOL    HW1 2420   0.033   1.217   2.702 -1.2798  2.3791  0.3110
  807SOL    HW2 2421   3.053   1.160   2.580 -1.4385  1.1664 -0.9788
  808SOL     OW 2422   0.561   1.576   0.739  0.5769  0.3736 -0.0192
  808SOL    HW1 2423   0.526   1.562   0.834  0.7298 -0.8236 -1.2903
  808SOL    HW2 2424   0.574   1.676   0.716  1.0248 -0.6463 -2.9300
  809SOL     OW 2425   2.619   0.568   2.056 -0.0524  0.0462  0.0519
  809SOL    HW1 2426   2.596   0.665   2.039  2.9062 -2.3588  0.0839
  809SOL    HW2 2427   2.680   0.528   1.985  0.3279 -1.2768 -1.5470
  810SOL     OW 2428   1.302   0.574   1.495 -0.3159  0.7667  0.0187
  810SOL    HW1 2429   1.285   0.478   1.526  1.7625 -2.6234 -0.2694
  810SOL    HW2 2430   1.339   0.626   1.574 -2.6163  0.2002 -0.8546
  811SOL     OW 2431   2.320   0.005   1.956  0.0991  0.6387  0.3771
  811SOL    HW1 2432   2.221   0.034   1.966 -1.6585  1.8388  1.9141
  811SOL    HW2 2433   2.338   3.025   1.939  1.8499 -1.0356  2.1491
  812SOL     OW 2434   1.616   2.011   0.473  0.3231  0.2750  0.0250
  812SOL    HW1 2435   1.708   2.048   0.465 -1.3627  1.1130 -1.9190
  812SOL    HW2 2436   1.612   1.911   0.467  0.0678  0.6156 -0.0187
  813SOL     OW 2437   1.194   0.731   1.924  0.6700 -0.4001 -0.4339
  813SOL    HW1 2438   1.242   0.688   2.001 -0.9154  1.8256 -3.7449
  813SOL    HW2 2439   1.258   0.748   1.848 -3.2471 -0.9614 -0.6747
  814SOL     OW 2440   0.418   0.120   1.059 -0.4828  0.2069 -0.3759
  814SOL    HW1 2441   0.460   0.029   1.074 -0.1182  1.5607  1.5181
  814SOL    HW2 2442   0.441   0.182   1.139 -0.1051  2.3134 -0.6717
  815SOL     OW 2443   0.451   0.094   0.412  0.3905  0.3801  0.1789
  815SOL    HW1 2444   0.455   0.050   0.506  0.0225  0.4671  2.8900
  815SOL    HW2 2445   0.419   0.029   0.340 -0.1484 -1.1930 -1.2691
  816SOL     OW 2446   2.255   1.799   2.275 -0.1099  0.2892  0.6810
  816SOL    HW1 2447   2.355   1.783   2.242  1.8747  3.0542 -2.8187
  816SOL    HW2 2448   2.258   1.804   2.376 -2.7077 -2.7523  0.2007
  817SOL     OW 2449   1.117   2.912   0.860 -0.5767 -0.0080  0.1051
  817SOL    HW1 2450   1.129   2.813   0.842  1.9567  1.5182 -2.8819
  817SOL    HW2 2451   1.031   2.953   0.828  0.5735 -2.2030  1.8145
  818SOL     OW 2452   1.808   0.713   2.841  0.0228 -0.1473  0.0780
  818SOL    HW1 2453   1.797   0.692   2.744 -1.9314  0.4225  1.6947
  818SOL    HW2 2454   1.883   0.657   2.880 -1.3166 -1.3275 -0.9996
  819SOL     OW 2455   2.127   0.236   0.151  0.1460 -0.2751 -0.0162
  819SOL    HW1 2456   2.207   0.178   0.179 -0.7961  0.0198 -0.7187
  819SOL    HW2 2457   2.124   0.255   0.049 -1.2836 -2.7111 -3.7303
  820SOL     OW 2458   1.997   0.574   2.986  0.1224 -0.1922  0.6393
  820SOL    HW1 2459   2.017   0.529   3.076  2.4287  2.2247  2.1587
  820SOL    HW2 2460   2.054   0.537   2.910 -1.4031  0.0866 -2.0502
  821SOL     OW 2461   2.743   0.523   0.785  0.1511 -0.5514  0.6446
  821SOL    HW1 2462   2.838   0.520   0.757 -2.5510 -0.5541  2.2822
  821SOL    HW2 2463   2.682   0.573   0.717 -0.3608 -1.1636  0.9312
  822SOL     OW 2464   1.072   2.314   2.312  0.3986  0.1584 -0.2902
  822SOL    HW1 2465   1.053   2.335   2.410  0.8478  0.2930  1.7660
  822SOL    HW2 2466   1.089   2.214   2.298  1.5453  0.1621 -1.9187
  823SOL     OW 2467   0.318   1.488   1.812 -0.6198 -0.1181  0.2002
  823SOL    HW1 2468   0.297   1.554   1.890  1.0075 -0.7947 -2.2379
  823SOL    HW2 2469   0.229   1.443   1.794 -1.6941  0.8624 -0.0751
  824SOL     OW 2470   1.439   2.716   2.204  0.4547 -0.1339  0.2896
  824SOL    HW1 2471   1.488   2.727   2.293 -1.4342 -0.4649  2.1083
  824SOL    HW2 2472   1.360   2.777   2.203  0.7210  0.5534 -1.2111
  825SOL     OW 2473   1.689   0.865   0.597  0.2828  0.1682  0.4640
  825SOL    HW1 2474   1.778   0.901   0.630  0.0530 -0.8430  3.3346
  825SOL    HW2 2475   1.654   0.802   0.665  0.6565 -0.1864 -2.5792
  826SOL     OW 2476   2.048   0.789   0.156  0.5027  0.2354 -0.0519
  826SOL    HW1 2477   2.055   0.863   0.225 -2.0549  0.0928  0.0455
  826SOL    HW2 2478   1.977   0.721   0.176  0.9458  1.5947 -1.1137
  827SOL     OW 2479   0.435   1.661   2.300  0.1280  0.3348  0.4422
  827SOL    HW1 2480   0.446   1.756   2.332 -2.3856 -0.0349  1.5803
  827SOL    HW2 2481   0.523   1.610   2.296 -0.9722  0.1059 -0.7405
  828SOL     OW 2482   2.288   1.309   1.643  0.3650 -0.0165  0.4910
  828SOL    HW1 2483   2.227   1.336   1.718 -0.0778  0.5813 -0.4665
  828SOL    HW2 2484   2.391   1.318   1.656  0.7409 -1.4300 -0.2964
  829SOL     OW 2485   0.201   1.650   0.685 -0.4217 -0.1409  0.5460
  829SOL    HW1 2486   0.256   1.595   0.753 -1.0147 -1.2346  0.8494
  829SOL    HW2 2487   0.251   1.662   0.593  1.5037  0.9731 -2.2323
  830SOL     OW 2488   1.526   0.830   0.932 -0.0070  0.2296 -0.1692
  830SOL    HW1 2489   1.425   0.857   0.916 -1.4739  2.6295 -0.4376
  830SOL    HW2 2490   1.523   0.766   1.014 -1.1755 -0.5435  0.1299
  831SOL     OW 2491   2.928   1.725   0.002  0.0419  0.4895  0.6651
  831SOL    HW1 2492   2.933   1.787   0.084 -0.7570 -1.8284  0.8762
  831SOL    HW2 2493   2.903   1.630   0.027 -1.4740  1.1518 -2.2882
  832SOL     OW 2494   0.791   0.410   0.103  0.5616 -0.1228  0.1839
  832SOL    HW1 2495   0.777   0.467   0.185 -2.6259  1.0103 -1.9500
  832SOL    HW2 2496   0.787   0.317   0.137 -2.0928 -0.5985  1.8726
  833SOL     OW 2497   0.648   0.708   2.184 -0.3545  0.0897  0.0725
  833SOL    HW1 2498   0.603   0.800   2.190 -1.9076  0.0224  0.5389
  833SOL    HW2 2499   0.580   0.635   2.167 -1.2874  0.2964  2.4792
  834SOL     OW 2500   0.217   0.400   0.565  0.2143 -0.0666 -0.3020
  834SOL    HW1 2501   0.159   0.376   0.645  1.5024 -0.5751 -3.0380
  834SOL    HW2 2502   0.207   0.331   0.494  0.2813 -1.3692  1.2977
  835SOL     OW 2503   2.834   2.944   1.267  0.6574 -0.0985  0.2286
  835SOL    HW1 2504   2.785   3.011   1.331 -2.4723  1.3065 -0.1547
  835SOL    HW2 2505   2.820   2.958   1.167  0.2499 -0.4922  1.3858
  836SOL     OW 2506   0.477   1.986   0.091  0.4320  0.5450 -0.1459
  836SOL    HW1 2507   0.379   2.011   0.066 -1.5207  2.7252  1.2075
  836SOL    HW2 2508   0.494   2.011   0.186  0.7532  1.6782 -2.3015
  837SOL     OW 2509   1.654   1.372   2.365  0.0542  0.2213  0.7191
  837SOL    HW1 2510   1.596   1.411   2.439  0.3311 -1.1396  1.0813
  837SOL    HW2 2511   1.714   1.436   2.310  1.9257 -1.0501 -2.8813
  838SOL     OW 2512   0.317   0.896   1.507 -0.1184 -0.0314  0.1439
  838SOL    HW1 2513   0.413   0.899   1.472  0.3477 -2.9765 -1.3567
  838SOL    HW2 2514   0.302   0.950   1.596 -1.4662  0.9634  0.3630
  839SOL     OW 2515   0.485   1.314   1.027  0.2319  0.4459 -0.2444
  839SOL    HW1 2516   0.527   1.282   1.117 -0.2070 -1.6873  2.1629
  839SOL    HW2 2517   0.559   1.314   0.962 -0.6261  2.1972  2.7432
  840SOL     OW 2518   2.068   0.090   1.979  0.2518  0.1547 -0.0754
  840SOL    HW1 2519   2.001   0.089   1.905  1.6025 -1.0283  2.1590
  840SOL    HW2 2520   2.049   0.172   2.033 -1.1919 -2.3129  0.2101
  841SOL     OW 2521   0.598   2.334   0.378  0.1874 -0.0596  0.1491
  841SOL    HW1 2522   0.701   2.351   0.393 -0.9794  3.0363  0.0270
  841SOL    HW2 2523   0.570   2.376   0.287 -1.3428  0.2936 -0.1716
  842SOL     OW 2524   0.390   0.181   0.779  0.3440 -0.3045  0.3634
  842SOL    HW1 2525   0.402   0.181   0.882 -1.1178  0.7809  0.1784
  842SOL    HW2 2526   0.437   0.261   0.738 -1.7984  0.8770 -2.2441
  843SOL     OW 2527   0.689   1.182   2.449 -0.1730  0.0993 -0.2245
  843SOL    HW1 2528   0.600   1.198   2.492  1.2779  3.2318 -1.4872
  843SOL    HW2 2529   0.763   1.224   2.504 -0.3691 -2.0046  1.6430
  844SOL     OW 2530   1.316   2.318   3.100 -0.4846  0.2635 -0.3335
  844SOL    HW1 2531   1.306   2.281   3.003  2.9224  1.4276 -2.1185
  844SOL    HW2 2532   1.302   2.418   3.105 -1.1425 -0.0342  0.1959
  845SOL     OW 2533   2.580   2.605   2.499 -0.4372 -0.0421  0.1401
  845SOL    HW1 2534   2.583   2.636   2.405  0.6339 -2.6321  1.9688
  845SOL    HW2 2535   2.499   2.539   2.511 -0.5423  0.0068 -1.8828
  846SOL     OW 2536   1.952   1.815   3.047 -0.5412  0.2686  0.8270
  846SOL    HW1 2537   2.007   1.902   3.040  0.0276 -1.9582 -2.8308
  846SOL    HW2 2538   1.870   1.833   2.996  2.0952 -0.2214  1.0987
  847SOL     OW 2539   2.234   0.033   3.022 -0.5485 -0.5948  0.3958
  847SOL    HW1 2540   2.189   3.098   3.091 -0.5268 -0.4576 -1.9741
  847SOL    HW2 2541   2.219   3.116   2.930 -2.0801  1.8158 -0.3247
  848SOL     OW 2542   0.314   0.814   0.599 -0.5614 -0.0223 -0.3889
  848SOL    HW1 2543   0.357   0.781   0.683  1.9394 -1.2806 -2.9592
  848SOL    HW2 2544   0.212   0.799   0.604 -1.4459  0.1685  1.6825
  849SOL     OW 2545   1.318   2.872   1.652 -0.6500 -0.0748 -0.5690
  849SOL    HW1 2546   1.385   2.945   1.688 -0.5253 -0.4467 -0.6335
  849SOL    HW2 2547   1.285   2.811   1.729  1.4138 -0.9120 -0.1787
  850SOL     OW 2548   0.583   1.668   0.266  0.0281  0.2092  0.1351
  850SOL    HW1 2549   0.547   1.693   0.173  1.2388  1.1206 -1.6448
  850SOL    HW2 2550   0.617   1.573   0.266 -1.1732 -0.8584  0.5427
  851SOL     OW 2551   0.174   1.215   0.688  0.1377  0.1995  0.8387
  851SOL    HW1 2552   0.087   1.251   0.716  0.6794  1.9587 -2.0473
  851SOL    HW2 2553   0.150   1.137   0.624  0.1476 -2.5833 -0.3908
  852SOL     OW 2554   1.569   2.360   1.488  0.6269 -0.1319  0.4144
  852SOL    HW1 2555   1.639   2.323   1.559  0.4852 -1.7906  0.5578
  852SOL    HW2 2556   1.520   2.442   1.525  2.3944  1.0379  0.6681
  853SOL     OW 2557   3.101   1.427   0.246  0.7151  0.2336 -0.3713
  853SOL    HW1 2558   3.028   1.471   0.196  0.9286 -0.4082  1.7465
  853SOL    HW2 2559   3.112   1.469   0.339  0.8049  0.3304 -1.7593
  854SOL     OW 2560   1.680   1.238   2.005  0.4538  0.0542  0.8548
  854SOL    HW1 2561   1.608   1.253   2.074  1.2175  0.0776  0.9263
  854SOL    HW2 2562   1.650   1.181   1.929  1.2585  0.5131  0.4480
  855SOL     OW 2563   0.492   2.377   2.956 -0.0744  0.4443  0.9921
  855SOL    HW1 2564   0.409   2.417   2.917 -0.8968 -2.1543  0.9054
  855SOL    HW2 2565   0.574   2.433   2.965  1.7202 -0.9827  1.8194
  856SOL     OW 2566   0.251   0.700   1.698  0.2529  0.3712  0.2038
  856SOL    HW1 2567   0.330   0.675   1.760 -0.0171  1.0221 -0.0900
  856SOL    HW2 2568   0.282   0.756   1.619  0.3043 -3.2254  1.2462
  857SOL     OW 2569   1.086   1.291   2.132  0.5574 -0.0103 -0.5871
  857SOL    HW1 2570   1.134   1.258   2.215 -0.9744  1.8344  0.6744
  857SOL    HW2 2571   1.003   1.342   2.159 -1.9912 -0.8487 -0.2761
  858SOL     OW 2572   0.311   1.507   2.519 -0.1744  0.6585  0.3378
  858SOL    HW1 2573   0.320   1.553   2.609  0.3224  1.0188  0.8013
  858SOL    HW2 2574   0.344   1.570   2.445 -3.0725  1.4114  0.9280
  859SOL     OW 2575   2.744   2.986   1.020 -0.4904 -0.2706  0.3667
  859SOL    HW1 2576   2.682   3.067   1.007  1.6280  1.3825  0.4847
  859SOL    HW2 2577   2.835   2.992   0.966 -0.5041 -2.3065 -1.7941
  860SOL     OW 2578   2.213   2.873   0.012  0.1102 -0.6966 -0.1178
  860SOL    HW1 2579   2.245   2.920   0.097  3.1670 -1.5112  0.9387
  860SOL    HW2 2580   2.291   2.880   3.065  2.9958 -0.1754 -0.3306
  861SOL     OW 2581   0.563   0.343   0.340  0.1202  0.8662  0.2671
  861SOL    HW1 2582   0.518   0.257   0.362  2.2548  2.2633  0.0617
  861SOL    HW2 2583   0.510   0.402   0.274 -0.1762  0.2149  0.7393
  862SOL     OW 2584   1.340   0.370   2.040  0.3366  0.3917  0.1857
  862SOL    HW1 2585   1.383   0.456   2.013  0.2600  0.2906 -0.4738
  862SOL    HW2 2586   1.410   0.311   2.092  3.5546 -1.2264  3.5053
  863SOL     OW 2587   2.663   2.304   1.169  0.3229 -0.1943 -0.1568
  863SOL    HW1 2588   2.573   2.266   1.156  1.8826  0.1299 -2.5673
  863SOL    HW2 2589   2.728   2.242   1.128 -0.7565  1.7632  1.8358
  864SOL     OW 2590   2.481   3.029   2.314  0.5170  0.0103  0.2353
  864SOL    HW1 2591   2.382   3.012   2.320  2.2356  1.3274  0.9937
  864SOL    HW2 2592   2.520   3.039   2.408 -1.9940  0.3105  1.3250
  865SOL     OW 2593   0.976   0.586   1.878  0.1206 -0.0189  0.2051
  865SOL    HW1 2594   0.938   0.566   1.966 -0.8921  1.8132 -3.2775
  865SOL    HW2 2595   1.062   0.643   1.879  0.1864 -1.5233  0.2169
  866SOL     OW 2596   2.066   3.040   1.163 -0.2743  0.0620  0.0470
  866SOL    HW1 2597   2.127   3.054   1.085 -0.1574 -1.3671  2.3828
  866SOL    HW2 2598   1.964   3.043   1.145  0.1350  1.5563 -2.3017
  867SOL     OW 2599   2.658   2.412   0.828 -0.3853  0.3081  0.0318
  867SOL    HW1 2600   2.617   2.322   0.857 -2.6032 -0.2699  1.3752
  867SOL    HW2 2601   2.659   2.479   0.902  1.1908  0.7060 -1.9220
  868SOL     OW 2602   0.625   2.055   1.521  0.7864  0.2292 -0.0496
  868SOL    HW1 2603   0.695   2.132   1.549  4.3898  0.1171  1.4328
  868SOL    HW2 2604   0.558   2.099   1.452  1.1392  0.9596 -3.4436
  869SOL     OW 2605   2.327   2.468   0.046  0.0793 -0.0773 -0.1062
  869SOL    HW1 2606   2.406   2.397   0.032  5.3846 -0.9750 -2.2655
  869SOL    HW2 2607   2.332   2.509   0.138 -1.4001 -0.1713 -1.0656
  870SOL     OW 2608   1.971   1.699   0.979 -0.6177 -0.1512  0.4686
  870SOL    HW1 2609   1.985   1.608   0.934  0.4285  1.5982 -1.8286
  870SOL    HW2 2610   1.997   1.692   1.077  2.8932  0.4565 -0.0238
  871SOL     OW 2611   0.331   1.715   1.657  0.0796 -0.1264 -0.5436
  871SOL    HW1 2612   0.274   1.785   1.707  0.5275 -0.8388  1.8572
  871SOL    HW2 2613   0.332   1.626   1.702 -0.1878  2.3270  0.0221
  872SOL     OW 2614   0.432   1.330   2.314  0.1739 -0.1020  0.2918
  872SOL    HW1 2615   0.500   1.398   2.287  1.2789 -2.6146  1.9507
  872SOL    HW2 2616   0.398   1.353   2.409  1.2775  0.9720  0.1764
  873SOL     OW 2617   1.188   2.119   1.878 -0.3099  0.2445  0.1961
  873SOL    HW1 2618   1.197   2.021   1.854  0.1855 -0.7058  3.0463
  873SOL    HW2 2619   1.114   2.153   1.825  2.8542 -0.3520  1.3119
  874SOL     OW 2620   1.388   0.960   1.931 -0.6165 -0.7136 -0.0255
  874SOL    HW1 2621   1.306   1.006   1.893  0.0996  1.7423  0.3124
  874SOL    HW2 2622   1.386   0.964   2.034 -0.6915 -0.0763  1.9971
  875SOL     OW 2623   2.657   2.766   0.878  0.0031  0.1267  0.6428
  875SOL    HW1 2624   2.675   2.693   0.948  0.0035 -1.8002  0.1464
  875SOL    HW2 2625   2.664   2.858   0.923 -0.5791  0.1167 -1.1797
  876SOL     OW 2626   1.127   1.239   0.479 -0.6013 -0.2737 -0.1835
  876SOL    HW1 2627   1.178   1.234   0.387  3.2459  1.1554 -1.6980
  876SOL    HW2 2628   1.079   1.330   0.482  0.1908 -0.1543  2.2458
  877SOL     OW 2629   2.915   0.191   1.005  0.3491  0.1547 -0.4027
  877SOL    HW1 2630   2.933   0.099   0.961  1.4811 -2.3067  0.2672
  877SOL    HW2 2631   2.957   0.207   1.099 -2.3373  1.2861  0.4834
  878SOL     OW 2632   2.447   1.790   0.346 -0.2627  0.2227 -1.1407
  878SOL    HW1 2633   2.434   1.721   0.419  0.5530 -0.0730  1.9640
  878SOL    HW2 2634   2.355   1.815   0.314 -0.8777  0.4381  2.0946
  879SOL     OW 2635   2.413   1.875   1.250  0.1961 -0.2383  0.3287
  879SOL    HW1 2636   2.352   1.795   1.267 -2.5308 -0.7370 -0.5419
  879SOL    HW2 2637   2.403   1.906   1.152  0.0364 -0.8585  1.1256
  880SOL     OW 2638   0.219   2.618   0.730  0.4106 -0.0243 -0.2560
  880SOL    HW1 2639   0.146   2.655   0.791  0.3044  2.7503  3.4254
  880SOL    HW2 2640   0.267   2.694   0.674 -0.6014  0.1775 -0.7722
  881SOL     OW 2641   1.265   0.887   0.895 -0.2218  0.2102  0.1331
  881SOL    HW1 2642   1.215   0.933   0.820  0.3779 -1.8500 -0.8203
  881SOL    HW2 2643   1.218   0.797   0.910 -1.2469  0.4078 -0.0512
  882SOL     OW 2644   2.425   1.019   2.826 -0.1383  0.5458  0.5582
  882SOL    HW1 2645   2.371   0.945   2.779  0.0568  1.8352 -3.5614
  882SOL    HW2 2646   2.475   1.079   2.761 -1.2470  0.3260 -1.3749
  883SOL     OW 2647   1.115   3.073   1.676 -0.3531 -0.8894 -0.5049
  883SOL    HW1 2648   1.128   3.091   1.779 -0.8169  0.0854  1.6693
  883SOL    HW2 2649   1.181   2.995   1.656 -0.7537 -0.4120 -0.7044
  884SOL     OW 2650   2.971   3.070   0.890  0.0877  0.3167  0.3328
  884SOL    HW1 2651   3.073   3.066   0.905  2.5728 -2.4652  1.2774
  884SOL    HW2 2652   2.952   3.081   0.789  0.0139  0.2831 -2.1606
  885SOL     OW 2653   1.216   0.989   1.360  0.6898  0.9024  0.4294
  885SOL    HW1 2654   1.263   0.999   1.450 -1.0986  0.1552 -2.3973
  885SOL    HW2 2655   1.271   1.033   1.288 -0.0619  0.8060 -0.7559
  886SOL     OW 2656   1.829   0.985   2.623  0.1135 -0.5316  0.2936
  886SOL    HW1 2657   1.799   0.887   2.633 -2.2615  0.7423  1.7723
  886SOL    HW2 2658   1.914   0.994   2.572 -0.0876  1.3166 -1.0138
  887SOL     OW 2659   1.762   0.554   1.064 -0.1556 -0.2624  0.0414
  887SOL    HW1 2660   1.698   0.612   1.019  1.1820  1.2475 -1.3725
  887SOL    HW2 2661   1.721   0.462   1.065 -1.6421  0.3870 -0.8230
  888SOL     OW 2662   2.074   1.657   1.748 -0.2050  0.2010 -0.7053
  888SOL    HW1 2663   2.105   1.573   1.791 -0.8429 -0.8408 -0.0741
  888SOL    HW2 2664   2.136   1.713   1.692 -4.2057  2.0521  0.8979
  889SOL     OW 2665   2.190   2.195   0.729 -0.3136  0.7829  0.3056
  889SOL    HW1 2666   2.242   2.282   0.747 -0.1693  1.3214 -1.5034
  889SOL    HW2 2667   2.137   2.163   0.806 -0.4168 -0.3255  0.1569
  890SOL     OW 2668   1.013   2.022   0.733 -0.3564  0.3365  0.7447
  890SOL    HW1 2669   1.111   2.024   0.758 -0.9624 -1.0045 -2.5886
  890SOL    HW2 2670   0.955   1.971   0.801 -2.4823  3.3772 -1.9130
  891SOL     OW 2671   2.582   0.649   2.425 -0.9046  0.0646  0.2004
  891SOL    HW1 2672   2.644   0.652   2.506 -1.2410  0.2315 -2.3677
  891SOL    HW2 2673   2.544   0.556   2.412 -0.9604 -2.2089 -0.7951
  892SOL     OW 2674   1.262   0.642   2.169 -0.1746 -0.6583  0.3661
  892SOL    HW1 2675   1.200   0.560   2.183 -1.5042  0.0569 -0.8232
  892SOL    HW2 2676   1.279   0.693   2.259  0.8994  1.6927  0.5004
  893SOL     OW 2677   1.561   0.545   1.404 -0.0883 -0.1013  0.3276
  893SOL    HW1 2678   1.606   0.504   1.487  0.3460 -0.3923 -1.7567
  893SOL    HW2 2679   1.470   0.568   1.439  0.9909  0.1288 -2.1967
  894SOL     OW 2680   2.639   0.395   0.421 -0.3985 -0.5426  0.4023
  894SOL    HW1 2681   2.710   0.366   0.352 -1.1204  0.0172 -0.9646
  894SOL    HW2 2682   2.589   0.315   0.454 -0.4400  1.8204 -0.5905
  895SOL     OW 2683   2.151   2.534   2.989 -0.1297 -0.1206 -0.2858
  895SOL    HW1 2684   2.094   2.614   3.003  2.1149 -0.4668 -0.2372
  895SOL    HW2 2685   2.231   2.526   3.054  2.8551 -0.8911  2.6817
  896SOL     OW 2686   1.791   2.936   1.631 -0.2020 -0.1035 -0.3039
  896SOL    HW1 2687   1.851   3.006   1.586  0.5494  2.5361  0.5130
  896SOL    HW2 2688   1.705   2.905   1.579  3.0698 -3.2152  0.9960
  897SOL     OW 2689   0.398   2.185   1.951 -0.0690 -0.1280 -0.0385
  897SOL    HW1 2690   0.470   2.226   1.891  0.0731 -0.3748  1.7364
  897SOL    HW2 2691   0.408   2.087   1.966 -1.4927  0.4063  1.9464
  898SOL     OW 2692   2.449   1.884   1.855 -0.1709  0.4109  0.8573
  898SOL    HW1 2693   2.548   1.890   1.832 -0.8796  1.7440 -0.4746
  898SOL    HW2 2694   2.406   1.791   1.852  0.9528  1.3269  1.6118
  899SOL     OW 2695   1.728   2.382   0.665 -0.0787  0.6658 -0.2452
  899SOL    HW1 2696   1.801   2.387   0.737  1.6919  1.6094  1.5109
  899SOL    HW2 2697   1.712   2.285   0.637 -1.6907  0.1589  1.1356
  900SOL     OW 2698   0.944   0.532   3.034  0.4556  0.1318  0.1488
  900SOL    HW1 2699   0.890   0.619   3.024 -1.6793  1.0381 -2.8455
  900SOL    HW2 2700   0.910   0.476   3.113  2.3600  1.3017  0.2767
  901SOL     OW 2701   1.250   1.789   2.500 -0.3758 -0.5841 -0.0757
  901SOL    HW1 2702   1.183   1.864   2.529 -0.6956  3.4056  0.9000
  901SOL    HW2 2703   1.339   1.803   2.547 -0.7931 -3.0002  1.3543
  902SOL     OW 2704   2.986   0.413   3.082  0.1278 -0.1246  0.2839
  902SOL    HW1 2705   2.991   0.491   3.017  0.7332  0.6133 -0.3751
  902SOL    HW2 2706   2.942   0.336   3.031  2.0362  1.1428 -2.9732
  903SOL     OW 2707   2.098   0.777   2.301 -0.5639 -0.9041 -0.2448
  903SOL    HW1 2708   2.086   0.857   2.366  1.0121  1.2821  2.3090
  903SOL    HW2 2709   2.191   0.764   2.259 -0.5906 -1.7085  0.2647
  904SOL     OW 2710   1.497   0.855   2.421 -0.4440  0.1571 -0.4532
  904SOL    HW1 2711   1.549   0.939   2.397 -0.7055  1.2835  1.2008
  904SOL    HW2 2712   1.551   0.769   2.421  2.2669 -0.8078 -2.9260
  905SOL     OW 2713   2.200   2.872   1.864  0.1495  0.3490  0.0533
  905SOL    HW1 2714   2.249   2.905   1.778 -1.7941  1.1396  0.8886
  905SOL    HW2 2715   2.102   2.854   1.850  0.9830  2.1861 -0.7567
  906SOL     OW 2716   2.003   2.128   0.420 -0.1426  0.5688  0.1321
  906SOL    HW1 2717   2.076   2.205   0.409 -0.7799  3.6243 -2.8291
  906SOL    HW2 2718   2.005   2.088   0.514 -0.3466  1.2368 -6.3528
  907SOL     OW 2719   1.551   2.890   0.784  0.8402  0.0022  0.2130
  907SOL    HW1 2720   1.571   2.950   0.702 -0.0488  2.9797  0.1109
  907SOL    HW2 2721   1.525   2.792   0.761  1.8189  0.7222  2.5404
  908SOL     OW 2722   1.754   2.162   2.529  0.1415  0.3080 -0.2140
  908SOL    HW1 2723   1.819   2.237   2.543  1.4691 -0.1296 -2.4217
  908SOL    HW2 2724   1.716   2.164   2.437 -1.6759  0.9094  1.2298
  909SOL     OW 2725   2.185   0.530   1.989  0.2870  0.0772 -0.2501
  909SOL    HW1 2726   2.150   0.591   1.910 -1.7273  4.4568 -4.1170
  909SOL    HW2 2727   2.245   0.580   2.052 -3.5808 -0.7848  0.8698
  910SOL     OW 2728   1.459   0.306   2.754 -0.0223  0.1045  0.0615
  910SOL    HW1 2729   1.462   0.328   2.853 -1.0302 -2.6182 -1.4307
  910SOL    HW2 2730   1.371   0.261   2.731  0.4994  0.9026  1.9937
  911SOL     OW 2731   2.918   1.068   0.123 -0.8934 -0.2445 -0.3143
  911SOL    HW1 2732   2.954   1.129   0.197 -2.6350 -0.5730 -0.7660
  911SOL    HW2 2733   2.916   0.971   0.153 -1.1070 -3.7347  1.7616
  912SOL     OW 2734   0.023   2.625   0.496  0.6183 -0.5545  0.5338
  912SOL    HW1 2735   0.069   2.546   0.458 -0.9674 -2.1682  0.1873
  912SOL    HW2 2736   0.071   2.708   0.472 -0.6816 -0.4238  1.1956
  913SOL     OW 2737   2.838   2.219   2.455  0.3179 -0.5359 -0.5596
  913SOL    HW1 2738   2.897   2.282   2.396  1.0536 -1.0035 -1.3160
  913SOL    HW2 2739   2.889   2.134   2.476 -2.0069  3.0094 -0.9014
  914SOL     OW 2740   1.490   1.770   0.973  0.0689  0.6994 -0.1467
  914SOL    HW1 2741   1.451   1.698   0.919  0.3613 -1.4398  2.3601
  914SOL    HW2 2742   1.429   1.841   1.009 -1.7238 -2.3070  1.4641
  915SOL     OW 2743   0.336   2.899   2.098 -0.3582  0.0017 -0.2578
  915SOL    HW1 2744   0.331   2.794   2.092 -0.9677  3.4193  0.0769
  915SOL    HW2 2745   0.242   2.941   2.105 -1.7454  1.7286 -0.2527
  916SOL     OW 2746   0.647   0.160   1.690 -0.1324  0.1420  0.1248
  916SOL    HW1 2747   0.734   0.210   1.712  1.1641  0.1882 -1.3029
  916SOL    HW2 2748   0.561   0.214   1.712 -0.4958  3.2891 -0.1107
  917SOL     OW 2749   2.739   0.642   0.269  0.0090 -0.3147 -0.4043
  917SOL    HW1 2750   2.768   0.552   0.296 -2.9251  0.5185 -1.0083
  917SOL    HW2 2751   2.649   0.640   0.221  0.2661 -1.6016  2.5309
  918SOL     OW 2752   1.665   2.219   2.988  0.1318  0.7207 -0.4277
  918SOL    HW1 2753   1.655   2.315   2.948 -1.9788  0.5352 -2.2557
  918SOL    HW2 2754   1.635   2.226   3.087  3.2915 -1.9572  1.9828
  919SOL     OW 2755   1.670   2.849   1.243  0.5545 -0.2697 -0.5492
  919SOL    HW1 2756   1.702   2.907   1.166  1.4946  1.7468 -0.2259
  919SOL    HW2 2757   1.677   2.750   1.221  0.5661  2.0285  0.9791
  920SOL     OW 2758   1.474   0.245   2.458  0.1755  0.0984 -0.7009
  920SOL    HW1 2759   1.407   0.187   2.514 -1.4364 -1.6016  1.5379
  920SOL    HW2 2760   1.559   0.264   2.512  3.2576 -3.6930  0.9972
  921SOL     OW 2761   2.899   0.845   2.728  0.3117 -0.6830 -0.6686
  921SOL    HW1 2762   2.874   0.932   2.776 -1.9606  0.9635 -0.3437
  921SOL    HW2 2763   2.990   0.818   2.751 -1.1539  1.0634 -2.8811
  922SOL     OW 2764   0.157   2.174   1.048  0.0436 -0.0763 -0.1680
  922SOL    HW1 2765   0.173   2.098   1.114 -3.9859  1.0646  2.0737
  922SOL    HW2 2766   0.158   2.260   1.106  2.2488  0.3591  1.8655
  923SOL     OW 2767   0.601   1.541   1.834 -0.2697 -0.2262 -0.1067
  923SOL    HW1 2768   0.650   1.504   1.750 -0.8535 -0.9473  0.8365
  923SOL    HW2 2769   0.508   1.503   1.833  0.0938  3.1085 -0.1243
  924SOL     OW 2770   1.755   2.692   2.631 -0.6960 -0.1436 -0.1950
  924SOL    HW1 2771   1.800   2.595   2.627  0.6675 -1.3187 -0.2165
  924SOL    HW2 2772   1.747   2.734   2.725  0.7179 -0.6392  4.8184
  925SOL     OW 2773   2.695   1.549   0.851  0.5355 -0.6256  0.6300
  925SOL    HW1 2774   2.652   1.454   0.859  0.2771 -1.8235  0.1620
  925SOL    HW2 2775   2.730   1.585   0.938 -0.0812 -0.6259 -0.4081
  926SOL     OW 2776   2.167   0.714   1.272 -0.3755  0.0597  0.2716
  926SOL    HW1 2777   2.203   0.651   1.343  0.7914 -0.4753  2.0229
  926SOL    HW2 2778   2.135   0.800   1.321  0.1457  3.0693  2.9916
  927SOL     OW 2779   2.008   0.007   1.563  0.8030  0.0334 -0.3639
  927SOL    HW1 2780   2.006   0.036   1.463  1.1587 -3.0883  0.1196
  927SOL    HW2 2781   2.100   3.086   1.579  0.0705  0.6558 -1.0079
  928SOL     OW 2782   0.151   1.079   2.197  0.0384  0.1158  0.2786
  928SOL    HW1 2783   0.223   1.128   2.141 -1.0089  1.6377 -0.6166
  928SOL    HW2 2784   0.055   1.106   2.171  0.7167 -1.9397 -0.6255
  929SOL     OW 2785   2.378   0.844   1.553 -0.3255 -0.3060  0.0155
  929SOL    HW1 2786   2.284   0.874   1.539 -0.8378  1.7596 -1.8315
  929SOL    HW2 2787   2.443   0.870   1.481  1.4619 -1.6974 -1.6451
  930SOL     OW 2788   2.604   2.685   2.235  0.5369  0.0920 -0.2432
  930SOL    HW1 2789   2.571   2.749   2.165 -0.0460 -2.0560  0.8134
  930SOL    HW2 2790   2.574   2.589   2.211 -2.4388  0.1917 -1.1247
  931SOL     OW 2791   1.657   1.207   1.444 -0.2704 -0.6098 -0.4116
  931SOL    HW1 2792   1.584   1.241   1.503  1.9416 -0.0610 -0.3127
  931SOL    HW2 2793   1.746   1.230   1.486  0.3751  1.9427 -0.1042
  932SOL     OW 2794   0.475   1.089   1.908  0.2375  0.4768  0.1908
  932SOL    HW1 2795   0.496   1.012   1.973  1.4527  0.8689  1.5047
  932SOL    HW2 2796   0.551   1.106   1.843  0.7873  0.4505  1.7611
  933SOL     OW 2797   2.723   2.109   1.605 -0.5782 -0.0400 -0.3527
  933SOL    HW1 2798   2.680   2.115   1.514  2.0624  1.7076  2.0203
  933SOL    HW2 2799   2.689   2.017   1.642 -0.1292 -2.5445 -1.3152
  934SOL     OW 2800   0.692   2.028   1.897 -0.1740 -0.0882 -0.2730
  934SOL    HW1 2801   0.635   1.981   1.969  1.1590 -1.8855 -1.4612
  934SOL    HW2 2802   0.702   1.959   1.825 -0.8404  1.3248  0.0356
  935SOL     OW 2803   3.031   1.438   1.714 -0.1692 -0.4093 -0.2398
  935SOL    HW1 2804   3.003   1.533   1.740 -1.9620 -2.6574  1.6774
  935SOL    HW2 2805   3.051   1.387   1.800  0.6489  0.6263  0.2244
  936SOL     OW 2806   3.044   1.051   1.472 -0.0492 -0.4636  0.2094
  936SOL    HW1 2807   2.976   1.025   1.402  0.9681  0.6225 -2.0455
  936SOL    HW2 2808   0.012   1.061   1.423  0.0897  3.1115 -0.2389
  937SOL     OW 2809   1.993   0.409   1.407  0.0575  0.2313 -0.0164
  937SOL    HW1 2810   2.082   0.459   1.425 -2.7181  4.2466 -0.0215
  937SOL    HW2 2811   1.929   0.470   1.363  1.9230 -0.8293  0.4859
  938SOL     OW 2812   0.538   2.831   0.114 -0.5110 -0.0706 -0.0153
  938SOL    HW1 2813   0.454   2.802   0.167 -2.4573 -0.6953  0.5831
  938SOL    HW2 2814   0.523   2.835   0.012  1.0433 -0.5087 -0.6275
  939SOL     OW 2815   3.008   2.074   2.628  0.6216  0.2307  0.0364
  939SOL    HW1 2816   3.005   1.972   2.629 -3.0495 -1.3720  0.6356
  939SOL    HW2 2817   2.989   2.098   2.725 -2.7793 -1.1682  1.2898
  940SOL     OW 2818   1.429   2.130   0.335  0.3318  0.3583  0.0069
  940SOL    HW1 2819   1.370   2.199   0.380  2.1272 -0.3966  0.3413
  940SOL    HW2 2820   1.489   2.077   0.401 -0.3727 -0.0573  2.7521
  941SOL     OW 2821   2.352   2.520   0.317  0.0499  0.0502  1.0354
  941SOL    HW1 2822   2.362   2.621   0.316 -0.7057 -1.9630 -1.5780
  941SOL    HW2 2823   2.391   2.490   0.405 -0.6122 -1.9707 -2.0865
  942SOL     OW 2824   1.652   2.081   0.929  0.4239 -0.0107  0.0082
  942SOL    HW1 2825   1.693   1.990   0.906 -3.0126  2.3650  0.7417
  942SOL    HW2 2826   1.647   2.083   1.030  1.4822 -2.6335 -0.9970
  943SOL     OW 2827   2.167   0.792   1.806 -0.2416  0.2961  0.2016
  943SOL    HW1 2828   2.233   0.751   1.742  1.0902  1.9773 -0.8442
  943SOL    HW2 2829   2.203   0.881   1.842 -1.4818 -0.2326 -1.7634
  944SOL     OW 2830   1.366   0.981   2.222  0.2018 -0.6925 -0.3007
  944SOL    HW1 2831   1.405   0.924   2.301  2.3739 -1.6021  2.9819
  944SOL    HW2 2832   1.276   0.952   2.202  1.8102 -1.7701  2.9913
  945SOL     OW 2833   2.497   2.636   1.453 -0.3112  0.0932  0.2478
  945SOL    HW1 2834   2.575   2.567   1.448 -1.2188  2.4995 -0.2042
  945SOL    HW2 2835   2.447   2.629   1.542  1.1649  0.5725 -1.7125
  946SOL     OW 2836   0.223   0.965   0.278 -0.9075  0.6641  0.1721
  946SOL    HW1 2837   0.168   1.028   0.331  0.7495  0.1665  0.3046
  946SOL    HW2 2838   0.310   0.948   0.327 -1.3113  2.1111 -0.3644
  947SOL     OW 2839   1.792   2.368   1.299  0.0209  0.2918 -0.0952
  947SOL    HW1 2840   1.715   2.377   1.366 -0.7000 -0.2636  0.7543
  947SOL    HW2 2841   1.879   2.411   1.335  1.5192 -0.6784  0.1830
  948SOL     OW 2842   0.283   1.788   0.959  0.4528 -0.3328  0.0679
  948SOL    HW1 2843   0.213   1.736   0.905 -2.3604  1.4683  0.8050
  948SOL    HW2 2844   0.335   1.718   1.010 -0.9985  0.2417 -2.1038
  949SOL     OW 2845   1.029   1.367   1.093  0.0356 -0.3822 -0.1803
  949SOL    HW1 2846   1.014   1.267   1.101  0.0940  1.4146  0.4098
  949SOL    HW2 2847   1.101   1.395   1.025  2.0022 -0.8388 -0.2317
  950SOL     OW 2848   0.358   0.609   1.210 -0.1245  0.2234 -0.2751
  950SOL    HW1 2849   0.409   0.667   1.144 -3.9733  0.2679  1.5468
  950SOL    HW2 2850   0.264   0.649   1.220 -0.7282 -1.9589  0.9247
  951SOL     OW 2851   0.740   2.113   2.371 -0.6546  0.1723 -0.0297
  951SOL    HW1 2852   0.743   2.148   2.274 -1.7400 -2.0588 -0.6844
  951SOL    HW2 2853   0.754   2.194   2.433  0.1112  1.9708  0.2948
  952SOL     OW 2854   1.360   1.451   0.097  0.3050  0.3702 -0.2398
  952SOL    HW1 2855   1.438   1.517   0.081 -0.1457 -0.8461 -1.7916
  952SOL    HW2 2856   1.277   1.462   0.040 -0.3665  0.1353  2.0301
  953SOL     OW 2857   1.159   2.904   2.925  0.2845 -0.0650  0.5560
  953SOL    HW1 2858   1.194   2.916   3.020 -0.8179 -1.3687 -2.7975
  953SOL    HW2 2859   1.073   2.850   2.926 -0.3530 -3.6130 -1.6430
  954SOL     OW 2860   1.829   1.136   0.135 -0.3270  0.3357  0.0385
  954SOL    HW1 2861   1.772   1.057   0.103  1.6290 -3.6016  2.4858
  954SOL    HW2 2862   1.918   1.142   0.084  0.7240 -0.3339  2.1199
  955SOL     OW 2863   0.065   2.854   3.061  0.4425 -0.0906  0.0370
  955SOL    HW1 2864   0.153   2.904   3.087 -0.2328 -0.0724  0.0614
  955SOL    HW2 2865   0.076   2.824   2.965 -0.5869  1.7983  0.6251
  956SOL     OW 2866   1.159   0.729   1.306 -0.2883 -0.4867 -0.3046
  956SOL    HW1 2867   1.202   0.820   1.299  2.4007 -1.3245  0.0014
  956SOL    HW2 2868   1.212   0.677   1.381  0.3584 -2.5822  1.1337
  957SOL     OW 2869   1.103   1.418   1.353  0.0125  0.1130 -0.0655
  957SOL    HW1 2870   1.092   1.518   1.351 -0.0562  0.2602 -2.2380
  957SOL    HW2 2871   1.106   1.387   1.255  0.3505 -0.2390  1.6268
  958SOL     OW 2872   0.438   1.985   0.852  0.5682 -0.4275 -0.2038
  958SOL    HW1 2873   0.368   1.916   0.892  0.7886 -0.1431  0.5255
  958SOL    HW2 2874   0.507   1.929   0.807 -0.3595  1.5090  1.6534
  959SOL     OW 2875   1.335   1.297   1.100  0.2496  0.1238  0.0682
  959SOL    HW1 2876   1.430   1.300   1.054  1.4896 -0.2197  0.1485
  959SOL    HW2 2877   1.344   1.302   1.202 -3.3680  0.1827 -1.9720
  960SOL     OW 2878   3.047   1.393   2.935  0.0113  0.1260 -0.3135
  960SOL    HW1 2879   2.988   1.468   2.904  2.7371 -0.7305 -1.5698
  960SOL    HW2 2880   0.001   1.377   2.869  1.1977  0.0813  1.6600
  961SOL     OW 2881   0.825   1.382   1.300 -0.4601 -0.0756 -0.3453
  961SOL    HW1 2882   0.823   1.430   1.211 -0.6969 -0.8615  1.3417
  961SOL    HW2 2883   0.921   1.382   1.335  1.7910  0.2784  1.6717
  962SOL     OW 2884   0.734   1.309   0.865 -0.0526  0.6337  0.3805
  962SOL    HW1 2885   0.759   1.315   0.766  1.2776 -0.0600 -0.1664
  962SOL    HW2 2886   0.791   1.244   0.921 -0.3773  0.9755  0.4549
  963SOL     OW 2887   1.554   1.448   2.626 -0.6113 -0.1859 -0.2813
  963SOL    HW1 2888   1.570   1.544   2.596  1.2594 -0.9673 -0.2220
  963SOL    HW2 2889   1.464   1.434   2.668 -0.0859  1.2651 -1.9540
  964SOL     OW 2890   0.692   2.718   2.752  0.0104  0.5443 -0.0383
  964SOL    HW1 2891   0.692   2.640   2.684 -1.3083  0.9309 -0.2689
  964SOL    HW2 2892   0.715   2.676   2.841 -2.2196  2.8388 -2.1907
  965SOL     OW 2893   0.532   2.435   0.141 -0.1483  0.2565 -0.2746
  965SOL    HW1 2894   0.531   2.407   0.044  0.5328  0.1607 -0.0604
  965SOL    HW2 2895   0.440   2.471   0.165  1.3459  1.7881  0.9697
  966SOL     OW 2896   2.891   1.618   2.802  0.0615  0.2034  0.8948
  966SOL    HW1 2897   2.809   1.570   2.760  0.1806  0.4342 -1.2581
  966SOL    HW2 2898   2.862   1.689   2.866 -3.2489 -2.4072 -2.3769
  967SOL     OW 2899   2.477   3.047   2.664  0.0691 -0.2611  0.2013
  967SOL    HW1 2900   2.559   2.992   2.632  0.4808  2.9400 -2.9115
  967SOL    HW2 2901   2.403   2.991   2.702 -0.8998  0.4441 -3.3249
  968SOL     OW 2902   2.059   0.289   0.434  0.0835 -0.1500 -0.2353
  968SOL    HW1 2903   2.075   0.281   0.333  0.9262  0.7270 -0.8639
  968SOL    HW2 2904   2.142   0.271   0.490  1.2663 -0.2397 -1.5178
  969SOL     OW 2905   0.338   1.221   2.090 -0.3233 -0.0507  0.6339
  969SOL    HW1 2906   0.410   1.200   2.021  2.8866  0.7171 -0.4040
  969SOL    HW2 2907   0.387   1.252   2.176 -1.4791 -3.2467  2.0027
  970SOL     OW 2908   1.580   1.265   0.987 -0.6952  0.8803 -0.6059
  970SOL    HW1 2909   1.641   1.211   1.052  1.2035 -3.2445 -0.4964
  970SOL    HW2 2910   1.577   1.207   0.899  0.4328  0.0000  2.3344
  971SOL     OW 2911   2.235   3.104   0.923  0.2546 -0.1643  0.5389
  971SOL    HW1 2912   2.312   3.051   0.892 -1.1269  0.1891  0.0470
  971SOL    HW2 2913   2.273   0.066   0.972 -0.7521 -0.0641  0.3755
  972SOL     OW 2914   0.423   2.915   1.526  0.6963 -0.2399 -0.8433
  972SOL    HW1 2915   0.434   2.853   1.446 -1.9644  3.0252 -1.0226
  972SOL    HW2 2916   0.460   3.008   1.506 -2.3808  0.3844  1.9439
  973SOL     OW 2917   0.542   0.347   2.774  0.3536  0.1722  0.1988
  973SOL    HW1 2918   0.517   0.382   2.676 -1.5844  0.8395 -1.6809
  973SOL    HW2 2919   0.506   0.253   2.793  0.0936  0.4531 -1.1408
  974SOL     OW 2920   2.120   1.425   1.879  0.1321  0.3457 -0.3507
  974SOL    HW1 2921   2.036   1.419   1.935 -1.1628  0.3210 -1.6971
  974SOL    HW2 2922   2.208   1.432   1.928 -4.2176 -1.6236 -0.3405
  975SOL     OW 2923   0.131   0.052   1.178  0.3631 -0.7953  0.5467
  975SOL    HW1 2924   0.068   3.110   1.230 -0.7559 -1.4884 -0.6986
  975SOL    HW2 2925   0.148   0.013   1.085 -0.6345  0.1256  0.7651
  976SOL     OW 2926   0.891   1.905   2.467 -0.7117  0.0056 -0.0873
  976SOL    HW1 2927   0.876   1.881   2.565 -0.5419  0.7894 -0.2147
  976SOL    HW2 2928   0.821   1.972   2.434  0.5210 -2.1689  1.6107
  977SOL     OW 2929   0.890   2.358   0.401 -0.3269  0.2985  0.1559
  977SOL    HW1 2930   0.881   2.419   0.320  0.6534 -0.1290  0.2492
  977SOL    HW2 2931   0.946   2.275   0.374  1.1100 -1.3677  0.5766
  978SOL     OW 2932   2.857   1.788   2.356 -0.2582 -0.1662 -0.2969
  978SOL    HW1 2933   2.935   1.765   2.421 -1.9967 -2.4405 -1.5872
  978SOL    HW2 2934   2.773   1.818   2.403 -1.5449  0.3040 -1.6350
  979SOL     OW 2935   1.592   2.852   1.486 -0.2723  0.3621  0.0219
  979SOL    HW1 2936   1.635   2.861   1.394  0.7679 -0.1247 -0.5823
  979SOL    HW2 2937   1.515   2.785   1.491 -2.5099 -3.1138 -0.1687
  980SOL     OW 2938   1.484   1.193   2.663 -0.1737  0.4826 -0.3002
  980SOL    HW1 2939   1.385   1.219   2.645 -1.4764  1.8513 -0.7705
  980SOL    HW2 2940   1.536   1.272   2.624 -0.8577 -0.9149 -1.9357
  981SOL     OW 2941   2.357   0.187   1.762 -0.3204 -0.3531  0.3815
  981SOL    HW1 2942   2.321   0.283   1.754 -0.4212 -0.5003 -1.3957
  981SOL    HW2 2943   2.302   0.138   1.829  1.1786  2.3109 -1.8064
  982SOL     OW 2944   0.209   0.586   2.931 -0.7211  0.2157  0.0290
  982SOL    HW1 2945   0.213   0.560   2.834 -0.1077  0.3093  1.5684
  982SOL    HW2 2946   0.223   0.512   2.991 -3.5486  2.1434 -3.1855
  983SOL     OW 2947   2.408   1.095   2.347  0.8078 -0.3112  0.5295
  983SOL    HW1 2948   2.407   1.182   2.398  0.1797  1.0110 -0.2103
  983SOL    HW2 2949   2.409   1.010   2.405 -0.2015 -2.3395 -0.3015
  984SOL     OW 2950   1.001   0.089   2.033  0.7443 -0.1969 -0.2049
  984SOL    HW1 2951   1.047   0.004   2.062 -2.3240 -1.2193 -0.4056
  984SOL    HW2 2952   0.920   0.069   1.975 -2.3948 -2.1501 -3.2478
  985SOL     OW 2953   1.877   1.586   1.581  0.0485 -0.1192  0.3692
  985SOL    HW1 2954   1.895   1.491   1.560 -0.1081  0.8965  0.7351
  985SOL    HW2 2955   1.949   1.628   1.640 -1.5194 -1.1171  0.7972
  986SOL     OW 2956   2.451   0.678   1.738 -0.3618 -0.1792  0.0646
  986SOL    HW1 2957   2.549   0.655   1.711  1.6886 -2.3544 -1.8018
  986SOL    HW2 2958   2.408   0.739   1.669  1.8491  0.9416 -0.0724
  987SOL     OW 2959   2.845   0.885   1.308  0.1481 -0.4513  0.0916
  987SOL    HW1 2960   2.902   0.804   1.333  0.6498  1.4208 -0.7173
  987SOL    HW2 2961   2.745   0.860   1.285 -2.6423  0.6507 -1.0364
  988SOL     OW 2962   0.118   0.814   1.911  0.1288 -0.4443 -0.5355
  988SOL    HW1 2963   0.077   0.906   1.898 -0.1045  0.1994  3.9692
  988SOL    HW2 2964   0.180   0.791   1.833  0.1600  0.0244  1.3486
  989SOL     OW 2965   2.285   1.584   0.455 -0.2371  0.1155  0.2995
  989SOL    HW1 2966   2.217   1.631   0.505  1.4783 -3.1067 -0.1773
  989SOL    HW2 2967   2.247   1.514   0.394 -0.1963 -1.1538 -2.5025
  990SOL     OW 2968   1.242   0.441   2.471  0.5355 -0.4870 -0.6175
  990SOL    HW1 2969   1.308   0.367   2.498  0.5167 -0.4499  0.4434
  990SOL    HW2 2970   1.197   0.421   2.385  1.1246 -1.5301  3.6343
  991SOL     OW 2971   1.340   1.198   0.664  0.0683 -0.3933  0.4407
  991SOL    HW1 2972   1.386   1.265   0.603 -0.5203  0.1469  0.2273
  991SOL    HW2 2973   1.243   1.196   0.624  0.1073 -1.8255  2.3018
  992SOL     OW 2974   2.063   1.213   0.501 -0.0597  0.6263  0.3615
  992SOL    HW1 2975   2.028   1.303   0.464 -1.1850 -0.5971 -1.1947
  992SOL    HW2 2976   2.077   1.224   0.602 -3.1744  0.7485 -0.6302
  993SOL     OW 2977   3.084   0.826   0.577 -0.3839 -0.2605  0.1213
  993SOL    HW1 2978   2.993   0.835   0.620 -2.1832  0.6534 -0.7540
  993SOL    HW2 2979   3.108   0.730   0.572 -0.2649  2.7708 -1.9819
  994SOL     OW 2980   0.136   2.050   2.472 -0.0861 -0.1242 -0.4394
  994SOL    HW1 2981   0.049   2.076   2.519 -0.7079  0.8104 -0.3297
  994SOL    HW2 2982   0.198   1.991   2.523  2.2979 -2.0752  0.7361
  995SOL     OW 2983   2.011   1.144   2.904  0.5167 -0.2905 -0.0940
  995SOL    HW1 2984   2.058   1.052   2.902  0.4745 -2.3970 -0.0676
  995SOL    HW2 2985   1.912   1.132   2.877 -0.7239 -1.8464 -0.1953
  996SOL     OW 2986   2.427   1.101   0.209 -0.4885  0.0978  0.5660
  996SOL    HW1 2987   2.325   1.119   0.196  2.3808  2.1676 -0.1471
  996SOL    HW2 2988   2.467   1.028   0.150 -0.4340 -2.2330 -1.8795
  997SOL     OW 2989   2.028   1.177   1.760 -0.4567 -0.4170  0.9218
  997SOL    HW1 2990   2.091   1.108   1.790 -4.3832  0.7901  1.3150
  997SOL    HW2 2991   2.044   1.263   1.806 -0.4439 -3.0414 -1.2173
  998SOL     OW 2992   2.625   2.001   0.331 -0.0954 -0.0977  0.1128
  998SOL    HW1 2993   2.552   2.072   0.323  0.4582  0.0693 -2.0627
  998SOL    HW2 2994   2.579   1.910   0.329 -0.9413 -0.4408  0.2927
  999SOL     OW 2995   2.885   2.227   3.060  0.1773 -0.6180  0.2854
  999SOL    HW1 2996   2.867   2.168   0.025 -2.6065 -0.1826  3.0692
  999SOL    HW2 2997   2.960   2.290   3.081 -3.0267 -2.0309 -2.9700
 1000SOL     OW 2998   1.090   0.914   2.257 -0.1822  0.3265 -0.2865
 1000SOL    HW1 2999   1.109   0.826   2.304 -0.0708 -1.5956 -2.2318
 1000SOL    HW2 3000   1.004   0.904   2.203 -0.6985 -2.3305 -1.3099
   3.12086   3.12086   3.12086
