1000 SPC/Fw water molecules t= 268.00000 step= 268000
 3000
    1SOL     OW    1   2.768   2.403   1.129  0.1868 -0.1262 -0.0340
    1SOL    HW1    2   2.868   2.383   1.109  0.2454  1.5955  2.5407
    1SOL    HW2    3   2.747   2.507   1.129 -1.6325  1.2631 -0.5108
    2SOL     OW    4   1.866   2.084   1.170 -0.2080 -0.3668 -0.2946
    2SOL    HW1    5   1.940   2.023   1.128  0.6878 -0.1564  0.8455
    2SOL    HW2    6   1.850   2.054   1.266  1.3055 -1.7487  0.4057
    3SOL     OW    7   1.111   2.769   3.106 -0.0973 -0.2422  0.6362
    3SOL    HW1    8   1.106   2.835   3.029  0.2921 -1.5521  2.5355
    3SOL    HW2    9   1.176   2.694   3.087  1.3140  0.9972 -0.9950
    4SOL     OW   10   1.887   1.906   1.408  0.1868  0.3643 -0.2110
    4SOL    HW1   11   1.798   1.938   1.454 -1.9466  1.0455 -0.4060
    4SOL    HW2   12   1.970   1.920   1.459 -0.0559 -2.0709 -1.6128
    5SOL     OW   13   1.302   1.052   1.460 -0.1953 -0.1582 -0.2140
    5SOL    HW1   14   1.253   1.030   1.372  1.8637 -2.6169 -1.3874
    5SOL    HW2   15   1.358   1.132   1.454  0.3125 -1.6861 -0.3937
    6SOL     OW   16   2.566   3.081   3.093  0.1014 -0.5263  0.4427
    6SOL    HW1   17   2.471   3.056   3.057 -1.3694  0.3870 -0.9803
    6SOL    HW2   18   2.606   0.046   3.038 -2.7401 -1.0995  0.2621
    7SOL     OW   19   2.766   1.272   1.211  0.3145  0.3892 -0.7674
    7SOL    HW1   20   2.664   1.262   1.202  0.7626 -0.7996 -3.6710
    7SOL    HW2   21   2.796   1.366   1.204  0.9987  0.4549  1.3451
    8SOL     OW   22   1.292   2.830   0.941 -0.6944  0.0057  0.0369
    8SOL    HW1   23   1.357   2.896   0.893  3.3250 -0.4810  0.9125
    8SOL    HW2   24   1.277   2.855   1.040 -1.9279  0.6272  1.3538
    9SOL     OW   25   1.734   3.088   2.202 -0.3853  0.2030  0.2269
    9SOL    HW1   26   1.672   3.008   2.191  3.3656  2.1619  1.4210
    9SOL    HW2   27   1.701   0.062   2.149  2.5097  2.6584 -0.1288
   10SOL     OW   28   0.800   2.254   0.812 -0.0413  0.1748  0.2391
   10SOL    HW1   29   0.710   2.300   0.815 -0.0210 -0.9611 -1.7340
   10SOL    HW2   30   0.873   2.307   0.862  0.7093 -0.2062 -0.6160
   11SOL     OW   31   1.311   1.342   0.252  0.1194 -0.2708 -0.4581
   11SOL    HW1   32   1.297   1.340   0.151  0.6246  3.1781 -1.3233
   11SOL    HW2   33   1.256   1.421   0.287  0.0773 -0.5847 -0.5695
   12SOL     OW   34   2.909   2.775   1.875  0.4096  0.5669 -0.5138
   12SOL    HW1   35   2.914   2.689   1.824 -0.6918  0.9878  1.5759
   12SOL    HW2   36   3.001   2.814   1.893 -1.2984 -0.0910 -0.5096
   13SOL     OW   37   1.849   0.092   0.502  0.2642 -0.2594  0.0503
   13SOL    HW1   38   1.837   0.171   0.558  2.2460  0.2349 -2.2253
   13SOL    HW2   39   1.949   0.090   0.472  0.8964  0.5972 -0.0846
   14SOL     OW   40   1.291   2.536   1.090 -0.9217 -0.0127  0.2152
   14SOL    HW1   41   1.299   2.456   1.027 -0.0472  1.1842 -1.1199
   14SOL    HW2   42   1.300   2.622   1.034 -1.0334 -0.2945 -1.9558
   15SOL     OW   43   2.985   1.595   1.613 -0.1945  0.0453 -0.3062
   15SOL    HW1   44   3.039   1.547   1.689  0.0087 -1.1960 -0.1472
   15SOL    HW2   45   3.058   1.623   1.543  3.1996 -0.2320  1.2551
   16SOL     OW   46   2.079   2.313   0.374 -0.1088 -0.2145  0.1536
   16SOL    HW1   47   2.145   2.340   0.448 -1.3322 -1.0432 -0.5174
   16SOL    HW2   48   2.130   2.261   0.305 -0.9954 -0.3087  0.3104
   17SOL     OW   49   0.988   3.025   1.601 -0.1059  0.0924 -0.3068
   17SOL    HW1   50   1.080   3.035   1.646  0.2715 -2.7056  0.1014
   17SOL    HW2   51   0.961   0.011   1.566  0.0860  0.8110  0.4312
   18SOL     OW   52   1.189   0.883   3.053 -0.1244  0.3711  0.4197
   18SOL    HW1   53   1.164   0.954   0.014 -0.5203 -1.2506 -1.2791
   18SOL    HW2   54   1.286   0.891   3.023 -0.6602  0.1886  2.2331
   19SOL     OW   55   1.772   1.829   2.804  0.1861 -0.0539  0.1422
   19SOL    HW1   56   1.854   1.766   2.800 -1.1850  0.6521  1.0126
   19SOL    HW2   57   1.807   1.916   2.845 -0.1795 -1.4458 -0.3507
   20SOL     OW   58   2.100   1.640   1.887  0.3446 -0.0967 -0.1239
   20SOL    HW1   59   2.113   1.727   1.838  2.4443 -0.9468  0.1285
   20SOL    HW2   60   2.174   1.573   1.864  0.2193  1.3379  1.3927
   21SOL     OW   61   0.895   1.420   0.416 -0.4834 -0.1727  0.3009
   21SOL    HW1   62   0.915   1.352   0.341 -0.2798  1.4725  1.4191
   21SOL    HW2   63   0.870   1.511   0.374  0.2033 -0.9886 -0.9858
   22SOL     OW   64   2.060   0.077   1.378  0.1571 -0.0897  0.3804
   22SOL    HW1   65   2.003   0.074   1.291  0.8042  1.1326 -3.3485
   22SOL    HW2   66   2.158   0.061   1.355  1.4450 -2.6302 -0.8297
   23SOL     OW   67   2.909   0.784   1.824 -0.1493  0.3433  0.3644
   23SOL    HW1   68   2.925   0.813   1.729 -0.7952  0.4155  1.9155
   23SOL    HW2   69   2.858   0.697   1.830 -0.2925 -2.1322 -0.3506
   24SOL     OW   70   2.202   2.736   0.265  0.5725  0.2323  0.0612
   24SOL    HW1   71   2.285   2.752   0.203  0.3796  0.0387 -0.8089
   24SOL    HW2   72   2.131   2.674   0.219  1.5062 -0.4743 -1.3242
   25SOL     OW   73   1.509   3.060   2.530  0.2748  0.1990 -0.0569
   25SOL    HW1   74   1.421   3.100   2.491 -1.4373 -1.7548 -2.8611
   25SOL    HW2   75   1.597   3.095   2.487  0.8639 -1.1719 -0.5017
   26SOL     OW   76   1.789   2.248   3.089 -0.2045 -0.0512  0.3741
   26SOL    HW1   77   1.850   2.303   3.028 -0.0864  1.5668  0.1188
   26SOL    HW2   78   1.780   2.298   0.071  0.1449  2.6022 -1.8657
   27SOL     OW   79   2.847   2.034   3.102 -0.6298 -0.0102  0.3039
   27SOL    HW1   80   2.762   2.002   3.056 -1.0590 -0.7866 -1.2625
   27SOL    HW2   81   2.915   2.070   3.033 -0.8219  3.0583  1.3519
   28SOL     OW   82   0.233   0.942   1.888  0.3404  0.1768  0.5416
   28SOL    HW1   83   0.230   0.862   1.825  3.5883  2.0097 -2.1684
   28SOL    HW2   84   0.144   0.980   1.911  2.6946 -3.4368  0.7442
   29SOL     OW   85   2.422   2.305   1.363 -0.9454 -0.5778 -0.2692
   29SOL    HW1   86   2.349   2.335   1.431 -0.2338 -0.7539  0.9269
   29SOL    HW2   87   2.516   2.332   1.389  1.9079 -1.2217 -0.7009
   30SOL     OW   88   1.473   0.323   0.447  0.0143 -0.1800  0.0068
   30SOL    HW1   89   1.432   0.399   0.501 -0.7061 -0.2746  0.8515
   30SOL    HW2   90   1.566   0.347   0.416  0.2725  1.9128  1.9734
   31SOL     OW   91   2.502   2.474   1.711  0.2402  0.3116  0.1496
   31SOL    HW1   92   2.437   2.541   1.758 -1.5647  1.4656  0.7090
   31SOL    HW2   93   2.532   2.506   1.619 -1.8714 -0.0439 -0.7984
   32SOL     OW   94   0.774   1.910   1.190 -0.6985 -0.7313 -0.3393
   32SOL    HW1   95   0.794   1.952   1.097  0.6017  1.1625 -1.6732
   32SOL    HW2   96   0.718   1.974   1.245  0.8605 -3.1926 -1.6922
   33SOL     OW   97   0.582   0.001   2.714 -0.0454 -0.0235  0.1153
   33SOL    HW1   98   0.543   0.000   2.623 -1.3856  1.7836 -1.5809
   33SOL    HW2   99   0.526   3.052   2.772  2.4479  1.4610  1.5829
   34SOL     OW  100   1.323   2.911   0.551  0.6510 -0.7794  0.1914
   34SOL    HW1  101   1.367   2.966   0.629 -2.5196 -0.5355  0.3329
   34SOL    HW2  102   1.389   2.872   0.484 -1.6607 -1.8476 -2.0767
   35SOL     OW  103   2.118   3.015   1.025 -0.6245  0.1745 -0.0753
   35SOL    HW1  104   2.100   3.007   0.924  1.0242  1.2131  0.1757
   35SOL    HW2  105   2.051   3.078   1.066  2.2549  1.5668 -2.6510
   36SOL     OW  106   2.098   2.562   2.090  0.4705 -0.2760  0.0449
   36SOL    HW1  107   2.041   2.599   2.011 -1.7237  2.3046 -0.7374
   36SOL    HW2  108   2.051   2.587   2.176  2.0163 -0.7900 -1.7568
   37SOL     OW  109   0.821   0.018   2.347 -0.2114  0.3456  0.3078
   37SOL    HW1  110   0.817   3.097   2.245  2.3244  0.7944 -1.2655
   37SOL    HW2  111   0.824   0.117   2.364 -2.2924  0.5564  0.4627
   38SOL     OW  112   0.271   2.549   2.724 -0.1045 -0.0352 -0.2039
   38SOL    HW1  113   0.265   2.647   2.710  0.3869 -0.7455  2.1081
   38SOL    HW2  114   0.267   2.501   2.636  0.5607  1.4222  4.5579
   39SOL     OW  115   2.205   1.058   1.699  0.7806 -0.1626 -0.1514
   39SOL    HW1  116   2.156   1.072   1.613 -1.5238  0.9110 -0.7584
   39SOL    HW2  117   2.180   1.132   1.767 -0.4013 -2.3234  3.6997
   40SOL     OW  118   0.703   2.910   0.163  0.2713  0.6045 -0.0506
   40SOL    HW1  119   0.631   2.839   0.159 -0.7765  0.8516 -1.1394
   40SOL    HW2  120   0.687   2.988   0.231  1.1612  1.7170 -1.2277
   41SOL     OW  121   2.094   1.173   1.056 -0.3004 -0.0392 -0.3568
   41SOL    HW1  122   2.196   1.174   1.059  1.4723  0.3991 -1.6720
   41SOL    HW2  123   2.064   1.163   0.958 -1.1012 -0.1361 -0.9044
   42SOL     OW  124   0.511   0.567   1.193 -0.2302  0.0091  0.1022
   42SOL    HW1  125   0.525   0.668   1.186  1.1991 -0.0429 -1.6856
   42SOL    HW2  126   0.474   0.542   1.282 -0.1907  1.7147  0.9035
   43SOL     OW  127   2.312   1.667   2.585  0.3433  0.3146 -0.0712
   43SOL    HW1  128   2.292   1.625   2.674 -0.0694 -0.3167 -0.9564
   43SOL    HW2  129   2.347   1.592   2.525  0.8907 -0.3582 -1.1062
   44SOL     OW  130   2.737   3.099   1.381 -0.0661 -0.3601  0.2928
   44SOL    HW1  131   2.807   3.054   1.437 -3.4263  0.0259 -0.2582
   44SOL    HW2  132   2.714   0.083   1.416  0.5435 -1.4499  2.1947
   45SOL     OW  133   0.540   2.857   1.558  0.1199 -0.6371 -0.1587
   45SOL    HW1  134   0.544   2.933   1.626 -1.5068 -1.2750  0.8660
   45SOL    HW2  135   0.619   2.847   1.493  1.5341 -0.6383 -2.0525
   46SOL     OW  136   2.173   0.041   2.353 -0.0244 -0.4481 -0.0351
   46SOL    HW1  137   2.266   3.104   2.336  0.1807 -1.6762 -0.5352
   46SOL    HW2  138   2.186   0.113   2.427  1.8949 -1.1681  1.2467
   47SOL     OW  139   2.063   2.033   0.542  0.0131 -0.1361 -0.0931
   47SOL    HW1  140   2.072   1.971   0.624  2.5431 -0.4664  1.5509
   47SOL    HW2  141   2.039   1.980   0.460 -0.8705  0.3213  1.4661
   48SOL     OW  142   0.829   2.015   0.436 -0.0950  0.3987  0.3634
   48SOL    HW1  143   0.742   2.063   0.409  0.1249 -0.0421 -1.0424
   48SOL    HW2  144   0.879   1.974   0.356 -0.3183 -2.4691 -1.1146
   49SOL     OW  145   2.676   0.402   2.613  0.8330  0.4777 -0.4456
   49SOL    HW1  146   2.662   0.471   2.546 -2.0545 -2.5216  1.7738
   49SOL    HW2  147   2.602   0.332   2.609 -2.1658 -0.4523 -0.3654
   50SOL     OW  148   2.036   0.786   0.260  0.0479  0.4733 -0.1404
   50SOL    HW1  149   2.043   0.870   0.316  0.5237 -0.9526  2.0653
   50SOL    HW2  150   1.949   0.779   0.210 -3.0217 -0.1997  0.0152
   51SOL     OW  151   2.022   0.795   0.720 -0.0531  0.7191  0.6799
   51SOL    HW1  152   2.033   0.745   0.806 -0.4652  2.1053  2.8073
   51SOL    HW2  153   1.968   0.746   0.647 -1.0723  1.5024 -1.0519
   52SOL     OW  154   1.553   1.563   1.899  0.1581  0.2284 -0.0508
   52SOL    HW1  155   1.651   1.589   1.923  1.1836  0.7102 -0.5740
   52SOL    HW2  156   1.523   1.606   1.812  0.3909  0.0824  0.5217
   53SOL     OW  157   0.653   1.870   2.215 -0.1508 -0.1000 -0.0504
   53SOL    HW1  158   0.663   1.789   2.154  0.3201 -0.2509  0.4021
   53SOL    HW2  159   0.589   1.934   2.167  1.1594 -1.0479 -1.0639
   54SOL     OW  160   2.253   0.402   1.139  0.0337  0.0193  0.1284
   54SOL    HW1  161   2.320   0.461   1.089 -2.8043  2.0750 -2.9866
   54SOL    HW2  162   2.289   0.310   1.161  0.2079 -0.3852 -1.4979
   55SOL     OW  163   2.407   2.090   0.906  0.0115  0.4063 -0.4732
   55SOL    HW1  164   2.470   2.017   0.949  3.3860 -2.0452  1.2745
   55SOL    HW2  165   2.388   2.074   0.802  1.1427 -1.1855 -2.3749
   56SOL     OW  166   1.298   0.094   1.907 -0.0785 -0.0678  0.2124
   56SOL    HW1  167   1.332   0.081   2.003 -1.2898 -0.3893  1.2237
   56SOL    HW2  168   1.344   0.179   1.866  1.0056  2.2604 -0.4858
   57SOL     OW  169   1.397   1.576   0.018  0.2379  0.1015  0.4320
   57SOL    HW1  170   1.416   1.616   0.112  1.0440  1.1161 -1.0683
   57SOL    HW2  171   1.455   1.493   0.008 -0.0598  1.7319  1.2355
   58SOL     OW  172   0.110   0.603   2.410  0.5163  0.4044  0.3161
   58SOL    HW1  173   0.111   0.679   2.478 -1.8043  1.2022 -0.6331
   58SOL    HW2  174   0.181   0.531   2.436  0.3725 -0.0539 -2.0863
   59SOL     OW  175   1.257   0.155   2.801 -0.2121  0.0994  0.2671
   59SOL    HW1  176   1.167   0.173   2.841 -0.6797 -0.6346  1.1197
   59SOL    HW2  177   1.318   0.137   2.878 -2.2261  0.6410 -1.7753
   60SOL     OW  178   3.005   2.106   0.439  0.3695 -0.0559 -0.4784
   60SOL    HW1  179   3.003   2.023   0.498  2.6877 -0.9594 -1.7045
   60SOL    HW2  180   2.920   2.163   0.443 -0.1835 -0.2057  0.1386
   61SOL     OW  181   1.190   2.262   0.230 -0.0748 -0.6169 -0.7437
   61SOL    HW1  182   1.155   2.289   0.139  1.3825  1.5950 -0.0214
   61SOL    HW2  183   1.155   2.321   0.307  0.4430 -2.4246  0.0265
   62SOL     OW  184   2.039   2.306   2.461  0.1994 -0.1546  0.2145
   62SOL    HW1  185   2.097   2.229   2.492  0.9419  2.7024 -0.6129
   62SOL    HW2  186   1.947   2.280   2.428 -0.2864  0.0375 -0.3567
   63SOL     OW  187   2.141   2.172   0.088 -0.3656 -0.6611 -0.4820
   63SOL    HW1  188   2.139   2.069   0.103  1.1980 -2.2758 -0.9824
   63SOL    HW2  189   2.223   2.209   0.038 -1.8571  2.0475  0.9454
   64SOL     OW  190   1.563   1.211   2.440 -0.2572 -0.3344  0.2419
   64SOL    HW1  191   1.584   1.135   2.375  1.0255 -1.1662 -1.1246
   64SOL    HW2  192   1.490   1.194   2.511  0.2292 -1.5432  3.0992
   65SOL     OW  193   1.160   2.255   2.605 -0.0377  0.1080  0.4420
   65SOL    HW1  194   1.191   2.171   2.550 -0.1410 -0.0493 -2.9401
   65SOL    HW2  195   1.163   2.229   2.704 -0.0673 -1.4542 -1.2405
   66SOL     OW  196   0.341   1.630   2.051  0.0250 -0.3936  0.1535
   66SOL    HW1  197   0.411   1.653   2.121  0.5709  2.8229  2.3779
   66SOL    HW2  198   0.311   1.533   2.045  0.3093 -1.5119 -0.8556
   67SOL     OW  199   2.782   2.629   2.871 -0.3393  0.7462 -0.2697
   67SOL    HW1  200   2.793   2.669   2.961 -2.1641 -1.5328  0.5907
   67SOL    HW2  201   2.747   2.704   2.813  1.6479 -3.6809 -1.5375
   68SOL     OW  202   0.748   2.337   1.309 -0.3498 -0.2122 -0.5611
   68SOL    HW1  203   0.726   2.424   1.264 -0.6571 -1.3701  2.1557
   68SOL    HW2  204   0.845   2.305   1.293 -0.8162 -3.3156  0.8267
   69SOL     OW  205   0.738   2.628   0.796 -0.0124  0.3983  0.2152
   69SOL    HW1  206   0.675   2.550   0.781  0.4898  0.2831  1.3815
   69SOL    HW2  207   0.828   2.612   0.752  1.0650  0.3510 -0.1128
   70SOL     OW  208   2.673   0.854   2.815  0.0759  0.2894  0.0795
   70SOL    HW1  209   2.639   0.828   2.720  0.0801  0.9396 -0.9464
   70SOL    HW2  210   2.678   0.772   2.875  2.5027  1.7247  0.2092
   71SOL     OW  211   0.583   1.096   2.454  0.5892  0.0343  0.5978
   71SOL    HW1  212   0.647   1.049   2.389  1.0220  0.4585  2.1737
   71SOL    HW2  213   0.626   1.183   2.483  0.3250 -0.4915 -1.0216
   72SOL     OW  214   0.292   1.613   0.423 -0.3332 -0.1318  0.3339
   72SOL    HW1  215   0.347   1.613   0.333  0.5971  2.3458 -1.4532
   72SOL    HW2  216   0.326   1.676   0.495 -0.0952 -2.5797 -1.5436
   73SOL     OW  217   0.851   1.245   0.623 -0.3364 -0.1542 -0.0006
   73SOL    HW1  218   0.869   1.320   0.554  3.3214  1.1176 -0.1048
   73SOL    HW2  219   0.778   1.264   0.691  0.6392 -1.4003 -1.9884
   74SOL     OW  220   2.412   2.759   0.088 -0.8846 -0.0951  0.1881
   74SOL    HW1  221   2.508   2.783   0.111  0.9366 -0.5214 -0.5382
   74SOL    HW2  222   2.364   2.840   0.055 -1.6873  0.5544 -0.6893
   75SOL     OW  223   2.287   1.443   1.798  0.1251 -0.2753 -0.2917
   75SOL    HW1  224   2.223   1.363   1.826 -1.4529  1.0259  2.6445
   75SOL    HW2  225   2.298   1.456   1.697  0.5776 -0.2172 -0.9380
   76SOL     OW  226   2.017   2.440   1.752 -0.2212 -0.2503 -0.4494
   76SOL    HW1  227   2.048   2.540   1.746 -1.6842  0.2394 -0.1737
   76SOL    HW2  228   1.940   2.435   1.817  1.3045  1.8643 -0.1775
   77SOL     OW  229   2.463   0.459   1.904 -0.0839 -0.2298  0.4609
   77SOL    HW1  230   2.562   0.451   1.881  2.0089 -1.7440  2.4230
   77SOL    HW2  231   2.409   0.378   1.863 -1.0465 -0.9119  1.4863
   78SOL     OW  232   1.443   0.855   2.914 -0.0717  0.0899  0.2990
   78SOL    HW1  233   1.521   0.798   2.937 -2.2761 -0.7271 -1.3991
   78SOL    HW2  234   1.447   0.898   2.820 -1.0395  2.1786 -0.0606
   79SOL     OW  235   2.581   1.529   2.074  0.2931  0.0128  0.5267
   79SOL    HW1  236   2.581   1.511   1.974  1.1302  3.2460  3.6056
   79SOL    HW2  237   2.634   1.459   2.121  1.0598  1.2575 -1.5348
   80SOL     OW  238   2.000   1.355   1.242 -0.2873  0.4169 -0.2377
   80SOL    HW1  239   2.036   1.284   1.179 -0.2474  1.3363  0.1857
   80SOL    HW2  240   1.928   1.311   1.306 -1.7322 -1.5552  1.5331
   81SOL     OW  241   1.393   0.625   1.603 -0.6697 -0.3394 -0.4458
   81SOL    HW1  242   1.341   0.541   1.619 -0.4636  2.9599  0.7731
   81SOL    HW2  243   1.346   0.717   1.609  1.2039 -0.7950  1.1802
   82SOL     OW  244   1.237   2.575   1.357  0.6314 -0.2725 -0.0891
   82SOL    HW1  245   1.268   2.557   1.261  1.3513 -1.0298  1.3371
   82SOL    HW2  246   1.220   2.676   1.364  2.1953 -0.0390  1.1250
   83SOL     OW  247   0.070   0.204   0.483 -0.5060 -0.1150 -0.0602
   83SOL    HW1  248   3.088   0.169   0.446  3.4725  2.7096  1.5076
   83SOL    HW2  249   0.064   0.306   0.470 -0.7793 -0.2588 -1.0466
   84SOL     OW  250   0.246   1.032   2.864 -0.2596 -0.4888  0.3931
   84SOL    HW1  251   0.159   1.011   2.821  0.8447 -0.3144 -0.5560
   84SOL    HW2  252   0.254   0.981   2.951 -0.3167  0.9612  1.2043
   85SOL     OW  253   2.495   1.853   1.895  0.1034  0.4000  0.0646
   85SOL    HW1  254   2.446   1.800   1.824 -1.1659  1.6749 -0.2260
   85SOL    HW2  255   2.491   1.949   1.875 -0.8700 -0.7967 -0.2580
   86SOL     OW  256   2.914   1.965   1.716  0.2548  0.2898 -0.1322
   86SOL    HW1  257   2.861   1.894   1.764 -0.0684 -1.3298  0.0472
   86SOL    HW2  258   2.897   2.057   1.752 -1.2204  0.8668 -1.0459
   87SOL     OW  259   0.717   0.204   2.822 -0.4661  0.1252  0.2401
   87SOL    HW1  260   0.665   0.131   2.776 -0.3292  2.7320 -0.5622
   87SOL    HW2  261   0.726   0.187   2.926 -1.2975  1.6955  0.5916
   88SOL     OW  262   0.295   2.225   1.080  0.3114  0.2304  0.0175
   88SOL    HW1  263   0.268   2.188   0.986  0.7079 -2.0535 -2.5862
   88SOL    HW2  264   0.336   2.154   1.142 -1.1603 -3.2323 -2.7632
   89SOL     OW  265   0.960   0.620   1.615  0.5728  0.4148  0.2893
   89SOL    HW1  266   0.996   0.584   1.524  0.9420 -0.1688 -1.4148
   89SOL    HW2  267   0.996   0.573   1.699  0.9954  1.1459  1.0605
   90SOL     OW  268   2.712   1.608   1.573 -0.1154 -0.3457  0.3442
   90SOL    HW1  269   2.705   1.650   1.481 -0.3905 -0.2496 -1.5488
   90SOL    HW2  270   2.810   1.581   1.580  0.3433 -1.0875 -4.3142
   91SOL     OW  271   1.253   1.445   0.692 -0.0289  0.1345  0.4131
   91SOL    HW1  272   1.221   1.468   0.599 -0.5693  0.3706  2.9403
   91SOL    HW2  273   1.194   1.380   0.741  0.7145  1.2265  0.4341
   92SOL     OW  274   2.188   0.503   0.747 -0.0570 -0.0603  0.7502
   92SOL    HW1  275   2.230   0.559   0.677 -3.2489  0.8474  1.9020
   92SOL    HW2  276   2.131   0.560   0.812 -3.2184  1.8389  2.7470
   93SOL     OW  277   1.898   1.110   2.987  0.5278 -0.2919 -0.2876
   93SOL    HW1  278   1.812   1.094   3.041 -4.2841 -2.0662  1.5924
   93SOL    HW2  279   1.876   1.169   2.908 -0.0158  0.1560  1.3160
   94SOL     OW  280   2.325   2.128   2.263  0.2125 -0.1307  0.4155
   94SOL    HW1  281   2.254   2.170   2.205  1.2838 -1.2426  2.1152
   94SOL    HW2  282   2.306   2.029   2.259  1.8290  3.7026  2.1534
   95SOL     OW  283   2.029   0.294   0.789 -0.3492  0.4672  0.7431
   95SOL    HW1  284   2.083   0.379   0.773 -0.0433  0.2983 -0.3421
   95SOL    HW2  285   2.091   0.211   0.797 -0.9612 -1.8722  1.2177
   96SOL     OW  286   2.658   0.258   2.086 -0.0091  0.2422  0.2685
   96SOL    HW1  287   2.624   0.156   2.088 -1.7826 -1.6441  1.3393
   96SOL    HW2  288   2.587   0.318   2.126  1.6629  2.4294 -0.2726
   97SOL     OW  289   2.492   0.223   1.090  0.7501 -0.0661  0.3114
   97SOL    HW1  290   2.434   0.268   1.014  0.0939  0.8954  0.7950
   97SOL    HW2  291   2.487   0.122   1.077 -1.2860 -1.5162 -1.6826
   98SOL     OW  292   1.709   2.411   1.462 -0.1517  0.1093 -0.3673
   98SOL    HW1  293   1.619   2.459   1.445 -1.7994  0.3006 -2.3946
   98SOL    HW2  294   1.690   2.314   1.500  1.9373 -1.9807  1.2809
   99SOL     OW  295   2.242   2.204   1.866 -0.2593 -0.0003 -0.0187
   99SOL    HW1  296   2.241   2.235   1.960 -1.2955 -1.9221 -2.2917
   99SOL    HW2  297   2.190   2.267   1.808 -2.3657  2.3924 -2.5454
  100SOL     OW  298   0.433   0.691   3.068  0.2509 -0.6272 -0.2739
  100SOL    HW1  299   0.516   0.737   3.032  2.1720  0.0712  0.1798
  100SOL    HW2  300   0.358   0.760   3.088 -0.4554  1.0073 -0.4097
  101SOL     OW  301   2.028   0.485   3.012 -0.1767  0.4719  0.0075
  101SOL    HW1  302   2.066   0.531   2.928  2.1168 -2.4793  2.1760
  101SOL    HW2  303   2.108   0.463   3.072  2.0225 -2.4907 -1.9403
  102SOL     OW  304   0.218   0.702   1.740  0.5401  0.1136 -0.4158
  102SOL    HW1  305   0.150   0.723   1.670 -1.3418 -0.7629  0.4182
  102SOL    HW2  306   0.287   0.645   1.699 -0.9392  0.7803  1.0955
  103SOL     OW  307   2.842   1.112   2.571 -0.3070 -0.5414 -0.4414
  103SOL    HW1  308   2.922   1.176   2.569  1.2727  2.0501  1.5478
  103SOL    HW2  309   2.883   1.017   2.570  1.4319 -1.6073  0.5477
  104SOL     OW  310   0.632   0.284   2.538  0.0877  0.2860 -0.3039
  104SOL    HW1  311   0.639   0.261   2.638  1.9236  0.5385 -0.7186
  104SOL    HW2  312   0.721   0.311   2.488  1.9634  0.9934 -0.3944
  105SOL     OW  313   2.340   1.747   1.715 -0.2823 -0.5735 -1.0293
  105SOL    HW1  314   2.257   1.809   1.715 -0.1167 -1.5091  0.9873
  105SOL    HW2  315   2.329   1.669   1.653  1.2845 -1.2121  1.3919
  106SOL     OW  316   2.115   0.202   0.470 -0.1464  0.2196 -0.2839
  106SOL    HW1  317   2.177   0.196   0.388 -1.9751  0.2103 -0.0399
  106SOL    HW2  318   2.168   0.183   0.553 -0.5082  0.2729 -3.4480
  107SOL     OW  319   3.107   1.595   1.082  0.1028 -0.3860 -0.1514
  107SOL    HW1  320   0.042   1.587   1.176 -1.2872  2.1796 -1.5671
  107SOL    HW2  321   0.009   1.691   1.047  0.7974 -1.4117 -1.3995
  108SOL     OW  322   2.906   2.525   1.740 -0.2187 -0.1125  0.3635
  108SOL    HW1  323   3.006   2.504   1.748  1.9747 -1.6424 -0.9633
  108SOL    HW2  324   2.842   2.465   1.790  0.4304  1.2230  3.1566
  109SOL     OW  325   2.234   0.122   0.730  0.0711 -0.0124  0.6014
  109SOL    HW1  326   2.318   0.067   0.729 -1.9722  2.2607 -1.3445
  109SOL    HW2  327   2.150   0.069   0.730  0.3323  1.0815  1.0846
  110SOL     OW  328   0.453   2.180   2.623  0.1828 -0.1814  0.3674
  110SOL    HW1  329   0.404   2.252   2.572  0.1639 -2.4574  1.3287
  110SOL    HW2  330   0.514   2.132   2.561 -1.5956  0.6154  1.2069
  111SOL     OW  331   1.463   2.563   1.531 -0.0866  0.3655  0.1682
  111SOL    HW1  332   1.376   2.539   1.479 -0.6890  1.1688  0.2239
  111SOL    HW2  333   1.503   2.651   1.495 -0.0484  1.1038 -0.6318
  112SOL     OW  334   1.844   2.799   3.104  0.3845 -0.8025  0.0843
  112SOL    HW1  335   1.756   2.767   3.069 -0.1866 -0.0914  0.5187
  112SOL    HW2  336   1.824   2.889   0.040 -0.7237 -1.2154  2.3861
  113SOL     OW  337   1.944   2.526   1.367 -0.5111 -0.3565  0.0114
  113SOL    HW1  338   1.857   2.485   1.399 -0.4636  1.0671  0.7422
  113SOL    HW2  339   2.005   2.472   1.309  2.5921  1.3114  0.3544
  114SOL     OW  340   2.838   0.854   0.886  0.4735 -0.3414  0.0300
  114SOL    HW1  341   2.736   0.837   0.889  0.8667 -0.2040  1.2426
  114SOL    HW2  342   2.876   0.866   0.795  1.7974  0.1763  2.4786
  115SOL     OW  343   0.640   1.011   0.004 -0.0646 -0.0786 -0.1040
  115SOL    HW1  344   0.545   1.025   0.029  0.1378 -0.7701  2.1444
  115SOL    HW2  345   0.672   0.935   0.065 -0.6256  2.3985  0.3933
  116SOL     OW  346   2.648   1.776   2.124  0.1495  0.4050  0.2396
  116SOL    HW1  347   2.619   1.680   2.107 -1.2951 -0.6725 -1.8291
  116SOL    HW2  348   2.601   1.835   2.052 -2.6101  0.2793 -1.4976
  117SOL     OW  349   2.865   2.406   0.729  0.0868 -0.0608  0.2536
  117SOL    HW1  350   2.850   2.305   0.744  1.6929 -4.4476 -1.4425
  117SOL    HW2  351   2.783   2.456   0.697 -0.0304  1.0257 -0.4427
  118SOL     OW  352   1.132   2.481   1.715  0.0698  0.0298 -0.3612
  118SOL    HW1  353   1.190   2.412   1.759 -1.9783 -1.7640  2.0684
  118SOL    HW2  354   1.114   2.562   1.776 -1.7894  1.5645  0.6041
  119SOL     OW  355   0.116   1.832   2.696 -0.2936  1.0980  0.3350
  119SOL    HW1  356   0.114   1.893   2.774 -1.6739 -1.1547 -3.3640
  119SOL    HW2  357   0.138   1.736   2.726 -1.2331  1.8746  0.4363
  120SOL     OW  358   1.049   0.982   2.850 -0.7015 -0.1379  0.6163
  120SOL    HW1  359   0.983   1.040   2.894  1.4884 -2.0107 -3.0790
  120SOL    HW2  360   1.114   0.936   2.916 -0.0950  1.2435 -1.6218
  121SOL     OW  361   1.628   2.732   0.961 -0.5260  0.9300  0.4151
  121SOL    HW1  362   1.647   2.633   0.947 -0.1636 -0.1892 -0.6516
  121SOL    HW2  363   1.628   2.777   0.871  1.3411 -0.7948 -2.4643
  122SOL     OW  364   2.253   2.362   1.563  0.3835  0.3476  0.3483
  122SOL    HW1  365   2.155   2.359   1.580  3.1919 -0.7466 -3.9260
  122SOL    HW2  366   2.302   2.418   1.628  1.0372 -1.4687 -0.6226
  123SOL     OW  367   0.380   2.646   0.746 -0.1001 -0.7657 -0.0856
  123SOL    HW1  368   0.445   2.585   0.697 -1.2249  0.7138  1.0377
  123SOL    HW2  369   0.430   2.714   0.806  0.4299  2.8318  1.1654
  124SOL     OW  370   2.224   1.357   2.566  0.5738 -0.4623 -0.0241
  124SOL    HW1  371   2.268   1.404   2.487 -2.4771 -2.7282  0.5727
  124SOL    HW2  372   2.287   1.334   2.642 -1.6293  0.8131 -1.3085
  125SOL     OW  373   0.616   0.812   0.555 -0.1824 -0.1093 -0.0680
  125SOL    HW1  374   0.522   0.819   0.583  1.8558 -2.1183 -1.3275
  125SOL    HW2  375   0.660   0.905   0.537  1.6968  1.3821  1.0857
  126SOL     OW  376   3.067   1.260   0.724  0.3133 -0.4265 -0.2704
  126SOL    HW1  377   2.982   1.240   0.672  0.6677 -1.2024  2.2093
  126SOL    HW2  378   3.087   1.361   0.738  1.0966 -0.9219  2.9505
  127SOL     OW  379   0.254   1.854   1.894 -0.2798 -0.2879  0.5098
  127SOL    HW1  380   0.303   1.776   1.935 -0.7578  0.1724 -3.1139
  127SOL    HW2  381   0.322   1.928   1.866  0.8548  0.7899  0.0179
  128SOL     OW  382   0.920   0.989   0.237 -0.4585  0.4192 -0.0144
  128SOL    HW1  383   1.004   1.012   0.178  0.4878 -2.5608 -0.5741
  128SOL    HW2  384   0.887   0.898   0.200  2.6855 -0.2514  0.7429
  129SOL     OW  385   2.698   1.299   0.820 -0.3955 -0.5871  0.3713
  129SOL    HW1  386   2.601   1.322   0.842  0.9092 -0.2756  0.7451
  129SOL    HW2  387   2.730   1.219   0.878 -1.8789  1.1237 -1.4931
  130SOL     OW  388   2.334   0.928   1.249  0.1030  0.0398  0.5172
  130SOL    HW1  389   2.410   0.938   1.311 -0.1534  1.9338 -1.1966
  130SOL    HW2  390   2.342   0.995   1.174  0.2782  2.1197 -1.7000
  131SOL     OW  391   2.880   0.035   2.865 -0.0642  0.3672  0.4409
  131SOL    HW1  392   2.920   3.060   2.816  2.9374 -0.2481 -0.0504
  131SOL    HW2  393   2.955   0.093   2.896 -1.2608 -3.0862 -0.6739
  132SOL     OW  394   0.103   1.557   1.324  0.1555 -0.7409 -0.8068
  132SOL    HW1  395   0.096   1.658   1.347  1.6544  1.3280 -1.9158
  132SOL    HW2  396   0.178   1.512   1.377  2.9925  2.8300 -0.3476
  133SOL     OW  397   1.391   0.316   1.312  0.0932  0.7922 -0.8017
  133SOL    HW1  398   1.363   0.408   1.294  0.1602 -1.5296 -0.4129
  133SOL    HW2  399   1.474   0.313   1.371  2.2852 -1.3036  1.4226
  134SOL     OW  400   0.049   1.585   0.035 -0.4867 -0.2648  0.2792
  134SOL    HW1  401   0.023   1.489   0.015 -0.4108 -0.0353 -1.3112
  134SOL    HW2  402   3.101   1.649   3.085  0.7279 -0.5189  0.7289
  135SOL     OW  403   2.073   1.084   1.462  0.2538 -0.4657 -0.4573
  135SOL    HW1  404   2.034   1.000   1.498 -0.9019 -0.9686  1.0539
  135SOL    HW2  405   2.127   1.073   1.372 -1.8858  0.4720 -1.8087
  136SOL     OW  406   0.073   1.035   0.398 -0.4333 -0.3530  0.1932
  136SOL    HW1  407   3.092   1.009   0.353  0.0104 -0.9405  0.4280
  136SOL    HW2  408   0.080   1.136   0.407 -0.2952  0.3697 -0.6820
  137SOL     OW  409   2.803   1.112   1.012 -0.3349  0.0282  0.1179
  137SOL    HW1  410   2.895   1.081   0.985  0.3888  1.7300  2.0931
  137SOL    HW2  411   2.805   1.179   1.090 -0.3951 -1.7833 -2.1524
  138SOL     OW  412   1.529   1.058   0.951  0.0440 -0.4318 -0.6413
  138SOL    HW1  413   1.454   1.013   1.003 -0.0931  1.8260 -0.9443
  138SOL    HW2  414   1.592   0.994   0.913 -0.3574  1.3962 -1.1804
  139SOL     OW  415   1.977   3.102   2.825  0.2878 -0.6705  0.2091
  139SOL    HW1  416   1.997   3.006   2.841 -1.1154  1.2622 -1.0595
  139SOL    HW2  417   1.910   0.034   2.892  3.8906 -0.3231 -0.0627
  140SOL     OW  418   1.443   1.957   1.431 -0.1505 -0.0864 -0.3113
  140SOL    HW1  419   1.371   1.923   1.371  2.5467  0.8705 -0.3617
  140SOL    HW2  420   1.470   2.048   1.397 -1.8422  2.4560 -0.5669
  141SOL     OW  421   1.786   2.110   0.471 -0.1651 -0.4375  0.2416
  141SOL    HW1  422   1.875   2.114   0.512 -3.6418 -0.4428  0.0125
  141SOL    HW2  423   1.748   2.202   0.453 -2.1012  1.9101 -0.4540
  142SOL     OW  424   0.701   0.789   0.144 -0.3688 -0.3113 -0.1100
  142SOL    HW1  425   0.613   0.735   0.146 -2.5162  0.2520 -0.5056
  142SOL    HW2  426   0.779   0.737   0.177 -0.4684 -0.6314 -2.3363
  143SOL     OW  427   0.437   2.049   0.144 -0.2116  0.6701  0.1479
  143SOL    HW1  428   0.352   1.995   0.143 -1.1801  0.1298  0.9517
  143SOL    HW2  429   0.423   2.125   0.082  0.5845 -0.4069 -0.4555
  144SOL     OW  430   1.686   3.099   1.175  0.6704  0.0769  0.0482
  144SOL    HW1  431   1.669   0.078   1.229 -0.3552 -0.1094 -0.0291
  144SOL    HW2  432   1.673   3.009   1.226  1.5753 -0.8209  0.2629
  145SOL     OW  433   2.162   1.465   0.530  0.0703  0.8846 -0.2111
  145SOL    HW1  434   2.209   1.387   0.574 -0.0055  1.0373 -0.1372
  145SOL    HW2  435   2.075   1.445   0.475 -0.9786 -1.1361 -1.1594
  146SOL     OW  436   3.013   1.808   0.462 -0.7156  0.3835 -0.1577
  146SOL    HW1  437   2.916   1.796   0.440  0.7173 -3.0632 -1.4189
  146SOL    HW2  438   3.063   1.733   0.417 -2.3359 -1.1600 -1.4298
  147SOL     OW  439   2.313   2.970   1.634 -0.1061 -0.0499 -0.2286
  147SOL    HW1  440   2.277   2.908   1.566  3.2790 -0.5447  1.2759
  147SOL    HW2  441   2.413   2.949   1.647 -0.9813  0.7331 -0.0534
  148SOL     OW  442   1.645   2.841   2.090 -0.6193  0.1712 -0.1957
  148SOL    HW1  443   1.638   2.863   1.992 -0.4906  0.7515 -2.0776
  148SOL    HW2  444   1.551   2.831   2.129 -0.2703 -3.8742 -1.6900
  149SOL     OW  445   1.861   0.655   2.208 -0.2567 -0.5488 -0.8088
  149SOL    HW1  446   1.884   0.737   2.152  0.8291 -0.8614 -2.9095
  149SOL    HW2  447   1.951   0.610   2.232  1.6190  0.1660 -0.1237
  150SOL     OW  448   0.066   2.934   0.539 -0.2402  0.8833 -0.3559
  150SOL    HW1  449   0.094   2.888   0.624 -2.2423 -0.5321 -0.4196
  150SOL    HW2  450   0.142   2.933   0.471  0.3918  1.4392  0.4731
  151SOL     OW  451   0.201   1.875   0.190 -0.2258 -0.6266 -0.2970
  151SOL    HW1  452   0.140   1.827   0.128  1.9158  0.7270  1.8641
  151SOL    HW2  453   0.160   1.944   0.251  0.0485 -1.0270 -0.3314
  152SOL     OW  454   2.937   3.097   0.855 -0.6279  0.0864 -0.0004
  152SOL    HW1  455   2.996   3.019   0.886  2.2697 -0.4988  2.2848
  152SOL    HW2  456   2.853   3.101   0.911  1.7997  0.8217  0.4183
  153SOL     OW  457   2.483   3.045   1.021 -0.5334 -0.2864 -0.0175
  153SOL    HW1  458   2.479   3.016   1.118 -1.2241 -0.1902 -0.6159
  153SOL    HW2  459   2.469   2.963   0.958 -0.9951 -0.1810  3.2704
  154SOL     OW  460   1.092   0.469   1.787 -0.2138  0.1560  0.3267
  154SOL    HW1  461   1.185   0.431   1.773  0.8020 -0.6818 -0.5859
  154SOL    HW2  462   1.050   0.446   1.876 -1.1879  0.8489  0.8502
  155SOL     OW  463   2.995   1.067   1.224 -0.5053  0.3664  0.1155
  155SOL    HW1  464   2.975   1.075   1.125  1.3852 -0.8617 -0.4917
  155SOL    HW2  465   2.974   1.155   1.269  0.1315 -0.3585 -1.6646
  156SOL     OW  466   0.101   1.992   2.918 -0.3291 -0.2375 -0.1619
  156SOL    HW1  467   0.164   1.997   2.998  0.9574 -0.8803 -0.2731
  156SOL    HW2  468   0.028   2.059   2.921  0.2469  0.2662 -0.8729
  157SOL     OW  469   0.825   0.415   0.303  0.3887  0.2858 -0.0295
  157SOL    HW1  470   0.727   0.431   0.301  0.7993 -0.1399 -1.5540
  157SOL    HW2  471   0.871   0.504   0.297  1.0200 -0.7651 -0.9834
  158SOL     OW  472   2.653   3.086   2.680  0.5445  0.1542  0.5157
  158SOL    HW1  473   2.718   0.033   2.736  0.4082 -1.5247 -1.7546
  158SOL    HW2  474   2.571   0.038   2.653 -1.3808  3.9530 -0.7444
  159SOL     OW  475   0.678   0.052   0.332  0.1290 -0.2356  0.3588
  159SOL    HW1  476   0.766   0.094   0.296 -0.0234  0.3003  0.8419
  159SOL    HW2  477   0.598   0.100   0.296  1.7297 -0.1916 -0.6676
  160SOL     OW  478   1.146   2.163   2.860 -0.0551  0.0428  0.1440
  160SOL    HW1  479   1.068   2.223   2.884  0.2159  0.6879  1.6383
  160SOL    HW2  480   1.187   2.122   2.940 -0.5190  3.2484 -1.5437
  161SOL     OW  481   3.079   1.619   2.360  0.0881 -0.5091  0.6406
  161SOL    HW1  482   0.013   1.643   2.269 -1.0385  1.0566  1.2324
  161SOL    HW2  483   2.983   1.655   2.366  2.4567 -2.3969 -1.3263
  162SOL     OW  484   0.456   2.467   1.604  0.3518 -0.6973 -0.0978
  162SOL    HW1  485   0.423   2.540   1.671 -1.0622  0.9455 -1.1828
  162SOL    HW2  486   0.419   2.488   1.510  0.3800 -0.3995 -0.0158
  163SOL     OW  487   2.150   0.608   2.784 -0.1762  0.2341 -0.1354
  163SOL    HW1  488   2.151   0.711   2.784  1.2463  0.4252  1.0511
  163SOL    HW2  489   2.096   0.574   2.704  0.9734  2.4951 -1.2515
  164SOL     OW  490   2.833   1.263   0.582 -0.0543 -0.5205 -0.1061
  164SOL    HW1  491   2.845   1.354   0.539  1.7956 -1.7379  2.2162
  164SOL    HW2  492   2.755   1.259   0.646 -1.1069  4.7988  0.3451
  165SOL     OW  493   0.265   0.203   1.636 -0.1468  0.2443  0.5589
  165SOL    HW1  494   0.285   0.108   1.673 -2.3242 -2.4569 -0.7128
  165SOL    HW2  495   0.349   0.255   1.623 -0.3206 -0.9253 -0.8376
  166SOL     OW  496   1.885   0.631   0.563  0.5841 -0.2297 -0.7264
  166SOL    HW1  497   1.793   0.656   0.528  0.5217 -1.8828  1.4877
  166SOL    HW2  498   1.918   0.543   0.525  2.5105 -0.2497  1.1231
  167SOL     OW  499   0.301   0.635   0.331  0.4771  0.0658  0.2951
  167SOL    HW1  500   0.399   0.629   0.358 -0.6809 -1.2093  1.1836
  167SOL    HW2  501   0.282   0.735   0.315 -1.5667  0.4014  1.5544
  168SOL     OW  502   1.966   2.907   1.847 -0.0678 -0.1797  0.8137
  168SOL    HW1  503   2.025   2.960   1.916 -0.1983  0.3678  2.8858
  168SOL    HW2  504   1.952   2.960   1.761  1.1855 -0.3514  0.1155
  169SOL     OW  505   0.831   1.027   0.931 -0.1767 -0.4321  0.1723
  169SOL    HW1  506   0.881   0.937   0.935 -1.5253 -0.4571  0.3805
  169SOL    HW2  507   0.865   1.097   1.000 -0.8442  0.2141  3.1206
  170SOL     OW  508   3.004   0.246   1.358  0.2001  0.5889  0.5465
  170SOL    HW1  509   3.039   0.197   1.275  1.6898  0.5320  0.0328
  170SOL    HW2  510   3.082   0.276   1.422 -1.3857  2.3417  0.8487
  171SOL     OW  511   1.151   2.835   2.586  0.6956 -0.1651  0.2686
  171SOL    HW1  512   1.122   2.790   2.669 -1.2027 -0.5549 -1.5215
  171SOL    HW2  513   1.129   2.936   2.592 -1.7966 -1.1858  1.2855
  172SOL     OW  514   0.419   2.553   1.366 -0.0132 -0.0779  0.1408
  172SOL    HW1  515   0.503   2.534   1.308  0.7314  2.5385 -0.1072
  172SOL    HW2  516   0.396   2.651   1.357  0.0150 -2.0860  0.0199
  173SOL     OW  517   1.403   1.115   2.643 -0.7128  0.3998  0.5295
  173SOL    HW1  518   1.328   1.071   2.587  0.9470 -1.1192 -0.8526
  173SOL    HW2  519   1.483   1.054   2.653 -0.7273  0.2946 -1.4291
  174SOL     OW  520   1.962   3.103   2.542 -0.4255 -0.0812 -0.1944
  174SOL    HW1  521   1.981   0.003   2.644 -0.4608  0.7854  1.1083
  174SOL    HW2  522   2.036   0.028   2.479 -0.1767  0.5253  1.5213
  175SOL     OW  523   1.915   2.522   0.324  0.3527 -0.0132 -0.3663
  175SOL    HW1  524   1.960   2.560   0.242 -0.7714 -3.3160  0.9603
  175SOL    HW2  525   1.970   2.446   0.359 -1.6772  2.4024  0.6545
  176SOL     OW  526   1.839   0.399   2.827  0.0448  0.1266  0.2992
  176SOL    HW1  527   1.887   0.410   2.912 -1.3007 -0.5247  1.5583
  176SOL    HW2  528   1.751   0.351   2.843 -0.6188 -1.2407  1.0382
  177SOL     OW  529   1.149   1.504   0.434  0.1651 -0.3722  0.5258
  177SOL    HW1  530   1.149   1.602   0.419  0.8937 -0.6111  0.7513
  177SOL    HW2  531   1.060   1.458   0.445 -0.6579  0.4732 -1.4530
  178SOL     OW  532   2.978   2.163   2.903 -0.2794 -0.2929 -0.0326
  178SOL    HW1  533   2.988   2.264   2.900 -0.5806  0.7721  0.5126
  178SOL    HW2  534   2.948   2.122   2.811  1.8161 -2.0829  0.2494
  179SOL     OW  535   0.459   2.954   2.917  0.4241 -0.4954 -0.0176
  179SOL    HW1  536   0.512   2.871   2.893  2.1468 -0.2611 -0.5523
  179SOL    HW2  537   0.386   2.926   2.982 -2.6631  0.2040  0.1737
  180SOL     OW  538   1.493   1.585   0.712  0.1047 -0.0021 -0.0087
  180SOL    HW1  539   1.488   1.683   0.700  0.5202 -3.8350 -2.6280
  180SOL    HW2  540   1.404   1.538   0.704 -0.7784 -0.0849  0.4634
  181SOL     OW  541   2.255   0.788   2.177  0.2463  0.1491 -0.4452
  181SOL    HW1  542   2.162   0.825   2.160  2.7418  2.8798  2.2937
  181SOL    HW2  543   2.255   0.705   2.234  2.4416 -1.2951 -0.0644
  182SOL     OW  544   0.114   2.817   2.455  0.2786  0.2289  0.1723
  182SOL    HW1  545   0.065   2.907   2.445 -0.0718 -0.0716 -1.6588
  182SOL    HW2  546   0.064   2.755   2.391 -2.0847 -0.5049 -0.7352
  183SOL     OW  547   1.377   0.782   2.339  0.2084 -0.1356 -0.0484
  183SOL    HW1  548   1.481   0.783   2.343  3.7447 -0.6676  0.3017
  183SOL    HW2  549   1.350   0.766   2.243  3.3476  0.0173 -2.1418
  184SOL     OW  550   0.555   0.815   1.832 -0.0254  0.5253 -0.2832
  184SOL    HW1  551   0.651   0.803   1.806 -0.7514  0.8424 -0.9362
  184SOL    HW2  552   0.534   0.821   1.928  2.8685 -0.3065 -2.5058
  185SOL     OW  553   1.961   1.110   0.508  0.5737 -0.2674  0.4353
  185SOL    HW1  554   1.970   1.200   0.464 -1.0848 -0.7014 -0.2341
  185SOL    HW2  555   2.042   1.059   0.477 -0.6759  1.6014  0.4224
  186SOL     OW  556   0.308   2.228   3.073  0.4980 -0.2154 -0.1297
  186SOL    HW1  557   0.341   2.167   3.002 -0.6868  0.5898  1.2043
  186SOL    HW2  558   0.213   2.205   3.107 -0.9125  0.4862  0.3914
  187SOL     OW  559   2.500   1.196   0.100 -0.8389  0.5395  0.5947
  187SOL    HW1  560   2.430   1.142   0.052 -0.4615  0.0040 -1.1328
  187SOL    HW2  561   2.494   1.182   0.201 -0.0308  0.4352 -0.3517
  188SOL     OW  562   0.005   1.508   0.829  0.4008 -0.5300  0.0709
  188SOL    HW1  563   3.089   1.515   0.927  1.0272  1.6244 -0.5339
  188SOL    HW2  564   3.082   1.590   0.775  0.5721 -1.8522  1.9270
  189SOL     OW  565   2.498   0.147   0.192  0.0484 -0.4075 -0.1752
  189SOL    HW1  566   2.527   0.073   0.130 -0.4508 -1.0341  0.2696
  189SOL    HW2  567   2.525   0.132   0.291  0.8263  1.5754  1.6369
  190SOL     OW  568   1.218   1.653   1.979  0.0618 -0.3145 -0.5211
  190SOL    HW1  569   1.157   1.583   2.024 -1.6532  0.8212  1.6124
  190SOL    HW2  570   1.300   1.620   1.942 -1.6804  0.8301  1.0200
  191SOL     OW  571   2.875   0.512   1.731  0.1013 -0.3883 -0.1789
  191SOL    HW1  572   2.902   0.530   1.633 -0.7124  1.8309 -1.7110
  191SOL    HW2  573   2.800   0.442   1.739  3.0433  0.0619 -2.0551
  192SOL     OW  574   1.845   1.445   1.027 -0.2058  0.0238 -0.0870
  192SOL    HW1  575   1.873   1.421   1.121 -3.7791  2.2066 -2.6919
  192SOL    HW2  576   1.892   1.530   0.996  0.1963 -2.7078  2.2967
  193SOL     OW  577   0.920   0.776   0.938  0.2105 -0.2367  0.1579
  193SOL    HW1  578   0.858   0.740   0.867  0.3025 -1.4855  0.9226
  193SOL    HW2  579   0.885   0.773   1.032  0.6477  1.2752  1.1110
  194SOL     OW  580   1.049   2.412   1.459 -0.1330  0.3470 -0.0801
  194SOL    HW1  581   1.100   2.481   1.410 -0.6310 -1.0534 -0.7184
  194SOL    HW2  582   1.076   2.422   1.553  1.0586  0.3312 -1.9977
  195SOL     OW  583   2.420   0.510   2.785 -0.3119  0.2169  0.1009
  195SOL    HW1  584   2.443   0.418   2.814 -0.1232  2.2858  0.8531
  195SOL    HW2  585   2.318   0.528   2.792 -1.7342  0.7398 -0.0260
  196SOL     OW  586   1.035   2.677   1.868  0.3297  0.2992 -0.1806
  196SOL    HW1  587   0.996   2.603   1.926  1.3309  2.0792 -1.6994
  196SOL    HW2  588   0.965   2.750   1.859  0.3376 -2.5449 -1.0883
  197SOL     OW  589   0.885   2.623   1.024  0.2413 -0.3583 -0.8060
  197SOL    HW1  590   0.828   2.630   0.942  0.3512  0.3450  0.8337
  197SOL    HW2  591   0.947   2.705   1.037 -1.0168 -1.4627 -0.8301
  198SOL     OW  592   0.785   0.670   0.723 -0.2642  0.6625 -0.4516
  198SOL    HW1  593   0.729   0.593   0.758  2.5777  1.3177 -0.8159
  198SOL    HW2  594   0.724   0.736   0.676  0.6641 -1.7051  0.7947
  199SOL     OW  595   0.267   2.742   1.971  0.2996 -0.0190  0.3730
  199SOL    HW1  596   0.298   2.687   2.052 -1.9081 -1.6486  0.7742
  199SOL    HW2  597   0.312   2.710   1.884  2.4572  0.0580 -2.0749
  200SOL     OW  598   1.997   1.923   2.296  0.4427 -0.5506 -0.2264
  200SOL    HW1  599   2.087   1.917   2.245  3.4771 -0.9441  2.2947
  200SOL    HW2  600   2.008   1.990   2.371 -1.0620 -0.0156 -1.9060
  201SOL     OW  601   3.030   2.184   1.527  0.0816  0.7846  0.0420
  201SOL    HW1  602   2.941   2.143   1.503  1.2326  0.5072 -0.2397
  201SOL    HW2  603   3.022   2.206   1.623 -2.2156 -0.3181 -1.9116
  202SOL     OW  604   2.801   3.051   0.360  0.3897  0.0901  0.1968
  202SOL    HW1  605   2.857   3.022   0.443  2.8712  0.5575  2.5376
  202SOL    HW2  606   2.790   2.967   0.304  0.1260 -2.0778  0.0965
  203SOL     OW  607   1.062   2.132   2.146  0.2967 -0.1750 -0.2751
  203SOL    HW1  608   0.977   2.130   2.093  2.8431 -1.6185  2.1305
  203SOL    HW2  609   1.099   2.039   2.152 -2.0217  3.5261  0.1641
  204SOL     OW  610   1.427   2.213   1.317 -0.4132 -0.2912  0.4540
  204SOL    HW1  611   1.449   2.303   1.268 -0.0694  3.4028 -1.6254
  204SOL    HW2  612   1.345   2.214   1.380 -0.5745  0.8984  1.2059
  205SOL     OW  613   0.872   1.649   1.774  0.3548  0.1061  0.2229
  205SOL    HW1  614   0.893   1.605   1.860 -0.1698 -1.3222 -1.6977
  205SOL    HW2  615   0.820   1.580   1.715  2.7120 -0.6051 -0.7728
  206SOL     OW  616   0.361   0.459   2.882 -0.0702  0.6208 -0.1312
  206SOL    HW1  617   0.385   0.546   2.933 -0.1475  0.2747  1.4133
  206SOL    HW2  618   0.381   0.464   2.777  0.3861 -0.2161 -3.6589
  207SOL     OW  619   1.001   0.081   1.936 -0.3813 -0.1160  0.0754
  207SOL    HW1  620   0.960   0.172   1.916 -0.5503 -0.1184 -0.8550
  207SOL    HW2  621   1.102   0.089   1.946  0.1559  2.0195 -0.8006
  208SOL     OW  622   0.671   2.432   1.886 -0.9168 -0.2158 -0.1256
  208SOL    HW1  623   0.751   2.489   1.917 -1.4851  1.4443  1.5100
  208SOL    HW2  624   0.669   2.430   1.785  0.2927 -0.6562  1.2098
  209SOL     OW  625   1.646   0.696   2.973  0.0806 -0.1296 -0.0566
  209SOL    HW1  626   1.580   0.631   2.927  1.4631  0.8961  1.9881
  209SOL    HW2  627   1.707   0.642   3.034 -1.1136  0.9548 -3.3194
  210SOL     OW  628   3.042   0.516   0.823  0.3361  0.1699 -0.2302
  210SOL    HW1  629   3.016   0.579   0.896  0.4579 -0.1424  0.0950
  210SOL    HW2  630   3.023   0.421   0.851  1.5348 -0.4510  0.6832
  211SOL     OW  631   0.800   0.801   1.479 -0.8180  0.4811  0.2978
  211SOL    HW1  632   0.880   0.745   1.524  2.8773 -2.0799  3.3649
  211SOL    HW2  633   0.718   0.742   1.478 -0.1843 -0.1328 -0.1624
  212SOL     OW  634   1.435   1.839   0.623 -0.2291  0.3748 -0.6473
  212SOL    HW1  635   1.337   1.850   0.598  1.2674 -0.3412 -0.4438
  212SOL    HW2  636   1.463   1.907   0.694  2.0503 -1.1401  2.2090
  213SOL     OW  637   1.939   0.236   1.937  0.0974 -0.0939 -0.3417
  213SOL    HW1  638   1.975   0.186   1.854 -0.2476 -1.1856  0.8976
  213SOL    HW2  639   1.955   0.190   2.030  0.1801 -1.9057 -0.0532
  214SOL     OW  640   1.113   2.619   2.787  0.1436  0.2538  0.3066
  214SOL    HW1  641   1.154   2.591   2.873 -0.1356 -0.8534  1.3778
  214SOL    HW2  642   1.170   2.605   2.705 -0.8914  0.4274  1.4483
  215SOL     OW  643   2.698   1.707   1.317 -0.4843  0.1891 -0.0188
  215SOL    HW1  644   2.612   1.737   1.269  0.2648  0.1036  0.0425
  215SOL    HW2  645   2.748   1.639   1.255  0.2942  0.6537 -1.8630
  216SOL     OW  646   0.319   0.506   2.060  0.3795 -0.0329  0.2037
  216SOL    HW1  647   0.232   0.469   2.100 -0.3228 -0.1702  3.2684
  216SOL    HW2  648   0.369   0.562   2.131  3.7343  1.3134  2.4678
  217SOL     OW  649   2.978   0.149   0.314  0.1623  0.1409  0.2948
  217SOL    HW1  650   2.948   0.243   0.279  0.7176 -2.6957  0.0309
  217SOL    HW2  651   2.900   0.082   0.311 -3.1258 -0.1679 -0.5644
  218SOL     OW  652   1.667   1.921   1.565  0.1031 -0.7264  0.1916
  218SOL    HW1  653   1.693   1.845   1.629  1.7307 -1.9090 -0.1206
  218SOL    HW2  654   1.583   1.906   1.508 -0.8024 -0.5456 -1.6025
  219SOL     OW  655   1.711   0.761   0.263 -0.3966 -0.0533 -0.1568
  219SOL    HW1  656   1.650   0.685   0.231  3.0582  3.5717  1.3362
  219SOL    HW2  657   1.649   0.840   0.280 -1.4989 -1.1981  0.3454
  220SOL     OW  658   1.695   2.073   0.804 -0.1998  0.6513 -0.9380
  220SOL    HW1  659   1.596   2.066   0.795  1.3234  1.5603 -0.3689
  220SOL    HW2  660   1.745   1.981   0.815  0.2872  0.4232  0.5298
  221SOL     OW  661   0.194   0.455   0.147  0.0823  0.3589 -0.0420
  221SOL    HW1  662   0.170   0.475   0.049 -1.9477 -0.9846 -1.5105
  221SOL    HW2  663   0.217   0.538   0.200  0.0002 -0.0456 -3.2750
  222SOL     OW  664   0.819   2.848   1.748 -0.5492 -0.3012  0.0825
  222SOL    HW1  665   0.877   2.923   1.711 -0.3026  0.6291 -1.1548
  222SOL    HW2  666   0.838   2.757   1.700 -1.4996 -2.1641 -0.9690
  223SOL     OW  667   1.493   0.523   2.826  0.4444  0.2397  0.5797
  223SOL    HW1  668   1.516   0.434   2.863 -0.1089  0.0908 -4.7369
  223SOL    HW2  669   1.406   0.528   2.770 -0.0934  2.7346 -1.2468
  224SOL     OW  670   2.777   0.590   1.252  0.2008 -0.2554  0.3143
  224SOL    HW1  671   2.850   0.559   1.319 -1.4080  1.6472  0.0766
  224SOL    HW2  672   2.703   0.518   1.254 -0.7277 -3.5249  3.8522
  225SOL     OW  673   0.718   1.474   1.637 -0.4165 -0.6210  0.2280
  225SOL    HW1  674   0.696   1.535   1.561 -0.0555  2.2984  1.2526
  225SOL    HW2  675   0.658   1.394   1.634 -0.4058  0.2823  0.5429
  226SOL     OW  676   0.853   0.189   0.715  0.2463 -0.3811 -0.3460
  226SOL    HW1  677   0.784   0.117   0.697 -0.0897  0.3284 -3.3191
  226SOL    HW2  678   0.914   0.168   0.795  1.8522  0.5204 -1.6142
  227SOL     OW  679   0.635   1.894   1.530 -0.1410 -0.0861 -0.0335
  227SOL    HW1  680   0.653   1.965   1.457  0.8008  1.2747 -1.1848
  227SOL    HW2  681   0.635   1.799   1.492 -0.5577  0.2401  2.7438
  228SOL     OW  682   0.588   3.027   1.792 -0.0656 -0.5960 -0.1793
  228SOL    HW1  683   0.674   2.971   1.786  1.9523 -2.8634 -1.0001
  228SOL    HW2  684   0.598   3.097   1.863 -1.1456 -2.9351  1.3643
  229SOL     OW  685   2.470   0.768   0.660 -0.1451  0.4693 -0.0080
  229SOL    HW1  686   2.436   0.687   0.612  0.7872  0.8288 -0.4689
  229SOL    HW2  687   2.544   0.811   0.610 -0.8293  2.3381 -2.0409
  230SOL     OW  688   0.417   1.198   2.224 -0.5898 -0.2696  0.8664
  230SOL    HW1  689   0.419   1.166   2.320 -2.1895  1.1729  1.1522
  230SOL    HW2  690   0.490   1.152   2.171 -0.9331  0.5375  0.2756
  231SOL     OW  691   1.264   2.869   1.215 -0.0701  0.2411 -0.2906
  231SOL    HW1  692   1.354   2.917   1.235  5.5211 -0.1764  3.6432
  231SOL    HW2  693   1.204   2.877   1.300 -0.9928  1.0141 -1.3158
  232SOL     OW  694   2.446   2.245   0.214 -0.5143 -0.0488 -0.4155
  232SOL    HW1  695   2.408   2.302   0.139 -0.6818 -1.9794  0.9345
  232SOL    HW2  696   2.439   2.146   0.194 -0.6807  3.3649  2.3691
  233SOL     OW  697   0.950   2.820   0.222  0.3575  0.3099 -0.5663
  233SOL    HW1  698   0.860   2.857   0.197  0.8202 -0.6252 -0.8068
  233SOL    HW2  699   0.999   2.800   0.135 -0.8530 -1.5318  1.9255
  234SOL     OW  700   0.979   0.693   2.240  0.6009  0.2091  0.5736
  234SOL    HW1  701   0.982   0.789   2.201  1.3043 -0.0349 -0.6874
  234SOL    HW2  702   0.886   0.661   2.244  0.9236  1.8531  1.5467
  235SOL     OW  703   0.122   2.127   0.321  0.1401  0.6417 -0.0020
  235SOL    HW1  704   0.182   2.200   0.357  0.8170 -0.3724 -3.6691
  235SOL    HW2  705   0.030   2.121   0.370 -0.3195  0.7208 -0.3267
  236SOL     OW  706   2.140   2.778   2.408  0.8438  0.2993  0.0399
  236SOL    HW1  707   2.207   2.809   2.339 -2.7487 -0.9845  0.7624
  236SOL    HW2  708   2.074   2.716   2.353 -4.8706 -0.2535 -2.2399
  237SOL     OW  709   1.864   1.270   1.490  0.4259  0.8847  0.4931
  237SOL    HW1  710   1.958   1.233   1.495 -1.9688  0.2705 -0.9447
  237SOL    HW2  711   1.789   1.199   1.486 -2.9076 -0.7073  0.3148
  238SOL     OW  712   1.740   0.083   2.457 -0.7490 -0.4113 -0.0034
  238SOL    HW1  713   1.829   0.048   2.501  1.3849  1.5657  1.5153
  238SOL    HW2  714   1.746   0.058   2.362  1.0388  1.6570  1.5928
  239SOL     OW  715   0.840   2.150   1.665  0.2280  0.2653 -0.5168
  239SOL    HW1  716   0.786   2.237   1.650  2.5839  0.7513 -1.7631
  239SOL    HW2  717   0.780   2.077   1.706 -3.2940 -0.4194  3.2327
  240SOL     OW  718   3.031   2.578   0.856 -0.3088  0.1208 -0.0601
  240SOL    HW1  719   3.105   2.618   0.797  1.1470  2.1474 -0.2262
  240SOL    HW2  720   2.979   2.505   0.801 -0.4065 -1.1268 -3.7282
  241SOL     OW  721   1.633   1.877   0.147 -0.9852 -0.4038 -0.5703
  241SOL    HW1  722   1.614   1.894   0.242 -0.4858  0.3822  1.1812
  241SOL    HW2  723   1.717   1.927   0.125 -0.0990 -2.3540  1.7491
  242SOL     OW  724   2.133   1.216   0.158 -0.0725 -0.2473 -0.5772
  242SOL    HW1  725   2.159   1.172   0.248  0.8712 -0.5982  2.4546
  242SOL    HW2  726   2.128   1.153   0.081  2.7771  1.0673  1.8730
  243SOL     OW  727   0.711   0.378   1.885 -0.0431 -0.1629  0.4840
  243SOL    HW1  728   0.777   0.372   1.808  1.3616 -2.5299  2.0484
  243SOL    HW2  729   0.642   0.459   1.865 -0.5051 -1.4486 -0.2781
  244SOL     OW  730   1.731   2.804   2.794  0.1854 -0.2748 -0.2212
  244SOL    HW1  731   1.665   2.882   2.805  0.7310 -2.3611  0.3000
  244SOL    HW2  732   1.821   2.831   2.742  3.5722  0.6087 -0.9558
  245SOL     OW  733   1.743   0.092   2.966  0.3421 -0.0189  0.1260
  245SOL    HW1  734   1.688   0.175   2.979  1.0220 -0.7675  3.3850
  245SOL    HW2  735   1.687   0.026   2.910  1.5191 -0.0515 -2.2086
  246SOL     OW  736   1.113   1.140   2.299 -0.3755 -0.3303 -0.1621
  246SOL    HW1  737   1.203   1.176   2.255  3.0102 -1.8874 -2.1653
  246SOL    HW2  738   1.067   1.222   2.343  1.2014 -0.6880 -1.0334
  247SOL     OW  739   2.806   0.677   2.210  0.4981 -0.0425 -1.0994
  247SOL    HW1  740   2.868   0.635   2.140  0.1252 -0.2140  0.2571
  247SOL    HW2  741   2.754   0.752   2.169  0.4230 -0.7745  0.2940
  248SOL     OW  742   0.445   0.900   2.079  0.1847  0.2351 -0.5753
  248SOL    HW1  743   0.520   0.964   2.070  0.1330 -2.4496 -0.0887
  248SOL    HW2  744   0.354   0.931   2.042  0.7384  2.6153 -0.3484
  249SOL     OW  745   2.536   0.430   0.194  0.4492 -0.5012  0.6058
  249SOL    HW1  746   2.511   0.477   0.279  4.1236 -3.2443 -1.1049
  249SOL    HW2  747   2.528   0.327   0.205 -0.2856  1.6881  2.4483
  250SOL     OW  748   3.038   0.229   0.849  0.6987 -0.4124  0.3560
  250SOL    HW1  749   0.029   0.216   0.832 -1.4726 -1.8479  1.8612
  250SOL    HW2  750   2.998   0.138   0.830  0.2987  1.1780  2.3611
  251SOL     OW  751   0.783   0.948   2.308  0.2065 -0.2831  0.2720
  251SOL    HW1  752   0.801   0.922   2.405  2.3019  0.7037  0.3593
  251SOL    HW2  753   0.865   0.962   2.253  2.1381  1.8926  1.6419
  252SOL     OW  754   1.406   1.765   1.672 -0.4094  0.1787 -0.4258
  252SOL    HW1  755   1.422   1.842   1.603  1.7007  2.9234 -1.8830
  252SOL    HW2  756   1.309   1.741   1.680  1.1675  0.9247  1.1695
  253SOL     OW  757   1.476   2.587   1.812  0.2952  0.7343 -0.3771
  253SOL    HW1  758   1.547   2.528   1.857 -1.8732 -0.7575  0.4633
  253SOL    HW2  759   1.475   2.564   1.712 -2.0115 -2.4090 -0.3560
  254SOL     OW  760   0.698   2.176   2.395 -0.6727  0.0793  0.6981
  254SOL    HW1  761   0.742   2.082   2.383 -1.1592 -1.1208 -2.2610
  254SOL    HW2  762   0.699   2.226   2.299  0.9595  0.7105 -0.2667
  255SOL     OW  763   1.223   0.487   0.575  0.0545  0.1044  0.1456
  255SOL    HW1  764   1.221   0.450   0.670 -0.4758 -1.5740  0.0244
  255SOL    HW2  765   1.160   0.433   0.510 -0.9552 -0.5949  1.1310
  256SOL     OW  766   1.857   2.356   1.075  0.1866 -0.1579 -0.3858
  256SOL    HW1  767   1.953   2.395   1.082  1.7124 -0.2149  0.4891
  256SOL    HW2  768   1.856   2.265   1.124 -0.7564 -0.7182 -1.2183
  257SOL     OW  769   0.157   2.144   2.535 -0.1886 -0.1821 -0.1655
  257SOL    HW1  770   0.235   2.156   2.605  1.7130  2.5550  1.9475
  257SOL    HW2  771   0.152   2.048   2.496 -0.0640 -2.6598  1.0651
  258SOL     OW  772   0.379   0.955   2.529  0.2263 -0.2707 -0.5596
  258SOL    HW1  773   0.459   1.021   2.522 -1.5027  2.0110 -1.3829
  258SOL    HW2  774   0.289   1.010   2.522 -1.4473 -2.8364 -1.8030
  259SOL     OW  775   1.237   0.976   2.486 -0.9270  0.2481  0.2388
  259SOL    HW1  776   1.179   1.033   2.421 -0.7431  0.1684  1.7784
  259SOL    HW2  777   1.289   0.914   2.428  0.5036 -0.4148  1.4290
  260SOL     OW  778   1.930   0.399   0.438  0.4173  0.2782 -0.3542
  260SOL    HW1  779   1.881   0.382   0.526 -3.5794 -0.0641 -1.0149
  260SOL    HW2  780   2.002   0.328   0.433  0.3092  1.7155  1.1549
  261SOL     OW  781   1.053   0.451   2.921  0.4565 -0.1232 -0.0349
  261SOL    HW1  782   1.035   0.355   2.907  1.1644  3.8296 -1.1877
  261SOL    HW2  783   0.967   0.500   2.892 -2.4694 -0.4104  0.8909
  262SOL     OW  784   2.275   2.903   2.613 -0.2751 -0.6042  0.2087
  262SOL    HW1  785   2.353   2.835   2.595  0.1468  0.2587  3.4599
  262SOL    HW2  786   2.206   2.871   2.544  0.4938  0.6876 -0.7474
  263SOL     OW  787   0.873   1.956   0.157 -0.0649  0.2320 -0.0328
  263SOL    HW1  788   0.949   1.890   0.151 -1.4244  0.0555 -1.7385
  263SOL    HW2  789   0.868   2.024   0.079  0.6175  2.1979 -1.2347
  264SOL     OW  790   0.272   1.700   1.547 -0.1155  0.0642  0.6303
  264SOL    HW1  791   0.316   1.639   1.613  0.5870  1.2035  0.8441
  264SOL    HW2  792   0.201   1.754   1.602 -2.3875 -0.9803 -0.4891
  265SOL     OW  793   0.509   1.130   0.453 -0.3186 -0.7244 -0.4482
  265SOL    HW1  794   0.488   1.117   0.352 -1.2978  0.2828 -1.4118
  265SOL    HW2  795   0.609   1.120   0.468 -1.5203 -0.0964 -2.4990
  266SOL     OW  796   1.772   1.682   0.045  0.1702 -0.5264 -0.3655
  266SOL    HW1  797   1.852   1.737   0.011  0.8970  0.8891 -1.1861
  266SOL    HW2  798   1.708   1.745   0.089  3.1579 -3.1855  1.6647
  267SOL     OW  799   2.865   0.365   3.034  0.0103  0.2871  0.6972
  267SOL    HW1  800   2.958   0.318   3.021  1.2470 -1.3882 -0.1837
  267SOL    HW2  801   2.855   0.421   2.948  2.2604 -1.7917  1.1176
  268SOL     OW  802   0.437   0.201   2.973 -0.1162  0.5803  0.2912
  268SOL    HW1  803   0.533   0.188   2.999  0.9273 -0.2258 -0.4228
  268SOL    HW2  804   0.416   0.301   2.954  1.5618 -1.8322  0.1290
  269SOL     OW  805   1.663   0.605   2.582 -0.4195 -0.2337 -0.5098
  269SOL    HW1  806   1.661   0.509   2.552 -1.5824 -0.7365  0.9194
  269SOL    HW2  807   1.635   0.607   2.678  0.9458 -1.2859  0.0434
  270SOL     OW  808   1.050   0.794   2.660  0.4208  0.5230  0.2276
  270SOL    HW1  809   1.144   0.785   2.621  1.3415 -1.2792  1.4538
  270SOL    HW2  810   1.048   0.863   2.736  0.5594 -1.8980 -1.3479
  271SOL     OW  811   2.657   0.864   0.200 -0.2552  0.5064 -0.0707
  271SOL    HW1  812   2.689   0.934   0.131 -0.4715  3.6537 -0.6269
  271SOL    HW2  813   2.665   0.764   0.172  0.3395 -0.5020  0.9519
  272SOL     OW  814   2.559   2.075   2.738 -0.1906  0.5309 -0.4454
  272SOL    HW1  815   2.558   2.166   2.696  3.7616 -1.2611  0.3024
  272SOL    HW2  816   2.470   2.026   2.725  1.7509 -0.0710 -2.3982
  273SOL     OW  817   2.639   0.618   2.937 -0.0973 -0.9522 -0.0348
  273SOL    HW1  818   2.543   0.597   2.913  0.4124  0.9974  0.8234
  273SOL    HW2  819   2.703   0.564   2.883 -0.0814  0.0688  2.6174
  274SOL     OW  820   0.052   0.024   1.546  0.1748 -0.7277  0.8065
  274SOL    HW1  821   0.101   3.065   1.605 -0.5494 -1.7321  0.7988
  274SOL    HW2  822   0.093   0.117   1.568 -0.3988 -1.1068 -1.9794
  275SOL     OW  823   2.141   1.629   0.755 -0.4056 -0.1698  0.0545
  275SOL    HW1  824   2.075   1.596   0.828 -0.4823 -0.7464  0.2139
  275SOL    HW2  825   2.145   1.569   0.672  2.1511  1.3343 -2.3483
  276SOL     OW  826   0.350   1.380   2.654  0.1981 -0.1170 -0.2064
  276SOL    HW1  827   0.397   1.292   2.659 -0.4591  0.4187  0.7823
  276SOL    HW2  828   0.303   1.383   2.563 -1.2680  0.6594 -3.1423
  277SOL     OW  829   1.742   2.468   1.928  0.1030  0.3588  0.1636
  277SOL    HW1  830   1.785   2.554   1.969  0.7584  0.9894  3.2298
  277SOL    HW2  831   1.744   2.398   2.006  0.6060 -1.6398  2.8864
  278SOL     OW  832   1.996   0.326   1.504  0.0250  0.0052 -0.1985
  278SOL    HW1  833   2.027   0.241   1.461  1.3457 -0.6509  0.0197
  278SOL    HW2  834   1.932   0.373   1.440  1.9551 -1.3446  1.4287
  279SOL     OW  835   1.534   1.335   3.089  0.8309  0.0552 -0.4329
  279SOL    HW1  836   1.554   1.273   0.057 -2.4098  0.3379 -0.0108
  279SOL    HW2  837   1.617   1.341   3.039 -0.8593 -1.4797  0.5187
  280SOL     OW  838   0.752   1.646   1.138 -0.3305  0.0227  0.4384
  280SOL    HW1  839   0.718   1.631   1.045 -0.6596  1.5112 -1.5356
  280SOL    HW2  840   0.771   1.743   1.148 -0.8014  1.0094 -0.2564
  281SOL     OW  841   0.013   3.062   2.470 -0.1842  0.7885 -0.4462
  281SOL    HW1  842   3.076   3.026   2.557  0.6849 -1.3463  0.1389
  281SOL    HW2  843   3.089   0.046   2.440  0.7636  3.3519  1.9667
  282SOL     OW  844   0.186   1.149   1.411  0.1682  0.0422 -0.2501
  282SOL    HW1  845   0.111   1.209   1.454 -4.6713  2.0638  0.2363
  282SOL    HW2  846   0.144   1.066   1.363  0.4545 -1.9238 -0.2554
  283SOL     OW  847   1.750   2.275   2.749  0.1014 -0.2961  0.2101
  283SOL    HW1  848   1.766   2.380   2.737 -0.0353  1.2897 -0.9725
  283SOL    HW2  849   1.653   2.256   2.731 -0.7604  1.7096 -0.2113
  284SOL     OW  850   1.987   1.347   0.362  0.2333 -0.0952 -0.2687
  284SOL    HW1  851   1.909   1.404   0.325 -0.4613 -0.3894 -1.7104
  284SOL    HW2  852   2.031   1.299   0.283 -1.6066 -1.8521 -2.8422
  285SOL     OW  853   3.082   0.203   3.009 -0.0062  0.4524  0.0465
  285SOL    HW1  854   0.010   0.206   3.105 -0.6110 -0.7892 -3.9411
  285SOL    HW2  855   0.050   0.190   2.940 -1.1193  0.7631  0.1489
  286SOL     OW  856   1.939   2.992   1.572 -0.0271 -0.4284  0.5435
  286SOL    HW1  857   1.898   2.900   1.556 -2.2766  0.0404  2.2444
  286SOL    HW2  858   1.993   3.016   1.487 -2.9323  1.5539 -0.3455
  287SOL     OW  859   0.896   1.062   1.413 -0.2035  0.1375 -0.0278
  287SOL    HW1  860   0.845   0.977   1.404  0.6398  0.9178  0.9350
  287SOL    HW2  861   0.871   1.109   1.497  0.4970 -1.9729  0.3932
  288SOL     OW  862   1.482   2.759   0.157  0.0625 -0.2892 -0.0899
  288SOL    HW1  863   1.553   2.723   0.085  1.3542 -1.3113 -1.6705
  288SOL    HW2  864   1.419   2.683   0.174 -0.9202  0.5182 -1.7677
  289SOL     OW  865   3.011   1.757   2.990  0.3135  0.2958 -0.3540
  289SOL    HW1  866   3.069   1.837   2.969 -1.4111  0.3869  1.4030
  289SOL    HW2  867   2.951   1.738   2.906  3.0242 -0.7911 -0.7103
  290SOL     OW  868   0.991   2.586   0.679  0.2256  0.0730  0.1741
  290SOL    HW1  869   0.973   2.604   0.579 -1.6400 -1.1116 -0.7777
  290SOL    HW2  870   1.078   2.633   0.704 -0.9539 -1.0187  0.5003
  291SOL     OW  871   2.037   2.393   3.028  0.0860  0.5609 -0.1523
  291SOL    HW1  872   2.069   2.312   3.078  1.9040  0.3456  2.8345
  291SOL    HW2  873   2.115   2.433   2.975  0.0802  0.8602 -0.8349
  292SOL     OW  874   0.770   1.275   1.944  0.0432  0.0776 -0.3065
  292SOL    HW1  875   0.826   1.245   1.866 -1.1827  1.4560  1.8757
  292SOL    HW2  876   0.690   1.327   1.915  0.7241 -3.0339  0.2415
  293SOL     OW  877   2.423   2.681   1.067 -0.1672 -0.6015 -0.4540
  293SOL    HW1  878   2.393   2.590   1.098  0.0325  0.7336  0.7882
  293SOL    HW2  879   2.524   2.691   1.069  3.2311  1.1241  0.3020
  294SOL     OW  880   2.980   0.482   2.542  0.2156  0.2749 -0.2309
  294SOL    HW1  881   2.897   0.541   2.532  0.1183  4.0432 -1.0736
  294SOL    HW2  882   3.057   0.521   2.491  0.6554 -3.0465  1.3829
  295SOL     OW  883   1.158   1.860   0.082  0.1205  0.0778  0.4769
  295SOL    HW1  884   1.096   1.809   0.014 -1.1567  2.2627 -0.3664
  295SOL    HW2  885   1.189   1.944   0.034 -4.4001 -1.6950  0.8217
  296SOL     OW  886   2.122   2.049   2.518  0.1303  0.3151 -0.3516
  296SOL    HW1  887   2.065   2.095   2.588 -0.4596 -0.2178 -2.2517
  296SOL    HW2  888   2.178   1.975   2.562  0.3435  1.3614 -0.3642
  297SOL     OW  889   2.675   0.632   0.097  0.1360 -0.1212 -0.6503
  297SOL    HW1  890   2.670   0.635   3.103  1.6164  0.0052  0.7332
  297SOL    HW2  891   2.622   0.552   0.138 -0.1461  0.0711  1.2143
  298SOL     OW  892   0.858   2.130   3.057 -0.2681  0.2250  0.2448
  298SOL    HW1  893   0.833   2.046   3.006  0.5366  0.3899  2.2884
  298SOL    HW2  894   0.788   2.200   3.035  0.2139 -2.2160  0.6012
  299SOL     OW  895   1.432   2.769   2.481 -0.2773  0.2568 -0.0340
  299SOL    HW1  896   1.487   2.849   2.513  1.0741 -0.3008  0.7001
  299SOL    HW2  897   1.338   2.762   2.526 -0.2151  0.7713  0.0158
  300SOL     OW  898   2.834   0.382   0.190 -0.1260  0.3820 -0.6712
  300SOL    HW1  899   2.736   0.397   0.205 -0.4354 -0.7102  1.0038
  300SOL    HW2  900   2.859   0.356   0.095  3.2858 -1.6188 -1.3566
  301SOL     OW  901   0.995   1.227   1.745 -0.6032 -0.6360 -0.0481
  301SOL    HW1  902   1.081   1.214   1.801 -1.4081  1.7377 -2.6465
  301SOL    HW2  903   1.018   1.279   1.659  0.1103  2.1848  1.9061
  302SOL     OW  904   0.071   2.148   0.059  0.3674  0.3792 -0.3313
  302SOL    HW1  905   0.061   2.097   0.146  2.4697  2.1289  2.8938
  302SOL    HW2  906   0.001   2.220   0.063 -0.3875  1.2241 -0.8628
  303SOL     OW  907   3.026   2.947   2.723 -0.0832  0.0410  0.4630
  303SOL    HW1  908   0.001   2.884   2.726  0.0534 -0.7514  0.2550
  303SOL    HW2  909   2.951   2.896   2.678  2.5715 -0.8233  1.5416
  304SOL     OW  910   2.653   0.886   2.102  0.6335  0.0013 -0.3779
  304SOL    HW1  911   2.579   0.944   2.153 -4.6000  2.2309 -0.1036
  304SOL    HW2  912   2.653   0.909   2.005  1.2781 -1.2249  1.2209
  305SOL     OW  913   0.808   2.531   2.231  0.3864 -0.5248  0.2718
  305SOL    HW1  914   0.794   2.632   2.224  1.4686 -1.3897 -1.0736
  305SOL    HW2  915   0.784   2.498   2.326 -0.3867  0.8977 -1.0559
  306SOL     OW  916   2.566   1.137   1.589  0.7258 -0.1065  0.1387
  306SOL    HW1  917   2.556   1.056   1.529 -0.0647  1.4045 -0.7779
  306SOL    HW2  918   2.521   1.126   1.682 -0.7164 -0.1361 -0.9902
  307SOL     OW  919   1.674   0.669   1.248  0.2493  0.1201  0.5039
  307SOL    HW1  920   1.753   0.698   1.190 -0.5836 -0.3071 -2.0801
  307SOL    HW2  921   1.595   0.643   1.185  0.1246  0.1471 -1.4730
  308SOL     OW  922   2.477   1.803   1.218 -0.1914 -0.4349 -0.7357
  308SOL    HW1  923   2.468   1.877   1.288 -1.7143  0.2623 -0.5501
  308SOL    HW2  924   2.524   1.843   1.135 -0.5270 -2.4413  0.3591
  309SOL     OW  925   2.307   1.542   1.529 -0.0347  0.6490 -0.4680
  309SOL    HW1  926   2.245   1.544   1.448  1.7743 -0.7737  2.1569
  309SOL    HW2  927   2.391   1.491   1.503 -1.9584 -2.0222 -0.8445
  310SOL     OW  928   2.857   1.760   2.763 -0.0644  0.0805 -0.0279
  310SOL    HW1  929   2.847   1.844   2.706  2.3035 -0.5592  0.9013
  310SOL    HW2  930   2.770   1.723   2.804  1.7035  0.3797  0.1628
  311SOL     OW  931   2.236   2.200   2.830  0.6640  0.0765  0.1996
  311SOL    HW1  932   2.145   2.172   2.792  1.3118  2.0027 -0.5577
  311SOL    HW2  933   2.297   2.223   2.755 -2.2697  0.0104  2.8996
  312SOL     OW  934   2.170   1.856   1.244 -0.1471  0.0967 -0.0671
  312SOL    HW1  935   2.167   1.756   1.254 -0.6465  2.8996  1.6356
  312SOL    HW2  936   2.233   1.902   1.309 -0.6699  1.5941  1.9485
  313SOL     OW  937   2.364   2.414   1.134 -0.2140  0.2761  0.0021
  313SOL    HW1  938   2.444   2.385   1.079  0.7145  1.2753 -1.2136
  313SOL    HW2  939   2.373   2.368   1.227  1.6110 -0.0458  0.5492
  314SOL     OW  940   0.984   2.206   0.617  0.5039 -0.0046  0.4675
  314SOL    HW1  941   0.912   2.237   0.685 -2.2934 -0.6022  0.6177
  314SOL    HW2  942   0.947   2.142   0.546 -0.0625 -2.5520  0.1330
  315SOL     OW  943   0.602   2.715   2.829  0.2955  0.1950  0.8713
  315SOL    HW1  944   0.571   2.619   2.825 -0.0387  0.1919  2.5318
  315SOL    HW2  945   0.698   2.739   2.796  1.6282  1.3472  0.1314
  316SOL     OW  946   0.085   0.454   0.437 -0.0927 -0.3133  0.1913
  316SOL    HW1  947   0.012   0.518   0.404  2.0470  0.7315 -0.1090
  316SOL    HW2  948   0.169   0.471   0.383 -1.6498 -0.6903  1.7867
  317SOL     OW  949   1.193   0.424   0.825 -0.0217 -0.0177  0.2643
  317SOL    HW1  950   1.275   0.428   0.884  1.5188  0.2155  3.0835
  317SOL    HW2  951   1.112   0.461   0.866 -0.3570 -2.3163 -3.3837
  318SOL     OW  952   0.029   2.467   0.546  0.1499 -0.5965  0.2373
  318SOL    HW1  953   3.093   2.537   0.491  0.5351 -2.4204  2.6355
  318SOL    HW2  954   3.078   2.433   0.622  1.0005  0.8773  0.9824
  319SOL     OW  955   0.497   1.533   2.799 -0.1571 -0.5348  0.2600
  319SOL    HW1  956   0.435   1.589   2.859  1.3171  0.3205  3.7479
  319SOL    HW2  957   0.441   1.470   2.736 -0.9602  0.6095 -0.0889
  320SOL     OW  958   0.826   2.617   2.496  0.2495  0.5612 -0.2508
  320SOL    HW1  959   0.915   2.648   2.455  2.1748  0.5559  0.5605
  320SOL    HW2  960   0.815   2.614   2.595 -1.2304 -1.0420 -2.8524
  321SOL     OW  961   1.318   2.977   0.084  0.3458  0.1186 -0.5659
  321SOL    HW1  962   1.403   2.914   0.089  0.7079 -0.4845 -1.4842
  321SOL    HW2  963   1.238   2.931   0.046  0.6624  1.6144  0.4963
  322SOL     OW  964   2.397   1.231   2.053  0.1188 -0.0393 -0.4302
  322SOL    HW1  965   2.463   1.309   2.058 -0.3029 -0.5438 -2.1789
  322SOL    HW2  966   2.302   1.262   2.086 -5.1148  3.7377 -1.1213
  323SOL     OW  967   2.360   0.561   0.530  1.0559  0.3997 -0.5115
  323SOL    HW1  968   2.309   0.588   0.448 -0.8510  1.1074  2.2990
  323SOL    HW2  969   2.407   0.472   0.510 -0.5179 -1.5521  1.8193
  324SOL     OW  970   0.240   2.760   2.950 -0.0771 -0.7005 -0.1291
  324SOL    HW1  971   0.248   2.792   2.856 -1.0697 -0.0142  0.4646
  324SOL    HW2  972   0.278   2.663   2.953 -0.0033  0.5765 -1.8319
  325SOL     OW  973   1.648   0.333   2.492  0.1814 -0.5067 -0.0408
  325SOL    HW1  974   1.696   0.245   2.483 -2.5969 -0.3407  3.1582
  325SOL    HW2  975   1.553   0.314   2.526  3.3955 -2.2650  1.2533
  326SOL     OW  976   2.426   2.739   1.338  0.0959  0.7068 -0.2619
  326SOL    HW1  977   2.336   2.751   1.386 -2.0440  0.7231 -1.0339
  326SOL    HW2  978   2.419   2.709   1.236  1.0890 -2.3405  0.0501
  327SOL     OW  979   1.606   0.331   2.991  0.4133 -0.3285 -0.4178
  327SOL    HW1  980   1.534   0.309   3.059 -0.3198 -0.0257  1.6428
  327SOL    HW2  981   1.673   0.393   3.040 -1.7943 -0.9931  0.4545
  328SOL     OW  982   2.784   1.496   2.548  0.2228  0.2726 -0.5036
  328SOL    HW1  983   2.706   1.555   2.561  0.6414 -1.0183 -3.9329
  328SOL    HW2  984   2.866   1.520   2.605  1.0256  2.5102  0.6722
  329SOL     OW  985   1.613   2.849   1.816 -0.1711  0.4526 -0.0845
  329SOL    HW1  986   1.705   2.842   1.787 -1.6892 -1.7452 -0.7913
  329SOL    HW2  987   1.574   2.757   1.819  1.5945  1.8195 -2.5161
  330SOL     OW  988   2.552   1.395   1.503 -0.2115 -0.0161  0.0342
  330SOL    HW1  989   2.558   1.298   1.537 -0.5727  1.1181 -0.1275
  330SOL    HW2  990   2.633   1.447   1.534 -3.1871 -0.1837 -0.2713
  331SOL     OW  991   0.311   1.389   1.420  0.3111  0.0183  0.0394
  331SOL    HW1  992   0.356   1.423   1.333  0.9886 -0.6557 -2.9728
  331SOL    HW2  993   0.291   1.286   1.422 -0.6214  0.7417 -0.6888
  332SOL     OW  994   0.889   0.138   1.476  0.3097  0.5345 -0.0087
  332SOL    HW1  995   0.914   0.194   1.392 -0.3833  1.1231 -1.2356
  332SOL    HW2  996   0.789   0.147   1.493 -1.6576 -0.1152 -1.4612
  333SOL     OW  997   2.122   2.696   1.738  0.9327  0.4372 -0.0914
  333SOL    HW1  998   2.216   2.693   1.778 -0.7931  3.8109  0.1380
  333SOL    HW2  999   2.063   2.774   1.766  0.9967 -1.8481 -1.2735
  334SOL     OW 1000   1.148   1.340   1.527  0.5143 -0.2991  0.4633
  334SOL    HW1 1001   1.169   1.428   1.481  0.5831  1.0466 -0.7178
  334SOL    HW2 1002   1.197   1.263   1.485  0.3243 -3.0785 -0.9249
  335SOL     OW 1003   1.131   2.972   2.900 -0.1768 -0.2762 -0.0371
  335SOL    HW1 1004   1.071   3.041   2.950  2.7460  1.3802  1.4777
  335SOL    HW2 1005   1.163   3.010   2.812 -1.8793  1.8790  2.0639
  336SOL     OW 1006   3.057   2.688   2.264  0.6281 -0.1191 -0.4184
  336SOL    HW1 1007   2.978   2.754   2.261 -0.0823 -0.9207  0.0213
  336SOL    HW2 1008   3.080   2.630   2.180  0.8106  0.4320  0.5879
  337SOL     OW 1009   2.516   1.467   0.373  0.3561 -0.1761 -0.0818
  337SOL    HW1 1010   2.442   1.540   0.382 -0.5802  0.9494 -1.2351
  337SOL    HW2 1011   2.597   1.498   0.318  2.1827  1.7809  0.1881
  338SOL     OW 1012   1.016   1.984   1.282  0.3731  0.4353  0.2368
  338SOL    HW1 1013   1.083   1.918   1.251 -1.5936  3.0774  1.7635
  338SOL    HW2 1014   0.919   1.954   1.262 -2.0006  0.0972 -0.1124
  339SOL     OW 1015   2.961   0.867   2.577 -0.2088 -0.2061  0.1368
  339SOL    HW1 1016   2.916   0.779   2.579  2.0376 -2.1974 -0.9255
  339SOL    HW2 1017   3.056   0.871   2.535 -1.1850  1.6365  0.2861
  340SOL     OW 1018   1.695   2.828   1.213  0.7730 -1.0400 -0.5934
  340SOL    HW1 1019   1.799   2.833   1.218  0.4653  0.9470 -0.6463
  340SOL    HW2 1020   1.669   2.799   1.119 -1.6005  1.6408 -0.9713
  341SOL     OW 1021   1.795   1.811   0.785  0.5438 -0.1632 -0.1059
  341SOL    HW1 1022   1.865   1.777   0.720 -0.5903  1.0402  0.7202
  341SOL    HW2 1023   1.800   1.761   0.872  0.9741  1.9591 -1.8332
  342SOL     OW 1024   0.416   1.272   1.029  0.0689  0.1801  0.1299
  342SOL    HW1 1025   0.351   1.319   0.965 -0.7019  1.7863 -0.8400
  342SOL    HW2 1026   0.461   1.196   0.975 -2.0827 -1.1373 -2.5945
  343SOL     OW 1027   2.426   0.508   1.465 -0.0659  0.2651  0.3092
  343SOL    HW1 1028   2.461   0.590   1.509 -0.2553  2.2279 -2.2736
  343SOL    HW2 1029   2.325   0.515   1.456 -1.1457 -1.4747  0.7637
  344SOL     OW 1030   2.212   2.647   0.525 -0.2424  0.3453 -0.2553
  344SOL    HW1 1031   2.207   2.670   0.427 -0.6618  0.8257  3.1222
  344SOL    HW2 1032   2.238   2.552   0.556 -3.2355  0.8948  0.1961
  345SOL     OW 1033   3.070   2.378   2.627  0.1590  0.3064 -0.5126
  345SOL    HW1 1034   3.019   2.429   2.558  1.2439 -1.3079  0.7888
  345SOL    HW2 1035   0.046   2.332   2.597 -1.2846 -1.8705  2.5490
  346SOL     OW 1036   2.977   0.887   0.658  0.1783 -0.3867 -0.5512
  346SOL    HW1 1037   3.077   0.887   0.673 -0.1747 -0.4591  1.0301
  346SOL    HW2 1038   2.952   0.965   0.599  2.1643 -1.3222 -1.0137
  347SOL     OW 1039   1.960   2.778   1.263  0.4757  0.6647 -0.1200
  347SOL    HW1 1040   1.933   2.696   1.310 -0.5952  1.6829  0.2842
  347SOL    HW2 1041   2.024   2.753   1.192 -2.3648  0.7141  4.6545
  348SOL     OW 1042   1.438   1.488   2.142  0.4031 -0.0182  0.0298
  348SOL    HW1 1043   1.406   1.391   2.157 -1.6121 -0.0383 -2.8447
  348SOL    HW2 1044   1.464   1.504   2.047 -2.2723 -0.1695  1.7224
  349SOL     OW 1045   2.157   1.332   2.150 -0.2578  0.3891  1.2220
  349SOL    HW1 1046   2.151   1.299   2.246  1.6934  1.6730 -0.6562
  349SOL    HW2 1047   2.128   1.428   2.149  0.8436  1.1453  1.9095
  350SOL     OW 1048   3.103   1.950   0.902 -0.1329 -0.2247 -0.0364
  350SOL    HW1 1049   0.044   1.920   0.987  0.3734  1.2324  2.0578
  350SOL    HW2 1050   0.021   2.048   0.876  1.0426  0.4678  0.4587
  351SOL     OW 1051   0.858   0.300   2.389  0.1170  0.1776  0.3873
  351SOL    HW1 1052   0.903   0.362   2.455 -2.6068 -0.5962  2.0664
  351SOL    HW2 1053   0.827   0.340   2.301  0.9323 -0.5579 -0.5404
  352SOL     OW 1054   0.606   2.755   1.950  0.3184  0.2540  0.0552
  352SOL    HW1 1055   0.625   2.757   2.050  2.3789 -0.1324  4.1070
  352SOL    HW2 1056   0.691   2.780   1.895  1.6472  1.9111 -1.7572
  353SOL     OW 1057   0.592   1.423   2.248 -0.5309  0.1935  0.4684
  353SOL    HW1 1058   0.528   1.345   2.227 -0.7649 -0.5690  2.2349
  353SOL    HW2 1059   0.551   1.510   2.275  2.5209 -0.1570 -0.1968
  354SOL     OW 1060   1.892   1.409   0.699  0.1771  0.2924  0.2393
  354SOL    HW1 1061   1.792   1.415   0.674 -1.6811 -0.8281 -0.6235
  354SOL    HW2 1062   1.954   1.431   0.623  0.0011  0.1284  1.2184
  355SOL     OW 1063   2.519   0.029   0.743 -0.1393 -0.1759  0.2791
  355SOL    HW1 1064   2.520   3.056   0.802  0.6815 -1.2449  1.0596
  355SOL    HW2 1065   2.607   0.086   0.757  3.2207  0.7809 -0.3190
  356SOL     OW 1066   3.080   1.238   2.617 -0.0784  0.1857  0.0431
  356SOL    HW1 1067   3.066   1.338   2.605  0.1539 -0.1706 -1.1394
  356SOL    HW2 1068   0.049   1.200   2.560  1.4337 -0.8078  2.0785
  357SOL     OW 1069   0.118   2.869   1.686  0.4547  0.2593 -0.0962
  357SOL    HW1 1070   0.097   2.862   1.786  1.3334 -1.2691 -0.8533
  357SOL    HW2 1071   0.104   2.782   1.635  0.2478  1.4861 -1.4161
  358SOL     OW 1072   3.078   1.510   2.629 -0.7429  0.1348 -0.0327
  358SOL    HW1 1073   0.049   1.532   2.688 -2.8302 -1.9988  0.3393
  358SOL    HW2 1074   3.083   1.564   2.539 -0.6256 -1.5897 -2.3932
  359SOL     OW 1075   2.507   2.527   2.804 -0.3487  0.1179  0.1247
  359SOL    HW1 1076   2.596   2.561   2.831 -3.5025  1.7461 -0.0118
  359SOL    HW2 1077   2.438   2.565   2.869  0.2298 -1.5363 -1.8779
  360SOL     OW 1078   1.430   1.278   1.070 -0.3095 -0.3323  0.1006
  360SOL    HW1 1079   1.456   1.188   1.032  0.9708  2.7818 -3.3832
  360SOL    HW2 1080   1.481   1.356   1.024 -0.8823 -2.4519  0.1118
  361SOL     OW 1081   2.106   2.483   1.134  0.5688  0.2005 -0.3943
  361SOL    HW1 1082   2.198   2.446   1.146  1.8541 -1.4941 -0.2065
  361SOL    HW2 1083   2.099   2.576   1.094 -2.7041 -1.2362  1.2285
  362SOL     OW 1084   1.585   1.448   0.926  0.2614 -0.2427  0.0693
  362SOL    HW1 1085   1.674   1.459   0.974 -1.6997  0.9309  1.2130
  362SOL    HW2 1086   1.585   1.489   0.832  3.3820 -0.3702  1.0423
  363SOL     OW 1087   2.741   2.084   0.232 -0.3292 -0.3734 -0.7251
  363SOL    HW1 1088   2.793   2.074   0.145 -1.7527 -1.8166 -3.1869
  363SOL    HW2 1089   2.789   2.143   0.300  1.1611  0.3778 -2.2538
  364SOL     OW 1090   2.315   0.275   1.756  0.2184  0.4812 -0.1024
  364SOL    HW1 1091   2.382   0.296   1.682  0.0707  1.4638 -2.4304
  364SOL    HW2 1092   2.253   0.200   1.725  0.7028  1.6839 -0.5757
  365SOL     OW 1093   2.868   2.571   1.468  0.7103  0.4185  0.0314
  365SOL    HW1 1094   2.878   2.560   1.571  1.0521 -0.1404  1.3790
  365SOL    HW2 1095   2.948   2.526   1.424 -2.6124 -0.0853 -3.0871
  366SOL     OW 1096   3.039   1.312   0.010 -0.6606 -0.4544 -0.6712
  366SOL    HW1 1097   3.032   1.268   3.029 -1.3192 -0.3805 -0.1354
  366SOL    HW2 1098   2.988   1.262   0.078  1.6513  1.1881 -1.4316
  367SOL     OW 1099   2.333   2.570   3.005 -0.3446  0.1346  0.1311
  367SOL    HW1 1100   2.273   2.617   2.935 -1.0026  0.8212 -2.0351
  367SOL    HW2 1101   2.360   2.631   3.079  0.4715 -0.7462  0.0293
  368SOL     OW 1102   0.077   1.834   1.339  0.1259 -0.1192  0.1811
  368SOL    HW1 1103   0.111   1.878   1.423  0.0429 -1.0063 -1.3040
  368SOL    HW2 1104   3.081   1.843   1.336 -1.5642 -2.3380  1.9369
  369SOL     OW 1105   0.494   0.155   0.705 -0.0706  0.6114  0.5383
  369SOL    HW1 1106   0.479   0.232   0.770  0.0117  0.1575 -0.0029
  369SOL    HW2 1107   0.429   0.164   0.627 -1.4786  0.5946 -1.2915
  370SOL     OW 1108   0.782   0.460   1.169 -0.6322 -0.7412  0.0572
  370SOL    HW1 1109   0.678   0.457   1.177 -1.1159 -0.6624  0.2463
  370SOL    HW2 1110   0.805   0.476   1.071 -0.4124 -1.6366 -0.9110
  371SOL     OW 1111   2.342   1.612   0.118 -0.4367  0.3090 -0.4222
  371SOL    HW1 1112   2.306   1.590   0.213  1.3760  0.5714 -1.8811
  371SOL    HW2 1113   2.416   1.549   0.088  0.0217 -0.3258 -0.3095
  372SOL     OW 1114   0.161   0.800   2.604 -0.3052  0.3713 -0.2179
  372SOL    HW1 1115   0.107   0.851   2.673 -0.5853 -0.5219  0.4034
  372SOL    HW2 1116   0.259   0.829   2.610 -1.4260 -0.8093 -3.7731
  373SOL     OW 1117   2.885   1.141   0.159  0.0039  0.0611 -0.3981
  373SOL    HW1 1118   2.863   1.114   0.258  0.5596  0.2486  0.4160
  373SOL    HW2 1119   2.821   1.094   0.089 -2.1997 -1.8132  0.1441
  374SOL     OW 1120   0.651   2.306   2.989  0.0954 -0.0784  0.2430
  374SOL    HW1 1121   0.627   2.353   3.073 -0.4123 -0.4097  1.2847
  374SOL    HW2 1122   0.641   2.354   2.900 -0.2235 -0.6022  0.9267
  375SOL     OW 1123   1.266   0.463   0.238  0.0783  0.0409  0.3220
  375SOL    HW1 1124   1.215   0.516   0.169  0.0025 -1.7007 -0.6731
  375SOL    HW2 1125   1.211   0.453   0.324  0.8912  1.0774 -3.2009
  376SOL     OW 1126   0.028   2.906   1.960 -0.0232 -0.2506 -0.4700
  376SOL    HW1 1127   3.091   2.979   2.016 -2.2674 -1.1831 -0.4876
  376SOL    HW2 1128   0.117   2.869   2.003  1.7446 -0.6479  0.3638
  377SOL     OW 1129   2.902   2.151   2.632  0.0626  0.2443 -0.3069
  377SOL    HW1 1130   2.966   2.232   2.642  0.8433 -0.4709  0.8896
  377SOL    HW2 1131   2.947   2.087   2.571 -1.1143  1.8195  3.5987
  378SOL     OW 1132   1.614   0.723   0.584 -0.4886 -0.1024 -0.2780
  378SOL    HW1 1133   1.542   0.715   0.510  1.6883 -1.2721 -1.6379
  378SOL    HW2 1134   1.662   0.811   0.592 -3.3881  1.0962  2.1774
  379SOL     OW 1135   1.308   1.092   0.354 -0.7904  0.2860 -0.2675
  379SOL    HW1 1136   1.308   1.192   0.330 -0.9151  2.1580  0.2149
  379SOL    HW2 1137   1.316   1.079   0.452 -1.7757 -1.6614 -1.7098
  380SOL     OW 1138   2.163   2.300   2.109  0.1541 -0.3461 -0.0596
  380SOL    HW1 1139   2.154   2.404   2.106  0.6838 -0.2584  0.5790
  380SOL    HW2 1140   2.074   2.255   2.129  1.4995  0.0962  2.1024
  381SOL     OW 1141   0.094   1.068   2.168  0.5444 -0.1585  0.0724
  381SOL    HW1 1142   0.136   1.080   2.079 -1.4829  0.8991 -0.0619
  381SOL    HW2 1143   0.075   0.970   2.183  0.8549  1.2838  2.3675
  382SOL     OW 1144   3.007   2.409   0.068 -0.0876  0.2512 -0.7564
  382SOL    HW1 1145   3.007   2.429   3.078 -0.3667  0.9712  3.3368
  382SOL    HW2 1146   3.096   2.440   0.107 -2.4736 -0.1753 -0.8633
  383SOL     OW 1147   1.580   1.034   1.993  0.0861 -0.2548  0.4743
  383SOL    HW1 1148   1.535   1.012   1.904 -1.6455 -0.1048  1.1258
  383SOL    HW2 1149   1.678   1.034   1.977 -1.1591 -1.4710  0.8569
  384SOL     OW 1150   0.804   2.154   2.651  0.0125  0.1878  0.4749
  384SOL    HW1 1151   0.776   2.170   2.554  1.5848 -0.5001  0.4655
  384SOL    HW2 1152   0.875   2.086   2.658 -1.0838  2.5841  0.3190
  385SOL     OW 1153   2.738   1.878   0.421  0.3766  0.1055 -0.4098
  385SOL    HW1 1154   2.727   1.950   0.353 -0.2942 -0.8903 -3.4396
  385SOL    HW2 1155   2.673   1.805   0.400 -1.7117 -3.1254 -0.9324
  386SOL     OW 1156   1.156   1.065   0.132  0.7255 -0.3118  0.1827
  386SOL    HW1 1157   1.175   1.142   0.066 -0.9700  0.4007 -1.2054
  386SOL    HW2 1158   1.214   1.078   0.212 -0.7552 -0.1219  0.7843
  387SOL     OW 1159   2.981   0.558   1.463 -0.3773  0.1021  0.3100
  387SOL    HW1 1160   3.040   0.636   1.473  0.3965 -3.7152 -1.3045
  387SOL    HW2 1161   3.038   0.473   1.456 -1.1610 -1.7458  1.7881
  388SOL     OW 1162   2.844   0.873   1.350 -0.5669 -0.1306  0.1919
  388SOL    HW1 1163   2.912   0.936   1.306  1.6016  0.6376 -1.9610
  388SOL    HW2 1164   2.844   0.776   1.311 -1.4500 -2.9797 -1.1681
  389SOL     OW 1165   1.652   1.346   2.653  0.0930  0.8287  0.0184
  389SOL    HW1 1166   1.595   1.300   2.581 -0.5454  0.6959 -0.3631
  389SOL    HW2 1167   1.632   1.444   2.651  3.0921 -0.9818  0.4720
  390SOL     OW 1168   1.846   2.053   0.188 -0.1243 -0.2437  0.1119
  390SOL    HW1 1169   1.836   2.064   0.289 -0.5651 -1.6691 -1.0901
  390SOL    HW2 1170   1.823   2.142   0.146 -0.0252  0.5437  0.5802
  391SOL     OW 1171   1.259   2.307   0.942  0.1174 -0.2476  0.1030
  391SOL    HW1 1172   1.289   2.342   0.848  2.6684 -1.8878 -1.2123
  391SOL    HW2 1173   1.155   2.320   0.947 -1.7829 -2.8179 -2.0901
  392SOL     OW 1174   2.588   2.587   1.482  0.3012 -0.1722  0.2226
  392SOL    HW1 1175   2.688   2.614   1.476 -0.2714  0.1116  0.1517
  392SOL    HW2 1176   2.537   2.628   1.404  0.7425 -0.2340  2.0071
  393SOL     OW 1177   1.966   2.592   2.330  0.0123  0.0592  0.0392
  393SOL    HW1 1178   1.913   2.519   2.278 -0.9791 -0.9266 -1.1783
  393SOL    HW2 1179   1.902   2.627   2.406 -3.9386  0.2996  0.3995
  394SOL     OW 1180   0.364   2.801   2.390  0.3697 -0.1531  0.1828
  394SOL    HW1 1181   0.403   2.887   2.356  2.1844  1.6533 -1.6056
  394SOL    HW2 1182   0.273   2.814   2.436  0.3089  0.1818 -1.1013
  395SOL     OW 1183   0.452   1.087   1.439 -0.0765 -0.3168 -0.6315
  395SOL    HW1 1184   0.350   1.102   1.442  0.7749 -1.2220  0.8359
  395SOL    HW2 1185   0.487   1.070   1.346 -3.0852 -0.4328  0.2780
  396SOL     OW 1186   2.053   1.235   2.386  0.2313 -0.2474  0.2559
  396SOL    HW1 1187   2.005   1.147   2.414  1.4452 -0.8639 -0.4342
  396SOL    HW2 1188   2.105   1.268   2.468 -0.1849 -0.2180  1.0454
  397SOL     OW 1189   2.849   0.500   2.799  0.4130 -0.0955  0.5629
  397SOL    HW1 1190   2.940   0.510   2.757  0.6601 -2.5749 -0.0233
  397SOL    HW2 1191   2.790   0.456   2.727 -0.1412 -1.5954 -2.1368
  398SOL     OW 1192   1.886   2.914   0.430  0.1393 -0.2143  0.1080
  398SOL    HW1 1193   1.977   2.912   0.392 -0.8536 -1.1929  0.7020
  398SOL    HW2 1194   1.862   3.010   0.458  1.6782  1.1843 -1.4693
  399SOL     OW 1195   2.372   2.683   1.832  0.4766 -0.6766  0.1313
  399SOL    HW1 1196   2.400   2.662   1.928  1.9586  0.2977  0.6909
  399SOL    HW2 1197   2.447   2.737   1.786 -0.3492  1.0924  2.1896
  400SOL     OW 1198   0.103   2.306   2.143  0.5210 -0.1284 -0.1547
  400SOL    HW1 1199   0.089   2.227   2.080 -0.0958 -2.4938 -0.6494
  400SOL    HW2 1200   0.188   2.309   2.196 -0.5326  1.1302  1.1139
  401SOL     OW 1201   0.510   0.442   0.582  0.5888  0.2488 -0.4171
  401SOL    HW1 1202   0.451   0.369   0.564  1.4838  3.2386 -0.0839
  401SOL    HW2 1203   0.454   0.517   0.629  1.1815  1.4291  0.7092
  402SOL     OW 1204   0.785   2.799   2.192 -0.3072 -0.0690  0.0135
  402SOL    HW1 1205   0.866   2.779   2.256 -0.2499  0.7598  0.2588
  402SOL    HW2 1206   0.812   2.890   2.150 -0.5617  0.6737 -0.1451
  403SOL     OW 1207   0.267   1.362   2.057 -0.9051 -0.2148 -0.0155
  403SOL    HW1 1208   0.337   1.310   2.108 -2.2664  1.0930 -1.9292
  403SOL    HW2 1209   0.185   1.313   2.056  2.2921  0.7668 -1.0196
  404SOL     OW 1210   2.778   2.278   2.296  0.8714  0.1045 -0.3917
  404SOL    HW1 1211   2.879   2.247   2.280  2.7145 -0.7835 -1.7085
  404SOL    HW2 1212   2.716   2.200   2.312 -1.6576  2.5216 -1.2259
  405SOL     OW 1213   2.451   0.223   2.596  0.0179  0.0184  0.0089
  405SOL    HW1 1214   2.358   0.240   2.636 -0.8787  1.9346 -1.0968
  405SOL    HW2 1215   2.444   0.158   2.514 -0.1967 -2.4569 -0.0058
  406SOL     OW 1216   1.723   2.359   0.215  0.2557 -0.5698  0.6350
  406SOL    HW1 1217   1.616   2.360   0.212 -4.0905  0.6607  0.0778
  406SOL    HW2 1218   1.769   2.436   0.260  0.8241 -1.0722 -2.3934
  407SOL     OW 1219   1.791   1.474   0.222  0.5266 -0.5661 -0.2914
  407SOL    HW1 1220   1.762   1.535   0.147  0.4326  2.2454  0.8814
  407SOL    HW2 1221   1.735   1.391   0.224 -1.2737  2.4389 -0.9487
  408SOL     OW 1222   0.068   0.816   2.242  0.4417 -0.0566  0.1413
  408SOL    HW1 1223   0.076   0.777   2.148 -0.0402  0.3694  1.3876
  408SOL    HW2 1224   0.073   0.738   2.308  1.0991  0.1376 -0.6246
  409SOL     OW 1225   2.796   1.431   2.963  0.2008  0.1113 -0.9259
  409SOL    HW1 1226   2.889   1.441   3.003 -1.4143  0.7880 -0.9546
  409SOL    HW2 1227   2.792   1.344   2.908 -0.8763 -0.5431  0.7765
  410SOL     OW 1228   2.846   1.534   1.185  0.0040 -0.8076 -0.3335
  410SOL    HW1 1229   2.817   1.536   1.088 -0.3662 -0.2426  0.1730
  410SOL    HW2 1230   2.941   1.577   1.190  3.9033  1.3342  0.1536
  411SOL     OW 1231   2.984   0.540   0.333 -0.7494 -0.1650  0.1789
  411SOL    HW1 1232   2.926   0.475   0.281  0.5161 -1.6094 -1.8381
  411SOL    HW2 1233   2.935   0.587   0.412 -0.3954  0.5212 -0.6659
  412SOL     OW 1234   1.679   0.071   0.279  0.7699  0.5661  0.3739
  412SOL    HW1 1235   1.706   0.058   0.374  0.6986 -0.5126 -2.1335
  412SOL    HW2 1236   1.575   0.066   0.269 -3.4418  0.3378  2.2675
  413SOL     OW 1237   1.410   0.340   1.815 -0.3500 -0.3243 -0.9574
  413SOL    HW1 1238   1.414   0.383   1.908 -0.1709 -0.3936  0.7676
  413SOL    HW2 1239   1.492   0.366   1.758  2.1518 -0.7644 -0.3914
  414SOL     OW 1240   0.307   0.924   0.323 -0.2252  0.3460  0.8634
  414SOL    HW1 1241   0.212   0.957   0.350 -3.7458  2.5399  1.2694
  414SOL    HW2 1242   0.366   0.991   0.280 -1.2218  0.8946  1.6624
  415SOL     OW 1243   2.893   1.034   0.425 -0.2201 -0.0911 -0.3403
  415SOL    HW1 1244   2.809   0.984   0.454  1.1826 -0.6274  0.7200
  415SOL    HW2 1245   2.896   1.116   0.484 -0.6763 -2.1665  1.8203
  416SOL     OW 1246   2.382   0.918   0.179  0.3271 -0.2483 -0.2599
  416SOL    HW1 1247   2.334   0.873   0.103  0.4291  0.9599  2.5361
  416SOL    HW2 1248   2.482   0.895   0.182  3.3953  5.8146 -2.1558
  417SOL     OW 1249   2.849   2.703   0.032  0.0685  0.7644  0.3300
  417SOL    HW1 1250   2.941   2.719   0.072  0.6034 -0.6798  0.6794
  417SOL    HW2 1251   2.800   2.628   0.077 -0.5714  0.3255 -1.2752
  418SOL     OW 1252   2.922   0.738   0.122  0.0102 -0.2249 -0.0703
  418SOL    HW1 1253   2.962   0.657   0.170 -0.3552  1.2644 -1.4290
  418SOL    HW2 1254   2.820   0.724   0.118 -1.8124  0.0744  3.9348
  419SOL     OW 1255   0.710   0.403   0.773 -0.4279  0.5048  0.3203
  419SOL    HW1 1256   0.633   0.411   0.708 -1.4705  1.6691 -1.3049
  419SOL    HW2 1257   0.761   0.324   0.734 -1.7138 -0.3098 -1.0333
  420SOL     OW 1258   0.420   0.829   0.927 -0.1295 -0.0818 -0.0828
  420SOL    HW1 1259   0.345   0.896   0.911  2.0409 -1.3209  1.8251
  420SOL    HW2 1260   0.445   0.823   1.028  0.5386 -0.5961 -0.2182
  421SOL     OW 1261   0.437   1.805   0.589  0.1651 -0.3172 -0.6663
  421SOL    HW1 1262   0.540   1.813   0.587  0.7695  1.0194 -1.3565
  421SOL    HW2 1263   0.399   1.882   0.536  0.0586 -1.0195  1.4491
  422SOL     OW 1264   2.705   0.314   1.763  0.8135  0.0876 -0.1819
  422SOL    HW1 1265   2.759   0.267   1.835  2.5225 -1.0343 -0.0435
  422SOL    HW2 1266   2.711   0.261   1.675 -0.3756 -0.2587 -0.6269
  423SOL     OW 1267   2.008   1.811   0.026 -0.0923  0.8205  0.1179
  423SOL    HW1 1268   2.032   1.819   0.123  1.8686  0.9841 -0.4393
  423SOL    HW2 1269   2.087   1.817   3.074 -0.7039  0.5689  3.2313
  424SOL     OW 1270   1.636   1.591   2.762 -0.1934  0.1028  0.0421
  424SOL    HW1 1271   1.684   1.679   2.757 -3.1623 -0.0977 -0.9716
  424SOL    HW2 1272   1.658   1.535   2.846  1.1494 -2.7034  4.7786
  425SOL     OW 1273   0.389   2.998   2.024  0.3084 -0.0080 -0.8129
  425SOL    HW1 1274   0.358   2.908   1.997  0.9175 -0.0983  1.6601
  425SOL    HW2 1275   0.309   3.054   2.004 -2.0260 -3.7021 -0.1694
  426SOL     OW 1276   2.300   2.980   3.090  0.1170 -0.2757 -0.3463
  426SOL    HW1 1277   2.237   3.042   0.038 -2.6001  1.1796  0.2457
  426SOL    HW2 1278   2.239   2.940   3.014 -3.5090 -0.0183 -2.0115
  427SOL     OW 1279   0.484   1.658   2.284 -0.4685  0.5641 -0.3451
  427SOL    HW1 1280   0.554   1.724   2.319 -2.0516  1.5904  0.8950
  427SOL    HW2 1281   0.401   1.662   2.344 -2.0938  1.6625 -2.4603
  428SOL     OW 1282   2.013   1.674   2.551  0.0936 -0.0196  1.1621
  428SOL    HW1 1283   1.949   1.710   2.481  2.1500  0.3996 -3.0895
  428SOL    HW2 1284   2.036   1.578   2.540  0.3286  0.0360  0.6154
  429SOL     OW 1285   2.702   2.813   0.616 -0.7636 -0.8210  0.2056
  429SOL    HW1 1286   2.773   2.885   0.599  0.3873 -1.9722 -2.6041
  429SOL    HW2 1287   2.646   2.807   0.530 -0.4328  0.3402 -2.3658
  430SOL     OW 1288   1.697   1.825   2.041  0.3332  0.1935 -0.2115
  430SOL    HW1 1289   1.769   1.754   2.053 -0.4940  1.2810 -1.8255
  430SOL    HW2 1290   1.697   1.850   1.943 -0.7264 -0.6968  0.1051
  431SOL     OW 1291   2.965   1.787   2.041  0.0597  0.2108  0.2226
  431SOL    HW1 1292   2.923   1.840   2.117 -0.3213 -1.8284 -0.1608
  431SOL    HW2 1293   2.899   1.769   1.966 -2.2567 -1.0910  2.4155
  432SOL     OW 1294   1.108   2.319   2.326 -0.2228 -0.0628 -0.6378
  432SOL    HW1 1295   1.090   2.282   2.419 -0.8054  3.7646 -1.0722
  432SOL    HW2 1296   1.086   2.249   2.256  0.3169 -0.4414  0.5286
  433SOL     OW 1297   1.018   2.873   0.926  0.3916  0.6069 -0.0439
  433SOL    HW1 1298   0.973   2.892   0.838  2.2637  2.8437  2.2923
  433SOL    HW2 1299   1.119   2.863   0.920  0.0386  2.2931  0.7440
  434SOL     OW 1300   0.330   2.255   2.275  0.5339  0.3073  0.5065
  434SOL    HW1 1301   0.329   2.163   2.316 -4.5571  4.0099 -2.4921
  434SOL    HW2 1302   0.402   2.270   2.203  1.3305 -1.4446 -1.3540
  435SOL     OW 1303   0.411   1.356   0.573  0.0823  0.9971 -0.3921
  435SOL    HW1 1304   0.462   1.275   0.539  1.7236  0.2251  1.5655
  435SOL    HW2 1305   0.387   1.427   0.504 -2.5269 -2.1323  3.5903
  436SOL     OW 1306   0.437   2.031   1.816  0.1890 -0.3715  0.4676
  436SOL    HW1 1307   0.526   1.986   1.798  2.3108 -0.0058  0.9982
  436SOL    HW2 1308   0.403   2.091   1.735 -4.1329  2.3277 -1.0830
  437SOL     OW 1309   1.057   0.330   0.429 -0.6274 -0.3489 -0.1116
  437SOL    HW1 1310   1.095   0.234   0.421  0.2296  0.1834 -0.6297
  437SOL    HW2 1311   0.965   0.342   0.387  2.6244 -0.3883  0.1373
  438SOL     OW 1312   0.901   1.766   0.799 -0.5222 -0.3147 -0.2924
  438SOL    HW1 1313   0.836   1.707   0.849  0.0953 -0.0176  0.7870
  438SOL    HW2 1314   0.997   1.742   0.817 -0.8144  1.3625  1.3104
  439SOL     OW 1315   1.295   2.229   1.766 -0.2512  0.0158  0.2251
  439SOL    HW1 1316   1.276   2.238   1.665  0.5453 -2.0579  0.1962
  439SOL    HW2 1317   1.325   2.138   1.792  1.8274  1.3096  1.3708
  440SOL     OW 1318   1.699   0.220   1.341 -0.4130  0.9400  0.2367
  440SOL    HW1 1319   1.721   0.180   1.433  0.5046 -1.1787 -0.5027
  440SOL    HW2 1320   1.743   0.309   1.318  0.3167 -0.2557  0.5589
  441SOL     OW 1321   0.578   3.059   1.337  0.0197  0.0061  0.8440
  441SOL    HW1 1322   0.584   0.011   1.414 -0.8891  1.8162 -2.6019
  441SOL    HW2 1323   0.635   2.978   1.350  0.5403 -1.6640  0.8280
  442SOL     OW 1324   2.328   2.098   0.637  0.0129 -0.1432 -0.2044
  442SOL    HW1 1325   2.240   2.061   0.607  1.6497 -0.3972  0.4302
  442SOL    HW2 1326   2.379   2.131   0.560 -1.8985 -0.6882 -3.2339
  443SOL     OW 1327   2.541   0.559   2.232  0.1310  0.3571 -0.7345
  443SOL    HW1 1328   2.500   0.592   2.319  1.7147  1.5299 -0.3134
  443SOL    HW2 1329   2.639   0.560   2.227  1.7446  0.1758 -1.8306
  444SOL     OW 1330   1.795   1.326   2.285 -0.1028  0.2904  0.1020
  444SOL    HW1 1331   1.733   1.319   2.364  1.2099  0.7768  1.2903
  444SOL    HW2 1332   1.892   1.316   2.311 -1.2071 -1.5858 -0.6327
  445SOL     OW 1333   2.561   2.003   1.581 -0.6575 -0.0283 -0.0753
  445SOL    HW1 1334   2.529   2.050   1.662 -0.3911 -1.8233  1.0159
  445SOL    HW2 1335   2.559   1.903   1.590  0.3376  0.2177 -0.3885
  446SOL     OW 1336   0.149   0.923   0.648 -0.2987  0.0303  0.4623
  446SOL    HW1 1337   0.149   0.823   0.658  1.9609  0.6362  3.7685
  446SOL    HW2 1338   0.137   0.959   0.556 -1.7805 -0.4228  2.5290
  447SOL     OW 1339   0.682   1.590   0.890  0.6560  0.5509 -0.1676
  447SOL    HW1 1340   0.675   1.492   0.870  1.2833 -0.4844  1.0523
  447SOL    HW2 1341   0.595   1.638   0.862  0.1394 -0.0614 -1.0721
  448SOL     OW 1342   1.196   1.167   1.910 -0.0807  0.3451 -0.2077
  448SOL    HW1 1343   1.268   1.234   1.888 -1.3057 -1.7045  1.2154
  448SOL    HW2 1344   1.237   1.073   1.897  2.2108 -1.7052  0.9291
  449SOL     OW 1345   0.310   1.469   0.116 -0.1264  0.6101 -0.0882
  449SOL    HW1 1346   0.310   1.382   0.066 -0.1968 -0.5349 -0.4873
  449SOL    HW2 1347   0.213   1.505   0.111  0.0140 -1.1729  0.5219
  450SOL     OW 1348   2.681   2.364   1.858  0.2556  0.6547 -0.2354
  450SOL    HW1 1349   2.604   2.399   1.804  1.8407 -1.7017  1.0078
  450SOL    HW2 1350   2.680   2.392   1.956  1.7650 -0.7573  0.9712
  451SOL     OW 1351   2.041   0.434   2.260  0.4925 -0.1477  0.2021
  451SOL    HW1 1352   2.001   0.353   2.308  1.3435  3.7099  0.0914
  451SOL    HW2 1353   2.035   0.434   2.158 -0.0272  3.1739 -1.7721
  452SOL     OW 1354   0.903   2.975   1.152  0.0851  0.0377  0.2616
  452SOL    HW1 1355   0.958   2.946   1.074 -1.6617 -0.1838  2.8933
  452SOL    HW2 1356   0.965   3.028   1.217  1.1080  1.9203 -1.7112
  453SOL     OW 1357   1.128   1.271   1.089 -0.1776  0.0584  0.4271
  453SOL    HW1 1358   1.222   1.309   1.079  0.6239  1.4977  0.7469
  453SOL    HW2 1359   1.068   1.338   1.134 -1.3325  2.5572 -0.6258
  454SOL     OW 1360   3.092   1.150   0.972  0.8990 -0.0975 -0.2522
  454SOL    HW1 1361   0.051   1.201   1.031  0.9292 -2.4439  2.0657
  454SOL    HW2 1362   3.084   1.192   0.882  0.6660 -1.4147  0.9835
  455SOL     OW 1363   3.077   2.718   0.412  0.2825  0.2472  0.1968
  455SOL    HW1 1364   3.086   2.749   0.314  0.3730 -1.3445  0.3983
  455SOL    HW2 1365   3.098   2.790   0.481 -2.1087 -1.2370  0.6087
  456SOL     OW 1366   2.260   2.408   0.619 -0.0199  0.1769  0.5896
  456SOL    HW1 1367   2.178   2.362   0.664 -0.9214 -0.0376  0.8472
  456SOL    HW2 1368   2.317   2.336   0.569 -0.2084  1.0379 -1.1407
  457SOL     OW 1369   1.406   0.287   0.070 -0.3091  0.0588 -0.0301
  457SOL    HW1 1370   1.399   0.204   0.131 -2.1586 -1.3930  0.4007
  457SOL    HW2 1371   1.359   0.364   0.116 -0.8516 -0.8480  0.0476
  458SOL     OW 1372   2.830   2.595   0.401 -0.5397 -0.1014  0.0685
  458SOL    HW1 1373   2.919   2.644   0.402 -2.5875 -1.0875  0.3358
  458SOL    HW2 1374   2.798   2.562   0.309 -1.8199  1.1749  1.3003
  459SOL     OW 1375   2.116   0.232   2.560  0.2406 -0.5857  0.6499
  459SOL    HW1 1376   2.059   0.315   2.586 -3.3213  1.5449  1.2892
  459SOL    HW2 1377   2.146   0.182   2.643  0.9097 -2.0096 -1.6786
  460SOL     OW 1378   0.089   0.207   0.151  0.0577 -0.1498  0.1236
  460SOL    HW1 1379   0.104   0.306   0.170 -2.0877  2.2674 -0.0120
  460SOL    HW2 1380   0.020   0.167   0.215  0.9814 -3.3803 -1.7278
  461SOL     OW 1381   0.422   1.741   1.320  0.1094 -0.3491 -0.4937
  461SOL    HW1 1382   0.342   1.749   1.380  1.4770  0.7829  0.7289
  461SOL    HW2 1383   0.405   1.674   1.245 -0.7279  1.3115  1.0062
  462SOL     OW 1384   2.934   2.992   1.515 -0.7143 -0.1393  0.0834
  462SOL    HW1 1385   3.027   3.033   1.520  3.3213 -1.2748 -1.7245
  462SOL    HW2 1386   2.894   2.965   1.605 -2.3083 -0.2038  0.1066
  463SOL     OW 1387   2.701   1.062   3.092 -0.3130  0.4469 -0.2308
  463SOL    HW1 1388   2.648   1.133   0.027  1.1732 -1.6801  0.7828
  463SOL    HW2 1389   2.706   1.075   2.991 -0.4812  1.9071  1.3687
  464SOL     OW 1390   0.179   2.430   1.227  0.2990  0.2882 -0.5525
  464SOL    HW1 1391   0.215   2.349   1.177 -2.8095  0.6659  0.2703
  464SOL    HW2 1392   0.245   2.496   1.263 -1.2475 -1.4400  1.8338
  465SOL     OW 1393   0.378   0.615   0.756 -0.5046  0.6176  0.2475
  465SOL    HW1 1394   0.280   0.627   0.738 -1.2853  0.3427 -0.5887
  465SOL    HW2 1395   0.406   0.689   0.817 -2.0825 -0.6443 -2.7986
  466SOL     OW 1396   1.290   3.098   2.192 -0.1807 -0.0987 -0.0197
  466SOL    HW1 1397   1.332   3.005   2.181 -1.7992 -1.2420  1.7566
  466SOL    HW2 1398   1.277   0.018   2.290 -0.4945 -0.0527  0.7073
  467SOL     OW 1399   0.813   0.413   2.136 -0.3506  0.0081  0.1750
  467SOL    HW1 1400   0.758   0.388   2.052 -1.3268  0.5418  3.5097
  467SOL    HW2 1401   0.770   0.497   2.179  0.0941  0.4203  2.4344
  468SOL     OW 1402   0.180   1.148   2.454  0.6190 -0.2834 -0.7770
  468SOL    HW1 1403   0.200   1.247   2.427 -0.6175 -0.6041 -0.8280
  468SOL    HW2 1404   0.146   1.105   2.368  1.8956  0.8182  1.1048
  469SOL     OW 1405   0.425   1.677   0.824  0.2649 -0.2698 -0.1702
  469SOL    HW1 1406   0.426   1.710   0.728 -0.4414  0.3405  0.4554
  469SOL    HW2 1407   0.354   1.604   0.843 -1.8501  0.2322 -0.1472
  470SOL     OW 1408   2.826   1.703   2.302 -0.1256  0.2256  0.0612
  470SOL    HW1 1409   2.774   1.654   2.373  3.4211  1.4083 -0.2994
  470SOL    HW2 1410   2.772   1.748   2.230  1.1866 -1.3980 -0.0399
  471SOL     OW 1411   1.648   0.755   2.353 -0.4279  0.1083  0.1614
  471SOL    HW1 1412   1.721   0.715   2.295  0.8674  1.0895 -0.3405
  471SOL    HW2 1413   1.654   0.703   2.441  1.1166 -1.8729 -0.2261
  472SOL     OW 1414   0.864   2.634   1.605 -0.1060 -0.5165  0.2262
  472SOL    HW1 1415   0.786   2.568   1.611  2.8182 -2.1570 -1.1434
  472SOL    HW2 1416   0.941   2.584   1.557 -1.0983 -1.6910 -1.2977
  473SOL     OW 1417   0.490   0.062   2.458  0.5183 -0.5207  0.0033
  473SOL    HW1 1418   0.548   0.143   2.485 -0.3678 -1.3586 -0.3515
  473SOL    HW2 1419   0.530   0.011   2.379  0.4340 -1.9270  2.9862
  474SOL     OW 1420   1.951   0.077   1.133  0.4120 -0.2199 -0.1749
  474SOL    HW1 1421   1.962   0.175   1.102 -2.0823 -0.0769  0.3825
  474SOL    HW2 1422   1.854   0.055   1.132  2.4037 -0.2309  0.5249
  475SOL     OW 1423   1.849   0.928   0.895 -0.1197 -0.6593 -0.0686
  475SOL    HW1 1424   1.864   0.871   0.813  1.8581  1.7273  2.4387
  475SOL    HW2 1425   1.883   1.023   0.889  0.6987  0.0462  0.8758
  476SOL     OW 1426   0.580   0.818   1.144  0.2299  0.1882  0.1135
  476SOL    HW1 1427   0.571   0.918   1.153 -0.2150  0.7372  2.5017
  476SOL    HW2 1428   0.681   0.802   1.145 -1.6180 -1.4669  1.1312
  477SOL     OW 1429   1.404   2.562   0.372  0.2694  0.3017  0.0165
  477SOL    HW1 1430   1.317   2.543   0.414  0.6316 -0.7575  0.7993
  477SOL    HW2 1431   1.460   2.630   0.423 -1.1742  1.9975 -0.5082
  478SOL     OW 1432   0.336   2.416   2.478 -0.5122 -0.2992  0.3384
  478SOL    HW1 1433   0.423   2.475   2.476  1.8778 -0.5587  0.7165
  478SOL    HW2 1434   0.329   2.374   2.386  2.6058  1.6785 -1.2258
  479SOL     OW 1435   2.588   0.384   1.273 -0.1572  0.6745  0.2815
  479SOL    HW1 1436   2.525   0.409   1.347  1.6390 -1.4032 -2.5148
  479SOL    HW2 1437   2.550   0.330   1.199  2.0870  0.7306  1.4588
  480SOL     OW 1438   0.430   2.240   0.609  0.0884  0.9810 -0.0313
  480SOL    HW1 1439   0.503   2.191   0.554 -2.1251 -3.2000 -0.9671
  480SOL    HW2 1440   0.354   2.273   0.547 -2.0223  0.4552  2.3395
  481SOL     OW 1441   2.095   2.043   1.542  0.0455 -0.2586 -0.0497
  481SOL    HW1 1442   2.039   2.128   1.536  0.7741 -0.9591  1.4019
  481SOL    HW2 1443   2.178   2.054   1.482 -1.0069  1.8776  0.1962
  482SOL     OW 1444   1.237   2.530   3.067 -0.9692 -0.9023 -0.4808
  482SOL    HW1 1445   1.332   2.507   3.040 -0.9786 -1.2140 -0.2144
  482SOL    HW2 1446   1.183   2.446   3.090 -1.5800  0.3756  1.5305
  483SOL     OW 1447   0.879   2.188   1.948 -0.0345 -0.1446 -0.0679
  483SOL    HW1 1448   0.945   2.265   1.939  3.7080 -0.1731 -1.4703
  483SOL    HW2 1449   0.840   2.174   1.853 -2.2170  0.9172 -1.8667
  484SOL     OW 1450   1.599   0.508   1.472  0.0865  0.3571  0.2514
  484SOL    HW1 1451   1.641   0.588   1.419  0.6458  4.3500 -0.0138
  484SOL    HW2 1452   1.532   0.551   1.530  0.8671 -0.0945 -1.8993
  485SOL     OW 1453   1.598   0.916   2.655 -0.0438  0.2422  0.5869
  485SOL    HW1 1454   1.691   0.953   2.681 -1.3234  1.5684  0.7349
  485SOL    HW2 1455   1.594   0.835   2.598 -1.8047  4.2088  0.7533
  486SOL     OW 1456   2.267   0.021   1.227 -0.5609 -0.0992  0.1633
  486SOL    HW1 1457   2.220   3.091   1.147 -2.9827 -2.5606  2.4895
  486SOL    HW2 1458   2.354   3.079   1.254 -1.2066  2.9674  1.7037
  487SOL     OW 1459   0.625   2.075   1.328  0.2628  0.4173 -0.2521
  487SOL    HW1 1460   0.644   2.177   1.331 -0.0178  0.6419 -1.4154
  487SOL    HW2 1461   0.527   2.056   1.313 -1.3569  0.1734 -0.1577
  488SOL     OW 1462   2.515   2.004   0.100  0.0153 -0.5159  0.2575
  488SOL    HW1 1463   2.604   2.037   0.142  3.3034 -0.5420  3.1481
  488SOL    HW2 1464   2.547   1.975   0.008 -0.0213 -1.0431 -1.5090
  489SOL     OW 1465   2.034   3.039   0.767  0.3075  0.1830  0.1357
  489SOL    HW1 1466   2.107   2.981   0.730 -1.9353  1.4954  0.3078
  489SOL    HW2 1467   1.941   3.010   0.734 -4.0786 -1.8595  0.7140
  490SOL     OW 1468   0.833   1.574   0.081 -0.8446  0.2744  0.3776
  490SOL    HW1 1469   0.894   1.636   0.019  2.0400  2.4933 -2.4295
  490SOL    HW2 1470   0.815   1.619   0.167  0.5262 -1.0128 -2.1440
  491SOL     OW 1471   0.168   2.062   1.456 -0.5568  0.3684 -0.1291
  491SOL    HW1 1472   0.081   2.101   1.483  1.5109 -0.6261  1.2482
  491SOL    HW2 1473   0.242   2.098   1.516  1.3260 -1.4409  1.0512
  492SOL     OW 1474   0.566   1.490   1.868 -0.0416 -0.0584 -0.2458
  492SOL    HW1 1475   0.622   1.499   1.784 -0.1681 -0.8938 -2.2823
  492SOL    HW2 1476   0.476   1.442   1.852 -1.3548 -2.6533  1.7497
  493SOL     OW 1477   2.575   1.873   0.948 -0.1186 -0.0497 -0.3780
  493SOL    HW1 1478   2.569   1.808   0.870 -0.9384 -1.9154 -1.2128
  493SOL    HW2 1479   2.673   1.888   0.972  1.3448 -2.1978 -0.3097
  494SOL     OW 1480   2.562   1.733   0.715  0.2800 -0.3540  0.6805
  494SOL    HW1 1481   2.523   1.740   0.625  0.0637  0.4221  0.2224
  494SOL    HW2 1482   2.658   1.696   0.709  0.7757  0.5060  2.1762
  495SOL     OW 1483   2.669   2.871   0.136 -0.0273 -0.0141 -0.1232
  495SOL    HW1 1484   2.743   2.817   0.096  0.3436 -0.4866  3.3873
  495SOL    HW2 1485   2.658   2.964   0.093 -0.5876  0.0986  1.7076
  496SOL     OW 1486   2.503   2.984   1.273  0.1852  0.2033  0.6250
  496SOL    HW1 1487   2.488   2.888   1.296 -0.2799  2.9422 -2.1000
  496SOL    HW2 1488   2.574   3.028   1.333  1.3204 -1.6417  2.0690
  497SOL     OW 1489   2.461   1.304   2.744  0.2873 -0.6911 -0.0244
  497SOL    HW1 1490   2.408   1.217   2.750  1.1368  1.5490  1.4138
  497SOL    HW2 1491   2.560   1.290   2.735  0.5950 -1.9251  2.0949
  498SOL     OW 1492   2.909   1.871   1.287  0.0298  0.2599 -0.6382
  498SOL    HW1 1493   2.889   1.950   1.345 -1.0126 -2.9046 -1.4718
  498SOL    HW2 1494   2.842   1.796   1.313  0.6378 -3.0733 -0.2380
  499SOL     OW 1495   0.895   2.395   2.730 -0.2616 -0.2617  0.0661
  499SOL    HW1 1496   0.863   2.301   2.710 -1.6352  0.0646 -1.7917
  499SOL    HW2 1497   0.989   2.414   2.695  2.4663  1.7717 -1.3023
  500SOL     OW 1498   1.602   1.294   0.315 -1.0981  0.5427 -0.8852
  500SOL    HW1 1499   1.504   1.320   0.289 -2.3037  3.4816  1.7150
  500SOL    HW2 1500   1.620   1.328   0.412 -1.1615  1.8070  2.0879
  501SOL     OW 1501   1.726   0.095   1.577 -0.3110  0.1502 -0.5374
  501SOL    HW1 1502   1.670   0.062   1.651  1.8977  0.3938  0.4470
  501SOL    HW2 1503   1.799   0.027   1.559  3.3139 -4.7702  1.6473
  502SOL     OW 1504   2.599   0.686   1.578  0.6012  0.4907 -0.1797
  502SOL    HW1 1505   2.687   0.634   1.582  1.1773  0.5787 -0.6430
  502SOL    HW2 1506   2.583   0.720   1.675  0.2044  1.8369  0.4535
  503SOL     OW 1507   2.361   1.648   2.207 -0.3069  0.3184 -0.5651
  503SOL    HW1 1508   2.267   1.608   2.196 -0.7573  1.4346 -2.4080
  503SOL    HW2 1509   2.422   1.600   2.142  0.1642  0.5204  0.1732
  504SOL     OW 1510   1.388   1.331   1.810  0.7373 -0.1802  0.4252
  504SOL    HW1 1511   1.341   1.410   1.769  2.5444 -0.7394 -0.8602
  504SOL    HW2 1512   1.475   1.363   1.852 -0.4732 -0.6876  2.4491
  505SOL     OW 1513   0.478   0.355   1.641 -0.0042  0.3969  0.1981
  505SOL    HW1 1514   0.501   0.414   1.562 -1.1739 -0.9044  0.5268
  505SOL    HW2 1515   0.488   0.403   1.733  0.1099 -1.5049  0.2382
  506SOL     OW 1516   0.305   0.062   0.054 -0.0350  0.4381  0.5198
  506SOL    HW1 1517   0.221   0.120   0.080 -1.4666 -0.7201 -0.4644
  506SOL    HW2 1518   0.360   0.118   3.099 -0.4085 -1.4493 -0.8252
  507SOL     OW 1519   0.499   2.728   0.181  0.0948  0.8536 -0.1296
  507SOL    HW1 1520   0.439   2.657   0.228 -0.8163 -3.3085  2.4414
  507SOL    HW2 1521   0.443   2.786   0.116  0.9619 -1.8868  1.5672
  508SOL     OW 1522   1.044   0.348   2.031  0.3824 -0.2554 -0.1092
  508SOL    HW1 1523   0.958   0.378   2.067  2.2627  1.0874 -1.6221
  508SOL    HW2 1524   1.103   0.309   2.103  1.3838 -3.2614 -0.0639
  509SOL     OW 1525   1.318   2.071   1.070 -0.1534  0.0782 -0.1916
  509SOL    HW1 1526   1.287   2.150   1.018 -1.4054  0.6909 -1.2701
  509SOL    HW2 1527   1.390   2.097   1.137  0.3418  0.2578 -1.0232
  510SOL     OW 1528   2.854   1.192   1.615 -0.1995  0.0695 -0.1389
  510SOL    HW1 1529   2.848   1.214   1.715 -0.4915  0.9979  1.3014
  510SOL    HW2 1530   2.758   1.176   1.584 -2.6350 -1.6539  0.7043
  511SOL     OW 1531   1.240   1.828   1.176  0.2240 -0.0592  0.3396
  511SOL    HW1 1532   1.288   1.909   1.131  2.8570 -1.4892 -2.5515
  511SOL    HW2 1533   1.282   1.744   1.138 -1.7577  0.1966  1.9565
  512SOL     OW 1534   2.918   1.482   0.412 -0.1523  0.3317 -0.0760
  512SOL    HW1 1535   2.841   1.489   0.347 -0.1436  1.1224 -0.8673
  512SOL    HW2 1536   2.996   1.529   0.374 -1.3664  1.0823  1.7854
  513SOL     OW 1537   0.184   1.571   2.775  0.1637 -0.7916  0.2943
  513SOL    HW1 1538   0.242   1.493   2.743 -1.4807  0.7225 -1.9148
  513SOL    HW2 1539   0.206   1.582   2.876 -2.3229  3.3084 -0.3271
  514SOL     OW 1540   2.325   2.350   2.421 -0.4477 -0.0418  0.3067
  514SOL    HW1 1541   2.230   2.384   2.411 -2.3209 -1.4727  0.7587
  514SOL    HW2 1542   2.331   2.260   2.374  1.5391  0.8581  1.4977
  515SOL     OW 1543   2.233   0.965   0.674 -0.4873 -0.5084 -0.2451
  515SOL    HW1 1544   2.151   0.910   0.694  1.1948  0.4035 -0.4416
  515SOL    HW2 1545   2.316   0.912   0.698  0.7509 -0.0669 -1.1714
  516SOL     OW 1546   2.764   2.478   0.148  0.3848 -0.0286 -0.1158
  516SOL    HW1 1547   2.692   2.410   0.160  0.9352  2.0167  1.0168
  516SOL    HW2 1548   2.855   2.443   0.119  2.8551  1.2819 -2.3188
  517SOL     OW 1549   0.554   1.310   2.968  0.4165 -0.4103 -0.2169
  517SOL    HW1 1550   0.552   1.398   2.917 -0.6043  1.7066 -1.9516
  517SOL    HW2 1551   0.566   1.326   3.065  0.7358 -1.4314  0.0069
  518SOL     OW 1552   2.914   0.337   2.188  0.0088  0.3742 -0.3196
  518SOL    HW1 1553   2.821   0.314   2.159  2.0619 -0.2316  0.3639
  518SOL    HW2 1554   2.936   0.421   2.138 -2.2284  0.4356  0.9955
  519SOL     OW 1555   1.656   1.019   0.011 -0.3166 -0.3125 -0.5609
  519SOL    HW1 1556   1.602   0.954   3.057 -0.0751 -2.2133 -0.4209
  519SOL    HW2 1557   1.623   1.015   0.110 -0.9983 -0.1463  0.2217
  520SOL     OW 1558   2.827   2.898   2.315 -0.2858 -0.6262 -0.1710
  520SOL    HW1 1559   2.802   2.991   2.341 -0.1439 -0.8056 -0.8170
  520SOL    HW2 1560   2.817   2.839   2.397  0.9006  1.1438  0.1436
  521SOL     OW 1561   0.407   1.946   2.411  0.2270 -0.0089 -0.0246
  521SOL    HW1 1562   0.482   1.992   2.356  3.1584 -1.1880  0.9158
  521SOL    HW2 1563   0.447   1.884   2.479 -0.8403 -2.6107  1.6929
  522SOL     OW 1564   1.240   3.028   1.694 -0.0055  0.2225  0.5893
  522SOL    HW1 1565   1.266   3.089   1.769  0.2948 -1.7400 -0.1404
  522SOL    HW2 1566   1.272   2.932   1.718  0.5844 -0.2783  1.6031
  523SOL     OW 1567   2.164   2.198   0.976  0.2673 -0.4258  0.6788
  523SOL    HW1 1568   2.248   2.146   0.955 -1.7817 -2.0182  0.1678
  523SOL    HW2 1569   2.182   2.264   1.053  2.3667  0.3182  0.6501
  524SOL     OW 1570   1.236   2.159   0.666 -0.4643 -0.3632 -0.2827
  524SOL    HW1 1571   1.291   2.246   0.673  2.2577  0.2800  0.0914
  524SOL    HW2 1572   1.135   2.180   0.662  3.5459 -0.1441 -2.8706
  525SOL     OW 1573   2.753   0.435   0.657  0.0525  0.0150 -0.2538
  525SOL    HW1 1574   2.717   0.473   0.747 -0.6539  0.4553  0.1371
  525SOL    HW2 1575   2.795   0.516   0.607  0.5529 -0.0489  0.7913
  526SOL     OW 1576   1.536   2.812   0.415  0.1038 -0.0487  0.6962
  526SOL    HW1 1577   1.629   2.768   0.444  3.0816 -0.2192  1.6119
  526SOL    HW2 1578   1.520   2.817   0.318 -1.3532  1.9929 -1.3854
  527SOL     OW 1579   1.965   1.683   1.002  0.0847 -0.2858 -0.0212
  527SOL    HW1 1580   1.920   1.683   1.095 -2.3055 -0.3896  0.6277
  527SOL    HW2 1581   2.011   1.774   0.989 -2.9790 -2.3499 -1.3990
  528SOL     OW 1582   2.861   2.789   2.551 -0.0877  0.2063 -0.3765
  528SOL    HW1 1583   2.893   2.695   2.525  0.4895 -0.2379 -2.0603
  528SOL    HW2 1584   2.783   2.785   2.614  1.4891 -0.4672  0.9383
  529SOL     OW 1585   0.962   1.315   2.464  0.2403  0.9850 -0.3932
  529SOL    HW1 1586   1.005   1.283   2.551 -0.5188  0.4549  0.5991
  529SOL    HW2 1587   0.859   1.314   2.475  1.3634  2.3174  1.2015
  530SOL     OW 1588   1.874   1.029   2.391 -0.0960 -0.8157 -0.1436
  530SOL    HW1 1589   1.786   1.036   2.333 -0.1762  1.6742  0.7312
  530SOL    HW2 1590   1.853   1.013   2.492 -0.5583 -1.8671  0.2772
  531SOL     OW 1591   0.236   0.879   0.043 -0.0731 -0.2473 -0.5159
  531SOL    HW1 1592   0.270   0.901   0.137 -0.4096  1.2663  0.3532
  531SOL    HW2 1593   0.136   0.901   0.032 -0.6718  2.4303  1.1775
  532SOL     OW 1594   1.637   1.390   0.572 -0.0375  0.0614  0.4097
  532SOL    HW1 1595   1.597   1.302   0.602 -0.7804 -0.3525 -3.1564
  532SOL    HW2 1596   1.582   1.471   0.601  1.5604 -2.4420 -0.7175
  533SOL     OW 1597   0.234   0.388   2.513  0.3424  0.0178 -0.1101
  533SOL    HW1 1598   0.251   0.326   2.432  1.3830 -1.6512  0.4357
  533SOL    HW2 1599   0.326   0.421   2.548  0.2549  0.3907  1.7505
  534SOL     OW 1600   0.922   0.499   2.584 -0.6075 -0.2043 -0.3718
  534SOL    HW1 1601   0.871   0.518   2.671 -1.4299  1.2753  1.3760
  534SOL    HW2 1602   1.001   0.565   2.574  1.8030  0.4194  1.5633
  535SOL     OW 1603   0.551   0.481   0.137 -0.6289 -0.1531  0.7019
  535SOL    HW1 1604   0.554   0.531   0.228 -0.3082  0.3912  1.3648
  535SOL    HW2 1605   0.503   0.542   0.068 -0.5464 -0.9986  0.6870
  536SOL     OW 1606   0.697   0.743   2.907  0.1895  0.0938 -0.1959
  536SOL    HW1 1607   0.670   0.832   2.861 -1.2567  0.2396 -1.0974
  536SOL    HW2 1608   0.786   0.756   2.961  1.6169 -0.4569  0.0799
  537SOL     OW 1609   1.456   3.033   1.525  0.1789 -0.2914 -0.3351
  537SOL    HW1 1610   1.361   3.054   1.561 -0.9014  0.3508 -0.4387
  537SOL    HW2 1611   1.534   3.059   1.588 -0.2444 -3.4924  2.1892
  538SOL     OW 1612   0.650   2.514   0.079  0.3517 -0.2763 -0.1541
  538SOL    HW1 1613   0.602   2.597   0.113 -3.3148 -1.2197  0.7480
  538SOL    HW2 1614   0.725   2.536   0.015 -0.9276  0.8631  0.4856
  539SOL     OW 1615   2.874   1.247   1.884  0.2081  0.2613  0.1285
  539SOL    HW1 1616   2.789   1.244   1.933  1.6444  2.1248 -3.0366
  539SOL    HW2 1617   2.927   1.327   1.919 -0.5991 -1.1416  0.8250
  540SOL     OW 1618   1.840   1.676   1.283  0.4233  0.2114 -0.2581
  540SOL    HW1 1619   1.836   1.595   1.345 -0.6002  0.1985 -2.2263
  540SOL    HW2 1620   1.853   1.765   1.329 -1.2539  1.2925  0.0110
  541SOL     OW 1621   0.674   1.904   1.787  0.2630 -0.8312  0.7918
  541SOL    HW1 1622   0.671   1.886   1.684  0.2935  0.6339 -0.2021
  541SOL    HW2 1623   0.704   1.818   1.841 -0.5441 -0.7165  0.9378
  542SOL     OW 1624   1.816   1.164   1.838 -0.1713  0.8386 -0.2339
  542SOL    HW1 1625   1.752   1.185   1.761  0.7380 -1.6741  0.0628
  542SOL    HW2 1626   1.843   1.068   1.837 -1.9946  3.3455 -1.2835
  543SOL     OW 1627   0.950   0.485   0.946  0.0885 -0.1061  0.1354
  543SOL    HW1 1628   0.973   0.580   0.965  2.1429 -2.7061 -0.7310
  543SOL    HW2 1629   0.906   0.476   0.856 -0.0895 -0.7374 -0.4258
  544SOL     OW 1630   1.851   1.595   1.955 -0.1833 -0.0738 -0.2312
  544SOL    HW1 1631   1.953   1.599   1.946  0.4958 -0.0187 -2.8121
  544SOL    HW2 1632   1.820   1.501   1.983 -0.2241 -1.7099 -0.0145
  545SOL     OW 1633   1.584   1.741   1.228  0.1465 -0.5452  0.6737
  545SOL    HW1 1634   1.600   1.826   1.176  1.4071 -0.9777 -1.4799
  545SOL    HW2 1635   1.674   1.704   1.258  0.4025  2.8030 -1.3379
  546SOL     OW 1636   0.203   0.183   2.826 -0.4315  0.2407  0.2853
  546SOL    HW1 1637   0.204   0.133   2.737  0.7139  0.8176  0.9141
  546SOL    HW2 1638   0.293   0.170   2.876  0.9899 -0.2049  0.5146
  547SOL     OW 1639   2.252   0.767   3.071  0.1776 -0.1786  0.9515
  547SOL    HW1 1640   2.163   0.813   3.083  1.6989  0.6503  0.6909
  547SOL    HW2 1641   2.241   0.669   3.095 -0.0418 -0.0187  0.6418
  548SOL     OW 1642   2.239   1.894   2.175  0.2237 -0.2483  0.0569
  548SOL    HW1 1643   2.257   1.894   2.076  1.2680  1.8499 -0.8316
  548SOL    HW2 1644   2.282   1.808   2.218  2.6325 -1.0544 -2.5787
  549SOL     OW 1645   2.472   2.840   0.834  0.8789  0.5415  0.0268
  549SOL    HW1 1646   2.443   2.767   0.904 -0.8505 -1.5369  2.0346
  549SOL    HW2 1647   2.543   2.799   0.772 -0.2804 -2.1028 -0.2569
  550SOL     OW 1648   2.193   1.417   3.084  0.1763 -0.5501 -0.3976
  550SOL    HW1 1649   2.158   1.363   0.049 -0.8681  1.8384 -2.8494
  550SOL    HW2 1650   2.250   1.495   0.016  0.7158  2.5826  0.6574
  551SOL     OW 1651   1.596   3.106   1.795  0.2105  0.1975 -0.1620
  551SOL    HW1 1652   1.613   0.039   1.886 -2.8561 -2.1284  0.3920
  551SOL    HW2 1653   1.600   3.007   1.803  1.2371  0.7319  2.4765
  552SOL     OW 1654   2.984   2.441   2.891 -0.4188  0.4439 -0.1632
  552SOL    HW1 1655   3.045   2.441   2.807 -0.9236 -0.7817  1.7059
  552SOL    HW2 1656   2.903   2.503   2.877 -0.7097  1.2661 -1.2761
  553SOL     OW 1657   0.685   3.086   0.767 -0.0765  0.2054  0.0135
  553SOL    HW1 1658   0.683   3.074   0.869  0.9342 -1.4703  1.9739
  553SOL    HW2 1659   0.603   0.038   0.752  1.2405  0.9087  0.4106
  554SOL     OW 1660   1.949   2.279   1.539  0.3905 -0.1552 -0.0635
  554SOL    HW1 1661   1.913   2.350   1.472  0.0384  0.5968 -0.1018
  554SOL    HW2 1662   1.942   2.313   1.634  1.1482  1.5126 -2.5196
  555SOL     OW 1663   1.247   2.228   1.507  0.3148 -0.2643  0.0243
  555SOL    HW1 1664   1.195   2.311   1.484  1.2872 -1.0456  1.7237
  555SOL    HW2 1665   1.179   2.155   1.528  1.4947  0.1151 -0.0646
  556SOL     OW 1666   1.839   1.642   0.436  0.3106  0.4882 -0.6430
  556SOL    HW1 1667   1.751   1.680   0.475 -0.6005  2.3776  1.3269
  556SOL    HW2 1668   1.825   1.584   0.352 -0.8358 -4.7982 -0.5232
  557SOL     OW 1669   1.235   2.317   2.020 -0.0214  0.0093  0.1329
  557SOL    HW1 1670   1.261   2.286   1.928  0.8340  1.3951  0.8141
  557SOL    HW2 1671   1.192   2.240   2.072 -1.1456  0.2221  1.0902
  558SOL     OW 1672   2.955   0.530   2.004 -0.0502 -0.0174 -0.1317
  558SOL    HW1 1673   3.038   0.591   2.004 -0.3131  1.6451  0.3276
  558SOL    HW2 1674   2.923   0.515   1.907  1.6012  0.4721  0.0405
  559SOL     OW 1675   2.550   2.849   1.685 -0.3067 -0.5445 -0.2680
  559SOL    HW1 1676   2.558   2.785   1.607 -1.6933 -1.8116 -1.4121
  559SOL    HW2 1677   2.638   2.894   1.717  2.8418  0.8880  0.6611
  560SOL     OW 1678   0.711   3.029   3.029 -0.0183  0.3091  0.1627
  560SOL    HW1 1679   0.616   3.006   2.986 -5.0846 -0.3237 -1.0734
  560SOL    HW2 1680   0.715   2.986   0.014  3.1055  0.3094 -0.2228
  561SOL     OW 1681   1.199   0.830   0.569 -0.0244 -0.3314  0.2086
  561SOL    HW1 1682   1.108   0.792   0.543 -1.0819 -0.6110  1.3610
  561SOL    HW2 1683   1.272   0.772   0.528 -1.0215 -1.7398  0.3978
  562SOL     OW 1684   0.807   0.844   2.561 -0.4729 -0.3971  0.0022
  562SOL    HW1 1685   0.771   0.910   2.629  0.1532 -1.1515 -0.1607
  562SOL    HW2 1686   0.901   0.819   2.593 -0.1685  0.7959 -0.8369
  563SOL     OW 1687   2.021   2.526   2.637  0.1293  0.1948 -1.1451
  563SOL    HW1 1688   2.045   2.460   2.564 -0.5433  2.6207  1.9423
  563SOL    HW2 1689   1.923   2.526   2.667 -1.0933 -0.6926  1.9575
  564SOL     OW 1690   0.026   1.601   0.313 -0.1858 -0.0205 -0.1014
  564SOL    HW1 1691   0.119   1.593   0.359  1.4562  0.2024  1.2019
  564SOL    HW2 1692   0.023   1.585   0.213  0.5959  1.3856 -2.1306
  565SOL     OW 1693   1.592   3.051   2.794 -0.6074  0.2142 -0.9869
  565SOL    HW1 1694   1.580   3.053   2.694 -0.4323  0.5322 -0.0728
  565SOL    HW2 1695   1.517   3.083   2.848  2.8451  1.1923 -1.7759
  566SOL     OW 1696   1.927   2.856   2.616 -0.0190  0.2350  0.7803
  566SOL    HW1 1697   2.002   2.808   2.565  2.4989 -0.2661  2.0894
  566SOL    HW2 1698   1.921   2.956   2.591  0.6237  1.9683 -0.4253
  567SOL     OW 1699   2.416   1.336   0.876 -0.2464 -0.3537  0.0377
  567SOL    HW1 1700   2.380   1.290   0.959  0.1662 -0.2331 -0.3994
  567SOL    HW2 1701   2.398   1.436   0.873  0.6928 -1.0357 -2.4644
  568SOL     OW 1702   1.991   1.467   2.913 -0.0495 -0.2842 -0.6129
  568SOL    HW1 1703   2.016   1.560   2.880 -2.2410  1.1145 -0.0691
  568SOL    HW2 1704   2.070   1.438   2.977  0.9634 -1.3791  0.8762
  569SOL     OW 1705   2.308   1.918   2.652 -0.2661  0.6415  1.1069
  569SOL    HW1 1706   2.296   1.828   2.603  2.7097 -1.1365  0.1654
  569SOL    HW2 1707   2.304   1.895   2.754  1.8319  1.5381  0.9119
  570SOL     OW 1708   0.011   2.536   2.067  0.1405  0.5290 -0.4462
  570SOL    HW1 1709   0.039   2.446   2.099 -0.5713  2.6595 -0.4552
  570SOL    HW2 1710   0.018   2.540   1.962 -1.9455 -0.2316 -3.1755
  571SOL     OW 1711   0.305   0.222   2.323 -0.1096 -0.2988  0.3442
  571SOL    HW1 1712   0.350   0.150   2.378  1.4575  0.1832 -0.7280
  571SOL    HW2 1713   0.346   0.229   2.230 -0.5956  0.9640  1.5631
  572SOL     OW 1714   1.162   1.667   0.860  0.2923  0.0330 -0.0635
  572SOL    HW1 1715   1.245   1.685   0.918 -0.3332  2.0314  0.6511
  572SOL    HW2 1716   1.174   1.590   0.796  1.8903 -1.8033 -2.5811
  573SOL     OW 1717   0.903   0.167   0.155 -0.4870 -0.2879 -0.4670
  573SOL    HW1 1718   0.913   0.268   0.143  2.8298 -0.3016  0.8185
  573SOL    HW2 1719   0.951   0.132   0.238 -1.1492  1.7932  0.4001
  574SOL     OW 1720   0.508   2.995   0.471 -0.4340  0.4663  0.4866
  574SOL    HW1 1721   0.584   3.052   0.436 -0.9264 -1.1856 -2.8116
  574SOL    HW2 1722   0.481   3.022   0.566 -2.2882 -0.1941  0.9753
  575SOL     OW 1723   0.072   1.495   1.770  0.0913 -0.0202  0.0541
  575SOL    HW1 1724   0.052   1.510   1.868 -1.0738 -0.5675  1.7298
  575SOL    HW2 1725   0.171   1.509   1.750 -0.4894 -0.2720  0.8176
  576SOL     OW 1726   2.155   0.510   1.748 -0.1188  0.2965 -0.0321
  576SOL    HW1 1727   2.192   0.553   1.660  1.1065  1.6447 -2.1551
  576SOL    HW2 1728   2.223   0.442   1.785 -4.4843  2.4088  0.7106
  577SOL     OW 1729   2.692   1.286   2.146  0.5573  0.4330 -0.3083
  577SOL    HW1 1730   2.794   1.288   2.153  0.6506  1.0501 -1.3331
  577SOL    HW2 1731   2.643   1.236   2.225  0.8148 -4.4638  3.9819
  578SOL     OW 1732   1.397   2.810   2.201  0.2931 -0.2415  0.3010
  578SOL    HW1 1733   1.386   2.718   2.158 -2.1614 -0.0326  1.5171
  578SOL    HW2 1734   1.398   2.802   2.302  0.4758 -1.1052  2.6534
  579SOL     OW 1735   1.904   2.120   2.065  0.4735  0.0863  0.1804
  579SOL    HW1 1736   1.869   2.095   1.972 -3.6184 -0.0179  0.0596
  579SOL    HW2 1737   1.922   2.037   2.124 -0.7497  0.2480  1.0784
  580SOL     OW 1738   1.728   1.356   2.018  0.0938 -0.3956  0.1393
  580SOL    HW1 1739   1.758   1.277   1.961 -3.1127  0.5329  1.7423
  580SOL    HW2 1740   1.762   1.344   2.117 -0.1589  2.2301 -1.8213
  581SOL     OW 1741   1.350   1.211   2.195 -0.0385 -0.0930 -0.4693
  581SOL    HW1 1742   1.392   1.149   2.129  0.3107 -0.2054  0.8914
  581SOL    HW2 1743   1.418   1.231   2.269 -0.2348 -0.0938  2.4160
  582SOL     OW 1744   0.091   2.095   1.937 -0.2472 -0.2841  0.1468
  582SOL    HW1 1745   0.087   1.990   1.924  2.8204 -1.8474  1.4639
  582SOL    HW2 1746   3.104   2.139   1.945 -1.2905 -1.3434 -1.8330
  583SOL     OW 1747   1.555   1.161   0.711  0.2009  0.6229 -0.2901
  583SOL    HW1 1748   1.474   1.151   0.652  0.7781 -0.5918  2.6119
  583SOL    HW2 1749   1.531   1.143   0.808  0.7942 -3.2673  0.8563
  584SOL     OW 1750   1.113   2.439   0.414  0.1856 -0.4722  0.3791
  584SOL    HW1 1751   1.056   2.524   0.410  1.8565 -0.3057  1.5075
  584SOL    HW2 1752   1.086   2.377   0.490 -0.5952  1.3059 -0.5307
  585SOL     OW 1753   0.127   2.540   0.135 -0.2524 -1.2170  0.0622
  585SOL    HW1 1754   0.175   2.509   0.217 -1.2429  1.9659 -0.6344
  585SOL    HW2 1755   0.182   2.520   0.054  2.2264  0.1756  0.2420
  586SOL     OW 1756   2.275   1.242   0.629 -0.0815 -0.2452 -0.3492
  586SOL    HW1 1757   2.233   1.153   0.653  2.5329  0.7969  0.4531
  586SOL    HW2 1758   2.346   1.267   0.700  0.1525 -0.7253  0.0759
  587SOL     OW 1759   0.936   1.385   3.029 -0.4508 -0.5209  0.4260
  587SOL    HW1 1760   0.947   1.418   2.935  1.1453  1.2702  0.1905
  587SOL    HW2 1761   0.888   1.456   3.086 -4.2319  0.3153  3.1610
  588SOL     OW 1762   0.184   0.163   0.752 -0.1497  0.3445  0.2338
  588SOL    HW1 1763   0.149   0.170   0.657  0.7090  1.0431  0.9941
  588SOL    HW2 1764   0.273   0.214   0.774 -0.1131  1.3384  2.5678
  589SOL     OW 1765   1.437   3.064   0.738 -0.3048  0.6484  0.1370
  589SOL    HW1 1766   1.521   3.088   0.789 -0.1944  0.2181  0.2118
  589SOL    HW2 1767   1.364   0.029   0.752 -0.7955 -1.1950  0.4767
  590SOL     OW 1768   2.460   2.271   0.476 -0.2759 -0.0180  0.0381
  590SOL    HW1 1769   2.515   2.353   0.505 -1.7837 -0.7589 -0.2800
  590SOL    HW2 1770   2.461   2.263   0.371 -2.9562  0.5480 -0.8523
  591SOL     OW 1771   0.449   2.378   2.044  0.2709 -0.3918  0.2061
  591SOL    HW1 1772   0.418   2.472   2.079  0.0153 -1.2104  0.1240
  591SOL    HW2 1773   0.522   2.392   1.975 -1.3170  3.0285 -1.0547
  592SOL     OW 1774   0.154   1.920   2.288 -0.1159  0.4585  0.1423
  592SOL    HW1 1775   0.149   1.862   2.203  0.7076 -0.3464 -1.2846
  592SOL    HW2 1776   0.252   1.942   2.315  1.7377  1.3399  0.6912
  593SOL     OW 1777   1.415   1.294   1.334  0.0686  0.6893 -0.2597
  593SOL    HW1 1778   1.410   1.392   1.362  1.5051 -1.4185  0.9977
  593SOL    HW2 1779   1.428   1.275   1.233  1.1901 -0.3106 -1.2436
  594SOL     OW 1780   0.463   1.152   2.762 -0.4613 -0.4182 -0.0519
  594SOL    HW1 1781   0.377   1.098   2.790  0.3796 -1.2055  1.4485
  594SOL    HW2 1782   0.481   1.213   2.843 -0.3708  0.7446 -2.3274
  595SOL     OW 1783   1.423   0.729   0.827 -0.1824  0.1377 -0.0527
  595SOL    HW1 1784   1.487   0.765   0.758 -0.3655  0.2449  4.0985
  595SOL    HW2 1785   1.332   0.774   0.821 -1.7637  2.1006 -0.7330
  596SOL     OW 1786   0.544   1.079   1.196 -0.0812  0.1792 -0.4682
  596SOL    HW1 1787   0.636   1.122   1.205  1.3133 -0.7529  1.1112
  596SOL    HW2 1788   0.481   1.139   1.147  1.5699  1.5824 -1.5415
  597SOL     OW 1789   0.726   2.270   2.151  0.4354  0.1954  0.1541
  597SOL    HW1 1790   0.728   2.370   2.165  0.0696 -3.2593  0.5927
  597SOL    HW2 1791   0.777   2.244   2.067 -1.7598  0.7450  0.4374
  598SOL     OW 1792   2.359   2.611   2.090  0.2939  0.2635  0.6297
  598SOL    HW1 1793   2.258   2.577   2.092 -0.9699 -0.3445 -1.8889
  598SOL    HW2 1794   2.419   2.557   2.148  3.3521 -0.2597 -2.3697
  599SOL     OW 1795   0.792   0.995   0.472 -0.2933 -0.8531 -0.8114
  599SOL    HW1 1796   0.837   1.050   0.549 -0.0364 -1.0300 -0.0596
  599SOL    HW2 1797   0.852   1.011   0.389 -2.6825 -0.6345 -0.6258
  600SOL     OW 1798   1.508   0.545   0.228 -0.1637  0.3123 -0.3302
  600SOL    HW1 1799   1.410   0.509   0.224 -1.2692  0.1321  0.6104
  600SOL    HW2 1800   1.578   0.468   0.238  0.6422 -0.4323  2.1058
  601SOL     OW 1801   0.635   0.114   1.587  0.3150  0.5000 -0.0101
  601SOL    HW1 1802   0.636   0.040   1.661  2.1885 -2.0095  0.3986
  601SOL    HW2 1803   0.566   0.183   1.608 -0.1491  0.3263  2.1577
  602SOL     OW 1804   0.285   2.125   0.828  0.1201 -0.4419  0.3758
  602SOL    HW1 1805   0.302   2.029   0.859 -1.3028  0.1617 -0.4697
  602SOL    HW2 1806   0.341   2.148   0.745 -2.5801 -0.7745  0.1278
  603SOL     OW 1807   0.852   2.739   2.730 -0.0374 -0.1182  0.5166
  603SOL    HW1 1808   0.934   2.690   2.760 -0.8089  1.5639 -1.2510
  603SOL    HW2 1809   0.884   2.815   2.668 -1.4036 -1.8624 -0.5178
  604SOL     OW 1810   0.588   2.130   0.359 -0.1750  0.2161 -0.3579
  604SOL    HW1 1811   0.515   2.096   0.297  2.1983  0.7504  1.0305
  604SOL    HW2 1812   0.615   2.224   0.332 -1.3676 -1.6100  0.0775
  605SOL     OW 1813   1.756   1.512   1.532 -0.2407 -0.2826 -0.3923
  605SOL    HW1 1814   1.817   1.430   1.535  0.7130  0.6390 -0.5741
  605SOL    HW2 1815   1.667   1.488   1.483 -1.0976 -0.6304  1.0281
  606SOL     OW 1816   0.885   1.112   3.007 -0.3443  0.6784  0.4199
  606SOL    HW1 1817   0.799   1.083   3.048  0.8537 -1.6688  0.1047
  606SOL    HW2 1818   0.894   1.212   2.993 -0.9131 -1.3522  1.6237
  607SOL     OW 1819   1.134   1.033   1.253 -0.7031 -0.1942 -0.2026
  607SOL    HW1 1820   1.049   1.026   1.314 -1.0220  1.9253  0.4217
  607SOL    HW2 1821   1.137   1.117   1.194 -2.2140  0.8544 -1.0423
  608SOL     OW 1822   2.916   2.183   1.962  0.4289  0.2250  0.1088
  608SOL    HW1 1823   2.909   2.146   2.054  1.2446 -1.9342 -1.5923
  608SOL    HW2 1824   2.822   2.203   1.927 -1.0272 -0.0395 -2.0107
  609SOL     OW 1825   2.238   0.218   0.236  0.6728 -0.2152  0.1452
  609SOL    HW1 1826   2.330   0.214   0.192 -1.0991 -1.0610 -1.2808
  609SOL    HW2 1827   2.192   0.132   0.215  0.3556  2.0059 -0.1200
  610SOL     OW 1828   0.097   2.630   1.558  0.0277 -0.3458 -0.0082
  610SOL    HW1 1829   0.176   2.669   1.503  2.5857 -0.4612  0.7260
  610SOL    HW2 1830   0.044   2.560   1.505  1.7598  1.5787 -0.0006
  611SOL     OW 1831   1.600   1.888   0.422 -0.5849  0.3835  0.2136
  611SOL    HW1 1832   1.672   1.952   0.459  0.0038  0.1655  0.0896
  611SOL    HW2 1833   1.543   1.851   0.494  1.5389  2.5712 -2.3970
  612SOL     OW 1834   0.615   0.134   1.962  0.1341 -0.2670  0.1166
  612SOL    HW1 1835   0.663   0.222   1.935  2.9245  1.6533  1.4265
  612SOL    HW2 1836   0.529   0.158   2.008 -0.9311  1.4298 -0.3592
  613SOL     OW 1837   2.473   1.205   0.421  0.0617  0.2260 -1.0242
  613SOL    HW1 1838   2.392   1.204   0.486 -1.1540 -1.3481  2.9808
  613SOL    HW2 1839   2.490   1.306   0.401 -1.7836 -0.3761 -0.0960
  614SOL     OW 1840   2.003   0.496   1.989  0.2576  0.2579  0.4789
  614SOL    HW1 1841   2.071   0.532   1.925 -2.8206 -0.8867  0.9146
  614SOL    HW2 1842   1.972   0.404   1.947 -2.6805 -2.2785 -0.3404
  615SOL     OW 1843   0.938   1.438   1.223  0.1163  0.1745  0.1381
  615SOL    HW1 1844   0.981   1.460   1.311  0.0939 -0.3572  0.7070
  615SOL    HW2 1845   0.875   1.517   1.199 -1.5686  3.4690  0.7430
  616SOL     OW 1846   1.518   1.885   2.725  0.4268 -0.5054 -0.2747
  616SOL    HW1 1847   1.459   1.867   2.809  2.4378 -2.2727  3.0430
  616SOL    HW2 1848   1.616   1.853   2.742  0.7559 -1.1730 -0.6722
  617SOL     OW 1849   2.099   3.082   0.186 -0.3782  0.5993  0.4415
  617SOL    HW1 1850   2.006   3.094   0.149  0.7554  2.0021 -0.0489
  617SOL    HW2 1851   2.115   3.045   0.284 -1.4567 -1.4884  1.2541
  618SOL     OW 1852   0.528   0.746   2.511  0.1616  0.4098  0.2135
  618SOL    HW1 1853   0.455   0.823   2.511 -1.2325  0.5722 -0.7742
  618SOL    HW2 1854   0.614   0.785   2.531 -1.0582  1.1724 -0.9125
  619SOL     OW 1855   2.765   1.552   0.920  0.6617  0.3689  0.2095
  619SOL    HW1 1856   2.738   1.456   0.882  2.0742 -3.8800 -1.2866
  619SOL    HW2 1857   2.818   1.605   0.851  0.6101 -2.3651  0.0848
  620SOL     OW 1858   2.226   0.064   2.745 -0.3774 -0.1076  0.2310
  620SOL    HW1 1859   2.136   0.044   2.781  5.2374 -0.3369 -2.0891
  620SOL    HW2 1860   2.263   3.089   2.695 -0.7296 -0.0249 -2.5996
  621SOL     OW 1861   2.363   1.570   2.867 -0.2539  0.3122  0.0319
  621SOL    HW1 1862   2.305   1.572   2.949  0.0599  2.1945  0.9315
  621SOL    HW2 1863   2.397   1.478   2.841  2.6099  0.4646 -1.1141
  622SOL     OW 1864   1.875   2.717   2.022  0.1265 -0.2281  0.2916
  622SOL    HW1 1865   1.803   2.750   2.085  0.2420 -1.6741 -1.7630
  622SOL    HW2 1866   1.915   2.786   1.958  0.7144  0.2361 -0.5468
  623SOL     OW 1867   1.175   1.748   0.325 -0.3212  0.2121  0.2002
  623SOL    HW1 1868   1.145   1.793   0.409  1.4411 -4.9941 -0.9527
  623SOL    HW2 1869   1.162   1.803   0.243 -0.4044  1.3399  3.8590
  624SOL     OW 1870   0.331   2.889   0.064  0.5398 -0.2666  0.6665
  624SOL    HW1 1871   0.272   2.837   3.101 -1.7365 -1.9487 -1.7049
  624SOL    HW2 1872   0.325   2.994   0.056  1.2928  1.1871 -0.5860
  625SOL     OW 1873   0.778   1.681   0.336 -0.2954 -0.7068  0.4464
  625SOL    HW1 1874   0.788   1.739   0.413 -2.2397  1.8645 -3.7142
  625SOL    HW2 1875   0.689   1.634   0.345 -0.6397  1.0226 -1.4458
  626SOL     OW 1876   3.097   2.779   0.139  0.5936  0.0678 -0.4428
  626SOL    HW1 1877   0.032   2.685   0.142  1.7176 -2.7522  1.1978
  626SOL    HW2 1878   0.056   2.848   0.105  1.1339 -2.0746 -3.0702
  627SOL     OW 1879   0.973   1.969   2.684 -0.5214  0.0173  0.2001
  627SOL    HW1 1880   0.966   1.913   2.603 -2.7379  1.1034 -1.9890
  627SOL    HW2 1881   1.065   2.007   2.702  1.1645 -0.9582  2.7836
  628SOL     OW 1882   0.271   3.083   2.595 -0.7563  0.4264  0.4412
  628SOL    HW1 1883   0.351   0.015   2.542  2.9106  1.6238 -1.4090
  628SOL    HW2 1884   0.185   0.008   2.554 -1.0329  0.5153  0.4702
  629SOL     OW 1885   0.532   2.996   2.260 -0.4356 -0.5839 -0.2605
  629SOL    HW1 1886   0.620   2.952   2.261 -0.8917  0.2159  0.5483
  629SOL    HW2 1887   0.490   2.986   2.170  1.3896 -1.8372  1.0073
  630SOL     OW 1888   1.469   0.904   1.786 -0.0342 -0.0185  0.5926
  630SOL    HW1 1889   1.515   0.817   1.772 -0.3535 -0.2130 -2.6931
  630SOL    HW2 1890   1.367   0.896   1.815 -5.9054  2.8695  1.6813
  631SOL     OW 1891   2.204   1.018   0.368  0.2567  0.0942 -0.1300
  631SOL    HW1 1892   2.264   0.982   0.287  1.6466 -1.8021 -0.5608
  631SOL    HW2 1893   2.240   0.992   0.457 -0.0321 -1.4684 -3.9295
  632SOL     OW 1894   2.362   0.704   1.931 -0.5827 -0.1262 -0.2496
  632SOL    HW1 1895   2.339   0.724   2.029  0.9590  0.3911  0.9524
  632SOL    HW2 1896   2.387   0.606   1.929 -2.2356  2.9773  1.0868
  633SOL     OW 1897   0.707   2.362   0.312  0.0051  0.2511 -0.0544
  633SOL    HW1 1898   0.678   2.399   0.220 -0.7576  0.9782  1.3569
  633SOL    HW2 1899   0.780   2.424   0.343  0.1334  2.1901 -2.8997
  634SOL     OW 1900   1.595   2.545   2.491  0.4761 -0.2628 -0.5076
  634SOL    HW1 1901   1.620   2.494   2.407  0.3583  3.1186  0.9756
  634SOL    HW2 1902   1.525   2.618   2.482  2.7577 -1.1844 -1.3942
  635SOL     OW 1903   2.282   0.502   0.020 -0.4924  0.5868 -0.0126
  635SOL    HW1 1904   2.356   0.435   0.001  1.7690 -0.8395 -0.7203
  635SOL    HW2 1905   2.275   0.525   0.118  3.3125  0.4028 -0.4900
  636SOL     OW 1906   0.569   1.076   0.854 -0.2078 -0.3554  0.2270
  636SOL    HW1 1907   0.523   0.988   0.836 -2.5889 -1.1160 -0.5137
  636SOL    HW2 1908   0.675   1.059   0.871  3.6887 -1.4553  2.3432
  637SOL     OW 1909   3.080   1.749   0.712 -0.0532 -0.1141  0.5158
  637SOL    HW1 1910   3.102   1.821   0.781 -2.4576 -0.0222  0.0889
  637SOL    HW2 1911   3.068   1.785   0.620 -2.1898 -1.4388  2.2731
  638SOL     OW 1912   0.968   0.016   3.056  0.3696 -0.0162  0.1349
  638SOL    HW1 1913   0.877   3.100   3.016  1.1992 -3.4035  0.1685
  638SOL    HW2 1914   0.944   0.077   0.029  0.2020  1.1558 -0.2294
  639SOL     OW 1915   1.472   1.824   3.034 -0.1087 -0.0789  0.3018
  639SOL    HW1 1916   1.425   1.738   3.054  1.9066  2.4947 -0.0511
  639SOL    HW2 1917   1.522   1.856   0.009 -0.0071 -2.4939  2.5985
  640SOL     OW 1918   1.780   2.888   0.714  0.2418 -0.2192  0.5065
  640SOL    HW1 1919   1.825   2.795   0.721  1.5264 -0.8535  0.2290
  640SOL    HW2 1920   1.714   2.894   0.641 -1.0950 -0.0852  2.7539
  641SOL     OW 1921   0.124   2.684   0.698 -0.2413  0.4026  0.1249
  641SOL    HW1 1922   0.098   2.605   0.642 -0.5775  2.6574  2.2233
  641SOL    HW2 1923   0.224   2.676   0.723  0.9824 -2.3020  0.3757
  642SOL     OW 1924   0.915   0.282   1.716  0.1175  0.1040  0.2801
  642SOL    HW1 1925   0.902   0.239   1.627 -1.6570 -1.1280 -0.6299
  642SOL    HW2 1926   0.996   0.341   1.721 -1.5535 -0.6737  1.6765
  643SOL     OW 1927   0.503   2.080   2.111  0.5916 -0.1078  0.1054
  643SOL    HW1 1928   0.585   2.139   2.120 -2.0836 -4.0281 -0.0073
  643SOL    HW2 1929   0.464   2.090   2.017 -1.3978  0.1742 -2.9231
  644SOL     OW 1930   0.680   2.740   0.555  0.0766 -0.2413 -0.9585
  644SOL    HW1 1931   0.635   2.824   0.520  0.0683  4.9021  2.9724
  644SOL    HW2 1932   0.706   2.750   0.651 -0.6459  0.5096 -0.7679
  645SOL     OW 1933   1.299   2.049   3.057  0.7849 -0.1848  0.2262
  645SOL    HW1 1934   1.347   2.129   3.099 -0.2484  0.3966  2.8348
  645SOL    HW2 1935   1.361   1.972   3.057  0.3918  1.1142 -1.4890
  646SOL     OW 1936   0.439   1.147   0.182 -0.2232 -0.6100 -0.0004
  646SOL    HW1 1937   0.360   1.165   0.121 -1.1009  0.8157 -1.0376
  646SOL    HW2 1938   0.507   1.221   0.178 -0.2977 -0.5189 -1.8063
  647SOL     OW 1939   1.018   0.062   0.906  0.0621 -0.3111  0.2395
  647SOL    HW1 1940   1.084   0.102   0.970 -0.8619  1.0856 -3.7460
  647SOL    HW2 1941   1.009   3.071   0.925 -1.6357 -2.2371  1.8517
  648SOL     OW 1942   2.094   0.128   1.699  0.3670 -0.1194  0.3903
  648SOL    HW1 1943   2.077   0.203   1.633 -1.3422 -2.1975  1.6381
  648SOL    HW2 1944   2.076   0.036   1.662 -1.6959  2.5612 -0.7933
  649SOL     OW 1945   0.794   1.887   2.939  0.0207 -0.5164  0.1553
  649SOL    HW1 1946   0.828   1.897   2.841 -0.3704  0.6981 -2.5130
  649SOL    HW2 1947   0.697   1.855   2.942 -0.2333  1.8663  0.1127
  650SOL     OW 1948   2.804   1.744   1.826  0.1715 -0.0782 -0.1703
  650SOL    HW1 1949   2.710   1.724   1.860 -0.7671 -0.0884 -1.2135
  650SOL    HW2 1950   2.826   1.691   1.741  3.1642 -0.5259 -1.2471
  651SOL     OW 1951   1.058   2.948   0.428  0.1658 -0.1808 -0.5265
  651SOL    HW1 1952   1.045   2.902   0.337  0.3910 -0.7495  2.4541
  651SOL    HW2 1953   1.146   2.933   0.470  0.1149  0.3034 -0.0514
  652SOL     OW 1954   2.867   1.759   0.128 -0.0995  0.3470  0.5445
  652SOL    HW1 1955   2.922   1.774   0.042  0.7559 -1.9795 -1.2122
  652SOL    HW2 1956   2.856   1.846   0.179 -2.1099 -1.2110 -2.2865
  653SOL     OW 1957   3.088   0.137   1.131 -0.5831 -0.0466  0.2139
  653SOL    HW1 1958   3.046   0.047   1.151  0.1229 -0.4193 -0.1390
  653SOL    HW2 1959   3.086   0.160   1.029  2.3826  1.8840  2.5910
  654SOL     OW 1960   1.983   0.490   2.621  0.6047 -0.0162 -0.0038
  654SOL    HW1 1961   1.910   0.456   2.692 -0.1609 -1.3787  1.0265
  654SOL    HW2 1962   1.939   0.532   2.539 -1.3223  0.8216 -0.7122
  655SOL     OW 1963   0.474   2.424   1.056 -0.0456  0.2493 -0.1000
  655SOL    HW1 1964   0.426   2.514   1.056 -0.2722  2.0600 -0.3120
  655SOL    HW2 1965   0.412   2.345   1.054 -3.8824 -0.5724 -2.7406
  656SOL     OW 1966   0.185   0.115   2.008  0.1310 -0.2070  0.1266
  656SOL    HW1 1967   0.108   0.129   2.078 -2.5972  1.1110  0.9308
  656SOL    HW2 1968   0.151   0.109   1.913  0.7484  0.3125 -1.1503
  657SOL     OW 1969   2.456   0.597   2.522 -0.2498  0.0109 -0.0572
  657SOL    HW1 1970   2.362   0.582   2.483  0.6342 -1.1645  0.3937
  657SOL    HW2 1971   2.457   0.557   2.619  2.0439 -0.8795  1.3003
  658SOL     OW 1972   2.066   1.934   1.013  0.0446 -0.2856 -0.2199
  658SOL    HW1 1973   2.078   2.033   0.990 -0.8974 -0.0628 -1.8058
  658SOL    HW2 1974   2.110   1.906   1.100  1.6537 -2.4418  0.8810
  659SOL     OW 1975   2.444   0.262   2.896  0.5434  0.2281 -0.2217
  659SOL    HW1 1976   2.539   0.231   2.927 -0.5981 -0.8950 -0.0600
  659SOL    HW2 1977   2.390   0.187   2.855 -0.1370  1.1778  1.1542
  660SOL     OW 1978   1.372   1.522   2.846 -0.4347 -0.1543 -0.1719
  660SOL    HW1 1979   1.463   1.544   2.797 -0.4695  0.6612 -0.4122
  660SOL    HW2 1980   1.373   1.553   2.944  0.2944  0.4493 -0.9560
  661SOL     OW 1981   2.540   2.334   0.966 -0.2790 -0.0152  0.2477
  661SOL    HW1 1982   2.515   2.242   0.924  0.3869 -0.9111 -1.6002
  661SOL    HW2 1983   2.629   2.325   1.014  0.4217 -1.2432 -1.0153
  662SOL     OW 1984   0.583   0.594   0.376  0.0986  0.2305 -0.0691
  662SOL    HW1 1985   0.553   0.527   0.445  1.0524  0.2415 -0.2493
  662SOL    HW2 1986   0.602   0.680   0.426 -4.9433 -0.1231  0.1909
  663SOL     OW 1987   1.927   2.016   2.960  0.0246 -0.4763 -0.3193
  663SOL    HW1 1988   1.885   2.075   3.031  0.0610 -0.9043 -2.3398
  663SOL    HW2 1989   1.952   1.920   2.994  1.8043 -0.9942 -1.9594
  664SOL     OW 1990   0.711   2.376   1.613  0.2049 -0.8718  0.4356
  664SOL    HW1 1991   0.744   2.399   1.519  0.8646  1.3725  1.6986
  664SOL    HW2 1992   0.613   2.395   1.618  0.7156 -0.3710 -2.4387
  665SOL     OW 1993   1.846   2.012   1.822 -0.0310  0.0779  0.1557
  665SOL    HW1 1994   1.899   1.934   1.789 -3.0299  1.3247  1.7060
  665SOL    HW2 1995   1.795   2.052   1.747  2.7385  1.4772  0.9789
  666SOL     OW 1996   0.539   2.524   0.457  0.5831  0.2659 -0.1833
  666SOL    HW1 1997   0.599   2.595   0.490 -3.2381 -3.2418 -2.2471
  666SOL    HW2 1998   0.589   2.449   0.413  0.9340  0.8558  1.6961
  667SOL     OW 1999   2.095   1.254   1.893  0.6121  0.0191 -0.0334
  667SOL    HW1 2000   2.012   1.196   1.887 -0.6583  2.2028 -1.7534
  667SOL    HW2 2001   2.109   1.284   1.993 -0.4026 -0.0539  0.8537
  668SOL     OW 2002   0.480   0.477   2.623  0.4794  0.1132 -0.3357
  668SOL    HW1 2003   0.502   0.568   2.582 -0.4458 -1.7995 -0.2872
  668SOL    HW2 2004   0.545   0.405   2.591 -1.0163  0.5236  2.4513
  669SOL     OW 2005   1.790   2.174   2.464  0.0073  0.1746  0.4467
  669SOL    HW1 2006   1.796   2.194   2.557 -1.9935  0.4585 -3.5148
  669SOL    HW2 2007   1.749   2.086   2.448  1.6266  1.7857 -0.2414
  670SOL     OW 2008   2.325   2.303   3.062  0.5276 -0.0713  0.3764
  670SOL    HW1 2009   2.325   2.405   3.050  1.4728  2.7192 -0.3200
  670SOL    HW2 2010   2.303   2.261   2.970 -0.5797  0.0297  0.6030
  671SOL     OW 2011   0.838   1.171   1.190 -0.0989  0.2164 -0.4431
  671SOL    HW1 2012   0.863   1.270   1.202 -0.6608  0.0564  0.6865
  671SOL    HW2 2013   0.870   1.119   1.272 -1.7077 -4.1813  0.6740
  672SOL     OW 2014   2.454   1.097   2.476 -0.2003 -0.4067 -0.0162
  672SOL    HW1 2015   2.437   1.043   2.390  1.9518  2.8210  1.0262
  672SOL    HW2 2016   2.521   1.178   2.466  0.3634  0.3859  0.3825
  673SOL     OW 2017   2.684   2.483   2.133  0.6064  0.4196  0.1638
  673SOL    HW1 2018   2.720   2.407   2.192 -1.1548 -1.2674  1.2218
  673SOL    HW2 2019   2.745   2.567   2.125  0.2844  2.4352  0.7224
  674SOL     OW 2020   1.205   2.573   2.316  0.2359  0.5708 -0.1713
  674SOL    HW1 2021   1.151   2.488   2.317 -0.4302 -2.3519  2.0152
  674SOL    HW2 2022   1.263   2.578   2.233  0.0531 -1.1453 -0.3810
  675SOL     OW 2023   0.809   0.766   1.780 -0.4987  0.2811  0.1053
  675SOL    HW1 2024   0.869   0.696   1.732 -1.4245  2.8486 -1.1006
  675SOL    HW2 2025   0.811   0.859   1.739  0.1458 -0.7632 -1.8761
  676SOL     OW 2026   1.731   0.984   0.597  0.1528  0.1273 -0.0187
  676SOL    HW1 2027   1.675   1.066   0.630  1.0786  0.9557  2.5565
  676SOL    HW2 2028   1.821   1.021   0.563  1.1315 -0.7508  1.8323
  677SOL     OW 2029   2.757   1.926   2.538  0.3062  0.3365  0.9872
  677SOL    HW1 2030   2.763   2.018   2.582 -1.0068 -1.4446  1.6427
  677SOL    HW2 2031   2.852   1.904   2.502  2.9343  2.0297  0.3771
  678SOL     OW 2032   2.797   2.099   1.438 -0.0660 -0.2355 -0.1421
  678SOL    HW1 2033   2.756   2.194   1.428 -0.4176  2.0611  2.4972
  678SOL    HW2 2034   2.732   2.047   1.497 -0.3070 -1.2323  0.1640
  679SOL     OW 2035   1.967   2.640   0.766  0.0673 -0.3759  0.0003
  679SOL    HW1 2036   2.029   2.678   0.697  1.9211  0.1091  1.0069
  679SOL    HW2 2037   1.915   2.563   0.727  1.3163  0.3394  0.8178
  680SOL     OW 2038   0.554   2.585   2.482 -0.2468  0.6621 -0.1607
  680SOL    HW1 2039   0.518   2.679   2.464  1.1736  2.5970  0.7561
  680SOL    HW2 2040   0.656   2.588   2.471 -2.0990 -0.7421  1.8605
  681SOL     OW 2041   0.016   1.287   1.554  0.4932  0.1197  0.3298
  681SOL    HW1 2042   0.043   1.360   1.614 -1.2415 -2.6508 -1.1951
  681SOL    HW2 2043   3.025   1.293   1.540 -0.9738  0.0606  0.2392
  682SOL     OW 2044   0.381   2.015   1.272  0.2868 -0.1459  0.0255
  682SOL    HW1 2045   0.303   2.028   1.333  2.8495 -1.5129  0.0327
  682SOL    HW2 2046   0.429   1.925   1.290  0.2479 -1.3508 -0.2540
  683SOL     OW 2047   2.499   1.345   1.242  1.1544 -0.6393 -0.5382
  683SOL    HW1 2048   2.462   1.434   1.213  0.1306  0.8062  0.2124
  683SOL    HW2 2049   2.516   1.347   1.346 -3.1578 -0.0715 -1.1863
  684SOL     OW 2050   2.625   1.670   2.880 -0.1016 -0.2682 -0.7124
  684SOL    HW1 2051   2.686   1.587   2.888  1.1545  0.9754 -1.2524
  684SOL    HW2 2052   2.534   1.632   2.873 -0.4251 -0.9190 -2.6476
  685SOL     OW 2053   1.269   1.249   3.051 -0.1391 -0.2269  0.3105
  685SOL    HW1 2054   1.216   1.228   2.967  0.0044  1.7577 -0.4004
  685SOL    HW2 2055   1.361   1.288   3.025 -0.7349 -1.9420 -1.5037
  686SOL     OW 2056   0.258   0.232   1.170 -0.8406 -0.8040  0.4378
  686SOL    HW1 2057   0.328   0.156   1.160  0.0614 -2.0458 -3.7245
  686SOL    HW2 2058   0.163   0.200   1.162 -0.1846  0.6569 -2.4497
  687SOL     OW 2059   0.829   1.944   2.390 -0.0685 -0.0992  0.2481
  687SOL    HW1 2060   0.909   1.887   2.374  1.7771  1.1944 -1.4486
  687SOL    HW2 2061   0.761   1.923   2.318 -0.7505  4.5417 -1.3692
  688SOL     OW 2062   0.179   1.909   1.102 -0.1952 -0.4517 -0.0735
  688SOL    HW1 2063   0.158   1.882   1.198  1.4735  0.8820 -0.5882
  688SOL    HW2 2064   0.277   1.905   1.088 -1.6265  3.2810  1.7875
  689SOL     OW 2065   1.687   0.865   1.443  0.1000  0.3877  0.1808
  689SOL    HW1 2066   1.666   0.963   1.427  0.6420  0.0933  1.2229
  689SOL    HW2 2067   1.668   0.805   1.362  2.1059 -0.2113 -1.1144
  690SOL     OW 2068   2.554   1.015   0.995  0.1027 -0.9105 -0.2436
  690SOL    HW1 2069   2.553   0.913   0.985 -1.0739 -0.4184 -0.7567
  690SOL    HW2 2070   2.647   1.046   1.013 -1.9739 -0.4838 -0.8555
  691SOL     OW 2071   0.233   2.312   1.871  0.7810  0.1760 -0.0226
  691SOL    HW1 2072   0.323   2.314   1.918 -0.4081  0.9470 -1.3143
  691SOL    HW2 2073   0.182   2.231   1.906  1.7398  4.2945 -2.4961
  692SOL     OW 2074   1.687   3.098   0.885 -0.0151 -0.1261 -0.8933
  692SOL    HW1 2075   1.726   3.019   0.828  0.3343 -1.6074 -0.5469
  692SOL    HW2 2076   1.689   3.076   0.985  2.9425  0.1655  2.4514
  693SOL     OW 2077   0.220   1.417   2.393  0.4891 -0.0663 -0.3842
  693SOL    HW1 2078   0.241   1.509   2.416  0.3086 -3.8747 -0.0085
  693SOL    HW2 2079   0.152   1.412   2.315 -0.6916 -3.6411 -1.9908
  694SOL     OW 2080   2.064   0.636   0.942  0.1474  0.6982  0.1440
  694SOL    HW1 2081   2.157   0.666   0.969 -1.1761 -0.2230  1.2372
  694SOL    HW2 2082   1.992   0.677   1.000 -1.0676  0.5677  0.0405
  695SOL     OW 2083   0.805   1.043   1.712 -0.5246  0.3650 -0.3154
  695SOL    HW1 2084   0.716   1.094   1.702  1.3228 -1.2192  1.5420
  695SOL    HW2 2085   0.890   1.093   1.733  0.9881 -3.9409 -0.6284
  696SOL     OW 2086   1.401   0.063   0.247  0.3553  0.0390 -0.1161
  696SOL    HW1 2087   1.365   3.089   0.198  0.9365  0.0705  0.9675
  696SOL    HW2 2088   1.348   0.083   0.334 -1.2459  1.4891  2.2042
  697SOL     OW 2089   0.957   0.295   1.265  0.0429 -0.1863 -0.4088
  697SOL    HW1 2090   0.889   0.349   1.216  1.9147 -0.9206 -1.7778
  697SOL    HW2 2091   1.023   0.256   1.199 -1.1813 -0.3874  1.2044
  698SOL     OW 2092   1.274   1.573   2.460 -0.6483  0.5922  0.5886
  698SOL    HW1 2093   1.371   1.572   2.425  0.9627 -1.3183  0.8441
  698SOL    HW2 2094   1.210   1.516   2.406  2.1087  1.4210  0.9037
  699SOL     OW 2095   1.310   0.933   1.058 -0.1815 -0.0414  0.0066
  699SOL    HW1 2096   1.248   0.952   1.136 -1.4580 -1.7034 -0.6681
  699SOL    HW2 2097   1.249   0.887   0.987 -1.4725 -0.2263  1.6760
  700SOL     OW 2098   0.889   2.924   0.671 -0.4595  0.2317  0.0806
  700SOL    HW1 2099   0.927   2.937   0.579 -0.0614 -3.1821 -1.1334
  700SOL    HW2 2100   0.828   2.995   0.707 -2.3211  0.6523  0.2534
  701SOL     OW 2101   2.664   2.830   2.728 -0.7111  0.1930  0.1684
  701SOL    HW1 2102   2.582   2.792   2.682 -1.8757 -1.0414  0.9956
  701SOL    HW2 2103   2.657   2.931   2.732 -1.2099 -0.8732  0.3312
  702SOL     OW 2104   0.950   0.098   0.420  0.1469 -0.2057 -0.5083
  702SOL    HW1 2105   0.993   0.004   0.428 -1.1477 -0.2075 -0.1383
  702SOL    HW2 2106   0.905   0.130   0.507 -0.9139 -0.9928  0.0911
  703SOL     OW 2107   2.380   0.352   2.246  0.4300 -0.2861  0.1688
  703SOL    HW1 2108   2.283   0.379   2.254  2.0566 -0.2527 -2.8847
  703SOL    HW2 2109   2.441   0.434   2.231  1.4131  1.8957  0.9864
  704SOL     OW 2110   2.837   1.626   0.644  0.3996 -0.1372  0.4826
  704SOL    HW1 2111   2.858   1.573   0.558  2.4915 -1.1325 -0.2287
  704SOL    HW2 2112   2.921   1.672   0.673 -0.8651 -0.6933  1.5901
  705SOL     OW 2113   2.966   3.060   2.112 -0.2958  0.1544 -0.4690
  705SOL    HW1 2114   3.011   0.010   2.183  1.3965 -0.6520 -0.2859
  705SOL    HW2 2115   2.877   3.036   2.147 -0.5471  3.0494  0.8130
  706SOL     OW 2116   2.460   2.527   0.785 -0.3510 -0.4148  0.7147
  706SOL    HW1 2117   2.493   2.450   0.843 -0.9106 -2.3161 -0.7156
  706SOL    HW2 2118   2.365   2.512   0.744 -1.2739 -2.0457 -1.2821
  707SOL     OW 2119   1.069   2.022   1.563 -0.2087  0.7205  0.1304
  707SOL    HW1 2120   0.978   2.048   1.598  1.6094 -0.7283  1.4553
  707SOL    HW2 2121   1.066   1.988   1.464 -1.6160 -1.7705 -1.0123
  708SOL     OW 2122   0.055   2.510   1.807  0.7310  0.2026 -0.2166
  708SOL    HW1 2123   0.082   2.546   1.720  1.9705 -0.3230  3.2611
  708SOL    HW2 2124   0.130   2.446   1.829 -3.9991  1.4808  1.7193
  709SOL     OW 2125   2.119   3.053   2.011  0.1942  0.5229  0.0466
  709SOL    HW1 2126   2.076   0.010   2.076 -1.1711 -0.4687 -2.3415
  709SOL    HW2 2127   2.206   3.090   1.969  1.0928  1.4284 -0.6152
  710SOL     OW 2128   1.862   1.029   2.662 -0.1949 -0.6992  0.0252
  710SOL    HW1 2129   1.930   0.969   2.707  1.3298  1.0282  2.6294
  710SOL    HW2 2130   1.855   1.121   2.708 -1.3154 -1.5793  0.9745
  711SOL     OW 2131   1.061   2.324   3.094 -0.1111  0.0496 -0.0562
  711SOL    HW1 2132   0.991   2.400   3.076  0.1797 -0.2220 -0.5557
  711SOL    HW2 2133   1.005   2.236   3.090 -1.2243  0.0095 -1.1749
  712SOL     OW 2134   0.622   2.430   2.758 -0.4953  0.2750  0.0130
  712SOL    HW1 2135   0.726   2.430   2.749  1.9903  0.2699 -1.7404
  712SOL    HW2 2136   0.575   2.427   2.664 -0.2547 -2.0944  1.3707
  713SOL     OW 2137   1.747   1.477   2.979 -0.1911  0.0212  0.0121
  713SOL    HW1 2138   1.845   1.468   2.950  0.8453 -0.4176 -0.4843
  713SOL    HW2 2139   1.740   1.560   3.037  1.4801 -1.1566 -0.3987
  714SOL     OW 2140   1.171   1.555   1.358 -0.1879 -0.1704  0.3308
  714SOL    HW1 2141   1.262   1.596   1.377 -3.4917  2.2196  1.1043
  714SOL    HW2 2142   1.119   1.624   1.298 -2.3423 -0.5277 -0.9149
  715SOL     OW 2143   1.780   0.476   0.014  0.0204 -0.2491  0.8679
  715SOL    HW1 2144   1.881   0.499   3.101  0.3747  0.2148  1.0607
  715SOL    HW2 2145   1.777   0.429   0.101  0.4845  0.5033 -1.3541
  716SOL     OW 2146   0.321   2.601   2.184  0.3066 -0.5983  0.2768
  716SOL    HW1 2147   0.231   2.551   2.203 -2.0340 -1.6633  0.8645
  716SOL    HW2 2148   0.342   2.669   2.251  0.8830 -0.1872 -0.2965
  717SOL     OW 2149   2.937   0.662   1.031 -0.1036  0.1089 -0.4418
  717SOL    HW1 2150   2.896   0.731   0.969 -0.0752 -2.5630  1.4100
  717SOL    HW2 2151   2.870   0.642   1.107 -0.8030 -1.9939  1.8010
  718SOL     OW 2152   0.682   1.335   2.484 -0.1170 -0.0840 -0.0314
  718SOL    HW1 2153   0.697   1.408   2.553 -0.9044 -0.5300  0.9536
  718SOL    HW2 2154   0.661   1.370   2.389  0.1436 -1.8675  1.0277
  719SOL     OW 2155   2.234   1.089   3.018 -0.1118  0.5662 -0.0065
  719SOL    HW1 2156   2.155   1.139   2.986 -0.5496 -0.3188  0.9438
  719SOL    HW2 2157   2.291   1.045   2.945  0.0729 -0.7023 -0.2098
  720SOL     OW 2158   0.850   0.741   1.182  0.1077 -0.7466 -0.0853
  720SOL    HW1 2159   0.866   0.777   1.277 -1.0934  0.6246 -1.9343
  720SOL    HW2 2160   0.828   0.640   1.188  0.7416  0.4703  0.4247
  721SOL     OW 2161   2.563   0.102   0.474  0.2200  0.0762 -0.3295
  721SOL    HW1 2162   2.536   0.060   0.564 -0.0259 -0.0836  0.6528
  721SOL    HW2 2163   2.652   0.065   0.449  2.8832  2.1557  0.6714
  722SOL     OW 2164   2.096   0.883   2.777 -0.6007  0.4492 -0.1817
  722SOL    HW1 2165   2.149   0.968   2.747 -0.2902  4.3477 -1.3018
  722SOL    HW2 2166   2.071   0.874   2.873 -0.7651 -0.3362  1.9418
  723SOL     OW 2167   2.540   0.366   0.506  0.5991 -0.2268  0.4366
  723SOL    HW1 2168   2.615   0.391   0.566 -0.9539 -0.6931 -1.2173
  723SOL    HW2 2169   2.530   0.269   0.492 -2.0028  1.7006 -1.4688
  724SOL     OW 2170   0.719   1.621   2.039  0.6128  0.1754 -0.3330
  724SOL    HW1 2171   0.731   1.556   2.118  1.2636  0.5660 -0.6341
  724SOL    HW2 2172   0.669   1.579   1.960 -0.8762  1.9584  0.5457
  725SOL     OW 2173   1.829   0.442   1.287  0.0697 -0.3740 -0.4581
  725SOL    HW1 2174   1.774   0.527   1.283  0.8087  0.7401  0.0799
  725SOL    HW2 2175   1.884   0.430   1.203  0.6058  0.1015 -0.8015
  726SOL     OW 2176   2.158   2.956   0.416 -0.1584 -0.4604  0.2844
  726SOL    HW1 2177   2.177   2.944   0.511  1.5187  0.4144 -2.2774
  726SOL    HW2 2178   2.163   2.874   0.358 -1.4458  1.8820  0.8176
  727SOL     OW 2179   1.792   1.718   1.704  0.1843 -0.7866 -0.1006
  727SOL    HW1 2180   1.832   1.686   1.794 -0.3410 -2.1945 -3.6437
  727SOL    HW2 2181   1.768   1.638   1.648  0.6664 -0.3550 -0.2294
  728SOL     OW 2182   2.179   2.758   1.473  0.2752 -0.0837  0.0739
  728SOL    HW1 2183   2.096   2.746   1.417  1.0825  1.6180  0.4351
  728SOL    HW2 2184   2.164   2.722   1.564 -0.0228 -0.1157 -0.8075
  729SOL     OW 2185   2.380   1.598   0.855 -0.3135  0.1563 -0.0812
  729SOL    HW1 2186   2.290   1.631   0.814 -0.8688  2.1296 -1.5004
  729SOL    HW2 2187   2.458   1.656   0.821  0.9372  0.6730 -0.6282
  730SOL     OW 2188   0.683   0.988   2.766 -0.3894 -0.4122 -0.2624
  730SOL    HW1 2189   0.595   1.033   2.738 -2.2154 -3.1512 -0.8282
  730SOL    HW2 2190   0.708   1.009   2.863  1.3099  2.0035  0.8096
  731SOL     OW 2191   0.250   3.038   0.909  0.8121 -0.1827 -0.0143
  731SOL    HW1 2192   0.238   0.019   0.857  0.0391  0.9421  0.6976
  731SOL    HW2 2193   0.310   3.053   0.988  0.7220  1.2611 -2.9877
  732SOL     OW 2194   1.384   0.650   0.460 -0.5675  0.2855  0.0575
  732SOL    HW1 2195   1.414   0.603   0.372  1.8531 -2.8898 -1.4402
  732SOL    HW2 2196   1.314   0.593   0.504  0.4352  1.9510 -1.5599
  733SOL     OW 2197   0.422   1.913   0.993 -0.1705 -0.0441 -0.3668
  733SOL    HW1 2198   0.514   1.958   0.993 -0.1884  0.3041  0.2028
  733SOL    HW2 2199   0.426   1.821   0.950  1.0337  0.8746 -0.9033
  734SOL     OW 2200   0.246   2.333   0.429  0.1620  0.0558 -0.5789
  734SOL    HW1 2201   0.286   2.403   0.374 -0.4807  0.1992  1.0515
  734SOL    HW2 2202   0.166   2.369   0.478 -0.0276  0.4214  1.4460
  735SOL     OW 2203   1.169   0.193   1.103  0.0949 -0.3754 -0.1439
  735SOL    HW1 2204   1.209   0.122   1.169 -0.0914  1.5560  2.9430
  735SOL    HW2 2205   1.238   0.265   1.072 -0.8997  0.9862 -1.1892
  736SOL     OW 2206   2.015   2.620   0.083 -0.0781  0.3938 -0.9352
  736SOL    HW1 2207   2.015   2.538   0.023 -0.9088 -1.2073  0.1296
  736SOL    HW2 2208   1.951   2.694   0.048 -0.9062 -1.6336 -0.0683
  737SOL     OW 2209   0.233   1.001   0.899  0.4066  0.3795  0.0937
  737SOL    HW1 2210   0.167   1.061   0.944  2.2459  0.3648  0.2998
  737SOL    HW2 2211   0.201   0.976   0.807  0.6507  0.2189  0.4250
  738SOL     OW 2212   2.793   2.968   1.751 -0.3795  0.4842  0.2819
  738SOL    HW1 2213   2.831   2.893   1.807  0.9764 -0.1807 -2.4779
  738SOL    HW2 2214   2.799   3.054   1.806  2.2508  2.1123  1.2770
  739SOL     OW 2215   1.465   2.451   2.955 -0.1682  0.4696  0.1216
  739SOL    HW1 2216   1.473   2.434   2.854  1.0957 -1.4145 -0.7465
  739SOL    HW2 2217   1.480   2.363   3.011  0.4091 -0.6286  1.7461
  740SOL     OW 2218   1.390   0.379   1.023 -0.0230  0.2855  0.7510
  740SOL    HW1 2219   1.410   0.355   1.121 -0.1593 -1.9973  1.4188
  740SOL    HW2 2220   1.464   0.340   0.967  1.8289  1.8573  0.7754
  741SOL     OW 2221   2.892   0.645   0.572 -0.0205 -0.3465  0.3282
  741SOL    HW1 2222   2.884   0.749   0.585 -1.6623  2.1827  2.0053
  741SOL    HW2 2223   2.947   0.601   0.645  0.4182 -0.3797 -0.3661
  742SOL     OW 2224   0.724   1.576   2.674  0.2895 -0.3537  0.1187
  742SOL    HW1 2225   0.810   1.524   2.692 -0.5553  2.3631 -1.1218
  742SOL    HW2 2226   0.644   1.551   2.741  0.7632 -1.8756  2.2823
  743SOL     OW 2227   1.241   0.678   2.111  0.4525  0.1860  0.3699
  743SOL    HW1 2228   1.280   0.586   2.085  1.0154  0.5114  1.8108
  743SOL    HW2 2229   1.150   0.666   2.152  0.0824 -0.6048  3.1302
  744SOL     OW 2230   2.087   0.816   1.275  0.3578 -0.6874 -0.4602
  744SOL    HW1 2231   2.180   0.862   1.282 -0.2982  3.6439  3.3058
  744SOL    HW2 2232   2.035   0.823   1.360  1.0182  1.2885 -2.0626
  745SOL     OW 2233   1.243   1.534   1.725 -0.5052 -0.3334 -0.2478
  745SOL    HW1 2234   1.183   1.619   1.730 -1.6323  0.6580 -0.9172
  745SOL    HW2 2235   1.190   1.464   1.671  0.2773 -2.6442  0.8110
  746SOL     OW 2236   2.076   1.887   0.748  0.1999  0.0852 -0.4881
  746SOL    HW1 2237   2.057   1.906   0.844  0.0298  0.1483  1.6132
  746SOL    HW2 2238   2.127   1.796   0.745 -0.8485  0.6010  1.1143
  747SOL     OW 2239   2.392   1.553   1.119  0.7509 -0.4449 -0.1553
  747SOL    HW1 2240   2.400   1.561   1.018 -1.9314  0.5090  1.0091
  747SOL    HW2 2241   2.424   1.641   1.155  1.5623  1.6366 -2.2363
  748SOL     OW 2242   0.799   1.998   0.927  0.1660  0.0533  0.3643
  748SOL    HW1 2243   0.800   2.088   0.876 -0.7318 -0.0212  0.0858
  748SOL    HW2 2244   0.829   1.921   0.865 -0.9640  0.4238 -3.0629
  749SOL     OW 2245   2.541   2.910   2.268 -0.0388 -0.1929 -0.1853
  749SOL    HW1 2246   2.452   2.871   2.233 -3.1925 -0.6683 -1.5003
  749SOL    HW2 2247   2.606   2.835   2.270 -1.6872 -1.0552  0.7236
  750SOL     OW 2248   2.386   0.332   0.860 -0.2276 -0.2663  0.3564
  750SOL    HW1 2249   2.360   0.240   0.814  1.0512  0.8852 -0.4213
  750SOL    HW2 2250   2.330   0.409   0.826  1.0856 -3.1178 -0.5752
  751SOL     OW 2251   2.552   2.826   0.392 -0.0882 -0.2558 -0.1983
  751SOL    HW1 2252   2.500   2.910   0.409  1.9794 -1.6500  0.4178
  751SOL    HW2 2253   2.589   2.830   0.300 -0.8436 -1.2629  1.6974
  752SOL     OW 2254   0.028   2.882   0.878 -0.2501 -0.1471  0.1153
  752SOL    HW1 2255   0.034   2.814   0.804  0.5159 -2.5667  0.5122
  752SOL    HW2 2256   0.117   2.931   0.875 -2.0775  2.4304 -0.5528
  753SOL     OW 2257   1.639   1.018   2.262 -0.7543 -0.4333  0.5197
  753SOL    HW1 2258   1.595   1.034   2.171  0.5513 -0.1264 -1.9950
  753SOL    HW2 2259   1.634   0.924   2.292 -0.4096  1.1691  1.0680
  754SOL     OW 2260   1.634   2.182   1.609 -0.1315  0.0415  0.5564
  754SOL    HW1 2261   1.547   2.200   1.654 -0.9782 -1.1067  1.8004
  754SOL    HW2 2262   1.646   2.078   1.614 -0.9978 -2.5595  1.7754
  755SOL     OW 2263   2.572   0.745   0.919  0.1858  0.0129 -0.0426
  755SOL    HW1 2264   2.581   0.644   0.944  3.3722 -1.8737 -0.1239
  755SOL    HW2 2265   2.528   0.756   0.821  1.5610  1.3245 -3.0464
  756SOL     OW 2266   0.976   1.462   2.759 -0.1745  0.1555  0.3013
  756SOL    HW1 2267   1.011   1.368   2.740 -0.8927 -1.5977  0.0848
  756SOL    HW2 2268   1.057   1.523   2.747  1.8603 -2.0332 -1.7408
  757SOL     OW 2269   1.267   2.662   0.683 -0.1096  0.0306 -0.3609
  757SOL    HW1 2270   1.315   2.675   0.774  2.2727 -0.9916 -0.6995
  757SOL    HW2 2271   1.287   2.737   0.626 -1.3221 -2.3827 -0.1786
  758SOL     OW 2272   1.160   2.824   1.493 -0.2375  0.1348 -0.3231
  758SOL    HW1 2273   1.084   2.892   1.506  1.0575  1.2883 -0.0011
  758SOL    HW2 2274   1.226   2.825   1.573  2.9870  1.2616 -1.1960
  759SOL     OW 2275   0.105   0.632   0.673  0.2485  0.0389  0.6014
  759SOL    HW1 2276   0.040   0.587   0.740 -0.4110 -0.7331  1.2799
  759SOL    HW2 2277   0.116   0.568   0.589  0.5306 -0.8942 -2.6342
  760SOL     OW 2278   2.359   1.167   1.094 -0.1627  0.5447  0.0504
  760SOL    HW1 2279   2.421   1.103   1.040  0.5700 -0.0461 -0.3507
  760SOL    HW2 2280   2.416   1.217   1.163  0.8747 -1.6789  1.6469
  761SOL     OW 2281   1.786   0.340   0.655 -0.1199  0.4668  0.1726
  761SOL    HW1 2282   1.715   0.412   0.687 -2.6807  0.3513 -2.3524
  761SOL    HW2 2283   1.863   0.342   0.722 -0.5033 -1.9467 -0.0940
  762SOL     OW 2284   2.285   1.865   0.060  0.0867 -0.3070 -0.1054
  762SOL    HW1 2285   2.309   1.767   0.070 -3.2352  2.1966  0.3127
  762SOL    HW2 2286   2.370   1.919   0.080  0.4797  0.8264  0.8393
  763SOL     OW 2287   0.665   1.625   1.429  0.1780 -0.3252 -0.1672
  763SOL    HW1 2288   0.713   1.628   1.335  0.4958 -0.3855 -1.8627
  763SOL    HW2 2289   0.566   1.647   1.420  1.6494 -0.3685 -1.6520
  764SOL     OW 2290   2.594   2.074   2.343  0.6427  0.6130  0.1208
  764SOL    HW1 2291   2.504   2.106   2.302 -0.6307 -0.0936 -1.8083
  764SOL    HW2 2292   2.578   2.023   2.426  1.5263 -0.3651 -0.3707
  765SOL     OW 2293   0.648   2.561   1.199 -0.6188 -0.3406  0.0594
  765SOL    HW1 2294   0.715   2.609   1.139  0.3504 -1.2700  2.7480
  765SOL    HW2 2295   0.588   2.508   1.141  3.4240  1.9453 -1.6305
  766SOL     OW 2296   3.025   2.188   2.311 -0.1229  0.1587  0.1235
  766SOL    HW1 2297   3.090   2.255   2.266  1.1094 -1.6004  0.7629
  766SOL    HW2 2298   3.068   2.123   2.376  0.9768 -0.6573 -1.3349
  767SOL     OW 2299   2.303   1.084   2.712  0.6388 -0.2682  0.4719
  767SOL    HW1 2300   2.332   1.097   2.617  0.4696 -0.4132  1.9807
  767SOL    HW2 2301   2.366   1.022   2.763  0.6350  0.8180  0.4613
  768SOL     OW 2302   1.375   0.292   2.575 -0.2689 -0.0661 -0.1610
  768SOL    HW1 2303   1.340   0.387   2.585 -1.9465  0.3586 -1.3710
  768SOL    HW2 2304   1.361   0.250   2.664 -1.8199  1.0953 -0.1617
  769SOL     OW 2305   3.065   2.408   1.065  0.0917  0.1243 -0.2979
  769SOL    HW1 2306   3.058   2.489   0.999  2.6452  3.4820 -2.7795
  769SOL    HW2 2307   0.025   2.435   1.140 -1.2351  0.3465 -1.6045
  770SOL     OW 2308   0.654   0.238   0.009  0.1935 -0.2483 -0.3738
  770SOL    HW1 2309   0.619   0.308   0.074 -0.7764 -1.4857  2.2365
  770SOL    HW2 2310   0.712   0.173   0.058 -1.7777  2.9045 -0.3504
  771SOL     OW 2311   1.188   2.015   2.485  0.1585 -0.4517 -0.2986
  771SOL    HW1 2312   1.133   1.969   2.414  1.4433  1.2674 -1.2000
  771SOL    HW2 2313   1.249   1.947   2.533  1.6669 -2.5940  0.6004
  772SOL     OW 2314   1.978   0.112   2.184 -0.4911  0.0376 -0.4355
  772SOL    HW1 2315   2.053   0.073   2.242  0.7799 -1.4198 -0.0440
  772SOL    HW2 2316   1.890   0.060   2.183 -1.5367 -0.0721 -1.5046
  773SOL     OW 2317   1.750   0.788   1.698 -0.6619  0.0510 -0.0573
  773SOL    HW1 2318   1.716   0.813   1.605  0.7637  0.9515  2.6203
  773SOL    HW2 2319   1.805   0.704   1.697  1.3168 -0.8872 -0.7323
  774SOL     OW 2320   1.280   0.573   1.312  0.0378  0.1093  0.0456
  774SOL    HW1 2321   1.317   0.641   1.246  1.5200  0.5373 -0.1871
  774SOL    HW2 2322   1.291   0.605   1.410  0.8732 -1.4828  1.3325
  775SOL     OW 2323   2.070   2.872   2.950  0.0358  0.3465 -0.5056
  775SOL    HW1 2324   1.994   2.837   3.003  0.2391  3.9571  1.0567
  775SOL    HW2 2325   2.109   2.795   2.897 -2.6126  1.7143  2.0699
  776SOL     OW 2326   1.999   0.832   1.534 -0.1410 -0.3415  0.0721
  776SOL    HW1 2327   1.896   0.827   1.537  0.2947  0.9129  0.6979
  776SOL    HW2 2328   2.047   0.792   1.611 -0.9774 -0.0049 -0.5477
  777SOL     OW 2329   3.099   1.361   2.233  0.0900 -0.1244 -0.2474
  777SOL    HW1 2330   3.073   1.434   2.295  0.4156 -1.2729 -0.5911
  777SOL    HW2 2331   3.046   1.277   2.251  0.7157  1.7842  1.6459
  778SOL     OW 2332   2.665   1.268   2.445 -0.2580 -0.3345 -0.1344
  778SOL    HW1 2333   2.738   1.200   2.473 -0.8399  0.5714  3.4320
  778SOL    HW2 2334   2.704   1.363   2.455  1.0896  2.5630 -0.3506
  779SOL     OW 2335   3.025   0.721   2.972  0.6703  0.1518 -0.4090
  779SOL    HW1 2336   3.073   0.633   2.949  1.3903  2.9875  0.3167
  779SOL    HW2 2337   2.986   0.722   3.065  1.3435 -0.4991 -0.8638
  780SOL     OW 2338   2.490   2.578   2.362 -0.1019 -0.0579 -0.0380
  780SOL    HW1 2339   2.584   2.552   2.332 -0.8487 -0.9962  2.2485
  780SOL    HW2 2340   2.432   2.495   2.384  0.4642 -1.3358 -0.7760
  781SOL     OW 2341   3.064   1.004   1.892  0.0972  0.2599  0.1104
  781SOL    HW1 2342   2.993   0.935   1.884  0.2549  1.3724  4.1859
  781SOL    HW2 2343   3.025   1.101   1.891  1.5483 -1.1802 -0.3594
  782SOL     OW 2344   1.446   2.311   2.710  0.2349  0.1501  0.1149
  782SOL    HW1 2345   1.407   2.380   2.641 -1.0512  1.6419 -1.5719
  782SOL    HW2 2346   1.372   2.243   2.733 -1.3700  3.0601 -0.8203
  783SOL     OW 2347   0.986   2.369   0.967 -0.2175 -0.6987  0.0734
  783SOL    HW1 2348   0.993   2.313   1.053  0.3025 -0.7786 -1.4102
  783SOL    HW2 2349   0.950   2.462   0.993  2.1484  0.6873  1.2566
  784SOL     OW 2350   2.212   0.601   2.390  0.2233 -0.1633  0.1528
  784SOL    HW1 2351   2.169   0.678   2.443  0.9185 -1.4865 -4.4238
  784SOL    HW2 2352   2.142   0.540   2.348  0.5244  0.3574 -0.1961
  785SOL     OW 2353   0.037   0.346   1.591  0.0861  0.7061 -0.0350
  785SOL    HW1 2354   3.098   0.367   1.678 -1.0708 -1.7008  0.6784
  785SOL    HW2 2355   0.128   0.311   1.606  1.4921  0.0422 -1.5813
  786SOL     OW 2356   1.512   2.228   3.093 -0.0103  0.1195  0.4795
  786SOL    HW1 2357   1.611   2.215   3.059  4.3865 -0.7209 -0.0443
  786SOL    HW2 2358   1.514   2.257   0.087 -1.9420 -0.7620 -1.1628
  787SOL     OW 2359   1.240   0.153   0.753 -0.8388  0.6663 -0.5445
  787SOL    HW1 2360   1.154   0.109   0.777  0.0782 -3.3353 -4.0398
  787SOL    HW2 2361   1.245   0.247   0.786 -1.3505  1.1231  0.8243
  788SOL     OW 2362   0.123   1.307   1.161 -0.1750 -0.7097 -0.4337
  788SOL    HW1 2363   0.083   1.391   1.200  0.9351 -2.1219  0.3099
  788SOL    HW2 2364   0.190   1.271   1.231  0.0731  0.4055 -0.0050
  789SOL     OW 2365   2.404   1.001   2.211  0.1012 -0.6746  0.4055
  789SOL    HW1 2366   2.337   0.923   2.188  1.8640 -0.2863  0.2168
  789SOL    HW2 2367   2.399   1.084   2.146 -0.4470  0.7270 -2.1730
  790SOL     OW 2368   1.257   0.529   2.695 -0.4901  0.0658 -0.4069
  790SOL    HW1 2369   1.211   0.551   2.604 -0.9351 -2.3831 -4.3216
  790SOL    HW2 2370   1.184   0.524   2.770  1.5179  2.0466  0.8737
  791SOL     OW 2371   0.312   2.595   0.342  0.0470 -0.1595 -0.2135
  791SOL    HW1 2372   0.241   2.659   0.379  1.0125 -0.4710 -1.5756
  791SOL    HW2 2373   0.392   2.584   0.404 -0.0163 -1.6383  0.7252
  792SOL     OW 2374   1.227   0.888   1.899  0.3823 -0.0105 -0.2030
  792SOL    HW1 2375   1.232   0.818   1.972  1.7248  0.4524 -0.3032
  792SOL    HW2 2376   1.162   0.864   1.820  1.5111  0.7653 -2.8799
  793SOL     OW 2377   2.858   0.320   1.016 -0.3400  0.1337 -0.4858
  793SOL    HW1 2378   2.933   0.270   0.972  2.2045  0.5541  0.4626
  793SOL    HW2 2379   2.874   0.315   1.118  1.6253  0.9211  2.3042
  794SOL     OW 2380   2.939   0.226   2.444 -0.0955 -0.0415 -0.0470
  794SOL    HW1 2381   2.961   0.299   2.505  1.0148 -0.4025  0.2280
  794SOL    HW2 2382   2.917   0.276   2.357  0.5296 -0.5602 -0.6513
  795SOL     OW 2383   0.634   1.348   0.146  0.7018  0.1046  0.4882
  795SOL    HW1 2384   0.738   1.334   0.151  1.6121  1.1967 -0.8521
  795SOL    HW2 2385   0.620   1.436   0.186  1.7034  0.9150  0.0926
  796SOL     OW 2386   3.107   0.905   2.805 -0.7209 -0.2562  0.4967
  796SOL    HW1 2387   3.073   0.832   2.868 -0.4815 -3.4708 -1.0938
  796SOL    HW2 2388   3.043   0.920   2.725  0.7388 -0.2156 -2.3909
  797SOL     OW 2389   2.443   0.114   2.350 -0.6078 -0.1211 -0.5620
  797SOL    HW1 2390   2.408   0.206   2.320 -0.4176  1.0129 -0.0207
  797SOL    HW2 2391   2.465   0.052   2.273 -0.5325  1.3177  0.0969
  798SOL     OW 2392   0.161   2.972   1.281 -0.0764 -0.1374  0.9688
  798SOL    HW1 2393   0.074   2.959   1.228  1.7326 -0.1873  1.6224
  798SOL    HW2 2394   0.145   3.038   1.355  0.2885 -2.3137 -2.0493
  799SOL     OW 2395   2.934   0.925   1.599 -0.4689 -0.0698 -0.3184
  799SOL    HW1 2396   2.906   0.930   1.502 -3.6934  0.7708  0.8290
  799SOL    HW2 2397   2.908   1.013   1.645  3.4033  0.4922  2.3353
  800SOL     OW 2398   0.655   1.337   0.785  0.0201 -0.3677  0.4894
  800SOL    HW1 2399   0.607   1.369   0.704  0.7755  1.9833  1.0944
  800SOL    HW2 2400   0.623   1.244   0.815 -0.9691 -3.6048  2.0094
  801SOL     OW 2401   1.991   1.854   0.325 -0.3741  0.4890  0.0464
  801SOL    HW1 2402   1.948   1.919   0.265  0.3535 -0.9112  3.0780
  801SOL    HW2 2403   1.927   1.786   0.366 -0.7864  1.8893  0.2813
  802SOL     OW 2404   1.256   1.293   2.777  0.0061  0.0372 -0.1513
  802SOL    HW1 2405   1.292   1.388   2.805  2.4865 -1.6281 -0.4045
  802SOL    HW2 2406   1.329   1.230   2.741  0.8923  1.1399 -0.6799
  803SOL     OW 2407   1.118   1.775   1.706  0.0702  0.2587 -0.5333
  803SOL    HW1 2408   1.026   1.736   1.735  0.9598  1.0779  2.1248
  803SOL    HW2 2409   1.112   1.872   1.679  0.4216  1.5018  0.5687
  804SOL     OW 2410   1.610   2.448   0.593 -1.1749 -0.3983  0.1248
  804SOL    HW1 2411   1.687   2.385   0.612 -0.0558 -0.4985 -1.5606
  804SOL    HW2 2412   1.640   2.524   0.537  0.6757 -2.7203 -1.3438
  805SOL     OW 2413   2.900   2.535   2.447 -0.2111  0.0957  0.6371
  805SOL    HW1 2414   2.840   2.460   2.407  0.0801  0.6273 -0.8529
  805SOL    HW2 2415   2.967   2.570   2.376  2.0068 -2.1814  0.4908
  806SOL     OW 2416   2.927   3.000   0.607  0.5710  0.2121 -0.3314
  806SOL    HW1 2417   2.917   3.038   0.705  0.0390  0.6551  0.4363
  806SOL    HW2 2418   3.024   2.990   0.581 -2.8466 -2.0299 -0.8890
  807SOL     OW 2419   2.403   0.893   2.884 -0.1305 -0.0367  0.1481
  807SOL    HW1 2420   2.497   0.856   2.871  0.0427 -0.6564  3.1834
  807SOL    HW2 2421   2.349   0.840   2.956 -0.2070 -1.6216  2.0468
  808SOL     OW 2422   1.361   2.395   0.681  0.0314  0.0881 -0.6063
  808SOL    HW1 2423   1.464   2.402   0.655  2.8533 -2.5891 -0.4990
  808SOL    HW2 2424   1.318   2.488   0.663  0.3187  1.5470  0.2156
  809SOL     OW 2425   2.672   0.172   2.960  0.1576  0.3369  0.1608
  809SOL    HW1 2426   2.744   0.110   2.916  0.2860  0.9377 -1.7243
  809SOL    HW2 2427   2.720   0.250   3.008  0.6104  1.0742  1.0546
  810SOL     OW 2428   1.295   1.082   0.625 -0.4881 -0.2614 -0.4034
  810SOL    HW1 2429   1.230   1.139   0.684 -0.1161  1.5588  0.1743
  810SOL    HW2 2430   1.260   0.985   0.613  2.0175 -0.7980  0.9131
  811SOL     OW 2431   1.820   2.748   1.547  0.1001  0.5259  0.0476
  811SOL    HW1 2432   1.736   2.742   1.485  0.8168  1.4171 -1.0994
  811SOL    HW2 2433   1.876   2.661   1.539  1.3452  1.8153  2.3724
  812SOL     OW 2434   1.837   3.051   0.091  0.0978 -0.6261  0.0265
  812SOL    HW1 2435   1.782   3.078   0.168  1.2890  1.5724 -1.1250
  812SOL    HW2 2436   1.830   0.018   0.022 -1.3637  1.8332 -1.1598
  813SOL     OW 2437   1.229   0.259   2.212 -0.7553  0.2666  0.4449
  813SOL    HW1 2438   1.206   0.281   2.309  0.2693  2.4925  3.4563
  813SOL    HW2 2439   1.239   0.159   2.205  0.4460 -1.6141  1.0646
  814SOL     OW 2440   0.379   3.065   1.141 -0.1514  0.4661  0.3153
  814SOL    HW1 2441   0.290   3.033   1.178 -1.1120  0.7251 -1.7113
  814SOL    HW2 2442   0.445   3.085   1.219 -3.0432  1.3037  2.8767
  815SOL     OW 2443   0.349   2.695   1.048  0.0070  0.2002 -0.0498
  815SOL    HW1 2444   0.274   2.764   1.065  1.0284  0.2831 -1.2914
  815SOL    HW2 2445   0.429   2.737   1.000 -1.0050 -1.4348  0.2227
  816SOL     OW 2446   2.607   1.693   2.575 -0.1100  0.6066  0.2732
  816SOL    HW1 2447   2.527   1.705   2.635 -0.9313 -1.3462 -0.7555
  816SOL    HW2 2448   2.645   1.780   2.546 -0.2279 -1.8990  1.9146
  817SOL     OW 2449   1.415   0.065   2.991  0.0998  0.1838  0.2759
  817SOL    HW1 2450   1.425   0.147   3.050  1.0177 -1.3787  3.6733
  817SOL    HW2 2451   1.370   3.098   3.045 -0.8649  1.7955 -0.3459
  818SOL     OW 2452   1.570   1.008   0.270  0.0736 -0.2778  0.1561
  818SOL    HW1 2453   1.612   1.085   0.312 -4.0215 -0.8140 -3.8517
  818SOL    HW2 2454   1.475   1.002   0.303  1.4553  0.9651  1.1216
  819SOL     OW 2455   1.762   2.534   2.698 -0.3474 -0.2352 -0.3690
  819SOL    HW1 2456   1.697   2.532   2.618 -1.4669 -0.2632 -2.3099
  819SOL    HW2 2457   1.751   2.624   2.742  0.5892  1.6469 -1.4072
  820SOL     OW 2458   0.929   0.670   0.269 -0.4184  0.4217  0.6890
  820SOL    HW1 2459   1.014   0.676   0.209 -1.0254  0.0971  0.5126
  820SOL    HW2 2460   0.939   0.705   0.367  0.7047  0.4659 -0.0379
  821SOL     OW 2461   0.434   0.572   1.469 -0.1177  0.0946  0.1925
  821SOL    HW1 2462   0.449   0.670   1.483  0.1170 -0.1177  1.8970
  821SOL    HW2 2463   0.343   0.545   1.427 -0.6622  2.5297 -0.1037
  822SOL     OW 2464   1.367   2.558   2.082  0.0532 -0.6052  0.3480
  822SOL    HW1 2465   1.406   2.580   1.988 -1.3820 -0.5508  1.7766
  822SOL    HW2 2466   1.324   2.466   2.074 -0.9374 -1.7508 -1.6371
  823SOL     OW 2467   0.642   1.080   2.108 -0.5830 -0.8534 -0.1997
  823SOL    HW1 2468   0.693   1.165   2.084 -1.1986 -2.8024  1.6291
  823SOL    HW2 2469   0.694   1.031   2.183 -0.3954 -0.7838 -1.6303
  824SOL     OW 2470   2.331   0.017   1.884  0.0705  0.5804  0.0704
  824SOL    HW1 2471   2.330   3.054   1.807 -0.7696 -2.8421 -0.6824
  824SOL    HW2 2472   2.347   0.112   1.849  1.6631 -1.5207 -0.5162
  825SOL     OW 2473   0.920   1.289   0.174  1.1307 -0.4516 -0.2861
  825SOL    HW1 2474   0.936   1.333   0.082 -0.4292 -1.5732 -0.6054
  825SOL    HW2 2475   0.934   1.189   0.178  4.4403 -1.5511 -0.7248
  826SOL     OW 2476   2.059   0.789   2.507 -0.1910  0.3612 -0.2327
  826SOL    HW1 2477   2.049   0.834   2.600 -1.6371  4.3166  4.5280
  826SOL    HW2 2478   2.028   0.851   2.437  0.4322 -2.5197  0.9905
  827SOL     OW 2479   0.486   2.101   2.897 -0.4675  0.3124 -0.2015
  827SOL    HW1 2480   0.552   2.168   2.946 -2.7736  2.3551 -1.3473
  827SOL    HW2 2481   0.480   2.120   2.799 -1.0022  1.4972  3.0310
  828SOL     OW 2482   2.744   0.258   1.485  0.4339 -0.1112 -0.0217
  828SOL    HW1 2483   2.707   0.337   1.432  0.8932 -3.4675  3.0852
  828SOL    HW2 2484   2.832   0.223   1.447  2.3243 -2.1545  2.1549
  829SOL     OW 2485   1.400   1.628   1.035 -0.1176  0.2205 -0.1075
  829SOL    HW1 2486   1.466   1.664   1.101  1.4424 -0.6408 -0.5214
  829SOL    HW2 2487   1.446   1.557   0.981 -1.6162 -1.5809 -0.9513
  830SOL     OW 2488   0.284   1.139   1.717  0.0722  0.0816 -0.3010
  830SOL    HW1 2489   0.209   1.148   1.647 -2.5499 -1.0345 -0.7420
  830SOL    HW2 2490   0.284   1.047   1.765  1.4279  0.1359  0.8691
  831SOL     OW 2491   0.539   1.581   0.238 -0.6236  0.0881 -0.2386
  831SOL    HW1 2492   0.460   1.529   0.202 -2.0613 -2.7457  1.4730
  831SOL    HW2 2493   0.534   1.681   0.209  3.7445  2.2139  0.6943
  832SOL     OW 2494   1.004   0.197   2.863 -0.4319 -0.2381 -0.1119
  832SOL    HW1 2495   1.002   0.125   2.939  0.1599 -1.0261  2.6536
  832SOL    HW2 2496   0.917   0.209   2.818 -0.2718  0.2718  0.6023
  833SOL     OW 2497   0.041   0.707   1.988  0.1647 -0.0547 -0.5184
  833SOL    HW1 2498   0.120   0.683   1.930 -1.0377  0.5787  0.0803
  833SOL    HW2 2499   3.075   0.758   1.937 -0.9147  1.0561 -0.3653
  834SOL     OW 2500   0.077   0.706   1.137  0.6430 -0.3522 -0.3023
  834SOL    HW1 2501   0.140   0.726   1.060 -0.5060  0.2744  2.0618
  834SOL    HW2 2502   3.088   0.703   1.101 -2.1651  1.9560 -1.7960
  835SOL     OW 2503   2.705   2.692   1.120  0.2566 -0.1762 -0.0471
  835SOL    HW1 2504   2.731   2.713   1.022 -0.2144  1.8055  0.1712
  835SOL    HW2 2505   2.753   2.754   1.182 -1.3463 -1.4606 -0.4358
  836SOL     OW 2506   0.519   1.835   2.991  0.2316 -0.3026  0.9161
  836SOL    HW1 2507   0.543   1.820   3.087 -0.0983 -0.0763 -3.2123
  836SOL    HW2 2508   0.488   1.933   2.976  1.6838 -1.0730 -0.5906
  837SOL     OW 2509   2.002   2.120   2.744  0.5654 -0.0853  0.3025
  837SOL    HW1 2510   1.946   2.206   2.745 -2.4563 -1.3479  0.0152
  837SOL    HW2 2511   1.984   2.067   2.830 -0.9549  0.3924  1.5114
  838SOL     OW 2512   2.936   1.108   2.200 -0.2370  0.3268 -0.2581
  838SOL    HW1 2513   2.870   1.037   2.179  1.4262  1.0016  0.7505
  838SOL    HW2 2514   3.037   1.086   2.195 -0.2743  1.2704  0.4502
  839SOL     OW 2515   0.942   0.763   0.526 -0.1106  0.1104  0.3319
  839SOL    HW1 2516   0.892   0.708   0.599 -2.4265  0.3906 -1.8082
  839SOL    HW2 2517   0.885   0.842   0.492  0.1358  0.7938 -0.2521
  840SOL     OW 2518   1.613   0.512   0.759 -0.3194 -0.1319 -0.5269
  840SOL    HW1 2519   1.631   0.572   0.673  0.9612  5.4352  0.6061
  840SOL    HW2 2520   1.543   0.564   0.813  1.6610 -0.9452  1.6024
  841SOL     OW 2521   0.535   2.818   0.905  0.1658 -0.8700  0.3025
  841SOL    HW1 2522   0.561   2.912   0.932  1.2097 -1.8869 -1.0764
  841SOL    HW2 2523   0.622   2.771   0.883  1.7746  1.9399  0.2278
  842SOL     OW 2524   0.461   0.215   0.253  0.0957 -0.3727 -0.1538
  842SOL    HW1 2525   0.405   0.153   0.198  1.8964  1.7279  2.0066
  842SOL    HW2 2526   0.465   0.312   0.221  0.9155  1.3144 -0.1682
  843SOL     OW 2527   0.503   0.547   1.826  0.2712  0.4995 -0.1222
  843SOL    HW1 2528   0.527   0.645   1.819  2.3179  1.0029 -1.3557
  843SOL    HW2 2529   0.432   0.531   1.898  0.2791  0.6152 -0.6305
  844SOL     OW 2530   1.626   2.660   3.012  0.0957 -0.0274  0.5466
  844SOL    HW1 2531   1.659   2.698   2.922  3.9843 -0.9539 -3.3143
  844SOL    HW2 2532   1.569   2.575   3.008  0.7740  0.9879  0.5170
  845SOL     OW 2533   2.781   2.733   2.118 -0.4792  0.3944  0.2686
  845SOL    HW1 2534   2.836   2.732   2.031  0.7718 -1.3944 -3.1215
  845SOL    HW2 2535   2.811   2.802   2.181 -0.5864  0.7482 -1.4201
  846SOL     OW 2536   1.604   1.933   2.456 -0.0305  0.1813  0.7963
  846SOL    HW1 2537   1.583   1.911   2.552  3.7894  1.4481 -0.8246
  846SOL    HW2 2538   1.587   1.849   2.403 -0.8518  1.5602  1.0673
  847SOL     OW 2539   2.295   2.851   2.178  0.1873  0.0848  0.3886
  847SOL    HW1 2540   2.328   2.764   2.130  0.6162 -0.2037 -1.1700
  847SOL    HW2 2541   2.222   2.896   2.120 -1.9418  2.2170  0.4368
  848SOL     OW 2542   0.288   2.882   0.363  0.2163  0.3159 -0.1923
  848SOL    HW1 2543   0.372   2.917   0.404  0.7856 -0.4934 -2.1342
  848SOL    HW2 2544   0.298   2.878   0.258 -0.4211 -0.4603 -2.1534
  849SOL     OW 2545   0.754   2.849   1.407 -0.4101  0.5700  0.0591
  849SOL    HW1 2546   0.808   2.790   1.466 -1.3746  1.5372 -0.7197
  849SOL    HW2 2547   0.805   2.895   1.334 -0.4663  0.6273 -0.1083
  850SOL     OW 2548   0.116   1.294   0.446  0.1403 -0.2199 -0.3543
  850SOL    HW1 2549   0.068   1.382   0.454 -2.8418  0.7070 -2.6306
  850SOL    HW2 2550   0.159   1.269   0.535 -0.9655 -2.0653 -2.4952
  851SOL     OW 2551   0.093   0.479   2.998  0.0190 -0.5510 -0.1338
  851SOL    HW1 2552   0.185   0.468   2.968 -0.2694  0.6686  0.9772
  851SOL    HW2 2553   0.037   0.411   2.946 -3.4445 -1.1338 -2.1115
  852SOL     OW 2554   1.408   1.989   1.826  0.0405  0.3730  0.2831
  852SOL    HW1 2555   1.420   1.896   1.788  0.4116 -0.4214  1.4681
  852SOL    HW2 2556   1.435   1.984   1.924  0.5976 -3.4679  1.3159
  853SOL     OW 2557   0.728   1.803   0.586  0.3516 -0.1191 -0.2782
  853SOL    HW1 2558   0.778   1.779   0.672  0.6236  0.3611  1.3855
  853SOL    HW2 2559   0.749   1.892   0.546  2.7324  1.2001  1.2042
  854SOL     OW 2560   1.640   1.133   1.369 -0.3532  0.6341  0.4590
  854SOL    HW1 2561   1.558   1.193   1.376 -2.1866 -0.8963 -0.9454
  854SOL    HW2 2562   1.663   1.113   1.273 -1.0411  1.2061  0.0681
  855SOL     OW 2563   0.593   1.819   0.128  0.2400 -0.0497  0.5383
  855SOL    HW1 2564   0.690   1.827   0.140 -1.6332  0.3291 -0.6396
  855SOL    HW2 2565   0.547   1.908   0.150  1.6880 -2.0755  1.2162
  856SOL     OW 2566   2.827   0.085   1.909 -0.1450  0.3003  0.1338
  856SOL    HW1 2567   2.894   0.044   1.980  2.2848  0.2627  4.5000
  856SOL    HW2 2568   2.735   0.107   1.946 -0.6635 -0.1100 -1.3312
  857SOL     OW 2569   0.402   0.251   2.081 -0.2000  0.6479 -0.7501
  857SOL    HW1 2570   0.325   0.210   2.039  0.7737  1.5840  3.8112
  857SOL    HW2 2571   0.397   0.349   2.066  0.5499 -3.5172  0.9902
  858SOL     OW 2572   2.866   2.009   2.184  0.6958  0.1339  0.0075
  858SOL    HW1 2573   2.770   2.009   2.228 -0.4474  2.2905  0.0826
  858SOL    HW2 2574   2.938   2.033   2.255  0.5770  1.0172  0.0157
  859SOL     OW 2575   2.226   2.857   0.689 -0.1774 -0.0608 -0.3202
  859SOL    HW1 2576   2.313   2.864   0.737 -1.7511 -0.3875 -0.8414
  859SOL    HW2 2577   2.221   2.777   0.622 -0.4307  0.5989 -1.9750
  860SOL     OW 2578   1.720   0.368   0.275  0.0677 -0.0998  0.1721
  860SOL    HW1 2579   1.798   0.395   0.335  1.2966  3.1081 -0.5076
  860SOL    HW2 2580   1.710   0.264   0.274  0.3170 -1.4170  2.6380
  861SOL     OW 2581   0.398   0.327   0.929 -0.1778 -0.3501  0.5574
  861SOL    HW1 2582   0.448   0.414   0.922 -0.4434 -0.4927 -2.5731
  861SOL    HW2 2583   0.361   0.329   1.021  0.0191 -0.1601 -3.0962
  862SOL     OW 2584   2.161   0.550   1.450  0.4135 -0.1805  0.1943
  862SOL    HW1 2585   2.095   0.475   1.473  1.0287  0.3394  0.5878
  862SOL    HW2 2586   2.132   0.606   1.370  2.0671 -0.6790  3.6164
  863SOL     OW 2587   0.464   1.483   1.190 -0.3072 -0.0807 -0.0665
  863SOL    HW1 2588   0.433   1.431   1.110 -0.6473  0.9472  0.8510
  863SOL    HW2 2589   0.560   1.506   1.190  0.9145 -2.4342  1.1359
  864SOL     OW 2590   2.538   0.022   2.079  0.2240  0.2312 -0.5998
  864SOL    HW1 2591   2.451   0.007   2.034  1.6449 -0.4604  0.9859
  864SOL    HW2 2592   2.559   3.044   2.135  0.6109  1.9660  2.6051
  865SOL     OW 2593   1.659   0.357   1.682 -0.1002  0.1160  0.0821
  865SOL    HW1 2594   1.695   0.272   1.642  1.4778  0.9515  2.5232
  865SOL    HW2 2595   1.638   0.423   1.605 -0.5443 -1.4218  1.9690
  866SOL     OW 2596   2.790   2.731   0.865 -0.5408  0.4852  0.7280
  866SOL    HW1 2597   2.885   2.695   0.861 -1.6431 -1.1275  1.1863
  866SOL    HW2 2598   2.753   2.768   0.775  1.1063  2.2525 -0.4858
  867SOL     OW 2599   2.619   2.485   0.548 -0.1324  0.0776  0.2795
  867SOL    HW1 2600   2.567   2.544   0.614  0.8911 -0.1751  0.4147
  867SOL    HW2 2601   2.705   2.536   0.520 -1.2809 -0.2534 -0.3362
  868SOL     OW 2602   1.418   2.098   2.360  0.0912  0.2785 -0.3122
  868SOL    HW1 2603   1.332   2.073   2.408 -1.1147 -1.6423 -0.6325
  868SOL    HW2 2604   1.493   2.036   2.384  0.0194  1.5549  1.0431
  869SOL     OW 2605   2.446   1.779   0.479 -0.1971 -0.0966 -0.4814
  869SOL    HW1 2606   2.365   1.768   0.426 -0.0126 -0.5047  0.9151
  869SOL    HW2 2607   2.487   1.870   0.462  2.9365 -0.1740  0.0643
  870SOL     OW 2608   2.736   1.539   0.213  0.5259 -0.0287 -0.3092
  870SOL    HW1 2609   2.664   1.515   0.140  2.7409  1.0995 -1.9203
  870SOL    HW2 2610   2.795   1.620   0.187 -0.0935  1.1310  0.3470
  871SOL     OW 2611   0.038   0.782   1.560  0.1753  0.0271  0.0208
  871SOL    HW1 2612   0.060   0.829   1.472 -0.3592  0.5033  1.6109
  871SOL    HW2 2613   3.078   0.838   1.612 -1.5879  0.3963  0.6666
  872SOL     OW 2614   0.608   1.775   2.534  0.3368 -0.0797  0.1181
  872SOL    HW1 2615   0.680   1.841   2.514  0.5662  0.4712 -1.6219
  872SOL    HW2 2616   0.642   1.700   2.593  1.9932 -0.9970  0.0666
  873SOL     OW 2617   0.418   2.697   1.764  0.1591  0.7536  0.4159
  873SOL    HW1 2618   0.437   2.762   1.689  0.4799  1.2337  0.2163
  873SOL    HW2 2619   0.489   2.714   1.832  1.5415  2.3508 -2.4554
  874SOL     OW 2620   0.994   0.956   2.145  0.1180 -0.4186 -0.3873
  874SOL    HW1 2621   1.039   1.015   2.214 -0.1846 -1.7687  1.7166
  874SOL    HW2 2622   1.021   0.985   2.051  0.6489 -0.2495 -3.3209
  875SOL     OW 2623   2.868   2.812   1.286 -0.4565  0.3445  0.2651
  875SOL    HW1 2624   2.860   2.717   1.316  1.1513  1.3548 -1.1029
  875SOL    HW2 2625   2.866   2.877   1.369 -1.6966 -0.5653  1.8274
  876SOL     OW 2626   1.106   1.209   0.776 -0.8146 -0.1965  0.7351
  876SOL    HW1 2627   1.094   1.210   0.878  2.0159  0.7565 -3.1319
  876SOL    HW2 2628   1.020   1.223   0.721  0.2626  1.0426 -2.0399
  877SOL     OW 2629   1.035   0.530   1.385 -0.2188  0.6326  0.2150
  877SOL    HW1 2630   1.122   0.544   1.338  0.2591  1.6754 -1.0312
  877SOL    HW2 2631   0.992   0.447   1.349  0.5492  0.1483 -3.3241
  878SOL     OW 2632   2.620   1.903   2.973  0.0125 -0.2261 -0.4107
  878SOL    HW1 2633   2.625   1.805   2.949 -0.6447 -0.9074  0.8477
  878SOL    HW2 2634   2.612   1.965   2.891 -0.4055 -1.7243 -0.3179
  879SOL     OW 2635   2.152   1.920   1.789 -0.3270  0.4328  0.2085
  879SOL    HW1 2636   2.192   1.999   1.841 -0.9938  2.1750 -1.3260
  879SOL    HW2 2637   2.123   1.954   1.698 -0.2613 -0.1582 -0.0799
  880SOL     OW 2638   0.992   2.249   1.250  0.1196 -0.1772  0.2150
  880SOL    HW1 2639   1.023   2.297   1.335 -0.8219  2.1094 -2.1245
  880SOL    HW2 2640   1.016   2.151   1.249  1.2331 -0.1551  0.0441
  881SOL     OW 2641   1.155   1.920   0.553  0.2392  0.0344 -1.1379
  881SOL    HW1 2642   1.210   2.002   0.574 -1.7083 -2.1453 -0.1234
  881SOL    HW2 2643   1.071   1.911   0.608  2.3089 -1.3476 -1.2486
  882SOL     OW 2644   2.029   1.727   2.819 -0.1489  0.4503 -0.2211
  882SOL    HW1 2645   2.102   1.796   2.839 -0.9089  0.4037 -0.3206
  882SOL    HW2 2646   2.025   1.699   2.719 -0.5399  1.5060 -2.0981
  883SOL     OW 2647   1.457   0.624   1.093 -0.3576  0.8758 -0.8090
  883SOL    HW1 2648   1.438   0.674   1.009  1.2599  0.3391  1.5977
  883SOL    HW2 2649   1.444   0.525   1.076  1.7921  1.8118 -1.1914
  884SOL     OW 2650   3.035   2.958   1.141 -0.3149 -0.4493 -0.4661
  884SOL    HW1 2651   3.063   2.915   1.050 -0.3347 -3.2583  1.0395
  884SOL    HW2 2652   2.951   2.919   1.175 -0.5342  4.3986  1.2576
  885SOL     OW 2653   1.036   1.348   2.054 -0.1158 -0.0753  0.3595
  885SOL    HW1 2654   0.954   1.301   2.023  2.1259  2.2340  0.4355
  885SOL    HW2 2655   1.122   1.310   2.014 -1.5368  0.1058  1.1890
  886SOL     OW 2656   1.045   1.200   2.685 -0.1017  0.1807 -0.2246
  886SOL    HW1 2657   1.040   1.104   2.721  1.7705 -0.3462 -0.4767
  886SOL    HW2 2658   1.129   1.238   2.728  0.1640  0.2790  0.0157
  887SOL     OW 2659   1.593   0.261   0.887 -0.5494  0.2465  0.6585
  887SOL    HW1 2660   1.634   0.312   0.806 -0.6850  0.2289  2.3360
  887SOL    HW2 2661   1.631   0.164   0.887  0.5413 -1.2171  1.7744
  888SOL     OW 2662   1.988   0.902   2.147  0.0545 -0.8550  0.3806
  888SOL    HW1 2663   1.964   0.981   2.201 -0.6188 -2.6809 -2.5397
  888SOL    HW2 2664   1.975   0.927   2.049  4.6846  3.3368  0.2196
  889SOL     OW 2665   2.837   1.880   1.026 -0.6683  0.4482 -0.4953
  889SOL    HW1 2666   2.911   1.933   0.981  0.2496 -0.2022 -0.9922
  889SOL    HW2 2667   2.855   1.873   1.125  0.0922 -0.4622 -3.1027
  890SOL     OW 2668   1.467   2.325   0.235  0.5891 -0.0314 -0.1139
  890SOL    HW1 2669   1.375   2.275   0.241  0.0897 -0.9226 -0.0028
  890SOL    HW2 2670   1.444   2.409   0.290 -1.6548 -0.8710 -0.4631
  891SOL     OW 2671   2.789   0.644   2.486  0.3040 -0.0115 -0.1285
  891SOL    HW1 2672   2.780   0.656   2.385 -1.3115 -0.3262  0.1262
  891SOL    HW2 2673   2.741   0.716   2.542 -0.8761  1.7077  1.7531
  892SOL     OW 2674   3.078   2.442   1.424 -0.3401 -0.3690 -0.2021
  892SOL    HW1 2675   0.025   2.432   1.340 -0.1062  1.9927  0.9428
  892SOL    HW2 2676   3.040   2.354   1.461  1.5146  2.7743 -0.0632
  893SOL     OW 2677   1.345   0.050   1.309 -0.2083  0.2475  0.1732
  893SOL    HW1 2678   1.423   0.015   1.369  0.7175  0.3063 -0.8838
  893SOL    HW2 2679   1.352   0.151   1.311 -2.2003  1.8937 -0.2384
  894SOL     OW 2680   2.758   3.108   1.074 -0.4243 -0.4164 -0.3495
  894SOL    HW1 2681   2.666   3.092   1.033 -0.1015  1.9205  1.2510
  894SOL    HW2 2682   2.752   3.099   1.177  0.3195 -4.5342  2.7510
  895SOL     OW 2683   1.476   1.994   2.107  0.0568  0.1040 -0.5822
  895SOL    HW1 2684   1.562   1.942   2.114  1.8947  2.7711 -1.9564
  895SOL    HW2 2685   1.448   2.052   2.187  0.1076 -0.4517  0.2742
  896SOL     OW 2686   1.876   0.755   1.109 -0.1312 -0.3836  0.4550
  896SOL    HW1 2687   1.964   0.783   1.156 -0.8922  1.3702 -2.2287
  896SOL    HW2 2688   1.849   0.830   1.042 -2.0883 -1.7422 -2.9495
  897SOL     OW 2689   0.332   1.417   1.701 -0.1404  0.0717 -0.1201
  897SOL    HW1 2690   0.343   1.411   1.596 -1.0323 -2.1152 -1.9059
  897SOL    HW2 2691   0.330   1.325   1.742 -0.4184  0.5480 -2.0992
  898SOL     OW 2692   1.840   2.358   2.196  0.2543 -0.1143  0.3795
  898SOL    HW1 2693   1.859   2.271   2.141  1.0081 -3.9152 -1.8119
  898SOL    HW2 2694   1.750   2.349   2.247 -2.7238  0.4871  1.6256
  899SOL     OW 2695   1.422   2.036   0.825  0.2774  0.0514 -0.4754
  899SOL    HW1 2696   1.356   2.078   0.758 -3.3320 -0.9725 -3.3456
  899SOL    HW2 2697   1.380   2.023   0.911  1.3732  2.2366 -0.3362
  900SOL     OW 2698   0.831   2.984   2.582  0.2434  0.0475  0.3621
  900SOL    HW1 2699   0.741   3.012   2.627 -0.8778  0.9587 -0.3625
  900SOL    HW2 2700   0.848   3.035   2.496 -0.0551 -0.8316  1.5667
  901SOL     OW 2701   1.072   1.494   2.292  0.2048 -0.5080  0.7121
  901SOL    HW1 2702   1.059   1.453   2.200 -0.4251  1.3205  1.2602
  901SOL    HW2 2703   1.021   1.441   2.364  0.4921 -0.6419  0.1696
  902SOL     OW 2704   1.967   0.835   3.027 -0.2692  0.2341 -0.1530
  902SOL    HW1 2705   1.960   0.938   3.022  2.0724 -0.8733 -1.8633
  902SOL    HW2 2706   1.883   0.782   3.019  3.0835  2.1518  0.2354
  903SOL     OW 2707   1.879   1.270   2.767  0.5162 -0.1782  0.1260
  903SOL    HW1 2708   1.927   1.350   2.810  1.7935 -1.5457  1.4461
  903SOL    HW2 2709   1.791   1.289   2.719  1.1852 -0.8992  0.4543
  904SOL     OW 2710   1.541   1.155   1.677 -0.5173 -0.3705 -0.3536
  904SOL    HW1 2711   1.509   1.061   1.694 -0.8303  3.0023 -1.2178
  904SOL    HW2 2712   1.482   1.232   1.708  0.0673  1.8446 -2.5839
  905SOL     OW 2713   2.621   0.475   0.911 -0.4124  0.3047 -0.0183
  905SOL    HW1 2714   2.536   0.428   0.892  1.4944 -2.6537  2.4328
  905SOL    HW2 2715   2.698   0.421   0.945 -1.2174  0.0592 -1.2441
  906SOL     OW 2716   0.297   1.415   0.842 -0.2379 -0.1742  0.4213
  906SOL    HW1 2717   0.316   1.376   0.753  1.3147  1.2090  0.1097
  906SOL    HW2 2718   0.202   1.451   0.853  1.6110 -0.4169  1.6131
  907SOL     OW 2719   1.280   0.137   0.470 -0.0594 -0.1179 -0.7871
  907SOL    HW1 2720   1.245   0.143   0.565  0.8023 -2.0232 -1.1623
  907SOL    HW2 2721   1.349   0.216   0.457  2.7660  0.8035 -2.5076
  908SOL     OW 2722   1.291   2.781   1.771  0.1204 -0.0472  0.2369
  908SOL    HW1 2723   1.207   2.776   1.828  0.3407 -0.0236  1.3015
  908SOL    HW2 2724   1.345   2.697   1.781 -1.9594  0.6369  0.5812
  909SOL     OW 2725   2.544   0.830   1.790 -0.3774  0.0907  0.7135
  909SOL    HW1 2726   2.482   0.770   1.845  0.6539  0.3232 -1.0000
  909SOL    HW2 2727   2.522   0.928   1.798  1.7788  2.5006 -0.4595
  910SOL     OW 2728   1.260   0.068   2.457 -0.5421  0.0823  0.3057
  910SOL    HW1 2729   1.296   0.143   2.517 -0.4044 -0.7041  0.6671
  910SOL    HW2 2730   1.189   0.015   2.510  0.5192 -0.7012 -0.3914
  911SOL     OW 2731   2.398   1.474   2.410  0.1314 -0.4632 -0.0732
  911SOL    HW1 2732   2.415   1.536   2.330  1.8496 -1.3730 -1.8087
  911SOL    HW2 2733   2.488   1.456   2.450 -0.6165  0.1700  2.3539
  912SOL     OW 2734   2.347   2.035   1.406 -0.2747  0.2003 -0.5581
  912SOL    HW1 2735   2.412   2.033   1.486  0.6818  0.7928  0.1400
  912SOL    HW2 2736   2.362   2.125   1.366  0.4640  0.8532  2.3854
  913SOL     OW 2737   2.494   2.127   1.820  0.0165  0.4416  0.4782
  913SOL    HW1 2738   2.554   2.206   1.835 -0.2925 -2.6940 -1.1842
  913SOL    HW2 2739   2.397   2.150   1.846  1.6722 -2.7662  0.2536
  914SOL     OW 2740   2.047   2.254   0.723  0.0220 -0.3899  0.2905
  914SOL    HW1 2741   2.079   2.241   0.814  1.5869  2.7704 -3.9035
  914SOL    HW2 2742   2.054   2.170   0.661 -0.8272 -0.7991  1.3241
  915SOL     OW 2743   0.956   2.461   2.010  0.1360  0.1164 -0.1676
  915SOL    HW1 2744   0.902   2.471   2.098  2.8771  0.2409 -0.7291
  915SOL    HW2 2745   1.055   2.447   2.030 -0.5310 -1.4780 -0.7383
  916SOL     OW 2746   0.012   2.215   0.855 -0.5246 -0.2021  0.3161
  916SOL    HW1 2747   3.097   2.269   0.938 -1.3520 -1.8661 -0.8478
  916SOL    HW2 2748   0.114   2.214   0.834 -0.7494  3.1856 -0.7738
  917SOL     OW 2749   2.704   1.113   2.815 -0.5647 -0.3969  0.2117
  917SOL    HW1 2750   2.670   1.019   2.791 -0.2027 -1.1359 -2.7681
  917SOL    HW2 2751   2.760   1.147   2.738 -0.6652 -1.0603  1.4085
  918SOL     OW 2752   1.617   2.325   2.337  0.3137  0.2134 -0.9217
  918SOL    HW1 2753   1.524   2.285   2.322  0.4487  1.7006  1.5312
  918SOL    HW2 2754   1.679   2.266   2.396 -1.3278 -0.5581  1.6256
  919SOL     OW 2755   1.787   2.309   0.695  0.1550 -0.0634 -0.0368
  919SOL    HW1 2756   1.746   2.223   0.732  0.0845  2.0812  0.1743
  919SOL    HW2 2757   1.889   2.305   0.709  1.8271 -0.3416  1.4724
  920SOL     OW 2758   1.154   0.613   2.423  0.1458 -0.0169 -0.1751
  920SOL    HW1 2759   1.228   0.678   2.409 -1.7235 -1.5517  2.3596
  920SOL    HW2 2760   1.081   0.627   2.351  3.5498 -0.5700  0.3210
  921SOL     OW 2761   3.107   0.373   2.749  0.4701  0.7442 -0.4283
  921SOL    HW1 2762   3.054   0.395   2.666 -1.9777  0.1003  3.0882
  921SOL    HW2 2763   0.100   0.346   2.738 -0.6928 -0.5852 -1.8324
  922SOL     OW 2764   2.584   1.489   1.792  0.2949  0.3819 -0.5521
  922SOL    HW1 2765   2.483   1.468   1.779 -0.3474 -0.5154  0.3777
  922SOL    HW2 2766   2.623   1.544   1.715 -2.2216  3.1105  0.4057
  923SOL     OW 2767   0.266   1.667   2.460  0.5314 -0.5777 -0.0278
  923SOL    HW1 2768   0.197   1.745   2.467 -2.0537  1.1794  0.0855
  923SOL    HW2 2769   0.335   1.679   2.531  0.6394 -2.5970  0.1329
  924SOL     OW 2770   1.680   0.428   2.204 -0.2609  0.2402  0.1522
  924SOL    HW1 2771   1.692   0.368   2.286 -1.4979  0.7691 -0.1894
  924SOL    HW2 2772   1.730   0.513   2.208  1.0539 -4.8382 -0.0379
  925SOL     OW 2773   3.077   0.950   0.067  0.3758  0.2214 -0.1256
  925SOL    HW1 2774   3.026   0.867   0.100 -0.1884 -0.7503 -0.2539
  925SOL    HW2 2775   3.024   1.036   0.089  0.9651  0.6344  0.7134
  926SOL     OW 2776   2.737   0.196   0.813 -0.2224  0.0450  0.0528
  926SOL    HW1 2777   2.760   0.275   0.753 -1.6605  0.6341  2.3297
  926SOL    HW2 2778   2.767   0.218   0.907 -0.0131 -0.5033 -0.1910
  927SOL     OW 2779   1.168   0.860   0.844  0.3628  0.1311 -0.1423
  927SOL    HW1 2780   1.169   0.857   0.740 -0.6232  2.9238 -2.1257
  927SOL    HW2 2781   1.073   0.828   0.869  0.8643  0.8977  0.9854
  928SOL     OW 2782   0.025   0.160   2.221 -0.2579  0.2740 -0.2546
  928SOL    HW1 2783   3.052   0.217   2.238  1.7621  3.5549 -1.0157
  928SOL    HW2 2784   0.104   0.201   2.275  0.7310 -0.1421  1.6733
  929SOL     OW 2785   2.552   0.925   1.424  0.4821 -0.0008 -0.8289
  929SOL    HW1 2786   2.639   0.915   1.368  0.9465 -2.9234  1.1057
  929SOL    HW2 2787   2.536   0.838   1.475  1.2302 -1.6752  0.0697
  930SOL     OW 2788   2.062   2.723   1.012  0.3489 -0.1601  0.4446
  930SOL    HW1 2789   2.027   2.683   0.924 -1.1603  1.3104 -1.7894
  930SOL    HW2 2790   2.071   2.823   1.005  2.7859  2.4862 -0.4030
  931SOL     OW 2791   1.985   1.157   0.800 -0.0830 -0.0084 -0.4251
  931SOL    HW1 2792   1.962   1.108   0.712 -3.4115 -0.1339  0.3446
  931SOL    HW2 2793   1.946   1.255   0.791  0.8155 -0.5231 -2.1254
  932SOL     OW 2794   0.082   0.905   1.314 -0.1307 -0.7571 -0.3371
  932SOL    HW1 2795   0.018   0.975   1.273 -0.2306 -0.9905 -1.4751
  932SOL    HW2 2796   0.100   0.831   1.247  0.9406 -1.7391 -1.7160
  933SOL     OW 2797   2.091   1.599   2.159  0.2552  0.1737 -0.8610
  933SOL    HW1 2798   2.002   1.632   2.198  0.3519  1.6227  0.4959
  933SOL    HW2 2799   2.119   1.661   2.080  1.4712 -0.1985  0.6629
  934SOL     OW 2800   1.564   2.800   1.436  0.1042  0.0397  0.6067
  934SOL    HW1 2801   1.599   2.811   1.337 -2.5332 -0.6556  0.7269
  934SOL    HW2 2802   1.522   2.887   1.470  0.0050 -4.3322  0.5409
  935SOL     OW 2803   0.487   0.832   1.566 -0.0922  0.0620  0.5767
  935SOL    HW1 2804   0.471   0.929   1.538 -0.6205 -1.0733 -0.1040
  935SOL    HW2 2805   0.520   0.825   1.663  2.1584 -0.0477 -0.7608
  936SOL     OW 2806   2.317   0.720   1.046  0.3757  0.0790  0.3041
  936SOL    HW1 2807   2.406   0.703   1.001 -1.1980  0.8034 -1.6167
  936SOL    HW2 2808   2.323   0.786   1.124 -1.0906  2.8379  0.1894
  937SOL     OW 2809   1.082   3.082   1.311 -0.1163  0.5792 -0.0949
  937SOL    HW1 2810   1.040   3.102   1.399 -0.7700 -0.4479  0.7358
  937SOL    HW2 2811   1.183   3.107   1.311 -1.8633 -1.4019 -1.3189
  938SOL     OW 2812   2.884   2.135   0.724  0.1678  0.0785 -0.0554
  938SOL    HW1 2813   2.823   2.060   0.747 -3.1725  1.6170 -5.0850
  938SOL    HW2 2814   2.973   2.137   0.768 -0.4038 -1.1374 -1.4028
  939SOL     OW 2815   3.033   1.923   2.498 -0.1175  0.0210  0.1304
  939SOL    HW1 2816   3.060   1.876   2.413  1.7721 -1.0605 -0.0688
  939SOL    HW2 2817   3.102   1.897   2.571  2.0496 -0.8239 -0.7146
  940SOL     OW 2818   2.197   2.682   2.786 -0.3351  0.2677  0.4071
  940SOL    HW1 2819   2.143   2.615   2.726  0.2321 -2.4095 -1.0920
  940SOL    HW2 2820   2.225   2.763   2.726  3.4809 -0.1752 -1.0412
  941SOL     OW 2821   1.764   2.671   0.466 -0.1081  0.6387  0.5113
  941SOL    HW1 2822   1.829   2.625   0.402 -0.5947  0.0197 -1.4685
  941SOL    HW2 2823   1.785   2.768   0.468 -2.1008 -1.1168  0.5545
  942SOL     OW 2824   1.619   1.983   1.082 -0.0580  0.1984 -0.4302
  942SOL    HW1 2825   1.694   2.040   1.120 -0.2987 -2.0986 -1.8316
  942SOL    HW2 2826   1.602   2.005   0.987 -0.0440  1.5885  0.9523
  943SOL     OW 2827   1.911   0.907   1.873  0.5044 -0.0483 -0.1052
  943SOL    HW1 2828   1.831   0.859   1.828 -0.6245  1.0969 -0.6449
  943SOL    HW2 2829   2.003   0.877   1.842  0.4978  0.9455  0.0137
  944SOL     OW 2830   1.881   0.552   1.686  0.4730  0.4406 -0.0507
  944SOL    HW1 2831   1.832   0.466   1.710 -2.1469  0.9930 -2.2185
  944SOL    HW2 2832   1.979   0.536   1.712  3.9699 -1.4228 -0.9349
  945SOL     OW 2833   2.695   2.348   1.381 -0.1916  0.0795 -0.1840
  945SOL    HW1 2834   2.732   2.351   1.287 -0.3184 -0.1632 -0.2948
  945SOL    HW2 2835   2.691   2.439   1.423  1.1503  0.6031  0.5261
  946SOL     OW 2836   0.570   1.187   1.675 -1.1284  0.3757  0.3863
  946SOL    HW1 2837   0.534   1.180   1.577 -2.3189 -0.2037 -2.1485
  946SOL    HW2 2838   0.497   1.157   1.736 -0.8771 -1.3555 -1.7519
  947SOL     OW 2839   0.580   2.401   0.775 -0.9816  0.1343 -0.3139
  947SOL    HW1 2840   0.541   2.418   0.865 -0.1134 -1.3088  2.4888
  947SOL    HW2 2841   0.519   2.342   0.719  4.7449  2.1694  3.2849
  948SOL     OW 2842   2.974   1.466   2.015  0.2886 -0.2188 -0.0488
  948SOL    HW1 2843   3.028   1.436   2.094 -0.8631 -0.2302  1.5755
  948SOL    HW2 2844   2.959   1.566   2.023  1.0081  1.2676 -0.7424
  949SOL     OW 2845   0.713   0.626   2.273 -0.0663  0.5029  0.0790
  949SOL    HW1 2846   0.741   0.640   2.371  0.3164  1.7500  0.7926
  949SOL    HW2 2847   0.614   0.652   2.259  0.8100  1.0320 -0.1393
  950SOL     OW 2848   0.207   0.494   1.315  0.0718  0.1683  0.5809
  950SOL    HW1 2849   0.159   0.561   1.262 -1.3936 -2.1215  0.9932
  950SOL    HW2 2850   0.235   0.413   1.263 -0.3230 -0.7519 -2.2795
  951SOL     OW 2851   1.060   1.778   2.316  0.1496 -0.1844 -0.0297
  951SOL    HW1 2852   1.068   1.677   2.321 -3.0469  0.9758  2.7155
  951SOL    HW2 2853   1.131   1.806   2.251  1.1107 -0.8703  2.5144
  952SOL     OW 2854   1.151   1.661   2.807 -0.1418 -0.5106 -0.7633
  952SOL    HW1 2855   1.171   1.732   2.736  0.5159  2.5433 -0.1413
  952SOL    HW2 2856   1.231   1.599   2.824  1.8578  2.0549 -0.7990
  953SOL     OW 2857   1.067   3.094   2.627 -0.2382 -0.1232  0.6321
  953SOL    HW1 2858   0.974   3.056   2.629 -2.0907 -0.5693  0.2597
  953SOL    HW2 2859   1.063   0.074   2.677 -0.3035  2.1150  0.2052
  954SOL     OW 2860   2.225   1.676   0.370 -0.8123 -0.0348  0.1287
  954SOL    HW1 2861   2.144   1.715   0.324  1.5597  2.9947  0.3295
  954SOL    HW2 2862   2.199   1.628   0.457 -1.1585  0.6243 -0.8729
  955SOL     OW 2863   0.294   2.488   2.975 -0.3245 -0.1389 -0.3460
  955SOL    HW1 2864   0.266   2.506   2.879  0.7771  4.2436  1.0062
  955SOL    HW2 2865   0.322   2.395   2.999  0.6543  0.2525  1.6721
  956SOL     OW 2866   1.198   0.848   1.629  0.0780  0.1146  0.1516
  956SOL    HW1 2867   1.109   0.817   1.588 -1.0487  0.5085  0.0712
  956SOL    HW2 2868   1.239   0.923   1.574  1.8923 -1.1856 -0.5301
  957SOL     OW 2869   1.864   1.678   2.276  0.1039  0.0662  0.1670
  957SOL    HW1 2870   1.764   1.685   2.282  2.2759  0.4767  0.6530
  957SOL    HW2 2871   1.903   1.771   2.282  0.6756 -1.7402 -2.7862
  958SOL     OW 2872   1.521   2.444   1.225 -0.2880  0.1057 -0.2117
  958SOL    HW1 2873   1.461   2.514   1.188  0.5696  0.9100 -3.3445
  958SOL    HW2 2874   1.614   2.451   1.194 -1.0047  1.2382  0.2688
  959SOL     OW 2875   1.435   1.613   1.414  0.0722  0.0917  0.4474
  959SOL    HW1 2876   1.495   1.662   1.343  0.7670  0.2549  0.2973
  959SOL    HW2 2877   1.427   1.664   1.501 -0.6416 -1.5436 -0.2810
  960SOL     OW 2878   3.026   1.190   2.881 -0.4859 -0.1917 -0.2362
  960SOL    HW1 2879   3.017   1.090   2.888 -0.3317  0.1042  0.2466
  960SOL    HW2 2880   3.055   1.222   2.791 -0.3864  0.6369  1.4064
  961SOL     OW 2881   0.415   0.695   2.235 -0.2880  0.1073  0.2853
  961SOL    HW1 2882   0.400   0.699   2.335 -0.7721 -1.1172  1.8444
  961SOL    HW2 2883   0.429   0.784   2.191 -1.8181 -0.0587  0.1229
  962SOL     OW 2884   1.453   1.665   0.257  0.2207 -0.7137  0.4790
  962SOL    HW1 2885   1.355   1.679   0.279 -0.1486  1.1027  0.6092
  962SOL    HW2 2886   1.510   1.727   0.311  0.5247  0.2896  0.0091
  963SOL     OW 2887   1.263   2.510   2.572 -0.0179 -0.0891  0.5329
  963SOL    HW1 2888   1.272   2.542   2.476  1.1358  1.2822 -1.1406
  963SOL    HW2 2889   1.228   2.413   2.579  3.4472 -0.6948 -2.8291
  964SOL     OW 2890   0.920   2.643   0.423  0.2716 -0.1981  0.1290
  964SOL    HW1 2891   0.952   2.681   0.338 -1.4776 -0.1249  1.1927
  964SOL    HW2 2892   0.841   2.694   0.457  1.6081 -2.3700  1.2639
  965SOL     OW 2893   0.658   3.035   1.021  0.4624  0.2733  0.5506
  965SOL    HW1 2894   0.749   3.035   1.068 -2.1971 -1.2847  0.8680
  965SOL    HW2 2895   0.584   3.058   1.086 -1.8112  0.5014 -0.4229
  966SOL     OW 2896   0.228   1.207   0.007 -0.2496 -0.1278  0.1354
  966SOL    HW1 2897   0.133   1.198   0.041 -0.2482 -1.2661 -0.3199
  966SOL    HW2 2898   0.243   1.171   3.021 -2.2444  2.1013  0.6236
  967SOL     OW 2899   1.001   2.760   2.362  0.0248 -0.1819 -0.1152
  967SOL    HW1 2900   1.047   2.803   2.443  1.0165  1.9973 -0.9164
  967SOL    HW2 2901   1.068   2.689   2.327 -0.1394 -1.9679  1.9107
  968SOL     OW 2902   2.179   0.554   0.313 -0.6112  0.0431  0.4525
  968SOL    HW1 2903   2.130   0.467   0.336  1.2548  0.3341 -0.2465
  968SOL    HW2 2904   2.125   0.636   0.283 -0.5635 -0.0892 -1.2439
  969SOL     OW 2905   0.079   1.657   2.132  0.3397  0.1393  0.3568
  969SOL    HW1 2906   0.014   1.717   2.074 -0.2205  0.6408 -0.4238
  969SOL    HW2 2907   0.168   1.648   2.086  1.0002  0.0151  0.3395
  970SOL     OW 2908   2.177   1.565   1.298 -0.0984  0.7851  0.0814
  970SOL    HW1 2909   2.111   1.490   1.285  0.8537  0.2536 -0.1814
  970SOL    HW2 2910   2.251   1.568   1.225  0.8756 -1.7481  0.3027
  971SOL     OW 2911   1.985   0.388   1.078 -0.1954  0.0203 -0.2248
  971SOL    HW1 2912   2.081   0.401   1.110 -1.4332  0.8339  0.2573
  971SOL    HW2 2913   1.981   0.384   0.978  1.2812 -2.1442 -2.3315
  972SOL     OW 2914   0.308   3.079   1.742  0.0814 -0.2026 -0.5936
  972SOL    HW1 2915   0.405   3.088   1.759 -0.8489  0.8789 -1.2593
  972SOL    HW2 2916   0.278   2.979   1.736 -0.4401 -0.1629 -1.2416
  973SOL     OW 2917   2.626   0.951   0.479  0.1823 -0.4146 -0.0612
  973SOL    HW1 2918   2.632   0.916   0.385 -1.3257 -0.5760  1.4017
  973SOL    HW2 2919   2.575   1.041   0.482  0.3755  1.7354 -1.6625
  974SOL     OW 2920   1.560   1.716   2.268 -0.0633 -0.1660  0.2658
  974SOL    HW1 2921   1.602   1.761   2.186  2.7586  0.7582 -1.7131
  974SOL    HW2 2922   1.511   1.630   2.234 -0.0105 -1.8507 -0.7521
  975SOL     OW 2923   0.303   2.801   1.433  0.6765 -0.5503 -0.6919
  975SOL    HW1 2924   0.391   2.830   1.474  0.0920  1.3030 -1.2340
  975SOL    HW2 2925   0.261   2.873   1.373 -0.0099  0.0888  1.1815
  976SOL     OW 2926   0.083   1.841   1.674 -0.3204  0.1905  0.1309
  976SOL    HW1 2927   3.104   1.891   1.676 -0.7741 -0.2494  0.1667
  976SOL    HW2 2928   0.121   1.834   1.764 -0.8314 -1.8996 -2.7667
  977SOL     OW 2929   0.891   2.522   2.999 -0.3736 -0.3312  0.1486
  977SOL    HW1 2930   0.934   2.615   3.015 -1.0883  0.4812  0.6563
  977SOL    HW2 2931   0.895   2.495   2.902  1.7420 -1.1443  0.9338
  978SOL     OW 2932   0.320   1.630   3.002 -0.2954 -0.0816  0.2701
  978SOL    HW1 2933   0.368   1.718   3.007 -0.7383 -2.2730 -1.2221
  978SOL    HW2 2934   0.312   1.585   3.098  0.4175 -0.6944  2.1553
  979SOL     OW 2935   1.661   2.471   0.920 -0.5269 -0.1130 -0.3034
  979SOL    HW1 2936   1.748   2.447   0.965 -1.5761  2.4812 -3.3572
  979SOL    HW2 2937   1.641   2.403   0.848  0.2263 -2.2630 -0.9718
  980SOL     OW 2938   0.987   1.723   3.025 -0.3443  0.2356  0.3585
  980SOL    HW1 2939   1.064   1.705   2.964  3.0443  0.0004 -0.1288
  980SOL    HW2 2940   0.916   1.790   2.985  1.1017  3.0780 -0.0340
  981SOL     OW 2941   2.759   0.016   2.411 -0.3123  0.4593 -0.1321
  981SOL    HW1 2942   2.820   0.089   2.443 -0.1506  4.0673 -0.1883
  981SOL    HW2 2943   2.682   0.001   2.472  2.9819 -0.1815  0.0006
  982SOL     OW 2944   0.241   2.821   2.691 -0.0368  0.2962 -0.3893
  982SOL    HW1 2945   0.240   2.923   2.677 -2.5183  0.8321  3.8341
  982SOL    HW2 2946   0.200   2.780   2.607 -0.5421 -2.6332  3.2085
  983SOL     OW 2947   2.437   1.068   1.845  0.2071 -0.3602 -0.1593
  983SOL    HW1 2948   2.445   1.125   1.928 -0.2141 -1.6627  0.8139
  983SOL    HW2 2949   2.344   1.040   1.814 -2.4305  4.6726 -2.5401
  984SOL     OW 2950   1.411   0.395   2.075 -0.0269  0.2830  0.2933
  984SOL    HW1 2951   1.341   0.333   2.120 -0.2420 -1.0941  2.1704
  984SOL    HW2 2952   1.483   0.419   2.141 -1.5116  1.1806  1.8891
  985SOL     OW 2953   1.211   1.900   2.109 -0.4947 -0.0267  0.0611
  985SOL    HW1 2954   1.213   1.815   2.051 -2.4196  1.2866 -2.3009
  985SOL    HW2 2955   1.293   1.956   2.088 -3.3605  0.5012 -0.9791
  986SOL     OW 2956   1.671   0.180   2.024  0.2329 -0.0426 -0.2407
  986SOL    HW1 2957   1.760   0.218   1.978  2.2251  2.7013 -0.5747
  986SOL    HW2 2958   1.610   0.260   2.051  0.0568  0.6018 -0.7288
  987SOL     OW 2959   2.141   0.824   1.771  0.0253 -0.1233 -0.4333
  987SOL    HW1 2960   2.215   0.789   1.834  1.2719 -0.5745  1.8836
  987SOL    HW2 2961   2.175   0.905   1.717  0.1082 -0.6988 -0.8591
  988SOL     OW 2962   2.590   0.829   2.566  0.1091  0.4515 -0.2441
  988SOL    HW1 2963   2.531   0.743   2.564 -1.4976  0.8114 -0.3992
  988SOL    HW2 2964   2.545   0.901   2.513 -1.6937 -2.2965  0.3813
  989SOL     OW 2965   2.466   2.705   2.601 -0.6527  0.3881  0.3020
  989SOL    HW1 2966   2.461   2.664   2.505 -1.0510 -0.1047 -2.4534
  989SOL    HW2 2967   2.471   2.625   2.669 -2.5309 -2.3790  1.4212
  990SOL     OW 2968   0.777   0.473   2.853  0.0613 -0.0073  0.0456
  990SOL    HW1 2969   0.721   0.389   2.844 -0.9817 -0.2473  0.9817
  990SOL    HW2 2970   0.719   0.556   2.872 -4.4009 -1.2601 -1.2142
  991SOL     OW 2971   1.104   0.623   0.031  0.1632  0.5067 -0.3612
  991SOL    HW1 2972   1.088   0.559   3.065 -1.6761  1.8201  1.8549
  991SOL    HW2 2973   1.133   0.709   3.097 -1.5754 -0.6575  1.3555
  992SOL     OW 2974   2.435   2.309   2.662  0.0492 -0.2062 -0.1757
  992SOL    HW1 2975   2.397   2.342   2.573  0.6518 -0.9437 -1.0404
  992SOL    HW2 2976   2.456   2.384   2.728 -1.1740  1.4353 -0.1062
  993SOL     OW 2977   0.335   0.226   0.490  0.3476 -0.3507  0.3324
  993SOL    HW1 2978   0.396   0.224   0.406 -0.6344  1.0886 -0.3313
  993SOL    HW2 2979   0.235   0.219   0.465  1.2222  1.8434  0.3518
  994SOL     OW 2980   0.321   2.222   1.622 -0.5104 -0.2640  0.1314
  994SOL    HW1 2981   0.261   2.240   1.703  1.4841 -1.2319 -0.9528
  994SOL    HW2 2982   0.380   2.305   1.609  0.4910 -0.3247  1.2392
  995SOL     OW 2983   2.220   1.914   2.902 -0.1265  0.2618 -0.1921
  995SOL    HW1 2984   2.273   1.901   2.986  0.4790 -1.5450 -0.8250
  995SOL    HW2 2985   2.223   2.013   2.877  0.0485 -1.6079 -0.7476
  996SOL     OW 2986   1.287   1.808   2.587 -0.2375  0.4719 -0.8577
  996SOL    HW1 2987   1.275   1.717   2.541 -0.6293 -2.0286 -0.5880
  996SOL    HW2 2988   1.381   1.814   2.629 -0.0836 -1.2022 -2.5479
  997SOL     OW 2989   1.788   1.161   1.131 -0.0006 -0.2813 -0.5858
  997SOL    HW1 2990   1.749   1.240   1.079 -1.6528  0.0572 -1.5366
  997SOL    HW2 2991   1.884   1.142   1.114 -1.3198  1.0191 -0.1878
  998SOL     OW 2992   2.541   1.459   0.016 -0.0762  0.3509  0.4738
  998SOL    HW1 2993   2.509   1.364   0.036 -2.4939 -1.1899 -0.1296
  998SOL    HW2 2994   2.626   1.455   3.069 -2.2101  0.1377 -1.4196
  999SOL     OW 2995   2.758   2.247   0.465  0.6090 -0.0480  0.5764
  999SOL    HW1 2996   2.719   2.334   0.429  4.4515 -0.5655  3.5052
  999SOL    HW2 2997   2.703   2.215   0.545  0.2365 -0.8198 -2.3531
 1000SOL     OW 2998   0.781   3.043   2.070 -0.1450 -0.0719 -0.0580
 1000SOL    HW1 2999   0.708   3.106   2.036  1.3807 -1.9761 -0.8731
 1000SOL    HW2 3000   0.866   3.081   2.030 -2.3699  0.2406  1.6653
   3.10778   3.10778   3.10778
