1000 SPC/Fw water molecules t=  92.00000 step= 92000
 3000
    1SOL     OW    1   1.902   2.756   0.615  0.3489 -0.4162 -0.5893
    1SOL    HW1    2   1.953   2.801   0.538 -1.7584  0.5324 -0.4299
    1SOL    HW2    3   1.969   2.727   0.682 -0.3077  2.1741 -2.3737
    2SOL     OW    4   1.136   1.244   2.050 -0.3673  0.5886 -0.1119
    2SOL    HW1    5   1.185   1.185   1.981  2.7737 -0.0752 -3.2511
    2SOL    HW2    6   1.185   1.238   2.139  1.0953 -0.3078 -2.0855
    3SOL     OW    7   1.514   2.502   2.286  0.5627  0.0915  0.3551
    3SOL    HW1    8   1.555   2.419   2.319 -0.4586  2.0998 -0.1320
    3SOL    HW2    9   1.463   2.487   2.197 -1.1433  3.1675  0.2008
    4SOL     OW   10   1.237   1.852   2.498 -0.4534 -0.2220 -0.3426
    4SOL    HW1   11   1.280   1.769   2.535 -0.5805 -0.9398 -1.3474
    4SOL    HW2   12   1.288   1.939   2.506 -2.6251  1.8046  1.9273
    5SOL     OW   13   0.545   0.908   1.741 -0.0238  0.0713  0.3519
    5SOL    HW1   14   0.568   0.967   1.824  0.9092 -0.0523  0.2583
    5SOL    HW2   15   0.622   0.916   1.677 -1.6395 -0.4061  3.3084
    6SOL     OW   16   1.911   0.734   2.772  0.1660  0.9497 -0.0675
    6SOL    HW1   17   1.904   0.831   2.767 -3.0771 -2.9285 -0.8365
    6SOL    HW2   18   2.001   0.702   2.799 -1.7340 -1.4205 -0.2316
    7SOL     OW   19   0.489   0.384   1.743 -0.1843  0.2021  0.0431
    7SOL    HW1   20   0.490   0.485   1.748  2.8264 -1.7552 -1.0332
    7SOL    HW2   21   0.396   0.345   1.764 -0.8635 -0.3403  3.4862
    8SOL     OW   22   1.687   0.010   1.864  0.0408 -0.0968  0.2530
    8SOL    HW1   23   1.785   0.015   1.838 -1.1591  0.0315  1.4488
    8SOL    HW2   24   1.661   2.987   1.867  0.1194  0.4465  0.0589
    9SOL     OW   25   0.232   0.389   0.548 -0.1782  0.1512 -0.4964
    9SOL    HW1   26   0.248   0.309   0.610 -0.5720 -1.2639 -0.2718
    9SOL    HW2   27   0.242   0.477   0.596  0.1702 -0.7262  1.5732
   10SOL     OW   28   0.533   2.040   2.322 -0.1707  0.1767 -0.4676
   10SOL    HW1   29   0.551   2.071   2.230  0.4709 -0.3474  3.1843
   10SOL    HW2   30   0.594   2.083   2.398  1.4018  3.9410  1.2609
   11SOL     OW   31   0.707   1.557   0.171 -0.5261 -0.5833 -0.4055
   11SOL    HW1   32   0.738   1.557   0.074  0.1974 -0.5355  1.4321
   11SOL    HW2   33   0.671   1.470   0.209  0.0281  1.5686 -0.2859
   12SOL     OW   34   0.035   2.899   1.384 -0.0998  0.1653  0.3597
   12SOL    HW1   35   0.026   2.997   1.376  1.1643 -0.9713 -0.0291
   12SOL    HW2   36   0.039   2.857   1.293  1.7429  0.9581 -0.1085
   13SOL     OW   37   0.805   3.029   0.657 -1.2539 -0.0846  0.4328
   13SOL    HW1   38   0.832   3.012   0.563 -1.6966 -0.1632  1.7370
   13SOL    HW2   39   0.791   0.056   0.660  1.6228  1.5837 -3.2718
   14SOL     OW   40   1.490   1.523   0.861 -0.2657 -0.3419 -0.3892
   14SOL    HW1   41   1.419   1.600   0.861  1.6470  0.5442 -0.9548
   14SOL    HW2   42   1.543   1.540   0.949  1.6814 -1.0575  1.6745
   15SOL     OW   43   2.920   1.578   2.519  0.2356  0.2644 -0.1499
   15SOL    HW1   44   2.882   1.520   2.592  1.7615 -0.2291 -0.9911
   15SOL    HW2   45   2.956   1.670   2.553  0.3190  2.7967 -1.7346
   16SOL     OW   46   1.334   0.462   2.670  0.2578 -0.4699 -0.2721
   16SOL    HW1   47   1.309   0.453   2.770  1.0317  1.3407  0.5899
   16SOL    HW2   48   1.399   0.540   2.664 -1.1094  0.4929  2.9532
   17SOL     OW   49   0.097   2.261   2.252  0.2765 -0.3299  0.8740
   17SOL    HW1   50   0.165   2.196   2.297 -0.3368  0.5473 -0.4825
   17SOL    HW2   51   0.050   2.215   2.172  1.8664 -3.3425  0.1127
   18SOL     OW   52   1.103   1.355   0.669 -0.2619 -0.0936  0.0816
   18SOL    HW1   53   1.158   1.441   0.670 -1.9989  2.0009 -0.2761
   18SOL    HW2   54   1.097   1.315   0.759 -1.7264 -0.5222 -0.8605
   19SOL     OW   55   2.585   1.420   2.562 -0.0201 -0.2424 -0.8919
   19SOL    HW1   56   2.629   1.433   2.654 -1.3183  3.1038  1.7304
   19SOL    HW2   57   2.515   1.491   2.538 -0.5007 -1.0128  0.8655
   20SOL     OW   58   2.432   2.100   2.428 -0.1414  0.2996  0.7519
   20SOL    HW1   59   2.438   2.057   2.332  0.5549 -2.1231 -0.6778
   20SOL    HW2   60   2.490   2.181   2.439 -3.0506  0.0287 -0.5047
   21SOL     OW   61   0.942   2.162   0.234 -0.4152  0.1744  0.4846
   21SOL    HW1   62   1.036   2.159   0.198  1.8783  1.7478  0.2908
   21SOL    HW2   63   0.938   2.158   0.338 -2.9809 -0.0015 -1.0872
   22SOL     OW   64   2.260   2.201   1.383 -0.3582 -0.3177 -0.9213
   22SOL    HW1   65   2.271   2.304   1.370 -0.2339  2.7016  0.4772
   22SOL    HW2   66   2.165   2.167   1.372  0.7928 -0.3774 -1.3921
   23SOL     OW   67   0.256   1.259   1.303 -0.3390  0.2347  0.3261
   23SOL    HW1   68   0.211   1.241   1.211 -0.1168  1.0578 -0.8220
   23SOL    HW2   69   0.304   1.173   1.334 -2.3161  1.3896 -0.7684
   24SOL     OW   70   2.148   1.654   2.153 -0.1813 -0.2709 -0.0223
   24SOL    HW1   71   2.149   1.562   2.201  0.0580  0.6698  3.4247
   24SOL    HW2   72   2.249   1.665   2.126  3.0008 -2.0280 -0.1554
   25SOL     OW   73   1.988   0.580   2.251 -0.4759  0.8943  0.1984
   25SOL    HW1   74   2.066   0.583   2.183  1.8837  1.3795 -0.7685
   25SOL    HW2   75   1.943   0.492   2.268  2.6231  0.7898 -0.9447
   26SOL     OW   76   1.420   0.325   0.427  0.0103 -0.5745  0.0895
   26SOL    HW1   77   1.431   0.420   0.394  2.6614 -3.4315  0.1311
   26SOL    HW2   78   1.415   0.329   0.532  2.5173 -0.4772  0.2917
   27SOL     OW   79   0.954   1.577   0.543 -0.6012 -0.0017  0.6098
   27SOL    HW1   80   0.890   1.632   0.488  0.7444  0.0292 -2.2686
   27SOL    HW2   81   0.900   1.552   0.626 -0.3122 -0.3060  1.1531
   28SOL     OW   82   2.476   1.784   0.986  0.3540 -0.0689 -0.4152
   28SOL    HW1   83   2.483   1.770   1.089  2.4967  2.4798 -0.4188
   28SOL    HW2   84   2.396   1.839   0.966 -0.1639 -1.9551  0.2918
   29SOL     OW   85   2.259   3.000   1.583  0.1717 -0.2563 -0.1928
   29SOL    HW1   86   2.172   3.018   1.633 -0.9536  0.3456  3.1799
   29SOL    HW2   87   2.292   2.908   1.600  2.1003  0.9379  0.5979
   30SOL     OW   88   0.814   0.120   1.217 -0.1258  0.4075 -0.5590
   30SOL    HW1   89   0.811   0.039   1.278 -1.1170  1.0035 -0.6151
   30SOL    HW2   90   0.881   0.189   1.254  1.9155 -0.9074  0.3954
   31SOL     OW   91   2.958   2.051   1.732 -0.0890 -0.0052 -0.4210
   31SOL    HW1   92   2.952   1.963   1.785  0.9780 -2.8202  0.8590
   31SOL    HW2   93   3.043   2.103   1.767  2.4528  1.5139 -0.6076
   32SOL     OW   94   1.439   1.530   1.825 -0.2805  0.2457  0.4037
   32SOL    HW1   95   1.374   1.493   1.757  1.9790  1.2639 -0.7509
   32SOL    HW2   96   1.477   1.619   1.805 -0.1931 -3.7326  0.1970
   33SOL     OW   97   0.340   0.195   3.040 -0.2173  0.1845  0.4818
   33SOL    HW1   98   0.401   0.276   3.020 -0.7031 -0.5876 -2.3744
   33SOL    HW2   99   0.401   0.120   3.071  0.1701  0.1883 -1.0393
   34SOL     OW  100   2.260   0.176   0.723 -0.2429 -0.2022  0.0560
   34SOL    HW1  101   2.197   0.159   0.808 -1.9516 -0.3771 -0.3158
   34SOL    HW2  102   2.338   0.239   0.748  0.4613 -0.1648  1.8848
   35SOL     OW  103   2.683   0.141   1.504  0.2104  0.4694  0.3340
   35SOL    HW1  104   2.642   0.048   1.477  0.9773  0.0795 -0.0830
   35SOL    HW2  105   2.782   0.138   1.520  0.3144 -1.8826  1.5244
   36SOL     OW  106   2.748   2.672   2.618 -0.5111 -0.5061  0.0324
   36SOL    HW1  107   2.699   2.737   2.559  2.9863 -1.8782 -0.7067
   36SOL    HW2  108   2.842   2.654   2.575  1.7039 -0.4423 -3.5992
   37SOL     OW  109   1.374   2.583   2.866  0.0693 -0.1718  0.2430
   37SOL    HW1  110   1.451   2.644   2.851  1.3864 -0.4482  0.8464
   37SOL    HW2  111   1.322   2.615   2.949 -1.1609  0.4937  0.8312
   38SOL     OW  112   2.801   0.966   2.812  0.2983  0.1574  0.4090
   38SOL    HW1  113   2.864   0.975   2.889  0.7681  0.8352 -0.8395
   38SOL    HW2  114   2.710   0.943   2.848  1.2571  1.0112 -3.3043
   39SOL     OW  115   2.149   2.053   2.058  0.3094  0.0421 -0.2220
   39SOL    HW1  116   2.083   2.027   2.125  0.7513 -0.1549 -0.5907
   39SOL    HW2  117   2.133   2.149   2.027 -0.9747  1.4231 -1.0283
   40SOL     OW  118   0.299   0.312   2.581  0.0028  0.4684  0.2397
   40SOL    HW1  119   0.281   0.274   2.672  0.5804 -0.1377 -2.4345
   40SOL    HW2  120   0.401   0.303   2.561  0.4971  1.1696 -1.0329
   41SOL     OW  121   1.566   1.187   1.420  0.0434 -0.4003  0.2123
   41SOL    HW1  122   1.563   1.085   1.410  1.8157  0.0078  0.1653
   41SOL    HW2  123   1.616   1.209   1.507 -0.5640 -1.6053 -1.8565
   42SOL     OW  124   0.230   0.309   1.816 -0.1269  0.1829 -0.6615
   42SOL    HW1  125   0.178   0.394   1.792  0.4594 -2.3347  3.0845
   42SOL    HW2  126   0.199   0.284   1.910 -1.0980 -2.6108  1.6356
   43SOL     OW  127   1.500   1.380   2.072  0.0802 -0.6566 -0.1805
   43SOL    HW1  128   1.598   1.363   2.069 -1.5936 -2.0036  0.4911
   43SOL    HW2  129   1.474   1.467   2.026 -0.8259 -1.1155 -0.3833
   44SOL     OW  130   3.036   0.079   0.048 -0.3690  0.6118  0.3138
   44SOL    HW1  131   3.051   0.034   3.039  1.1181 -1.1345  3.5778
   44SOL    HW2  132   0.006   0.169   0.050 -0.2996 -0.4602  1.5527
   45SOL     OW  133   0.537   2.109   1.082  0.0047  0.2907  0.1508
   45SOL    HW1  134   0.586   2.146   1.163  1.0200 -0.6265  0.4083
   45SOL    HW2  135   0.504   2.012   1.094 -1.1435 -1.8077 -1.6769
   46SOL     OW  136   2.376   2.756   1.685  0.4874  0.3687  0.5975
   46SOL    HW1  137   2.433   2.811   1.753  2.5124 -0.2737  0.5325
   46SOL    HW2  138   2.426   2.677   1.637  1.7417  0.8446 -1.2578
   47SOL     OW  139   0.937   1.714   1.300 -0.3409 -0.2722 -0.1108
   47SOL    HW1  140   0.967   1.632   1.352 -0.4477 -1.5772  0.1250
   47SOL    HW2  141   0.848   1.748   1.326  1.5585 -1.6104 -1.0972
   48SOL     OW  142   0.370   2.405   0.191 -0.0006 -0.0621 -0.3609
   48SOL    HW1  143   0.307   2.343   0.245 -0.3434 -1.6513  1.1567
   48SOL    HW2  144   0.354   2.505   0.201  0.0966  4.4285  1.9117
   49SOL     OW  145   2.890   1.618   1.997  0.0176 -0.6396  0.4825
   49SOL    HW1  146   2.895   1.590   2.093 -0.1126  0.2203  1.5806
   49SOL    HW2  147   2.794   1.653   1.978  0.5801  2.1983 -2.0515
   50SOL     OW  148   2.056   0.881   0.677 -0.1942  0.1726 -0.2027
   50SOL    HW1  149   1.986   0.823   0.626 -0.3200  0.6427 -0.1289
   50SOL    HW2  150   2.019   0.891   0.775  0.9678 -1.6696  0.5821
   51SOL     OW  151   1.139   0.665   0.957 -1.1314  0.9847 -0.8538
   51SOL    HW1  152   1.115   0.640   1.058 -0.3799 -1.6613  2.3875
   51SOL    HW2  153   1.059   0.684   0.901  4.1525  0.7341 -0.1432
   52SOL     OW  154   0.969   1.378   0.239 -0.1574  0.2203 -0.0183
   52SOL    HW1  155   1.035   1.324   0.292  1.0787  0.7638  0.1268
   52SOL    HW2  156   0.894   1.403   0.302 -0.9326  0.7065 -0.0541
   53SOL     OW  157   0.977   2.572   2.649 -0.2435 -0.8218 -0.4067
   53SOL    HW1  158   1.036   2.494   2.660 -0.5574  0.1542 -1.6408
   53SOL    HW2  159   0.980   2.595   2.549  0.4783  1.2610 -2.0061
   54SOL     OW  160   1.472   0.713   1.513 -0.6145 -0.3045  0.1602
   54SOL    HW1  161   1.430   0.700   1.607  1.2589  0.3012 -0.3338
   54SOL    HW2  162   1.425   0.654   1.447  1.2756  1.7183 -1.0779
   55SOL     OW  163   2.761   2.598   0.214  0.3778  0.1041  0.1311
   55SOL    HW1  164   2.832   2.637   0.155 -0.4085  1.1703  1.2923
   55SOL    HW2  165   2.679   2.658   0.214 -1.0306  0.1461 -0.9501
   56SOL     OW  166   0.767   2.442   1.787 -0.1757  0.3156 -0.2613
   56SOL    HW1  167   0.673   2.415   1.760 -0.4319  1.4508 -1.6094
   56SOL    HW2  168   0.770   2.546   1.779 -0.5952  2.4906 -0.8002
   57SOL     OW  169   1.665   0.868   2.470 -0.3252  0.0893  0.1948
   57SOL    HW1  170   1.693   0.787   2.412 -0.2069  0.1859 -0.8926
   57SOL    HW2  171   1.585   0.838   2.532 -1.5888  1.1713  2.4527
   58SOL     OW  172   0.119   1.082   1.838 -0.7243 -0.6924 -0.4082
   58SOL    HW1  173   0.191   1.132   1.783 -1.7160  1.2558  1.0442
   58SOL    HW2  174   0.035   1.135   1.858 -0.9017 -1.7681 -0.2194
   59SOL     OW  175   0.479   2.801   2.273 -0.7611  0.2579 -0.2808
   59SOL    HW1  176   0.563   2.842   2.232  1.6259  0.9783  1.7573
   59SOL    HW2  177   0.495   2.705   2.314 -0.2935 -1.4930  0.8623
   60SOL     OW  178   2.799   2.400   0.395  0.0899  0.0047  0.8893
   60SOL    HW1  179   2.843   2.313   0.370  0.1552  0.7953  1.6228
   60SOL    HW2  180   2.802   2.458   0.308  1.7280 -0.4096 -0.5922
   61SOL     OW  181   0.657   2.800   0.663 -0.1297 -0.0928  0.6238
   61SOL    HW1  182   0.697   2.750   0.582  0.3107 -0.2140 -0.2687
   61SOL    HW2  183   0.691   2.894   0.655  1.0011 -1.6030  0.8087
   62SOL     OW  184   1.952   2.558   2.562  0.4164 -0.1017 -0.2136
   62SOL    HW1  185   1.976   2.505   2.482  1.2040  2.1646 -2.9602
   62SOL    HW2  186   1.991   2.649   2.548  0.9130 -1.3323 -1.9147
   63SOL     OW  187   1.998   0.383   0.002  0.1695  0.5087 -0.3878
   63SOL    HW1  188   2.021   0.288   0.034  1.5812 -0.4351  0.2623
   63SOL    HW2  189   1.933   0.414   0.072  1.0125  1.4340 -1.6532
   64SOL     OW  190   0.996   1.287   2.682 -0.5239  0.2029  0.3976
   64SOL    HW1  191   1.020   1.224   2.606 -1.0374  1.2938  0.0410
   64SOL    HW2  192   0.934   1.241   2.749 -1.4157  2.6896 -1.2091
   65SOL     OW  193   1.364   2.919   0.992  0.2210 -0.2970  0.0803
   65SOL    HW1  194   1.448   2.900   1.047 -0.3422 -1.6626  2.3370
   65SOL    HW2  195   1.359   3.017   0.968 -1.7909 -1.1524  1.1747
   66SOL     OW  196   0.594   1.565   1.669 -0.4350 -0.3214  0.4940
   66SOL    HW1  197   0.676   1.582   1.609 -0.3832  1.1790 -0.5132
   66SOL    HW2  198   0.594   1.627   1.751 -1.6822 -1.6736  0.2238
   67SOL     OW  199   2.315   2.869   2.123  0.1763 -0.2031 -0.0984
   67SOL    HW1  200   2.402   2.811   2.114  0.9489 -1.2877  1.2455
   67SOL    HW2  201   2.331   2.972   2.120 -1.1389  0.6881  0.3233
   68SOL     OW  202   0.741   0.954   1.554 -0.0286 -0.3888 -0.0656
   68SOL    HW1  203   0.806   1.013   1.507  2.4607 -2.0156  0.5675
   68SOL    HW2  204   0.679   0.910   1.485 -1.5678  0.6312 -0.4355
   69SOL     OW  205   2.280   2.479   0.117 -0.3709 -0.4051  0.0375
   69SOL    HW1  206   2.257   2.560   0.174  1.1998  0.5555 -0.8358
   69SOL    HW2  207   2.382   2.462   0.125  0.4529  0.4289 -0.5586
   70SOL     OW  208   2.419   0.652   2.833 -0.5351 -0.0134  0.0783
   70SOL    HW1  209   2.481   0.649   2.752  0.0075 -0.4805 -0.1898
   70SOL    HW2  210   2.443   0.570   2.887  0.9132 -0.6532 -1.3337
   71SOL     OW  211   2.894   2.177   0.300 -0.1417  0.7003  0.0303
   71SOL    HW1  212   2.811   2.123   0.327 -2.4217 -0.3290  0.2206
   71SOL    HW2  213   2.893   2.189   0.197  0.8319 -0.9309  2.3591
   72SOL     OW  214   2.910   1.842   0.343 -0.5113 -0.4184  0.4007
   72SOL    HW1  215   2.952   1.933   0.356 -1.2726 -0.4540 -0.0576
   72SOL    HW2  216   2.980   1.771   0.352 -0.7937  4.4742  0.4514
   73SOL     OW  217   0.978   0.766   0.452 -0.3834 -0.6615 -0.2242
   73SOL    HW1  218   0.884   0.744   0.423  0.5408 -0.6291 -0.4354
   73SOL    HW2  219   0.980   0.839   0.523  1.1999  2.6373 -0.3464
   74SOL     OW  220   0.232   1.792   1.977 -0.1065 -0.4902  0.5659
   74SOL    HW1  221   0.221   1.800   2.075 -1.9980 -0.1036 -0.5719
   74SOL    HW2  222   0.306   1.845   1.943 -2.5239 -0.2087  0.8036
   75SOL     OW  223   1.577   1.686   1.389 -0.1688 -0.3391  0.2572
   75SOL    HW1  224   1.642   1.680   1.468 -0.5110 -0.3103  0.0849
   75SOL    HW2  225   1.534   1.595   1.368 -1.4750 -1.0404  0.4206
   76SOL     OW  226   1.680   2.101   1.085 -0.0584 -0.2652 -0.3607
   76SOL    HW1  227   1.585   2.124   1.063  1.9697 -2.1186 -1.1451
   76SOL    HW2  228   1.684   2.019   1.149  1.0232 -0.6101 -1.7135
   77SOL     OW  229   2.449   1.637   1.907  0.4905 -0.0977  0.0106
   77SOL    HW1  230   2.437   1.608   2.004 -1.7857  0.3476 -0.5885
   77SOL    HW2  231   2.383   1.713   1.890 -1.7381  0.6307 -0.2694
   78SOL     OW  232   1.487   0.656   0.592  1.0792 -0.9392 -0.4849
   78SOL    HW1  233   1.415   0.708   0.540 -0.6479  0.4441  0.4721
   78SOL    HW2  234   1.442   0.574   0.636  0.9421 -1.7971  1.6421
   79SOL     OW  235   2.253   1.922   1.668  0.3445  0.0939  0.3746
   79SOL    HW1  236   2.270   1.886   1.573 -1.2370 -1.6908  1.0673
   79SOL    HW2  237   2.245   2.025   1.670 -0.8903  1.8495  0.4469
   80SOL     OW  238   0.967   0.316   1.348  0.5817  0.2103  0.1789
   80SOL    HW1  239   0.951   0.367   1.437 -0.2327 -0.0259  3.3854
   80SOL    HW2  240   1.057   0.332   1.300  0.8292 -1.6066 -0.4338
   81SOL     OW  241   0.426   2.463   0.507 -0.2314 -0.0162 -0.6560
   81SOL    HW1  242   0.498   2.432   0.568  0.2223 -1.1124 -1.3310
   81SOL    HW2  243   0.447   2.551   0.456  0.5714 -1.7913  0.6740
   82SOL     OW  244   1.279   0.261   1.623 -0.5159  0.5684 -0.2272
   82SOL    HW1  245   1.187   0.253   1.660  1.7060 -0.2373  2.2434
   82SOL    HW2  246   1.293   0.192   1.548 -3.7313  0.1997 -0.8821
   83SOL     OW  247   0.646   1.777   0.635 -0.4935 -0.5496 -1.1924
   83SOL    HW1  248   0.728   1.808   0.689 -0.4258  1.8623  1.3364
   83SOL    HW2  249   0.675   1.733   0.548 -1.6071  0.5719 -1.5376
   84SOL     OW  250   2.546   1.227   0.149  0.5530  0.5174 -0.0725
   84SOL    HW1  251   2.504   1.251   0.057  0.9491  1.3001 -2.9084
   84SOL    HW2  252   2.583   1.132   0.140  1.3774 -2.3030  1.1178
   85SOL     OW  253   3.008   2.598   1.481  0.1409 -0.0551 -0.0248
   85SOL    HW1  254   3.025   2.675   1.545  0.6064  0.4211  1.0564
   85SOL    HW2  255   2.978   2.515   1.532  1.0505 -0.0942  1.0706
   86SOL     OW  256   1.682   2.606   1.162 -0.5392  0.0119  0.9313
   86SOL    HW1  257   1.703   2.516   1.209 -0.2931  2.3929 -0.6362
   86SOL    HW2  258   1.631   2.575   1.079 -0.9010 -0.5595  0.4146
   87SOL     OW  259   2.937   1.644   0.659 -0.6702  0.7825 -0.3411
   87SOL    HW1  260   2.894   1.596   0.579 -1.3982 -2.9485 -0.2017
   87SOL    HW2  261   2.959   1.741   0.642  1.8660 -0.8930  2.6989
   88SOL     OW  262   1.024   0.639   1.211 -0.2269  0.2645 -0.3280
   88SOL    HW1  263   1.013   0.710   1.285 -0.4297  3.2978  0.0365
   88SOL    HW2  264   0.935   0.607   1.171  2.4145 -0.9414 -0.0575
   89SOL     OW  265   0.662   2.716   1.952  0.2619 -0.1924  0.4831
   89SOL    HW1  266   0.703   2.741   1.860  1.7657  0.1723  3.6988
   89SOL    HW2  267   0.567   2.688   1.937  0.9986  0.0169  0.0690
   90SOL     OW  268   0.009   1.869   1.310 -0.0204  0.3000 -0.2916
   90SOL    HW1  269   0.086   1.838   1.255  1.7754  3.4599  1.2781
   90SOL    HW2  270   2.998   1.887   1.252  1.9264  0.2627  0.6420
   91SOL     OW  271   1.130   1.885   0.943  0.2073  0.2048 -0.3381
   91SOL    HW1  272   1.205   1.928   0.895 -4.6209 -2.5567 -1.1867
   91SOL    HW2  273   1.137   1.783   0.927  0.6194  1.6597  0.7556
   92SOL     OW  274   2.873   2.770   1.732 -0.2482 -0.2161 -0.2078
   92SOL    HW1  275   2.977   2.777   1.713  1.1245 -0.8897  1.1199
   92SOL    HW2  276   2.849   2.823   1.808 -1.2224 -0.8303 -0.2758
   93SOL     OW  277   2.934   1.209   3.027 -0.0467 -0.4611  0.6388
   93SOL    HW1  278   3.010   1.235   2.958  1.6553  3.1357  0.5372
   93SOL    HW2  279   2.930   1.109   3.039  1.5750  2.1244  2.4448
   94SOL     OW  280   2.459   2.941   1.853  0.5453  0.0451 -0.2794
   94SOL    HW1  281   2.398   3.024   1.855  2.2992 -0.7315  0.8133
   94SOL    HW2  282   2.548   2.954   1.903  0.1662  0.4795  2.1011
   95SOL     OW  283   1.343   0.626   1.773  0.4586 -0.1439 -0.1480
   95SOL    HW1  284   1.243   0.620   1.765  0.6930 -0.1078  0.6017
   95SOL    HW2  285   1.388   0.541   1.737  0.0765  0.9000  2.2991
   96SOL     OW  286   2.338   0.616   1.813 -0.4134 -0.0531 -0.6405
   96SOL    HW1  287   2.404   0.684   1.847 -0.4885  0.2630 -1.7272
   96SOL    HW2  288   2.364   0.592   1.714 -2.4242 -2.3658  0.9234
   97SOL     OW  289   2.545   2.969   1.454  0.6835 -0.0626  0.1535
   97SOL    HW1  290   2.615   2.898   1.474 -0.8429 -0.1164 -0.2602
   97SOL    HW2  291   2.462   2.949   1.511 -0.8928  0.6581  3.3997
   98SOL     OW  292   2.027   2.764   1.355 -0.0341 -0.3867  0.0009
   98SOL    HW1  293   2.082   2.711   1.426 -1.0615 -2.3985  0.2347
   98SOL    HW2  294   1.930   2.762   1.383  1.0627  2.6515 -0.3486
   99SOL     OW  295   2.654   0.235   1.756 -0.1394 -0.0971  0.0039
   99SOL    HW1  296   2.676   0.336   1.755 -2.5695  0.6420  1.3767
   99SOL    HW2  297   2.646   0.194   1.660  0.5644 -2.1815 -2.2917
  100SOL     OW  298   2.014   1.442   1.917 -0.2191 -0.2596 -0.0334
  100SOL    HW1  299   1.971   1.488   1.994 -0.0748  1.7063  0.1911
  100SOL    HW2  300   2.009   1.344   1.918 -0.0512  1.9072 -3.3919
  101SOL     OW  301   2.007   0.088   0.377  0.0604 -0.1602 -0.3132
  101SOL    HW1  302   2.053   0.155   0.441  2.6909  0.3987  4.5919
  101SOL    HW2  303   1.910   0.087   0.386  1.8872 -0.1732  2.2369
  102SOL     OW  304   0.468   0.581   1.349 -0.1573 -0.6157  0.3087
  102SOL    HW1  305   0.388   0.576   1.409  2.9426 -0.6677  0.2898
  102SOL    HW2  306   0.530   0.508   1.373 -1.7892  2.6311 -0.5555
  103SOL     OW  307   2.475   0.041   2.570  0.0881  0.1736 -0.5502
  103SOL    HW1  308   2.560   0.065   2.622 -1.7269 -1.0465 -2.2958
  103SOL    HW2  309   2.387   0.038   2.625  0.4703  1.2967  0.8268
  104SOL     OW  310   0.044   2.803   1.663 -0.2214 -0.4525 -0.5808
  104SOL    HW1  311   0.128   2.752   1.691  0.1776 -1.1141  0.0371
  104SOL    HW2  312   0.052   2.840   1.570 -1.6443 -2.3571  1.2140
  105SOL     OW  313   1.368   0.680   2.040 -0.4385 -0.5784 -0.2886
  105SOL    HW1  314   1.414   0.766   2.062 -0.4207  0.3382  0.9677
  105SOL    HW2  315   1.353   0.657   1.944 -0.4442  3.0760  0.8544
  106SOL     OW  316   1.597   0.234   0.817 -0.0203 -0.2371 -0.2719
  106SOL    HW1  317   1.660   0.240   0.898 -1.2692  0.9033 -0.1462
  106SOL    HW2  318   1.645   0.206   0.731 -0.1964 -0.9274 -1.1172
  107SOL     OW  319   0.561   1.158   1.210  0.3324  0.8376  0.6602
  107SOL    HW1  320   0.505   1.124   1.289 -1.3412  0.1141  4.0903
  107SOL    HW2  321   0.598   1.083   1.150  1.1206  0.1820 -1.6014
  108SOL     OW  322   2.846   0.372   2.326  0.4107  0.2343  0.6192
  108SOL    HW1  323   2.893   0.326   2.250 -0.0329 -1.5067 -0.0945
  108SOL    HW2  324   2.894   0.349   2.413  0.9484 -0.2390 -2.6030
  109SOL     OW  325   2.027   0.127   0.091 -0.3722  0.4795  0.7304
  109SOL    HW1  326   2.047   0.104   0.186  1.2739  1.9999  0.6178
  109SOL    HW2  327   1.960   0.067   0.046 -1.0626 -0.7158  2.7631
  110SOL     OW  328   3.017   1.824   2.895 -0.2976 -0.3768  0.5417
  110SOL    HW1  329   3.062   1.907   2.935 -1.7559  1.5416 -1.2126
  110SOL    HW2  330   3.036   1.751   2.964  2.7576  0.4709 -0.1626
  111SOL     OW  331   2.269   0.124   2.369  0.7648 -0.2457  0.6065
  111SOL    HW1  332   2.293   0.098   2.274 -0.7922  1.8634  1.3064
  111SOL    HW2  333   2.331   0.079   2.435 -3.5960 -0.8850 -0.2495
  112SOL     OW  334   2.556   2.773   1.234 -0.0109  0.6153  0.4202
  112SOL    HW1  335   2.500   2.819   1.162 -1.4675  0.6016 -0.1959
  112SOL    HW2  336   2.545   2.827   1.315 -1.0521  0.7175 -1.9486
  113SOL     OW  337   2.503   2.248   2.016  0.3870  0.4996  0.4838
  113SOL    HW1  338   2.523   2.260   1.917 -0.2920 -0.1054  1.5880
  113SOL    HW2  339   2.423   2.308   2.037  1.8466 -0.2486 -1.0670
  114SOL     OW  340   2.634   0.048   0.529 -0.1453 -0.0956  0.3354
  114SOL    HW1  341   2.622   3.044   0.593 -1.3360  0.4563 -3.0871
  114SOL    HW2  342   2.698   0.126   0.557  3.0332  0.5854 -1.5841
  115SOL     OW  343   2.683   1.794   0.203  0.6354  0.1326  0.4148
  115SOL    HW1  344   2.775   1.810   0.242  1.7077  0.8175 -1.6602
  115SOL    HW2  345   2.656   1.692   0.197  0.1638  0.6880 -0.9677
  116SOL     OW  346   0.155   1.524   1.866  0.2509  0.7651  0.3399
  116SOL    HW1  347   0.180   1.614   1.913  1.0865  1.0789  1.3160
  116SOL    HW2  348   0.058   1.530   1.838 -0.6412 -2.1584 -1.7761
  117SOL     OW  349   2.371   2.859   1.063  0.0760  0.0789  0.4650
  117SOL    HW1  350   2.312   2.790   1.013 -1.0710 -2.0861  0.2563
  117SOL    HW2  351   2.326   2.876   1.151  0.1767  0.9276  2.2964
  118SOL     OW  352   0.352   2.090   1.680 -0.1372 -0.1515  0.2565
  118SOL    HW1  353   0.297   2.009   1.647 -1.4141  1.1329 -1.7724
  118SOL    HW2  354   0.402   2.143   1.607 -0.2658  3.2370  1.7760
  119SOL     OW  355   1.043   2.358   1.434 -0.4108 -0.3674  0.1913
  119SOL    HW1  356   0.979   2.329   1.511  1.3932  0.0201 -0.4905
  119SOL    HW2  357   0.990   2.363   1.345  1.1555 -0.0577  1.6904
  120SOL     OW  358   0.307   1.892   1.360 -0.4823 -0.2949 -0.1554
  120SOL    HW1  359   0.226   1.877   1.414 -2.9607  0.5697 -0.3267
  120SOL    HW2  360   0.392   1.876   1.411 -1.8490  4.7990 -3.2281
  121SOL     OW  361   2.412   1.413   1.022 -0.0491  0.7005 -0.1755
  121SOL    HW1  362   2.402   1.393   1.122 -2.0593  0.3454  2.7453
  121SOL    HW2  363   2.325   1.455   0.991 -0.7296 -3.8846 -0.2653
  122SOL     OW  364   2.180   1.726   2.697  0.4440 -0.3687 -0.1379
  122SOL    HW1  365   2.101   1.724   2.767 -1.4356 -2.3596  1.3713
  122SOL    HW2  366   2.157   1.788   2.622 -0.0325 -3.1891  1.4006
  123SOL     OW  367   2.673   2.741   0.527 -0.0503  0.7446  0.9496
  123SOL    HW1  368   2.719   2.652   0.563 -0.2272  0.2649  0.8835
  123SOL    HW2  369   2.625   2.790   0.601  1.1203  0.4122 -3.5005
  124SOL     OW  370   1.183   1.293   2.989 -0.6034  0.1867 -0.1874
  124SOL    HW1  371   1.109   1.357   2.988  1.4302  0.1398  0.1633
  124SOL    HW2  372   1.154   1.199   2.959  2.1571  0.9404 -1.9827
  125SOL     OW  373   0.172   1.477   2.851 -0.0832  0.1395 -0.0220
  125SOL    HW1  374   0.202   1.521   2.763 -1.7927  0.4527  1.0633
  125SOL    HW2  375   0.235   1.399   2.863 -0.1761  0.3518  0.5129
  126SOL     OW  376   0.049   2.325   0.306 -0.3589  0.4852  0.0992
  126SOL    HW1  377   0.127   2.262   0.303 -0.4753  2.8488 -0.0936
  126SOL    HW2  378   3.036   2.272   0.320 -0.1679 -1.8561 -0.1231
  127SOL     OW  379   0.194   1.667   0.719 -0.4073  0.1644  0.1156
  127SOL    HW1  380   0.122   1.600   0.750  0.7344 -0.9016 -1.7722
  127SOL    HW2  381   0.207   1.677   0.618 -1.6260  0.0872  0.7290
  128SOL     OW  382   1.155   1.224   0.389 -0.5463  0.1200 -0.3397
  128SOL    HW1  383   1.146   1.257   0.486 -0.6372 -0.5251 -1.1869
  128SOL    HW2  384   1.214   1.138   0.375 -2.7895 -1.0611 -0.9100
  129SOL     OW  385   2.125   1.930   1.237  0.2880 -0.4542 -0.3190
  129SOL    HW1  386   2.080   2.009   1.286 -3.6736 -0.2031  3.0098
  129SOL    HW2  387   2.201   1.888   1.289  2.0976  0.6978 -2.4138
  130SOL     OW  388   1.798   1.034   0.480  0.1609  0.1470  0.0389
  130SOL    HW1  389   1.746   1.048   0.568  1.9221 -1.6311  1.6583
  130SOL    HW2  390   1.755   0.958   0.432 -1.1658  0.8779 -0.7101
  131SOL     OW  391   2.764   1.170   2.618  0.3750 -0.0536  0.1809
  131SOL    HW1  392   2.773   1.103   2.687 -0.7324  1.3697 -3.4695
  131SOL    HW2  393   2.704   1.245   2.642  1.6827  1.5185  1.9118
  132SOL     OW  394   1.734   1.673   1.996  0.3708  0.7254  0.1331
  132SOL    HW1  395   1.689   1.692   1.908 -0.8016 -2.0369  0.2333
  132SOL    HW2  396   1.797   1.747   2.025  1.8420  1.3596 -0.4878
  133SOL     OW  397   0.090   1.306   0.138  0.1679 -0.4029  0.1877
  133SOL    HW1  398   0.021   1.242   0.092 -2.2833 -2.7928  0.3065
  133SOL    HW2  399   0.061   1.332   0.230  0.6005 -2.1014 -1.2575
  134SOL     OW  400   2.750   0.928   0.551  0.2435 -0.6194  0.4047
  134SOL    HW1  401   2.671   0.989   0.535  0.0367 -1.7804  1.4516
  134SOL    HW2  402   2.821   0.939   0.480 -1.9208  1.9140 -1.8036
  135SOL     OW  403   2.343   0.760   0.069  0.2584 -0.3068 -0.2882
  135SOL    HW1  404   2.241   0.754   0.058 -1.1570  0.9408 -1.1438
  135SOL    HW2  405   2.370   0.854   0.051  2.3537 -1.8171 -1.7171
  136SOL     OW  406   1.905   1.892   1.635  0.1040  0.2099 -0.2865
  136SOL    HW1  407   1.870   1.905   1.728  0.2846 -0.2985 -1.5510
  136SOL    HW2  408   2.001   1.863   1.639 -2.0834  0.1106 -0.1328
  137SOL     OW  409   2.345   2.587   0.544 -0.0546 -0.4187 -0.3554
  137SOL    HW1  410   2.422   2.558   0.485 -1.8520 -0.1891  0.0441
  137SOL    HW2  411   2.321   2.514   0.612 -0.9923  0.7774  1.0736
  138SOL     OW  412   2.143   0.326   1.476  0.2060  0.5359 -0.2386
  138SOL    HW1  413   2.045   0.301   1.487 -0.8731 -2.2137 -0.2186
  138SOL    HW2  414   2.171   0.392   1.546  0.9757 -1.8201 -1.7083
  139SOL     OW  415   2.693   0.044   2.742 -0.5617 -0.1957  0.1592
  139SOL    HW1  416   2.651   3.057   2.807  0.5672  1.9366 -1.5766
  139SOL    HW2  417   2.728   0.134   2.776 -0.3512 -1.3046  1.9504
  140SOL     OW  418   1.375   1.293   2.551 -0.1470  0.5637 -0.5711
  140SOL    HW1  419   1.466   1.309   2.501 -2.1657 -0.5070 -1.7811
  140SOL    HW2  420   1.303   1.356   2.513 -0.8340 -0.9416  0.6080
  141SOL     OW  421   0.662   0.807   2.360  0.2280  0.1168  0.0030
  141SOL    HW1  422   0.595   0.750   2.407 -0.7767  2.3138  0.2325
  141SOL    HW2  423   0.624   0.843   2.273 -1.4538 -1.0415  2.5300
  142SOL     OW  424   2.479   2.693   2.834 -0.8776  0.1660  0.0072
  142SOL    HW1  425   2.513   2.775   2.888  0.1069  1.9595 -0.0330
  142SOL    HW2  426   2.414   2.728   2.770  1.0551 -0.0794  0.6044
  143SOL     OW  427   0.937   2.092   0.512  0.6770  0.2695  0.0149
  143SOL    HW1  428   0.864   2.106   0.586 -0.0541 -0.8791 -1.6552
  143SOL    HW2  429   0.988   2.001   0.519  0.0538 -1.9392  0.3379
  144SOL     OW  430   1.048   2.613   0.318 -0.2407 -0.1608 -0.0209
  144SOL    HW1  431   1.002   2.554   0.249  2.1921  1.5008  1.1476
  144SOL    HW2  432   1.042   2.711   0.287 -0.5995  1.4812 -0.3232
  145SOL     OW  433   1.625   2.011   2.479 -0.4233 -0.1244 -0.3041
  145SOL    HW1  434   1.695   1.989   2.550  1.6662 -1.0106  3.4005
  145SOL    HW2  435   1.621   1.938   2.409  1.6730 -0.3480 -2.2713
  146SOL     OW  436   2.817   2.686   2.897  0.0475  0.4512 -0.3051
  146SOL    HW1  437   2.751   2.718   2.971 -0.5702  3.8816  1.6780
  146SOL    HW2  438   2.768   2.681   2.808  0.5359 -2.0346 -2.3532
  147SOL     OW  439   3.062   1.409   1.205  0.6943  0.3507 -0.0330
  147SOL    HW1  440   0.030   1.466   1.277  1.5346  0.6373 -0.3347
  147SOL    HW2  441   2.967   1.447   1.180 -2.2971  1.0565  0.0200
  148SOL     OW  442   1.821   2.814   0.214 -0.3661 -0.1128 -0.4260
  148SOL    HW1  443   1.740   2.833   0.272  0.8252 -0.5051  1.0161
  148SOL    HW2  444   1.805   2.836   0.116 -0.5859 -3.8050  1.9489
  149SOL     OW  445   0.628   1.886   2.731 -0.1947 -0.5447 -0.2463
  149SOL    HW1  446   0.541   1.839   2.750  2.4309 -2.2450  0.0841
  149SOL    HW2  447   0.657   1.954   2.801  2.3948  2.6154 -0.3173
  150SOL     OW  448   0.276   2.202   0.352  0.0429  0.0652 -0.1408
  150SOL    HW1  449   0.326   2.143   0.285  0.4176 -0.9975 -0.7544
  150SOL    HW2  450   0.349   2.244   0.410  2.4563 -1.6804  3.1028
  151SOL     OW  451   0.409   1.311   0.294 -0.3171 -0.1914 -0.1877
  151SOL    HW1  452   0.374   1.216   0.300  1.5771  0.0143  1.2756
  151SOL    HW2  453   0.393   1.346   0.201 -0.7249  1.3961  2.1157
  152SOL     OW  454   2.632   1.824   0.525 -0.4215 -0.1800 -0.4425
  152SOL    HW1  455   2.548   1.808   0.469 -3.5605  0.8203  0.2757
  152SOL    HW2  456   2.688   1.897   0.483  1.5905  0.9728 -2.3803
  153SOL     OW  457   2.061   2.304   0.509 -0.1504 -0.4421 -0.3983
  153SOL    HW1  458   1.995   2.330   0.436  0.0042 -1.7382  0.4721
  153SOL    HW2  459   2.044   2.372   0.582  0.0316  0.7894 -2.7090
  154SOL     OW  460   0.816   2.681   0.842 -0.1025 -0.0918 -0.3197
  154SOL    HW1  461   0.768   2.736   0.779 -0.9069 -0.0250  0.3659
  154SOL    HW2  462   0.771   2.677   0.931  0.4097  0.0928 -1.0706
  155SOL     OW  463   2.920   1.685   0.933 -0.4676 -0.3673  0.0277
  155SOL    HW1  464   2.936   1.645   0.837  0.7105 -2.4575 -2.0699
  155SOL    HW2  465   3.006   1.690   0.984 -1.5613  1.3285  1.0154
  156SOL     OW  466   2.537   2.403   0.047 -0.3122  0.3683  0.1147
  156SOL    HW1  467   2.535   2.304   0.050 -0.1931 -0.7993  0.1373
  156SOL    HW2  468   2.625   2.427   0.092 -0.3751 -0.4289  3.0557
  157SOL     OW  469   0.539   1.898   1.511  0.0138 -0.1797  0.4072
  157SOL    HW1  470   0.601   1.952   1.563  0.9190  2.1845 -0.7924
  157SOL    HW2  471   0.580   1.865   1.420 -0.7831 -1.7332  0.5014
  158SOL     OW  472   1.754   0.853   0.223  0.2008  0.4609 -0.2528
  158SOL    HW1  473   1.696   0.771   0.194  0.6505 -0.0976  0.0926
  158SOL    HW2  474   1.841   0.818   0.262 -2.0854 -3.7687  2.9355
  159SOL     OW  475   1.087   0.947   0.143  0.1525  0.3076  0.3463
  159SOL    HW1  476   0.995   0.958   0.180  3.5647 -0.4732 -1.9822
  159SOL    HW2  477   1.114   0.851   0.130 -1.0924 -0.9265  1.3209
  160SOL     OW  478   0.811   1.303   0.548  0.3796  0.3750 -0.7087
  160SOL    HW1  479   0.757   1.369   0.608 -0.0868  4.4644  0.8781
  160SOL    HW2  480   0.913   1.317   0.565  4.0113 -0.9103  2.3585
  161SOL     OW  481   0.200   2.052   2.679  0.0067  0.1373  0.6693
  161SOL    HW1  482   0.100   2.065   2.672  0.5873 -0.3759  0.8086
  161SOL    HW2  483   0.227   1.992   2.755  0.7297  0.2800  1.3089
  162SOL     OW  484   3.057   2.369   0.980  0.0164  0.8118  0.2350
  162SOL    HW1  485   3.056   2.282   1.031 -0.5460  3.1869 -2.5415
  162SOL    HW2  486   0.039   2.362   0.897 -1.0952  5.5765 -0.0913
  163SOL     OW  487   2.826   0.526   2.693 -0.3391  0.8876  0.5324
  163SOL    HW1  488   2.802   0.625   2.698 -3.3004 -1.9625  0.1512
  163SOL    HW2  489   2.926   0.512   2.689 -0.7033 -2.6309 -2.3452
  164SOL     OW  490   0.467   0.106   2.743  0.4175  0.6089  0.1507
  164SOL    HW1  491   0.413   0.035   2.796  1.3891  1.6919  0.9330
  164SOL    HW2  492   0.470   0.080   2.644 -2.3753  0.3500  1.8379
  165SOL     OW  493   2.118   0.494   1.758  0.6449  0.0396  0.5064
  165SOL    HW1  494   2.046   0.517   1.820  1.3543  0.4183  0.3771
  165SOL    HW2  495   2.200   0.538   1.797 -2.2013 -1.0340  0.5681
  166SOL     OW  496   1.960   2.495   1.726 -0.0562  0.3733  0.3034
  166SOL    HW1  497   1.965   2.399   1.767  2.3352 -3.4770  4.1833
  166SOL    HW2  498   1.956   2.560   1.800 -1.9451 -3.8181 -1.7200
  167SOL     OW  499   1.152   0.920   2.224  0.0631 -0.3352 -0.5188
  167SOL    HW1  500   1.114   0.969   2.305 -0.1437  1.3230 -2.0589
  167SOL    HW2  501   1.157   0.818   2.244  0.8805 -1.6465 -1.1509
  168SOL     OW  502   2.320   0.084   2.125 -0.3396 -0.0351 -0.2335
  168SOL    HW1  503   2.285   0.090   2.029  1.5652  1.1745  0.1891
  168SOL    HW2  504   2.420   0.105   2.122  1.2145  1.8903  1.1371
  169SOL     OW  505   0.338   1.065   0.309 -0.3607 -0.3763  0.1167
  169SOL    HW1  506   0.269   1.063   0.385 -1.6591 -0.7115  1.4003
  169SOL    HW2  507   0.298   1.063   0.216 -1.5275 -0.9946 -0.9074
  170SOL     OW  508   2.978   1.542   1.736  0.2007 -0.2004 -0.4732
  170SOL    HW1  509   2.975   1.585   1.648 -2.2950 -1.2999  1.7373
  170SOL    HW2  510   2.922   1.589   1.810 -1.3111 -0.1123  3.6627
  171SOL     OW  511   1.190   2.368   2.093  0.2171 -0.3422  0.3336
  171SOL    HW1  512   1.161   2.292   2.040 -0.3335  2.2875 -1.4884
  171SOL    HW2  513   1.153   2.361   2.187 -0.0615  1.3293 -0.9756
  172SOL     OW  514   0.920   2.342   1.998  0.5452 -0.1939  0.0746
  172SOL    HW1  515   0.851   2.373   1.927  1.9324  3.3652 -0.4389
  172SOL    HW2  516   0.976   2.420   2.025  0.2127  1.4336 -2.4195
  173SOL     OW  517   1.305   2.546   0.996 -0.1175 -0.1336  0.4485
  173SOL    HW1  518   1.407   2.554   0.978  1.6825  2.6201 -1.1184
  173SOL    HW2  519   1.244   2.600   0.938  0.3878  1.3692 -1.0469
  174SOL     OW  520   2.141   0.317   0.525 -0.5637  0.0562 -0.2113
  174SOL    HW1  521   2.171   0.252   0.597 -2.1304  1.9373  0.9732
  174SOL    HW2  522   2.127   0.413   0.561  1.5721  2.1260 -0.2509
  175SOL     OW  523   1.137   1.654   0.373 -0.4406 -0.5342  0.8170
  175SOL    HW1  524   1.213   1.586   0.360  2.5195  0.5717  0.5286
  175SOL    HW2  525   1.063   1.625   0.429  3.0236  1.9976  0.3212
  176SOL     OW  526   0.781   1.515   0.756  0.1630 -0.4412  0.1857
  176SOL    HW1  527   0.837   1.454   0.811  1.3649  2.5736  0.3113
  176SOL    HW2  528   0.707   1.551   0.818 -1.5520  0.0992  2.2455
  177SOL     OW  529   1.298   1.027   1.312  0.2068  0.2624 -0.2352
  177SOL    HW1  530   1.294   1.043   1.211 -0.9987  1.0813 -2.1916
  177SOL    HW2  531   1.393   1.004   1.347  0.1304  0.2297  0.3371
  178SOL     OW  532   2.467   1.468   0.388 -0.5630 -0.3172  0.4059
  178SOL    HW1  533   2.525   1.455   0.467 -0.0684  1.7316 -0.5348
  178SOL    HW2  534   2.398   1.398   0.378  0.8238  0.5116  1.2371
  179SOL     OW  535   0.870   2.350   2.980 -0.2210 -0.0030  0.0988
  179SOL    HW1  536   0.881   2.427   3.048 -0.5784  1.4774  1.6404
  179SOL    HW2  537   0.791   2.285   3.005 -0.9502  0.6705 -2.3585
  180SOL     OW  538   1.906   1.502   1.688  0.1004  0.0943  0.2386
  180SOL    HW1  539   1.953   1.471   1.774 -0.5225  1.5440 -0.3564
  180SOL    HW2  540   1.965   1.521   1.610 -1.4365  0.9735 -2.5154
  181SOL     OW  541   0.797   1.112   2.358  0.3172 -0.4281  0.1176
  181SOL    HW1  542   0.810   1.089   2.258  3.4840  2.8505 -1.3318
  181SOL    HW2  543   0.864   1.065   2.415 -3.0399  0.2033  2.6254
  182SOL     OW  544   2.858   0.878   2.195 -0.0076  0.3280  0.0819
  182SOL    HW1  545   2.819   0.958   2.247  1.1117 -1.0675 -0.9439
  182SOL    HW2  546   2.857   0.789   2.241 -1.0604  1.2474 -1.4436
  183SOL     OW  547   1.557   0.496   2.203  0.1053  0.1742  0.0576
  183SOL    HW1  548   1.581   0.472   2.110 -1.7466  0.0146  1.9291
  183SOL    HW2  549   1.470   0.545   2.197 -1.9974 -1.6469  0.0184
  184SOL     OW  550   0.440   0.669   1.760 -0.1206 -0.3651  0.1190
  184SOL    HW1  551   0.407   0.646   1.855  0.7699  3.6052  1.5097
  184SOL    HW2  552   0.451   0.769   1.753 -0.3206 -1.7754  0.0987
  185SOL     OW  553   2.325   1.917   0.615 -0.1136  0.2333  0.2292
  185SOL    HW1  554   2.341   1.867   0.530  1.6208 -0.6932  1.6181
  185SOL    HW2  555   2.324   1.848   0.691  3.2856  0.3489 -0.5837
  186SOL     OW  556   0.497   1.895   3.052  0.3633 -0.1072  0.6344
  186SOL    HW1  557   0.596   1.908   3.055 -1.3373  1.9907  1.9668
  186SOL    HW2  558   0.469   1.813   0.023  1.3819  3.1290 -1.4027
  187SOL     OW  559   2.338   1.860   2.997 -0.1899  0.0718 -0.2406
  187SOL    HW1  560   2.319   1.786   2.931 -0.7973  0.7187  0.3110
  187SOL    HW2  561   2.436   1.865   3.021  0.8254 -1.5203  0.6964
  188SOL     OW  562   1.059   2.574   0.820  0.0481 -0.6434  0.4693
  188SOL    HW1  563   1.114   2.662   0.798  1.5253 -0.4884  0.7278
  188SOL    HW2  564   0.963   2.594   0.845  1.2984 -1.7961  3.6266
  189SOL     OW  565   1.869   1.002   2.722 -0.1031 -0.9372  0.0734
  189SOL    HW1  566   1.777   1.023   2.683 -0.4911  0.6359 -1.8091
  189SOL    HW2  567   1.938   1.063   2.675  2.1201 -0.4649  1.0499
  190SOL     OW  568   0.943   2.008   2.323 -0.4932  0.0522  0.1179
  190SOL    HW1  569   0.948   1.907   2.328 -0.4653  0.1633 -0.0088
  190SOL    HW2  570   0.873   2.043   2.389 -0.9291 -1.7978 -0.8054
  191SOL     OW  571   2.302   0.722   1.397 -0.0590  0.2073 -0.1015
  191SOL    HW1  572   2.213   0.733   1.446  0.4409  0.5642  2.1666
  191SOL    HW2  573   2.359   0.656   1.448 -0.6776  1.6902  0.4744
  192SOL     OW  574   2.320   0.378   2.264 -0.3214 -0.1085 -0.4950
  192SOL    HW1  575   2.311   0.434   2.352  0.1432  2.2863  1.5080
  192SOL    HW2  576   2.282   0.285   2.277  4.4133 -2.8884 -1.9597
  193SOL     OW  577   0.827   0.427   0.717 -1.0635 -0.0284 -0.6026
  193SOL    HW1  578   0.808   0.343   0.661  2.2117 -2.1457 -1.2570
  193SOL    HW2  579   0.883   0.407   0.802  0.2365  1.6801  3.1013
  194SOL     OW  580   1.267   2.428   1.739 -0.3106 -0.5019 -0.6189
  194SOL    HW1  581   1.235   2.330   1.749  1.3052 -0.6436 -2.7548
  194SOL    HW2  582   1.201   2.489   1.693  0.0292 -0.8459 -1.1306
  195SOL     OW  583   2.797   0.844   0.807 -0.5571  0.6314  0.1570
  195SOL    HW1  584   2.733   0.892   0.870 -1.4089  0.2909  0.1402
  195SOL    HW2  585   2.786   0.875   0.708 -0.5376  2.2184  1.1153
  196SOL     OW  586   1.265   1.786   1.691  0.2525 -0.1021 -0.0281
  196SOL    HW1  587   1.218   1.858   1.638 -1.0931  0.0401  0.4228
  196SOL    HW2  588   1.210   1.772   1.773  0.1492 -1.8109  0.8451
  197SOL     OW  589   0.315   0.887   2.293 -0.0962  0.0480  0.0298
  197SOL    HW1  590   0.393   0.892   2.228  1.0560 -0.3725  0.0543
  197SOL    HW2  591   0.260   0.810   2.268  3.7285  0.9978  1.3354
  198SOL     OW  592   1.568   1.059   0.265 -0.3370  0.3013  0.0449
  198SOL    HW1  593   1.642   0.995   0.246 -1.4954 -0.3829  2.1345
  198SOL    HW2  594   1.605   1.136   0.320 -0.1387 -0.8575 -0.2569
  199SOL     OW  595   2.631   0.557   2.008  0.2685  0.2273 -0.0599
  199SOL    HW1  596   2.592   0.476   2.053 -0.3296  1.9105  0.4409
  199SOL    HW2  597   2.568   0.635   2.024  2.7541 -2.6323 -0.4580
  200SOL     OW  598   2.248   2.589   2.493  0.2674  0.4055  0.1223
  200SOL    HW1  599   2.315   2.556   2.422 -0.4745 -0.6419  0.4141
  200SOL    HW2  600   2.230   2.512   2.560  0.4248 -2.2267  0.3194
  201SOL     OW  601   2.232   0.083   1.374 -0.1650  0.3223 -0.4694
  201SOL    HW1  602   2.203   0.180   1.391  0.3716  1.8408 -0.3574
  201SOL    HW2  603   2.246   0.031   1.462 -0.8711 -0.5780  0.9369
  202SOL     OW  604   2.307   2.988   0.005  0.5786  0.1092  0.3612
  202SOL    HW1  605   2.299   3.018   0.104 -1.6389  1.3043  3.0203
  202SOL    HW2  606   2.235   2.923   3.054  2.6067 -0.9639  0.9133
  203SOL     OW  607   0.750   2.053   2.510 -0.0367  0.3882 -0.3114
  203SOL    HW1  608   0.703   1.983   2.572 -1.0496 -2.1185  1.7239
  203SOL    HW2  609   0.801   2.126   2.560  0.4072  0.6969 -1.2880
  204SOL     OW  610   0.774   1.450   2.667  0.3840  0.4002  0.5131
  204SOL    HW1  611   0.707   1.464   2.737  1.4851  0.6710 -1.0198
  204SOL    HW2  612   0.842   1.379   2.681 -4.9979  1.1918  0.0769
  205SOL     OW  613   0.933   1.029   1.071  0.5882 -0.0762  0.5553
  205SOL    HW1  614   0.990   0.961   1.116  0.2672  2.0488 -0.1145
  205SOL    HW2  615   0.988   1.085   1.005  0.9475  2.8585 -1.2898
  206SOL     OW  616   0.008   0.730   2.508  0.5658 -0.5577  0.1338
  206SOL    HW1  617   0.051   0.820   2.534 -2.0957 -0.7406  1.2669
  206SOL    HW2  618   0.050   0.700   2.420 -0.3309  1.2600 -0.5360
  207SOL     OW  619   1.794   2.376   2.053  0.4113  0.2738  0.1555
  207SOL    HW1  620   1.754   2.471   2.059 -0.0155 -0.0436 -2.2886
  207SOL    HW2  621   1.778   2.330   1.964  0.1699 -0.5775 -2.1645
  208SOL     OW  622   0.947   2.775   1.260  0.5993 -0.2439  0.1488
  208SOL    HW1  623   0.886   2.703   1.215  2.4391 -0.0846 -0.0132
  208SOL    HW2  624   1.030   2.781   1.204  0.5738  0.2270 -1.3890
  209SOL     OW  625   1.335   1.548   2.975 -0.1015  0.8262  0.0051
  209SOL    HW1  626   1.310   1.456   2.936 -0.2054  2.7834  0.1209
  209SOL    HW2  627   1.262   1.622   2.960 -0.4160 -0.0477  0.3407
  210SOL     OW  628   2.403   0.842   0.866  0.4830 -1.0197 -0.0767
  210SOL    HW1  629   2.490   0.872   0.910 -0.0450  1.5103  1.7276
  210SOL    HW2  630   2.393   0.867   0.767  0.6537 -0.0419 -0.1592
  211SOL     OW  631   1.235   2.777   0.435 -0.6165  0.1777 -0.1895
  211SOL    HW1  632   1.315   2.726   0.472  2.2175  0.9195 -0.1801
  211SOL    HW2  633   1.157   2.715   0.415 -0.9341  1.7589  0.3227
  212SOL     OW  634   2.189   2.145   0.692 -0.5914  0.0346  0.7416
  212SOL    HW1  635   2.242   2.063   0.649  0.4657 -0.6460  1.8134
  212SOL    HW2  636   2.135   2.202   0.630  0.7432 -1.1115  2.8952
  213SOL     OW  637   1.750   0.622   2.999 -0.6088 -0.2342  1.0588
  213SOL    HW1  638   1.786   0.525   2.988  2.4252 -0.2227  1.6296
  213SOL    HW2  639   1.803   0.697   2.947 -2.0041  0.9921 -1.1787
  214SOL     OW  640   1.116   1.828   1.943 -0.5766 -0.6126 -0.5763
  214SOL    HW1  641   1.019   1.832   1.921  2.5111 -1.1409  0.7548
  214SOL    HW2  642   1.133   1.743   1.996  2.3703 -2.9666 -0.6110
  215SOL     OW  643   0.363   1.463   0.512  0.2053 -0.1609 -0.0506
  215SOL    HW1  644   0.383   1.404   0.431 -0.9445 -0.7903  0.7741
  215SOL    HW2  645   0.351   1.558   0.484 -1.2675  3.2478  1.1249
  216SOL     OW  646   0.042   2.950   2.258 -0.4167  0.1961 -0.2205
  216SOL    HW1  647   0.143   2.972   2.283  2.8449  1.6203 -0.6642
  216SOL    HW2  648   0.032   2.925   2.158 -0.4650  0.5043 -2.5832
  217SOL     OW  649   2.530   0.922   1.347  0.5743  0.2835 -0.4155
  217SOL    HW1  650   2.455   0.861   1.326  1.2762  0.7222  0.6713
  217SOL    HW2  651   2.606   0.901   1.282  0.0557  0.8972  2.5573
  218SOL     OW  652   1.327   1.740   2.274 -0.0889  0.4738 -0.4307
  218SOL    HW1  653   1.375   1.817   2.226  2.5497  0.9609 -0.8087
  218SOL    HW2  654   1.282   1.779   2.359 -0.3738  1.9045  2.4509
  219SOL     OW  655   1.976   1.505   0.112  0.3722  0.2964  0.1785
  219SOL    HW1  656   2.051   1.531   0.178  0.2241  2.7577 -1.8450
  219SOL    HW2  657   1.889   1.559   0.127  1.5002  0.7351 -0.5432
  220SOL     OW  658   2.022   0.766   0.261  0.1380 -0.0982  0.1620
  220SOL    HW1  659   2.111   0.813   0.286 -0.8324 -0.9084 -1.2325
  220SOL    HW2  660   2.020   0.729   0.164 -2.5576 -0.8461 -0.9222
  221SOL     OW  661   0.141   0.305   0.112 -0.4597  0.2268 -0.1540
  221SOL    HW1  662   0.203   0.246   0.054 -0.2349 -0.3845  0.3047
  221SOL    HW2  663   0.171   0.403   0.119  1.3635  0.9075  0.7093
  222SOL     OW  664   1.522   1.935   0.574  0.6756  0.1446 -0.3779
  222SOL    HW1  665   1.562   1.846   0.569 -1.8905  3.8706  2.1081
  222SOL    HW2  666   1.452   1.936   0.647 -0.9641 -2.3034  0.2652
  223SOL     OW  667   0.875   0.061   3.049 -0.2240 -0.1715  0.0719
  223SOL    HW1  668   0.942   0.113   0.033 -0.5664 -2.0654  3.0431
  223SOL    HW2  669   0.916   3.074   2.981  0.9275 -0.4878  0.2454
  224SOL     OW  670   1.711   3.064   1.237  0.1059 -0.3042 -0.2685
  224SOL    HW1  671   1.694   0.028   1.333 -2.4465  0.5339  6.9424
  224SOL    HW2  672   1.805   3.074   1.197  2.2646 -0.8107  1.9093
  225SOL     OW  673   0.543   2.455   1.218  0.2193  0.3792 -0.1669
  225SOL    HW1  674   0.514   2.410   1.134  2.2317  0.2472 -0.2481
  225SOL    HW2  675   0.491   2.542   1.235 -0.8606 -0.2404  0.0061
  226SOL     OW  676   1.079   1.795   0.077  0.3438 -0.0418 -0.3145
  226SOL    HW1  677   1.047   1.741   0.156  0.0216  0.5867  1.1882
  226SOL    HW2  678   1.116   1.887   0.102  0.9192  0.3501 -0.4515
  227SOL     OW  679   0.858   1.662   1.046  0.1194 -0.1563 -0.3394
  227SOL    HW1  680   0.769   1.607   1.051 -1.8487 -0.6145  0.1919
  227SOL    HW2  681   0.888   1.685   1.139  0.9713 -1.9572 -2.0357
  228SOL     OW  682   0.274   1.734   0.469  0.2881 -0.0803 -0.3133
  228SOL    HW1  683   0.175   1.766   0.455 -2.4136 -1.0407 -1.5963
  228SOL    HW2  684   0.335   1.812   0.487 -0.2680 -1.4690  1.6009
  229SOL     OW  685   1.857   0.083   2.691 -0.5005 -0.1772  0.1969
  229SOL    HW1  686   1.935   0.104   2.623  2.1847  2.3409 -0.1235
  229SOL    HW2  687   1.763   0.082   2.646 -0.8139  2.2834 -0.5993
  230SOL     OW  688   2.002   1.070   2.971 -0.9888 -0.0350  0.4276
  230SOL    HW1  689   1.951   1.113   2.898  3.6132 -0.4129  4.2622
  230SOL    HW2  690   1.983   1.117   3.062 -2.8738  0.2813 -0.0435
  231SOL     OW  691   1.144   1.457   2.546 -0.7289  0.6058 -0.1375
  231SOL    HW1  692   1.084   1.406   2.614 -1.3930 -0.2586  0.8066
  231SOL    HW2  693   1.189   1.535   2.591 -0.8680 -1.7202  0.4380
  232SOL     OW  694   2.506   2.469   0.389  0.8184  0.5984  0.1988
  232SOL    HW1  695   2.602   2.453   0.403 -0.1085 -0.2994  0.3586
  232SOL    HW2  696   2.467   2.380   0.353  0.4397 -0.7352 -0.5859
  233SOL     OW  697   0.142   2.433   0.533  0.2817  0.0549 -0.0991
  233SOL    HW1  698   0.239   2.415   0.518 -0.8988  0.1131 -0.6844
  233SOL    HW2  699   0.082   2.397   0.456  3.0447 -0.9441  1.5434
  234SOL     OW  700   0.557   0.783   2.725  0.0139 -0.0610 -0.3581
  234SOL    HW1  701   0.509   0.836   2.651 -0.0801  2.0045  0.2922
  234SOL    HW2  702   0.624   0.840   2.780  4.1085 -0.5079 -1.1366
  235SOL     OW  703   2.576   0.365   2.194  0.7031  0.2107  0.4989
  235SOL    HW1  704   2.479   0.370   2.227 -1.8711  0.6245 -1.2516
  235SOL    HW2  705   2.648   0.378   2.264 -3.2851  0.7462 -1.5528
  236SOL     OW  706   1.704   2.365   1.285  0.0158 -1.1219 -0.2978
  236SOL    HW1  707   1.758   2.414   1.357  2.2486  1.7545 -0.4597
  236SOL    HW2  708   1.760   2.320   1.209 -1.9648 -0.2447 -2.0110
  237SOL     OW  709   0.867   1.732   2.343 -0.0325 -0.1482 -0.1645
  237SOL    HW1  710   0.949   1.675   2.332 -1.5355 -1.9234 -2.5448
  237SOL    HW2  711   0.837   1.726   2.440 -1.0087  1.2579 -1.2665
  238SOL     OW  712   1.086   0.294   2.325  0.0485 -0.2373 -0.2182
  238SOL    HW1  713   1.068   0.209   2.374 -1.0939  1.0716  1.6905
  238SOL    HW2  714   1.168   0.287   2.267  0.7222  2.4276 -0.3394
  239SOL     OW  715   0.446   1.964   1.899  0.3575  0.3769 -0.3422
  239SOL    HW1  716   0.494   2.032   1.957  0.2419 -1.5136 -0.9378
  239SOL    HW2  717   0.420   2.003   1.809  1.2050 -1.7501  0.0307
  240SOL     OW  718   2.534   2.754   0.264  0.1082 -0.4077 -0.0179
  240SOL    HW1  719   2.433   2.764   0.246  2.7556  0.8666  1.4284
  240SOL    HW2  720   2.547   2.736   0.362 -2.8812 -0.6006 -0.0255
  241SOL     OW  721   2.621   0.975   1.025 -0.2309  0.4525  0.5742
  241SOL    HW1  722   2.677   0.952   1.105  0.0665 -0.6065  0.0886
  241SOL    HW2  723   2.610   1.075   1.007  1.0626 -2.9495 -0.6780
  242SOL     OW  724   2.303   2.415   2.079  0.5228  0.1630 -0.1010
  242SOL    HW1  725   2.218   2.377   2.037 -1.6289 -0.0193 -1.3474
  242SOL    HW2  726   2.288   2.504   2.121 -0.5878  2.6189 -0.9073
  243SOL     OW  727   0.767   2.710   1.715 -0.8359 -0.8477 -0.7125
  243SOL    HW1  728   0.700   2.710   1.635  1.1124  0.4543 -1.6010
  243SOL    HW2  729   0.809   2.802   1.748  2.1112  0.7053  3.8405
  244SOL     OW  730   2.074   0.428   2.617 -0.3026  0.2205 -0.1681
  244SOL    HW1  731   2.065   0.359   2.545  0.0772 -2.9899 -1.8190
  244SOL    HW2  732   1.987   0.480   2.629 -1.1764 -0.1584  1.3328
  245SOL     OW  733   1.540   0.402   1.295 -0.3116  0.7772  0.2017
  245SOL    HW1  734   1.462   0.469   1.307  0.0205 -2.5865 -1.1222
  245SOL    HW2  735   1.497   0.327   1.236  0.6231 -1.2370 -1.2867
  246SOL     OW  736   1.699   2.511   2.960  0.0644  0.1128 -0.1106
  246SOL    HW1  737   1.765   2.474   2.892 -1.0927  1.0972 -0.4019
  246SOL    HW2  738   1.643   2.582   2.912 -0.1267  1.0160 -0.7581
  247SOL     OW  739   1.164   0.657   2.219  0.9378 -0.0363 -0.0571
  247SOL    HW1  740   1.182   0.596   2.299 -0.3387 -1.3329  0.8231
  247SOL    HW2  741   1.239   0.645   2.146 -0.3807  0.7578  0.0213
  248SOL     OW  742   0.588   1.718   1.909 -0.3056  0.0000  0.3362
  248SOL    HW1  743   0.540   1.646   1.965 -1.4455 -0.3024  2.1481
  248SOL    HW2  744   0.533   1.801   1.908 -0.6942 -0.0856  1.7101
  249SOL     OW  745   2.474   0.294   0.423  0.4988 -0.1433 -0.3158
  249SOL    HW1  746   2.433   0.296   0.329  0.8988 -0.8227 -1.5698
  249SOL    HW2  747   2.463   0.201   0.465  0.1298 -1.3777  1.2278
  250SOL     OW  748   2.780   0.286   2.826 -0.1781 -0.1663 -0.5870
  250SOL    HW1  749   2.848   0.267   2.896  1.4404  0.9427 -1.6497
  250SOL    HW2  750   2.810   0.369   2.779 -1.3743  0.6914 -0.7621
  251SOL     OW  751   1.344   0.750   3.068 -0.0800  0.2450  0.4218
  251SOL    HW1  752   1.353   0.851   3.068  0.7898  0.1709 -1.4574
  251SOL    HW2  753   1.249   0.733   0.018  0.5933 -0.8327 -1.5216
  252SOL     OW  754   1.843   2.008   1.885 -0.2990 -0.4368 -0.0140
  252SOL    HW1  755   1.763   2.076   1.888 -2.6474  2.5873  1.0634
  252SOL    HW2  756   1.873   1.973   1.971 -3.4712 -2.3630  0.4927
  253SOL     OW  757   2.280   2.411   1.074  0.1362  0.4647  0.6552
  253SOL    HW1  758   2.286   2.498   1.024 -2.0223  1.5508  1.3635
  253SOL    HW2  759   2.269   2.425   1.171 -1.5171 -0.9873 -1.1997
  254SOL     OW  760   2.451   1.248   0.654  0.2147 -0.6210  0.7464
  254SOL    HW1  761   2.535   1.303   0.643  0.1857 -1.0109  0.8219
  254SOL    HW2  762   2.452   1.201   0.743 -0.8149 -0.4617  1.1883
  255SOL     OW  763   1.416   0.181   1.192  0.1173 -0.3015  0.4568
  255SOL    HW1  764   1.423   0.135   1.284  1.3883 -1.1425  1.1648
  255SOL    HW2  765   1.366   0.119   1.127 -2.3874  0.4005 -0.3357
  256SOL     OW  766   1.275   2.228   1.497 -0.0715 -0.4142 -0.4897
  256SOL    HW1  767   1.268   2.246   1.601  1.8935  1.5332  1.5685
  256SOL    HW2  768   1.190   2.269   1.453  0.1825  0.4556 -1.8785
  257SOL     OW  769   0.524   3.063   2.505 -0.0891  0.2297  0.7862
  257SOL    HW1  770   0.618   0.033   2.481  1.9247  2.5776 -1.4019
  257SOL    HW2  771   0.527   2.965   2.530 -0.3696 -0.0201 -1.2593
  258SOL     OW  772   0.908   2.500   0.540 -0.0788 -0.4992  0.0935
  258SOL    HW1  773   0.952   2.522   0.630  1.3831  1.7210  1.1329
  258SOL    HW2  774   0.976   2.503   0.466 -5.7565  0.4651 -0.5099
  259SOL     OW  775   1.405   0.190   2.663 -0.2804 -0.5466 -0.3194
  259SOL    HW1  776   1.335   0.160   2.728 -1.7892 -0.3337 -0.8246
  259SOL    HW2  777   1.404   0.294   2.650 -1.9388  0.3127 -0.7759
  260SOL     OW  778   2.440   0.315   1.434 -0.2192 -0.0103 -0.6112
  260SOL    HW1  779   2.350   0.273   1.447  0.8291 -0.0960  1.9733
  260SOL    HW2  780   2.524   0.255   1.463  1.6391 -1.7044  0.1266
  261SOL     OW  781   0.699   0.566   2.622  0.3931  0.2404  0.4620
  261SOL    HW1  782   0.624   0.638   2.631 -1.5400  1.0142  1.0998
  261SOL    HW2  783   0.772   0.591   2.554 -0.2490 -2.1860 -0.8215
  262SOL     OW  784   0.558   2.424   2.081  0.5925 -0.3597 -0.3896
  262SOL    HW1  785   0.460   2.435   2.107 -3.5955  2.9551  1.0817
  262SOL    HW2  786   0.572   2.477   1.997 -0.1649  0.4509  0.6524
  263SOL     OW  787   0.241   1.527   2.598 -0.4078 -0.1785 -0.6387
  263SOL    HW1  788   0.202   1.557   2.512  0.0814 -0.2038 -0.1506
  263SOL    HW2  789   0.273   1.429   2.580 -1.2955  1.5840  3.5352
  264SOL     OW  790   1.198   1.597   0.687  0.1947 -0.3168 -0.4017
  264SOL    HW1  791   1.195   1.586   0.789  0.4635 -0.6208  0.3058
  264SOL    HW2  792   1.108   1.585   0.639 -0.0035 -1.9470 -2.4991
  265SOL     OW  793   1.414   2.660   0.621  0.2888 -0.2591 -0.1715
  265SOL    HW1  794   1.436   2.559   0.598  1.0774 -2.3496  2.0780
  265SOL    HW2  795   1.509   2.700   0.629  0.0973 -2.3691  1.1453
  266SOL     OW  796   1.871   0.626   1.262 -0.6256  0.4124  0.1644
  266SOL    HW1  797   1.807   0.568   1.202 -2.5603 -3.5586 -0.8501
  266SOL    HW2  798   1.970   0.620   1.228  2.4427 -0.3247  0.4774
  267SOL     OW  799   2.600   1.233   2.902  0.1329  0.4687  0.1139
  267SOL    HW1  800   2.522   1.178   2.861  1.3601 -1.2447  0.6491
  267SOL    HW2  801   2.683   1.176   2.906 -0.3488  1.6529  2.1543
  268SOL     OW  802   1.479   0.145   0.064  0.5727 -0.2194  0.0006
  268SOL    HW1  803   1.475   0.106   0.159 -0.6626 -2.5697  1.3810
  268SOL    HW2  804   1.394   0.204   0.057 -3.0782  0.5998  0.9256
  269SOL     OW  805   2.544   0.687   2.371  0.3194  0.0118  0.2860
  269SOL    HW1  806   2.643   0.658   2.359 -0.4237 -1.1918 -2.1122
  269SOL    HW2  807   2.508   0.717   2.285  0.6068 -2.1361 -1.0389
  270SOL     OW  808   0.015   1.632   0.344  0.5611 -0.3377  0.2924
  270SOL    HW1  809   3.072   1.531   0.350  0.9279 -1.0520 -0.6786
  270SOL    HW2  810   0.089   1.653   0.280 -1.1057  1.8712  1.5207
  271SOL     OW  811   2.547   0.878   2.895  0.3689 -0.2976  0.2057
  271SOL    HW1  812   2.510   0.955   2.846  0.5303 -3.6480  3.1033
  271SOL    HW2  813   2.497   0.792   2.884  1.7078 -1.6120  0.9064
  272SOL     OW  814   2.989   2.450   2.274  0.3673 -0.0803  0.1382
  272SOL    HW1  815   3.066   2.383   2.271  2.0786  0.5333  1.0828
  272SOL    HW2  816   2.905   2.397   2.281  3.9371  2.2558 -2.9833
  273SOL     OW  817   0.291   2.871   0.557  0.0509  0.0173  0.0287
  273SOL    HW1  818   0.349   2.848   0.475  2.7501  0.7461  0.0603
  273SOL    HW2  819   0.223   2.945   0.535 -2.5761  1.6921  0.1405
  274SOL     OW  820   0.774   2.096   0.721  0.4653 -0.2636  0.2019
  274SOL    HW1  821   0.674   2.109   0.747  2.1158 -1.7068 -0.1745
  274SOL    HW2  822   0.839   2.131   0.795  0.1918  0.0399  2.7661
  275SOL     OW  823   2.327   0.881   0.614  0.0591 -0.2484  0.4101
  275SOL    HW1  824   2.230   0.883   0.636  0.3058 -1.3606  0.8706
  275SOL    HW2  825   2.351   0.957   0.552  0.4468 -1.3452  0.6450
  276SOL     OW  826   2.368   1.488   1.481 -0.2753 -0.2372  0.1177
  276SOL    HW1  827   2.361   1.443   1.392  1.4253 -0.6902 -1.0579
  276SOL    HW2  828   2.447   1.449   1.525 -0.7653  1.8707 -1.4855
  277SOL     OW  829   2.598   2.908   0.724 -0.0841  0.4269  0.1980
  277SOL    HW1  830   2.532   2.971   0.781 -0.7193 -0.5704  0.1813
  277SOL    HW2  831   2.693   2.907   0.755 -0.0630  1.4100 -0.2957
  278SOL     OW  832   1.691   0.151   2.282 -0.2816  0.1545  0.0209
  278SOL    HW1  833   1.659   0.113   2.371 -2.3024 -1.5274  1.2935
  278SOL    HW2  834   1.767   0.220   2.294  2.1239 -1.4525  0.0769
  279SOL     OW  835   1.569   2.586   0.915  0.4527 -0.2636  0.3413
  279SOL    HW1  836   1.585   2.678   0.880 -0.7191 -0.1126 -0.2979
  279SOL    HW2  837   1.615   2.521   0.858 -3.0433  2.3385  0.7947
  280SOL     OW  838   0.745   1.130   0.800  0.5844  0.3192 -0.2121
  280SOL    HW1  839   0.781   1.213   0.844 -3.1715 -3.7900  1.0244
  280SOL    HW2  840   0.662   1.156   0.751  1.4282  2.6902  0.6021
  281SOL     OW  841   2.491   1.474   3.003 -0.6039  0.0869 -0.6666
  281SOL    HW1  842   2.555   1.401   2.957  1.0697  0.2739  0.3034
  281SOL    HW2  843   2.462   1.547   2.934 -0.6780  1.9771 -0.6580
  282SOL     OW  844   3.030   1.373   0.376  0.3862  0.3664  0.0394
  282SOL    HW1  845   2.939   1.327   0.353 -3.9030 -0.7641  0.3478
  282SOL    HW2  846   3.067   1.341   0.465 -1.0004  1.4807  0.1207
  283SOL     OW  847   1.685   2.537   2.613  0.4876 -0.4996 -0.1837
  283SOL    HW1  848   1.611   2.607   2.588 -0.6662  0.9016  1.1312
  283SOL    HW2  849   1.780   2.559   2.585 -1.3189 -1.7717 -1.0782
  284SOL     OW  850   1.070   0.167   0.115  0.4340  0.1314  0.0316
  284SOL    HW1  851   1.100   0.103   0.189  1.5883  0.7291  0.6353
  284SOL    HW2  852   1.145   0.231   0.096 -0.1619  0.4132  2.1180
  285SOL     OW  853   2.394   1.584   2.478  0.4079 -0.5992 -0.1439
  285SOL    HW1  854   2.299   1.598   2.515  1.7865  2.0379 -1.2483
  285SOL    HW2  855   2.385   1.582   2.380 -1.0933 -1.4359  4.4586
  286SOL     OW  856   1.710   2.391   0.776 -0.3541 -0.0011  0.4948
  286SOL    HW1  857   1.812   2.406   0.773 -0.4715  1.0351 -0.0877
  286SOL    HW2  858   1.676   2.322   0.705  0.1069  1.0038 -2.6032
  287SOL     OW  859   1.698   0.771   0.775 -0.0965 -0.0042  0.1610
  287SOL    HW1  860   1.710   0.870   0.751  1.2600 -0.3821 -2.5575
  287SOL    HW2  861   1.619   0.740   0.729 -0.7605 -0.0066  1.1782
  288SOL     OW  862   0.754   2.757   2.412  0.0325 -0.1693  0.0716
  288SOL    HW1  863   0.704   2.780   2.500 -0.6185  0.4370  0.3489
  288SOL    HW2  864   0.730   2.831   2.343 -1.4571  2.0476  2.0312
  289SOL     OW  865   0.087   1.437   0.843 -0.0642 -0.2312  0.1132
  289SOL    HW1  866   0.131   1.374   0.911 -0.4775 -0.5848  0.4379
  289SOL    HW2  867   3.065   1.417   0.837  3.0045  0.1425  1.3465
  290SOL     OW  868   1.205   2.297   0.873  0.1481  0.5044  0.1306
  290SOL    HW1  869   1.221   2.382   0.915 -0.4254 -0.6615 -0.8570
  290SOL    HW2  870   1.188   2.305   0.769  1.6834 -0.9768  0.3258
  291SOL     OW  871   1.484   2.978   0.611  0.5430  0.3542  0.1863
  291SOL    HW1  872   1.382   2.959   0.624 -4.2298 -1.3587  0.2828
  291SOL    HW2  873   1.547   2.942   0.684  4.7173 -0.1635  3.7447
  292SOL     OW  874   0.428   0.632   2.431 -0.1658 -0.0179  0.7066
  292SOL    HW1  875   0.410   0.560   2.499 -1.9004  0.0912 -3.0028
  292SOL    HW2  876   0.337   0.660   2.393 -0.6019  0.3264  0.1092
  293SOL     OW  877   2.564   1.675   0.719 -0.0732 -0.0780 -0.4779
  293SOL    HW1  878   2.583   1.737   0.641  1.8014 -2.4306 -5.1384
  293SOL    HW2  879   2.526   1.726   0.799 -1.0672 -1.2606 -2.1337
  294SOL     OW  880   0.722   0.178   2.157  0.3521 -0.1170  0.7109
  294SOL    HW1  881   0.631   0.159   2.127  0.9323 -0.6419  0.3822
  294SOL    HW2  882   0.792   0.118   2.112 -0.1325 -2.8015  1.6213
  295SOL     OW  883   1.116   1.614   0.953 -0.2114  0.3834 -0.1667
  295SOL    HW1  884   1.186   1.586   1.023 -0.6384  0.8825  2.1250
  295SOL    HW2  885   1.020   1.606   0.988  1.6584  1.1254 -1.2233
  296SOL     OW  886   2.408   1.749   0.409 -0.0761  0.1866  0.2052
  296SOL    HW1  887   2.356   1.793   0.334  0.5870  1.5322  0.8173
  296SOL    HW2  888   2.418   1.648   0.378  0.2349 -4.1502 -2.1908
  297SOL     OW  889   2.519   2.931   2.923  0.3399 -0.3761  0.0319
  297SOL    HW1  890   2.430   2.943   2.977  0.5974 -2.1222  3.3566
  297SOL    HW2  891   2.594   2.923   2.990 -0.5352  0.2726 -0.6979
  298SOL     OW  892   0.993   0.159   2.747 -0.0644 -0.2084 -0.2060
  298SOL    HW1  893   0.916   0.227   2.738  1.3731 -1.6300  0.7236
  298SOL    HW2  894   0.963   0.070   2.775  2.2559  0.7856 -0.1876
  299SOL     OW  895   1.013   2.666   2.056  0.0100 -0.0950 -0.3696
  299SOL    HW1  896   0.914   2.670   2.034  1.1652  0.5557  3.0206
  299SOL    HW2  897   1.025   2.653   2.154  0.9995  1.2400 -1.0640
  300SOL     OW  898   2.777   2.905   1.969 -0.0510  0.2148  0.3292
  300SOL    HW1  899   2.829   2.886   2.058  0.6063  0.6332  0.2541
  300SOL    HW2  900   2.783   3.003   1.935 -0.5934 -2.4978  1.4905
  301SOL     OW  901   1.495   0.403   1.701  0.4430  0.1445  0.3248
  301SOL    HW1  902   1.404   0.362   1.669  0.5676  0.2334  0.0778
  301SOL    HW2  903   1.569   0.373   1.639 -1.0251  0.8752 -0.6948
  302SOL     OW  904   0.322   2.377   2.979 -0.6812  0.3005 -0.2982
  302SOL    HW1  905   0.322   2.382   0.007  2.0369 -1.3595 -1.1002
  302SOL    HW2  906   0.403   2.429   2.948  0.2805 -1.8735 -2.8551
  303SOL     OW  907   1.764   2.469   1.537 -0.4032 -0.3689  0.1603
  303SOL    HW1  908   1.700   2.395   1.563  1.3277  0.9860 -1.9339
  303SOL    HW2  909   1.833   2.483   1.609 -1.2215  0.5250 -0.6442
  304SOL     OW  910   2.773   0.890   1.223  0.3490  0.0344 -0.4792
  304SOL    HW1  911   2.798   0.800   1.183 -1.9286  0.2562  3.2661
  304SOL    HW2  912   2.836   0.922   1.298  1.5015 -0.8479  2.4183
  305SOL     OW  913   0.504   1.298   0.719  0.2014 -0.1013 -0.4003
  305SOL    HW1  914   0.522   1.324   0.817 -0.2556 -0.0938  0.1345
  305SOL    HW2  915   0.445   1.366   0.675  3.3209 -0.6448  0.9795
  306SOL     OW  916   0.401   1.287   2.877  0.4649  0.0402 -0.4085
  306SOL    HW1  917   0.471   1.229   2.923  0.4392  1.5731 -0.9559
  306SOL    HW2  918   0.375   1.254   2.782 -1.9329  1.0196 -2.1489
  307SOL     OW  919   0.973   3.072   1.618  0.2892  0.0428 -0.0035
  307SOL    HW1  920   1.069   3.030   1.597 -0.1418 -0.6869 -2.0788
  307SOL    HW2  921   0.982   0.092   1.653 -0.1209 -0.8914  0.1819
  308SOL     OW  922   0.347   0.891   0.944  0.0168  0.0267  0.1267
  308SOL    HW1  923   0.409   0.819   0.905  1.2189  0.0989 -0.0435
  308SOL    HW2  924   0.325   0.963   0.876  2.2586 -3.4542  0.7081
  309SOL     OW  925   2.456   1.177   0.914 -0.5417 -0.6229  0.2883
  309SOL    HW1  926   2.373   1.127   0.940  0.6788 -0.3860 -2.0894
  309SOL    HW2  927   2.457   1.266   0.965  0.2239 -0.7930  0.2436
  310SOL     OW  928   0.395   1.724   2.748 -0.0587 -0.0278 -0.5589
  310SOL    HW1  929   0.367   1.675   2.667  1.3900  1.5136  4.0291
  310SOL    HW2  930   0.326   1.788   2.787  0.6393 -0.5552 -1.5196
  311SOL     OW  931   2.529   2.602   2.309  0.4870  0.4945 -0.2803
  311SOL    HW1  932   2.514   2.656   2.226 -0.7024 -1.8568 -1.2864
  311SOL    HW2  933   2.564   2.657   2.390  3.6087  1.5276 -0.7460
  312SOL     OW  934   2.103   2.089   3.036  0.1114 -0.3106  0.0937
  312SOL    HW1  935   2.078   1.992   3.035  0.2202  2.1380  3.3615
  312SOL    HW2  936   2.171   2.113   2.967 -4.1130 -1.4272 -2.2399
  313SOL     OW  937   0.513   0.109   0.424  0.1609  0.4596 -0.4616
  313SOL    HW1  938   0.532   0.208   0.422  0.4182  1.2145  0.2396
  313SOL    HW2  939   0.499   0.076   0.516  2.1481  0.7485 -1.7086
  314SOL     OW  940   2.277   1.352   2.776 -0.2513  0.7056 -0.7489
  314SOL    HW1  941   2.202   1.373   2.839 -1.3389 -0.0054  3.0368
  314SOL    HW2  942   2.357   1.412   2.781 -1.0859  1.3494  0.9555
  315SOL     OW  943   1.805   0.410   2.366  0.2193  0.0168 -0.1108
  315SOL    HW1  944   1.823   0.439   2.462  0.1582 -2.1426 -1.8148
  315SOL    HW2  945   1.710   0.431   2.337  1.2477  0.6694  0.5199
  316SOL     OW  946   3.015   0.994   0.660 -0.0810 -0.8215  0.3364
  316SOL    HW1  947   3.001   0.895   0.640  0.7740  0.6049  0.7281
  316SOL    HW2  948   3.022   1.006   0.763 -0.5422  2.2325 -1.7347
  317SOL     OW  949   0.620   2.946   2.890  0.1243  0.0153 -0.4209
  317SOL    HW1  950   0.523   2.958   2.893  0.7122  0.9275 -0.0575
  317SOL    HW2  951   0.651   2.928   2.987  1.4902 -0.2226  2.0364
  318SOL     OW  952   2.318   2.603   0.895 -0.2694 -0.6120 -0.7978
  318SOL    HW1  953   2.330   2.518   0.833  0.9749 -2.1350 -1.8102
  318SOL    HW2  954   2.412   2.629   0.931  1.3747  0.8584  2.1455
  319SOL     OW  955   1.102   1.663   2.910  0.3025 -0.1342  0.2141
  319SOL    HW1  956   1.086   1.721   2.995  0.0715 -0.8667  0.6671
  319SOL    HW2  957   1.073   1.721   2.832 -0.4679 -0.3432 -0.1001
  320SOL     OW  958   0.642   1.760   1.288 -0.0803  0.6704 -0.1284
  320SOL    HW1  959   0.663   1.666   1.326  2.5662 -1.7367  0.6061
  320SOL    HW2  960   0.592   1.758   1.200 -1.0584  0.7859  2.0390
  321SOL     OW  961   1.227   2.741   1.895  0.1683 -1.0361 -0.3142
  321SOL    HW1  962   1.151   2.702   1.947  3.0617 -0.5406 -1.7887
  321SOL    HW2  963   1.268   2.814   1.952 -1.0760 -0.8734  0.6546
  322SOL     OW  964   2.425   1.604   2.176  0.7270  0.6574  0.0479
  322SOL    HW1  965   2.463   1.513   2.210 -1.6826 -2.8440 -0.1367
  322SOL    HW2  966   2.490   1.679   2.182 -0.7242 -0.3783  0.5858
  323SOL     OW  967   2.804   0.291   0.673  0.4136 -0.0398  0.0956
  323SOL    HW1  968   2.820   0.380   0.718 -4.1014 -1.7796  2.4799
  323SOL    HW2  969   2.789   0.225   0.747  3.6794  1.0327 -2.2435
  324SOL     OW  970   2.999   2.583   2.516 -0.1849 -0.0018 -0.0263
  324SOL    HW1  971   3.061   2.526   2.579  0.4916 -2.6292  0.5539
  324SOL    HW2  972   2.987   2.528   2.429  0.2160 -1.1487 -2.0205
  325SOL     OW  973   1.163   0.529   2.448  0.9656 -0.3683  0.4164
  325SOL    HW1  974   1.107   0.449   2.439  2.9818 -2.5022  2.0242
  325SOL    HW2  975   1.228   0.522   2.523  0.0209 -0.0008  0.2558
  326SOL     OW  976   2.140   2.605   1.549  0.1080 -0.1323 -0.6254
  326SOL    HW1  977   2.214   2.646   1.602  1.6810 -3.3276  1.0585
  326SOL    HW2  978   2.067   2.572   1.612 -1.2386  0.1138 -0.6155
  327SOL     OW  979   2.365   3.069   0.250 -0.5269  0.1744  0.4256
  327SOL    HW1  980   2.366   0.092   0.232  1.6055  0.4280 -0.0942
  327SOL    HW2  981   2.337   3.049   0.346 -1.5598  0.9375  0.4325
  328SOL     OW  982   0.167   1.342   1.625  0.0568  0.2213 -0.3421
  328SOL    HW1  983   0.261   1.303   1.625 -0.8379  1.3314  0.9613
  328SOL    HW2  984   0.161   1.415   1.693 -0.2592 -0.1049  0.4360
  329SOL     OW  985   2.079   0.670   1.559 -0.1499  0.1099 -0.8723
  329SOL    HW1  986   1.979   0.673   1.561 -1.2851 -0.4211 -0.8938
  329SOL    HW2  987   2.128   0.611   1.630  3.1176 -2.6334  0.5098
  330SOL     OW  988   0.136   0.876   1.118 -0.4853 -0.4403 -0.4378
  330SOL    HW1  989   0.059   0.888   1.050 -1.4177  0.6279  0.4727
  330SOL    HW2  990   0.223   0.900   1.074 -1.4404 -1.5415  0.8996
  331SOL     OW  991   0.697   1.340   2.027 -0.1153  0.1927 -0.3943
  331SOL    HW1  992   0.782   1.372   1.978  2.8696  0.4991  0.8662
  331SOL    HW2  993   0.721   1.346   2.128 -0.5966 -1.4988  1.8228
  332SOL     OW  994   0.204   2.560   1.412 -0.3841 -0.7423  0.4392
  332SOL    HW1  995   0.122   2.602   1.367 -2.6597  0.8226  1.3040
  332SOL    HW2  996   0.197   2.460   1.400  0.5686  1.1036 -0.0905
  333SOL     OW  997   2.829   2.975   0.826 -0.2773 -0.0451  0.1949
  333SOL    HW1  998   2.815   3.071   0.855 -0.2719 -2.2102 -1.1362
  333SOL    HW2  999   2.798   2.908   0.899  1.4012 -0.0484  0.7443
  334SOL     OW 1000   0.115   1.358   0.588 -0.2821 -0.2766 -0.3978
  334SOL    HW1 1001   0.182   1.417   0.533  3.8998  2.1328 -2.4046
  334SOL    HW2 1002   0.099   1.392   0.684 -0.6792  0.3236  0.1902
  335SOL     OW 1003   0.290   2.605   2.789 -0.3320  0.2153 -0.4709
  335SOL    HW1 1004   0.261   2.697   2.755 -0.1149  0.0015 -1.1532
  335SOL    HW2 1005   0.392   2.605   2.791 -0.9626 -2.3993 -0.0829
  336SOL     OW 1006   3.004   2.531   1.999  0.1321 -0.1509 -0.2424
  336SOL    HW1 1007   2.965   2.517   2.092 -0.3719 -1.1006 -2.2366
  336SOL    HW2 1008   2.931   2.504   1.932  0.9110  1.1597  0.2099
  337SOL     OW 1009   1.994   2.209   1.761  0.1495 -0.0292  0.3755
  337SOL    HW1 1010   1.938   2.132   1.796  0.8926 -1.5278  1.1376
  337SOL    HW2 1011   2.075   2.178   1.704  1.1934 -1.4353  1.9208
  338SOL     OW 1012   0.814   0.365   2.748 -0.6113 -0.5397 -0.2105
  338SOL    HW1 1013   0.749   0.295   2.783 -0.2421  1.1442 -1.2848
  338SOL    HW2 1014   0.780   0.438   2.691  0.8810  1.6491  0.6423
  339SOL     OW 1015   0.391   1.233   2.030  0.1329  0.1097  0.4496
  339SOL    HW1 1016   0.296   1.262   2.012 -0.9799  0.4485  0.8880
  339SOL    HW2 1017   0.446   1.315   2.059  1.1869 -0.9264 -2.3934
  340SOL     OW 1018   2.161   2.949   0.815 -0.2680  0.1974 -0.3074
  340SOL    HW1 1019   2.234   2.913   0.757 -2.2434  1.0374  0.3276
  340SOL    HW2 1020   2.076   2.891   0.803 -0.4022 -0.3913 -2.6749
  341SOL     OW 1021   2.096   1.243   0.962  0.3299 -0.7351 -0.9071
  341SOL    HW1 1022   2.142   1.153   0.959 -0.9384  0.6640 -0.3464
  341SOL    HW2 1023   2.143   1.321   0.926 -2.3013 -2.1403  0.5808
  342SOL     OW 1024   2.078   2.518   3.016 -0.3580  0.0726  0.2430
  342SOL    HW1 1025   2.161   2.487   3.069 -0.4233 -0.3114  2.2951
  342SOL    HW2 1026   2.000   2.511   0.007 -0.1256 -3.5954  0.5753
  343SOL     OW 1027   0.877   2.040   1.469 -0.0360  0.2342 -0.0512
  343SOL    HW1 1028   0.907   2.109   1.536  2.3768  0.2145 -2.7674
  343SOL    HW2 1029   0.839   2.077   1.384 -0.3352  1.4695  2.3693
  344SOL     OW 1030   2.275   2.481   1.344 -0.6246  0.0358  0.4262
  344SOL    HW1 1031   2.220   2.529   1.418 -1.7333  2.7989  2.5615
  344SOL    HW2 1032   2.370   2.510   1.350 -2.8319  1.3330 -1.2206
  345SOL     OW 1033   2.591   1.896   3.043 -0.0092  0.1059  0.0987
  345SOL    HW1 1034   2.666   1.935   2.987  1.8331 -0.1025  1.5798
  345SOL    HW2 1035   2.631   1.851   0.050  0.6183  1.0068 -0.0751
  346SOL     OW 1036   1.891   2.258   1.108  0.4630 -0.0250 -0.5048
  346SOL    HW1 1037   1.949   2.260   1.023 -1.8802 -1.8262 -0.9808
  346SOL    HW2 1038   1.821   2.181   1.102 -2.2056 -1.3950  0.4642
  347SOL     OW 1039   1.357   1.991   1.190  0.3035 -0.1253  0.0821
  347SOL    HW1 1040   1.372   2.064   1.117 -2.0752 -0.0044 -0.0256
  347SOL    HW2 1041   1.259   1.978   1.216  1.8342 -3.3875  3.2387
  348SOL     OW 1042   0.619   1.776   2.235 -0.0098 -0.1774  0.2470
  348SOL    HW1 1043   0.593   1.870   2.266  0.7426  0.3319 -0.4919
  348SOL    HW2 1044   0.709   1.751   2.270 -2.0954  1.1186  0.4409
  349SOL     OW 1045   1.935   1.771   0.809  0.2334 -0.2322  0.1328
  349SOL    HW1 1046   1.847   1.819   0.827 -0.3355  0.2970  0.9340
  349SOL    HW2 1047   1.927   1.671   0.830 -1.5612 -0.6686 -0.3023
  350SOL     OW 1048   2.758   2.475   0.666  0.2890  0.2305  0.3879
  350SOL    HW1 1049   2.785   2.439   0.576  0.8740  1.6052 -0.4359
  350SOL    HW2 1050   2.834   2.517   0.717 -1.7443  0.1808 -1.6858
  351SOL     OW 1051   0.619   2.791   1.487  0.3088  0.3172 -0.3100
  351SOL    HW1 1052   0.708   2.834   1.452 -0.4882  1.7523 -1.5333
  351SOL    HW2 1053   0.564   2.731   1.426 -0.1527 -0.7577 -0.0988
  352SOL     OW 1054   0.269   1.565   1.167 -0.0385 -0.0401 -0.0580
  352SOL    HW1 1055   0.327   1.478   1.163 -0.4843 -1.1503 -0.5560
  352SOL    HW2 1056   0.212   1.571   1.252 -0.7474 -0.6896  2.0993
  353SOL     OW 1057   1.023   1.515   2.305 -0.3011  0.2363  0.5311
  353SOL    HW1 1058   0.940   1.462   2.301  1.1580  2.2677 -2.8752
  353SOL    HW2 1059   1.074   1.485   2.387 -2.7813  1.0554 -1.3930
  354SOL     OW 1060   1.404   0.038   1.756  0.4361 -0.7538  0.2070
  354SOL    HW1 1061   1.365   0.131   1.734  2.5534  2.7250 -1.2180
  354SOL    HW2 1062   1.500   0.053   1.786  0.2157  1.5415 -2.2688
  355SOL     OW 1063   2.410   1.072   0.446 -0.1470 -0.2079  0.4973
  355SOL    HW1 1064   2.432   1.144   0.514 -1.3790 -0.1845  0.0294
  355SOL    HW2 1065   2.408   1.124   0.358  0.3050 -0.6026 -2.2210
  356SOL     OW 1066   2.959   1.701   1.478  0.1466  0.2337  0.2199
  356SOL    HW1 1067   2.860   1.710   1.506 -3.0045 -0.6820  2.7923
  356SOL    HW2 1068   2.988   1.782   1.429 -1.1940 -1.0994  2.7340
  357SOL     OW 1069   0.434   2.692   1.315  0.8496 -0.0779  0.3448
  357SOL    HW1 1070   0.359   2.636   1.359 -1.5603 -0.9696  0.6843
  357SOL    HW2 1071   0.402   2.790   1.304  0.0079  0.5683 -1.2461
  358SOL     OW 1072   2.584   1.421   1.848 -0.2477 -0.0214  0.1965
  358SOL    HW1 1073   2.574   1.400   1.743  0.8757  0.6393 -1.3768
  358SOL    HW2 1074   2.538   1.510   1.866  0.7010  0.1804 -0.8891
  359SOL     OW 1075   2.335   2.831   2.625 -0.1025 -0.1679  0.2058
  359SOL    HW1 1076   2.284   2.747   2.593 -1.5506  0.2787 -0.4407
  359SOL    HW2 1077   2.293   2.915   2.587  0.7871  1.0010  1.7063
  360SOL     OW 1078   0.959   0.363   0.953  0.6161  0.8942 -0.4444
  360SOL    HW1 1079   1.025   0.395   1.021 -2.2801  2.1519 -3.1059
  360SOL    HW2 1080   0.940   0.260   0.967 -2.7476 -1.4451  1.6676
  361SOL     OW 1081   1.986   0.328   1.036  0.3613 -0.2884 -0.1002
  361SOL    HW1 1082   2.013   0.415   0.990  0.4198 -2.1948  0.1791
  361SOL    HW2 1083   2.074   0.274   1.051 -0.8242 -0.3590  2.8854
  362SOL     OW 1084   1.916   1.104   1.146  0.0124  0.5184  0.6779
  362SOL    HW1 1085   1.960   1.168   1.078 -1.4128  0.9835 -2.1934
  362SOL    HW2 1086   1.984   1.080   1.219  2.7861  1.3335 -1.1472
  363SOL     OW 1087   2.165   1.184   2.392 -0.2583  0.0014  0.2201
  363SOL    HW1 1088   2.145   1.283   2.362  0.3170  5.6699  0.2243
  363SOL    HW2 1089   2.264   1.173   2.363 -0.0657  0.0700 -0.2808
  364SOL     OW 1090   0.342   0.231   1.232 -0.2525  0.4998 -0.4162
  364SOL    HW1 1091   0.346   0.273   1.326  0.0984 -1.3212  1.9615
  364SOL    HW2 1092   0.255   0.188   1.204  1.5471  0.9696  0.9909
  365SOL     OW 1093   0.673   0.193   2.888 -0.2901 -0.5348  0.1538
  365SOL    HW1 1094   0.612   0.131   2.837  1.7517  4.0323  3.0431
  365SOL    HW2 1095   0.730   0.148   2.956 -1.2917  0.2084  2.4337
  366SOL     OW 1096   1.933   2.431   2.808 -0.3140  0.0503 -0.5525
  366SOL    HW1 1097   1.950   2.460   2.710 -0.3483  0.3960 -2.8397
  366SOL    HW2 1098   1.994   2.473   2.877 -1.3656 -2.5626 -0.7907
  367SOL     OW 1099   2.852   2.411   2.974 -0.5279  0.3711  0.3761
  367SOL    HW1 1100   2.835   2.509   2.954 -1.5332 -0.7808  1.5625
  367SOL    HW2 1101   2.936   2.399   3.021 -2.9081 -0.8470 -3.8293
  368SOL     OW 1102   3.052   1.248   1.457  0.2237 -0.2328 -0.2083
  368SOL    HW1 1103   0.030   1.285   1.378 -1.5461 -0.6742 -2.9272
  368SOL    HW2 1104   0.039   1.263   1.540 -0.7413 -0.8919 -1.1647
  369SOL     OW 1105   0.910   2.975   2.824 -0.6123  0.3404 -0.3253
  369SOL    HW1 1106   0.970   2.897   2.804 -1.3377  0.5755  0.5801
  369SOL    HW2 1107   0.812   2.943   2.833  0.7800 -2.0172  2.6628
  370SOL     OW 1108   2.796   0.562   0.468  0.3024 -0.9713 -0.0782
  370SOL    HW1 1109   2.705   0.534   0.506  0.6524  2.4732  0.5017
  370SOL    HW2 1110   2.844   0.487   0.419 -0.5039  0.9491 -0.2210
  371SOL     OW 1111   1.630   2.194   0.617 -0.1617  0.7873 -0.2457
  371SOL    HW1 1112   1.564   2.113   0.610 -2.3441  0.4070 -1.7087
  371SOL    HW2 1113   1.726   2.173   0.633 -1.5754 -0.9904 -1.3233
  372SOL     OW 1114   2.821   0.810   2.583  0.4123  0.3487 -0.2120
  372SOL    HW1 1115   2.907   0.834   2.538 -1.3574 -0.5468 -1.7521
  372SOL    HW2 1116   2.812   0.870   2.668 -0.4228 -3.3414  0.7691
  373SOL     OW 1117   2.827   1.530   1.136  0.1104  0.2930 -0.4779
  373SOL    HW1 1118   2.828   1.601   1.065 -3.0822 -0.4035  0.5560
  373SOL    HW2 1119   2.760   1.458   1.108  0.7282  0.4401 -0.2403
  374SOL     OW 1120   0.731   2.910   0.063 -0.0856 -0.5263 -0.0745
  374SOL    HW1 1121   0.651   2.951   0.105  0.2039 -0.8894 -0.6903
  374SOL    HW2 1122   0.784   2.987   0.018 -0.2211  0.4682 -0.6787
  375SOL     OW 1123   0.260   2.916   0.056 -0.5102 -0.6070  0.2378
  375SOL    HW1 1124   0.290   2.973   0.130 -0.3620  0.2754 -1.9057
  375SOL    HW2 1125   0.163   2.908   0.057  2.5124 -1.5033 -1.8371
  376SOL     OW 1126   0.000   2.102   1.470  0.0484  0.6809 -0.0102
  376SOL    HW1 1127   3.040   2.072   1.560 -1.5034 -2.4932  0.0645
  376SOL    HW2 1128   0.012   2.015   1.416 -3.0469  2.0572 -1.2817
  377SOL     OW 1129   1.564   2.265   2.436 -0.1451  0.2624 -0.0752
  377SOL    HW1 1130   1.588   2.325   2.515 -2.4909  1.1522 -1.8845
  377SOL    HW2 1131   1.608   2.168   2.439  0.1831  0.3612  2.4183
  378SOL     OW 1132   0.517   0.402   2.994  0.3391  0.3734 -0.1793
  378SOL    HW1 1133   0.453   0.476   2.961 -1.6094 -0.3753 -3.2412
  378SOL    HW2 1134   0.592   0.381   2.932 -2.0253  1.5268  0.4231
  379SOL     OW 1135   0.550   0.906   0.395 -0.2815 -0.6352  0.2707
  379SOL    HW1 1136   0.624   0.967   0.434  0.0053 -1.5890 -1.5621
  379SOL    HW2 1137   0.457   0.947   0.385  0.0122 -0.4341 -1.4020
  380SOL     OW 1138   3.056   1.837   1.889  0.4555 -0.4349  0.7205
  380SOL    HW1 1139   2.983   1.772   1.915 -0.6516  1.9589  1.9794
  380SOL    HW2 1140   0.075   1.814   1.930  1.6162 -0.5306  2.1188
  381SOL     OW 1141   0.378   1.173   1.736  0.2551  0.3110 -0.6527
  381SOL    HW1 1142   0.449   1.236   1.768 -0.9547 -4.6267 -0.8678
  381SOL    HW2 1143   0.407   1.076   1.757  0.4086 -0.0828  0.2364
  382SOL     OW 1144   2.443   2.211   0.325 -0.4794 -0.2328  0.1492
  382SOL    HW1 1145   2.372   2.176   0.387 -1.1139  0.3789 -1.4772
  382SOL    HW2 1146   2.431   2.183   0.230 -0.6667 -0.5320  1.2530
  383SOL     OW 1147   2.788   1.976   2.894 -0.0942 -0.1863  0.3033
  383SOL    HW1 1148   2.875   1.920   2.892  0.7936 -0.5745  1.3170
  383SOL    HW2 1149   2.800   2.069   2.852  1.5172  1.5684 -3.4597
  384SOL     OW 1150   0.593   2.281   2.540 -0.1487 -0.0236 -0.6851
  384SOL    HW1 1151   0.622   2.230   2.627  0.4229 -1.9463 -2.6867
  384SOL    HW2 1152   0.495   2.308   2.534 -0.3893 -1.4303 -0.8224
  385SOL     OW 1153   3.032   1.201   1.039  0.3601  0.1900 -0.0870
  385SOL    HW1 1154   3.060   1.273   1.106  2.2729 -2.0840 -3.9802
  385SOL    HW2 1155   2.965   1.238   0.973 -0.6544 -0.9254 -1.4460
  386SOL     OW 1156   2.035   1.507   1.440  0.5673 -0.4520  0.0803
  386SOL    HW1 1157   2.085   1.431   1.484 -0.8220  2.6270 -1.2949
  386SOL    HW2 1158   2.031   1.502   1.338  0.9858  1.2271 -2.9760
  387SOL     OW 1159   2.734   1.207   1.932 -0.1852  0.5541  0.0672
  387SOL    HW1 1160   2.818   1.209   1.875 -1.7745 -0.0638 -2.6279
  387SOL    HW2 1161   2.682   1.292   1.917  0.9891  0.6608  0.6774
  388SOL     OW 1162   2.828   1.227   2.189 -0.1975 -0.0821  0.0537
  388SOL    HW1 1163   2.764   1.173   2.247 -2.3378 -0.9864  0.4117
  388SOL    HW2 1164   2.805   1.234   2.091  0.8563 -0.3867  0.5820
  389SOL     OW 1165   2.071   1.159   1.916  0.1252  0.0084 -0.2563
  389SOL    HW1 1166   2.031   1.124   2.007 -1.9976 -1.2662  2.0560
  389SOL    HW2 1167   2.171   1.188   1.928  2.0736  0.0768 -0.5388
  390SOL     OW 1168   1.709   2.591   0.443 -0.1400 -0.3612  0.1449
  390SOL    HW1 1169   1.806   2.614   0.464  0.8676 -1.2649  0.9959
  390SOL    HW2 1170   1.665   2.510   0.477 -1.4846  0.5424 -1.9788
  391SOL     OW 1171   2.216   1.812   0.827 -0.2120  0.0411  0.5848
  391SOL    HW1 1172   2.236   1.911   0.863  1.4822  1.7615 -0.7702
  391SOL    HW2 1173   2.117   1.786   0.825  1.6367  0.7729 -0.2719
  392SOL     OW 1174   2.781   2.444   1.117 -0.0806 -0.2324  0.2773
  392SOL    HW1 1175   2.862   2.404   1.070 -0.1788 -1.3482 -3.0592
  392SOL    HW2 1176   2.808   2.514   1.192 -0.2868 -2.4056 -0.1575
  393SOL     OW 1177   1.666   1.718   2.856  0.2783 -0.1669  0.0047
  393SOL    HW1 1178   1.746   1.678   2.814 -1.5884 -1.4520  0.9465
  393SOL    HW2 1179   1.653   1.666   2.945  2.0740 -0.3240  0.0026
  394SOL     OW 1180   0.143   0.194   2.809 -0.3242  0.2518 -0.0621
  394SOL    HW1 1181   0.097   0.105   2.817 -0.6412  1.4340  0.5818
  394SOL    HW2 1182   0.209   0.203   2.887 -1.2412  1.9550 -0.4122
  395SOL     OW 1183   0.712   0.868   0.886 -0.7439  0.4937  0.6646
  395SOL    HW1 1184   0.786   0.821   0.834 -3.1954  0.4044  2.5469
  395SOL    HW2 1185   0.727   0.967   0.882 -1.4431 -1.0347 -0.1208
  396SOL     OW 1186   1.186   1.068   0.707  0.0369  0.4121  0.3437
  396SOL    HW1 1187   1.212   0.989   0.764 -1.9674  1.2429  1.7195
  396SOL    HW2 1188   1.261   1.113   0.653  2.7868  0.2378 -1.0642
  397SOL     OW 1189   0.512   0.854   2.128  0.1705  0.2970  0.1471
  397SOL    HW1 1190   0.456   0.795   2.063 -1.5564  0.8302  0.4791
  397SOL    HW2 1191   0.560   0.919   2.072 -2.3208 -0.1035  1.4579
  398SOL     OW 1192   1.113   0.151   0.582  0.1087  0.2861 -0.1728
  398SOL    HW1 1193   1.158   0.192   0.505 -3.2111 -1.7552  1.5573
  398SOL    HW2 1194   1.145   0.059   0.603 -0.2639  1.5424 -0.6557
  399SOL     OW 1195   2.032   0.032   1.692  0.3404 -0.1303  0.2952
  399SOL    HW1 1196   1.985   3.022   1.668  0.3630 -0.4027 -0.3082
  399SOL    HW2 1197   1.963   0.113   1.687  1.0316  0.8057 -0.8248
  400SOL     OW 1198   1.168   1.603   2.092 -0.4533  0.3419 -0.6613
  400SOL    HW1 1199   1.235   1.663   2.136 -1.9158  1.3372 -1.9422
  400SOL    HW2 1200   1.112   1.550   2.162  1.3107 -1.9387  2.3751
  401SOL     OW 1201   0.780   1.141   2.800  0.6450  0.6086 -0.1793
  401SOL    HW1 1202   0.781   1.035   2.792  0.4146 -1.4601 -0.3734
  401SOL    HW2 1203   0.719   1.160   2.881 -5.2883  0.5218  0.0300
  402SOL     OW 1204   2.732   1.868   0.927 -0.1184 -0.0039  0.7227
  402SOL    HW1 1205   2.798   1.797   0.912 -2.7835 -1.0763 -3.2656
  402SOL    HW2 1206   2.641   1.818   0.916  0.2411  1.2772 -2.8319
  403SOL     OW 1207   0.023   0.873   2.008  0.1735  0.0476 -0.1318
  403SOL    HW1 1208   3.018   0.903   2.067  1.0320  2.2762  0.5503
  403SOL    HW2 1209   0.061   0.951   1.958 -1.2550 -0.7037 -0.7485
  404SOL     OW 1210   0.300   2.662   1.681 -0.3813 -0.2530 -0.0266
  404SOL    HW1 1211   0.362   2.748   1.674  2.2922  2.2542 -0.7551
  404SOL    HW2 1212   0.273   2.638   1.584  2.6508  0.2796  0.9695
  405SOL     OW 1213   0.469   0.482   2.198 -0.1017 -0.5731  0.1291
  405SOL    HW1 1214   0.503   0.506   2.291  0.3617  0.9255  2.0142
  405SOL    HW2 1215   0.395   0.414   2.200  1.2760 -0.0573  0.3942
  406SOL     OW 1216   1.634   1.861   2.250  0.6255  0.3764  0.0474
  406SOL    HW1 1217   1.605   1.883   2.156  1.3298  1.1081  2.5833
  406SOL    HW2 1218   1.699   1.782   2.259  1.3056  0.3677 -1.8853
  407SOL     OW 1219   1.344   1.260   2.247 -0.2990 -0.3334  0.7673
  407SOL    HW1 1220   1.398   1.312   2.179 -0.7100 -1.5401  0.3041
  407SOL    HW2 1221   1.394   1.177   2.265  1.5771  0.9439  1.9161
  408SOL     OW 1222   0.751   0.100   2.404  0.2166 -0.5927  0.1383
  408SOL    HW1 1223   0.739   0.121   2.303 -1.2635 -1.2348  0.4892
  408SOL    HW2 1224   0.849   0.075   2.431  0.9371 -1.1253  1.1845
  409SOL     OW 1225   0.445   1.925   0.566 -0.3156 -0.6130 -0.4406
  409SOL    HW1 1226   0.526   1.875   0.612  0.4705 -0.3421 -1.1623
  409SOL    HW2 1227   0.484   1.981   0.491  1.2448 -2.4667 -3.9290
  410SOL     OW 1228   2.774   1.243   0.319  0.0667  0.6563  0.4250
  410SOL    HW1 1229   2.796   1.144   0.298 -0.6844  0.2987 -2.3311
  410SOL    HW2 1230   2.701   1.274   0.257 -0.2674 -0.9252  1.3249
  411SOL     OW 1231   0.108   0.098   1.154  0.0038  0.0649  0.0848
  411SOL    HW1 1232   0.093   0.103   1.056 -1.2610 -0.1557  1.2392
  411SOL    HW2 1233   0.015   0.080   1.194  0.3043 -0.2691  1.3260
  412SOL     OW 1234   1.547   0.921   1.373 -1.1547 -0.2078  0.1066
  412SOL    HW1 1235   1.628   0.896   1.323  0.8192  1.8305  0.0827
  412SOL    HW2 1236   1.522   0.844   1.436  0.3151 -0.5946 -0.1259
  413SOL     OW 1237   0.609   0.054   1.537 -0.2993 -0.4926  0.1923
  413SOL    HW1 1238   0.644   0.150   1.538 -0.5183  1.7582  1.0653
  413SOL    HW2 1239   0.681   3.071   1.495  1.4123 -0.5724  2.3798
  414SOL     OW 1240   2.752   1.496   2.767  0.0036  0.7774  0.3171
  414SOL    HW1 1241   2.718   1.586   2.801 -0.1269  0.7241  1.0588
  414SOL    HW2 1242   2.783   1.443   2.848 -1.3001 -1.2475 -0.0457
  415SOL     OW 1243   0.547   2.542   2.849  0.0699  0.3232 -0.3684
  415SOL    HW1 1244   0.599   2.523   2.764  0.2539  0.8113 -2.0448
  415SOL    HW2 1245   0.603   2.568   2.933  0.5546 -0.2986 -0.4960
  416SOL     OW 1246   2.021   2.830   0.371  0.0099  0.3962 -1.0523
  416SOL    HW1 1247   1.941   2.813   0.312 -0.9990  1.8780 -2.3281
  416SOL    HW2 1248   2.042   2.925   0.377  0.0181 -1.8340  0.6571
  417SOL     OW 1249   0.284   0.636   0.698 -0.1138 -0.3297 -0.2545
  417SOL    HW1 1250   0.368   0.662   0.749 -1.3359  1.5684 -1.6384
  417SOL    HW2 1251   0.209   0.606   0.764 -0.2634 -1.5960  1.1535
  418SOL     OW 1252   2.410   0.380   1.165 -0.3113  0.3049  0.2507
  418SOL    HW1 1253   2.373   0.469   1.129 -0.7225  2.6662  1.9375
  418SOL    HW2 1254   2.422   0.376   1.267 -1.2435  1.5849 -0.3665
  419SOL     OW 1255   0.120   3.054   0.498  0.0509 -0.4722 -0.1017
  419SOL    HW1 1256   0.099   0.074   0.464 -4.2281 -0.0713  2.4776
  419SOL    HW2 1257   0.053   3.037   0.574  1.1907 -1.2620 -0.4643
  420SOL     OW 1258   0.359   1.668   1.542 -0.0112  0.1695  0.6213
  420SOL    HW1 1259   0.419   1.743   1.570 -2.9252 -1.1022  1.2819
  420SOL    HW2 1260   0.412   1.580   1.528  1.6798  1.0440 -0.8951
  421SOL     OW 1261   1.216   2.972   0.620  0.0096  0.5075  0.4888
  421SOL    HW1 1262   1.172   2.913   0.690  0.7044  0.8116  0.4393
  421SOL    HW2 1263   1.229   2.916   0.533 -1.9609 -1.7248 -0.6201
  422SOL     OW 1264   0.291   0.655   1.532  0.1308 -0.1899 -0.3523
  422SOL    HW1 1265   0.347   0.682   1.615 -0.7676  1.5145  1.8894
  422SOL    HW2 1266   0.240   0.731   1.489  0.7224  1.1665 -1.9264
  423SOL     OW 1267   1.150   1.251   1.424  0.0036  0.2091 -0.3491
  423SOL    HW1 1268   1.200   1.278   1.511 -0.6332  1.7983  4.1112
  423SOL    HW2 1269   1.200   1.187   1.366 -0.8075  2.1128  2.4432
  424SOL     OW 1270   2.042   1.417   2.950  0.1639  0.2543 -0.2080
  424SOL    HW1 1271   2.023   1.455   3.044  0.1895 -0.9402  0.8637
  424SOL    HW2 1272   1.971   1.344   2.925 -0.1107  3.0600  2.1921
  425SOL     OW 1273   0.124   0.172   2.014  0.1302 -0.5642  0.5696
  425SOL    HW1 1274   0.058   0.200   2.085 -0.1287  3.8057  1.3679
  425SOL    HW2 1275   0.096   0.087   1.961  0.9156 -2.8211 -1.5584
  426SOL     OW 1276   0.351   2.941   2.876  0.2351 -0.0483 -1.4597
  426SOL    HW1 1277   0.312   2.931   2.974  2.5576 -0.1291 -2.3327
  426SOL    HW2 1278   0.291   2.907   2.802  1.2027 -0.5887 -2.0255
  427SOL     OW 1279   1.188   0.969   2.738 -0.0973  0.1486 -1.0680
  427SOL    HW1 1280   1.292   0.993   2.729  2.4735 -0.4578 -0.3322
  427SOL    HW2 1281   1.148   0.994   2.830 -1.4031 -0.6338  1.5036
  428SOL     OW 1282   2.543   1.090   1.574  0.2446 -0.3910  0.2069
  428SOL    HW1 1283   2.462   1.075   1.641 -0.8239 -0.8934  2.5068
  428SOL    HW2 1284   2.547   1.020   1.497  2.6510 -4.0454 -1.1131
  429SOL     OW 1285   2.036   2.677   0.854  0.4833 -0.2006 -0.0023
  429SOL    HW1 1286   2.135   2.662   0.861 -0.5837 -1.5368 -1.2901
  429SOL    HW2 1287   1.989   2.715   0.940  0.3959  0.3831  0.4584
  430SOL     OW 1288   0.796   1.370   2.274  0.4967 -0.1173 -0.1423
  430SOL    HW1 1289   0.812   1.271   2.303  0.1062 -0.4818 -1.2207
  430SOL    HW2 1290   0.714   1.410   2.315  0.2061  1.1057 -1.6471
  431SOL     OW 1291   2.587   1.359   1.574 -0.2422  1.0125  0.3577
  431SOL    HW1 1292   2.672   1.388   1.523  2.1213  1.1835 -2.1440
  431SOL    HW2 1293   2.573   1.258   1.575 -1.5842  0.9288 -1.3727
  432SOL     OW 1294   1.005   2.650   2.360 -0.1398 -0.6606 -0.3564
  432SOL    HW1 1295   0.919   2.699   2.344 -0.8379  0.2412  1.5463
  432SOL    HW2 1296   0.988   2.549   2.357  0.0003  0.4494  0.1163
  433SOL     OW 1297   2.022   0.173   2.490 -0.1363 -0.0415  0.6521
  433SOL    HW1 1298   2.119   0.159   2.473 -2.3197 -2.7595  0.8398
  433SOL    HW2 1299   1.982   0.161   2.394 -0.9027 -3.4027 -5.6898
  434SOL     OW 1300   0.496   2.572   2.420  0.5728  0.3812  0.3015
  434SOL    HW1 1301   0.415   2.507   2.433 -0.9063  0.9008 -2.0763
  434SOL    HW2 1302   0.552   2.577   2.502  0.1190 -1.6583 -0.1933
  435SOL     OW 1303   0.317   2.677   0.284  0.1206  0.4665 -0.2495
  435SOL    HW1 1304   0.337   2.759   0.225 -0.6091  0.5603  2.8977
  435SOL    HW2 1305   0.227   2.695   0.329 -1.2231  0.7063  1.8102
  436SOL     OW 1306   0.800   0.689   2.063  0.3308  0.0006  0.4103
  436SOL    HW1 1307   0.714   0.721   2.110  1.0270  2.3942  0.8395
  436SOL    HW2 1308   0.814   0.591   2.088 -1.2583  1.7721  0.8434
  437SOL     OW 1309   0.311   2.379   2.506  0.4951  0.8946  0.6367
  437SOL    HW1 1310   0.294   2.298   2.448  1.6459  0.6295 -0.6527
  437SOL    HW2 1311   0.230   2.423   2.542  1.7070 -0.3307  1.8697
  438SOL     OW 1312   0.589   1.328   1.788  0.4614  0.0165  0.4919
  438SOL    HW1 1313   0.566   1.421   1.752 -1.7612 -2.8302  1.4745
  438SOL    HW2 1314   0.633   1.341   1.877 -0.0111  0.0931  0.2571
  439SOL     OW 1315   2.300   0.911   2.170 -0.3809  0.5424 -0.1663
  439SOL    HW1 1316   2.250   0.863   2.246  0.6467  0.1724  1.0311
  439SOL    HW2 1317   2.339   0.998   2.203  2.8463  0.6977  0.5250
  440SOL     OW 1318   0.401   0.702   0.257  0.0599  0.3831  0.0326
  440SOL    HW1 1319   0.449   0.618   0.285 -0.2462  0.4397 -0.4185
  440SOL    HW2 1320   0.453   0.788   0.287  0.9103 -2.2052  0.5466
  441SOL     OW 1321   0.971   2.433   1.088 -0.1806 -0.4405 -0.1026
  441SOL    HW1 1322   0.888   2.484   1.070 -1.4533  1.1539  0.2665
  441SOL    HW2 1323   1.033   2.447   1.014 -0.7891 -2.7535  0.3247
  442SOL     OW 1324   2.196   1.369   0.689  0.0332 -0.3045 -0.8255
  442SOL    HW1 1325   2.178   1.434   0.612 -0.1926 -0.9795  0.8490
  442SOL    HW2 1326   2.289   1.330   0.682  0.8433 -0.2467  0.1129
  443SOL     OW 1327   2.684   1.805   2.463 -0.3910  1.0251  0.9898
  443SOL    HW1 1328   2.623   1.833   2.383 -0.1490  1.3614 -1.1001
  443SOL    HW2 1329   2.724   1.714   2.445 -0.7593 -0.1050  1.1762
  444SOL     OW 1330   1.641   1.420   3.060  0.4087  0.7893 -1.0771
  444SOL    HW1 1331   1.676   1.496   0.041  0.6571  1.1208 -1.0631
  444SOL    HW2 1332   1.577   1.364   0.037 -2.8434  1.9733  1.3514
  445SOL     OW 1333   2.566   2.762   2.082  0.5198  0.4008 -0.6472
  445SOL    HW1 1334   2.560   2.696   2.008  2.2298  1.6571  0.3536
  445SOL    HW2 1335   2.647   2.824   2.057  3.4381 -1.7710  0.9289
  446SOL     OW 1336   0.399   1.054   1.410  0.1675  0.3402 -0.2697
  446SOL    HW1 1337   0.454   0.968   1.384  2.8180 -1.4558  0.4350
  446SOL    HW2 1338   0.413   1.071   1.508  0.3893 -1.1401 -1.6129
  447SOL     OW 1339   0.878   1.337   0.935 -0.0223 -0.2269  0.2701
  447SOL    HW1 1340   0.982   1.330   0.939 -0.9414 -1.1189 -2.3166
  447SOL    HW2 1341   0.838   1.335   1.028  0.9332  0.1937 -6.2872
  448SOL     OW 1342   1.181   1.123   1.717  0.8519 -0.7810 -0.5995
  448SOL    HW1 1343   1.273   1.121   1.762 -3.4912  0.3875 -0.8789
  448SOL    HW2 1344   1.149   1.032   1.681  0.5404  0.7644 -0.2030
  449SOL     OW 1345   3.031   1.925   2.196  0.5112 -0.2422 -0.1715
  449SOL    HW1 1346   3.060   1.983   2.119 -0.1014 -0.3933  0.2640
  449SOL    HW2 1347   0.030   1.885   2.250 -1.2442 -1.2887  0.7397
  450SOL     OW 1348   2.779   1.868   2.042  0.1257  0.1918 -0.6687
  450SOL    HW1 1349   2.772   1.970   2.028 -1.3184 -2.1888  1.2870
  450SOL    HW2 1350   2.856   1.855   2.106 -0.3612  0.4827  1.2006
  451SOL     OW 1351   2.286   1.078   1.334 -0.0095  0.7351 -0.1753
  451SOL    HW1 1352   2.204   1.017   1.330  0.1826 -0.9611 -2.1868
  451SOL    HW2 1353   2.374   1.026   1.335 -1.1915 -0.4118 -0.3995
  452SOL     OW 1354   0.449   1.421   1.454 -0.3104 -0.3792  0.4766
  452SOL    HW1 1355   0.505   1.337   1.480 -0.6603  0.0122  0.5914
  452SOL    HW2 1356   0.360   1.396   1.405 -0.8300  2.1115 -3.1529
  453SOL     OW 1357   0.463   1.325   1.017  0.3415 -0.3772 -0.3554
  453SOL    HW1 1358   0.369   1.292   1.013 -1.1794 -2.7091  1.3167
  453SOL    HW2 1359   0.508   1.283   1.103  2.2826  0.2049  1.1545
  454SOL     OW 1360   0.461   1.639   0.072 -0.3202 -0.1388  0.2604
  454SOL    HW1 1361   0.551   1.630   0.112 -3.5352 -2.6332 -2.0644
  454SOL    HW2 1362   0.430   1.549   0.039  1.4313  2.1020 -0.5514
  455SOL     OW 1363   1.978   0.895   0.938  0.2003  0.0081  0.2286
  455SOL    HW1 1364   1.931   0.939   1.016 -0.9997 -0.7216 -2.7328
  455SOL    HW2 1365   1.929   0.808   0.927  1.2866 -0.1124 -1.4925
  456SOL     OW 1366   1.974   2.425   0.727  0.0392 -0.3523 -0.0404
  456SOL    HW1 1367   1.998   2.527   0.742  1.0458  2.2033  1.4983
  456SOL    HW2 1368   1.996   2.371   0.808 -2.7837  0.2602 -2.3117
  457SOL     OW 1369   2.008   2.936   2.745  0.2595  0.2529  0.4256
  457SOL    HW1 1370   1.946   3.016   2.718 -1.9268  1.2905  0.8803
  457SOL    HW2 1371   2.017   2.868   2.665  0.6099 -1.3504 -2.2675
  458SOL     OW 1372   2.374   0.262   0.175 -0.2782 -0.3061 -0.5331
  458SOL    HW1 1373   2.392   0.229   0.081  2.4869 -0.5008  0.3937
  458SOL    HW2 1374   2.290   0.316   0.164  2.8381  1.6362 -0.0957
  459SOL     OW 1375   0.016   1.249   2.285  0.0200  0.1475  0.1748
  459SOL    HW1 1376   2.997   1.236   2.255  0.0980  1.3093  2.0553
  459SOL    HW2 1377   0.065   1.308   2.220  2.5942 -1.6471 -1.4319
  460SOL     OW 1378   0.265   0.564   0.041  0.3290  0.2588  0.1039
  460SOL    HW1 1379   0.295   0.602   3.026  0.5360 -4.4376  0.5209
  460SOL    HW2 1380   0.318   0.600   0.121  2.6488  1.7283  0.7058
  461SOL     OW 1381   2.588   2.282   0.737  0.2991  0.1425  0.3777
  461SOL    HW1 1382   2.651   2.359   0.714 -0.6995 -0.5301  1.3505
  461SOL    HW2 1383   2.636   2.193   0.738 -0.6694  2.7430  1.8041
  462SOL     OW 1384   0.347   0.025   1.486 -0.1295  0.0022  0.4819
  462SOL    HW1 1385   0.447   0.037   1.490 -0.3063 -0.8622 -1.5116
  462SOL    HW2 1386   0.315   3.038   1.411 -3.1939 -1.4333  0.1535
  463SOL     OW 1387   2.066   2.312   2.014 -0.1690  0.6145  0.0842
  463SOL    HW1 1388   1.972   2.322   2.048  2.1610 -0.9508  0.3573
  463SOL    HW2 1389   2.076   2.302   1.909  1.7561 -0.2309 -0.7514
  464SOL     OW 1390   0.348   2.934   1.262 -0.0575  0.4273  0.3945
  464SOL    HW1 1391   0.428   3.002   1.243  0.2678  0.8640 -0.9727
  464SOL    HW2 1392   0.293   2.928   1.178  0.0791  0.7662 -2.6901
  465SOL     OW 1393   0.715   0.311   1.560  0.0094 -0.2606  0.4936
  465SOL    HW1 1394   0.788   0.379   1.580  0.1370 -1.7985 -0.6686
  465SOL    HW2 1395   0.650   0.306   1.643 -3.3905  1.9170  0.4814
  466SOL     OW 1396   1.521   1.780   1.789  0.7753  0.3676  0.2252
  466SOL    HW1 1397   1.593   1.760   1.721  0.1679 -3.0771 -0.0587
  466SOL    HW2 1398   1.425   1.782   1.755 -1.0899  1.0873  2.8526
  467SOL     OW 1399   0.128   1.736   0.998  0.0062 -0.2166  0.4171
  467SOL    HW1 1400   0.174   1.662   1.050 -0.6215  2.7919  1.7438
  467SOL    HW2 1401   0.139   1.721   0.898  2.1181 -1.6487 -0.2551
  468SOL     OW 1402   2.295   2.066   2.654  0.0604 -0.1879 -0.1506
  468SOL    HW1 1403   2.351   2.058   2.572  0.4918  2.8604  2.6901
  468SOL    HW2 1404   2.206   2.024   2.639 -0.6070  0.6468  1.0551
  469SOL     OW 1405   1.136   2.270   0.604  0.7191  0.0513  0.4251
  469SOL    HW1 1406   1.061   2.220   0.561  2.2518  0.4771 -1.4087
  469SOL    HW2 1407   1.176   2.328   0.528  3.3334  3.0442 -2.2329
  470SOL     OW 1408   1.935   1.738   1.245  0.5286 -0.2007  0.3085
  470SOL    HW1 1409   2.011   1.803   1.225  1.6787 -0.2446  0.7088
  470SOL    HW2 1410   1.914   1.726   1.347 -0.0138 -1.2499 -3.1351
  471SOL     OW 1411   0.622   2.514   0.218 -0.1695 -0.4694  0.0852
  471SOL    HW1 1412   0.548   2.445   0.213 -2.2665  0.1951 -2.8079
  471SOL    HW2 1413   0.646   2.548   0.125  0.4971  2.7181  1.5506
  472SOL     OW 1414   2.578   1.829   2.213 -0.2709  0.2533  0.1323
  472SOL    HW1 1415   2.655   1.841   2.145 -0.2455  1.2767 -1.5726
  472SOL    HW2 1416   2.500   1.887   2.190  2.2277 -1.0244 -1.0460
  473SOL     OW 1417   1.231   2.784   0.812 -0.0170  1.3680  0.2755
  473SOL    HW1 1418   1.302   2.736   0.753  0.3767  0.2165  1.2917
  473SOL    HW2 1419   1.277   2.836   0.887  0.4353  1.2322  2.5900
  474SOL     OW 1420   2.956   0.054   1.250  0.2734  0.8829  0.2525
  474SOL    HW1 1421   2.862   0.021   1.225  2.0342  0.7078 -0.6470
  474SOL    HW2 1422   2.958   0.085   1.346 -0.2697  1.8528  3.1067
  475SOL     OW 1423   1.645   2.826   1.834 -0.0058  0.1656 -0.4135
  475SOL    HW1 1424   1.641   2.784   1.926  0.6275  1.1415  0.7319
  475SOL    HW2 1425   1.577   2.778   1.777  0.1558  2.7848  0.4788
  476SOL     OW 1426   0.441   0.313   0.997 -0.4857  0.1033  0.1782
  476SOL    HW1 1427   0.452   0.412   1.001 -2.7323 -0.9432 -0.3405
  476SOL    HW2 1428   0.395   0.282   1.079  1.1707 -3.7994 -0.1846
  477SOL     OW 1429   1.006   2.111   0.881  0.4897  1.1205 -0.2665
  477SOL    HW1 1430   1.057   2.023   0.908  2.2304  0.3087 -0.8142
  477SOL    HW2 1431   1.072   2.188   0.871  0.2441 -1.4203 -0.2768
  478SOL     OW 1432   0.609   2.816   2.640  0.1565 -0.5269 -0.1610
  478SOL    HW1 1433   0.642   2.716   2.636  0.4221 -0.9738 -0.4781
  478SOL    HW2 1434   0.619   2.858   2.731 -0.7557 -0.4519 -2.3036
  479SOL     OW 1435   0.366   0.653   2.028  0.1996  0.0557  0.0955
  479SOL    HW1 1436   0.269   0.622   2.008 -1.1729 -1.2284 -0.6875
  479SOL    HW2 1437   0.409   0.599   2.106  0.3449 -0.0546 -3.0249
  480SOL     OW 1438   0.051   2.065   3.038 -0.1901  0.2806  0.1386
  480SOL    HW1 1439   0.080   2.021   0.053  2.8540  1.5079  2.0169
  480SOL    HW2 1440   0.069   2.165   3.046 -2.6300 -4.4211  1.0899
  481SOL     OW 1441   1.632   2.702   2.086  0.7294 -0.3248 -0.0982
  481SOL    HW1 1442   1.724   2.707   2.135  2.7704  0.0564  0.0258
  481SOL    HW2 1443   1.560   2.652   2.142  1.0553 -0.8206  0.4784
  482SOL     OW 1444   1.606   2.078   2.923 -0.5110 -0.8128 -0.6847
  482SOL    HW1 1445   1.546   2.032   2.857 -1.4867  2.2588  0.0156
  482SOL    HW2 1446   1.665   2.145   2.875  1.1513 -1.7349 -1.1199
  483SOL     OW 1447   0.693   2.524   2.623  0.1904 -0.2416  0.5527
  483SOL    HW1 1448   0.683   2.427   2.580  1.5392 -0.8356  0.4117
  483SOL    HW2 1449   0.792   2.553   2.637  1.7648  1.2980  1.3400
  484SOL     OW 1450   0.436   2.919   0.933  0.3790  0.0894  0.0171
  484SOL    HW1 1451   0.497   3.002   0.918  0.5419 -0.9148  0.7122
  484SOL    HW2 1452   0.340   2.930   0.952  0.3695 -2.2168 -1.2237
  485SOL     OW 1453   2.074   0.562   0.907  0.6820  0.1146 -0.4465
  485SOL    HW1 1454   1.990   0.611   0.938 -2.1789 -1.1345  1.4523
  485SOL    HW2 1455   2.085   0.567   0.808  0.0651 -0.3113  0.7435
  486SOL     OW 1456   1.968   2.645   1.947  0.4124  0.0107 -0.1826
  486SOL    HW1 1457   2.070   2.666   1.949 -0.3141 -1.5021 -2.6801
  486SOL    HW2 1458   1.935   2.653   2.045 -0.2120  2.4792  0.8622
  487SOL     OW 1459   1.262   2.020   0.724 -0.1518 -0.2425  0.2349
  487SOL    HW1 1460   1.235   2.115   0.715 -1.6653 -1.3695  0.4833
  487SOL    HW2 1461   1.188   1.970   0.675  0.6840  1.8850  1.6900
  488SOL     OW 1462   1.851   0.446   0.235  0.7120  0.1544 -0.4710
  488SOL    HW1 1463   1.780   0.483   0.303 -2.3216  1.7327  0.1857
  488SOL    HW2 1464   1.949   0.464   0.265 -1.1840 -1.1203  0.8110
  489SOL     OW 1465   2.316   3.070   0.517  0.0678 -0.6791 -0.0811
  489SOL    HW1 1466   2.317   0.068   0.587  4.0298  0.7213 -0.3494
  489SOL    HW2 1467   2.335   2.976   0.558  1.6270 -3.4673  2.2862
  490SOL     OW 1468   1.583   2.744   2.859  0.1734 -0.2018  0.9106
  490SOL    HW1 1469   1.589   2.783   2.763  0.5629  0.8303 -4.3088
  490SOL    HW2 1470   1.594   2.813   2.927 -0.7381 -1.4003 -2.5670
  491SOL     OW 1471   0.800   0.510   1.129 -0.3159 -0.4264 -0.1549
  491SOL    HW1 1472   0.833   0.434   1.070 -0.4776 -0.1420 -0.9928
  491SOL    HW2 1473   0.765   0.472   1.219  0.0229 -1.3493  1.1040
  492SOL     OW 1474   1.748   0.124   0.336 -0.0481  0.0179 -0.6818
  492SOL    HW1 1475   1.655   0.087   0.322  3.2168  0.9142 -0.3679
  492SOL    HW2 1476   1.771   0.185   0.256  0.3853 -2.4757 -2.8453
  493SOL     OW 1477   1.874   2.145   2.857  0.5532  0.1837 -0.5063
  493SOL    HW1 1478   1.895   2.242   2.833  1.3009 -0.2252  0.8918
  493SOL    HW2 1479   1.915   2.134   2.946 -1.6635  0.4458 -0.0308
  494SOL     OW 1480   0.232   1.196   1.007  0.1691 -0.5346 -0.9305
  494SOL    HW1 1481   0.264   1.150   0.924  1.0008 -0.3444 -1.6016
  494SOL    HW2 1482   0.132   1.187   1.017  0.3654  0.4527 -1.4232
  495SOL     OW 1483   2.949   0.150   1.523  0.1619 -0.2558  0.3835
  495SOL    HW1 1484   2.968   0.256   1.515  0.2988  2.0453  0.4104
  495SOL    HW2 1485   3.014   0.108   1.590 -0.0832 -0.3422 -0.9606
  496SOL     OW 1486   2.565   2.553   1.906  0.7436 -0.3747 -0.6871
  496SOL    HW1 1487   2.658   2.519   1.881  0.2236  0.9659 -2.3151
  496SOL    HW2 1488   2.513   2.481   1.952  0.6393 -0.5566  1.1075
  497SOL     OW 1489   1.334   1.624   2.632 -0.4879 -0.1164  0.1840
  497SOL    HW1 1490   1.378   1.580   2.551  0.9232  0.2660 -1.5316
  497SOL    HW2 1491   1.411   1.635   2.694 -0.2664  0.1084  0.5888
  498SOL     OW 1492   0.440   1.739   0.837  0.1316 -0.0301  0.1637
  498SOL    HW1 1493   0.350   1.730   0.792  1.0068  3.0608 -1.0668
  498SOL    HW2 1494   0.509   1.749   0.757  2.4250 -2.3730 -3.5359
  499SOL     OW 1495   0.098   1.564   1.389  0.3409 -1.1142 -0.2406
  499SOL    HW1 1496   0.179   1.572   1.455  1.4428  2.3910  2.1721
  499SOL    HW2 1497   0.025   1.625   1.430  0.3161 -1.1294  1.9726
  500SOL     OW 1498   1.229   2.398   0.378  0.2592  0.1945 -0.3888
  500SOL    HW1 1499   1.299   2.356   0.315 -1.1103  0.4339  0.6572
  500SOL    HW2 1500   1.162   2.458   0.331 -0.9756 -0.7068 -1.5139
  501SOL     OW 1501   2.117   2.259   0.920 -0.2627  0.3119  0.4867
  501SOL    HW1 1502   2.186   2.306   0.980  0.5732  2.7648  1.0677
  501SOL    HW2 1503   2.154   2.195   0.850 -1.1282 -2.9710 -0.2116
  502SOL     OW 1504   0.039   0.860   1.654  0.1999 -0.1217  0.4902
  502SOL    HW1 1505   0.066   0.858   1.555 -0.1487 -0.0167 -1.3957
  502SOL    HW2 1506   0.063   0.942   1.707 -3.0134  1.8492  0.3612
  503SOL     OW 1507   2.222   0.137   1.865 -0.5046 -0.3159  0.0856
  503SOL    HW1 1508   2.148   0.110   1.801 -0.2207 -0.5072  0.8462
  503SOL    HW2 1509   2.274   0.220   1.842 -2.2839  0.3389  1.2829
  504SOL     OW 1510   1.880   0.769   1.944 -0.1909 -0.7344  0.3468
  504SOL    HW1 1511   1.851   0.807   2.033 -0.4669  1.0040  1.6075
  504SOL    HW2 1512   1.981   0.794   1.944 -1.1465  0.4225  0.6884
  505SOL     OW 1513   1.125   2.899   2.413  0.3185 -0.8126  0.4900
  505SOL    HW1 1514   1.192   2.880   2.485 -0.2799  0.4283 -3.3357
  505SOL    HW2 1515   1.088   2.810   2.379  1.3939 -0.7651 -0.9499
  506SOL     OW 1516   0.621   0.433   1.977  0.3591  0.0412  0.5466
  506SOL    HW1 1517   0.558   0.448   2.058 -2.2228 -2.3818 -0.3028
  506SOL    HW2 1518   0.571   0.416   1.893 -2.0339 -0.0936  2.4888
  507SOL     OW 1519   1.588   0.211   2.890  0.8625  0.2317  0.6366
  507SOL    HW1 1520   1.540   0.210   2.798 -0.7228 -1.3936 -4.3134
  507SOL    HW2 1521   1.517   0.196   2.964 -3.1804  0.1634 -3.1941
  508SOL     OW 1522   2.300   0.524   2.518  0.0650  0.3661  0.1837
  508SOL    HW1 1523   2.226   0.508   2.582  1.2719  1.3447  0.1728
  508SOL    HW2 1524   2.388   0.533   2.570  0.2351 -1.6197 -1.1796
  509SOL     OW 1525   0.952   1.429   1.993  0.0872  0.3054 -0.2652
  509SOL    HW1 1526   1.026   1.373   2.042 -0.4790  0.4082  2.9791
  509SOL    HW2 1527   0.951   1.526   2.027  0.2143  4.6337  1.9953
  510SOL     OW 1528   3.017   0.545   0.853 -0.0657  0.1051  0.0924
  510SOL    HW1 1529   0.019   0.594   0.893 -0.8437 -0.3045  0.2158
  510SOL    HW2 1530   2.976   0.611   0.782 -2.7070  2.6985  0.1585
  511SOL     OW 1531   1.564   1.266   0.752 -0.3526 -0.2219 -0.1832
  511SOL    HW1 1532   1.504   1.232   0.677 -0.2894  0.2925 -0.8084
  511SOL    HW2 1533   1.552   1.366   0.770 -1.4292  0.9559  1.9079
  512SOL     OW 1534   0.665   1.339   0.325 -0.3341  0.2740 -0.3982
  512SOL    HW1 1535   0.565   1.323   0.313  1.7085  2.4678  1.5603
  512SOL    HW2 1536   0.696   1.335   0.420 -2.0542 -1.4397  1.0631
  513SOL     OW 1537   0.138   2.308   0.768  0.2685  0.8953  0.1211
  513SOL    HW1 1538   0.214   2.238   0.755 -1.4129 -1.7855  1.4204
  513SOL    HW2 1539   0.122   2.359   0.680 -2.1706  2.7209 -1.0125
  514SOL     OW 1540   0.350   2.037   0.162  0.3620 -0.7652 -0.4360
  514SOL    HW1 1541   0.253   2.003   0.157  1.3763  1.5114 -0.8916
  514SOL    HW2 1542   0.409   1.988   0.093  1.1763  0.9406  0.3183
  515SOL     OW 1543   2.806   0.294   0.183  0.0926 -0.3908  0.4790
  515SOL    HW1 1544   2.737   0.218   0.197  0.5176  2.4166  0.3184
  515SOL    HW2 1545   2.854   0.312   0.272 -1.4248  0.0593  0.2093
  516SOL     OW 1546   1.915   2.751   1.085  0.6907 -0.4027 -0.4662
  516SOL    HW1 1547   1.966   2.740   1.173  0.4318 -1.6160  0.7183
  516SOL    HW2 1548   1.827   2.700   1.090 -0.9201 -2.4075  1.7857
  517SOL     OW 1549   1.426   1.634   0.142  0.5152 -0.4328 -0.4273
  517SOL    HW1 1550   1.360   1.602   0.208  2.4181  0.0354 -0.4045
  517SOL    HW2 1551   1.394   1.608   0.045  0.4050 -1.0218  1.1926
  518SOL     OW 1552   1.316   0.559   1.359  0.3293 -0.1715 -0.0162
  518SOL    HW1 1553   1.329   0.611   1.274 -3.4270 -1.3002 -0.2490
  518SOL    HW2 1554   1.237   0.597   1.408  1.1868 -1.0657 -0.7774
  519SOL     OW 1555   2.959   1.910   0.687  0.0120 -0.9315 -0.2379
  519SOL    HW1 1556   3.004   1.950   0.768 -1.3403  1.2192 -4.7256
  519SOL    HW2 1557   2.863   1.945   0.680 -0.9601 -0.3580  0.1784
  520SOL     OW 1558   2.267   2.418   1.766 -0.4902 -0.1886  0.1707
  520SOL    HW1 1559   2.340   2.459   1.707 -0.7774  2.1533  0.8993
  520SOL    HW2 1560   2.231   2.489   1.834 -0.5840  0.4091  1.4417
  521SOL     OW 1561   1.274   2.800   2.629 -0.0955 -0.0603 -0.0332
  521SOL    HW1 1562   1.284   2.698   2.626 -0.4144 -0.1096  0.3935
  521SOL    HW2 1563   1.236   2.833   2.716  1.5992 -1.1438  0.5736
  522SOL     OW 1564   2.797   0.087   1.924  0.1049 -0.2518  0.7276
  522SOL    HW1 1565   2.899   0.102   1.935  1.2055  1.9153 -0.0738
  522SOL    HW2 1566   2.760   0.134   1.840 -1.0559 -0.6419 -2.1267
  523SOL     OW 1567   1.171   2.183   1.752 -0.3314 -0.2826  0.3451
  523SOL    HW1 1568   1.204   2.152   1.846  0.1337 -2.8081  0.8799
  523SOL    HW2 1569   1.147   2.102   1.700  1.8626  2.6589 -0.8556
  524SOL     OW 1570   2.128   2.253   0.173 -0.1023  0.2814 -0.3467
  524SOL    HW1 1571   2.184   2.334   0.158  0.0294 -1.5269 -0.3886
  524SOL    HW2 1572   2.131   2.193   0.090  0.2343  1.5818  1.1209
  525SOL     OW 1573   2.883   0.956   0.284 -0.0341 -0.5457 -0.3440
  525SOL    HW1 1574   2.985   0.939   0.265  1.8159  1.8817  0.6476
  525SOL    HW2 1575   2.833   0.869   0.301  0.0853 -3.0191  1.2534
  526SOL     OW 1576   1.159   3.049   1.218 -0.3777 -0.4761  0.2261
  526SOL    HW1 1577   1.089   3.049   1.149  3.0911 -1.3267  1.4642
  526SOL    HW2 1578   1.190   2.950   1.226  1.0742  1.2049  0.4454
  527SOL     OW 1579   2.640   1.448   0.610 -0.0002  0.3881  0.0123
  527SOL    HW1 1580   2.628   1.518   0.681  1.9323 -0.2761 -0.1649
  527SOL    HW2 1581   2.709   1.479   0.539  2.8474 -0.6773 -2.3987
  528SOL     OW 1582   0.424   0.951   2.553  0.2328 -0.2733  1.0195
  528SOL    HW1 1583   0.500   1.012   2.545 -1.3862 -4.4723  1.6350
  528SOL    HW2 1584   0.395   0.912   2.464  0.5062 -0.6064  0.9168
  529SOL     OW 1585   0.746   1.596   2.961 -0.0001 -0.2352 -0.0546
  529SOL    HW1 1586   0.831   1.537   2.950  3.7645 -0.3036 -0.8199
  529SOL    HW2 1587   0.671   1.573   2.893 -1.1724 -2.4896 -2.0431
  530SOL     OW 1588   1.740   1.230   2.062 -0.0769  0.3219 -0.5611
  530SOL    HW1 1589   1.723   1.171   1.980 -0.3366  0.4188  0.5001
  530SOL    HW2 1590   1.804   1.182   2.125 -1.1891 -3.5438 -0.4321
  531SOL     OW 1591   0.858   2.207   2.736  0.3190 -0.1816 -0.3290
  531SOL    HW1 1592   0.786   2.142   2.772 -1.6164 -0.1830  1.9415
  531SOL    HW2 1593   0.887   2.274   2.809 -1.3294  0.5070  2.0631
  532SOL     OW 1594   2.374   0.565   0.270  0.1753  0.3478 -0.3280
  532SOL    HW1 1595   2.364   0.639   0.201  0.4199 -0.8661  1.2619
  532SOL    HW2 1596   2.455   0.509   0.246  0.0553 -2.1865  1.1846
  533SOL     OW 1597   0.100   0.550   1.714  0.3147  0.1819 -0.1763
  533SOL    HW1 1598   0.153   0.595   1.644  1.1302 -3.8844  1.0213
  533SOL    HW2 1599   0.021   0.607   1.746 -1.7005  2.2607  0.5891
  534SOL     OW 1600   1.793   0.379   2.876 -0.1258  0.5173  0.4384
  534SOL    HW1 1601   1.710   0.322   2.896 -0.6882 -0.4850 -1.4380
  534SOL    HW2 1602   1.875   0.330   2.914 -0.2123 -1.7440 -1.0365
  535SOL     OW 1603   0.875   0.274   0.279  0.0942 -0.0482 -0.1724
  535SOL    HW1 1604   0.940   0.225   0.218  1.7855  1.5207 -0.4666
  535SOL    HW2 1605   0.783   0.283   0.233 -1.2877  2.8963  0.1436
  536SOL     OW 1606   0.448   1.621   2.135  0.0123 -0.0471  0.4541
  536SOL    HW1 1607   0.519   1.687   2.173 -0.3577  1.3418 -0.1139
  536SOL    HW2 1608   0.442   1.535   2.191 -0.7589  1.8378  2.3369
  537SOL     OW 1609   0.525   2.362   1.730 -0.0414 -0.6430  0.0611
  537SOL    HW1 1610   0.516   2.308   1.644  1.8275  0.0904 -0.3505
  537SOL    HW2 1611   0.437   2.383   1.778 -2.2342  0.2840 -1.5419
  538SOL     OW 1612   0.105   1.950   0.183  0.1087  0.2754  0.3389
  538SOL    HW1 1613   0.138   1.857   0.157 -2.3738  0.9494  1.7576
  538SOL    HW2 1614   0.070   1.957   0.279 -0.5249 -0.1277 -1.3265
  539SOL     OW 1615   2.542   0.432   2.939 -0.4062  0.2000 -0.3518
  539SOL    HW1 1616   2.478   0.356   2.960  1.5036  0.6576 -0.4100
  539SOL    HW2 1617   2.631   0.402   2.901  0.4968  1.4788 -0.5213
  540SOL     OW 1618   1.415   0.996   0.013  0.2568  0.7256 -0.1078
  540SOL    HW1 1619   1.459   0.993   2.995  0.0630 -0.8420 -0.8609
  540SOL    HW2 1620   1.454   1.072   0.069  0.6319 -1.3151 -1.2039
  541SOL     OW 1621   0.743   0.630   1.724 -0.1998  0.5675 -0.3600
  541SOL    HW1 1622   0.785   0.656   1.812  0.4764 -2.3076  1.7705
  541SOL    HW2 1623   0.644   0.645   1.744 -1.2855  2.5593 -1.2156
  542SOL     OW 1624   1.972   2.446   2.319  0.0801 -0.3178  0.6754
  542SOL    HW1 1625   1.897   2.397   2.259 -1.8135 -1.5378 -0.6262
  542SOL    HW2 1626   2.057   2.390   2.318 -0.3495  1.2245  0.9640
  543SOL     OW 1627   0.631   2.848   1.102 -0.3797 -0.1856  0.3279
  543SOL    HW1 1628   0.566   2.860   1.026  0.3583 -1.2016  1.6513
  543SOL    HW2 1629   0.615   2.920   1.169  0.2973  0.6534 -1.9309
  544SOL     OW 1630   2.889   1.491   2.262 -0.0153 -0.3340  0.7131
  544SOL    HW1 1631   2.875   1.386   2.259 -1.2860 -3.6585 -1.0473
  544SOL    HW2 1632   2.883   1.523   2.358 -1.1482  0.4786  2.0608
  545SOL     OW 1633   1.773   2.089   1.473  0.2615  0.0680  0.1084
  545SOL    HW1 1634   1.835   2.023   1.526 -1.3318  0.2188  1.1268
  545SOL    HW2 1635   1.713   2.032   1.412  0.9782 -0.9030 -2.7062
  546SOL     OW 1636   0.143   0.388   2.375  0.2330 -0.3363  0.6712
  546SOL    HW1 1637   0.097   0.313   2.319 -0.4203  0.6000 -1.9941
  546SOL    HW2 1638   0.195   0.358   2.458 -0.4835 -2.9464  2.2940
  547SOL     OW 1639   1.415   0.435   0.716 -0.1791  0.0455 -0.3883
  547SOL    HW1 1640   1.482   0.379   0.769  1.5317  0.0106 -0.1862
  547SOL    HW2 1641   1.323   0.418   0.754  0.0599  0.4715 -0.7150
  548SOL     OW 1642   1.284   2.202   2.746 -0.5385  0.1057  0.3186
  548SOL    HW1 1643   1.226   2.201   2.829 -2.1204 -0.5554 -0.2137
  548SOL    HW2 1644   1.371   2.248   2.767 -2.0514 -0.7810  1.2684
  549SOL     OW 1645   2.181   0.758   2.850  0.0575  0.1712 -0.4650
  549SOL    HW1 1646   2.271   0.725   2.881 -1.8464 -1.3968 -1.3549
  549SOL    HW2 1647   2.195   0.824   2.770 -0.3708  3.6689 -1.8373
  550SOL     OW 1648   2.666   2.052   0.349 -0.1011 -0.3405 -0.1265
  550SOL    HW1 1649   2.586   2.117   0.335  0.6586 -1.6872 -3.4493
  550SOL    HW2 1650   2.677   1.981   0.278  1.9569  2.6703  4.2633
  551SOL     OW 1651   1.190   3.034   2.177 -0.1283 -0.0127 -0.0648
  551SOL    HW1 1652   1.259   2.984   2.120  0.6424  1.2507  1.1275
  551SOL    HW2 1653   1.177   2.986   2.267 -1.9115 -2.0003  0.2937
  552SOL     OW 1654   3.008   2.097   2.619  0.0686 -0.4814  0.5310
  552SOL    HW1 1655   2.954   2.091   2.537 -1.0877  2.1708  3.5098
  552SOL    HW2 1656   2.959   2.150   2.691  0.6487 -2.2072  2.1091
  553SOL     OW 1657   2.876   2.644   1.251  0.1984  0.1423  0.1245
  553SOL    HW1 1658   2.933   2.713   1.205  1.7199 -0.5459 -1.4747
  553SOL    HW2 1659   2.916   2.614   1.342  0.3093  0.0975 -0.0062
  554SOL     OW 1660   2.286   1.845   1.919  0.2888  0.9129  0.2833
  554SOL    HW1 1661   2.227   1.914   1.967 -0.4655  1.1516  0.4030
  554SOL    HW2 1662   2.273   1.869   1.822  0.3898 -1.6954 -0.1254
  555SOL     OW 1663   1.520   1.944   2.025 -0.5213  0.4339  0.1514
  555SOL    HW1 1664   1.509   1.878   1.949 -1.2457  2.0351 -0.1650
  555SOL    HW2 1665   1.490   2.041   2.003  0.0808  0.5938  1.9918
  556SOL     OW 1666   1.409   1.724   1.070 -0.6344  0.5118  0.0110
  556SOL    HW1 1667   1.360   1.658   1.127 -1.4925 -1.8875 -1.0974
  556SOL    HW2 1668   1.413   1.813   1.114  0.4184  0.8138 -2.3815
  557SOL     OW 1669   1.230   2.969   1.598 -0.3004  0.0272 -0.0191
  557SOL    HW1 1670   1.294   3.007   1.669 -2.5118  0.1975 -0.2231
  557SOL    HW2 1671   1.260   2.875   1.566  0.0980 -0.7686  0.2802
  558SOL     OW 1672   0.594   3.072   1.861 -0.9204 -0.1635 -0.4516
  558SOL    HW1 1673   0.520   3.069   1.930  1.4817  1.4364  1.6718
  558SOL    HW2 1674   0.566   3.013   1.781  2.0201  0.0928 -0.7020
  559SOL     OW 1675   2.210   2.655   0.310  0.5013 -0.0205  0.3484
  559SOL    HW1 1676   2.131   2.714   0.333  1.5433  2.0820 -0.3969
  559SOL    HW2 1677   2.262   2.630   0.393 -0.3005 -1.5313  1.1360
  560SOL     OW 1678   1.488   2.405   0.545 -0.1555  0.4200 -0.4525
  560SOL    HW1 1679   1.413   2.384   0.483  0.9141 -0.9331  1.0038
  560SOL    HW2 1680   1.540   2.322   0.567  1.2008  1.5888 -3.5240
  561SOL     OW 1681   1.224   0.442   2.932  0.2380  0.6080  0.2888
  561SOL    HW1 1682   1.145   0.483   2.888 -1.3775 -2.6901  1.3326
  561SOL    HW2 1683   1.244   0.492   3.015  1.3083  0.5936  4.2174
  562SOL     OW 1684   0.430   1.399   2.300  0.1388  0.5708 -0.0322
  562SOL    HW1 1685   0.391   1.314   2.338 -1.7174 -0.3533  2.1198
  562SOL    HW2 1686   0.497   1.440   2.367  0.0884 -0.8371 -0.4551
  563SOL     OW 1687   1.337   2.096   2.516  0.1351  0.0342  0.0969
  563SOL    HW1 1688   1.304   2.138   2.604 -0.5368  1.3492  1.7865
  563SOL    HW2 1689   1.433   2.128   2.490 -1.4074  3.7205 -0.5606
  564SOL     OW 1690   3.032   0.953   0.939 -0.0362  0.3507 -0.3008
  564SOL    HW1 1691   2.952   0.896   0.912 -1.4093  1.2815  0.7230
  564SOL    HW2 1692   3.020   1.048   0.987  1.7832  2.1267  2.1582
  565SOL     OW 1693   0.452   0.879   3.057 -0.2613  0.0255 -0.6682
  565SOL    HW1 1694   0.409   0.810   2.993 -0.5664  3.2539 -1.9436
  565SOL    HW2 1695   0.548   0.854   0.006 -1.5620  1.8352  0.3492
  566SOL     OW 1696   2.568   2.817   2.467  0.2303 -0.1385 -0.3743
  566SOL    HW1 1697   2.606   2.899   2.421 -0.8344 -2.0808 -2.2028
  566SOL    HW2 1698   2.483   2.840   2.526 -1.7868 -0.4166  1.0186
  567SOL     OW 1699   1.496   1.212   1.016  0.1637 -0.0017 -1.1064
  567SOL    HW1 1700   1.540   1.222   0.930 -2.4066  1.2052  0.7370
  567SOL    HW2 1701   1.555   1.247   1.090 -0.1371  1.6608  1.5765
  568SOL     OW 1702   1.505   1.439   2.768  0.0344  0.0213 -0.1601
  568SOL    HW1 1703   1.412   1.426   2.728 -1.9007 -0.4456  0.5364
  568SOL    HW2 1704   1.506   1.427   2.871 -0.7050 -0.7446 -2.8169
  569SOL     OW 1705   2.273   1.325   0.018 -0.0920  0.7498  0.2400
  569SOL    HW1 1706   2.345   1.382   3.056 -1.0733 -2.5686 -2.2368
  569SOL    HW2 1707   2.180   1.342   3.061  1.6161 -1.0083  0.1786
  570SOL     OW 1708   0.116   2.191   1.836 -0.4743  0.4702  0.1985
  570SOL    HW1 1709   0.124   2.294   1.833  0.3583 -0.0672 -1.8166
  570SOL    HW2 1710   0.191   2.151   1.783 -3.3918  0.6266  1.4489
  571SOL     OW 1711   2.691   1.740   1.518 -0.6254  0.0693 -0.2674
  571SOL    HW1 1712   2.674   1.800   1.443  0.2953 -0.2759  1.7000
  571SOL    HW2 1713   2.654   1.771   1.609  0.8001  2.9590 -0.0629
  572SOL     OW 1714   1.928   2.372   0.304 -0.3019  0.3852  0.3226
  572SOL    HW1 1715   1.894   2.454   0.253  2.1276  2.9378 -0.4421
  572SOL    HW2 1716   1.992   2.311   0.248 -1.1309 -2.1500  2.0363
  573SOL     OW 1717   1.517   2.066   0.342 -0.4364  0.2100 -0.1563
  573SOL    HW1 1718   1.613   2.102   0.335  0.5188  2.4842 -1.3789
  573SOL    HW2 1719   1.501   2.017   0.430  0.1998  1.5225 -3.6890
  574SOL     OW 1720   1.282   0.098   1.430  0.0513 -0.1802  0.2343
  574SOL    HW1 1721   1.254   0.027   1.495 -0.3506  3.9375  0.0044
  574SOL    HW2 1722   1.246   0.072   1.340  1.2938 -0.0431 -0.3416
  575SOL     OW 1723   0.644   1.245   1.536  0.8606  0.1970 -0.0169
  575SOL    HW1 1724   0.632   1.282   1.633  1.4779 -0.1500  2.6653
  575SOL    HW2 1725   0.743   1.227   1.525 -0.0581 -0.5794  0.2658
  576SOL     OW 1726   2.442   0.558   1.552  0.7557 -0.5012  0.4647
  576SOL    HW1 1727   2.435   0.471   1.500  0.0430  0.3559 -3.2515
  576SOL    HW2 1728   2.539   0.591   1.558  0.7799  0.7953 -0.0891
  577SOL     OW 1729   1.558   1.067   2.304 -0.1363 -1.0102 -0.1706
  577SOL    HW1 1730   1.606   1.004   2.367  0.3418  1.3995 -2.1154
  577SOL    HW2 1731   1.520   1.020   2.219  0.7520  0.2085 -0.8943
  578SOL     OW 1732   2.096   1.165   2.651  0.2786  0.8203  0.3474
  578SOL    HW1 1733   2.149   1.233   2.706 -1.3980  1.0115 -0.1207
  578SOL    HW2 1734   2.110   1.185   2.551 -3.2136  0.9288  0.5315
  579SOL     OW 1735   1.154   1.967   1.537  0.4841 -0.2650 -0.2330
  579SOL    HW1 1736   1.070   1.954   1.483  0.8260 -1.1967 -1.3987
  579SOL    HW2 1737   1.226   1.991   1.471  0.1130  0.9979  0.0204
  580SOL     OW 1738   1.411   2.267   0.196  0.5047 -0.1672 -1.1611
  580SOL    HW1 1739   1.490   2.291   0.139 -1.9192  1.5525  4.1841
  580SOL    HW2 1740   1.435   2.190   0.257  0.6498 -0.4161  2.2819
  581SOL     OW 1741   1.003   0.851   1.989 -0.0956 -0.5000 -0.3121
  581SOL    HW1 1742   0.933   0.779   2.019  0.1259 -0.3037  0.9804
  581SOL    HW2 1743   1.073   0.874   2.057 -0.6254  0.3642 -0.7214
  582SOL     OW 1744   0.888   1.141   1.403 -0.4199 -0.1318  0.5141
  582SOL    HW1 1745   0.920   1.066   1.342  1.5219 -1.3400 -0.0072
  582SOL    HW2 1746   0.973   1.192   1.432 -0.5796  1.7417  0.2244
  583SOL     OW 1747   0.870   1.079   2.091  0.0240  0.4114  0.1123
  583SOL    HW1 1748   0.910   1.005   2.039  1.8880  2.1227 -2.1818
  583SOL    HW2 1749   0.911   1.164   2.055  1.2115 -0.5386 -2.6432
  584SOL     OW 1750   2.348   2.387   0.704 -0.3452 -0.1791  0.3234
  584SOL    HW1 1751   2.443   2.348   0.700 -5.0295 -0.0197  0.4002
  584SOL    HW2 1752   2.282   2.313   0.710  0.5155 -0.6377 -0.6777
  585SOL     OW 1753   1.826   0.065   2.964  0.5677  0.2122  0.0686
  585SOL    HW1 1754   1.732   0.094   2.980  2.4241  0.5411 -2.5646
  585SOL    HW2 1755   1.849   0.099   2.875 -1.8763 -2.2618  2.1677
  586SOL     OW 1756   0.054   1.997   0.890 -0.0426 -0.4294  0.2172
  586SOL    HW1 1757   0.080   1.903   0.923  0.2359 -0.4824 -1.4572
  586SOL    HW2 1758   0.013   2.052   0.964  2.3060 -0.9814  0.5157
  587SOL     OW 1759   1.736   2.189   0.275 -0.4271  0.2951 -0.1333
  587SOL    HW1 1760   1.799   2.257   0.313 -0.8453  0.2929  0.9705
  587SOL    HW2 1761   1.701   2.225   0.185  0.7259  0.1415 -0.2410
  588SOL     OW 1762   0.100   0.129   0.894 -0.0118 -0.3340 -0.0507
  588SOL    HW1 1763   0.035   0.205   0.913  0.8225  0.3726  2.6124
  588SOL    HW2 1764   0.164   0.158   0.820  2.7125 -2.1450 -0.2498
  589SOL     OW 1765   1.292   1.049   1.035  0.5063 -0.2417  0.1406
  589SOL    HW1 1766   1.313   0.962   0.987  0.6638  0.4312 -2.3202
  589SOL    HW2 1767   1.360   1.127   1.018  0.1697  1.4777 -0.0567
  590SOL     OW 1768   1.401   1.317   0.071 -0.2815 -0.2850  0.2800
  590SOL    HW1 1769   1.383   1.389   0.139  2.1160 -1.1398 -1.3998
  590SOL    HW2 1770   1.316   1.301   0.015 -0.6669  0.8858 -0.4384
  591SOL     OW 1771   2.534   2.348   2.434 -0.3946  0.3308 -0.2111
  591SOL    HW1 1772   2.557   2.371   2.529  1.2083 -2.3594 -0.0141
  591SOL    HW2 1773   2.544   2.435   2.380  1.7129 -0.0077 -0.9329
  592SOL     OW 1774   1.572   2.262   1.590  0.0544  0.1301  0.3042
  592SOL    HW1 1775   1.477   2.240   1.568  4.6001 -1.1459  2.0156
  592SOL    HW2 1776   1.625   2.178   1.554 -0.5770  1.8340  1.3660
  593SOL     OW 1777   0.849   0.109   0.953  0.6233  0.6488  0.0888
  593SOL    HW1 1778   0.809   0.117   1.046 -1.3810 -3.7770 -3.0477
  593SOL    HW2 1779   0.923   0.042   0.937  1.2226 -1.3342 -0.1471
  594SOL     OW 1780   2.815   0.643   2.345 -0.1464  0.6582 -0.5483
  594SOL    HW1 1781   2.825   0.693   2.437 -0.6639  0.8002  0.7543
  594SOL    HW2 1782   2.827   0.545   2.353 -0.3789  1.9396  0.2117
  595SOL     OW 1783   0.757   2.613   1.122 -0.6132 -0.0664  0.1113
  595SOL    HW1 1784   0.719   2.710   1.121 -0.2521 -0.4992  1.5283
  595SOL    HW2 1785   0.695   2.542   1.157  3.3378  0.1418 -1.6125
  596SOL     OW 1786   0.078   0.809   1.398 -0.1605  0.1363 -0.1098
  596SOL    HW1 1787   0.117   0.817   1.303  0.9399 -1.1801  2.3998
  596SOL    HW2 1788   3.059   0.845   1.412  0.0060 -0.8164  0.5850
  597SOL     OW 1789   1.748   1.941   0.057  0.0387 -0.1862  0.0495
  597SOL    HW1 1790   1.699   1.944   3.037 -0.6879 -1.6106 -0.1645
  597SOL    HW2 1791   1.697   2.003   0.126 -1.5479  0.3636 -1.1189
  598SOL     OW 1792   0.453   2.879   1.679  0.0438  0.1553 -0.1087
  598SOL    HW1 1793   0.520   2.858   1.605  0.6157 -1.0606  0.3507
  598SOL    HW2 1794   0.406   2.966   1.662 -0.2058 -0.6850  0.6088
  599SOL     OW 1795   2.411   1.639   2.807  0.1290 -0.4932  0.1204
  599SOL    HW1 1796   2.325   1.673   2.766  3.7319 -1.3783  1.5949
  599SOL    HW2 1797   2.488   1.677   2.764 -3.3634  2.1606 -1.5471
  600SOL     OW 1798   0.816   0.986   0.201  0.1971 -0.2451  0.7292
  600SOL    HW1 1799   0.795   0.968   0.298  1.6603 -1.3455 -0.5662
  600SOL    HW2 1800   0.780   1.076   0.174 -1.5095 -2.3700  0.2180
  601SOL     OW 1801   0.500   0.701   0.835 -0.0239 -0.1811  0.2701
  601SOL    HW1 1802   0.571   0.777   0.831  2.2416  0.4913  2.2400
  601SOL    HW2 1803   0.504   0.653   0.927 -0.2548  0.1239  0.8084
  602SOL     OW 1804   1.351   0.106   0.920 -0.1498 -0.0526 -0.0108
  602SOL    HW1 1805   1.300   0.184   0.875 -0.9487 -2.2551  2.2967
  602SOL    HW2 1806   1.449   0.113   0.887  3.5694  1.3066 -0.8678
  603SOL     OW 1807   0.731   2.874   2.161  0.1481 -0.4208  0.0236
  603SOL    HW1 1808   0.813   2.930   2.138  0.7706  0.4218  0.3440
  603SOL    HW2 1809   0.700   2.828   2.077 -0.4464  3.8035  2.8042
  604SOL     OW 1810   3.066   2.860   2.516  0.7827 -0.4917  0.0098
  604SOL    HW1 1811   0.016   2.885   2.423 -2.3027  0.0942  0.9486
  604SOL    HW2 1812   3.057   2.757   2.515 -2.3788 -0.3793 -1.9090
  605SOL     OW 1813   2.556   1.695   1.263 -0.0739 -0.0392 -0.0477
  605SOL    HW1 1814   2.571   1.644   1.354  2.9357 -0.0594  0.9703
  605SOL    HW2 1815   2.640   1.688   1.213  0.6314 -0.3619  0.0613
  606SOL     OW 1816   0.547   1.499   2.810  0.5591 -0.3002  0.5312
  606SOL    HW1 1817   0.487   1.581   2.794  0.0290  0.0098  1.8928
  606SOL    HW2 1818   0.485   1.419   2.823 -1.1713 -0.9072  0.1934
  607SOL     OW 1819   0.850   0.207   0.560 -0.0997 -0.3660 -0.8755
  607SOL    HW1 1820   0.852   0.216   0.460  0.3003 -1.1170 -0.6194
  607SOL    HW2 1821   0.948   0.207   0.595  0.1594 -0.3357  3.6571
  608SOL     OW 1822   1.830   1.473   2.165  0.2457  0.0349  0.3005
  608SOL    HW1 1823   1.792   1.381   2.127 -1.5368  0.0745  0.6348
  608SOL    HW2 1824   1.795   1.553   2.111  1.4985 -0.6324 -1.4064
  609SOL     OW 1825   2.782   0.155   0.909  0.3226 -0.1203 -0.6524
  609SOL    HW1 1826   2.718   0.100   0.966  1.8668 -2.0202  0.4832
  609SOL    HW2 1827   2.831   0.225   0.963  0.9459 -0.9705 -0.8546
  610SOL     OW 1828   0.456   2.652   0.856 -0.7727 -0.2440  0.1305
  610SOL    HW1 1829   0.504   2.667   0.766 -0.2047  0.1543 -2.8745
  610SOL    HW2 1830   0.451   2.735   0.914 -0.2108  0.4031  1.6505
  611SOL     OW 1831   1.781   0.915   3.017 -0.3736 -0.2331 -0.1805
  611SOL    HW1 1832   1.877   0.941   2.993 -0.7323  2.8374  0.5452
  611SOL    HW2 1833   1.770   0.902   0.043  0.7641  2.6665  1.6085
  612SOL     OW 1834   0.878   2.077   2.066 -0.4809 -0.0576  0.1318
  612SOL    HW1 1835   0.883   2.063   2.166 -0.8876  0.1999 -3.1515
  612SOL    HW2 1836   0.908   2.173   2.040 -0.3526  2.4136  0.7651
  613SOL     OW 1837   0.714   2.657   0.440  0.3844 -0.2427  0.3053
  613SOL    HW1 1838   0.787   2.595   0.474  1.0097 -0.8710 -1.6040
  613SOL    HW2 1839   0.677   2.620   0.353  1.3538  0.6981  0.9255
  614SOL     OW 1840   2.739   2.788   1.464 -0.5328 -0.4194 -0.6087
  614SOL    HW1 1841   2.775   2.743   1.377  3.0526 -0.4829 -2.1423
  614SOL    HW2 1842   2.798   2.758   1.543 -0.5769 -2.0208  1.1359
  615SOL     OW 1843   2.058   1.120   0.392  0.1689 -0.1363 -0.0303
  615SOL    HW1 1844   1.974   1.098   0.443  2.0570  0.3367  0.1555
  615SOL    HW2 1845   2.105   1.033   0.356  2.4483 -1.1325  0.5009
  616SOL     OW 1846   1.711   0.540   0.490 -0.2302 -0.3970 -0.1330
  616SOL    HW1 1847   1.617   0.576   0.520  0.9435  0.0443  1.5773
  616SOL    HW2 1848   1.717   0.440   0.519 -1.7762  1.6344  0.8804
  617SOL     OW 1849   1.058   1.050   2.965 -0.0162 -0.0170  0.7271
  617SOL    HW1 1850   1.085   1.003   3.052  0.1341 -1.1486  1.6118
  617SOL    HW2 1851   0.970   1.010   2.931 -2.4702  0.2874 -3.3509
  618SOL     OW 1852   0.742   0.221   1.847 -0.2251 -0.0652  0.0053
  618SOL    HW1 1853   0.695   0.130   1.844  3.2014  2.0006 -1.3707
  618SOL    HW2 1854   0.704   0.278   1.920 -2.1242  2.0894  0.9471
  619SOL     OW 1855   2.945   0.993   1.402  0.3184  0.2198  0.2945
  619SOL    HW1 1856   2.985   1.082   1.407  0.0553 -2.3798  0.7532
  619SOL    HW2 1857   2.903   0.970   1.491  1.1185  0.7766  0.0270
  620SOL     OW 1858   2.387   1.098   2.804 -0.4659  0.2581  0.1687
  620SOL    HW1 1859   2.340   1.025   2.755  1.3616  2.1349 -0.3476
  620SOL    HW2 1860   2.341   1.187   2.790 -2.3282 -4.3352 -2.3903
  621SOL     OW 1861   2.543   2.505   1.357  0.0762  0.3424  0.2608
  621SOL    HW1 1862   2.540   2.586   1.297  1.3545 -0.9486  1.7307
  621SOL    HW2 1863   2.597   2.429   1.327 -2.6318  2.9000  0.7146
  622SOL     OW 1864   1.018   0.743   2.664 -0.3373 -0.2119 -0.2270
  622SOL    HW1 1865   1.024   0.707   2.566  0.6942  0.7308 -0.1203
  622SOL    HW2 1866   1.100   0.804   2.682 -0.1989 -0.0457 -2.1959
  623SOL     OW 1867   0.964   0.604   2.887  0.0190  0.0222  0.1459
  623SOL    HW1 1868   0.915   0.519   2.876  1.3869  2.5763 -0.5644
  623SOL    HW2 1869   0.965   0.658   2.797 -1.5412 -1.4792 -0.2234
  624SOL     OW 1870   2.082   0.674   0.014  0.0725 -0.1396 -0.1908
  624SOL    HW1 1871   2.087   0.719   2.996 -0.7097  2.0882 -2.8230
  624SOL    HW2 1872   2.060   0.571   0.012  2.0347  0.7056  1.8563
  625SOL     OW 1873   1.147   1.304   0.959 -0.5607  0.1360  0.1387
  625SOL    HW1 1874   1.205   1.221   0.973  2.9453 -0.9922  1.2581
  625SOL    HW2 1875   1.205   1.386   0.970  1.1008 -0.0390  3.3689
  626SOL     OW 1876   1.620   1.070   2.884  0.2769  0.1680 -0.0728
  626SOL    HW1 1877   1.672   1.156   2.898 -0.7753 -0.5336 -1.6613
  626SOL    HW2 1878   1.677   0.996   2.930 -2.1378  0.9666 -0.1079
  627SOL     OW 1879   1.024   0.082   2.492 -0.4144  0.1858  0.0930
  627SOL    HW1 1880   1.062   3.064   2.485 -1.8681 -0.9252 -1.7933
  627SOL    HW2 1881   1.016   0.118   2.592  1.2820  1.4453 -1.1543
  628SOL     OW 1882   2.647   3.057   2.366 -0.4992  0.4090 -0.2939
  628SOL    HW1 1883   2.597   0.018   2.445  1.7836 -0.1277  0.5097
  628SOL    HW2 1884   2.633   0.031   2.282  0.2689 -0.9307  1.2015
  629SOL     OW 1885   0.840   0.876   2.805  0.0391  0.2286 -0.7079
  629SOL    HW1 1886   0.917   0.832   2.753  1.3995 -1.2501  2.2370
  629SOL    HW2 1887   0.819   0.818   2.886 -0.4224  0.2737 -3.8410
  630SOL     OW 1888   1.079   0.374   2.008 -0.1027 -0.2280  0.4678
  630SOL    HW1 1889   1.012   0.393   2.081 -0.5964 -0.3381 -2.2542
  630SOL    HW2 1890   1.159   0.321   2.043 -2.0461 -1.9961 -0.5862
  631SOL     OW 1891   2.991   0.726   0.589 -0.6813  0.2143 -0.1724
  631SOL    HW1 1892   2.916   0.688   0.533  0.3652 -0.9105  0.2868
  631SOL    HW2 1893   0.003   0.730   0.539 -0.1071  1.1647 -0.2696
  632SOL     OW 1894   2.068   0.940   1.310  0.5596  0.3755  0.4839
  632SOL    HW1 1895   1.982   0.929   1.362 -1.5547 -0.8901  2.8051
  632SOL    HW2 1896   2.085   0.874   1.235 -0.6040 -0.1809 -0.3059
  633SOL     OW 1897   1.317   0.848   0.863 -0.1250  0.3764 -0.6180
  633SOL    HW1 1898   1.257   0.771   0.893 -2.8095 -2.5960 -0.3051
  633SOL    HW2 1899   1.415   0.831   0.885  0.1339  0.9960 -0.4403
  634SOL     OW 1900   1.921   3.032   1.087 -1.1415 -0.0899  0.1690
  634SOL    HW1 1901   2.019   3.067   1.062  4.7913  1.2210  0.4579
  634SOL    HW2 1902   1.909   2.937   1.057 -2.8597  2.2869  1.7897
  635SOL     OW 1903   1.563   0.790   1.008  0.0614 -0.8745  0.6867
  635SOL    HW1 1904   1.628   0.790   0.932 -0.8601  1.9093  1.2166
  635SOL    HW2 1905   1.613   0.812   1.089 -2.0123  0.8183 -0.0495
  636SOL     OW 1906   0.937   0.986   0.645  0.2520 -0.1228 -0.2843
  636SOL    HW1 1907   0.881   1.028   0.719  2.0110 -2.0028  1.6538
  636SOL    HW2 1908   1.033   1.027   0.651 -2.0350  0.9518 -1.6708
  637SOL     OW 1909   2.470   2.151   0.058  0.0403 -0.8798 -0.2637
  637SOL    HW1 1910   2.531   2.071   0.042  1.1652 -0.7110 -0.3900
  637SOL    HW2 1911   2.400   2.150   3.058 -2.0344  0.1134  1.2473
  638SOL     OW 1912   1.365   2.540   2.551  0.2354  0.1988 -0.4453
  638SOL    HW1 1913   1.324   2.521   2.461  1.2934 -0.8022  0.3601
  638SOL    HW2 1914   1.391   2.452   2.603 -0.8902 -1.1593 -0.7581
  639SOL     OW 1915   0.911   2.198   1.213 -0.2087  0.3818 -0.3263
  639SOL    HW1 1916   0.924   2.285   1.158  0.0248  0.7604  0.4821
  639SOL    HW2 1917   0.968   2.120   1.188 -0.9621  1.8549  0.6222
  640SOL     OW 1918   2.904   2.852   0.456 -0.2592  0.3787 -0.9867
  640SOL    HW1 1919   2.896   2.908   0.368 -1.8695 -0.5175  0.8791
  640SOL    HW2 1920   2.816   2.804   0.480 -2.3075 -0.4368  0.3968
  641SOL     OW 1921   0.603   0.307   0.175 -0.9254 -0.1803 -0.3657
  641SOL    HW1 1922   0.541   0.336   0.251 -0.1116 -0.4097  0.8165
  641SOL    HW2 1923   0.566   0.336   0.086  2.4633 -0.5413  1.6841
  642SOL     OW 1924   2.832   0.636   1.097  0.2636 -0.0466 -0.5391
  642SOL    HW1 1925   2.879   0.659   1.008  1.1807  0.8503 -1.4945
  642SOL    HW2 1926   2.750   0.579   1.077  0.0784  0.8975 -2.5392
  643SOL     OW 1927   0.851   1.829   1.948  0.0518  0.3463  0.1051
  643SOL    HW1 1928   0.770   1.779   1.976  0.4468 -0.8194 -0.3314
  643SOL    HW2 1929   0.846   1.924   1.988 -2.1611 -1.1384 -1.1033
  644SOL     OW 1930   1.390   2.696   0.170 -0.6259 -0.1028 -0.1201
  644SOL    HW1 1931   1.478   2.662   0.132 -1.9814 -1.3534 -1.0756
  644SOL    HW2 1932   1.395   2.746   0.257  1.1286 -0.6317  0.8105
  645SOL     OW 1933   1.881   2.085   0.650 -0.3462  0.9972 -0.2190
  645SOL    HW1 1934   1.902   2.062   0.553 -1.2313 -0.8011  1.0943
  645SOL    HW2 1935   1.963   2.098   0.704  1.5678  0.4149 -0.3829
  646SOL     OW 1936   1.235   2.750   3.039  0.1954  0.8650 -0.2926
  646SOL    HW1 1937   1.243   2.842   2.998  0.0129 -0.1656  1.7045
  646SOL    HW2 1938   1.301   2.734   0.039 -0.5965  1.3883  0.4604
  647SOL     OW 1939   0.414   2.626   1.915  0.5414 -0.1158  0.1830
  647SOL    HW1 1940   0.361   2.667   1.997 -1.1090  0.9726 -0.2319
  647SOL    HW2 1941   0.363   2.636   1.827  1.4396 -0.9833 -1.2532
  648SOL     OW 1942   1.756   0.867   1.202 -0.1882 -0.2034  0.1811
  648SOL    HW1 1943   1.801   0.954   1.225  1.0778  0.7467 -0.0868
  648SOL    HW2 1944   1.815   0.785   1.211  0.7771 -0.6735 -2.0451
  649SOL     OW 1945   1.494   2.375   2.730  0.3094 -0.0441  0.7207
  649SOL    HW1 1946   1.579   2.417   2.693 -0.7353  0.4973 -2.6085
  649SOL    HW2 1947   1.440   2.439   2.788  0.8141 -1.4171 -3.1518
  650SOL     OW 1948   2.262   1.449   1.813 -0.0396 -0.2500 -0.1625
  650SOL    HW1 1949   2.331   1.520   1.798 -0.8220 -1.5157 -0.7494
  650SOL    HW2 1950   2.181   1.481   1.865 -0.6249 -0.1602  0.6178
  651SOL     OW 1951   1.196   2.100   0.118  0.2072  0.4482  0.1838
  651SOL    HW1 1952   1.260   2.017   0.105  1.3335 -1.9505  0.8762
  651SOL    HW2 1953   1.248   2.168   0.175 -1.7164 -1.6258  0.7879
  652SOL     OW 1954   0.748   2.656   3.031  0.6331 -0.5885 -0.0420
  652SOL    HW1 1955   0.833   2.657   2.976  1.2512 -0.4919 -0.8353
  652SOL    HW2 1956   0.742   2.746   0.012  2.7060  1.3666 -0.0356
  653SOL     OW 1957   2.280   2.003   1.019 -0.3970 -0.1755 -0.4402
  653SOL    HW1 1958   2.328   2.091   1.028  0.1972 -0.7614 -0.5758
  653SOL    HW2 1959   2.217   1.993   1.094  1.3777  2.4339 -1.1653
  654SOL     OW 1960   2.835   2.477   1.764 -0.2122 -0.5335  0.3104
  654SOL    HW1 1961   2.840   2.578   1.749  0.8832  0.3827 -0.1945
  654SOL    HW2 1962   2.871   2.420   1.691 -0.4756 -2.4894 -0.4754
  655SOL     OW 1963   2.859   1.926   1.191  0.1836  0.4864 -0.2626
  655SOL    HW1 1964   2.819   1.912   1.096 -1.5848 -0.1590 -0.4335
  655SOL    HW2 1965   2.780   1.929   1.254  1.5047  0.7485 -0.4694
  656SOL     OW 1966   0.146   2.817   2.740  0.1557  0.3689  0.2606
  656SOL    HW1 1967   0.086   2.832   2.659 -0.3257  0.3075  3.1734
  656SOL    HW2 1968   0.080   2.810   2.819  0.1040  0.9867  1.0542
  657SOL     OW 1969   0.081   0.861   0.212 -0.2930 -0.2880 -0.0636
  657SOL    HW1 1970   0.118   0.842   0.303 -1.5591 -0.6006 -0.8331
  657SOL    HW2 1971   0.146   0.922   0.156  1.2924 -1.1921 -1.9009
  658SOL     OW 1972   1.723   1.947   0.829  0.7977  0.3266 -0.0626
  658SOL    HW1 1973   1.697   2.023   0.888 -0.2403 -2.6700 -2.7266
  658SOL    HW2 1974   1.776   1.978   0.749 -3.2789 -1.9704  1.4354
  659SOL     OW 1975   1.694   0.502   1.095  0.3538 -0.2450 -0.1528
  659SOL    HW1 1976   1.690   0.417   1.045  1.5922  2.1173 -0.2924
  659SOL    HW2 1977   1.630   0.491   1.173 -0.9157 -1.4813  0.6641
  660SOL     OW 1978   1.346   1.470   0.334 -0.0622  0.4560 -0.0673
  660SOL    HW1 1979   1.280   1.389   0.345 -1.6973  1.0987 -0.0816
  660SOL    HW2 1980   1.395   1.496   0.419 -0.1051  1.4534  0.4821
  661SOL     OW 1981   0.084   1.983   0.465  0.0653 -0.3706 -0.2575
  661SOL    HW1 1982   0.151   2.049   0.498 -0.5553  0.1058 -0.8007
  661SOL    HW2 1983   0.016   1.948   0.532 -0.5553 -1.4695 -1.8885
  662SOL     OW 1984   0.105   0.584   2.027 -0.0926  0.2560 -0.1103
  662SOL    HW1 1985   0.022   0.530   2.037  0.6267  2.3318  1.3826
  662SOL    HW2 1986   0.077   0.675   1.996 -1.8767 -0.3335 -2.0762
  663SOL     OW 1987   2.078   1.511   1.152  0.4452  0.0375  0.0975
  663SOL    HW1 1988   2.128   1.533   1.064  1.0955 -0.2137 -2.5242
  663SOL    HW2 1989   2.026   1.591   1.181  1.4578  0.5671  1.7008
  664SOL     OW 1990   0.520   0.584   1.071 -0.0640  0.4716 -0.3120
  664SOL    HW1 1991   0.482   0.575   1.168  0.8631 -1.2913  0.1945
  664SOL    HW2 1992   0.624   0.586   1.081  0.8101  0.0731 -3.5956
  665SOL     OW 1993   1.276   2.997   2.885  0.1884  1.0420  0.0066
  665SOL    HW1 1994   1.375   2.966   2.897  1.3995  0.3468 -1.9661
  665SOL    HW2 1995   1.261   0.018   2.879 -0.0051 -1.4541 -0.4579
  666SOL     OW 1996   0.155   0.643   2.293  0.2044  0.4118  0.5900
  666SOL    HW1 1997   0.150   0.543   2.327 -1.2772 -2.0317  1.9281
  666SOL    HW2 1998   0.142   0.649   2.192  0.7425 -0.4079  0.3040
  667SOL     OW 1999   2.066   1.434   2.315 -0.2411  0.6286 -0.0504
  667SOL    HW1 2000   2.072   1.463   2.409 -0.8254 -1.2495 -2.1025
  667SOL    HW2 2001   1.974   1.454   2.280  1.8779 -1.6969 -0.7986
  668SOL     OW 2002   0.010   1.604   3.026 -0.4900 -0.2702 -0.4355
  668SOL    HW1 2003   0.078   1.548   2.961  1.6729 -2.3909  1.0650
  668SOL    HW2 2004   3.002   1.553   3.060 -0.3624 -0.7378 -0.5053
  669SOL     OW 2005   2.075   2.791   2.506 -0.6180 -0.6721 -0.4050
  669SOL    HW1 2006   2.047   2.850   2.427 -0.3162  1.3827  1.7830
  669SOL    HW2 2007   2.144   2.714   2.483  0.9856 -1.7996  0.1969
  670SOL     OW 2008   2.476   0.925   2.507  0.7647  0.0350 -0.1985
  670SOL    HW1 2009   2.507   0.837   2.468  1.1262 -1.3269 -2.4013
  670SOL    HW2 2010   2.386   0.906   2.561  0.1768  0.5691  1.4195
  671SOL     OW 2011   2.267   1.285   0.294 -0.2164 -0.4917 -0.0935
  671SOL    HW1 2012   2.290   1.289   0.193 -0.0096 -0.6078 -0.0505
  671SOL    HW2 2013   2.187   1.225   0.309  1.2894  3.0948 -1.9109
  672SOL     OW 2014   2.682   1.074   2.376  0.2757 -0.2870  0.1691
  672SOL    HW1 2015   2.728   1.104   2.461 -1.2596 -1.3431  0.8959
  672SOL    HW2 2016   2.590   1.037   2.400  0.5532  0.8564  0.4989
  673SOL     OW 2017   2.796   1.389   1.395  0.0860  0.3553 -0.2779
  673SOL    HW1 2018   2.825   1.461   1.336 -1.9306 -1.5506  2.1789
  673SOL    HW2 2019   2.874   1.328   1.425  2.1041  0.0898 -1.3689
  674SOL     OW 2020   1.725   1.700   1.626  0.2217  0.6585 -0.4691
  674SOL    HW1 2021   1.785   1.781   1.627 -0.3436  0.0473  2.6807
  674SOL    HW2 2022   1.782   1.618   1.650 -0.3073 -0.8848 -1.6295
  675SOL     OW 2023   3.022   0.330   0.992  0.4600 -0.2750  0.0705
  675SOL    HW1 2024   3.015   0.420   0.952  0.2351 -1.7365  1.1990
  675SOL    HW2 2025   2.988   0.331   1.092 -2.0026 -0.2725  3.5009
  676SOL     OW 2026   2.218   1.006   0.962  0.5130  0.6967 -0.1423
  676SOL    HW1 2027   2.298   0.942   0.942 -0.1306  3.0240 -1.9426
  676SOL    HW2 2028   2.130   0.962   0.941 -2.2114  4.7889 -0.7456
  677SOL     OW 2029   1.411   1.507   2.367  0.5726 -0.1847 -0.6846
  677SOL    HW1 2030   1.390   1.602   2.345 -0.5445  1.7730 -0.6242
  677SOL    HW2 2031   1.346   1.445   2.316 -1.0321  1.8632  0.9477
  678SOL     OW 2032   2.666   1.474   0.900  0.2922  0.5717 -0.1336
  678SOL    HW1 2033   2.665   1.557   0.845  2.8301 -0.3467  4.0696
  678SOL    HW2 2034   2.576   1.439   0.930  0.9905  0.2234  1.6112
  679SOL     OW 2035   0.118   2.723   0.756 -0.6640  0.4121  1.1856
  679SOL    HW1 2036   0.162   2.777   0.677  1.5580  1.0973 -1.0738
  679SOL    HW2 2037   0.190   2.658   0.782  1.0045  0.0126  0.1145
  680SOL     OW 2038   3.060   2.127   1.127  0.3082 -0.3894 -0.2980
  680SOL    HW1 2039   0.076   2.115   1.173  4.2228 -1.1977  1.3502
  680SOL    HW2 2040   2.992   2.078   1.181 -0.1494  2.8537  1.3840
  681SOL     OW 2041   0.732   0.883   1.155  0.4721  0.3511  0.3134
  681SOL    HW1 2042   0.812   0.951   1.152 -0.2626  0.3312  1.1377
  681SOL    HW2 2043   0.714   0.845   1.061  2.4651 -0.1225  0.8712
  682SOL     OW 2044   1.661   2.818   0.743  0.0596  0.0787  0.0291
  682SOL    HW1 2045   1.686   2.904   0.792 -0.9362 -3.8152 -0.1369
  682SOL    HW2 2046   1.743   2.779   0.691  0.7315 -1.5704  0.4850
  683SOL     OW 2047   2.192   1.315   1.603 -0.8033  0.8668 -0.1935
  683SOL    HW1 2048   2.228   1.359   1.688  0.0739 -0.3972  0.3762
  683SOL    HW2 2049   2.255   1.315   1.528 -1.1011  0.3323  1.8271
  684SOL     OW 2050   0.168   1.867   1.623 -0.0589  0.0376  0.2548
  684SOL    HW1 2051   0.120   1.864   1.712  0.9004  2.1456 -0.7649
  684SOL    HW2 2052   0.238   1.794   1.613  0.7386  3.0040 -2.8369
  685SOL     OW 2053   2.254   1.813   0.174  0.2481  0.2376 -0.1041
  685SOL    HW1 2054   2.224   1.713   0.193 -2.3392 -2.2839  2.6293
  685SOL    HW2 2055   2.278   1.824   0.077 -1.2795  1.1289  2.1692
  686SOL     OW 2056   0.004   3.026   0.720  0.5876  0.3965 -0.2148
  686SOL    HW1 2057   2.987   2.988   0.736 -1.1350 -0.4468  0.9304
  686SOL    HW2 2058   0.031   0.026   0.780 -1.9463 -0.8014 -1.5807
  687SOL     OW 2059   1.514   2.963   3.007 -0.6230 -0.0724  0.2293
  687SOL    HW1 2060   1.491   3.066   3.020  0.4954  2.0577  1.1344
  687SOL    HW2 2061   1.599   2.938   3.056 -0.6153  2.5671 -1.4787
  688SOL     OW 2062   1.916   1.825   2.125 -0.4389  0.5921  0.4881
  688SOL    HW1 2063   1.999   1.761   2.127  0.1914 -0.4637  0.6611
  688SOL    HW2 2064   1.919   1.886   2.210 -0.4370  0.4939 -1.5627
  689SOL     OW 2065   2.776   0.929   1.948  0.0607 -0.3636  0.3637
  689SOL    HW1 2066   2.764   1.026   1.936  0.9483  0.1849  1.4487
  689SOL    HW2 2067   2.819   0.908   2.035 -3.0384 -1.9647  0.5219
  690SOL     OW 2068   1.936   1.481   0.876  0.0310 -0.6876  0.0770
  690SOL    HW1 2069   1.941   1.379   0.870 -0.6699 -0.7882 -0.5499
  690SOL    HW2 2070   1.874   1.512   0.951 -1.7422 -2.5071  0.6509
  691SOL     OW 2071   1.016   1.415   1.256  0.6056 -0.0811  0.0262
  691SOL    HW1 2072   1.072   1.360   1.317 -3.2218 -0.6061 -3.5282
  691SOL    HW2 2073   0.924   1.375   1.229 -0.2045 -0.0309 -2.8165
  692SOL     OW 2074   1.942   0.061   2.172 -0.1183 -0.2670 -0.2603
  692SOL    HW1 2075   1.990   0.131   2.112  1.7068  3.3869 -0.9121
  692SOL    HW2 2076   1.848   0.053   2.143  2.5385  0.0579  2.1906
  693SOL     OW 2077   3.065   1.243   2.788 -0.0555  0.2418 -0.6138
  693SOL    HW1 2078   0.023   1.337   2.788 -0.6747 -0.9135 -0.7908
  693SOL    HW2 2079   3.069   1.210   2.690  0.5521  0.0355 -2.9880
  694SOL     OW 2080   2.180   0.065   1.002 -0.0438 -0.0057 -0.2575
  694SOL    HW1 2081   2.192   3.057   0.946  0.6442 -3.5088  1.2163
  694SOL    HW2 2082   2.256   0.065   1.067 -3.9004  2.0065 -1.8815
  695SOL     OW 2083   1.438   1.059   2.679  0.1280 -0.3661 -0.2311
  695SOL    HW1 2084   1.502   1.081   2.757 -3.1539 -1.3366  0.6824
  695SOL    HW2 2085   1.407   1.141   2.632  1.9307 -0.5648 -0.6808
  696SOL     OW 2086   1.873   0.270   1.717 -0.4752  0.2869  0.4910
  696SOL    HW1 2087   1.793   0.278   1.652 -1.6543  1.0365  3.1718
  696SOL    HW2 2088   1.861   0.335   1.795 -0.2914 -2.4569 -2.6781
  697SOL     OW 2089   1.594   0.416   1.949 -0.1245  0.4187  0.5166
  697SOL    HW1 2090   1.564   0.329   1.997 -0.9110 -1.8206 -0.7147
  697SOL    HW2 2091   1.556   0.417   1.850 -1.3739  1.7387 -1.8675
  698SOL     OW 2092   1.758   1.439   2.644 -0.2177 -0.1377  0.4449
  698SOL    HW1 2093   1.669   1.440   2.692 -1.0866 -1.7920 -0.5226
  698SOL    HW2 2094   1.740   1.397   2.554  1.8525  0.3026 -1.7691
  699SOL     OW 2095   1.703   1.041   0.744  0.6413  0.1097 -0.5889
  699SOL    HW1 2096   1.644   1.122   0.761  0.1197 -1.1352 -1.1015
  699SOL    HW2 2097   1.799   1.074   0.740  0.1314  0.2928 -0.7614
  700SOL     OW 2098   1.589   2.812   0.354  0.2293 -0.0091  0.3298
  700SOL    HW1 2099   1.631   2.719   0.368 -0.1716 -1.3777  0.3584
  700SOL    HW2 2100   1.577   2.856   0.441  0.9886 -0.0272 -0.5128
  701SOL     OW 2101   0.385   0.302   1.506  0.4477 -0.2480  0.0308
  701SOL    HW1 2102   0.430   0.345   1.586 -2.4123  0.4333 -2.8313
  701SOL    HW2 2103   0.367   0.202   1.523  0.4933 -0.6829  2.3232
  702SOL     OW 2104   1.662   0.018   1.529  0.0342  0.0295 -0.2268
  702SOL    HW1 2105   1.742   3.059   1.582  0.5967 -1.0264  2.4810
  702SOL    HW2 2106   1.592   3.016   1.527  0.0596  0.0059  0.6255
  703SOL     OW 2107   2.387   0.333   1.764 -0.2214 -0.3109 -0.4145
  703SOL    HW1 2108   2.475   0.282   1.758 -1.2716 -0.6273 -0.3162
  703SOL    HW2 2109   2.401   0.431   1.761 -0.0926  0.3505 -0.6986
  704SOL     OW 2110   1.397   2.187   1.015 -0.6404 -0.0810  0.2669
  704SOL    HW1 2111   1.391   2.252   1.092  1.2591  2.2201 -0.7663
  704SOL    HW2 2112   1.322   2.198   0.944  0.9475  1.3570  1.7130
  705SOL     OW 2113   0.216   1.836   2.241  0.0748 -0.3337 -0.5555
  705SOL    HW1 2114   0.288   1.894   2.281 -0.5562  0.9269 -3.5944
  705SOL    HW2 2115   0.178   1.771   2.311 -0.9485 -0.9959 -2.7337
  706SOL     OW 2116   2.144   0.274   2.847  0.6781 -0.1856 -0.3527
  706SOL    HW1 2117   2.127   0.347   2.779  1.3281 -3.2423 -0.4610
  706SOL    HW2 2118   2.090   0.293   2.934  1.5904  1.3204  0.8881
  707SOL     OW 2119   1.619   2.713   2.400 -0.3023  0.3826 -0.2798
  707SOL    HW1 2120   1.716   2.706   2.372 -0.2567  0.9436 -1.1033
  707SOL    HW2 2121   1.564   2.637   2.354 -1.8012 -2.9304 -2.4994
  708SOL     OW 2122   0.689   2.238   1.320 -0.4450 -0.3558 -0.3821
  708SOL    HW1 2123   0.634   2.319   1.286 -1.4679 -0.2330  1.3347
  708SOL    HW2 2124   0.787   2.237   1.290  1.1157  0.3664 -0.4795
  709SOL     OW 2125   2.599   0.811   1.758 -0.1051  0.0758  0.3004
  709SOL    HW1 2126   2.672   0.832   1.826  1.4077  1.0245  0.3871
  709SOL    HW2 2127   2.634   0.775   1.666 -1.1924  1.7052 -0.6510
  710SOL     OW 2128   2.993   0.416   1.554  0.4436 -0.0245  0.1078
  710SOL    HW1 2129   2.975   0.492   1.487  1.9789  0.8096  0.5062
  710SOL    HW2 2130   3.043   0.450   1.637 -0.5421 -2.3932  0.8220
  711SOL     OW 2131   2.945   2.591   0.842  0.7513  0.4013 -0.1084
  711SOL    HW1 2132   3.005   2.516   0.890  1.5300 -0.0482  0.8639
  711SOL    HW2 2133   3.005   2.664   0.811  0.0378 -1.2605  2.9851
  712SOL     OW 2134   0.296   2.992   2.321  0.0674 -0.3301 -0.8028
  712SOL    HW1 2135   0.336   3.054   2.390 -4.2044 -2.6854  0.0333
  712SOL    HW2 2136   0.364   2.926   2.292 -1.7051  0.5903 -0.7833
  713SOL     OW 2137   2.130   0.428   0.274 -0.2476 -0.6580  0.2100
  713SOL    HW1 2138   2.138   0.365   0.354  1.5359 -3.4780  0.6092
  713SOL    HW2 2139   2.199   0.495   0.267 -0.5082 -1.8733  2.0183
  714SOL     OW 2140   1.688   1.673   0.087 -0.3723  0.0098 -1.1981
  714SOL    HW1 2141   1.716   1.768   0.082 -0.0957 -1.7532  1.4101
  714SOL    HW2 2142   1.593   1.656   0.117  1.3523  0.1985 -0.5732
  715SOL     OW 2143   0.106   0.231   0.363 -0.0910  0.8313 -0.1188
  715SOL    HW1 2144   0.107   0.252   0.261  1.0348  1.4313  0.7741
  715SOL    HW2 2145   0.165   0.303   0.411  0.7486  0.7451  3.5547
  716SOL     OW 2146   0.925   3.071   2.057  0.2927  0.0294 -0.4845
  716SOL    HW1 2147   1.020   0.011   2.088  1.9362  1.0910  1.6557
  716SOL    HW2 2148   0.918   3.029   1.965  1.3709 -0.5170 -0.5343
  717SOL     OW 2149   0.143   0.632   2.728  0.0088 -0.0955 -0.2444
  717SOL    HW1 2150   0.096   0.698   2.669  0.7802 -2.1277  3.0070
  717SOL    HW2 2151   0.081   0.553   2.763 -1.6826 -0.2925  2.5782
  718SOL     OW 2152   1.434   0.557   0.313 -0.0229 -0.0592 -0.8186
  718SOL    HW1 2153   1.512   0.594   0.256  1.4911 -1.2230  1.5465
  718SOL    HW2 2154   1.376   0.625   0.365 -0.9723 -3.7623 -1.4453
  719SOL     OW 2155   2.303   2.183   2.903 -0.6390  0.7529  0.5297
  719SOL    HW1 2156   2.305   2.127   2.818 -1.7434  4.4065  2.4814
  719SOL    HW2 2157   2.324   2.282   2.898 -0.3410 -0.6246 -0.5224
  720SOL     OW 2158   1.054   0.916   1.320  0.0930  0.1033 -0.4046
  720SOL    HW1 2159   1.144   0.963   1.302  0.3798 -0.5137 -0.8984
  720SOL    HW2 2160   1.064   0.864   1.406 -0.9158 -0.2663 -1.9028
  721SOL     OW 2161   0.038   2.774   1.145 -0.2931  0.0852 -0.1677
  721SOL    HW1 2162   0.070   2.844   1.077 -0.5933 -0.9383 -1.8910
  721SOL    HW2 2163   0.079   2.686   1.106  0.2610 -0.0318  2.1744
  722SOL     OW 2164   1.025   1.834   2.710  0.0957 -0.1550  0.8538
  722SOL    HW1 2165   1.079   1.864   2.627  0.2755 -0.2753  1.3891
  722SOL    HW2 2166   0.943   1.778   2.677 -1.6166 -2.2876 -0.1515
  723SOL     OW 2167   1.758   0.270   0.566 -0.1665 -0.1087 -0.3390
  723SOL    HW1 2168   1.761   0.203   0.487  1.6015  2.0527 -2.0408
  723SOL    HW2 2169   1.841   0.254   0.627 -2.9087 -0.3128 -2.0979
  724SOL     OW 2170   0.680   2.103   2.889  0.2363  0.3606  0.0210
  724SOL    HW1 2171   0.673   2.118   2.990  0.4403  2.0840 -2.5800
  724SOL    HW2 2172   0.582   2.098   2.858  1.9093  1.0262 -0.2991
  725SOL     OW 2173   2.874   0.567   1.344 -0.2396  0.0432  0.0799
  725SOL    HW1 2174   2.862   0.616   1.255 -2.8084  2.9952 -0.7576
  725SOL    HW2 2175   2.871   0.464   1.333  0.8497 -0.5730 -0.5465
  726SOL     OW 2176   1.940   0.252   0.770  0.4127  0.3193  0.3136
  726SOL    HW1 2177   2.032   0.289   0.749 -1.0645 -0.9324  0.2237
  726SOL    HW2 2178   1.912   0.285   0.866  1.6589  1.8915  1.5618
  727SOL     OW 2179   1.947   1.123   2.200 -0.0014 -0.3843 -0.0651
  727SOL    HW1 2180   1.918   1.026   2.197 -2.9787 -1.8455  0.4492
  727SOL    HW2 2181   2.022   1.131   2.271  2.1264 -0.9680  0.0941
  728SOL     OW 2182   1.519   2.854   1.446  0.2002  0.5211  0.0803
  728SOL    HW1 2183   1.450   2.783   1.468 -2.6750 -0.4970  0.3411
  728SOL    HW2 2184   1.503   2.885   1.350 -0.5675  0.8843 -2.9823
  729SOL     OW 2185   1.830   0.500   1.891 -0.5666 -0.1962  0.5811
  729SOL    HW1 2186   1.829   0.605   1.899  1.0632  1.3691  0.6020
  729SOL    HW2 2187   1.743   0.462   1.928  1.6136 -0.5883 -1.8234
  730SOL     OW 2188   0.579   0.834   1.362 -0.5278  0.5340  0.7067
  730SOL    HW1 2189   0.558   0.734   1.360  0.6247 -2.3128 -0.4890
  730SOL    HW2 2190   0.627   0.870   1.278 -3.4829  2.0530 -0.8625
  731SOL     OW 2191   0.303   3.040   0.288 -0.3206 -0.2640  0.6719
  731SOL    HW1 2192   0.207   3.036   0.329 -0.1474 -1.6682 -0.8892
  731SOL    HW2 2193   0.360   0.035   0.337 -0.0099  0.1626 -0.8300
  732SOL     OW 2194   0.716   0.685   0.395  0.2817  0.1423 -0.1090
  732SOL    HW1 2195   0.682   0.610   0.457 -2.5579 -1.6914 -1.3921
  732SOL    HW2 2196   0.655   0.766   0.407 -0.7593 -1.0552 -1.0627
  733SOL     OW 2197   1.620   1.303   2.430 -0.9437 -0.1451 -0.6314
  733SOL    HW1 2198   1.571   1.379   2.379 -1.7626  2.4105 -3.7898
  733SOL    HW2 2199   1.605   1.221   2.375 -1.3247  0.3956  1.5791
  734SOL     OW 2200   3.037   2.148   2.047  0.0216 -0.2145 -0.3386
  734SOL    HW1 2201   0.030   2.151   1.973 -0.4432  0.6687 -1.5578
  734SOL    HW2 2202   2.944   2.165   2.020 -0.9959 -0.3693  0.1436
  735SOL     OW 2203   1.742   0.232   1.037 -0.6201  0.0306  0.0901
  735SOL    HW1 2204   1.843   0.241   1.039  2.7449  0.3910 -0.1738
  735SOL    HW2 2205   1.707   0.158   1.101  0.8021  1.1147  3.1125
  736SOL     OW 2206   0.981   1.467   3.055 -0.4846  0.0868  0.1025
  736SOL    HW1 2207   1.028   1.555   3.031 -0.6296 -0.7339 -0.0070
  736SOL    HW2 2208   0.980   1.448   0.084 -1.9038  0.9047  2.8919
  737SOL     OW 2209   2.922   0.333   0.432  0.1583  0.6847 -0.1826
  737SOL    HW1 2210   3.017   0.293   0.427  1.8018 -1.7243 -1.4151
  737SOL    HW2 2211   2.873   0.298   0.515 -2.3626 -0.7132 -4.7759
  738SOL     OW 2212   0.474   2.243   1.491  0.6158  0.2978 -0.1752
  738SOL    HW1 2213   0.409   2.305   1.438 -2.1385  2.2456 -0.2906
  738SOL    HW2 2214   0.562   2.226   1.440  0.5879  0.7481  0.6864
  739SOL     OW 2215   0.983   2.679   2.920 -0.0129 -0.2403 -0.0657
  739SOL    HW1 2216   1.067   2.685   2.974 -2.7696 -1.0447  0.4059
  739SOL    HW2 2217   0.981   2.620   2.838 -0.8629  0.8023 -0.5565
  740SOL     OW 2218   1.775   2.736   1.477  0.0788 -0.0640 -0.0601
  740SOL    HW1 2219   1.677   2.761   1.455 -0.3926  0.5597  0.1821
  740SOL    HW2 2220   1.785   2.641   1.510 -1.2648  2.5677  1.7499
  741SOL     OW 2221   2.116   0.556   0.639 -0.7939 -0.6748 -0.1212
  741SOL    HW1 2222   2.205   0.587   0.592 -1.8288  0.8978 -2.0561
  741SOL    HW2 2223   2.043   0.624   0.609 -0.9483  0.6415  1.1036
  742SOL     OW 2224   0.998   2.379   2.331  0.0823  0.2520 -0.1268
  742SOL    HW1 2225   1.033   2.315   2.403 -0.1790 -3.4101  0.9709
  742SOL    HW2 2226   0.904   2.358   2.302  3.6486  1.7452 -0.4761
  743SOL     OW 2227   2.386   1.003   1.790  0.1211 -0.4093 -0.4688
  743SOL    HW1 2228   2.300   0.977   1.750  0.3501 -1.3855  1.9551
  743SOL    HW2 2229   2.461   0.935   1.792 -1.6548  2.8387  3.3742
  744SOL     OW 2230   2.436   0.376   0.801 -0.1628  0.5311  0.2300
  744SOL    HW1 2231   2.512   0.384   0.735 -3.1061  1.0784  2.0123
  744SOL    HW2 2232   2.419   0.455   0.856  0.0419 -0.1432 -2.8489
  745SOL     OW 2233   2.336   1.215   1.954 -0.2291 -0.6414  0.5497
  745SOL    HW1 2234   2.362   1.303   1.905  0.9364  0.3158 -0.4658
  745SOL    HW2 2235   2.372   1.134   1.897  0.5151  1.3983 -0.0402
  746SOL     OW 2236   1.457   1.551   0.567  0.0410 -0.0296  0.1980
  746SOL    HW1 2237   1.544   1.602   0.582 -0.3343 -1.4619 -0.8775
  746SOL    HW2 2238   1.379   1.581   0.626  0.4900 -1.6720 -0.4904
  747SOL     OW 2239   1.600   1.953   1.325 -0.0202 -0.1964 -0.8055
  747SOL    HW1 2240   1.521   1.988   1.273  1.1560 -1.1658 -1.4932
  747SOL    HW2 2241   1.584   1.854   1.353 -1.2592  0.1364  1.9654
  748SOL     OW 2242   0.156   2.622   3.065  0.1249 -0.4353 -0.3351
  748SOL    HW1 2243   0.208   2.700   0.037  1.7315 -1.7456 -0.2573
  748SOL    HW2 2244   0.191   2.604   2.972  1.4425 -4.3334 -2.4314
  749SOL     OW 2245   0.274   1.173   2.361 -0.2111  0.4874  0.0859
  749SOL    HW1 2246   0.331   1.096   2.325  0.6580 -0.0516 -1.5644
  749SOL    HW2 2247   0.181   1.185   2.322 -0.5143  0.9281 -2.1909
  750SOL     OW 2248   1.393   2.910   2.020 -0.2855  0.7507 -0.2444
  750SOL    HW1 2249   1.469   2.856   2.064 -0.9969  0.6231  0.3123
  750SOL    HW2 2250   1.416   3.003   1.986 -2.6863 -1.0105  1.7939
  751SOL     OW 2251   2.690   0.742   0.283  0.3118  0.2924 -0.1933
  751SOL    HW1 2252   2.663   0.678   0.207 -0.2152  1.1754 -0.7316
  751SOL    HW2 2253   2.715   0.697   0.373  3.0044 -2.8268  1.9813
  752SOL     OW 2254   0.277   2.058   0.741  0.2829  0.0723 -0.4143
  752SOL    HW1 2255   0.304   1.979   0.680 -1.5471 -1.5060 -1.8986
  752SOL    HW2 2256   0.216   2.022   0.814 -0.7499 -0.1146  0.1490
  753SOL     OW 2257   1.011   2.957   0.927  0.2877 -0.1784 -0.4946
  753SOL    HW1 2258   1.095   2.907   0.906  2.4943  0.6701 -0.4482
  753SOL    HW2 2259   0.930   2.900   0.904  0.4795 -1.0375  0.4658
  754SOL     OW 2260   0.412   0.088   2.100 -0.0598 -1.0404 -0.1046
  754SOL    HW1 2261   0.332   0.136   2.065  1.9329 -3.3486  1.1080
  754SOL    HW2 2262   0.381   0.032   2.180 -1.0449 -0.3221 -1.1670
  755SOL     OW 2263   1.944   1.199   0.121 -0.0468 -0.1749  0.1080
  755SOL    HW1 2264   1.923   1.295   0.138  2.7601 -1.1664 -0.1656
  755SOL    HW2 2265   1.947   1.155   0.215  2.1326  1.6268  2.9832
  756SOL     OW 2266   2.282   2.358   2.628  0.0142  0.4093  0.3007
  756SOL    HW1 2267   2.299   2.258   2.635 -1.7402  0.4448 -0.4539
  756SOL    HW2 2268   2.336   2.405   2.705  0.2030  1.9092 -0.6593
  757SOL     OW 2269   1.915   0.723   0.522  0.1160  0.4749 -0.3589
  757SOL    HW1 2270   1.958   0.745   0.431  0.2821 -0.1725 -1.7145
  757SOL    HW2 2271   1.831   0.662   0.506  0.7603  1.4885 -2.1039
  758SOL     OW 2272   2.332   0.572   0.982 -0.1432 -0.0163  0.3704
  758SOL    HW1 2273   2.235   0.546   0.958  0.5809 -1.0056 -1.5408
  758SOL    HW2 2274   2.358   0.661   0.943 -0.1551  3.8254 -0.1899
  759SOL     OW 2275   2.645   0.442   1.031  0.1174 -0.5078 -0.6557
  759SOL    HW1 2276   2.547   0.411   1.038 -0.9675  0.2454 -1.9935
  759SOL    HW2 2277   2.654   0.478   0.935  0.0953 -0.1245 -2.7882
  760SOL     OW 2278   2.286   1.353   1.258  0.1799  0.3158  0.0575
  760SOL    HW1 2279   2.205   1.389   1.209 -0.7169 -2.0698  0.8180
  760SOL    HW2 2280   2.265   1.257   1.288 -2.4908 -3.1459  0.8840
  761SOL     OW 2281   0.484   0.388   0.421  0.2276 -0.1132 -0.1136
  761SOL    HW1 2282   0.538   0.445   0.483 -0.6429 -1.0005  0.1827
  761SOL    HW2 2283   0.385   0.383   0.457 -1.3628  1.0969 -1.3379
  762SOL     OW 2284   1.073   1.921   1.214 -0.2233 -0.1505  0.3046
  762SOL    HW1 2285   1.102   1.892   1.121  2.6696  2.1069  0.6490
  762SOL    HW2 2286   1.029   1.846   1.263  2.1133  3.8172 -3.2351
  763SOL     OW 2287   1.388   1.161   1.929  0.2925  0.1520  0.0649
  763SOL    HW1 2288   1.400   1.263   1.942 -1.2727 -0.0087 -0.7559
  763SOL    HW2 2289   1.470   1.123   1.875  1.1696 -1.6749 -3.2218
  764SOL     OW 2290   3.023   1.813   2.606 -0.3602 -0.2490 -0.3396
  764SOL    HW1 2291   3.036   1.911   2.592  1.9855 -0.6930 -0.2225
  764SOL    HW2 2292   3.028   1.793   2.701  1.1693  0.9293 -3.2062
  765SOL     OW 2293   1.288   2.535   1.268  0.4266 -0.4451  0.2694
  765SOL    HW1 2294   1.329   2.449   1.303 -0.9147 -0.4152 -3.2670
  765SOL    HW2 2295   1.267   2.522   1.167  0.0758 -0.4302 -2.3091
  766SOL     OW 2296   2.769   2.271   2.312 -0.6241 -0.5076  0.2071
  766SOL    HW1 2297   2.678   2.311   2.335 -0.6032 -0.9975 -1.3006
  766SOL    HW2 2298   2.783   2.178   2.356 -0.3938 -1.3123 -0.8140
  767SOL     OW 2299   1.106   1.107   2.494 -0.3827 -0.3698 -0.6601
  767SOL    HW1 2300   1.132   1.040   2.562  1.6158 -0.6540 -0.2290
  767SOL    HW2 2301   1.184   1.164   2.465 -1.3203  0.6355  1.8154
  768SOL     OW 2302   1.121   2.224   2.959  0.1554 -0.0359  0.1324
  768SOL    HW1 2303   1.154   2.190   3.051  0.0687 -0.1774  1.4562
  768SOL    HW2 2304   1.038   2.280   2.958  2.4311 -2.0445 -1.1615
  769SOL     OW 2305   0.531   2.119   0.823 -0.3975 -0.4100 -0.0782
  769SOL    HW1 2306   0.534   2.118   0.928 -1.9944 -3.1682  0.4920
  769SOL    HW2 2307   0.435   2.110   0.792  0.4762  2.6843  1.1636
  770SOL     OW 2308   1.463   0.783   2.638 -0.5893  0.1178 -0.1523
  770SOL    HW1 2309   1.493   0.741   2.730 -0.5314 -0.9975  4.3322
  770SOL    HW2 2310   1.463   0.887   2.644 -1.8410  2.0069 -0.1373
  771SOL     OW 2311   0.058   2.800   2.015 -0.3174 -0.4053  0.0034
  771SOL    HW1 2312   0.139   2.764   2.067  1.5973 -0.8118  1.7105
  771SOL    HW2 2313   3.061   2.728   1.990 -0.8489 -0.3844  1.8464
  772SOL     OW 2314   2.241   2.693   1.940 -0.2430  0.5612  0.0600
  772SOL    HW1 2315   2.264   2.777   1.997  0.2240 -1.9524  1.4490
  772SOL    HW2 2316   2.269   2.700   1.842 -0.5201  0.2767  1.1847
  773SOL     OW 2317   0.818   1.813   1.638  0.1910 -0.2617 -0.6667
  773SOL    HW1 2318   0.837   1.906   1.593  1.8366  1.1474 -1.5266
  773SOL    HW2 2319   0.795   1.821   1.736 -1.0812 -1.2682 -0.7371
  774SOL     OW 2320   0.990   0.269   1.760  0.8038  0.0502 -0.3444
  774SOL    HW1 2321   1.030   0.310   1.843 -1.1163  1.7389  0.3056
  774SOL    HW2 2322   0.889   0.257   1.780 -1.4585 -1.3366 -1.5184
  775SOL     OW 2323   1.787   2.878   3.039  0.3250  0.3234  0.3394
  775SOL    HW1 2324   1.809   2.971   3.001 -0.0896  0.0673 -0.0917
  775SOL    HW2 2325   1.864   2.816   3.019  0.0823 -2.6416  3.4950
  776SOL     OW 2326   2.931   0.464   2.033 -0.0227 -0.5570  0.8094
  776SOL    HW1 2327   2.856   0.533   2.048  1.9269 -0.4001  0.8439
  776SOL    HW2 2328   2.911   0.406   1.951 -1.6178  2.1097 -0.7765
  777SOL     OW 2329   2.397   2.041   2.165 -0.0271  0.3465  0.3767
  777SOL    HW1 2330   2.300   2.026   2.121 -3.1754  1.6419 -3.3677
  777SOL    HW2 2331   2.439   2.122   2.112  0.4548  3.3584 -0.9771
  778SOL     OW 2332   1.800   0.907   2.158 -0.5045 -0.1052  0.4634
  778SOL    HW1 2333   1.716   0.964   2.140  3.2853  2.1556  0.9901
  778SOL    HW2 2334   1.781   0.841   2.233 -1.0845 -0.0216  0.1126
  779SOL     OW 2335   2.562   0.486   0.578 -0.4012  0.1358 -0.4637
  779SOL    HW1 2336   2.548   0.402   0.521 -0.4193  2.1355 -0.1273
  779SOL    HW2 2337   2.486   0.553   0.560  0.0975 -0.2370  0.5257
  780SOL     OW 2338   2.373   0.206   2.966  0.5290  0.4078 -0.7606
  780SOL    HW1 2339   2.376   0.102   2.976  0.2393 -0.9000  0.8994
  780SOL    HW2 2340   2.299   0.238   2.901 -0.2781  2.6610 -4.2352
  781SOL     OW 2341   0.191   2.290   1.377 -0.3459  0.0139  1.0237
  781SOL    HW1 2342   0.220   2.233   1.295 -0.1805 -2.3037  0.9369
  781SOL    HW2 2343   0.110   2.239   1.411  0.9746  0.0789 -0.3349
  782SOL     OW 2344   2.395   2.441   2.877 -0.1729 -0.8090  0.6794
  782SOL    HW1 2345   2.414   2.543   2.861  2.3357 -1.0028  1.5052
  782SOL    HW2 2346   2.442   2.416   2.969  0.4671  0.2596 -1.6148
  783SOL     OW 2347   0.707   1.509   1.382  0.3132  0.5502 -0.0223
  783SOL    HW1 2348   0.613   1.473   1.405 -0.3658  1.3197 -0.6750
  783SOL    HW2 2349   0.764   1.518   1.468  0.5289  0.7529 -2.5212
  784SOL     OW 2350   1.497   0.602   2.861  0.3037 -0.4720  0.3863
  784SOL    HW1 2351   1.590   0.594   2.902 -0.2742 -2.1491  2.4046
  784SOL    HW2 2352   1.425   0.652   2.914 -3.5474 -0.4071 -3.4238
  785SOL     OW 2353   2.453   3.063   0.887  0.1780 -0.2737 -0.1582
  785SOL    HW1 2354   2.427   3.016   0.974  0.5798 -1.8247 -0.1392
  785SOL    HW2 2355   2.423   0.086   0.877 -0.5953  3.8421  0.1459
  786SOL     OW 2356   1.208   2.086   2.007 -0.3332 -0.3722  0.1354
  786SOL    HW1 2357   1.180   1.997   1.976 -0.6140 -0.9066  1.8969
  786SOL    HW2 2358   1.204   2.091   2.110 -1.4196  0.1161  0.6895
  787SOL     OW 2359   1.381   0.611   1.099  0.1594 -0.0168  0.2711
  787SOL    HW1 2360   1.306   0.591   1.031  0.3099 -1.7172 -0.8863
  787SOL    HW2 2361   1.441   0.687   1.066  0.9857 -0.4265  1.6299
  788SOL     OW 2362   0.194   0.768   0.472 -0.1081  0.0797  0.2706
  788SOL    HW1 2363   0.227   0.750   0.566 -1.8782  1.8034  1.1117
  788SOL    HW2 2364   0.255   0.731   0.398  1.6745 -0.4322 -2.7708
  789SOL     OW 2365   0.244   2.103   1.184 -0.5851  0.2784 -0.1301
  789SOL    HW1 2366   0.328   2.126   1.131  1.6706  0.2002  0.9425
  789SOL    HW2 2367   0.260   2.021   1.243 -2.2614 -2.3898  1.3757
  790SOL     OW 2368   0.868   0.650   2.428 -0.0817  0.3657  0.2714
  790SOL    HW1 2369   0.925   0.625   2.352 -1.5150 -2.5034  1.0205
  790SOL    HW2 2370   0.799   0.717   2.397  0.8131 -1.0602  2.4087
  791SOL     OW 2371   1.841   0.671   0.967 -0.1979  0.2061  0.1207
  791SOL    HW1 2372   1.803   0.700   0.877  2.2564 -4.7800  2.8964
  791SOL    HW2 2373   1.782   0.603   1.014  0.2048  2.9036 -1.2133
  792SOL     OW 2374   1.426   2.478   2.023 -0.0459  0.3940 -0.4228
  792SOL    HW1 2375   1.432   2.533   1.936 -2.5832 -0.9843 -1.6646
  792SOL    HW2 2376   1.324   2.455   2.039 -2.3159  1.4455  0.6109
  793SOL     OW 2377   1.256   0.740   0.422  0.0149 -0.8204 -0.1704
  793SOL    HW1 2378   1.279   0.836   0.390 -1.2951  0.9905  2.0378
  793SOL    HW2 2379   1.157   0.730   0.425 -1.3278  1.1922 -2.6408
  794SOL     OW 2380   0.605   1.057   1.970 -0.5222  0.1059 -0.1655
  794SOL    HW1 2381   0.525   1.106   2.010 -0.6793  0.2859 -2.2946
  794SOL    HW2 2382   0.689   1.107   1.996 -3.1791 -2.2985  0.7480
  795SOL     OW 2383   0.273   2.132   2.414  0.6595  0.3581 -1.0073
  795SOL    HW1 2384   0.365   2.087   2.407  0.6805  0.0898 -0.0704
  795SOL    HW2 2385   0.227   2.107   2.505 -1.9214  0.5447  0.9228
  796SOL     OW 2386   2.523   0.780   2.074 -0.3381 -0.1481  0.5538
  796SOL    HW1 2387   2.434   0.819   2.095 -0.7105 -1.6715 -0.5357
  796SOL    HW2 2388   2.582   0.851   2.029  3.0749 -1.9890  1.7934
  797SOL     OW 2389   2.814   2.252   2.758  0.0290 -0.6256 -0.1608
  797SOL    HW1 2390   2.741   2.302   2.706 -3.1881 -1.4699 -0.9549
  797SOL    HW2 2391   2.829   2.313   2.842  0.4926  1.8155  2.0928
  798SOL     OW 2392   0.286   2.424   2.121  0.7911  0.1764  0.5360
  798SOL    HW1 2393   0.251   2.417   2.029  4.4918 -1.0803  0.8823
  798SOL    HW2 2394   0.235   2.372   2.193  0.2184 -1.5390 -0.0530
  799SOL     OW 2395   0.411   2.169   2.795  0.1950  0.1467  0.2436
  799SOL    HW1 2396   0.348   2.134   2.726  1.5481  1.6747 -0.5314
  799SOL    HW2 2397   0.374   2.251   2.840  1.2940  2.5359 -1.3587
  800SOL     OW 2398   0.609   2.221   0.061  0.3047  0.0702 -0.1868
  800SOL    HW1 2399   0.541   2.288   0.027  0.7256  0.4298  0.8505
  800SOL    HW2 2400   0.582   2.178   0.148  1.1522 -0.9207  2.2641
  801SOL     OW 2401   1.715   1.517   1.052 -0.0467  0.4189 -0.1466
  801SOL    HW1 2402   1.707   1.437   1.112 -0.4670 -0.0488 -0.8596
  801SOL    HW2 2403   1.741   1.597   1.113 -3.3783 -1.6619  1.8833
  802SOL     OW 2404   2.844   1.206   0.619 -0.0356 -0.2864 -0.5411
  802SOL    HW1 2405   2.826   1.237   0.523  1.1445  1.5019 -0.6993
  802SOL    HW2 2406   2.895   1.118   0.617 -1.6424 -2.4588 -0.6681
  803SOL     OW 2407   1.197   2.098   2.281  0.1792 -0.3691  0.1126
  803SOL    HW1 2408   1.243   2.083   2.370 -0.0821  1.9550  1.4466
  803SOL    HW2 2409   1.101   2.069   2.290  2.5483 -1.8772 -0.8230
  804SOL     OW 2410   1.628   1.290   0.409  0.0712  0.0549  0.0020
  804SOL    HW1 2411   1.567   1.365   0.377 -2.3589  1.5010  1.4755
  804SOL    HW2 2412   1.705   1.324   0.468  0.9402  0.3569  0.9446
  805SOL     OW 2413   2.639   1.522   0.177  0.0280  0.6081  0.2181
  805SOL    HW1 2414   2.580   1.492   0.257 -2.5578  2.4465 -1.3194
  805SOL    HW2 2415   2.594   1.503   0.086  1.8684 -2.6366  1.0687
  806SOL     OW 2416   0.452   3.066   0.660  0.2414  0.5202  0.2626
  806SOL    HW1 2417   0.543   3.046   0.707 -1.5111  1.5003  0.1236
  806SOL    HW2 2418   0.402   2.980   0.635  0.1880 -3.1538  1.0475
  807SOL     OW 2419   1.957   1.685   2.863 -0.0156  0.0234 -0.7833
  807SOL    HW1 2420   1.968   1.748   2.941  0.7211 -3.2745 -2.0338
  807SOL    HW2 2421   1.997   1.594   2.883 -0.7491 -1.3600 -2.0876
  808SOL     OW 2422   0.606   1.569   0.986 -0.0263 -0.6972 -0.2927
  808SOL    HW1 2423   0.566   1.479   0.983 -1.8485 -0.0434 -3.3487
  808SOL    HW2 2424   0.545   1.634   0.931 -1.3204  0.5578 -2.3766
  809SOL     OW 2425   2.341   0.621   0.522  0.6071 -0.0879  0.1439
  809SOL    HW1 2426   2.350   0.718   0.545  0.7314 -1.8070  0.8708
  809SOL    HW2 2427   2.340   0.598   0.422 -0.0228 -1.5644  0.4127
  810SOL     OW 2428   0.769   1.065   0.449  0.4936  0.0290 -0.6115
  810SOL    HW1 2429   0.823   1.023   0.524 -2.9061 -0.8869  0.3254
  810SOL    HW2 2430   0.767   1.168   0.473 -0.6362  3.8147 -0.9436
  811SOL     OW 2431   1.454   2.293   1.285 -0.0789 -0.3195  0.6119
  811SOL    HW1 2432   1.551   2.319   1.299 -1.4984 -0.4569 -0.6763
  811SOL    HW2 2433   1.409   2.277   1.373  1.8377  1.3351 -0.9647
  812SOL     OW 2434   1.079   2.633   1.673  0.0688  0.1942  0.3090
  812SOL    HW1 2435   1.132   2.653   1.757  0.9069 -2.7666 -0.7238
  812SOL    HW2 2436   0.980   2.657   1.679 -3.4952 -1.6645  1.5678
  813SOL     OW 2437   0.837   2.941   1.820  0.3256 -0.5725 -0.2268
  813SOL    HW1 2438   0.748   2.994   1.842 -0.1316  1.6541  1.8161
  813SOL    HW2 2439   0.899   2.987   1.762 -1.5884 -1.2574  3.0496
  814SOL     OW 2440   0.753   2.327   2.242  0.0753 -0.3205 -0.2915
  814SOL    HW1 2441   0.692   2.371   2.170  1.3033 -1.0415  1.3421
  814SOL    HW2 2442   0.704   2.315   2.331  0.1041  0.5957  1.1116
  815SOL     OW 2443   0.571   0.356   2.497  0.0783  0.1658 -0.2928
  815SOL    HW1 2444   0.632   0.282   2.470 -2.7756  0.7397  0.0769
  815SOL    HW2 2445   0.621   0.430   2.542  1.6725 -0.9037 -0.3224
  816SOL     OW 2446   2.224   0.047   2.709  0.4142 -0.0760 -0.4571
  816SOL    HW1 2447   2.169   3.043   2.732  2.3138 -2.5987 -3.6553
  816SOL    HW2 2448   2.206   0.125   2.770  0.1883 -1.3604 -3.5205
  817SOL     OW 2449   2.015   0.293   2.005 -0.9054  0.2526 -0.2073
  817SOL    HW1 2450   2.096   0.255   1.962  0.7746 -2.2259  1.6424
  817SOL    HW2 2451   1.992   0.387   1.978 -0.3536  0.2559  0.0555
  818SOL     OW 2452   1.579   0.676   0.121  0.5641 -0.6790  0.2250
  818SOL    HW1 2453   1.494   0.720   0.084 -1.3152  2.0705 -1.1676
  818SOL    HW2 2454   1.650   0.665   0.045  0.6689 -0.6001 -0.4663
  819SOL     OW 2455   2.065   1.525   2.564  0.7710  0.1507 -0.0686
  819SOL    HW1 2456   1.973   1.513   2.607  1.3700 -0.2095  1.6019
  819SOL    HW2 2457   2.118   1.595   2.612 -0.1034 -0.6886 -0.7774
  820SOL     OW 2458   0.194   1.697   0.120 -0.0516 -0.5078 -0.3152
  820SOL    HW1 2459   0.126   1.665   0.053  4.0672 -0.2030  2.6577
  820SOL    HW2 2460   0.287   1.660   0.113 -0.2557  2.1126  1.4600
  821SOL     OW 2461   0.160   2.906   0.950 -0.8213 -0.2168  0.1077
  821SOL    HW1 2462   0.123   2.997   0.925  1.3215 -0.8572 -0.5887
  821SOL    HW2 2463   0.153   2.847   0.870 -0.9781  2.0862  1.0793
  822SOL     OW 2464   2.618   2.436   2.673  0.4973 -0.0138  0.1852
  822SOL    HW1 2465   2.565   2.451   2.756  0.9083  0.3319 -2.6567
  822SOL    HW2 2466   2.663   2.525   2.647 -0.9988  3.3264  0.7362
  823SOL     OW 2467   1.285   0.215   2.134 -0.0179 -0.3086  0.1377
  823SOL    HW1 2468   1.242   0.128   2.165 -0.8044 -2.4449  1.9362
  823SOL    HW2 2469   1.382   0.191   2.101  0.5950 -2.0585 -2.0474
  824SOL     OW 2470   2.754   2.145   2.067  0.5376 -0.1949  0.5830
  824SOL    HW1 2471   2.769   2.180   2.158 -0.1970 -0.9572 -2.3836
  824SOL    HW2 2472   2.665   2.185   2.033  2.0069  0.9082  1.2661
  825SOL     OW 2473   2.842   2.018   2.396  0.1654  0.0837 -0.2778
  825SOL    HW1 2474   2.802   1.932   2.425  2.4731  0.4613 -0.0848
  825SOL    HW2 2475   2.906   1.998   2.312  1.2526 -1.1821 -2.7236
  826SOL     OW 2476   2.227   0.927   2.643  0.9192  0.5638  0.1705
  826SOL    HW1 2477   2.207   0.875   2.557  1.7449  1.2644  1.7591
  826SOL    HW2 2478   2.171   1.011   2.655 -0.4393  0.2215  1.5575
  827SOL     OW 2479   2.486   2.133   1.256  0.3562  0.0925 -0.8306
  827SOL    HW1 2480   2.482   2.166   1.157  1.5232 -0.1489  0.8842
  827SOL    HW2 2481   2.398   2.159   1.306 -4.3785  0.5091  2.7486
  828SOL     OW 2482   0.089   0.087   1.661  0.1684  0.2137  0.6806
  828SOL    HW1 2483   0.153   0.058   1.589 -3.2072  0.3561  0.9559
  828SOL    HW2 2484   0.128   0.167   1.706 -0.7463  0.1165 -1.0546
  829SOL     OW 2485   1.079   2.316   2.588  0.0142 -0.1368  0.4398
  829SOL    HW1 2486   1.171   2.302   2.623 -2.2469  0.3291 -3.1094
  829SOL    HW2 2487   1.012   2.263   2.637  0.2948  0.0713  0.4976
  830SOL     OW 2488   0.919   0.688   0.768  0.0423 -0.3322  0.2883
  830SOL    HW1 2489   0.875   0.599   0.751  1.4408 -2.7138 -0.2969
  830SOL    HW2 2490   0.969   0.723   0.688 -1.0132 -1.8688  0.4705
  831SOL     OW 2491   2.834   1.459   3.061  0.0445 -0.1262 -0.1031
  831SOL    HW1 2492   2.782   1.485   0.071  0.6125 -0.1181 -0.9012
  831SOL    HW2 2493   2.866   1.364   3.066 -1.0681  1.1706  0.0554
  832SOL     OW 2494   1.767   2.130   2.212  0.0648 -0.1347 -0.1511
  832SOL    HW1 2495   1.683   2.077   2.240 -1.2557  1.7491  0.5703
  832SOL    HW2 2496   1.743   2.209   2.153  0.7087 -0.0029  1.7848
  833SOL     OW 2497   0.884   0.437   2.191  0.8281  0.0587 -0.4487
  833SOL    HW1 2498   0.946   0.381   2.259  0.7844 -3.3639  0.6631
  833SOL    HW2 2499   0.805   0.376   2.179  1.2256  1.8685  1.0814
  834SOL     OW 2500   0.085   0.552   1.225 -0.0330 -0.2108  0.0783
  834SOL    HW1 2501   0.050   0.630   1.279 -1.8786  0.7033 -2.4899
  834SOL    HW2 2502   0.141   0.489   1.285  0.0456  2.8128  1.5773
  835SOL     OW 2503   2.631   0.517   0.114 -0.6970  0.3877 -0.1169
  835SOL    HW1 2504   2.608   0.491   0.019  0.9717  2.0434 -2.3068
  835SOL    HW2 2505   2.700   0.458   0.160  0.3008  2.7548 -0.1445
  836SOL     OW 2506   1.381   1.905   0.183 -0.1984 -0.9741  0.1707
  836SOL    HW1 2507   1.449   1.950   0.247 -0.6763  1.3654 -0.1040
  836SOL    HW2 2508   1.416   1.812   0.158  1.4030 -0.0498 -0.7571
  837SOL     OW 2509   1.674   1.694   0.610 -0.1992  0.4070  0.4681
  837SOL    HW1 2510   1.768   1.714   0.581  0.8628 -2.2253 -0.5961
  837SOL    HW2 2511   1.659   1.684   0.708  0.4400 -0.5809 -0.3421
  838SOL     OW 2512   1.413   0.945   2.100 -0.0811  0.6096 -0.1946
  838SOL    HW1 2513   1.413   1.003   2.014  2.2276 -0.6292 -0.4200
  838SOL    HW2 2514   1.316   0.933   2.141 -1.5567 -0.9945  0.6451
  839SOL     OW 2515   0.808   1.710   2.591  0.1714  0.0761  0.6735
  839SOL    HW1 2516   0.744   1.762   2.648  1.9164 -1.4947 -1.7539
  839SOL    HW2 2517   0.811   1.612   2.627 -0.8712  1.8347  3.1490
  840SOL     OW 2518   0.682   2.346   0.584 -0.5020  0.6879  0.4407
  840SOL    HW1 2519   0.760   2.408   0.587 -2.0399 -0.4046  1.3870
  840SOL    HW2 2520   0.702   2.257   0.634  0.6062 -2.8393  2.4674
  841SOL     OW 2521   1.859   2.581   0.097 -0.0036  0.3624 -0.4397
  841SOL    HW1 2522   1.847   2.665   0.155  1.2029 -1.5447  0.4652
  841SOL    HW2 2523   1.801   2.591   0.017 -0.8119  0.8075 -1.6332
  842SOL     OW 2524   0.391   0.635   2.886 -0.3742 -0.2235 -0.2032
  842SOL    HW1 2525   0.472   0.674   2.835 -1.3603 -1.3933  0.1653
  842SOL    HW2 2526   0.308   0.634   2.823 -0.0790  1.0692 -2.3338
  843SOL     OW 2527   1.176   0.314   0.782 -0.1019 -0.1219  0.5281
  843SOL    HW1 2528   1.159   0.254   0.699  0.3098 -0.9062 -0.5012
  843SOL    HW2 2529   1.101   0.322   0.845  0.6180  0.2542 -3.4161
  844SOL     OW 2530   2.939   0.023   2.606  0.5712  0.0089 -0.1726
  844SOL    HW1 2531   2.846   0.008   2.648 -1.6450  1.6378  1.6954
  844SOL    HW2 2532   2.982   3.010   2.579 -0.6724 -0.6857  0.3612
  845SOL     OW 2533   2.667   1.975   1.376  0.1461 -0.0256 -0.4066
  845SOL    HW1 2534   2.588   2.016   1.328 -0.7010  2.1094  0.7566
  845SOL    HW2 2535   2.659   2.011   1.470 -1.1227 -0.0467 -0.7346
  846SOL     OW 2536   2.556   1.400   2.289 -0.4281 -0.4798  1.1640
  846SOL    HW1 2537   2.562   1.410   2.390  0.0289  0.5021 -0.5004
  846SOL    HW2 2538   2.643   1.382   2.246 -0.4308 -0.9909 -0.8191
  847SOL     OW 2539   1.096   0.671   1.507 -0.0163  0.2683  0.1370
  847SOL    HW1 2540   1.088   0.734   1.586 -1.1200 -0.2212 -1.3513
  847SOL    HW2 2541   1.024   0.600   1.502  1.3316  0.4594  1.5819
  848SOL     OW 2542   2.675   2.853   0.060 -0.3382  0.3640  0.2801
  848SOL    HW1 2543   2.609   2.837   0.135  0.4887  1.3644 -0.4778
  848SOL    HW2 2544   2.759   2.901   0.094  0.7225  1.7772 -0.4204
  849SOL     OW 2545   0.527   0.031   0.121 -0.4786 -0.1741 -0.1482
  849SOL    HW1 2546   0.466   3.072   0.193  1.9109  0.1893 -0.2448
  849SOL    HW2 2547   0.559   0.122   0.149 -2.5920 -1.1698 -1.1707
  850SOL     OW 2548   1.552   2.856   1.150 -0.6854  0.0480  0.2858
  850SOL    HW1 2549   1.619   2.932   1.165  0.2922 -0.9872 -1.6970
  850SOL    HW2 2550   1.600   2.767   1.164  1.2529 -1.1301  0.5159
  851SOL     OW 2551   2.586   0.119   2.108  0.0065  0.1619  0.1694
  851SOL    HW1 2552   2.666   0.101   2.047 -3.7982 -0.1788  0.0251
  851SOL    HW2 2553   2.582   0.217   2.137 -2.7183  0.0437  4.7339
  852SOL     OW 2554   1.732   0.671   2.296 -0.0954  0.0652  0.0306
  852SOL    HW1 2555   1.830   0.648   2.276 -0.6984 -0.4048 -0.7904
  852SOL    HW2 2556   1.671   0.594   2.261 -1.1929 -1.4008 -0.0917
  853SOL     OW 2557   2.866   2.988   0.175 -0.0356 -0.2019 -0.4590
  853SOL    HW1 2558   2.772   3.024   0.205 -0.9631 -2.5578 -1.6847
  853SOL    HW2 2559   2.922   3.067   0.135 -1.6306  1.9604 -0.6693
  854SOL     OW 2560   2.379   1.188   2.216  0.3107 -0.1506 -0.3167
  854SOL    HW1 2561   2.451   1.261   2.226 -0.6822  2.2978 -0.6367
  854SOL    HW2 2562   2.352   1.187   2.120  1.4898  0.4853  0.1254
  855SOL     OW 2563   0.848   2.899   0.377 -0.4345 -0.5563 -0.3306
  855SOL    HW1 2564   0.826   2.923   0.280  1.0574 -0.2566 -0.3065
  855SOL    HW2 2565   0.789   2.821   0.408  0.9755  0.9127  1.5317
  856SOL     OW 2566   3.059   3.060   2.859 -0.4314  0.0353  0.2174
  856SOL    HW1 2567   3.029   0.007   2.767 -0.2724  0.5532  0.7258
  856SOL    HW2 2568   3.044   2.962   2.885 -0.5295  0.1087 -0.6097
  857SOL     OW 2569   1.292   2.701   1.502  0.0957 -0.0674 -0.0591
  857SOL    HW1 2570   1.295   2.651   1.415  1.2754  1.8443  1.6376
  857SOL    HW2 2571   1.207   2.674   1.552  1.6667 -1.8342 -0.8103
  858SOL     OW 2572   2.615   2.296   1.722  0.0645 -0.1841 -0.4203
  858SOL    HW1 2573   2.711   2.334   1.739  2.1653 -0.0130 -3.5261
  858SOL    HW2 2574   2.632   2.206   1.681  1.6611  1.6741 -0.1399
  859SOL     OW 2575   1.671   2.209   1.865 -0.1464 -0.1183  0.1356
  859SOL    HW1 2576   1.641   2.235   1.770 -0.3223  2.7351 -0.3189
  859SOL    HW2 2577   1.593   2.192   1.928 -1.0666  1.2614  1.9938
  860SOL     OW 2578   2.056   2.828   2.971  0.0073  0.3573 -0.3391
  860SOL    HW1 2579   2.044   2.877   2.881  0.7508  1.2988 -0.1152
  860SOL    HW2 2580   2.063   2.725   2.963  1.6424  1.8920 -0.0537
  861SOL     OW 2581   2.330   2.828   0.660  0.2250 -0.3795 -0.1125
  861SOL    HW1 2582   2.326   2.738   0.607 -0.2180 -2.3138 -0.3439
  861SOL    HW2 2583   2.429   2.842   0.685  0.2410  0.6069 -0.2024
  862SOL     OW 2584   1.630   0.050   2.541  0.2287 -0.5693 -0.1023
  862SOL    HW1 2585   1.613   3.026   2.562  0.5237  1.4156 -1.0574
  862SOL    HW2 2586   1.548   0.106   2.562  0.1565  0.7499 -1.6649
  863SOL     OW 2587   0.157   0.625   0.971 -0.3821  0.0947  0.0178
  863SOL    HW1 2588   0.132   0.583   1.057 -1.4082  3.0702 -1.3306
  863SOL    HW2 2589   0.209   0.710   1.001  0.5067  0.9560  1.7648
  864SOL     OW 2590   0.281   2.710   2.129 -0.5805  0.3728 -0.0714
  864SOL    HW1 2591   0.351   2.739   2.198  0.4755 -1.0119  0.0148
  864SOL    HW2 2592   0.262   2.612   2.130 -0.2546  1.0474 -0.3767
  865SOL     OW 2593   0.568   1.123   3.001  0.3878 -0.2278  0.2080
  865SOL    HW1 2594   0.637   1.154   3.069  1.2657 -2.0827 -0.7989
  865SOL    HW2 2595   0.514   1.050   3.039 -1.4088  1.3948  0.3169
  866SOL     OW 2596   3.059   0.651   0.069 -0.3096  0.7714  0.1974
  866SOL    HW1 2597   0.078   0.616   0.059  1.1589  3.2355  0.0875
  866SOL    HW2 2598   3.058   0.721   0.139 -1.4362 -1.0857 -2.0707
  867SOL     OW 2599   3.047   2.806   2.927 -0.0970  0.5766  0.3446
  867SOL    HW1 2600   0.010   2.761   3.010 -3.4913 -0.1538 -1.9067
  867SOL    HW2 2601   2.959   2.759   2.902 -1.3570  1.7223 -0.2496
  868SOL     OW 2602   1.452   0.083   0.330  0.3165  0.3567 -0.1177
  868SOL    HW1 2603   1.463   0.185   0.351  0.2302  3.3016 -0.4126
  868SOL    HW2 2604   1.449   0.030   0.415 -1.5724 -2.3270  0.0996
  869SOL     OW 2605   2.148   1.593   0.519  0.5150 -0.0319  0.0859
  869SOL    HW1 2606   2.180   1.690   0.528  0.0831 -0.1762  0.4720
  869SOL    HW2 2607   2.053   1.588   0.549 -0.2245  1.7764  0.3897
  870SOL     OW 2608   1.941   1.782   0.545 -0.1727  0.1626 -0.4277
  870SOL    HW1 2609   1.931   1.804   0.645 -1.6504  1.2774 -1.9398
  870SOL    HW2 2610   1.945   1.863   0.485  2.7762 -3.9208  0.7746
  871SOL     OW 2611   1.255   1.519   1.167  0.2541  0.5602  0.9826
  871SOL    HW1 2612   1.162   1.502   1.209  0.1676  0.8692  0.4012
  871SOL    HW2 2613   1.324   1.467   1.223  0.2863  0.9764  0.8011
  872SOL     OW 2614   1.256   1.515   1.578 -0.0456  0.1140  0.1044
  872SOL    HW1 2615   1.164   1.473   1.606 -0.4687 -2.5400 -1.3201
  872SOL    HW2 2616   1.271   1.609   1.616  2.7226 -0.4239  1.0658
  873SOL     OW 2617   0.616   1.505   2.456  0.2592  0.2795 -0.4321
  873SOL    HW1 2618   0.679   1.480   2.535  0.5188  1.2664  1.2440
  873SOL    HW2 2619   0.621   1.602   2.439 -0.1480 -2.9912 -0.4471
  874SOL     OW 2620   0.763   1.334   1.170  0.1148 -0.6324 -0.1292
  874SOL    HW1 2621   0.738   1.408   1.241 -0.9496  0.8191  1.9982
  874SOL    HW2 2622   0.712   1.248   1.196 -0.2625 -1.0929  0.6617
  875SOL     OW 2623   2.406   0.100   1.160 -0.3646 -0.4783  0.1720
  875SOL    HW1 2624   2.427   0.203   1.176  0.8170  1.7967  0.2155
  875SOL    HW2 2625   2.369   0.055   1.243 -2.6122 -0.9546 -0.3732
  876SOL     OW 2626   0.748   0.777   3.073 -0.6563  0.0159 -0.4966
  876SOL    HW1 2627   0.748   0.676   0.000  1.2725  1.2454 -3.3954
  876SOL    HW2 2628   0.785   0.820   0.082 -1.6780  0.4275  1.7211
  877SOL     OW 2629   2.807   0.309   1.215 -0.1355  0.2378  0.2780
  877SOL    HW1 2630   2.737   0.358   1.167 -0.3440 -1.5355 -0.6492
  877SOL    HW2 2631   2.772   0.248   1.282  0.5322  1.1077 -1.0527
  878SOL     OW 2632   1.646   2.280   0.029  0.0895  0.4622 -0.9640
  878SOL    HW1 2633   1.680   2.360   3.055 -1.4417 -1.8466  0.0725
  878SOL    HW2 2634   1.626   2.208   3.028  0.3990  0.8333 -2.1976
  879SOL     OW 2635   2.249   2.176   1.648  0.3087 -0.3215  0.8928
  879SOL    HW1 2636   2.268   2.206   1.550  0.5286 -0.0473 -1.8938
  879SOL    HW2 2637   2.277   2.244   1.711 -2.4909 -3.1158 -5.3315
  880SOL     OW 2638   0.825   2.968   1.429 -0.6958  0.3086 -0.0227
  880SOL    HW1 2639   0.898   2.998   1.495 -0.3160  1.0237 -0.7751
  880SOL    HW2 2640   0.861   2.896   1.365  1.0519  2.5409 -0.0298
  881SOL     OW 2641   0.974   1.974   2.947  0.2372 -0.2840  0.5005
  881SOL    HW1 2642   1.004   1.951   2.850 -0.2034  0.0399 -1.3280
  881SOL    HW2 2643   1.032   2.049   2.983 -0.9220 -1.7196 -0.9099
  882SOL     OW 2644   2.134   0.839   1.940 -0.2694  0.4179  0.0555
  882SOL    HW1 2645   2.205   0.883   2.000 -0.0184  2.5811  0.1692
  882SOL    HW2 2646   2.137   0.875   1.847 -0.7675  1.2630  0.9376
  883SOL     OW 2647   1.053   0.596   1.844  0.0766  0.3967  0.3302
  883SOL    HW1 2648   1.049   0.681   1.902  1.3453  1.1334 -1.4837
  883SOL    HW2 2649   1.053   0.509   1.902  1.4684 -0.4303 -0.4199
  884SOL     OW 2650   2.948   0.404   3.036 -0.1370 -0.2715 -0.4690
  884SOL    HW1 2651   2.905   0.355   0.041  3.5320  1.6111 -1.0420
  884SOL    HW2 2652   3.002   0.479   0.000  1.6115  1.2958  1.4521
  885SOL     OW 2653   0.582   2.127   0.387  0.1949 -0.0091 -0.2381
  885SOL    HW1 2654   0.616   2.189   0.460 -1.6864 -0.2098  1.7819
  885SOL    HW2 2655   0.656   2.078   0.332  2.6566 -0.7751 -0.1445
  886SOL     OW 2656   1.805   1.277   2.873 -0.1830  0.0131  0.1350
  886SOL    HW1 2657   1.777   1.305   2.778 -1.0661  2.2303 -1.1126
  886SOL    HW2 2658   1.744   1.313   2.946 -0.2734 -2.8399  1.7909
  887SOL     OW 2659   1.757   0.671   1.516 -0.1584 -0.3902 -0.4729
  887SOL    HW1 2660   1.657   0.675   1.491 -0.8943  2.6888  0.2368
  887SOL    HW2 2661   1.807   0.644   1.435 -1.2701 -1.1377  3.9868
  888SOL     OW 2662   2.818   1.026   1.648  0.0739 -0.2579  0.5757
  888SOL    HW1 2663   2.722   1.055   1.637 -0.3597  0.5575 -1.5138
  888SOL    HW2 2664   2.826   0.984   1.734  0.4267  2.0030 -2.1633
  889SOL     OW 2665   2.775   2.781   1.007 -0.2013 -0.3213 -0.0236
  889SOL    HW1 2666   2.846   2.736   0.949  1.0654 -0.6382  1.3512
  889SOL    HW2 2667   2.762   2.733   1.096  1.0844 -1.0925  0.6654
  890SOL     OW 2668   0.100   2.448   2.669 -0.5946 -0.2016  0.3734
  890SOL    HW1 2669   0.065   2.375   2.727  1.5910 -2.5496 -0.2171
  890SOL    HW2 2670   0.187   2.488   2.702 -1.0181 -2.6551 -1.3598
  891SOL     OW 2671   0.765   1.834   3.070  0.6425  0.2479  0.5108
  891SOL    HW1 2672   0.831   1.896   3.025 -0.3887 -1.4787  0.3842
  891SOL    HW2 2673   0.775   1.737   3.047 -1.8325  0.4246 -0.3681
  892SOL     OW 2674   0.166   2.570   1.030  0.4055 -0.1416 -0.5563
  892SOL    HW1 2675   0.248   2.552   0.974  0.8376  3.0727  0.1761
  892SOL    HW2 2676   0.124   2.485   1.066  2.1241 -2.3684  1.9155
  893SOL     OW 2677   0.546   0.038   1.195 -0.1976 -0.5507 -0.4044
  893SOL    HW1 2678   0.632   0.063   1.149  1.7695  0.0150 -1.7711
  893SOL    HW2 2679   0.494   0.117   1.226 -0.8864 -1.8927  1.4852
  894SOL     OW 2680   2.888   1.319   0.860  0.1042 -0.6563  0.6885
  894SOL    HW1 2681   2.870   1.292   0.761 -0.6908 -2.4701 -0.9678
  894SOL    HW2 2682   2.811   1.376   0.882  0.5618 -0.6573  0.3693
  895SOL     OW 2683   2.475   2.500   1.613 -0.0592  0.3569 -0.2519
  895SOL    HW1 2684   2.532   2.430   1.659  2.1489  1.1568 -2.7036
  895SOL    HW2 2685   2.522   2.514   1.525 -2.8622 -3.6522  0.0061
  896SOL     OW 2686   0.926   0.474   1.584 -0.3963 -0.0856  0.2157
  896SOL    HW1 2687   0.989   0.416   1.643  1.2039 -1.4661  0.1409
  896SOL    HW2 2688   0.872   0.540   1.640 -1.4432  0.6276  2.7224
  897SOL     OW 2689   0.867   1.545   1.591  0.2071  0.3941 -0.5093
  897SOL    HW1 2690   0.910   1.470   1.650  0.6204  0.3831  0.6526
  897SOL    HW2 2691   0.876   1.638   1.634  0.2860  3.5715 -1.8956
  898SOL     OW 2692   1.445   2.661   1.769  0.8094  0.1672 -0.1585
  898SOL    HW1 2693   1.407   2.571   1.729 -1.8736  0.2243 -0.3158
  898SOL    HW2 2694   1.371   2.707   1.825  3.0646  0.5913  3.4140
  899SOL     OW 2695   0.891   0.559   0.214  0.4988  0.2969  0.2027
  899SOL    HW1 2696   0.841   0.614   0.280  1.7923 -1.9609 -0.2350
  899SOL    HW2 2697   0.890   0.463   0.239 -2.3300 -0.9401  3.5307
  900SOL     OW 2698   1.454   2.207   2.029 -0.0474 -0.6750  0.1349
  900SOL    HW1 2699   1.452   2.310   2.035 -0.7477  0.7624  0.6776
  900SOL    HW2 2700   1.360   2.174   2.045 -0.0732 -1.1849 -0.0017
  901SOL     OW 2701   0.906   2.421   0.182 -0.2054  0.2812  0.9753
  901SOL    HW1 2702   0.816   2.444   0.220  2.3745 -0.8269  0.5747
  901SOL    HW2 2703   0.916   2.317   0.191  0.4946 -1.2251 -1.0450
  902SOL     OW 2704   1.864   1.336   0.525  0.2501 -0.7062 -0.0289
  902SOL    HW1 2705   1.881   1.277   0.609  1.1636  2.2614 -0.1795
  902SOL    HW2 2706   1.932   1.304   0.455 -1.9950  1.1986  0.0896
  903SOL     OW 2707   2.232   0.930   0.289 -0.0566  0.0702 -0.4252
  903SOL    HW1 2708   2.308   0.968   0.343 -2.9005  1.6274  0.4735
  903SOL    HW2 2709   2.244   0.957   0.190 -0.8094  2.6609  0.1326
  904SOL     OW 2710   0.773   1.241   0.086  0.0936 -0.0187 -0.2186
  904SOL    HW1 2711   0.870   1.273   0.094 -0.6337  0.7155  2.6210
  904SOL    HW2 2712   0.723   1.267   0.175  0.6951  3.8420  1.6963
  905SOL     OW 2713   2.234   2.913   1.297 -0.3219  0.7062  0.0606
  905SOL    HW1 2714   2.213   3.006   1.318  0.2719 -3.1918  0.3725
  905SOL    HW2 2715   2.154   2.861   1.331  0.7438  1.4388 -0.3107
  906SOL     OW 2716   2.757   2.290   1.324  0.2762  0.0569  0.2000
  906SOL    HW1 2717   2.739   2.342   1.239 -0.7842 -0.3758  1.4212
  906SOL    HW2 2718   2.720   2.193   1.327 -0.4901 -0.5331  2.3557
  907SOL     OW 2719   1.312   1.028   0.318  0.0396  0.3065  0.0264
  907SOL    HW1 2720   1.251   1.010   0.239  0.1876  0.3811  2.8046
  907SOL    HW2 2721   1.410   1.025   0.282  1.9318  0.2326 -1.5691
  908SOL     OW 2722   1.808   3.054   0.826 -0.4642  0.3915  0.4851
  908SOL    HW1 2723   1.818   3.065   0.923  0.8389  1.2628 -0.0554
  908SOL    HW2 2724   1.875   0.041   0.777 -0.4857  0.8034 -0.2019
  909SOL     OW 2725   1.989   1.157   1.639 -0.3959  0.2704  0.6245
  909SOL    HW1 2726   1.986   1.147   1.738  1.0388 -0.0977 -1.1048
  909SOL    HW2 2727   2.055   1.230   1.610  0.7983  0.5024  0.6664
  910SOL     OW 2728   1.554   0.151   2.044  0.3924 -0.6007  0.4508
  910SOL    HW1 2729   1.595   0.152   2.137 -1.4551  0.0666  1.0394
  910SOL    HW2 2730   1.616   0.119   1.970 -0.6503 -3.0977  0.2396
  911SOL     OW 2731   2.560   0.571   2.618 -0.3674 -0.0415  0.0012
  911SOL    HW1 2732   2.540   0.607   2.525 -1.8812  0.1870 -0.0223
  911SOL    HW2 2733   2.654   0.532   2.623 -0.3935 -0.7816  0.3112
  912SOL     OW 2734   2.957   1.245   1.798  0.1156  0.9011 -0.1278
  912SOL    HW1 2735   2.996   1.337   1.785 -0.5416 -0.2299 -0.6323
  912SOL    HW2 2736   2.905   1.219   1.715  0.2937 -1.2662 -0.2024
  913SOL     OW 2737   2.924   2.325   1.555 -0.1548  0.6053 -0.1255
  913SOL    HW1 2738   2.999   2.259   1.530  1.2398 -0.7850 -3.7074
  913SOL    HW2 2739   2.844   2.310   1.494 -0.6299  0.1451 -1.0740
  914SOL     OW 2740   1.644   1.090   1.847 -0.2780 -0.7019  0.3751
  914SOL    HW1 2741   1.653   0.998   1.816  0.7581  4.2501  0.9340
  914SOL    HW2 2742   1.674   1.147   1.768 -0.5066 -1.8311  1.5525
  915SOL     OW 2743   2.127   0.702   1.178 -0.5179 -0.2438  0.2485
  915SOL    HW1 2744   2.210   0.679   1.232  2.6385 -1.2178 -2.2154
  915SOL    HW2 2745   2.160   0.702   1.080 -0.1286  0.7799  2.0536
  916SOL     OW 2746   2.455   2.228   1.019 -0.2972 -0.1312 -0.4537
  916SOL    HW1 2747   2.393   2.310   1.037  0.4615 -0.4741 -0.0237
  916SOL    HW2 2748   2.492   2.240   0.925 -2.2332  1.5531  1.0624
  917SOL     OW 2749   1.788   1.959   2.683 -0.3021 -0.1172  0.4064
  917SOL    HW1 2750   1.833   2.024   2.750  2.5348  0.0717 -2.2390
  917SOL    HW2 2751   1.753   1.878   2.733 -0.2604  3.3310  0.5807
  918SOL     OW 2752   1.877   2.661   2.214  0.2561  0.1855  0.2572
  918SOL    HW1 2753   1.943   2.736   2.222 -1.6621  0.9261 -1.6928
  918SOL    HW2 2754   1.923   2.575   2.250  0.0059  0.3206  0.6953
  919SOL     OW 2755   1.193   2.789   1.172  0.0635 -0.3556  0.0709
  919SOL    HW1 2756   1.261   2.814   1.104 -1.6219 -0.7246  2.9112
  919SOL    HW2 2757   1.227   2.699   1.205  0.2291  0.9709 -1.2607
  920SOL     OW 2758   3.053   0.151   2.279  0.4359  0.6273 -0.0746
  920SOL    HW1 2759   3.048   0.049   2.287 -0.1975 -1.4089 -1.4195
  920SOL    HW2 2760   3.026   0.196   2.368 -0.3002  2.3321  0.5174
  921SOL     OW 2761   2.900   0.687   1.732  0.0351 -0.0638 -0.2046
  921SOL    HW1 2762   2.895   0.702   1.834  0.0097 -1.0726  2.3378
  921SOL    HW2 2763   2.946   0.766   1.687  0.4549 -1.8717 -0.4047
  922SOL     OW 2764   2.216   2.058   0.335  0.3975  0.1858 -0.2059
  922SOL    HW1 2765   2.183   2.140   0.282 -0.8200  0.3581  1.6250
  922SOL    HW2 2766   2.251   1.986   0.269  0.1826  0.9933  0.2154
  923SOL     OW 2767   0.775   1.743   0.359 -0.2162  0.3750 -0.3419
  923SOL    HW1 2768   0.752   1.680   0.287  0.2371  1.2336 -1.6328
  923SOL    HW2 2769   0.768   1.835   0.319  1.5211 -0.8867 -2.6743
  924SOL     OW 2770   1.084   0.684   0.067 -0.4733  0.2156 -0.4025
  924SOL    HW1 2771   1.012   0.667   0.135  0.5426  0.3092 -0.0687
  924SOL    HW2 2772   1.056   0.643   3.053  0.6614 -0.8809 -0.9074
  925SOL     OW 2773   2.711   0.585   0.808  0.3498  0.5935 -0.9339
  925SOL    HW1 2774   2.750   0.679   0.800  0.1465  1.7813  0.8083
  925SOL    HW2 2775   2.655   0.564   0.725 -2.1107  3.4742 -1.6350
  926SOL     OW 2776   0.643   0.370   1.314 -0.0903 -0.2634  0.7795
  926SOL    HW1 2777   0.652   0.278   1.265  2.3438 -0.1898 -1.7523
  926SOL    HW2 2778   0.668   0.371   1.410  0.7541 -0.1914 -1.0240
  927SOL     OW 2779   0.086   1.644   2.383 -0.3183  0.2457  0.1191
  927SOL    HW1 2780   0.020   1.667   2.453 -0.1613  1.1036 -5.0497
  927SOL    HW2 2781   0.042   1.579   2.317 -1.2837  1.2606 -0.5044
  928SOL     OW 2782   2.971   0.265   2.539  0.3594 -0.1472  0.2582
  928SOL    HW1 2783   2.956   0.173   2.582  0.1843  1.0652 -1.5354
  928SOL    HW2 2784   2.993   0.330   2.615 -0.1122 -0.0569  1.4955
  929SOL     OW 2785   2.707   0.002   1.144 -0.2787 -0.3775 -0.4096
  929SOL    HW1 2786   2.700   2.976   1.144  0.5450  1.3170 -0.6338
  929SOL    HW2 2787   2.631   0.036   1.196  2.1047 -0.1013 -0.3567
  930SOL     OW 2788   1.725   0.836   1.730  0.2223  0.1191  0.2000
  930SOL    HW1 2789   1.722   0.766   1.656  1.2325  2.4032  2.8219
  930SOL    HW2 2790   1.773   0.801   1.813  1.0419  0.5649  2.5853
  931SOL     OW 2791   2.230   1.034   0.036 -0.3040  0.3828 -0.1050
  931SOL    HW1 2792   2.273   1.123   0.018  1.6545 -1.0095 -1.9713
  931SOL    HW2 2793   2.144   1.014   3.063  0.2245  1.6083  0.1520
  932SOL     OW 2794   1.980   1.145   0.682  0.7929  0.4504 -0.4573
  932SOL    HW1 2795   2.053   1.207   0.717 -0.9378  1.1772  3.0963
  932SOL    HW2 2796   2.020   1.048   0.675  1.7012 -1.8731 -0.7355
  933SOL     OW 2797   2.218   1.560   0.916 -0.2702  0.2600 -0.2491
  933SOL    HW1 2798   2.207   1.517   0.824  0.1705 -1.6510  0.4929
  933SOL    HW2 2799   2.222   1.661   0.904 -0.6218  0.5127 -3.2255
  934SOL     OW 2800   2.177   0.760   2.346  0.0613 -0.1181 -0.6764
  934SOL    HW1 2801   2.242   0.704   2.400  1.1647  0.0475  0.5549
  934SOL    HW2 2802   2.090   0.709   2.337  0.6851  1.6252 -2.0417
  935SOL     OW 2803   0.147   1.092   0.523  0.1735 -0.3661 -0.0061
  935SOL    HW1 2804   0.144   1.191   0.549 -0.1617 -1.9088  1.0750
  935SOL    HW2 2805   0.069   1.042   0.569  1.8133  0.5098  2.1333
  936SOL     OW 2806   0.307   0.209   0.743 -0.0368  0.4824 -0.3453
  936SOL    HW1 2807   0.363   0.125   0.712  3.1304 -1.5453 -1.6143
  936SOL    HW2 2808   0.339   0.260   0.828  0.2397  0.6088  1.5721
  937SOL     OW 2809   0.008   3.027   1.886 -0.1384 -0.1053 -0.2128
  937SOL    HW1 2810   0.020   2.934   1.929  0.4606 -2.0707  0.7930
  937SOL    HW2 2811   0.019   3.024   1.787  1.1346  0.0937 -0.5517
  938SOL     OW 2812   0.008   2.406   0.045  0.6138 -0.3979  0.2983
  938SOL    HW1 2813   0.021   2.384   0.143 -2.2329  1.4531  0.9955
  938SOL    HW2 2814   0.066   2.487   0.022  1.8523  2.2459  0.4947
  939SOL     OW 2815   0.872   1.819   0.782 -0.2826  0.1421  0.3198
  939SOL    HW1 2816   0.880   1.914   0.805 -1.2822 -2.3899 -2.6163
  939SOL    HW2 2817   0.862   1.759   0.865  0.9548  0.0244 -0.1973
  940SOL     OW 2818   3.072   0.426   2.783 -0.1936 -0.4824 -0.2096
  940SOL    HW1 2819   3.015   0.411   2.865  1.7022  0.7466 -2.7912
  940SOL    HW2 2820   0.064   0.348   2.781 -3.6344 -0.8103  3.0909
  941SOL     OW 2821   1.818   0.512   2.643  0.1945 -0.0864  0.0105
  941SOL    HW1 2822   1.800   0.452   2.722  1.0911  1.6099  1.5575
  941SOL    HW2 2823   1.830   0.607   2.683  0.1505  1.4900  3.8232
  942SOL     OW 2824   1.177   0.367   1.151  0.5027  0.0223 -0.0979
  942SOL    HW1 2825   1.263   0.310   1.170  1.6172  2.4359  0.7659
  942SOL    HW2 2826   1.192   0.463   1.186  1.1198  1.6177  1.4363
  943SOL     OW 2827   1.075   0.868   1.700  0.0171  0.4231  0.0393
  943SOL    HW1 2828   1.077   0.852   1.799  1.0620 -2.0490 -0.9050
  943SOL    HW2 2829   0.984   0.905   1.674  1.5974 -0.6784  2.5168
  944SOL     OW 2830   1.863   0.960   1.472 -0.0790 -0.0911  0.0600
  944SOL    HW1 2831   1.826   0.900   1.543  0.8203 -0.6771  2.9461
  944SOL    HW2 2832   1.897   1.040   1.526  0.1935 -1.9444 -0.9551
  945SOL     OW 2833   2.633   0.018   0.263 -0.4559  0.2426  0.4319
  945SOL    HW1 2834   2.633   0.024   0.364  0.4516  0.2027  1.2773
  945SOL    HW2 2835   2.539   3.061   0.240  0.7749  1.3269 -1.3721
  946SOL     OW 2836   2.706   0.482   1.751  0.5284 -0.1763 -0.3617
  946SOL    HW1 2837   2.659   0.513   1.839 -1.9468  0.9933  1.0009
  946SOL    HW2 2838   2.769   0.557   1.721 -0.1861 -0.2065  0.6365
  947SOL     OW 2839   1.151   3.068   0.301 -0.2140 -0.3152 -0.5611
  947SOL    HW1 2840   1.249   3.062   0.307  1.2092 -0.1338  0.6961
  947SOL    HW2 2841   1.119   2.986   0.349  3.0278  0.7873  3.3195
  948SOL     OW 2842   2.284   1.751   1.398 -0.5417 -0.4261  0.7696
  948SOL    HW1 2843   2.380   1.761   1.362  3.9249  0.8583  0.4288
  948SOL    HW2 2844   2.268   1.653   1.425  0.1772  1.2782  1.2739
  949SOL     OW 2845   0.337   1.373   0.043  0.0135 -0.1352  0.3550
  949SOL    HW1 2846   0.243   1.348   0.081 -0.1756 -2.5786  1.9645
  949SOL    HW2 2847   0.338   1.351   3.018  0.5935 -4.0118 -0.5579
  950SOL     OW 2848   0.451   2.393   0.973 -0.1329 -0.1354  0.3446
  950SOL    HW1 2849   0.460   2.473   0.909 -0.5101 -0.9821  0.7547
  950SOL    HW2 2850   0.457   2.308   0.918 -0.1387  2.6274 -0.0906
  951SOL     OW 2851   0.622   1.128   2.568  0.2472 -0.4590 -0.0270
  951SOL    HW1 2852   0.678   1.130   2.653 -0.6412  1.1582 -1.8168
  951SOL    HW2 2853   0.681   1.119   2.485  1.9773  3.2999 -1.6961
  952SOL     OW 2854   0.304   1.099   0.761 -0.1116  0.3399  0.3540
  952SOL    HW1 2855   0.372   1.176   0.756  0.2169 -0.5162 -1.9020
  952SOL    HW2 2856   0.264   1.078   0.670 -2.4201  1.2135 -0.0391
  953SOL     OW 2857   2.838   2.889   2.235  0.1508 -0.0778  0.9948
  953SOL    HW1 2858   2.760   2.944   2.277 -0.7145  0.1519  1.4518
  953SOL    HW2 2859   2.929   2.896   2.283 -1.0477  2.8001  0.1960
  954SOL     OW 2860   1.415   1.167   0.547  0.4073  0.4998 -0.3742
  954SOL    HW1 2861   1.485   1.233   0.510 -0.4913  1.7487 -1.0531
  954SOL    HW2 2862   1.378   1.116   0.469  1.9963  0.1451 -0.3617
  955SOL     OW 2863   0.764   1.980   0.224 -0.3924 -0.3632  0.2426
  955SOL    HW1 2864   0.838   2.049   0.205 -0.1370  2.7586 -1.7650
  955SOL    HW2 2865   0.756   1.917   0.144  0.3289 -2.1464 -1.0963
  956SOL     OW 2866   2.192   0.540   2.058 -0.0524 -0.3307  0.7060
  956SOL    HW1 2867   2.234   0.461   2.097 -1.8604  1.1933  0.7115
  956SOL    HW2 2868   2.240   0.595   1.989 -0.8695  2.5107  0.9087
  957SOL     OW 2869   2.204   2.285   2.388  0.0532 -0.6641  0.5753
  957SOL    HW1 2870   2.223   2.315   2.484 -0.4119 -0.2692 -0.0399
  957SOL    HW2 2871   2.289   2.234   2.355  0.8086 -0.6678 -0.3750
  958SOL     OW 2872   1.700   1.272   1.204  0.0754  0.0028 -0.0375
  958SOL    HW1 2873   1.774   1.208   1.179  1.2779 -2.5236 -2.2615
  958SOL    HW2 2874   1.659   1.239   1.291 -1.1879  1.4470 -1.7418
  959SOL     OW 2875   2.008   2.039   2.308  0.2211  0.1569  0.1060
  959SOL    HW1 2876   2.065   2.113   2.347 -0.1343 -2.1258  1.5755
  959SOL    HW2 2877   1.921   2.075   2.270 -2.0830 -2.6113 -1.7756
  960SOL     OW 2878   0.139   0.954   2.614 -0.0786 -0.4578  0.5776
  960SOL    HW1 2879   0.090   1.040   2.583 -0.6185  1.1808 -0.6462
  960SOL    HW2 2880   0.232   0.939   2.580 -2.9528 -1.8447  1.2275
  961SOL     OW 2881   0.114   1.007   2.898  0.3020 -0.4879  0.4336
  961SOL    HW1 2882   0.136   0.944   2.819  0.2861 -0.1798 -3.2464
  961SOL    HW2 2883   0.051   1.077   2.864 -0.3220 -3.2715 -0.5102
  962SOL     OW 2884   0.361   1.288   2.593 -0.6814 -0.1982  0.1200
  962SOL    HW1 2885   0.304   1.241   2.520  0.4650  1.9054 -2.9462
  962SOL    HW2 2886   0.456   1.250   2.615  1.2929 -0.3798  0.4189
  963SOL     OW 2887   2.805   2.160   0.030  0.4761 -0.5001  0.1917
  963SOL    HW1 2888   2.823   2.247   3.050  1.7664 -2.0538 -2.1487
  963SOL    HW2 2889   2.789   2.082   3.045 -0.4565  2.3185  2.1546
  964SOL     OW 2890   0.923   2.253   1.652  0.4977  0.3454  0.1354
  964SOL    HW1 2891   1.002   2.225   1.703 -1.2998 -0.1319 -1.7944
  964SOL    HW2 2892   0.872   2.327   1.705 -0.7312  0.6534  2.0226
  965SOL     OW 2893   1.948   2.000   0.348 -0.3146  0.0733  0.2905
  965SOL    HW1 2894   1.908   2.067   0.288 -1.3278 -0.4170 -0.5175
  965SOL    HW2 2895   2.049   2.007   0.364 -0.1635  2.0177  0.4532
  966SOL     OW 2896   2.799   1.570   0.420  0.1013 -0.0921 -0.3744
  966SOL    HW1 2897   2.809   1.503   0.343  0.7557  0.4603  0.0290
  966SOL    HW2 2898   2.782   1.664   0.390 -0.2338  1.2221  0.2184
  967SOL     OW 2899   1.848   2.908   1.661  0.2741  0.1806 -0.0244
  967SOL    HW1 2900   1.838   2.833   1.595 -0.0968 -0.5630 -1.5818
  967SOL    HW2 2901   1.794   2.885   1.744  0.1195 -0.1084  0.1566
  968SOL     OW 2902   1.261   0.348   0.151  0.0663  0.2142  0.5004
  968SOL    HW1 2903   1.344   0.397   0.173 -1.0273  1.1237  0.3245
  968SOL    HW2 2904   1.184   0.399   0.197  2.7976 -1.7671 -1.7016
  969SOL     OW 2905   0.170   1.422   2.124 -0.3308 -0.1415 -0.0646
  969SOL    HW1 2906   0.218   1.443   2.210 -0.5136  0.7623 -1.4081
  969SOL    HW2 2907   0.199   1.465   2.043 -1.8980 -0.8339  0.3629
  970SOL     OW 2908   1.997   2.144   1.330 -0.0539  0.3945 -0.1600
  970SOL    HW1 2909   1.911   2.137   1.387  0.3855 -1.0372  1.4647
  970SOL    HW2 2910   1.981   2.196   1.242  0.2069 -2.9707  0.9359
  971SOL     OW 2911   2.591   2.579   0.952  0.2246  0.1969 -0.0026
  971SOL    HW1 2912   2.654   2.517   0.993 -0.8593  0.8785 -0.8483
  971SOL    HW2 2913   2.636   2.669   0.933 -1.1776  2.3099  1.3715
  972SOL     OW 2914   3.036   1.158   2.539 -0.3476 -0.3656 -0.2867
  972SOL    HW1 2915   3.059   1.186   2.443  0.3005 -1.3820 -1.4864
  972SOL    HW2 2916   2.938   1.152   2.548  1.9695 -2.5032 -1.0879
  973SOL     OW 2917   0.610   0.529   0.620 -0.0680  0.0459 -0.4456
  973SOL    HW1 2918   0.556   0.578   0.690 -2.3945  0.0690  4.7639
  973SOL    HW2 2919   0.691   0.489   0.666  0.2641  0.1884  3.4078
  974SOL     OW 2920   2.163   0.925   1.680  0.7027  0.1448  0.1755
  974SOL    HW1 2921   2.102   1.008   1.669  1.0736 -0.8294  1.0606
  974SOL    HW2 2922   2.126   0.843   1.633  0.2547 -0.5227 -3.0224
  975SOL     OW 2923   0.006   2.817   0.173 -0.0025 -0.0846 -0.3106
  975SOL    HW1 2924   3.000   2.877   0.176  2.0310  2.1658 -1.7700
  975SOL    HW2 2925   0.036   2.777   0.258 -0.7892  0.8327 -3.2998
  976SOL     OW 2926   0.438   1.854   1.098 -0.4397 -0.1802 -0.1521
  976SOL    HW1 2927   0.378   1.810   1.172 -1.9860 -1.7073 -1.9050
  976SOL    HW2 2928   0.447   1.799   1.012  1.9920 -2.0083 -1.5035
  977SOL     OW 2929   1.069   1.882   0.599 -0.2089  0.2309  0.1734
  977SOL    HW1 2930   1.124   1.805   0.564 -0.0313  0.4134  0.7707
  977SOL    HW2 2931   0.989   1.852   0.656 -0.8694 -1.2045 -1.7599
  978SOL     OW 2932   0.252   1.015   0.053  0.4247 -0.3416  0.3685
  978SOL    HW1 2933   0.334   0.966   0.028  0.8365  0.0537 -0.9277
  978SOL    HW2 2934   0.186   1.020   3.047 -0.8697 -0.9800 -1.9559
  979SOL     OW 2935   2.183   1.569   0.253 -0.5190  0.2270 -0.2747
  979SOL    HW1 2936   2.239   1.488   0.245 -0.4749  0.2674  0.2072
  979SOL    HW2 2937   2.164   1.588   0.347 -0.8984 -0.5965 -4.2978
  980SOL     OW 2938   0.588   2.148   2.065 -0.3241  0.3154 -0.4013
  980SOL    HW1 2939   0.685   2.133   2.085  1.1582 -0.8253 -1.7695
  980SOL    HW2 2940   0.577   2.248   2.051 -0.4749 -1.5441 -0.2464
  981SOL     OW 2941   2.611   0.941   0.113  0.4370  0.0002  0.1935
  981SOL    HW1 2942   2.634   0.860   0.169  0.8936 -0.0214  0.9321
  981SOL    HW2 2943   2.588   0.911   0.021  0.0799  1.9256  2.0517
  982SOL     OW 2944   0.155   2.453   1.868 -0.3162 -0.1000  0.2126
  982SOL    HW1 2945   0.078   2.491   1.923 -0.1703 -0.4783 -2.1162
  982SOL    HW2 2946   0.203   2.528   1.816  0.5047  2.0461  0.3209
  983SOL     OW 2947   1.668   0.291   1.515 -0.4795  0.0811  0.0354
  983SOL    HW1 2948   1.673   0.188   1.506  0.4798 -1.8664 -0.2879
  983SOL    HW2 2949   1.621   0.336   1.437 -0.7075 -1.6778 -0.0649
  984SOL     OW 2950   1.539   2.834   2.612 -0.3637  0.3986 -0.3381
  984SOL    HW1 2951   1.567   2.789   2.521 -1.1876  1.1078 -2.0857
  984SOL    HW2 2952   1.436   2.827   2.611  2.5459  0.7276 -0.8416
  985SOL     OW 2953   1.418   1.435   1.372 -0.0381  0.3952  0.5727
  985SOL    HW1 2954   1.458   1.340   1.376 -1.8242 -2.1775 -0.7084
  985SOL    HW2 2955   1.372   1.468   1.454 -0.4829 -0.5081  1.4048
  986SOL     OW 2956   2.038   2.890   2.227 -0.0937 -0.4287 -0.3501
  986SOL    HW1 2957   2.135   2.902   2.186  1.3968 -1.1033  0.2880
  986SOL    HW2 2958   1.981   2.973   2.231 -1.7825  2.2816 -2.5419
  987SOL     OW 2959   2.644   1.757   2.748  0.4163  0.1859  0.1601
  987SOL    HW1 2960   2.675   1.830   2.814 -2.1797  0.7679  0.4781
  987SOL    HW2 2961   2.644   1.783   2.653 -0.8592 -1.5958  4.1096
  988SOL     OW 2962   2.674   0.695   1.504  0.1307  0.2715 -0.6548
  988SOL    HW1 2963   2.657   0.784   1.461  1.4472 -1.7509  0.6782
  988SOL    HW2 2964   2.764   0.650   1.475  0.2916  1.1749  1.5004
  989SOL     OW 2965   1.730   1.265   1.631  0.6726 -0.5544  0.1019
  989SOL    HW1 2966   1.738   1.351   1.688  0.3919 -0.6826  0.6024
  989SOL    HW2 2967   1.818   1.220   1.627 -4.9191  0.3666  2.4284
  990SOL     OW 2968   2.964   0.946   3.066 -0.1523 -0.5662  0.6123
  990SOL    HW1 2969   2.900   0.887   0.043 -1.9554 -1.0179  1.8477
  990SOL    HW2 2970   3.057   0.904   3.045 -0.0850 -0.4008  0.8283
  991SOL     OW 2971   0.249   1.918   2.898 -0.1078 -0.3981 -0.4478
  991SOL    HW1 2972   0.178   1.967   2.958 -0.5574  1.3782  3.7358
  991SOL    HW2 2973   0.343   1.922   2.945  1.6218 -0.7892  1.2286
  992SOL     OW 2974   2.639   1.818   1.787 -0.1949  0.2995  0.1551
  992SOL    HW1 2975   2.566   1.761   1.827 -0.3601  0.0757  1.6854
  992SOL    HW2 2976   2.711   1.827   1.852 -2.3326  0.1190 -2.7886
  993SOL     OW 2977   0.584   0.097   0.894 -0.0745 -0.3990 -0.0736
  993SOL    HW1 2978   0.531   0.181   0.934 -0.5498  2.4870  1.0335
  993SOL    HW2 2979   0.684   0.111   0.902 -4.1923 -1.0953 -2.4701
  994SOL     OW 2980   2.695   2.039   1.644 -0.4446  0.6198 -0.1899
  994SOL    HW1 2981   2.795   2.063   1.673  1.2990 -0.0113  2.4709
  994SOL    HW2 2982   2.663   1.961   1.708 -1.1940 -2.2761  3.2725
  995SOL     OW 2983   2.040   1.913   2.561 -0.0885  0.0062 -0.2498
  995SOL    HW1 2984   1.950   1.925   2.606  1.0821  0.5973  1.2718
  995SOL    HW2 2985   2.037   1.924   2.457 -0.0679  0.9998 -3.4203
  996SOL     OW 2986   1.987   1.810   0.014 -0.4421 -0.9473 -0.0602
  996SOL    HW1 2987   1.903   1.865   0.042  1.1355 -0.0818  1.4050
  996SOL    HW2 2988   2.037   1.775   0.096 -1.2643  0.1434  2.2434
  997SOL     OW 2989   1.025   1.384   1.737 -0.2608  0.1219 -0.2665
  997SOL    HW1 2990   1.000   1.408   1.830  3.9507 -0.8887 -1.5228
  997SOL    HW2 2991   1.065   1.290   1.733 -1.0324  1.0749  0.6889
  998SOL     OW 2992   2.705   2.031   0.704  0.7286  0.1736  0.2012
  998SOL    HW1 2993   2.635   2.000   0.635  0.3776 -1.0039 -1.8285
  998SOL    HW2 2994   2.702   1.989   0.797 -1.4232  1.1081  1.1856
  999SOL     OW 2995   0.072   2.684   0.398  0.5848  0.3241 -0.0212
  999SOL    HW1 2996   0.084   2.594   0.440 -0.2395  0.4954 -1.1815
  999SOL    HW2 2997   3.060   2.729   0.424 -0.5727  0.7203  0.7513
 1000SOL     OW 2998   1.222   0.183   2.868  0.0597 -0.5289 -0.2217
 1000SOL    HW1 2999   1.232   0.272   2.912 -1.3996 -0.3297 -2.6079
 1000SOL    HW2 3000   1.135   0.179   2.815  0.2963 -1.0604 -0.0226
   3.07525   3.07525   3.07525
