1000 SPC/Fw water molecules t= 163.00000 step= 163000
 3000
    1SOL     OW    1   2.756   2.707   0.609 -0.6127 -0.5748 -0.1997
    1SOL    HW1    2   2.848   2.693   0.571  0.1306  2.2125  0.1376
    1SOL    HW2    3   2.732   2.642   0.684  1.6738  1.3405  1.6799
    2SOL     OW    4   1.342   2.015   2.357 -1.0626  0.0840  0.7097
    2SOL    HW1    5   1.272   2.049   2.291  0.7781  1.0514 -1.5187
    2SOL    HW2    6   1.431   2.028   2.307 -1.3869  2.6963 -2.4406
    3SOL     OW    7   1.860   2.433   2.108 -0.0416  0.0245  0.9258
    3SOL    HW1    8   1.933   2.457   2.044 -0.6568 -1.3807  0.2487
    3SOL    HW2    9   1.894   2.345   2.150 -2.4090  3.2077 -1.5376
    4SOL     OW   10   1.906   2.195   2.271 -0.0557  0.0612 -0.1984
    4SOL    HW1   11   1.986   2.135   2.291  0.9921  0.2112  0.2821
    4SOL    HW2   12   1.843   2.204   2.347  0.2427  2.3051 -2.5226
    5SOL     OW   13   0.795   0.788   1.623 -0.0552  0.5848  0.6467
    5SOL    HW1   14   0.843   0.852   1.689  2.9451  1.1503  0.0291
    5SOL    HW2   15   0.813   0.691   1.639 -1.4967  1.4727 -0.4362
    6SOL     OW   16   2.305   0.951   2.897  0.1363 -0.7765 -0.2129
    6SOL    HW1   17   2.340   1.001   2.812  1.2865 -0.6797 -2.0630
    6SOL    HW2   18   2.206   0.943   2.902  3.8770 -0.6361  0.3097
    7SOL     OW   19   1.044   0.545   1.177  0.3177 -0.1484  0.1998
    7SOL    HW1   20   1.130   0.556   1.226 -0.2881  0.1069 -0.3015
    7SOL    HW2   21   1.016   0.639   1.145  0.8602 -2.0442 -1.9744
    8SOL     OW   22   1.033   2.388   1.354  0.2702  0.2119 -0.3066
    8SOL    HW1   23   1.008   2.304   1.406 -0.6530  2.1084  0.4721
    8SOL    HW2   24   1.036   2.468   1.417  0.3498 -0.0481  2.4571
    9SOL     OW   25   0.624   1.170   0.217  0.1009  0.4492  0.0415
    9SOL    HW1   26   0.579   1.137   0.128 -0.2240 -3.0301 -0.2055
    9SOL    HW2   27   0.703   1.111   0.239 -2.4990  1.0234  0.2804
   10SOL     OW   28   0.396   2.964   2.987  0.3988 -0.2176  0.1040
   10SOL    HW1   29   0.305   2.927   2.958 -1.3392  1.6353 -1.0087
   10SOL    HW2   30   0.460   2.888   3.010 -0.4835 -0.4965 -1.5999
   11SOL     OW   31   0.114   1.310   2.909  0.1567  0.0464 -0.3921
   11SOL    HW1   32   0.194   1.341   2.853  2.2108 -2.2731  1.3030
   11SOL    HW2   33   0.136   1.329   3.012  0.7079  0.0680  4.0584
   12SOL     OW   34   0.639   0.024   1.358  0.1279 -0.0696 -0.7430
   12SOL    HW1   35   0.618   3.097   1.281  0.7939  0.1830  2.4400
   12SOL    HW2   36   0.553   0.065   1.395 -1.4922 -1.2843 -1.9606
   13SOL     OW   37   0.646   2.855   0.557 -0.1272  0.3716  0.0270
   13SOL    HW1   38   0.716   2.781   0.558 -1.1174  0.4598  1.3244
   13SOL    HW2   39   0.675   2.941   0.514 -1.0650  1.7243 -0.3458
   14SOL     OW   40   1.467   1.897   0.852 -0.6721  0.5890 -0.2679
   14SOL    HW1   41   1.500   1.991   0.850  0.6619 -0.2642  0.3349
   14SOL    HW2   42   1.415   1.873   0.940  1.6394 -1.6105 -1.3216
   15SOL     OW   43   2.684   0.890   2.441 -0.1466  0.0565 -0.6814
   15SOL    HW1   44   2.620   0.837   2.501 -0.2309 -0.5165 -0.1730
   15SOL    HW2   45   2.634   0.917   2.357 -0.0244  0.5854  3.2785
   16SOL     OW   46   1.373   3.078   2.993 -0.3342 -0.0293 -0.0861
   16SOL    HW1   47   1.391   2.994   2.941  0.0469  1.7792  0.5794
   16SOL    HW2   48   1.295   3.127   2.949 -0.8785  1.3610  0.1438
   17SOL     OW   49   0.644   2.472   1.801 -0.1851  0.4447  0.8332
   17SOL    HW1   50   0.633   2.554   1.857  0.9202  0.7540 -1.3392
   17SOL    HW2   51   0.596   2.489   1.713 -0.2243  1.7706  0.1411
   18SOL     OW   52   1.292   0.839   0.039 -0.1679  0.3145  0.3338
   18SOL    HW1   53   1.372   0.835   3.109 -2.2444 -0.1980 -0.0638
   18SOL    HW2   54   1.280   0.753   0.097 -0.1566 -0.0637  0.8711
   19SOL     OW   55   2.139   1.909   2.969  0.3203 -0.0950  0.0378
   19SOL    HW1   56   2.126   1.998   3.019  2.4217 -1.0432 -0.4816
   19SOL    HW2   57   2.197   1.922   2.889  0.8682  1.4523  3.9678
   20SOL     OW   58   2.267   1.843   1.964 -0.1755 -0.0053 -0.0050
   20SOL    HW1   59   2.344   1.845   2.028 -2.5667  0.5732 -0.1332
   20SOL    HW2   60   2.188   1.790   2.003 -1.5480 -1.6940 -1.3218
   21SOL     OW   61   0.322   1.631   2.933  0.3279 -0.5145 -0.1628
   21SOL    HW1   62   0.363   1.627   3.027  2.3385 -1.0252  0.5228
   21SOL    HW2   63   0.390   1.639   2.861  2.2887  3.3626  0.6263
   22SOL     OW   64   2.490   3.055   1.356  0.1535 -0.2447 -0.2937
   22SOL    HW1   65   2.554   2.998   1.307 -2.4415  3.0701  2.9801
   22SOL    HW2   66   2.389   3.013   1.355 -2.9177 -0.2702  1.8724
   23SOL     OW   67   3.048   0.993   1.872 -0.1852  0.7685  0.1241
   23SOL    HW1   68   2.959   0.944   1.874 -2.1609 -1.3530  1.5221
   23SOL    HW2   69   3.114   0.935   1.824 -1.3938  1.2250 -0.7894
   24SOL     OW   70   2.748   1.848   1.406  0.6525  0.9458 -0.0259
   24SOL    HW1   71   2.659   1.867   1.449  0.7515  1.8695 -1.4545
   24SOL    HW2   72   2.788   1.767   1.454  0.4428  1.5898  1.2296
   25SOL     OW   73   1.974   0.063   2.552  0.2113  0.1271  0.2532
   25SOL    HW1   74   1.993   0.011   2.466 -1.5328  1.2721  1.0094
   25SOL    HW2   75   1.929   3.130   2.615 -0.5274  0.8602 -2.7296
   26SOL     OW   76   1.445   3.066   0.574  0.6027  0.4404 -0.0678
   26SOL    HW1   77   1.486   0.025   0.550 -3.9416 -1.2809  0.0794
   26SOL    HW2   78   1.476   3.026   0.659 -0.6408 -2.4819 -2.5578
   27SOL     OW   79   0.813   2.049   0.011 -0.1605 -0.1310 -0.1300
   27SOL    HW1   80   0.817   2.046   0.114 -0.5967 -0.2681  1.3862
   27SOL    HW2   81   0.727   1.999   3.111  0.0012 -3.5917  2.6272
   28SOL     OW   82   2.832   1.513   1.103 -0.0540 -0.3388 -0.8671
   28SOL    HW1   83   2.759   1.575   1.069 -0.4193 -3.1456 -0.2353
   28SOL    HW2   84   2.881   1.470   1.021  0.5271 -0.1593 -3.0339
   29SOL     OW   85   2.598   2.118   2.264 -0.0894 -0.0031 -0.2700
   29SOL    HW1   86   2.519   2.177   2.238  0.4780  0.0039  4.2506
   29SOL    HW2   87   2.683   2.175   2.272 -0.7124  0.8731  0.4010
   30SOL     OW   88   1.029   2.881   0.901 -0.4898 -0.2809  0.5927
   30SOL    HW1   89   1.062   2.903   0.807 -1.1319 -0.7661 -1.7698
   30SOL    HW2   90   0.964   2.952   0.928  0.2310 -0.4908  0.7488
   31SOL     OW   91   3.035   2.210   1.799  0.4093 -0.4939 -0.4860
   31SOL    HW1   92   3.034   2.304   1.755  0.5553  3.2127 -0.8736
   31SOL    HW2   93   3.125   2.163   1.789 -0.7440  1.6868  0.6199
   32SOL     OW   94   1.331   0.972   1.905  0.1167  0.2606 -0.0211
   32SOL    HW1   95   1.344   0.968   1.805 -2.5497  2.2183  0.6142
   32SOL    HW2   96   1.415   0.953   1.955  0.9173 -1.1577 -0.7022
   33SOL     OW   97   0.628   2.823   2.559 -0.1424 -0.8578 -0.4890
   33SOL    HW1   98   0.663   2.877   2.476  2.3259  0.7372 -0.8222
   33SOL    HW2   99   0.623   2.876   2.649 -1.2526 -0.8529  0.6931
   34SOL     OW  100   1.822   2.857   1.461 -0.0047 -0.6752  0.4933
   34SOL    HW1  101   1.744   2.867   1.525 -0.7634 -1.5059 -2.0163
   34SOL    HW2  102   1.852   2.761   1.464 -0.6582 -0.9489  1.8247
   35SOL     OW  103   2.261   0.573   1.159  0.3187  0.3428 -0.3476
   35SOL    HW1  104   2.215   0.658   1.118 -0.2767  2.7866  2.8202
   35SOL    HW2  105   2.280   0.584   1.262  0.8635  0.7683  2.2134
   36SOL     OW  106   2.187   2.507   2.152 -0.4970 -0.4526 -1.0087
   36SOL    HW1  107   2.200   2.474   2.250  2.9383 -2.2685  1.6293
   36SOL    HW2  108   2.274   2.554   2.117  1.7005  3.3121  0.0272
   37SOL     OW  109   0.985   2.431   2.308 -0.2739  0.5996 -0.4176
   37SOL    HW1  110   1.060   2.375   2.352  0.8956 -0.0981 -1.1462
   37SOL    HW2  111   0.921   2.475   2.376  0.3996  1.8951  2.0442
   38SOL     OW  112   2.371   0.424   0.102 -0.1151  0.0197 -0.1760
   38SOL    HW1  113   2.368   0.331   0.140 -1.0684  1.3271  1.8572
   38SOL    HW2  114   2.400   0.418   3.131 -0.0694 -1.9479 -0.9625
   39SOL     OW  115   2.010   1.785   2.491  0.2871 -0.2385  0.1489
   39SOL    HW1  116   1.944   1.861   2.500 -2.3611  1.0635 -1.1053
   39SOL    HW2  117   1.957   1.706   2.458  0.0149  0.5150 -1.0115
   40SOL     OW  118   0.031   3.015   2.459  0.1171 -0.2467 -0.1446
   40SOL    HW1  119   3.071   3.044   2.413 -0.6841 -1.0206  1.8425
   40SOL    HW2  120   0.040   2.914   2.447 -1.5180 -1.5721 -1.2398
   41SOL     OW  121   1.698   0.521   1.529 -0.7353 -0.5488 -0.2355
   41SOL    HW1  122   1.612   0.471   1.512 -0.9285  0.5523 -2.0426
   41SOL    HW2  123   1.774   0.460   1.495 -0.0254  1.6176 -0.6845
   42SOL     OW  124   0.641   0.306   1.736 -0.3408  0.4046  0.2954
   42SOL    HW1  125   0.628   0.325   1.639 -1.6643  0.8098 -1.8168
   42SOL    HW2  126   0.688   0.218   1.757  1.9263  0.9567  0.2141
   43SOL     OW  127   1.601   0.104   1.972 -0.3844 -0.1091 -0.5199
   43SOL    HW1  128   1.554   0.035   2.030  3.9399 -0.2621  0.8010
   43SOL    HW2  129   1.692   0.132   2.014 -0.5899  1.1750 -0.0995
   44SOL     OW  130   0.169   2.700   2.691 -0.3316  0.9238  0.1625
   44SOL    HW1  131   0.231   2.741   2.617 -1.9578  1.6560 -1.6925
   44SOL    HW2  132   0.076   2.739   2.687 -4.1975 -2.7286 -0.5147
   45SOL     OW  133   0.200   2.359   1.553 -0.3305 -0.0500  0.2249
   45SOL    HW1  134   0.168   2.381   1.647  1.4808  0.0056  0.5647
   45SOL    HW2  135   0.303   2.363   1.540  1.3127  2.0702  0.3176
   46SOL     OW  136   2.183   2.094   2.363 -0.4823  0.0726  0.5663
   46SOL    HW1  137   2.178   2.125   2.459 -1.4340 -0.4602 -3.9047
   46SOL    HW2  138   2.266   2.043   2.352 -2.8422  3.1361 -0.8313
   47SOL     OW  139   1.855   1.797   1.666 -0.8668  0.1771 -0.3005
   47SOL    HW1  140   1.891   1.895   1.680  1.9119  1.0048 -0.3863
   47SOL    HW2  141   1.893   1.739   1.746  2.8408 -3.5871  3.2015
   48SOL     OW  142   0.496   1.765   0.330 -0.7676 -0.0605  0.1503
   48SOL    HW1  143   0.578   1.785   0.270 -0.2293  2.4219 -0.8613
   48SOL    HW2  144   0.530   1.748   0.427 -2.5935  1.5539 -0.6996
   49SOL     OW  145   2.749   0.479   2.373  0.0108 -0.3432  0.1894
   49SOL    HW1  146   2.720   0.476   2.473 -2.3839  1.5489 -0.6627
   49SOL    HW2  147   2.755   0.577   2.336  0.7096  1.8755 -2.2452
   50SOL     OW  148   1.931   0.608   0.842  0.0431 -0.2795  0.0814
   50SOL    HW1  149   1.930   0.689   0.903 -1.2091 -1.8420 -3.8714
   50SOL    HW2  150   1.882   0.634   0.761  4.3010 -1.4713  2.1435
   51SOL     OW  151   1.287   0.703   1.024 -0.1203 -0.4119  0.0417
   51SOL    HW1  152   1.198   0.735   1.068 -2.6808  2.1798  2.9351
   51SOL    HW2  153   1.348   0.781   0.997 -1.4855 -1.3018 -0.8197
   52SOL     OW  154   1.356   1.161   0.014  0.3478  0.1289 -0.6081
   52SOL    HW1  155   1.396   1.129   0.101 -2.0564 -2.1061 -1.7692
   52SOL    HW2  156   1.276   1.218   0.037 -1.6839  0.3203 -2.2625
   53SOL     OW  157   1.340   2.032   2.997  0.2132  0.4127  0.3939
   53SOL    HW1  158   1.243   2.048   2.984  1.5177 -0.0590 -0.1961
   53SOL    HW2  159   1.379   2.093   3.072  0.9139  0.9481 -0.3648
   54SOL     OW  160   1.868   0.361   1.388  0.7425 -0.0901  0.8321
   54SOL    HW1  161   1.868   0.283   1.325 -0.5021  4.2517 -2.3182
   54SOL    HW2  162   1.951   0.371   1.448 -1.4999 -0.6755 -0.4947
   55SOL     OW  163   2.191   2.907   0.640  0.2145 -0.3408 -0.2280
   55SOL    HW1  164   2.247   2.874   0.555  3.3174 -0.8467 -3.6117
   55SOL    HW2  165   2.091   2.885   0.638  0.3394 -2.3813  1.5225
   56SOL     OW  166   0.752   2.704   1.254  0.2882  0.1520 -0.2362
   56SOL    HW1  167   0.852   2.708   1.218  1.1186  0.4445  3.8481
   56SOL    HW2  168   0.752   2.717   1.358  0.3062  0.0028  2.1756
   57SOL     OW  169   1.840   1.351   0.523 -0.5812  0.4713 -0.3840
   57SOL    HW1  170   1.780   1.286   0.471  2.1307 -0.7195 -1.9806
   57SOL    HW2  171   1.937   1.329   0.507 -0.4825 -0.9830 -0.0684
   58SOL     OW  172   0.410   1.207   2.257 -0.5817 -0.2280 -0.1642
   58SOL    HW1  173   0.383   1.266   2.338  1.0821  1.1527 -1.3892
   58SOL    HW2  174   0.328   1.156   2.225  0.6141 -0.0912  3.3858
   59SOL     OW  175   0.680   2.643   2.746  0.4498  0.1407  0.0495
   59SOL    HW1  176   0.769   2.650   2.795 -0.2955 -2.3121 -0.3688
   59SOL    HW2  177   0.660   2.723   2.683 -0.6621 -0.5517 -0.8256
   60SOL     OW  178   2.589   2.521   1.005  0.0423 -0.4975  0.5191
   60SOL    HW1  179   2.502   2.468   0.984 -0.1031  0.4044 -0.3260
   60SOL    HW2  180   2.566   2.614   1.034  2.1238 -3.0199  0.2637
   61SOL     OW  181   1.264   2.125   0.639  0.1857  0.5273 -0.3367
   61SOL    HW1  182   1.232   2.111   0.735  2.2000 -1.4302 -1.4944
   61SOL    HW2  183   1.367   2.135   0.640  0.8719  0.3518  1.6125
   62SOL     OW  184   2.044   2.709   2.809  0.4953 -0.6101 -0.0207
   62SOL    HW1  185   2.057   2.632   2.877  3.1952  0.3144  1.8050
   62SOL    HW2  186   2.117   2.780   2.826  0.2568 -0.6648 -0.1173
   63SOL     OW  187   1.956   0.419   3.105 -0.2641  1.1076 -0.0016
   63SOL    HW1  188   1.868   0.432   0.024 -0.1091  0.3592 -0.0170
   63SOL    HW2  189   2.028   0.479   0.011 -0.0190 -1.1589 -0.9564
   64SOL     OW  190   0.956   1.137   2.859 -0.1075 -1.1012  0.4639
   64SOL    HW1  191   0.987   1.231   2.829 -1.0318 -0.7744  0.5476
   64SOL    HW2  192   0.885   1.150   2.928 -0.9954  0.2046 -1.5202
   65SOL     OW  193   1.462   2.423   0.644 -0.2403 -0.5872  0.5217
   65SOL    HW1  194   1.439   2.470   0.555 -0.7253  1.2545  0.0218
   65SOL    HW2  195   1.504   2.328   0.630  2.4015 -0.1663 -3.3625
   66SOL     OW  196   0.663   1.249   1.813  0.4077 -0.1039  0.0580
   66SOL    HW1  197   0.734   1.204   1.863 -0.2715  1.4901  1.8892
   66SOL    HW2  198   0.578   1.259   1.865  1.8191 -3.0480 -1.3299
   67SOL     OW  199   2.427   3.058   2.294 -0.1184  0.0118 -0.3021
   67SOL    HW1  200   2.350   3.114   2.254 -1.0708  2.2245 -0.9232
   67SOL    HW2  201   2.505   3.116   2.322 -0.2211 -3.5395 -0.4195
   68SOL     OW  202   0.972   1.203   1.114 -0.6145 -0.1941  0.0686
   68SOL    HW1  203   0.990   1.125   1.176 -1.5761 -0.0117 -1.2141
   68SOL    HW2  204   0.888   1.182   1.062 -0.7298  0.0121 -1.8168
   69SOL     OW  205   1.947   2.589   0.355  0.3434 -0.4917 -0.2480
   69SOL    HW1  206   1.923   2.687   0.331 -2.2168 -0.4414  0.4987
   69SOL    HW2  207   1.909   2.561   0.445  3.8566 -1.3227  0.9966
   70SOL     OW  208   2.856   1.093   2.394 -0.6075  0.7487 -0.0587
   70SOL    HW1  209   2.955   1.067   2.379 -1.3998  2.8992 -0.4336
   70SOL    HW2  210   2.791   1.014   2.395 -2.9702  0.4764 -2.6977
   71SOL     OW  211   3.072   1.670   3.077 -0.4603  0.3035 -0.6256
   71SOL    HW1  212   3.029   1.599   3.020 -1.7766 -0.0590  1.0888
   71SOL    HW2  213   3.122   1.628   0.027  0.5694 -0.6081 -0.0661
   72SOL     OW  214   2.895   2.301   0.556 -0.0141  0.3762 -0.3550
   72SOL    HW1  215   2.797   2.285   0.570  0.9255 -0.3789  3.7804
   72SOL    HW2  216   2.952   2.225   0.511 -0.6609  0.8937 -0.9394
   73SOL     OW  217   0.911   1.513   0.450 -0.0193  0.0668  0.1566
   73SOL    HW1  218   0.819   1.467   0.462 -1.4393 -1.1152 -2.5781
   73SOL    HW2  219   0.929   1.583   0.522  1.7336 -0.2213 -1.7357
   74SOL     OW  220   0.180   1.851   2.166 -0.0908  0.6772  0.7288
   74SOL    HW1  221   0.114   1.857   2.244 -0.5676 -1.4343  1.6669
   74SOL    HW2  222   0.222   1.758   2.164 -0.5255 -2.7291 -2.4536
   75SOL     OW  223   1.687   1.545   1.771  0.0413  0.0762 -1.0688
   75SOL    HW1  224   1.634   1.605   1.710  0.6335 -2.2145  0.3082
   75SOL    HW2  225   1.778   1.586   1.796 -1.0969  1.1508  0.6486
   76SOL     OW  226   2.002   2.619   1.522  0.4663  0.0805  0.3356
   76SOL    HW1  227   2.061   2.535   1.506  2.5941 -3.1426 -0.9526
   76SOL    HW2  228   2.063   2.698   1.548  1.2691 -1.9885 -0.9193
   77SOL     OW  229   2.716   0.988   1.276 -0.1315 -0.1664 -0.6452
   77SOL    HW1  230   2.805   0.975   1.329  3.5443 -3.1040 -1.5088
   77SOL    HW2  231   2.737   0.966   1.175 -1.0175 -1.8038 -4.7247
   78SOL     OW  232   1.328   1.036   0.514  0.1450 -0.0566  0.1253
   78SOL    HW1  233   1.315   1.136   0.544  0.2846 -1.0415 -1.1176
   78SOL    HW2  234   1.418   0.994   0.548  1.2348  0.0772 -1.0477
   79SOL     OW  235   2.906   1.297   1.780 -0.0013 -0.2635  0.2637
   79SOL    HW1  236   2.916   1.300   1.676 -0.6980 -1.4294 -0.6019
   79SOL    HW2  237   2.896   1.202   1.815  1.8751  0.5312  1.2571
   80SOL     OW  238   1.202   0.750   1.589  0.1299  0.0197 -0.4843
   80SOL    HW1  239   1.168   0.784   1.677  0.9940 -1.6872  0.9040
   80SOL    HW2  240   1.192   0.649   1.577  0.9864  1.6420 -1.2776
   81SOL     OW  241   0.828   3.062   0.938 -0.3514 -0.2936 -0.3845
   81SOL    HW1  242   0.786   0.012   0.893 -1.1976  1.2201 -1.4742
   81SOL    HW2  243   0.770   3.023   1.014  2.9759  1.2832 -0.4327
   82SOL     OW  244   1.400   3.094   1.567  0.3432  0.2221  0.5730
   82SOL    HW1  245   1.298   3.094   1.572  0.0835  1.0396  0.4558
   82SOL    HW2  246   1.437   0.019   1.491 -0.5053 -0.6480  0.4507
   83SOL     OW  247   1.156   2.096   0.937 -0.0517 -0.0652 -0.5745
   83SOL    HW1  248   1.087   2.169   0.942 -1.0366  3.6865 -0.1301
   83SOL    HW2  249   1.172   2.059   1.033  2.1266 -0.1459  3.5336
   84SOL     OW  250   0.497   1.621   2.706 -0.3148  0.3952 -0.4136
   84SOL    HW1  251   0.512   1.541   2.648  0.3804  2.9721  0.7564
   84SOL    HW2  252   0.581   1.676   2.704  0.8256 -1.3331  0.4444
   85SOL     OW  253   3.100   2.344   1.402  0.1389 -0.1943 -0.1551
   85SOL    HW1  254   3.048   2.257   1.384  0.4425 -3.6721  3.8434
   85SOL    HW2  255   0.050   2.331   1.464  0.0443 -1.0215 -0.5722
   86SOL     OW  256   2.274   2.205   1.497  0.1541 -0.2478 -0.3673
   86SOL    HW1  257   2.187   2.225   1.455 -1.0346  3.3803 -0.5163
   86SOL    HW2  258   2.353   2.244   1.448  3.1688  0.5781 -1.2561
   87SOL     OW  259   3.062   2.144   0.423  0.4808 -0.2789  0.0500
   87SOL    HW1  260   3.008   2.061   0.393 -1.7569  0.2656 -0.3278
   87SOL    HW2  261   0.029   2.121   0.429 -2.0253  1.5738  1.0358
   88SOL     OW  262   0.776   1.441   1.380 -0.3417 -0.3838  0.1958
   88SOL    HW1  263   0.731   1.351   1.371  0.9062  1.9709 -3.4182
   88SOL    HW2  264   0.855   1.451   1.314  2.4740  0.8375  0.2976
   89SOL     OW  265   1.101   3.072   1.982  0.1007  0.2606  0.3306
   89SOL    HW1  266   1.088   2.987   2.034 -0.8030  2.1997  0.2954
   89SOL    HW2  267   1.144   3.044   1.895  1.7214  0.1285  1.0923
   90SOL     OW  268   3.006   1.761   1.245  0.1539 -0.3073 -0.0456
   90SOL    HW1  269   3.051   1.706   1.318  2.0306  0.1072  0.6967
   90SOL    HW2  270   2.920   1.712   1.212 -0.3337 -1.1004  1.7431
   91SOL     OW  271   1.360   1.886   1.091 -0.0562  0.1433 -0.4899
   91SOL    HW1  272   1.267   1.899   1.136  0.4185  1.0269  1.1844
   91SOL    HW2  273   1.428   1.924   1.155  0.3072  1.0849  0.5828
   92SOL     OW  274   2.451   2.406   1.712  0.7785  0.1987 -0.3851
   92SOL    HW1  275   2.390   2.329   1.746 -2.2678 -0.9113 -2.8841
   92SOL    HW2  276   2.552   2.381   1.703  1.5481  1.8876 -0.8211
   93SOL     OW  277   2.904   1.590   2.716 -0.2868 -0.0210 -0.2498
   93SOL    HW1  278   2.830   1.519   2.717 -0.8408 -2.8827  0.2965
   93SOL    HW2  279   2.958   1.572   2.800 -2.9350 -0.5205 -4.6304
   94SOL     OW  280   2.984   2.822   2.215  0.2990 -0.2237  0.0078
   94SOL    HW1  281   2.883   2.845   2.231 -3.8244  1.8424 -0.0696
   94SOL    HW2  282   3.014   2.850   2.123  0.4098  0.4538 -0.6118
   95SOL     OW  283   1.638   0.306   1.778 -0.2590  0.3451 -0.4228
   95SOL    HW1  284   1.601   0.246   1.853  1.1485  1.1931 -0.9518
   95SOL    HW2  285   1.646   0.400   1.804 -1.0558 -3.7577 -1.6093
   96SOL     OW  286   2.970   0.242   1.601 -0.3405  0.0485 -0.0756
   96SOL    HW1  287   2.900   0.315   1.609  2.7672  1.4230 -0.2021
   96SOL    HW2  288   2.946   0.183   1.516 -0.4284  0.0462 -2.4109
   97SOL     OW  289   2.145   0.162   1.429 -0.4568 -0.3010 -0.3270
   97SOL    HW1  290   2.076   0.090   1.413  1.7034 -2.9032  0.5648
   97SOL    HW2  291   2.101   0.250   1.458  1.9169  2.7511  3.3370
   98SOL     OW  292   1.568   2.630   1.613 -0.1082 -0.5821 -0.2381
   98SOL    HW1  293   1.641   2.575   1.577 -0.3122  1.2902  0.8080
   98SOL    HW2  294   1.524   2.584   1.689  0.6121  1.4574  1.4721
   99SOL     OW  295   2.973   0.025   1.962  0.2771  0.0439 -0.1821
   99SOL    HW1  296   2.933   0.032   1.868 -0.2712 -0.6271  0.3549
   99SOL    HW2  297   3.076   0.048   1.962  0.9544  2.1572  0.9201
  100SOL     OW  298   2.854   1.236   2.149  0.7738  0.0656  0.7120
  100SOL    HW1  299   2.809   1.322   2.182 -2.2233  0.6774  1.8690
  100SOL    HW2  300   2.895   1.197   2.235  2.1116  0.4075  2.1518
  101SOL     OW  301   1.516   0.705   0.692  0.4205 -0.5229  0.3931
  101SOL    HW1  302   1.449   0.627   0.708 -2.0735 -2.1400  0.0483
  101SOL    HW2  303   1.507   0.776   0.767  0.7975 -1.2141 -0.5815
  102SOL     OW  304   0.340   0.673   1.437  0.2975 -0.0484  0.3705
  102SOL    HW1  305   0.264   0.634   1.491 -3.8818  3.1985  2.1897
  102SOL    HW2  306   0.405   0.723   1.501 -2.3752 -0.4657  3.0892
  103SOL     OW  307   2.253   0.663   2.863 -0.3779  0.2279  0.1205
  103SOL    HW1  308   2.154   0.683   2.890  0.9900  0.0445 -0.4901
  103SOL    HW2  309   2.323   0.730   2.897  0.4536 -0.5290  0.1334
  104SOL     OW  310   0.146   0.304   2.146 -0.3492  0.9669 -0.1861
  104SOL    HW1  311   0.180   0.254   2.066 -1.4783  1.1101 -0.8620
  104SOL    HW2  312   0.104   0.251   2.220  0.4723  0.4939 -1.5511
  105SOL     OW  313   1.936   0.831   1.804  0.0248  0.2253 -0.2052
  105SOL    HW1  314   1.845   0.868   1.779 -0.3870 -1.4847 -0.6474
  105SOL    HW2  315   2.008   0.877   1.747  1.1105  2.0905 -1.1241
  106SOL     OW  316   1.707   0.086   0.953  0.3352 -0.4079 -0.4882
  106SOL    HW1  317   1.626   0.028   0.969 -0.1519  0.0656 -0.6835
  106SOL    HW2  318   1.741   0.117   1.045 -0.4104 -2.1460  0.6289
  107SOL     OW  319   0.239   1.308   0.669  0.1395 -0.4879 -0.2004
  107SOL    HW1  320   0.242   1.298   0.567  0.5972 -1.2171 -0.0260
  107SOL    HW2  321   0.156   1.358   0.701 -1.6274  1.0631  1.1666
  108SOL     OW  322   3.126   0.208   2.371  0.1756  0.7101  0.9793
  108SOL    HW1  323   3.052   0.136   2.344 -0.9578 -1.0350  2.0464
  108SOL    HW2  324   0.037   0.180   2.460  1.2641 -0.4637 -0.7578
  109SOL     OW  325   2.341   0.442   0.675 -0.5112  0.3408 -0.5544
  109SOL    HW1  326   2.362   0.456   0.580 -0.9334  0.7174  0.8061
  109SOL    HW2  327   2.422   0.465   0.737 -0.2766  2.4674 -1.3073
  110SOL     OW  328   0.278   2.458   2.938 -0.1586 -0.4419 -0.0929
  110SOL    HW1  329   0.260   2.546   2.985  1.9266  2.3714  2.2072
  110SOL    HW2  330   0.352   2.461   2.863  1.5507  1.0396 -3.1219
  111SOL     OW  331   1.827   3.050   2.131 -0.1987 -0.4202  0.2888
  111SOL    HW1  332   1.847   0.006   2.075  1.4296  1.7235 -0.3217
  111SOL    HW2  333   1.850   2.968   2.080  2.0523  1.0783  1.4991
  112SOL     OW  334   2.135   2.619   3.125  0.2031 -0.4267  0.1494
  112SOL    HW1  335   2.088   2.705   0.007  1.5157 -1.8163 -0.2406
  112SOL    HW2  336   2.236   2.630   3.118  0.5055  0.6684  3.0434
  113SOL     OW  337   2.668   2.124   1.779 -0.2082  0.2841 -0.2477
  113SOL    HW1  338   2.754   2.087   1.733 -1.8984  2.2201 -0.3377
  113SOL    HW2  339   2.680   2.221   1.778 -0.7003 -2.8350 -0.3924
  114SOL     OW  340   2.752   0.867   1.017 -0.1108 -0.0109  0.1415
  114SOL    HW1  341   2.657   0.861   0.977 -0.5268 -0.5752  0.5432
  114SOL    HW2  342   2.800   0.777   1.023 -0.7135  1.6590  0.5197
  115SOL     OW  343   2.948   1.893   0.069  0.4355 -0.1828  0.4000
  115SOL    HW1  344   2.989   1.985   0.070 -0.5475 -1.5492 -2.1478
  115SOL    HW2  345   3.010   1.831   0.027 -0.8766 -0.4136 -1.1787
  116SOL     OW  346   0.122   1.450   2.064  0.4287 -0.5436 -0.3568
  116SOL    HW1  347   0.087   1.357   2.066 -1.4762 -0.7328  1.4498
  116SOL    HW2  348   0.089   1.497   1.983  0.2250  0.9294 -0.6475
  117SOL     OW  349   2.799   3.129   0.843 -0.1718 -0.3610  0.1338
  117SOL    HW1  350   2.701   3.094   0.827 -0.2074  0.9895 -2.0355
  117SOL    HW2  351   2.850   3.131   0.753 -0.8754  0.4428 -1.4872
  118SOL     OW  352   0.476   2.115   1.687  0.1237  0.4543  0.2433
  118SOL    HW1  353   0.458   2.141   1.783 -3.2733  1.3584 -1.2792
  118SOL    HW2  354   0.499   2.200   1.633  0.4594  2.2470  1.9215
  119SOL     OW  355   1.742   2.100   0.429  0.2080 -0.0503  0.4857
  119SOL    HW1  356   1.757   2.000   0.422 -1.8067 -0.8242 -2.2243
  119SOL    HW2  357   1.836   2.145   0.438  2.0545 -1.3558 -0.6470
  120SOL     OW  358   3.094   2.051   2.369  0.1627  0.1011  0.1825
  120SOL    HW1  359   0.034   2.018   2.439  1.8873  0.4372 -0.0751
  120SOL    HW2  360   3.070   2.151   2.380  2.4510 -0.3119  0.4909
  121SOL     OW  361   2.221   1.884   1.489 -0.0664 -0.8478  0.1305
  121SOL    HW1  362   2.196   1.826   1.411  1.3723 -0.7158  1.8206
  121SOL    HW2  363   2.244   1.970   1.452 -0.7375 -2.0319  0.5029
  122SOL     OW  364   2.167   1.626   2.292 -0.0123  0.8144  0.7108
  122SOL    HW1  365   2.265   1.642   2.278  2.7913  1.3238 -0.1823
  122SOL    HW2  366   2.130   1.668   2.376  0.5578 -3.1832 -2.4427
  123SOL     OW  367   0.169   2.953   0.633 -0.3155  0.0814 -0.9737
  123SOL    HW1  368   0.111   3.014   0.571 -2.2553  0.1700  0.4606
  123SOL    HW2  369   0.114   2.901   0.703  0.7291  0.4441  0.4008
  124SOL     OW  370   1.754   0.794   2.529  0.3082 -0.3077 -0.1979
  124SOL    HW1  371   1.804   0.832   2.445  0.6045 -0.3795 -2.1701
  124SOL    HW2  372   1.713   0.863   2.595 -2.7871 -0.7895 -1.0690
  125SOL     OW  373   0.624   1.435   2.978  0.3903  0.2152  0.1421
  125SOL    HW1  374   0.693   1.508   2.963  0.9249  1.0208  0.4553
  125SOL    HW2  375   0.537   1.470   3.018 -0.9726  1.3228  0.1439
  126SOL     OW  376   2.645   1.861   0.296 -0.5151  0.3218  0.6799
  126SOL    HW1  377   2.586   1.946   0.301 -0.6788  2.8579  0.1687
  126SOL    HW2  378   2.742   1.893   0.313  2.5019  0.7748  0.3825
  127SOL     OW  379   0.335   1.652   1.336 -0.0445  0.0367  0.1357
  127SOL    HW1  380   0.325   1.750   1.307 -0.9038 -0.1186  1.2049
  127SOL    HW2  381   0.345   1.591   1.252  0.1702 -3.9341 -0.4457
  128SOL     OW  382   0.895   0.715   0.104 -0.0830  0.0676  0.1824
  128SOL    HW1  383   0.911   0.679   0.009  0.5146  2.0138 -2.0901
  128SOL    HW2  384   0.975   0.762   0.139  0.9288  1.4338 -1.0492
  129SOL     OW  385   2.209   1.475   0.812  0.1278 -0.2496  0.2298
  129SOL    HW1  386   2.124   1.446   0.761 -2.6162 -1.0858 -1.5619
  129SOL    HW2  387   2.220   1.420   0.900 -1.2243  2.1020  1.2229
  130SOL     OW  388   2.340   1.735   1.036  0.0903  0.1380 -0.2850
  130SOL    HW1  389   2.393   1.818   1.056  0.2340  0.6270  1.6591
  130SOL    HW2  390   2.244   1.752   1.062 -0.1374  0.3959 -1.7058
  131SOL     OW  391   2.840   1.145   2.854  0.0121 -0.0213  0.3552
  131SOL    HW1  392   2.812   1.141   2.954 -2.7257 -0.2933  0.9373
  131SOL    HW2  393   2.940   1.123   2.840 -0.8944 -0.5468 -1.8240
  132SOL     OW  394   2.671   1.650   1.769  0.6015  0.0444 -0.5947
  132SOL    HW1  395   2.692   1.738   1.813  3.1569  0.1393 -0.1906
  132SOL    HW2  396   2.694   1.579   1.836 -0.2960  1.6772  1.2979
  133SOL     OW  397   2.911   0.727   0.174  0.1293 -0.4464  0.1965
  133SOL    HW1  398   2.908   0.628   0.174 -0.3076 -1.0982  1.9295
  133SOL    HW2  399   3.006   0.755   0.197 -0.0379 -1.0773 -3.0904
  134SOL     OW  400   0.321   1.081   0.064 -0.0809  0.0834 -0.7153
  134SOL    HW1  401   0.266   1.166   0.076  1.4294 -0.6978 -1.6622
  134SOL    HW2  402   0.293   1.018   3.119 -0.8722 -2.6181 -0.3901
  135SOL     OW  403   2.257   1.770   0.756  0.2112 -0.0689 -0.0983
  135SOL    HW1  404   2.291   1.750   0.850  1.0452  0.0300 -0.5523
  135SOL    HW2  405   2.174   1.711   0.739 -1.5980  0.9079 -0.5034
  136SOL     OW  406   2.078   1.176   1.160  0.1893  0.5310 -0.0178
  136SOL    HW1  407   2.049   1.215   1.247  0.0897 -1.2134 -1.7611
  136SOL    HW2  408   2.142   1.233   1.106 -3.3762 -0.6908  0.6341
  137SOL     OW  409   2.467   1.546   0.792 -0.3767  0.1414  0.5554
  137SOL    HW1  410   2.372   1.514   0.804  1.1010  2.3247 -2.5152
  137SOL    HW2  411   2.475   1.616   0.718 -2.9340  2.1639 -1.9551
  138SOL     OW  412   1.102   0.203   1.637 -0.2621  0.1714 -0.1781
  138SOL    HW1  413   1.153   0.274   1.578  3.2886  0.7786  1.1155
  138SOL    HW2  414   1.091   0.110   1.588 -0.7101  0.3262 -1.4980
  139SOL     OW  415   2.185   0.003   0.087 -0.4440 -0.2640  0.1114
  139SOL    HW1  416   2.143   0.072   0.020 -0.2861  2.9630 -2.0187
  139SOL    HW2  417   2.119   3.098   0.161 -2.0964  0.0080  0.2570
  140SOL     OW  418   1.504   2.189   2.682  0.0461  0.4091 -0.3762
  140SOL    HW1  419   1.403   2.179   2.696 -1.0190 -0.1206  2.9225
  140SOL    HW2  420   1.536   2.157   2.593 -2.2817 -0.2259  0.0451
  141SOL     OW  421   0.957   1.245   1.929  0.4024  0.3870  0.4670
  141SOL    HW1  422   0.966   1.340   1.890 -0.2400  1.9686 -0.7195
  141SOL    HW2  423   1.027   1.226   1.995 -4.0180  2.1179 -0.1451
  142SOL     OW  424   2.640   0.241   3.063  0.3923 -0.3850  0.8097
  142SOL    HW1  425   2.571   0.261   0.005  0.0127 -3.0114  0.9057
  142SOL    HW2  426   2.708   0.173   3.098 -0.9680  0.6726  0.9069
  143SOL     OW  427   0.895   2.552   3.078  0.6286 -0.4845  0.2592
  143SOL    HW1  428   0.852   2.546   0.040  0.5196  2.8879 -0.3049
  143SOL    HW2  429   0.927   2.647   3.067  1.6120  0.3582 -0.4174
  144SOL     OW  430   1.218   2.724   2.469  0.1223  0.7633  0.6313
  144SOL    HW1  431   1.178   2.674   2.554 -0.3037 -0.7719  1.3087
  144SOL    HW2  432   1.277   2.803   2.495 -1.3096  0.3517 -0.1594
  145SOL     OW  433   2.461   1.406   0.094 -0.1478  0.0190  0.7146
  145SOL    HW1  434   2.545   1.353   0.073 -1.0831 -0.1027  1.1033
  145SOL    HW2  435   2.481   1.502   0.117 -0.9562  1.8711  1.9075
  146SOL     OW  436   2.723   2.971   3.042 -0.2358  0.4063 -0.6470
  146SOL    HW1  437   2.670   3.052   3.076  0.0580  0.4722 -0.4305
  146SOL    HW2  438   2.824   2.978   3.060  1.1141 -0.0276 -0.6687
  147SOL     OW  439   2.489   2.356   1.219  0.2525  0.2222  0.4050
  147SOL    HW1  440   2.420   2.428   1.238  0.6539 -2.1227 -0.2275
  147SOL    HW2  441   2.549   2.343   1.299 -0.0111 -0.7760 -1.6183
  148SOL     OW  442   1.782   0.123   0.083  0.0970  0.1964  0.0097
  148SOL    HW1  443   1.741   0.198   0.137 -1.9710 -0.8052 -1.9960
  148SOL    HW2  444   1.793   0.154   3.116  2.1794 -1.6756  0.6990
  149SOL     OW  445   1.076   1.435   2.886 -0.2460 -0.1650  0.1633
  149SOL    HW1  446   1.174   1.404   2.860  3.1085 -0.8436 -2.3026
  149SOL    HW2  447   1.007   1.431   2.806  0.1871 -0.0709 -0.8313
  150SOL     OW  448   0.842   2.664   0.557  0.3550 -0.1965  0.0099
  150SOL    HW1  449   0.929   2.662   0.514 -2.6993  0.7265  2.2599
  150SOL    HW2  450   0.803   2.575   0.543 -0.8831  1.1905  0.4207
  151SOL     OW  451   0.590   1.914   3.022 -0.3227  0.8899 -0.0857
  151SOL    HW1  452   0.508   1.938   2.968  0.6480  0.6481  0.4711
  151SOL    HW2  453   0.642   1.836   2.985  1.1804  1.2130 -4.2001
  152SOL     OW  454   2.893   1.114   0.433  0.1230  0.0108 -0.4334
  152SOL    HW1  455   2.935   1.042   0.491 -1.3990  1.5346 -0.5298
  152SOL    HW2  456   2.799   1.094   0.400 -1.3974  0.3647  1.3633
  153SOL     OW  457   2.488   2.486   3.101  0.0541  0.4585  0.0022
  153SOL    HW1  458   2.475   2.475   0.069 -0.8437 -0.3818  0.0964
  153SOL    HW2  459   2.546   2.564   3.071 -1.9892  0.8934 -2.8216
  154SOL     OW  460   0.648   2.989   1.122 -0.2407  0.6128  0.1588
  154SOL    HW1  461   0.647   2.892   1.156  3.5255  0.8432 -0.6974
  154SOL    HW2  462   0.559   3.032   1.131  2.5354  0.8823 -1.7302
  155SOL     OW  463   0.300   1.936   1.326  0.3787  0.7030 -0.0210
  155SOL    HW1  464   0.288   1.967   1.227 -0.2973  3.0953 -3.0820
  155SOL    HW2  465   0.223   1.964   1.385  5.3330  0.4283  2.0403
  156SOL     OW  466   2.390   2.299   2.914 -0.4863 -0.1234  0.1062
  156SOL    HW1  467   2.454   2.218   2.938 -0.2663 -0.6024  0.4960
  156SOL    HW2  468   2.392   2.371   2.987 -1.2900  0.4993 -0.0308
  157SOL     OW  469   0.844   2.366   1.149 -0.3784  0.5311  0.1766
  157SOL    HW1  470   0.745   2.394   1.156 -3.0079  0.7445 -0.9586
  157SOL    HW2  471   0.892   2.376   1.234  2.8537 -1.4005 -0.1156
  158SOL     OW  472   1.753   0.788   2.883 -0.5539  0.1480  0.1303
  158SOL    HW1  473   1.768   0.694   2.842  0.8077 -1.7993  1.4021
  158SOL    HW2  474   1.717   0.851   2.811 -0.6603  0.9318  0.5136
  159SOL     OW  475   0.950   0.374   2.428 -0.4212  0.2237  0.1634
  159SOL    HW1  476   0.964   0.433   2.345 -0.1077 -2.5962  0.4935
  159SOL    HW2  477   1.020   0.401   2.497 -0.0515  2.9151  2.3464
  160SOL     OW  478   1.184   1.870   0.508  0.4421 -0.0374  0.1358
  160SOL    HW1  479   1.209   1.966   0.502  2.3132 -0.2522 -0.9903
  160SOL    HW2  480   1.139   1.847   0.419 -1.7550  2.2751  2.3191
  161SOL     OW  481   0.033   2.130   0.002 -0.4953 -0.0497  0.1209
  161SOL    HW1  482   0.082   2.060   0.063 -1.8848  1.1712  1.1890
  161SOL    HW2  483   0.011   2.203   0.068  0.5395  0.1409  1.2122
  162SOL     OW  484   0.658   2.600   1.013  0.3336 -0.2131  0.0136
  162SOL    HW1  485   0.722   2.648   0.944  1.4913  0.2740  0.4325
  162SOL    HW2  486   0.684   2.639   1.106 -0.2714  0.8787  0.0521
  163SOL     OW  487   2.452   0.921   3.114 -0.2431  0.3193  0.5453
  163SOL    HW1  488   2.410   0.948   3.026  0.2127 -0.7560 -1.8850
  163SOL    HW2  489   2.417   0.829   0.011  1.1907  0.7964  3.3038
  164SOL     OW  490   0.164   2.806   2.941  0.6012 -0.1012  0.0607
  164SOL    HW1  491   0.210   2.757   3.017  0.9190  0.8238  0.1354
  164SOL    HW2  492   0.171   2.758   2.853 -0.1652  0.4972  1.8943
  165SOL     OW  493   2.068   0.390   1.574 -0.3762  0.2703 -0.3348
  165SOL    HW1  494   2.047   0.368   1.674  2.4445  0.3125  0.0661
  165SOL    HW2  495   2.160   0.425   1.567  1.1744  0.4355 -1.2418
  166SOL     OW  496   2.065   0.154   0.981 -0.1747  0.0006  0.1311
  166SOL    HW1  497   2.054   0.240   0.925 -0.9592  0.5281  0.9554
  166SOL    HW2  498   2.076   0.075   0.915  1.0458 -0.8263 -1.1909
  167SOL     OW  499   0.430   0.644   1.762 -0.3040  0.5361 -0.0377
  167SOL    HW1  500   0.376   0.557   1.777 -0.2016 -0.8256 -1.2622
  167SOL    HW2  501   0.447   0.683   1.857 -0.9298 -0.1666  1.7860
  168SOL     OW  502   2.807   0.102   2.155 -0.0844 -0.6765  0.7023
  168SOL    HW1  503   2.748   0.177   2.120  0.3579  2.9581  1.7023
  168SOL    HW2  504   2.869   0.072   2.080  1.0974  0.8718 -0.4826
  169SOL     OW  505   0.090   1.432   0.438 -0.2536 -0.6378 -0.6625
  169SOL    HW1  506   0.141   1.348   0.419  1.1212 -1.5136 -1.3044
  169SOL    HW2  507   0.001   1.398   0.470  0.1812 -1.4151 -1.2187
  170SOL     OW  508   0.118   0.875   1.736 -0.1553  0.3377 -0.2420
  170SOL    HW1  509   0.169   0.931   1.676  0.6282 -2.5881  1.1640
  170SOL    HW2  510   0.114   0.781   1.700 -0.1228  2.2768 -2.3063
  171SOL     OW  511   1.114   1.843   1.989  0.6502 -0.2407 -0.6217
  171SOL    HW1  512   1.126   1.921   2.047  0.4385 -2.0997  1.7597
  171SOL    HW2  513   1.036   1.861   1.924 -1.4507  2.2592 -1.4473
  172SOL     OW  514   0.491   2.332   1.494  0.3318  0.2861  0.4805
  172SOL    HW1  515   0.526   2.427   1.510  2.2957  1.8724  0.6705
  172SOL    HW2  516   0.512   2.298   1.398  1.0949 -2.0525 -1.4062
  173SOL     OW  517   1.212   3.115   0.382  0.4004 -0.9015  0.0224
  173SOL    HW1  518   1.127   3.055   0.389 -1.0033 -1.4634 -2.7315
  173SOL    HW2  519   1.288   3.081   0.440 -2.5016  0.8164  0.2133
  174SOL     OW  520   0.703   2.825   0.111 -0.3678  0.1028  0.2914
  174SOL    HW1  521   0.664   2.810   0.019 -1.3727  0.9121 -3.5912
  174SOL    HW2  522   0.727   2.923   0.128 -2.1265  1.5729 -0.1420
  175SOL     OW  523   1.201   0.941   2.903  0.4973 -0.4270 -0.0362
  175SOL    HW1  524   1.189   0.957   3.003  1.1012 -0.0013 -2.4204
  175SOL    HW2  525   1.147   1.009   2.843 -1.5824  2.0243 -5.3891
  176SOL     OW  526   1.488   0.453   0.106 -0.2089 -0.2314  0.0139
  176SOL    HW1  527   1.463   0.437   0.012 -0.6122 -1.1286  0.3386
  176SOL    HW2  528   1.440   0.528   0.155 -0.7320  2.4572 -2.3054
  177SOL     OW  529   1.431   1.123   0.872  0.0477 -0.1884  0.6165
  177SOL    HW1  530   1.343   1.166   0.849 -0.6570 -0.3475  0.2847
  177SOL    HW2  531   1.512   1.152   0.817  0.3770  0.0625 -2.2681
  178SOL     OW  532   2.756   1.828   2.623  0.5744 -0.1918  0.1540
  178SOL    HW1  533   2.812   1.751   2.655  0.5637  1.1349 -0.0400
  178SOL    HW2  534   2.768   1.837   2.521  0.4464 -1.7799  0.7094
  179SOL     OW  535   0.579   2.971   2.781 -0.6042 -0.6125  0.1306
  179SOL    HW1  536   0.479   2.963   2.805  1.2608  0.0078 -2.0314
  179SOL    HW2  537   0.627   2.970   2.867 -3.5056  0.3958  2.2439
  180SOL     OW  538   1.775   1.440   1.460  0.3436 -0.0491 -0.4399
  180SOL    HW1  539   1.827   1.363   1.427  1.5274 -1.9994 -0.6241
  180SOL    HW2  540   1.835   1.519   1.444  1.7918 -0.2990 -0.1649
  181SOL     OW  541   1.277   1.474   2.189 -0.2563 -0.1263 -0.3056
  181SOL    HW1  542   1.301   1.386   2.147 -0.8545  0.7430 -2.4197
  181SOL    HW2  543   1.295   1.482   2.291 -1.6498 -0.8178  0.4783
  182SOL     OW  544   2.992   0.815   2.876  0.1157  1.0381  0.4769
  182SOL    HW1  545   3.017   0.912   2.875 -1.0071 -0.6062 -0.0197
  182SOL    HW2  546   2.893   0.807   2.888  0.8618 -1.6900  1.0620
  183SOL     OW  547   1.582   3.106   2.593 -0.5710 -0.5946 -0.0463
  183SOL    HW1  548   1.660   3.110   2.660 -0.8045 -1.3471 -0.0012
  183SOL    HW2  549   1.613   3.096   2.495  1.9331 -0.1295  1.6685
  184SOL     OW  550   0.631   0.484   1.508 -0.6566  0.1423  0.4072
  184SOL    HW1  551   0.612   0.565   1.559 -0.6598  0.2765 -0.3102
  184SOL    HW2  552   0.725   0.475   1.469  4.5794 -0.8637 -0.4262
  185SOL     OW  553   2.629   1.312   0.730 -0.0420 -0.3647 -0.8749
  185SOL    HW1  554   2.563   1.378   0.778  0.3262 -0.5608 -0.0964
  185SOL    HW2  555   2.685   1.258   0.796  1.2847 -2.7710 -0.5222
  186SOL     OW  556   0.227   2.202   2.914  0.0634 -0.3551 -0.1970
  186SOL    HW1  557   0.247   2.303   2.930  1.3393 -2.1037  1.1945
  186SOL    HW2  558   0.134   2.177   2.943 -1.3706  1.1609  1.1536
  187SOL     OW  559   2.716   1.294   0.097 -0.4627 -0.3591  0.0552
  187SOL    HW1  560   2.801   1.347   0.078  0.1746  1.0758 -0.0700
  187SOL    HW2  561   2.725   1.210   0.044 -0.6591  0.5071 -0.4260
  188SOL     OW  562   0.532   2.069   0.616 -0.3379  0.0403  0.4930
  188SOL    HW1  563   0.633   2.083   0.594  1.1810 -1.8285  1.6721
  188SOL    HW2  564   0.486   2.063   0.523 -2.3749 -0.8299 -1.5925
  189SOL     OW  565   2.397   1.025   0.220  0.9635  0.1717  0.2255
  189SOL    HW1  566   2.425   0.984   0.135  0.4500 -0.8803 -0.4925
  189SOL    HW2  567   2.471   1.054   0.282 -0.1806 -0.0841 -0.7695
  190SOL     OW  568   1.343   1.725   2.086  0.4167 -0.4227  0.3126
  190SOL    HW1  569   1.307   1.637   2.121 -0.2706  1.0926 -1.2394
  190SOL    HW2  570   1.257   1.780   2.052 -1.5983  0.6261 -1.1313
  191SOL     OW  571   2.830   0.507   1.356  0.2867  0.0812 -0.5343
  191SOL    HW1  572   2.736   0.509   1.319  1.4129 -1.4102 -1.9996
  191SOL    HW2  573   2.841   0.469   1.449  0.6165 -0.6964  0.8965
  192SOL     OW  574   2.184   0.326   1.995  0.5782  0.4012  0.3266
  192SOL    HW1  575   2.210   0.243   1.940 -0.3259 -0.1067  1.9636
  192SOL    HW2  576   2.269   0.364   2.038  0.5201  0.7705  2.3668
  193SOL     OW  577   0.471   0.701   0.486 -0.5522  0.0865  0.1213
  193SOL    HW1  578   0.450   0.663   0.577  1.1904 -1.4819 -1.0222
  193SOL    HW2  579   0.530   0.785   0.495  2.5294  2.2067  0.9379
  194SOL     OW  580   1.336   2.457   1.764 -0.6441 -0.3543 -0.7072
  194SOL    HW1  581   1.255   2.404   1.790 -0.2090 -1.1881 -0.5297
  194SOL    HW2  582   1.390   2.412   1.696 -0.8038 -0.1007  0.9456
  195SOL     OW  583   2.309   0.731   0.731 -0.1334  0.5307 -0.3317
  195SOL    HW1  584   2.293   0.629   0.742 -1.5079 -0.2234 -1.9996
  195SOL    HW2  585   2.232   0.786   0.695  1.1268  0.0690  0.1911
  196SOL     OW  586   1.881   2.054   1.991  0.3026  0.3072  0.3809
  196SOL    HW1  587   1.870   1.973   2.052 -2.0320 -1.8213  1.5361
  196SOL    HW2  588   1.798   2.116   1.999 -2.5619 -1.9794  1.5589
  197SOL     OW  589   0.357   0.194   0.161 -0.1628  0.0619 -0.1130
  197SOL    HW1  590   0.375   0.093   0.145 -1.2571  0.3577 -1.2345
  197SOL    HW2  591   0.255   0.195   0.147  0.2020 -0.8683 -0.7384
  198SOL     OW  592   1.195   1.237   0.835 -0.5239  0.7116 -0.1975
  198SOL    HW1  593   1.196   1.232   0.733  0.4344 -0.4231 -1.8771
  198SOL    HW2  594   1.189   1.331   0.872 -0.1575 -2.3271  3.3680
  199SOL     OW  595   2.597   0.816   1.830  0.2486  0.5293 -0.2052
  199SOL    HW1  596   2.680   0.781   1.882 -0.6289 -0.4490 -0.0229
  199SOL    HW2  597   2.622   0.901   1.779  0.0294  0.2748  0.2443
  200SOL     OW  598   2.848   2.582   2.277 -0.9597 -0.1189 -0.4108
  200SOL    HW1  599   2.876   2.679   2.258  0.9372 -0.6039  2.3183
  200SOL    HW2  600   2.808   2.577   2.370  3.0022  0.0105 -0.6350
  201SOL     OW  601   2.747   0.193   1.207 -0.5034  0.3332  0.1194
  201SOL    HW1  602   2.681   0.259   1.247 -1.4172  0.1206  2.5703
  201SOL    HW2  603   2.737   0.181   1.106  0.3641 -0.6138 -2.2289
  202SOL     OW  604   1.975   0.407   0.582  0.3932 -0.2456 -0.0243
  202SOL    HW1  605   1.918   0.483   0.625  0.4529  0.4768  2.5299
  202SOL    HW2  606   2.021   0.356   0.661  0.0855 -1.5773 -0.1390
  203SOL     OW  607   1.833   1.873   2.223 -0.0636  0.0712  0.1563
  203SOL    HW1  608   1.752   1.813   2.226  2.4020 -2.2265  1.7252
  203SOL    HW2  609   1.858   1.899   2.317 -0.8532 -2.2331 -1.1917
  204SOL     OW  610   0.853   1.691   2.204 -0.7840  0.0212 -0.2612
  204SOL    HW1  611   0.906   1.639   2.139  2.1361 -2.8940 -0.9562
  204SOL    HW2  612   0.912   1.713   2.286  1.6027 -0.2266  0.1275
  205SOL     OW  613   0.766   1.794   1.576 -0.0909 -0.4432  0.0187
  205SOL    HW1  614   0.834   1.771   1.507 -0.4966  0.7004  0.6386
  205SOL    HW2  615   0.723   1.882   1.552 -0.6756 -3.2639 -0.3595
  206SOL     OW  616   2.982   0.425   3.054  0.2254  0.1323  0.2183
  206SOL    HW1  617   3.058   0.498   3.048 -2.6127  1.1277 -1.3598
  206SOL    HW2  618   2.898   0.459   3.005 -3.1988  0.3215 -0.1691
  207SOL     OW  619   1.687   2.623   1.983 -0.2992  0.4708 -0.2226
  207SOL    HW1  620   1.738   2.711   1.971  0.8207  1.0805  1.5228
  207SOL    HW2  621   1.748   2.543   2.003 -0.4239  1.5238  1.2725
  208SOL     OW  622   0.565   2.230   1.255 -0.1966  0.3605  0.0181
  208SOL    HW1  623   0.507   2.143   1.246  1.2272 -1.5313  0.4820
  208SOL    HW2  624   0.539   2.291   1.176 -1.1737 -0.2783  1.7004
  209SOL     OW  625   1.514   1.296   2.276 -0.6822 -0.2030  0.3132
  209SOL    HW1  626   1.555   1.373   2.223 -1.8458  0.4272  0.4851
  209SOL    HW2  627   1.443   1.330   2.343  0.7139 -0.7719 -2.3772
  210SOL     OW  628   1.949   0.852   1.390  0.1009 -0.1486 -0.2520
  210SOL    HW1  629   1.999   0.864   1.300  0.5575 -0.0301 -1.4966
  210SOL    HW2  630   1.879   0.777   1.381  0.4860 -0.8944 -1.2527
  211SOL     OW  631   0.706   3.084   0.423 -0.1820  0.1758 -0.0956
  211SOL    HW1  632   0.712   3.092   0.320  0.4807  2.1060  0.3366
  211SOL    HW2  633   0.708   0.048   0.460 -1.0194 -0.4883 -0.5261
  212SOL     OW  634   1.821   1.604   0.139 -0.2312  0.1050  0.2495
  212SOL    HW1  635   1.795   1.669   0.066 -2.7265  0.1396 -0.2521
  212SOL    HW2  636   1.899   1.542   0.103  0.8870  0.5002 -0.3074
  213SOL     OW  637   1.377   0.149   2.696 -0.2397 -0.0146  0.1964
  213SOL    HW1  638   1.446   0.076   2.675  2.8109 -0.2540 -1.1798
  213SOL    HW2  639   1.426   0.227   2.735 -1.1404  0.4565  0.5843
  214SOL     OW  640   1.596   1.721   2.233  0.3652 -0.4840  0.2782
  214SOL    HW1  641   1.598   1.737   2.334  1.3325  0.2279  0.7508
  214SOL    HW2  642   1.513   1.767   2.192 -0.0097  3.0136  0.5060
  215SOL     OW  643   0.767   1.807   0.284  0.1600 -0.1557 -0.1850
  215SOL    HW1  644   0.800   1.904   0.298  0.4361 -1.4211 -0.0727
  215SOL    HW2  645   0.746   1.762   0.377 -0.4562 -0.3746  1.7707
  216SOL     OW  646   0.509   2.924   2.304 -0.5129  0.3454  0.5833
  216SOL    HW1  647   0.579   2.989   2.273  0.1359  0.5637  0.4236
  216SOL    HW2  648   0.423   2.979   2.320 -0.8127  3.4127  0.3656
  217SOL     OW  649   2.340   1.038   0.780  0.2390  0.3748 -0.2836
  217SOL    HW1  650   2.402   1.032   0.695  0.8851  2.1845 -1.9081
  217SOL    HW2  651   2.243   1.049   0.744  4.1625  0.1374  1.1039
  218SOL     OW  652   1.961   1.612   1.829  0.0243  0.3295  0.1371
  218SOL    HW1  653   1.988   1.623   1.927 -1.5992 -1.1781  2.1585
  218SOL    HW2  654   2.047   1.621   1.772  4.1344 -1.5982 -0.3559
  219SOL     OW  655   1.818   1.343   2.961 -0.5767  0.2529  0.4901
  219SOL    HW1  656   1.846   1.288   2.879  0.8205 -1.6749  0.2760
  219SOL    HW2  657   1.722   1.372   2.965  0.3008  0.9925 -0.2006
  220SOL     OW  658   1.465   1.617   1.131  0.3218  0.2107 -0.3190
  220SOL    HW1  659   1.420   1.678   1.064  0.2952 -1.3235  0.0587
  220SOL    HW2  660   1.556   1.578   1.099  0.6565 -0.4227 -0.0538
  221SOL     OW  661   0.940   0.658   2.951 -0.0677  0.6157 -0.5958
  221SOL    HW1  662   0.947   0.737   2.883  0.8481 -0.1128 -3.2118
  221SOL    HW2  663   0.873   0.590   2.923  0.8488  1.1531  0.5330
  222SOL     OW  664   0.781   1.453   0.813 -0.2617  0.4373 -0.5692
  222SOL    HW1  665   0.729   1.435   0.729 -2.1218  2.9734  3.4217
  222SOL    HW2  666   0.727   1.518   0.868  1.3043  0.4708  0.2601
  223SOL     OW  667   0.968   3.090   3.003 -0.7112  0.5137  0.0522
  223SOL    HW1  668   1.001   3.100   2.908  1.4449 -0.6282  2.0814
  223SOL    HW2  669   0.866   3.092   3.008  0.5810 -2.9079  0.6574
  224SOL     OW  670   2.400   0.178   1.439  0.0054  0.0855 -0.5103
  224SOL    HW1  671   2.298   0.157   1.454  0.2267  0.9827  2.1348
  224SOL    HW2  672   2.447   0.094   1.400  0.2021 -0.1743  2.4233
  225SOL     OW  673   0.887   0.418   1.421  0.8099  0.0481  0.7258
  225SOL    HW1  674   0.953   0.472   1.365 -2.4676 -2.0999 -0.8272
  225SOL    HW2  675   0.931   0.383   1.503 -0.1686 -0.3421 -0.4028
  226SOL     OW  676   1.490   1.643   2.967  0.0549  0.0583 -0.6930
  226SOL    HW1  677   1.439   1.711   2.909  2.1674  4.0064 -0.5236
  226SOL    HW2  678   1.434   1.609   3.051  0.6334  3.3325  2.1718
  227SOL     OW  679   1.227   1.951   1.458 -0.2091  0.3294  0.1888
  227SOL    HW1  680   1.260   1.856   1.476 -0.2057 -1.0052  1.2482
  227SOL    HW2  681   1.189   1.986   1.542  1.5330 -2.1348 -0.2878
  228SOL     OW  682   0.415   1.653   0.584 -0.9684  0.1579  0.1797
  228SOL    HW1  683   0.332   1.696   0.541  1.3403  0.7506  0.1076
  228SOL    HW2  684   0.396   1.609   0.672  1.4223 -0.5763  0.6508
  229SOL     OW  685   1.240   0.306   3.091 -0.3392 -0.4072  0.1120
  229SOL    HW1  686   1.220   0.385   3.027  1.0025 -0.0906  1.7002
  229SOL    HW2  687   1.330   0.259   3.067 -0.1087  0.0097  1.1527
  230SOL     OW  688   1.257   0.693   2.153 -0.0105 -0.2831  0.0925
  230SOL    HW1  689   1.178   0.643   2.193 -0.4331  5.1985 -2.9475
  230SOL    HW2  690   1.337   0.636   2.126  1.4735 -2.9030  3.6535
  231SOL     OW  691   0.878   1.869   2.437 -0.5555 -0.2023 -0.1538
  231SOL    HW1  692   0.970   1.849   2.478  2.0197 -0.8671  0.4656
  231SOL    HW2  693   0.888   1.923   2.354 -1.9359  0.8647  2.7057
  232SOL     OW  694   2.458   1.953   1.102  0.2600 -0.1347 -0.3098
  232SOL    HW1  695   2.470   2.041   1.054  1.4142 -0.6748  0.4139
  232SOL    HW2  696   2.544   1.937   1.157  1.0873 -0.0025  0.0326
  233SOL     OW  697   2.330   2.892   0.124  0.0727 -0.3311 -0.3889
  233SOL    HW1  698   2.318   2.992   0.102  0.2021 -2.3570  1.4083
  233SOL    HW2  699   2.334   2.840   0.034  1.1475  0.0522 -0.8394
  234SOL     OW  700   0.761   0.246   2.867 -0.5656 -0.1985 -0.6552
  234SOL    HW1  701   0.698   0.244   2.947  1.1620  1.0226 -1.3047
  234SOL    HW2  702   0.727   0.184   2.794  0.1212 -1.1242  3.3954
  235SOL     OW  703   2.375   3.105   2.700 -0.1093  0.2647 -0.3072
  235SOL    HW1  704   2.459   0.000   2.745 -0.7203  2.2279 -1.6644
  235SOL    HW2  705   2.384   3.024   2.639 -0.3434 -0.2983 -1.7589
  236SOL     OW  706   2.250   2.426   2.422  0.4300  0.4425  0.1988
  236SOL    HW1  707   2.332   2.474   2.461 -0.2705  0.1673  1.8481
  236SOL    HW2  708   2.169   2.425   2.486 -1.4189  1.5244 -0.4299
  237SOL     OW  709   1.024   1.478   2.099 -0.5422 -0.1862 -0.5407
  237SOL    HW1  710   1.027   1.493   2.000 -0.9449 -0.8148  2.7231
  237SOL    HW2  711   1.117   1.476   2.139 -4.1967 -0.2084 -1.6827
  238SOL     OW  712   1.848   0.299   2.513  0.1043  0.2225  0.3155
  238SOL    HW1  713   1.904   0.215   2.543  0.1748 -1.6579  1.0164
  238SOL    HW2  714   1.795   0.338   2.588 -0.9075  0.8020  1.3168
  239SOL     OW  715   0.100   1.693   1.693 -0.4305 -0.1356 -0.2896
  239SOL    HW1  716   0.187   1.703   1.745 -2.8333 -0.2121  0.0243
  239SOL    HW2  717   0.049   1.616   1.734 -1.4533  0.4998 -1.2864
  240SOL     OW  718   3.021   2.712   0.534  0.8784  0.3909 -0.4411
  240SOL    HW1  719   3.088   2.636   0.533 -1.0516 -1.1058 -3.5561
  240SOL    HW2  720   3.003   2.735   0.437  0.1299 -0.7148  0.1617
  241SOL     OW  721   2.039   1.628   0.606  0.4426 -0.1305 -0.3024
  241SOL    HW1  722   2.098   1.576   0.549 -3.2930  0.3307  0.7737
  241SOL    HW2  723   1.954   1.665   0.557 -0.0004 -1.2422  1.0957
  242SOL     OW  724   1.370   1.829   2.813 -0.0581 -0.0870 -0.2091
  242SOL    HW1  725   1.320   1.847   2.729 -1.6788  0.1264 -2.3845
  242SOL    HW2  726   1.398   1.918   2.857  1.7307  0.4328  0.2161
  243SOL     OW  727   0.737   2.539   2.421  0.0299  0.3432 -0.3069
  243SOL    HW1  728   0.660   2.556   2.357  0.8330  2.1105  1.1136
  243SOL    HW2  729   0.704   2.565   2.511  2.0313 -0.5761 -2.6076
  244SOL     OW  730   2.171   0.143   2.755 -0.4450  0.0497  0.0766
  244SOL    HW1  731   2.088   0.135   2.698 -2.1731  1.0264 -0.6637
  244SOL    HW2  732   2.241   0.076   2.728  0.5377  0.5019  1.4984
  245SOL     OW  733   1.561   2.891   0.811  0.3527  0.2406  1.3597
  245SOL    HW1  734   1.549   2.957   0.883  0.4275 -0.8843 -2.5210
  245SOL    HW2  735   1.474   2.834   0.794 -0.9240 -1.2428  1.6484
  246SOL     OW  736   1.575   2.697   0.299 -0.1621  0.1760  0.1060
  246SOL    HW1  737   1.643   2.768   0.330  1.6657  1.7601  1.1253
  246SOL    HW2  738   1.594   2.673   0.201 -0.1466 -0.3838 -2.1710
  247SOL     OW  739   0.987   0.557   2.239  0.1322  0.1300 -0.1202
  247SOL    HW1  740   0.927   0.638   2.216 -1.4629 -0.0557 -0.5146
  247SOL    HW2  741   0.958   0.476   2.184 -2.4376 -1.8730  1.4270
  248SOL     OW  742   0.582   1.474   2.116 -0.0562 -0.4526 -0.1788
  248SOL    HW1  743   0.652   1.437   2.185  1.5154  0.7671  2.1926
  248SOL    HW2  744   0.617   1.540   2.043 -1.1155 -0.7857 -0.6542
  249SOL     OW  745   2.148   0.557   0.117 -0.3272 -0.3981  0.0750
  249SOL    HW1  746   2.241   0.520   0.097  0.4393 -0.3207  0.8501
  249SOL    HW2  747   2.143   0.564   0.223  0.1218 -1.7280 -0.0770
  250SOL     OW  748   0.711   0.146   0.843 -0.4293  0.3760 -0.4085
  250SOL    HW1  749   0.653   0.075   0.805  4.5480  3.1120  2.7555
  250SOL    HW2  750   0.762   0.198   0.767 -1.3639 -1.3777 -3.1530
  251SOL     OW  751   1.641   0.385   2.721 -0.0287 -0.2008 -0.2810
  251SOL    HW1  752   1.697   0.475   2.720 -0.4153  0.8739 -0.1972
  251SOL    HW2  753   1.580   0.377   2.639 -2.1393  0.5946 -1.0072
  252SOL     OW  754   2.021   1.724   2.083 -1.0585  0.2486  0.7821
  252SOL    HW1  755   2.061   1.679   2.162 -0.7790  0.8613 -2.3336
  252SOL    HW2  756   1.946   1.785   2.115  2.7440  0.6768 -1.5674
  253SOL     OW  757   2.727   2.381   1.797  0.2539  0.2514 -0.4115
  253SOL    HW1  758   2.725   2.432   1.887  0.5777  0.4643 -0.6863
  253SOL    HW2  759   2.806   2.406   1.739  0.4262 -1.2802  1.3440
  254SOL     OW  760   0.209   1.302   1.160 -0.0910  0.0046 -0.2625
  254SOL    HW1  761   0.156   1.242   1.094  2.3258 -1.7780 -0.0907
  254SOL    HW2  762   0.200   1.271   1.258  0.3234 -0.3575  0.0816
  255SOL     OW  763   0.867   0.853   1.378 -0.9652 -0.3041  0.2729
  255SOL    HW1  764   0.815   0.807   1.307  3.3542  1.4275  2.5845
  255SOL    HW2  765   0.838   0.819   1.470  0.3277 -2.3395  0.0758
  256SOL     OW  766   2.059   2.480   1.903  0.7424 -0.2015  0.7060
  256SOL    HW1  767   2.073   2.578   1.926  2.1411 -0.1066  0.9484
  256SOL    HW2  768   2.113   2.418   1.960 -0.3163  0.1120  0.3735
  257SOL     OW  769   0.573   2.735   3.016 -0.2874 -0.3954 -0.1820
  257SOL    HW1  770   0.609   2.697   2.930 -0.5280  1.9999  1.8806
  257SOL    HW2  771   0.537   2.662   3.075  1.4724  0.9188 -0.3415
  258SOL     OW  772   0.834   2.599   0.202 -0.4213  0.1907  0.0728
  258SOL    HW1  773   0.773   2.552   0.266  3.5418 -0.9032 -2.0891
  258SOL    HW2  774   0.785   2.675   0.150 -0.0436  0.9092 -1.7076
  259SOL     OW  775   1.172   0.167   2.187  0.3423  0.1086 -0.3256
  259SOL    HW1  776   1.146   0.088   2.130 -1.2068  0.9919  2.2378
  259SOL    HW2  777   1.269   0.184   2.190 -1.9338  1.6634  0.6954
  260SOL     OW  778   1.850   0.522   1.114  0.0792 -0.2138  0.1579
  260SOL    HW1  779   1.914   0.454   1.147  3.1740  0.2272 -0.0821
  260SOL    HW2  780   1.874   0.545   1.015  0.1026 -0.2501 -1.4593
  261SOL     OW  781   0.504   0.574   2.428  0.5246  0.4884  0.2174
  261SOL    HW1  782   0.430   0.616   2.484 -0.1590  0.7761 -0.9187
  261SOL    HW2  783   0.590   0.559   2.483 -1.4450 -0.4056 -1.6092
  262SOL     OW  784   0.146   2.435   2.047 -0.1617  0.1885 -0.9169
  262SOL    HW1  785   0.067   2.462   2.105  1.5185 -0.8323 -0.7296
  262SOL    HW2  786   0.160   2.335   2.060 -1.3590 -2.4262 -0.9423
  263SOL     OW  787   3.051   1.621   2.261  0.5935  0.5738  0.0777
  263SOL    HW1  788   3.050   1.680   2.176 -0.9321 -0.9304  0.1793
  263SOL    HW2  789   3.130   1.564   2.262 -0.2479 -0.2420 -0.4633
  264SOL     OW  790   0.333   1.076   0.782  0.2829 -0.5326 -0.0306
  264SOL    HW1  791   0.289   1.160   0.746 -1.7528  1.6148 -2.7143
  264SOL    HW2  792   0.326   1.061   0.885 -0.1802  0.0295  0.3255
  265SOL     OW  793   1.280   2.413   0.832  0.4398 -0.3648 -0.1960
  265SOL    HW1  794   1.358   2.420   0.773 -1.5748 -0.5613  2.2142
  265SOL    HW2  795   1.236   2.324   0.817  0.2541  1.3644 -2.6898
  266SOL     OW  796   1.697   0.855   1.108  0.1478  0.0142  0.4005
  266SOL    HW1  797   1.699   0.776   1.176 -1.6935 -3.1054 -0.7510
  266SOL    HW2  798   1.778   0.848   1.048 -0.2269  0.6673  1.6273
  267SOL     OW  799   2.698   1.060   3.119 -0.1484 -0.6258 -0.2363
  267SOL    HW1  800   2.766   0.989   0.001 -0.9340  0.6760  0.1487
  267SOL    HW2  801   2.608   1.013   3.127  1.5008  0.6637 -0.6656
  268SOL     OW  802   1.755   0.426   0.152  0.1745  0.5340 -0.5299
  268SOL    HW1  803   1.781   0.367   0.234  0.2206  2.9450  2.1360
  268SOL    HW2  804   1.653   0.428   0.135  0.9900  0.1697 -0.8449
  269SOL     OW  805   2.022   0.876   2.853 -0.0750 -0.1356  0.3964
  269SOL    HW1  806   1.940   0.830   2.893 -1.6106  0.3773  0.9392
  269SOL    HW2  807   1.993   0.971   2.832 -3.6897  0.7280  1.2687
  270SOL     OW  808   3.127   0.962   0.004 -0.1889 -0.3864  0.9197
  270SOL    HW1  809   0.005   0.999   3.041 -0.5893 -1.0128 -1.8830
  270SOL    HW2  810   0.075   0.911   0.039 -0.1735  0.8694 -0.5246
  271SOL     OW  811   2.639   0.696   0.345  0.4662 -0.2495 -0.1314
  271SOL    HW1  812   2.621   0.750   0.428  3.3839 -0.5527 -0.1861
  271SOL    HW2  813   2.735   0.694   0.310 -0.1155  2.3449  0.2191
  272SOL     OW  814   3.103   2.580   0.102 -0.0087  0.2724  0.5292
  272SOL    HW1  815   3.070   2.582   0.004  0.6571 -0.4663 -1.1219
  272SOL    HW2  816   3.106   2.488   0.138 -0.7660  1.6604  2.7607
  273SOL     OW  817   2.551   3.079   0.294 -0.6666  0.4009  0.2914
  273SOL    HW1  818   2.566   3.083   0.393 -1.5344 -2.8571 -2.7536
  273SOL    HW2  819   2.484   3.001   0.274 -2.2302 -0.0902  0.5312
  274SOL     OW  820   0.529   2.364   1.044  0.4958 -0.4111  0.5851
  274SOL    HW1  821   0.572   2.460   1.029 -0.2777 -0.3583 -0.4346
  274SOL    HW2  822   0.514   2.322   0.948  0.4432 -2.3044 -4.2679
  275SOL     OW  823   2.839   1.614   0.301  0.3243  0.5517 -0.6643
  275SOL    HW1  824   2.887   1.533   0.264 -0.5483  1.0119  0.0905
  275SOL    HW2  825   2.756   1.647   0.248  0.5801 -1.6594  0.2030
  276SOL     OW  826   0.014   1.187   2.036  0.4667 -0.7518 -0.0086
  276SOL    HW1  827   3.082   1.242   2.094 -0.1612  0.7622 -1.4333
  276SOL    HW2  828   3.093   1.127   1.975  0.1504 -0.1627  1.7604
  277SOL     OW  829   2.251   2.954   1.269  0.5000 -0.1808  0.5977
  277SOL    HW1  830   2.248   2.883   1.196  1.5008  0.4652 -1.6988
  277SOL    HW2  831   2.241   3.046   1.223 -0.9352  0.3191 -0.7185
  278SOL     OW  832   1.419   2.460   2.043 -0.2292  0.4902  0.3662
  278SOL    HW1  833   1.439   2.456   1.943  0.2031  1.3290 -2.7859
  278SOL    HW2  834   1.384   2.556   2.069  2.8601 -0.4656  0.6890
  279SOL     OW  835   1.684   1.821   0.460 -0.7416  0.4622  0.1962
  279SOL    HW1  836   1.725   1.724   0.458  0.4231 -0.8662 -1.5113
  279SOL    HW2  837   1.621   1.838   0.381  0.4487 -0.9023  0.4591
  280SOL     OW  838   0.342   1.547   1.094  0.3693  0.1860  0.2863
  280SOL    HW1  839   0.291   1.628   1.054 -2.8010  2.6945  1.6750
  280SOL    HW2  840   0.277   1.470   1.115  0.6842 -1.6629 -0.0480
  281SOL     OW  841   3.109   1.008   2.418  0.0077 -0.0635 -0.3313
  281SOL    HW1  842   3.089   0.910   2.404  0.6957  0.0864 -0.4735
  281SOL    HW2  843   0.056   1.020   2.484  1.3361  1.5241  0.7298
  282SOL     OW  844   0.625   1.374   0.575 -0.1230 -0.3067  0.3094
  282SOL    HW1  845   0.534   1.390   0.530 -0.5758 -0.3483  2.0127
  282SOL    HW2  846   0.656   1.282   0.540 -1.9961  1.1107 -0.4583
  283SOL     OW  847   2.066   2.222   0.218  0.5549  0.2191  0.5356
  283SOL    HW1  848   2.092   2.320   0.218  0.1246  0.1502  0.1865
  283SOL    HW2  849   2.070   2.181   0.311  0.0996  1.4280  1.9286
  284SOL     OW  850   1.124   0.396   0.205 -0.6411  0.4165 -0.0368
  284SOL    HW1  851   1.154   0.359   0.113  1.1791  0.6967  0.4942
  284SOL    HW2  852   1.026   0.426   0.214  0.3104 -0.7262 -1.7137
  285SOL     OW  853   2.170   1.225   2.977  0.0030  0.7501  0.3969
  285SOL    HW1  854   2.213   1.160   3.044 -1.2603 -1.1210 -1.8560
  285SOL    HW2  855   2.227   1.306   2.958  0.7251 -1.6555  0.4347
  286SOL     OW  856   1.858   2.339   1.291 -0.1404  0.1274  0.6230
  286SOL    HW1  857   1.786   2.352   1.219 -1.8630 -1.0511 -0.3069
  286SOL    HW2  858   1.826   2.379   1.374  1.0181 -2.5764 -1.8354
  287SOL     OW  859   0.939   0.855   0.547  0.9559 -0.4957 -0.3053
  287SOL    HW1  860   0.856   0.898   0.498 -0.4070  0.1771  0.7683
  287SOL    HW2  861   0.964   0.919   0.622 -1.0014  1.7629 -0.1296
  288SOL     OW  862   1.193   2.537   2.916  0.4230  0.0102  0.6985
  288SOL    HW1  863   1.126   2.497   2.981  1.9008 -0.9269  1.2737
  288SOL    HW2  864   1.271   2.582   2.964 -1.9609 -1.7325  1.1602
  289SOL     OW  865   3.063   1.403   1.515  0.8594 -0.1022  0.0018
  289SOL    HW1  866   3.106   1.486   1.475 -1.8928 -0.8631  0.7923
  289SOL    HW2  867   0.006   1.347   1.568  0.5822 -3.0668  1.2468
  290SOL     OW  868   1.596   2.132   0.878 -0.7806  0.1395  0.5075
  290SOL    HW1  869   1.551   2.173   0.957  0.3266 -0.2331 -1.8923
  290SOL    HW2  870   1.696   2.122   0.891  2.2581 -2.4902 -0.3949
  291SOL     OW  871   1.996   3.021   2.978  0.2796 -0.4649  0.0651
  291SOL    HW1  872   2.010   3.123   2.991 -2.5036  1.5677 -1.0235
  291SOL    HW2  873   2.003   2.974   3.065  0.3841  1.5811 -4.6090
  292SOL     OW  874   0.959   0.359   2.059 -0.5413  0.1820  0.0021
  292SOL    HW1  875   0.987   0.277   2.007  3.5305 -1.3720  2.4515
  292SOL    HW2  876   0.865   0.383   2.045  1.8732 -2.0324  0.7502
  293SOL     OW  877   2.304   2.367   0.858 -0.0189 -0.0604  0.0159
  293SOL    HW1  878   2.206   2.331   0.869  0.3548  0.4610  0.1012
  293SOL    HW2  879   2.370   2.300   0.895 -0.4366 -0.5584 -3.2222
  294SOL     OW  880   0.547   0.964   2.345  0.8214 -0.0216  0.2925
  294SOL    HW1  881   0.490   0.893   2.294  0.7132 -1.7332 -2.2110
  294SOL    HW2  882   0.518   1.058   2.332  3.5675 -2.8297  1.9611
  295SOL     OW  883   1.715   1.535   0.911  0.2091  0.3509  0.4801
  295SOL    HW1  884   1.745   1.442   0.942  0.8490  1.4884  1.4217
  295SOL    HW2  885   1.801   1.593   0.894  1.4624  1.7024 -0.5709
  296SOL     OW  886   2.527   1.680   0.146  0.0632  0.2712  0.1437
  296SOL    HW1  887   2.436   1.712   0.111 -0.3656 -1.8162 -0.1919
  296SOL    HW2  888   2.572   1.752   0.198 -1.2997 -1.2789 -0.2578
  297SOL     OW  889   1.949   3.080   0.218 -0.4697  0.0753  0.0255
  297SOL    HW1  890   1.885   0.010   0.169 -2.1511  3.0921 -0.2135
  297SOL    HW2  891   1.983   3.104   0.311  0.4610 -1.0051 -0.1104
  298SOL     OW  892   0.960   2.719   2.785 -0.1911  0.5034  0.1736
  298SOL    HW1  893   1.031   2.659   2.747 -0.4303 -2.3110  0.5866
  298SOL    HW2  894   0.966   2.815   2.742  2.2335  4.3873  1.2821
  299SOL     OW  895   1.199   2.299   1.978 -0.2846 -0.1735  0.4507
  299SOL    HW1  896   1.253   2.354   2.039 -1.1182 -0.1886 -2.9099
  299SOL    HW2  897   1.101   2.328   1.981 -0.3138 -3.5976  1.7427
  300SOL     OW  898   2.576   0.144   2.829  1.1835  0.0222 -0.3030
  300SOL    HW1  899   2.607   0.189   2.918  2.6310  0.9769  0.1723
  300SOL    HW2  900   2.494   0.192   2.789 -3.1105  2.3247 -1.6852
  301SOL     OW  901   1.262   1.265   1.987  0.0943 -0.4898 -0.5509
  301SOL    HW1  902   1.347   1.326   1.969  1.7303 -0.6562 -0.1880
  301SOL    HW2  903   1.280   1.170   1.958 -0.8827  1.5537 -0.7708
  302SOL     OW  904   2.592   2.700   0.370 -0.4157 -0.2984  0.4374
  302SOL    HW1  905   2.632   2.714   0.461  0.6643  0.8700 -2.6667
  302SOL    HW2  906   2.656   2.715   0.297 -2.2382  1.0715  2.6914
  303SOL     OW  907   2.738   2.531   2.018 -0.2025  0.1988 -0.1837
  303SOL    HW1  908   2.654   2.480   2.032 -2.2077  3.0218 -1.4105
  303SOL    HW2  909   2.785   2.554   2.107  0.4239  0.4330  2.7867
  304SOL     OW  910   2.985   0.603   1.775  0.1406 -0.0284 -0.6193
  304SOL    HW1  911   2.932   0.605   1.863 -0.6812 -1.5070 -2.6496
  304SOL    HW2  912   2.956   0.682   1.717 -2.4001  1.7276  0.3326
  305SOL     OW  913   0.468   1.601   1.563 -0.2400 -0.0587 -0.0713
  305SOL    HW1  914   0.567   1.608   1.550 -2.8470  0.2747 -0.1750
  305SOL    HW2  915   0.417   1.642   1.482 -0.1996  0.7332 -3.2130
  306SOL     OW  916   0.253   1.156   1.866  0.1111  0.4522 -0.6336
  306SOL    HW1  917   0.299   1.235   1.905 -2.6010  0.1779 -1.0639
  306SOL    HW2  918   0.169   1.135   1.918 -2.0937  2.8296 -0.7846
  307SOL     OW  919   0.923   1.032   1.772 -0.2783  0.1857  0.8682
  307SOL    HW1  920   0.947   1.115   1.824 -0.7524 -2.2709 -2.0571
  307SOL    HW2  921   1.003   0.968   1.776  0.9492 -1.0707 -1.4479
  308SOL     OW  922   3.109   1.179   1.077  0.1041 -0.3759  0.4399
  308SOL    HW1  923   3.078   1.095   1.026 -1.3113 -3.1239  1.3435
  308SOL    HW2  924   3.096   1.164   1.175 -0.7451  0.9958 -2.1232
  309SOL     OW  925   2.433   1.022   1.250 -0.1871 -0.2826  0.0897
  309SOL    HW1  926   2.455   1.091   1.179 -2.0608 -1.3349  2.2509
  309SOL    HW2  927   2.519   0.997   1.295  1.4220  2.7584 -2.9633
  310SOL     OW  928   2.740   2.326   2.676  0.2341  0.0805 -0.1941
  310SOL    HW1  929   2.783   2.240   2.701 -0.0662 -1.5912 -0.5761
  310SOL    HW2  930   2.670   2.289   2.613  2.2389 -1.8151 -1.2527
  311SOL     OW  931   2.681   2.860   2.606 -0.6053  0.1026 -0.3635
  311SOL    HW1  932   2.742   2.943   2.629  0.6867  2.1287 -5.4849
  311SOL    HW2  933   2.587   2.884   2.580  0.1545 -1.5938 -0.4328
  312SOL     OW  934   2.318   1.820   0.036 -0.1581  0.4611  0.2295
  312SOL    HW1  935   2.341   1.914   0.052 -4.0975 -2.4333 -1.3081
  312SOL    HW2  936   2.249   1.819   3.092  0.9743 -0.6307 -0.4280
  313SOL     OW  937   2.702   2.972   0.574 -0.3160  0.6608  0.0408
  313SOL    HW1  938   2.745   2.879   0.565  1.5975  1.2235 -1.2550
  313SOL    HW2  939   2.769   3.045   0.570 -0.6568  1.5079 -0.5495
  314SOL     OW  940   1.697   1.194   0.329 -0.0935  0.8848  0.2118
  314SOL    HW1  941   1.659   1.104   0.303  1.5486  0.8925  0.1687
  314SOL    HW2  942   1.621   1.260   0.350 -0.8063 -1.2151 -1.4792
  315SOL     OW  943   1.418   3.014   2.135 -0.5823  0.6439 -0.8042
  315SOL    HW1  944   1.351   3.037   2.208  1.2752  0.1385 -0.1459
  315SOL    HW2  945   1.376   3.023   2.046 -1.0448 -1.2822  1.1026
  316SOL     OW  946   2.752   0.773   3.086 -0.2715  0.9812  0.6488
  316SOL    HW1  947   2.820   0.749   0.029  0.9946 -0.5523  3.3848
  316SOL    HW2  948   2.653   0.746   3.113 -3.1013  2.1810  4.5799
  317SOL     OW  949   0.390   3.072   0.134 -0.1035  0.0904  0.1426
  317SOL    HW1  950   0.332   3.021   0.201  2.1047  2.2880  1.2076
  317SOL    HW2  951   0.389   3.026   0.044 -0.3395 -2.1731  1.8014
  318SOL     OW  952   2.283   2.754   0.852  0.2204 -0.6533 -0.2523
  318SOL    HW1  953   2.302   2.672   0.796 -0.9508  3.0409 -0.1334
  318SOL    HW2  954   2.231   2.821   0.795  0.8736  2.9830 -0.7852
  319SOL     OW  955   1.073   1.955   3.020  0.0545  0.1615  0.9841
  319SOL    HW1  956   1.007   2.018   3.062  0.2958  0.5190 -1.5043
  319SOL    HW2  957   1.051   1.857   3.033  2.2503  0.1312  0.6596
  320SOL     OW  958   0.375   2.182   1.920  0.6299  0.7871  0.4079
  320SOL    HW1  959   0.418   2.261   1.969 -0.3539  1.0040 -0.6864
  320SOL    HW2  960   0.295   2.157   1.977 -2.3903  2.9774  2.4367
  321SOL     OW  961   1.370   2.947   2.578 -0.3999  0.8043  0.0473
  321SOL    HW1  962   1.450   3.013   2.589  1.6984  0.0943  0.0171
  321SOL    HW2  963   1.331   2.927   2.671 -0.3503  0.7152 -1.0740
  322SOL     OW  964   2.801   1.476   2.294  0.2410  0.6445 -0.0968
  322SOL    HW1  965   2.879   1.537   2.301  0.8937  0.2121  0.1740
  322SOL    HW2  966   2.721   1.506   2.348 -0.0995 -0.0592 -0.8815
  323SOL     OW  967   2.159   0.903   1.164 -0.3558 -0.2172 -0.1914
  323SOL    HW1  968   2.127   0.998   1.160 -0.3461 -3.6643 -0.8337
  323SOL    HW2  969   2.259   0.890   1.184  0.4511 -0.9869 -0.2096
  324SOL     OW  970   2.928   0.011   2.382  0.4000  0.2820  0.1681
  324SOL    HW1  971   2.871   0.029   2.303 -0.9547  0.0811  1.8733
  324SOL    HW2  972   2.880   0.033   2.469 -0.1772 -1.9210  0.2010
  325SOL     OW  973   1.230   0.631   2.598 -0.2222  0.0273  0.4856
  325SOL    HW1  974   1.201   0.537   2.606 -0.4717  4.6420 -2.3438
  325SOL    HW2  975   1.165   0.692   2.555  2.3457 -0.6839  0.9424
  326SOL     OW  976   1.860   2.832   1.957 -0.0114 -0.0340 -0.0311
  326SOL    HW1  977   1.859   2.902   1.878  0.5484  2.4039 -4.3127
  326SOL    HW2  978   1.942   2.777   1.946 -1.8846  2.0090  0.7856
  327SOL     OW  979   2.127   0.263   0.277  0.4989 -0.0018 -0.2274
  327SOL    HW1  980   2.104   0.362   0.261  1.1505 -1.1993 -0.1870
  327SOL    HW2  981   2.227   0.255   0.282  1.5205  1.4214  1.4185
  328SOL     OW  982   0.273   1.514   2.498  0.1818  0.3969 -0.2251
  328SOL    HW1  983   0.296   1.533   2.403 -0.1797  0.2338  0.8465
  328SOL    HW2  984   0.201   1.579   2.536  1.4236 -2.2070 -0.4575
  329SOL     OW  985   2.267   0.069   1.886 -0.1740 -0.3355  0.1919
  329SOL    HW1  986   2.201   0.008   1.834 -1.4046 -0.3556 -0.6968
  329SOL    HW2  987   2.360   0.038   1.869 -2.6979  0.4654  1.0540
  330SOL     OW  988   0.039   1.456   0.757 -0.2947  0.0675  0.0914
  330SOL    HW1  989   0.035   1.554   0.773  0.0293 -6.3729  3.6561
  330SOL    HW2  990   3.128   1.429   0.670 -1.1389 -2.8550  1.9479
  331SOL     OW  991   0.349   1.833   2.619  0.4172 -0.1176  0.0095
  331SOL    HW1  992   0.364   1.734   2.627 -1.3098  1.0827  2.7634
  331SOL    HW2  993   0.412   1.864   2.543 -0.6156 -1.6246 -3.4095
  332SOL     OW  994   0.081   0.044   1.585 -0.0695  1.0150 -0.0186
  332SOL    HW1  995   3.124   0.010   1.550 -1.2890 -0.8177 -1.3075
  332SOL    HW2  996   0.100   0.127   1.534  1.0953  0.0407  1.7813
  333SOL     OW  997   2.334   0.052   0.823  0.1778 -0.1991 -0.2660
  333SOL    HW1  998   2.233   0.022   0.820 -1.8030  0.2225  0.3354
  333SOL    HW2  999   2.333   0.142   0.872 -1.9913  0.2808 -0.9586
  334SOL     OW 1000   0.522   1.987   0.899 -0.2663  1.0325  0.4805
  334SOL    HW1 1001   0.610   1.959   0.941 -2.6392  0.4947 -1.6493
  334SOL    HW2 1002   0.526   2.017   0.801 -2.7281  1.9306  2.3094
  335SOL     OW 1003   0.247   2.643   0.020  0.5592 -0.0526 -0.3485
  335SOL    HW1 1004   0.165   2.614   0.071  1.0986 -0.0456 -0.0664
  335SOL    HW2 1005   0.332   2.596   0.061  0.5121 -0.2249  3.2851
  336SOL     OW 1006   0.252   3.021   2.293 -0.2560  0.0483  0.1614
  336SOL    HW1 1007   0.165   3.039   2.346 -1.4067  1.6648  0.4126
  336SOL    HW2 1008   0.236   2.943   2.229  2.8526 -0.6480 -1.9544
  337SOL     OW 1009   2.450   2.227   2.651 -0.0563 -0.2417  0.0618
  337SOL    HW1 1010   2.401   2.303   2.613  3.8231 -1.2549 -1.3454
  337SOL    HW2 1011   2.461   2.243   2.751 -0.6275  0.7549 -0.5316
  338SOL     OW 1012   0.848   0.901   0.980  0.3206  0.3941  0.2748
  338SOL    HW1 1013   0.801   0.872   0.893  1.5936  1.6957 -0.5817
  338SOL    HW2 1014   0.789   0.886   1.060  0.3594 -2.2654 -0.9924
  339SOL     OW 1015   0.179   0.860   1.992  1.1784 -0.2680  0.1813
  339SOL    HW1 1016   0.191   0.944   2.050 -1.1163 -1.9989  0.8626
  339SOL    HW2 1017   0.156   0.883   1.893  0.0967  1.2564 -0.4522
  340SOL     OW 1018   1.790   2.847   0.356 -0.5638 -0.4938 -0.0435
  340SOL    HW1 1019   1.791   2.884   0.452 -1.0099 -1.8209  2.5371
  340SOL    HW2 1020   1.764   2.920   0.291  0.3961 -1.1026 -0.9564
  341SOL     OW 1021   1.944   0.823   0.998 -0.1420  0.4270 -0.3949
  341SOL    HW1 1022   1.921   0.891   0.928 -2.8387 -3.7481  3.0448
  341SOL    HW2 1023   2.010   0.860   1.067  0.3175  1.9808 -1.5010
  342SOL     OW 1024   2.373   2.765   3.003 -1.0958  0.3548  0.4494
  342SOL    HW1 1025   2.350   2.787   2.904  0.4799  2.2943 -1.9638
  342SOL    HW2 1026   2.474   2.742   3.016  3.6490  0.9588  0.0474
  343SOL     OW 1027   1.696   2.252   1.962  0.0361 -0.4354  0.0720
  343SOL    HW1 1028   1.746   2.303   1.886  0.2731 -1.2080 -2.6082
  343SOL    HW2 1029   1.635   2.317   2.008  0.6191  0.0492  3.8698
  344SOL     OW 1030   2.329   2.570   1.273 -1.0635  0.2954  0.4470
  344SOL    HW1 1031   2.310   2.639   1.204  0.4054  2.7978  2.4041
  344SOL    HW2 1032   2.352   2.611   1.366  0.5292  0.6976 -1.0128
  345SOL     OW 1033   2.832   2.418   0.058  0.4675 -0.4891  0.1114
  345SOL    HW1 1034   2.853   2.345   3.114  0.4828 -0.7817 -1.6718
  345SOL    HW2 1035   2.804   2.380   0.149  0.0758  0.1997  1.6903
  346SOL     OW 1036   2.774   1.652   0.582 -0.1144  0.3800  0.1429
  346SOL    HW1 1037   2.766   1.607   0.490 -1.1343  0.1408 -0.1022
  346SOL    HW2 1038   2.686   1.702   0.603  0.4135  1.6660  0.6076
  347SOL     OW 1039   1.917   2.062   1.705 -0.0426 -0.5139  0.3869
  347SOL    HW1 1040   1.891   2.069   1.801  1.8776 -0.1990 -2.8830
  347SOL    HW2 1041   2.015   2.087   1.702 -1.0656 -1.0428 -4.4907
  348SOL     OW 1042   0.773   1.713   2.894 -0.4410  0.2399 -0.0568
  348SOL    HW1 1043   0.784   1.711   2.792  0.8120 -1.5313 -1.1874
  348SOL    HW2 1044   0.858   1.699   2.946 -0.9897  0.0011 -1.7416
  349SOL     OW 1045   2.440   1.281   1.564 -0.0798 -0.4294  0.0180
  349SOL    HW1 1046   2.434   1.367   1.510 -0.0832  1.2713 -2.4262
  349SOL    HW2 1047   2.524   1.227   1.538  0.2837 -0.3390  2.5741
  350SOL     OW 1048   2.995   2.523   1.234  0.3879  0.1817 -0.4195
  350SOL    HW1 1049   3.036   2.470   1.307 -2.3746  0.6370 -3.9563
  350SOL    HW2 1050   2.923   2.465   1.191 -0.3370 -1.0773 -0.7474
  351SOL     OW 1051   0.688   0.414   2.112  0.0687  0.0954  0.0853
  351SOL    HW1 1052   0.663   0.509   2.135 -0.1945  0.7735 -1.9819
  351SOL    HW2 1053   0.688   0.355   2.195 -1.1871 -0.6913 -0.5643
  352SOL     OW 1054   0.625   1.654   0.917  0.0822  0.3043  0.2570
  352SOL    HW1 1055   0.620   1.652   1.017  3.2102  0.3933  1.2910
  352SOL    HW2 1056   0.539   1.618   0.875  0.0506 -1.7370 -1.6501
  353SOL     OW 1057   1.277   1.795   2.505 -0.3274  0.2458 -0.7737
  353SOL    HW1 1058   1.312   1.860   2.436 -0.6596 -1.5112 -1.1618
  353SOL    HW2 1059   1.347   1.719   2.518  1.8592 -2.5847 -0.1395
  354SOL     OW 1060   1.037   0.461   0.775 -0.2135  0.2247 -0.4632
  354SOL    HW1 1061   1.008   0.412   0.859  0.8264  1.0401  0.1202
  354SOL    HW2 1062   1.132   0.486   0.793 -1.6924  2.1402 -0.0092
  355SOL     OW 1063   2.591   0.827   0.605  0.5865 -0.4247  0.4252
  355SOL    HW1 1064   2.580   0.925   0.637  1.1494 -2.1959  1.2063
  355SOL    HW2 1065   2.512   0.809   0.536  0.8826  3.8080 -0.9167
  356SOL     OW 1066   2.380   1.761   2.458  0.4295  0.4307  0.4209
  356SOL    HW1 1067   2.310   1.736   2.528  0.7725 -0.5616  0.5854
  356SOL    HW2 1068   2.436   1.838   2.494  0.9962  0.7671 -1.1781
  357SOL     OW 1069   0.533   2.591   1.562  0.0994 -0.0896  0.5490
  357SOL    HW1 1070   0.457   2.643   1.605  0.3193  3.0277 -2.5124
  357SOL    HW2 1071   0.606   2.660   1.534  2.0263 -2.1878 -0.3422
  358SOL     OW 1072   2.526   0.599   1.668  0.1975 -0.1940  0.2600
  358SOL    HW1 1073   2.622   0.571   1.650  0.2922 -2.1980  1.0727
  358SOL    HW2 1074   2.531   0.685   1.721  0.1691 -1.0912  0.7919
  359SOL     OW 1075   2.184   2.756   2.556 -0.2228 -0.4078 -0.1977
  359SOL    HW1 1076   2.125   2.777   2.473  0.6012  0.4349 -0.4094
  359SOL    HW2 1077   2.124   2.744   2.644 -2.9324  1.4466 -0.1199
  360SOL     OW 1078   1.301   0.524   0.831  0.0151 -0.3537  0.0493
  360SOL    HW1 1079   1.288   0.603   0.898 -3.5674 -1.0310  1.4650
  360SOL    HW2 1080   1.366   0.455   0.879  0.2473 -3.2480  3.0990
  361SOL     OW 1081   2.212   0.085   1.175  0.4674  0.1670  0.1223
  361SOL    HW1 1082   2.189   0.132   1.262 -1.4680 -4.3972  0.0977
  361SOL    HW2 1083   2.153   0.106   1.094  0.0105  2.2477  0.8008
  362SOL     OW 1084   1.297   1.295   0.573  0.3240 -0.2105 -0.1937
  362SOL    HW1 1085   1.259   1.379   0.619  0.1977 -0.2458  2.5253
  362SOL    HW2 1086   1.375   1.322   0.519 -0.8058 -2.3038 -0.0058
  363SOL     OW 1087   2.205   1.707   2.652  0.1728 -0.2586 -0.0826
  363SOL    HW1 1088   2.191   1.639   2.725  0.1412  1.6246  0.0057
  363SOL    HW2 1089   2.116   1.730   2.608  1.1874 -0.2496  0.8566
  364SOL     OW 1090   0.870   0.153   1.326  0.5430  0.0016  0.4756
  364SOL    HW1 1091   0.857   0.254   1.328  1.2341  1.8787 -0.8904
  364SOL    HW2 1092   0.788   0.099   1.336  2.2602  0.9659 -0.4110
  365SOL     OW 1093   0.263   2.848   0.232  0.2584  0.2644  0.1334
  365SOL    HW1 1094   0.270   2.778   0.163 -0.2451  3.3806  0.0249
  365SOL    HW2 1095   0.315   2.829   0.317 -0.8228  0.8563  0.0450
  366SOL     OW 1096   2.707   1.810   3.054  0.1721  0.0005  0.1064
  366SOL    HW1 1097   2.672   1.725   3.103 -1.4649  0.6478  1.3283
  366SOL    HW2 1098   2.796   1.841   3.095  1.3795  1.0696 -0.5132
  367SOL     OW 1099   2.744   2.599   2.553  0.3119 -0.2104 -0.4212
  367SOL    HW1 1100   2.742   2.699   2.572 -1.6195  0.3384 -1.4436
  367SOL    HW2 1101   2.772   2.551   2.634  0.9012  1.2030 -1.9320
  368SOL     OW 1102   0.094   1.811   1.025  0.0322  0.0194  0.2977
  368SOL    HW1 1103   0.020   1.807   1.096 -0.1455 -1.6962 -0.3207
  368SOL    HW2 1104   0.129   1.906   1.015 -0.2405  1.1143 -0.8929
  369SOL     OW 1105   0.984   2.826   3.031 -0.3528  0.9738  0.6217
  369SOL    HW1 1106   0.982   2.925   3.012 -1.1847 -1.5802  0.6755
  369SOL    HW2 1107   0.999   2.772   2.945 -1.0315  3.0530 -2.6847
  370SOL     OW 1108   0.210   0.840   0.707 -0.5079  0.1204 -0.0140
  370SOL    HW1 1109   0.282   0.769   0.708  0.6934  3.0635 -0.6170
  370SOL    HW2 1110   0.250   0.930   0.728 -1.8961 -3.6835 -3.1871
  371SOL     OW 1111   1.941   2.815   0.695  0.3564 -0.1492  0.7003
  371SOL    HW1 1112   1.840   2.831   0.666 -1.8808  1.5348 -2.9467
  371SOL    HW2 1113   1.950   2.713   0.693 -2.2087 -0.5025  1.1199
  372SOL     OW 1114   0.158   0.955   2.639  0.2346  0.3238  0.1564
  372SOL    HW1 1115   0.245   1.003   2.633  1.6154 -1.2934  2.3060
  372SOL    HW2 1116   0.177   0.859   2.657 -2.3505  1.5053  0.1701
  373SOL     OW 1117   2.944   1.972   0.762  0.5643 -0.2716  0.4500
  373SOL    HW1 1118   3.043   1.995   0.748 -1.8684 -0.1025  1.0046
  373SOL    HW2 1119   2.925   1.875   0.780  1.7724  0.5365  1.2372
  374SOL     OW 1120   0.207   2.429   0.354 -0.2375  0.1996  0.8439
  374SOL    HW1 1121   0.128   2.445   0.410  3.3497 -1.1210 -1.9922
  374SOL    HW2 1122   0.287   2.475   0.383 -2.1008 -1.7801 -1.8766
  375SOL     OW 1123   0.449   0.656   0.101  0.3109 -0.0275  0.6134
  375SOL    HW1 1124   0.511   0.729   0.133 -1.5000 -0.7943  1.4493
  375SOL    HW2 1125   0.435   0.581   0.166 -0.9951 -2.0961 -2.6694
  376SOL     OW 1126   0.538   2.222   2.268 -0.2857 -0.3208 -0.3105
  376SOL    HW1 1127   0.518   2.286   2.190  0.3661  0.6575 -2.2184
  376SOL    HW2 1128   0.621   2.248   2.321 -1.4921  0.5249 -2.2700
  377SOL     OW 1129   1.188   2.348   2.479  0.2122 -0.3110  0.4847
  377SOL    HW1 1130   1.280   2.382   2.453  2.3067 -0.5349 -1.3570
  377SOL    HW2 1131   1.198   2.256   2.526 -0.6540 -0.3170 -0.1960
  378SOL     OW 1132   1.188   0.769   0.446 -0.3078  0.0837  0.4359
  378SOL    HW1 1133   1.117   0.754   0.517 -1.3341 -2.3791  2.4624
  378SOL    HW2 1134   1.263   0.836   0.468  2.9357  1.0713  0.9571
  379SOL     OW 1135   0.686   1.708   0.539  0.1066  0.3162 -0.1479
  379SOL    HW1 1136   0.607   1.670   0.590 -2.0969  2.0192 -0.6649
  379SOL    HW2 1137   0.774   1.691   0.589  0.3370 -1.9961 -0.1279
  380SOL     OW 1138   0.111   2.043   1.467  0.0185  0.1644 -0.1714
  380SOL    HW1 1139   0.029   2.001   1.511  0.5345  1.3115  1.4612
  380SOL    HW2 1140   0.138   2.118   1.531  2.2730  0.2011 -2.1590
  381SOL     OW 1141   0.348   1.020   1.608 -0.0545 -0.0692 -0.0371
  381SOL    HW1 1142   0.355   1.113   1.656 -1.2396 -2.1817 -1.8100
  381SOL    HW2 1143   0.435   0.969   1.612 -0.9800  0.2268 -2.7795
  382SOL     OW 1144   2.327   2.119   0.492 -0.3565  0.5584 -0.0829
  382SOL    HW1 1145   2.336   2.215   0.530  0.4129  0.8074 -0.0514
  382SOL    HW2 1146   2.405   2.093   0.435 -0.3249 -0.2039  2.6542
  383SOL     OW 1147   2.716   1.888   2.191 -0.4248 -0.7299 -0.1684
  383SOL    HW1 1148   2.671   1.977   2.207 -0.5069 -0.6369  0.0180
  383SOL    HW2 1149   2.786   1.864   2.261 -0.5128  2.5363 -0.9874
  384SOL     OW 1150   0.180   2.149   2.105 -0.4027 -0.0761  0.1047
  384SOL    HW1 1151   0.156   2.046   2.100  0.5174 -2.2448 -0.3067
  384SOL    HW2 1152   0.205   2.173   2.203  1.0237 -1.2762  0.7193
  385SOL     OW 1153   2.995   2.382   0.830  0.5405  0.1257  0.0711
  385SOL    HW1 1154   2.993   2.327   0.746 -1.6445  1.7932 -1.2010
  385SOL    HW2 1155   3.041   2.338   0.904  0.2639  0.9439 -1.5038
  386SOL     OW 1156   1.801   0.635   0.615 -0.0637  0.0703 -0.3291
  386SOL    HW1 1157   1.843   0.692   0.543 -1.4220 -2.0046  1.6059
  386SOL    HW2 1158   1.702   0.630   0.620  1.6124  0.5536  0.5697
  387SOL     OW 1159   0.440   0.790   1.997  0.1576 -0.2331 -0.1226
  387SOL    HW1 1160   0.340   0.789   1.998 -0.0419 -2.4120 -0.9592
  387SOL    HW2 1161   0.475   0.884   1.994 -0.3265  1.5830 -0.3755
  388SOL     OW 1162   2.237   1.176   2.502 -0.1734 -0.2232  0.4223
  388SOL    HW1 1163   2.179   1.252   2.543  1.0672  1.9667 -0.3204
  388SOL    HW2 1164   2.186   1.090   2.492  0.5802  0.5745 -0.0485
  389SOL     OW 1165   1.807   1.277   1.744 -0.7821  0.2049 -0.1591
  389SOL    HW1 1166   1.773   1.372   1.725  2.1965 -1.2386 -0.2444
  389SOL    HW2 1167   1.910   1.267   1.721  0.1969  1.0142 -2.4956
  390SOL     OW 1168   1.964   2.832   0.067 -0.0510 -0.1722 -0.7469
  390SOL    HW1 1169   1.958   2.902   0.139 -1.6172 -1.4174  2.1126
  390SOL    HW2 1170   1.879   2.775   0.061  0.6128  0.6742 -0.3131
  391SOL     OW 1171   2.102   2.392   1.378  0.2403 -0.2477 -0.1772
  391SOL    HW1 1172   2.156   2.447   1.312  2.1917 -1.8286 -0.8436
  391SOL    HW2 1173   2.010   2.378   1.347  0.8757  2.0602  2.3402
  392SOL     OW 1174   3.129   2.591   0.972  0.3241 -0.1175 -0.1106
  392SOL    HW1 1175   3.097   2.586   1.069 -0.3354 -0.1686 -1.2023
  392SOL    HW2 1176   3.080   2.526   0.917 -1.1206 -1.7253  2.4902
  393SOL     OW 1177   2.171   1.633   0.170  0.4129 -0.4024 -0.3256
  393SOL    HW1 1178   2.128   1.574   0.100 -1.7651  2.8271  1.5438
  393SOL    HW2 1179   2.232   1.707   0.129 -0.0948 -0.4741  0.0567
  394SOL     OW 1180   3.088   0.161   3.020  0.6252  0.2222  0.1573
  394SOL    HW1 1181   3.067   0.258   3.023  1.1382 -2.9198  0.7441
  394SOL    HW2 1182   3.034   0.120   2.945  1.0902  1.9359  1.7203
  395SOL     OW 1183   1.272   1.141   1.102 -0.0270 -0.6195  0.4239
  395SOL    HW1 1184   1.310   1.113   1.012 -0.2265 -1.2262 -0.1575
  395SOL    HW2 1185   1.172   1.159   1.089  0.7087 -1.5614 -0.9588
  396SOL     OW 1186   1.510   0.771   3.016  0.0320  0.1449  0.0096
  396SOL    HW1 1187   1.601   0.767   2.971 -0.5211  1.0277  0.7775
  396SOL    HW2 1188   1.432   0.735   2.959  0.3320  0.1542 -1.1929
  397SOL     OW 1189   0.044   0.690   2.704  0.1674 -0.1761  0.3511
  397SOL    HW1 1190   3.104   0.623   2.662  0.8951 -0.3910 -1.1182
  397SOL    HW2 1191   3.126   0.749   2.773 -0.3877 -0.8625 -0.1922
  398SOL     OW 1192   0.824   0.216   0.142 -0.0728 -0.1985  0.0731
  398SOL    HW1 1193   0.831   0.312   0.175  0.7175 -1.9428 -1.6547
  398SOL    HW2 1194   0.915   0.184   0.104  2.6190 -1.3231 -0.0485
  399SOL     OW 1195   2.584   2.814   1.986  0.0154 -0.1027 -0.2335
  399SOL    HW1 1196   2.635   2.785   1.899 -2.0059 -1.0207  0.2351
  399SOL    HW2 1197   2.646   2.825   2.065 -2.2044 -0.5432  0.8212
  400SOL     OW 1198   0.587   1.787   2.182  0.1334 -0.0714  0.4950
  400SOL    HW1 1199   0.682   1.741   2.166  1.0879 -3.9571  1.7447
  400SOL    HW2 1200   0.514   1.724   2.155  1.9460  0.4870  3.2604
  401SOL     OW 1201   0.739   0.536   2.560  0.9563  0.2753 -0.2505
  401SOL    HW1 1202   0.733   0.560   2.665  0.1314 -0.6755  1.2728
  401SOL    HW2 1203   0.809   0.464   2.534  0.7971 -0.1489 -0.1450
  402SOL     OW 1204   0.139   2.084   1.764  0.1264  0.4579  0.5030
  402SOL    HW1 1205   0.229   2.127   1.788  0.9206 -0.7418  0.4139
  402SOL    HW2 1206   0.153   1.983   1.759  3.5626 -1.4072  1.1195
  403SOL     OW 1207   0.714   1.113   1.575  0.7338  0.0035 -0.6972
  403SOL    HW1 1208   0.804   1.085   1.612 -1.0906  1.2218 -2.7432
  403SOL    HW2 1209   0.673   1.162   1.653  0.5171 -1.2230 -3.0497
  404SOL     OW 1210   2.694   2.396   1.396 -0.2704 -0.3532 -0.4846
  404SOL    HW1 1211   2.694   2.470   1.467  1.0982  3.3128  0.8349
  404SOL    HW2 1212   2.737   2.421   1.309  0.4228 -1.8829  1.9037
  405SOL     OW 1213   0.032   0.387   1.752  0.1274  0.5670 -0.0755
  405SOL    HW1 1214   3.117   0.318   1.691  0.8943  1.6540 -1.3572
  405SOL    HW2 1215   3.102   0.465   1.766  2.8328 -1.3819  3.0026
  406SOL     OW 1216   1.828   2.405   0.146 -0.2358  0.2734  0.0455
  406SOL    HW1 1217   1.889   2.472   0.189  1.7410 -4.5502  2.8687
  406SOL    HW2 1218   1.864   2.378   0.054  0.0958  0.1156  3.0746
  407SOL     OW 1219   1.602   1.216   1.589 -0.2538  0.2454  0.4855
  407SOL    HW1 1220   1.677   1.243   1.651 -1.1326 -2.2194  0.2434
  407SOL    HW2 1221   1.553   1.298   1.561  0.7256 -1.5109  1.1716
  408SOL     OW 1222   0.694   0.050   2.677 -0.1926 -0.8133 -0.5379
  408SOL    HW1 1223   0.647   3.101   2.713 -0.6266  0.3906  0.3891
  408SOL    HW2 1224   0.767   0.031   2.609 -1.3249  2.4638  0.6964
  409SOL     OW 1225   0.021   2.446   0.532  0.8186 -0.3643  0.2057
  409SOL    HW1 1226   3.061   2.406   0.526  0.6409 -0.5198  1.3261
  409SOL    HW2 1227   0.072   2.417   0.620 -0.1473  0.5725 -0.2009
  410SOL     OW 1228   2.507   1.641   0.443  0.2410  0.3605  0.2880
  410SOL    HW1 1229   2.516   1.728   0.494  2.0766  0.0879  1.5073
  410SOL    HW2 1230   2.511   1.653   0.342 -1.6606 -0.7389 -1.0767
  411SOL     OW 1231   3.127   0.756   0.862 -0.6207  0.9818  0.4595
  411SOL    HW1 1232   0.067   0.773   0.791  1.8452  2.5451 -0.3316
  411SOL    HW2 1233   0.049   0.747   0.946 -2.5918  0.5936 -1.8395
  412SOL     OW 1234   1.492   0.868   0.911 -0.0613 -0.6713  0.1122
  412SOL    HW1 1235   1.558   0.851   0.989 -0.1531  0.4057 -1.5695
  412SOL    HW2 1236   1.476   0.968   0.885  1.7959 -1.2633 -2.6854
  413SOL     OW 1237   0.952   0.366   1.020  0.4054  0.0261  0.0023
  413SOL    HW1 1238   1.002   0.280   1.051 -0.8396 -1.2030  0.4109
  413SOL    HW2 1239   0.987   0.441   1.079 -0.9896 -1.9335  0.7717
  414SOL     OW 1240   0.096   1.740   2.846 -0.1643 -0.3604  0.2383
  414SOL    HW1 1241   0.027   1.743   2.920  1.1498  0.2807 -1.6208
  414SOL    HW2 1242   0.189   1.709   2.878  3.8764  1.1408 -2.4644
  415SOL     OW 1243   0.508   2.291   3.075 -0.7497 -0.5606  0.1483
  415SOL    HW1 1244   0.605   2.280   3.053 -5.5175  0.2130  0.7839
  415SOL    HW2 1245   0.455   2.300   2.985  0.2367  1.6622 -2.3617
  416SOL     OW 1246   1.611   0.846   0.471 -0.7114 -0.3176 -0.2831
  416SOL    HW1 1247   1.561   0.788   0.541 -1.1779 -1.9577  1.9524
  416SOL    HW2 1248   1.641   0.790   0.392  0.1052  0.5826 -1.0217
  417SOL     OW 1249   0.353   0.982   0.339  0.1832 -0.3974  0.0352
  417SOL    HW1 1250   0.344   1.001   0.238  0.8867 -0.5239 -2.3676
  417SOL    HW2 1251   0.295   0.902   0.372  0.4085 -0.1021  1.1799
  418SOL     OW 1252   2.664   1.443   2.676  0.5450  0.4479  0.4681
  418SOL    HW1 1253   2.620   1.482   2.593 -3.0355 -0.9345 -0.9285
  418SOL    HW2 1254   2.697   1.346   2.668  1.1655 -0.4751  0.9369
  419SOL     OW 1255   0.518   0.554   2.982 -0.2703 -0.7128 -0.6631
  419SOL    HW1 1256   0.502   0.603   3.072 -0.5592  2.6984  1.3798
  419SOL    HW2 1257   0.477   0.463   2.975 -0.1723  4.1025 -1.8905
  420SOL     OW 1258   0.363   1.484   0.821 -0.1821 -0.5118  0.1376
  420SOL    HW1 1259   0.360   1.472   0.924 -1.6449 -0.0897  2.0047
  420SOL    HW2 1260   0.308   1.417   0.769  2.1779 -0.0295 -3.7038
  421SOL     OW 1261   0.574   2.271   0.799 -0.4506  0.0193  0.4700
  421SOL    HW1 1262   0.665   2.312   0.797 -0.1913 -2.5058 -3.0613
  421SOL    HW2 1263   0.576   2.202   0.729  2.3339  1.9856  2.9258
  422SOL     OW 1264   2.953   0.928   1.378  0.3217  0.6062 -0.1227
  422SOL    HW1 1265   3.022   0.995   1.358 -0.9438  2.9319  0.2287
  422SOL    HW2 1266   2.973   0.834   1.340  1.9872  1.3904  1.2395
  423SOL     OW 1267   1.489   1.448   1.501 -0.4115 -0.0996 -0.9814
  423SOL    HW1 1268   1.585   1.482   1.499  0.0320 -1.4491  0.8557
  423SOL    HW2 1269   1.467   1.380   1.427 -0.0318 -1.1076 -3.8671
  424SOL     OW 1270   1.925   1.039   0.301  0.3480  0.0292  0.3409
  424SOL    HW1 1271   1.851   1.106   0.311  1.5022 -1.4213 -1.9576
  424SOL    HW2 1272   1.960   1.041   0.204  2.0969  0.7632 -1.6131
  425SOL     OW 1273   2.999   0.332   2.045 -0.2080 -0.8202 -0.0710
  425SOL    HW1 1274   3.040   0.353   2.132 -1.3189  2.4699 -2.5013
  425SOL    HW2 1275   3.070   0.296   1.985 -0.3119 -2.1491  0.8234
  426SOL     OW 1276   2.406   2.903   2.530 -0.3415  0.0056 -0.2155
  426SOL    HW1 1277   2.333   2.847   2.564  4.6919  2.0741 -1.7123
  426SOL    HW2 1278   2.405   2.917   2.427  0.9870 -0.1979 -0.8004
  427SOL     OW 1279   1.191   0.907   2.326  0.0451  0.1272 -0.1722
  427SOL    HW1 1280   1.257   0.847   2.273  2.1155 -2.2189 -1.2543
  427SOL    HW2 1281   1.175   1.001   2.282  3.1501  0.8304  1.0097
  428SOL     OW 1282   2.272   1.272   2.236 -0.0592  0.1654 -0.0099
  428SOL    HW1 1283   2.275   1.223   2.326 -1.2451 -0.6287 -3.5737
  428SOL    HW2 1284   2.320   1.366   2.238 -3.6809 -2.0545 -0.1801
  429SOL     OW 1285   2.916   0.040   0.615  0.0061  0.1788  0.3025
  429SOL    HW1 1286   2.933   0.135   0.637  2.1693 -1.0259 -0.7660
  429SOL    HW2 1287   2.998   0.006   0.560 -1.4750 -2.0386  0.8001
  430SOL     OW 1288   1.970   1.339   2.274  0.8582 -0.3961 -0.0643
  430SOL    HW1 1289   2.062   1.293   2.279 -0.7031  2.4285  0.4545
  430SOL    HW2 1290   1.931   1.330   2.180 -2.9375 -1.3429  0.3277
  431SOL     OW 1291   2.991   2.057   1.215  0.2147  0.0970 -0.5952
  431SOL    HW1 1292   2.939   2.109   1.286 -0.7849  1.7242 -0.0222
  431SOL    HW2 1293   3.016   1.965   1.247 -0.7322 -0.7628  1.5175
  432SOL     OW 1294   1.625   3.094   2.304 -0.2007 -0.1154  0.3558
  432SOL    HW1 1295   1.544   3.042   2.268 -0.2960 -2.9623  0.8250
  432SOL    HW2 1296   1.702   3.080   2.233  0.9739 -0.0797  1.7328
  433SOL     OW 1297   1.406   3.096   1.852 -0.1894 -0.1521 -0.0115
  433SOL    HW1 1298   1.375   3.091   1.757  0.4785  0.6297  2.1887
  433SOL    HW2 1299   1.500   3.131   1.847 -2.6979 -3.9237  0.0979
  434SOL     OW 1300   0.512   2.650   2.291  0.6034  0.2162  0.0097
  434SOL    HW1 1301   0.529   2.749   2.294  0.3485  0.5922 -0.2683
  434SOL    HW2 1302   0.411   2.627   2.284 -1.8029  1.6382 -1.4345
  435SOL     OW 1303   0.402   2.059   0.369 -0.4086  0.4911  0.2607
  435SOL    HW1 1304   0.427   2.087   0.275  0.9811 -0.2378  0.6373
  435SOL    HW2 1305   0.410   1.961   0.377  1.0478 -2.1191  0.0070
  436SOL     OW 1306   0.738   0.976   2.002  0.4150  0.1941  0.2473
  436SOL    HW1 1307   0.794   0.971   1.919  1.6175  0.1038  1.2270
  436SOL    HW2 1308   0.641   0.961   1.987  0.7044 -0.1576 -1.0041
  437SOL     OW 1309   0.661   0.015   2.282  0.0281  0.3177 -0.3468
  437SOL    HW1 1310   0.732   0.087   2.287  0.5447  0.8315 -0.7867
  437SOL    HW2 1311   0.569   0.052   2.305  0.6521  2.9132  1.5296
  438SOL     OW 1312   0.539   1.959   1.480 -0.2478  0.2230  0.3127
  438SOL    HW1 1313   0.511   1.992   1.572 -0.0033 -1.8368 -2.1887
  438SOL    HW2 1314   0.460   1.915   1.431  0.0379  1.8119  1.6241
  439SOL     OW 1315   1.724   0.863   0.054  0.3725 -0.3140  0.1724
  439SOL    HW1 1316   1.767   0.952   0.051  0.7174  0.9188  0.1166
  439SOL    HW2 1317   1.665   0.861   3.106  1.8378 -2.9825  2.6353
  440SOL     OW 1318   0.660   0.495   0.400  0.3710 -0.1995 -0.0095
  440SOL    HW1 1319   0.719   0.535   0.476  1.9422  2.0355  2.2816
  440SOL    HW2 1320   0.572   0.547   0.395  2.8861  0.0428  0.1047
  441SOL     OW 1321   0.944   2.187   1.545  0.1060  0.2969  0.3862
  441SOL    HW1 1322   0.900   2.238   1.621 -3.1905 -1.9060 -2.4078
  441SOL    HW2 1323   0.873   2.154   1.482  1.3075  2.0727  1.3241
  442SOL     OW 1324   2.952   1.867   0.406  0.3179  0.1833 -0.2755
  442SOL    HW1 1325   2.938   1.777   0.357 -2.6480 -0.0783 -2.8027
  442SOL    HW2 1326   2.905   1.862   0.498  1.2229  1.0112  3.3672
  443SOL     OW 1327   2.865   2.085   2.727 -0.6119 -0.2727  0.3000
  443SOL    HW1 1328   2.799   2.014   2.696 -1.8298  1.6005 -1.9035
  443SOL    HW2 1329   2.962   2.064   2.716  0.5726  0.3650  0.3364
  444SOL     OW 1330   1.452   1.040   0.245 -0.2566  0.4651  0.2550
  444SOL    HW1 1331   1.428   0.952   0.197  2.0318  1.0088 -0.1173
  444SOL    HW2 1332   1.405   1.038   0.337 -3.6000  0.8813  1.4268
  445SOL     OW 1333   2.727   2.690   1.801  0.4597  0.0981 -0.0961
  445SOL    HW1 1334   2.792   2.765   1.815 -1.2228  0.2315 -1.4241
  445SOL    HW2 1335   2.741   2.614   1.870  1.0864 -0.3390 -1.9467
  446SOL     OW 1336   2.992   1.340   0.548 -0.6342 -0.3247 -0.3088
  446SOL    HW1 1337   2.953   1.259   0.502 -1.3852  0.1552 -1.8273
  446SOL    HW2 1338   2.924   1.412   0.563  1.6602 -0.7864  0.2623
  447SOL     OW 1339   1.124   1.958   1.191 -0.1995  0.1507 -0.1008
  447SOL    HW1 1340   1.146   1.957   1.293 -0.5274 -0.8881  3.6095
  447SOL    HW2 1341   1.033   1.921   1.176  3.5247 -0.1658  0.1602
  448SOL     OW 1342   1.575   1.749   1.593 -0.4309 -0.0980 -0.0578
  448SOL    HW1 1343   1.663   1.791   1.609 -1.6386  0.6309  0.4060
  448SOL    HW2 1344   1.503   1.785   1.652 -1.5449  0.0766  0.3785
  449SOL     OW 1345   3.080   2.309   2.457  0.1789  0.2422  0.7580
  449SOL    HW1 1346   2.981   2.325   2.484 -2.2633 -1.6100  1.2391
  449SOL    HW2 1347   0.005   2.312   2.543 -0.1850  3.3907 -0.0164
  450SOL     OW 1348   3.011   1.730   2.007 -0.0419  0.0355  0.1090
  450SOL    HW1 1349   3.032   1.824   2.045 -1.1905 -3.1576 -0.7548
  450SOL    HW2 1350   2.909   1.715   2.003  2.2370 -2.3092  2.8797
  451SOL     OW 1351   2.329   0.658   1.440  0.8003  0.5726  0.4558
  451SOL    HW1 1352   2.243   0.688   1.479 -0.3501 -0.8015 -1.6760
  451SOL    HW2 1353   2.400   0.623   1.506 -1.1630  0.3501 -0.3249
  452SOL     OW 1354   0.738   1.232   0.958 -0.1606 -0.2175 -0.3883
  452SOL    HW1 1355   0.693   1.165   0.895  0.8127 -0.2027  0.6842
  452SOL    HW2 1356   0.771   1.312   0.910 -2.6383 -2.3182  2.3002
  453SOL     OW 1357   1.547   2.173   0.618  0.2355  0.0984 -0.3585
  453SOL    HW1 1358   1.575   2.167   0.716 -1.5286  0.0981 -2.4594
  453SOL    HW2 1359   1.616   2.131   0.555 -0.4491  2.7192  0.2461
  454SOL     OW 1360   0.304   1.688   0.154 -0.1606 -0.0166  0.1554
  454SOL    HW1 1361   0.368   1.717   0.231  1.5966  1.4450 -2.4597
  454SOL    HW2 1362   0.263   1.771   0.111  0.2927  1.6742  0.6365
  455SOL     OW 1363   0.903   1.092   0.284  0.5847 -0.5213  0.5018
  455SOL    HW1 1364   0.966   1.019   0.247 -1.8702  1.8242  0.9159
  455SOL    HW2 1365   0.943   1.117   0.374 -1.3303  2.8519 -0.7740
  456SOL     OW 1366   1.925   2.736   1.084 -0.1362  0.2974 -0.8044
  456SOL    HW1 1367   1.899   2.813   1.022 -0.8636  0.0296 -0.2137
  456SOL    HW2 1368   1.924   2.651   1.029  0.1167  1.1281  1.5199
  457SOL     OW 1369   1.623   3.024   0.120 -0.3550 -0.6101 -0.1642
  457SOL    HW1 1370   1.675   3.105   0.081 -0.2206  1.2617  1.2821
  457SOL    HW2 1371   1.530   3.059   0.147  0.7779  1.4709  0.8163
  458SOL     OW 1372   2.377   0.809   0.442 -0.1008 -0.0807 -0.6781
  458SOL    HW1 1373   2.296   0.748   0.447  1.1565 -0.1522  0.5661
  458SOL    HW2 1374   2.372   0.885   0.372 -0.3593  2.1545  1.9445
  459SOL     OW 1375   2.432   0.419   2.467  0.0434  0.0109 -0.4973
  459SOL    HW1 1376   2.346   0.465   2.440  0.6612 -2.8903 -1.6601
  459SOL    HW2 1377   2.497   0.488   2.507  0.7999 -1.3251 -0.7351
  460SOL     OW 1378   2.645   0.543   2.627 -0.3053 -0.2108 -0.0805
  460SOL    HW1 1379   2.662   0.516   2.726 -0.9171  0.4597 -0.0163
  460SOL    HW2 1380   2.606   0.636   2.629  0.8945  1.4170  0.1292
  461SOL     OW 1381   0.152   2.322   0.728 -0.1368 -0.1349  0.4185
  461SOL    HW1 1382   0.117   2.312   0.821 -1.8670 -2.9640  0.0738
  461SOL    HW2 1383   0.153   2.232   0.678  0.6436 -3.8023 -0.9504
  462SOL     OW 1384   3.049   2.656   1.679 -0.2905 -0.8662 -0.1720
  462SOL    HW1 1385   2.979   2.717   1.721 -0.3610 -2.5496 -1.0617
  462SOL    HW2 1386   3.074   2.687   1.586  3.5988 -1.2498  1.7171
  463SOL     OW 1387   2.337   1.908   2.758  0.2057  0.4930 -0.1498
  463SOL    HW1 1388   2.440   1.902   2.774 -1.7829 -0.5423  2.2360
  463SOL    HW2 1389   2.302   1.819   2.722  1.3380  1.1557 -1.1861
  464SOL     OW 1390   0.774   2.759   1.520  0.4221  0.4324 -0.3398
  464SOL    HW1 1391   0.840   2.701   1.571 -0.7728 -1.1232  1.4436
  464SOL    HW2 1392   0.776   2.862   1.548  1.5782  2.5425 -4.0431
  465SOL     OW 1393   0.757   3.025   1.554  0.2224  0.0967 -0.0502
  465SOL    HW1 1394   0.701   3.071   1.479  1.2640 -0.8896 -0.3194
  465SOL    HW2 1395   0.772   3.084   1.633  0.3221 -0.8101 -2.6280
  466SOL     OW 1396   1.553   2.773   2.169  0.1081 -0.0281 -1.0643
  466SOL    HW1 1397   1.596   2.702   2.109  2.0423  2.1834  1.1504
  466SOL    HW2 1398   1.530   2.860   2.129  1.4465 -1.7666  1.2252
  467SOL     OW 1399   0.863   1.886   1.156 -0.2405  0.3617  0.6044
  467SOL    HW1 1400   0.819   1.794   1.164  2.1388  1.1964  0.4500
  467SOL    HW2 1401   0.853   1.942   1.239 -1.4649 -0.7970 -2.4783
  468SOL     OW 1402   2.897   1.824   2.383 -0.3853 -0.3020  0.3122
  468SOL    HW1 1403   2.968   1.900   2.377 -0.6377  1.0613 -1.3351
  468SOL    HW2 1404   2.943   1.728   2.383  3.2188 -1.7929 -0.4971
  469SOL     OW 1405   0.964   2.002   0.746 -0.0203  0.1308  0.0199
  469SOL    HW1 1406   1.045   2.039   0.805  3.2844  0.7632  1.6585
  469SOL    HW2 1407   0.921   1.921   0.802  2.2316  0.5040 -0.0964
  470SOL     OW 1408   2.316   1.268   1.794 -0.2922  0.0513 -0.5880
  470SOL    HW1 1409   2.218   1.290   1.783  1.0912  0.3159 -2.1852
  470SOL    HW2 1410   2.364   1.269   1.704  1.1016  0.5697 -0.8009
  471SOL     OW 1411   0.488   2.532   0.083 -0.2126 -0.2833  0.1952
  471SOL    HW1 1412   0.530   2.518   0.176  1.1812  0.2177  1.0002
  471SOL    HW2 1413   0.498   2.448   0.026  0.0131 -0.8707 -3.1697
  472SOL     OW 1414   2.844   2.160   2.000  0.0766 -0.0858 -0.3369
  472SOL    HW1 1415   2.763   2.183   1.940  0.4681  0.2011 -2.4287
  472SOL    HW2 1416   2.929   2.196   1.954  1.1737  0.7769  0.8143
  473SOL     OW 1417   1.038   2.799   0.200 -0.3443  0.4322 -0.0711
  473SOL    HW1 1418   0.988   2.709   0.209 -1.9058  2.1013 -1.0735
  473SOL    HW2 1419   1.028   2.829   0.104 -0.1284  1.9667  1.7295
  474SOL     OW 1420   2.734   2.477   0.774 -0.1393 -0.0825  0.1206
  474SOL    HW1 1421   2.695   2.510   0.863  0.8936 -0.7529 -0.5552
  474SOL    HW2 1422   2.835   2.456   0.785 -0.1369  0.6593  1.0999
  475SOL     OW 1423   2.124   3.022   1.723  0.2273  0.3073 -0.9703
  475SOL    HW1 1424   2.155   2.965   1.646  0.4297 -0.7450  2.2086
  475SOL    HW2 1425   2.029   3.004   1.752  3.5126  0.3735  1.8219
  476SOL     OW 1426   0.752   1.147   0.555 -0.0684  0.2617 -0.0150
  476SOL    HW1 1427   0.848   1.186   0.546  1.6420 -0.3466 -1.3673
  476SOL    HW2 1428   0.728   1.124   0.650  2.8904 -2.0576 -2.0874
  477SOL     OW 1429   0.306   2.026   1.063 -0.7493  0.0110  0.1513
  477SOL    HW1 1430   0.277   2.123   1.064  0.3399  1.4310  1.1658
  477SOL    HW2 1431   0.385   2.001   0.998  3.0596  1.9155  0.0188
  478SOL     OW 1432   0.246   2.630   2.314  0.1793 -0.5854 -0.1272
  478SOL    HW1 1433   0.163   2.682   2.336  1.8699 -1.1685  0.7078
  478SOL    HW2 1434   0.220   2.577   2.231 -2.2374 -0.5859 -0.2160
  479SOL     OW 1435   0.105   0.273   1.426 -0.2879  0.3347  0.3044
  479SOL    HW1 1436   0.195   0.313   1.402  0.5352 -1.1906 -1.5226
  479SOL    HW2 1437   0.036   0.334   1.385  0.7508 -1.0532 -0.6729
  480SOL     OW 1438   2.929   2.602   3.017  0.2992  0.1360  0.1922
  480SOL    HW1 1439   2.936   2.570   2.919 -1.6037  0.8604  0.4417
  480SOL    HW2 1440   2.870   2.538   3.075  2.4738  2.6447 -0.7785
  481SOL     OW 1441   2.236   1.987   1.726  0.6656 -0.4251 -0.7617
  481SOL    HW1 1442   2.243   1.917   1.801  1.6303  2.8713  0.5493
  481SOL    HW2 1443   2.228   1.949   1.633 -0.2594  0.7041  0.9975
  482SOL     OW 1444   1.597   2.434   2.766  0.8198  0.1316 -0.3373
  482SOL    HW1 1445   1.537   2.356   2.746  0.0583 -0.8239 -0.4496
  482SOL    HW2 1446   1.680   2.419   2.714 -1.4248  0.1671  2.4987
  483SOL     OW 1447   0.526   1.918   2.418 -0.3039 -0.7104 -0.2080
  483SOL    HW1 1448   0.551   1.870   2.331 -1.2286 -1.9763  1.2928
  483SOL    HW2 1449   0.586   1.999   2.430 -1.9269 -1.0090 -1.2000
  484SOL     OW 1450   3.071   0.410   1.258 -0.0969  0.2268 -0.3237
  484SOL    HW1 1451   3.082   0.386   1.155  0.2454 -0.8512 -1.3633
  484SOL    HW2 1452   2.975   0.445   1.274 -1.0833 -0.2891  0.3298
  485SOL     OW 1453   2.121   1.131   0.658 -0.3646 -0.1103  0.1727
  485SOL    HW1 1454   2.132   1.186   0.568  0.7147  1.3134  0.6528
  485SOL    HW2 1455   2.085   1.194   0.729 -0.9181  1.4289  1.0090
  486SOL     OW 1456   1.440   0.244   2.280 -0.2138  0.2772  0.1252
  486SOL    HW1 1457   1.473   0.294   2.365  0.3578 -0.0759 -1.1401
  486SOL    HW2 1458   1.491   0.158   2.269  0.6834  0.1410 -0.2704
  487SOL     OW 1459   0.702   1.646   1.183  0.5249 -0.2132 -0.0225
  487SOL    HW1 1460   0.648   1.600   1.258  1.8656 -1.3316  2.7294
  487SOL    HW2 1461   0.784   1.585   1.157  1.4338  0.7519  0.3104
  488SOL     OW 1462   2.296   1.446   2.966 -0.2487  0.5329 -0.3958
  488SOL    HW1 1463   2.385   1.479   2.922 -0.9049  0.3099 -1.6089
  488SOL    HW2 1464   2.302   1.443   3.066  0.5667 -1.4271 -0.6768
  489SOL     OW 1465   2.047   0.077   0.455 -0.5443 -0.0286 -0.0879
  489SOL    HW1 1466   2.136   0.067   0.506  0.6808  3.2773 -0.4199
  489SOL    HW2 1467   2.063   0.145   0.380  0.2204 -0.2522  1.5520
  490SOL     OW 1468   1.418   2.480   0.364  0.5366 -0.7556 -0.2511
  490SOL    HW1 1469   1.482   2.416   0.320 -1.6052  1.9798 -2.1875
  490SOL    HW2 1470   1.446   2.576   0.348 -2.3229 -1.4787 -0.2784
  491SOL     OW 1471   0.995   1.014   0.772  0.2884 -0.7618 -0.1906
  491SOL    HW1 1472   0.933   0.993   0.850  1.1936  1.0060  1.7437
  491SOL    HW2 1473   1.070   1.073   0.803  0.8712  0.3175 -1.2631
  492SOL     OW 1474   1.151   0.047   2.799 -0.2508 -0.1100 -0.0406
  492SOL    HW1 1475   1.237   0.059   2.747 -1.0078 -2.2430  1.3253
  492SOL    HW2 1476   1.115   0.141   2.819  0.1194  0.4126  1.5785
  493SOL     OW 1477   1.845   2.044   0.148  0.2470  0.2151  0.2407
  493SOL    HW1 1478   1.875   1.966   0.203  0.7991 -1.4130  2.2056
  493SOL    HW2 1479   1.893   2.126   0.174 -1.4924 -2.1839 -5.4169
  494SOL     OW 1480   0.464   1.460   0.381  0.3595  0.1785  0.3882
  494SOL    HW1 1481   0.455   1.538   0.445 -0.7396 -1.8570 -0.3729
  494SOL    HW2 1482   0.550   1.465   0.325  1.1422  1.2394  0.2283
  495SOL     OW 1483   3.092   2.799   0.795 -0.4256 -0.2233  0.3336
  495SOL    HW1 1484   3.110   2.729   0.867  2.5854  0.8485  0.3461
  495SOL    HW2 1485   3.039   2.776   0.710 -1.8926  0.7675 -0.9613
  496SOL     OW 1486   2.625   3.095   1.601  0.1054 -0.3256 -0.4598
  496SOL    HW1 1487   2.590   3.059   1.514 -0.1920  1.3936  1.4706
  496SOL    HW2 1488   2.584   0.060   1.611 -1.7614  1.8202  0.4084
  497SOL     OW 1489   2.042   1.355   2.601 -0.3592 -0.1887 -0.2208
  497SOL    HW1 1490   2.040   1.410   2.686 -0.8478  0.4475 -0.6648
  497SOL    HW2 1491   2.013   1.409   2.519 -2.6844  0.8287 -2.3350
  498SOL     OW 1492   0.839   1.808   0.872  0.4036 -0.2136  0.8048
  498SOL    HW1 1493   0.872   1.822   0.964  2.0754  0.2409 -0.6593
  498SOL    HW2 1494   0.759   1.741   0.872 -0.8069 -0.9993 -1.7040
  499SOL     OW 1495   0.767   2.056   1.363 -0.1524 -0.0125  0.2010
  499SOL    HW1 1496   0.689   2.000   1.391  0.5174 -0.5040 -0.2228
  499SOL    HW2 1497   0.729   2.132   1.300 -2.7023  2.4815 -2.2741
  500SOL     OW 1498   0.809   2.088   0.296 -0.1648 -0.1334 -0.1994
  500SOL    HW1 1499   0.807   2.069   0.399  0.0637  1.6710  0.7278
  500SOL    HW2 1500   0.810   2.188   0.276 -0.5439 -1.0707 -0.3712
  501SOL     OW 1501   2.661   2.869   1.244  0.3658  0.1933  0.4752
  501SOL    HW1 1502   2.615   2.862   1.155  0.3661  1.3314  0.7051
  501SOL    HW2 1503   2.753   2.825   1.239 -3.4001  0.1456 -0.2240
  502SOL     OW 1504   0.126   0.637   1.591  0.7275  0.7581 -0.3468
  502SOL    HW1 1505   0.142   0.561   1.657 -2.0543  1.0346 -1.3090
  502SOL    HW2 1506   0.035   0.625   1.546  0.3004 -0.2318  0.0053
  503SOL     OW 1507   2.387   0.829   1.981 -0.1983 -0.2588  0.4026
  503SOL    HW1 1508   2.465   0.823   1.915 -0.9121  2.1151  2.6403
  503SOL    HW2 1509   2.351   0.923   1.990  0.7738  1.6752  0.6942
  504SOL     OW 1510   1.097   0.842   1.825  0.3093  0.2399 -0.0812
  504SOL    HW1 1511   1.067   0.753   1.861  1.2701  0.0694  1.5620
  504SOL    HW2 1512   1.186   0.876   1.865  1.4771 -1.1507  0.0206
  505SOL     OW 1513   0.843   3.005   2.446 -0.0092 -0.3733 -0.8938
  505SOL    HW1 1514   0.884   2.924   2.398 -1.4227  1.1446 -1.4617
  505SOL    HW2 1515   0.792   3.062   2.379 -0.4033 -1.7565 -3.5787
  506SOL     OW 1516   0.162   0.419   0.767 -0.4296 -0.5006 -0.3317
  506SOL    HW1 1517   0.103   0.481   0.827  1.5811  1.6881 -2.1670
  506SOL    HW2 1518   0.214   0.360   0.829 -0.8785  0.5307 -1.0167
  507SOL     OW 1519   1.481   0.213   3.024 -0.2845  0.2177 -0.3888
  507SOL    HW1 1520   1.575   0.247   3.037 -2.2277  1.2135  1.3242
  507SOL    HW2 1521   1.479   0.116   3.013 -1.3874  0.7809  1.5441
  508SOL     OW 1522   1.570   0.390   2.466  0.0318  0.0962 -0.4391
  508SOL    HW1 1523   1.563   0.489   2.439 -1.0447 -2.6675 -1.8801
  508SOL    HW2 1524   1.651   0.341   2.421  2.5862 -2.1300  1.2178
  509SOL     OW 1525   0.789   1.392   2.290  0.5796 -0.5527  0.2700
  509SOL    HW1 1526   0.868   1.454   2.283  0.7786  0.5473 -0.0184
  509SOL    HW2 1527   0.809   1.296   2.258 -0.8962 -3.1528  0.1901
  510SOL     OW 1528   3.022   0.961   0.621  0.0366 -0.3119  0.3733
  510SOL    HW1 1529   3.025   0.985   0.717 -1.4882 -0.9295 -0.0261
  510SOL    HW2 1530   3.106   0.918   0.587 -0.5381 -0.7453  0.7579
  511SOL     OW 1531   1.944   2.143   1.126  0.2126  0.2356 -0.4878
  511SOL    HW1 1532   1.913   2.200   1.203  1.0955 -2.1659 -1.6438
  511SOL    HW2 1533   2.043   2.137   1.119 -1.7599  2.6194  2.6130
  512SOL     OW 1534   0.158   1.686   0.520 -0.9273  0.3789 -0.3517
  512SOL    HW1 1535   0.102   1.715   0.598  2.9730  0.1783 -2.5795
  512SOL    HW2 1536   0.133   1.592   0.489 -0.4480 -0.9572 -0.9546
  513SOL     OW 1537   0.199   2.181   0.484  0.1322  0.0012  0.0120
  513SOL    HW1 1538   0.281   2.135   0.438  1.4698  0.6031  0.0192
  513SOL    HW2 1539   0.189   2.277   0.448 -1.6697 -0.8855 -1.4658
  514SOL     OW 1540   2.512   2.012   2.498  0.0183 -0.1744 -0.1461
  514SOL    HW1 1541   2.476   2.079   2.562  1.1440 -2.3302 -3.2148
  514SOL    HW2 1542   2.538   2.053   2.407 -0.7430  2.6536 -2.6649
  515SOL     OW 1543   2.166   1.051   0.088 -0.0306  0.7241  0.1305
  515SOL    HW1 1544   2.117   0.961   0.076  0.6626  0.9751  1.8158
  515SOL    HW2 1545   2.254   1.035   0.134 -3.7589  0.2824 -2.4903
  516SOL     OW 1546   1.849   0.053   0.647 -0.6270  0.1807 -0.5655
  516SOL    HW1 1547   1.788   0.118   0.690 -0.1625 -0.2108  1.3925
  516SOL    HW2 1548   1.909   0.095   0.579 -0.4948  0.6595  2.6547
  517SOL     OW 1549   1.138   2.136   0.166 -0.2252 -0.3782 -0.1268
  517SOL    HW1 1550   1.049   2.187   0.177 -3.0337 -2.7901  0.6895
  517SOL    HW2 1551   1.127   2.040   0.194 -2.0926  1.5046 -1.3389
  518SOL     OW 1552   0.838   0.528   1.727 -0.4249 -0.0149  0.1648
  518SOL    HW1 1553   0.926   0.534   1.776 -0.7125 -3.4124  0.7624
  518SOL    HW2 1554   0.773   0.457   1.755  2.0725  2.8010  0.8168
  519SOL     OW 1555   2.964   1.406   0.122 -0.0479 -0.0042  0.6267
  519SOL    HW1 1556   3.049   1.462   0.127  0.5556  1.1633 -0.7114
  519SOL    HW2 1557   2.982   1.308   0.148  0.5535  2.1824  0.3926
  520SOL     OW 1558   2.494   1.955   1.622  0.1198 -0.3392  0.4829
  520SOL    HW1 1559   2.412   2.014   1.632 -3.4538  0.9363 -1.7989
  520SOL    HW2 1560   2.574   2.006   1.658 -4.0598  0.0961  0.5710
  521SOL     OW 1561   0.913   2.761   2.342  0.1383  0.0821  0.6890
  521SOL    HW1 1562   1.014   2.746   2.355  0.9027 -2.4305  3.0478
  521SOL    HW2 1563   0.856   2.693   2.390 -0.8895  1.2115 -1.5356
  522SOL     OW 1564   1.967   0.305   2.259 -0.1453 -0.2855 -0.1102
  522SOL    HW1 1565   1.936   0.304   2.354  0.7846  0.7368 -1.8551
  522SOL    HW2 1566   2.017   0.394   2.235 -1.3079  1.0190  2.0984
  523SOL     OW 1567   1.876   1.865   1.207  0.1422 -0.2634  0.2128
  523SOL    HW1 1568   1.886   1.965   1.202  0.2529  0.5187  0.4699
  523SOL    HW2 1569   1.775   1.840   1.214  2.2529 -0.1507 -0.2544
  524SOL     OW 1570   1.109   2.626   0.466 -0.2622 -0.1222  0.7225
  524SOL    HW1 1571   1.162   2.543   0.498 -0.9455 -1.2625 -0.0147
  524SOL    HW2 1572   1.165   2.711   0.454  2.1293  1.8471  2.4971
  525SOL     OW 1573   2.927   0.437   0.204  0.3570 -0.6751 -0.2300
  525SOL    HW1 1574   2.906   0.409   0.109  1.5690 -1.0279 -0.8246
  525SOL    HW2 1575   3.025   0.415   0.229  1.1940  1.0992  1.7171
  526SOL     OW 1576   0.991   2.979   0.412 -0.2341 -0.1741 -0.0906
  526SOL    HW1 1577   0.894   3.006   0.431  1.9603  3.0494  0.1533
  526SOL    HW2 1578   0.991   2.911   0.337 -1.3087  1.3422  0.7109
  527SOL     OW 1579   2.682   2.042   0.643  0.2759  0.1825 -0.5752
  527SOL    HW1 1580   2.777   2.056   0.673  1.3306 -0.2804  1.5852
  527SOL    HW2 1581   2.635   2.133   0.621 -2.5020  2.5518 -2.6983
  528SOL     OW 1582   3.106   0.703   2.324  0.0235  0.1536 -0.1178
  528SOL    HW1 1583   3.075   0.610   2.363 -3.0082  2.1606  1.2835
  528SOL    HW2 1584   0.033   0.691   2.242  0.5416  2.3971 -0.0855
  529SOL     OW 1585   1.055   1.704   2.581 -0.0863  0.6248  0.0012
  529SOL    HW1 1586   1.146   1.742   2.548  2.6853  0.1721 -0.0459
  529SOL    HW2 1587   1.028   1.754   2.660 -0.0922 -3.4192 -1.1988
  530SOL     OW 1588   1.742   1.205   2.356 -0.0341 -0.1622 -0.3244
  530SOL    HW1 1589   1.658   1.249   2.320  4.3430 -0.6065  1.7099
  530SOL    HW2 1590   1.825   1.244   2.314 -1.8616  1.1392  4.1165
  531SOL     OW 1591   0.495   2.164   2.735 -0.6200  0.0186 -0.0547
  531SOL    HW1 1592   0.440   2.192   2.651 -0.7879 -0.4791 -1.6979
  531SOL    HW2 1593   0.446   2.104   2.801 -1.4044 -0.1812 -1.0543
  532SOL     OW 1594   2.095   1.287   0.422  0.0487 -0.2970 -0.2979
  532SOL    HW1 1595   2.112   1.248   0.332 -1.7820  1.9627  0.2476
  532SOL    HW2 1596   2.155   1.369   0.428  2.3492 -1.4374 -1.4107
  533SOL     OW 1597   0.114   3.099   1.866 -0.0183 -0.4778  0.3087
  533SOL    HW1 1598   0.206   3.127   1.895 -0.9253 -0.7259 -0.0687
  533SOL    HW2 1599   0.099   3.120   1.766  1.5839  0.7480  0.5480
  534SOL     OW 1600   0.556   0.215   3.023  0.1486 -0.5071  0.0884
  534SOL    HW1 1601   0.483   0.254   2.968  2.6967 -1.4102  0.9756
  534SOL    HW2 1602   0.533   0.209   3.124 -0.5112  0.0064  1.8830
  535SOL     OW 1603   0.037   0.356   0.279  0.7036 -0.5859  0.5653
  535SOL    HW1 1604   0.008   0.307   0.363 -1.4100 -1.5333 -1.9147
  535SOL    HW2 1605   0.131   0.387   0.293 -1.7612 -0.5680 -1.9325
  536SOL     OW 1606   0.334   1.304   1.460  0.3807  0.1291 -0.5356
  536SOL    HW1 1607   0.422   1.260   1.421  4.7060 -0.6124  0.3159
  536SOL    HW2 1608   0.347   1.406   1.476 -0.4974  1.6120 -0.0099
  537SOL     OW 1609   1.153   2.669   1.741  0.1707  1.3864 -0.3159
  537SOL    HW1 1610   1.130   2.683   1.837 -0.0809 -3.5874 -0.4814
  537SOL    HW2 1611   1.225   2.598   1.734  0.7820 -0.8653  0.8436
  538SOL     OW 1612   0.081   1.897   0.361 -0.3423  0.1397  0.9900
  538SOL    HW1 1613   0.129   1.814   0.389 -0.6565 -0.0120  0.0920
  538SOL    HW2 1614   3.112   1.890   0.367 -0.9566  2.4919 -0.3729
  539SOL     OW 1615   2.683   1.176   2.641  0.2855 -0.0941  0.8049
  539SOL    HW1 1616   2.743   1.165   2.724 -3.1378  0.1999  0.1182
  539SOL    HW2 1617   2.716   1.142   2.551 -0.7047 -0.9475 -2.0593
  540SOL     OW 1618   1.828   1.016   2.031 -0.7633  0.0013 -0.0938
  540SOL    HW1 1619   1.900   0.988   1.969 -0.4809  1.2706 -1.9784
  540SOL    HW2 1620   1.821   1.120   2.040 -1.1716  2.2165 -0.2495
  541SOL     OW 1621   0.829   0.736   2.098 -0.3204 -0.2122  0.2240
  541SOL    HW1 1622   0.742   0.693   2.124  2.3055  0.1045  0.2013
  541SOL    HW2 1623   0.819   0.829   2.067 -2.2534 -1.7530  0.0392
  542SOL     OW 1624   2.084   0.162   3.038 -0.1971  0.0563  0.0918
  542SOL    HW1 1625   2.051   0.250   3.072  0.0321 -0.6057 -0.1686
  542SOL    HW2 1626   2.121   0.181   2.945 -0.7875 -0.9865 -0.5866
  543SOL     OW 1627   1.356   3.126   0.140  0.0052  0.0326  0.0639
  543SOL    HW1 1628   1.334   3.109   0.045  1.5895 -0.3751  0.8288
  543SOL    HW2 1629   1.281   0.032   0.196  4.0421 -0.6640  0.2170
  544SOL     OW 1630   2.769   1.486   1.954 -0.3419  0.4968  0.7649
  544SOL    HW1 1631   2.755   1.478   2.054 -1.1105  1.2743 -0.0682
  544SOL    HW2 1632   2.828   1.412   1.923 -0.8851  1.2207  0.5094
  545SOL     OW 1633   1.839   2.410   1.771  0.0752 -0.3926 -0.8523
  545SOL    HW1 1634   1.833   2.475   1.695  1.3020 -2.3891 -0.2306
  545SOL    HW2 1635   1.928   2.428   1.819 -1.3908 -0.0530 -1.3502
  546SOL     OW 1636   0.103   0.114   2.602  0.4499 -0.5727  0.4033
  546SOL    HW1 1637   0.092   0.019   2.569 -1.4616 -1.2365  1.1671
  546SOL    HW2 1638   0.190   0.121   2.658  0.5961 -2.6570  1.3377
  547SOL     OW 1639   1.863   1.029   0.849 -0.2218  0.0691  0.2117
  547SOL    HW1 1640   1.835   1.035   0.751  0.4629  0.1120  0.1924
  547SOL    HW2 1641   1.831   1.107   0.903 -1.8082 -1.3575  0.7929
  548SOL     OW 1642   1.810   1.982   2.485 -0.2809 -0.3779  0.2805
  548SOL    HW1 1643   1.870   1.987   2.568 -0.9687  0.1394  1.5047
  548SOL    HW2 1644   1.747   2.063   2.471 -0.9057  1.7210  1.7178
  549SOL     OW 1645   2.097   0.571   0.380  0.1459  0.0086 -0.0920
  549SOL    HW1 1646   2.050   0.663   0.382  1.2369  0.7266  0.6223
  549SOL    HW2 1647   2.091   0.511   0.462  2.0521  0.9067  0.4961
  550SOL     OW 1648   2.526   1.814   0.647 -0.0523  0.2923  0.0585
  550SOL    HW1 1649   2.595   1.891   0.649 -0.2754  1.5320  0.3868
  550SOL    HW2 1650   2.434   1.842   0.678 -2.2046 -0.6020  1.5906
  551SOL     OW 1651   1.156   2.626   2.220 -0.4242 -0.2741  0.1662
  551SOL    HW1 1652   1.195   2.660   2.304 -0.9725 -3.6392 -0.3310
  551SOL    HW2 1653   1.078   2.563   2.243  0.1583  0.4261 -1.0359
  552SOL     OW 1654   2.957   2.497   2.760 -0.2207  0.5844 -0.2179
  552SOL    HW1 1655   2.874   2.438   2.762  1.0560 -4.0357 -1.7221
  552SOL    HW2 1656   3.039   2.432   2.750 -0.9649 -2.8517 -2.0100
  553SOL     OW 1657   0.275   0.230   0.970  0.0961 -0.1762  0.2901
  553SOL    HW1 1658   0.306   0.197   0.881 -0.5263  0.3175  0.8806
  553SOL    HW2 1659   0.177   0.201   0.996  3.0521  0.6980  0.1939
  554SOL     OW 1660   2.526   2.365   2.029  0.1066  0.7301  0.3689
  554SOL    HW1 1661   2.469   2.338   1.950 -0.2348 -0.8120 -2.4732
  554SOL    HW2 1662   2.487   2.328   2.115  0.0925  0.1701 -0.6640
  555SOL     OW 1663   1.601   2.381   2.218  0.1334  0.6350 -0.4740
  555SOL    HW1 1664   1.529   2.410   2.150  2.7491  2.0331 -3.0598
  555SOL    HW2 1665   1.692   2.417   2.190  2.2692 -0.0363  0.5729
  556SOL     OW 1666   1.323   1.697   1.471 -0.0734 -0.2966  0.4898
  556SOL    HW1 1667   1.284   1.623   1.413  0.0743  0.3702  1.9008
  556SOL    HW2 1668   1.420   1.675   1.491 -1.6582  2.3647  1.3140
  557SOL     OW 1669   1.807   2.409   2.608 -0.1022  0.3588  0.3398
  557SOL    HW1 1670   1.904   2.390   2.618 -1.9756  2.2885 -0.2917
  557SOL    HW2 1671   1.784   2.498   2.563 -1.4876  0.7933  1.9420
  558SOL     OW 1672   0.323   2.832   2.074 -0.8565  0.9816  0.0638
  558SOL    HW1 1673   0.330   2.765   1.997  2.2901  2.3174 -2.2082
  558SOL    HW2 1674   0.395   2.813   2.141 -2.7176  0.4938  0.1409
  559SOL     OW 1675   2.542   2.993   0.828  0.0143 -0.2481  0.1874
  559SOL    HW1 1676   2.576   2.956   0.743  2.5411 -1.1787  1.7580
  559SOL    HW2 1677   2.469   3.061   0.814  0.6429 -0.5966  0.2664
  560SOL     OW 1678   1.895   2.532   0.633 -0.1297 -0.0358 -0.7407
  560SOL    HW1 1679   1.797   2.518   0.625  1.4518 -1.3995  1.5314
  560SOL    HW2 1680   1.937   2.458   0.687 -1.5250  0.2365 -0.0689
  561SOL     OW 1681   0.945   0.292   0.599  0.5524  0.8006  0.0126
  561SOL    HW1 1682   1.013   0.259   0.529  1.7931  1.9751 -0.1577
  561SOL    HW2 1683   0.991   0.367   0.650  3.2241 -0.9052  3.8400
  562SOL     OW 1684   0.753   0.816   2.483 -0.1116  0.0298 -0.2755
  562SOL    HW1 1685   0.725   0.719   2.508  1.5050 -1.9910 -0.6739
  562SOL    HW2 1686   0.678   0.871   2.436 -1.9406 -0.0619 -3.0165
  563SOL     OW 1687   1.688   1.637   2.753 -0.2469 -0.7230  0.1171
  563SOL    HW1 1688   1.624   1.645   2.831 -1.3988  0.9335  0.0702
  563SOL    HW2 1689   1.784   1.670   2.778  0.5453  0.4203  0.7524
  564SOL     OW 1690   2.573   0.698   1.310  0.5840 -0.3570  0.7901
  564SOL    HW1 1691   2.486   0.706   1.363 -0.9940 -0.2578  4.0255
  564SOL    HW2 1692   2.587   0.766   1.238 -1.0916 -1.7788  1.9360
  565SOL     OW 1693   1.146   0.496   2.928  0.1722 -0.0192 -0.5163
  565SOL    HW1 1694   1.233   0.541   2.901  0.8282  1.2677  1.8187
  565SOL    HW2 1695   1.073   0.567   2.930 -1.0003 -2.8636 -0.5788
  566SOL     OW 1696   2.118   0.533   2.668  0.4445 -0.3583 -0.8181
  566SOL    HW1 1697   2.164   0.509   2.585 -0.6370 -0.5420  2.2439
  566SOL    HW2 1698   2.178   0.578   2.737 -1.6227  0.9714  2.4243
  567SOL     OW 1699   2.222   1.542   0.405 -0.2143  0.5436 -0.5136
  567SOL    HW1 1700   2.318   1.572   0.413  1.2941  0.2829 -0.0272
  567SOL    HW2 1701   2.180   1.562   0.313  0.4501 -1.1776 -1.7681
  568SOL     OW 1702   1.717   1.756   3.046  0.8158 -0.0323 -0.0788
  568SOL    HW1 1703   1.625   1.715   3.033  1.8521 -0.6482  2.8613
  568SOL    HW2 1704   1.705   1.852   3.074  0.4914  1.0364 -2.7239
  569SOL     OW 1705   1.886   1.101   3.108 -0.4459 -0.4129  0.2668
  569SOL    HW1 1706   1.867   1.188   3.056  1.2222  0.4167  1.7393
  569SOL    HW2 1707   1.988   1.082   3.102  2.3854 -0.9556  0.7826
  570SOL     OW 1708   0.463   2.399   2.072  0.1382 -0.9828  0.3127
  570SOL    HW1 1709   0.535   2.455   2.022  0.2763 -1.9518  0.7928
  570SOL    HW2 1710   0.368   2.444   2.063 -1.9693 -0.4163 -0.0105
  571SOL     OW 1711   0.471   1.061   2.010  0.5108 -0.6770 -0.0946
  571SOL    HW1 1712   0.407   1.078   1.931 -0.0866  1.2519  2.2727
  571SOL    HW2 1713   0.459   1.136   2.078  1.3616  2.3617 -0.8991
  572SOL     OW 1714   0.970   1.720   0.634  0.0291 -0.1470  0.0926
  572SOL    HW1 1715   0.940   1.744   0.726  3.2923 -0.5990 -2.7009
  572SOL    HW2 1716   1.038   1.800   0.613  1.0696  4.3596 -0.4679
  573SOL     OW 1717   1.632   2.012   3.114 -0.3100 -0.0673 -0.3036
  573SOL    HW1 1718   1.547   2.056   0.013  1.1229 -1.1260  0.9063
  573SOL    HW2 1719   1.707   2.034   0.046  0.5512 -4.8758 -1.2267
  574SOL     OW 1720   1.036   0.129   1.116  0.2483 -0.2557 -0.5354
  574SOL    HW1 1721   1.013   0.047   1.060  1.3455  0.8300 -1.6304
  574SOL    HW2 1722   0.982   0.128   1.205  0.8007  0.9928  3.7276
  575SOL     OW 1723   0.307   0.913   1.319 -0.1370  0.0729  0.1513
  575SOL    HW1 1724   0.323   0.963   1.407 -0.3974 -0.9481 -0.6308
  575SOL    HW2 1725   0.315   0.813   1.334  0.2189  3.8592 -0.1909
  576SOL     OW 1726   2.510   2.798   1.007 -0.0238  0.0817  0.7518
  576SOL    HW1 1727   2.413   2.774   0.998  2.6573  1.2131 -0.3922
  576SOL    HW2 1728   2.536   2.869   0.938 -0.5306 -0.4416 -0.5438
  577SOL     OW 1729   1.142   1.158   2.258  0.1229  0.4177  0.2604
  577SOL    HW1 1730   1.207   1.192   2.195  0.0989 -3.3546 -1.7494
  577SOL    HW2 1731   1.044   1.161   2.226 -1.5296  0.0268  1.2843
  578SOL     OW 1732   2.038   1.010   2.493  0.1818 -0.1444  0.3481
  578SOL    HW1 1733   1.968   0.990   2.419  1.2753  0.0646  1.0401
  578SOL    HW2 1734   1.995   1.041   2.578 -0.9084 -0.4312 -0.8713
  579SOL     OW 1735   2.312   2.208   1.868  0.0950 -0.2518  0.0506
  579SOL    HW1 1736   2.285   2.161   1.954 -3.8194 -1.4334  0.1942
  579SOL    HW2 1737   2.297   2.144   1.789 -0.0506 -2.1660  0.4867
  580SOL     OW 1738   1.604   1.805   2.538 -0.6858 -0.4403 -0.8522
  580SOL    HW1 1739   1.681   1.869   2.529 -1.5769  1.9319  2.8821
  580SOL    HW2 1740   1.587   1.768   2.630 -0.2131  0.1513 -2.6749
  581SOL     OW 1741   1.373   1.489   2.455 -0.0021 -0.0067 -0.0911
  581SOL    HW1 1742   1.322   1.426   2.521  1.1492 -1.6991  3.0952
  581SOL    HW2 1743   1.470   1.493   2.493  1.3193  2.0346  1.1962
  582SOL     OW 1744   1.019   1.494   1.839  0.3799 -0.1304  0.4810
  582SOL    HW1 1745   0.952   1.491   1.764  0.4696  0.6861 -0.9321
  582SOL    HW2 1746   1.111   1.477   1.808 -4.2527  2.5626 -0.4715
  583SOL     OW 1747   1.419   1.032   1.654 -0.1164 -0.1872  0.0353
  583SOL    HW1 1748   1.367   1.012   1.567  2.8804  1.4146  1.6219
  583SOL    HW2 1749   1.488   1.110   1.644  2.6954 -0.9065  1.5701
  584SOL     OW 1750   2.186   2.597   0.532  0.1190 -0.1854 -0.1630
  584SOL    HW1 1751   2.083   2.601   0.519 -0.7509 -0.3862 -0.0753
  584SOL    HW2 1752   2.228   2.679   0.488  0.3771  0.7212  0.4615
  585SOL     OW 1753   1.824   3.033   2.755  0.1519  0.2666  0.0201
  585SOL    HW1 1754   1.815   2.928   2.752  1.1833 -0.1037 -0.7951
  585SOL    HW2 1755   1.891   3.048   2.828  0.6632 -2.1497 -1.4619
  586SOL     OW 1756   2.752   2.150   0.956 -0.0591 -0.1421  0.2117
  586SOL    HW1 1757   2.832   2.138   0.896  2.0564  0.0521 -0.9356
  586SOL    HW2 1758   2.741   2.071   1.018 -0.9919 -1.4259  0.6292
  587SOL     OW 1759   1.332   1.812   0.059 -0.1533 -0.0933 -0.5996
  587SOL    HW1 1760   1.349   1.713   0.056 -1.3518  2.5731 -0.8641
  587SOL    HW2 1761   1.310   1.848   3.097  0.9118  0.9070 -1.3731
  588SOL     OW 1762   0.429   0.325   1.153  0.3928 -0.3488 -0.1705
  588SOL    HW1 1763   0.521   0.332   1.111  0.1426 -4.2568 -0.5159
  588SOL    HW2 1764   0.372   0.286   1.078  0.6812 -0.6409 -1.1464
  589SOL     OW 1765   1.127   0.227   0.438  0.0258  0.3768  0.6205
  589SOL    HW1 1766   1.126   0.287   0.355  0.6610  3.9310 -1.0270
  589SOL    HW2 1767   1.153   0.126   0.430  2.2264  0.6946  1.7123
  590SOL     OW 1768   1.310   0.705   2.847 -0.2649 -0.1455 -0.0583
  590SOL    HW1 1769   1.300   0.676   2.751 -0.3228 -0.9710  1.0001
  590SOL    HW2 1770   1.268   0.802   2.862  0.9708  0.6906  1.9138
  591SOL     OW 1771   2.807   2.262   2.252  0.2837  0.3012 -0.0945
  591SOL    HW1 1772   2.821   2.363   2.264  0.1792 -0.5509  0.2502
  591SOL    HW2 1773   2.827   2.230   2.161 -1.2240  0.3515  4.4059
  592SOL     OW 1774   2.516   1.375   1.964 -0.0635  0.4442 -0.2982
  592SOL    HW1 1775   2.454   1.334   1.891 -1.2395  1.3256  0.2585
  592SOL    HW2 1776   2.593   1.424   1.925 -2.0598  2.6671  1.2868
  593SOL     OW 1777   1.288   0.976   1.435 -0.1194 -0.0096  0.4369
  593SOL    HW1 1778   1.348   0.965   1.352 -2.0689 -1.4898  1.2602
  593SOL    HW2 1779   1.262   0.888   1.476  1.2326  1.5789 -1.8750
  594SOL     OW 1780   2.489   1.601   2.823  0.7227  0.3130 -0.1283
  594SOL    HW1 1781   2.527   1.699   2.824 -1.6813  1.2271 -0.2202
  594SOL    HW2 1782   2.537   1.538   2.758 -1.0052 -0.9496  1.0588
  595SOL     OW 1783   0.049   0.282   0.573  0.1900 -0.5285  0.2715
  595SOL    HW1 1784   0.105   0.345   0.631  0.0216  1.7776  3.1701
  595SOL    HW2 1785   3.081   0.306   0.588 -1.1230 -0.9659 -1.2117
  596SOL     OW 1786   2.981   1.374   0.944 -0.3366 -0.2926 -0.0131
  596SOL    HW1 1787   3.028   1.323   1.012 -3.1876  1.2357 -2.7335
  596SOL    HW2 1788   3.052   1.410   0.875 -0.3079 -0.9120 -0.6954
  597SOL     OW 1789   1.380   1.744   0.658  0.6077  0.5909  0.5617
  597SOL    HW1 1790   1.410   1.811   0.727 -0.5679 -0.6556  1.3113
  597SOL    HW2 1791   1.305   1.792   0.599  0.6169  2.7721 -2.5111
  598SOL     OW 1792   0.325   2.655   1.885 -0.1084 -0.7714 -0.2828
  598SOL    HW1 1793   0.268   2.577   1.857 -0.6144  2.8353 -1.0886
  598SOL    HW2 1794   0.331   2.725   1.809 -0.1825  0.8043 -0.5663
  599SOL     OW 1795   0.057   1.638   2.605 -0.0396 -0.2698  0.2722
  599SOL    HW1 1796   3.091   1.660   2.591  1.2216 -0.3213 -2.2849
  599SOL    HW2 1797   0.091   1.689   2.694  1.4435  1.2493  2.2489
  600SOL     OW 1798   0.289   0.915   2.979 -0.2756  0.4998  0.2787
  600SOL    HW1 1799   0.299   0.823   2.946 -2.2122  0.6954  3.7649
  600SOL    HW2 1800   0.231   0.969   2.917  0.7117  1.1246 -0.2406
  601SOL     OW 1801   0.693   0.792   1.191  0.3498 -0.5800 -0.2769
  601SOL    HW1 1802   0.653   0.891   1.208 -1.4027  1.3495 -0.7015
  601SOL    HW2 1803   0.628   0.721   1.165 -0.4068  1.3601 -0.1612
  602SOL     OW 1804   1.138   2.898   0.619  0.0024  0.0836  0.4568
  602SOL    HW1 1805   1.224   2.871   0.571 -1.4530  2.1958 -0.6729
  602SOL    HW2 1806   1.072   2.919   0.545 -0.0980  0.4307  1.5387
  603SOL     OW 1807   1.670   2.230   2.438 -0.0255  0.2823 -0.3813
  603SOL    HW1 1808   1.729   2.294   2.489 -2.7516 -0.2289  1.2191
  603SOL    HW2 1809   1.636   2.275   2.350 -1.9999  2.4519 -1.3328
  604SOL     OW 1810   0.357   0.339   2.865  0.3853 -0.4342  0.3802
  604SOL    HW1 1811   0.270   0.394   2.866  2.9545 -2.5581  1.0827
  604SOL    HW2 1812   0.371   0.284   2.779  0.9399 -1.2399 -1.0855
  605SOL     OW 1813   2.730   1.032   1.728 -0.1236 -0.4429 -0.9000
  605SOL    HW1 1814   2.687   1.076   1.810 -0.3953 -0.1808  1.5306
  605SOL    HW2 1815   2.713   1.088   1.642  0.9342  0.6404 -1.5222
  606SOL     OW 1816   0.758   1.672   2.637 -0.1340  0.2496 -0.6188
  606SOL    HW1 1817   0.807   1.718   2.559 -1.8062 -0.0350 -1.2312
  606SOL    HW2 1818   0.732   1.581   2.602 -0.6104  1.0293 -0.2779
  607SOL     OW 1819   0.698   0.246   0.493 -0.3454  0.0496  0.3132
  607SOL    HW1 1820   0.675   0.318   0.423 -2.1639  0.2788 -3.3089
  607SOL    HW2 1821   0.794   0.252   0.528  0.5306 -0.6728  1.7865
  608SOL     OW 1822   2.829   1.636   1.534  0.3545 -0.2190 -0.1922
  608SOL    HW1 1823   2.780   1.639   1.625 -0.5905  0.5432  1.8347
  608SOL    HW2 1824   2.821   1.541   1.501 -0.3486 -0.1096 -1.1681
  609SOL     OW 1825   2.817   0.405   0.872 -0.7986 -0.1258  0.2319
  609SOL    HW1 1826   2.757   0.332   0.909  2.4144  1.7060  0.6583
  609SOL    HW2 1827   2.762   0.478   0.823  2.6800  0.9467  1.9748
  610SOL     OW 1828   0.169   2.592   1.374  0.3405 -0.1912 -0.3195
  610SOL    HW1 1829   0.165   2.509   1.429 -1.0632  1.9669  0.5647
  610SOL    HW2 1830   0.201   2.580   1.276 -1.2270 -2.4000  0.5138
  611SOL     OW 1831   1.536   1.579   0.274  0.1207  0.2624 -0.1777
  611SOL    HW1 1832   1.626   1.557   0.238 -0.9544 -2.4207 -0.9336
  611SOL    HW2 1833   1.512   1.676   0.257 -0.8165 -0.2619 -3.0782
  612SOL     OW 1834   0.828   2.803   2.087  0.4797 -0.2211  0.1182
  612SOL    HW1 1835   0.841   2.789   2.183 -1.2328  0.8832 -4.9647
  612SOL    HW2 1836   0.810   2.902   2.069  1.2823  0.8172  0.2634
  613SOL     OW 1837   0.406   2.687   0.907 -0.0731  0.2690 -0.3195
  613SOL    HW1 1838   0.387   2.645   0.816 -3.2795 -0.7801 -1.5865
  613SOL    HW2 1839   0.492   2.659   0.951 -1.9400 -0.0342 -0.2647
  614SOL     OW 1840   2.196   0.078   2.160  0.1033  0.2712 -0.1267
  614SOL    HW1 1841   2.163   0.173   2.175 -1.8840  1.4709  0.5885
  614SOL    HW2 1842   2.244   0.072   2.070 -0.2151 -0.0914  2.1557
  615SOL     OW 1843   1.502   1.378   0.433 -0.2742  0.1086 -0.1449
  615SOL    HW1 1844   1.512   1.449   0.362  2.0161 -3.5213  0.2302
  615SOL    HW2 1845   1.534   1.418   0.521 -0.6376  0.7674  0.2228
  616SOL     OW 1846   1.814   1.608   0.408  0.2655 -0.0074 -0.3675
  616SOL    HW1 1847   1.828   1.605   0.309  1.1125 -0.2237  3.6797
  616SOL    HW2 1848   1.822   1.518   0.454  0.5803  0.2156 -1.4133
  617SOL     OW 1849   1.324   1.244   2.570  0.2746 -0.1968 -0.2773
  617SOL    HW1 1850   1.227   1.223   2.545 -2.2426  2.1228 -0.5150
  617SOL    HW2 1851   1.393   1.175   2.534 -0.2309 -0.1509 -0.3993
  618SOL     OW 1852   0.638   3.034   2.053 -0.1162  0.4031  0.5700
  618SOL    HW1 1853   0.540   3.045   2.046  3.5532 -0.7981 -1.8845
  618SOL    HW2 1854   0.666   3.069   2.144 -1.2256  0.8953 -1.4966
  619SOL     OW 1855   2.821   1.390   1.407  0.0596  0.1055 -0.1441
  619SOL    HW1 1856   2.912   1.383   1.455 -2.5546 -3.0970 -0.0372
  619SOL    HW2 1857   2.828   1.414   1.309  0.0435  1.3192  0.8048
  620SOL     OW 1858   2.373   0.327   2.721  0.2153  0.1349  0.1187
  620SOL    HW1 1859   2.407   0.334   2.625  2.0506  0.1801  1.4388
  620SOL    HW2 1860   2.293   0.268   2.738 -0.0101  3.0786  2.1750
  621SOL     OW 1861   2.171   2.085   2.629  0.5930  0.2115  0.2899
  621SOL    HW1 1862   2.250   2.038   2.673 -0.1553 -0.0108  2.6134
  621SOL    HW2 1863   2.082   2.040   2.651 -0.2136  0.6045  0.7031
  622SOL     OW 1864   1.030   0.825   2.518  0.0445  0.1340  0.8007
  622SOL    HW1 1865   0.934   0.819   2.485 -0.3421 -0.9203  2.5251
  622SOL    HW2 1866   1.086   0.859   2.437 -2.3027  1.1786 -4.0817
  623SOL     OW 1867   0.852   1.123   2.236 -0.0177 -0.6974  0.0988
  623SOL    HW1 1868   0.850   1.083   2.332  2.6314 -0.3502 -1.4982
  623SOL    HW2 1869   0.796   1.073   2.168 -0.7695 -0.2845  0.8725
  624SOL     OW 1870   2.844   0.486   0.451  0.2601  0.2358  0.3756
  624SOL    HW1 1871   2.876   0.465   0.356  0.9888  0.3409  0.7716
  624SOL    HW2 1872   2.845   0.585   0.472 -0.8648 -1.9664 -0.0819
  625SOL     OW 1873   0.805   2.409   0.799  0.5169 -0.0178 -0.1618
  625SOL    HW1 1874   0.814   2.512   0.819 -0.2209  0.0958 -0.6827
  625SOL    HW2 1875   0.864   2.362   0.863 -0.1992 -0.6158  2.1341
  626SOL     OW 1876   2.208   0.800   2.549  0.4109 -0.0916 -0.0300
  626SOL    HW1 1877   2.163   0.760   2.627  0.9774  0.6980  1.0738
  626SOL    HW2 1878   2.138   0.861   2.503 -2.5673 -1.4808  1.5923
  627SOL     OW 1879   1.340   2.851   2.842  0.4892 -0.2415 -0.4158
  627SOL    HW1 1880   1.384   2.781   2.783 -3.5116  0.9915  1.2033
  627SOL    HW2 1881   1.302   2.819   2.928 -1.7580  0.5525 -3.6158
  628SOL     OW 1882   2.719   2.882   2.221  0.2248  0.4074 -0.1877
  628SOL    HW1 1883   2.633   2.877   2.271  4.2381  1.5986  0.0814
  628SOL    HW2 1884   2.727   2.976   2.179 -0.7206  2.3694 -1.0544
  629SOL     OW 1885   1.248   3.065   2.330  0.0882 -0.6406  0.1832
  629SOL    HW1 1886   1.264   3.033   2.425  0.0842 -0.0183 -2.8592
  629SOL    HW2 1887   1.225   0.033   2.326  0.4027 -1.3462 -0.2093
  630SOL     OW 1888   0.901   0.164   2.287 -0.1431 -0.4098  0.6138
  630SOL    HW1 1889   0.912   0.234   2.365  0.8347  2.7746  2.1399
  630SOL    HW2 1890   0.983   0.172   2.227  0.3031  0.0552 -0.1516
  631SOL     OW 1891   1.961   1.330   0.787 -0.1162 -0.6319  0.5082
  631SOL    HW1 1892   1.887   1.371   0.725 -2.3173  0.9076 -3.1377
  631SOL    HW2 1893   1.931   1.304   0.876  2.1110 -0.2183 -0.5036
  632SOL     OW 1894   2.516   0.244   1.660  0.0941  0.0663  0.0354
  632SOL    HW1 1895   2.458   0.303   1.723 -1.2434 -0.8570 -0.2343
  632SOL    HW2 1896   2.464   0.222   1.575 -0.2466 -1.0497 -0.9063
  633SOL     OW 1897   1.115   1.854   0.235 -0.3293 -0.0615 -0.3708
  633SOL    HW1 1898   1.191   1.838   0.168 -4.3470 -1.9977 -0.4677
  633SOL    HW2 1899   1.028   1.806   0.200 -3.4323 -3.8201 -2.2890
  634SOL     OW 1900   2.870   0.002   1.715 -0.1114 -0.3299  0.1839
  634SOL    HW1 1901   2.794   3.103   1.650  1.8828  0.7358 -3.6246
  634SOL    HW2 1902   2.908   0.089   1.674 -0.4073  1.5441  0.5708
  635SOL     OW 1903   1.546   0.428   0.918 -0.3336  0.4892 -0.5535
  635SOL    HW1 1904   1.613   0.502   0.943 -1.2567  2.1773 -1.0232
  635SOL    HW2 1905   1.585   0.361   0.850 -0.6619 -0.8037 -0.9791
  636SOL     OW 1906   0.743   1.207   3.031 -0.1114 -0.0887  0.8120
  636SOL    HW1 1907   0.679   1.132   3.060  0.8571 -2.0050  0.1457
  636SOL    HW2 1908   0.691   1.299   3.017 -0.6977  3.7202  2.4986
  637SOL     OW 1909   2.891   2.189   3.010 -0.0582  0.0420  0.0833
  637SOL    HW1 1910   2.868   2.150   2.917  0.0045 -0.6576 -1.7063
  637SOL    HW2 1911   2.989   2.172   3.028 -0.2163 -0.9136 -0.9464
  638SOL     OW 1912   1.408   2.462   2.397 -0.2003 -0.4515  0.1849
  638SOL    HW1 1913   1.492   2.416   2.363 -1.2651 -2.0506 -0.6201
  638SOL    HW2 1914   1.424   2.563   2.396 -1.0121  1.1040 -0.4607
  639SOL     OW 1915   1.729   1.840   0.739  0.4080 -0.1342 -0.1170
  639SOL    HW1 1916   1.638   1.857   0.783 -0.4082 -2.5996 -0.7657
  639SOL    HW2 1917   1.722   1.839   0.638 -1.6478 -2.0819  0.3747
  640SOL     OW 1918   2.304   2.784   0.382  0.4200  0.1790 -0.7672
  640SOL    HW1 1919   2.300   2.844   0.298 -2.3741 -1.3314 -0.6917
  640SOL    HW2 1920   2.394   2.738   0.392  0.1609 -0.3662 -0.8199
  641SOL     OW 1921   2.746   0.487   2.917  0.0230 -0.0133 -0.1518
  641SOL    HW1 1922   2.694   0.553   2.969  1.3471  1.2964  0.3349
  641SOL    HW2 1923   2.716   0.395   2.941 -2.4476 -0.3637  1.6419
  642SOL     OW 1924   0.344   0.577   1.164 -0.1115 -0.3302 -0.5524
  642SOL    HW1 1925   0.341   0.605   1.261 -0.7031 -0.4020 -0.8150
  642SOL    HW2 1926   0.369   0.478   1.157 -0.1397  1.0384  0.2962
  643SOL     OW 1927   0.686   1.420   2.547 -0.4502  0.2255  0.3238
  643SOL    HW1 1928   0.778   1.407   2.597  1.2469 -1.3165  2.0257
  643SOL    HW2 1929   0.704   1.411   2.447 -0.7172 -0.7487  0.1479
  644SOL     OW 1930   2.004   2.260   0.727 -0.3842  0.1331  0.0560
  644SOL    HW1 1931   2.085   2.202   0.709 -2.2709  1.6464  1.1555
  644SOL    HW2 1932   1.923   2.204   0.752  1.4756  2.4010 -1.3278
  645SOL     OW 1933   1.905   2.522   0.935  0.0797 -0.3257 -0.3723
  645SOL    HW1 1934   1.945   2.431   0.922  0.1699  0.3085 -2.2642
  645SOL    HW2 1935   1.829   2.540   0.872  1.6108  1.1831  0.0764
  646SOL     OW 1936   0.784   2.301   3.000 -0.2571 -0.5854  0.2567
  646SOL    HW1 1937   0.829   2.229   3.052  2.0052 -0.9059 -0.3943
  646SOL    HW2 1938   0.825   2.395   3.001  0.2431  0.5579  0.2693
  647SOL     OW 1939   0.945   2.546   1.599 -0.7310  0.5048  0.2519
  647SOL    HW1 1940   1.017   2.598   1.650 -0.9374 -2.9130 -0.2015
  647SOL    HW2 1941   0.914   2.460   1.654 -0.7659 -0.0791 -0.4217
  648SOL     OW 1942   1.494   0.361   1.184  0.2678  0.4376 -0.5096
  648SOL    HW1 1943   1.540   0.270   1.216 -0.6586 -5.5125  0.1842
  648SOL    HW2 1944   1.519   0.387   1.089 -3.0145  0.3057 -0.1563
  649SOL     OW 1945   1.426   2.170   0.083  0.8283  0.2725 -0.5214
  649SOL    HW1 1946   1.325   2.181   0.111 -1.5265 -0.0230 -0.4364
  649SOL    HW2 1947   1.487   2.233   0.134  2.2076 -0.3594 -2.8693
  650SOL     OW 1948   2.399   1.573   1.428  0.2111  0.3224  0.6865
  650SOL    HW1 1949   2.396   1.620   1.522 -1.6013  1.8349  2.3704
  650SOL    HW2 1950   2.310   1.585   1.376 -0.7708 -5.2941 -0.9442
  651SOL     OW 1951   1.686   2.762   0.048  0.5451  0.5422  0.6750
  651SOL    HW1 1952   1.648   2.851   0.073 -0.3556 -1.7431 -0.0222
  651SOL    HW2 1953   1.683   2.741   3.076 -4.0026 -1.2819 -4.3265
  652SOL     OW 1954   0.196   1.947   0.117  0.3434 -0.2901 -0.2954
  652SOL    HW1 1955   0.152   1.931   0.206  2.5569  0.4004 -4.5002
  652SOL    HW2 1956   0.286   1.994   0.132  1.1935  1.0762 -1.4849
  653SOL     OW 1957   3.012   2.995   0.966  0.4775 -0.0154  0.0218
  653SOL    HW1 1958   3.042   2.928   0.897 -0.0153 -0.1929 -2.1126
  653SOL    HW2 1959   2.932   3.045   0.927  0.1211  2.2192 -1.1633
  654SOL     OW 1960   2.942   2.864   1.836  0.4239  0.1720  0.5011
  654SOL    HW1 1961   3.039   2.867   1.877  1.3705  1.3560  2.8599
  654SOL    HW2 1962   2.904   2.961   1.830 -3.1577  2.2955 -2.6397
  655SOL     OW 1963   3.099   2.251   1.044 -0.4415  0.0392 -0.2490
  655SOL    HW1 1964   3.068   2.177   1.106 -1.1258 -1.1739 -2.2409
  655SOL    HW2 1965   0.071   2.268   1.057 -0.4883  0.6964  2.9039
  656SOL     OW 1966   0.037   2.761   2.402  0.1777 -0.1879 -0.4499
  656SOL    HW1 1967   3.097   2.758   2.326 -2.1261  0.1139 -0.6446
  656SOL    HW2 1968   3.117   2.739   2.491  0.8904  1.0377  0.9226
  657SOL     OW 1969   3.007   1.439   2.950  0.1394  0.0300  0.0224
  657SOL    HW1 1970   3.093   1.400   2.916 -1.2889 -0.3691  0.0344
  657SOL    HW2 1971   2.959   1.370   3.004  0.6207 -1.1023  0.6956
  658SOL     OW 1972   2.653   1.677   0.991 -0.1373  0.6747 -0.0685
  658SOL    HW1 1973   2.609   1.731   1.063 -0.5396  0.9804 -0.5973
  658SOL    HW2 1974   2.578   1.648   0.925 -0.5952 -1.9141  0.7125
  659SOL     OW 1975   1.688   0.274   0.749  0.4870 -0.0226 -0.1714
  659SOL    HW1 1976   1.698   0.197   0.820 -0.0885  0.0486 -1.8388
  659SOL    HW2 1977   1.618   0.253   0.676  0.3605  1.9939 -1.0571
  660SOL     OW 1978   1.527   1.367   2.986  0.0035  0.4053 -0.1431
  660SOL    HW1 1979   1.441   1.325   3.011 -0.5063 -0.6726 -0.6672
  660SOL    HW2 1980   1.518   1.466   2.977  0.6379 -0.0649  1.9350
  661SOL     OW 1981   0.220   2.295   1.143  0.3249  0.5164 -0.1942
  661SOL    HW1 1982   0.243   2.394   1.136 -2.7579  1.7797  0.4968
  661SOL    HW2 1983   0.201   2.266   1.239 -1.2248 -1.1470  1.4194
  662SOL     OW 1984   0.017   0.650   3.058 -0.0775 -0.2611  0.0348
  662SOL    HW1 1985   0.083   0.699   3.114 -2.0891 -0.1763  3.1079
  662SOL    HW2 1986   3.080   0.712   3.024  2.5400 -2.2964  0.9516
  663SOL     OW 1987   2.057   1.704   1.072  0.7425  0.0033  0.2654
  663SOL    HW1 1988   2.029   1.702   0.975 -0.6460 -1.3551  3.0250
  663SOL    HW2 1989   1.987   1.759   1.122  0.5454  0.3929  1.2366
  664SOL     OW 1990   0.977   1.457   1.180 -0.4156  1.0512  0.5520
  664SOL    HW1 1991   0.966   1.353   1.154 -2.2609 -1.4245 -0.4633
  664SOL    HW2 1992   1.072   1.479   1.213 -0.1717  0.7399  3.0556
  665SOL     OW 1993   1.787   2.647   2.482  0.3336 -0.2295  0.4856
  665SOL    HW1 1994   1.693   2.681   2.458  0.1363 -2.4525 -1.9154
  665SOL    HW2 1995   1.859   2.688   2.420 -0.6754  0.4040  1.3830
  666SOL     OW 1996   2.923   2.975   2.776  0.1718 -0.0264  0.5511
  666SOL    HW1 1997   2.920   2.949   2.870  1.0898 -0.6961 -4.5764
  666SOL    HW2 1998   2.943   3.075   2.755  1.1316  1.9188 -1.7794
  667SOL     OW 1999   2.420   1.505   2.199  0.6779  0.3922 -0.5350
  667SOL    HW1 2000   2.437   1.468   2.106 -0.6673  1.8235  1.7041
  667SOL    HW2 2001   2.455   1.601   2.202  1.7198 -1.8866 -1.9279
  668SOL     OW 2002   0.419   1.313   2.608 -0.4428 -0.4172  0.2587
  668SOL    HW1 2003   0.343   1.380   2.589 -2.2060 -1.2363 -1.8488
  668SOL    HW2 2004   0.507   1.358   2.587  0.2936  0.3372  1.0649
  669SOL     OW 2005   2.084   2.352   2.649  0.2011 -0.2588  0.4018
  669SOL    HW1 2006   2.131   2.263   2.640 -3.0644  0.5267 -1.6192
  669SOL    HW2 2007   2.095   2.388   2.742 -1.2846 -2.4617 -1.0565
  670SOL     OW 2008   2.330   1.103   2.006  0.1253 -0.2721 -0.3882
  670SOL    HW1 2009   2.313   1.150   2.097  0.3274 -0.1554 -0.4076
  670SOL    HW2 2010   2.336   1.170   1.927  0.6831 -0.5798  2.0770
  671SOL     OW 2011   2.622   1.182   0.320  0.2418  0.1891 -0.0066
  671SOL    HW1 2012   2.646   1.212   0.228 -2.3111 -0.8368  0.5199
  671SOL    HW2 2013   2.635   1.263   0.385 -0.4396 -0.0395  0.5273
  672SOL     OW 2014   2.507   0.953   2.231 -0.4024 -0.0439 -0.6122
  672SOL    HW1 2015   2.448   0.886   2.188  1.6862  2.7344  0.0765
  672SOL    HW2 2016   2.527   1.031   2.174 -1.2930 -0.8017 -0.2984
  673SOL     OW 2017   2.770   0.395   1.625 -0.1728 -0.5581 -0.5155
  673SOL    HW1 2018   2.778   0.409   1.728 -1.4895  1.0570  1.6731
  673SOL    HW2 2019   2.692   0.339   1.605  2.6343  2.1531  1.4075
  674SOL     OW 2020   1.940   1.703   1.424 -0.5780 -0.2727 -0.1222
  674SOL    HW1 2021   1.904   1.770   1.350 -0.3382  1.9335  1.5005
  674SOL    HW2 2022   1.897   1.723   1.516  0.1303 -2.0721 -0.0929
  675SOL     OW 2023   0.700   0.768   0.777 -0.4923  0.0123  0.0145
  675SOL    HW1 2024   0.645   0.717   0.849 -1.4432 -1.1401  0.9555
  675SOL    HW2 2025   0.740   0.705   0.706  3.2867 -0.3397 -3.3030
  676SOL     OW 2026   1.692   1.238   1.224 -0.5424  0.2300  0.3378
  676SOL    HW1 2027   1.615   1.272   1.279 -1.6077 -1.2308  1.3277
  676SOL    HW2 2028   1.758   1.179   1.281 -0.5617 -0.8696  1.4851
  677SOL     OW 2029   2.553   1.553   2.476 -0.0510 -0.4058 -0.0779
  677SOL    HW1 2030   2.491   1.481   2.436  0.7049 -1.1263 -1.2947
  677SOL    HW2 2031   2.498   1.640   2.483 -1.4599 -0.1342 -1.2720
  678SOL     OW 2032   2.880   1.722   0.804  0.1855 -0.5370  0.1994
  678SOL    HW1 2033   2.842   1.683   0.716 -0.4368 -0.8240 -0.1488
  678SOL    HW2 2034   2.806   1.727   0.875 -0.7136 -1.6643  4.3831
  679SOL     OW 2035   2.447   2.478   0.240 -0.5161 -0.5337  0.2071
  679SOL    HW1 2036   2.351   2.473   0.265  3.3916 -1.8485  2.0106
  679SOL    HW2 2037   2.480   2.575   0.268 -0.4519  2.3136  1.5988
  680SOL     OW 2038   2.893   2.043   1.663 -0.0177 -0.2869  0.2707
  680SOL    HW1 2039   2.933   1.957   1.631 -0.7453 -1.2228  1.1436
  680SOL    HW2 2040   2.961   2.098   1.712  0.0424  0.4384  0.2530
  681SOL     OW 2041   0.601   1.193   1.343  0.0095  0.3926  0.3630
  681SOL    HW1 2042   0.608   1.129   1.264 -2.8698  3.5068  2.8939
  681SOL    HW2 2043   0.639   1.152   1.427  0.4240  1.3792 -1.5101
  682SOL     OW 2044   1.641   2.539   0.837  0.0724  0.1240 -0.7148
  682SOL    HW1 2045   1.594   2.622   0.874 -0.2454 -2.3991 -1.8220
  682SOL    HW2 2046   1.586   2.500   0.767  2.5911 -1.9613  1.3600
  683SOL     OW 2047   2.662   1.407   0.466  0.1205 -0.0678  0.3395
  683SOL    HW1 2048   2.660   1.381   0.567 -0.2908  0.3357  0.0014
  683SOL    HW2 2049   2.600   1.485   0.450 -0.9833 -2.5547  1.6170
  684SOL     OW 2050   0.613   2.031   2.111 -0.1091  0.6421 -0.7203
  684SOL    HW1 2051   0.555   2.088   2.169  0.1719  0.8623 -2.8425
  684SOL    HW2 2052   0.607   1.930   2.132 -2.9365 -1.7468 -0.8626
  685SOL     OW 2053   2.004   1.460   0.002 -0.2394  0.1991 -0.6825
  685SOL    HW1 2054   2.070   1.390   0.036  0.5194 -0.1565  1.8773
  685SOL    HW2 2055   1.957   1.430   3.049  1.8671  0.1520 -2.5236
  686SOL     OW 2056   0.375   0.622   0.724 -0.5854  0.2645  0.0065
  686SOL    HW1 2057   0.307   0.547   0.717 -2.2923 -0.4378 -0.1852
  686SOL    HW2 2058   0.427   0.613   0.810 -3.3133  0.7393  0.4763
  687SOL     OW 2059   1.132   2.536   2.665 -0.1995  0.0702  0.0699
  687SOL    HW1 2060   1.164   2.531   2.760 -0.3661  4.6461 -1.0713
  687SOL    HW2 2061   1.146   2.452   2.610  0.3553  1.0395  1.9698
  688SOL     OW 2062   2.434   1.707   1.659 -0.0038 -0.0687 -0.0358
  688SOL    HW1 2063   2.531   1.674   1.680 -0.6296  1.0635 -1.9196
  688SOL    HW2 2064   2.444   1.804   1.625 -0.3324  1.0716 -0.8037
  689SOL     OW 2065   2.493   0.590   2.067 -0.1358  0.3070 -0.1863
  689SOL    HW1 2066   2.593   0.597   2.097  1.8093  0.3563  0.4134
  689SOL    HW2 2067   2.446   0.677   2.056 -1.2461 -0.0667  1.7358
  690SOL     OW 2068   2.113   0.907   1.622 -0.3416 -0.6054  0.0215
  690SOL    HW1 2069   2.070   0.867   1.536 -3.1151  2.6760 -4.8010
  690SOL    HW2 2070   2.152   1.002   1.606  1.2914  2.3108 -0.6066
  691SOL     OW 2071   1.106   2.036   1.677 -0.0300 -0.6392  0.4015
  691SOL    HW1 2072   1.048   1.977   1.736 -1.0033 -0.0019  0.2706
  691SOL    HW2 2073   1.049   2.100   1.621 -0.0943 -0.1576 -0.6644
  692SOL     OW 2074   1.941   0.003   1.431 -0.1696  0.4714 -0.2736
  692SOL    HW1 2075   1.917   0.043   1.519 -1.1660 -0.9437 -4.8570
  692SOL    HW2 2076   1.921   3.032   1.430  2.8126 -1.0292 -1.3081
  693SOL     OW 2077   0.816   1.103   2.511  0.6318  0.3959 -0.2697
  693SOL    HW1 2078   0.718   1.135   2.509 -1.5840  0.6514  2.5697
  693SOL    HW2 2079   0.823   1.008   2.551  0.1335  3.5745 -1.7460
  694SOL     OW 2080   1.762   2.526   1.473 -0.1055 -0.3122 -0.5868
  694SOL    HW1 2081   1.727   2.584   1.395 -0.0256  2.7766 -0.5174
  694SOL    HW2 2082   1.855   2.553   1.499 -0.2993  0.1054 -0.4376
  695SOL     OW 2083   1.640   1.477   2.103  0.6760  0.3183 -0.5142
  695SOL    HW1 2084   1.562   1.462   2.033 -1.0932  0.0153 -2.1738
  695SOL    HW2 2085   1.631   1.563   2.158  1.8867 -1.6992  1.0075
  696SOL     OW 2086   1.865   0.138   1.181  0.6835 -0.4240  0.4393
  696SOL    HW1 2087   1.935   0.140   1.108 -0.9652  1.3304  1.5605
  696SOL    HW2 2088   1.896   0.074   1.255 -0.2746  1.0708 -0.8920
  697SOL     OW 2089   1.306   0.136   1.150 -0.1088 -0.1372  0.1748
  697SOL    HW1 2090   1.205   0.134   1.140 -3.7266 -0.7426 -0.2076
  697SOL    HW2 2091   1.345   0.224   1.117  1.6637  2.5698 -1.9871
  698SOL     OW 2092   1.817   1.291   2.029  0.2391 -0.0342  0.2068
  698SOL    HW1 2093   1.828   1.293   1.928  0.7710  1.0435  1.9140
  698SOL    HW2 2094   1.749   1.365   2.053 -0.9172 -0.0861 -0.4301
  699SOL     OW 2095   1.397   1.267   1.324  0.2825 -0.6010 -0.2532
  699SOL    HW1 2096   1.341   1.215   1.394 -1.0807 -2.4721  0.2335
  699SOL    HW2 2097   1.380   1.228   1.228  0.4566  1.5998 -2.3124
  700SOL     OW 2098   1.496   0.208   0.267  0.0074  0.3540 -0.0966
  700SOL    HW1 2099   1.449   0.299   0.257  0.0388  0.9007 -1.3751
  700SOL    HW2 2100   1.462   0.146   0.195  2.7129 -0.5869  0.6476
  701SOL     OW 2101   0.381   0.039   1.909  0.2909  0.4390 -0.2854
  701SOL    HW1 2102   0.412   0.128   1.948 -3.8114 -0.5512  2.3167
  701SOL    HW2 2103   0.421   0.023   1.819  0.6291 -0.6604 -2.1696
  702SOL     OW 2104   1.365   2.835   0.468  0.1564 -0.1685  0.3476
  702SOL    HW1 2105   1.415   2.926   0.487  1.2612  1.0382  0.4210
  702SOL    HW2 2106   1.408   2.800   0.385 -0.0121 -0.9032  1.0428
  703SOL     OW 2107   2.611   0.189   1.969  0.7243 -0.2450  0.2061
  703SOL    HW1 2108   2.538   0.235   2.023 -0.0700 -2.2835 -1.0239
  703SOL    HW2 2109   2.577   0.114   1.907 -3.8266 -0.4683 -1.4201
  704SOL     OW 2110   1.029   2.361   0.958 -0.2847 -0.7097 -0.3266
  704SOL    HW1 2111   1.112   2.425   0.959 -1.6762 -0.5831 -0.1816
  704SOL    HW2 2112   0.968   2.370   1.040  0.0422  0.3038 -0.7326
  705SOL     OW 2113   0.208   1.025   2.225 -0.3743 -0.0589 -0.8785
  705SOL    HW1 2114   0.242   0.934   2.260  1.8165  0.7977  3.7512
  705SOL    HW2 2115   0.123   1.042   2.267  2.2334 -3.9246 -1.4104
  706SOL     OW 2116   1.519   0.185   0.541 -0.2215  0.0896  0.1847
  706SOL    HW1 2117   1.434   0.236   0.578 -1.7549  0.3673  1.8029
  706SOL    HW2 2118   1.523   0.197   0.438  1.1815 -0.4903 -2.3809
  707SOL     OW 2119   1.206   2.113   2.610 -0.0047 -0.1573  0.3640
  707SOL    HW1 2120   1.129   2.056   2.650  1.8328 -0.9802  0.1857
  707SOL    HW2 2121   1.253   2.057   2.539  0.2172 -1.0450  1.5354
  708SOL     OW 2122   2.860   2.191   1.408  0.4583  0.2775 -0.1235
  708SOL    HW1 2123   2.802   2.274   1.422  0.8893  2.4918  0.4214
  708SOL    HW2 2124   2.874   2.140   1.493 -0.4327 -1.7901  3.0158
  709SOL     OW 2125   1.963   0.364   1.827 -0.9692  0.1561 -0.2477
  709SOL    HW1 2126   2.049   0.370   1.888 -1.7107  0.5806  0.2558
  709SOL    HW2 2127   1.914   0.454   1.830  0.3728 -2.0943 -0.3336
  710SOL     OW 2128   2.868   0.017   1.368  0.0695  0.5429  0.0286
  710SOL    HW1 2129   2.829   0.102   1.320 -0.5965  0.2630  0.7247
  710SOL    HW2 2130   2.815   3.062   1.353 -0.3644 -0.6088  0.5969
  711SOL     OW 2131   0.394   2.477   0.705  0.4745 -0.7623 -0.8792
  711SOL    HW1 2132   0.463   2.425   0.759  2.3574  2.0953 -2.0395
  711SOL    HW2 2133   0.300   2.442   0.719  3.3643 -0.1425  0.0134
  712SOL     OW 2134   0.179   2.039   2.545  0.4227 -0.2167 -0.0330
  712SOL    HW1 2135   0.254   2.109   2.526 -0.0499 -1.9568 -2.1039
  712SOL    HW2 2136   0.222   1.954   2.572 -0.1003  0.2158 -1.4166
  713SOL     OW 2137   1.659   0.697   0.243  0.2860 -0.1282  0.0938
  713SOL    HW1 2138   1.664   0.598   0.219  0.2700  1.0134 -0.6100
  713SOL    HW2 2139   1.672   0.760   0.163 -1.0087 -1.1049 -0.5895
  714SOL     OW 2140   1.525   1.887   0.230 -0.0782 -0.4017  0.4587
  714SOL    HW1 2141   1.519   1.985   0.252  0.6201  1.4422  0.5645
  714SOL    HW2 2142   1.458   1.871   0.158  3.4012 -0.3316 -1.0380
  715SOL     OW 2143   2.336   0.131   0.553  0.0641 -0.7301  0.2956
  715SOL    HW1 2144   2.361   0.227   0.543  0.4123 -2.7649 -0.3433
  715SOL    HW2 2145   2.364   0.097   0.642 -0.3506 -1.5447 -3.8959
  716SOL     OW 2146   0.591   0.660   2.193  0.2577 -0.5979 -0.1286
  716SOL    HW1 2147   0.542   0.644   2.279  3.3372 -1.2221 -0.5223
  716SOL    HW2 2148   0.529   0.709   2.131  0.9394 -2.8460  1.7496
  717SOL     OW 2149   0.125   0.496   2.868 -0.5560 -0.5432 -0.0729
  717SOL    HW1 2150   0.104   0.531   2.962  1.5627 -1.7363  2.3396
  717SOL    HW2 2151   0.091   0.559   2.798  3.0042  0.3968  1.7673
  718SOL     OW 2152   1.086   0.873   0.218 -0.0034  0.4543 -0.0699
  718SOL    HW1 2153   1.158   0.897   0.151  1.1211  2.1235 -2.0344
  718SOL    HW2 2154   1.119   0.853   0.315 -1.0528  1.3216  0.2654
  719SOL     OW 2155   2.583   2.116   2.972  0.3739  0.3200  0.1225
  719SOL    HW1 2156   2.577   2.035   2.908  0.6003 -1.2729 -1.0259
  719SOL    HW2 2157   2.679   2.149   2.993  1.3779 -0.7444 -1.6042
  720SOL     OW 2158   1.436   0.944   1.214  0.1065 -0.2869 -0.5575
  720SOL    HW1 2159   1.403   1.023   1.162  2.0346 -0.6550 -0.6682
  720SOL    HW2 2160   1.533   0.923   1.188  0.0197 -0.8289 -0.4734
  721SOL     OW 2161   2.846   0.768   0.565 -0.1937 -0.1697  0.4581
  721SOL    HW1 2162   2.747   0.782   0.592 -0.8476  2.1436 -1.9688
  721SOL    HW2 2163   2.899   0.853   0.590  0.9433 -0.0790 -0.1125
  722SOL     OW 2164   1.009   1.956   2.749 -0.3864 -0.7026  0.0971
  722SOL    HW1 2165   1.030   1.976   2.844 -1.1625  1.5235 -2.1112
  722SOL    HW2 2166   0.912   1.986   2.735  0.1561 -1.3855  0.2710
  723SOL     OW 2167   0.614   0.935   0.408  0.7301 -0.0330 -0.7800
  723SOL    HW1 2168   0.672   1.006   0.453  0.2927  0.0876 -0.1854
  723SOL    HW2 2169   0.522   0.972   0.380  0.1488  2.0249  1.1203
  724SOL     OW 2170   0.918   1.860   1.803  0.2493  0.5272 -0.3603
  724SOL    HW1 2171   0.885   1.795   1.739 -1.1987  0.6482  0.9077
  724SOL    HW2 2172   0.830   1.897   1.847 -0.5449 -0.5281 -1.3470
  725SOL     OW 2173   0.039   1.091   1.362 -0.5477 -0.2186  0.0463
  725SOL    HW1 2174   0.120   1.053   1.314  1.8015  1.8596 -0.3183
  725SOL    HW2 2175   0.062   1.123   1.456 -3.3590  1.1357  3.6450
  726SOL     OW 2176   1.788   0.294   0.407 -0.1150 -0.0359 -0.6498
  726SOL    HW1 2177   1.720   0.242   0.469 -0.6801 -0.4696  0.3012
  726SOL    HW2 2178   1.866   0.335   0.458  1.8855 -1.6281 -0.3657
  727SOL     OW 2179   1.455   1.037   2.252 -0.5925  0.0832  0.0681
  727SOL    HW1 2180   1.475   1.138   2.238 -1.8424  2.1824 -0.2407
  727SOL    HW2 2181   1.488   0.979   2.171  0.2693 -2.7204 -4.3605
  728SOL     OW 2182   1.472   2.484   1.309 -0.1590  0.4087 -0.5812
  728SOL    HW1 2183   1.476   2.423   1.393  1.0576  0.5458  0.0893
  728SOL    HW2 2184   1.564   2.495   1.268 -1.2476 -0.2997 -1.1539
  729SOL     OW 2185   1.229   0.405   1.497 -0.3015  0.3136  0.0748
  729SOL    HW1 2186   1.222   0.475   1.426 -1.2179 -0.7283 -0.9515
  729SOL    HW2 2187   1.317   0.362   1.493 -1.3874  0.9034 -0.6942
  730SOL     OW 2188   0.667   1.958   1.857 -0.0020 -0.0967  0.2725
  730SOL    HW1 2189   0.579   1.943   1.807 -0.9677 -2.7902 -2.1027
  730SOL    HW2 2190   0.651   2.008   1.938 -1.1014 -0.7678 -2.2086
  731SOL     OW 2191   0.292   0.372   0.358 -0.4961 -0.0956  0.0157
  731SOL    HW1 2192   0.342   0.377   0.444  1.7137  1.7459  0.2224
  731SOL    HW2 2193   0.330   0.297   0.297  0.5642  0.4256 -0.5878
  732SOL     OW 2194   0.746   0.512   2.837 -0.2525 -0.6891  0.7641
  732SOL    HW1 2195   0.757   0.410   2.833 -1.4253  2.9208 -3.7657
  732SOL    HW2 2196   0.667   0.535   2.893  2.5274  1.7131 -1.2023
  733SOL     OW 2197   1.436   2.113   1.342  0.3069 -0.5868 -0.2446
  733SOL    HW1 2198   1.367   2.045   1.370  0.3846  0.4503 -1.2095
  733SOL    HW2 2199   1.496   2.137   1.412  0.8808  2.2461 -1.6614
  734SOL     OW 2200   3.028   2.733   2.637 -0.1583 -0.1566 -0.1840
  734SOL    HW1 2201   2.999   2.653   2.693 -1.9595  3.8221  0.0974
  734SOL    HW2 2202   2.982   2.818   2.672 -1.1625 -0.4386  2.1830
  735SOL     OW 2203   0.841   2.680   0.835 -0.4356  0.3922  0.1142
  735SOL    HW1 2204   0.926   2.719   0.868 -3.2002 -0.5639  1.5442
  735SOL    HW2 2205   0.830   2.694   0.737  0.3473  1.9679  5.6348
  736SOL     OW 2206   1.619   0.938   2.724 -0.1606  0.7773 -0.1664
  736SOL    HW1 2207   1.543   0.947   2.662  3.0555  0.2626  2.2945
  736SOL    HW2 2208   1.602   0.997   2.807 -1.0919  0.6771 -1.8267
  737SOL     OW 2209   3.088   0.660   0.422 -0.2051 -0.0218 -0.3845
  737SOL    HW1 2210   3.104   0.554   0.411 -0.9196 -4.6955 -1.5661
  737SOL    HW2 2211   3.022   0.684   0.492 -1.4667 -0.1581  0.3276
  738SOL     OW 2212   2.948   2.416   1.641 -0.0000 -0.2532 -0.0873
  738SOL    HW1 2213   2.976   2.374   1.550 -0.1204 -0.9254 -3.5631
  738SOL    HW2 2214   2.993   2.514   1.656  2.4315  3.2510  4.2698
  739SOL     OW 2215   1.724   2.957   0.606  0.1778  0.0950  0.2127
  739SOL    HW1 2216   1.655   2.927   0.673  1.1895  0.1903  0.1971
  739SOL    HW2 2217   1.770   3.044   0.635 -0.5802  0.1578 -0.8857
  740SOL     OW 2218   1.564   2.949   1.267  0.2534 -0.1846 -0.6157
  740SOL    HW1 2219   1.653   2.924   1.313  1.7505  0.9141 -0.0799
  740SOL    HW2 2220   1.493   2.879   1.288  0.8288  1.2321  0.4843
  741SOL     OW 2221   2.096   0.376   0.811  0.0761 -0.7711  0.2395
  741SOL    HW1 2222   2.053   0.469   0.828  1.5479  0.0841 -2.3558
  741SOL    HW2 2223   2.187   0.393   0.766  2.3331  0.7990  0.5069
  742SOL     OW 2224   1.569   2.070   2.199 -0.0478  0.4580  0.5426
  742SOL    HW1 2225   1.624   1.984   2.193  1.1778 -1.9606 -0.7033
  742SOL    HW2 2226   1.616   2.147   2.154 -2.3515  1.0804  2.1805
  743SOL     OW 2227   2.299   0.472   1.718 -0.1359 -0.1136 -0.4352
  743SOL    HW1 2228   2.252   0.515   1.795 -2.2475 -0.5220  0.5553
  743SOL    HW2 2229   2.389   0.509   1.698 -2.9534 -0.3329  0.7747
  744SOL     OW 2230   2.468   0.564   0.972  0.4806 -0.3926 -0.3074
  744SOL    HW1 2231   2.486   0.666   0.980 -0.5229  0.2492  0.6915
  744SOL    HW2 2232   2.396   0.543   1.039  1.4696 -0.9792 -0.8195
  745SOL     OW 2233   2.158   1.635   1.655 -0.0239  0.3028 -0.0185
  745SOL    HW1 2234   2.118   1.704   1.590 -0.3707 -0.0376 -0.3335
  745SOL    HW2 2235   2.259   1.664   1.670  3.9934  4.1143 -2.8029
  746SOL     OW 2236   1.038   1.524   0.896 -0.1471 -0.2956  0.5441
  746SOL    HW1 2237   0.957   1.482   0.846  0.9232 -1.6574 -2.1517
  746SOL    HW2 2238   1.031   1.498   0.993  3.9229 -0.4827 -0.4306
  747SOL     OW 2239   1.849   1.265   1.019  0.3735 -0.2427  0.0338
  747SOL    HW1 2240   1.771   1.261   1.088  1.4051 -0.8353  0.7252
  747SOL    HW2 2241   1.922   1.198   1.045 -0.1470  1.9967  0.1719
  748SOL     OW 2242   0.093   3.048   0.261 -0.0551  0.0005  0.1103
  748SOL    HW1 2243   0.113   3.121   0.195  5.0209 -0.8127 -1.2047
  748SOL    HW2 2244   0.150   2.963   0.244  0.2224  0.4378  0.0042
  749SOL     OW 2245   0.415   0.344   2.285  0.3122 -0.7268  0.1864
  749SOL    HW1 2246   0.450   0.429   2.327  0.0942  0.1897 -1.2670
  749SOL    HW2 2247   0.318   0.352   2.250  1.2424  3.2906 -1.6736
  750SOL     OW 2248   1.830   3.021   1.768 -0.0653 -0.5159  0.1727
  750SOL    HW1 2249   1.829   3.125   1.751 -0.9865  0.1735 -0.4069
  750SOL    HW2 2250   1.753   2.984   1.712  0.2715 -1.5868 -1.4365
  751SOL     OW 2251   2.922   0.309   0.645  0.0662  0.4680 -0.4845
  751SOL    HW1 2252   2.880   0.356   0.568 -0.0268 -0.2694  0.3619
  751SOL    HW2 2253   2.883   0.346   0.735  1.1424  0.7645  2.4943
  752SOL     OW 2254   0.204   2.973   1.073  0.0348  0.2517 -0.1907
  752SOL    HW1 2255   0.221   2.873   1.073 -1.6870  0.4540 -0.9508
  752SOL    HW2 2256   0.106   2.992   1.088  0.1135 -1.0764  1.1519
  753SOL     OW 2257   0.999   0.158   1.881 -0.6093  0.3731  0.3340
  753SOL    HW1 2258   1.055   0.085   1.924 -0.1753 -0.3351  0.1800
  753SOL    HW2 2259   1.039   0.186   1.789  1.3446  1.6638 -0.9430
  754SOL     OW 2260   1.049   2.685   1.993  0.5928  0.4619  0.5096
  754SOL    HW1 2261   1.107   2.672   2.070 -0.3938 -0.1963 -1.9152
  754SOL    HW2 2262   0.967   2.741   2.015  1.2204 -2.5275 -2.2521
  755SOL     OW 2263   2.532   1.089   0.602 -0.8100  0.5037  0.1699
  755SOL    HW1 2264   2.556   1.163   0.667 -1.9659 -2.0947 -0.4807
  755SOL    HW2 2265   2.559   1.111   0.504  1.2676 -0.1760 -1.7318
  756SOL     OW 2266   1.939   1.975   2.717  0.3455  0.2448  0.1977
  756SOL    HW1 2267   1.891   2.035   2.781  1.8558 -3.5819  1.7219
  756SOL    HW2 2268   1.948   1.887   2.758 -0.4239  1.5134  0.3544
  757SOL     OW 2269   2.071   3.095   0.792 -0.2631 -0.2716  0.3368
  757SOL    HW1 2270   2.124   3.030   0.729 -0.1058  0.4680 -2.6462
  757SOL    HW2 2271   1.978   3.123   0.761  2.6453  0.7228 -0.8648
  758SOL     OW 2272   1.317   2.719   0.815  0.1858  0.4802 -0.0295
  758SOL    HW1 2273   1.260   2.775   0.755 -1.7453 -4.7815  1.2945
  758SOL    HW2 2274   1.278   2.621   0.830 -0.1816 -4.5210  0.9803
  759SOL     OW 2275   2.569   0.370   1.317  0.1676  0.2320 -0.3158
  759SOL    HW1 2276   2.514   0.441   1.273 -0.7886 -0.7973 -1.5317
  759SOL    HW2 2277   2.510   0.310   1.375  2.2859  1.4262 -5.0445
  760SOL     OW 2278   2.259   1.131   1.434 -0.0458 -0.4252  0.2157
  760SOL    HW1 2279   2.303   1.091   1.350  0.1010  3.7699  1.7704
  760SOL    HW2 2280   2.332   1.188   1.476  1.9711 -3.4957 -0.0314
  761SOL     OW 2281   0.618   1.038   0.785  0.2210 -0.1956 -0.2242
  761SOL    HW1 2282   0.515   1.058   0.789  3.0986 -0.7049  2.8635
  761SOL    HW2 2283   0.638   0.942   0.764 -0.6160 -0.5649 -1.5582
  762SOL     OW 2284   2.169   1.618   1.286 -0.3496  0.3591 -0.1275
  762SOL    HW1 2285   2.138   1.625   1.187  0.4157 -2.5032 -0.5468
  762SOL    HW2 2286   2.088   1.634   1.349 -1.4987 -3.0913  2.1632
  763SOL     OW 2287   1.243   1.616   1.760 -0.5863  0.5142 -0.0162
  763SOL    HW1 2288   1.255   1.643   1.661  1.0643 -0.8084 -2.8825
  763SOL    HW2 2289   1.203   1.684   1.815  1.4174 -3.5483 -3.0207
  764SOL     OW 2290   3.017   1.974   2.130  0.2266 -0.0058 -0.3117
  764SOL    HW1 2291   2.933   2.009   2.088  0.2260 -1.6468 -0.3179
  764SOL    HW2 2292   3.035   2.018   2.222  0.2835  0.4057 -1.5990
  765SOL     OW 2293   1.218   2.470   1.180  0.1905  0.1668 -0.2070
  765SOL    HW1 2294   1.137   2.428   1.231 -2.1167  2.5557  1.5988
  765SOL    HW2 2295   1.302   2.464   1.237  1.3940 -1.9004  1.2186
  766SOL     OW 2296   0.286   2.472   2.554 -0.1164 -0.3937  0.1145
  766SOL    HW1 2297   0.307   2.541   2.621 -1.2350  0.3268  1.4075
  766SOL    HW2 2298   0.265   2.518   2.469  2.7968  0.6124  1.5703
  767SOL     OW 2299   1.423   0.985   2.524  0.1144  0.1461 -0.5042
  767SOL    HW1 2300   1.331   0.945   2.507 -0.6508  1.4274  2.6690
  767SOL    HW2 2301   1.465   1.002   2.432 -1.2481  0.3270  2.1169
  768SOL     OW 2302   1.359   2.673   3.074 -0.0022  0.2628  0.4332
  768SOL    HW1 2303   1.353   2.721   0.030  0.7409  0.6433 -3.3326
  768SOL    HW2 2304   1.448   2.622   3.059 -0.5240  1.7536 -2.4294
  769SOL     OW 2305   3.085   2.772   1.438 -0.5938 -0.5050 -0.1562
  769SOL    HW1 2306   3.024   2.799   1.368  0.4769 -2.2672  3.9723
  769SOL    HW2 2307   0.042   2.729   1.404  2.1102 -0.6834  0.6037
  770SOL     OW 2308   1.020   0.275   2.822  0.3995 -0.4077 -0.3499
  770SOL    HW1 2309   0.918   0.259   2.842 -1.1707 -1.6422 -0.7492
  770SOL    HW2 2310   1.061   0.360   2.867  3.6071  0.8902 -0.4317
  771SOL     OW 2311   0.399   0.099   2.367  0.0393  0.6452  0.3608
  771SOL    HW1 2312   0.333   0.034   2.327  0.8705  0.7549  1.0181
  771SOL    HW2 2313   0.388   0.199   2.337 -0.4924  3.1399  1.6156
  772SOL     OW 2314   2.517   3.088   1.864 -0.0008 -0.1423  0.2323
  772SOL    HW1 2315   2.554   3.081   1.767  0.2409 -1.5224  1.2887
  772SOL    HW2 2316   2.509   2.992   1.899  1.9436  0.0112  1.1039
  773SOL     OW 2317   0.870   2.338   1.763  0.6256 -0.4571 -0.6174
  773SOL    HW1 2318   0.904   2.317   1.853 -1.3873  0.4374  0.3235
  773SOL    HW2 2319   0.780   2.373   1.772  3.3852  0.8886  1.4987
  774SOL     OW 2320   1.066   0.541   1.889  0.5447  0.3278 -0.1922
  774SOL    HW1 2321   1.164   0.565   1.901  3.0938 -2.4001  2.2690
  774SOL    HW2 2322   1.034   0.478   1.960 -0.2431  0.4006 -1.1792
  775SOL     OW 2323   2.213   2.922   2.826 -0.5599  0.2524  0.2702
  775SOL    HW1 2324   2.143   2.973   2.881  0.0280 -1.7429  1.8421
  775SOL    HW2 2325   2.279   2.980   2.778  0.6195 -2.0872 -3.5991
  776SOL     OW 2326   2.081   0.546   2.165 -0.4019  0.3964 -0.2022
  776SOL    HW1 2327   2.024   0.631   2.157 -0.4587 -0.3049 -1.2440
  776SOL    HW2 2328   2.122   0.529   2.068 -2.5621 -0.0001 -3.2117
  777SOL     OW 2329   2.440   1.037   2.667 -0.4720 -0.3135  0.5689
  777SOL    HW1 2330   2.525   1.096   2.670  0.6835  1.9093  0.8523
  777SOL    HW2 2331   2.373   1.087   2.612  0.0820  1.5878 -0.4449
  778SOL     OW 2332   1.866   0.742   2.098  0.2851  0.0890  0.1128
  778SOL    HW1 2333   1.868   0.752   1.999  0.4072  1.6196 -0.2401
  778SOL    HW2 2334   1.768   0.713   2.106  1.8359 -0.2735 -1.6726
  779SOL     OW 2335   0.105   0.136   0.114  0.0090  0.6280  0.2599
  779SOL    HW1 2336   0.052   0.209   0.159 -0.1933  1.0034  2.2186
  779SOL    HW2 2337   0.083   0.126   0.016  1.4551  0.0969 -0.5538
  780SOL     OW 2338   2.392   0.454   2.967 -0.2301  0.1232  0.2455
  780SOL    HW1 2339   2.428   0.387   2.898 -2.8657  2.1329  2.7165
  780SOL    HW2 2340   2.327   0.519   2.923 -0.6777  0.0495  0.1799
  781SOL     OW 2341   0.284   2.748   1.612  0.1558  0.5419  0.0172
  781SOL    HW1 2342   0.229   2.834   1.609  0.2412  0.5106 -1.9199
  781SOL    HW2 2343   0.276   2.702   1.519  1.4545  2.3048 -0.4932
  782SOL     OW 2344   2.151   2.468   0.219  0.7030 -0.0051  0.3387
  782SOL    HW1 2345   2.080   2.501   0.287 -0.7258  0.8043  2.1743
  782SOL    HW2 2346   2.144   2.527   0.132 -0.1581 -0.7794 -0.5238
  783SOL     OW 2347   0.774   1.480   1.672  0.2921 -0.3485 -0.2468
  783SOL    HW1 2348   0.771   1.473   1.569  1.3286 -1.9845  1.2568
  783SOL    HW2 2349   0.720   1.404   1.712  1.2880 -0.6998 -1.5070
  784SOL     OW 2350   1.559   0.897   2.040 -0.0929 -0.5884  0.1501
  784SOL    HW1 2351   1.649   0.949   2.038  2.9220  2.2839  1.0682
  784SOL    HW2 2352   1.567   0.795   2.052 -2.1188 -1.3281 -1.3990
  785SOL     OW 2353   2.666   0.202   0.933 -0.2756 -0.4273  0.3817
  785SOL    HW1 2354   2.565   0.183   0.919 -0.1089 -1.1638 -0.9922
  785SOL    HW2 2355   2.727   0.125   0.905  0.3930 -2.2768 -2.6121
  786SOL     OW 2356   1.401   2.729   1.409  0.0497 -0.3071 -0.2442
  786SOL    HW1 2357   1.457   2.718   1.492 -0.8675 -1.5781 -1.1619
  786SOL    HW2 2358   1.426   2.659   1.338  4.1097 -1.8151  2.6903
  787SOL     OW 2359   1.478   0.076   1.352 -0.3960 -0.3257  0.1579
  787SOL    HW1 2360   1.394   0.108   1.297 -3.1326  2.6547 -0.3731
  787SOL    HW2 2361   1.527   3.125   1.317  0.7154 -1.2158  0.0017
  788SOL     OW 2362   3.003   1.161   0.168  0.5244  0.5849  0.2472
  788SOL    HW1 2363   3.054   1.087   0.112  2.4436 -0.1027 -3.4127
  788SOL    HW2 2364   2.973   1.127   0.255  0.6859  0.3808 -2.0923
  789SOL     OW 2365   0.421   1.342   1.958  0.6072 -0.0578 -0.5168
  789SOL    HW1 2366   0.483   1.365   2.037  0.2833 -0.3555  0.0830
  789SOL    HW2 2367   0.393   1.429   1.909  0.8232 -0.0453 -2.1713
  790SOL     OW 2368   0.283   0.697   2.559 -0.3057  0.0952 -0.0486
  790SOL    HW1 2369   0.334   0.726   2.647 -1.6614  2.8046  3.8386
  790SOL    HW2 2370   0.191   0.658   2.586 -0.8724 -1.0738 -0.2906
  791SOL     OW 2371   2.102   0.871   0.576 -0.6258  0.4795 -0.5442
  791SOL    HW1 2372   2.012   0.869   0.525  0.6755  0.7647  1.0782
  791SOL    HW2 2373   2.121   0.973   0.592 -0.2093  1.6827  0.2854
  792SOL     OW 2374   1.164   2.873   1.416 -0.6521  0.3056 -0.0429
  792SOL    HW1 2375   1.095   2.819   1.375  1.7620  1.6791  0.6225
  792SOL    HW2 2376   1.258   2.825   1.425  0.9626 -0.2210  0.5107
  793SOL     OW 2377   0.395   3.113   1.214 -0.2522 -0.0811 -0.3089
  793SOL    HW1 2378   0.323   3.075   1.154  2.7954  0.0503 -0.5866
  793SOL    HW2 2379   0.365   0.071   1.262 -3.3242 -0.2954  0.7518
  794SOL     OW 2380   0.309   0.788   2.306  0.3267 -0.4366 -0.2814
  794SOL    HW1 2381   0.302   0.758   2.401  2.5192  1.2872 -2.8434
  794SOL    HW2 2382   0.269   0.728   2.239  1.2454  3.8959 -1.2322
  795SOL     OW 2383   0.503   2.441   2.765  0.3299  0.5326 -0.5549
  795SOL    HW1 2384   0.545   2.350   2.752 -2.7596  2.7097 -1.8329
  795SOL    HW2 2385   0.572   2.517   2.760 -0.4859 -1.2553 -2.0557
  796SOL     OW 2386   2.216   0.574   2.401 -0.2350 -0.7159  0.1544
  796SOL    HW1 2387   2.228   0.665   2.448  0.5818 -0.3979  0.4096
  796SOL    HW2 2388   2.163   0.588   2.319  1.2708 -0.2138  0.3517
  797SOL     OW 2389   2.443   2.549   2.569 -0.0192 -0.1920 -0.6110
  797SOL    HW1 2390   2.542   2.565   2.580 -1.0179 -0.1021  1.1462
  797SOL    HW2 2391   2.394   2.639   2.590  0.8173  0.9380  0.5086
  798SOL     OW 2392   0.287   0.420   1.804  0.0088  0.3260 -0.0984
  798SOL    HW1 2393   0.348   0.352   1.846  1.4532 -2.0987 -0.5860
  798SOL    HW2 2394   0.193   0.387   1.789 -0.1364 -0.9254  1.0955
  799SOL     OW 2395   0.615   2.631   2.025 -0.1588  0.3664  0.0572
  799SOL    HW1 2396   0.684   2.704   2.011 -1.4582  1.0214 -0.8651
  799SOL    HW2 2397   0.591   2.613   2.123 -1.2082 -2.4493 -0.0054
  800SOL     OW 2398   3.129   2.327   0.210 -0.0123  0.0252  0.0007
  800SOL    HW1 2399   3.083   2.290   0.291  2.5331 -1.8029 -0.2609
  800SOL    HW2 2400   0.088   2.373   0.236 -1.5451  0.5520 -0.7796
  801SOL     OW 2401   1.928   1.689   0.852 -0.2689  0.8528 -0.1134
  801SOL    HW1 2402   1.979   1.658   0.768  2.1259 -0.9558 -1.4648
  801SOL    HW2 2403   1.856   1.753   0.810  1.9841  3.1932  1.3669
  802SOL     OW 2404   0.436   0.318   0.589 -0.0801 -0.0186 -0.2511
  802SOL    HW1 2405   0.534   0.306   0.591 -1.5178  0.9899 -0.2560
  802SOL    HW2 2406   0.392   0.243   0.642 -1.4376  0.7250 -0.4791
  803SOL     OW 2407   1.447   1.472   1.896  0.2046 -0.4905  0.3244
  803SOL    HW1 2408   1.530   1.482   1.841  0.0339  2.2264 -2.8508
  803SOL    HW2 2409   1.368   1.515   1.853 -0.1574 -3.3496  1.3671
  804SOL     OW 2410   1.862   2.084   0.866  0.0002  0.1166  0.1816
  804SOL    HW1 2411   1.905   2.087   0.959 -0.7964  0.3184 -0.8854
  804SOL    HW2 2412   1.842   1.990   0.843  3.5805  1.3834 -1.9461
  805SOL     OW 2413   3.120   1.976   2.734  0.3655 -0.7424 -0.0412
  805SOL    HW1 2414   0.025   1.885   2.769 -2.5870 -1.5178  0.7677
  805SOL    HW2 2415   0.046   2.023   2.667  0.0233 -2.1058  0.8730
  806SOL     OW 2416   0.637   2.483   0.363  0.1871  0.4906  0.5684
  806SOL    HW1 2417   0.694   2.416   0.421  1.6490 -1.3146  1.0258
  806SOL    HW2 2418   0.541   2.494   0.398  0.3008  1.6041  2.6952
  807SOL     OW 2419   2.075   1.515   2.814  0.2270 -0.2647 -0.4805
  807SOL    HW1 2420   2.154   1.504   2.876  0.0147  0.1647 -0.8099
  807SOL    HW2 2421   2.010   1.589   2.832 -1.1632  0.6504 -1.7481
  808SOL     OW 2422   1.414   2.260   1.061  0.1135 -0.1972 -0.3298
  808SOL    HW1 2423   1.415   2.207   1.148  0.8657 -0.3101  0.5601
  808SOL    HW2 2424   1.332   2.320   1.064  0.2129  1.2148 -1.3665
  809SOL     OW 2425   0.210   0.737   0.361  0.0037 -0.0368 -0.2999
  809SOL    HW1 2426   0.288   0.700   0.420  1.2864 -2.3110  1.2437
  809SOL    HW2 2427   0.112   0.715   0.388 -0.0458  0.7030  1.6224
  810SOL     OW 2428   1.371   1.539   0.060 -0.1392  0.0513 -0.1625
  810SOL    HW1 2429   1.284   1.482   0.058 -1.2473 -1.2110  0.0384
  810SOL    HW2 2430   1.429   1.538   0.145 -1.4008 -0.9516  1.2526
  811SOL     OW 2431   1.666   2.382   1.108  0.2383  0.3296  0.3001
  811SOL    HW1 2432   1.685   2.427   1.018 -0.2677  1.0966 -0.3741
  811SOL    HW2 2433   1.572   2.343   1.105 -1.1677 -0.3714  0.2007
  812SOL     OW 2434   1.487   3.067   1.031  0.2384 -0.4631 -1.0153
  812SOL    HW1 2435   1.525   3.007   1.107 -0.6514 -5.0479 -0.6528
  812SOL    HW2 2436   1.426   0.008   1.072  1.1961  1.6340 -3.3175
  813SOL     OW 2437   0.775   0.013   1.833 -0.2515  0.0722 -0.0433
  813SOL    HW1 2438   0.867   0.056   1.864  1.7142  0.5081  4.3260
  813SOL    HW2 2439   0.716   3.119   1.909  1.5235  0.5544 -0.8775
  814SOL     OW 2440   0.926   2.408   2.033 -0.1190 -0.1832  0.7090
  814SOL    HW1 2441   0.940   2.397   2.135  1.5986  0.4068  1.2820
  814SOL    HW2 2442   0.932   2.506   2.005 -0.0398 -0.8286  2.3545
  815SOL     OW 2443   0.404   0.142   2.645  0.7443 -0.3663 -0.0334
  815SOL    HW1 2444   0.489   0.115   2.693  0.4890  0.0248  1.4061
  815SOL    HW2 2445   0.414   0.117   2.547  2.5330  1.3043 -0.1292
  816SOL     OW 2446   2.027   0.811   0.063 -0.9847  0.3416  0.3390
  816SOL    HW1 2447   2.066   0.718   0.084  0.5659 -0.9145  0.6567
  816SOL    HW2 2448   1.922   0.810   0.053 -0.3305  1.7877  3.0169
  817SOL     OW 2449   3.085   2.473   2.234 -0.2799 -0.3969 -0.2113
  817SOL    HW1 2450   3.002   2.529   2.251 -0.8329  0.7764 -2.6293
  817SOL    HW2 2451   3.104   2.411   2.307 -0.2080  2.9227  1.5590
  818SOL     OW 2452   1.009   1.245   0.478 -0.2672  0.3095 -0.1755
  818SOL    HW1 2453   0.976   1.338   0.454 -0.9893 -0.3265  1.1299
  818SOL    HW2 2454   1.110   1.247   0.495  0.7429 -0.8929 -1.1788
  819SOL     OW 2455   1.704   1.221   2.651  0.0078 -0.6990  0.2691
  819SOL    HW1 2456   1.748   1.201   2.557  1.3209 -0.4345  1.1274
  819SOL    HW2 2457   1.704   1.144   2.716 -3.8682 -0.4935 -2.1419
  820SOL     OW 2458   0.449   1.468   0.061 -0.9965  0.0511 -0.5822
  820SOL    HW1 2459   0.423   1.553   0.113 -0.6442 -1.8195  0.8034
  820SOL    HW2 2460   0.540   1.435   0.101  2.3295 -1.5201  1.4266
  821SOL     OW 2461   0.540   3.036   0.748 -0.2220  0.6159  0.3470
  821SOL    HW1 2462   0.578   2.985   0.666  1.5770  1.1145 -0.6192
  821SOL    HW2 2463   0.540   2.982   0.832 -0.8833 -1.9971 -0.6941
  822SOL     OW 2464   2.152   2.461   2.888 -0.8918 -0.2442  0.2120
  822SOL    HW1 2465   2.223   2.390   2.890 -0.8071  2.1096 -1.8212
  822SOL    HW2 2466   2.127   2.485   2.986  1.7971 -1.1650 -1.2796
  823SOL     OW 2467   1.173   0.359   2.606 -0.7184 -0.2113  0.1747
  823SOL    HW1 2468   1.241   0.292   2.565 -0.9898  1.1364  3.1972
  823SOL    HW2 2469   1.118   0.308   2.672  1.8734  1.0951 -2.5261
  824SOL     OW 2470   2.695   2.628   1.545 -0.2065  0.0193 -0.1200
  824SOL    HW1 2471   2.697   2.651   1.648 -0.1412 -1.3730  1.2458
  824SOL    HW2 2472   2.734   2.699   1.481 -2.6177  1.5963 -0.7869
  825SOL     OW 2473   0.060   2.339   2.713 -0.0702  0.0157  0.5511
  825SOL    HW1 2474   0.123   2.411   2.684 -1.3327 -2.2628 -0.6996
  825SOL    HW2 2475   0.099   2.269   2.779 -0.2009  1.5356 -1.9754
  826SOL     OW 2476   1.755   0.254   2.972 -0.1554  0.1026  0.7966
  826SOL    HW1 2477   1.828   0.319   2.996 -0.5282  0.8391  0.9789
  826SOL    HW2 2478   1.704   0.282   2.885  0.2284  2.5518 -0.8512
  827SOL     OW 2479   3.072   1.519   1.839  0.1544  0.1242  0.1476
  827SOL    HW1 2480   3.002   1.443   1.823  0.9185  1.1550 -2.7871
  827SOL    HW2 2481   3.044   1.582   1.914  2.1111 -1.4911 -0.7507
  828SOL     OW 2482   3.118   0.054   1.277  0.0799  0.0081  0.1238
  828SOL    HW1 2483   0.017   0.142   1.315 -1.1775  0.2740 -0.1161
  828SOL    HW2 2484   3.022   0.032   1.298  1.9591  1.4396  0.5788
  829SOL     OW 2485   0.741   2.242   2.453  0.0577 -0.2081 -0.0432
  829SOL    HW1 2486   0.771   2.186   2.534  0.5036 -1.0185 -2.7790
  829SOL    HW2 2487   0.765   2.338   2.458  1.0863  0.1963 -0.5050
  830SOL     OW 2488   0.543   0.826   1.592  0.0535  0.0043 -0.4215
  830SOL    HW1 2489   0.643   0.825   1.594  1.6496  2.6405 -1.7271
  830SOL    HW2 2490   0.498   0.765   1.660  0.9449  1.0800  0.9229
  831SOL     OW 2491   2.607   1.856   2.821  0.5270  0.2787 -0.1449
  831SOL    HW1 2492   2.665   1.837   2.735 -0.4956  2.0107 -0.9228
  831SOL    HW2 2493   2.669   1.849   2.906  1.7776 -1.1613  3.3336
  832SOL     OW 2494   1.672   2.635   2.946  0.5285  0.9114  0.5603
  832SOL    HW1 2495   1.638   2.553   2.890 -0.6806 -3.8359 -0.0226
  832SOL    HW2 2496   1.700   2.708   2.875  0.2885  0.9232  4.2284
  833SOL     OW 2497   0.501   0.271   1.956  0.1070  0.1601 -0.0603
  833SOL    HW1 2498   0.561   0.290   1.870  3.3437 -2.6354 -0.5588
  833SOL    HW2 2499   0.542   0.327   2.031  0.7374 -0.0723  1.9077
  834SOL     OW 2500   0.160   0.726   1.068  0.7169 -0.0060 -0.7176
  834SOL    HW1 2501   0.243   0.676   1.099  0.6732  0.3423 -0.9517
  834SOL    HW2 2502   0.098   0.753   1.148 -3.6069  1.0168  2.7826
  835SOL     OW 2503   2.442   0.479   0.422 -1.0923 -0.7240 -0.0404
  835SOL    HW1 2504   2.396   0.446   0.339  2.3495 -1.0080 -0.2097
  835SOL    HW2 2505   2.535   0.526   0.403  1.8070  1.2958 -1.3029
  836SOL     OW 2506   1.185   2.346   0.453 -0.5057 -0.2001  0.3253
  836SOL    HW1 2507   1.218   2.274   0.516  0.0520 -1.4022  2.4476
  836SOL    HW2 2508   1.265   2.395   0.408  2.4665  2.5325  1.2705
  837SOL     OW 2509   1.988   1.852   0.294  0.2996 -0.2337  0.1242
  837SOL    HW1 2510   2.060   1.794   0.255 -3.2204  0.9088 -0.6327
  837SOL    HW2 2511   1.921   1.791   0.341 -2.3491 -0.2971  1.7216
  838SOL     OW 2512   1.855   0.954   2.311  0.1803 -0.4306 -0.1202
  838SOL    HW1 2513   1.866   0.917   2.219 -1.5222 -2.5717  2.1013
  838SOL    HW2 2514   1.787   1.030   2.315  3.3670 -0.9761 -1.0066
  839SOL     OW 2515   0.967   1.446   2.632 -0.5053 -0.0967 -0.2372
  839SOL    HW1 2516   1.010   1.368   2.583  0.5345  0.0186  1.0682
  839SOL    HW2 2517   0.993   1.538   2.608 -1.8019  0.4712 -0.4595
  840SOL     OW 2518   0.900   1.285   0.096  0.2509  0.1733  0.3392
  840SOL    HW1 2519   0.890   1.216   0.169 -1.3236 -2.1002  0.9430
  840SOL    HW2 2520   0.853   1.259   0.003 -2.9447 -0.8067 -1.2784
  841SOL     OW 2521   1.613   2.292   0.256 -0.3562  0.0897 -0.0481
  841SOL    HW1 2522   1.666   2.229   0.319 -0.9162 -2.0255  1.4881
  841SOL    HW2 2523   1.683   2.342   0.198  0.5541 -0.3051  1.2507
  842SOL     OW 2524   0.197   0.784   0.088 -0.1862 -0.3476  0.1001
  842SOL    HW1 2525   0.289   0.753   0.058 -1.1136  1.0167  2.4659
  842SOL    HW2 2526   0.189   0.779   0.191 -2.2561 -2.5780 -1.6155
  843SOL     OW 2527   0.667   0.372   1.017 -0.0966 -0.2864  0.0003
  843SOL    HW1 2528   0.670   0.286   0.961  0.0256 -0.1973  0.9674
  843SOL    HW2 2529   0.763   0.397   1.039 -1.0730  0.9740 -2.4688
  844SOL     OW 2530   1.991   2.799   2.346  0.2914  0.6232  0.3798
  844SOL    HW1 2531   2.013   2.739   2.267 -2.1209 -0.4194 -3.2047
  844SOL    HW2 2532   2.006   2.899   2.326  2.9286 -2.1038  1.0044
  845SOL     OW 2533   0.108   2.478   1.781  0.3777 -0.3667  0.3342
  845SOL    HW1 2534   0.027   2.541   1.772 -1.2534  0.8413  0.3011
  845SOL    HW2 2535   0.115   2.452   1.876 -1.8330  2.1410 -2.4402
  846SOL     OW 2536   1.882   1.550   2.421  0.9406  0.2813 -0.8876
  846SOL    HW1 2537   1.793   1.518   2.454  0.5766 -3.5872  0.3248
  846SOL    HW2 2538   1.917   1.494   2.343 -2.4762 -0.2811 -0.2370
  847SOL     OW 2539   0.141   0.639   2.124 -0.5128  0.1392  0.1143
  847SOL    HW1 2540   0.132   0.549   2.083 -0.4946  0.8892  0.8850
  847SOL    HW2 2541   0.142   0.712   2.055 -0.5226 -0.6083  2.4138
  848SOL     OW 2542   2.649   2.722   3.025  0.4059  0.1753 -0.2400
  848SOL    HW1 2543   2.661   2.823   3.048  1.8893  0.5604  0.5659
  848SOL    HW2 2544   2.726   2.686   2.972 -0.9898 -0.9467  1.3340
  849SOL     OW 2545   0.388   2.831   0.477 -0.3667  0.1314  0.3681
  849SOL    HW1 2546   0.485   2.857   0.496  0.1554 -1.8571 -1.1509
  849SOL    HW2 2547   0.322   2.860   0.548  0.5232 -1.8804 -3.9763
  850SOL     OW 2548   0.818   2.379   0.534 -0.5053  0.1119 -0.2740
  850SOL    HW1 2549   0.917   2.358   0.506  1.9822 -1.3834 -0.9226
  850SOL    HW2 2550   0.807   2.386   0.635  1.1143 -1.4987 -0.3235
  851SOL     OW 2551   1.824   0.594   2.704  0.3189 -0.0569  0.2317
  851SOL    HW1 2552   1.799   0.665   2.628 -0.1402  2.5855 -1.5726
  851SOL    HW2 2553   1.922   0.572   2.705  3.2120 -0.4999 -0.7974
  852SOL     OW 2554   1.427   2.644   2.706 -0.3252 -0.1207 -0.5833
  852SOL    HW1 2555   1.474   2.561   2.743 -0.3088 -0.0429  0.5494
  852SOL    HW2 2556   1.425   2.647   2.604  0.7649 -1.0795 -0.9413
  853SOL     OW 2557   2.972   2.755   0.287  0.5556 -0.1567 -0.8036
  853SOL    HW1 2558   3.007   2.699   0.209  0.2011 -1.4685  1.9746
  853SOL    HW2 2559   2.963   2.852   0.259  0.5617  1.4519 -0.9103
  854SOL     OW 2560   1.544   0.655   2.414  0.0545 -0.3216 -0.9490
  854SOL    HW1 2561   1.467   0.701   2.463  0.4254  0.4199  0.3250
  854SOL    HW2 2562   1.635   0.682   2.454 -0.0802 -0.4613  3.4950
  855SOL     OW 2563   0.414   2.563   0.461 -0.1736 -0.2227 -0.1916
  855SOL    HW1 2564   0.404   2.523   0.557  1.2098 -1.1734  0.7722
  855SOL    HW2 2565   0.417   2.664   0.462 -0.9382 -3.6214  2.3802
  856SOL     OW 2566   0.362   2.763   2.514 -0.3140  0.1116 -0.0841
  856SOL    HW1 2567   0.464   2.759   2.527  0.7603 -2.7302  3.1822
  856SOL    HW2 2568   0.332   2.737   2.422 -1.3261  1.8915  2.9676
  857SOL     OW 2569   1.169   2.985   1.730  0.2195  0.1872 -0.3658
  857SOL    HW1 2570   1.154   2.886   1.727 -1.9430  1.1843  0.4572
  857SOL    HW2 2571   1.116   3.043   1.668  0.0267  0.9040  1.4648
  858SOL     OW 2572   3.038   1.831   1.587 -0.0355 -1.1820  0.4712
  858SOL    HW1 2573   3.120   1.784   1.627 -1.2343  1.4302  0.9575
  858SOL    HW2 2574   2.967   1.763   1.568  1.3346  3.2891 -1.0662
  859SOL     OW 2575   2.165   2.145   2.095 -0.2664 -0.2010  0.5562
  859SOL    HW1 2576   2.155   2.122   2.193 -1.0543 -1.8840  0.6416
  859SOL    HW2 2577   2.081   2.157   2.045 -1.3053 -0.8743  0.9220
  860SOL     OW 2578   1.300   0.323   0.649 -0.0313  0.4500  0.2385
  860SOL    HW1 2579   1.268   0.409   0.694 -3.0984 -0.9336 -1.7222
  860SOL    HW2 2580   1.236   0.300   0.574 -2.1151 -0.5061 -2.2338
  861SOL     OW 2581   2.930   0.654   1.011  0.4735 -1.0892 -0.1842
  861SOL    HW1 2582   2.882   0.568   0.982  0.7316 -3.2367 -2.2983
  861SOL    HW2 2583   3.002   0.684   0.941 -0.7379  0.2228  2.2200
  862SOL     OW 2584   1.587   0.643   2.145  0.6772  0.3069  0.1406
  862SOL    HW1 2585   1.585   0.663   2.241  0.6886  1.2165 -2.4518
  862SOL    HW2 2586   1.534   0.558   2.121 -2.2617  1.2495 -0.7047
  863SOL     OW 2587   0.524   0.610   0.949  0.0108 -0.4621  0.3893
  863SOL    HW1 2588   0.582   0.524   0.954 -0.5964 -1.3805  0.9044
  863SOL    HW2 2589   0.462   0.597   1.030  2.0494  1.9908  0.8524
  864SOL     OW 2590   0.055   2.893   2.015 -0.1303 -0.1079 -0.4431
  864SOL    HW1 2591   0.138   2.854   2.053  1.8265  1.6734 -0.5586
  864SOL    HW2 2592   0.077   2.972   1.960 -1.0362 -2.5062  1.1675
  865SOL     OW 2593   1.051   1.221   2.504 -0.2719 -0.8267  0.3564
  865SOL    HW1 2594   1.095   1.198   2.414 -0.0360  1.3835  1.6451
  865SOL    HW2 2595   0.955   1.180   2.508 -1.8945  1.6367 -0.2185
  866SOL     OW 2596   2.960   3.009   0.193  0.0435  0.3295 -0.0386
  866SOL    HW1 2597   3.047   3.033   0.238  0.8027 -1.9075  2.5322
  866SOL    HW2 2598   2.982   2.983   0.095  0.7535  0.6999  1.0449
  867SOL     OW 2599   3.020   2.889   3.044 -0.1540 -0.1464  0.5507
  867SOL    HW1 2600   2.983   2.793   3.041  1.0261 -1.9794  0.3725
  867SOL    HW2 2601   3.119   2.880   3.017 -0.9234 -0.6346  1.9299
  868SOL     OW 2602   1.565   1.105   2.924  0.2136  0.1907  0.0828
  868SOL    HW1 2603   1.547   1.202   2.919  1.7204 -0.6371  1.0181
  868SOL    HW2 2604   1.504   1.056   2.989 -0.9378 -0.1183 -0.6828
  869SOL     OW 2605   0.077   2.037   0.689 -0.1893 -0.6026 -0.0676
  869SOL    HW1 2606   0.127   2.077   0.613 -2.8506 -1.5483  2.6709
  869SOL    HW2 2607   0.097   1.937   0.689 -1.1898 -1.6252 -0.4584
  870SOL     OW 2608   2.225   2.053   0.721 -0.6283 -0.1029  0.1744
  870SOL    HW1 2609   2.229   1.949   0.719  1.5451  1.5339 -1.2125
  870SOL    HW2 2610   2.275   2.080   0.635  0.8211 -0.5514  0.4353
  871SOL     OW 2611   0.603   1.051   1.123  0.4796  0.3733 -0.2368
  871SOL    HW1 2612   0.515   1.015   1.085  0.5191  0.5450  0.3220
  871SOL    HW2 2613   0.644   1.126   1.069 -0.0174  0.6559  2.9223
  872SOL     OW 2614   1.460   1.886   1.798  0.3209  0.3855  0.0512
  872SOL    HW1 2615   1.421   1.982   1.799 -1.0078 -0.3260  0.5575
  872SOL    HW2 2616   1.415   1.825   1.864 -1.4326 -0.5143  0.3629
  873SOL     OW 2617   0.855   2.086   2.249 -0.1009 -0.0018  0.2332
  873SOL    HW1 2618   0.809   2.151   2.313 -0.5075 -0.2088 -0.6980
  873SOL    HW2 2619   0.788   2.064   2.181  2.5145  1.6157  2.4181
  874SOL     OW 2620   1.025   2.721   1.163 -0.2052  0.2816  0.0159
  874SOL    HW1 2621   1.094   2.644   1.156 -0.6400  1.6590 -0.7833
  874SOL    HW2 2622   1.049   2.799   1.102 -0.0860 -0.4980 -1.5140
  875SOL     OW 2623   3.075   0.371   0.985  0.5163 -0.2986  0.2017
  875SOL    HW1 2624   3.097   0.271   0.992  0.5693 -1.3441 -1.2857
  875SOL    HW2 2625   2.976   0.386   0.946 -1.3758  2.4967 -2.3511
  876SOL     OW 2626   0.649   0.810   0.167  0.0488  0.5533 -0.4133
  876SOL    HW1 2627   0.642   0.855   0.260 -0.3183 -1.0908  2.1425
  876SOL    HW2 2628   0.741   0.766   0.151 -0.2606 -0.3117  0.5648
  877SOL     OW 2629   3.068   0.708   1.248  0.2555 -0.7944 -0.1387
  877SOL    HW1 2630   3.009   0.709   1.168  3.4402 -1.6242 -0.4948
  877SOL    HW2 2631   3.077   0.606   1.272 -0.4568 -3.6089 -2.1660
  878SOL     OW 2632   2.603   2.300   0.595 -0.0437  0.5980  0.1934
  878SOL    HW1 2633   2.513   2.337   0.568  2.1752 -2.6951  0.5128
  878SOL    HW2 2634   2.641   2.356   0.667 -0.1633  0.2419  0.4104
  879SOL     OW 2635   2.524   1.245   1.089  0.7107  0.1468  0.3252
  879SOL    HW1 2636   2.609   1.224   1.040  0.4498  1.9384  2.5260
  879SOL    HW2 2637   2.521   1.338   1.129  0.1921 -5.1820  0.2938
  880SOL     OW 2638   1.701   2.672   1.252  0.2446  0.1308 -0.2037
  880SOL    HW1 2639   1.778   2.684   1.189 -1.4007  1.3766 -1.7224
  880SOL    HW2 2640   1.612   2.696   1.207 -2.0760 -1.5753 -0.8209
  881SOL     OW 2641   0.955   2.340   0.287  0.1501  0.5416  0.1761
  881SOL    HW1 2642   1.042   2.334   0.336 -0.4883  0.1843  0.0174
  881SOL    HW2 2643   0.926   2.434   0.273  0.8234 -3.6535 -0.6446
  882SOL     OW 2644   1.775   0.680   1.316 -0.2069  0.6709 -0.0879
  882SOL    HW1 2645   1.808   0.626   1.233 -1.0853  0.7955  0.6226
  882SOL    HW2 2646   1.723   0.619   1.382 -4.6681 -0.4148  1.0918
  883SOL     OW 2647   1.413   0.410   2.056  0.0758  0.1003 -0.1964
  883SOL    HW1 2648   1.379   0.329   1.998 -0.9336 -2.6982 -3.1186
  883SOL    HW2 2649   1.408   0.396   2.158 -2.2361  1.9045  1.7296
  884SOL     OW 2650   2.478   0.690   0.105  0.3037  0.3511 -0.0355
  884SOL    HW1 2651   2.422   0.606   0.114 -0.2060 -2.7519  2.7014
  884SOL    HW2 2652   2.539   0.699   0.185 -0.6538 -0.3615 -0.7126
  885SOL     OW 2653   1.148   1.377   0.021 -0.3716 -0.4760 -0.3477
  885SOL    HW1 2654   1.127   1.403   3.059  0.1810  3.4181  2.0160
  885SOL    HW2 2655   1.069   1.336   0.070 -0.1679 -1.0512 -2.3283
  886SOL     OW 2656   1.626   1.462   2.533  0.0365 -0.1098  0.2607
  886SOL    HW1 2657   1.643   1.529   2.614  2.0393  3.8010  3.8174
  886SOL    HW2 2658   1.667   1.373   2.564  0.3012 -2.5116 -1.7866
  887SOL     OW 2659   1.503   0.328   1.529  0.2010 -0.2157  0.1319
  887SOL    HW1 2660   1.554   0.261   1.475  0.2856  0.1637  1.2201
  887SOL    HW2 2661   1.528   0.319   1.626 -3.0927  1.5788 -0.0441
  888SOL     OW 2662   2.782   0.669   1.996  0.2714  0.3407 -0.1230
  888SOL    HW1 2663   2.764   0.569   1.988  0.0180  0.7388 -2.0331
  888SOL    HW2 2664   2.807   0.701   2.090 -0.5264  1.7081 -2.3236
  889SOL     OW 2665   0.254   2.572   1.077 -0.0891  0.2771 -0.2812
  889SOL    HW1 2666   0.156   2.580   1.049  0.6925  2.4013  1.4705
  889SOL    HW2 2667   0.310   2.626   1.011  0.5224 -1.1244  0.6494
  890SOL     OW 2668   2.683   2.347   0.297 -0.8179 -0.3724 -0.4238
  890SOL    HW1 2669   2.590   2.383   0.273 -0.0899  1.0360 -2.0053
  890SOL    HW2 2670   2.725   2.374   0.389  0.3116 -0.0153 -1.0651
  891SOL     OW 2671   1.037   1.673   3.034 -0.4292  0.5381  0.6452
  891SOL    HW1 2672   1.055   1.606   2.960 -0.1110  0.8678  0.2478
  891SOL    HW2 2673   1.024   1.630   3.125  0.8939  0.4260  2.9662
  892SOL     OW 2674   0.034   0.113   1.015  0.4187 -0.3189 -0.6093
  892SOL    HW1 2675   0.002   0.068   1.102  1.2970 -1.3957  2.4682
  892SOL    HW2 2676   0.019   0.051   0.934 -1.0999 -1.9440 -2.1582
  893SOL     OW 2677   1.090   3.105   1.499 -0.2347 -0.2971  0.0647
  893SOL    HW1 2678   1.121   3.011   1.463 -0.7128  0.7894 -0.9553
  893SOL    HW2 2679   1.008   0.008   1.458  2.2717 -1.4781 -1.1916
  894SOL     OW 2680   2.643   0.588   0.754  0.0643 -0.0573 -0.3460
  894SOL    HW1 2681   2.575   0.584   0.829 -1.2163 -0.4275  1.1809
  894SOL    HW2 2682   2.619   0.656   0.685 -0.8738 -1.1750 -0.7156
  895SOL     OW 2683   2.382   2.256   2.238 -0.1158  0.3001 -0.3317
  895SOL    HW1 2684   2.296   2.236   2.182  0.1769 -1.8092 -0.4092
  895SOL    HW2 2685   2.358   2.310   2.320  3.8555 -0.2134  0.9651
  896SOL     OW 2686   1.314   0.234   1.882  0.1479  0.1777  0.6663
  896SOL    HW1 2687   1.274   0.266   1.799  1.7445  1.2709  3.4974
  896SOL    HW2 2688   1.333   0.138   1.882 -1.5589  2.5907 -0.3773
  897SOL     OW 2689   0.646   1.658   1.893 -0.1245  0.4603  0.5632
  897SOL    HW1 2690   0.658   1.759   1.880  1.0358  0.8948  0.7303
  897SOL    HW2 2691   0.702   1.613   1.822 -0.7666  1.6702  2.1485
  898SOL     OW 2692   2.137   2.773   1.962 -0.1510 -0.5335  0.4324
  898SOL    HW1 2693   2.159   2.838   1.886 -0.4400 -0.7257 -0.8850
  898SOL    HW2 2694   2.219   2.754   2.014  1.3004  2.4322 -2.8682
  899SOL     OW 2695   1.048   0.809   1.110  0.0042 -0.1176  0.0016
  899SOL    HW1 2696   1.045   0.868   1.192  1.3479 -1.7845 -0.6540
  899SOL    HW2 2697   0.976   0.836   1.043  2.9164 -0.1625  2.1605
  900SOL     OW 2698   1.887   2.373   3.010 -0.1363 -0.2931  0.0552
  900SOL    HW1 2699   1.822   2.304   2.983 -0.6354  0.9087 -0.6504
  900SOL    HW2 2700   1.859   2.463   2.980 -3.3837  0.0855 -0.5402
  901SOL     OW 2701   0.766   2.176   2.724 -0.2494 -0.0628  0.4214
  901SOL    HW1 2702   0.811   2.220   2.804 -1.1046  0.2186 -0.9108
  901SOL    HW2 2703   0.665   2.179   2.726 -1.0404 -1.0270  0.2167
  902SOL     OW 2704   2.206   1.321   0.123  0.2815 -0.5672  0.6416
  902SOL    HW1 2705   2.302   1.345   0.144  1.2190 -4.4306 -1.5792
  902SOL    HW2 2706   2.194   1.222   0.107 -1.8519  0.9574 -1.7891
  903SOL     OW 2707   1.909   0.785   0.402  0.0147 -0.7913 -0.5241
  903SOL    HW1 2708   1.925   0.884   0.372  1.0230 -1.1096  0.3878
  903SOL    HW2 2709   1.838   0.745   0.337 -1.9032  1.3152 -0.4676
  904SOL     OW 2710   0.576   1.000   3.094  0.2148 -0.2131 -0.3715
  904SOL    HW1 2711   0.479   0.982   3.075  2.7280 -2.2660 -1.8117
  904SOL    HW2 2712   0.618   0.933   0.024 -0.3111  0.9171 -1.7273
  905SOL     OW 2713   2.389   0.285   0.982  0.8548  0.2715  0.2063
  905SOL    HW1 2714   2.362   0.257   1.073  4.0785  0.3687 -1.6758
  905SOL    HW2 2715   2.452   0.362   0.980 -2.1911 -0.9262 -2.2309
  906SOL     OW 2716   2.786   2.384   1.125 -0.0025  0.3857 -0.2163
  906SOL    HW1 2717   2.814   2.313   1.059  0.2231 -0.7229  0.6264
  906SOL    HW2 2718   2.703   2.429   1.084  0.5530 -1.2508 -1.7107
  907SOL     OW 2719   1.293   0.598   0.218  0.6470 -0.3893  0.2479
  907SOL    HW1 2720   1.235   0.516   0.210  3.0771  0.1662 -0.1468
  907SOL    HW2 2721   1.276   0.663   0.298  2.1062  1.5029  4.1506
  908SOL     OW 2722   2.192   2.835   1.514  0.1434  0.3035 -0.4462
  908SOL    HW1 2723   2.257   2.763   1.541 -2.5301  0.8736 -0.6914
  908SOL    HW2 2724   2.207   2.868   1.422  0.1999  0.2087 -3.0889
  909SOL     OW 2725   2.887   0.826   1.632 -0.2153 -0.2516 -0.1922
  909SOL    HW1 2726   2.943   0.857   1.555  1.8834 -0.1595  3.6589
  909SOL    HW2 2727   2.822   0.896   1.661  0.7595 -0.9345  1.7140
  910SOL     OW 2728   1.517   2.725   2.431 -0.4054 -0.4160 -0.6696
  910SOL    HW1 2729   1.520   2.734   2.327  0.4912  1.3413 -3.4763
  910SOL    HW2 2730   1.506   2.816   2.472  3.1885  0.2390 -0.7529
  911SOL     OW 2731   2.433   0.340   2.108  0.6363 -0.1633  0.3397
  911SOL    HW1 2732   2.465   0.430   2.064 -1.0945  2.3573  0.4298
  911SOL    HW2 2733   2.409   0.350   2.205 -0.0415 -0.1114  3.8699
  912SOL     OW 2734   2.698   1.172   1.507  0.3054  0.9733  0.4249
  912SOL    HW1 2735   2.739   1.260   1.470  0.4067  1.1349 -0.4335
  912SOL    HW2 2736   2.691   1.094   1.438 -1.6584 -2.4316 -2.3534
  913SOL     OW 2737   2.744   1.945   1.155  0.1730 -0.2714 -0.5057
  913SOL    HW1 2738   2.734   1.899   1.244  0.1842 -0.4107 -2.6839
  913SOL    HW2 2739   2.841   1.982   1.155  0.7340 -0.1161 -1.8422
  914SOL     OW 2740   2.029   1.262   1.435  0.4526 -0.2817  0.4672
  914SOL    HW1 2741   2.118   1.217   1.456  0.8245 -0.5954 -1.1737
  914SOL    HW2 2742   1.949   1.200   1.438 -3.7186 -3.6342 -1.0523
  915SOL     OW 2743   1.041   1.022   1.291 -0.4613  0.5796  0.1100
  915SOL    HW1 2744   1.124   1.010   1.350  0.8065  2.0818  2.5772
  915SOL    HW2 2745   0.962   0.980   1.336  0.9686  1.0186  0.2362
  916SOL     OW 2746   2.400   2.604   1.534  0.1146 -0.1829  0.4682
  916SOL    HW1 2747   2.397   2.526   1.598 -0.7865  1.0805  0.1610
  916SOL    HW2 2748   2.493   2.628   1.511 -1.3693 -0.3058 -0.3631
  917SOL     OW 2749   2.511   2.091   0.288 -0.5147 -0.6618 -0.5225
  917SOL    HW1 2750   2.455   2.083   0.206  0.6238 -1.7402 -0.0852
  917SOL    HW2 2751   2.555   2.182   0.291  1.0896  0.1612  0.8785
  918SOL     OW 2752   1.795   2.768   2.743 -0.1767 -0.0321 -0.2172
  918SOL    HW1 2753   1.782   2.719   2.654 -3.3526 -0.5400 -1.7779
  918SOL    HW2 2754   1.892   2.743   2.778  2.0374 -1.7754 -2.2441
  919SOL     OW 2755   1.506   2.248   1.598 -0.1134  0.6919  0.3285
  919SOL    HW1 2756   1.473   2.196   1.677  1.0486 -0.2300 -5.1446
  919SOL    HW2 2757   1.603   2.217   1.571 -0.6151 -1.9227  0.4736
  920SOL     OW 2758   2.740   0.083   2.609 -0.5005 -0.7513  0.5335
  920SOL    HW1 2759   2.677   0.083   2.531  4.5843  2.0786  0.0041
  920SOL    HW2 2760   2.685   0.094   2.695 -0.2726 -0.9798 -0.7133
  921SOL     OW 2761   2.774   0.409   1.927 -0.3995  0.1903 -0.0081
  921SOL    HW1 2762   2.863   0.388   1.974 -1.7485 -3.3667 -3.1024
  921SOL    HW2 2763   2.719   0.325   1.950 -0.6011 -1.0319 -1.3335
  922SOL     OW 2764   2.027   2.079   0.437 -0.2545 -0.1291 -0.1385
  922SOL    HW1 2765   2.122   2.088   0.476 -0.0923 -1.9018  1.2853
  922SOL    HW2 2766   2.004   1.989   0.400 -1.1368  0.3541  0.2688
  923SOL     OW 2767   0.449   2.060   0.093  0.2082  0.5939 -0.3888
  923SOL    HW1 2768   0.504   1.984   0.047  2.3087 -1.3585 -3.6422
  923SOL    HW2 2769   0.458   2.150   0.042 -2.0641  2.6000 -0.3993
  924SOL     OW 2770   0.844   0.472   0.214  0.0348  0.0308  0.6326
  924SOL    HW1 2771   0.771   0.477   0.290  0.2685 -0.3575 -2.9676
  924SOL    HW2 2772   0.865   0.566   0.175 -0.0185 -1.6478  0.2307
  925SOL     OW 2773   2.477   0.850   0.930  0.0736 -0.1007  1.0059
  925SOL    HW1 2774   2.439   0.943   0.928 -1.0235 -0.2817  0.2274
  925SOL    HW2 2775   2.434   0.791   0.855  1.2881  1.6935  1.0306
  926SOL     OW 2776   2.990   0.973   0.932 -0.2633 -0.0663  0.2542
  926SOL    HW1 2777   2.899   0.935   0.963 -3.8934  2.4573  3.5955
  926SOL    HW2 2778   3.043   0.897   0.885  2.0512 -0.5075 -0.1123
  927SOL     OW 2779   3.126   1.070   2.850 -0.3224 -0.3559 -0.4263
  927SOL    HW1 2780   0.029   1.027   2.763 -0.5983 -1.8291 -0.4150
  927SOL    HW2 2781   0.026   1.168   2.859  0.1766 -1.7290 -1.5918
  928SOL     OW 2782   3.023   0.468   2.397 -0.0203 -0.2722 -0.2259
  928SOL    HW1 2783   3.062   0.374   2.394  0.8661 -1.7608 -0.1447
  928SOL    HW2 2784   2.921   0.464   2.388  1.0844  1.4688 -0.7830
  929SOL     OW 2785   2.920   2.796   1.221 -0.3000  1.0131  0.2729
  929SOL    HW1 2786   2.951   2.845   1.132  0.0315 -1.7123  2.0086
  929SOL    HW2 2787   2.932   2.697   1.220  0.3200 -2.6515  1.4803
  930SOL     OW 2788   2.070   1.330   1.708 -0.3459 -0.1066  0.1768
  930SOL    HW1 2789   2.072   1.422   1.755 -1.5454  1.9997  1.1561
  930SOL    HW2 2790   2.063   1.345   1.606  0.2168  1.9050 -1.5173
  931SOL     OW 2791   1.574   1.518   0.668 -0.3226 -0.2054 -0.1225
  931SOL    HW1 2792   1.622   1.526   0.756 -0.8319 -1.7898  0.5366
  931SOL    HW2 2793   1.520   1.603   0.639  3.0024 -1.3828 -1.6530
  932SOL     OW 2794   2.745   1.213   0.948 -0.1172  0.0749  0.1884
  932SOL    HW1 2795   2.780   1.120   0.929  0.6455  1.0945  0.6204
  932SOL    HW2 2796   2.825   1.278   0.950  0.8259 -0.8427  0.4321
  933SOL     OW 2797   2.481   1.508   1.160 -0.0596  0.3490 -0.0474
  933SOL    HW1 2798   2.408   1.562   1.116 -0.2091 -1.3117  2.4322
  933SOL    HW2 2799   2.480   1.533   1.259 -0.5306  0.2791  2.9493
  934SOL     OW 2800   1.625   2.921   1.626 -0.2847  0.5759 -0.6635
  934SOL    HW1 2801   1.592   2.828   1.613 -0.5697 -1.8817  0.6216
  934SOL    HW2 2802   1.545   2.984   1.622 -1.5323  1.3566  1.9074
  935SOL     OW 2803   0.037   1.722   0.778  0.0731 -0.3167 -0.2295
  935SOL    HW1 2804   3.068   1.723   0.802 -3.0004 -0.3972  2.1066
  935SOL    HW2 2805   0.091   1.752   0.861 -1.5670 -0.8534  0.9563
  936SOL     OW 2806   0.276   1.250   0.385  0.1853 -0.1706 -0.1078
  936SOL    HW1 2807   0.306   1.157   0.363  0.9791  1.3177  1.8723
  936SOL    HW2 2808   0.350   1.318   0.363 -1.1801  1.3834  0.0376
  937SOL     OW 2809   2.183   2.749   1.101  0.1719 -1.0586 -0.6387
  937SOL    HW1 2810   2.078   2.757   1.104 -2.8585 -0.6283 -0.1560
  937SOL    HW2 2811   2.219   2.771   1.007  1.1725  0.3944 -1.2400
  938SOL     OW 2812   2.482   2.208   0.987 -0.3073 -0.3573 -0.1001
  938SOL    HW1 2813   2.477   2.253   1.077  0.2955 -2.6830 -3.1035
  938SOL    HW2 2814   2.578   2.212   0.955 -0.8244 -2.8076  2.3488
  939SOL     OW 2815   0.783   2.118   0.566  0.5464 -1.2009 -0.0457
  939SOL    HW1 2816   0.857   2.090   0.627  2.3964  0.4204 -0.4900
  939SOL    HW2 2817   0.785   2.218   0.548  2.3587  1.8016  0.6439
  940SOL     OW 2818   2.731   0.049   0.090  0.1087 -0.0886 -0.1712
  940SOL    HW1 2819   2.819   0.006   0.109 -2.5659  0.4237 -1.5503
  940SOL    HW2 2820   2.664   0.020   0.161  1.4111 -1.4524  2.3302
  941SOL     OW 2821   1.066   0.122   0.057 -0.0615  0.5270  0.5802
  941SOL    HW1 2822   1.046   0.041   3.126 -1.2585 -0.7828 -0.6980
  941SOL    HW2 2823   1.137   0.182   0.019  1.1315 -0.2878 -1.7585
  942SOL     OW 2824   1.249   1.500   1.267  0.1062  0.3568 -0.3838
  942SOL    HW1 2825   1.324   1.554   1.224 -1.9698 -1.0174  1.5660
  942SOL    HW2 2826   1.276   1.403   1.286 -1.5667  0.6634  1.7435
  943SOL     OW 2827   1.821   1.076   1.455 -0.0333  0.2949  0.2129
  943SOL    HW1 2828   1.743   1.062   1.517 -0.6789 -2.1498  0.0015
  943SOL    HW2 2829   1.867   0.984   1.430  4.0900 -1.9542  1.3306
  944SOL     OW 2830   1.828   0.594   1.776  0.0352 -0.1640 -0.4391
  944SOL    HW1 2831   1.799   0.579   1.683 -0.3013 -0.7527  2.9387
  944SOL    HW2 2832   1.897   0.668   1.783  1.3043 -0.1272 -1.3924
  945SOL     OW 2833   0.029   0.018   0.490 -0.3272 -0.3187  0.1675
  945SOL    HW1 2834   0.075   0.102   0.519  2.3366  3.6328  0.0792
  945SOL    HW2 2835   0.068   3.110   0.403 -1.4144  1.2986  1.6720
  946SOL     OW 2836   0.399   0.345   1.412 -0.0080  0.5806 -0.3801
  946SOL    HW1 2837   0.465   0.411   1.450 -1.1837  1.7612 -1.0687
  946SOL    HW2 2838   0.413   0.334   1.312 -0.8700  1.1080 -1.5121
  947SOL     OW 2839   0.689   3.108   0.148 -0.1149 -0.1875  0.5118
  947SOL    HW1 2840   0.586   3.114   0.157  0.4635  1.2110 -1.3475
  947SOL    HW2 2841   0.737   0.069   0.157  1.9199 -1.5946 -1.3327
  948SOL     OW 2842   2.667   1.141   1.980  0.5185 -0.1467  0.0579
  948SOL    HW1 2843   2.587   1.201   1.971  1.7112 -1.6158 -0.8372
  948SOL    HW2 2844   2.728   1.191   2.047 -1.6625  1.6567 -1.1511
  949SOL     OW 2845   0.611   0.895   2.841 -0.1004  0.5787  0.1994
  949SOL    HW1 2846   0.603   0.921   2.938  0.7787  0.2946  2.6343
  949SOL    HW2 2847   0.704   0.858   2.820 -0.0969  1.5311 -0.5296
  950SOL     OW 2848   0.849   0.602   0.607  0.0859  0.2246  0.0570
  950SOL    HW1 2849   0.904   0.567   0.686 -1.1250 -0.5788  1.6072
  950SOL    HW2 2850   0.895   0.685   0.568  2.0689 -0.6507 -2.4250
  951SOL     OW 2851   1.123   2.081   2.193 -0.4740  0.5640  0.4654
  951SOL    HW1 2852   1.135   2.132   2.108 -0.7068 -1.5058  1.0963
  951SOL    HW2 2853   1.025   2.080   2.218  1.2470  1.3151  0.1152
  952SOL     OW 2854   0.951   1.629   0.182 -0.1453 -0.1624  0.4796
  952SOL    HW1 2855   0.982   1.583   0.265  0.9492 -0.9941 -1.7517
  952SOL    HW2 2856   0.860   1.678   0.202  3.1598  1.4797 -0.7388
  953SOL     OW 2857   2.024   3.048   2.293  0.2360  0.2690  0.2401
  953SOL    HW1 2858   1.947   3.050   2.225 -1.8411  2.1483  1.5180
  953SOL    HW2 2859   2.086   3.120   2.263 -0.0303  0.2716  0.3434
  954SOL     OW 2860   1.643   1.236   0.730 -0.6421  0.6305 -0.1549
  954SOL    HW1 2861   1.669   1.180   0.646 -1.5328 -1.2627 -0.7728
  954SOL    HW2 2862   1.623   1.331   0.700 -1.5297  0.4967 -0.1354
  955SOL     OW 2863   0.371   2.226   2.499  0.6735 -0.3142 -1.0754
  955SOL    HW1 2864   0.439   2.208   2.427 -1.1166 -2.8012  3.7057
  955SOL    HW2 2865   0.345   2.325   2.525  1.8490  2.5627  3.3933
  956SOL     OW 2866   1.847   0.146   1.679  0.6426  0.0068  0.7282
  956SOL    HW1 2867   1.907   0.205   1.736  0.4640 -0.6670 -0.0674
  956SOL    HW2 2868   1.759   0.204   1.671  0.3848  1.1333  1.0428
  957SOL     OW 2869   1.729   2.109   2.863  0.3230 -0.1824  0.2872
  957SOL    HW1 2870   1.657   2.135   2.801  2.4988 -0.9390 -0.0179
  957SOL    HW2 2871   1.698   2.072   2.954  0.4408 -1.9267  1.7911
  958SOL     OW 2872   1.337   2.143   1.789 -0.3903  0.1960 -0.3240
  958SOL    HW1 2873   1.314   2.209   1.864 -1.3134  1.0881  0.5101
  958SOL    HW2 2874   1.250   2.099   1.754  2.8543  2.2862 -1.1579
  959SOL     OW 2875   2.144   2.134   3.101  0.5629  0.1796 -0.0918
  959SOL    HW1 2876   2.088   2.142   0.058 -5.7703  2.0579  2.1482
  959SOL    HW2 2877   2.110   2.203   3.037  0.0023 -3.6566  1.6613
  960SOL     OW 2878   2.959   0.130   2.753  0.2076  0.4839 -0.5917
  960SOL    HW1 2879   3.045   0.181   2.724  0.5568  3.1625  0.9328
  960SOL    HW2 2880   2.894   0.134   2.676  2.1868  1.9732  1.5592
  961SOL     OW 2881   0.927   0.869   2.773 -0.1111  0.4266  0.0561
  961SOL    HW1 2882   0.932   0.968   2.801  2.8700 -1.5307 -0.7330
  961SOL    HW2 2883   0.975   0.847   2.685 -0.4424 -1.6136 -0.9484
  962SOL     OW 2884   1.298   1.273   2.843 -0.0081 -0.6139  0.5190
  962SOL    HW1 2885   1.324   1.252   2.746 -0.5799 -0.9450 -0.7875
  962SOL    HW2 2886   1.287   1.194   2.905  0.6145 -1.6341  0.4611
  963SOL     OW 2887   2.389   2.074   0.046  0.7707 -0.0465  0.6066
  963SOL    HW1 2888   2.466   2.088   3.108  1.5600 -0.3468 -1.1984
  963SOL    HW2 2889   2.304   2.123   0.014  1.1966  1.6605 -0.1993
  964SOL     OW 2890   1.456   2.677   1.055 -0.2721  0.0448  0.2720
  964SOL    HW1 2891   1.388   2.608   1.087  0.1122 -1.3822  1.4370
  964SOL    HW2 2892   1.422   2.746   0.983 -0.5766  3.5180  1.0552
  965SOL     OW 2893   1.244   1.517   0.703 -0.4115  0.1265  0.2906
  965SOL    HW1 2894   1.312   1.602   0.693  1.4689  1.7250  0.2382
  965SOL    HW2 2895   1.156   1.550   0.734  0.4856 -1.1371  1.0405
  966SOL     OW 2896   0.206   1.345   0.055 -0.0840 -0.1410  0.8531
  966SOL    HW1 2897   0.295   1.399   0.062 -3.5927  0.6194  1.5075
  966SOL    HW2 2898   0.128   1.389   0.100 -4.6549 -1.0055 -1.0844
  967SOL     OW 2899   1.865   0.176   2.045 -0.4035  0.4500  0.1687
  967SOL    HW1 2900   1.908   0.193   2.137  2.6028 -0.1330 -1.9662
  967SOL    HW2 2901   1.904   0.237   1.972  0.6276  0.5192  0.5831
  968SOL     OW 2902   1.758   1.041   0.578  0.0321 -0.0124  0.3596
  968SOL    HW1 2903   1.817   1.067   0.498  0.9892  1.1774 -1.8323
  968SOL    HW2 2904   1.695   0.965   0.552  0.1078  3.9676  1.0077
  969SOL     OW 2905   0.332   1.521   2.227 -0.1556  0.1388  0.0016
  969SOL    HW1 2906   0.264   1.490   2.155  1.1846  0.4820 -2.5001
  969SOL    HW2 2907   0.424   1.524   2.187  0.4345  0.2277 -1.9013
  970SOL     OW 2908   2.282   1.273   0.971 -0.3982 -0.2364 -0.1648
  970SOL    HW1 2909   2.384   1.271   0.997  0.2406 -1.7416  0.1731
  970SOL    HW2 2910   2.255   1.185   0.919 -5.8361 -0.3105 -1.5305
  971SOL     OW 2911   0.396   0.107   1.480 -0.3674  0.1766  0.2966
  971SOL    HW1 2912   0.403   0.209   1.473  0.9183  1.8664 -1.9378
  971SOL    HW2 2913   0.306   0.077   1.514 -0.2308  0.7239  2.5952
  972SOL     OW 2914   0.418   0.721   2.791  0.3904 -0.0951 -0.2102
  972SOL    HW1 2915   0.444   0.644   2.852  0.6412  0.3293 -0.4085
  972SOL    HW2 2916   0.488   0.795   2.795 -1.0917 -2.9543  0.2233
  973SOL     OW 2917   0.321   0.969   1.053 -0.0411  0.3891  0.9461
  973SOL    HW1 2918   0.317   0.946   1.155  0.1547 -3.0907 -1.3584
  973SOL    HW2 2919   0.245   0.918   1.018 -1.0448 -0.4500  0.5944
  974SOL     OW 2920   2.184   0.632   1.919  0.6523 -0.1028 -0.0320
  974SOL    HW1 2921   2.112   0.684   1.879  1.8175  1.8434 -0.9613
  974SOL    HW2 2922   2.253   0.702   1.943 -2.1327 -1.1776  1.5443
  975SOL     OW 2923   2.390   0.160   0.167  0.0948  0.1872  0.3759
  975SOL    HW1 2924   2.304   0.109   0.144  1.6531  0.8184 -1.7224
  975SOL    HW2 2925   2.464   0.105   0.205 -0.4223 -0.0608  3.5621
  976SOL     OW 2926   0.123   1.263   1.633  0.3157 -0.0337 -1.1844
  976SOL    HW1 2927   0.209   1.291   1.582  0.9028  2.0143 -0.7524
  976SOL    HW2 2928   0.134   1.226   1.726  1.8288 -1.2017  3.3380
  977SOL     OW 2929   1.305   2.825   0.155 -0.3208  0.2021  0.2794
  977SOL    HW1 2930   1.327   2.926   0.155 -0.4854  2.3790 -2.0493
  977SOL    HW2 2931   1.203   2.811   0.167 -0.7257  0.1403 -0.9820
  978SOL     OW 2932   0.690   1.421   0.248  0.8393  0.5223  0.2281
  978SOL    HW1 2933   0.788   1.422   0.218  2.0646 -0.3090 -0.1043
  978SOL    HW2 2934   0.645   1.331   0.230 -1.4917  3.0994  0.0899
  979SOL     OW 2935   1.636   1.774   1.282 -0.0471 -0.3715  0.4403
  979SOL    HW1 2936   1.614   1.777   1.383 -0.3250 -1.3975 -2.8129
  979SOL    HW2 2937   1.564   1.720   1.232  1.1059  1.8291  0.4861
  980SOL     OW 2938   0.395   1.617   1.830  0.4825 -0.1366  0.0531
  980SOL    HW1 2939   0.486   1.639   1.864  0.1793 -1.4172 -1.8898
  980SOL    HW2 2940   0.397   1.618   1.727  0.7671 -1.6566 -1.7746
  981SOL     OW 2941   0.064   1.572   0.178  0.2690 -0.3116  0.4782
  981SOL    HW1 2942   0.052   1.529   0.269 -2.0415 -0.8244 -1.6411
  981SOL    HW2 2943   0.161   1.610   0.159  2.6149  1.7709  3.2988
  982SOL     OW 2944   2.390   2.652   2.043 -0.2103 -0.3489 -0.4877
  982SOL    HW1 2945   2.430   2.564   2.017 -0.9955  0.9439  0.7937
  982SOL    HW2 2946   2.460   2.726   2.041 -2.6501  0.3850  0.9773
  983SOL     OW 2947   1.296   0.544   1.263  0.2669 -0.2908  0.0966
  983SOL    HW1 2948   1.304   0.602   1.178  0.2364 -0.2048 -3.6760
  983SOL    HW2 2949   1.368   0.474   1.255 -1.2521  2.3959 -0.7258
  984SOL     OW 2950   0.983   2.985   2.692 -0.0484 -0.4237  0.4717
  984SOL    HW1 2951   1.047   3.060   2.719  0.3829  1.6716  1.0278
  984SOL    HW2 2952   0.931   3.008   2.606  0.7079  1.1997  1.0511
  985SOL     OW 2953   1.747   2.176   1.521 -0.4837 -0.1569  0.2639
  985SOL    HW1 2954   1.790   2.212   1.441 -0.8265 -1.6274 -0.0802
  985SOL    HW2 2955   1.822   2.138   1.589  2.6018 -1.2350 -0.3760
  986SOL     OW 2956   2.591   0.143   2.396 -0.6154  0.0761 -0.2017
  986SOL    HW1 2957   2.517   0.200   2.437 -2.6843 -1.0075  0.5044
  986SOL    HW2 2958   2.667   0.194   2.353 -0.3402 -0.9371 -0.8528
  987SOL     OW 2959   2.832   0.738   2.265  0.1531  0.0164 -0.0877
  987SOL    HW1 2960   2.936   0.725   2.284  1.4899 -0.4221 -3.5374
  987SOL    HW2 2961   2.786   0.794   2.337 -2.1008 -0.6352 -4.3147
  988SOL     OW 2962   2.507   0.775   2.620  0.5746 -0.5919  0.6395
  988SOL    HW1 2963   2.407   0.766   2.596  3.0863  1.6109  0.1729
  988SOL    HW2 2964   2.523   0.862   2.673 -0.0930 -0.1576 -1.4759
  989SOL     OW 2965   2.469   1.780   2.202  0.1568 -0.3251  0.4103
  989SOL    HW1 2966   2.457   1.786   2.305  1.3914  0.4250 -1.5823
  989SOL    HW2 2967   2.550   1.831   2.166 -0.0719 -1.2686 -1.3778
  990SOL     OW 2968   0.402   1.058   2.708 -0.2722  0.1888 -0.3746
  990SOL    HW1 2969   0.415   1.157   2.689  0.1899  1.2689 -1.6703
  990SOL    HW2 2970   0.485   1.021   2.752  1.7484 -0.7361 -0.8629
  991SOL     OW 2971   0.367   1.953   2.870  0.0449 -0.2069 -0.4444
  991SOL    HW1 2972   0.348   1.909   2.784  2.4145  0.8834  2.8747
  991SOL    HW2 2973   0.296   2.019   2.898  3.3378  0.8070  0.5958
  992SOL     OW 2974   2.713   1.876   1.912 -0.3392 -0.5112 -0.3350
  992SOL    HW1 2975   2.705   1.971   1.881  1.2831  0.1325  0.4806
  992SOL    HW2 2976   2.708   1.870   2.012  0.9623 -1.1629 -2.8696
  993SOL     OW 2977   0.328   0.099   0.722 -0.1229  0.3325 -0.0688
  993SOL    HW1 2978   0.399   0.030   0.743 -0.5839  1.0959 -0.9255
  993SOL    HW2 2979   0.239   0.047   0.715  2.9859 -0.0859  1.6663
  994SOL     OW 2980   0.049   1.614   1.411 -0.0988  0.4596  0.1351
  994SOL    HW1 2981   0.076   1.680   1.480  0.3547 -2.4816 -3.7620
  994SOL    HW2 2982   0.129   1.597   1.350  0.2716  0.9044 -1.2232
  995SOL     OW 2983   1.932   1.766   2.878 -0.0282 -0.3276  0.2336
  995SOL    HW1 2984   1.850   1.773   2.941 -1.7997  0.4256 -0.6132
  995SOL    HW2 2985   2.006   1.811   2.935 -1.5647 -0.6090 -2.2336
  996SOL     OW 2986   1.985   1.146   2.770 -0.0689  0.4930 -0.0305
  996SOL    HW1 2987   2.053   1.178   2.844  2.0484  0.7627  1.7702
  996SOL    HW2 2988   2.004   1.211   2.693 -1.6723 -0.0970  2.1018
  997SOL     OW 2989   1.699   0.936   1.694 -0.2138  0.6293  0.1776
  997SOL    HW1 2990   1.705   1.022   1.747  1.1129 -0.4923  3.1911
  997SOL    HW2 2991   1.605   0.900   1.679 -0.6693  3.7781  2.1794
  998SOL     OW 2992   2.195   2.078   1.008 -0.5006 -0.3394  0.2157
  998SOL    HW1 2993   2.200   2.055   0.911  0.7922  0.3066  1.4447
  998SOL    HW2 2994   2.284   2.066   1.057 -1.1914  2.3334  1.1863
  999SOL     OW 2995   2.349   2.383   0.588 -0.2750 -0.7926 -0.0204
  999SOL    HW1 2996   2.320   2.361   0.685 -1.0680 -1.5611 -1.2613
  999SOL    HW2 2997   2.293   2.462   0.557  0.7106 -1.7712  1.3017
 1000SOL     OW 2998   0.691   3.070   3.012 -0.3603  0.0343  0.4346
 1000SOL    HW1 2999   0.633   0.013   2.978  2.1042 -1.9896 -1.0422
 1000SOL    HW2 3000   0.713   3.091   3.109 -0.4939 -0.6159 -0.5605
   3.13122   3.13122   3.13122
