1000 SPC/Fw water molecules t= 315.00000 step= 315000
 3000
    1SOL     OW    1   2.600   0.007   0.868  0.3717  0.2723  0.3567
    1SOL    HW1    2   2.615   3.029   0.810  0.4560  2.4952 -0.2590
    1SOL    HW2    3   2.639   0.011   0.965 -1.2238  3.1665  3.0227
    2SOL     OW    4   2.985   2.323   0.780 -0.2040  0.1308  0.0799
    2SOL    HW1    5   2.889   2.341   0.762  2.0017 -2.5142  1.4291
    2SOL    HW2    6   3.004   2.261   0.856 -0.5859  0.8708 -0.5792
    3SOL     OW    7   0.734   2.875   2.885 -0.2332 -0.3346 -0.5274
    3SOL    HW1    8   0.724   2.816   2.964  2.0402 -3.9725 -0.9660
    3SOL    HW2    9   0.651   2.867   2.829 -1.5753 -0.9625  1.4770
    4SOL     OW   10   2.163   2.385   1.959 -0.1299  0.0440 -0.1423
    4SOL    HW1   11   2.065   2.408   1.988 -0.7183 -1.1544  0.8873
    4SOL    HW2   12   2.217   2.334   2.030  0.6546  0.5230  1.0514
    5SOL     OW   13   1.766   0.727   1.286  0.2435 -0.3747  0.0265
    5SOL    HW1   14   1.782   0.794   1.208 -0.5776  2.5715 -2.9751
    5SOL    HW2   15   1.674   0.752   1.322  1.3812  1.1425 -1.0679
    6SOL     OW   16   1.872   2.785   0.361  0.6762  0.0783  0.2743
    6SOL    HW1   17   1.848   2.824   0.270 -0.2276  1.6560  1.0937
    6SOL    HW2   18   1.785   2.785   0.414 -1.4376  0.5338  0.6577
    7SOL     OW   19   2.651   1.528   1.176  0.0633  0.1743  0.1301
    7SOL    HW1   20   2.744   1.496   1.145 -3.2224  2.8437  0.9730
    7SOL    HW2   21   2.620   1.481   1.259 -1.2081 -0.2903  0.2400
    8SOL     OW   22   1.395   2.200   1.263  0.1373 -0.4329 -0.2515
    8SOL    HW1   23   1.411   2.149   1.181 -2.0466  1.6545 -2.0833
    8SOL    HW2   24   1.421   2.299   1.248 -0.0950  1.7989  0.2040
    9SOL     OW   25   1.478   2.743   2.306 -0.9069 -0.0679 -0.6779
    9SOL    HW1   26   1.395   2.738   2.360  1.4743 -0.0585 -1.0779
    9SOL    HW2   27   1.453   2.705   2.209 -1.0477 -2.0722 -1.1535
   10SOL     OW   28   0.591   1.981   1.171  0.1630  0.6595 -0.6937
   10SOL    HW1   29   0.684   1.939   1.156 -1.1932 -3.3632 -1.8183
   10SOL    HW2   30   0.590   2.075   1.138 -0.4502 -2.7352  3.5937
   11SOL     OW   31   1.922   1.661   1.271 -0.2073 -0.0631  0.1161
   11SOL    HW1   32   1.957   1.583   1.328 -1.5434 -0.9602  0.4129
   11SOL    HW2   33   1.992   1.703   1.206  0.9493  1.9403 -0.3556
   12SOL     OW   34   2.534   2.507   1.776 -0.2287 -0.2867  0.1732
   12SOL    HW1   35   2.586   2.421   1.775 -1.2124 -0.8931 -0.3420
   12SOL    HW2   36   2.560   2.567   1.857  1.9557 -0.0896 -0.0027
   13SOL     OW   37   2.364   3.025   0.512 -0.0032  0.2740 -0.4189
   13SOL    HW1   38   2.365   2.925   0.484 -1.4105 -0.5691 -1.1342
   13SOL    HW2   39   2.444   3.074   0.494 -4.9604 -2.2088  0.4591
   14SOL     OW   40   1.507   2.098   0.311  0.0534  0.5879  0.1412
   14SOL    HW1   41   1.468   2.004   0.303 -1.7200 -0.3407  1.0763
   14SOL    HW2   42   1.559   2.122   0.226  2.0615  0.0364 -0.7827
   15SOL     OW   43   2.882   2.292   2.018 -0.3384  0.4454 -0.5088
   15SOL    HW1   44   2.904   2.211   2.075 -2.0117 -0.4150 -2.1299
   15SOL    HW2   45   2.951   2.368   2.034 -1.7100  1.7236 -2.5025
   16SOL     OW   46   2.120   2.737   0.482  0.1455  0.1608 -0.0085
   16SOL    HW1   47   2.025   2.756   0.441 -1.6451  3.5604 -2.0948
   16SOL    HW2   48   2.136   2.792   0.568 -1.6787 -0.0851  1.4887
   17SOL     OW   49   0.392   0.224   1.154  0.3190 -0.2580 -0.0679
   17SOL    HW1   50   0.450   0.292   1.207  2.9732  0.3080  1.4885
   17SOL    HW2   51   0.447   0.137   1.140  0.0533  0.0483  1.4317
   18SOL     OW   52   2.251   0.859   0.255 -0.0255  0.0596 -0.2599
   18SOL    HW1   53   2.206   0.854   0.163  2.2551 -3.0519  1.0493
   18SOL    HW2   54   2.311   0.941   0.270  1.3068  0.3740 -2.6202
   19SOL     OW   55   1.765   1.922   0.591  0.2925  0.0614 -0.1814
   19SOL    HW1   56   1.835   1.868   0.641 -2.1875  1.4897  0.4411
   19SOL    HW2   57   1.790   1.925   0.490  2.9045 -2.8324  0.6873
   20SOL     OW   58   2.204   1.978   2.186 -0.0100  0.4371 -0.1566
   20SOL    HW1   59   2.174   1.977   2.287  1.2235  1.4152  2.8411
   20SOL    HW2   60   2.247   2.072   2.169  1.9222  1.9808 -1.0615
   21SOL     OW   61   1.875   0.389   0.894  0.9946 -0.1871  0.4410
   21SOL    HW1   62   1.797   0.380   0.826  0.2668  2.2955  1.9173
   21SOL    HW2   63   1.894   0.305   0.947 -2.4352  0.4670  3.4481
   22SOL     OW   64   2.520   0.301   1.557  0.0279 -0.1685  0.2219
   22SOL    HW1   65   2.502   0.272   1.461 -0.8334 -0.7459  0.4424
   22SOL    HW2   66   2.449   0.292   1.631 -0.7430 -0.7241  1.7143
   23SOL     OW   67   2.959   0.413   2.011  0.2870  0.0600 -0.2033
   23SOL    HW1   68   2.919   0.328   1.972  1.9960 -1.8390 -1.0746
   23SOL    HW2   69   2.881   0.466   2.058  0.2438  1.0448  0.7714
   24SOL     OW   70   2.590   2.681   0.249  0.1422  0.1585  0.1120
   24SOL    HW1   71   2.552   2.730   0.334 -0.7892  4.7958  0.6904
   24SOL    HW2   72   2.685   2.715   0.235  2.0684  0.3947 -2.2808
   25SOL     OW   73   1.445   0.015   2.232 -0.3742 -0.2010  0.6462
   25SOL    HW1   74   1.514   3.048   2.244  0.8431 -1.5033 -1.0934
   25SOL    HW2   75   1.486   0.105   2.259  0.8363  1.1994  2.4135
   26SOL     OW   76   1.296   2.262   0.256  0.2054  0.4856 -0.2277
   26SOL    HW1   77   1.373   2.209   0.294  1.8229 -0.4389  1.5769
   26SOL    HW2   78   1.310   2.361   0.238  0.8357  1.1772  1.7720
   27SOL     OW   79   2.423   1.354   2.879  0.5134 -0.0337  0.1088
   27SOL    HW1   80   2.326   1.356   2.850  2.1101  1.7235  0.7196
   27SOL    HW2   81   2.483   1.311   2.810  1.3202  0.2586 -1.0230
   28SOL     OW   82   1.087   1.440   1.520 -0.0240 -0.2254  0.0195
   28SOL    HW1   83   1.162   1.418   1.455 -0.0275  1.7039  0.5068
   28SOL    HW2   84   1.021   1.513   1.481  2.3600 -2.7306  2.3128
   29SOL     OW   85   2.813   2.493   1.568  1.0554  0.4905 -0.0414
   29SOL    HW1   86   2.846   2.566   1.507 -0.0398  1.5414 -1.4931
   29SOL    HW2   87   2.742   2.533   1.631  0.5207  2.3313  0.1280
   30SOL     OW   88   1.070   0.553   1.224  0.0663 -0.1574 -0.0984
   30SOL    HW1   89   0.983   0.567   1.174 -0.7518 -2.7398  1.1883
   30SOL    HW2   90   1.141   0.601   1.166  0.1502  0.7347 -1.8840
   31SOL     OW   91   2.279   2.862   1.919 -0.0890 -0.2619  0.2306
   31SOL    HW1   92   2.238   2.781   1.969 -1.5327 -0.5137 -1.9295
   31SOL    HW2   93   2.267   2.841   1.820 -0.5001  1.9236  2.5222
   32SOL     OW   94   1.229   1.521   0.551  0.3489 -0.7991 -0.0575
   32SOL    HW1   95   1.208   1.554   0.647 -1.9095  0.3965 -0.4278
   32SOL    HW2   96   1.164   1.442   0.529 -1.1858 -4.5981 -0.9156
   33SOL     OW   97   0.373   0.384   2.575  0.2763 -0.3664 -0.0530
   33SOL    HW1   98   0.440   0.461   2.567 -1.9793 -0.4158 -1.3658
   33SOL    HW2   99   0.331   0.351   2.486 -3.3397  1.0689 -0.8056
   34SOL     OW  100   1.781   2.964   0.588  0.3496 -0.5065 -0.0352
   34SOL    HW1  101   1.785   2.929   0.683 -1.5544  0.0173 -0.4298
   34SOL    HW2  102   1.875   2.974   0.550  1.9193  0.9020 -0.5766
   35SOL     OW  103   2.091   2.677   1.294 -0.4524  0.2372 -0.1203
   35SOL    HW1  104   2.003   2.685   1.335  3.3891  0.6543  0.4274
   35SOL    HW2  105   2.160   2.718   1.357 -1.1223 -1.2266  0.3092
   36SOL     OW  106   1.842   2.347   2.929 -0.2981  0.5234  0.5659
   36SOL    HW1  107   1.906   2.345   2.850  0.7843  0.6284 -2.3758
   36SOL    HW2  108   1.758   2.300   2.899  3.2237  0.1114 -0.5627
   37SOL     OW  109   1.271   0.597   2.407 -0.3536 -0.1920 -0.7778
   37SOL    HW1  110   1.188   0.647   2.429  0.7552 -0.9901 -2.2987
   37SOL    HW2  111   1.276   0.505   2.449  1.7881 -1.2286 -0.4851
   38SOL     OW  112   0.394   0.144   2.705 -0.3088 -0.1485  0.2768
   38SOL    HW1  113   0.397   0.239   2.668 -0.1127  2.8208 -1.2179
   38SOL    HW2  114   0.341   0.079   2.646  0.4039  0.9533 -1.2946
   39SOL     OW  115   2.585   1.293   1.643  0.3914  0.0308 -0.0407
   39SOL    HW1  116   2.554   1.372   1.705 -1.1863 -0.7480 -1.0299
   39SOL    HW2  117   2.671   1.246   1.682  3.5015 -3.6619  0.2477
   40SOL     OW  118   1.241   2.980   0.377  0.5294 -0.1991 -0.4265
   40SOL    HW1  119   1.206   3.079   0.391 -1.1408  3.0827  0.6347
   40SOL    HW2  120   1.205   2.940   0.290  2.1249 -1.8815 -1.4731
   41SOL     OW  121   2.500   1.544   0.968  0.2130 -0.0933  0.6175
   41SOL    HW1  122   2.553   1.536   1.052 -2.3032 -0.0887 -1.0721
   41SOL    HW2  123   2.535   1.624   0.917  0.2818  0.8936  1.0081
   42SOL     OW  124   0.752   0.263   1.345  0.1872 -0.1161  0.3435
   42SOL    HW1  125   0.671   0.298   1.292 -0.8436 -3.1914 -3.0321
   42SOL    HW2  126   0.796   0.340   1.393  1.1608 -2.2246 -0.9996
   43SOL     OW  127   3.025   2.029   2.657 -0.0407 -0.0073  0.0677
   43SOL    HW1  128   2.997   1.939   2.698 -0.2968 -2.5191 -0.9080
   43SOL    HW2  129   0.023   2.032   2.638  0.7479 -0.0108  2.5728
   44SOL     OW  130   2.368   0.250   1.787 -0.1549  0.0410 -0.5287
   44SOL    HW1  131   2.309   0.164   1.804  0.2363 -0.9810  1.9081
   44SOL    HW2  132   2.424   0.266   1.871  0.0447 -1.1325  0.8492
   45SOL     OW  133   1.128   0.210   2.114  0.3994  0.4504  0.4817
   45SOL    HW1  134   1.181   0.244   2.034 -0.7570 -2.4268  1.7111
   45SOL    HW2  135   1.142   0.108   2.119 -0.8397 -0.0653  0.4270
   46SOL     OW  136   1.179   2.922   2.607  0.2483  0.4642 -0.1109
   46SOL    HW1  137   1.093   2.890   2.651 -1.1635  0.3993 -1.0661
   46SOL    HW2  138   1.249   2.956   2.671  1.0733  2.5345  3.6468
   47SOL     OW  139   1.982   1.753   0.710 -0.1306  0.0295  0.0793
   47SOL    HW1  140   1.979   1.758   0.815 -0.6645  1.5974  1.6075
   47SOL    HW2  141   1.996   1.657   0.677  0.8737 -2.2621  0.4244
   48SOL     OW  142   1.081   2.118   0.612 -0.1371  0.0742 -0.5351
   48SOL    HW1  143   1.063   2.127   0.510  1.3196  0.0158  2.3748
   48SOL    HW2  144   1.070   2.021   0.639 -0.3559  3.0101  1.2480
   49SOL     OW  145   2.231   2.781   2.509  0.5091  0.1509  0.3209
   49SOL    HW1  146   2.216   2.819   2.412 -0.1997 -0.8138 -3.4805
   49SOL    HW2  147   2.293   2.840   2.563  3.1221 -0.6772 -0.9426
   50SOL     OW  148   1.575   2.938   0.051  0.2700 -0.1297 -0.0970
   50SOL    HW1  149   1.667   2.932   0.091 -1.6111  1.1506  0.2133
   50SOL    HW2  150   1.518   3.021   0.087  0.5028  0.1969  1.0031
   51SOL     OW  151   2.070   0.656   0.957  0.4026  0.0286  0.0904
   51SOL    HW1  152   2.003   0.584   0.987 -2.7409  0.1263  1.6144
   51SOL    HW2  153   2.118   0.698   1.039 -2.3610  0.3934 -1.1547
   52SOL     OW  154   1.191   1.577   1.025 -0.8257 -0.6545 -0.2253
   52SOL    HW1  155   1.276   1.525   1.050 -1.0744 -0.9205  3.3753
   52SOL    HW2  156   1.184   1.652   1.097 -0.6591 -0.6365  0.4326
   53SOL     OW  157   0.511   1.748   2.613 -0.6395 -0.3714  0.0676
   53SOL    HW1  158   0.423   1.793   2.645 -4.5839 -0.9931  1.1174
   53SOL    HW2  159   0.564   1.703   2.689  0.1892  2.0122 -1.7247
   54SOL     OW  160   2.766   1.073   1.663  0.1707 -0.0304  0.2979
   54SOL    HW1  161   2.861   1.039   1.652 -2.1745 -0.2039 -0.6629
   54SOL    HW2  162   2.720   1.029   1.747  1.3592  1.1859  0.0812
   55SOL     OW  163   2.723   1.953   0.346  0.2476  0.1841  0.1064
   55SOL    HW1  164   2.663   1.999   0.277 -1.1168 -1.6102  0.1602
   55SOL    HW2  165   2.676   1.870   0.386 -2.7368 -1.3294  0.3832
   56SOL     OW  166   1.372   0.095   1.585 -0.4034 -1.0515  0.0829
   56SOL    HW1  167   1.447   0.044   1.536  0.2162  1.5677  1.3276
   56SOL    HW2  168   1.405   0.122   1.678 -0.0299 -1.4548  0.8027
   57SOL     OW  169   1.334   1.395   2.863  0.2800  0.1652  0.1501
   57SOL    HW1  170   1.372   1.398   2.765 -1.0458  0.1553  2.7726
   57SOL    HW2  171   1.403   1.366   2.932 -0.7435 -2.0261  1.2622
   58SOL     OW  172   3.012   0.754   1.744  0.5788  0.1934  0.6590
   58SOL    HW1  173   3.102   0.718   1.746 -1.5769  2.4095 -0.4178
   58SOL    HW2  174   3.003   0.849   1.700 -0.0578  3.0181 -0.1399
   59SOL     OW  175   1.484   2.680   0.086  0.0502  0.0235  0.5034
   59SOL    HW1  176   1.531   2.677   3.102 -2.2261 -1.5292 -0.1186
   59SOL    HW2  177   1.484   2.776   0.120 -0.7316 -1.7949  0.7043
   60SOL     OW  178   2.940   1.806   0.037  0.4801  0.5061 -0.7952
   60SOL    HW1  179   3.010   1.845   0.098 -0.0331 -2.1607  0.9170
   60SOL    HW2  180   2.943   1.854   3.049  1.7015  2.7638 -0.7958
   61SOL     OW  181   0.866   2.774   0.907 -0.4126 -0.2294  0.5215
   61SOL    HW1  182   0.919   2.843   0.851  1.7891  0.9119  2.1807
   61SOL    HW2  183   0.775   2.761   0.863  2.6488 -1.8286 -0.9549
   62SOL     OW  184   1.708   1.851   2.553  0.0144  0.0185 -0.2709
   62SOL    HW1  185   1.807   1.834   2.540  2.7225  0.5025  0.1101
   62SOL    HW2  186   1.666   1.861   2.463 -1.7225 -4.0710 -1.2017
   63SOL     OW  187   2.169   2.501   0.600 -0.3382  0.4127 -0.5202
   63SOL    HW1  188   2.148   2.574   0.537  2.0317 -1.8672  0.2554
   63SOL    HW2  189   2.271   2.498   0.606  1.2471 -0.0709  0.3717
   64SOL     OW  190   1.583   0.882   2.725  0.3654  0.2955 -0.3210
   64SOL    HW1  191   1.504   0.818   2.709  2.6671  1.3336 -1.8286
   64SOL    HW2  192   1.666   0.830   2.746 -0.5090  1.9712 -1.7344
   65SOL     OW  193   1.956   1.706   2.543 -0.5152 -0.4076  0.2329
   65SOL    HW1  194   1.910   1.620   2.562  0.7135  2.4338  0.6880
   65SOL    HW2  195   1.990   1.706   2.448  0.1777  1.8986  0.4039
   66SOL     OW  196   0.174   1.081   1.659  0.0111 -0.2211 -0.2044
   66SOL    HW1  197   0.133   1.168   1.627  1.1010 -0.6374 -0.6501
   66SOL    HW2  198   0.218   1.028   1.585 -3.0287 -1.0135 -0.6603
   67SOL     OW  199   2.337   2.971   2.674  0.3407 -0.0455 -0.0084
   67SOL    HW1  200   2.293   3.009   2.761  0.4407 -0.4259 -1.8225
   67SOL    HW2  201   2.417   3.019   2.642 -1.1897 -2.3614  1.0366
   68SOL     OW  202   1.273   2.633   1.117  0.5051  0.4137  0.5274
   68SOL    HW1  203   1.270   2.721   1.072 -1.4536 -4.6730  0.3260
   68SOL    HW2  204   1.241   2.557   1.052 -0.3324 -1.1423 -2.5461
   69SOL     OW  205   0.594   2.424   0.096  0.1032 -0.1367 -0.2790
   69SOL    HW1  206   0.684   2.392   0.128 -2.9957  0.1571 -1.8956
   69SOL    HW2  207   0.582   2.388   0.003  2.6075  0.9796  1.4412
   70SOL     OW  208   2.869   0.270   2.367 -0.5765 -0.5059  0.0065
   70SOL    HW1  209   2.838   0.265   2.464 -2.1325 -1.1070 -0.4876
   70SOL    HW2  210   2.972   0.282   2.352  1.3994  0.6985  0.0992
   71SOL     OW  211   0.217   1.446   2.500 -0.1888 -0.4492  0.8938
   71SOL    HW1  212   0.169   1.360   2.507  0.7788  1.4247 -1.7146
   71SOL    HW2  213   0.168   1.513   2.559  0.1465 -1.6571  0.0247
   72SOL     OW  214   3.036   2.006   2.958 -0.0446  0.3012  0.4529
   72SOL    HW1  215   3.039   2.093   3.002  0.6854 -4.3945 -2.8136
   72SOL    HW2  216   3.010   2.024   2.866 -1.4440  0.9376  2.5759
   73SOL     OW  217   1.326   1.153   0.390  0.0116  1.0467 -0.3380
   73SOL    HW1  218   1.365   1.238   0.365 -2.0226 -3.5632 -0.0917
   73SOL    HW2  219   1.228   1.143   0.357  0.4362 -0.5506 -0.3298
   74SOL     OW  220   2.126   2.698   2.769 -0.4854  0.0370  0.4200
   74SOL    HW1  221   2.148   2.719   2.671 -0.7814 -0.9836 -1.3404
   74SOL    HW2  222   2.197   2.742   2.829  0.0324  0.4970  3.1167
   75SOL     OW  223   2.234   2.038   1.006  0.1536  0.7046 -0.3516
   75SOL    HW1  224   2.291   1.954   0.995 -0.0069  3.0648 -1.0626
   75SOL    HW2  225   2.133   2.014   0.995  0.0537 -1.8051  1.1866
   76SOL     OW  226   2.272   2.509   1.748  0.0521  0.1332  0.3111
   76SOL    HW1  227   2.377   2.501   1.763  3.1881 -2.5426 -1.1740
   76SOL    HW2  228   2.221   2.455   1.825  0.9968 -0.8931  1.1283
   77SOL     OW  229   2.532   0.029   2.113 -0.2270 -0.2071  0.0794
   77SOL    HW1  230   2.475   0.047   2.195  0.9269 -2.6831  1.2543
   77SOL    HW2  231   2.517   3.042   2.070 -1.9503  1.1988 -0.0815
   78SOL     OW  232   1.870   0.991   3.009 -0.6887 -0.1522  0.1858
   78SOL    HW1  233   1.878   0.945   3.100  0.4130  0.4168  0.1339
   78SOL    HW2  234   1.777   1.026   2.987 -0.2063 -2.5007  2.0340
   79SOL     OW  235   2.566   1.485   2.504 -0.1663 -0.1411  0.6343
   79SOL    HW1  236   2.605   1.566   2.549 -0.1222  1.0873  1.6210
   79SOL    HW2  237   2.460   1.488   2.504 -2.3620  0.0698  0.8940
   80SOL     OW  238   2.034   1.629   1.558  0.2005 -0.3633 -0.4376
   80SOL    HW1  239   1.945   1.592   1.581  1.0321 -2.9504  0.2690
   80SOL    HW2  240   2.060   1.701   1.628  0.8979  2.3044 -1.1582
   81SOL     OW  241   1.703   0.591   1.558 -0.0695 -0.6261  0.0146
   81SOL    HW1  242   1.802   0.616   1.547  1.2311 -1.4998  0.2429
   81SOL    HW2  243   1.651   0.673   1.575  0.7896 -0.6716  2.9624
   82SOL     OW  244   1.929   2.320   1.535  0.3971 -0.5532 -0.0523
   82SOL    HW1  245   2.025   2.340   1.515  1.3613  0.6934 -1.7315
   82SOL    HW2  246   1.908   2.229   1.500  0.4947  2.9477  1.6157
   83SOL     OW  247   2.842   2.909   0.315  0.1762  0.3778 -0.4054
   83SOL    HW1  248   2.845   3.002   0.359 -0.0702  2.4950  3.1063
   83SOL    HW2  249   2.827   2.910   0.215 -1.1220  0.2166  0.0339
   84SOL     OW  250   0.540   1.006   0.087  0.1975  0.6624 -0.2199
   84SOL    HW1  251   0.611   0.988   0.159  2.0297 -0.9029 -1.5872
   84SOL    HW2  252   0.568   1.084   0.029  1.5777 -3.1122  4.1967
   85SOL     OW  253   2.636   2.061   1.690  0.3231  0.0696  0.1938
   85SOL    HW1  254   2.679   1.974   1.721 -1.7016  2.1395  1.3024
   85SOL    HW2  255   2.546   2.034   1.651  0.3860 -0.0487 -1.6950
   86SOL     OW  256   0.239   2.705   1.430 -0.1033 -0.0770 -0.3157
   86SOL    HW1  257   0.268   2.620   1.379  2.1532 -0.1725 -2.8472
   86SOL    HW2  258   0.318   2.764   1.458  2.7091 -1.2533 -1.6470
   87SOL     OW  259   0.504   2.777   2.523 -0.0588 -0.2613  0.3399
   87SOL    HW1  260   0.425   2.819   2.471 -2.1519 -0.1036  0.9533
   87SOL    HW2  261   0.521   2.680   2.508 -1.1949 -0.4844  0.7895
   88SOL     OW  262   0.492   2.003   0.831 -0.9982 -0.2406 -0.1086
   88SOL    HW1  263   0.561   2.073   0.820  0.8944  0.6668  1.0456
   88SOL    HW2  264   0.415   2.039   0.882 -2.8517 -1.9347 -1.5170
   89SOL     OW  265   0.863   0.747   1.508 -0.1243  0.1854  0.2392
   89SOL    HW1  266   0.935   0.797   1.553 -0.6063 -3.8877 -1.5481
   89SOL    HW2  267   0.883   0.649   1.511  1.9993 -3.3899  0.8709
   90SOL     OW  268   2.972   1.374   1.658  0.1804  0.4451 -0.4422
   90SOL    HW1  269   3.067   1.403   1.678 -0.8156  2.2591  1.8342
   90SOL    HW2  270   2.919   1.368   1.744  0.9016  0.8068  0.7248
   91SOL     OW  271   1.090   0.908   0.984 -0.1618  0.4910 -0.5454
   91SOL    HW1  272   1.022   0.968   0.939  3.4394  0.0459  0.7259
   91SOL    HW2  273   1.178   0.918   0.937  0.2172 -1.1071  0.1813
   92SOL     OW  274   2.459   1.297   0.720  0.5212  0.1551 -0.2818
   92SOL    HW1  275   2.516   1.220   0.685  0.8273  2.7152 -1.4918
   92SOL    HW2  276   2.360   1.281   0.707  0.5503  3.0252 -0.4320
   93SOL     OW  277   2.248   0.809   2.626  0.7402  0.1808  0.0890
   93SOL    HW1  278   2.279   0.717   2.592 -1.7271  0.8753  2.3709
   93SOL    HW2  279   2.148   0.822   2.604  2.7793 -0.1299 -1.0409
   94SOL     OW  280   2.282   1.814   2.610 -0.1377  0.4885 -0.3241
   94SOL    HW1  281   2.216   1.879   2.563 -2.0207 -1.1760  0.8992
   94SOL    HW2  282   2.231   1.732   2.643  1.0745 -1.4162  0.4032
   95SOL     OW  283   2.165   0.701   1.220  0.8646  0.8515  0.1262
   95SOL    HW1  284   2.091   0.643   1.259 -2.8213 -0.5659 -0.0242
   95SOL    HW2  285   2.260   0.681   1.255  0.0449  1.2091 -3.1417
   96SOL     OW  286   2.665   2.925   1.735  0.2624 -0.0636 -0.4631
   96SOL    HW1  287   2.613   2.915   1.822  0.2133  1.2507  0.2538
   96SOL    HW2  288   2.643   2.853   1.666  1.5199  0.9141  1.4758
   97SOL     OW  289   2.622   0.972   1.125 -0.4992  0.4535 -0.1505
   97SOL    HW1  290   2.552   1.026   1.074  1.5093 -0.3237 -0.5897
   97SOL    HW2  291   2.622   0.995   1.222 -2.4937  0.5140 -3.4181
   98SOL     OW  292   1.571   1.875   1.560 -0.0531  0.0534  0.1471
   98SOL    HW1  293   1.544   1.873   1.656  1.1383  0.7697 -0.5591
   98SOL    HW2  294   1.571   1.971   1.529  1.5449 -1.1035  2.2348
   99SOL     OW  295   3.041   2.409   1.685 -0.5464  0.3736 -0.2777
   99SOL    HW1  296   2.953   2.439   1.641  0.4074 -0.6880  0.1075
   99SOL    HW2  297   0.007   2.484   1.681 -0.8447 -0.1538 -0.5171
  100SOL     OW  298   1.187   0.735   2.825  0.0663 -0.0751  0.4072
  100SOL    HW1  299   1.098   0.779   2.798  1.3137  0.0771  0.4630
  100SOL    HW2  300   1.240   0.796   2.887 -1.7860  1.9753 -0.7601
  101SOL     OW  301   2.150   0.143   2.662 -0.0254 -0.1269  0.2709
  101SOL    HW1  302   2.118   0.127   2.568  1.9691  0.0080  0.3139
  101SOL    HW2  303   2.216   0.219   2.667 -0.4169 -0.2252 -2.1687
  102SOL     OW  304   0.414   0.593   1.689 -0.3835  0.2434  0.1680
  102SOL    HW1  305   0.470   0.661   1.642 -0.1882  0.6184  0.3125
  102SOL    HW2  306   0.475   0.545   1.753 -0.7255  0.2935 -0.5572
  103SOL     OW  307   0.222   0.616   2.894  0.1905 -0.4004 -0.4990
  103SOL    HW1  308   0.185   0.671   2.974 -0.4962 -0.0635 -0.0245
  103SOL    HW2  309   0.307   0.567   2.923 -2.1172  0.7769 -1.8406
  104SOL     OW  310   1.016   0.673   2.484  0.1485 -0.1736  0.3988
  104SOL    HW1  311   0.951   0.737   2.446  0.4097 -4.2292  1.5900
  104SOL    HW2  312   0.971   0.586   2.514  0.4851 -1.0327  1.5935
  105SOL     OW  313   2.140   1.842   1.742  0.1184  0.0385  0.0617
  105SOL    HW1  314   2.137   1.819   1.843 -1.5999 -3.1432 -2.2449
  105SOL    HW2  315   2.222   1.899   1.706  1.0607  0.7436 -0.6428
  106SOL     OW  316   1.712   0.307   0.698  0.5527 -0.2286 -1.4220
  106SOL    HW1  317   1.608   0.302   0.691 -2.4083 -1.2019  0.5255
  106SOL    HW2  318   1.756   0.274   0.616 -1.9478  1.7713  1.5289
  107SOL     OW  319   2.780   2.216   0.981 -0.0602  0.2575 -0.0422
  107SOL    HW1  320   2.754   2.186   1.076  0.8871 -1.4822  0.3282
  107SOL    HW2  321   2.860   2.160   0.952  1.7120  1.8581  2.0819
  108SOL     OW  322   2.910   2.725   1.436  0.2961 -0.1660 -0.0518
  108SOL    HW1  323   2.937   2.787   1.512 -0.6832  1.5009  0.9429
  108SOL    HW2  324   2.986   2.718   1.363  1.1473 -3.7282  0.7054
  109SOL     OW  325   2.096   2.859   0.738 -0.3174  0.0986  0.1754
  109SOL    HW1  326   2.031   2.822   0.808  1.6166  0.9553  0.6396
  109SOL    HW2  327   2.109   2.956   0.750  0.2995 -0.9243 -0.1645
  110SOL     OW  328   0.751   1.798   2.473  0.2797 -0.6578 -0.1607
  110SOL    HW1  329   0.653   1.794   2.504 -1.7757 -2.9848 -2.4774
  110SOL    HW2  330   0.814   1.842   2.544 -0.0427  0.3605  2.0331
  111SOL     OW  331   1.909   2.387   2.026  0.7741 -0.3656  0.3569
  111SOL    HW1  332   1.824   2.430   2.062  0.3456  0.4980  5.8822
  111SOL    HW2  333   1.893   2.322   1.951  0.9708 -0.4207  1.9256
  112SOL     OW  334   1.728   1.783   0.007  0.3259 -0.0961 -0.1968
  112SOL    HW1  335   1.804   1.723   0.025 -1.2833 -1.2177 -0.0438
  112SOL    HW2  336   1.762   1.869   3.065  0.8053  1.2550  0.5486
  113SOL     OW  337   1.936   2.091   1.396 -0.2334 -0.6529  0.4759
  113SOL    HW1  338   2.012   2.068   1.334  2.1387  0.0802  0.6926
  113SOL    HW2  339   1.900   2.003   1.433  0.4160  0.9043 -0.5348
  114SOL     OW  340   2.901   1.228   0.872 -0.2691 -0.1667  0.0427
  114SOL    HW1  341   2.871   1.264   0.781 -0.5576 -3.7246  0.8728
  114SOL    HW2  342   2.864   1.132   0.874  1.5692  0.3673 -2.5277
  115SOL     OW  343   0.801   0.592   3.044  0.3043  0.0091  0.3396
  115SOL    HW1  344   0.701   0.614   3.045 -0.9880 -0.2711  0.6549
  115SOL    HW2  345   0.832   0.525   2.974  0.5019 -0.5665  1.7908
  116SOL     OW  346   2.633   1.724   2.633 -0.3044  0.4737 -0.2986
  116SOL    HW1  347   2.572   1.770   2.567  0.8112 -0.9399 -0.0858
  116SOL    HW2  348   2.578   1.699   2.716  1.8084 -1.0850  1.6034
  117SOL     OW  349   0.006   2.829   0.660 -0.0863 -0.0704  0.7360
  117SOL    HW1  350   0.040   2.759   0.584  0.5967 -1.9074 -1.0738
  117SOL    HW2  351   3.038   2.792   0.724  0.2535 -0.9074  0.2073
  118SOL     OW  352   0.874   1.724   2.821  0.3354 -0.1521 -0.1622
  118SOL    HW1  353   0.824   1.741   2.906 -0.0520 -1.3800  0.6610
  118SOL    HW2  354   0.961   1.675   2.838  0.0725 -1.2768 -0.9186
  119SOL     OW  355   0.324   2.251   0.139 -0.9143  0.0807  0.8814
  119SOL    HW1  356   0.248   2.287   0.202 -1.2230  1.3398  0.7634
  119SOL    HW2  357   0.408   2.307   0.144  0.4518 -1.3894 -0.4515
  120SOL     OW  358   1.276   0.554   2.991 -0.2415 -0.4780 -0.7554
  120SOL    HW1  359   1.373   0.589   3.007  1.0690 -1.3861 -0.7782
  120SOL    HW2  360   1.232   0.597   2.910  1.4555  1.3586  0.1798
  121SOL     OW  361   1.230   2.545   0.480  0.4501  0.3632 -0.0103
  121SOL    HW1  362   1.283   2.470   0.529  0.3649  0.9008 -1.3700
  121SOL    HW2  363   1.236   2.527   0.378  0.4241  0.4523 -2.2766
  122SOL     OW  364   2.476   2.501   1.447 -0.4211 -0.0311 -0.0745
  122SOL    HW1  365   2.515   2.551   1.525 -1.0590  2.0205  2.5367
  122SOL    HW2  366   2.376   2.479   1.458 -2.2114  0.7475 -0.6538
  123SOL     OW  367   0.749   1.965   0.610  0.0824 -0.5446 -0.0087
  123SOL    HW1  368   0.733   1.898   0.537 -0.6950  0.2749 -1.4394
  123SOL    HW2  369   0.720   2.056   0.575 -0.7838 -0.2370  1.0956
  124SOL     OW  370   2.867   0.581   0.268  0.1253  0.1008 -0.0692
  124SOL    HW1  371   2.867   0.497   0.325 -1.7811  0.3340  0.8435
  124SOL    HW2  372   2.833   0.659   0.322  1.1129 -2.8156  2.8005
  125SOL     OW  373   0.480   0.902   0.470  0.0609 -0.3753  0.0931
  125SOL    HW1  374   0.430   0.851   0.400 -2.5871  2.0867 -0.5804
  125SOL    HW2  375   0.423   0.960   0.528 -1.3669  0.5563 -0.9774
  126SOL     OW  376   0.198   1.972   1.168 -0.5962 -0.3991 -0.6183
  126SOL    HW1  377   0.181   1.873   1.156  0.7338  2.6450  2.1130
  126SOL    HW2  378   0.104   2.018   1.172  0.1243  0.4508 -2.3340
  127SOL     OW  379   1.397   1.919   1.790  0.4695 -0.3512 -0.0441
  127SOL    HW1  380   1.462   1.908   1.865 -2.2308  1.2230 -1.3211
  127SOL    HW2  381   1.332   1.998   1.794 -0.5800  1.7489 -1.6947
  128SOL     OW  382   1.071   1.155   0.317 -0.1615 -0.2583 -0.0885
  128SOL    HW1  383   1.022   1.082   0.272  1.1716  0.4455 -1.8613
  128SOL    HW2  384   1.012   1.231   0.351  1.5247 -0.5329  0.8460
  129SOL     OW  385   2.194   1.179   0.769 -0.0158 -0.3574 -0.1518
  129SOL    HW1  386   2.198   1.079   0.752 -0.8779  1.7309  0.4476
  129SOL    HW2  387   2.106   1.215   0.726 -1.1774 -0.6520  0.5869
  130SOL     OW  388   2.676   1.643   1.617  0.2611  0.1079  0.0049
  130SOL    HW1  389   2.583   1.651   1.576 -0.8130  0.7555  2.1261
  130SOL    HW2  390   2.736   1.591   1.550 -2.4466 -0.5756  0.6235
  131SOL     OW  391   3.019   2.771   3.024  0.0748 -0.0149 -0.2137
  131SOL    HW1  392   2.919   2.763   3.048  1.3893 -0.1229  1.0707
  131SOL    HW2  393   3.047   2.866   3.014  0.9842 -2.3062 -2.1780
  132SOL     OW  394   0.024   1.304   0.717 -0.2262 -0.0425  0.1073
  132SOL    HW1  395   3.101   1.319   0.618  1.3044  0.8420 -0.0508
  132SOL    HW2  396   3.101   1.221   0.760  1.7323  1.2156 -1.7831
  133SOL     OW  397   0.423   0.288   1.537 -0.0234 -0.1814  0.5737
  133SOL    HW1  398   0.350   0.302   1.608  1.8828  3.5228  0.3817
  133SOL    HW2  399   0.518   0.314   1.573 -0.4807 -1.3069  0.7512
  134SOL     OW  400   0.415   1.796   2.991  0.5544  0.1331  0.6790
  134SOL    HW1  401   0.404   1.838   3.083 -0.0799  2.8512 -1.6936
  134SOL    HW2  402   0.337   1.824   2.930  0.3666 -1.6620  0.9106
  135SOL     OW  403   1.702   0.539   1.955 -0.1082  0.0348  0.8118
  135SOL    HW1  404   1.698   0.642   1.941  1.5016 -0.5820 -2.6795
  135SOL    HW2  405   1.625   0.502   2.012  1.6741  0.9145  2.1049
  136SOL     OW  406   2.994   0.881   0.227 -0.1570 -0.3884  0.6522
  136SOL    HW1  407   3.091   0.854   0.249  0.9286 -1.7416  0.9174
  136SOL    HW2  408   2.957   0.824   0.151 -1.6332  0.2566  0.9589
  137SOL     OW  409   0.228   1.228   1.334  0.0803  0.3200  0.1815
  137SOL    HW1  410   0.144   1.245   1.383  5.1286  0.3483 -3.5772
  137SOL    HW2  411   0.248   1.305   1.274  1.7909 -0.4202  1.7603
  138SOL     OW  412   1.946   0.467   1.244 -0.0208  0.3881 -0.1508
  138SOL    HW1  413   1.987   0.459   1.333 -1.2921  2.8876  0.2983
  138SOL    HW2  414   1.847   0.483   1.257  2.2256  1.4271  1.2565
  139SOL     OW  415   1.309   2.515   0.210  0.1166  0.4083 -0.2402
  139SOL    HW1  416   1.380   2.574   0.168 -0.7613 -2.0252 -0.9931
  139SOL    HW2  417   1.219   2.536   0.172 -1.2085 -0.1490  0.4504
  140SOL     OW  418   1.354   1.427   1.644 -0.2374 -0.0482 -0.3088
  140SOL    HW1  419   1.265   1.479   1.650  0.3577 -0.8042  2.5765
  140SOL    HW2  420   1.427   1.485   1.595 -0.5806  1.2763 -0.5692
  141SOL     OW  421   1.406   1.863   0.349 -0.5439  0.1735 -0.3424
  141SOL    HW1  422   1.317   1.812   0.336  1.0583 -0.7882 -3.0151
  141SOL    HW2  423   1.451   1.846   0.438  1.9583  1.4816 -1.4944
  142SOL     OW  424   0.878   0.425   0.350 -0.2372  0.1706  0.0702
  142SOL    HW1  425   0.898   0.394   0.256 -1.1370  1.8056  1.3479
  142SOL    HW2  426   0.878   0.529   0.361  2.2325  0.6392  4.4572
  143SOL     OW  427   0.213   1.924   2.867 -0.1403 -0.7571 -0.1790
  143SOL    HW1  428   0.184   2.011   2.905  2.6047 -5.0057 -0.3201
  143SOL    HW2  429   0.205   1.924   2.765  0.2220  2.6761  1.4950
  144SOL     OW  430   1.547   2.459   0.826 -0.0294 -0.2210  0.2772
  144SOL    HW1  431   1.591   2.373   0.855 -1.4764 -2.3263 -2.4183
  144SOL    HW2  432   1.611   2.517   0.771 -0.9887  0.0893 -1.5991
  145SOL     OW  433   1.845   0.785   2.820 -1.3791 -0.2248 -0.2484
  145SOL    HW1  434   1.800   0.701   2.858 -0.2392 -3.0117  1.6540
  145SOL    HW2  435   1.873   0.847   2.899 -1.9396 -0.8140 -0.3504
  146SOL     OW  436   0.278   2.669   0.907 -0.0603 -0.0512 -0.5652
  146SOL    HW1  437   0.199   2.734   0.918 -1.9774  0.3895 -1.2846
  146SOL    HW2  438   0.247   2.574   0.899  1.8878  1.3081  0.8435
  147SOL     OW  439   2.207   0.017   1.849  0.0654 -0.3559 -0.4610
  147SOL    HW1  440   2.275   3.058   1.880 -2.5390  0.1702  0.8611
  147SOL    HW2  441   2.114   3.080   1.852  1.5112 -0.9909 -0.4909
  148SOL     OW  442   1.015   3.087   1.895  0.5733  0.0921  0.7861
  148SOL    HW1  443   1.091   0.029   1.937 -1.3939 -2.7928 -1.9807
  148SOL    HW2  444   1.028   2.988   1.903 -1.4751  0.8335 -0.1355
  149SOL     OW  445   1.507   0.407   2.101 -0.5409 -0.7476  0.2107
  149SOL    HW1  446   1.530   0.363   2.191 -0.1288  1.5283 -1.5407
  149SOL    HW2  447   1.437   0.483   2.118 -2.6463 -0.8436  1.1543
  150SOL     OW  448   2.827   2.986   0.058 -0.3703 -0.5173 -0.1087
  150SOL    HW1  449   2.903   3.040   0.011  1.1689  2.8299 -1.5287
  150SOL    HW2  450   2.741   2.977   3.103 -2.4549  2.5552 -1.1322
  151SOL     OW  451   0.758   1.578   0.446 -0.0213  0.2455  0.2610
  151SOL    HW1  452   0.778   1.679   0.436 -0.9374 -0.7476 -0.1288
  151SOL    HW2  453   0.691   1.549   0.376 -0.8183 -0.6292 -0.7088
  152SOL     OW  454   2.930   0.398   0.492 -0.5263  0.4633 -0.2678
  152SOL    HW1  455   2.855   0.431   0.550  2.0198 -0.6021  4.7029
  152SOL    HW2  456   3.014   0.395   0.546 -0.8071 -0.2258 -0.4899
  153SOL     OW  457   2.792   0.350   1.578 -0.0855  0.4973  0.0537
  153SOL    HW1  458   2.790   0.437   1.630  1.8121 -0.0409 -1.6039
  153SOL    HW2  459   2.697   0.320   1.558  1.8279  1.0774  3.1464
  154SOL     OW  460   1.233   3.070   2.064  0.0040 -0.3015 -1.0421
  154SOL    HW1  461   1.315   3.072   2.123  1.7156 -0.3785  0.2502
  154SOL    HW2  462   1.213   2.978   2.032 -2.4979 -1.3139 -2.1785
  155SOL     OW  463   0.497   1.778   0.991 -0.7413 -0.0741  0.0260
  155SOL    HW1  464   0.483   1.838   0.907 -0.1104  1.0360 -2.1179
  155SOL    HW2  465   0.490   1.842   1.073  0.6107  0.1170 -1.7016
  156SOL     OW  466   2.100   2.177   3.077 -0.1532 -0.2651 -0.7754
  156SOL    HW1  467   2.068   2.271   3.047  3.0242  0.2528  2.3993
  156SOL    HW2  468   2.041   2.149   0.056 -2.1635 -0.6964 -0.4083
  157SOL     OW  469   1.036   0.700   0.062 -0.0518 -0.6176 -0.0402
  157SOL    HW1  470   0.938   0.673   0.044  0.1849 -0.7484 -1.5586
  157SOL    HW2  471   1.092   0.661   3.097 -0.8059  0.5408  3.4668
  158SOL     OW  472   2.249   3.073   2.908  0.1823 -0.7248 -0.2605
  158SOL    HW1  473   2.321   0.035   2.934  0.0823  2.2701 -0.8792
  158SOL    HW2  474   2.190   0.021   2.839 -1.5913  2.7191 -1.5861
  159SOL     OW  475   2.864   0.057   0.445 -0.5401  0.1297 -0.5350
  159SOL    HW1  476   2.850   0.155   0.462 -0.2153 -5.5038 -2.2076
  159SOL    HW2  477   2.947   0.020   0.489  0.4435  1.1477 -0.6243
  160SOL     OW  478   1.405   1.728   2.289 -0.0727 -0.1010  0.0852
  160SOL    HW1  479   1.340   1.700   2.364 -0.8800 -0.7565 -0.4176
  160SOL    HW2  480   1.372   1.697   2.203 -0.8263  0.3110  1.3293
  161SOL     OW  481   2.722   0.879   2.806  0.0249 -0.2058  0.3772
  161SOL    HW1  482   2.762   0.790   2.804 -0.2081  1.7503 -0.3903
  161SOL    HW2  483   2.616   0.872   2.812 -2.2816 -1.1399 -2.4259
  162SOL     OW  484   0.621   2.426   1.376 -0.0397  0.3107  0.2911
  162SOL    HW1  485   0.710   2.431   1.323 -0.2776  0.1319 -1.7449
  162SOL    HW2  486   0.603   2.336   1.416  0.3654  0.1853 -1.3883
  163SOL     OW  487   2.035   0.138   2.412 -0.3746 -0.0912 -0.5466
  163SOL    HW1  488   1.951   0.097   2.384 -1.2124  0.4099  2.1524
  163SOL    HW2  489   2.092   0.154   2.334 -2.0657 -1.2898  1.4277
  164SOL     OW  490   2.176   1.826   0.210  0.2300  0.1083  0.0979
  164SOL    HW1  491   2.205   1.788   0.122 -0.4381  1.0737  1.9434
  164SOL    HW2  492   2.139   1.753   0.267 -1.2192  3.6754 -0.7321
  165SOL     OW  493   3.026   0.227   1.609 -0.3869  0.1301 -0.1449
  165SOL    HW1  494   2.938   0.272   1.628 -0.0273  0.6922  0.2028
  165SOL    HW2  495   3.064   0.271   1.527 -0.8727 -1.2666  2.1157
  166SOL     OW  496   2.259   1.090   2.981  0.4779  0.0004 -0.0738
  166SOL    HW1  497   2.345   1.126   3.026 -1.8903  2.0833 -0.7082
  166SOL    HW2  498   2.175   1.149   2.997  1.5853 -1.3627  1.2600
  167SOL     OW  499   2.881   0.692   0.030 -0.2204  0.1414  0.1229
  167SOL    HW1  500   2.878   0.635   0.115 -0.5598 -0.3796 -0.4227
  167SOL    HW2  501   2.942   0.649   3.066  1.1416  1.8592 -0.7942
  168SOL     OW  502   1.568   2.792   2.641 -0.6385  0.3284 -0.0348
  168SOL    HW1  503   1.667   2.798   2.670  1.4723  0.5342 -1.8561
  168SOL    HW2  504   1.542   2.830   2.547 -0.0260  1.0781 -1.3935
  169SOL     OW  505   0.209   1.464   0.814 -0.0739 -0.5530  0.0564
  169SOL    HW1  506   0.310   1.452   0.794  0.7376  1.2479 -2.2647
  169SOL    HW2  507   0.148   1.411   0.748 -0.4788 -0.6014 -1.4619
  170SOL     OW  508   0.044   0.349   1.379  0.4531  0.1915 -0.0961
  170SOL    HW1  509   0.088   0.409   1.445 -0.9476  1.2413  1.0048
  170SOL    HW2  510   3.103   0.392   1.299 -0.9750  0.5437  2.4243
  171SOL     OW  511   1.429   1.968   2.528 -0.4574  0.1676  0.1545
  171SOL    HW1  512   1.439   2.028   2.442  1.2177  3.8965 -2.8509
  171SOL    HW2  513   1.523   1.946   2.564  2.0615  1.2403 -0.7360
  172SOL     OW  514   0.034   2.756   1.261 -0.1692  0.0019 -0.1872
  172SOL    HW1  515   0.043   2.718   1.168 -2.0898 -1.4493  0.2805
  172SOL    HW2  516   0.120   2.748   1.315 -1.3315 -0.0002 -1.5665
  173SOL     OW  517   1.332   0.795   0.242  0.0027  0.3722  0.3035
  173SOL    HW1  518   1.400   0.855   0.290  3.3321 -1.6399 -1.5159
  173SOL    HW2  519   1.360   0.777   0.146 -1.1000 -1.2711  0.0457
  174SOL     OW  520   0.919   0.220   2.665  0.3102 -0.2777  0.0761
  174SOL    HW1  521   0.820   0.199   2.654  0.8189 -0.2655  0.2172
  174SOL    HW2  522   0.960   0.175   2.747  1.5597 -0.0464  0.5039
  175SOL     OW  523   2.192   1.948   0.658 -0.1342 -0.1683 -0.0871
  175SOL    HW1  524   2.197   2.046   0.690  0.0824  2.4947 -0.3608
  175SOL    HW2  525   2.124   1.896   0.707  0.5779 -0.3122 -0.6282
  176SOL     OW  526   1.194   0.127   0.147 -0.1064 -0.3903  0.4177
  176SOL    HW1  527   1.106   0.077   0.157  0.2866 -0.7435  3.4821
  176SOL    HW2  528   1.190   0.210   0.093  3.3313  0.0677  1.8750
  177SOL     OW  529   0.983   1.402   0.386  0.2582  0.3011  0.6149
  177SOL    HW1  530   0.900   1.458   0.378 -0.3108  0.2616 -3.0827
  177SOL    HW2  531   1.047   1.431   0.312 -1.8158  3.5428  0.6855
  178SOL     OW  532   2.494   2.370   2.925  0.7393 -0.1033  0.2123
  178SOL    HW1  533   2.574   2.392   2.987  0.1562 -2.6499  2.4537
  178SOL    HW2  534   2.426   2.311   2.973 -2.9486  2.9591  0.5344
  179SOL     OW  535   2.607   2.942   3.042  0.3918 -0.0150  0.6868
  179SOL    HW1  536   2.523   2.893   3.009 -0.4639  0.7689  0.1109
  179SOL    HW2  537   2.657   2.988   2.963  0.7814  1.3180 -1.7106
  180SOL     OW  538   1.778   1.408   0.764 -0.2810  0.8185  0.3378
  180SOL    HW1  539   1.723   1.466   0.701 -0.0604 -0.2625 -2.6063
  180SOL    HW2  540   1.726   1.328   0.788 -0.0840  2.6455  1.4684
  181SOL     OW  541   1.826   1.006   2.390  0.4156 -0.2214  0.6124
  181SOL    HW1  542   1.737   1.045   2.408  3.8675 -1.4376  0.8856
  181SOL    HW2  543   1.826   0.911   2.344 -1.3342  2.6829 -0.5717
  182SOL     OW  544   2.578   3.054   2.586  0.6227 -0.5814  0.4430
  182SOL    HW1  545   2.586   0.053   2.582  1.8916  0.2129 -0.4376
  182SOL    HW2  546   2.632   3.007   2.515 -3.7258  0.9681  1.9758
  183SOL     OW  547   1.788   0.745   2.316  0.3655 -0.4999 -0.3033
  183SOL    HW1  548   1.850   0.683   2.264 -0.2506  0.6520  1.5268
  183SOL    HW2  549   1.695   0.703   2.333 -1.7779  2.5662 -0.7548
  184SOL     OW  550   3.057   1.217   1.460  0.1881 -0.1480  0.6308
  184SOL    HW1  551   2.975   1.175   1.410 -1.4895 -0.2977  1.1018
  184SOL    HW2  552   3.026   1.263   1.549 -1.5231  0.7216  0.1103
  185SOL     OW  553   1.875   0.712   0.546 -0.3354  0.3668 -0.2015
  185SOL    HW1  554   1.935   0.749   0.622 -1.2467 -0.8551  2.7443
  185SOL    HW2  555   1.910   0.620   0.512  0.5630  1.3359 -0.6638
  186SOL     OW  556   0.446   2.765   2.974 -0.0430  0.0707  0.2262
  186SOL    HW1  557   0.402   2.750   3.069 -1.8700 -3.9035  1.1643
  186SOL    HW2  558   0.376   2.818   2.920 -0.5203 -1.4094  0.8661
  187SOL     OW  559   2.539   1.045   0.043  0.1382 -0.1688  0.9668
  187SOL    HW1  560   2.633   1.014   0.019 -2.0339 -1.4112 -1.2910
  187SOL    HW2  561   2.534   1.147   0.035  0.1374  2.9838  1.3266
  188SOL     OW  562   2.978   1.668   1.309 -0.3311  0.5792  0.1135
  188SOL    HW1  563   2.955   1.584   1.365  3.0195 -1.2111  0.3191
  188SOL    HW2  564   2.968   1.757   1.363  1.7352  2.4080  2.1548
  189SOL     OW  565   2.597   0.393   2.947  0.2854 -0.1108  0.2651
  189SOL    HW1  566   2.553   0.464   2.885  0.9841  3.5256 -3.6230
  189SOL    HW2  567   2.591   0.422   3.046  0.7019 -1.5595  0.9040
  190SOL     OW  568   1.469   1.112   1.890  0.3358  0.3570  0.0382
  190SOL    HW1  569   1.423   1.021   1.889  1.4257 -0.1389  1.3899
  190SOL    HW2  570   1.518   1.124   1.982 -0.0281 -1.1477 -2.1909
  191SOL     OW  571   0.521   0.356   1.849  0.3124  0.1548 -0.0487
  191SOL    HW1  572   0.592   0.294   1.817  1.7415  2.1462 -1.4574
  191SOL    HW2  573   0.426   0.343   1.814 -0.2770  3.7556 -0.9863
  192SOL     OW  574   2.084   1.423   1.114 -0.3210 -0.6271  0.0309
  192SOL    HW1  575   2.006   1.446   1.053  0.6469  2.3472 -3.0391
  192SOL    HW2  576   2.067   1.428   1.220 -1.2367 -2.9392  0.7808
  193SOL     OW  577   1.651   0.779   0.988  1.0056 -0.2376  0.2643
  193SOL    HW1  578   1.733   0.834   1.009  0.3992 -0.9586 -0.4444
  193SOL    HW2  579   1.649   0.741   0.892 -0.1680 -0.9922  0.4302
  194SOL     OW  580   1.023   2.383   1.661 -0.0690 -0.2466  0.5048
  194SOL    HW1  581   1.102   2.396   1.593  3.9145 -1.4630 -2.0904
  194SOL    HW2  582   0.951   2.322   1.622 -2.3558  2.4312  1.3275
  195SOL     OW  583   1.837   3.033   2.922  0.6126  0.6313  0.2689
  195SOL    HW1  584   1.903   3.062   2.996 -0.3823 -4.2259 -1.4676
  195SOL    HW2  585   1.889   3.001   2.836  1.9278  2.1149 -0.9837
  196SOL     OW  586   0.853   1.898   1.872  0.6926 -0.1553 -0.2753
  196SOL    HW1  587   0.844   1.908   1.770  1.4509  0.5234  0.0581
  196SOL    HW2  588   0.818   1.808   1.900 -1.4786 -0.6977 -0.3571
  197SOL     OW  589   0.980   0.196   1.190 -0.0318 -0.3039 -0.5078
  197SOL    HW1  590   1.056   0.253   1.218 -2.4137 -1.6459  0.5344
  197SOL    HW2  591   0.895   0.247   1.210 -0.8238 -2.8208  0.8241
  198SOL     OW  592   0.710   1.059   1.014 -0.6534  0.0814 -0.5135
  198SOL    HW1  593   0.725   0.979   1.078 -0.4908 -0.3076  2.2775
  198SOL    HW2  594   0.795   1.078   0.958  3.5018  0.3037  0.5680
  199SOL     OW  595   0.149   2.596   1.670  0.1146  0.2611  0.3257
  199SOL    HW1  596   0.231   2.544   1.703  0.3616 -0.4135  0.4782
  199SOL    HW2  597   0.158   2.637   1.575  0.5611  0.4871 -1.3889
  200SOL     OW  598   1.799   1.703   2.107 -0.3307 -0.0996 -0.2729
  200SOL    HW1  599   1.811   1.638   2.186  2.6782 -1.3888 -1.3235
  200SOL    HW2  600   1.890   1.725   2.063  0.4657  0.5059  0.1138
  201SOL     OW  601   0.311   1.659   2.374 -0.4144 -0.0751  0.0160
  201SOL    HW1  602   0.296   1.566   2.410 -3.2904 -2.4844 -1.2261
  201SOL    HW2  603   0.385   1.708   2.420  1.3087 -0.4153  1.3895
  202SOL     OW  604   1.754   0.526   0.084  0.2127 -0.2257  0.2590
  202SOL    HW1  605   1.760   0.424   0.078 -2.1462  1.7204 -0.4261
  202SOL    HW2  606   1.702   0.552   0.168  1.3791  1.9275 -2.4148
  203SOL     OW  607   1.180   2.488   2.144 -0.1138  0.1901 -0.0773
  203SOL    HW1  608   1.111   2.491   2.219  0.4606 -2.6062 -0.8968
  203SOL    HW2  609   1.128   2.453   2.063 -1.8547 -2.0712  0.6339
  204SOL     OW  610   1.092   2.078   1.578 -0.0344 -0.0019 -0.2024
  204SOL    HW1  611   1.006   2.122   1.617 -2.0507  0.0178 -1.1134
  204SOL    HW2  612   1.171   2.091   1.644 -1.6627  2.1142 -0.1897
  205SOL     OW  613   1.563   1.791   1.984 -0.2520  0.3626 -0.2151
  205SOL    HW1  614   1.650   1.747   2.008 -1.3592  4.5971 -1.1563
  205SOL    HW2  615   1.481   1.732   2.000 -1.7643 -1.3772 -0.4004
  206SOL     OW  616   0.100   1.193   2.490  0.3440  0.3420 -0.0802
  206SOL    HW1  617   0.093   1.123   2.567  2.8929  0.4064  4.5210
  206SOL    HW2  618   0.150   1.155   2.407  1.8673 -1.2400 -0.7035
  207SOL     OW  619   1.013   2.799   1.902  0.3687  0.1684  0.5395
  207SOL    HW1  620   1.026   2.786   2.004  1.0755  0.0692  3.4809
  207SOL    HW2  621   0.914   2.824   1.885  2.4737  2.4752  0.0082
  208SOL     OW  622   0.747   2.798   1.814  0.0885 -0.1066 -0.4711
  208SOL    HW1  623   0.773   2.700   1.813  0.9325  2.6829 -0.0042
  208SOL    HW2  624   0.665   2.809   1.757  0.7363  0.6952 -0.6694
  209SOL     OW  625   1.434   0.036   0.131  0.5425 -0.3948 -0.3061
  209SOL    HW1  626   1.482   0.055   0.214  1.0818  1.1381 -1.3546
  209SOL    HW2  627   1.340   0.069   0.137  2.7406 -1.8361 -0.3579
  210SOL     OW  628   2.863   0.721   0.828 -0.3860 -0.3583 -0.1426
  210SOL    HW1  629   2.869   0.670   0.915  0.2251  2.0177  0.6730
  210SOL    HW2  630   2.944   0.701   0.769 -2.6968 -0.5146  0.2587
  211SOL     OW  631   0.520   0.408   1.315 -0.3913 -0.3408 -0.3522
  211SOL    HW1  632   0.542   0.505   1.335  0.1809 -0.2922 -0.7867
  211SOL    HW2  633   0.469   0.368   1.395  1.3227 -0.0579  0.3534
  212SOL     OW  634   1.708   1.804   1.200  0.0636 -0.4531 -0.2410
  212SOL    HW1  635   1.780   1.749   1.247 -3.3514 -2.4215  0.9741
  212SOL    HW2  636   1.732   1.908   1.204  1.0316  2.2539  0.2946
  213SOL     OW  637   2.240   0.478   1.718  0.0908  0.6776  0.1828
  213SOL    HW1  638   2.298   0.395   1.735  3.7908 -0.5103  1.0409
  213SOL    HW2  639   2.307   0.555   1.692  1.5049  1.3927  0.8406
  214SOL     OW  640   0.783   2.643   2.432  0.2416  0.0926 -0.1035
  214SOL    HW1  641   0.782   2.742   2.426 -0.6395 -3.4907 -0.9804
  214SOL    HW2  642   0.690   2.601   2.452  1.2788  0.4349 -0.7922
  215SOL     OW  643   2.772   1.842   1.769  0.4844 -0.3832 -0.1737
  215SOL    HW1  644   2.734   1.772   1.700 -2.5617 -0.8647  0.2187
  215SOL    HW2  645   2.870   1.856   1.746  2.7674  0.6072  0.7264
  216SOL     OW  646   0.680   1.021   1.800  0.0712  0.0465 -0.6222
  216SOL    HW1  647   0.590   1.061   1.776 -0.8458  1.8670  0.6836
  216SOL    HW2  648   0.759   1.077   1.759  4.3105  0.5826 -3.2920
  217SOL     OW  649   2.703   0.445   0.646  0.0463  0.4524  0.0794
  217SOL    HW1  650   2.679   0.542   0.662  0.0327  1.7349  5.5763
  217SOL    HW2  651   2.669   0.398   0.729 -2.1757  1.1024  0.6228
  218SOL     OW  652   1.943   2.012   0.987  0.1481 -0.4643  0.0704
  218SOL    HW1  653   1.910   2.082   0.920 -1.2324 -3.3640 -0.9916
  218SOL    HW2  654   1.873   2.015   1.057 -0.9000  2.1173  0.1713
  219SOL     OW  655   1.519   3.035   0.538 -0.1765  0.4911  0.3849
  219SOL    HW1  656   1.617   3.028   0.541 -2.3575 -0.6706 -3.0709
  219SOL    HW2  657   1.473   2.948   0.504 -0.0697  3.2085  0.3809
  220SOL     OW  658   1.602   2.073   0.741 -1.0697  0.3803 -0.6599
  220SOL    HW1  659   1.526   2.091   0.676  0.8492  1.0593 -2.5455
  220SOL    HW2  660   1.675   2.012   0.697 -0.2194  0.2447  0.2736
  221SOL     OW  661   2.809   1.246   0.360 -0.3226  0.1889 -0.3712
  221SOL    HW1  662   2.726   1.301   0.357 -0.3089 -1.5381  0.9221
  221SOL    HW2  663   2.845   1.231   0.267  1.3257  1.4587 -0.9995
  222SOL     OW  664   0.841   2.234   1.255  1.0469 -0.3314 -0.4957
  222SOL    HW1  665   0.854   2.330   1.223 -2.4297 -0.1427  0.0881
  222SOL    HW2  666   0.892   2.169   1.197  0.4247  0.7765 -2.9766
  223SOL     OW  667   1.321   0.322   0.478  0.7226  0.1698  0.1882
  223SOL    HW1  668   1.276   0.394   0.424  0.0074 -0.0881  1.8131
  223SOL    HW2  669   1.249   0.249   0.492 -0.0277 -1.0721 -0.0519
  224SOL     OW  670   2.862   1.155   1.247 -0.2589 -0.2175 -0.0962
  224SOL    HW1  671   2.761   1.177   1.264  0.1300  0.9141 -1.6038
  224SOL    HW2  672   2.906   1.238   1.216 -0.9268 -2.0671  1.9803
  225SOL     OW  673   0.594   1.563   1.517  0.2790 -0.5522  0.3604
  225SOL    HW1  674   0.620   1.468   1.547 -1.6687  0.7770 -0.3808
  225SOL    HW2  675   0.518   1.557   1.448  0.0728 -2.3413 -2.7831
  226SOL     OW  676   0.665   2.699   0.739 -0.7444 -0.3440 -0.2524
  226SOL    HW1  677   0.641   2.685   0.642 -3.5373 -0.4312 -0.8064
  226SOL    HW2  678   0.689   2.607   0.777  0.2775 -0.4671 -0.1412
  227SOL     OW  679   1.215   1.705   1.713 -0.1055  0.4957 -0.1425
  227SOL    HW1  680   1.177   1.746   1.625 -1.9736  0.0802 -1.7729
  227SOL    HW2  681   1.284   1.768   1.750  2.4270  1.4423  1.9240
  228SOL     OW  682   0.684   0.258   1.655 -0.2608 -0.0841  0.0161
  228SOL    HW1  683   0.714   0.348   1.684 -0.4426 -0.8707  0.8820
  228SOL    HW2  684   0.753   0.211   1.601  1.6423 -1.3270 -1.3426
  229SOL     OW  685   2.812   0.622   2.803 -0.0823  0.2237  0.3318
  229SOL    HW1  686   2.825   0.613   2.702 -0.9432 -3.3151 -0.5772
  229SOL    HW2  687   2.891   0.589   2.861 -0.7211  1.9484  0.6615
  230SOL     OW  688   0.276   0.952   1.455 -0.0681 -0.3388  0.2114
  230SOL    HW1  689   0.264   1.021   1.383  2.5062 -0.9817  3.4506
  230SOL    HW2  690   0.255   0.859   1.420 -1.1378 -1.0637  0.0090
  231SOL     OW  691   1.247   2.861   1.382 -0.5193 -0.0130  0.1076
  231SOL    HW1  692   1.175   2.863   1.452 -0.0653  2.0065 -0.1345
  231SOL    HW2  693   1.246   2.940   1.321 -0.0892 -2.0924 -0.5200
  232SOL     OW  694   0.049   2.217   0.277  0.3585 -0.4217 -0.2821
  232SOL    HW1  695   0.004   2.219   0.365  1.0926  1.7293 -2.0974
  232SOL    HW2  696   0.040   2.310   0.230  0.0910 -0.6386 -0.2934
  233SOL     OW  697   1.167   2.606   2.935 -0.5495  0.2399  0.0031
  233SOL    HW1  698   1.081   2.598   2.877 -0.5065 -0.8736 -1.1292
  233SOL    HW2  699   1.245   2.617   2.870 -1.0293  1.7870 -0.2485
  234SOL     OW  700   0.582   1.315   1.817  0.7004  0.1397  0.5632
  234SOL    HW1  701   0.639   1.322   1.734 -1.3006  0.6702  1.1120
  234SOL    HW2  702   0.488   1.359   1.792 -2.9524  1.7569  0.9062
  235SOL     OW  703   0.044   2.540   2.484 -0.5615 -0.2640 -0.2533
  235SOL    HW1  704   0.112   2.586   2.423 -0.5387 -0.9368  2.1552
  235SOL    HW2  705   0.055   2.566   2.582  1.1525 -2.1901  1.0583
  236SOL     OW  706   1.457   2.081   2.915 -0.5423 -0.2596  0.1863
  236SOL    HW1  707   1.516   2.129   2.849 -1.2462 -2.0736  4.0380
  236SOL    HW2  708   1.389   2.146   2.959 -0.0500 -0.2737 -1.0481
  237SOL     OW  709   1.828   0.994   0.788  0.5219  0.5589  0.1640
  237SOL    HW1  710   1.744   0.982   0.729 -0.4748  0.8183 -0.9217
  237SOL    HW2  711   1.908   0.940   0.754  1.2380  0.1450  1.3104
  238SOL     OW  712   1.418   2.612   2.065 -0.0519 -0.4567 -0.3575
  238SOL    HW1  713   1.343   2.560   2.103  0.0627 -1.5374  0.0710
  238SOL    HW2  714   1.386   2.689   2.004  1.3461  2.5684 -1.8620
  239SOL     OW  715   1.076   2.349   1.929 -0.3108  0.3109  0.2318
  239SOL    HW1  716   1.024   2.270   1.970 -0.6834 -1.1659 -1.9798
  239SOL    HW2  717   1.077   2.345   1.831  0.9676  0.3868  0.5458
  240SOL     OW  718   2.337   0.175   0.905 -0.5518 -0.5554 -0.2799
  240SOL    HW1  719   2.420   0.120   0.888  1.6342  2.9312 -0.6462
  240SOL    HW2  720   2.308   0.215   0.818  1.6402 -1.5333  1.6266
  241SOL     OW  721   1.118   1.576   2.931  0.0529  0.6941  0.0544
  241SOL    HW1  722   1.061   1.502   2.974 -2.7206 -0.1989  1.7039
  241SOL    HW2  723   1.207   1.534   2.899 -1.0028 -1.0497 -1.2879
  242SOL     OW  724   2.767   0.954   3.065 -0.3273  0.0434 -0.6883
  242SOL    HW1  725   2.799   0.873   0.014 -1.5332 -0.2258 -1.8642
  242SOL    HW2  726   2.744   0.917   2.969  0.8326 -2.3065 -0.6901
  243SOL     OW  727   0.793   0.494   1.767 -0.5646 -0.2437  0.2197
  243SOL    HW1  728   0.812   0.495   1.867 -2.8728  2.2665 -0.3479
  243SOL    HW2  729   0.796   0.586   1.722 -1.4420 -0.1844 -0.3576
  244SOL     OW  730   1.213   2.861   3.009  0.2628  0.2135 -0.0916
  244SOL    HW1  731   1.201   2.766   2.976 -1.7992  1.8520  2.5067
  244SOL    HW2  732   1.303   2.897   2.971  1.7413  2.1853  1.6031
  245SOL     OW  733   1.545   2.468   2.977  0.0761  0.2018 -0.2726
  245SOL    HW1  734   1.508   2.415   3.055 -1.3453  2.1238 -0.1295
  245SOL    HW2  735   1.639   2.494   3.004 -0.4800 -0.4902  0.1282
  246SOL     OW  736   0.619   1.024   2.351 -0.0105  0.0119 -0.3918
  246SOL    HW1  737   0.574   0.959   2.288  3.7595 -1.4450 -0.1312
  246SOL    HW2  738   0.549   1.061   2.420 -2.1637  1.7741  1.1919
  247SOL     OW  739   3.093   0.580   2.409  0.1309  0.3725 -0.1124
  247SOL    HW1  740   3.091   0.495   2.355 -0.6911  2.3396 -1.0031
  247SOL    HW2  741   0.069   0.587   2.475  0.0153 -0.5497  2.2356
  248SOL     OW  742   0.165   1.363   1.989  0.5119 -0.5548 -0.1201
  248SOL    HW1  743   0.072   1.327   2.017 -0.1657 -1.0020  3.6740
  248SOL    HW2  744   0.227   1.281   1.991 -1.7548  0.7306 -0.8933
  249SOL     OW  745   3.056   0.290   0.281  0.3926 -0.0099  0.1192
  249SOL    HW1  746   0.053   0.312   0.267  1.4787 -2.9814 -0.7432
  249SOL    HW2  747   3.010   0.326   0.367 -0.9522 -1.3941 -1.4065
  250SOL     OW  748   2.776   0.182   2.971  0.2177 -0.3065  0.3108
  250SOL    HW1  749   2.781   0.096   2.920  3.1578  1.7517 -0.0102
  250SOL    HW2  750   2.696   0.243   2.935 -4.3165 -1.6141 -0.1831
  251SOL     OW  751   1.026   1.659   1.904  0.2434  0.0587 -0.0643
  251SOL    HW1  752   1.010   1.751   1.949 -0.3736  0.7663  2.2545
  251SOL    HW2  753   1.080   1.671   1.821  0.4377  1.2848  2.8602
  252SOL     OW  754   2.233   1.723   1.382 -0.4015 -0.1003  0.6543
  252SOL    HW1  755   2.266   1.636   1.342  1.2606  1.4712  0.6915
  252SOL    HW2  756   2.172   1.701   1.463  1.2342 -0.3632  0.5898
  253SOL     OW  757   1.918   2.267   2.261 -0.8661  0.4537  0.2602
  253SOL    HW1  758   1.917   2.304   2.162  3.2481 -0.8229  1.7145
  253SOL    HW2  759   1.927   2.346   2.323 -0.8262 -1.8140  1.2532
  254SOL     OW  760   0.625   2.464   2.083 -0.0332  0.2673 -0.1678
  254SOL    HW1  761   0.648   2.407   2.005 -0.2479  1.0202  0.1293
  254SOL    HW2  762   0.701   2.534   2.094 -1.8318 -1.0525 -0.0903
  255SOL     OW  763   1.109   0.465   0.760  0.2266  0.5289 -1.0130
  255SOL    HW1  764   1.149   0.518   0.684  1.2857 -0.3081 -2.4939
  255SOL    HW2  765   1.041   0.523   0.808 -2.1135 -1.0230  0.7405
  256SOL     OW  766   2.321   2.153   1.418 -0.2371  0.0730  0.1686
  256SOL    HW1  767   2.361   2.203   1.338  1.3887 -0.4412  2.3011
  256SOL    HW2  768   2.258   2.079   1.383 -1.5599 -0.1293  0.1701
  257SOL     OW  769   0.498   2.547   2.814  0.2321  0.0504  0.5874
  257SOL    HW1  770   0.533   2.470   2.860 -1.7807 -0.6267 -0.0188
  257SOL    HW2  771   0.466   2.621   2.874 -1.9174 -2.3891  0.4786
  258SOL     OW  772   0.340   0.812   2.354 -0.1234  0.1568  0.5472
  258SOL    HW1  773   0.382   0.737   2.414  2.6439 -1.4093  1.0446
  258SOL    HW2  774   0.389   0.828   2.267 -0.7866  0.3535 -3.3822
  259SOL     OW  775   0.852   1.158   2.250 -0.3410  0.0702  0.4031
  259SOL    HW1  776   0.812   1.239   2.203  1.0266 -1.5455 -2.9918
  259SOL    HW2  777   0.781   1.115   2.311  2.4943  2.3106 -0.7860
  260SOL     OW  778   2.046   0.844   0.757 -0.2232 -0.2573 -0.3812
  260SOL    HW1  779   2.036   0.765   0.820  1.0668  1.1212  0.9842
  260SOL    HW2  780   2.145   0.870   0.746  0.6574 -1.1693 -0.1067
  261SOL     OW  781   0.878   0.250   0.757  0.5409 -0.2549 -0.1991
  261SOL    HW1  782   0.886   0.239   0.658 -0.8115 -0.6602 -2.5103
  261SOL    HW2  783   0.964   0.255   0.809 -3.4085  0.6520 -2.0261
  262SOL     OW  784   2.208   2.557   2.338  0.4323 -0.0494  0.3613
  262SOL    HW1  785   2.223   2.624   2.414 -1.2228 -1.1163  1.8006
  262SOL    HW2  786   2.235   2.465   2.374  1.9642 -2.1822  0.1014
  263SOL     OW  787   0.521   1.548   3.006  0.1583  0.3155  0.0063
  263SOL    HW1  788   0.545   1.508   2.916  1.4171  0.0879 -1.7830
  263SOL    HW2  789   0.472   1.639   2.994 -0.3170 -2.8006  0.7621
  264SOL     OW  790   0.197   1.760   1.476 -0.2931 -0.9646 -0.1239
  264SOL    HW1  791   0.172   1.729   1.569  2.5794 -2.7374 -1.4154
  264SOL    HW2  792   0.196   1.861   1.467  1.3881  0.0912  1.2676
  265SOL     OW  793   1.010   0.755   0.625 -0.2594 -0.3362 -0.5738
  265SOL    HW1  794   0.970   0.712   0.541  0.3640  0.5820 -0.1424
  265SOL    HW2  795   0.955   0.732   0.704  0.1630 -0.3863 -2.1721
  266SOL     OW  796   1.168   1.839   3.090  0.3498 -0.0159  0.3107
  266SOL    HW1  797   1.255   1.802   0.020 -1.4890  1.8150 -3.8652
  266SOL    HW2  798   1.137   1.785   3.003 -3.6066 -0.3516 -2.2293
  267SOL     OW  799   0.407   0.435   2.977 -0.6413  0.2694 -0.3153
  267SOL    HW1  800   0.341   0.362   2.983  0.8207  0.8041 -1.0017
  267SOL    HW2  801   0.492   0.405   2.934 -0.5712  0.2499  0.5048
  268SOL     OW  802   0.846   0.470   2.794 -0.3807  0.1491 -0.3423
  268SOL    HW1  803   0.887   0.381   2.762 -1.0521 -0.3173  1.7938
  268SOL    HW2  804   0.818   0.522   2.712  0.4633 -2.5175  0.4389
  269SOL     OW  805   1.781   0.074   2.378  0.5967 -0.8287  0.0135
  269SOL    HW1  806   1.749   3.081   2.367 -0.9495  1.1344 -0.9656
  269SOL    HW2  807   1.710   0.139   2.350  2.1054  1.0875  0.8035
  270SOL     OW  808   0.720   0.690   2.649  0.5340 -0.3106 -0.4027
  270SOL    HW1  809   0.766   0.715   2.562  0.3388 -1.9301  0.4008
  270SOL    HW2  810   0.678   0.771   2.696 -0.4219  2.5448  0.7556
  271SOL     OW  811   0.157   0.868   0.244 -0.0430 -0.3042 -0.6763
  271SOL    HW1  812   0.173   0.965   0.282  1.1882  0.7987  0.3185
  271SOL    HW2  813   0.230   0.806   0.277 -2.1435 -1.5237 -0.1879
  272SOL     OW  814   2.143   1.182   2.496 -0.6535 -0.2550 -0.1679
  272SOL    HW1  815   2.079   1.200   2.418 -0.1868 -1.5046  2.2873
  272SOL    HW2  816   2.218   1.116   2.475 -0.9735 -0.9591 -1.0469
  273SOL     OW  817   0.008   0.336   2.246  0.2623 -0.0231 -0.1769
  273SOL    HW1  818   0.083   0.266   2.237  1.2111  1.5033 -2.4994
  273SOL    HW2  819   3.074   0.370   2.159  1.6219 -0.3254 -0.7285
  274SOL     OW  820   2.591   0.274   1.992  0.2024  0.2635 -0.1308
  274SOL    HW1  821   2.572   0.194   2.052 -0.8931 -1.3329 -0.4145
  274SOL    HW2  822   2.676   0.263   1.942 -1.7501 -1.9322  0.7017
  275SOL     OW  823   1.908   1.348   0.276 -0.4384 -0.0992 -0.2129
  275SOL    HW1  824   1.876   1.330   0.179 -0.6141 -1.6773  1.3256
  275SOL    HW2  825   1.837   1.390   0.335 -0.1751  1.3911 -0.6571
  276SOL     OW  826   0.092   1.143   2.825 -0.6799 -0.3962 -0.1121
  276SOL    HW1  827   0.061   1.044   2.836  0.8464  1.9588  0.0598
  276SOL    HW2  828   0.010   1.206   2.809 -0.9910  0.5385 -1.6875
  277SOL     OW  829   1.883   2.769   2.066  0.3289  0.2786 -0.2983
  277SOL    HW1  830   1.968   2.722   2.035  0.9386  2.5721 -1.1419
  277SOL    HW2  831   1.882   2.800   2.165 -2.5610  2.4116 -1.1281
  278SOL     OW  832   1.908   3.090   1.245  0.3751 -0.5187 -0.3495
  278SOL    HW1  833   1.845   3.021   1.205 -0.5780 -2.7435 -1.0181
  278SOL    HW2  834   1.879   0.003   1.341 -0.3599 -1.9879 -1.6344
  279SOL     OW  835   1.028   1.267   2.862  0.6974  0.6224  0.1942
  279SOL    HW1  836   1.121   1.258   2.898 -2.6529  1.4329  0.3749
  279SOL    HW2  837   0.955   1.254   2.934 -0.3641  0.0660 -2.1488
  280SOL     OW  838   0.756   1.241   0.413 -0.2714 -0.9509 -0.2804
  280SOL    HW1  839   0.712   1.294   0.340 -0.7756 -0.5963  3.1872
  280SOL    HW2  840   0.842   1.291   0.436 -0.0873 -0.0042  0.9131
  281SOL     OW  841   0.281   3.099   1.642 -0.0528 -0.0130 -0.4278
  281SOL    HW1  842   0.343   3.053   1.712 -2.3221  0.7328  0.9007
  281SOL    HW2  843   0.323   0.013   1.551  0.9474 -1.3350  1.6793
  282SOL     OW  844   0.329   2.131   0.999  0.7337  0.0861  0.3880
  282SOL    HW1  845   0.410   2.181   1.028 -0.3649 -1.7201 -1.1625
  282SOL    HW2  846   0.292   2.082   1.080  1.2375 -1.0471  3.6884
  283SOL     OW  847   1.320   2.249   2.146  0.4738 -0.0785  0.1850
  283SOL    HW1  848   1.263   2.331   2.143 -0.9806  1.2922 -0.0280
  283SOL    HW2  849   1.385   2.246   2.065 -0.7228  0.6190  0.7630
  284SOL     OW  850   2.428   1.081   0.282  0.5786 -0.7562  0.0914
  284SOL    HW1  851   2.469   1.081   0.374  0.5035 -0.8791  0.1759
  284SOL    HW2  852   2.498   1.062   0.202  3.4120 -1.7595 -1.3277
  285SOL     OW  853   2.906   2.826   2.730 -0.2199  0.0472  0.0296
  285SOL    HW1  854   2.895   2.757   2.655 -1.5317  1.9377 -0.1461
  285SOL    HW2  855   2.958   2.792   2.809  0.8958 -1.8251 -1.3457
  286SOL     OW  856   1.976   2.836   1.017  0.2756 -0.5747 -0.4801
  286SOL    HW1  857   2.076   2.839   1.031 -0.1580  0.6566 -1.0903
  286SOL    HW2  858   1.918   2.794   1.092 -1.5477 -3.0314  1.3993
  287SOL     OW  859   0.578   1.315   1.062 -0.1400 -0.1605  0.1504
  287SOL    HW1  860   0.610   1.227   1.031 -1.1405  1.5380 -2.2958
  287SOL    HW2  861   0.654   1.370   1.112 -0.0960 -0.8124  0.0358
  288SOL     OW  862   1.443   2.272   0.037  0.2957  0.2979 -0.2797
  288SOL    HW1  863   1.398   2.247   0.127 -3.2265  0.1106  0.7837
  288SOL    HW2  864   1.524   2.204   0.022  2.4096  1.0389 -0.7244
  289SOL     OW  865   0.191   1.969   2.579  0.2383  0.0742  0.6260
  289SOL    HW1  866   0.258   2.048   2.571 -1.1525  0.8604 -0.6806
  289SOL    HW2  867   0.159   1.950   2.481  0.8884  0.3718  0.6332
  290SOL     OW  868   1.423   2.111   0.972  0.3349 -0.4278 -0.0670
  290SOL    HW1  869   1.333   2.151   0.948  0.7920  1.7042  1.6734
  290SOL    HW2  870   1.463   2.066   0.889 -1.9781 -1.6453 -3.5836
  291SOL     OW  871   1.551   1.372   3.039 -0.2605 -0.3412 -0.1075
  291SOL    HW1  872   1.595   1.458   2.994 -0.2381  0.2373 -0.4429
  291SOL    HW2  873   1.509   1.387   0.027 -1.2753 -2.1543  1.1174
  292SOL     OW  874   1.493   1.628   1.531  0.2565 -0.3513  0.2199
  292SOL    HW1  875   1.427   1.628   1.450 -3.0869  0.0463  0.8436
  292SOL    HW2  876   1.519   1.732   1.546 -0.0539  1.0270  2.3884
  293SOL     OW  877   1.747   2.835   0.861  0.0226  0.1383 -0.3936
  293SOL    HW1  878   1.828   2.836   0.924 -1.4254 -0.8027 -2.2057
  293SOL    HW2  879   1.750   2.750   0.806  1.2737  0.1336  2.0760
  294SOL     OW  880   2.909   1.537   2.593 -0.2846 -0.3243 -0.5901
  294SOL    HW1  881   2.844   1.551   2.675  1.2277 -1.2640 -0.8801
  294SOL    HW2  882   2.923   1.440   2.562  0.2547 -0.2790  1.2745
  295SOL     OW  883   0.994   2.174   2.770  0.1919  0.2804  0.1811
  295SOL    HW1  884   1.062   2.210   2.706 -1.6365 -0.6987  0.1715
  295SOL    HW2  885   1.038   2.140   2.854  1.9351  1.4426 -0.0065
  296SOL     OW  886   1.633   1.458   2.058 -1.0292 -0.2028 -0.3262
  296SOL    HW1  887   1.694   1.463   1.975 -0.5197 -1.9059  1.2805
  296SOL    HW2  888   1.533   1.480   2.043  0.6127 -4.6504  0.2877
  297SOL     OW  889   2.854   0.609   2.543 -0.5148 -0.0090 -0.1480
  297SOL    HW1  890   2.954   0.601   2.516  2.5465  1.6189 -0.8402
  297SOL    HW2  891   2.809   0.653   2.459  0.8542 -1.7634  0.0890
  298SOL     OW  892   0.983   2.471   2.318 -0.0132  0.0238  0.5095
  298SOL    HW1  893   0.927   2.527   2.382  2.4391 -0.9904  0.4510
  298SOL    HW2  894   0.935   2.380   2.314 -0.2572 -0.4627  0.4487
  299SOL     OW  895   0.925   2.868   2.704 -0.1732  0.0797  0.2910
  299SOL    HW1  896   0.896   2.876   2.606 -0.0656 -3.7793  0.3946
  299SOL    HW2  897   0.841   2.869   2.765 -0.5790  0.2752  1.2229
  300SOL     OW  898   3.035   0.534   2.950  0.1524  0.1988  1.4450
  300SOL    HW1  899   3.034   0.466   3.020  0.8347  3.2293 -1.9522
  300SOL    HW2  900   0.019   0.524   2.903 -0.6078  0.6774 -1.1792
  301SOL     OW  901   1.462   0.708   1.324  0.6590  0.1934 -0.6413
  301SOL    HW1  902   1.388   0.655   1.361  0.3185 -0.6748 -2.6488
  301SOL    HW2  903   1.426   0.776   1.259 -0.6342 -0.2929  2.6020
  302SOL     OW  904   2.694   2.043   2.875  0.2192  0.0018 -0.2416
  302SOL    HW1  905   2.717   2.122   2.817  1.5973 -0.5456 -0.3263
  302SOL    HW2  906   2.739   1.961   2.839 -2.0855  3.1425 -2.4238
  303SOL     OW  907   0.104   0.163   2.547 -0.1619 -0.0835 -0.0084
  303SOL    HW1  908   0.154   0.221   2.476  2.1299  1.6016 -1.2787
  303SOL    HW2  909   0.062   0.230   2.616 -0.2716 -0.5465  2.5930
  304SOL     OW  910   2.646   0.764   1.474  0.0376 -0.2008 -0.1930
  304SOL    HW1  911   2.651   0.866   1.452  1.7804  0.4467  0.9149
  304SOL    HW2  912   2.648   0.717   1.387 -3.3559 -0.9170 -0.3924
  305SOL     OW  913   0.130   0.114   1.976  0.0719 -0.0996  0.4517
  305SOL    HW1  914   0.060   0.188   1.983 -1.2430  1.5524  3.6408
  305SOL    HW2  915   0.107   0.047   1.904 -1.1838 -0.9914 -1.7760
  306SOL     OW  916   2.821   1.477   1.466  0.1105  0.8639 -0.2461
  306SOL    HW1  917   2.879   1.421   1.531  0.4300  0.1636  0.7885
  306SOL    HW2  918   2.737   1.427   1.433 -0.5277  1.1429  1.4564
  307SOL     OW  919   1.927   0.208   1.103 -0.1491 -0.0509 -0.1999
  307SOL    HW1  920   1.885   0.267   1.175  2.5472  0.0414 -0.7363
  307SOL    HW2  921   1.925   0.109   1.131 -2.4249 -0.2300  0.1887
  308SOL     OW  922   0.263   2.063   1.415  0.0124  0.3355 -0.3170
  308SOL    HW1  923   0.228   2.022   1.327 -1.6008  0.6153  1.0985
  308SOL    HW2  924   0.198   2.138   1.443  1.0111 -0.0939 -0.4114
  309SOL     OW  925   2.411   1.714   1.598 -0.6474  0.1860 -0.1983
  309SOL    HW1  926   2.363   1.704   1.512  1.1968  0.5503  3.0860
  309SOL    HW2  927   2.416   1.810   1.628  0.5393 -0.7091  1.8833
  310SOL     OW  928   2.776   1.632   0.176  0.1780 -1.0793 -0.6565
  310SOL    HW1  929   2.839   1.706   0.140 -0.8339 -1.0934 -0.1313
  310SOL    HW2  930   2.770   1.642   0.277  0.7293  1.3796 -0.9581
  311SOL     OW  931   2.282   1.434   2.508 -0.3054  0.5650  0.0492
  311SOL    HW1  932   2.266   1.339   2.485 -1.3189  2.1135 -0.2547
  311SOL    HW2  933   2.243   1.460   2.600  0.9664  0.3813  1.7602
  312SOL     OW  934   2.261   2.331   1.019  0.4022 -0.6388  0.0452
  312SOL    HW1  935   2.253   2.229   1.022 -1.4858 -3.9170 -0.1829
  312SOL    HW2  936   2.324   2.364   0.940 -0.6138  1.4280 -2.3598
  313SOL     OW  937   0.016   2.528   1.019  0.6194  0.1165 -0.2222
  313SOL    HW1  938   0.075   2.456   0.979 -0.4721  0.6635  0.7791
  313SOL    HW2  939   3.027   2.489   1.043 -2.4703 -0.4767 -0.9654
  314SOL     OW  940   1.195   2.055   1.326  0.1695  0.1622  0.7135
  314SOL    HW1  941   1.264   2.125   1.308 -3.2852 -3.1412  0.2878
  314SOL    HW2  942   1.161   2.057   1.423 -1.5816 -0.1941 -0.0985
  315SOL     OW  943   0.378   2.991   2.378 -0.0532 -0.6727 -0.0597
  315SOL    HW1  944   0.468   3.037   2.388  2.2620 -0.2592 -1.4737
  315SOL    HW2  945   0.329   3.019   2.294  0.7900 -0.2054  2.3686
  316SOL     OW  946   3.004   2.025   0.912 -0.5406 -0.2930 -0.1617
  316SOL    HW1  947   3.061   2.003   0.826  2.4511 -3.1297 -1.4534
  316SOL    HW2  948   2.999   1.946   0.974  0.0136  2.5906  2.0663
  317SOL     OW  949   1.766   0.128   0.299 -0.5693 -0.1549 -0.5207
  317SOL    HW1  950   1.672   0.156   0.321 -1.9435 -1.9057 -2.2078
  317SOL    HW2  951   1.830   0.157   0.375 -0.2185  0.3945 -0.1745
  318SOL     OW  952   2.875   2.547   0.178  0.3612  0.2260  0.3326
  318SOL    HW1  953   2.813   2.566   0.100  0.7576 -1.7490  1.7907
  318SOL    HW2  954   2.840   2.588   0.261  2.2699 -1.9981 -0.9479
  319SOL     OW  955   1.430   1.522   0.163  0.2981 -0.1121 -0.1020
  319SOL    HW1  956   1.441   1.543   0.262 -0.5750  2.8799  1.3592
  319SOL    HW2  957   1.426   1.611   0.113 -0.5717  0.1770 -0.2964
  320SOL     OW  958   0.588   2.986   2.695 -0.6668  0.5432  0.5244
  320SOL    HW1  959   0.566   2.919   2.619 -1.0575  2.2296  0.5288
  320SOL    HW2  960   0.502   3.017   2.738  0.7106 -3.0113 -1.0778
  321SOL     OW  961   0.948   3.093   0.111 -0.1412  0.3277 -0.3548
  321SOL    HW1  962   0.959   3.006   0.163  0.4707 -1.1869 -0.5814
  321SOL    HW2  963   0.960   3.079   0.014  1.4899 -2.3768  1.7223
  322SOL     OW  964   2.505   1.134   1.993 -0.2575 -0.3443 -0.1244
  322SOL    HW1  965   2.426   1.110   2.053  1.4027  0.7695  1.3507
  322SOL    HW2  966   2.556   1.218   2.018 -0.0043 -1.3002 -2.9692
  323SOL     OW  967   2.665   0.996   0.457 -0.1055  0.2450  0.1885
  323SOL    HW1  968   2.670   0.900   0.420  0.4254 -0.1407  2.8614
  323SOL    HW2  969   2.691   1.074   0.395 -0.9794 -1.0019  0.5888
  324SOL     OW  970   0.138   0.526   2.635  0.2274 -0.8648 -0.8707
  324SOL    HW1  971   0.163   0.588   2.720  4.1110  2.1295  1.3248
  324SOL    HW2  972   0.214   0.459   2.621 -1.7252 -2.3006  1.8339
  325SOL     OW  973   1.280   2.783   1.910 -0.4339  0.4410 -0.0692
  325SOL    HW1  974   1.340   2.787   1.829 -2.7656 -1.3192  0.6951
  325SOL    HW2  975   1.191   2.771   1.865  0.8239  1.1958  0.1550
  326SOL     OW  976   2.530   2.917   1.312  0.1094 -0.0695  0.5119
  326SOL    HW1  977   2.540   3.019   1.325 -1.1655  0.6979  0.9730
  326SOL    HW2  978   2.559   2.896   1.215 -0.7884 -1.7150  0.2029
  327SOL     OW  979   1.876   0.772   0.090  0.1259  0.4497 -0.3050
  327SOL    HW1  980   1.831   0.680   0.083  1.3469 -1.8828  0.2467
  327SOL    HW2  981   1.976   0.766   0.072 -1.2607  1.0152  0.6566
  328SOL     OW  982   2.880   1.609   2.134 -0.0177  0.3437 -0.0373
  328SOL    HW1  983   2.953   1.681   2.136 -0.1865  1.2792  0.4113
  328SOL    HW2  984   2.909   1.525   2.187  2.0287 -0.1103  0.2508
  329SOL     OW  985   1.694   2.476   1.795 -0.5119  0.3895  0.1417
  329SOL    HW1  986   1.736   2.383   1.809  1.8277  0.7890 -0.9594
  329SOL    HW2  987   1.708   2.500   1.695 -1.5828 -1.1265 -1.1033
  330SOL     OW  988   2.534   1.492   1.812 -0.7120  0.3412 -0.1649
  330SOL    HW1  989   2.611   1.545   1.774  2.2842 -0.5716  1.3382
  330SOL    HW2  990   2.502   1.532   1.902 -0.1281 -0.5963  3.2312
  331SOL     OW  991   3.043   2.152   0.531 -0.1025  0.0340  0.0540
  331SOL    HW1  992   3.071   2.069   0.586 -0.7131 -3.2997 -0.1010
  331SOL    HW2  993   3.095   2.228   0.570 -1.0769  0.2060 -0.6633
  332SOL     OW  994   0.394   0.145   0.509  0.0992  0.2966 -0.4397
  332SOL    HW1  995   0.363   0.222   0.458  3.4511 -1.8482 -0.2076
  332SOL    HW2  996   0.328   0.122   0.586 -2.2475  0.4544  1.7276
  333SOL     OW  997   2.178   2.928   2.254  0.2271  0.5580 -0.4945
  333SOL    HW1  998   2.225   2.862   2.191  1.1037  2.7699  0.7065
  333SOL    HW2  999   2.184   3.018   2.216 -1.0071 -4.6787  2.0050
  334SOL     OW 1000   1.069   1.311   0.967 -0.0731  0.4558  0.2223
  334SOL    HW1 1001   1.076   1.303   0.864  2.2092 -0.7520 -0.3249
  334SOL    HW2 1002   1.137   1.383   0.996  2.4518  2.9787 -1.3228
  335SOL     OW 1003   0.027   2.892   2.399 -0.5864  0.0542 -0.1719
  335SOL    HW1 1004   0.107   2.825   2.401  0.2083  0.9787  0.5801
  335SOL    HW2 1005   3.100   2.926   2.490 -0.0659  2.0654 -0.5025
  336SOL     OW 1006   2.898   2.815   2.021 -0.7359 -0.6570  0.3377
  336SOL    HW1 1007   2.935   2.892   2.076 -0.8059 -2.0791 -1.7641
  336SOL    HW2 1008   2.962   2.779   1.944  2.2576 -1.8918 -4.2825
  337SOL     OW 1009   2.098   1.491   0.656  0.2306  0.4522  0.3687
  337SOL    HW1 1010   2.165   1.489   0.737 -0.0787  1.6509  1.7855
  337SOL    HW2 1011   2.042   1.408   0.655 -0.6364 -0.3626  1.1711
  338SOL     OW 1012   1.201   1.781   1.202 -0.2821 -0.3369 -0.1701
  338SOL    HW1 1013   1.188   1.842   1.282 -0.2843 -1.0458 -2.6330
  338SOL    HW2 1014   1.298   1.799   1.168  1.7531 -3.1760 -0.5997
  339SOL     OW 1015   2.825   0.568   1.079 -0.0872 -0.0947  0.4413
  339SOL    HW1 1016   2.917   0.556   1.130 -1.6491 -2.1353 -1.1965
  339SOL    HW2 1017   2.762   0.628   1.131 -0.4354  2.5102  1.4666
  340SOL     OW 1018   1.681   2.724   1.904  0.3666  0.6107  0.1241
  340SOL    HW1 1019   1.676   2.623   1.880  1.0877 -1.2307 -0.7164
  340SOL    HW2 1020   1.758   2.745   1.966  1.0873  1.1154 -0.0954
  341SOL     OW 1021   2.256   1.491   0.873 -0.1446  0.3236  0.3702
  341SOL    HW1 1022   2.358   1.482   0.887 -0.2577  0.1780  3.5614
  341SOL    HW2 1023   2.205   1.457   0.956 -1.0950 -2.9708  0.5491
  342SOL     OW 1024   0.017   1.922   0.695  0.2958  0.1126  0.1662
  342SOL    HW1 1025   0.102   1.862   0.699 -2.1603 -1.4336 -0.6195
  342SOL    HW2 1026   3.040   1.863   0.658 -2.5216 -1.7005  0.1980
  343SOL     OW 1027   2.593   1.031   1.393  0.2774  0.2070  0.1072
  343SOL    HW1 1028   2.500   1.067   1.398  1.2886  3.1128 -0.5048
  343SOL    HW2 1029   2.653   1.065   1.469 -0.1180  1.7838  1.0031
  344SOL     OW 1030   2.092   0.470   0.753 -0.4380  0.1424 -0.5899
  344SOL    HW1 1031   2.015   0.415   0.783  1.8298  2.6029  0.1064
  344SOL    HW2 1032   2.097   0.548   0.819 -3.1184 -0.3799 -0.3498
  345SOL     OW 1033   3.043   3.004   2.169 -0.3802 -0.0298 -0.3648
  345SOL    HW1 1034   3.084   2.969   2.260 -0.8281  0.1425  1.2920
  345SOL    HW2 1035   2.960   3.062   2.178  1.3403  0.1196  1.6808
  346SOL     OW 1036   3.066   1.336   0.431 -0.1913 -0.0309 -0.3231
  346SOL    HW1 1037   2.985   1.277   0.421  2.9570 -0.4008  1.0354
  346SOL    HW2 1038   0.006   1.363   0.344  0.1902 -0.6995 -0.8484
  347SOL     OW 1039   1.888   2.728   1.476  0.1165  0.1928 -0.0909
  347SOL    HW1 1040   1.899   2.802   1.551 -0.1074  1.6921  1.6388
  347SOL    HW2 1041   1.829   2.655   1.517  1.6308  0.5888  0.1400
  348SOL     OW 1042   1.163   1.079   1.845  0.0495 -0.1764 -0.3772
  348SOL    HW1 1043   1.214   1.155   1.889  0.7770 -1.5222  1.6946
  348SOL    HW2 1044   1.066   1.095   1.814 -2.2420  1.3697  1.3739
  349SOL     OW 1045   2.142   1.596   2.320 -0.5377  0.8488  0.4433
  349SOL    HW1 1046   2.166   1.532   2.397  1.0145 -3.2336 -0.4313
  349SOL    HW2 1047   2.223   1.644   2.284 -2.0203 -2.3483 -2.1338
  350SOL     OW 1048   2.778   2.144   0.582 -0.2242  0.0223 -0.7050
  350SOL    HW1 1049   2.752   2.113   0.488 -0.9123  0.4460 -3.0120
  350SOL    HW2 1050   2.878   2.156   0.583 -1.2747 -0.4023 -2.5489
  351SOL     OW 1051   0.256   0.274   1.727 -0.1813 -0.6894  0.4419
  351SOL    HW1 1052   0.236   0.184   1.688  2.6970 -0.7450  0.6350
  351SOL    HW2 1053   0.174   0.314   1.771  0.4849 -2.9072 -0.2006
  352SOL     OW 1054   1.369   2.656   1.529  0.6316 -0.0196 -0.3428
  352SOL    HW1 1055   1.334   2.725   1.468  0.2430 -0.1531  2.3464
  352SOL    HW2 1056   1.443   2.688   1.589  1.3047 -1.4333 -1.7325
  353SOL     OW 1057   0.673   1.213   2.601 -0.3662 -0.1427 -0.2785
  353SOL    HW1 1058   0.767   1.248   2.596 -2.4003 -0.2303 -0.6912
  353SOL    HW2 1059   0.625   1.220   2.512  0.9753  1.3868  2.7543
  354SOL     OW 1060   1.494   1.538   0.440 -0.3221  0.1915  0.2064
  354SOL    HW1 1061   1.526   1.630   0.481  0.4956  0.7379 -0.2035
  354SOL    HW2 1062   1.403   1.514   0.482 -2.0148  1.3496  1.3071
  355SOL     OW 1063   1.840   0.013   0.897 -0.0827 -0.1647 -0.4776
  355SOL    HW1 1064   1.773   0.070   0.947 -0.5937 -0.9353 -0.2369
  355SOL    HW2 1065   1.802   3.025   0.873  0.9339 -0.8546  4.0559
  356SOL     OW 1066   3.102   1.358   0.144 -0.1987 -0.3575 -0.1675
  356SOL    HW1 1067   0.091   1.325   0.118 -0.9739  0.6466  0.4140
  356SOL    HW2 1068   3.030   1.298   0.114  2.5186  0.5062  1.8071
  357SOL     OW 1069   0.394   2.948   1.869  0.0573 -1.0787  0.4493
  357SOL    HW1 1070   0.461   3.000   1.925  1.5840  1.5451  2.1352
  357SOL    HW2 1071   0.303   2.938   1.912  3.2306  1.4812 -1.0667
  358SOL     OW 1072   0.325   1.189   3.010 -0.0264 -0.0307 -0.2148
  358SOL    HW1 1073   0.240   1.160   2.962  1.5384  0.7803 -2.8317
  358SOL    HW2 1074   0.308   1.198   0.007 -0.9853 -2.7801  1.5675
  359SOL     OW 1075   2.656   2.572   2.685  0.3241  0.0854  0.1038
  359SOL    HW1 1076   2.599   2.610   2.761 -2.3804 -0.6638  3.2478
  359SOL    HW2 1077   2.697   2.645   2.630  0.4860 -1.0588  3.5930
  360SOL     OW 1078   1.745   1.200   0.929 -0.0304 -0.3656  0.4216
  360SOL    HW1 1079   1.660   1.162   0.971  0.5823 -0.5821 -0.7181
  360SOL    HW2 1080   1.777   1.127   0.865  0.7903 -0.0485  0.1564
  361SOL     OW 1081   2.022   2.457   1.086 -0.0251  0.4824 -0.6731
  361SOL    HW1 1082   2.111   2.406   1.064  3.1327  0.8979 -1.6658
  361SOL    HW2 1083   2.043   2.543   1.138  2.1823 -0.0682  1.6828
  362SOL     OW 1084   1.882   1.517   0.971 -0.3120  0.4732 -0.3757
  362SOL    HW1 1085   1.924   1.607   0.949 -2.6060  0.8951  0.1643
  362SOL    HW2 1086   1.843   1.469   0.888 -1.7933 -0.1733  2.1987
  363SOL     OW 1087   2.486   2.284   0.282 -0.2110  0.8017 -0.1579
  363SOL    HW1 1088   2.410   2.237   0.330  2.2909 -1.1236  0.1985
  363SOL    HW2 1089   2.537   2.220   0.220  1.2676 -0.6058  0.1058
  364SOL     OW 1090   2.902   0.095   1.411  0.1719  0.1380 -0.4184
  364SOL    HW1 1091   2.949   0.111   1.499  1.1572 -0.2969 -3.0000
  364SOL    HW2 1092   2.962   0.037   1.347 -1.0953 -1.7549 -2.6580
  365SOL     OW 1093   0.820   2.868   1.159  0.4671  0.2791 -0.0179
  365SOL    HW1 1094   0.861   2.834   1.073 -0.6484  1.5065  0.9394
  365SOL    HW2 1095   0.873   2.837   1.244  1.2211 -1.7618  0.2602
  366SOL     OW 1096   0.085   1.714   0.445  0.4963 -0.0432 -0.0644
  366SOL    HW1 1097   0.033   1.800   0.412  3.1864  0.8249 -1.3779
  366SOL    HW2 1098   0.152   1.683   0.374  3.1076 -0.2461 -1.2220
  367SOL     OW 1099   2.502   2.647   2.901 -0.1998 -0.3111  0.3227
  367SOL    HW1 1100   2.419   2.703   2.921  0.2524  0.2342 -0.3021
  367SOL    HW2 1101   2.487   2.543   2.913  1.7276 -2.9139 -2.0440
  368SOL     OW 1102   2.504   2.176   0.820 -0.4331  0.0980 -0.3787
  368SOL    HW1 1103   2.495   2.126   0.735  1.8867 -0.9382  1.2808
  368SOL    HW2 1104   2.579   2.133   0.868  0.9623 -1.7383 -1.4876
  369SOL     OW 1105   1.070   1.014   0.567 -0.0272  0.0453  0.0957
  369SOL    HW1 1106   1.045   0.916   0.580 -0.9614 -1.2733  0.7908
  369SOL    HW2 1107   1.090   1.033   0.468  1.7167  0.2039 -0.9814
  370SOL     OW 1108   0.472   3.082   0.804  0.6341  0.1351  0.1371
  370SOL    HW1 1109   0.572   3.097   0.792  1.2066  0.4233 -0.4605
  370SOL    HW2 1110   0.446   2.983   0.815 -2.0122 -0.7163  1.7654
  371SOL     OW 1111   2.580   1.287   2.688 -0.0194  0.0698  0.0278
  371SOL    HW1 1112   2.601   1.352   2.606 -3.6952  5.0479 -0.7214
  371SOL    HW2 1113   2.657   1.220   2.690 -0.0476 -1.8590  2.3792
  372SOL     OW 1114   0.667   0.621   2.235  0.1182  0.1662 -0.1443
  372SOL    HW1 1115   0.598   0.618   2.155  0.3606 -1.0312  0.7920
  372SOL    HW2 1116   0.633   0.544   2.292 -1.0705 -0.3549 -0.0996
  373SOL     OW 1117   0.628   0.326   2.847 -0.4128  0.4506 -0.2552
  373SOL    HW1 1118   0.705   0.391   2.831 -1.5329  2.7648  1.0895
  373SOL    HW2 1119   0.663   0.234   2.890  2.2873  1.0557 -1.3965
  374SOL     OW 1120   0.901   2.131   0.121 -0.8816 -0.4811 -0.0007
  374SOL    HW1 1121   0.944   2.108   0.029  1.6663  0.0309 -1.1093
  374SOL    HW2 1122   0.828   2.069   0.150  4.9923  2.4689 -0.9226
  375SOL     OW 1123   0.758   0.006   0.793 -0.2566 -0.0389  0.5352
  375SOL    HW1 1124   0.786   3.099   0.892 -0.6540  0.3344  0.6348
  375SOL    HW2 1125   0.778   0.100   0.757  3.5971 -0.7091  0.5572
  376SOL     OW 1126   0.386   2.519   1.835 -0.4035 -0.3806 -0.1110
  376SOL    HW1 1127   0.319   2.540   1.914  1.2323  1.3442  1.2910
  376SOL    HW2 1128   0.416   2.610   1.801  2.8953  0.8407  2.0618
  377SOL     OW 1129   2.367   2.092   3.061  0.9323 -0.4988  0.2711
  377SOL    HW1 1130   2.275   2.134   3.061 -0.4487  1.1425  0.7554
  377SOL    HW2 1131   2.388   2.055   2.969 -0.6157  0.4255  0.7915
  378SOL     OW 1132   1.935   0.217   0.498  0.1664 -0.1209 -0.2309
  378SOL    HW1 1133   1.967   0.314   0.489  1.3126 -2.4562 -0.0528
  378SOL    HW2 1134   2.007   0.149   0.513  0.8099 -2.1210 -1.4105
  379SOL     OW 1135   1.338   1.011   0.826  0.6079  0.1897  0.2980
  379SOL    HW1 1136   1.330   1.112   0.814  1.9958  0.7824  0.4681
  379SOL    HW2 1137   1.378   0.965   0.744 -1.8599  1.4993  0.3453
  380SOL     OW 1138   2.455   2.119   1.944  0.1549  0.3858  0.1270
  380SOL    HW1 1139   2.505   2.040   1.978 -2.8955 -2.3213  0.0551
  380SOL    HW2 1140   2.520   2.186   1.903  1.3196 -0.8320 -2.3287
  381SOL     OW 1141   2.988   1.408   2.263 -0.5572 -0.4258  0.4132
  381SOL    HW1 1142   3.003   1.381   2.359 -0.9517  1.1431 -1.0935
  381SOL    HW2 1143   3.002   1.335   2.196 -0.0293  0.3440  1.9050
  382SOL     OW 1144   2.997   2.239   0.003  0.4413  0.4211 -0.1588
  382SOL    HW1 1145   3.079   2.297   0.001 -2.2268  0.2523 -2.2256
  382SOL    HW2 1146   2.965   2.232   0.102 -0.3674  2.4222  1.3815
  383SOL     OW 1147   1.312   0.921   2.275  0.1717  0.2231 -0.1558
  383SOL    HW1 1148   1.233   0.963   2.231 -1.6043 -0.0984  1.1918
  383SOL    HW2 1149   1.276   0.873   2.360  0.4424 -2.2438 -0.8041
  384SOL     OW 1150   1.183   2.117   2.359 -0.8217  0.0752  1.0238
  384SOL    HW1 1151   1.249   2.132   2.280 -0.2064 -0.2061 -1.9741
  384SOL    HW2 1152   1.083   2.115   2.332 -0.7718 -0.9249 -0.9125
  385SOL     OW 1153   2.196   2.579   0.046  0.4353  0.1486  0.1320
  385SOL    HW1 1154   2.187   2.516   3.067  1.2819  1.1901 -2.8141
  385SOL    HW2 1155   2.288   2.572   0.092  2.6959  2.1760 -1.9719
  386SOL     OW 1156   1.596   1.208   0.661  0.1590  0.2101  0.2878
  386SOL    HW1 1157   1.523   1.263   0.704 -3.6325  2.9410  0.2757
  386SOL    HW2 1158   1.579   1.106   0.667 -1.7344  1.8560  1.7448
  387SOL     OW 1159   0.094   1.654   1.714  0.2744  0.2624  0.3378
  387SOL    HW1 1160   0.056   1.645   1.808  0.4253  2.7349  1.1932
  387SOL    HW2 1161   0.129   1.568   1.674  0.1625  0.7129  0.7565
  388SOL     OW 1162   0.660   1.312   1.571 -0.0022  0.0592 -0.2780
  388SOL    HW1 1163   0.747   1.298   1.520 -3.1192 -1.2287 -0.0148
  388SOL    HW2 1164   0.591   1.245   1.546 -0.3260  3.0111 -0.3100
  389SOL     OW 1165   2.305   1.061   2.166  0.1893  0.4526 -0.0093
  389SOL    HW1 1166   2.303   1.041   2.268 -1.9952 -1.1020 -1.9256
  389SOL    HW2 1167   2.253   1.148   2.158  2.1148  0.2481 -1.4169
  390SOL     OW 1168   1.174   1.720   0.371 -0.2254  0.0884 -0.2209
  390SOL    HW1 1169   1.126   1.775   0.439  1.9832 -1.3509 -2.7994
  390SOL    HW2 1170   1.219   1.639   0.418 -0.8637 -0.4993 -0.3907
  391SOL     OW 1171   1.026   1.847   0.577 -0.1856  0.1778 -0.4338
  391SOL    HW1 1172   1.049   1.773   0.648 -1.3885 -5.4179  1.4934
  391SOL    HW2 1173   0.934   1.891   0.601  0.3147 -1.8833 -2.5169
  392SOL     OW 1174   2.688   2.626   1.990 -0.0122  0.1887  0.3155
  392SOL    HW1 1175   2.688   2.540   2.047  0.8146 -0.5533 -0.3666
  392SOL    HW2 1176   2.769   2.684   2.000 -1.6001  2.5000 -0.2372
  393SOL     OW 1177   1.241   2.287   2.975 -0.0208  0.2050 -0.6801
  393SOL    HW1 1178   1.305   2.300   3.054  1.7412  4.0906 -0.6446
  393SOL    HW2 1179   1.224   2.377   2.930 -0.0625  0.4449 -1.9937
  394SOL     OW 1180   0.269   0.254   2.344  0.6024 -0.1206 -0.1565
  394SOL    HW1 1181   0.259   0.338   2.285  1.4266  0.6613  1.9208
  394SOL    HW2 1182   0.316   0.181   2.290 -1.6069  0.3736  3.8576
  395SOL     OW 1183   0.011   0.805   1.167 -0.6544 -0.4061 -0.5786
  395SOL    HW1 1184   0.077   0.883   1.178  0.5777 -2.2241  1.0871
  395SOL    HW2 1185   0.044   0.751   1.086  0.9272 -0.4703 -0.2973
  396SOL     OW 1186   2.176   1.498   2.777  0.1135  0.0148  0.5471
  396SOL    HW1 1187   2.077   1.484   2.757 -1.2598  1.7426  2.7785
  396SOL    HW2 1188   2.186   1.568   2.849 -1.6748 -0.3735 -0.1122
  397SOL     OW 1189   0.431   0.904   2.968 -0.5654 -0.2292  0.3578
  397SOL    HW1 1190   0.457   0.956   3.053 -2.5440 -0.1405  3.8009
  397SOL    HW2 1191   0.487   0.934   2.885 -1.2598  1.3430 -2.5272
  398SOL     OW 1192   0.976   2.581   0.508 -0.6078  0.2460  0.5190
  398SOL    HW1 1193   1.076   2.573   0.483 -1.6164 -0.7833  2.8147
  398SOL    HW2 1194   0.949   2.681   0.504 -2.5202  2.5743  2.2258
  399SOL     OW 1195   2.179   2.652   2.080  0.0010  0.0250 -0.0313
  399SOL    HW1 1196   2.175   2.626   2.181 -1.7779 -0.4876  0.9089
  399SOL    HW2 1197   2.190   2.569   2.023 -2.4217 -1.2806  1.5667
  400SOL     OW 1198   0.335   1.455   1.780  0.4641  0.3558  0.1478
  400SOL    HW1 1199   0.290   1.440   1.869 -0.2775 -0.7758  0.2202
  400SOL    HW2 1200   0.403   1.532   1.779  0.5276 -1.1791  0.0029
  401SOL     OW 1201   0.670   0.929   0.669 -0.0623 -0.0090 -0.0908
  401SOL    HW1 1202   0.672   0.863   0.748 -0.3977  1.2786  1.9239
  401SOL    HW2 1203   0.612   0.896   0.590  0.2594 -0.7939  0.1963
  402SOL     OW 1204   0.972   3.065   2.297  0.2424  0.0613  0.1792
  402SOL    HW1 1205   1.039   0.018   2.344 -4.9352 -1.9904 -2.4216
  402SOL    HW2 1206   0.905   0.018   2.247  1.2183  1.9060  0.3441
  403SOL     OW 1207   2.600   1.882   1.974  0.2942 -0.0319 -0.0514
  403SOL    HW1 1208   2.585   1.788   2.009  1.4241 -2.1102  0.8975
  403SOL    HW2 1209   2.672   1.871   1.900 -1.2734  0.8892 -0.0515
  404SOL     OW 1210   2.698   2.295   1.825  0.0648  0.2714  0.1308
  404SOL    HW1 1211   2.772   2.314   1.895  1.2397  0.5819  1.9305
  404SOL    HW2 1212   2.701   2.201   1.780  0.5453 -1.8224  0.3504
  405SOL     OW 1213   1.977   3.039   2.698  0.4410  0.6481 -0.2044
  405SOL    HW1 1214   1.941   3.013   2.606 -2.1117 -0.8930 -0.0622
  405SOL    HW2 1215   2.031   0.020   2.700 -0.2124  1.5169 -0.2763
  406SOL     OW 1216   0.981   1.775   0.184 -0.3517 -0.1900  0.0930
  406SOL    HW1 1217   1.032   1.804   0.099 -1.9800 -0.1251 -0.7017
  406SOL    HW2 1218   1.049   1.754   0.258 -2.6787  1.4679 -0.9138
  407SOL     OW 1219   1.727   1.386   0.481 -0.2158  0.6579 -0.1303
  407SOL    HW1 1220   1.645   1.443   0.465 -1.3408  2.3216  2.1557
  407SOL    HW2 1221   1.698   1.300   0.529  0.7506 -1.2731  3.1983
  408SOL     OW 1222   0.173   0.524   1.558 -0.3159 -0.0842 -0.0158
  408SOL    HW1 1223   0.105   0.491   1.632 -2.8332 -1.7829 -1.9768
  408SOL    HW2 1224   0.268   0.545   1.595  4.0696 -1.0381  1.4790
  409SOL     OW 1225   2.754   1.441   3.090  0.4050 -0.0912 -0.3270
  409SOL    HW1 1226   2.658   1.397   3.097 -2.4517 -0.1905 -1.1212
  409SOL    HW2 1227   2.764   1.512   0.058 -2.1883 -3.7095 -0.5262
  410SOL     OW 1228   2.772   2.665   0.689  0.1481  0.7699 -0.2162
  410SOL    HW1 1229   2.846   2.698   0.750  2.6052  2.1167 -1.0626
  410SOL    HW2 1230   2.753   2.566   0.698  3.7689  1.2657 -2.0459
  411SOL     OW 1231   0.494   0.472   0.365  0.3223 -0.1143  0.0358
  411SOL    HW1 1232   0.531   0.473   0.462  0.0641  2.5921 -0.6672
  411SOL    HW2 1233   0.539   0.406   0.301  0.6421  2.1975  0.0106
  412SOL     OW 1234   1.375   2.772   0.499  0.5072  0.0852  0.1996
  412SOL    HW1 1235   1.326   2.857   0.465  1.2610  1.3592  2.0954
  412SOL    HW2 1236   1.312   2.693   0.509  0.5706 -2.4811  0.7517
  413SOL     OW 1237   1.921   0.574   2.108  0.0667  0.2789  0.1112
  413SOL    HW1 1238   1.994   0.509   2.084  0.0487  0.4047 -1.8388
  413SOL    HW2 1239   1.839   0.536   2.055 -0.7850 -3.1301  0.2069
  414SOL     OW 1240   0.188   0.736   0.708  0.1794 -0.5197 -0.2355
  414SOL    HW1 1241   0.098   0.725   0.661  1.8548  2.4286 -0.8193
  414SOL    HW2 1242   0.207   0.834   0.736  1.1581  1.3004  1.5314
  415SOL     OW 1243   3.024   0.997   0.475 -0.2244 -0.0616  0.3202
  415SOL    HW1 1244   2.936   1.017   0.516  0.1872  1.7929  1.0189
  415SOL    HW2 1245   3.013   0.958   0.378 -1.1596 -4.0084 -1.6675
  416SOL     OW 1246   2.535   0.564   2.733 -0.1036 -0.2759  0.5315
  416SOL    HW1 1247   2.532   0.566   2.630  1.5463 -1.8707 -0.5120
  416SOL    HW2 1248   2.614   0.622   2.765  1.2304  1.5629 -1.4672
  417SOL     OW 1249   2.282   0.291   0.672 -0.3001 -0.8420  0.5491
  417SOL    HW1 1250   2.215   0.373   0.679  0.3979  1.6516 -1.6898
  417SOL    HW2 1251   2.354   0.306   0.600  3.0416 -2.1526  1.9551
  418SOL     OW 1252   0.523   0.067   0.036  0.4655 -0.1798  0.3887
  418SOL    HW1 1253   0.580   0.133   0.085 -2.2956 -1.2865 -0.8754
  418SOL    HW2 1254   0.427   0.098   0.045  1.7719 -0.5484 -2.4212
  419SOL     OW 1255   0.462   0.657   1.042  0.0905  0.3544 -0.1463
  419SOL    HW1 1256   0.475   0.656   1.142  0.6517  0.0344 -0.0251
  419SOL    HW2 1257   0.414   0.572   1.017 -1.9645 -1.1262  3.7796
  420SOL     OW 1258   2.931   0.913   1.337  0.4282 -0.3613  0.2694
  420SOL    HW1 1259   2.984   0.854   1.271 -0.8802 -1.8579  0.4496
  420SOL    HW2 1260   2.899   1.000   1.292  0.4999  1.1482 -2.7063
  421SOL     OW 1261   0.733   1.742   3.065  0.8161 -0.1709  0.0327
  421SOL    HW1 1262   0.649   1.691   3.034 -2.2285  0.7029 -0.5530
  421SOL    HW2 1263   0.722   1.831   0.006  0.6202 -2.8999 -0.6018
  422SOL     OW 1264   2.491   0.337   2.324  0.1372  0.9355 -0.1031
  422SOL    HW1 1265   2.531   0.426   2.301 -1.8515 -0.8859  1.7880
  422SOL    HW2 1266   2.412   0.314   2.263 -1.3313 -3.5026 -1.6552
  423SOL     OW 1267   1.883   1.421   3.103 -0.1638 -0.0546  0.0850
  423SOL    HW1 1268   1.923   1.511   3.077 -1.0915  0.1109  0.0972
  423SOL    HW2 1269   1.794   1.392   3.064  2.1734  0.9594  0.8144
  424SOL     OW 1270   1.244   1.258   2.041 -0.1469 -0.6694  0.0152
  424SOL    HW1 1271   1.157   1.318   2.038  0.9610  3.0797 -1.6716
  424SOL    HW2 1272   1.273   1.234   2.134 -1.4169  0.6207 -3.9631
  425SOL     OW 1273   0.250   2.652   2.025 -0.2302 -0.2292  0.6462
  425SOL    HW1 1274   0.336   2.683   2.066  0.0919 -0.1554  1.2230
  425SOL    HW2 1275   0.178   2.726   2.010  0.1479  4.1831  0.4333
  426SOL     OW 1276   2.519   2.747   0.500 -0.0459  0.0318  0.5785
  426SOL    HW1 1277   2.611   2.728   0.534  0.5570  0.5741  0.9607
  426SOL    HW2 1278   2.449   2.737   0.570  0.6409  1.2240 -2.7511
  427SOL     OW 1279   0.330   0.802   2.672 -0.9525  0.5081  0.2726
  427SOL    HW1 1280   0.339   0.902   2.660  2.2071 -2.3807 -0.7055
  427SOL    HW2 1281   0.279   0.780   2.756 -0.3969  1.7867  3.1018
  428SOL     OW 1282   2.748   1.507   2.821 -0.2772  0.5027 -0.4242
  428SOL    HW1 1283   2.780   1.473   2.911 -0.5986 -0.4049  0.0775
  428SOL    HW2 1284   2.645   1.518   2.822 -2.9226 -2.5119  0.4813
  429SOL     OW 1285   2.260   0.413   0.344 -0.6027  0.1788 -0.1221
  429SOL    HW1 1286   2.224   0.344   0.281  1.5105 -0.2915  0.7375
  429SOL    HW2 1287   2.344   0.378   0.399  0.4884  0.0384 -1.7548
  430SOL     OW 1288   1.489   2.151   2.330  0.0500  0.1569 -0.4222
  430SOL    HW1 1289   1.552   2.093   2.272  0.4449 -2.1087 -2.6800
  430SOL    HW2 1290   1.418   2.198   2.271 -3.3501 -1.7160  0.0321
  431SOL     OW 1291   0.411   1.832   1.894  0.5955 -0.1816 -0.3515
  431SOL    HW1 1292   0.394   1.800   1.992 -0.0319 -0.6766  0.9128
  431SOL    HW2 1293   0.449   1.759   1.839  0.2004 -1.1852  0.5800
  432SOL     OW 1294   1.492   2.242   1.938 -0.0109  0.1438 -0.2601
  432SOL    HW1 1295   1.567   2.173   1.927  1.8202  1.1212 -3.0118
  432SOL    HW2 1296   1.461   2.276   1.851  0.4184 -0.0008  2.0124
  433SOL     OW 1297   1.048   2.166   0.357  0.4515 -0.2530  0.1584
  433SOL    HW1 1298   1.146   2.181   0.329  1.5424  0.9629 -3.8444
  433SOL    HW2 1299   0.982   2.183   0.280 -1.6192  2.9374  1.6836
  434SOL     OW 1300   0.329   2.203   2.598 -0.1665 -0.1638  0.2218
  434SOL    HW1 1301   0.419   2.232   2.560 -1.8214  2.0704  2.4676
  434SOL    HW2 1302   0.295   2.259   2.675 -1.3491 -3.5251  0.1090
  435SOL     OW 1303   0.186   1.098   0.399  0.0688  0.2985 -0.2667
  435SOL    HW1 1304   0.093   1.070   0.436  0.7925  0.2317 -0.2309
  435SOL    HW2 1305   0.259   1.101   0.473  1.9944 -2.3293  1.3448
  436SOL     OW 1306   0.474   2.760   1.710  0.1496 -0.2237  0.2021
  436SOL    HW1 1307   0.451   2.816   1.792  3.0680 -2.7301 -2.9989
  436SOL    HW2 1308   0.445   2.807   1.624 -0.3073  0.1074 -0.2632
  437SOL     OW 1309   0.896   0.193   0.476  0.3895  0.0133  0.1579
  437SOL    HW1 1310   0.896   0.283   0.420  0.8666 -3.5980 -0.7179
  437SOL    HW2 1311   0.814   0.132   0.461  0.3683 -0.3329 -0.3766
  438SOL     OW 1312   0.645   2.222   0.505  0.2841  0.2232  0.7973
  438SOL    HW1 1313   0.680   2.311   0.468  2.2668  1.7019 -0.8702
  438SOL    HW2 1314   0.563   2.235   0.560  1.2341 -0.4062 -2.3892
  439SOL     OW 1315   0.655   2.602   1.577  0.2369 -0.3106  0.0667
  439SOL    HW1 1316   0.638   2.533   1.505 -1.3857  0.7743 -0.9997
  439SOL    HW2 1317   0.572   2.655   1.599 -0.6477 -1.3445 -2.0254
  440SOL     OW 1318   1.950   2.902   1.688  0.0929 -0.4745  0.2606
  440SOL    HW1 1319   1.930   2.929   1.786  2.8676 -1.8586 -0.3897
  440SOL    HW2 1320   2.040   2.853   1.681 -0.7971  0.2413  2.6907
  441SOL     OW 1321   2.680   0.562   1.935 -0.1478  0.3024  0.3863
  441SOL    HW1 1322   2.644   0.470   1.910  1.2414  0.0986 -0.1090
  441SOL    HW2 1323   2.726   0.600   1.852  0.5620  1.1161 -2.6950
  442SOL     OW 1324   1.891   2.205   0.807 -0.9116 -0.3627  0.1696
  442SOL    HW1 1325   1.928   2.301   0.813 -0.2990 -0.8170 -0.7893
  442SOL    HW2 1326   1.873   2.182   0.710  3.5782  0.6671  0.4427
  443SOL     OW 1327   2.744   0.679   2.300  0.5221 -0.2497  0.0657
  443SOL    HW1 1328   2.748   0.587   2.257 -0.5756  1.6442  0.2490
  443SOL    HW2 1329   2.731   0.754   2.231  1.1298 -1.7173 -0.6262
  444SOL     OW 1330   2.008   1.086   1.961  0.1985 -0.7239  0.1319
  444SOL    HW1 1331   1.937   1.109   1.889 -2.4530 -0.6279 -0.6942
  444SOL    HW2 1332   2.008   0.986   1.980 -0.9049  1.0177  0.8741
  445SOL     OW 1333   2.973   2.330   1.305 -0.3868  0.2999  0.2439
  445SOL    HW1 1334   2.892   2.310   1.363 -0.2279  1.2017 -0.7801
  445SOL    HW2 1335   2.941   2.360   1.212 -2.4014  1.4716 -0.1194
  446SOL     OW 1336   2.882   1.549   0.769 -0.5134 -0.0048 -0.0402
  446SOL    HW1 1337   2.860   1.465   0.716 -0.3922 -0.7932  0.7377
  446SOL    HW2 1338   2.936   1.517   0.851  2.2381 -0.8092  0.9579
  447SOL     OW 1339   0.445   0.938   1.020 -0.2137 -0.0053 -0.2917
  447SOL    HW1 1340   0.529   0.996   1.011 -0.3213  1.7517  2.1138
  447SOL    HW2 1341   0.461   0.835   1.013  0.4583 -0.0822  0.6474
  448SOL     OW 1342   1.339   1.153   1.576 -0.4136  0.3561  0.4423
  448SOL    HW1 1343   1.337   1.128   1.677  0.6648 -2.2640  0.3216
  448SOL    HW2 1344   1.312   1.250   1.561 -0.2371 -2.0662  2.1652
  449SOL     OW 1345   1.133   1.111   0.012  0.2926 -0.6248  0.7062
  449SOL    HW1 1346   1.193   1.032   3.095  1.9258 -0.0036  0.2043
  449SOL    HW2 1347   1.043   1.075   0.040  1.4108 -2.7941 -2.0710
  450SOL     OW 1348   2.570   2.369   2.234 -0.0479  0.5908  0.3506
  450SOL    HW1 1349   2.624   2.378   2.317  2.7364 -0.2518 -1.7759
  450SOL    HW2 1350   2.609   2.294   2.178 -1.7176  0.1408 -1.2300
  451SOL     OW 1351   1.926   2.831   2.350  0.0223  0.0791 -0.2746
  451SOL    HW1 1352   1.935   2.775   2.435  1.3988 -2.7145 -0.7586
  451SOL    HW2 1353   2.015   2.870   2.316 -0.9606  2.0923  0.1672
  452SOL     OW 1354   1.509   2.880   1.299 -0.6711 -0.1507  0.2420
  452SOL    HW1 1355   1.411   2.853   1.290  1.1119  0.7269  1.1169
  452SOL    HW2 1356   1.551   2.911   1.216 -0.7746 -0.1886  1.8555
  453SOL     OW 1357   1.856   0.920   1.103  0.1871 -0.4497 -0.0420
  453SOL    HW1 1358   1.912   0.910   1.019 -0.4302  0.1000 -0.2269
  453SOL    HW2 1359   1.839   1.020   1.129  0.3584  3.1102  0.5176
  454SOL     OW 1360   0.312   1.327   1.058 -0.4917 -0.5768  0.0924
  454SOL    HW1 1361   0.412   1.301   1.073  2.5844  0.4554  0.2006
  454SOL    HW2 1362   0.282   1.282   0.971  0.6921 -1.5930 -0.0535
  455SOL     OW 1363   2.578   0.119   0.371 -0.2925  0.5805  0.5096
  455SOL    HW1 1364   2.555   0.096   0.274  2.4657 -0.0275  1.0390
  455SOL    HW2 1365   2.673   0.083   0.385 -1.0135 -1.5423 -0.9894
  456SOL     OW 1366   2.879   2.438   1.086  0.7541 -0.3207 -0.1037
  456SOL    HW1 1367   2.808   2.498   1.127 -2.3054  0.4830 -0.4596
  456SOL    HW2 1368   2.833   2.371   1.021 -1.1514  1.6303  3.2370
  457SOL     OW 1369   1.157   0.119   0.476 -0.0022  0.3456  0.1336
  457SOL    HW1 1370   1.184   0.074   0.563  0.6287  1.7604 -0.5517
  457SOL    HW2 1371   1.055   0.120   0.459  1.6517 -3.2072  1.1527
  458SOL     OW 1372   2.648   0.728   0.415  0.2968  0.1573 -0.5126
  458SOL    HW1 1373   2.613   0.706   0.509  0.7277  0.0130  0.7189
  458SOL    HW2 1374   2.576   0.709   0.346 -0.3231  1.6638  0.0934
  459SOL     OW 1375   1.970   0.334   2.584  0.0511 -0.1855  0.1728
  459SOL    HW1 1376   1.992   0.255   2.520 -1.0850 -1.5441 -1.9914
  459SOL    HW2 1377   2.035   0.329   2.662 -0.4447 -0.0221  0.8530
  460SOL     OW 1378   2.753   3.027   2.829 -0.3152 -0.1362 -0.2727
  460SOL    HW1 1379   2.830   2.970   2.800 -0.6678  0.3558  2.1432
  460SOL    HW2 1380   2.687   3.034   2.751 -0.9959 -0.9791  0.8795
  461SOL     OW 1381   1.105   1.639   0.790 -0.3138  0.1948  0.6997
  461SOL    HW1 1382   1.140   1.634   0.885  4.3470  1.6080 -1.4168
  461SOL    HW2 1383   1.011   1.598   0.785 -0.9685  0.4671  0.5826
  462SOL     OW 1384   2.626   2.760   1.523 -0.7374 -0.1132 -0.0774
  462SOL    HW1 1385   2.715   2.722   1.487  1.8234  2.8755 -0.2662
  462SOL    HW2 1386   2.582   2.809   1.443  2.7807  0.3711 -1.2541
  463SOL     OW 1387   2.557   1.051   0.695 -0.2457  0.5560  0.2885
  463SOL    HW1 1388   2.606   1.028   0.609 -0.9465 -2.4946 -0.9386
  463SOL    HW2 1389   2.613   1.030   0.779 -1.2558 -2.4719  2.6743
  464SOL     OW 1390   0.402   2.634   1.136 -0.1018  0.2517  0.1745
  464SOL    HW1 1391   0.337   2.643   1.058  1.1625 -1.4912  0.2337
  464SOL    HW2 1392   0.372   2.555   1.196 -0.3124  1.6374 -1.3163
  465SOL     OW 1393   0.025   1.614   0.039 -0.4685 -0.3294 -0.0043
  465SOL    HW1 1394   0.009   1.525   0.090 -0.6947  0.9854  2.0308
  465SOL    HW2 1395   3.053   1.680   0.052  2.4080  0.1065 -1.0627
  466SOL     OW 1396   1.551   0.220   2.751  0.2955  0.1778  0.8881
  466SOL    HW1 1397   1.459   0.259   2.750  1.0378  2.6598 -3.3235
  466SOL    HW2 1398   1.599   0.219   2.844  1.5405  0.6556 -3.1676
  467SOL     OW 1399   0.964   0.796   2.035  0.1896 -0.1159  0.6317
  467SOL    HW1 1400   1.058   0.806   1.994  1.2004 -0.3625 -3.4578
  467SOL    HW2 1401   0.939   0.861   2.106  1.3658  2.1551 -0.2575
  468SOL     OW 1402   0.261   1.054   2.314  0.8029  0.4735 -0.1456
  468SOL    HW1 1403   0.273   0.955   2.345 -0.4424 -1.1014  0.1798
  468SOL    HW2 1404   0.324   1.117   2.360 -0.1119 -1.2531 -2.3281
  469SOL     OW 1405   0.075   1.987   0.106  0.2374 -0.2385  0.3680
  469SOL    HW1 1406   0.035   2.009   0.014 -0.6617 -0.7872  0.0031
  469SOL    HW2 1407   0.083   2.071   0.166  2.4550 -2.1038  0.7635
  470SOL     OW 1408   2.474   1.621   2.846 -0.1009  0.0408 -0.3099
  470SOL    HW1 1409   2.431   1.531   2.860 -0.2537  1.1411 -1.3001
  470SOL    HW2 1410   2.502   1.674   2.929 -0.4381 -0.6413 -0.9296
  471SOL     OW 1411   2.285   0.573   2.275 -0.6364 -0.1990  0.0177
  471SOL    HW1 1412   2.285   0.650   2.208  1.6856 -0.6702 -0.1968
  471SOL    HW2 1413   2.222   0.583   2.350 -2.0838 -1.5048 -0.0430
  472SOL     OW 1414   0.630   2.527   1.004  0.1431  0.7222 -0.0315
  472SOL    HW1 1415   0.710   2.549   1.065  1.8042 -0.6676 -0.2728
  472SOL    HW2 1416   0.544   2.577   1.030  0.0265  1.1828  3.0853
  473SOL     OW 1417   0.603   0.053   2.382 -0.4826 -0.0847  0.9590
  473SOL    HW1 1418   0.612   0.107   2.469  0.9455  0.5018 -0.3780
  473SOL    HW2 1419   0.662   0.095   2.306  3.0578  1.3590 -0.6958
  474SOL     OW 1420   1.634   3.093   1.886  0.2765  0.2580  0.1901
  474SOL    HW1 1421   1.573   0.069   1.887  1.4812 -1.8556 -2.0565
  474SOL    HW2 1422   1.581   3.017   1.933 -2.6125  0.4311 -0.3189
  475SOL     OW 1423   1.727   2.614   0.699  0.2291  0.1086 -0.1775
  475SOL    HW1 1424   1.811   2.564   0.729  0.1708  1.6710  1.8736
  475SOL    HW2 1425   1.720   2.624   0.598  0.6721  0.7492  1.0759
  476SOL     OW 1426   0.128   0.655   0.979  0.4846 -0.4131 -0.5457
  476SOL    HW1 1427   0.137   0.675   0.878  1.0766 -1.5622 -4.1211
  476SOL    HW2 1428   0.206   0.597   1.009 -3.0259  0.2639 -0.7882
  477SOL     OW 1429   1.401   2.106   0.551  0.0856  0.0428 -0.0523
  477SOL    HW1 1430   1.446   2.089   0.459 -0.0873 -0.1881 -0.3872
  477SOL    HW2 1431   1.306   2.065   0.546 -0.4063 -1.2717 -0.2732
  478SOL     OW 1432   0.275   2.642   2.366 -0.5175  0.2856  0.1964
  478SOL    HW1 1433   0.362   2.592   2.389  0.6156  0.5711 -2.9599
  478SOL    HW2 1434   0.282   2.677   2.269  2.0609 -0.2788 -1.1117
  479SOL     OW 1435   2.456   0.487   1.049  0.0101  0.3567  0.2855
  479SOL    HW1 1436   2.543   0.442   1.023  0.7352 -4.1052 -1.2676
  479SOL    HW2 1437   2.387   0.422   1.082  0.0700  0.1675  1.8696
  480SOL     OW 1438   0.045   3.064   0.193  0.0399  0.0212  0.0329
  480SOL    HW1 1439   0.080   2.984   0.245 -1.1176  1.9552 -1.0040
  480SOL    HW2 1440   3.089   0.025   0.251 -0.5225  4.5963  0.7983
  481SOL     OW 1441   2.787   2.221   1.494  0.2749  0.2339  0.0269
  481SOL    HW1 1442   2.749   2.168   1.572  0.3574  2.9855 -1.4773
  481SOL    HW2 1443   2.778   2.319   1.520 -1.0325 -2.6369 -1.0282
  482SOL     OW 1444   0.995   2.604   2.740  0.1380 -0.0852 -0.4642
  482SOL    HW1 1445   1.028   2.549   2.659 -2.4011 -1.6861  0.1194
  482SOL    HW2 1446   0.954   2.695   2.708 -3.6276  1.6967  0.3292
  483SOL     OW 1447   0.601   2.226   2.493  0.1686 -0.4954 -0.2824
  483SOL    HW1 1448   0.690   2.216   2.539 -1.0361  0.8811  3.8397
  483SOL    HW2 1449   0.574   2.151   2.425  0.9665 -0.4491 -0.2526
  484SOL     OW 1450   1.096   0.815   1.662  0.2204 -0.0690 -0.6548
  484SOL    HW1 1451   1.058   0.875   1.734  0.4978 -0.7862 -1.2679
  484SOL    HW2 1452   1.191   0.796   1.685 -3.6511  1.1521  3.3324
  485SOL     OW 1453   2.434   0.883   2.828  0.1383 -0.2209 -0.2804
  485SOL    HW1 1454   2.369   0.855   2.749 -0.6345  0.6219 -0.8318
  485SOL    HW2 1455   2.399   0.966   2.875  0.2898  4.3343  1.7916
  486SOL     OW 1456   2.537   2.764   1.054 -0.0801 -0.0660 -0.1548
  486SOL    HW1 1457   2.441   2.780   1.050  2.1510 -0.9037 -1.3598
  486SOL    HW2 1458   2.573   2.778   0.965  1.8128 -0.6881  0.6428
  487SOL     OW 1459   0.528   1.973   1.466  0.9157  0.1557  0.0043
  487SOL    HW1 1460   0.547   1.953   1.369  1.4508  2.0324 -1.4398
  487SOL    HW2 1461   0.426   1.972   1.472  0.8900  1.5753  1.7554
  488SOL     OW 1462   2.498   1.325   0.019 -0.4029  0.2957 -0.1062
  488SOL    HW1 1463   2.412   1.345   0.076 -3.1600 -1.2468  1.9878
  488SOL    HW2 1464   2.484   1.337   3.021 -1.0150  0.6965 -0.8053
  489SOL     OW 1465   1.612   0.086   1.054  0.6869 -0.4024  0.8063
  489SOL    HW1 1466   1.635   0.090   1.152 -1.2131 -0.0926 -2.8883
  489SOL    HW2 1467   1.552   0.167   1.024  0.7926  1.3505  0.1929
  490SOL     OW 1468   0.887   0.710   0.394  0.4998 -0.2877  0.2871
  490SOL    HW1 1469   0.794   0.716   0.349 -0.1561 -1.2404 -0.3175
  490SOL    HW2 1470   0.945   0.788   0.363 -0.0363  2.1345 -0.5771
  491SOL     OW 1471   0.675   2.330   0.827 -0.2967  0.0055 -0.2307
  491SOL    HW1 1472   0.751   2.317   0.758  1.9201 -2.6056  0.2852
  491SOL    HW2 1473   0.699   2.410   0.889  2.4879  1.3261 -2.3025
  492SOL     OW 1474   1.314   1.678   2.043 -0.4033 -0.0866  0.3842
  492SOL    HW1 1475   1.216   1.696   2.048 -0.3403 -1.4324 -2.4577
  492SOL    HW2 1476   1.336   1.596   1.985 -0.2174  0.9045  1.6038
  493SOL     OW 1477   2.735   2.400   0.712  0.0071  0.1672 -0.3217
  493SOL    HW1 1478   2.709   2.329   0.639 -0.8614 -0.3164 -0.9624
  493SOL    HW2 1479   2.654   2.401   0.774  1.7588  0.8058  0.0472
  494SOL     OW 1480   2.633   2.163   0.085  0.3810 -0.2919 -0.1736
  494SOL    HW1 1481   2.585   2.095   0.028  1.8736 -1.5550  1.4198
  494SOL    HW2 1482   2.674   2.231   0.023 -0.4444  2.3213 -2.2477
  495SOL     OW 1483   2.762   2.383   3.044  0.4629  0.2165 -0.2627
  495SOL    HW1 1484   2.799   2.424   2.958 -2.3383  1.6866  1.8493
  495SOL    HW2 1485   2.832   2.331   3.089 -1.9842 -1.3323  1.3184
  496SOL     OW 1486   2.673   0.086   1.758  0.3672 -0.4705  0.1243
  496SOL    HW1 1487   2.608   0.123   1.695  2.8873 -0.5802 -1.4668
  496SOL    HW2 1488   2.685   3.089   1.744 -2.2865  0.6676  0.0022
  497SOL     OW 1489   2.872   1.216   0.071 -0.0606 -0.3824  0.0434
  497SOL    HW1 1490   2.836   1.135   0.022 -1.3786  0.4221  0.3190
  497SOL    HW2 1491   2.843   1.303   0.024  2.1901 -3.1621 -2.8023
  498SOL     OW 1492   3.068   1.808   2.117 -0.0030 -0.2705 -0.0492
  498SOL    HW1 1493   3.036   1.900   2.095 -2.9937 -1.2576  0.5611
  498SOL    HW2 1494   0.022   1.813   2.200  0.3029  1.0171  1.3906
  499SOL     OW 1495   0.629   2.331   2.938  0.6709 -0.1140  0.1095
  499SOL    HW1 1496   0.721   2.363   2.913 -1.9931  0.1335  0.9534
  499SOL    HW2 1497   0.633   2.230   2.945 -1.6004  0.2531  0.5587
  500SOL     OW 1498   1.656   0.135   2.990 -0.8141 -0.4145 -0.1131
  500SOL    HW1 1499   1.588   0.086   3.047  0.3783 -1.9924 -2.4464
  500SOL    HW2 1500   1.710   0.066   2.940 -0.9639 -1.6259 -2.9301
  501SOL     OW 1501   1.126   0.051   1.466 -0.4726 -0.2755  0.1953
  501SOL    HW1 1502   1.218   0.081   1.496  0.7140  2.4036 -3.0139
  501SOL    HW2 1503   1.125   0.033   1.368  3.3747 -0.0462  0.7130
  502SOL     OW 1504   2.662   0.948   1.876 -0.1043 -0.0686 -0.2513
  502SOL    HW1 1505   2.610   1.032   1.906 -0.3358  3.2385 -1.5613
  502SOL    HW2 1506   2.597   0.868   1.851  0.7416 -1.5941 -1.0995
  503SOL     OW 1507   2.132   1.999   2.463  0.1061  0.1957 -0.2281
  503SOL    HW1 1508   2.163   2.079   2.521 -1.1318  1.0556 -2.7982
  503SOL    HW2 1509   2.033   2.004   2.439  3.1968  2.4763 -0.8505
  504SOL     OW 1510   1.290   0.565   1.517  0.3981  0.4748 -0.0323
  504SOL    HW1 1511   1.329   0.484   1.466  0.7326  2.5556 -0.0830
  504SOL    HW2 1512   1.209   0.530   1.574 -0.7410 -0.7233  2.2772
  505SOL     OW 1513   0.678   0.798   1.935 -0.0822 -0.1862  0.0667
  505SOL    HW1 1514   0.647   0.878   1.882  3.1489 -1.8351 -1.6425
  505SOL    HW2 1515   0.778   0.797   1.957 -2.2141 -1.5665  3.3431
  506SOL     OW 1516   0.478   0.636   2.539  0.4977 -0.5862  0.4297
  506SOL    HW1 1517   0.425   0.704   2.594  1.6313 -0.2110  2.0969
  506SOL    HW2 1518   0.576   0.643   2.559 -1.9998 -0.3554 -2.8365
  507SOL     OW 1519   0.261   0.130   0.085  0.3936  0.1344 -0.0788
  507SOL    HW1 1520   0.195   0.051   0.100  1.7737  1.2364 -2.1818
  507SOL    HW2 1521   0.264   0.163   3.093 -0.3146 -0.9152  1.3977
  508SOL     OW 1522   1.212   0.936   1.397  0.2216 -0.5621 -0.2795
  508SOL    HW1 1523   1.180   0.870   1.469  0.5829 -0.1174 -1.1309
  508SOL    HW2 1524   1.205   1.031   1.441  0.1154  3.9414  0.9664
  509SOL     OW 1525   1.764   2.082   1.179 -0.0503  1.0353 -0.1232
  509SOL    HW1 1526   1.743   2.160   1.118 -0.9247 -0.5828 -0.4005
  509SOL    HW2 1527   1.795   2.116   1.273  1.1340 -0.6249 -0.2044
  510SOL     OW 1528   2.628   1.354   2.082 -0.2039 -0.2918  0.2598
  510SOL    HW1 1529   2.615   1.456   2.068  1.0486  1.0186  1.7279
  510SOL    HW2 1530   2.659   1.327   2.175  2.8761 -0.9845 -1.5346
  511SOL     OW 1531   0.844   2.231   1.541 -0.1799  0.5971  0.6717
  511SOL    HW1 1532   0.854   2.220   1.442  1.2371 -0.1939  3.0172
  511SOL    HW2 1533   0.743   2.227   1.566 -1.0262 -0.9085 -1.4720
  512SOL     OW 1534   2.763   1.978   0.798 -0.5028  0.3434 -0.1561
  512SOL    HW1 1535   2.744   2.035   0.713 -0.0508  3.7582  0.4359
  512SOL    HW2 1536   2.853   2.000   0.836 -0.4160  0.2110 -0.2142
  513SOL     OW 1537   0.066   1.707   2.904 -0.1541  0.1901  0.5820
  513SOL    HW1 1538   0.133   1.787   2.898 -0.2030  3.6193  1.5371
  513SOL    HW2 1539   0.075   1.651   2.990  2.1251  1.6615 -2.5110
  514SOL     OW 1540   2.922   2.480   2.342  0.5289  0.7211 -0.2342
  514SOL    HW1 1541   2.986   2.513   2.413  0.4953 -2.2855 -1.4245
  514SOL    HW2 1542   2.983   2.442   2.266  0.9353 -1.2124 -1.1447
  515SOL     OW 1543   2.169   1.178   1.027 -0.2851  0.0814  0.0982
  515SOL    HW1 1544   2.167   1.189   0.924  0.1513 -0.4889  0.1017
  515SOL    HW2 1545   2.112   1.246   1.073  0.0588  0.3244  1.5982
  516SOL     OW 1546   2.091   2.089   0.280  0.1232 -0.3920  0.6370
  516SOL    HW1 1547   2.162   2.158   0.312  1.0860 -0.1559  0.2477
  516SOL    HW2 1548   2.125   1.995   0.275  2.5379 -1.1277  0.0001
  517SOL     OW 1549   0.867   1.042   0.074 -0.5882 -0.8595 -0.2880
  517SOL    HW1 1550   0.856   1.138   0.048 -1.5956 -1.7529 -0.4660
  517SOL    HW2 1551   0.799   1.022   0.152  1.4330 -0.2737  2.5624
  518SOL     OW 1552   0.132   2.916   1.968 -0.0079 -0.2824 -0.2580
  518SOL    HW1 1553   0.066   2.950   2.042 -1.0479  1.7460 -1.1643
  518SOL    HW2 1554   0.083   2.884   1.882 -1.0693  0.6293 -1.6465
  519SOL     OW 1555   1.276   1.654   2.527 -0.2818 -0.0482  0.1215
  519SOL    HW1 1556   1.236   1.738   2.563  1.3708  1.0516 -0.1726
  519SOL    HW2 1557   1.300   1.583   2.598  1.1553 -1.0741  2.4180
  520SOL     OW 1558   2.761   2.976   2.402 -0.0963  0.1143 -0.0338
  520SOL    HW1 1559   2.748   2.999   2.301 -1.0338  1.8162 -2.6163
  520SOL    HW2 1560   2.855   3.001   2.440  1.9564  0.6312  0.7178
  521SOL     OW 1561   0.078   2.166   2.113  0.2921  0.1744  0.2677
  521SOL    HW1 1562   0.116   2.244   2.167  0.5656  2.5447 -1.6573
  521SOL    HW2 1563   0.093   2.171   2.010 -0.2267 -0.1951 -0.8599
  522SOL     OW 1564   0.815   2.516   1.760  0.0225  0.5312  0.1892
  522SOL    HW1 1565   0.751   2.538   1.681  0.4650 -0.1345  1.2172
  522SOL    HW2 1566   0.908   2.483   1.729  1.9920  0.5972  0.4110
  523SOL     OW 1567   0.093   2.290   1.468  0.3624  0.1366  0.5657
  523SOL    HW1 1568   0.039   2.286   1.552  1.1060 -0.9940 -0.8071
  523SOL    HW2 1569   0.024   2.291   1.384 -0.0446 -2.9926 -0.8118
  524SOL     OW 1570   1.360   2.372   0.616  0.5402 -0.0655  0.2594
  524SOL    HW1 1571   1.392   2.280   0.584 -1.3427  0.6246 -1.5441
  524SOL    HW2 1572   1.409   2.403   0.698  3.6403  2.4154 -1.8176
  525SOL     OW 1573   2.452   1.154   1.028  0.1899 -0.3607 -0.4914
  525SOL    HW1 1574   2.493   1.224   0.971 -1.6111 -3.0544  0.1042
  525SOL    HW2 1575   2.354   1.169   1.024  2.5722  2.2356 -0.5194
  526SOL     OW 1576   0.939   2.340   0.666 -0.4950  0.0844 -0.0529
  526SOL    HW1 1577   0.977   2.410   0.601  2.2841  1.0837  0.4532
  526SOL    HW2 1578   0.972   2.249   0.638  1.9357  1.7921 -1.2547
  527SOL     OW 1579   2.168   2.240   0.682  0.3923 -0.0649  0.6748
  527SOL    HW1 1580   2.077   2.218   0.726  2.0227  0.2937  0.1524
  527SOL    HW2 1581   2.172   2.336   0.653  0.0615 -0.3391 -1.9770
  528SOL     OW 1582   2.162   0.259   0.053 -0.1666 -0.3427 -0.1223
  528SOL    HW1 1583   2.065   0.274   0.067  2.6380  0.9551 -0.0947
  528SOL    HW2 1584   2.196   0.187   0.122  0.3532 -2.7188  1.8634
  529SOL     OW 1585   1.055   1.429   2.056  0.0152 -0.0767  0.0458
  529SOL    HW1 1586   1.065   1.480   2.147  1.0002 -0.1197  1.2951
  529SOL    HW2 1587   1.041   1.500   1.984 -1.3004  0.7206 -3.1820
  530SOL     OW 1588   2.350   1.011   2.439 -0.0816 -0.6450  0.5732
  530SOL    HW1 1589   2.451   1.015   2.426  0.9749 -2.1562 -0.4731
  530SOL    HW2 1590   2.332   0.935   2.502 -0.6381 -2.9172  0.3121
  531SOL     OW 1591   0.825   0.875   2.950 -0.6492 -0.2637  0.3356
  531SOL    HW1 1592   0.850   0.938   3.023 -0.3148  1.0522  0.6442
  531SOL    HW2 1593   0.807   0.781   2.992  0.0697  0.2771 -0.2034
  532SOL     OW 1594   1.582   0.939   0.663 -0.0132  0.3174 -0.2951
  532SOL    HW1 1595   1.607   0.842   0.684  1.0635 -1.3695  0.4192
  532SOL    HW2 1596   1.554   0.944   0.565 -3.2946  0.1232  2.5289
  533SOL     OW 1597   0.296   0.488   2.189  0.0870 -0.2051  0.0562
  533SOL    HW1 1598   0.204   0.516   2.157  0.4526 -0.6339  0.5577
  533SOL    HW2 1599   0.367   0.529   2.129  0.0300  2.0949  0.7003
  534SOL     OW 1600   1.535   0.269   2.370  0.4826 -0.2611  0.1361
  534SOL    HW1 1601   1.597   0.304   2.448  2.4672  2.9841  0.3476
  534SOL    HW2 1602   1.441   0.294   2.391  0.8930 -3.2836 -3.0104
  535SOL     OW 1603   0.636   0.112   0.422 -0.6892  0.0547 -0.2832
  535SOL    HW1 1604   0.654   0.011   0.418  1.0980 -2.9012  0.1143
  535SOL    HW2 1605   0.548   0.130   0.470  1.3371  0.5103 -0.7204
  536SOL     OW 1606   1.240   0.539   0.290  0.5316 -0.1374 -0.2613
  536SOL    HW1 1607   1.292   0.627   0.267  1.7316 -3.5778 -0.4490
  536SOL    HW2 1608   1.147   0.539   0.249  1.1311  1.8563  0.3886
  537SOL     OW 1609   1.490   2.817   1.729  0.2763 -0.3685  0.6836
  537SOL    HW1 1610   1.585   2.795   1.772  2.0206  0.4192 -0.9016
  537SOL    HW2 1611   1.492   2.904   1.680 -0.9460 -1.5461 -2.4181
  538SOL     OW 1612   0.349   2.806   0.121  0.0071  0.0401 -0.0968
  538SOL    HW1 1613   0.285   2.840   0.193 -0.7353  3.5039  0.6075
  538SOL    HW2 1614   0.425   2.868   0.122  0.3905 -0.9963 -0.1633
  539SOL     OW 1615   2.866   1.380   1.921 -0.2047 -0.6114 -0.0363
  539SOL    HW1 1616   2.907   1.461   1.966  2.2256  1.9086 -0.8514
  539SOL    HW2 1617   2.785   1.361   1.974 -0.4411  1.7752 -0.1789
  540SOL     OW 1618   2.321   2.232   2.144  0.3497  0.2590  0.0610
  540SOL    HW1 1619   2.390   2.278   2.199 -1.1356  0.4128 -1.4476
  540SOL    HW2 1620   2.360   2.190   2.060 -0.0052  0.9636  0.7927
  541SOL     OW 1621   0.543   2.836   1.225 -0.1422  0.0323 -0.1092
  541SOL    HW1 1622   0.485   2.762   1.181  2.0180  0.1593  2.0530
  541SOL    HW2 1623   0.639   2.834   1.194 -1.9981  2.7365  2.4329
  542SOL     OW 1624   2.753   0.442   2.198  0.0147  0.3901 -0.2171
  542SOL    HW1 1625   2.789   0.382   2.271  2.4998 -1.1019 -2.7749
  542SOL    HW2 1626   2.684   0.391   2.141 -1.9078 -1.7081  0.9330
  543SOL     OW 1627   0.818   0.574   1.079  0.7180  0.1799  0.1600
  543SOL    HW1 1628   0.763   0.650   1.118 -0.6580  1.0738  2.4681
  543SOL    HW2 1629   0.757   0.491   1.070  2.2922 -2.7187  1.4802
  544SOL     OW 1630   2.468   2.303   1.240 -0.0111 -0.3108 -0.0850
  544SOL    HW1 1631   2.408   2.341   1.164  0.0174 -0.5441 -2.3641
  544SOL    HW2 1632   2.462   2.356   1.323 -0.4703 -0.7294 -2.1114
  545SOL     OW 1633   1.412   1.413   1.012  0.1498 -0.2344 -0.1893
  545SOL    HW1 1634   1.484   1.468   1.054 -0.3229  1.3693 -0.0370
  545SOL    HW2 1635   1.437   1.320   1.022 -0.1977  1.3412  0.9153
  546SOL     OW 1636   2.790   0.320   2.680 -0.5535 -0.2639  0.3083
  546SOL    HW1 1637   2.792   0.394   2.748 -1.5222  0.5042 -2.1699
  546SOL    HW2 1638   2.695   0.294   2.664 -0.5715  1.2613  0.9995
  547SOL     OW 1639   2.296   0.362   2.706  0.1293 -0.1873  0.1088
  547SOL    HW1 1640   2.274   0.402   2.802  2.3389 -0.7664  3.1629
  547SOL    HW2 1641   2.353   0.433   2.664 -1.1339 -1.3988  0.2122
  548SOL     OW 1642   2.425   2.027   2.810 -0.2280 -0.4238  0.2918
  548SOL    HW1 1643   2.388   1.943   2.761 -1.4830  1.3449 -0.5596
  548SOL    HW2 1644   2.520   2.012   2.837 -0.4652 -1.0063  0.7815
  549SOL     OW 1645   2.036   0.480   0.482 -0.3420  0.4737 -0.4736
  549SOL    HW1 1646   2.059   0.496   0.580  0.2622 -0.7487 -2.0713
  549SOL    HW2 1647   2.122   0.474   0.429 -1.0260 -1.1624  1.5586
  550SOL     OW 1648   2.545   1.334   0.386 -0.0498  0.2160 -0.1676
  550SOL    HW1 1649   2.485   1.409   0.428 -1.0319  0.5764  1.5438
  550SOL    HW2 1650   2.485   1.278   0.325 -1.6150 -0.6604  0.6775
  551SOL     OW 1651   1.491   2.447   1.194 -0.1337  0.2625 -0.3365
  551SOL    HW1 1652   1.441   2.536   1.187 -0.0117 -1.3629 -0.2780
  551SOL    HW2 1653   1.587   2.445   1.161 -0.3212 -0.5750  0.2109
  552SOL     OW 1654   2.857   2.444   2.790  0.1165 -0.2396 -0.4382
  552SOL    HW1 1655   2.857   2.344   2.769  0.2504  1.4447  0.2852
  552SOL    HW2 1656   2.778   2.490   2.744  0.8404 -1.1194  0.7875
  553SOL     OW 1657   0.362   2.948   0.525 -0.0455  0.2141 -0.3997
  553SOL    HW1 1658   0.406   3.034   0.529 -0.4900 -3.5756  0.9590
  553SOL    HW2 1659   0.382   2.887   0.605  0.7273  0.8562 -0.6280
  554SOL     OW 1660   1.838   1.861   1.500 -0.2433  0.3150 -0.6308
  554SOL    HW1 1661   1.734   1.861   1.498 -2.0535 -0.0364 -1.5475
  554SOL    HW2 1662   1.872   1.769   1.466 -0.9756  1.8348  0.1225
  555SOL     OW 1663   1.633   2.426   2.087 -0.2082  0.0308  0.3079
  555SOL    HW1 1664   1.602   2.340   2.043  3.4852 -1.1571 -1.2776
  555SOL    HW2 1665   1.572   2.502   2.068  1.1437 -2.8196  1.5194
  556SOL     OW 1666   1.659   0.674   0.732 -0.5864 -0.4380 -0.1937
  556SOL    HW1 1667   1.728   0.644   0.665 -1.1439 -1.3853  0.5879
  556SOL    HW2 1668   1.578   0.610   0.747 -0.7712 -1.5906  1.1198
  557SOL     OW 1669   1.561   2.171   1.511  0.0537  0.0869 -0.0856
  557SOL    HW1 1670   1.535   2.167   1.415  1.4714  0.9492  1.1495
  557SOL    HW2 1671   1.485   2.210   1.568 -3.1976 -0.1600  0.8609
  558SOL     OW 1672   2.944   1.285   2.512  0.2667 -0.2802 -0.0727
  558SOL    HW1 1673   2.881   1.211   2.543 -0.1127  0.2386  0.5896
  558SOL    HW2 1674   3.042   1.246   2.509 -1.1360  0.7855 -0.5535
  559SOL     OW 1675   2.695   2.376   2.466 -0.0124 -0.2202 -0.7485
  559SOL    HW1 1676   2.778   2.422   2.437  0.2844 -0.6524 -0.0785
  559SOL    HW2 1677   2.640   2.433   2.530 -0.8865 -0.8744 -0.0261
  560SOL     OW 1678   0.233   3.018   2.595 -0.2000 -0.4359 -0.2429
  560SOL    HW1 1679   0.173   3.100   2.599  0.8525 -0.4645 -1.2098
  560SOL    HW2 1680   0.274   3.005   2.504  1.1113  0.6224  2.0484
  561SOL     OW 1681   1.436   0.546   0.760 -0.1342  0.0920 -0.3892
  561SOL    HW1 1682   1.365   0.595   0.709 -2.1688 -0.3797  0.2523
  561SOL    HW2 1683   1.438   0.446   0.744  0.6229  0.6311  0.7775
  562SOL     OW 1684   0.518   1.363   2.188  0.4557  0.2064  0.4376
  562SOL    HW1 1685   0.595   1.339   2.128 -0.0072 -0.1352 -0.3044
  562SOL    HW2 1686   0.500   1.465   2.188  1.0517 -0.0199 -0.8469
  563SOL     OW 1687   1.667   2.147   0.073  0.2251 -0.5920 -0.5428
  563SOL    HW1 1688   1.699   2.103   3.088  0.8453 -0.1877 -0.4215
  563SOL    HW2 1689   1.739   2.221   0.099 -0.0389  1.7457  2.1960
  564SOL     OW 1690   0.355   2.085   0.594 -0.4133  0.0647  0.3995
  564SOL    HW1 1691   0.343   2.022   0.513  3.2318 -0.9606 -1.5137
  564SOL    HW2 1692   0.402   2.033   0.673  2.3263 -0.2786  1.5198
  565SOL     OW 1693   0.611   2.949   0.146 -0.6909  0.3843  0.3163
  565SOL    HW1 1694   0.652   2.865   0.100  0.4975 -4.4740 -1.9181
  565SOL    HW2 1695   0.597   3.030   0.085 -0.4429  0.2863  2.1838
  566SOL     OW 1696   1.391   2.621   2.775  0.2801  0.0019 -0.2397
  566SOL    HW1 1697   1.440   2.567   2.850 -1.3127 -2.8049  0.5665
  566SOL    HW2 1698   1.456   2.653   2.702  1.0509 -1.7627  1.7063
  567SOL     OW 1699   2.545   1.777   1.176  0.5971  0.0061  0.2626
  567SOL    HW1 1700   2.582   1.839   1.250 -1.0020 -0.0326  1.1497
  567SOL    HW2 1701   2.590   1.685   1.173  1.8308 -0.9811  2.9903
  568SOL     OW 1702   1.658   1.108   2.586  0.3601 -0.0522  0.2377
  568SOL    HW1 1703   1.634   1.019   2.633  1.2304  0.5648  0.0470
  568SOL    HW2 1704   1.727   1.158   2.641 -0.5995 -0.4517 -1.0178
  569SOL     OW 1705   2.082   1.805   2.005  0.0249 -0.8103  0.5698
  569SOL    HW1 1706   2.064   1.717   2.050  1.0344 -0.1415  2.9980
  569SOL    HW2 1707   2.108   1.877   2.073  0.6581  1.3349  1.3565
  570SOL     OW 1708   3.066   2.752   1.800  0.2004  0.4185 -0.2236
  570SOL    HW1 1709   0.046   2.701   1.774  0.2987 -2.3010 -0.9673
  570SOL    HW2 1710   3.032   2.805   1.722  1.3906 -2.7821  0.3304
  571SOL     OW 1711   0.208   0.706   1.357 -0.7438  0.2554  0.6319
  571SOL    HW1 1712   0.130   0.726   1.289  0.1205 -0.8284  0.4333
  571SOL    HW2 1713   0.186   0.639   1.432  2.4456  1.2278  0.9036
  572SOL     OW 1714   0.475   1.432   0.773  0.6825  0.0989  0.2241
  572SOL    HW1 1715   0.532   1.488   0.840  2.5935  2.5242  1.2606
  572SOL    HW2 1716   0.512   1.338   0.750  2.0878 -2.1878 -0.8375
  573SOL     OW 1717   1.063   0.873   0.258 -0.0297 -0.2336 -0.4128
  573SOL    HW1 1718   1.060   0.820   0.170  1.8150  0.2295  1.6544
  573SOL    HW2 1719   1.158   0.873   0.284  1.2298  0.8913  2.0544
  574SOL     OW 1720   0.224   0.329   0.322  0.2601 -0.3940 -0.0987
  574SOL    HW1 1721   0.248   0.260   0.250  0.0026 -0.4342  0.8571
  574SOL    HW2 1722   0.286   0.408   0.318  1.0251  1.1546 -1.6031
  575SOL     OW 1723   0.832   1.924   1.072  0.1376 -0.4632 -0.0168
  575SOL    HW1 1724   0.808   1.890   0.979 -0.7881  0.8290  1.2852
  575SOL    HW2 1725   0.906   1.998   1.071  1.6750  1.3893 -0.0708
  576SOL     OW 1726   2.890   0.189   1.866 -0.0161 -0.7937 -0.1088
  576SOL    HW1 1727   2.968   0.184   1.802 -0.8149 -1.6453  0.0454
  576SOL    HW2 1728   2.797   0.163   1.830  0.0785  1.0938 -0.4427
  577SOL     OW 1729   2.595   1.628   2.102 -0.0302  0.2231  0.3655
  577SOL    HW1 1730   2.523   1.619   2.176 -1.5622 -1.4937  1.4703
  577SOL    HW2 1731   2.693   1.618   2.137  1.9986  0.3677  0.0733
  578SOL     OW 1732   1.213   0.047   2.435  0.5205 -0.6135  0.5744
  578SOL    HW1 1733   1.280   3.098   2.384  0.8070  0.1128 -1.1152
  578SOL    HW2 1734   1.191   3.093   2.516 -1.3137 -0.7641 -1.7626
  579SOL     OW 1735   1.631   1.876   2.283 -0.1028  0.3584  0.2240
  579SOL    HW1 1736   1.692   1.810   2.241 -1.3788  2.2665 -0.1982
  579SOL    HW2 1737   1.538   1.835   2.285 -0.1098  1.3595  2.5099
  580SOL     OW 1738   1.724   0.819   1.943  0.1088  0.1703 -0.8676
  580SOL    HW1 1739   1.826   0.821   1.957  0.4975 -1.4158 -0.6590
  580SOL    HW2 1740   1.675   0.874   2.013 -2.4034 -2.4561 -1.8660
  581SOL     OW 1741   1.086   1.185   2.435 -0.3756 -0.2890 -0.4415
  581SOL    HW1 1742   1.112   1.094   2.475  0.8765 -1.8113  0.8966
  581SOL    HW2 1743   1.030   1.165   2.354 -1.0230 -0.3955 -1.3365
  582SOL     OW 1744   3.068   2.480   2.084 -0.0982  0.3147  0.1942
  582SOL    HW1 1745   0.064   2.478   2.107 -0.1834 -0.6048 -0.4717
  582SOL    HW2 1746   3.056   2.549   2.016 -1.6946 -2.9875 -2.2287
  583SOL     OW 1747   1.836   1.213   1.184 -0.2954 -0.6680  0.2775
  583SOL    HW1 1748   1.817   1.210   1.086 -0.4115  0.3894  1.5663
  583SOL    HW2 1749   1.777   1.278   1.235  1.8245 -1.4118 -0.0666
  584SOL     OW 1750   0.865   2.396   2.863  0.1370  0.3029  0.6087
  584SOL    HW1 1751   0.906   2.307   2.835  2.0041  0.4818 -1.4735
  584SOL    HW2 1752   0.895   2.467   2.799 -1.6368 -2.5649  0.0530
  585SOL     OW 1753   0.226   2.460   0.370 -0.3197  0.0027  0.4212
  585SOL    HW1 1754   0.138   2.477   0.316  0.8500 -1.5094 -1.2512
  585SOL    HW2 1755   0.310   2.473   0.310  1.5428  2.0739  1.2364
  586SOL     OW 1756   2.115   1.518   0.351 -0.3236 -0.3001 -0.1860
  586SOL    HW1 1757   2.054   1.454   0.305  0.0807 -0.0766  1.6186
  586SOL    HW2 1758   2.082   1.548   0.444 -0.6149 -0.9116  3.6953
  587SOL     OW 1759   3.023   1.919   0.362 -0.2732  0.4891 -0.0190
  587SOL    HW1 1760   3.037   2.019   0.382  0.0221 -1.2075 -0.0136
  587SOL    HW2 1761   2.927   1.904   0.335  2.7341 -0.3848  0.2033
  588SOL     OW 1762   2.690   0.389   0.912 -0.6135 -0.2556 -0.4588
  588SOL    HW1 1763   2.746   0.448   0.980 -1.3452  1.3871  0.9361
  588SOL    HW2 1764   2.738   0.300   0.886  0.7562  1.4039 -1.7416
  589SOL     OW 1765   0.957   0.680   0.882 -0.2817  0.5162  0.0242
  589SOL    HW1 1766   1.018   0.750   0.929 -1.4025  1.1292 -0.4150
  589SOL    HW2 1767   0.904   0.642   0.957  0.8100  1.9103 -1.1322
  590SOL     OW 1768   2.452   2.485   0.109 -0.3379  0.3003 -0.7959
  590SOL    HW1 1769   2.464   2.396   0.164 -2.3911 -3.8258  2.8010
  590SOL    HW2 1770   2.518   2.555   0.135  0.7860  2.0070 -0.5531
  591SOL     OW 1771   0.709   2.301   1.888  0.1366  0.0428 -0.7002
  591SOL    HW1 1772   0.757   2.373   1.834 -0.0132 -1.0038 -1.0606
  591SOL    HW2 1773   0.619   2.276   1.848  0.5713  2.0954 -0.3631
  592SOL     OW 1774   0.717   1.628   2.009 -0.1058 -0.5033  0.5175
  592SOL    HW1 1775   0.745   1.538   2.053  2.2435  2.8239 -2.2126
  592SOL    HW2 1776   0.705   1.702   2.073  0.3300 -2.8210  0.6776
  593SOL     OW 1777   1.435   1.856   1.099 -0.0070 -0.0939  0.0345
  593SOL    HW1 1778   1.498   1.836   1.173 -2.7130 -2.0080 -1.8804
  593SOL    HW2 1779   1.429   1.956   1.066  0.0825  0.8111  1.0539
  594SOL     OW 1780   0.344   1.073   2.670 -0.2311 -0.7551  0.4452
  594SOL    HW1 1781   0.418   1.144   2.680 -1.0558 -1.5832  1.7907
  594SOL    HW2 1782   0.281   1.095   2.745  0.8782  0.5240  0.5837
  595SOL     OW 1783   1.458   0.304   1.004 -0.3984  0.5062 -0.2808
  595SOL    HW1 1784   1.512   0.390   1.017  0.3111 -0.2507 -2.1050
  595SOL    HW2 1785   1.431   0.293   0.909 -1.6843  1.5954  3.8423
  596SOL     OW 1786   0.196   1.005   1.163  0.6909 -0.1395  0.0155
  596SOL    HW1 1787   0.278   0.983   1.119 -3.6885  3.5616  1.2612
  596SOL    HW2 1788   0.207   1.098   1.208  0.4603  0.4599 -1.7513
  597SOL     OW 1789   0.216   2.445   2.839  0.6545  0.0442 -0.2443
  597SOL    HW1 1790   0.297   2.499   2.841 -1.1537 -0.3839  2.4525
  597SOL    HW2 1791   0.137   2.508   2.856 -3.1913 -0.3392  2.9275
  598SOL     OW 1792   2.077   2.057   2.838 -0.3441 -0.0243 -0.0927
  598SOL    HW1 1793   2.123   2.101   2.757 -0.7615  1.0606 -2.4274
  598SOL    HW2 1794   2.085   2.107   2.925  0.2357 -2.4471 -1.1236
  599SOL     OW 1795   1.633   0.605   0.303  0.3415 -0.0393 -0.5159
  599SOL    HW1 1796   1.595   0.527   0.349  1.3604 -0.2473 -0.5918
  599SOL    HW2 1797   1.617   0.689   0.360 -0.3142 -0.1684 -0.9587
  600SOL     OW 1798   0.889   0.261   0.106 -0.4744  0.2859  0.0315
  600SOL    HW1 1799   0.887   0.162   0.089 -0.0471  3.2751 -0.4628
  600SOL    HW2 1800   0.972   0.300   0.065 -2.9598 -0.4637 -0.1305
  601SOL     OW 1801   0.419   0.060   1.409 -0.2215 -0.0091  0.3546
  601SOL    HW1 1802   0.443   0.149   1.452 -0.7782  0.0106  2.3210
  601SOL    HW2 1803   0.384   0.071   1.312 -1.9613 -1.2132  0.1137
  602SOL     OW 1804   0.101   2.878   0.911 -0.6186  0.3168 -0.3110
  602SOL    HW1 1805   0.102   2.875   0.811  0.4383  1.1944 -0.0544
  602SOL    HW2 1806   0.167   2.954   0.941  2.2813  1.1358  0.8966
  603SOL     OW 1807   0.806   2.917   2.449 -0.2102 -0.3505 -0.1124
  603SOL    HW1 1808   0.885   2.960   2.403  0.9730 -0.5130  0.4735
  603SOL    HW2 1809   0.728   2.983   2.444  0.5314  0.5461  1.3917
  604SOL     OW 1810   1.059   2.590   0.082 -0.0838  0.0982 -0.5462
  604SOL    HW1 1811   0.989   2.519   0.090  0.6455 -0.5907  0.4544
  604SOL    HW2 1812   1.075   2.608   3.092 -0.2536 -0.0815 -0.9728
  605SOL     OW 1813   1.377   0.741   1.715  0.3027 -0.0627 -0.9449
  605SOL    HW1 1814   1.372   0.657   1.651 -1.1731 -3.8306  1.7066
  605SOL    HW2 1815   1.471   0.783   1.718  1.2745  0.2803  0.2273
  606SOL     OW 1816   1.298   0.323   2.761  0.2875 -0.1326 -0.2526
  606SOL    HW1 1817   1.315   0.402   2.826  0.7573 -1.9671  0.1442
  606SOL    HW2 1818   1.225   0.255   2.785 -3.1166 -0.9479 -0.1748
  607SOL     OW 1819   0.476   1.143   1.502  0.5001  0.3984  0.3253
  607SOL    HW1 1820   0.443   1.049   1.490  3.3961  0.9980 -2.9186
  607SOL    HW2 1821   0.411   1.207   1.460  0.7734 -0.0585 -2.2700
  608SOL     OW 1822   2.646   2.105   2.439  0.1901 -0.0651  0.4446
  608SOL    HW1 1823   2.636   2.200   2.474 -0.1954 -0.1699 -1.7455
  608SOL    HW2 1824   2.655   2.107   2.337  0.8277  1.7781 -0.6716
  609SOL     OW 1825   2.247   0.092   0.254  0.4646 -0.2613 -0.2323
  609SOL    HW1 1826   2.233   0.125   0.348 -1.6560 -0.9649  0.9096
  609SOL    HW2 1827   2.231   3.097   0.249 -0.7951  1.4872  0.5477
  610SOL     OW 1828   0.874   2.493   1.176 -0.4281  0.0862  0.3439
  610SOL    HW1 1829   0.907   2.471   1.081 -0.7490  1.7063 -0.1609
  610SOL    HW2 1830   0.914   2.581   1.207 -3.0746 -0.9714  5.1977
  611SOL     OW 1831   0.867   1.473   0.665 -0.3808 -0.6904  0.1170
  611SOL    HW1 1832   0.832   1.519   0.581  0.2243  1.6615 -0.8945
  611SOL    HW2 1833   0.793   1.464   0.735  0.3642 -1.0220  0.3229
  612SOL     OW 1834   0.773   0.137   2.195  0.8570 -0.2097 -0.3322
  612SOL    HW1 1835   0.736   0.141   2.101  0.8466  3.5188  0.9540
  612SOL    HW2 1836   0.814   0.226   2.220  2.1962 -1.8103 -0.6959
  613SOL     OW 1837   2.685   1.671   0.445  0.0715  0.2222  0.7125
  613SOL    HW1 1838   2.638   1.591   0.490  0.2702  0.9154 -0.4607
  613SOL    HW2 1839   2.763   1.699   0.503 -1.7606  1.6939  0.4473
  614SOL     OW 1840   1.652   0.388   1.742  0.0940 -0.3278 -0.6162
  614SOL    HW1 1841   1.684   0.427   1.834  1.7967 -0.9134  0.3347
  614SOL    HW2 1842   1.659   0.459   1.674 -0.6447 -1.2963  0.6516
  615SOL     OW 1843   0.911   1.706   1.210  0.2609  0.4656  0.0958
  615SOL    HW1 1844   1.013   1.716   1.215 -1.2778  2.6563  0.4044
  615SOL    HW2 1845   0.872   1.775   1.143 -0.4942  0.1993 -0.0705
  616SOL     OW 1846   1.435   1.438   2.611 -0.1341  0.0009 -0.3195
  616SOL    HW1 1847   1.493   1.397   2.537  0.6559 -1.7035 -1.4524
  616SOL    HW2 1848   1.483   1.522   2.640 -1.5090 -2.7449 -0.7541
  617SOL     OW 1849   1.627   2.666   0.444  0.0124  0.2296 -0.1467
  617SOL    HW1 1850   1.625   2.580   0.387  1.2598 -1.3655  1.6460
  617SOL    HW2 1851   1.533   2.699   0.469 -1.5913 -0.5650  1.7374
  618SOL     OW 1852   0.637   1.003   2.759  0.4123  0.0777 -0.8304
  618SOL    HW1 1853   0.721   0.974   2.808  0.5032  0.2550 -0.6346
  618SOL    HW2 1854   0.650   1.085   2.693 -1.6571  1.6038  1.5416
  619SOL     OW 1855   2.813   1.336   0.612 -0.3315 -0.1136  0.0948
  619SOL    HW1 1856   2.822   1.277   0.529  2.6837  2.1829  1.8147
  619SOL    HW2 1857   2.744   1.408   0.604  1.7491  0.0337  0.7111
  620SOL     OW 1858   2.163   2.916   0.207  0.4590 -0.0288  0.2476
  620SOL    HW1 1859   2.268   2.903   0.195  3.0636  0.5281 -1.1408
  620SOL    HW2 1860   2.128   2.866   0.288  0.1432  0.0634 -2.7405
  621SOL     OW 1861   2.248   1.356   0.153  0.1804  0.7303  0.0359
  621SOL    HW1 1862   2.199   1.418   0.217 -0.1964 -1.7517  0.9416
  621SOL    HW2 1863   2.184   1.290   0.113 -0.8222 -3.0272  3.0537
  622SOL     OW 1864   1.136   2.495   2.532  0.0070 -0.3717 -0.6609
  622SOL    HW1 1865   1.073   2.470   2.455  1.4903  0.5193  0.1458
  622SOL    HW2 1866   1.194   2.421   2.560  1.6480 -1.4626 -1.0399
  623SOL     OW 1867   0.656   1.403   0.217  0.3324 -0.1387 -0.2450
  623SOL    HW1 1868   0.715   1.452   0.151  0.0975 -0.7938  6.2762
  623SOL    HW2 1869   0.557   1.424   0.193 -0.8715  2.7560  0.1841
  624SOL     OW 1870   0.663   0.151   2.630  1.3896  0.9445  0.0039
  624SOL    HW1 1871   0.623   0.205   2.704  0.3178  0.6933 -1.8765
  624SOL    HW2 1872   0.634   0.053   2.650  1.1891 -2.1711 -1.1457
  625SOL     OW 1873   0.779   1.830   0.363 -0.1792 -0.2370 -0.4891
  625SOL    HW1 1874   0.718   1.893   0.313  2.2400 -0.5821  0.5022
  625SOL    HW2 1875   0.849   1.795   0.298 -1.8223 -1.0670  0.8568
  626SOL     OW 1876   2.374   0.191   2.968  0.3915  0.0924  0.2385
  626SOL    HW1 1877   2.280   0.223   2.986 -0.9725 -0.0460  1.5588
  626SOL    HW2 1878   2.433   0.267   2.949 -1.6053 -0.2080 -1.1438
  627SOL     OW 1879   1.318   1.290   2.303  0.2070  0.3277 -0.1309
  627SOL    HW1 1880   1.392   1.262   2.365 -1.0363 -3.3085  0.0893
  627SOL    HW2 1881   1.230   1.278   2.354  0.3783  1.5007  0.6255
  628SOL     OW 1882   0.788   0.799   2.406  0.5357  0.3045  0.3733
  628SOL    HW1 1883   0.742   0.891   2.415 -0.1063 -0.1213 -1.1034
  628SOL    HW2 1884   0.737   0.737   2.344 -0.3598  3.3153  0.0755
  629SOL     OW 1885   0.568   3.098   2.038 -0.5612 -0.4002  0.1139
  629SOL    HW1 1886   0.616   3.030   2.103  1.8111 -1.0895  2.6420
  629SOL    HW2 1887   0.631   0.043   1.973 -1.4322  0.9477  0.2746
  630SOL     OW 1888   2.234   0.880   1.698 -0.2251 -0.5822  0.5328
  630SOL    HW1 1889   2.285   0.966   1.703  1.5798 -1.2758  1.1191
  630SOL    HW2 1890   2.133   0.898   1.719 -2.0663  0.1516  2.5290
  631SOL     OW 1891   2.364   1.482   0.492 -0.4657 -0.1525 -0.1201
  631SOL    HW1 1892   2.397   1.444   0.582  0.2193  0.4020  0.3970
  631SOL    HW2 1893   2.266   1.496   0.489  2.6207 -0.4425  0.3488
  632SOL     OW 1894   2.101   0.396   1.938 -0.2831  0.1542 -0.5398
  632SOL    HW1 1895   2.128   0.442   1.848  2.6179  2.4913  0.9323
  632SOL    HW2 1896   2.043   0.316   1.928 -2.3923 -1.8344  1.2379
  633SOL     OW 1897   0.911   2.852   0.479 -0.3734 -0.7153  0.1794
  633SOL    HW1 1898   0.818   2.880   0.445 -0.3620  2.0824 -0.1649
  633SOL    HW2 1899   0.921   2.888   0.575 -1.8299  0.2052 -1.5782
  634SOL     OW 1900   1.342   0.006   2.731  0.6056  0.2572  0.0055
  634SOL    HW1 1901   1.395   3.047   2.795  0.5126 -1.3293  2.9243
  634SOL    HW2 1902   1.404   0.077   2.691  4.2039 -1.9738  0.8572
  635SOL     OW 1903   2.593   0.529   0.099  0.2842  0.0339  0.0727
  635SOL    HW1 1904   2.686   0.562   0.129  1.6835  2.1824 -1.2229
  635SOL    HW2 1905   2.522   0.570   0.164 -0.3505  2.4536  0.4290
  636SOL     OW 1906   0.811   1.482   1.112 -0.8128  0.1345  0.3215
  636SOL    HW1 1907   0.838   1.571   1.156  1.3506 -0.3001  1.8374
  636SOL    HW2 1908   0.898   1.443   1.077 -2.7366  2.5762  1.2463
  637SOL     OW 1909   0.085   2.665   0.479  0.4172  0.0231 -0.0052
  637SOL    HW1 1910   0.019   2.589   0.513 -2.0318 -0.4476  2.6047
  637SOL    HW2 1911   0.167   2.619   0.444  0.7694  0.9152  0.9288
  638SOL     OW 1912   0.200   2.855   0.339 -0.2014  0.4419  0.5635
  638SOL    HW1 1913   0.137   2.791   0.383  0.6436 -0.0008 -1.8807
  638SOL    HW2 1914   0.257   2.903   0.408  0.8426  2.7791 -1.8226
  639SOL     OW 1915   1.166   1.422   0.147 -0.2094 -0.0307 -0.5780
  639SOL    HW1 1916   1.151   1.323   0.131  0.0578  0.0315  0.0162
  639SOL    HW2 1917   1.259   1.455   0.123 -1.0390  1.7007  0.5592
  640SOL     OW 1918   1.261   2.484   0.884 -0.0483 -0.5157  0.3324
  640SOL    HW1 1919   1.364   2.490   0.884 -0.7407 -1.0495 -0.4639
  640SOL    HW2 1920   1.219   2.542   0.813 -0.1557  0.6205  1.6501
  641SOL     OW 1921   3.020   2.479   0.547 -0.1163  0.5040 -0.3541
  641SOL    HW1 1922   2.957   2.440   0.478 -0.2416  0.3122 -1.9736
  641SOL    HW2 1923   3.021   2.427   0.632  0.2505  0.5262 -1.3972
  642SOL     OW 1924   0.984   0.160   1.666  0.4478 -0.0583  0.6289
  642SOL    HW1 1925   1.037   0.112   1.590  0.4374 -2.0432 -1.9777
  642SOL    HW2 1926   0.998   0.124   1.758 -3.1028  0.9916 -1.5806
  643SOL     OW 1927   0.921   2.133   2.287  0.7121  0.6793  0.2810
  643SOL    HW1 1928   0.922   2.128   2.183 -0.0112  1.5979 -0.3171
  643SOL    HW2 1929   0.872   2.055   2.330 -0.2313  1.0807 -0.9985
  644SOL     OW 1930   0.993   2.949   0.719 -0.2392 -0.1365  0.3303
  644SOL    HW1 1931   1.081   3.001   0.726  3.0201  0.5733  2.1478
  644SOL    HW2 1932   0.911   3.000   0.759 -0.0375 -0.6340 -0.8444
  645SOL     OW 1933   1.084   1.555   2.294 -0.0063  0.1486  0.2160
  645SOL    HW1 1934   0.991   1.568   2.337  3.5289 -0.8590 -0.9938
  645SOL    HW2 1935   1.145   1.509   2.362  0.0435  0.9746 -0.7873
  646SOL     OW 1936   0.701   0.999   0.309  0.3016  0.5014  0.1527
  646SOL    HW1 1937   0.655   0.914   0.349 -0.1175  3.1685  1.7474
  646SOL    HW2 1938   0.706   1.079   0.370  1.1866  0.4094  0.5765
  647SOL     OW 1939   1.106   0.238   0.912 -0.2530 -0.1776  0.6679
  647SOL    HW1 1940   1.142   0.332   0.879  0.9687  0.5321 -0.8504
  647SOL    HW2 1941   1.086   0.246   1.011  1.6694  1.2441 -0.9395
  648SOL     OW 1942   2.948   2.914   1.627 -0.0300  0.1594  0.2884
  648SOL    HW1 1943   2.850   2.932   1.657 -0.8045  1.6422 -0.0361
  648SOL    HW2 1944   3.004   2.994   1.611  2.5006 -3.6483  1.1197
  649SOL     OW 1945   0.671   1.981   0.060  0.1034  0.2384  0.3942
  649SOL    HW1 1946   0.620   2.024   3.085  0.3264  1.3303  0.0794
  649SOL    HW2 1947   0.622   1.989   0.149 -1.8014  1.4720  0.8135
  650SOL     OW 1948   2.933   1.887   1.447 -0.1430 -0.3503 -0.1886
  650SOL    HW1 1949   2.966   1.893   1.543  0.2054 -0.0946  1.2045
  650SOL    HW2 1950   2.929   1.983   1.401 -1.2543  1.5808 -3.6948
  651SOL     OW 1951   0.003   3.020   3.027 -0.3817  0.7849 -0.3280
  651SOL    HW1 1952   0.012   3.045   0.022 -1.3420  0.8232  2.1080
  651SOL    HW2 1953   3.085   0.004   2.978  2.4100  1.7992  2.3881
  652SOL     OW 1954   2.513   1.916   0.177 -0.1542 -0.2707 -0.3793
  652SOL    HW1 1955   2.450   1.987   0.144 -1.0032 -3.4089 -1.4568
  652SOL    HW2 1956   2.466   1.846   0.234  0.7687 -2.5441  1.2018
  653SOL     OW 1957   0.336   0.424   0.965  0.1556  0.0046 -0.2900
  653SOL    HW1 1958   0.388   0.405   0.882  0.7288  1.1047  0.6735
  653SOL    HW2 1959   0.360   0.355   1.038  0.8322 -1.0771 -0.1360
  654SOL     OW 1960   1.461   2.923   2.894  0.0294 -0.1431  0.1308
  654SOL    HW1 1961   1.509   2.872   2.816  3.1449  0.8217 -1.3432
  654SOL    HW2 1962   1.506   2.918   2.984 -0.6747 -0.8169 -1.4865
  655SOL     OW 1963   0.910   2.484   0.914  0.4799 -0.3552  0.1165
  655SOL    HW1 1964   0.914   2.586   0.919  0.8893  0.6603 -2.4430
  655SOL    HW2 1965   0.916   2.461   0.816 -2.4762  2.7473  2.3564
  656SOL     OW 1966   0.699   2.878   2.122  0.3377  0.6214  0.0955
  656SOL    HW1 1967   0.766   2.856   2.192 -0.7341 -0.4509 -0.0896
  656SOL    HW2 1968   0.727   2.849   2.028  2.4271  1.5715 -0.5667
  657SOL     OW 1969   2.006   0.824   2.010  0.2578  0.5949  0.6629
  657SOL    HW1 1970   2.109   0.825   2.016  4.0798  0.9532 -0.8203
  657SOL    HW2 1971   1.974   0.743   2.064  0.4988  0.2208 -1.5012
  658SOL     OW 1972   2.295   1.776   1.007 -0.4941  0.0864  0.0690
  658SOL    HW1 1973   2.385   1.785   1.052  1.0616  1.0495  0.4905
  658SOL    HW2 1974   2.291   1.687   0.957  1.6730  1.1012  1.9481
  659SOL     OW 1975   2.416   2.929   0.184 -0.1163  0.3474 -0.3569
  659SOL    HW1 1976   2.492   2.995   0.167 -2.0259 -0.5720  0.2833
  659SOL    HW2 1977   2.458   2.836   0.193  0.0808 -0.6459  0.7843
  660SOL     OW 1978   1.034   1.004   2.799  0.3116  0.3530  0.6338
  660SOL    HW1 1979   1.037   1.102   2.811  0.6759 -0.8960  2.3515
  660SOL    HW2 1980   0.960   0.959   2.848  0.3431  1.5525 -0.9052
  661SOL     OW 1981   2.345   2.746   0.711 -0.2069 -0.1263 -0.4105
  661SOL    HW1 1982   2.257   2.795   0.711 -0.4630  1.2660 -1.3885
  661SOL    HW2 1983   2.343   2.656   0.757 -3.8346 -1.1819 -0.5597
  662SOL     OW 1984   0.656   0.708   0.269 -0.6825 -0.1273  0.3364
  662SOL    HW1 1985   0.598   0.635   0.310 -0.5566 -0.2621 -0.0392
  662SOL    HW2 1986   0.655   0.697   0.167  1.8690 -1.0591  0.6340
  663SOL     OW 1987   1.213   2.235   2.620  0.2768  0.3241 -0.1017
  663SOL    HW1 1988   1.292   2.196   2.672 -1.1899  0.4141  0.8097
  663SOL    HW2 1989   1.206   2.191   2.529  0.8990 -1.3450 -3.2263
  664SOL     OW 1990   1.024   2.703   1.246 -0.6529  0.2940  0.1618
  664SOL    HW1 1991   1.021   2.775   1.324 -0.4357 -1.6503  1.4590
  664SOL    HW2 1992   1.120   2.693   1.209  1.3663  0.1580 -0.5803
  665SOL     OW 1993   1.773   1.530   1.579 -0.0320 -0.0994  0.4787
  665SOL    HW1 1994   1.779   1.484   1.669 -2.5312 -1.4875 -1.2908
  665SOL    HW2 1995   1.680   1.566   1.569 -1.1233  0.2262 -1.3614
  666SOL     OW 1996   0.482   2.624   0.249  0.3376 -0.5258  0.0017
  666SOL    HW1 1997   0.534   2.560   0.185 -0.7776 -1.6026  1.0998
  666SOL    HW2 1998   0.421   2.699   0.212 -3.6225  2.1910  1.3983
  667SOL     OW 1999   2.081   1.403   1.392  0.1054 -0.3467 -0.0557
  667SOL    HW1 2000   2.067   1.301   1.414  0.1467 -0.7736 -1.5026
  667SOL    HW2 2001   2.091   1.457   1.480  2.5596  0.4146 -0.9356
  668SOL     OW 2002   0.337   0.060   2.154 -0.3502 -0.7147 -0.2903
  668SOL    HW1 2003   0.429   0.051   2.103 -0.4464 -0.5181 -1.3941
  668SOL    HW2 2004   0.255   0.070   2.094  3.8882 -1.0710 -0.5452
  669SOL     OW 2005   1.876   2.009   2.352  0.0645  0.6683 -0.0333
  669SOL    HW1 2006   1.898   2.099   2.316 -0.9389 -1.2242  1.1127
  669SOL    HW2 2007   1.795   1.972   2.304  2.9878 -1.6985  2.7476
  670SOL     OW 2008   2.319   2.164   0.439  0.1599 -0.4757 -0.1848
  670SOL    HW1 2009   2.339   2.062   0.440  1.4829  1.4366 -2.0678
  670SOL    HW2 2010   2.277   2.194   0.528 -1.5330 -1.1535  0.5075
  671SOL     OW 2011   0.914   1.238   1.466  0.1912 -0.0285 -0.0786
  671SOL    HW1 2012   0.919   1.209   1.368  0.2139 -0.4257  1.0677
  671SOL    HW2 2013   0.987   1.305   1.497  0.9818  1.7130  1.7826
  672SOL     OW 2014   2.726   1.321   2.335 -1.3123  0.1945 -0.4755
  672SOL    HW1 2015   2.681   1.389   2.397  1.1212  0.3824  0.5406
  672SOL    HW2 2016   2.827   1.318   2.353 -1.1085  0.8268  0.3693
  673SOL     OW 2017   2.943   1.920   2.412 -0.4380 -0.3500  0.0980
  673SOL    HW1 2018   2.843   1.899   2.420 -1.3730 -1.4470  2.1550
  673SOL    HW2 2019   2.967   1.975   2.494 -0.4663  0.4914  0.5992
  674SOL     OW 2020   1.053   2.807   2.186  0.1546  0.4253 -0.1806
  674SOL    HW1 2021   1.108   2.755   2.254  1.0897 -1.1947  0.5625
  674SOL    HW2 2022   1.018   2.902   2.214 -1.5922 -2.2372 -1.8505
  675SOL     OW 2023   0.575   0.797   1.551 -0.2444  0.0660 -0.4960
  675SOL    HW1 2024   0.674   0.793   1.548  0.5177  1.0050  1.8685
  675SOL    HW2 2025   0.554   0.883   1.593  1.2902 -0.3891 -2.3874
  676SOL     OW 2026   2.014   0.894   0.391  0.3616  0.4144 -0.1191
  676SOL    HW1 2027   1.950   0.817   0.392  0.1584  2.3269  0.0907
  676SOL    HW2 2028   2.096   0.872   0.330  0.7583  0.7348 -1.0892
  677SOL     OW 2029   2.851   1.835   2.761  0.2304  0.6896 -0.3508
  677SOL    HW1 2030   2.779   1.793   2.702 -0.1038 -0.1543  1.2366
  677SOL    HW2 2031   2.895   1.762   2.817 -1.6089 -0.6864  3.1004
  678SOL     OW 2032   3.046   3.022   1.261 -0.3278 -0.2644 -0.1642
  678SOL    HW1 2033   0.018   3.093   1.257  0.2507  2.3075  0.9309
  678SOL    HW2 2034   3.079   2.931   1.293  1.5167  0.7234  0.9253
  679SOL     OW 2035   2.113   0.008   0.557 -0.1264 -0.0396  0.2097
  679SOL    HW1 2036   2.107   0.021   0.660  3.8784 -2.3710  2.5582
  679SOL    HW2 2037   2.199   3.069   0.537  2.1731 -0.8500  2.2822
  680SOL     OW 2038   0.453   2.316   2.214 -0.1665  0.3708 -0.1506
  680SOL    HW1 2039   0.503   2.241   2.262 -0.1353  0.1962  0.7462
  680SOL    HW2 2040   0.518   2.371   2.159 -0.6421 -1.0338 -2.9080
  681SOL     OW 2041   0.346   1.545   1.389 -0.1705 -0.6206 -0.2975
  681SOL    HW1 2042   0.353   1.573   1.288  2.7214 -0.6637 -2.9303
  681SOL    HW2 2043   0.300   1.627   1.435 -0.5808  3.8310  0.5816
  682SOL     OW 2044   0.471   2.249   1.796 -0.1762 -0.1767 -0.0219
  682SOL    HW1 2045   0.401   2.175   1.814 -0.9148  0.8370 -1.8209
  682SOL    HW2 2046   0.426   2.342   1.806  1.8114 -0.0967 -1.1451
  683SOL     OW 2047   3.031   1.879   1.704  0.2132  0.6843  0.2001
  683SOL    HW1 2048   3.084   1.960   1.731  1.6360 -1.2800 -3.8688
  683SOL    HW2 2049   3.100   1.800   1.697  0.9843  2.3207  0.9173
  684SOL     OW 2050   2.537   1.706   3.090  0.1777  0.3726 -0.2124
  684SOL    HW1 2051   2.545   1.796   0.032  1.9264 -0.6110 -0.8059
  684SOL    HW2 2052   2.594   1.638   0.031 -1.7383 -0.6935  0.6826
  685SOL     OW 2053   1.493   0.946   0.396  0.5126  0.3685  0.5014
  685SOL    HW1 2054   1.571   0.953   0.335  0.2526 -1.1136  0.8029
  685SOL    HW2 2055   1.442   1.034   0.394 -0.7980  0.5975 -1.0471
  686SOL     OW 2056   0.197   0.101   0.706  0.1061  0.1064 -0.0113
  686SOL    HW1 2057   0.234   0.035   0.772  0.8301  3.3761 -0.5411
  686SOL    HW2 2058   0.151   0.181   0.753 -4.3464 -3.8193 -2.0251
  687SOL     OW 2059   0.906   1.341   2.595  0.9847  0.1555 -0.0533
  687SOL    HW1 2060   0.972   1.299   2.532  2.5313 -3.7727 -0.0876
  687SOL    HW2 2061   0.956   1.335   2.684 -2.5993 -1.3521  0.5242
  688SOL     OW 2062   1.093   1.806   1.497 -0.3110 -0.2098  0.0436
  688SOL    HW1 2063   1.014   1.742   1.491  2.8344 -1.4863 -0.4527
  688SOL    HW2 2064   1.069   1.902   1.503  0.5803 -5.1530 -1.9732
  689SOL     OW 2065   2.434   0.272   1.311 -0.0008 -0.3335 -0.2839
  689SOL    HW1 2066   2.504   0.194   1.316  0.2195 -2.3028  0.4858
  689SOL    HW2 2067   2.353   0.251   1.256  0.3026  0.9389 -1.8205
  690SOL     OW 2068   3.087   1.534   0.971  0.1823 -0.0922 -0.1352
  690SOL    HW1 2069   0.033   1.580   1.048 -2.3797 -1.1678 -0.0302
  690SOL    HW2 2070   0.050   1.492   0.906  1.1097  1.0318 -2.0720
  691SOL     OW 2071   0.309   2.459   1.338 -0.1824  0.5536 -0.4371
  691SOL    HW1 2072   0.396   2.415   1.367  0.2415 -0.3595 -0.3975
  691SOL    HW2 2073   0.224   2.408   1.371 -4.2241 -1.4315  0.1253
  692SOL     OW 2074   2.171   3.017   1.221 -0.1989  0.4270 -0.1400
  692SOL    HW1 2075   2.211   0.007   1.215  0.1879  0.3432  0.4190
  692SOL    HW2 2076   2.070   3.026   1.224 -0.0204  1.3206 -0.7199
  693SOL     OW 2077   0.309   2.009   2.252  0.4253  0.1043 -0.0515
  693SOL    HW1 2078   0.238   1.941   2.284  0.3511 -1.1663 -1.3736
  693SOL    HW2 2079   0.263   2.088   2.212  2.3615 -0.4864  4.7311
  694SOL     OW 2080   1.786   1.000   1.569  0.0623  0.1105  1.0215
  694SOL    HW1 2081   1.856   1.011   1.493 -0.5894  1.6155 -1.1576
  694SOL    HW2 2082   1.704   1.058   1.541 -1.9217  1.7307 -0.3110
  695SOL     OW 2083   0.713   0.803   1.167  0.5404  0.4246 -0.3628
  695SOL    HW1 2084   0.630   0.815   1.227 -3.2788  1.7900 -0.6579
  695SOL    HW2 2085   0.797   0.828   1.214 -1.4436 -1.0545 -0.8766
  696SOL     OW 2086   1.485   0.030   0.792 -0.5323  0.4333  0.1321
  696SOL    HW1 2087   1.543   3.095   0.862  0.3938  0.9971 -0.8362
  696SOL    HW2 2088   1.501   3.094   0.702 -0.7631  0.5576  2.2349
  697SOL     OW 2089   0.917   0.456   1.449 -0.3630 -0.3557  0.2687
  697SOL    HW1 2090   0.981   0.433   1.529  2.7911 -3.0892  0.8370
  697SOL    HW2 2091   0.978   0.469   1.367  1.0381  3.1252  1.9770
  698SOL     OW 2092   1.537   0.898   2.143 -0.3076 -0.2408 -0.1071
  698SOL    HW1 2093   1.447   0.894   2.189  0.0949  0.2517 -1.0640
  698SOL    HW2 2094   1.559   0.998   2.131  1.1368 -1.6182  2.0738
  699SOL     OW 2095   1.660   0.488   1.029  0.0155 -0.1050 -0.3139
  699SOL    HW1 2096   1.754   0.466   0.996  2.7966  0.6790 -3.1830
  699SOL    HW2 2097   1.641   0.588   1.017 -1.1656  0.4958 -2.5700
  700SOL     OW 2098   0.863   2.386   0.147  0.0439 -0.4153 -0.2021
  700SOL    HW1 2099   0.864   2.408   0.250 -0.0833  1.0677  1.9198
  700SOL    HW2 2100   0.877   2.284   0.136 -2.1421  1.9671  0.5800
  701SOL     OW 2101   2.152   2.445   2.897  0.0024  0.1607 -0.1208
  701SOL    HW1 2102   2.138   2.527   2.841  0.3715 -4.1715  0.0061
  701SOL    HW2 2103   2.216   2.374   2.850  2.1264 -2.0909 -2.6688
  702SOL     OW 2104   0.786   0.488   0.764 -0.4759  0.0692 -0.1606
  702SOL    HW1 2105   0.839   0.559   0.815  1.0479 -3.0165 -0.5489
  702SOL    HW2 2106   0.830   0.394   0.773  0.6261 -3.1598 -1.2392
  703SOL     OW 2107   2.550   0.239   2.580 -0.4748  0.0252  0.6019
  703SOL    HW1 2108   2.473   0.268   2.640 -0.7565  0.0598 -0.0765
  703SOL    HW2 2109   2.529   0.271   2.485  0.4493  1.1185  1.8643
  704SOL     OW 2110   0.170   2.301   0.610  0.4113 -0.3266 -0.3011
  704SOL    HW1 2111   0.209   2.355   0.531  0.3893 -2.6668 -0.1534
  704SOL    HW2 2112   0.221   2.212   0.621  1.2868  0.5411 -0.8799
  705SOL     OW 2113   2.823   2.709   2.453 -0.2088  0.0065 -0.1360
  705SOL    HW1 2114   2.860   2.646   2.381  0.1614  2.0393  1.1270
  705SOL    HW2 2115   2.793   2.797   2.410  1.4158 -0.6101  0.7327
  706SOL     OW 2116   2.249   2.816   1.061 -0.5107 -0.3550 -0.0225
  706SOL    HW1 2117   2.219   2.739   1.121 -3.3019  2.2099 -0.9604
  706SOL    HW2 2118   2.262   2.899   1.115  0.6940  1.0545 -3.0299
  707SOL     OW 2119   0.855   2.601   2.097 -0.4866  0.1189 -0.1898
  707SOL    HW1 2120   0.923   2.619   2.173  1.7497 -1.5334  0.8244
  707SOL    HW2 2121   0.904   2.548   2.022  0.5350 -0.6438 -1.9192
  708SOL     OW 2122   0.196   2.387   2.222  0.4448  0.1998  0.2759
  708SOL    HW1 2123   0.163   2.434   2.306  0.6149  0.1450 -0.8801
  708SOL    HW2 2124   0.299   2.380   2.223 -3.0900  0.6904  0.2050
  709SOL     OW 2125   1.895   0.217   1.906 -0.0591 -0.2581 -0.0375
  709SOL    HW1 2126   1.793   0.233   1.887 -1.1469 -1.1699  1.4233
  709SOL    HW2 2127   1.905   0.121   1.930  0.4086  0.4569 -0.3099
  710SOL     OW 2128   1.613   0.587   2.748 -0.0169  0.4188  0.3657
  710SOL    HW1 2129   1.657   0.508   2.704  1.4834  1.7447 -1.0537
  710SOL    HW2 2130   1.537   0.621   2.690 -1.6922 -1.5018  2.0408
  711SOL     OW 2131   0.904   1.945   2.664 -0.3452  0.2468 -0.1917
  711SOL    HW1 2132   0.921   2.035   2.704 -2.2278 -1.8710 -2.8036
  711SOL    HW2 2133   0.909   1.869   2.736  1.9163 -0.5033 -1.4331
  712SOL     OW 2134   0.538   2.503   2.500 -0.2988  0.6644 -0.1034
  712SOL    HW1 2135   0.555   2.512   2.598 -0.4452 -0.5579 -0.3922
  712SOL    HW2 2136   0.547   2.409   2.466 -2.3230  1.4275  1.3175
  713SOL     OW 2137   1.589   1.280   2.403  0.1651  0.0825  0.1181
  713SOL    HW1 2138   1.624   1.210   2.468  3.8318  2.7836  1.0162
  713SOL    HW2 2139   1.662   1.344   2.376 -0.3141 -0.8986 -0.9741
  714SOL     OW 2140   1.393   1.449   1.929  0.3880  0.1139  0.0598
  714SOL    HW1 2141   1.414   1.438   1.830 -1.2319 -1.0974  0.1246
  714SOL    HW2 2142   1.352   1.361   1.960 -0.7229 -4.2474  0.3274
  715SOL     OW 2143   2.085   0.563   2.481  0.0493  0.6176  0.2974
  715SOL    HW1 2144   2.036   0.477   2.507 -0.3123  2.3259  1.8353
  715SOL    HW2 2145   2.030   0.645   2.493 -0.1382  2.9715 -0.5348
  716SOL     OW 2146   3.087   2.186   1.866  0.1516  0.5764  0.4463
  716SOL    HW1 2147   2.993   2.182   1.889  3.2823 -0.2477  0.4015
  716SOL    HW2 2148   0.012   2.270   1.823  1.2376 -2.4050  3.6578
  717SOL     OW 2149   2.603   1.507   0.645 -0.0372 -0.1764 -0.0671
  717SOL    HW1 2150   2.620   1.580   0.713 -1.1839  0.4746 -0.2415
  717SOL    HW2 2151   2.547   1.428   0.682 -1.6633 -0.1082  0.2727
  718SOL     OW 2152   1.226   1.988   2.043  0.2686 -0.2103  0.0483
  718SOL    HW1 2153   1.316   2.002   2.080 -4.5369  1.0509  0.1760
  718SOL    HW2 2154   1.164   1.954   2.114 -0.4964  5.3532  0.0363
  719SOL     OW 2155   1.996   0.860   2.579 -0.4113  0.5073 -0.2571
  719SOL    HW1 2156   1.925   0.920   2.533 -1.5408 -2.4702 -1.0155
  719SOL    HW2 2157   1.963   0.833   2.672  0.2416 -0.4444 -0.2286
  720SOL     OW 2158   0.719   0.318   1.038 -0.5792 -0.0020  0.0445
  720SOL    HW1 2159   0.739   0.242   1.092 -1.8683  5.3349 -1.5446
  720SOL    HW2 2160   0.667   0.288   0.957 -2.6097  1.1578 -1.0457
  721SOL     OW 2161   3.026   0.731   0.598 -0.4692 -0.0180 -0.2386
  721SOL    HW1 2162   3.045   0.635   0.572 -2.5291  0.4522  1.7337
  721SOL    HW2 2163   3.047   0.800   0.523  1.1122 -0.8845 -1.9237
  722SOL     OW 2164   3.055   0.310   2.715  0.1755  0.5471  0.1024
  722SOL    HW1 2165   2.953   0.290   2.696  1.2575 -0.1375  1.0653
  722SOL    HW2 2166   3.070   0.409   2.722  0.4150 -1.9338  0.4243
  723SOL     OW 2167   1.512   0.158   0.385 -0.1874  0.6252  0.0504
  723SOL    HW1 2168   1.447   0.236   0.393  0.3415 -3.8813 -0.9887
  723SOL    HW2 2169   1.484   0.073   0.435 -0.8124 -2.3408 -1.2306
  724SOL     OW 2170   0.750   1.816   2.202  0.1026  0.5421  0.0262
  724SOL    HW1 2171   0.695   1.896   2.172  0.7935  1.2091 -0.7792
  724SOL    HW2 2172   0.768   1.807   2.302  1.2423  2.2625 -1.9506
  725SOL     OW 2173   1.546   2.942   1.007 -0.2740 -0.0148  0.4275
  725SOL    HW1 2174   1.611   2.881   0.956  2.5393  0.6407 -0.7848
  725SOL    HW2 2175   1.575   3.037   1.011 -1.2806 -5.4874  0.1963
  726SOL     OW 2176   1.820   2.559   3.088 -0.3199 -0.2367  0.4251
  726SOL    HW1 2177   1.853   2.491   3.022 -1.5454  1.9801  1.0330
  726SOL    HW2 2178   1.874   2.542   0.069 -1.7473 -1.7871 -2.4776
  727SOL     OW 2179   1.670   1.553   1.130 -0.5767  0.3239 -0.0580
  727SOL    HW1 2180   1.679   1.659   1.141  1.1815  0.2534 -2.9833
  727SOL    HW2 2181   1.755   1.513   1.086  0.4293 -0.5991 -2.2837
  728SOL     OW 2182   2.223   2.778   1.663  0.2998 -0.1755 -0.1786
  728SOL    HW1 2183   2.237   2.805   1.565 -1.2916  0.0874  0.6000
  728SOL    HW2 2184   2.236   2.677   1.677 -2.1559 -0.1266 -0.8090
  729SOL     OW 2185   2.161   1.977   1.282 -0.0801  0.2996 -0.6821
  729SOL    HW1 2186   2.186   1.879   1.306 -2.0704 -0.4666 -0.6573
  729SOL    HW2 2187   2.215   2.012   1.205 -1.1316 -1.7783  3.9073
  730SOL     OW 2188   1.557   0.619   3.018  0.1086 -0.0925 -0.4626
  730SOL    HW1 2189   1.568   0.622   2.913  0.4923 -0.5409 -2.1796
  730SOL    HW2 2190   1.631   0.567   3.064  1.7166 -0.5509  1.4976
  731SOL     OW 2191   0.526   0.255   0.837  0.6908  0.0797 -0.3680
  731SOL    HW1 2192   0.559   0.314   0.762 -3.5504 -0.5755  3.6106
  731SOL    HW2 2193   0.473   0.176   0.807  1.5354 -0.6333  2.0012
  732SOL     OW 2194   1.430   0.284   0.726  0.1549 -0.3189 -0.6895
  732SOL    HW1 2195   1.383   0.287   0.633 -0.2059 -0.2282  0.7365
  732SOL    HW2 2196   1.440   0.183   0.748  0.9852 -3.0003  1.1259
  733SOL     OW 2197   0.872   1.646   1.473  0.3566  0.1789  0.2847
  733SOL    HW1 2198   0.773   1.626   1.502 -2.1514 -2.4507 -1.3882
  733SOL    HW2 2199   0.873   1.678   1.372 -0.4201  0.0564 -2.3228
  734SOL     OW 2200   2.726   2.696   3.071 -0.6534 -0.1129  0.6013
  734SOL    HW1 2201   2.673   2.780   3.091  1.8459  2.3124 -2.7482
  734SOL    HW2 2202   2.661   2.644   3.016 -0.5916  1.7735  1.9723
  735SOL     OW 2203   1.194   3.089   1.215  0.0598  0.0003 -0.2799
  735SOL    HW1 2204   1.204   0.086   1.206  0.5749 -1.5905  1.7080
  735SOL    HW2 2205   1.231   3.043   1.135  0.6212 -1.8449  2.3979
  736SOL     OW 2206   1.835   1.917   0.341  0.0746 -0.2147  0.0559
  736SOL    HW1 2207   1.775   1.905   0.259 -1.2162 -1.0116 -2.7400
  736SOL    HW2 2208   1.917   1.974   0.318 -1.2679 -1.8285  2.5387
  737SOL     OW 2209   0.096   1.725   1.163 -0.1617  0.0931  0.1407
  737SOL    HW1 2210   0.181   1.671   1.165 -1.9333 -1.9232 -1.0719
  737SOL    HW2 2211   0.022   1.686   1.223  0.1792 -1.0125  2.1554
  738SOL     OW 2212   2.163   2.224   2.632 -0.6186 -0.0700 -0.2386
  738SOL    HW1 2213   2.227   2.275   2.572  0.7725 -2.9113  1.4119
  738SOL    HW2 2214   2.067   2.256   2.608 -0.2176  0.4937  1.0401
  739SOL     OW 2215   1.200   1.886   2.644  0.5051  0.4383  0.1815
  739SOL    HW1 2216   1.271   1.921   2.584  1.6263 -0.6007  0.0824
  739SOL    HW2 2217   1.106   1.915   2.619  2.1803 -0.9454  0.8402
  740SOL     OW 2218   1.281   2.895   1.015  0.1304  0.3266 -0.3101
  740SOL    HW1 2219   1.380   2.916   1.014 -0.9131  1.2155 -0.0953
  740SOL    HW2 2220   1.255   2.870   0.921  1.2757 -0.7120 -1.0856
  741SOL     OW 2221   0.248   0.999   0.816  0.3328 -0.3410  0.0397
  741SOL    HW1 2222   0.161   1.031   0.866 -0.6425 -0.0668 -0.1984
  741SOL    HW2 2223   0.317   0.966   0.887  2.9194  0.4283  2.6645
  742SOL     OW 2224   0.817   1.533   2.409  0.1533  0.8259  0.0987
  742SOL    HW1 2225   0.823   1.458   2.478  2.2393 -0.3590 -3.4455
  742SOL    HW2 2226   0.789   1.625   2.449 -0.1026 -2.3128  0.3237
  743SOL     OW 2227   1.080   1.044   2.150  0.2420  0.3735  0.5113
  743SOL    HW1 2228   0.983   1.072   2.168  0.3603  0.8768 -0.2657
  743SOL    HW2 2229   1.126   1.110   2.088  0.9969 -0.0168  0.0955
  744SOL     OW 2230   1.809   0.250   1.532 -0.4962 -0.4653  0.1321
  744SOL    HW1 2231   1.753   0.278   1.615 -1.3397 -1.8692  1.3721
  744SOL    HW2 2232   1.900   0.296   1.532 -1.3115 -0.6300  1.5254
  745SOL     OW 2233   2.209   1.300   1.637  0.2836  0.0361 -0.0055
  745SOL    HW1 2234   2.190   1.391   1.679  0.3761  4.0547  0.1203
  745SOL    HW2 2235   2.272   1.247   1.694 -2.0109 -0.8627  1.3977
  746SOL     OW 2236   1.859   1.121   0.393 -0.5841  0.5371 -0.1940
  746SOL    HW1 2237   1.892   1.206   0.351 -0.7767 -0.6883  1.2037
  746SOL    HW2 2238   1.931   1.049   0.397  0.2569  1.3648  1.7030
  747SOL     OW 2239   2.682   1.721   0.854 -0.3974  0.0150 -0.5537
  747SOL    HW1 2240   2.765   1.657   0.843  0.6581  3.2383  1.9365
  747SOL    HW2 2241   2.696   1.816   0.823  0.1705  1.0522  0.0217
  748SOL     OW 2242   0.417   1.847   0.427  0.1518  0.5613 -0.5293
  748SOL    HW1 2243   0.364   1.784   0.366 -0.2866  1.7298 -3.9553
  748SOL    HW2 2244   0.403   1.821   0.527 -2.8353  0.3342  0.7927
  749SOL     OW 2245   3.078   2.581   2.790  0.1538 -0.3775  0.7927
  749SOL    HW1 2246   2.999   2.523   2.769 -2.8121  1.6584 -2.5064
  749SOL    HW2 2247   3.071   2.614   2.888  0.3966 -1.2092 -0.0509
  750SOL     OW 2248   2.307   0.926   0.767 -0.2299 -0.4156  0.1399
  750SOL    HW1 2249   2.395   0.961   0.728 -0.1930 -2.0645  0.5672
  750SOL    HW2 2250   2.323   0.853   0.835 -0.7666  2.4530 -0.5753
  751SOL     OW 2251   2.530   0.081   0.120  0.0103 -0.1287  0.0293
  751SOL    HW1 2252   2.436   0.103   0.093  1.2767 -0.5540 -0.3446
  751SOL    HW2 2253   2.601   0.110   0.052  0.6269  0.0930 -1.1593
  752SOL     OW 2254   2.940   2.712   0.888  0.3431 -0.3074  0.0690
  752SOL    HW1 2255   2.910   2.792   0.944 -1.1962 -1.1613  1.9187
  752SOL    HW2 2256   3.026   2.666   0.919  0.7840  0.9324 -0.6963
  753SOL     OW 2257   1.569   1.177   2.139 -0.0439  0.3355 -0.2656
  753SOL    HW1 2258   1.548   1.272   2.104  0.2905 -0.4026 -0.5500
  753SOL    HW2 2259   1.585   1.176   2.241  0.9752  2.5398 -0.7226
  754SOL     OW 2260   1.889   1.980   1.753 -0.3397 -0.0904  0.6679
  754SOL    HW1 2261   1.850   1.948   1.665 -0.6236  1.2326 -0.3416
  754SOL    HW2 2262   1.974   1.926   1.777  2.2355 -2.1696  2.0393
  755SOL     OW 2263   2.767   0.982   0.876 -0.2133  0.0345  0.4402
  755SOL    HW1 2264   2.810   0.890   0.852 -1.0848  0.9817  0.4639
  755SOL    HW2 2265   2.707   0.977   0.958 -1.1577  0.7125  0.6171
  756SOL     OW 2266   0.591   1.187   2.993 -0.5079  0.3165  0.0949
  756SOL    HW1 2267   0.499   1.206   2.970  2.6538 -1.7050 -2.7293
  756SOL    HW2 2268   0.640   1.149   2.908  3.2402  0.6467 -1.8221
  757SOL     OW 2269   1.746   2.466   1.101 -0.0394 -0.1829  0.1078
  757SOL    HW1 2270   1.727   2.389   1.037  0.3803  0.3905  0.3994
  757SOL    HW2 2271   1.843   2.475   1.115 -4.9003  3.7847  0.1491
  758SOL     OW 2272   1.232   2.436   1.486  0.2620 -0.2251  0.2588
  758SOL    HW1 2273   1.202   2.434   1.386  0.9614  0.8581 -1.6097
  758SOL    HW2 2274   1.260   2.530   1.509 -1.2322 -3.6016  0.3912
  759SOL     OW 2275   2.883   1.398   1.088  0.1100  0.0496  0.0262
  759SOL    HW1 2276   2.968   1.449   1.074  1.5964 -0.0861 -1.0556
  759SOL    HW2 2277   2.879   1.318   1.023 -0.5537  0.5886 -0.8012
  760SOL     OW 2278   2.333   1.168   1.421 -0.6856  0.2165  0.0001
  760SOL    HW1 2279   2.294   1.092   1.364 -0.2685 -0.2168 -1.6564
  760SOL    HW2 2280   2.282   1.198   1.502 -0.6884 -0.2441  2.2568
  761SOL     OW 2281   1.829   3.012   0.158 -0.3873 -0.7023 -0.2207
  761SOL    HW1 2282   1.784   3.090   0.206 -1.1045 -1.0884  0.3543
  761SOL    HW2 2283   1.915   3.046   0.118 -4.0770 -3.2259 -1.0624
  762SOL     OW 2284   1.701   1.537   2.902  0.0597  0.1933  0.0823
  762SOL    HW1 2285   1.669   1.573   2.812  1.3485  0.9629 -2.9171
  762SOL    HW2 2286   1.746   1.615   2.943 -1.8745 -0.4101 -1.0454
  763SOL     OW 2287   0.578   2.232   1.550  0.2313  0.4163 -0.2235
  763SOL    HW1 2288   0.527   2.148   1.521 -0.0913 -0.4479  0.8380
  763SOL    HW2 2289   0.544   2.249   1.646 -1.6356  1.1120  1.1305
  764SOL     OW 2290   0.021   2.475   0.165 -0.0326 -0.0694 -0.0661
  764SOL    HW1 2291   3.025   2.490   0.178  0.3429 -2.4419  0.9434
  764SOL    HW2 2292   0.062   2.531   0.091  1.2007  0.5063 -0.0539
  765SOL     OW 2293   0.509   3.091   1.139  0.4332  0.5974  0.2052
  765SOL    HW1 2294   0.605   3.098   1.104  0.1729 -2.3178 -0.7441
  765SOL    HW2 2295   0.499   3.003   1.194 -1.5364 -0.2420  0.9340
  766SOL     OW 2296   2.694   2.075   2.179 -0.1434  0.2989  0.0340
  766SOL    HW1 2297   2.795   2.081   2.171  1.2930  2.1916 -0.6885
  766SOL    HW2 2298   2.661   1.989   2.138  0.5296 -0.6840  1.6392
  767SOL     OW 2299   2.737   0.932   2.134 -0.6275  0.4050  0.2413
  767SOL    HW1 2300   2.697   0.936   2.040  1.5533 -2.1464 -0.0538
  767SOL    HW2 2301   2.838   0.935   2.118  3.2176 -2.0696 -0.5809
  768SOL     OW 2302   0.881   0.440   2.498 -0.5334  0.3087 -0.0020
  768SOL    HW1 2303   0.781   0.436   2.474 -2.7766 -1.4042  0.3613
  768SOL    HW2 2304   0.913   0.356   2.548  1.1130 -2.8470  0.9171
  769SOL     OW 2305   2.598   2.860   0.755  0.1169  0.1626  0.5030
  769SOL    HW1 2306   2.668   2.786   0.740 -3.1627  1.3334  1.9899
  769SOL    HW2 2307   2.503   2.829   0.727 -0.3147  1.2241  0.2311
  770SOL     OW 2308   0.282   2.957   2.849 -0.0972  0.5892  0.4572
  770SOL    HW1 2309   0.263   2.962   2.746 -0.9945 -0.6960 -0.9099
  770SOL    HW2 2310   0.198   2.983   2.899  0.7015 -2.0217 -2.9131
  771SOL     OW 2311   1.658   2.032   1.899  0.4445 -0.5180 -0.2177
  771SOL    HW1 2312   1.750   2.021   1.852  2.3187  1.0940  0.4767
  771SOL    HW2 2313   1.621   1.945   1.936 -0.6798  0.6004 -0.9998
  772SOL     OW 2314   1.135   0.140   2.873  0.0283  0.6741 -0.3238
  772SOL    HW1 2315   1.072   0.066   2.906 -1.0909  0.6070  1.3334
  772SOL    HW2 2316   1.218   0.104   2.828 -0.8592  2.2699 -0.9922
  773SOL     OW 2317   2.414   0.697   1.618 -0.9981  0.6808 -0.9067
  773SOL    HW1 2318   2.502   0.730   1.577 -0.2713 -1.0887 -1.6754
  773SOL    HW2 2319   2.342   0.767   1.629  1.2349  0.1137 -0.9876
  774SOL     OW 2320   1.050   1.202   1.216 -0.1006  0.0115 -0.6167
  774SOL    HW1 2321   1.034   1.236   1.123 -2.1899  3.7763  3.9166
  774SOL    HW2 2322   1.035   1.101   1.229 -1.2633 -1.3098  2.6018
  775SOL     OW 2323   2.325   2.829   2.966  0.8934 -0.2497 -0.6828
  775SOL    HW1 2324   2.306   2.931   2.962 -0.8635  0.8130 -0.6016
  775SOL    HW2 2325   2.263   2.788   3.038 -0.1279  0.0474 -0.3368
  776SOL     OW 2326   2.397   1.113   1.727  0.6207 -0.0976  0.6582
  776SOL    HW1 2327   2.438   1.114   1.824  2.0483 -0.6956  3.7681
  776SOL    HW2 2328   2.457   1.157   1.660 -0.0734  1.8936 -0.8513
  777SOL     OW 2329   0.322   1.161   2.064 -1.1837  0.0359  0.6392
  777SOL    HW1 2330   0.280   1.113   2.144  0.1048  0.4257 -2.0564
  777SOL    HW2 2331   0.403   1.217   2.097 -0.6295  0.4377  0.2810
  778SOL     OW 2332   0.544   0.661   3.088 -0.3857 -0.6315 -0.3163
  778SOL    HW1 2333   0.504   0.742   3.046  1.4009 -1.2105  1.0266
  778SOL    HW2 2334   0.490   0.577   3.055 -2.6626 -1.7430 -1.3974
  779SOL     OW 2335   0.627   0.402   2.413  0.3784  0.3192 -0.1449
  779SOL    HW1 2336   0.615   0.334   2.337  2.1764  0.0025 -1.0464
  779SOL    HW2 2337   0.556   0.408   2.487  1.0274 -0.2231 -1.3804
  780SOL     OW 2338   2.094   1.128   2.762  0.2335  0.0444  0.2527
  780SOL    HW1 2339   2.169   1.085   2.817 -1.5244 -0.8113  0.2568
  780SOL    HW2 2340   2.125   1.150   2.666  0.6238 -0.7079  1.2915
  781SOL     OW 2341   3.036   1.230   2.067  0.0614  0.4496  0.3750
  781SOL    HW1 2342   2.978   1.265   1.987 -1.2277 -3.9265 -2.3677
  781SOL    HW2 2343   3.038   1.128   2.054  0.1141  1.7163 -1.8147
  782SOL     OW 2344   0.293   1.413   2.829 -0.4968 -0.2376 -0.5639
  782SOL    HW1 2345   0.267   1.340   2.893 -0.5580 -0.5626  2.7057
  782SOL    HW2 2346   0.216   1.462   2.789 -0.2282 -2.2180 -0.4632
  783SOL     OW 2347   1.041   2.112   1.094 -0.0156 -0.2162  0.1742
  783SOL    HW1 2348   1.103   2.086   1.173  1.4288 -0.4410  1.3654
  783SOL    HW2 2349   1.093   2.150   1.020  0.6707 -1.9130  1.6640
  784SOL     OW 2350   1.701   0.358   2.592  0.3385 -0.2630 -0.0181
  784SOL    HW1 2351   1.664   0.287   2.654 -0.1555  1.8172 -1.8241
  784SOL    HW2 2352   1.803   0.350   2.588  0.9293  2.0020 -2.3793
  785SOL     OW 2353   0.773   0.106   1.894  0.0705 -0.2634 -0.2243
  785SOL    HW1 2354   0.871   0.071   1.905  1.0762  1.2725 -1.4587
  785SOL    HW2 2355   0.747   0.128   1.798 -0.3486 -0.4882  0.7517
  786SOL     OW 2356   0.585   2.032   0.316  0.3338  0.2537 -0.2826
  786SOL    HW1 2357   0.539   1.950   0.363 -3.3149 -2.3330  1.7869
  786SOL    HW2 2358   0.589   2.099   0.391  0.4418 -2.2956 -0.2058
  787SOL     OW 2359   1.236   0.617   0.575 -0.3599  0.2034 -0.2054
  787SOL    HW1 2360   1.253   0.576   0.479  2.1941 -0.6073 -1.6554
  787SOL    HW2 2361   1.165   0.690   0.586 -0.8541  1.7379  1.7418
  788SOL     OW 2362   2.911   1.839   1.084 -0.1602  0.6362  0.2063
  788SOL    HW1 2363   2.945   1.769   1.151  0.2764 -0.1207 -0.3594
  788SOL    HW2 2364   2.832   1.798   1.032 -0.0362 -2.5459  1.7303
  789SOL     OW 2365   2.616   1.054   2.358  0.4269 -0.7907 -0.0236
  789SOL    HW1 2366   2.652   0.993   2.284 -0.3227 -0.1490  0.4890
  789SOL    HW2 2367   2.637   1.149   2.329 -0.5934  0.9338  0.4495
  790SOL     OW 2368   0.640   0.281   0.209  0.0569 -0.4920 -0.1161
  790SOL    HW1 2369   0.660   0.231   0.296  2.8970 -0.6688  2.7358
  790SOL    HW2 2370   0.724   0.284   0.150  0.9637 -0.1472 -3.0297
  791SOL     OW 2371   2.961   0.319   0.019 -0.2201  0.5586  0.0989
  791SOL    HW1 2372   2.878   0.279   3.089  1.7089  0.5189 -0.8587
  791SOL    HW2 2373   2.976   0.296   0.116 -1.1675  1.7668 -2.1289
  792SOL     OW 2374   1.374   0.697   2.652 -0.0149 -0.0269 -0.3974
  792SOL    HW1 2375   1.291   0.726   2.704 -0.5788 -0.7065  0.0001
  792SOL    HW2 2376   1.349   0.658   2.558 -0.4554  1.3258 -0.0730
  793SOL     OW 2377   2.992   0.252   0.975 -0.0476  0.3935 -0.3417
  793SOL    HW1 2378   2.944   0.188   0.910  0.5002 -0.4676 -2.3379
  793SOL    HW2 2379   2.955   0.244   1.070  1.4025  1.6706  0.3615
  794SOL     OW 2380   0.043   0.451   1.819 -0.4397 -0.0757  0.0253
  794SOL    HW1 2381   0.101   0.538   1.836  0.6818  2.4510 -3.3826
  794SOL    HW2 2382   3.074   0.441   1.889  1.2540 -1.5402  1.6519
  795SOL     OW 2383   0.370   1.121   0.593 -0.3104 -0.3046  0.2389
  795SOL    HW1 2384   0.436   1.191   0.624 -1.1031 -1.4792  0.1371
  795SOL    HW2 2385   0.324   1.078   0.675 -0.6223 -0.2460  1.5767
  796SOL     OW 2386   0.138   0.823   3.047 -0.0846  0.3537 -0.4906
  796SOL    HW1 2387   0.112   0.866   0.032  0.1296 -2.4319 -1.3071
  796SOL    HW2 2388   0.229   0.852   3.010  0.3477 -4.4098 -2.8041
  797SOL     OW 2389   1.845   2.529   2.537 -0.0435  0.2127  0.1008
  797SOL    HW1 2390   1.839   2.591   2.617 -2.2799  0.0915 -2.7767
  797SOL    HW2 2391   1.777   2.552   2.462 -3.0128 -1.3174  1.5211
  798SOL     OW 2392   0.111   0.130   1.221  0.1068 -0.1376 -0.1882
  798SOL    HW1 2393   0.081   0.213   1.278  0.5444  1.4331  1.2994
  798SOL    HW2 2394   0.205   0.148   1.187  1.8421  1.9275  0.5793
  799SOL     OW 2395   2.470   0.738   1.891 -0.6055  0.3699 -0.2838
  799SOL    HW1 2396   2.434   0.703   1.800  0.0157 -2.2785  1.2722
  799SOL    HW2 2397   2.542   0.676   1.921 -0.1548 -0.3557  0.4970
  800SOL     OW 2398   0.283   1.727   0.627 -0.4883  0.3239  0.5754
  800SOL    HW1 2399   0.211   1.717   0.558 -2.0271 -1.3101 -0.4461
  800SOL    HW2 2400   0.279   1.653   0.699 -1.6129 -3.8918  1.7239
  801SOL     OW 2401   1.551   1.759   0.588  0.1985 -0.0235 -0.1249
  801SOL    HW1 2402   1.492   1.760   0.674 -1.0682  0.0036 -1.2815
  801SOL    HW2 2403   1.632   1.811   0.612 -5.0259 -0.5711  2.5515
  802SOL     OW 2404   1.407   1.117   2.797  0.6694 -0.0804  0.1101
  802SOL    HW1 2405   1.396   1.217   2.814 -0.7432  1.7343 -0.6807
  802SOL    HW2 2406   1.430   1.097   2.701  0.0040 -1.4044  0.1794
  803SOL     OW 2407   0.248   2.123   1.843  0.3868  0.0567 -0.2291
  803SOL    HW1 2408   0.149   2.143   1.833  1.7132  3.8082  1.0604
  803SOL    HW2 2409   0.261   2.019   1.856  1.4400  1.6053  0.7240
  804SOL     OW 2410   1.654   2.247   0.957  0.2639 -0.4730 -0.4979
  804SOL    HW1 2411   1.707   2.183   0.900  0.4030 -0.6137 -0.3750
  804SOL    HW2 2412   1.561   2.216   0.972 -2.8983  0.9238  0.7932
  805SOL     OW 2413   2.505   2.274   2.673  0.2982  0.0618 -0.3383
  805SOL    HW1 2414   2.518   2.328   2.764  0.1976  0.0277  1.6497
  805SOL    HW2 2415   2.470   2.182   2.697  1.0059 -2.0668 -0.0526
  806SOL     OW 2416   2.808   0.149   0.808 -0.1823  0.3440 -0.3436
  806SOL    HW1 2417   2.710   0.121   0.814  0.7699  0.8818 -0.9528
  806SOL    HW2 2418   2.856   0.120   0.722 -2.1234 -1.1268  0.6656
  807SOL     OW 2419   2.962   1.297   2.823  0.1904  0.6310  0.4117
  807SOL    HW1 2420   2.981   1.390   2.780 -1.8391  1.0490  0.9856
  807SOL    HW2 2421   2.873   1.256   2.799  0.9140  1.5904  1.3831
  808SOL     OW 2422   0.794   1.788   0.810 -0.3796 -0.1972 -0.2683
  808SOL    HW1 2423   0.759   1.844   0.733 -0.5354  3.0437  2.8214
  808SOL    HW2 2424   0.751   1.698   0.823 -3.0426 -2.1932 -3.5881
  809SOL     OW 2425   2.788   0.044   2.184  0.2188 -0.3470 -0.2686
  809SOL    HW1 2426   2.695   0.047   2.144  1.4726  0.1210  3.3127
  809SOL    HW2 2427   2.824   0.120   2.243 -0.4882 -1.3451  0.4730
  810SOL     OW 2428   1.389   0.822   1.054 -0.5473 -0.3547  0.3380
  810SOL    HW1 2429   1.489   0.792   1.046 -0.2222 -1.8800  1.0097
  810SOL    HW2 2430   1.366   0.897   0.996 -3.4073 -0.5538  0.3065
  811SOL     OW 2431   1.875   3.016   1.943 -0.2442  0.0994 -0.3435
  811SOL    HW1 2432   1.871   2.932   2.001  2.6510  0.1494  2.5127
  811SOL    HW2 2433   1.785   3.030   1.907  2.0176 -1.1040  1.4003
  812SOL     OW 2434   1.827   2.216   0.502  0.7119  0.1137  0.4309
  812SOL    HW1 2435   1.758   2.142   0.473  0.2414 -0.7067 -0.7586
  812SOL    HW2 2436   1.877   2.260   0.429 -0.4053 -0.1863  1.7042
  813SOL     OW 2437   1.132   0.560   1.892  0.3197 -0.3450  0.0211
  813SOL    HW1 2438   1.048   0.530   1.941 -2.1936 -1.6019  0.8368
  813SOL    HW2 2439   1.164   0.649   1.929 -1.5342  2.0122  1.1096
  814SOL     OW 2440   0.241   3.087   0.978 -0.0792  0.5764  0.6092
  814SOL    HW1 2441   0.333   0.013   0.997 -0.3814 -2.6135 -2.2845
  814SOL    HW2 2442   0.172   0.032   1.034 -0.5339  2.2802  1.9789
  815SOL     OW 2443   3.078   3.098   0.595 -0.5551  0.0983  0.4007
  815SOL    HW1 2444   3.081   2.997   0.592  0.0526  2.1128 -0.1596
  815SOL    HW2 2445   0.065   0.033   0.625  1.2354 -1.5718 -0.9906
  816SOL     OW 2446   2.344   1.751   2.242 -0.7595 -0.1616  0.8831
  816SOL    HW1 2447   2.287   1.827   2.214 -2.5058  0.3434  0.9728
  816SOL    HW2 2448   2.406   1.786   2.317 -0.2658  1.2017  0.4029
  817SOL     OW 2449   1.202   0.040   0.736  0.1482  0.3858  0.0662
  817SOL    HW1 2450   1.147   0.098   0.799 -1.2957 -0.3388  1.4485
  817SOL    HW2 2451   1.300   0.014   0.761 -0.7441  1.0591 -1.2381
  818SOL     OW 2452   1.797   0.266   0.063 -0.0205  0.0378 -0.5955
  818SOL    HW1 2453   1.737   0.237   3.090 -0.7113 -2.0171 -0.1326
  818SOL    HW2 2454   1.793   0.200   0.142 -0.3400  0.3207 -0.7251
  819SOL     OW 2455   2.055   3.075   3.099  0.2003 -0.4060  0.3064
  819SOL    HW1 2456   2.090   3.016   0.067 -2.5306  3.0041  4.2899
  819SOL    HW2 2457   2.130   0.004   3.037  1.4007 -3.0191 -1.2832
  820SOL     OW 2458   1.832   1.247   2.752  0.0581  0.0308 -0.2115
  820SOL    HW1 2459   1.770   1.247   2.835 -0.5837 -0.1413 -1.9426
  820SOL    HW2 2460   1.922   1.200   2.772  1.6928 -1.5032 -1.4406
  821SOL     OW 2461   3.075   0.459   1.125  0.3113 -0.3467 -0.1185
  821SOL    HW1 2462   3.038   0.389   1.054  1.0577  1.1066  1.2280
  821SOL    HW2 2463   0.017   0.536   1.076 -1.7877 -0.9334  0.3081
  822SOL     OW 2464   1.218   2.728   2.392  0.2516 -0.0390 -0.2684
  822SOL    HW1 2465   1.195   2.637   2.431 -0.7224  1.0173 -1.4582
  822SOL    HW2 2466   1.199   2.802   2.458 -1.4680  0.3458  0.1872
  823SOL     OW 2467   0.532   1.641   1.774 -0.6376  0.3390  0.1655
  823SOL    HW1 2468   0.562   1.657   1.681 -0.1116  0.3313  1.8841
  823SOL    HW2 2469   0.612   1.629   1.840 -0.6599  0.6565  2.5082
  824SOL     OW 2470   1.650   2.548   2.337 -0.5486  0.3792 -0.3308
  824SOL    HW1 2471   1.652   2.506   2.241 -0.8823 -0.1879 -1.0788
  824SOL    HW2 2472   1.592   2.632   2.334  1.8507  0.4367 -0.2333
  825SOL     OW 2473   1.698   0.956   0.224 -0.2315  0.2146  0.7614
  825SOL    HW1 2474   1.749   0.897   0.162  2.0726  1.0515  1.0354
  825SOL    HW2 2475   1.760   1.005   0.288  0.4343 -1.9494 -0.4901
  826SOL     OW 2476   2.147   0.848   3.099  0.2300 -0.3018 -0.3943
  826SOL    HW1 2477   2.146   0.941   3.060  0.0193 -0.8345  1.5385
  826SOL    HW2 2478   2.228   0.803   3.054 -0.4394 -0.9128  0.2014
  827SOL     OW 2479   0.523   2.053   2.939  0.4037 -0.7874 -0.6180
  827SOL    HW1 2480   0.449   2.114   2.904  1.7213 -0.0965 -0.7187
  827SOL    HW2 2481   0.494   1.958   2.945  2.4255  4.0674  1.7863
  828SOL     OW 2482   2.595   1.356   1.391 -0.0673 -0.6707 -0.3019
  828SOL    HW1 2483   2.583   1.308   1.484  1.6328 -1.5952  2.3016
  828SOL    HW2 2484   2.504   1.377   1.352  1.1679 -0.2962 -0.0774
  829SOL     OW 2485   0.662   1.584   0.916 -0.1716  0.1499 -0.2354
  829SOL    HW1 2486   0.592   1.651   0.944  0.3715 -2.5209  0.8389
  829SOL    HW2 2487   0.702   1.534   0.998  0.1532 -0.0330  0.0326
  830SOL     OW 2488   1.248   1.332   1.336  0.2528 -0.1804 -0.1408
  830SOL    HW1 2489   1.331   1.272   1.334  0.7464 -2.1576 -0.0007
  830SOL    HW2 2490   1.165   1.285   1.299  1.1196 -0.5898 -1.2008
  831SOL     OW 2491   0.321   1.902   0.119 -0.1799  0.1014  0.0001
  831SOL    HW1 2492   0.221   1.921   0.123 -0.0813  0.8723 -2.1446
  831SOL    HW2 2493   0.359   1.954   0.192  1.8394 -0.5405 -1.7221
  832SOL     OW 2494   0.710   0.060   2.934 -0.4706  0.0497  0.2194
  832SOL    HW1 2495   0.639   0.027   2.999  0.3508  1.4169  1.1698
  832SOL    HW2 2496   0.734   3.082   2.873 -1.5276 -1.9660 -1.9153
  833SOL     OW 2497   0.523   0.589   2.011 -0.1445 -0.2112  0.0605
  833SOL    HW1 2498   0.563   0.674   1.967  0.7365  0.7947  1.4445
  833SOL    HW2 2499   0.560   0.507   1.962  0.6996  0.2073 -1.2837
  834SOL     OW 2500   0.105   0.331   0.842 -0.2213 -0.2403  0.8008
  834SOL    HW1 2501   0.015   0.312   0.884  0.0411  2.0452 -1.8769
  834SOL    HW2 2502   0.167   0.367   0.910 -1.5498 -0.6626 -1.7316
  835SOL     OW 2503   2.759   0.030   1.103  0.5877  0.2517 -0.2895
  835SOL    HW1 2504   2.802   0.124   1.113  0.3304 -0.5392  0.9475
  835SOL    HW2 2505   2.826   3.072   1.059  0.6681 -0.1572  1.3419
  836SOL     OW 2506   0.267   2.201   2.946  0.2351  0.1642  0.0604
  836SOL    HW1 2507   0.239   2.298   2.922  0.4891  0.3061 -0.7406
  836SOL    HW2 2508   0.308   2.191   3.037  1.1161 -0.8887 -0.3357
  837SOL     OW 2509   1.584   1.660   2.695 -0.2161 -0.0866  0.0823
  837SOL    HW1 2510   1.651   1.696   2.624 -1.8070 -1.2788  1.1066
  837SOL    HW2 2511   1.531   1.737   2.737  0.1773  1.6723 -2.4019
  838SOL     OW 2512   3.012   0.982   1.610  0.0577 -0.1219  0.4822
  838SOL    HW1 2513   2.978   0.971   1.514  0.3759 -1.6944  0.3770
  838SOL    HW2 2514   0.000   1.019   1.613  1.2983  0.6356 -0.8833
  839SOL     OW 2515   0.892   1.074   0.801 -0.1384  0.1907 -0.4550
  839SOL    HW1 2516   0.964   1.090   0.736 -4.1752  2.8223  3.3907
  839SOL    HW2 2517   0.811   1.032   0.753 -1.1239 -0.7663  0.5518
  840SOL     OW 2518   1.577   3.017   1.517 -0.0042  0.2333 -0.9724
  840SOL    HW1 2519   1.673   3.042   1.500 -0.6586  0.0440  3.1493
  840SOL    HW2 2520   1.540   2.953   1.448 -0.7598  0.4282 -0.3491
  841SOL     OW 2521   0.538   2.624   0.499 -0.4467  0.6230  0.4478
  841SOL    HW1 2522   0.514   2.629   0.397  0.3640  0.8199 -0.4745
  841SOL    HW2 2523   0.488   2.554   0.545  2.9035  0.7543 -1.8029
  842SOL     OW 2524   0.627   0.703   0.820  0.0013  0.1041 -0.3280
  842SOL    HW1 2525   0.564   0.688   0.899  1.3186  0.7075 -0.4139
  842SOL    HW2 2526   0.682   0.617   0.798 -0.1594 -2.5587  2.2361
  843SOL     OW 2527   0.784   1.372   2.055  0.1173  0.0434  0.1393
  843SOL    HW1 2528   0.882   1.399   2.055 -0.1538 -1.3952 -0.9017
  843SOL    HW2 2529   0.744   1.356   1.960  1.8325  1.4797  0.5869
  844SOL     OW 2530   1.081   2.080   3.008  0.3838 -0.4726  0.3405
  844SOL    HW1 2531   1.133   2.013   3.064 -0.9931 -0.6966 -2.4360
  844SOL    HW2 2532   1.130   2.170   2.997 -1.3035 -1.7415 -1.0137
  845SOL     OW 2533   2.365   2.353   2.463  0.2735 -0.5444  0.6514
  845SOL    HW1 2534   2.432   2.375   2.388  0.0758 -0.2903 -0.4835
  845SOL    HW2 2535   2.408   2.324   2.551  0.8302 -0.7139 -1.0779
  846SOL     OW 2536   1.821   2.029   2.957 -0.1172  0.5556 -0.1724
  846SOL    HW1 2537   1.754   2.032   2.880  2.1542  0.1157  1.5620
  846SOL    HW2 2538   1.916   2.032   2.920 -2.2845  0.9593 -0.0890
  847SOL     OW 2539   1.834   2.727   2.713 -0.0499 -0.0737 -0.0460
  847SOL    HW1 2540   1.928   2.745   2.734 -2.8448 -0.3910  0.7279
  847SOL    HW2 2541   1.777   2.737   2.795  5.0561  0.4096 -1.6951
  848SOL     OW 2542   0.632   0.391   0.589 -0.1631 -0.7074 -0.1753
  848SOL    HW1 2543   0.676   0.311   0.548 -0.4811  0.4257 -0.1892
  848SOL    HW2 2544   0.702   0.437   0.648  0.1311  1.6367 -0.3447
  849SOL     OW 2545   0.835   0.014   1.410 -0.3905  0.1270 -0.1747
  849SOL    HW1 2546   0.934   0.046   1.425  1.0396  0.3356 -0.5302
  849SOL    HW2 2547   0.777   0.099   1.397 -1.3530  2.1024  2.0019
  850SOL     OW 2548   0.402   1.469   0.137  0.9170 -0.1195 -0.4246
  850SOL    HW1 2549   0.343   1.543   0.167  3.3008 -2.3548 -1.1821
  850SOL    HW2 2550   0.451   1.493   0.054  0.1797  1.1186  0.3967
  851SOL     OW 2551   0.007   1.051   0.946 -0.4916  0.3218 -0.2216
  851SOL    HW1 2552   3.036   1.117   0.937 -0.4143 -1.6171  2.2775
  851SOL    HW2 2553   0.029   1.033   1.043 -2.5435  1.6990 -1.2421
  852SOL     OW 2554   1.836   2.252   1.792  0.5667  0.2619  0.1021
  852SOL    HW1 2555   1.866   2.152   1.773  0.3509 -0.7657  1.0548
  852SOL    HW2 2556   1.867   2.307   1.711 -1.5304 -0.9353  1.5363
  853SOL     OW 2557   0.228   1.672   0.194  0.0960  0.1720  0.2429
  853SOL    HW1 2558   0.149   1.656   0.132 -0.4024 -0.3397 -0.8630
  853SOL    HW2 2559   0.270   1.760   0.161 -1.4546  0.7234 -1.6819
  854SOL     OW 2560   1.764   1.156   1.831 -0.1727 -0.1517  0.1265
  854SOL    HW1 2561   1.767   1.097   1.748  2.3180 -1.5755 -2.3568
  854SOL    HW2 2562   1.673   1.199   1.842  0.4808 -3.1343 -1.9084
  855SOL     OW 2563   0.695   2.723   0.003  0.0847 -0.3179 -0.4637
  855SOL    HW1 2564   0.621   2.720   3.037  1.2649  0.7245  0.0778
  855SOL    HW2 2565   0.743   2.633   0.019 -0.2885  0.3589  2.6160
  856SOL     OW 2566   2.785   0.630   1.687 -0.4599 -0.1586  0.2226
  856SOL    HW1 2567   2.874   0.679   1.703  3.5127 -2.0898 -1.3636
  856SOL    HW2 2568   2.732   0.673   1.613  0.6798  1.4441  1.0224
  857SOL     OW 2569   0.461   0.885   2.109  0.3249 -0.0077 -0.1928
  857SOL    HW1 2570   0.414   0.931   2.032 -1.2428 -1.1755  0.0776
  857SOL    HW2 2571   0.540   0.841   2.063 -1.1209  2.2981  0.4991
  858SOL     OW 2572   0.412   1.257   2.428  0.1506 -0.3732 -0.5519
  858SOL    HW1 2573   0.334   1.323   2.457 -2.9106  1.1148  2.7943
  858SOL    HW2 2574   0.464   1.294   2.346  2.7296  0.9730 -1.4047
  859SOL     OW 2575   2.466   0.330   0.477  0.0592 -0.0534  0.0376
  859SOL    HW1 2576   2.526   0.382   0.538 -1.7948 -0.9825 -1.1901
  859SOL    HW2 2577   2.508   0.246   0.435 -3.2451 -0.0903  0.9298
  860SOL     OW 2578   1.714   2.778   2.964  0.3021 -0.0309  0.2509
  860SOL    HW1 2579   1.762   2.871   2.973  1.7198  1.4055  2.5842
  860SOL    HW2 2580   1.767   2.700   3.007  2.2381 -1.7873 -1.4469
  861SOL     OW 2581   0.353   0.693   0.306  0.1719 -0.2329 -0.2835
  861SOL    HW1 2582   0.413   0.614   0.338 -0.8833 -2.5698  1.5687
  861SOL    HW2 2583   0.375   0.726   0.214  0.5322 -0.0811  0.2977
  862SOL     OW 2584   1.289   0.360   1.942  0.1378  0.0835  0.5664
  862SOL    HW1 2585   1.234   0.439   1.910 -0.4990  2.6343  3.4212
  862SOL    HW2 2586   1.367   0.394   1.994  1.1455 -2.0679  0.2026
  863SOL     OW 2587   2.700   2.160   1.229  0.3760 -0.3479  0.2583
  863SOL    HW1 2588   2.605   2.195   1.217  1.1105 -0.9092 -1.1239
  863SOL    HW2 2589   2.724   2.166   1.329  2.1298 -1.1577 -1.7382
  864SOL     OW 2590   2.546   2.888   1.980 -0.1582 -0.4172  0.0636
  864SOL    HW1 2591   2.444   2.874   1.982 -1.2653 -0.3617 -0.3705
  864SOL    HW2 2592   2.597   2.802   1.986 -1.2931  2.0637 -0.3469
  865SOL     OW 2593   1.093   0.404   1.647 -0.3874  0.0433 -0.1895
  865SOL    HW1 2594   1.045   0.316   1.670  2.8715 -0.1259 -0.1860
  865SOL    HW2 2595   1.102   0.452   1.737 -0.7741  0.8537  0.7706
  866SOL     OW 2596   2.101   0.010   0.843  0.0531 -0.1837 -0.1585
  866SOL    HW1 2597   2.153   0.093   0.870 -0.8497  3.4041  0.3174
  866SOL    HW2 2598   2.011   0.026   0.889  0.1571  1.9243 -2.0417
  867SOL     OW 2599   2.830   2.671   0.425 -0.0889 -0.0125  0.2615
  867SOL    HW1 2600   2.841   2.771   0.410  0.7190  0.2937  0.3858
  867SOL    HW2 2601   2.827   2.649   0.526 -0.2934 -0.9707 -1.1552
  868SOL     OW 2602   1.240   2.126   1.800 -0.3287  0.4323  0.1443
  868SOL    HW1 2603   1.199   2.109   1.890  3.4362  0.9743 -1.0450
  868SOL    HW2 2604   1.296   2.210   1.799 -0.2782 -0.2511  0.0257
  869SOL     OW 2605   1.898   2.276   0.185  0.0323  0.9942  0.0731
  869SOL    HW1 2606   1.975   2.219   0.218 -0.3822 -1.3564  1.7603
  869SOL    HW2 2607   1.914   2.377   0.187 -0.6676  1.8427  2.4396
  870SOL     OW 2608   2.429   2.479   0.476  0.1593  0.2106 -0.0102
  870SOL    HW1 2609   2.438   2.571   0.433  1.0216 -0.1563  1.3344
  870SOL    HW2 2610   2.467   2.405   0.408 -0.2298 -1.5161 -1.3079
  871SOL     OW 2611   0.182   1.413   1.550  0.0722  0.2443 -0.3400
  871SOL    HW1 2612   0.237   1.435   1.467 -2.2648  3.2524  0.8588
  871SOL    HW2 2613   0.245   1.409   1.636 -1.0985 -0.4031  0.8267
  872SOL     OW 2614   0.652   1.555   2.780  0.0049  0.0235  0.0061
  872SOL    HW1 2615   0.743   1.595   2.787  1.0141 -3.1519 -1.9666
  872SOL    HW2 2616   0.652   1.465   2.731 -1.5974  2.5993 -0.1175
  873SOL     OW 2617   0.931   2.847   1.452  0.1935  0.2520 -0.0246
  873SOL    HW1 2618   0.868   2.786   1.506 -3.8200  0.6271  1.1306
  873SOL    HW2 2619   0.902   2.947   1.460 -0.4747  1.0041  1.8920
  874SOL     OW 2620   1.237   0.806   1.954 -0.2210 -0.3497 -0.0356
  874SOL    HW1 2621   1.209   0.903   1.935 -0.9657  0.6310 -0.0406
  874SOL    HW2 2622   1.296   0.772   1.871  0.1664  0.8480 -1.5836
  875SOL     OW 2623   2.645   2.545   1.187 -0.8797 -0.1969  0.1316
  875SOL    HW1 2624   2.582   2.524   1.266  0.9025  0.0692 -1.5607
  875SOL    HW2 2625   2.627   2.639   1.158  3.0067 -1.6632  2.6062
  876SOL     OW 2626   1.077   1.263   0.679  0.5495  0.4363 -0.3300
  876SOL    HW1 2627   1.080   1.171   0.630  0.5069 -1.9221 -0.5757
  876SOL    HW2 2628   0.987   1.308   0.674  0.8168 -0.7801 -0.0731
  877SOL     OW 2629   2.870   0.272   1.212 -0.0977 -0.0022 -0.5926
  877SOL    HW1 2630   2.799   0.339   1.233  2.1376 -2.0628 -2.7682
  877SOL    HW2 2631   2.889   0.214   1.296  0.4334 -0.0188 -0.4186
  878SOL     OW 2632   2.255   1.641   0.010  0.6454 -0.5092 -0.0625
  878SOL    HW1 2633   2.347   1.673   3.089  0.0450 -0.1956  0.8198
  878SOL    HW2 2634   2.253   1.557   0.072  0.7406 -0.7033  0.9415
  879SOL     OW 2635   2.684   1.907   1.378 -0.6005 -0.0384 -0.4352
  879SOL    HW1 2636   2.772   1.879   1.415 -1.4411  0.1793 -0.3470
  879SOL    HW2 2637   2.693   1.997   1.332 -2.6661  1.2832  0.0205
  880SOL     OW 2638   0.548   2.250   1.132  0.2585 -0.5051 -0.0141
  880SOL    HW1 2639   0.555   2.296   1.218 -0.1291 -0.9447  0.4168
  880SOL    HW2 2640   0.613   2.291   1.066 -0.9447 -1.8771 -0.2023
  881SOL     OW 2641   1.486   1.150   1.046 -0.0862 -0.1886 -0.0527
  881SOL    HW1 2642   1.498   1.110   1.141  0.5484  1.0433  0.2178
  881SOL    HW2 2643   1.456   1.078   0.986 -1.1160  1.8988 -0.5764
  882SOL     OW 2644   2.759   1.095   2.609 -0.4135  0.0269 -0.2975
  882SOL    HW1 2645   2.725   1.046   2.524 -1.0778 -0.6388 -1.4097
  882SOL    HW2 2646   2.760   1.024   2.682  0.1684 -1.2712 -2.0941
  883SOL     OW 2647   1.247   0.252   1.190  0.2782  0.0070 -0.5113
  883SOL    HW1 2648   1.291   0.272   1.282  4.1371 -1.2675  2.4655
  883SOL    HW2 2649   1.315   0.282   1.122 -3.2492 -0.5444 -1.1878
  884SOL     OW 2650   2.948   2.962   1.012 -0.0161 -0.1537 -0.6231
  884SOL    HW1 2651   2.971   2.996   1.105  1.8745 -0.0547  0.0858
  884SOL    HW2 2652   3.038   2.932   0.973  3.3037  0.3668  1.7821
  885SOL     OW 2653   1.465   1.037   1.290  0.1607  0.5143  0.4409
  885SOL    HW1 2654   1.501   1.053   1.384 -1.7531 -2.7314 -0.4282
  885SOL    HW2 2655   1.379   0.987   1.294  1.8208  2.3270  0.0238
  886SOL     OW 2656   1.315   0.927   2.966 -0.0929  0.3358 -0.2890
  886SOL    HW1 2657   1.388   0.911   3.038  2.4486 -0.3900 -1.7842
  886SOL    HW2 2658   1.349   0.991   2.892 -1.8930  1.0317  0.4337
  887SOL     OW 2659   1.240   0.613   0.998  0.3986 -0.7326  0.9515
  887SOL    HW1 2660   1.287   0.582   0.911  0.8740 -2.1107 -0.2198
  887SOL    HW2 2661   1.283   0.700   1.022 -1.3844 -1.1012  2.4416
  888SOL     OW 2662   2.188   1.331   2.002  0.2289 -0.2975 -0.0934
  888SOL    HW1 2663   2.232   1.378   1.924 -0.3963  2.3829 -1.0576
  888SOL    HW2 2664   2.141   1.244   1.975  1.7119  2.4599  1.5563
  889SOL     OW 2665   2.428   2.434   0.734 -0.2789  0.5160 -0.3040
  889SOL    HW1 2666   2.448   2.338   0.766 -1.1141  1.2106 -0.6918
  889SOL    HW2 2667   2.435   2.445   0.632 -2.1541 -1.3654 -0.0439
  890SOL     OW 2668   1.394   1.716   0.823  0.2947 -0.2578  0.0358
  890SOL    HW1 2669   1.295   1.698   0.817 -0.5123 -0.6272 -0.0284
  890SOL    HW2 2670   1.423   1.749   0.915 -0.1084  3.7182 -0.4575
  891SOL     OW 2671   2.520   0.612   2.456 -0.0690  0.2980  0.2693
  891SOL    HW1 2672   2.611   0.638   2.419  1.6448  1.9186 -2.1070
  891SOL    HW2 2673   2.448   0.599   2.387 -1.5482  2.1065  1.2313
  892SOL     OW 2674   0.924   0.353   2.244  0.0093 -0.0123 -0.1787
  892SOL    HW1 2675   1.010   0.317   2.205  0.7083 -0.2422  0.7901
  892SOL    HW2 2676   0.940   0.399   2.338  0.1157 -2.2184  1.3398
  893SOL     OW 2677   1.385   0.322   1.415 -0.1782  0.2103  0.4614
  893SOL    HW1 2678   1.360   0.270   1.497 -0.3769  1.7103 -0.4543
  893SOL    HW2 2679   1.486   0.328   1.413  2.1614  0.9005 -0.5785
  894SOL     OW 2680   2.610   0.700   0.686  0.0344 -0.1739 -0.6483
  894SOL    HW1 2681   2.548   0.730   0.762 -0.1841  1.9778 -0.5645
  894SOL    HW2 2682   2.708   0.707   0.718  1.0973 -2.7420  2.7053
  895SOL     OW 2683   1.896   2.271   2.582  0.6303  1.2696 -0.0606
  895SOL    HW1 2684   1.866   2.369   2.580 -1.3085 -2.0399  0.7917
  895SOL    HW2 2685   1.820   2.199   2.571 -2.5454 -0.8515 -1.9065
  896SOL     OW 2686   1.839   3.091   1.521  0.3717 -0.0508 -0.6926
  896SOL    HW1 2687   1.818   0.087   1.546  2.1546 -1.1294  0.2325
  896SOL    HW2 2688   1.873   3.035   1.602  0.7734  0.0670 -3.8345
  897SOL     OW 2689   0.632   1.992   2.027 -0.1393 -0.0242 -0.1427
  897SOL    HW1 2690   0.545   1.977   1.972  0.0108  1.6942 -2.5899
  897SOL    HW2 2691   0.715   1.997   1.967  3.2332 -0.3509  0.4737
  898SOL     OW 2692   2.044   1.548   2.084  0.1663  0.2303  0.2128
  898SOL    HW1 2693   2.090   1.458   2.069 -0.5174 -0.5705  1.7772
  898SOL    HW2 2694   2.067   1.583   2.179 -1.6779  0.2614  2.5542
  899SOL     OW 2695   1.955   2.464   0.783 -0.1309 -0.0073 -0.3381
  899SOL    HW1 2696   2.029   2.484   0.712 -1.6946  1.6653 -1.4572
  899SOL    HW2 2697   1.984   2.501   0.876 -0.2073  0.1987  1.3587
  900SOL     OW 2698   1.020   3.019   2.944  0.4551 -0.2651  0.3821
  900SOL    HW1 2699   1.086   2.958   2.990  0.2202 -2.1169  0.5908
  900SOL    HW2 2700   0.971   2.961   2.875  3.0041 -0.3595 -2.3544
  901SOL     OW 2701   1.034   1.810   2.148  0.1395  0.6362 -0.6098
  901SOL    HW1 2702   0.932   1.826   2.142  2.4504 -2.4167 -0.9580
  901SOL    HW2 2703   1.063   1.725   2.199  0.6163 -1.8043  0.7543
  902SOL     OW 2704   2.259   0.459   2.963 -0.6876 -0.2586  0.1010
  902SOL    HW1 2705   2.271   0.559   2.968  1.7361 -2.8742  1.2459
  902SOL    HW2 2706   2.218   0.418   3.042  2.0160 -2.0607 -3.2805
  903SOL     OW 2707   2.281   0.803   2.077 -0.3691 -0.5209  0.1386
  903SOL    HW1 2708   2.349   0.786   2.003  0.0013 -1.9781 -0.3636
  903SOL    HW2 2709   2.297   0.898   2.117  1.3918 -1.6240  0.3912
  904SOL     OW 2710   1.623   0.832   1.706  0.1492 -0.3530  0.2501
  904SOL    HW1 2711   1.678   0.901   1.652  1.5380  0.1855 -4.4573
  904SOL    HW2 2712   1.660   0.818   1.802  0.5307 -0.0420  0.2168
  905SOL     OW 2713   2.221   0.180   1.160 -0.2388  0.2036  0.4076
  905SOL    HW1 2714   2.250   0.173   1.063 -2.8051  0.4201  1.3141
  905SOL    HW2 2715   2.119   0.189   1.160 -0.4613  1.5941  1.6507
  906SOL     OW 2716   2.378   1.921   0.463  0.1125 -0.6253  0.2877
  906SOL    HW1 2717   2.329   1.902   0.547  2.3637  0.8879 -0.3613
  906SOL    HW2 2718   2.395   1.833   0.414 -0.6741 -2.0409 -0.8346
  907SOL     OW 2719   1.192   2.758   0.776 -0.2089 -0.1331  0.1674
  907SOL    HW1 2720   1.274   2.743   0.717 -0.3267 -1.7421 -2.3940
  907SOL    HW2 2721   1.117   2.802   0.729  1.0842  1.9472  0.5237
  908SOL     OW 2722   1.546   2.352   2.522 -0.4659  0.4125  0.1332
  908SOL    HW1 2723   1.500   2.277   2.467  0.7419 -1.6506  1.0616
  908SOL    HW2 2724   1.572   2.436   2.467  1.8662  1.3285 -0.6412
  909SOL     OW 2725   2.273   0.325   2.158  0.2386 -0.4270 -0.3005
  909SOL    HW1 2726   2.262   0.411   2.218 -1.0570 -0.2230 -0.5885
  909SOL    HW2 2727   2.242   0.363   2.069  0.5703 -0.0773  2.7594
  910SOL     OW 2728   1.115   0.934   2.567  0.5360  0.7372 -0.2256
  910SOL    HW1 2729   1.069   0.842   2.547  0.0773 -4.7156 -2.7052
  910SOL    HW2 2730   1.102   0.961   2.664  1.7346 -0.2139 -2.3387
  911SOL     OW 2731   3.072   0.887   2.856  0.3493  0.2120  0.0345
  911SOL    HW1 2732   0.037   0.851   2.925  0.4332 -0.7103  1.7104
  911SOL    HW2 2733   2.988   0.827   2.854  0.7611 -0.0216  2.3885
  912SOL     OW 2734   0.210   2.394   0.872  0.4850 -0.1199  0.0222
  912SOL    HW1 2735   0.156   2.367   0.790  1.8650 -1.6517 -1.2584
  912SOL    HW2 2736   0.258   2.313   0.911 -0.1526  0.8397 -1.0077
  913SOL     OW 2737   2.511   1.885   2.453 -0.5512 -0.3873 -0.2250
  913SOL    HW1 2738   2.425   1.876   2.503 -1.0430 -1.0200 -1.8440
  913SOL    HW2 2739   2.553   1.978   2.455  0.2387 -1.5127 -2.7568
  914SOL     OW 2740   1.975   1.243   0.639  0.8766 -0.5611 -0.0490
  914SOL    HW1 2741   1.924   1.220   0.551 -1.9955  1.1320  1.8626
  914SOL    HW2 2742   1.906   1.285   0.703 -1.5209  0.3198  0.1466
  915SOL     OW 2743   0.492   2.685   2.154 -0.3227 -0.2345  0.3933
  915SOL    HW1 2744   0.547   2.771   2.142  2.7507  2.5928 -2.9939
  915SOL    HW2 2745   0.548   2.611   2.120  1.6329 -0.7786 -0.1872
  916SOL     OW 2746   0.776   0.012   1.085 -0.3021 -0.0577 -0.3335
  916SOL    HW1 2747   0.787   3.018   1.120 -0.1447  0.6078  0.7869
  916SOL    HW2 2748   0.859   0.068   1.117 -0.2529 -0.7704  0.1479
  917SOL     OW 2749   2.370   0.708   3.021 -0.0078  0.2790  0.5858
  917SOL    HW1 2750   2.449   0.681   3.078  0.9026  0.9430 -1.0395
  917SOL    HW2 2751   2.401   0.765   2.942 -1.6975  1.1562  2.9079
  918SOL     OW 2752   1.584   2.285   2.780  0.2120 -0.1474 -0.0526
  918SOL    HW1 2753   1.548   2.355   2.847  2.1752 -2.0547  0.0560
  918SOL    HW2 2754   1.580   2.325   2.689 -0.4831  0.2832  0.9584
  919SOL     OW 2755   1.794   2.728   1.197  0.1319 -0.2987  0.1676
  919SOL    HW1 2756   1.792   2.751   1.295  0.3107  1.6531  0.9987
  919SOL    HW2 2757   1.742   2.644   1.175  2.0476  1.0518 -1.5939
  920SOL     OW 2758   1.266   0.332   2.488 -0.5443  0.2660  0.6464
  920SOL    HW1 2759   1.311   0.323   2.580  1.2462 -0.8002 -0.6466
  920SOL    HW2 2760   1.225   0.240   2.468 -0.7660  2.8862  2.1775
  921SOL     OW 2761   3.098   0.940   2.589 -0.2164  0.0156 -0.1807
  921SOL    HW1 2762   0.039   0.883   2.521 -0.3139  1.8498  4.1523
  921SOL    HW2 2763   3.079   0.882   2.669 -2.5810  0.0307 -1.2249
  922SOL     OW 2764   3.035   2.061   1.230  0.0619  0.1993 -0.3992
  922SOL    HW1 2765   3.002   2.159   1.233 -2.5383  1.6649 -0.4372
  922SOL    HW2 2766   2.963   2.001   1.191 -2.6348  0.9403  1.9632
  923SOL     OW 2767   0.347   1.613   2.101 -0.2373  0.1686  0.3480
  923SOL    HW1 2768   0.346   1.643   2.199 -2.2332 -2.5853 -1.8280
  923SOL    HW2 2769   0.268   1.552   2.079  0.6539  0.0398 -1.6736
  924SOL     OW 2770   1.665   2.945   2.313  0.3242  0.8674 -0.3186
  924SOL    HW1 2771   1.593   2.876   2.288 -0.3654 -0.9759 -0.6103
  924SOL    HW2 2772   1.744   2.888   2.339 -0.3184  1.3454 -0.3796
  925SOL     OW 2773   2.925   1.730   0.578 -0.3166 -0.2391  0.0929
  925SOL    HW1 2774   3.002   1.704   0.517 -0.4071 -0.8606  1.7660
  925SOL    HW2 2775   2.938   1.690   0.669  2.3262  0.7871 -2.1099
  926SOL     OW 2776   2.441   0.738   0.933 -0.6667 -0.0996  0.1978
  926SOL    HW1 2777   2.455   0.637   0.958 -0.8337  0.5395  1.6197
  926SOL    HW2 2778   2.466   0.797   1.014 -2.1389 -0.8937  3.9886
  927SOL     OW 2779   1.678   0.173   1.311 -0.2845 -0.3684  0.1509
  927SOL    HW1 2780   1.645   0.263   1.280 -3.2680 -0.6417 -0.0032
  927SOL    HW2 2781   1.734   0.190   1.393  0.5514 -0.2012  0.9374
  928SOL     OW 2782   0.041   0.788   2.175  0.4331 -0.0450 -0.0250
  928SOL    HW1 2783   0.122   0.818   2.225 -1.7308 -2.9530 -0.4035
  928SOL    HW2 2784   3.082   0.723   2.223  1.0131 -2.4199  0.3646
  929SOL     OW 2785   2.200   0.970   1.233 -0.4574  0.6589 -0.0693
  929SOL    HW1 2786   2.170   0.872   1.215  0.0910 -0.2437 -1.5035
  929SOL    HW2 2787   2.177   1.034   1.155  0.0007  1.3153 -0.1617
  930SOL     OW 2788   2.198   2.382   1.511 -0.4570 -0.4258 -0.0542
  930SOL    HW1 2789   2.237   2.290   1.491  0.7226 -1.4010  0.9544
  930SOL    HW2 2790   2.216   2.417   1.604 -1.6409 -1.5941  2.1596
  931SOL     OW 2791   1.974   1.036   1.383 -0.2311  0.1098 -0.3296
  931SOL    HW1 2792   1.938   1.082   1.301 -0.0423 -2.7346  1.0965
  931SOL    HW2 2793   2.062   0.988   1.352  1.1341 -1.1844  0.2345
  932SOL     OW 2794   0.189   0.699   1.846 -0.0788  0.1516 -0.3099
  932SOL    HW1 2795   0.280   0.689   1.805  1.3333  0.8948 -2.6748
  932SOL    HW2 2796   0.181   0.797   1.875  1.1318  2.4187  0.7520
  933SOL     OW 2797   2.364   1.984   1.704  0.4980 -0.2308  0.3012
  933SOL    HW1 2798   2.337   2.066   1.648  0.7526  0.5273  0.4611
  933SOL    HW2 2799   2.379   2.012   1.797 -2.0408  2.2467 -0.2651
  934SOL     OW 2800   1.400   2.345   1.696  0.0486 -0.3568  0.1874
  934SOL    HW1 2801   1.480   2.412   1.705 -1.3122 -1.6808  1.6730
  934SOL    HW2 2802   1.327   2.381   1.632 -0.3173  0.2161  2.2728
  935SOL     OW 2803   0.002   1.613   1.950 -0.1343 -0.2069 -0.1352
  935SOL    HW1 2804   0.046   1.534   1.996 -2.6847 -0.9863 -2.0452
  935SOL    HW2 2805   3.084   1.691   2.011 -0.3572 -1.6089 -0.9792
  936SOL     OW 2806   2.599   0.694   1.192  0.4589  0.6915 -0.4823
  936SOL    HW1 2807   2.584   0.792   1.174  0.3444  2.0268  0.4721
  936SOL    HW2 2808   2.511   0.641   1.203  1.3767  1.1319  1.8320
  937SOL     OW 2809   1.676   0.460   1.315  0.7831  0.1825  0.0180
  937SOL    HW1 2810   1.644   0.495   1.224 -0.6712  0.0514 -0.6923
  937SOL    HW2 2811   1.664   0.527   1.392 -2.6234  2.5640 -0.0565
  938SOL     OW 2812   0.435   2.811   0.742  0.7520 -0.4905 -0.0893
  938SOL    HW1 2813   0.374   2.756   0.800 -2.2697 -0.8269 -0.5501
  938SOL    HW2 2814   0.532   2.796   0.741  1.0829 -0.8784 -1.9976
  939SOL     OW 2815   2.815   2.198   2.695 -0.1762  0.5355  0.2198
  939SOL    HW1 2816   2.880   2.123   2.674 -1.1325  1.7780 -0.6772
  939SOL    HW2 2817   2.774   2.235   2.612  2.9166  2.1814  2.1281
  940SOL     OW 2818   1.456   1.720   3.077  0.0107  0.5067  0.6486
  940SOL    HW1 2819   1.557   1.715   3.085  1.8712 -2.0506 -0.0720
  940SOL    HW2 2820   1.431   1.757   2.987  0.1531 -2.8074  1.3620
  941SOL     OW 2821   1.969   2.529   0.218  0.5603  0.1945  0.3802
  941SOL    HW1 2822   2.052   2.551   0.170 -1.9181  0.5846 -0.5195
  941SOL    HW2 2823   1.953   2.587   0.301  1.1413 -0.9253  1.5679
  942SOL     OW 2824   2.038   1.764   0.986  0.0286  0.0125 -0.0698
  942SOL    HW1 2825   1.989   1.857   0.988 -1.9853 -0.6195 -0.2875
  942SOL    HW2 2826   2.136   1.777   1.005 -1.4459 -1.0091 -1.0205
  943SOL     OW 2827   1.948   0.718   1.474 -0.5398 -0.0621 -0.1371
  943SOL    HW1 2828   1.988   0.811   1.500  1.1658 -0.2742  1.9786
  943SOL    HW2 2829   1.895   0.726   1.387 -0.4071 -0.2443 -1.7155
  944SOL     OW 2830   1.321   0.604   2.130  0.1290  0.2709 -0.0515
  944SOL    HW1 2831   1.287   0.608   2.230  0.6861  0.6122  0.7354
  944SOL    HW2 2832   1.302   0.689   2.077  2.7749  0.9128  1.7789
  945SOL     OW 2833   2.263   2.852   1.415 -0.5205 -0.5315 -0.0230
  945SOL    HW1 2834   2.361   2.879   1.395  1.9896  2.9223  2.5683
  945SOL    HW2 2835   2.208   2.923   1.365 -0.6975  1.5573  0.0109
  946SOL     OW 2836   0.623   1.213   0.662  0.3354  0.3910  0.0926
  946SOL    HW1 2837   0.637   1.120   0.701  1.8983 -2.0151 -3.3236
  946SOL    HW2 2838   0.666   1.220   0.571 -2.2668  0.6366 -0.1208
  947SOL     OW 2839   1.181   2.219   0.891 -0.2186  0.3922 -0.1754
  947SOL    HW1 2840   1.199   2.318   0.900 -0.0193 -1.6395 -0.9919
  947SOL    HW2 2841   1.142   2.200   0.795 -1.0875 -0.2990 -0.2235
  948SOL     OW 2842   0.330   1.608   1.112  0.1341  0.2916 -0.6790
  948SOL    HW1 2843   0.315   1.516   1.078 -1.6351  2.0225 -0.2326
  948SOL    HW2 2844   0.381   1.663   1.039 -1.6034  2.2307  0.9711
  949SOL     OW 2845   0.913   1.169   1.736 -0.2954 -0.4365  0.5348
  949SOL    HW1 2846   0.907   1.270   1.760  2.7275  1.7770  0.1176
  949SOL    HW2 2847   0.914   1.161   1.633  1.4642 -0.3209  1.9336
  950SOL     OW 2848   0.481   0.707   1.312 -0.1070  0.1586 -0.3761
  950SOL    HW1 2849   0.510   0.754   1.402  1.3436  0.4158 -1.2395
  950SOL    HW2 2850   0.378   0.703   1.308  0.3261 -1.2803 -0.6578
  951SOL     OW 2851   0.908   2.143   2.000 -0.2277  0.3430 -0.0384
  951SOL    HW1 2852   0.834   2.203   1.969  0.5064 -2.6272 -1.5303
  951SOL    HW2 2853   0.921   2.060   1.940  0.0630 -3.4219 -0.0224
  952SOL     OW 2854   0.864   1.535   0.070 -0.4313  0.0182 -0.5421
  952SOL    HW1 2855   0.810   1.609   0.022 -0.8979 -1.5853 -0.6699
  952SOL    HW2 2856   0.950   1.577   0.112  1.1122  1.6775 -1.5287
  953SOL     OW 2857   1.054   2.839   0.234  0.0995 -0.0308 -0.8159
  953SOL    HW1 2858   0.982   2.833   0.305 -1.6191  1.3267  1.3965
  953SOL    HW2 2859   1.050   2.765   0.163 -1.3896  0.3032 -1.3780
  954SOL     OW 2860   1.653   1.100   2.937 -0.0217  0.7208  0.0114
  954SOL    HW1 2861   1.600   1.063   2.859 -0.4125  0.5113 -1.5594
  954SOL    HW2 2862   1.592   1.158   2.991 -1.0051 -2.6226  0.6236
  955SOL     OW 2863   0.142   2.646   0.001 -0.3835  0.0598 -0.4680
  955SOL    HW1 2864   0.215   2.707   0.033  0.5629 -0.8134 -1.2004
  955SOL    HW2 2865   0.057   2.692   3.076  2.6380  1.4669 -0.1648
  956SOL     OW 2866   0.979   0.938   1.212  0.0298  0.4900 -0.0406
  956SOL    HW1 2867   1.038   0.917   1.125  2.0225 -0.1330 -1.8428
  956SOL    HW2 2868   1.036   0.908   1.294 -0.3537 -2.2194 -0.3898
  957SOL     OW 2869   1.680   1.395   1.365 -0.1375  0.4465 -0.3497
  957SOL    HW1 2870   1.660   1.455   1.286  3.1478 -0.7874 -2.9814
  957SOL    HW2 2871   1.748   1.438   1.423  0.5669 -0.9264 -3.0951
  958SOL     OW 2872   0.763   1.922   1.620 -0.1123 -0.8193 -0.0421
  958SOL    HW1 2873   0.810   2.009   1.596  0.1657  1.5836  0.7562
  958SOL    HW2 2874   0.679   1.906   1.563  1.7820  1.0670  1.4814
  959SOL     OW 2875   1.587   1.167   1.518  0.1426 -0.2064  0.3504
  959SOL    HW1 2876   1.593   1.255   1.468 -2.0531  2.3430 -0.0119
  959SOL    HW2 2877   1.490   1.163   1.559 -2.1412  1.4808  1.1590
  960SOL     OW 2878   0.238   1.242   0.174 -0.1448 -0.2594  0.9009
  960SOL    HW1 2879   0.316   1.306   0.181  1.4666  0.8769 -2.3261
  960SOL    HW2 2880   0.220   1.188   0.265 -1.3430 -0.7640  2.9477
  961SOL     OW 2881   0.913   1.459   1.734 -0.0784  0.0833 -0.1514
  961SOL    HW1 2882   0.977   1.464   1.653  0.2552 -0.9152 -0.4010
  961SOL    HW2 2883   0.923   1.541   1.790 -0.1391 -3.0625 -2.3665
  962SOL     OW 2884   1.338   1.298   0.753 -0.7799 -0.1333  0.0728
  962SOL    HW1 2885   1.337   1.374   0.822 -1.2417  0.8815  1.2278
  962SOL    HW2 2886   1.246   1.289   0.706 -2.3361  1.6991  0.3957
  963SOL     OW 2887   1.384   1.847   2.844  0.1882 -0.2672  0.4291
  963SOL    HW1 2888   1.421   1.942   2.871  2.0896  1.4145  0.1516
  963SOL    HW2 2889   1.318   1.855   2.769  1.6995 -1.5538 -0.2748
  964SOL     OW 2890   0.658   2.935   0.407  0.3515 -0.3385  0.6072
  964SOL    HW1 2891   0.571   2.896   0.439 -0.7515  0.7545  0.3490
  964SOL    HW2 2892   0.650   2.945   0.307 -1.4332 -0.8947 -2.0754
  965SOL     OW 2893   0.428   2.426   0.661 -0.6288 -0.7319 -0.5043
  965SOL    HW1 2894   0.516   2.430   0.714  0.7129 -0.7364 -0.8308
  965SOL    HW2 2895   0.366   2.387   0.728 -0.7139  2.5116  1.4406
  966SOL     OW 2896   0.050   1.585   2.667  0.0299 -0.1130 -0.2129
  966SOL    HW1 2897   3.060   1.572   2.628 -2.1262 -0.4941 -0.3088
  966SOL    HW2 2898   0.043   1.634   2.755 -1.5954  1.2761 -0.5888
  967SOL     OW 2899   2.967   3.075   2.536 -0.2310  0.2767  0.2212
  967SOL    HW1 2900   3.028   0.052   2.528 -4.5789 -0.6622 -0.1202
  967SOL    HW2 2901   2.929   3.074   2.632  0.6668  3.7953  0.3706
  968SOL     OW 2902   2.422   0.640   0.287 -0.0412 -0.0433  0.0560
  968SOL    HW1 2903   2.354   0.564   0.307 -3.8265  1.2632 -0.6304
  968SOL    HW2 2904   2.366   0.724   0.296  1.4906 -1.9978  0.0178
  969SOL     OW 2905   0.316   0.963   1.870 -0.0495 -0.1153 -0.0999
  969SOL    HW1 2906   0.293   1.010   1.780  1.4307  1.2697 -1.5008
  969SOL    HW2 2907   0.314   1.044   1.932 -1.8033  1.6562 -0.6450
  970SOL     OW 2908   2.357   1.466   1.305  0.3914  0.4401 -0.7159
  970SOL    HW1 2909   2.374   1.463   1.204  0.8189  1.4618 -0.5453
  970SOL    HW2 2910   2.288   1.400   1.336 -4.3124 -2.8981  0.8264
  971SOL     OW 2911   2.622   0.068   1.331  0.2035 -0.4116 -0.1796
  971SOL    HW1 2912   2.670   0.046   1.240  0.0159 -3.1938 -2.9762
  971SOL    HW2 2913   2.690   0.082   1.403 -0.6716 -1.8132  0.9228
  972SOL     OW 2914   0.441   2.882   1.466 -0.4344 -0.1934  0.1620
  972SOL    HW1 2915   0.443   2.983   1.474  0.9919 -2.7075  0.1503
  972SOL    HW2 2916   0.497   2.854   1.386 -2.4791 -1.0234  1.2327
  973SOL     OW 2917   0.250   0.215   2.927  0.0297 -0.2338  0.9188
  973SOL    HW1 2918   0.311   0.207   2.846 -0.3490  0.1171 -0.3453
  973SOL    HW2 2919   0.160   0.180   2.908  1.7343 -2.2769 -0.2635
  974SOL     OW 2920   1.804   1.423   2.292  0.3250  0.3380 -0.3992
  974SOL    HW1 2921   1.747   1.422   2.206 -0.4191  1.4455  0.9784
  974SOL    HW2 2922   1.876   1.352   2.278 -0.3393  1.9614 -2.2348
  975SOL     OW 2923   0.036   0.005   1.724 -0.4074 -0.7228  0.4591
  975SOL    HW1 2924   0.129   3.101   1.676  3.5939  1.5618 -0.3254
  975SOL    HW2 2925   3.087   0.085   1.685 -1.2706  3.1068 -1.1554
  976SOL     OW 2926   0.567   2.063   2.283 -0.0361  0.3360 -0.1828
  976SOL    HW1 2927   0.469   2.037   2.269  0.1567 -1.3076 -0.5910
  976SOL    HW2 2928   0.621   2.070   2.197  0.1380 -0.2150  0.0393
  977SOL     OW 2929   0.750   2.448   0.413 -0.0539 -0.7296  0.3780
  977SOL    HW1 2930   0.678   2.525   0.410 -2.1984  1.9432  1.0147
  977SOL    HW2 2931   0.838   2.496   0.445 -0.4947 -0.7754 -0.2068
  978SOL     OW 2932   0.102   1.838   2.355  0.4087 -0.2527  0.5875
  978SOL    HW1 2933   0.174   1.773   2.390  0.7436  0.9749 -2.6057
  978SOL    HW2 2934   0.010   1.828   2.395 -1.2298 -0.0705  2.9862
  979SOL     OW 2935   1.726   2.504   1.534  0.0877  0.6182  0.1061
  979SOL    HW1 2936   1.799   2.439   1.519 -0.5369 -0.5110 -2.3698
  979SOL    HW2 2937   1.656   2.503   1.461 -0.6793  0.7231 -0.6343
  980SOL     OW 2938   0.830   1.292   3.044 -0.4250  0.2098 -0.2491
  980SOL    HW1 2939   0.728   1.280   3.061 -0.6453 -0.2376  1.1553
  980SOL    HW2 2940   0.867   1.368   3.103  1.2572  0.9464 -1.3774
  981SOL     OW 2941   2.191   0.054   2.135  0.4502  0.0600  0.0697
  981SOL    HW1 2942   2.223   0.146   2.163  0.9544  2.2386 -1.6154
  981SOL    HW2 2943   2.170   0.048   2.038  0.6597 -0.3565 -0.9853
  982SOL     OW 2944   3.087   0.165   2.938 -0.1604  0.0846 -0.2589
  982SOL    HW1 2945   3.071   0.222   3.025  1.3141  2.2897 -0.0131
  982SOL    HW2 2946   3.083   0.222   2.852  2.2074  0.8251 -1.4598
  983SOL     OW 2947   1.976   1.175   2.236  0.4045  0.3977  0.3930
  983SOL    HW1 2948   1.924   1.101   2.290  1.2260 -3.1735  0.3025
  983SOL    HW2 2949   1.986   1.142   2.138 -3.4254  0.8960 -2.6034
  984SOL     OW 2950   1.470   0.203   1.828  0.5172  0.7086 -0.2097
  984SOL    HW1 2951   1.383   0.244   1.870 -1.6207  0.3716  0.4572
  984SOL    HW2 2952   1.525   0.274   1.785 -1.4066  0.6601 -1.2576
  985SOL     OW 2953   1.861   1.422   1.836  0.4992  0.5941 -0.2688
  985SOL    HW1 2954   1.837   1.323   1.834 -0.4305  0.4771 -0.1022
  985SOL    HW2 2955   1.942   1.444   1.884 -3.7643  0.0414 -0.6843
  986SOL     OW 2956   2.027   0.456   1.527 -0.2977 -0.2907 -0.4843
  986SOL    HW1 2957   2.081   0.467   1.607  0.0462 -1.4274 -0.8066
  986SOL    HW2 2958   1.994   0.547   1.496 -0.6165  0.8549  0.3175
  987SOL     OW 2959   2.401   0.568   1.354  0.0937 -0.2254  0.0495
  987SOL    HW1 2960   2.414   0.612   1.441  1.0442 -1.3548 -0.4180
  987SOL    HW2 2961   2.417   0.466   1.362  0.7496  1.6068 -0.0847
  988SOL     OW 2962   3.006   0.965   2.034 -0.4572 -0.0109 -0.5530
  988SOL    HW1 2963   2.981   0.916   1.953  3.0696  2.3837  1.5921
  988SOL    HW2 2964   3.068   0.903   2.087  0.6220  0.2190 -0.8289
  989SOL     OW 2965   2.007   1.645   3.025 -0.3104  0.7502  0.1764
  989SOL    HW1 2966   2.003   1.707   2.943  0.0076  0.9360 -0.4175
  989SOL    HW2 2967   2.108   1.635   3.050 -0.3455 -2.8248  0.8459
  990SOL     OW 2968   1.119   0.349   3.083  0.5423 -0.2904  0.2614
  990SOL    HW1 2969   1.119   0.278   3.014 -0.8279  0.3889  1.2416
  990SOL    HW2 2970   1.167   0.435   3.056  0.3069  1.6951  2.3339
  991SOL     OW 2971   1.498   0.861   0.028 -0.2755 -0.5870 -0.0023
  991SOL    HW1 2972   1.572   0.930   0.047 -0.4420 -0.3347  0.1265
  991SOL    HW2 2973   1.537   0.773   3.098  3.3449  0.5670  1.7561
  992SOL     OW 2974   2.033   1.195   3.076 -0.2060 -0.3515  0.2604
  992SOL    HW1 2975   1.966   1.269   3.078  0.3362 -0.6846  0.1515
  992SOL    HW2 2976   1.990   1.112   3.041 -0.5217  0.8878  3.4138
  993SOL     OW 2977   0.067   0.414   0.591 -0.1524 -0.0396 -0.0914
  993SOL    HW1 2978   0.128   0.381   0.520 -0.3961  2.3383  0.0459
  993SOL    HW2 2979   0.101   0.388   0.684  1.8059 -2.6831  0.0555
  994SOL     OW 2980   2.957   2.071   2.185 -0.6526  0.0384 -0.2715
  994SOL    HW1 2981   2.955   2.035   2.283 -0.7281  2.4882  0.8628
  994SOL    HW2 2982   3.054   2.098   2.167 -0.8455  0.1260  2.2640
  995SOL     OW 2983   1.849   1.456   2.582  0.6978 -0.5490  0.3292
  995SOL    HW1 2984   1.824   1.446   2.483 -3.8753  2.1283 -0.0103
  995SOL    HW2 2985   1.825   1.373   2.638 -1.1380 -2.9012 -1.1777
  996SOL     OW 2986   2.023   1.802   2.811  0.1316  1.0648  0.5165
  996SOL    HW1 2987   2.074   1.888   2.822  1.2406 -2.4541 -0.4447
  996SOL    HW2 2988   2.005   1.773   2.712  0.9577  0.1481 -1.0748
  997SOL     OW 2989   2.220   1.531   1.789  0.0907 -0.2054  0.5844
  997SOL    HW1 2990   2.298   1.583   1.750  1.6066  3.0526 -0.2802
  997SOL    HW2 2991   2.188   1.585   1.865  2.7622  1.9937  0.5613
  998SOL     OW 2992   2.449   1.680   0.294 -0.5920  0.6466  0.1823
  998SOL    HW1 2993   2.554   1.681   0.285  0.8092  1.3162  0.5552
  998SOL    HW2 2994   2.416   1.606   0.353 -1.0854  1.2609  0.0908
  999SOL     OW 2995   2.850   2.279   0.254  0.5171 -0.5037 -0.1767
  999SOL    HW1 2996   2.771   2.215   0.260 -0.8555 -2.5669  0.6381
  999SOL    HW2 2997   2.821   2.379   0.251  0.7521  1.9423  2.4055
 1000SOL     OW 2998   0.885   0.523   2.010  0.8731  0.0094 -0.5087
 1000SOL    HW1 2999   0.895   0.480   2.105 -1.7636  0.8852  1.8490
 1000SOL    HW2 3000   0.866   0.621   2.028  0.5053  2.1794  1.3717
   3.10404   3.10404   3.10404
