1000 SPC/Fw water molecules t= 465.00000 step= 465000
 3000
    1SOL     OW    1   2.803   2.943   1.678 -0.3190 -0.0505 -0.4295
    1SOL    HW1    2   2.764   3.004   1.609 -0.7257  0.8340 -2.5471
    1SOL    HW2    3   2.768   2.961   1.775 -2.6737  1.5508  2.6795
    2SOL     OW    4   2.714   2.959   3.057 -0.3948 -0.5745  0.0708
    2SOL    HW1    5   2.754   2.994   0.052 -3.0641  0.2866 -3.0460
    2SOL    HW2    6   2.789   2.965   2.983  3.1014  0.8763 -2.2557
    3SOL     OW    7   1.253   2.513   0.246 -0.1743  0.9870 -0.2523
    3SOL    HW1    8   1.180   2.442   0.238 -1.7726  0.2567 -3.4041
    3SOL    HW2    9   1.322   2.496   0.321 -0.2362 -1.2243 -0.0415
    4SOL     OW   10   1.338   2.566   2.516 -0.0776  0.5139  0.4743
    4SOL    HW1   11   1.390   2.630   2.575 -2.2416 -2.2996  2.3077
    4SOL    HW2   12   1.281   2.507   2.576  0.7225 -1.0701 -0.8481
    5SOL     OW   13   2.091   0.266   2.248 -0.3787 -0.1462  0.2150
    5SOL    HW1   14   2.158   0.243   2.172  2.1912 -0.4089  1.2045
    5SOL    HW2   15   2.003   0.300   2.214  1.1129 -1.6171  0.8155
    6SOL     OW   16   2.863   1.571   1.140  0.1934  0.1580 -0.1981
    6SOL    HW1   17   2.905   1.647   1.086 -0.4197  0.4553  1.8060
    6SOL    HW2   18   2.783   1.608   1.191 -0.3139  0.8906 -0.7430
    7SOL     OW   19   1.239   1.965   0.484 -0.1055 -0.2779  0.0902
    7SOL    HW1   20   1.144   1.934   0.495  1.4765  0.6973  1.1938
    7SOL    HW2   21   1.284   1.921   0.405  0.3439  1.4467 -0.5235
    8SOL     OW   22   0.240   0.587   0.404 -0.2966 -0.2378  0.0834
    8SOL    HW1   23   0.331   0.563   0.361  0.4205  1.9232 -0.8398
    8SOL    HW2   24   0.168   0.596   0.334 -1.2475  0.1980  1.1832
    9SOL     OW   25   0.310   2.857   1.512  0.1845 -0.1801 -0.0329
    9SOL    HW1   26   0.350   2.777   1.470 -1.2778  2.9189  3.6513
    9SOL    HW2   27   0.220   2.836   1.547  0.7330 -0.0965 -2.9510
   10SOL     OW   28   1.159   2.227   0.436  0.4589  0.4577  0.4521
   10SOL    HW1   29   1.187   2.135   0.468  0.2702  3.0921 -0.3192
   10SOL    HW2   30   1.171   2.302   0.504 -1.0255  2.2075  2.3042
   11SOL     OW   31   2.206   0.826   1.426 -0.9471  0.5927 -0.1248
   11SOL    HW1   32   2.214   0.726   1.439  1.6511  0.8932 -0.9261
   11SOL    HW2   33   2.113   0.853   1.447  1.4292  0.2687  1.0682
   12SOL     OW   34   0.230   0.858   2.195 -0.3056 -0.2377  0.0679
   12SOL    HW1   35   0.286   0.937   2.162 -1.1536 -1.2833  2.5993
   12SOL    HW2   36   0.252   0.833   2.291  0.3087  2.4743 -0.7194
   13SOL     OW   37   1.997   0.016   0.370 -0.2451 -0.0144 -0.0825
   13SOL    HW1   38   2.051   0.071   0.441  1.3878  1.9800 -0.7239
   13SOL    HW2   39   1.914   0.062   0.332  0.5381 -3.3467  0.9885
   14SOL     OW   40   1.928   2.104   0.131  0.0229 -0.0071  0.3508
   14SOL    HW1   41   1.996   2.127   0.060 -0.1835 -0.1185  2.3098
   14SOL    HW2   42   1.897   2.009   0.121  0.6196 -0.3940 -0.8446
   15SOL     OW   43   0.081   3.090   2.821 -0.1038 -0.9120 -0.1246
   15SOL    HW1   44   0.083   0.095   2.798 -0.2469  0.1629 -1.3000
   15SOL    HW2   45   0.140   3.068   2.903  1.2190 -2.2958  1.0810
   16SOL     OW   46   2.937   0.568   1.129  0.0507  0.0574  0.0550
   16SOL    HW1   47   2.992   0.510   1.063  0.7559 -3.2314  1.7474
   16SOL    HW2   48   2.837   0.546   1.134 -3.8197  1.3556  0.9803
   17SOL     OW   49   0.752   0.346   0.874  0.1042  0.1828  0.5521
   17SOL    HW1   50   0.776   0.297   0.961  0.5723  1.1496 -0.0276
   17SOL    HW2   51   0.785   0.302   0.791  1.4674  1.1548  1.7838
   18SOL     OW   52   2.985   0.024   0.522  0.2655 -0.1388  0.0360
   18SOL    HW1   53   2.896   0.006   0.569  0.3891  2.2061 -0.4915
   18SOL    HW2   54   3.058   0.064   0.580  1.9323 -1.8200  0.6269
   19SOL     OW   55   1.779   1.242   1.306  0.3162 -0.0238 -0.5557
   19SOL    HW1   56   1.700   1.225   1.242  0.4698 -2.3587  0.5708
   19SOL    HW2   57   1.827   1.329   1.291  1.1991 -0.4734 -1.3380
   20SOL     OW   58   2.368   1.875   2.431 -0.5352 -0.4161 -0.4388
   20SOL    HW1   59   2.327   1.912   2.513 -2.7834 -0.2956 -1.0908
   20SOL    HW2   60   2.446   1.816   2.465  0.7929  0.2714 -1.6253
   21SOL     OW   61   1.373   2.886   0.311  0.1628  0.0271 -0.3408
   21SOL    HW1   62   1.421   2.827   0.249 -1.1835  1.2431 -1.1322
   21SOL    HW2   63   1.273   2.865   0.303  0.1899 -0.3505 -1.0340
   22SOL     OW   64   2.359   0.759   0.323  0.4737 -0.2810  0.0259
   22SOL    HW1   65   2.398   0.841   0.372 -0.9407 -0.9208  0.6090
   22SOL    HW2   66   2.413   0.671   0.347  3.0865 -3.4866  1.0539
   23SOL     OW   67   1.058   0.599   2.056  0.1255 -0.1051 -0.3508
   23SOL    HW1   68   1.016   0.505   2.062  1.6139  0.4050  0.5825
   23SOL    HW2   69   1.145   0.606   2.106  0.9419 -0.7180  0.1808
   24SOL     OW   70   1.963   2.188   0.812  0.0452 -0.3349  0.2452
   24SOL    HW1   71   2.045   2.238   0.835 -3.4282 -2.6960 -1.7095
   24SOL    HW2   72   1.885   2.251   0.792 -1.7393  1.7364 -0.0344
   25SOL     OW   73   1.584   3.076   3.066 -0.4303  0.2008 -0.3126
   25SOL    HW1   74   1.664   3.021   0.013  0.6047  1.6520 -0.6496
   25SOL    HW2   75   1.604   0.058   3.004 -2.0486 -2.3780 -1.3137
   26SOL     OW   76   1.170   2.818   2.633 -0.5236  0.3634 -0.3439
   26SOL    HW1   77   1.272   2.804   2.639 -0.5590 -0.4138  0.5856
   26SOL    HW2   78   1.127   2.727   2.615  0.6910  0.9724  0.0393
   27SOL     OW   79   1.082   0.550   1.025 -0.0031 -0.8181 -0.2729
   27SOL    HW1   80   0.988   0.557   0.985  1.3195 -2.2366  1.3921
   27SOL    HW2   81   1.062   0.539   1.124  0.7971 -2.5834  1.4657
   28SOL     OW   82   0.290   1.950   1.032  0.5156  0.8002  0.2669
   28SOL    HW1   83   0.377   1.962   1.087  1.6384 -3.5127 -1.7100
   28SOL    HW2   84   0.203   1.962   1.083 -2.3665  2.1746  1.4618
   29SOL     OW   85   2.319   1.098   1.346 -0.0990  0.0547 -0.0805
   29SOL    HW1   86   2.283   1.003   1.341 -0.6133 -3.3193 -2.2346
   29SOL    HW2   87   2.384   1.103   1.425 -0.1301 -2.6541  0.4792
   30SOL     OW   88   1.627   3.020   1.345 -0.1057  0.3453 -0.0758
   30SOL    HW1   89   1.628   2.921   1.318  1.6374 -1.2868  0.4877
   30SOL    HW2   90   1.532   3.063   1.341 -2.8447  1.1155  1.5430
   31SOL     OW   91   1.230   3.054   1.163 -0.3244  0.0434 -0.6641
   31SOL    HW1   92   1.241   3.092   1.070  1.0369 -0.3325  1.1544
   31SOL    HW2   93   1.178   2.969   1.156 -0.4129 -1.0316  0.0551
   32SOL     OW   94   2.318   1.434   1.957 -0.0970  0.4005 -0.2555
   32SOL    HW1   95   2.339   1.436   1.857  0.6866  0.3765 -2.0503
   32SOL    HW2   96   2.226   1.392   1.973  0.3630 -1.3017  2.4733
   33SOL     OW   97   2.280   2.969   2.548 -0.2461  0.2478 -0.1919
   33SOL    HW1   98   2.184   2.934   2.542  2.0626  2.1652  0.0262
   33SOL    HW2   99   2.276   3.049   2.482 -1.2914 -1.1908  3.3099
   34SOL     OW  100   2.192   0.950   0.205  0.0860  0.0854 -0.0932
   34SOL    HW1  101   2.258   0.878   0.241  0.2211 -0.3974  2.0400
   34SOL    HW2  102   2.160   0.918   0.113 -0.3580  0.0809  0.0111
   35SOL     OW  103   0.064   1.392   1.777 -0.0536  0.4162 -0.1776
   35SOL    HW1  104   0.091   1.437   1.866  0.0985 -1.1791 -2.3703
   35SOL    HW2  105   3.054   1.390   1.767 -3.3704  1.2664  0.2849
   36SOL     OW  106   2.552   2.521   3.072 -0.0089  0.0786 -0.2391
   36SOL    HW1  107   2.530   2.427   0.011 -0.8000 -1.6149  0.1072
   36SOL    HW2  108   2.529   2.525   2.973  0.4514  2.9925  0.8054
   37SOL     OW  109   1.717   2.815   1.775  0.1226 -0.1316  0.2067
   37SOL    HW1  110   1.800   2.861   1.807  0.5018 -3.3542  0.0949
   37SOL    HW2  111   1.690   2.749   1.849 -2.9219  1.7987  0.4160
   38SOL     OW  112   0.748   1.223   2.453 -0.0044  0.2991 -0.2440
   38SOL    HW1  113   0.815   1.166   2.507  0.9616 -0.8116  2.1748
   38SOL    HW2  114   0.650   1.195   2.463 -0.2108  0.4064  0.7970
   39SOL     OW  115   1.895   0.638   1.890  0.2553 -0.7480  0.6742
   39SOL    HW1  116   1.792   0.620   1.884 -1.2616 -0.5929  0.0295
   39SOL    HW2  117   1.946   0.546   1.904  1.2530 -3.6174  1.7150
   40SOL     OW  118   0.787   2.387   0.747 -0.2381 -0.0503 -0.1219
   40SOL    HW1  119   0.760   2.343   0.656  1.1127  0.2503  1.8309
   40SOL    HW2  120   0.855   2.322   0.790  0.7206 -0.0948 -0.8821
   41SOL     OW  121   2.250   2.052   0.869 -0.0759  0.0448 -0.4692
   41SOL    HW1  122   2.253   2.123   0.795  0.4306 -3.2467  2.7375
   41SOL    HW2  123   2.338   2.028   0.911 -1.0830  0.2070 -0.5258
   42SOL     OW  124   2.344   0.321   0.428  0.2828  0.1955  0.0953
   42SOL    HW1  125   2.284   0.364   0.363  2.1756 -1.7879  2.5890
   42SOL    HW2  126   2.387   0.241   0.386  1.4379  2.3480 -0.7613
   43SOL     OW  127   0.695   1.575   2.408 -0.0259 -0.0207 -0.9463
   43SOL    HW1  128   0.613   1.527   2.452 -0.6259 -0.6960 -0.7573
   43SOL    HW2  129   0.770   1.512   2.383 -1.7833 -0.1105  0.6523
   44SOL     OW  130   1.674   2.728   1.314  0.6232  0.5888  0.0025
   44SOL    HW1  131   1.625   2.663   1.254  3.3328  0.8838 -0.2923
   44SOL    HW2  132   1.760   2.757   1.265  2.3010  0.4657 -2.6802
   45SOL     OW  133   0.510   2.273   2.640 -0.0796  0.3277  0.3050
   45SOL    HW1  134   0.490   2.291   2.739 -1.1135  1.5798 -0.3121
   45SOL    HW2  135   0.559   2.349   2.598  0.6779 -1.7347 -1.1042
   46SOL     OW  136   0.744   2.723   2.171 -0.5190  0.4467  0.5050
   46SOL    HW1  137   0.798   2.690   2.092  1.3060 -3.9166 -0.6381
   46SOL    HW2  138   0.698   2.644   2.210 -1.7783  0.5262 -1.3687
   47SOL     OW  139   0.569   1.663   0.882 -1.0677  0.1181 -0.0522
   47SOL    HW1  140   0.586   1.600   0.806 -0.9882  1.0083  1.6212
   47SOL    HW2  141   0.653   1.689   0.927  1.5065  1.0527  1.7276
   48SOL     OW  142   0.744   2.652   1.525  0.0345 -0.0109  0.6305
   48SOL    HW1  143   0.745   2.571   1.461  1.3153 -0.4130 -3.3670
   48SOL    HW2  144   0.818   2.725   1.505  1.0874 -1.3259 -0.8106
   49SOL     OW  145   0.269   2.994   3.034 -0.4012  0.0716  0.1419
   49SOL    HW1  146   0.236   2.948   0.023 -1.5982 -1.6330 -2.3664
   49SOL    HW2  147   0.328   2.927   2.983  0.5414 -1.5855  0.3432
   50SOL     OW  148   1.413   0.692   0.365 -0.5455 -0.6235 -0.2715
   50SOL    HW1  149   1.317   0.727   0.362 -0.1914 -0.9201  2.4204
   50SOL    HW2  150   1.485   0.765   0.397  2.7843 -0.6953  1.2932
   51SOL     OW  151   1.709   2.978   0.578 -0.4100 -0.2351 -0.1660
   51SOL    HW1  152   1.658   3.001   0.490 -0.2337 -0.4909 -0.0389
   51SOL    HW2  153   1.722   3.065   0.629  2.0208  2.1244 -0.6668
   52SOL     OW  154   0.276   1.570   1.096  0.2302  0.2759  0.4863
   52SOL    HW1  155   0.334   1.488   1.094 -0.1798  1.8378  0.1231
   52SOL    HW2  156   0.265   1.615   1.003  1.2784 -0.8098 -2.4057
   53SOL     OW  157   3.084   1.060   2.932 -0.1922 -0.3391 -0.0477
   53SOL    HW1  158   3.048   1.027   3.021  1.0081  3.5588  0.7706
   53SOL    HW2  159   3.044   1.148   2.918  1.8396 -3.2167 -0.8079
   54SOL     OW  160   2.862   2.388   2.942  0.3592  0.1473 -0.3553
   54SOL    HW1  161   2.816   2.299   2.960  0.3489  0.8898 -0.9222
   54SOL    HW2  162   2.854   2.416   2.843  0.3283  1.1951 -0.7734
   55SOL     OW  163   2.587   2.134   1.191 -0.3116  0.2797  0.6067
   55SOL    HW1  164   2.589   2.233   1.215  1.4513  0.6421 -0.8084
   55SOL    HW2  165   2.491   2.102   1.172 -0.7773  1.3586 -2.2147
   56SOL     OW  166   1.665   0.634   1.310 -0.6958  0.5062 -0.3494
   56SOL    HW1  167   1.632   0.727   1.294 -0.4235 -0.5588 -1.0208
   56SOL    HW2  168   1.608   0.561   1.265  0.3269  1.8711  1.3176
   57SOL     OW  169   1.951   1.600   1.013  0.6193 -0.5228  0.4564
   57SOL    HW1  170   2.034   1.658   1.017  1.0143 -0.8959 -0.6748
   57SOL    HW2  171   1.984   1.503   1.026  2.1277 -1.1441  1.6873
   58SOL     OW  172   2.568   0.182   2.132  0.3043  0.0837 -0.1817
   58SOL    HW1  173   2.602   0.188   2.037 -3.4105 -0.0833  0.8848
   58SOL    HW2  174   2.466   0.185   2.136  1.6960  0.2070 -2.1092
   59SOL     OW  175   1.645   2.622   2.000 -0.3294 -0.2415 -1.0790
   59SOL    HW1  176   1.554   2.645   2.039 -2.3703  1.0685 -0.3812
   59SOL    HW2  177   1.710   2.694   2.018 -3.4701 -0.0931 -1.2706
   60SOL     OW  178   1.080   2.058   2.903 -0.3767 -0.2597  0.5201
   60SOL    HW1  179   1.005   2.103   2.848  0.7058  0.1333  2.2322
   60SOL    HW2  180   1.045   1.982   2.957  0.3937  0.8437  1.1244
   61SOL     OW  181   0.598   2.116   0.287 -0.0422 -0.0056 -0.0221
   61SOL    HW1  182   0.515   2.087   0.338  0.6894  2.1616  0.8703
   61SOL    HW2  183   0.675   2.146   0.345 -2.9486  0.3434 -0.0992
   62SOL     OW  184   1.464   1.661   1.489 -0.1119 -0.2526  0.7326
   62SOL    HW1  185   1.453   1.566   1.525 -0.8438 -0.4595 -3.3769
   62SOL    HW2  186   1.542   1.709   1.532 -1.6304 -0.8512  0.3977
   63SOL     OW  187   0.994   1.915   0.611 -0.3704 -0.5287 -0.1564
   63SOL    HW1  188   0.907   1.974   0.627 -1.7407  1.7263  1.4570
   63SOL    HW2  189   1.006   1.836   0.671  0.0630 -1.4857  1.3856
   64SOL     OW  190   1.638   1.725   2.482  0.4070  0.5417 -0.6220
   64SOL    HW1  191   1.691   1.636   2.466 -0.1163 -0.9324  0.0341
   64SOL    HW2  192   1.681   1.786   2.554 -2.1228  2.3389  1.4047
   65SOL     OW  193   1.680   1.794   1.589 -0.2117 -0.3835  0.5109
   65SOL    HW1  194   1.738   1.806   1.505  0.8621 -1.8981 -2.3854
   65SOL    HW2  195   1.641   1.885   1.618  1.0687  0.2997  0.2767
   66SOL     OW  196   0.001   0.935   0.924 -0.1562  0.2604 -0.1973
   66SOL    HW1  197   0.041   0.868   0.985 -0.7396  1.4151 -3.3204
   66SOL    HW2  198   3.023   0.892   0.866  1.1375  2.7612 -2.8645
   67SOL     OW  199   2.205   2.341   0.840  0.3731  0.8077 -0.1866
   67SOL    HW1  200   2.298   2.320   0.885  0.4448 -1.8641  1.4652
   67SOL    HW2  201   2.192   2.439   0.824  1.2593 -1.7574  0.5234
   68SOL     OW  202   2.409   2.692   1.666  0.3826  0.9751 -0.0421
   68SOL    HW1  203   2.390   2.783   1.626 -3.1019  1.5394 -0.8665
   68SOL    HW2  204   2.375   2.681   1.760 -0.2317 -0.5722  0.1085
   69SOL     OW  205   2.528   2.785   0.026  0.3209  0.4034  0.2140
   69SOL    HW1  206   2.536   2.683   0.009 -1.6654 -1.1461  0.5616
   69SOL    HW2  207   2.611   2.832   3.092 -1.5958 -1.8899  0.6651
   70SOL     OW  208   0.682   1.756   2.614 -0.0431  0.4198  1.0416
   70SOL    HW1  209   0.775   1.739   2.651  0.2706  0.9720  0.4209
   70SOL    HW2  210   0.677   1.707   2.526  1.4049 -1.6103  3.9490
   71SOL     OW  211   0.714   1.551   1.878 -0.6442 -0.2035  0.2821
   71SOL    HW1  212   0.749   1.477   1.818 -2.2625  0.4730  2.1615
   71SOL    HW2  213   0.706   1.637   1.827  0.2733 -0.8421 -0.3398
   72SOL     OW  214   2.988   1.119   1.553 -0.3995 -0.1161  0.5199
   72SOL    HW1  215   3.072   1.138   1.610 -0.4664  1.0080  1.7822
   72SOL    HW2  216   2.988   1.175   1.468  0.8757  1.8608  0.4631
   73SOL     OW  217   0.988   2.176   2.177  0.0781 -0.1573  0.4602
   73SOL    HW1  218   0.938   2.200   2.088 -1.4211 -0.9898 -1.0410
   73SOL    HW2  219   1.068   2.238   2.187 -0.0675  2.3948 -0.6756
   74SOL     OW  220   1.401   0.159   1.954 -0.1416  0.2673  0.0887
   74SOL    HW1  221   1.330   0.177   2.024 -0.6435  0.7926 -0.7202
   74SOL    HW2  222   1.494   0.149   1.998 -0.4130 -3.3776  0.5762
   75SOL     OW  223   1.084   2.932   0.524  0.0224  0.1732 -0.0391
   75SOL    HW1  224   1.087   2.856   0.453  0.4198  2.1723  0.4777
   75SOL    HW2  225   1.158   2.917   0.593 -0.7903  1.3236 -1.0178
   76SOL     OW  226   0.304   1.833   2.742 -0.6024  0.0851 -0.1987
   76SOL    HW1  227   0.379   1.781   2.783  1.3569  1.3775 -0.7934
   76SOL    HW2  228   0.337   1.874   2.658 -0.9215 -1.1166 -1.5450
   77SOL     OW  229   0.419   2.430   1.119  0.0960  0.0357  0.2916
   77SOL    HW1  230   0.378   2.412   1.024  1.5810  0.8637 -0.2110
   77SOL    HW2  231   0.377   2.516   1.157 -0.2971  0.4073 -0.3301
   78SOL     OW  232   2.522   1.123   0.165 -0.3934  0.1349  0.4832
   78SOL    HW1  233   2.453   1.173   0.112  0.9998 -2.3941  3.2585
   78SOL    HW2  234   2.487   1.100   0.258 -1.7115 -1.1880 -2.4614
   79SOL     OW  235   0.504   1.633   2.778  0.6816 -0.0335 -0.5583
   79SOL    HW1  236   0.540   1.599   2.866 -0.9414  1.9913 -0.3128
   79SOL    HW2  237   0.579   1.679   2.724  0.9173 -0.4164  0.1431
   80SOL     OW  238   2.151   1.282   1.526  0.0817  0.1228  0.3928
   80SOL    HW1  239   2.058   1.296   1.562 -1.8098  0.7442  0.5616
   80SOL    HW2  240   2.163   1.331   1.437 -1.1890 -1.5767 -2.5715
   81SOL     OW  241   1.985   0.657   2.427 -0.1027 -0.7385 -0.2857
   81SOL    HW1  242   1.922   0.685   2.500 -1.3422  1.7734  0.8482
   81SOL    HW2  243   1.935   0.644   2.339 -2.1212 -1.0970 -0.7154
   82SOL     OW  244   2.077   1.795   1.278 -0.1725 -0.3422 -0.0543
   82SOL    HW1  245   2.096   1.845   1.191  0.0653 -0.0379  0.3337
   82SOL    HW2  246   2.145   1.717   1.292 -0.6005 -1.1069  0.6965
   83SOL     OW  247   2.272   2.895   0.017 -0.0320 -0.3542 -0.0345
   83SOL    HW1  248   2.367   2.874   3.084 -0.5173 -1.7153 -0.7753
   83SOL    HW2  249   2.221   2.958   3.041 -1.2247  1.0264 -0.7621
   84SOL     OW  250   0.724   0.588   0.490  0.3464  0.2607 -0.1442
   84SOL    HW1  251   0.675   0.652   0.427  2.0975 -0.0310 -1.6388
   84SOL    HW2  252   0.813   0.613   0.533 -0.2243 -0.2858 -0.6063
   85SOL     OW  253   2.239   1.565   1.242  0.2348 -0.4023  0.1785
   85SOL    HW1  254   2.238   1.461   1.244  0.7018  0.6092  2.9527
   85SOL    HW2  255   2.291   1.605   1.160  0.1625  2.5290 -0.5755
   86SOL     OW  256   0.623   0.809   1.222  0.3613  0.3859  0.3238
   86SOL    HW1  257   0.572   0.800   1.311 -1.9769 -0.3324 -1.2956
   86SOL    HW2  258   0.609   0.903   1.182  1.1941 -1.3979  0.9517
   87SOL     OW  259   3.029   2.374   2.404 -0.1288  0.6366 -0.0085
   87SOL    HW1  260   3.047   2.294   2.341  0.0113  2.2203 -0.4900
   87SOL    HW2  261   2.988   2.450   2.356  0.3851  0.8120  1.0235
   88SOL     OW  262   0.239   2.949   0.201 -0.2658  0.1991 -0.7605
   88SOL    HW1  263   0.162   2.997   0.243  0.5499  0.3713  1.3867
   88SOL    HW2  264   0.325   3.010   0.198  1.6424  0.2942  0.8184
   89SOL     OW  265   1.249   0.097   0.923  0.0060  0.3780  0.0317
   89SOL    HW1  266   1.337   0.068   0.879  0.2022 -0.3137 -0.2771
   89SOL    HW2  267   1.236   0.202   0.916  0.1951  1.8550  0.0896
   90SOL     OW  268   2.956   1.025   2.304 -0.2899 -0.1022  0.3055
   90SOL    HW1  269   2.864   0.993   2.273  0.2098 -1.5867 -0.8432
   90SOL    HW2  270   3.019   0.965   2.261 -1.5248 -0.4526 -0.9403
   91SOL     OW  271   1.900   2.774   0.925 -0.1069  0.3342  0.5056
   91SOL    HW1  272   1.895   2.864   0.876  0.9530  2.4289 -0.7493
   91SOL    HW2  273   1.906   2.694   0.860  0.9225 -2.3697 -1.6578
   92SOL     OW  274   1.783   1.520   0.784 -0.1177 -0.3535 -0.8470
   92SOL    HW1  275   1.839   1.565   0.858  0.6138 -1.0616  1.5046
   92SOL    HW2  276   1.850   1.508   0.705  1.0665 -0.1038  1.0893
   93SOL     OW  277   0.493   1.266   0.572 -0.5526  0.2435  0.2891
   93SOL    HW1  278   0.538   1.261   0.480  0.9404  3.2888  0.1027
   93SOL    HW2  279   0.536   1.335   0.638  1.5575 -0.8669  2.3660
   94SOL     OW  280   0.788   2.438   1.357  0.2089  0.5181 -0.4018
   94SOL    HW1  281   0.890   2.445   1.377 -0.4055  1.6433 -4.0052
   94SOL    HW2  282   0.758   2.354   1.302 -1.5786  0.5903 -0.3987
   95SOL     OW  283   0.198   1.026   0.582  0.4242  0.0632  0.0049
   95SOL    HW1  284   0.182   1.129   0.573  1.0492  0.2034  1.8753
   95SOL    HW2  285   0.265   1.005   0.657  1.6333 -0.9002  2.1570
   96SOL     OW  286   0.867   2.635   1.922 -0.1145  0.0956 -0.0254
   96SOL    HW1  287   0.901   2.690   1.846  0.8214  1.0092 -0.5705
   96SOL    HW2  288   0.799   2.563   1.907  0.0872  3.3469 -1.2877
   97SOL     OW  289   2.636   0.908   0.977  0.1628  0.4023  0.5296
   97SOL    HW1  290   2.588   0.833   1.025 -0.6078  0.0753 -0.0518
   97SOL    HW2  291   2.699   0.957   1.031 -3.4653 -3.9964 -2.5894
   98SOL     OW  292   0.366   1.937   2.018 -0.6302  0.1922 -0.8492
   98SOL    HW1  293   0.400   1.838   2.012  0.1358 -1.4967  0.9990
   98SOL    HW2  294   0.289   1.935   2.084 -1.4163 -1.5801  0.2366
   99SOL     OW  295   2.786   0.374   1.495  0.2364  0.2073 -0.0622
   99SOL    HW1  296   2.874   0.366   1.445  1.4857  0.7144 -1.5337
   99SOL    HW2  297   2.791   0.409   1.591 -2.2216  0.7703  1.4160
  100SOL     OW  298   1.859   0.249   2.644 -0.2749 -0.2116 -0.3003
  100SOL    HW1  299   1.959   0.263   2.671  2.6735  3.5750 -0.6132
  100SOL    HW2  300   1.856   0.196   2.559 -0.1244  1.4560 -2.5914
  101SOL     OW  301   1.161   3.070   2.165  0.1744 -0.6537  0.2738
  101SOL    HW1  302   1.171   0.081   2.153  0.0599  1.0068 -0.4935
  101SOL    HW2  303   1.071   3.039   2.211  0.1518  0.6108  4.4082
  102SOL     OW  304   0.570   0.654   1.696  0.5037  0.4739  0.2253
  102SOL    HW1  305   0.513   0.680   1.779 -1.0491 -0.5853 -0.1502
  102SOL    HW2  306   0.650   0.591   1.717  1.0867 -0.8219 -0.8164
  103SOL     OW  307   0.692   0.864   2.893  0.3612  0.1310  0.1837
  103SOL    HW1  308   0.761   0.887   2.823 -0.6538 -1.8969  2.0351
  103SOL    HW2  309   0.605   0.829   2.848 -0.9676  0.3537  2.3744
  104SOL     OW  310   0.571   0.160   1.999  0.0670 -0.3655  0.3774
  104SOL    HW1  311   0.607   0.126   1.911 -2.7846 -0.4298  1.7727
  104SOL    HW2  312   0.632   0.126   2.073 -0.3215 -1.9662 -3.8357
  105SOL     OW  313   2.666   2.396   1.711  0.3504 -0.2673  1.0373
  105SOL    HW1  314   2.692   2.293   1.709  1.5821 -3.3071 -0.2671
  105SOL    HW2  315   2.743   2.453   1.672  0.5219  0.6105 -1.0312
  106SOL     OW  316   0.657   2.936   0.738 -0.0188 -0.0822  0.0452
  106SOL    HW1  317   0.756   2.970   0.739  1.6701 -0.1073 -0.2017
  106SOL    HW2  318   0.635   2.917   0.636  0.3026  0.9472  0.3845
  107SOL     OW  319   2.783   1.987   1.071  0.6377 -0.1199  0.3682
  107SOL    HW1  320   2.847   2.042   1.014  1.9506 -1.8069  1.9607
  107SOL    HW2  321   2.711   2.046   1.120 -1.1814 -1.6257  0.3162
  108SOL     OW  322   0.095   2.505   0.802  0.5764  0.2272  0.4240
  108SOL    HW1  323   3.090   2.536   0.793  1.5709  0.6163 -0.3935
  108SOL    HW2  324   0.104   2.466   0.893  1.2470  0.0471 -1.3923
  109SOL     OW  325   1.508   2.726   0.736 -0.6819  0.5087  0.0406
  109SOL    HW1  326   1.480   2.759   0.828 -1.3505  3.0926 -0.9021
  109SOL    HW2  327   1.566   2.793   0.691 -0.6904 -0.6415  0.8825
  110SOL     OW  328   1.820   1.872   0.715  0.0141 -0.2720  0.4988
  110SOL    HW1  329   1.782   1.783   0.692  2.8143  0.6921 -1.8572
  110SOL    HW2  330   1.753   1.939   0.746  1.3721  0.9360 -0.0696
  111SOL     OW  331   1.972   2.595   1.920 -0.1838 -0.4125  0.1208
  111SOL    HW1  332   2.059   2.566   1.966  2.1828  0.6835  1.8962
  111SOL    HW2  333   1.935   2.678   1.966 -1.6100  1.0685 -0.0906
  112SOL     OW  334   1.834   2.386   2.397  0.1696 -0.0239 -0.2603
  112SOL    HW1  335   1.740   2.363   2.389  3.2454  0.9404  2.4895
  112SOL    HW2  336   1.850   2.440   2.485 -1.1730 -2.8954  1.2312
  113SOL     OW  337   2.427   2.128   2.052 -0.4696 -0.1541 -0.0116
  113SOL    HW1  338   2.327   2.126   2.040  1.9093 -1.1482 -1.4574
  113SOL    HW2  339   2.471   2.093   1.968 -0.9242 -0.6246  5.6289
  114SOL     OW  340   0.124   1.026   1.273 -0.1132 -0.7686 -0.0299
  114SOL    HW1  341   0.049   1.089   1.285  1.1404 -1.0963 -1.4829
  114SOL    HW2  342   0.145   0.976   1.356  0.1081  3.0816 -3.8095
  115SOL     OW  343   2.538   0.528   2.809 -0.1224  0.0289 -0.0870
  115SOL    HW1  344   2.574   0.620   2.811 -3.9999 -1.3824  0.8897
  115SOL    HW2  345   2.622   0.467   2.793  2.0959 -1.8183 -0.0571
  116SOL     OW  346   2.776   0.327   2.760 -0.0066  0.3401  0.1165
  116SOL    HW1  347   2.757   0.254   2.830 -1.5655  2.4179 -0.2887
  116SOL    HW2  348   2.771   0.288   2.668  1.9008 -2.5662  1.3378
  117SOL     OW  349   2.568   2.610   0.829 -0.4187 -0.1865 -0.8198
  117SOL    HW1  350   2.493   2.670   0.859  0.8526 -3.1154  3.4429
  117SOL    HW2  351   2.629   2.612   0.912 -2.3721 -1.8551  3.9279
  118SOL     OW  352   0.955   2.019   2.376  0.6689  0.0754 -0.5480
  118SOL    HW1  353   0.975   1.929   2.329 -0.7317 -2.9575 -1.7416
  118SOL    HW2  354   0.967   2.089   2.308 -1.4375  0.4547  1.2465
  119SOL     OW  355   0.574   2.861   0.489  0.4564 -0.2442 -0.4434
  119SOL    HW1  356   0.651   2.870   0.422  0.4312 -1.1381 -1.8039
  119SOL    HW2  357   0.527   2.774   0.475 -0.5201  0.0480 -2.4403
  120SOL     OW  358   1.446   0.686   0.710  0.8951 -0.5543  0.2168
  120SOL    HW1  359   1.470   0.739   0.791 -1.8968 -1.2336 -0.5360
  120SOL    HW2  360   1.504   0.700   0.629 -1.0597 -0.4878  4.4998
  121SOL     OW  361   1.755   0.564   0.955 -0.3889  0.3200 -0.0119
  121SOL    HW1  362   1.820   0.530   1.028 -2.3620 -0.6233  0.0269
  121SOL    HW2  363   1.662   0.527   0.964  0.0639 -0.1743 -1.1272
  122SOL     OW  364   2.081   1.577   2.222  0.2190 -0.5094 -0.7701
  122SOL    HW1  365   2.130   1.665   2.222  0.9675 -2.3206  1.7085
  122SOL    HW2  366   2.028   1.568   2.138  0.7530 -1.1070  1.5804
  123SOL     OW  367   0.735   0.949   0.717  0.6486 -0.0144 -0.0058
  123SOL    HW1  368   0.824   0.931   0.767  1.4910  2.5169 -0.4968
  123SOL    HW2  369   0.663   0.880   0.742  1.5879 -1.1825 -0.5908
  124SOL     OW  370   0.772   0.445   2.789 -0.0550  0.0849 -0.6859
  124SOL    HW1  371   0.810   0.364   2.843  1.5470 -4.4831  0.6081
  124SOL    HW2  372   0.835   0.482   2.724 -2.1183  0.8003  0.3862
  125SOL     OW  373   0.829   0.162   2.829 -0.0897  1.0540 -0.2507
  125SOL    HW1  374   0.862   0.088   2.892  0.1692 -0.8194  0.7177
  125SOL    HW2  375   0.835   0.133   2.731  0.3942  1.4729  0.3552
  126SOL     OW  376   0.771   1.130   0.119 -1.0011 -0.4378 -0.4018
  126SOL    HW1  377   0.756   1.214   0.058 -1.3932  0.1358 -2.2789
  126SOL    HW2  378   0.734   1.145   0.213  2.4186  0.8028  2.5175
  127SOL     OW  379   1.040   2.493   0.996 -0.3885  0.4561  0.0717
  127SOL    HW1  380   0.991   2.575   1.029 -0.1083  0.8150 -0.5337
  127SOL    HW2  381   1.131   2.523   0.963  0.6126  1.7875 -2.4893
  128SOL     OW  382   1.384   1.915   0.202  0.1128 -0.1633 -0.4462
  128SOL    HW1  383   1.284   1.890   0.211 -0.4910 -0.4277 -1.3990
  128SOL    HW2  384   1.390   2.015   0.224 -2.2604 -0.4663 -1.3006
  129SOL     OW  385   1.944   1.493   1.721 -0.4927 -0.4125  0.1683
  129SOL    HW1  386   1.949   1.394   1.720  1.5642  2.1781  0.0178
  129SOL    HW2  387   1.847   1.521   1.732  3.5150  0.2662  0.9013
  130SOL     OW  388   2.154   1.660   1.734 -0.4507 -0.1139  0.2803
  130SOL    HW1  389   2.080   1.596   1.721  1.2783  0.0945  2.7092
  130SOL    HW2  390   2.233   1.641   1.671  1.0845 -1.0110 -2.5371
  131SOL     OW  391   0.841   2.260   1.962 -0.3385 -0.4481 -0.7832
  131SOL    HW1  392   0.922   2.272   1.902  1.2735 -3.5684  1.8992
  131SOL    HW2  393   0.767   2.330   1.948 -1.5942 -2.6762 -1.1895
  132SOL     OW  394   2.584   1.512   0.580 -0.0981 -0.1546 -0.0668
  132SOL    HW1  395   2.659   1.539   0.639  0.9785 -1.7236 -1.6570
  132SOL    HW2  396   2.504   1.576   0.584  0.4261  1.8046 -2.0071
  133SOL     OW  397   0.739   1.783   1.734 -0.2047  0.0503  0.0118
  133SOL    HW1  398   0.678   1.823   1.664  0.2216 -1.1266  2.3115
  133SOL    HW2  399   0.748   1.838   1.818 -0.6579 -0.7863  1.2792
  134SOL     OW  400   3.036   1.825   0.768 -0.7651  0.0745  0.2908
  134SOL    HW1  401   3.080   1.741   0.726 -1.3256  1.7222  0.1790
  134SOL    HW2  402   2.993   1.808   0.864 -1.2643  0.8662  3.3598
  135SOL     OW  403   2.040   1.322   2.757 -0.2721 -0.8031 -0.4356
  135SOL    HW1  404   2.073   1.417   2.737 -0.8437  0.0816 -1.2585
  135SOL    HW2  405   2.039   1.265   2.674 -2.3785 -0.7666  0.4241
  136SOL     OW  406   0.079   1.324   1.090  0.2398  0.1899 -0.5618
  136SOL    HW1  407   0.098   1.269   1.010 -0.8059  1.4032  1.4392
  136SOL    HW2  408   0.113   1.417   1.068 -2.0100  2.2369  1.3676
  137SOL     OW  409   2.394   1.550   2.995  0.5233  0.6812 -0.3360
  137SOL    HW1  410   2.363   1.472   2.940  0.5631  2.5225 -2.4948
  137SOL    HW2  411   2.470   1.514   3.050 -0.6418 -1.4189 -1.9397
  138SOL     OW  412   2.777   0.394   0.630  0.6073 -0.1471  0.2955
  138SOL    HW1  413   2.683   0.397   0.606  1.6133  0.3598  0.6967
  138SOL    HW2  414   2.830   0.418   0.543 -0.5577 -2.0349 -0.7890
  139SOL     OW  415   2.277   2.689   2.854  0.5424 -0.4720 -0.2061
  139SOL    HW1  416   2.304   2.786   2.848  1.4456 -0.7081 -2.1335
  139SOL    HW2  417   2.354   2.632   2.817  1.3518  1.1514  1.0931
  140SOL     OW  418   0.614   1.425   1.128 -0.4977 -0.2941 -0.6560
  140SOL    HW1  419   0.603   1.492   1.204  3.4932 -0.5538 -0.2456
  140SOL    HW2  420   0.526   1.402   1.078  1.5380 -1.9901 -0.8163
  141SOL     OW  421   1.065   1.176   0.672 -0.9124  0.3575  0.4775
  141SOL    HW1  422   1.126   1.204   0.746 -2.0285  0.2693 -0.8388
  141SOL    HW2  423   1.122   1.150   0.590 -1.8895 -0.9925  1.9910
  142SOL     OW  424   1.496   0.780   0.985 -0.5785  0.6973 -0.0997
  142SOL    HW1  425   1.472   0.712   1.054  2.4761 -1.1264  1.5368
  142SOL    HW2  426   1.579   0.836   1.012 -0.9902  1.2004 -1.9210
  143SOL     OW  427   0.341   0.552   2.909  0.3824  0.3934  0.1647
  143SOL    HW1  428   0.256   0.585   2.859  0.1895  1.9891 -0.5257
  143SOL    HW2  429   0.423   0.600   2.876  0.0085 -1.2049  0.9334
  144SOL     OW  430   2.452   0.119   0.263 -0.4618  0.5451 -0.0274
  144SOL    HW1  431   2.388   0.040   0.274 -1.8176  1.3450 -1.6749
  144SOL    HW2  432   2.544   0.099   0.308 -0.1885 -1.0670 -0.4757
  145SOL     OW  433   2.278   0.090   2.339 -0.7029 -0.2053 -0.4205
  145SOL    HW1  434   2.351   0.140   2.387 -3.5981  0.2826  0.2173
  145SOL    HW2  435   2.206   0.152   2.306  3.0442 -2.1940 -1.7692
  146SOL     OW  436   3.013   2.722   0.478 -0.0024 -0.7081 -0.4123
  146SOL    HW1  437   3.089   2.673   0.427  2.1497  0.7808 -3.8117
  146SOL    HW2  438   2.931   2.756   0.426  0.4070  0.4094  1.1615
  147SOL     OW  439   1.508   0.733   2.873 -0.6208 -0.2281 -0.1139
  147SOL    HW1  440   1.412   0.746   2.909 -1.7926 -0.0082 -1.3084
  147SOL    HW2  441   1.575   0.753   2.948  1.1987  0.5952 -3.1005
  148SOL     OW  442   1.131   0.098   0.082  0.0409  0.0223  0.5261
  148SOL    HW1  443   1.078   0.159   0.144 -0.4385  0.4069 -2.0922
  148SOL    HW2  444   1.216   0.134   0.043  0.4996  0.4042  0.3527
  149SOL     OW  445   1.292   1.004   2.607 -0.1203 -0.3506  0.6328
  149SOL    HW1  446   1.381   0.957   2.623  0.1773 -1.3191  2.5674
  149SOL    HW2  447   1.300   1.070   2.525  0.3197  0.9900  0.0800
  150SOL     OW  448   1.376   2.897   3.026 -0.0417  0.0680  0.1872
  150SOL    HW1  449   1.398   2.794   3.034  0.6031 -4.7930  1.1750
  150SOL    HW2  450   1.461   2.958   3.038  0.0628  1.6594  1.9747
  151SOL     OW  451   0.274   1.253   0.006  0.5606  0.2527  0.2201
  151SOL    HW1  452   0.245   1.294   0.095 -0.9384  1.3163  1.6076
  151SOL    HW2  453   0.285   1.150   0.010 -0.5348  3.0316 -1.0718
  152SOL     OW  454   0.814   0.299   1.357  0.0524 -0.4114  0.2840
  152SOL    HW1  455   0.839   0.250   1.444  1.5333 -0.7726  0.1674
  152SOL    HW2  456   0.715   0.333   1.347 -2.7769 -1.4136 -1.8332
  153SOL     OW  457   2.655   2.998   1.890  0.3454  0.4961  0.1354
  153SOL    HW1  458   2.554   2.981   1.899 -0.0619  1.4062 -0.0114
  153SOL    HW2  459   2.689   3.093   1.906  2.4275  0.3015  0.1218
  154SOL     OW  460   2.399   2.929   1.948 -0.7770 -0.0129 -0.0736
  154SOL    HW1  461   2.350   2.940   2.038  0.3293 -2.2525  1.9449
  154SOL    HW2  462   2.342   2.951   1.866  2.9419  0.3634  2.5459
  155SOL     OW  463   0.158   1.286   0.308  0.4035 -0.1598  0.3753
  155SOL    HW1  464   0.128   1.189   0.322 -1.7309  1.7320  3.1231
  155SOL    HW2  465   0.174   1.333   0.395  2.7703 -2.1873 -2.1861
  156SOL     OW  466   1.995   1.167   0.212 -0.4900  0.0576 -0.1040
  156SOL    HW1  467   1.909   1.116   0.198  2.9214 -0.0691 -0.9210
  156SOL    HW2  468   2.072   1.099   0.228 -1.4647  3.5511 -0.2881
  157SOL     OW  469   0.839   2.662   2.976 -0.1792  0.5542 -0.2174
  157SOL    HW1  470   0.795   2.699   3.058  2.5600  1.9410  1.0361
  157SOL    HW2  471   0.773   2.604   2.926  0.2950  0.1303 -2.8506
  158SOL     OW  472   1.947   0.846   1.582  0.1302 -0.1181  0.4151
  158SOL    HW1  473   2.001   0.871   1.664  0.0506 -1.8480  0.6410
  158SOL    HW2  474   1.954   0.919   1.508 -0.1796  3.1079 -1.7902
  159SOL     OW  475   0.018   0.063   0.027 -1.1001 -0.3847  0.2769
  159SOL    HW1  476   0.039   0.025   3.027 -1.6177 -2.5584 -0.7807
  159SOL    HW2  477   0.032   0.163   0.022  3.5213 -0.9938  0.5326
  160SOL     OW  478   2.409   2.010   1.798 -0.0857  0.1188  0.1681
  160SOL    HW1  479   2.444   1.983   1.710 -1.4192 -1.5803 -0.9841
  160SOL    HW2  480   2.303   2.006   1.799 -2.7160 -1.6209  0.9311
  161SOL     OW  481   0.068   0.337   0.057  0.3153  0.2104  0.1920
  161SOL    HW1  482   0.167   0.354   0.046  0.2601 -1.0052  0.2923
  161SOL    HW2  483   0.036   0.327   0.152  4.3889  1.2845  0.8826
  162SOL     OW  484   0.478   0.735   1.939  0.2160 -0.3405 -0.2390
  162SOL    HW1  485   0.392   0.709   1.983 -0.9269  0.0455  0.3709
  162SOL    HW2  486   0.560   0.712   1.989 -2.2240 -1.7473 -1.2793
  163SOL     OW  487   2.812   0.021   2.458  0.0384  0.3020  0.3811
  163SOL    HW1  488   2.725   0.003   2.397 -1.6218 -1.0230 -1.8666
  163SOL    HW2  489   2.893   3.064   2.419  0.0756 -1.4049 -1.2188
  164SOL     OW  490   2.229   1.734   3.091  0.2808  0.5158 -0.0566
  164SOL    HW1  491   2.127   1.710   3.076 -1.0504  0.5771 -1.6932
  164SOL    HW2  492   2.293   1.659   3.054  0.5001 -2.0588 -2.6259
  165SOL     OW  493   0.111   0.040   1.174 -0.3345  0.1564 -0.0929
  165SOL    HW1  494   0.165   0.012   1.092 -0.5014 -2.0205 -0.4244
  165SOL    HW2  495   0.170   0.019   1.257  2.3213 -0.7254  2.6263
  166SOL     OW  496   2.832   0.328   0.033  0.0076  0.0394 -0.3185
  166SOL    HW1  497   2.747   0.337   0.088 -2.7506  1.5622  1.1366
  166SOL    HW2  498   2.829   0.241   3.077 -1.0406  3.3177  3.2733
  167SOL     OW  499   2.029   0.640   0.593  0.7982 -0.0552 -0.3923
  167SOL    HW1  500   2.099   0.711   0.619  2.3256  0.8839  1.2659
  167SOL    HW2  501   2.053   0.546   0.612 -2.4926  2.9113  0.3291
  168SOL     OW  502   1.248   0.471   2.315 -0.5738 -0.6400  0.6352
  168SOL    HW1  503   1.249   0.508   2.410  0.4063 -0.1195 -0.6527
  168SOL    HW2  504   1.287   0.544   2.252 -0.5889  1.0511  0.1127
  169SOL     OW  505   0.641   1.847   1.188  0.7608  0.1245  0.3436
  169SOL    HW1  506   0.580   1.923   1.203  0.2101 -0.7726 -0.2251
  169SOL    HW2  507   0.696   1.854   1.102  0.0696 -0.6265 -2.2946
  170SOL     OW  508   0.166   0.201   1.550  0.3102 -0.2050 -0.4155
  170SOL    HW1  509   0.179   0.165   1.643  0.7666 -2.3229 -1.3151
  170SOL    HW2  510   0.179   0.129   1.483  0.5914  0.3167  2.1357
  171SOL     OW  511   2.509   1.321   2.152 -0.1860 -0.0426  0.2371
  171SOL    HW1  512   2.601   1.362   2.164 -2.8887 -3.5553  0.7100
  171SOL    HW2  513   2.478   1.345   2.057 -0.9108  0.8042  0.3976
  172SOL     OW  514   1.328   1.916   1.044  0.5536  0.2657  0.1000
  172SOL    HW1  515   1.274   1.952   1.122 -1.1943  2.2182  2.4750
  172SOL    HW2  516   1.381   1.827   1.060  0.6469 -0.1694 -0.5140
  173SOL     OW  517   2.120   2.187   3.032  0.1185  0.1889  0.0053
  173SOL    HW1  518   2.123   2.220   2.936  0.4098 -0.8804  1.4222
  173SOL    HW2  519   2.170   2.254   3.093 -1.7563 -1.7733 -0.3728
  174SOL     OW  520   1.839   0.816   0.185 -0.1762 -0.2330 -0.1613
  174SOL    HW1  521   1.899   0.898   0.204 -1.1530  1.2545 -0.1853
  174SOL    HW2  522   1.883   0.731   0.228  2.7775 -1.5856  0.3248
  175SOL     OW  523   0.582   1.626   1.318 -0.0773 -0.3225  0.1100
  175SOL    HW1  524   0.613   1.713   1.267  2.2915 -4.2193 -1.7510
  175SOL    HW2  525   0.556   1.647   1.411 -0.6381  1.7248 -2.6191
  176SOL     OW  526   0.324   0.048   0.496  0.5089 -0.3794 -0.3247
  176SOL    HW1  527   0.398   0.005   0.443 -0.5834 -2.2144  2.5523
  176SOL    HW2  528   0.244   0.082   0.440  0.5386  0.3379 -1.4528
  177SOL     OW  529   3.010   1.419   0.185  0.0130 -0.0353 -0.2626
  177SOL    HW1  530   2.937   1.383   0.248  0.0341 -1.4572 -2.4495
  177SOL    HW2  531   0.006   1.372   0.195 -2.3702  0.0464  0.3871
  178SOL     OW  532   2.872   2.370   2.121 -0.2882  0.2278 -0.1463
  178SOL    HW1  533   2.772   2.347   2.118  0.0937  0.5835  0.8055
  178SOL    HW2  534   2.892   2.459   2.170 -3.2716 -3.5489  0.8532
  179SOL     OW  535   2.151   0.026   2.961 -0.0129 -0.4340  0.2160
  179SOL    HW1  536   2.220   0.087   2.918  0.0122  0.6763  1.4136
  179SOL    HW2  537   2.117   0.067   3.048  0.5746 -1.0652  1.0713
  180SOL     OW  538   2.513   0.413   0.613 -0.3792 -0.1723 -0.0020
  180SOL    HW1  539   2.424   0.377   0.572 -3.4084  1.2728 -1.1181
  180SOL    HW2  540   2.492   0.485   0.686  1.3472 -0.2185  0.7883
  181SOL     OW  541   0.111   2.987   2.562 -0.6790 -0.1579 -0.1070
  181SOL    HW1  542   0.088   3.009   2.660  1.0131 -0.2954  3.9049
  181SOL    HW2  543   0.025   2.979   2.508  1.4864  0.0883 -2.6310
  182SOL     OW  544   2.636   2.299   2.425  0.0985 -0.0848  0.1626
  182SOL    HW1  545   2.665   2.381   2.477  1.4489 -1.4215 -0.8787
  182SOL    HW2  546   2.611   2.319   2.331  1.6545  1.0223  0.6546
  183SOL     OW  547   2.697   0.783   1.515  0.0321  0.2811  0.3340
  183SOL    HW1  548   2.733   0.759   1.425 -0.1341 -1.4526  0.5759
  183SOL    HW2  549   2.725   0.873   1.546 -1.6716 -1.1890 -1.2409
  184SOL     OW  550   2.899   1.338   0.948 -0.0471 -0.0347  0.0956
  184SOL    HW1  551   2.965   1.329   1.023 -0.4780  1.9438 -1.0957
  184SOL    HW2  552   2.951   1.367   0.863  2.6439  0.2826 -0.8865
  185SOL     OW  553   3.051   0.245   1.155  0.4320 -0.2662  0.2228
  185SOL    HW1  554   0.025   0.170   1.151 -1.6043  1.6809  2.1164
  185SOL    HW2  555   3.069   0.314   1.077  3.6565  3.8230 -3.3236
  186SOL     OW  556   2.304   2.407   2.533  0.6153  0.0927 -0.1139
  186SOL    HW1  557   2.259   2.486   2.498 -1.6040  0.0510 -1.1518
  186SOL    HW2  558   2.402   2.411   2.518 -2.8451 -0.5791  1.6022
  187SOL     OW  559   0.222   1.318   0.592 -0.2832  0.4306 -1.0810
  187SOL    HW1  560   0.309   1.268   0.570 -0.0281  1.2243 -1.7559
  187SOL    HW2  561   0.238   1.386   0.671 -1.4758 -0.6526 -0.3743
  188SOL     OW  562   1.653   1.882   2.996 -0.5631 -0.4471  0.0176
  188SOL    HW1  563   1.719   1.960   2.980  1.3261  0.6275 -1.0936
  188SOL    HW2  564   1.658   1.851   0.002 -0.0284  0.3314  0.8727
  189SOL     OW  565   3.016   1.594   2.824  0.2372 -0.9996 -0.5746
  189SOL    HW1  566   3.007   1.504   2.881  0.8132 -3.7969  1.7113
  189SOL    HW2  567   3.088   1.658   2.859  0.6895  1.0779  0.1754
  190SOL     OW  568   2.281   0.522   2.683 -0.0678 -0.1297  0.1739
  190SOL    HW1  569   2.261   0.613   2.638  1.6357  3.0659  0.7304
  190SOL    HW2  570   2.380   0.515   2.692 -3.5399 -0.9101 -0.3289
  191SOL     OW  571   0.817   1.253   2.172 -0.0530 -0.2033  0.0643
  191SOL    HW1  572   0.784   1.164   2.134  3.3243  0.9612  1.2616
  191SOL    HW2  573   0.778   1.275   2.266 -0.4656  2.3291  0.6226
  192SOL     OW  574   1.662   1.203   2.126 -0.1181 -0.0430 -0.4380
  192SOL    HW1  575   1.592   1.216   2.056  3.5162  2.4832  2.7872
  192SOL    HW2  576   1.744   1.155   2.092  0.3789  0.2457 -0.3780
  193SOL     OW  577   0.896   3.031   0.695  0.1992 -0.4864 -0.3069
  193SOL    HW1  578   0.951   2.988   0.621  1.0698  2.2374  1.1306
  193SOL    HW2  579   0.949   3.068   0.769  0.6209 -1.4806 -0.4816
  194SOL     OW  580   1.464   1.415   1.640  0.3308  0.2743  0.3095
  194SOL    HW1  581   1.431   1.340   1.579 -0.9781 -1.8102 -2.9914
  194SOL    HW2  582   1.400   1.435   1.719  0.5344  2.7024 -1.4861
  195SOL     OW  583   1.714   0.120   0.735 -0.4352  0.3155 -0.2854
  195SOL    HW1  584   1.718   0.214   0.691 -1.2657 -1.9569 -1.6314
  195SOL    HW2  585   1.735   0.129   0.834 -0.4897 -1.8959 -1.6861
  196SOL     OW  586   0.906   1.522   2.108 -0.2979 -0.4987  0.0090
  196SOL    HW1  587   0.861   1.547   2.020 -2.8495 -2.6779  0.5939
  196SOL    HW2  588   0.875   1.429   2.136 -2.7326 -2.5206 -2.9954
  197SOL     OW  589   0.663   0.280   2.443 -0.0148 -0.5310  0.1915
  197SOL    HW1  590   0.592   0.341   2.477  0.0323 -0.6158 -2.7335
  197SOL    HW2  591   0.647   0.179   2.459 -0.5863  2.0708  1.7897
  198SOL     OW  592   2.836   0.995   1.127  0.0024  0.0417 -0.7674
  198SOL    HW1  593   2.846   1.051   1.214 -0.2565  1.9526  0.4775
  198SOL    HW2  594   2.924   0.991   1.075 -1.0209  2.1833 -1.2985
  199SOL     OW  595   0.649   2.267   1.206  0.2679  0.6084  0.2095
  199SOL    HW1  596   0.705   2.223   1.135 -0.1211  0.9761 -0.5014
  199SOL    HW2  597   0.569   2.310   1.160  1.6673 -0.8578 -2.1377
  200SOL     OW  598   2.917   2.007   2.744  0.1041 -0.1336  0.2299
  200SOL    HW1  599   2.959   2.068   2.814 -1.1476 -0.3294  1.2699
  200SOL    HW2  600   2.894   1.920   2.785  0.0485  3.6986 -2.9875
  201SOL     OW  601   1.059   2.394   1.425  0.6069 -0.3833 -0.2018
  201SOL    HW1  602   1.109   2.396   1.339  0.6100  0.9838  2.8269
  201SOL    HW2  603   1.005   2.309   1.438  0.2456  0.9888 -0.9365
  202SOL     OW  604   0.742   2.437   0.331  0.7150  0.2935  0.4367
  202SOL    HW1  605   0.772   2.375   0.258  1.7359  2.1669  1.2276
  202SOL    HW2  606   0.657   2.484   0.305  0.8316  0.4187  1.2621
  203SOL     OW  607   1.922   0.072   2.393  0.1108  0.1525  0.4087
  203SOL    HW1  608   1.994   0.128   2.352 -2.5004 -1.0269  1.8398
  203SOL    HW2  609   1.956   0.002   2.454 -2.0327  3.3741 -2.9163
  204SOL     OW  610   0.205   1.434   1.561 -0.2458 -0.7705 -0.9276
  204SOL    HW1  611   0.153   1.401   1.641  1.8764 -0.3150  1.1609
  204SOL    HW2  612   0.291   1.384   1.549 -0.7213  0.4417  1.1195
  205SOL     OW  613   2.396   1.415   2.384 -0.5514 -0.2296 -0.1836
  205SOL    HW1  614   2.436   1.401   2.292 -1.7226  0.6992  2.3048
  205SOL    HW2  615   2.299   1.389   2.377 -1.7243 -0.5693  0.7243
  206SOL     OW  616   0.083   2.208   2.580  0.4133 -0.1529 -0.1307
  206SOL    HW1  617   0.018   2.257   2.519  1.5414 -0.3413 -0.9043
  206SOL    HW2  618   0.141   2.139   2.529  0.5719 -2.9263 -0.6453
  207SOL     OW  619   0.602   2.925   1.853  0.0744  0.0999  0.1846
  207SOL    HW1  620   0.525   2.930   1.915  4.7123  0.1791 -1.6782
  207SOL    HW2  621   0.611   2.827   1.832 -0.8999  3.6524  1.5442
  208SOL     OW  622   0.049   2.630   1.349 -0.5031 -0.2198  0.1389
  208SOL    HW1  623   0.043   2.612   1.451 -3.0511 -0.1436 -0.3326
  208SOL    HW2  624   0.042   2.732   1.329 -1.8841 -1.7736  0.5106
  209SOL     OW  625   1.123   2.607   2.306  0.3838 -0.4608  0.7200
  209SOL    HW1  626   1.162   2.525   2.261 -0.0389 -0.0328  1.6939
  209SOL    HW2  627   1.149   2.611   2.406  1.9313 -1.8422  0.8578
  210SOL     OW  628   2.907   1.373   2.310 -0.1098 -0.3742  0.1845
  210SOL    HW1  629   2.977   1.399   2.382 -0.3482  1.3941  3.5337
  210SOL    HW2  630   2.816   1.376   2.358 -1.7711 -0.6950  0.2775
  211SOL     OW  631   1.397   2.953   2.225  0.6542 -0.5423 -0.6555
  211SOL    HW1  632   1.421   2.944   2.128  0.3995  0.5100  0.5977
  211SOL    HW2  633   1.307   2.998   2.230  4.0442  1.1039  1.0193
  212SOL     OW  634   1.579   2.709   1.550  0.8263 -0.2955  0.1713
  212SOL    HW1  635   1.644   2.746   1.618 -0.3205 -1.4881  0.4514
  212SOL    HW2  636   1.616   2.713   1.451 -2.2541  0.3352 -1.0555
  213SOL     OW  637   2.353   0.562   1.707 -0.4476 -0.1126  0.3171
  213SOL    HW1  638   2.321   0.500   1.632 -1.4439 -1.5272  2.4371
  213SOL    HW2  639   2.454   0.579   1.707 -0.8592 -0.3410  1.9597
  214SOL     OW  640   0.750   2.145   0.961 -0.1959  0.1566 -0.4721
  214SOL    HW1  641   0.846   2.167   0.944 -1.9191  0.3639 -0.0896
  214SOL    HW2  642   0.686   2.188   0.895  0.0954  1.2201  0.5422
  215SOL     OW  643   2.394   1.931   0.492  0.2127  0.0789  0.3603
  215SOL    HW1  644   2.491   1.967   0.492  1.8797  1.7874  1.1598
  215SOL    HW2  645   2.326   1.999   0.525 -1.0990  1.1937 -0.1996
  216SOL     OW  646   2.923   0.921   1.927  0.6691 -0.3832  0.4911
  216SOL    HW1  647   2.912   1.016   1.932 -2.0152 -2.7750  0.0887
  216SOL    HW2  648   2.836   0.875   1.944  0.9200  2.3605 -1.2519
  217SOL     OW  649   2.121   0.345   1.256 -0.0238 -0.3136 -0.2931
  217SOL    HW1  650   2.169   0.350   1.163  0.0786  1.2771 -1.4860
  217SOL    HW2  651   2.021   0.325   1.247 -2.3497  0.0193  0.1874
  218SOL     OW  652   1.930   2.183   1.197  0.4130  0.0936 -0.2897
  218SOL    HW1  653   1.892   2.263   1.152 -0.2823 -1.8375  0.5344
  218SOL    HW2  654   1.888   2.168   1.289  0.1229 -2.8641 -0.6865
  219SOL     OW  655   1.704   2.351   3.055  0.3393  0.5988 -0.1771
  219SOL    HW1  656   1.607   2.349   0.002 -1.9812  2.4243 -2.0080
  219SOL    HW2  657   1.772   2.378   0.033  1.0881  1.2710  4.0212
  220SOL     OW  658   1.627   2.637   0.061  0.0237  0.1252  0.4082
  220SOL    HW1  659   1.572   2.637   0.148 -1.7235 -0.3834  0.0629
  220SOL    HW2  660   1.704   2.571   0.067 -1.2222  0.4874  1.2005
  221SOL     OW  661   0.169   2.474   1.819 -0.6726 -0.3483 -0.3405
  221SOL    HW1  662   0.134   2.384   1.846  1.1893  1.8862  0.1491
  221SOL    HW2  663   0.187   2.541   1.889 -0.4948  1.5163 -2.9241
  222SOL     OW  664   1.764   2.394   1.063  0.2100 -0.1168  0.1625
  222SOL    HW1  665   1.831   2.461   1.102 -2.1506 -1.0833 -0.7275
  222SOL    HW2  666   1.780   2.381   0.965 -2.5171  1.6074 -0.3093
  223SOL     OW  667   1.342   2.398   1.691 -0.0754 -0.4543 -0.7468
  223SOL    HW1  668   1.443   2.419   1.712  2.6899 -1.1140 -1.1386
  223SOL    HW2  669   1.329   2.296   1.677 -0.6732  0.3427 -0.6425
  224SOL     OW  670   2.527   2.401   1.302  0.4210  0.5439 -0.4034
  224SOL    HW1  671   2.626   2.425   1.295 -0.4083 -0.2005  0.2959
  224SOL    HW2  672   2.503   2.415   1.401  0.3063  1.9591  0.3389
  225SOL     OW  673   2.200   2.112   0.575  0.0081  0.1907 -0.0641
  225SOL    HW1  674   2.101   2.098   0.545 -3.0819 -0.8941 -2.7099
  225SOL    HW2  675   2.223   2.211   0.579 -0.1584  2.2417  1.0106
  226SOL     OW  676   1.405   2.443   0.447 -0.2640 -0.1835 -0.1968
  226SOL    HW1  677   1.477   2.371   0.450 -1.6344 -0.6736  0.9236
  226SOL    HW2  678   1.342   2.434   0.530 -0.8482 -0.9650  1.7840
  227SOL     OW  679   2.200   1.080   0.767  0.2146  0.3159  0.6401
  227SOL    HW1  680   2.115   1.066   0.818  1.1701  1.0665 -2.2031
  227SOL    HW2  681   2.187   1.079   0.668 -0.8861  0.6237 -0.0853
  228SOL     OW  682   1.528   0.283   2.967 -0.0489  0.3051 -0.3890
  228SOL    HW1  683   1.480   0.337   2.898  1.1435  0.3274 -0.5401
  228SOL    HW2  684   1.463   0.253   3.042 -0.0076 -0.2700  3.4473
  229SOL     OW  685   2.694   1.092   2.635  0.4662 -0.1069  0.2027
  229SOL    HW1  686   2.703   0.991   2.641  1.4370 -1.3368  0.7149
  229SOL    HW2  687   2.776   1.136   2.602  1.6292  2.2183  0.2791
  230SOL     OW  688   0.393   1.338   1.026  0.3314  0.3316 -0.5784
  230SOL    HW1  689   0.359   1.284   1.109 -1.5325  0.4293 -0.0587
  230SOL    HW2  690   0.389   1.284   0.938 -0.6187  1.9555  2.7598
  231SOL     OW  691   2.462   0.243   2.502 -0.0340 -0.3033 -0.3388
  231SOL    HW1  692   2.414   0.328   2.483  2.0714 -1.7836  3.4166
  231SOL    HW2  693   2.562   0.255   2.496  1.3389 -2.7010  0.2283
  232SOL     OW  694   2.982   2.230   0.474  0.0393  0.6609  0.0911
  232SOL    HW1  695   2.969   2.140   0.524 -1.3662  0.5843  2.2966
  232SOL    HW2  696   2.912   2.299   0.504  0.5997 -0.0792 -1.2564
  233SOL     OW  697   1.539   2.375   2.407  0.0255  0.2038 -0.1116
  233SOL    HW1  698   1.457   2.437   2.420 -2.0045  0.4262 -0.2492
  233SOL    HW2  699   1.564   2.363   2.309 -0.9470 -0.0970  1.4682
  234SOL     OW  700   1.347   1.599   1.227  0.0199 -0.0012  0.5880
  234SOL    HW1  701   1.406   1.620   1.305  0.4027  1.9331 -1.2614
  234SOL    HW2  702   1.365   1.670   1.157 -1.9290  0.3604 -0.0362
  235SOL     OW  703   0.941   1.775   1.546  0.1352  0.0605 -0.0096
  235SOL    HW1  704   0.869   1.762   1.621  1.5832 -0.1576 -0.4869
  235SOL    HW2  705   0.995   1.691   1.540 -2.1674  1.0021 -0.5355
  236SOL     OW  706   1.148   2.951   2.865 -0.2531 -0.2344 -0.1663
  236SOL    HW1  707   1.230   2.941   2.924  1.7316  2.3643  1.3022
  236SOL    HW2  708   1.153   2.883   2.782 -0.9637 -1.3914 -2.2848
  237SOL     OW  709   0.947   0.197   1.569 -0.1539  0.5161  0.5541
  237SOL    HW1  710   1.021   0.139   1.532  1.0793 -3.0574  0.6650
  237SOL    HW2  711   0.941   0.186   1.666  0.6314  0.4595 -1.1597
  238SOL     OW  712   1.475   1.006   0.092 -0.4932 -0.0570  0.4947
  238SOL    HW1  713   1.406   1.040   0.023 -2.0723  1.2792 -0.4091
  238SOL    HW2  714   1.524   0.925   0.055 -0.0994 -1.0128  3.9598
  239SOL     OW  715   2.603   0.788   2.834 -0.1666  0.1513 -0.5321
  239SOL    HW1  716   2.530   0.842   2.876  1.3932  1.5172 -2.1822
  239SOL    HW2  717   2.690   0.794   2.895  1.9573  0.2455  1.0206
  240SOL     OW  718   2.569   2.196   0.736  0.1072 -0.0113  0.2363
  240SOL    HW1  719   2.532   2.132   0.806 -1.3831 -2.7410 -1.0363
  240SOL    HW2  720   2.601   2.160   0.644 -2.4957 -0.7964 -0.4708
  241SOL     OW  721   0.818   1.336   0.967  0.6861  0.5360  0.0838
  241SOL    HW1  722   0.790   1.311   0.871 -0.1411 -2.3673 -0.4486
  241SOL    HW2  723   0.736   1.375   1.017  0.6434  2.4419  0.6028
  242SOL     OW  724   0.843   0.584   0.907 -0.0992 -0.0979  0.1322
  242SOL    HW1  725   0.875   0.634   0.826 -0.8483  0.7034  0.3872
  242SOL    HW2  726   0.797   0.496   0.885 -0.5722  3.6108  1.0051
  243SOL     OW  727   0.420   0.463   1.144 -0.7521  0.1287  0.2548
  243SOL    HW1  728   0.333   0.503   1.178 -0.6222  0.1529 -1.1279
  243SOL    HW2  729   0.471   0.532   1.084 -1.0671  2.4756 -1.0932
  244SOL     OW  730   1.127   0.123   0.477 -0.1547 -0.2730  0.7915
  244SOL    HW1  731   1.116   0.021   0.489  0.1378 -0.0441  1.5605
  244SOL    HW2  732   1.088   0.142   0.381 -0.2757 -1.1305 -1.7085
  245SOL     OW  733   1.978   0.605   0.322  1.1665  0.1262 -0.1323
  245SOL    HW1  734   1.982   0.624   0.420 -1.3026  0.5105  1.5845
  245SOL    HW2  735   2.060   0.559   0.294 -1.4067 -0.3614  1.1163
  246SOL     OW  736   0.301   0.362   1.795  0.3668  0.4032 -0.0558
  246SOL    HW1  737   0.219   0.427   1.801  0.0693  1.8653  0.3151
  246SOL    HW2  738   0.336   0.390   1.708 -1.2567  0.9395  0.4807
  247SOL     OW  739   0.971   0.145   1.853 -0.3355  0.1702  0.1214
  247SOL    HW1  740   1.060   0.151   1.807 -0.6178 -0.6299 -0.8183
  247SOL    HW2  741   0.957   0.048   1.888 -1.9745  1.4972 -0.1375
  248SOL     OW  742   0.445   1.692   2.003 -0.1610 -0.4318  0.1012
  248SOL    HW1  743   0.529   1.634   1.977  1.7197 -4.2682  0.2827
  248SOL    HW2  744   0.411   1.661   2.097  0.0128  2.1401  1.9306
  249SOL     OW  745   0.512   2.552   0.230 -0.0539  0.2635  0.9630
  249SOL    HW1  746   0.435   2.562   0.163 -2.0595 -0.1703  1.6152
  249SOL    HW2  747   0.485   2.576   0.323  0.5040  0.3560 -1.9283
  250SOL     OW  748   0.961   0.355   2.039 -0.3847 -0.9276 -1.1732
  250SOL    HW1  749   0.934   0.314   2.125  0.2857  1.1271  0.5679
  250SOL    HW2  750   0.938   0.294   1.961  0.4104  2.5190 -1.0198
  251SOL     OW  751   2.659   1.968   1.396  0.3915  0.3131 -0.0879
  251SOL    HW1  752   2.607   1.954   1.482 -0.3413 -0.7925  1.8820
  251SOL    HW2  753   2.625   2.037   1.328  1.5510 -1.8419  0.6109
  252SOL     OW  754   1.676   0.121   1.792 -0.5595  0.0084 -0.1987
  252SOL    HW1  755   1.656   0.130   1.895  0.0710 -1.9434  1.0231
  252SOL    HW2  756   1.628   0.052   1.732  2.0406 -0.0078 -1.5185
  253SOL     OW  757   2.204   1.840   2.211 -0.5025  0.0878  0.1748
  253SOL    HW1  758   2.172   1.928   2.170 -0.9597  0.4303 -2.1262
  253SOL    HW2  759   2.258   1.860   2.298  1.7822  2.1236 -0.5753
  254SOL     OW  760   0.736   1.402   1.408  0.3620 -0.3672 -0.6919
  254SOL    HW1  761   0.801   1.406   1.330  0.8603  1.6577  1.1806
  254SOL    HW2  762   0.671   1.480   1.408 -0.6833  0.5891 -1.5944
  255SOL     OW  763   0.447   3.041   1.658  0.6040 -0.0288 -0.2605
  255SOL    HW1  764   0.504   3.010   1.738  1.0949  0.4996  2.2711
  255SOL    HW2  765   0.412   2.970   1.599 -1.0098  0.3353  0.7545
  256SOL     OW  766   0.230   2.689   0.653  0.2346 -0.3629  0.1734
  256SOL    HW1  767   0.177   2.626   0.715  0.0728  1.7060  1.7821
  256SOL    HW2  768   0.313   2.722   0.707  2.5202  2.0863 -2.2460
  257SOL     OW  769   0.871   2.394   2.443  0.9696 -0.2325  0.3076
  257SOL    HW1  770   0.943   2.326   2.448  2.0353  0.7107 -1.4920
  257SOL    HW2  771   0.808   2.373   2.363 -1.8714 -2.5502 -2.7557
  258SOL     OW  772   1.421   2.132   1.883 -0.0773  0.5361  0.2544
  258SOL    HW1  773   1.376   2.061   1.939  1.7977 -1.2131 -0.5116
  258SOL    HW2  774   1.382   2.125   1.789 -2.0561  0.3928  0.4776
  259SOL     OW  775   1.042   1.096   2.177 -0.5395  0.5184 -0.0519
  259SOL    HW1  776   1.008   1.004   2.151 -0.0424 -0.0813  2.4145
  259SOL    HW2  777   0.976   1.170   2.176  0.8003 -0.2558  1.7426
  260SOL     OW  778   2.505   0.464   2.237 -0.1465  0.6303  0.4928
  260SOL    HW1  779   2.413   0.455   2.272  1.5837  0.3967 -2.1774
  260SOL    HW2  780   2.552   0.374   2.241 -2.0943  0.5258  1.8025
  261SOL     OW  781   0.790   1.244   0.704 -0.1434 -0.2658 -0.0726
  261SOL    HW1  782   0.768   1.144   0.719 -0.5237 -3.7245  0.3015
  261SOL    HW2  783   0.886   1.244   0.665 -0.9351 -0.6624  0.2916
  262SOL     OW  784   2.444   2.192   2.781  0.4576 -0.6592 -0.5420
  262SOL    HW1  785   2.372   2.154   2.720 -2.1338  0.2152  1.8556
  262SOL    HW2  786   2.510   2.118   2.808  0.5674  0.2412  0.0640
  263SOL     OW  787   0.632   2.630   1.121 -0.2886 -0.1147  0.7745
  263SOL    HW1  788   0.698   2.707   1.124  0.7019  0.7116 -1.6374
  263SOL    HW2  789   0.649   2.565   1.194  0.9195  0.0876 -1.0530
  264SOL     OW  790   2.944   2.204   0.207  0.0320 -0.3536 -0.4053
  264SOL    HW1  791   2.952   2.210   0.307 -0.0986  0.8322 -0.4413
  264SOL    HW2  792   2.967   2.115   0.165 -0.4266  3.4639  0.7248
  265SOL     OW  793   1.629   1.110   2.671 -0.2452 -0.3081 -0.1429
  265SOL    HW1  794   1.705   1.120   2.603 -1.9223 -0.2025  3.2403
  265SOL    HW2  795   1.567   1.188   2.660 -1.0816  2.4717 -0.1668
  266SOL     OW  796   1.261   1.937   2.057 -0.0962 -0.5637 -0.6045
  266SOL    HW1  797   1.276   1.951   2.155 -0.2955 -0.7196 -0.9788
  266SOL    HW2  798   1.164   1.947   2.027  0.1317  0.2596  0.1110
  267SOL     OW  799   2.261   0.996   2.568  0.0292 -0.4006 -0.2512
  267SOL    HW1  800   2.179   1.052   2.566  1.3495 -2.6470 -1.5001
  267SOL    HW2  801   2.339   1.044   2.525 -1.3011 -0.3101 -0.5529
  268SOL     OW  802   0.819   1.097   2.838  0.2436 -0.2562 -0.0463
  268SOL    HW1  803   0.732   1.146   2.824 -0.4855  1.1240 -2.0901
  268SOL    HW2  804   0.835   1.094   2.934 -0.6195  0.2764 -2.5755
  269SOL     OW  805   3.082   1.753   1.938  0.0492  0.7569 -0.4896
  269SOL    HW1  806   3.073   1.751   1.837 -1.9744  1.1642 -2.3796
  269SOL    HW2  807   3.001   1.805   1.978 -1.9263 -0.6381 -0.2193
  270SOL     OW  808   0.073   2.056   0.023 -0.5568 -0.0381  0.7364
  270SOL    HW1  809   0.006   1.981   0.018 -0.7674  1.1725  3.5332
  270SOL    HW2  810   0.064   2.107   3.028  1.7746 -1.8411 -0.8610
  271SOL     OW  811   0.035   0.310   0.315  0.2558 -0.1445  0.0056
  271SOL    HW1  812   0.080   0.383   0.374  0.0585  2.1124 -1.0334
  271SOL    HW2  813   3.035   0.293   0.357  1.0753  0.7133  1.1412
  272SOL     OW  814   0.104   0.048   0.329 -0.6530  0.0944 -0.0461
  272SOL    HW1  815   0.067   0.129   0.285  2.5973 -1.5567 -0.1484
  272SOL    HW2  816   0.045   0.027   0.410 -1.1946  0.3404 -0.8894
  273SOL     OW  817   0.379   2.999   1.998  0.6282  0.2067  0.1271
  273SOL    HW1  818   0.357   3.012   2.096  0.2119  0.2590  1.7780
  273SOL    HW2  819   0.379   3.084   1.944 -0.8614  0.1390  1.8974
  274SOL     OW  820   0.188   0.631   1.162  0.4815  0.2245  0.1526
  274SOL    HW1  821   0.129   0.601   1.084 -2.0510  0.6980 -0.5724
  274SOL    HW2  822   0.138   0.629   1.251 -2.0700 -0.0159 -0.2017
  275SOL     OW  823   1.020   1.527   1.064  0.4526 -0.0971 -0.2657
  275SOL    HW1  824   1.066   1.458   1.129  0.7225 -0.0776  1.7726
  275SOL    HW2  825   0.943   1.483   1.015 -0.2218  2.4347  0.8887
  276SOL     OW  826   0.560   1.316   1.933 -0.4646  0.4705 -0.6881
  276SOL    HW1  827   0.604   1.403   1.897  0.5121 -1.1865  1.8374
  276SOL    HW2  828   0.541   1.321   2.037 -1.6872 -0.4144  2.2725
  277SOL     OW  829   1.018   1.949   1.925  0.1887 -0.6868 -0.2917
  277SOL    HW1  830   0.924   1.934   1.957  0.9879 -1.6258 -1.4220
  277SOL    HW2  831   1.021   1.987   1.831  0.1192 -2.2729  0.5922
  278SOL     OW  832   2.158   2.592   2.114 -0.1800  0.3671 -0.0002
  278SOL    HW1  833   2.141   2.662   2.187  0.3521 -0.7334  0.1459
  278SOL    HW2  834   2.139   2.498   2.143 -0.5837 -1.1221  0.2776
  279SOL     OW  835   1.398   1.667   2.823 -0.1543 -0.0386  0.2075
  279SOL    HW1  836   1.466   1.592   2.803 -1.4670  2.2400 -0.2962
  279SOL    HW2  837   1.428   1.761   2.793  0.6179 -0.3508 -1.0138
  280SOL     OW  838   1.532   0.432   0.425 -0.0309  0.1945 -0.0310
  280SOL    HW1  839   1.598   0.418   0.498 -0.4023 -3.0352 -1.1604
  280SOL    HW2  840   1.478   0.512   0.445  1.4140 -0.8328  0.3313
  281SOL     OW  841   0.411   0.464   1.552  0.2258 -0.2878 -0.0144
  281SOL    HW1  842   0.323   0.499   1.523 -2.2888  0.7340 -0.6331
  281SOL    HW2  843   0.467   0.531   1.605  0.3668  0.5096 -0.9263
  282SOL     OW  844   0.205   2.975   0.696 -0.0015 -0.2131 -0.7153
  282SOL    HW1  845   0.250   3.034   0.624 -0.8466  0.4337 -1.0755
  282SOL    HW2  846   0.201   2.877   0.672  0.4053  4.0300 -2.2321
  283SOL     OW  847   1.337   1.952   1.451 -0.1750  0.7935 -0.8739
  283SOL    HW1  848   1.261   1.954   1.382  2.6997  2.7469 -1.9660
  283SOL    HW2  849   1.376   1.856   1.451  1.0604  0.2345 -0.0835
  284SOL     OW  850   2.441   2.839   1.117 -0.2162 -0.2702  0.2436
  284SOL    HW1  851   2.491   2.788   1.192 -3.1958 -0.3313  1.7565
  284SOL    HW2  852   2.381   2.775   1.067 -1.4946 -0.2998  0.8207
  285SOL     OW  853   0.541   2.239   0.810  0.1625 -0.0228  0.0317
  285SOL    HW1  854   0.542   2.339   0.815 -2.0007  2.2933 -3.2660
  285SOL    HW2  855   0.461   2.204   0.757  2.2630  0.3991 -2.9895
  286SOL     OW  856   3.093   2.585   1.638  0.0230  0.0960  0.1259
  286SOL    HW1  857   0.010   2.685   1.650 -0.5941 -1.3914  1.7649
  286SOL    HW2  858   0.035   2.534   1.715  1.2482 -0.1630  0.2173
  287SOL     OW  859   0.420   1.162   0.813 -0.5139 -0.2231 -0.6940
  287SOL    HW1  860   0.470   1.180   0.728  2.7266  0.5926  1.3938
  287SOL    HW2  861   0.404   1.061   0.826 -0.4893 -0.2693  0.1172
  288SOL     OW  862   1.033   1.871   2.616  0.0724 -0.3379  0.2199
  288SOL    HW1  863   1.133   1.882   2.631  1.6778  0.8876  0.6098
  288SOL    HW2  864   1.004   1.936   2.542  1.0755 -1.9975  0.1075
  289SOL     OW  865   2.549   1.710   2.834  0.0941 -0.7521  0.0444
  289SOL    HW1  866   2.498   1.670   2.913 -2.2635 -0.0561 -1.0237
  289SOL    HW2  867   2.492   1.703   2.751  1.7736 -0.1981  0.9816
  290SOL     OW  868   1.208   1.219   0.900 -0.0899  0.1891  0.5359
  290SOL    HW1  869   1.123   1.181   0.945  2.4191 -2.4837 -0.3455
  290SOL    HW2  870   1.248   1.291   0.956  0.2818 -0.8399 -2.0731
  291SOL     OW  871   1.222   1.064   3.054 -0.1475 -0.4482  0.6113
  291SOL    HW1  872   1.206   1.122   2.974  0.4745  2.3631  2.6072
  291SOL    HW2  873   1.221   0.964   3.036  1.0080  0.3591  0.3350
  292SOL     OW  874   1.621   1.798   0.165 -0.1912 -0.3395  0.0219
  292SOL    HW1  875   1.601   1.701   0.136  2.3894 -0.5904  1.4030
  292SOL    HW2  876   1.536   1.848   0.187  1.4068 -2.0341 -0.9573
  293SOL     OW  877   1.581   3.065   1.060 -0.6849 -0.0875 -0.0217
  293SOL    HW1  878   1.529   0.026   1.131  0.3939  2.7316 -1.9093
  293SOL    HW2  879   1.550   3.080   0.961  0.9758  0.6077 -0.9140
  294SOL     OW  880   2.209   1.103   0.505  0.4508  0.2087 -0.1389
  294SOL    HW1  881   2.287   1.033   0.497  1.2315 -0.2111  0.1997
  294SOL    HW2  882   2.244   1.183   0.453  1.3432  0.3054  0.3561
  295SOL     OW  883   2.004   2.121   2.657  0.7301 -0.4758  0.2973
  295SOL    HW1  884   1.910   2.097   2.683  0.3067  0.2840 -0.9152
  295SOL    HW2  885   2.010   2.127   2.557  3.0728  1.3198  1.0353
  296SOL     OW  886   1.354   1.227   1.448 -0.0732  0.2594 -0.2838
  296SOL    HW1  887   1.282   1.292   1.414 -0.6634 -0.8659  0.1452
  296SOL    HW2  888   1.330   1.130   1.440  0.4443 -0.1572 -0.1479
  297SOL     OW  889   0.063   0.730   2.563 -0.1990  0.1505 -0.4468
  297SOL    HW1  890   0.155   0.758   2.557 -0.3152 -5.0483  1.8006
  297SOL    HW2  891   0.007   0.808   2.591 -1.4535 -0.0962 -1.5914
  298SOL     OW  892   1.443   2.187   1.340 -0.2042 -0.1542  0.1923
  298SOL    HW1  893   1.409   2.090   1.369 -1.7150 -4.0940  1.3386
  298SOL    HW2  894   1.511   2.227   1.404  4.0163 -0.0702  1.6208
  299SOL     OW  895   1.254   0.541   2.589  0.9063 -0.1902  0.3392
  299SOL    HW1  896   1.345   0.522   2.630  0.3127  1.8873  0.4648
  299SOL    HW2  897   1.192   0.463   2.601 -1.3536  2.4694  1.4831
  300SOL     OW  898   2.359   1.630   0.327  0.1252 -0.4052 -0.4197
  300SOL    HW1  899   2.374   1.733   0.323  1.0219  1.5089  0.6558
  300SOL    HW2  900   2.407   1.594   0.246 -0.0371  2.2619  0.1239
  301SOL     OW  901   2.108   0.303   2.723 -0.2296  0.5348  0.1960
  301SOL    HW1  902   2.144   0.378   2.670 -1.5263 -2.1924  2.0607
  301SOL    HW2  903   2.181   0.251   2.769 -0.6437  2.6131  0.5502
  302SOL     OW  904   2.664   2.005   2.540  0.3518  0.2860  0.3349
  302SOL    HW1  905   2.726   2.018   2.616 -1.5491 -1.0383  0.3797
  302SOL    HW2  906   2.652   2.094   2.486 -0.6772  1.3326  1.5555
  303SOL     OW  907   0.357   2.593   2.222  0.1837  0.1235 -0.6115
  303SOL    HW1  908   0.451   2.580   2.257 -2.1578 -1.8022 -1.6402
  303SOL    HW2  909   0.292   2.531   2.277 -1.0506 -1.4828 -0.8983
  304SOL     OW  910   2.788   1.477   1.478  0.2105 -0.6818 -0.1949
  304SOL    HW1  911   2.877   1.505   1.438 -3.6926 -2.3450  3.2998
  304SOL    HW2  912   2.717   1.489   1.406 -0.1886 -1.7704 -0.5717
  305SOL     OW  913   0.369   0.369   2.123 -0.1906  0.5273 -0.2489
  305SOL    HW1  914   0.435   0.315   2.060  0.4171 -2.0941 -0.5257
  305SOL    HW2  915   0.312   0.297   2.153  3.0565 -0.8677 -0.5348
  306SOL     OW  916   1.239   1.552   0.620  0.4839 -0.2460 -0.3224
  306SOL    HW1  917   1.243   1.464   0.576 -3.8383  3.0459  3.4534
  306SOL    HW2  918   1.320   1.608   0.594  0.4731 -1.9201 -0.3616
  307SOL     OW  919   2.900   0.046   0.972 -0.0977  0.7756 -0.0622
  307SOL    HW1  920   2.908   0.112   0.898  0.1934  2.0704  1.5999
  307SOL    HW2  921   2.974   0.056   1.042  1.5998 -2.1513  0.0155
  308SOL     OW  922   2.989   1.384   2.605 -0.0128  0.4564 -0.0638
  308SOL    HW1  923   2.923   1.405   2.681  2.9999 -0.4768 -1.2992
  308SOL    HW2  924   2.993   1.282   2.593 -1.4089 -1.9141 -0.9769
  309SOL     OW  925   2.996   1.869   2.507 -0.0714  0.0728  0.8813
  309SOL    HW1  926   3.017   1.767   2.514 -1.1103 -1.2197  1.4529
  309SOL    HW2  927   2.960   1.909   2.596 -2.7944  3.6625  0.5154
  310SOL     OW  928   2.197   0.447   0.246 -0.3816  0.3829  0.3405
  310SOL    HW1  929   2.234   0.496   0.166 -0.7478 -0.1870 -0.6713
  310SOL    HW2  930   2.128   0.376   0.224 -0.2029 -2.3184 -0.7871
  311SOL     OW  931   2.072   1.040   2.938 -0.4275  0.0982 -0.3026
  311SOL    HW1  932   2.073   1.134   2.900  1.2590  1.4128  0.4078
  311SOL    HW2  933   1.979   1.014   2.969  0.3839 -0.9346 -2.2251
  312SOL     OW  934   1.362   1.483   1.877 -0.7416  0.3100  0.1680
  312SOL    HW1  935   1.403   1.573   1.900 -0.1428  1.1079 -1.2521
  312SOL    HW2  936   1.289   1.461   1.941 -1.4812 -0.2980 -1.3167
  313SOL     OW  937   0.045   0.628   0.240  0.0076  0.2273 -0.6957
  313SOL    HW1  938   0.099   0.634   0.155 -0.9254  0.0678 -0.3174
  313SOL    HW2  939   3.045   0.592   0.226  0.0120  0.4456 -0.2415
  314SOL     OW  940   0.241   1.904   1.402 -0.4265  0.3596  0.0520
  314SOL    HW1  941   0.179   1.918   1.479  1.2354  1.5697  1.6465
  314SOL    HW2  942   0.248   1.807   1.371 -1.3165  1.2377  1.2321
  315SOL     OW  943   1.168   1.425   1.340  0.2785  0.3133 -0.0308
  315SOL    HW1  944   1.140   1.467   1.428  0.0488 -2.2451  0.5718
  315SOL    HW2  945   1.240   1.475   1.291 -2.4742 -0.4890  0.6736
  316SOL     OW  946   0.230   2.304   0.678 -0.5942  0.7766 -0.2661
  316SOL    HW1  947   0.194   2.390   0.723 -5.0021  1.8710  0.0229
  316SOL    HW2  948   0.198   2.315   0.581  0.8541  3.0906  0.7505
  317SOL     OW  949   2.489   0.133   1.200  0.3676  0.8770  0.1875
  317SOL    HW1  950   2.499   0.194   1.281 -1.4832 -1.3178 -2.0739
  317SOL    HW2  951   2.572   0.091   1.165 -1.6481  0.5869  0.5500
  318SOL     OW  952   1.141   2.908   0.101 -0.0457 -0.4140  0.1105
  318SOL    HW1  953   1.221   2.894   0.042 -2.8970  1.2763  3.1780
  318SOL    HW2  954   1.142   3.010   0.125  1.5259  1.7648  0.1995
  319SOL     OW  955   1.481   0.514   2.738 -0.0138  0.3732  0.7533
  319SOL    HW1  956   1.578   0.500   2.700  1.1170  0.4008 -0.4826
  319SOL    HW2  957   1.482   0.593   2.802  0.8601 -2.7933  1.1038
  320SOL     OW  958   2.956   2.013   1.805 -0.2243  0.6767  0.8157
  320SOL    HW1  959   2.902   1.975   1.882 -1.4125 -0.4984  1.8775
  320SOL    HW2  960   3.006   1.939   1.752  0.0498 -1.9615 -1.0246
  321SOL     OW  961   0.270   2.412   2.839  0.4140  0.3628  0.0681
  321SOL    HW1  962   0.242   2.455   2.927 -2.4917 -0.9152  0.1411
  321SOL    HW2  963   0.327   2.326   2.860 -0.7501 -2.6839  0.8167
  322SOL     OW  964   2.717   0.890   2.249  0.5331 -0.3186 -0.3032
  322SOL    HW1  965   2.623   0.919   2.223  2.4657 -0.6232  1.6289
  322SOL    HW2  966   2.725   0.848   2.339 -0.8022 -2.4477  1.5257
  323SOL     OW  967   1.955   1.328   0.437  0.8884 -0.6431  0.2025
  323SOL    HW1  968   1.970   1.280   0.349 -2.5213 -2.3170  1.1319
  323SOL    HW2  969   1.921   1.267   0.511 -0.9411  1.0492 -0.8359
  324SOL     OW  970   3.064   0.351   1.406 -0.0754 -0.1039  0.1885
  324SOL    HW1  971   0.046   0.306   1.450 -2.6706 -0.0840 -0.6172
  324SOL    HW2  972   3.052   0.313   1.309 -0.3097 -0.5876 -1.3322
  325SOL     OW  973   2.583   3.074   1.528  0.0156 -0.4241 -0.1861
  325SOL    HW1  974   2.629   3.063   1.437  2.1930  1.8671  0.0133
  325SOL    HW2  975   2.568   0.081   1.544  0.0382 -0.1398  1.6263
  326SOL     OW  976   1.570   2.633   0.313  0.0043  0.0160 -0.1442
  326SOL    HW1  977   1.505   2.564   0.350  3.1896  0.8661  1.2787
  326SOL    HW2  978   1.633   2.656   0.391  0.9775 -2.9311  0.0957
  327SOL     OW  979   1.839   2.254   0.326  0.4300 -0.2688  0.1850
  327SOL    HW1  980   1.862   2.219   0.418 -0.8497  0.3152  1.0414
  327SOL    HW2  981   1.875   2.188   0.259  0.3844  1.3050  0.7056
  328SOL     OW  982   3.030   2.257   1.888  0.2779 -0.0890 -0.1460
  328SOL    HW1  983   2.986   2.166   1.871  2.6199  0.0843 -0.1265
  328SOL    HW2  984   2.967   2.326   1.928  0.8652  0.8494 -0.6048
  329SOL     OW  985   0.029   2.215   1.309 -0.7401  0.2312  0.2619
  329SOL    HW1  986   3.080   2.228   1.394  2.2205  0.8325 -3.2806
  329SOL    HW2  987   3.092   2.124   1.273  0.2778 -0.7472  1.4551
  330SOL     OW  988   2.216   0.736   2.532 -0.0502  0.1336 -0.4481
  330SOL    HW1  989   2.124   0.707   2.492 -2.2375  0.9701 -0.0010
  330SOL    HW2  990   2.221   0.839   2.528 -1.2180 -2.1625  2.1103
  331SOL     OW  991   2.463   1.260   0.556 -0.2142 -0.3637  0.1833
  331SOL    HW1  992   2.376   1.310   0.526  1.4297 -0.0565  1.3518
  331SOL    HW2  993   2.539   1.324   0.570  0.9149 -0.2062  0.7687
  332SOL     OW  994   0.067   2.876   1.282  0.0894 -0.3836 -0.1618
  332SOL    HW1  995   0.127   2.842   1.205 -2.2271 -1.2303 -1.4390
  332SOL    HW2  996   0.052   2.975   1.267 -0.2092  1.0599 -2.6172
  333SOL     OW  997   0.156   1.948   2.427 -0.2168  0.3910 -0.1187
  333SOL    HW1  998   0.163   1.940   2.327 -1.6349  0.5596 -1.5311
  333SOL    HW2  999   0.060   1.947   2.465  1.2163 -0.1935 -0.3970
  334SOL     OW 1000   0.277   0.887   1.112  0.0586 -0.6581 -0.0400
  334SOL    HW1 1001   0.276   0.789   1.145  1.3744  1.1971 -0.5494
  334SOL    HW2 1002   0.234   0.949   1.184 -1.5256  1.5504  2.1073
  335SOL     OW 1003   0.124   1.531   1.988  0.0710 -0.8912  0.4882
  335SOL    HW1 1004   0.048   1.601   1.979 -0.6185  0.5504  2.6230
  335SOL    HW2 1005   0.158   1.536   2.087  2.4225 -1.2180  0.1084
  336SOL     OW 1006   2.114   2.792   2.332  0.2443 -0.1528 -0.3909
  336SOL    HW1 1007   2.148   2.719   2.392  1.3774  0.0431 -3.2014
  336SOL    HW2 1008   2.079   2.865   2.392  1.2642 -0.7415 -2.1541
  337SOL     OW 1009   0.872   0.779   1.307  0.3867 -0.0876  0.3651
  337SOL    HW1 1010   0.779   0.787   1.268 -0.0757  1.2784  0.1048
  337SOL    HW2 1011   0.945   0.820   1.247  1.9940  1.0770  1.7472
  338SOL     OW 1012   1.486   2.137   1.076 -0.4053 -0.7329 -0.2776
  338SOL    HW1 1013   1.486   2.174   1.173 -1.3762 -1.6756  0.4440
  338SOL    HW2 1014   1.433   2.052   1.077 -0.8449 -0.3714  0.7147
  339SOL     OW 1015   0.056   1.965   1.202 -0.0891  0.8074  0.3805
  339SOL    HW1 1016   0.143   1.952   1.248 -1.8935 -2.2006 -0.8684
  339SOL    HW2 1017   3.081   1.961   1.279  2.4254 -0.2179  1.7350
  340SOL     OW 1018   0.863   0.218   2.265  0.1763 -0.5715 -0.4309
  340SOL    HW1 1019   0.827   0.128   2.234  1.3806  0.5385  1.6115
  340SOL    HW2 1020   0.811   0.259   2.342 -1.6009 -0.3277  0.8316
  341SOL     OW 1021   1.930   1.565   0.545 -0.1841  0.5322 -0.5576
  341SOL    HW1 1022   2.000   1.638   0.546 -0.0575 -0.7723  1.2618
  341SOL    HW2 1023   1.963   1.482   0.490 -2.6189 -1.8502  1.6872
  342SOL     OW 1024   1.678   1.518   0.403 -0.4424  0.6166  0.0464
  342SOL    HW1 1025   1.704   1.546   0.303 -0.2384  1.1439 -1.2621
  342SOL    HW2 1026   1.751   1.552   0.463  1.3355 -1.6298 -0.4216
  343SOL     OW 1027   1.782   0.148   0.993  0.7958 -0.2698 -0.3005
  343SOL    HW1 1028   1.817   0.193   1.080  0.4928  1.4575  3.8977
  343SOL    HW2 1029   1.715   0.077   1.019  0.2810  3.1254 -0.2871
  344SOL     OW 1030   2.726   0.136   2.952  0.6080 -0.0780  0.2669
  344SOL    HW1 1031   2.718   0.080   3.036  1.9211 -0.3348  1.6701
  344SOL    HW2 1032   2.670   0.101   2.877 -0.4689  2.7124 -0.0105
  345SOL     OW 1033   1.344   2.657   1.430 -0.2489  0.4761 -0.2575
  345SOL    HW1 1034   1.434   2.674   1.476 -0.5560 -0.2435 -1.9696
  345SOL    HW2 1035   1.269   2.630   1.494  1.3347 -0.3772  1.0406
  346SOL     OW 1036   2.331   2.046   1.206  0.1794 -0.0890 -0.5602
  346SOL    HW1 1037   2.238   2.034   1.164  1.3877 -0.5917  0.9617
  346SOL    HW2 1038   2.322   2.058   1.308  3.0726 -0.0842  3.3814
  347SOL     OW 1039   1.866   2.790   1.172  0.1875  0.3295  0.0990
  347SOL    HW1 1040   1.882   2.793   1.070  0.5134  2.5157 -1.7169
  347SOL    HW2 1041   1.926   2.860   1.218 -1.5590 -1.8527  2.2651
  348SOL     OW 1042   0.728   1.090   1.478  0.0300 -0.3311  0.1972
  348SOL    HW1 1043   0.733   1.173   1.420  0.1315 -1.4548 -1.6278
  348SOL    HW2 1044   0.661   1.026   1.438  0.7109 -1.4067  1.7506
  349SOL     OW 1045   2.328   0.229   2.875  0.4307 -0.0788 -0.1940
  349SOL    HW1 1046   2.350   0.299   2.947  0.1852 -1.0218 -1.2428
  349SOL    HW2 1047   2.419   0.196   2.839  1.4852 -2.5852 -0.3559
  350SOL     OW 1048   2.215   1.938   2.918  0.2320 -0.1994  0.2182
  350SOL    HW1 1049   2.224   1.860   2.982  0.9070 -1.4307 -0.6247
  350SOL    HW2 1050   2.188   2.023   2.964  3.1703 -1.7209 -2.0975
  351SOL     OW 1051   1.146   0.381   0.629 -0.0054 -0.3923 -0.5285
  351SOL    HW1 1052   1.169   0.317   0.561 -1.5978  1.9196  1.3865
  351SOL    HW2 1053   1.183   0.474   0.612  2.1381 -1.9987 -0.4156
  352SOL     OW 1054   2.006   2.139   2.383  0.1405 -0.1681 -0.0136
  352SOL    HW1 1055   1.975   2.234   2.366 -0.4386 -0.4212 -0.2168
  352SOL    HW2 1056   2.103   2.124   2.358 -0.1568 -1.4306  1.7211
  353SOL     OW 1057   0.219   0.692   0.029  0.0068  0.3978  0.2862
  353SOL    HW1 1058   0.259   0.634   3.046 -0.2090  3.1201  1.2647
  353SOL    HW2 1059   0.214   0.789   3.092  1.3645  1.3825  0.3804
  354SOL     OW 1060   1.117   2.323   0.058  0.8146 -0.1106 -0.0263
  354SOL    HW1 1061   1.028   2.272   0.084 -3.0027 -0.0949  0.7809
  354SOL    HW2 1062   1.197   2.268   0.067 -0.0493  0.0246  1.2377
  355SOL     OW 1063   2.677   2.727   1.593  0.6040 -0.0122  0.2363
  355SOL    HW1 1064   2.723   2.816   1.619  0.9346  0.4730  0.2390
  355SOL    HW2 1065   2.585   2.704   1.628  2.9119  0.4784 -2.0036
  356SOL     OW 1066   2.697   1.199   0.818 -0.2652  0.4895 -0.0168
  356SOL    HW1 1067   2.623   1.184   0.884 -1.0312  1.0273 -0.7333
  356SOL    HW2 1068   2.761   1.269   0.856  2.1097  1.1731 -1.8891
  357SOL     OW 1069   2.723   0.293   1.062  0.4323  0.1865 -0.0535
  357SOL    HW1 1070   2.628   0.287   1.028  0.2809 -0.2809 -1.2133
  357SOL    HW2 1071   2.774   0.209   1.038 -2.6147  0.2199 -0.6931
  358SOL     OW 1072   1.144   2.282   1.164 -0.0631  0.8893 -0.1380
  358SOL    HW1 1073   1.059   2.318   1.122 -1.7788  2.1035  1.4716
  358SOL    HW2 1074   1.213   2.353   1.166 -1.7059 -1.0357 -0.5291
  359SOL     OW 1075   0.121   2.715   2.598  0.1414  0.3171  0.4793
  359SOL    HW1 1076   0.216   2.675   2.598 -0.1973 -0.5707  0.2809
  359SOL    HW2 1077   0.133   2.814   2.577  0.1285  0.8412 -1.3781
  360SOL     OW 1078   0.774   0.837   1.822 -0.1559 -0.2161 -0.2681
  360SOL    HW1 1079   0.822   0.900   1.750  1.7966  0.8249 -1.6911
  360SOL    HW2 1080   0.705   0.775   1.775 -1.4324 -2.7287 -1.2823
  361SOL     OW 1081   2.405   0.132   0.708  0.0821 -0.5103  0.3931
  361SOL    HW1 1082   2.410   0.175   0.798 -2.3337 -1.3862  0.4794
  361SOL    HW2 1083   2.474   0.173   0.644 -1.2255 -1.6086  0.5321
  362SOL     OW 1084   0.283   3.035   0.958 -0.2655 -0.0033 -0.1653
  362SOL    HW1 1085   0.273   2.996   0.865  0.8277  2.2245  1.7140
  362SOL    HW2 1086   0.370   3.083   0.975  0.2212 -2.1017 -0.8008
  363SOL     OW 1087   0.673   1.224   0.367  0.0389 -0.0774 -0.3170
  363SOL    HW1 1088   0.706   1.130   0.394  2.3674  4.1960  0.1693
  363SOL    HW2 1089   0.753   1.282   0.343 -1.4595 -1.5337 -0.4441
  364SOL     OW 1090   0.433   1.181   1.730 -0.5712  0.0584  0.2616
  364SOL    HW1 1091   0.428   1.080   1.752  2.1002 -0.3971  0.3959
  364SOL    HW2 1092   0.494   1.234   1.792 -0.1081 -0.2163 -0.0097
  365SOL     OW 1093   2.822   1.298   0.356 -0.6099  0.0159 -0.6784
  365SOL    HW1 1094   2.827   1.263   0.450 -0.5709 -1.4239 -0.3763
  365SOL    HW2 1095   2.728   1.332   0.341  0.9821 -3.1984 -1.1850
  366SOL     OW 1096   2.595   1.748   0.935 -0.8937  0.0770 -0.1655
  366SOL    HW1 1097   2.637   1.660   0.896 -2.0860 -1.3841 -0.4951
  366SOL    HW2 1098   2.665   1.785   1.003  1.9618 -0.3515  0.6515
  367SOL     OW 1099   2.156   2.079   2.039  0.0351 -0.2482  0.5496
  367SOL    HW1 1100   2.069   2.129   2.045 -2.6520  2.1252 -0.1930
  367SOL    HW2 1101   2.166   2.021   1.954 -1.5568  2.2063 -0.4904
  368SOL     OW 1102   2.713   1.511   0.853  0.9916 -0.0561 -1.0897
  368SOL    HW1 1103   2.799   1.483   0.898  1.7058 -0.8717  2.0058
  368SOL    HW2 1104   2.649   1.438   0.837 -0.4295  3.2214 -3.1303
  369SOL     OW 1105   2.285   2.428   0.082 -0.2805 -0.3901 -0.1938
  369SOL    HW1 1106   2.323   2.518   0.113 -1.7230  1.7378  0.0750
  369SOL    HW2 1107   2.224   2.447   0.006  2.1153  0.8566  1.4235
  370SOL     OW 1108   2.869   0.011   1.392  0.2808 -0.1008  0.3614
  370SOL    HW1 1109   2.812   0.003   1.311 -0.4737 -0.8697 -0.2007
  370SOL    HW2 1110   2.958   0.054   1.369 -3.1162 -0.8727 -3.0319
  371SOL     OW 1111   0.629   1.617   3.092 -0.2240 -0.3595 -0.0189
  371SOL    HW1 1112   0.723   1.618   0.036 -2.0018 -0.5126 -1.9546
  371SOL    HW2 1113   0.590   1.710   3.081 -0.5063 -0.8689 -0.9818
  372SOL     OW 1114   1.036   1.093   0.175 -0.3137  0.0155 -0.2523
  372SOL    HW1 1115   0.942   1.101   0.141  1.8782 -0.1197 -1.1169
  372SOL    HW2 1116   1.111   1.069   0.107  2.7423  0.4384  3.1212
  373SOL     OW 1117   1.575   2.598   2.855 -0.3808  0.5163 -0.3998
  373SOL    HW1 1118   1.668   2.572   2.811  2.6480  0.4370 -1.5293
  373SOL    HW2 1119   1.578   2.610   2.959 -2.2368 -1.8687 -0.4386
  374SOL     OW 1120   0.255   2.173   0.197 -0.0587  0.8259  0.1937
  374SOL    HW1 1121   0.333   2.220   0.153 -1.7760 -0.7987  0.6472
  374SOL    HW2 1122   0.192   2.138   0.125 -2.6929  1.1812 -2.2403
  375SOL     OW 1123   0.789   1.388   1.690  0.4161 -0.0922 -0.1099
  375SOL    HW1 1124   0.782   1.386   1.589 -2.2508  0.0102  0.3282
  375SOL    HW2 1125   0.856   1.322   1.720 -1.5539 -1.6660 -1.3291
  376SOL     OW 1126   0.658   2.456   1.912 -0.1621 -0.0341 -0.1517
  376SOL    HW1 1127   0.623   2.527   1.853  0.9824 -0.7740  0.7844
  376SOL    HW2 1128   0.579   2.406   1.948  1.2750 -1.1313 -0.2411
  377SOL     OW 1129   2.719   1.499   2.140  0.1706  0.2758  0.2068
  377SOL    HW1 1130   2.706   1.562   2.218 -0.5354 -0.1128  0.7745
  377SOL    HW2 1131   2.808   1.452   2.156 -1.7512 -0.5257  0.9257
  378SOL     OW 1132   0.957   3.073   2.992  0.0480 -0.1092 -0.2025
  378SOL    HW1 1133   1.033   3.019   2.944  2.6157  0.3147  1.1205
  378SOL    HW2 1134   0.991   0.042   3.058 -0.4179 -2.4657 -0.2510
  379SOL     OW 1135   2.053   0.377   0.650 -0.4163  0.3296 -0.3129
  379SOL    HW1 1136   2.106   0.306   0.603  0.2218 -1.3212  1.8405
  379SOL    HW2 1137   1.997   0.333   0.727 -0.9373 -1.6107 -0.8912
  380SOL     OW 1138   2.931   2.013   1.392 -0.1849  0.0640 -0.2160
  380SOL    HW1 1139   2.834   2.009   1.362  0.7829 -0.2834  3.0780
  380SOL    HW2 1140   2.943   2.085   1.459 -0.5164 -1.8835 -0.7316
  381SOL     OW 1141   1.880   1.945   1.819  0.3354  0.4957 -0.4824
  381SOL    HW1 1142   1.838   1.876   1.882 -1.8279 -1.6460 -1.5228
  381SOL    HW2 1143   1.827   1.950   1.732  0.8339 -1.0619  2.3236
  382SOL     OW 1144   3.084   0.368   2.618 -0.0668 -0.2241  0.5032
  382SOL    HW1 1145   0.010   0.339   2.518  0.9213 -0.0930 -0.5853
  382SOL    HW2 1146   2.999   0.331   2.652  0.0259  2.7945 -2.9387
  383SOL     OW 1147   1.822   1.502   2.398 -0.0291 -0.2270 -0.6120
  383SOL    HW1 1148   1.764   1.441   2.451 -4.3223  0.1569 -1.8895
  383SOL    HW2 1149   1.915   1.520   2.440  1.3274 -2.2489 -0.5903
  384SOL     OW 1150   1.157   2.011   1.248 -0.1981  0.1303  0.0569
  384SOL    HW1 1151   1.162   2.110   1.232  1.1919  0.2059 -1.5641
  384SOL    HW2 1152   1.070   1.988   1.298 -0.2810  0.4885  1.5686
  385SOL     OW 1153   1.783   2.378   0.781  0.6181 -0.2607 -0.4832
  385SOL    HW1 1154   1.686   2.414   0.762 -2.9884  3.4029  0.6052
  385SOL    HW2 1155   1.839   2.433   0.722 -1.8162  0.2015 -0.3654
  386SOL     OW 1156   2.115   1.833   0.723  0.7295  0.1994 -0.2154
  386SOL    HW1 1157   2.013   1.829   0.723 -1.6629 -1.3882 -0.0569
  386SOL    HW2 1158   2.149   1.916   0.767 -2.0583 -1.8279  1.2841
  387SOL     OW 1159   0.358   2.205   1.525 -0.3360  0.2905 -0.1025
  387SOL    HW1 1160   0.332   2.223   1.430 -0.7164 -1.3270  1.2752
  387SOL    HW2 1161   0.299   2.138   1.568 -0.1248  3.2812 -2.4220
  388SOL     OW 1162   2.843   0.469   1.754 -0.3052 -0.2181  0.2700
  388SOL    HW1 1163   2.904   0.548   1.746  0.6304 -2.1897  2.3908
  388SOL    HW2 1164   2.824   0.447   1.850 -2.7867 -0.2855 -1.3716
  389SOL     OW 1165   1.809   1.137   0.583 -0.0789 -0.5049 -0.1697
  389SOL    HW1 1166   1.817   1.125   0.685 -1.1980  2.9036  1.1775
  389SOL    HW2 1167   1.848   1.059   0.533 -1.9636  0.5518 -0.0198
  390SOL     OW 1168   0.876   2.156   2.723  0.6605  0.0289 -0.3733
  390SOL    HW1 1169   0.806   2.101   2.669 -0.9252 -3.7613  1.6210
  390SOL    HW2 1170   0.953   2.188   2.667 -3.3203 -1.6776 -0.2434
  391SOL     OW 1171   0.742   2.195   2.951  0.2918  0.0273  0.1906
  391SOL    HW1 1172   0.786   2.186   2.861 -1.7141  1.2692  1.3014
  391SOL    HW2 1173   0.642   2.193   2.938  0.5853 -0.3580  1.4672
  392SOL     OW 1174   3.077   2.865   1.697 -0.6440  0.2471  0.1337
  392SOL    HW1 1175   2.988   2.898   1.656  1.1633  1.6682 -0.1689
  392SOL    HW2 1176   3.078   2.894   1.795 -2.4372  1.4427 -2.2875
  393SOL     OW 1177   1.842   2.475   0.140 -0.7700 -0.3707  0.1194
  393SOL    HW1 1178   1.834   2.413   0.218  3.0863  4.1740  0.7179
  393SOL    HW2 1179   1.922   2.538   0.153  1.4968  1.7785 -1.0060
  394SOL     OW 1180   0.874   0.535   2.415  0.1780  0.7230  0.5260
  394SOL    HW1 1181   0.799   0.466   2.421  0.2043  0.3853  0.5283
  394SOL    HW2 1182   0.963   0.497   2.442  0.7894 -0.3371 -0.4400
  395SOL     OW 1183   0.367   1.188   1.250  0.0481  0.4126  0.0505
  395SOL    HW1 1184   0.288   1.128   1.264 -0.1498 -0.1103  0.1791
  395SOL    HW2 1185   0.399   1.230   1.339 -0.1486 -0.7013  2.0900
  396SOL     OW 1186   1.726   1.464   2.149 -0.4384 -0.0053  0.5241
  396SOL    HW1 1187   1.702   1.362   2.141  2.4709 -1.2412  0.1387
  396SOL    HW2 1188   1.770   1.484   2.237 -1.0378 -1.1739 -1.0170
  397SOL     OW 1189   0.668   0.527   0.072  0.1243 -0.4240 -0.0519
  397SOL    HW1 1190   0.683   0.474   0.154  0.9314 -0.2207 -2.9022
  397SOL    HW2 1191   0.674   0.466   3.086  0.4131  0.4601  1.3569
  398SOL     OW 1192   0.588   1.948   2.778  0.0284 -0.2477 -0.7436
  398SOL    HW1 1193   0.531   2.023   2.743 -1.2423  0.7930  0.9548
  398SOL    HW2 1194   0.611   1.891   2.694 -0.6322 -1.4719  1.0593
  399SOL     OW 1195   2.795   1.670   2.337 -0.4277  0.0475  0.0311
  399SOL    HW1 1196   2.819   1.765   2.305 -1.5743  0.3945 -2.8624
  399SOL    HW2 1197   2.870   1.621   2.386  0.8765  1.6577 -0.1526
  400SOL     OW 1198   2.353   0.833   1.731  0.2258 -0.2367  0.3502
  400SOL    HW1 1199   2.397   0.887   1.655  0.7145 -0.6894  1.9929
  400SOL    HW2 1200   2.345   0.731   1.713 -1.7159 -1.3544 -0.0022
  401SOL     OW 1201   1.101   1.726   0.761  0.0166  0.2978 -0.7153
  401SOL    HW1 1202   1.124   1.746   0.862 -1.4470 -0.5331  1.9542
  401SOL    HW2 1203   1.168   1.654   0.730  0.3370 -0.4046 -1.7414
  402SOL     OW 1204   0.003   2.686   2.032  0.1010 -0.0377  0.1190
  402SOL    HW1 1205   0.104   2.674   2.031 -2.9646 -0.6946  0.7235
  402SOL    HW2 1206   3.071   2.786   2.012 -2.1649  3.2473 -0.7921
  403SOL     OW 1207   0.481   1.411   2.512 -0.1496  0.2828  0.4730
  403SOL    HW1 1208   0.406   1.435   2.581 -1.6149  0.9559  2.5692
  403SOL    HW2 1209   0.457   1.316   2.480 -1.7666  1.5115 -1.2751
  404SOL     OW 1210   1.824   2.135   1.445 -0.5572 -0.5601  0.1316
  404SOL    HW1 1211   1.877   2.169   1.523  0.0109 -3.0611  0.3523
  404SOL    HW2 1212   1.815   2.036   1.439  1.1312  1.5572 -1.1254
  405SOL     OW 1213   2.928   2.988   2.874  0.0866 -0.0636  0.0624
  405SOL    HW1 1214   2.946   2.892   2.906  0.7838 -1.4710 -2.3746
  405SOL    HW2 1215   3.008   3.046   2.859 -1.0842 -2.6246 -1.9741
  406SOL     OW 1216   0.577   0.948   0.046 -0.1237 -0.4678 -0.3914
  406SOL    HW1 1217   0.610   0.921   3.047 -0.3615  0.0163 -3.8524
  406SOL    HW2 1218   0.643   1.019   0.076 -1.4985  0.8656 -0.4586
  407SOL     OW 1219   2.130   2.487   2.965 -0.3086 -0.3353 -0.2636
  407SOL    HW1 1220   2.145   2.412   2.901  0.0656 -2.0944 -0.0756
  407SOL    HW2 1221   2.167   2.579   2.941  1.3195  0.3987  3.3387
  408SOL     OW 1222   2.885   3.076   0.168  0.2700  0.2211 -0.2775
  408SOL    HW1 1223   2.893   2.987   0.216 -1.8629  2.1055 -1.7907
  408SOL    HW2 1224   2.973   0.002   0.115  3.7468  1.1058  0.9444
  409SOL     OW 1225   2.243   1.447   0.791  0.2463  0.6818  0.0303
  409SOL    HW1 1226   2.241   1.464   0.691  1.4618  0.6204  1.2906
  409SOL    HW2 1227   2.316   1.375   0.809  1.7352 -0.5821 -2.2603
  410SOL     OW 1228   2.656   2.052   0.264 -0.1214 -0.5450  0.3619
  410SOL    HW1 1229   2.562   2.025   0.237 -0.1949  0.4646 -0.2358
  410SOL    HW2 1230   2.690   2.114   0.193 -0.2881  3.1619  3.3877
  411SOL     OW 1231   0.288   1.498   0.801 -0.4311  0.5152 -0.0090
  411SOL    HW1 1232   0.252   1.592   0.807 -1.0370 -1.4117 -1.1122
  411SOL    HW2 1233   0.336   1.478   0.890  0.5976 -2.7030  1.2087
  412SOL     OW 1234   2.235   2.560   0.561  0.3277  0.3822 -0.1582
  412SOL    HW1 1235   2.336   2.562   0.576 -0.4677  1.1483 -0.7752
  412SOL    HW2 1236   2.219   2.488   0.494  3.0207 -0.3252  1.5292
  413SOL     OW 1237   1.862   0.677   2.177  0.3996  0.3383 -0.3820
  413SOL    HW1 1238   1.787   0.743   2.175  1.2768 -0.1036 -1.4240
  413SOL    HW2 1239   1.932   0.703   2.107  0.6269  0.0519  0.1338
  414SOL     OW 1240   2.714   0.107   0.354  0.2921 -0.1916  0.9629
  414SOL    HW1 1241   2.793   0.077   0.297 -0.2403  1.6202  1.8650
  414SOL    HW2 1242   2.709   0.061   0.446  0.8225  1.0341  1.6856
  415SOL     OW 1243   0.888   1.902   1.318  0.1078 -0.3672  0.1780
  415SOL    HW1 1244   0.792   1.882   1.294 -0.2373 -0.8840 -0.9281
  415SOL    HW2 1245   0.917   1.836   1.395  0.1891 -1.9023  2.1557
  416SOL     OW 1246   0.556   2.858   2.712  0.0149 -0.3916  0.5023
  416SOL    HW1 1247   0.498   2.828   2.631 -0.1479  1.1288 -0.9358
  416SOL    HW2 1248   0.654   2.827   2.705 -1.6841  1.4381  0.5869
  417SOL     OW 1249   2.765   0.509   0.886  0.2294  0.5334  0.4241
  417SOL    HW1 1250   2.767   0.480   0.787  0.1277 -1.8733 -0.9586
  417SOL    HW2 1251   2.782   0.425   0.943 -0.5261  0.7336 -1.6224
  418SOL     OW 1252   0.052   0.630   2.840 -0.6090  0.4899  0.2482
  418SOL    HW1 1253   3.066   0.573   2.868  1.0044  4.3255 -0.2321
  418SOL    HW2 1254   0.049   0.653   2.739 -1.1400 -1.7271  0.0258
  419SOL     OW 1255   0.155   1.147   1.706  0.0605  0.1197 -0.4812
  419SOL    HW1 1256   0.256   1.147   1.693 -0.5111 -3.1694 -0.5113
  419SOL    HW2 1257   0.126   1.229   1.757  0.6099 -0.4837 -2.7531
  420SOL     OW 1258   0.603   1.513   0.651  0.0063  0.1464  0.0404
  420SOL    HW1 1259   0.581   1.576   0.574 -1.4576  2.4440 -1.6399
  420SOL    HW2 1260   0.702   1.509   0.651 -1.2556  1.3905  0.0258
  421SOL     OW 1261   2.502   2.482   2.812 -0.5842  0.5160  0.1027
  421SOL    HW1 1262   2.500   2.379   2.809 -1.6989 -1.4156 -0.8891
  421SOL    HW2 1263   2.540   2.523   2.728 -1.4164  0.5005 -2.2742
  422SOL     OW 1264   2.934   0.487   2.940 -0.4912  0.2095 -0.0336
  422SOL    HW1 1265   2.876   0.445   2.865 -0.6574  0.2631 -2.9584
  422SOL    HW2 1266   2.934   0.428   3.025 -0.4934 -0.2006  0.7991
  423SOL     OW 1267   1.363   2.254   0.854  0.4000  0.3750  0.0545
  423SOL    HW1 1268   1.405   2.208   0.939 -1.8238 -0.9873  1.5081
  423SOL    HW2 1269   1.291   2.198   0.812  2.3074  2.3455 -2.6087
  424SOL     OW 1270   0.584   1.882   1.546 -0.1356  0.0840  0.6607
  424SOL    HW1 1271   0.612   1.980   1.531  1.5389  1.1787 -1.7607
  424SOL    HW2 1272   0.491   1.881   1.587 -1.8702  0.3597 -1.2047
  425SOL     OW 1273   0.194   2.780   2.335 -0.0870 -0.2022 -0.2204
  425SOL    HW1 1274   0.248   2.709   2.287  1.2054  2.8793  3.0447
  425SOL    HW2 1275   0.102   2.740   2.365  0.5992 -1.0747  0.0508
  426SOL     OW 1276   1.597   0.835   0.497  0.0909 -0.2091  0.6340
  426SOL    HW1 1277   1.676   0.845   0.437 -2.6067 -1.8023  0.2577
  426SOL    HW2 1278   1.609   0.876   0.589  0.6766 -2.1685  0.1148
  427SOL     OW 1279   0.309   0.983   0.052  0.6119  0.1041 -0.4695
  427SOL    HW1 1280   0.267   0.987   0.146 -2.6199 -1.6062 -0.5443
  427SOL    HW2 1281   0.415   0.971   0.058 -1.3696 -3.0320 -1.5517
  428SOL     OW 1282   1.443   1.393   0.129 -0.0864 -0.4487 -0.4063
  428SOL    HW1 1283   1.420   1.320   0.197 -2.1606 -0.8251  0.6611
  428SOL    HW2 1284   1.402   1.371   0.041  2.0649  2.2190  0.2003
  429SOL     OW 1285   2.933   2.576   0.715 -0.3373 -0.6907 -0.1305
  429SOL    HW1 1286   2.897   2.671   0.736 -1.8617  2.6017  2.1523
  429SOL    HW2 1287   2.990   2.575   0.634 -1.3587  2.5139  0.2871
  430SOL     OW 1288   0.603   2.527   2.304 -0.0473  0.1126 -0.8361
  430SOL    HW1 1289   0.594   2.521   2.407 -1.0570 -0.0768  1.1892
  430SOL    HW2 1290   0.633   2.439   2.265 -1.0718  1.9139 -2.6670
  431SOL     OW 1291   2.857   1.167   0.589  0.3114 -0.3437 -0.0746
  431SOL    HW1 1292   2.790   1.166   0.674 -0.7944 -1.9191  1.4409
  431SOL    HW2 1293   2.904   1.075   0.578  1.2232 -1.5798  1.2566
  432SOL     OW 1294   2.106   2.336   2.187 -0.0981 -0.5295  0.1220
  432SOL    HW1 1295   2.159   2.298   2.263 -0.6568  2.9575  3.2319
  432SOL    HW2 1296   2.051   2.264   2.142  2.0318  0.5247 -1.8764
  433SOL     OW 1297   1.286   2.504   0.885  0.3620  0.0489 -0.3436
  433SOL    HW1 1298   1.315   2.406   0.898  0.6807 -2.3363  0.0166
  433SOL    HW2 1299   1.357   2.567   0.921  0.0267 -2.7076 -1.0901
  434SOL     OW 1300   0.740   1.943   1.972  0.2644  0.3401  0.3337
  434SOL    HW1 1301   0.731   2.041   1.996 -0.7876  0.5755  0.0477
  434SOL    HW2 1302   0.712   1.887   2.053  0.9556 -0.3656 -0.3793
  435SOL     OW 1303   2.941   0.982   0.056  0.2183 -0.3759  0.4663
  435SOL    HW1 1304   2.964   0.960   0.151  1.3230  1.8198 -1.2325
  435SOL    HW2 1305   2.893   0.903   0.020 -1.4440  0.2443 -0.0189
  436SOL     OW 1306   0.294   2.739   1.979  0.0319 -0.3976 -0.1992
  436SOL    HW1 1307   0.328   2.831   2.013 -0.8155  2.8027  0.3842
  436SOL    HW2 1308   0.317   2.676   2.052  0.0592  2.3998 -4.0126
  437SOL     OW 1309   2.051   2.741   1.710  0.0070 -0.3950  0.4297
  437SOL    HW1 1310   2.006   2.722   1.620 -0.1800 -1.1974 -2.4763
  437SOL    HW2 1311   2.026   2.677   1.785 -0.0441 -3.6002  2.2393
  438SOL     OW 1312   0.138   1.926   0.576  0.0674 -0.5293 -0.0004
  438SOL    HW1 1313   0.202   1.849   0.591 -3.4651  0.6322 -1.4059
  438SOL    HW2 1314   0.076   1.936   0.656 -1.2758 -0.3917 -0.8185
  439SOL     OW 1315   0.228   0.461   0.844  0.1460  0.1198  0.4354
  439SOL    HW1 1316   0.235   0.534   0.774 -2.0457  1.9533 -0.7306
  439SOL    HW2 1317   0.315   0.407   0.853  2.1910  1.1206 -2.1053
  440SOL     OW 1318   0.439   2.763   2.488 -0.1339 -0.3149  0.1601
  440SOL    HW1 1319   0.412   2.671   2.530 -1.6354  1.6380  0.3775
  440SOL    HW2 1320   0.360   2.802   2.439 -0.1353  0.2530 -1.4242
  441SOL     OW 1321   3.015   0.947   0.552 -0.0800 -0.3161  0.0775
  441SOL    HW1 1322   0.025   0.962   0.554  2.3013 -0.7103 -1.3201
  441SOL    HW2 1323   2.991   0.850   0.570  1.7926  0.0529 -1.2924
  442SOL     OW 1324   1.097   2.235   2.564 -0.3113  0.3993  0.2008
  442SOL    HW1 1325   1.183   2.203   2.520 -2.5761 -0.9549 -0.3071
  442SOL    HW2 1326   1.121   2.313   2.628  0.5412 -0.3598  0.3864
  443SOL     OW 1327   0.734   0.092   0.406 -0.5831 -0.7797  0.0779
  443SOL    HW1 1328   0.823   0.069   0.355 -0.6627 -0.7971  0.4222
  443SOL    HW2 1329   0.738   0.189   0.444 -0.5567  1.2287 -0.6485
  444SOL     OW 1330   1.434   1.847   2.379 -0.1367 -0.2700  0.5487
  444SOL    HW1 1331   1.513   1.796   2.408 -1.4182  3.6692 -1.3736
  444SOL    HW2 1332   1.466   1.924   2.322 -0.6157 -0.2596  0.8025
  445SOL     OW 1333   0.040   0.464   0.571 -0.7288 -0.4423 -0.0821
  445SOL    HW1 1334   0.086   0.540   0.525  1.4931 -2.1730  0.7632
  445SOL    HW2 1335   0.104   0.406   0.624  3.5871 -1.5754 -1.1449
  446SOL     OW 1336   2.067   0.857   1.005  0.4147 -0.0541 -0.1862
  446SOL    HW1 1337   1.999   0.842   1.084 -2.8339  0.8280 -1.4366
  446SOL    HW2 1338   2.145   0.792   1.012 -0.8565  1.0536  0.3411
  447SOL     OW 1339   2.979   0.877   0.303 -0.0159  0.4165  0.4294
  447SOL    HW1 1340   3.036   0.788   0.289  1.2899 -1.8818  0.3812
  447SOL    HW2 1341   2.977   0.898   0.401  4.5263  1.4745 -3.4981
  448SOL     OW 1342   1.834   1.855   1.359  0.2192  0.3047 -0.5469
  448SOL    HW1 1343   1.806   1.854   1.260  0.1595 -0.1361  0.7207
  448SOL    HW2 1344   1.935   1.838   1.356 -1.7423 -3.0367  0.8014
  449SOL     OW 1345   0.887   1.434   0.379  0.2528  0.0673  0.6054
  449SOL    HW1 1346   0.983   1.401   0.369  0.6131 -0.0744  0.6742
  449SOL    HW2 1347   0.874   1.504   0.451 -2.7242 -0.4144 -0.3734
  450SOL     OW 1348   2.778   2.776   2.332  0.2565  0.2162 -0.1201
  450SOL    HW1 1349   2.714   2.791   2.407  0.0047  1.9922  1.5364
  450SOL    HW2 1350   2.727   2.756   2.243 -0.3369  2.2986  1.2837
  451SOL     OW 1351   2.331   1.017   2.835 -0.3422 -0.3610  0.0981
  451SOL    HW1 1352   2.250   1.002   2.894  0.7373  0.0839 -0.8434
  451SOL    HW2 1353   2.312   0.996   2.738 -1.4478  1.6467 -1.0564
  452SOL     OW 1354   1.687   0.978   1.033  0.2487 -0.1403  0.0210
  452SOL    HW1 1355   1.753   0.941   1.098  1.1525  1.8668  0.5419
  452SOL    HW2 1356   1.655   1.069   1.059  2.3070 -0.4835  1.3711
  453SOL     OW 1357   2.034   0.489   1.607 -0.0534 -0.1343  0.0470
  453SOL    HW1 1358   1.992   0.536   1.682  0.2901 -1.1632  0.9348
  453SOL    HW2 1359   2.097   0.537   1.544 -3.1735  2.0104  0.6345
  454SOL     OW 1360   2.735   1.250   2.857  0.6846  0.3083  0.4917
  454SOL    HW1 1361   2.670   1.217   2.787 -0.5028  2.1124  0.4852
  454SOL    HW2 1362   2.714   1.207   2.949 -1.5532  0.1288 -0.0842
  455SOL     OW 1363   2.690   1.713   1.262  0.5907  0.1483  0.0873
  455SOL    HW1 1364   2.767   1.770   1.291 -0.5945  1.9506 -1.8582
  455SOL    HW2 1365   2.606   1.762   1.286  0.8472  0.6229  2.6672
  456SOL     OW 1366   1.317   2.944   1.743  0.1378  0.0427  0.0929
  456SOL    HW1 1367   1.288   3.043   1.752  0.2512 -0.5503 -1.7454
  456SOL    HW2 1368   1.405   2.931   1.689  1.9197  0.0766 -1.0985
  457SOL     OW 1369   1.473   2.800   1.001 -1.1748  0.3366  0.3006
  457SOL    HW1 1370   1.522   2.721   1.048  1.2407 -1.7596  1.0176
  457SOL    HW2 1371   1.527   2.887   1.011  1.7462  0.4758  1.8149
  458SOL     OW 1372   2.882   2.848   0.762  0.1813 -0.2494  0.1681
  458SOL    HW1 1373   2.920   2.898   0.683 -0.3214 -1.2389 -0.1939
  458SOL    HW2 1374   2.794   2.886   0.791  1.5079 -0.9871  1.7747
  459SOL     OW 1375   1.731   1.112   0.127  0.5063  0.1538 -0.1967
  459SOL    HW1 1376   1.638   1.087   0.097  0.5483 -1.6222  0.1554
  459SOL    HW2 1377   1.719   1.174   0.208  0.5067  1.7359  0.7702
  460SOL     OW 1378   0.328   2.522   2.587 -0.0144 -0.6287 -0.2327
  460SOL    HW1 1379   0.319   2.464   2.675 -1.0961 -1.4162 -0.3881
  460SOL    HW2 1380   0.299   2.468   2.505 -0.8861 -1.0179  0.2609
  461SOL     OW 1381   0.438   1.519   0.189 -0.2356 -0.1015  0.3372
  461SOL    HW1 1382   0.403   1.423   0.192 -2.8984  1.5359  0.2069
  461SOL    HW2 1383   0.502   1.545   0.114 -2.2543  0.4116  1.6465
  462SOL     OW 1384   1.941   2.083   0.532 -0.0157 -0.5730 -0.6550
  462SOL    HW1 1385   1.943   2.102   0.633 -3.1594 -1.1037 -0.8336
  462SOL    HW2 1386   1.899   1.993   0.515  0.9106  1.3039 -1.5750
  463SOL     OW 1387   2.830   0.370   0.358 -0.4940  0.1927  0.5653
  463SOL    HW1 1388   2.834   0.437   0.277 -1.2959  2.1704  0.1570
  463SOL    HW2 1389   2.769   0.292   0.335  1.5069 -0.8521 -0.4362
  464SOL     OW 1390   0.740   2.209   0.561 -0.0712 -0.1042  0.6420
  464SOL    HW1 1391   0.805   2.203   0.482  0.9744  1.2455 -2.4400
  464SOL    HW2 1392   0.755   2.132   0.631 -0.4420 -2.1841 -0.3036
  465SOL     OW 1393   2.196   0.400   0.978  0.3930  0.0960  0.7043
  465SOL    HW1 1394   2.151   0.325   0.926 -0.7421  1.4627 -0.6828
  465SOL    HW2 1395   2.233   0.475   0.915  1.9774  1.1417  0.7493
  466SOL     OW 1396   2.113   0.065   0.629 -0.4808  0.4768 -0.5430
  466SOL    HW1 1397   2.213   0.075   0.656  4.1300 -1.0311  1.2301
  466SOL    HW2 1398   2.088   3.062   0.622 -1.9940 -0.1075 -1.1902
  467SOL     OW 1399   1.329   0.608   2.086 -0.3970 -0.2750 -0.9796
  467SOL    HW1 1400   1.361   0.698   2.055  1.0587 -2.3926 -0.7336
  467SOL    HW2 1401   1.385   0.534   2.043  0.7545 -3.7274  0.2596
  468SOL     OW 1402   2.747   0.415   2.012  0.2843  0.0971 -0.2938
  468SOL    HW1 1403   2.645   0.414   2.027  1.0216 -0.7745 -0.0313
  468SOL    HW2 1404   2.798   0.468   2.085  2.6112  3.0927  2.7070
  469SOL     OW 1405   1.056   2.318   1.821 -0.0100 -0.4202 -0.0823
  469SOL    HW1 1406   1.058   2.412   1.783 -0.1449  3.1329 -0.0849
  469SOL    HW2 1407   1.152   2.287   1.840 -2.4416  1.2837 -2.6411
  470SOL     OW 1408   2.103   1.289   2.033  0.5167  0.1539  0.1137
  470SOL    HW1 1409   2.103   1.253   2.135 -2.4800 -1.3246  5.1313
  470SOL    HW2 1410   2.043   1.372   2.012  2.1071  4.7529 -0.6129
  471SOL     OW 1411   2.956   1.397   2.999 -0.3860 -0.0844  0.0429
  471SOL    HW1 1412   2.865   1.360   2.979  2.8763  0.5375 -1.8999
  471SOL    HW2 1413   2.957   1.421   0.003  0.5894  1.7296 -0.3682
  472SOL     OW 1414   0.480   2.322   0.486  0.4868  0.1170  0.5210
  472SOL    HW1 1415   0.405   2.258   0.498 -1.5942  1.1728  0.8882
  472SOL    HW2 1416   0.557   2.271   0.525  0.8732 -0.1686  0.5236
  473SOL     OW 1417   1.201   2.310   2.210 -0.6167  0.1185 -0.1317
  473SOL    HW1 1418   1.272   2.342   2.144 -0.1436  0.6137 -2.4898
  473SOL    HW2 1419   1.246   2.257   2.289  0.2712 -0.4417  0.7739
  474SOL     OW 1420   1.050   3.012   2.468 -0.0272  0.4082  0.5138
  474SOL    HW1 1421   1.005   2.941   2.406  1.0399  0.3111  1.1446
  474SOL    HW2 1422   1.109   2.961   2.530 -0.6214  0.6559 -1.3513
  475SOL     OW 1423   0.895   2.162   0.360 -0.2923 -0.3107 -0.2924
  475SOL    HW1 1424   0.980   2.194   0.409 -0.4893  3.4723  2.9062
  475SOL    HW2 1425   0.908   2.174   0.259  0.3962  1.3740  0.4081
  476SOL     OW 1426   0.583   0.644   1.002  0.3201  0.0906 -0.4274
  476SOL    HW1 1427   0.582   0.715   1.070  0.3880 -3.3754 -3.2032
  476SOL    HW2 1428   0.676   0.608   0.995 -1.6401  1.8931 -0.7954
  477SOL     OW 1429   2.084   1.993   1.070  0.4868  0.1777  0.0196
  477SOL    HW1 1430   2.116   2.013   0.972  2.4163 -0.0776  1.4312
  477SOL    HW2 1431   2.027   2.067   1.110 -1.1018 -0.5537  1.2176
  478SOL     OW 1432   2.812   0.747   3.023 -0.3062 -0.0415 -0.5121
  478SOL    HW1 1433   2.737   0.733   3.089 -1.0155  0.0645 -0.5458
  478SOL    HW2 1434   2.872   0.665   3.012 -0.2946  1.6626 -1.0030
  479SOL     OW 1435   0.651   3.090   1.145  0.2834  0.6291  0.1182
  479SOL    HW1 1436   0.622   3.072   1.242 -0.4600  2.1804  1.6282
  479SOL    HW2 1437   0.685   3.005   1.102 -0.6284  1.3022  0.8868
  480SOL     OW 1438   2.534   2.530   0.357 -0.5833  0.4192 -0.2906
  480SOL    HW1 1439   2.609   2.499   0.299  1.6721 -3.4995  0.5099
  480SOL    HW2 1440   2.519   2.473   0.439 -0.3892  2.0866 -0.6509
  481SOL     OW 1441   2.682   0.481   1.248  0.4361 -0.4712 -0.4604
  481SOL    HW1 1442   2.705   0.395   1.193  1.8806 -0.4730 -0.2173
  481SOL    HW2 1443   2.718   0.470   1.342 -0.7180  0.5318 -1.0930
  482SOL     OW 1444   0.767   2.893   0.990  0.2526  0.3266  0.1908
  482SOL    HW1 1445   0.716   2.892   0.902 -0.3102  0.4687  1.7678
  482SOL    HW2 1446   0.866   2.898   0.978 -1.9034 -1.4439 -0.0663
  483SOL     OW 1447   0.084   1.351   2.810  0.1297  0.3454 -0.4386
  483SOL    HW1 1448   0.060   1.353   2.910  2.2335  0.4679  1.6080
  483SOL    HW2 1449   0.008   1.355   2.743 -0.1620  0.5732  0.3639
  484SOL     OW 1450   1.686   1.736   1.959 -0.3169 -0.2973  0.0365
  484SOL    HW1 1451   1.694   1.685   1.869  0.9380 -0.5994 -0.6870
  484SOL    HW2 1452   1.691   1.665   2.032 -0.1184 -1.6322 -1.3098
  485SOL     OW 1453   0.337   0.078   2.559  0.0945 -0.1355 -0.2611
  485SOL    HW1 1454   0.365   0.163   2.614  0.7529  0.1942  2.4202
  485SOL    HW2 1455   0.239   0.062   2.588  0.3472 -0.1965  0.1512
  486SOL     OW 1456   1.325   2.925   0.605  0.6309  0.4199 -0.0359
  486SOL    HW1 1457   1.370   2.840   0.633 -4.2462 -1.8390  1.9837
  486SOL    HW2 1458   1.341   2.951   0.506 -0.5537 -0.9196 -1.5005
  487SOL     OW 1459   1.478   3.092   0.819  0.0154 -0.3333 -0.1077
  487SOL    HW1 1460   1.572   0.020   0.781 -2.4023  0.0158  1.0365
  487SOL    HW2 1461   1.429   3.044   0.745  0.5403  2.9974 -0.5739
  488SOL     OW 1462   2.254   0.792   0.705  0.8076 -0.6307 -0.5722
  488SOL    HW1 1463   2.350   0.814   0.730  1.1248  2.3267 -2.3488
  488SOL    HW2 1464   2.196   0.850   0.765 -0.6381  0.9083  0.5401
  489SOL     OW 1465   1.035   3.071   1.383  0.0328  0.7606  0.1935
  489SOL    HW1 1466   1.107   3.070   1.307  4.0430  0.7789 -3.3368
  489SOL    HW2 1467   0.964   0.042   1.361  2.9230 -4.1840  1.6607
  490SOL     OW 1468   1.158   0.753   0.350  0.0737 -0.0763  0.3947
  490SOL    HW1 1469   1.097   0.696   0.289 -0.2084  2.1474 -0.2379
  490SOL    HW2 1470   1.107   0.828   0.396  0.7182  0.2159  0.1828
  491SOL     OW 1471   1.096   2.750   0.331 -0.2121 -0.3511 -0.1225
  491SOL    HW1 1472   1.094   2.778   0.231  2.1001 -0.1952 -2.5101
  491SOL    HW2 1473   1.121   2.655   0.338 -1.4552 -0.1924 -0.1272
  492SOL     OW 1474   1.064   1.504   1.579  0.1911  0.2282  0.2972
  492SOL    HW1 1475   1.103   1.565   1.654 -0.5564  2.9640  1.4928
  492SOL    HW2 1476   0.999   1.439   1.624 -1.5091 -1.2405  0.9046
  493SOL     OW 1477   0.575   1.911   0.511  0.5345 -0.0137 -0.1022
  493SOL    HW1 1478   0.489   1.953   0.471 -2.1556  2.7611  0.9029
  493SOL    HW2 1479   0.583   1.814   0.476  1.1696 -0.5175 -0.0551
  494SOL     OW 1480   1.972   1.804   0.249  0.6344  0.5462  0.6004
  494SOL    HW1 1481   2.026   1.734   0.303 -1.4521 -0.9463 -1.4718
  494SOL    HW2 1482   1.899   1.849   0.308  0.3659 -0.5177  1.6440
  495SOL     OW 1483   0.240   1.172   2.576  0.0086  0.6999 -0.0890
  495SOL    HW1 1484   0.199   1.193   2.667  0.7124 -1.5555  1.6734
  495SOL    HW2 1485   0.183   1.199   2.492  0.3198  0.4256 -3.2571
  496SOL     OW 1486   0.604   0.006   2.455  0.0012  0.1164 -0.4209
  496SOL    HW1 1487   0.506   3.092   2.493 -1.7163  1.7453  0.6026
  496SOL    HW2 1488   0.608   3.050   2.364  1.0714 -0.4123 -0.2520
  497SOL     OW 1489   1.665   1.242   0.378  0.1100  0.3520  0.1883
  497SOL    HW1 1490   1.663   1.342   0.384 -1.9762 -1.5381  2.6745
  497SOL    HW2 1491   1.712   1.199   0.458  0.8410  0.7411 -0.3497
  498SOL     OW 1492   2.848   2.809   0.221 -0.0398 -0.4868 -0.0173
  498SOL    HW1 1493   2.913   2.749   0.174  0.0608 -0.3028  1.8464
  498SOL    HW2 1494   2.760   2.801   0.178  3.2797 -0.0936 -0.1398
  499SOL     OW 1495   1.957   2.614   0.687  0.0734 -0.5838  0.1134
  499SOL    HW1 1496   1.897   2.666   0.621 -3.7901  1.1260 -0.7215
  499SOL    HW2 1497   2.036   2.569   0.644  1.2522  0.3498  0.2591
  500SOL     OW 1498   0.534   0.501   2.688  0.3865 -0.1175  0.2447
  500SOL    HW1 1499   0.531   0.605   2.674 -0.3613  3.4577  2.1387
  500SOL    HW2 1500   0.623   0.476   2.728 -2.4241  0.2929 -1.2997
  501SOL     OW 1501   1.558   3.005   1.611 -0.4793  0.0280  0.1974
  501SOL    HW1 1502   1.605   2.929   1.661 -2.0059 -0.1488  1.2822
  501SOL    HW2 1503   1.578   2.997   1.512  0.5684 -2.1590  0.9056
  502SOL     OW 1504   0.185   0.183   2.180  0.3097  0.7081 -0.2389
  502SOL    HW1 1505   0.231   0.103   2.231  2.8825 -2.8989  1.1974
  502SOL    HW2 1506   0.163   0.148   2.087 -1.7965  2.3734  0.2249
  503SOL     OW 1507   1.670   2.403   2.147  0.2147  0.8542  0.3607
  503SOL    HW1 1508   1.680   2.490   2.101  1.2387 -1.6414 -0.7662
  503SOL    HW2 1509   1.763   2.361   2.143 -2.0099 -0.0784 -1.3706
  504SOL     OW 1510   1.923   0.218   1.738  0.3168 -0.1401 -0.7343
  504SOL    HW1 1511   1.967   0.184   1.655  1.0111  1.6102 -0.2532
  504SOL    HW2 1512   1.830   0.181   1.754  2.3943  0.3886  0.1643
  505SOL     OW 1513   2.465   1.879   1.576 -0.0406  0.0273  0.5592
  505SOL    HW1 1514   2.459   1.776   1.584  0.5805 -0.8083  3.0517
  505SOL    HW2 1515   2.386   1.910   1.517 -0.2266 -0.2340 -1.9494
  506SOL     OW 1516   0.149   1.506   2.253  0.2926 -0.1725 -0.8029
  506SOL    HW1 1517   0.211   1.556   2.320 -0.1645  2.2273 -1.6013
  506SOL    HW2 1518   0.143   1.408   2.279 -1.9198  0.4528  0.4894
  507SOL     OW 1519   0.255   3.081   1.393  0.4400 -0.3581  0.0020
  507SOL    HW1 1520   0.350   0.019   1.373 -0.3582  2.1365  1.6298
  507SOL    HW2 1521   0.252   2.991   1.442 -1.1666 -1.8401 -0.3126
  508SOL     OW 1522   0.996   0.747   1.538  0.0403  0.2121  0.4942
  508SOL    HW1 1523   0.998   0.648   1.571 -0.8534 -1.7584  0.8086
  508SOL    HW2 1524   0.921   0.766   1.467 -1.7332  1.3970 -1.1605
  509SOL     OW 1525   1.580   2.493   1.747  0.2451 -0.3690  0.7697
  509SOL    HW1 1526   1.578   2.568   1.676 -0.3983  0.8054 -1.0138
  509SOL    HW2 1527   1.582   2.531   1.843 -0.2333 -0.0592 -0.1685
  510SOL     OW 1528   2.368   1.319   2.817 -0.1238 -0.1666 -0.5930
  510SOL    HW1 1529   2.376   1.366   2.727  0.4643 -0.1169  0.6656
  510SOL    HW2 1530   2.369   1.219   2.804 -2.4927 -1.7229 -2.4944
  511SOL     OW 1531   0.443   1.286   1.472  0.2570 -0.3643  0.0390
  511SOL    HW1 1532   0.545   1.300   1.453  2.0462 -1.9819 -3.1450
  511SOL    HW2 1533   0.427   1.266   1.574 -1.6215  0.8897 -0.1434
  512SOL     OW 1534   2.691   1.738   0.228 -0.3686 -0.1658  0.1251
  512SOL    HW1 1535   2.689   1.828   0.284 -0.2832  2.6846  4.6767
  512SOL    HW2 1536   2.783   1.725   0.187  0.0378 -2.1918 -0.4092
  513SOL     OW 1537   0.661   1.841   2.205  0.2961 -0.4545 -0.0780
  513SOL    HW1 1538   0.731   1.850   2.281  0.8713 -0.4913 -0.0837
  513SOL    HW2 1539   0.609   1.755   2.215 -2.2724 -0.4356 -1.6450
  514SOL     OW 1540   0.189   2.219   2.006  0.5302  0.2837 -0.9949
  514SOL    HW1 1541   0.204   2.118   2.017  0.4199  1.1124  1.6862
  514SOL    HW2 1542   0.091   2.243   1.986  2.0122  1.5434  1.0802
  515SOL     OW 1543   1.941   1.233   1.738  0.4526 -0.1606  0.0263
  515SOL    HW1 1544   1.997   1.160   1.778 -1.2707  2.9418  0.1043
  515SOL    HW2 1545   1.844   1.219   1.753  0.4403  0.6018 -1.1505
  516SOL     OW 1546   2.374   2.862   0.530  0.0858 -0.1079 -0.1909
  516SOL    HW1 1547   2.367   2.883   0.429  0.5521 -0.6025 -0.0736
  516SOL    HW2 1548   2.458   2.802   0.548 -1.0519  2.3691 -0.0100
  517SOL     OW 1549   0.865   1.566   0.151  0.1581  0.1256 -0.1172
  517SOL    HW1 1550   0.948   1.540   0.101 -5.3996 -0.8294  0.3542
  517SOL    HW2 1551   0.859   1.502   0.232  0.8607 -2.3312 -1.6429
  518SOL     OW 1552   1.916   2.688   1.487 -0.5653  0.1652 -0.5514
  518SOL    HW1 1553   1.822   2.684   1.442 -0.0185 -0.7738 -0.2913
  518SOL    HW2 1554   1.963   2.596   1.477  2.0622 -2.5091 -0.6421
  519SOL     OW 1555   1.980   2.528   1.163  0.5014  0.1001 -0.1517
  519SOL    HW1 1556   1.939   2.619   1.190 -1.7445 -2.3807 -0.9877
  519SOL    HW2 1557   2.073   2.539   1.129 -0.2817  0.6287  0.2524
  520SOL     OW 1558   3.023   2.159   2.205 -0.1887 -0.0250  0.2850
  520SOL    HW1 1559   2.952   2.089   2.224  0.0963  1.2006 -0.0698
  520SOL    HW2 1560   2.976   2.237   2.161 -0.7466 -2.5370 -0.9244
  521SOL     OW 1561   2.726   0.818   2.601 -0.1103  0.1255  0.6629
  521SOL    HW1 1562   2.663   0.795   2.681  2.0973 -2.0408 -1.6505
  521SOL    HW2 1563   2.704   0.743   2.535  1.0177  1.8538 -0.5610
  522SOL     OW 1564   0.860   0.725   2.615  0.3472  0.6316  0.1792
  522SOL    HW1 1565   0.954   0.766   2.602 -0.9138  0.1125  1.2929
  522SOL    HW2 1566   0.855   0.639   2.565  2.5352  0.5975  0.0632
  523SOL     OW 1567   0.129   2.104   0.863  0.1529  0.5627  0.2729
  523SOL    HW1 1568   0.203   2.044   0.899  2.0259  1.2766  1.5549
  523SOL    HW2 1569   0.164   2.172   0.797 -0.8876 -1.1293 -1.7850
  524SOL     OW 1570   1.985   2.822   3.023 -0.1206 -0.0928  0.5994
  524SOL    HW1 1571   2.008   2.769   2.940  0.4173 -3.8657 -0.8709
  524SOL    HW2 1572   2.056   2.832   0.001 -0.1599 -1.8612  1.0799
  525SOL     OW 1573   2.226   0.540   1.421 -1.0809 -0.3901 -0.0853
  525SOL    HW1 1574   2.324   0.564   1.391 -0.5863  2.7186  0.1717
  525SOL    HW2 1575   2.192   0.461   1.373  0.7897 -2.1237  1.7019
  526SOL     OW 1576   0.912   2.493   0.523 -0.5096  0.1337  0.2321
  526SOL    HW1 1577   0.875   2.510   0.614  2.1129 -0.7200  0.6306
  526SOL    HW2 1578   0.839   2.474   0.451 -2.0253 -0.7781 -0.7113
  527SOL     OW 1579   2.116   2.876   0.608  0.1996 -0.4270  0.3763
  527SOL    HW1 1580   2.070   2.790   0.600  0.7168  1.7387  0.7162
  527SOL    HW2 1581   2.217   2.867   0.597  2.8745 -1.8811  0.1393
  528SOL     OW 1582   1.616   0.778   0.030  0.1244  0.1915 -0.8612
  528SOL    HW1 1583   1.690   0.791   0.094 -1.1429 -2.6457 -2.2999
  528SOL    HW2 1584   1.541   0.717   0.063 -0.0137 -1.1954 -0.8802
  529SOL     OW 1585   1.277   1.601   2.341 -0.3915  0.0218 -0.1120
  529SOL    HW1 1586   1.333   1.688   2.347  0.9839  1.6828 -0.5173
  529SOL    HW2 1587   1.211   1.597   2.419 -0.6588 -0.7013 -0.6305
  530SOL     OW 1588   2.268   3.007   0.265 -0.1595 -0.1926 -0.6878
  530SOL    HW1 1589   2.177   2.986   0.313  0.4278 -2.3300 -0.6711
  530SOL    HW2 1590   2.274   2.951   0.177  0.9090  0.1818 -0.9125
  531SOL     OW 1591   1.809   0.967   2.963  0.5081 -0.1218 -0.3184
  531SOL    HW1 1592   1.734   0.992   3.024  2.7667  2.3912 -0.2407
  531SOL    HW2 1593   1.827   0.864   2.980 -0.7641 -1.8575  0.0028
  532SOL     OW 1594   1.663   0.378   0.670  0.5016 -0.1981 -0.2428
  532SOL    HW1 1595   1.592   0.393   0.741  1.4031 -0.6069 -0.2154
  532SOL    HW2 1596   1.712   0.467   0.658 -0.1017 -1.7552 -0.6826
  533SOL     OW 1597   0.448   0.766   2.763  0.8486 -0.1158  0.3966
  533SOL    HW1 1598   0.483   0.809   2.678  0.9689  0.9529  0.9762
  533SOL    HW2 1599   0.365   0.814   2.800  0.4324 -1.8848  0.0888
  534SOL     OW 1600   1.414   0.142   0.100 -0.1052  0.3438  0.0656
  534SOL    HW1 1601   1.404   0.149   0.197  0.9976  3.1825 -2.2600
  534SOL    HW2 1602   1.460   0.061   0.065 -0.8484  0.6232 -1.3623
  535SOL     OW 1603   0.657   2.470   2.875 -0.0563 -0.1167 -0.3308
  535SOL    HW1 1604   0.571   2.496   2.925  1.4604 -0.9548  0.5393
  535SOL    HW2 1605   0.687   2.377   2.898  0.4807 -0.9146 -0.5130
  536SOL     OW 1606   0.492   3.043   0.302 -0.7358  0.1454 -0.0353
  536SOL    HW1 1607   0.576   0.008   0.289 -0.2409  0.0556  1.5401
  536SOL    HW2 1608   0.502   2.971   0.368 -0.4742 -2.0851 -0.1489
  537SOL     OW 1609   1.661   0.363   0.155 -0.3959 -0.0947  0.1141
  537SOL    HW1 1610   1.595   0.358   0.077 -1.0560  0.8877 -1.6800
  537SOL    HW2 1611   1.620   0.407   0.227  0.3278 -0.5988  0.0376
  538SOL     OW 1612   2.774   2.134   3.018 -0.5180  0.1419  0.4008
  538SOL    HW1 1613   2.843   2.072   3.062 -1.8558 -1.9009  1.4202
  538SOL    HW2 1614   2.701   2.079   2.972  1.6624 -1.9467 -2.3057
  539SOL     OW 1615   2.512   1.883   0.052 -0.1783 -0.0457  1.0844
  539SOL    HW1 1616   2.416   1.852   0.045  0.4014  1.8925  0.3220
  539SOL    HW2 1617   2.567   1.817   0.102 -0.8032  0.6045 -2.6634
  540SOL     OW 1618   0.973   2.980   1.933  0.5753  0.1141  0.6088
  540SOL    HW1 1619   1.043   2.965   2.005 -2.2114  0.9512 -1.0275
  540SOL    HW2 1620   0.981   2.921   1.850  1.9199 -0.4908  1.2364
  541SOL     OW 1621   2.609   3.059   2.291  0.5716 -0.5335  0.7849
  541SOL    HW1 1622   2.590   0.054   2.240 -0.8371  0.3790 -2.3201
  541SOL    HW2 1623   2.537   2.988   2.269 -1.9938  0.3484 -0.6468
  542SOL     OW 1624   0.197   0.865   2.853  0.8554 -0.4870  0.0831
  542SOL    HW1 1625   0.150   0.955   2.872 -0.5642 -0.0939  1.6449
  542SOL    HW2 1626   0.125   0.796   2.844  1.8219  1.0579  0.5231
  543SOL     OW 1627   0.296   0.933   0.838 -0.2820 -0.3580  0.7186
  543SOL    HW1 1628   0.293   0.923   0.939  1.3927 -0.9630  0.2763
  543SOL    HW2 1629   0.264   0.847   0.788 -1.6140 -0.5240 -3.0274
  544SOL     OW 1630   2.476   0.621   1.384 -0.0778 -0.1813  0.5817
  544SOL    HW1 1631   2.524   0.549   1.330  0.0648 -0.4527 -1.8292
  544SOL    HW2 1632   2.543   0.692   1.421  2.1349  1.2626  0.7316
  545SOL     OW 1633   1.513   1.939   0.536 -0.0629 -0.2071  0.4176
  545SOL    HW1 1634   1.561   1.975   0.620  3.3765  1.8254 -0.7964
  545SOL    HW2 1635   1.412   1.961   0.543 -2.5265  1.7004 -0.3365
  546SOL     OW 1636   2.204   2.686   1.360 -0.0644 -0.3859  0.2689
  546SOL    HW1 1637   2.156   2.601   1.392  0.1104 -1.1722  0.8938
  546SOL    HW2 1638   2.222   2.682   1.262 -1.1676 -1.0973 -0.5464
  547SOL     OW 1639   0.721   2.276   2.253 -0.0574  0.1422  0.4054
  547SOL    HW1 1640   0.655   2.200   2.226  0.9714  1.3554  0.7829
  547SOL    HW2 1641   0.800   2.279   2.189  1.7413  2.2911  0.0505
  548SOL     OW 1642   1.244   0.763   2.983 -0.1316 -0.5052 -0.4667
  548SOL    HW1 1643   1.286   0.713   3.058  0.4830  2.6890  0.3043
  548SOL    HW2 1644   1.162   0.725   2.941  3.3897 -0.2372  0.6460
  549SOL     OW 1645   2.663   0.706   0.188 -0.5135  0.5835 -0.2030
  549SOL    HW1 1646   2.610   0.650   0.252  0.2897  1.6554  0.5225
  549SOL    HW2 1647   2.658   0.803   0.219 -0.8656  2.2976 -1.1295
  550SOL     OW 1648   2.229   1.393   0.470  0.4493  0.2536  0.1878
  550SOL    HW1 1649   2.260   1.451   0.395  2.3669 -1.6467 -2.2443
  550SOL    HW2 1650   2.126   1.376   0.458 -1.6848  0.0689 -1.8829
  551SOL     OW 1651   1.231   0.360   0.891  0.6970  0.1011 -0.6642
  551SOL    HW1 1652   1.178   0.426   0.949 -0.2533 -0.6773  0.6152
  551SOL    HW2 1653   1.194   0.352   0.797 -1.9983  3.6079 -0.7701
  552SOL     OW 1654   2.297   2.955   2.193  0.1177  0.1896  0.3465
  552SOL    HW1 1655   2.231   2.892   2.238 -1.7119 -1.1320  0.7507
  552SOL    HW2 1656   2.312   3.035   2.249 -3.0068  0.0616  0.1917
  553SOL     OW 1657   0.594   2.960   2.223  0.5605  0.4604  0.3349
  553SOL    HW1 1658   0.634   2.868   2.228 -2.7362  0.3625  0.8536
  553SOL    HW2 1659   0.495   2.952   2.214  5.1098  1.6046 -0.4351
  554SOL     OW 1660   0.514   0.048   1.392  0.0409  0.3292 -0.1674
  554SOL    HW1 1661   0.531   0.144   1.359  2.0114  1.2488 -0.8342
  554SOL    HW2 1662   0.501   0.036   1.489  3.6873 -0.2073 -2.2920
  555SOL     OW 1663   2.548   2.017   2.267 -0.0677 -0.2692  0.4135
  555SOL    HW1 1664   2.519   2.079   2.193 -0.0348 -0.2265 -1.7103
  555SOL    HW2 1665   2.475   1.968   2.313  1.5140  1.4959 -0.5762
  556SOL     OW 1666   1.004   0.443   3.060 -0.1086  0.0456 -0.0796
  556SOL    HW1 1667   1.001   0.512   2.990  1.7445 -2.1783  0.4792
  556SOL    HW2 1668   0.934   0.370   3.052  0.1628  0.2429 -0.0217
  557SOL     OW 1669   0.450   1.933   2.539 -0.0688 -0.0079 -0.7599
  557SOL    HW1 1670   0.537   1.986   2.530 -1.7456 -0.5678  1.9851
  557SOL    HW2 1671   0.392   1.956   2.460 -1.5608 -0.0869 -1.2987
  558SOL     OW 1672   2.128   0.574   2.923 -0.4726  0.7907  0.8470
  558SOL    HW1 1673   2.190   0.565   2.841 -1.5749  2.6409 -1.2337
  558SOL    HW2 1674   2.121   0.487   2.977 -0.8946  1.5767  2.6146
  559SOL     OW 1675   2.155   1.933   1.755 -0.4048 -0.4498  0.8012
  559SOL    HW1 1676   2.168   1.830   1.754 -1.3330 -1.0603  0.4819
  559SOL    HW2 1677   2.055   1.954   1.761  2.2414  0.2804 -0.2693
  560SOL     OW 1678   2.117   0.777   2.090 -0.1571  0.2108  0.0724
  560SOL    HW1 1679   2.150   0.682   2.056 -0.5742 -2.8123 -3.7699
  560SOL    HW2 1680   2.182   0.844   2.054  2.4028  0.7195 -0.2926
  561SOL     OW 1681   0.125   0.275   2.846  0.0789  0.4920 -0.0349
  561SOL    HW1 1682   0.077   0.339   2.781 -0.0069  0.1648 -0.0226
  561SOL    HW2 1683   0.117   0.298   2.943  1.0930 -2.9942 -0.5096
  562SOL     OW 1684   0.989   1.216   1.323 -0.1771  0.3906  0.1570
  562SOL    HW1 1685   1.068   1.286   1.335  0.4036  0.6638  3.7035
  562SOL    HW2 1686   0.940   1.206   1.413 -1.2554 -0.0049 -0.0986
  563SOL     OW 1687   1.238   0.208   2.879 -0.2590  0.0556  1.0991
  563SOL    HW1 1688   1.205   0.118   2.918 -1.2273 -0.6244  3.2567
  563SOL    HW2 1689   1.313   0.204   2.813 -0.9552  0.5764  0.0429
  564SOL     OW 1690   2.956   2.144   0.919  0.5530  0.3504  0.3797
  564SOL    HW1 1691   3.056   2.124   0.899 -0.1981  0.2865 -1.2341
  564SOL    HW2 1692   2.946   2.243   0.949  0.2759  1.2306  0.2448
  565SOL     OW 1693   0.453   2.014   1.240 -0.2370  0.6203  0.0887
  565SOL    HW1 1694   0.386   1.971   1.304 -0.9728  0.7760  0.2142
  565SOL    HW2 1695   0.433   2.113   1.238  1.3372 -1.6641  1.6160
  566SOL     OW 1696   1.550   2.742   2.348 -0.2575  0.3086 -0.6084
  566SOL    HW1 1697   1.511   2.808   2.286  0.1243  0.1429 -0.1371
  566SOL    HW2 1698   1.482   2.682   2.396 -0.1557  0.2319 -0.6797
  567SOL     OW 1699   2.395   2.875   0.811 -0.1234 -0.1005 -0.5628
  567SOL    HW1 1700   2.344   2.941   0.875 -2.2371  1.0728  1.1585
  567SOL    HW2 1701   2.380   2.884   0.712  0.8991 -2.8270 -0.9532
  568SOL     OW 1702   1.684   1.257   0.840 -0.2590 -0.3724  0.1271
  568SOL    HW1 1703   1.592   1.249   0.800 -1.8474 -0.5697  2.0007
  568SOL    HW2 1704   1.717   1.348   0.813  0.8711  1.1774 -1.5769
  569SOL     OW 1705   2.711   1.502   2.732  0.5250  0.3023 -0.3566
  569SOL    HW1 1706   2.651   1.578   2.771 -1.3827  3.1039  0.9008
  569SOL    HW2 1707   2.703   1.423   2.792  2.0095  0.0187 -2.5656
  570SOL     OW 1708   2.984   0.119   1.730  0.1039 -0.1830 -0.2673
  570SOL    HW1 1709   3.021   0.190   1.667 -0.0616  0.0573  2.2170
  570SOL    HW2 1710   2.958   0.038   1.683  0.0808  0.6944  3.4445
  571SOL     OW 1711   0.286   0.098   1.811 -0.4717  0.4487 -0.1447
  571SOL    HW1 1712   0.309   0.198   1.829 -0.8495  0.0569 -2.1591
  571SOL    HW2 1713   0.350   0.061   1.738  1.5952  1.3255 -0.2545
  572SOL     OW 1714   2.783   2.472   1.293 -0.1203 -0.1695 -0.5237
  572SOL    HW1 1715   2.870   2.459   1.246  1.2554  1.1493 -0.3647
  572SOL    HW2 1716   2.797   2.509   1.390 -0.3723  2.5900 -0.4296
  573SOL     OW 1717   1.005   0.625   0.195 -0.3343 -0.2858  0.0031
  573SOL    HW1 1718   0.957   0.700   0.146 -0.2716 -0.7610 -3.2061
  573SOL    HW2 1719   1.019   0.546   0.131 -1.0646  0.4981  1.3131
  574SOL     OW 1720   2.390   2.923   2.787  0.0020 -0.6858  0.2338
  574SOL    HW1 1721   2.492   2.918   2.777  2.3503 -1.0118 -0.5400
  574SOL    HW2 1722   2.351   2.976   2.708 -0.2044 -0.2974 -1.8417
  575SOL     OW 1723   1.264   2.752   1.182 -0.0280 -0.2716  0.1319
  575SOL    HW1 1724   1.301   2.719   1.272 -0.3667  0.7688 -0.6316
  575SOL    HW2 1725   1.344   2.768   1.117  2.0808 -0.3178 -1.8505
  576SOL     OW 1726   0.995   3.091   0.928 -0.2842  0.4122  0.2365
  576SOL    HW1 1727   1.088   0.035   0.920 -1.0152 -0.0167  1.5013
  576SOL    HW2 1728   0.952   0.045   1.001  3.4104 -1.1335 -1.7621
  577SOL     OW 1729   2.427   1.225   0.849  0.6044 -0.6278 -0.1970
  577SOL    HW1 1730   2.498   1.217   0.773  0.4230 -1.1949 -0.8440
  577SOL    HW2 1731   2.351   1.158   0.832  0.1781 -0.1339 -1.6802
  578SOL     OW 1732   1.794   0.625   0.694  0.0908  0.5513 -0.1902
  578SOL    HW1 1733   1.884   0.651   0.656  0.5254 -1.2874  0.9296
  578SOL    HW2 1734   1.796   0.635   0.797  2.0242  0.6177  0.0613
  579SOL     OW 1735   1.883   0.681   2.952  0.2832 -0.0261  0.2341
  579SOL    HW1 1736   1.974   0.636   2.931 -0.2960  1.4841 -0.1479
  579SOL    HW2 1737   1.847   0.642   3.037  2.3507  2.2318 -2.5944
  580SOL     OW 1738   1.640   0.822   2.161 -0.1564 -0.1736 -0.1507
  580SOL    HW1 1739   1.586   0.806   2.245 -0.8486 -1.7052  0.1033
  580SOL    HW2 1740   1.576   0.851   2.087  0.7687 -1.0330  1.0891
  581SOL     OW 1741   0.297   0.688   0.665 -0.6008  0.0942 -0.2971
  581SOL    HW1 1742   0.398   0.704   0.687  3.5675 -1.4111 -0.0583
  581SOL    HW2 1743   0.287   0.661   0.569 -0.3913 -1.2458  0.7550
  582SOL     OW 1744   2.794   0.168   1.910  0.1270 -0.6013  0.2020
  582SOL    HW1 1745   2.864   0.166   1.843 -4.5787  2.8685 -1.1256
  582SOL    HW2 1746   2.791   0.263   1.953  1.6968  4.1617  2.0791
  583SOL     OW 1747   0.311   0.746   2.432  0.0401 -0.2378 -0.1279
  583SOL    HW1 1748   0.408   0.779   2.446  3.7950 -2.3902 -1.4751
  583SOL    HW2 1749   0.311   0.642   2.424 -1.4492 -1.0667 -0.8853
  584SOL     OW 1750   1.798   2.105   2.940  0.0900 -0.2846 -0.2932
  584SOL    HW1 1751   1.888   2.124   2.895  1.0315 -0.4812  0.3321
  584SOL    HW2 1752   1.753   2.192   2.969  0.0962  1.2427  1.2652
  585SOL     OW 1753   0.469   2.233   2.932 -0.8294  0.2731 -0.2689
  585SOL    HW1 1754   0.393   2.170   2.924  0.2126 -0.3013  1.1622
  585SOL    HW2 1755   0.473   2.265   3.030  0.7933 -1.5663 -0.5993
  586SOL     OW 1756   2.252   1.997   2.649 -0.3873  0.0550  0.3366
  586SOL    HW1 1757   2.252   1.954   2.740 -3.7907 -0.2656 -3.3604
  586SOL    HW2 1758   2.168   2.052   2.636  0.6038  0.9324 -0.1932
  587SOL     OW 1759   2.571   1.991   2.904  0.5085  0.2821 -0.1104
  587SOL    HW1 1760   2.536   1.973   2.995  1.7977  0.0815 -0.1570
  587SOL    HW2 1761   2.601   1.907   2.855  0.8998  1.7152 -0.7645
  588SOL     OW 1762   3.092   0.423   0.958  0.3295 -0.1717  0.1327
  588SOL    HW1 1763   3.023   0.393   0.894  2.2990 -1.5378 -1.7486
  588SOL    HW2 1764   0.089   0.438   0.914 -0.2193 -1.2234  0.0713
  589SOL     OW 1765   1.003   0.262   0.273 -0.1545 -0.1847  0.2632
  589SOL    HW1 1766   1.074   0.327   0.297  0.4177 -2.2708 -1.1422
  589SOL    HW2 1767   0.911   0.301   0.296  1.0791 -1.8396 -0.6338
  590SOL     OW 1768   2.190   2.415   0.336 -0.0854 -0.5211  0.1937
  590SOL    HW1 1769   2.147   2.490   0.293 -0.5537 -0.1329  1.1133
  590SOL    HW2 1770   2.262   2.386   0.266  3.0340  0.0884 -3.1803
  591SOL     OW 1771   0.298   2.234   1.263 -0.0723 -0.0428  0.3036
  591SOL    HW1 1772   0.199   2.237   1.255  0.7927  0.4137  0.6332
  591SOL    HW2 1773   0.344   2.304   1.205 -3.6103 -0.6507 -0.4124
  592SOL     OW 1774   1.547   0.890   1.333  0.2030  0.0945  0.3072
  592SOL    HW1 1775   1.596   0.927   1.410 -1.2814 -0.0552 -1.9582
  592SOL    HW2 1776   1.461   0.944   1.316  0.5388 -1.0542 -2.1085
  593SOL     OW 1777   0.903   2.158   1.444  0.1586  0.1865 -0.3360
  593SOL    HW1 1778   0.891   2.071   1.391 -0.9809 -2.0517 -2.3989
  593SOL    HW2 1779   0.811   2.184   1.483 -1.8473 -1.4148  0.1023
  594SOL     OW 1780   1.134   1.828   0.191  0.1010 -0.8166 -0.2695
  594SOL    HW1 1781   1.138   1.801   0.090  0.8684 -1.5122 -0.0647
  594SOL    HW2 1782   1.047   1.803   0.235  2.1430 -2.5200  0.7063
  595SOL     OW 1783   1.678   0.767   1.606 -0.5372 -0.0789 -0.3326
  595SOL    HW1 1784   1.676   0.698   1.532 -0.0186  2.2429 -0.1811
  595SOL    HW2 1785   1.773   0.801   1.620  2.7628 -2.8930  0.4880
  596SOL     OW 1786   2.992   0.703   1.749  0.1785 -0.2829  0.2475
  596SOL    HW1 1787   2.966   0.775   1.818 -0.1601 -1.4246  2.4320
  596SOL    HW2 1788   3.010   0.750   1.658 -1.4531  2.5689  0.6465
  597SOL     OW 1789   1.100   2.640   2.043  0.0136 -0.1888  0.1510
  597SOL    HW1 1790   1.008   2.615   1.997  0.6573 -2.2341 -1.4450
  597SOL    HW2 1791   1.096   2.640   2.146 -0.1877  0.0541  3.4634
  598SOL     OW 1792   2.332   1.389   1.695 -0.0806  0.4456 -0.1635
  598SOL    HW1 1793   2.265   1.332   1.638 -3.1779  0.1210  2.1399
  598SOL    HW2 1794   2.339   1.482   1.650  0.0198 -0.9087 -0.9875
  599SOL     OW 1795   0.812   2.976   0.121  0.3947  0.2362  0.2706
  599SOL    HW1 1796   0.750   3.057   0.121 -0.1907  0.1356 -2.1274
  599SOL    HW2 1797   0.874   2.976   0.043 -0.2656 -1.4389  0.6655
  600SOL     OW 1798   0.200   2.474   3.092  0.0775  0.2428  0.0056
  600SOL    HW1 1799   0.234   2.544   0.062  0.7155 -1.9722  0.5053
  600SOL    HW2 1800   0.103   2.446   0.024  0.7777 -1.1755 -0.5774
  601SOL     OW 1801   0.498   0.816   1.468  0.0698  0.0274  0.0071
  601SOL    HW1 1802   0.396   0.835   1.470 -1.5151  1.0419  1.1366
  601SOL    HW2 1803   0.529   0.765   1.551  0.7586  0.2017 -0.5725
  602SOL     OW 1804   0.559   0.050   0.887  0.2068 -0.3342  0.8585
  602SOL    HW1 1805   0.603   0.054   0.976  0.6449 -2.1594 -3.2055
  602SOL    HW2 1806   0.595   3.069   0.829  1.4107  0.8950 -0.7728
  603SOL     OW 1807   0.340   0.319   2.677 -0.3140 -0.9561  0.5269
  603SOL    HW1 1808   0.297   0.317   2.768 -1.4804 -1.7657  0.6022
  603SOL    HW2 1809   0.416   0.389   2.672  3.3337 -0.4462  0.5038
  604SOL     OW 1810   1.109   2.538   1.649  0.4105 -0.4231 -0.2171
  604SOL    HW1 1811   1.196   2.499   1.681  1.2288  2.4165 -2.6453
  604SOL    HW2 1812   1.072   2.492   1.567 -2.8218 -0.6605  1.8164
  605SOL     OW 1813   1.429   1.241   1.951 -0.4078  0.2338  0.0135
  605SOL    HW1 1814   1.407   1.340   1.937 -0.1694 -1.4920 -0.8463
  605SOL    HW2 1815   1.342   1.187   1.933  1.2558  0.8791 -3.8783
  606SOL     OW 1816   1.980   2.980   2.796  1.1955  0.4211  0.2384
  606SOL    HW1 1817   1.887   2.964   2.841 -2.2311 -3.0198 -0.2836
  606SOL    HW2 1818   2.040   3.029   2.860 -0.2091 -0.2788 -1.5057
  607SOL     OW 1819   0.998   0.472   1.622 -0.0017 -0.2762  0.0864
  607SOL    HW1 1820   1.058   0.472   1.704 -1.4794 -0.4858  0.3167
  607SOL    HW2 1821   0.989   0.382   1.574  1.5825 -1.1591 -1.4507
  608SOL     OW 1822   0.368   2.192   2.395  0.4126  0.0412 -0.4074
  608SOL    HW1 1823   0.442   2.154   2.331  1.2115  1.7371 -0.4187
  608SOL    HW2 1824   0.400   2.206   2.487 -0.9305 -1.5718 -0.5206
  609SOL     OW 1825   1.115   1.353   0.257  0.5230 -0.5029 -0.1194
  609SOL    HW1 1826   1.094   1.255   0.231  0.1682 -0.0039 -1.4248
  609SOL    HW2 1827   1.138   1.415   0.179 -1.1167  0.4978  1.4372
  610SOL     OW 1828   0.440   0.300   0.911  0.2943  0.5103  0.0794
  610SOL    HW1 1829   0.494   0.214   0.910 -0.0654  1.2333  1.9688
  610SOL    HW2 1830   0.399   0.305   1.005 -1.5398  0.7274  2.6757
  611SOL     OW 1831   1.293   1.319   0.492 -0.5405 -0.3062  0.2138
  611SOL    HW1 1832   1.249   1.365   0.410 -0.5408  0.1736  1.2451
  611SOL    HW2 1833   1.336   1.232   0.456 -1.3253 -0.3700 -0.8205
  612SOL     OW 1834   1.978   1.659   0.010 -0.0363 -0.0793  0.0813
  612SOL    HW1 1835   1.946   1.694   0.099 -1.9425  1.0426  0.1007
  612SOL    HW2 1836   1.966   1.556   0.007 -2.9768  1.0490 -0.3291
  613SOL     OW 1837   1.691   1.530   0.120  0.0677 -0.0012 -0.2494
  613SOL    HW1 1838   1.770   1.481   0.072 -2.2138 -0.7458 -0.6851
  613SOL    HW2 1839   1.605   1.478   0.121  2.5938 -0.5599 -0.3189
  614SOL     OW 1840   2.718   0.280   2.485 -0.1978 -0.3749 -0.2292
  614SOL    HW1 1841   2.754   0.340   2.413 -0.6450 -0.7509  2.9658
  614SOL    HW2 1842   2.744   0.183   2.473 -0.5531  3.1087  0.0344
  615SOL     OW 1843   0.881   1.624   0.582 -0.1978  0.2311 -0.3023
  615SOL    HW1 1844   0.946   1.631   0.660 -1.0662  1.0418 -1.4524
  615SOL    HW2 1845   0.886   1.707   0.520  1.0899  0.3925  3.4062
  616SOL     OW 1846   1.531   0.864   2.624 -0.3137  0.0837  0.0557
  616SOL    HW1 1847   1.576   0.947   2.657 -2.9788 -2.7749 -1.6491
  616SOL    HW2 1848   1.527   0.787   2.691 -0.0928 -2.8654  3.2158
  617SOL     OW 1849   1.368   0.200   0.358 -0.0753 -0.3876 -0.0269
  617SOL    HW1 1850   1.403   0.293   0.370  1.0190 -3.7966  0.9085
  617SOL    HW2 1851   1.289   0.183   0.416  1.4966  1.0541  1.1634
  618SOL     OW 1852   2.810   1.932   2.271  0.2421 -0.6200  0.0991
  618SOL    HW1 1853   2.715   1.967   2.288  0.7308  0.4742  0.0077
  618SOL    HW2 1854   2.857   1.932   2.358  1.2335 -0.3794  1.4455
  619SOL     OW 1855   2.352   1.708   0.644  0.1636 -0.2099 -0.2797
  619SOL    HW1 1856   2.278   1.720   0.714 -1.4291  2.1651  1.7892
  619SOL    HW2 1857   2.381   1.802   0.608 -0.2955  0.9329  0.0236
  620SOL     OW 1858   2.333   2.973   1.521  0.5291  0.1443 -0.4818
  620SOL    HW1 1859   2.310   2.885   1.470 -0.2802 -2.6605 -1.0017
  620SOL    HW2 1860   2.420   3.016   1.496  0.8919  0.0848  1.5525
  621SOL     OW 1861   2.909   2.038   0.641 -0.1273 -0.8364 -0.4677
  621SOL    HW1 1862   2.949   1.945   0.658  1.8693 -1.5698 -1.7810
  621SOL    HW2 1863   2.909   2.094   0.726 -0.0659  0.7118  1.3835
  622SOL     OW 1864   0.469   1.641   2.273  0.3537 -0.0293  0.7816
  622SOL    HW1 1865   0.401   1.665   2.346  1.7479  2.8458  0.8799
  622SOL    HW2 1866   0.555   1.617   2.317 -2.1050  0.7777  1.2961
  623SOL     OW 1867   2.787   2.736   2.784 -0.1466  0.3088 -0.2195
  623SOL    HW1 1868   2.773   2.646   2.735  0.8847 -0.3338  0.3756
  623SOL    HW2 1869   2.850   2.729   2.864  0.4602  3.1036 -0.9377
  624SOL     OW 1870   0.872   1.778   0.313  0.3749 -0.2922 -0.1565
  624SOL    HW1 1871   0.878   1.698   0.254 -0.5288  0.9101 -2.0190
  624SOL    HW2 1872   0.809   1.842   0.257 -1.9773 -2.2450 -2.7130
  625SOL     OW 1873   0.554   2.089   2.182  0.5140 -0.4602  0.1159
  625SOL    HW1 1874   0.600   2.004   2.197 -3.5125  2.0079  0.2622
  625SOL    HW2 1875   0.491   2.079   2.100 -2.9863  0.1044 -0.8890
  626SOL     OW 1876   0.136   2.570   0.425 -0.5065 -0.3800 -0.3385
  626SOL    HW1 1877   0.189   2.598   0.505 -3.2941 -2.4393 -1.0885
  626SOL    HW2 1878   0.148   2.470   0.408 -0.5731 -0.7845 -1.0767
  627SOL     OW 1879   0.941   1.550   2.918 -0.2194  0.1450  0.1700
  627SOL    HW1 1880   0.894   1.498   2.992  1.9287  2.2713  0.1579
  627SOL    HW2 1881   0.905   1.644   2.907  0.3964  2.7257  1.4030
  628SOL     OW 1882   1.586   2.092   0.742  0.5766 -0.0053  0.6139
  628SOL    HW1 1883   1.515   2.160   0.773 -0.7456  0.1715  0.2736
  628SOL    HW2 1884   1.662   2.091   0.807  0.4487 -0.5595 -2.4545
  629SOL     OW 1885   0.769   0.501   1.755 -0.0953  0.3931  0.2995
  629SOL    HW1 1886   0.750   0.419   1.808 -1.2994  2.2378  0.3127
  629SOL    HW2 1887   0.856   0.500   1.710 -4.2268 -2.1459  0.6822
  630SOL     OW 1888   2.465   0.344   1.854 -0.1899  0.7559 -0.6514
  630SOL    HW1 1889   2.471   0.274   1.785 -0.8266 -1.2548  0.7058
  630SOL    HW2 1890   2.425   0.430   1.823  0.2226  1.9648  1.3218
  631SOL     OW 1891   1.481   0.457   0.865  0.0462  0.6877 -0.4816
  631SOL    HW1 1892   1.477   0.547   0.814 -1.0499  1.1343 -1.3855
  631SOL    HW2 1893   1.386   0.418   0.864  0.2274 -1.8317  1.5634
  632SOL     OW 1894   2.644   0.853   1.933 -0.8395 -0.1659 -0.2069
  632SOL    HW1 1895   2.598   0.818   2.019 -2.3862 -1.3084  2.4490
  632SOL    HW2 1896   2.646   0.787   1.856 -0.8633  2.0104 -1.4512
  633SOL     OW 1897   1.169   1.187   2.789  0.5157 -0.1465  0.6770
  633SOL    HW1 1898   1.152   1.282   2.750 -1.3119  0.7101  1.0027
  633SOL    HW2 1899   1.195   1.119   2.718  1.0500 -1.4825 -0.8164
  634SOL     OW 1900   0.534   2.299   0.104  0.2397 -0.1093 -0.5613
  634SOL    HW1 1901   0.541   2.383   0.163 -2.2530  0.5762  0.2724
  634SOL    HW2 1902   0.577   2.222   0.152  0.0915  2.4751  1.1276
  635SOL     OW 1903   2.695   1.572   1.891 -0.1449 -0.3708  0.0784
  635SOL    HW1 1904   2.702   1.674   1.891  3.2373  0.0215  0.4142
  635SOL    HW2 1905   2.656   1.534   1.979  0.8285 -3.2130 -0.3039
  636SOL     OW 1906   0.289   1.893   0.035  0.2618 -0.1737 -0.2172
  636SOL    HW1 1907   0.290   1.860   0.129  0.4705  0.3849 -0.4629
  636SOL    HW2 1908   0.221   1.969   0.019  3.3548 -0.7833  0.0878
  637SOL     OW 1909   0.147   2.297   0.427  0.3372 -0.2665  0.1104
  637SOL    HW1 1910   0.184   2.267   0.334  2.7298 -1.0366 -1.1724
  637SOL    HW2 1911   0.050   2.259   0.439 -2.8238  1.6618 -2.1985
  638SOL     OW 1912   2.614   2.739   0.548  0.4777  0.2480 -0.3175
  638SOL    HW1 1913   2.634   2.705   0.641 -1.1510 -0.6637  1.5699
  638SOL    HW2 1914   2.600   2.669   0.473  1.1063 -0.5513 -2.6041
  639SOL     OW 1915   1.202   0.427   0.339  0.1134  0.2715 -0.1600
  639SOL    HW1 1916   1.191   0.523   0.357  3.1577  0.7261 -1.2901
  639SOL    HW2 1917   1.261   0.412   0.258  1.8216  1.9402 -1.9750
  640SOL     OW 1918   2.254   2.256   1.639  0.1009 -0.4086 -0.5064
  640SOL    HW1 1919   2.303   2.186   1.693 -1.2821  0.6107 -0.9434
  640SOL    HW2 1920   2.319   2.318   1.587 -1.4595 -1.8300 -0.4988
  641SOL     OW 1921   2.722   3.033   1.145  0.2794  0.4196 -0.1159
  641SOL    HW1 1922   2.799   3.057   1.081  0.2408  0.8723  1.0709
  641SOL    HW2 1923   2.690   2.937   1.134  0.0363 -1.7989  0.7129
  642SOL     OW 1924   1.494   0.942   1.657  0.6318  0.5930  0.2904
  642SOL    HW1 1925   1.549   0.861   1.627 -1.2344 -1.7708 -1.7513
  642SOL    HW2 1926   1.527   1.031   1.614 -0.8476 -1.6197 -0.6307
  643SOL     OW 1927   0.976   1.765   2.225  0.1763  0.6001  0.0990
  643SOL    HW1 1928   1.053   1.782   2.160 -1.0503 -1.3675  0.5341
  643SOL    HW2 1929   0.941   1.668   2.213 -1.8375 -3.9947  2.2861
  644SOL     OW 1930   1.668   0.168   2.047 -0.0183  0.2036  0.2108
  644SOL    HW1 1931   1.727   0.088   2.076 -0.9725 -1.2430  0.8929
  644SOL    HW2 1932   1.664   0.233   2.124 -1.7523  0.0266  1.5173
  645SOL     OW 1933   1.666   1.171   1.793 -0.4819 -0.1770 -0.0760
  645SOL    HW1 1934   1.648   1.118   1.713  2.9650 -0.5886  0.5149
  645SOL    HW2 1935   1.581   1.196   1.842  1.0007  0.0396  0.5863
  646SOL     OW 1936   1.420   2.351   0.004  0.0600 -0.3239 -0.3409
  646SOL    HW1 1937   1.367   2.282   3.036 -2.3216 -4.3690 -2.1626
  646SOL    HW2 1938   1.382   2.445   0.002 -2.2292  0.7774 -2.0684
  647SOL     OW 1939   1.536   2.552   1.144 -0.4168  0.4265 -0.3826
  647SOL    HW1 1940   1.609   2.504   1.095 -0.7176  3.7743  0.5566
  647SOL    HW2 1941   1.459   2.491   1.162  0.5562 -1.1579  0.5668
  648SOL     OW 1942   3.007   2.227   1.540 -0.2375 -0.1784  0.3603
  648SOL    HW1 1943   2.951   2.308   1.577 -0.2211  0.8794  0.2451
  648SOL    HW2 1944   3.091   2.209   1.594 -1.5639 -1.5055  0.7930
  649SOL     OW 1945   1.153   2.456   2.709  0.3925  0.0803 -0.3312
  649SOL    HW1 1946   1.127   2.465   2.809 -0.3074  0.1182 -1.0673
  649SOL    HW2 1947   1.072   2.499   2.664 -3.0205 -0.1185 -0.3294
  650SOL     OW 1948   2.950   1.899   3.054  0.0394 -0.5105  0.1464
  650SOL    HW1 1949   2.900   1.863   2.975 -0.1761  0.5053 -1.7039
  650SOL    HW2 1950   2.952   1.828   0.031 -0.6644  1.8243 -0.0359
  651SOL     OW 1951   2.570   2.336   2.156  0.0106 -0.3398 -0.0018
  651SOL    HW1 1952   2.499   2.273   2.127  3.9427  2.8357  0.0717
  651SOL    HW2 1953   2.575   2.413   2.089 -0.1994  1.2208 -0.1226
  652SOL     OW 1954   2.239   2.644   0.818  0.1830 -0.5829 -0.7690
  652SOL    HW1 1955   2.246   2.747   0.821 -0.0957  1.5631  0.2365
  652SOL    HW2 1956   2.267   2.618   0.726 -0.3190  1.6354  1.2031
  653SOL     OW 1957   3.043   1.576   1.481 -0.0447  0.0242  0.4839
  653SOL    HW1 1958   3.093   1.495   1.519 -1.4995 -0.8441  0.5821
  653SOL    HW2 1959   0.012   1.624   1.418  2.3271  1.2839 -0.6608
  654SOL     OW 1960   0.978   0.689   2.916 -0.3159  0.1484 -0.3437
  654SOL    HW1 1961   0.940   0.690   2.821 -0.2932  1.8266 -0.7722
  654SOL    HW2 1962   0.924   0.730   2.988  1.0580 -0.6731  0.0955
  655SOL     OW 1963   1.097   0.917   1.145  0.3956  0.6239  0.0406
  655SOL    HW1 1964   1.048   1.006   1.127 -1.4126 -2.9066  0.8664
  655SOL    HW2 1965   1.131   0.874   1.060  0.2943  0.4790  2.4580
  656SOL     OW 1966   1.357   2.635   2.024  0.4282  0.3133 -0.1048
  656SOL    HW1 1967   1.383   2.542   2.002 -2.0982 -0.3043  2.3246
  656SOL    HW2 1968   1.257   2.656   2.013 -0.2716 -0.3545  1.2733
  657SOL     OW 1969   1.914   1.362   0.032  0.7362 -0.8796 -0.3801
  657SOL    HW1 1970   1.939   1.299   0.107 -1.2994  0.1567  2.0361
  657SOL    HW2 1971   1.856   1.319   3.050  0.4641  1.0873 -0.8111
  658SOL     OW 1972   1.608   2.266   1.518  0.1611 -0.4717 -0.3043
  658SOL    HW1 1973   1.696   2.234   1.472  0.9135 -1.0544  0.7575
  658SOL    HW2 1974   1.619   2.337   1.592  0.1836 -0.6059 -0.5495
  659SOL     OW 1975   2.965   1.712   0.175  0.2691 -0.3411 -0.5241
  659SOL    HW1 1976   2.980   1.613   0.170 -1.8714  1.4785  1.3514
  659SOL    HW2 1977   3.041   1.756   0.234  2.6568 -1.3349  0.5479
  660SOL     OW 1978   0.850   0.226   0.658 -0.2369 -0.0581 -0.2143
  660SOL    HW1 1979   0.942   0.254   0.623 -0.9255 -2.8522  0.3961
  660SOL    HW2 1980   0.848   0.127   0.678 -0.7945  0.0732  2.5428
  661SOL     OW 1981   2.088   0.349   3.077 -0.1279 -0.9561 -0.3806
  661SOL    HW1 1982   2.001   0.405   3.075 -0.2534 -1.1272  1.7486
  661SOL    HW2 1983   2.076   0.265   3.025 -0.1106 -0.0508  1.9335
  662SOL     OW 1984   0.294   0.310   0.593 -0.1144 -0.0367 -0.1253
  662SOL    HW1 1985   0.308   0.206   0.579 -0.3552 -0.6119  2.4811
  662SOL    HW2 1986   0.383   0.360   0.613 -2.6676  0.5568 -1.4037
  663SOL     OW 1987   1.732   2.764   2.531 -0.5183 -0.2775  0.0075
  663SOL    HW1 1988   1.683   2.827   2.591 -1.6395 -2.9476  1.1148
  663SOL    HW2 1989   1.678   2.750   2.446  2.0649 -1.0691  0.8112
  664SOL     OW 1990   0.586   2.672   1.759  0.2664  0.2202  0.4586
  664SOL    HW1 1991   0.489   2.657   1.735 -0.9453  2.0277 -0.5560
  664SOL    HW2 1992   0.645   2.651   1.676  0.1164  3.0305 -2.2488
  665SOL     OW 1993   1.345   2.416   1.252 -0.0695  0.1273  0.3186
  665SOL    HW1 1994   1.331   2.485   1.329 -0.7086  0.3073  2.7879
  665SOL    HW2 1995   1.366   2.322   1.293 -2.2568  0.4969  2.2481
  666SOL     OW 1996   0.966   2.834   2.302  0.4734 -0.2355 -0.2475
  666SOL    HW1 1997   1.016   2.740   2.285  1.2579 -1.3651  1.5875
  666SOL    HW2 1998   0.873   2.837   2.259 -0.0507 -0.2172 -0.0437
  667SOL     OW 1999   2.621   0.632   1.744  0.0471 -0.5320  0.2258
  667SOL    HW1 2000   2.643   0.677   1.654  0.6135 -0.6043  0.4471
  667SOL    HW2 2001   2.686   0.556   1.768  0.6637 -3.8581  0.2583
  668SOL     OW 2002   1.343   0.259   1.505 -0.3358 -0.3880 -0.5064
  668SOL    HW1 2003   1.434   0.289   1.550  1.7315 -1.2421  0.4784
  668SOL    HW2 2004   1.316   0.334   1.446  1.7685 -2.0564 -1.3026
  669SOL     OW 2005   2.445   2.464   1.065  0.0004  0.3209  0.7897
  669SOL    HW1 2006   2.481   2.426   1.153 -2.2705 -3.3943 -1.0899
  669SOL    HW2 2007   2.511   2.438   0.993 -0.1059  0.7969  0.6715
  670SOL     OW 2008   1.551   2.304   2.671 -0.1086 -0.2299 -0.0338
  670SOL    HW1 2009   1.559   2.392   2.723 -1.2701 -0.8071  0.3658
  670SOL    HW2 2010   1.538   2.332   2.573  2.4376  1.9831 -0.6824
  671SOL     OW 2011   0.585   0.782   0.315  0.0422  0.0629  0.1057
  671SOL    HW1 2012   0.594   0.820   0.224 -2.1270 -2.9937  2.2645
  671SOL    HW2 2013   0.500   0.724   0.311  0.0167 -1.3414 -0.5086
  672SOL     OW 2014   2.740   1.169   0.004  0.5702 -0.0095  0.4023
  672SOL    HW1 2015   2.823   1.114   0.025  1.1452  1.7992 -0.1548
  672SOL    HW2 2016   2.670   1.141   0.070  1.9599  2.2732 -0.4775
  673SOL     OW 2017   3.071   1.793   1.672 -0.4717  0.2038  0.1259
  673SOL    HW1 2018   3.030   1.727   1.611  0.9855  0.3243  1.2979
  673SOL    HW2 2019   0.069   1.762   1.690  0.7679  0.0622  0.2319
  674SOL     OW 2020   1.296   2.124   1.649 -0.2726 -0.1968  0.0622
  674SOL    HW1 2021   1.194   2.115   1.657 -0.9465 -1.7822  0.7380
  674SOL    HW2 2022   1.334   2.064   1.574  1.9653 -0.6294  1.2451
  675SOL     OW 2023   0.996   1.163   1.080 -0.3756 -0.2363  0.2737
  675SOL    HW1 2024   0.996   1.192   1.178  2.5742  0.8319 -1.9931
  675SOL    HW2 2025   0.927   1.216   1.029 -1.0023  1.9673 -0.1340
  676SOL     OW 2026   2.416   0.572   0.831  0.2360 -0.2554  0.0484
  676SOL    HW1 2027   2.369   0.656   0.799  0.4695 -1.0460 -0.6739
  676SOL    HW2 2028   2.453   0.588   0.921 -3.5138  2.0636 -0.9351
  677SOL     OW 2029   2.594   0.322   0.140  0.4476  0.4475  0.4333
  677SOL    HW1 2030   2.541   0.241   0.182 -0.0104 -2.8243 -1.5104
  677SOL    HW2 2031   2.535   0.352   0.060 -1.2873  2.3866  1.2108
  678SOL     OW 2032   2.751   1.320   1.228 -0.1066  0.4329 -0.3931
  678SOL    HW1 2033   2.776   1.402   1.169 -0.5368 -1.1180 -1.9107
  678SOL    HW2 2034   2.657   1.281   1.212  3.3768  1.5609  1.9907
  679SOL     OW 2035   2.419   0.418   3.027 -0.1499 -0.2367  1.0991
  679SOL    HW1 2036   2.446   0.453   2.932  0.0173 -1.3289 -1.6241
  679SOL    HW2 2037   2.380   0.492   3.083 -1.6536 -0.8583 -0.2840
  680SOL     OW 2038   0.445   1.165   2.403  0.4083  0.3217 -0.3962
  680SOL    HW1 2039   0.468   1.081   2.352 -0.1341  0.0734  1.8108
  680SOL    HW2 2040   0.370   1.148   2.471 -3.7546 -0.3864 -0.8029
  681SOL     OW 2041   2.734   2.140   1.690 -0.2344 -0.1512  0.0614
  681SOL    HW1 2042   2.823   2.139   1.739  0.4483 -0.4410 -0.7859
  681SOL    HW2 2043   2.727   2.073   1.616 -1.2549 -0.6350 -1.0650
  682SOL     OW 2044   0.546   1.867   3.037 -0.1991 -0.1508 -0.0333
  682SOL    HW1 2045   0.567   1.908   2.943  1.6580  1.5499  1.4703
  682SOL    HW2 2046   0.445   1.874   3.059 -2.0421 -0.0900 -1.6823
  683SOL     OW 2047   2.501   2.016   0.948  0.3890  0.1929  0.5364
  683SOL    HW1 2048   2.537   1.918   0.943 -0.7126  2.3715 -0.2112
  683SOL    HW2 2049   2.552   2.066   1.016 -1.3963 -0.3120  0.0666
  684SOL     OW 2050   2.693   1.106   1.867 -0.3152  0.4426  0.5474
  684SOL    HW1 2051   2.682   1.012   1.898  0.9193 -0.3694 -0.4667
  684SOL    HW2 2052   2.603   1.149   1.857 -0.3274 -0.2774  3.3751
  685SOL     OW 2053   1.205   0.818   0.908 -0.2158  0.6390 -0.0494
  685SOL    HW1 2054   1.296   0.813   0.869 -5.5813  0.4748  2.5550
  685SOL    HW2 2055   1.163   0.729   0.928  0.6229 -0.6744 -1.4384
  686SOL     OW 2056   0.778   0.297   3.069  0.1856  0.0022  0.4497
  686SOL    HW1 2057   0.774   0.249   2.983  1.1170 -0.2731  0.1547
  686SOL    HW2 2058   0.754   0.235   0.053  1.4276 -0.0297  1.6300
  687SOL     OW 2059   0.205   2.422   2.357  0.0900 -0.1582 -0.5544
  687SOL    HW1 2060   0.111   2.446   2.390  3.7535  2.6532  1.5410
  687SOL    HW2 2061   0.235   2.327   2.371 -1.7920 -0.8013  0.1922
  688SOL     OW 2062   2.137   0.230   1.536  0.1850 -0.3617  0.1497
  688SOL    HW1 2063   2.085   0.311   1.571  0.6040 -0.7605 -1.2384
  688SOL    HW2 2064   2.141   0.214   1.434  1.0776  0.7291 -1.3336
  689SOL     OW 2065   1.974   0.970   0.443 -0.0215  0.6754 -0.0660
  689SOL    HW1 2066   2.007   0.875   0.466  2.1518 -0.0213  0.1864
  689SOL    HW2 2067   2.050   1.037   0.459 -0.4625  1.0799 -3.8723
  690SOL     OW 2068   3.029   0.855   1.501 -0.1460  0.5203  0.0079
  690SOL    HW1 2069   2.995   0.945   1.540  0.6028 -0.3020  4.8899
  690SOL    HW2 2070   2.975   0.817   1.424 -0.9180 -1.2438 -1.5294
  691SOL     OW 2071   0.076   1.090   1.976  0.6394 -0.6120  0.4537
  691SOL    HW1 2072   0.057   1.053   1.882  1.7927  1.6071 -0.1669
  691SOL    HW2 2073   0.005   1.162   1.997 -0.0351  2.3329 -2.2733
  692SOL     OW 2074   0.928   0.829   2.053  0.0218  0.1928  0.1744
  692SOL    HW1 2075   0.985   0.746   2.052  1.5190 -0.5404 -0.5550
  692SOL    HW2 2076   0.876   0.838   1.971 -2.8820 -2.7319  0.7090
  693SOL     OW 2077   0.506   1.368   2.194  0.1232  0.3745 -0.0175
  693SOL    HW1 2078   0.483   1.466   2.204 -0.3040 -2.6144 -1.1563
  693SOL    HW2 2079   0.501   1.315   2.282 -1.7474 -0.5608 -0.0267
  694SOL     OW 2080   1.489   1.668   0.528 -0.5211 -0.1924 -0.0498
  694SOL    HW1 2081   1.561   1.618   0.472 -1.8614 -0.9540 -1.9703
  694SOL    HW2 2082   1.502   1.771   0.529  1.9558 -0.8084 -0.0304
  695SOL     OW 2083   0.615   1.115   1.191 -0.0692 -0.5883 -0.2183
  695SOL    HW1 2084   0.663   1.196   1.155 -0.1432 -0.1236  1.5264
  695SOL    HW2 2085   0.514   1.129   1.201 -0.0493 -0.2988  2.0115
  696SOL     OW 2086   0.452   2.602   0.481  0.5186 -0.1916 -0.5118
  696SOL    HW1 2087   0.423   2.651   0.567  0.0730 -1.3004  0.5196
  696SOL    HW2 2088   0.457   2.500   0.494 -1.3429  0.8795  3.1213
  697SOL     OW 2089   1.304   0.488   1.357  0.3965 -0.1859  0.7497
  697SOL    HW1 2090   1.338   0.554   1.424 -0.2692 -1.1313 -1.1096
  697SOL    HW2 2091   1.204   0.504   1.342 -1.6060  0.3240  0.5745
  698SOL     OW 2092   1.682   1.575   1.736 -0.1185  0.8713 -0.2137
  698SOL    HW1 2093   1.631   1.513   1.674  0.7690  0.7412 -4.4186
  698SOL    HW2 2094   1.682   1.665   1.695  3.1355 -1.3151 -0.8753
  699SOL     OW 2095   0.021   0.603   2.330 -0.1715 -0.2275 -0.0698
  699SOL    HW1 2096   0.009   0.679   2.260  0.6976  0.0624 -2.6876
  699SOL    HW2 2097   0.029   0.641   2.425  2.6471 -0.5863  1.7050
  700SOL     OW 2098   1.525   2.457   0.720 -0.2737  0.0847  0.2992
  700SOL    HW1 2099   1.511   2.559   0.720  0.5614 -0.9010  1.0230
  700SOL    HW2 2100   1.441   2.410   0.727  4.4381  0.0556 -0.6504
  701SOL     OW 2101   0.239   1.516   2.666  0.1312  0.4502 -0.1126
  701SOL    HW1 2102   0.168   1.454   2.704  0.9054 -0.1352 -4.2334
  701SOL    HW2 2103   0.295   1.546   2.743 -2.2411 -0.1035 -1.3022
  702SOL     OW 2104   0.345   0.347   0.034 -0.5991 -0.2682  0.2496
  702SOL    HW1 2105   0.373   0.261   3.084 -2.7941  0.8765  2.0089
  702SOL    HW2 2106   0.365   0.428   3.068  0.0829  0.4418 -0.6494
  703SOL     OW 2107   1.620   3.003   2.632 -0.3573 -0.1062 -0.1961
  703SOL    HW1 2108   1.654   3.063   2.704 -0.8211  1.5453  0.1011
  703SOL    HW2 2109   1.590   3.058   2.556  1.3018  0.4249  2.6530
  704SOL     OW 2110   2.654   2.073   0.531 -0.6604  0.0645  0.0154
  704SOL    HW1 2111   2.647   2.047   0.432  0.4676  2.1493  1.8145
  704SOL    HW2 2112   2.742   2.054   0.578  0.1599 -2.7682 -0.3297
  705SOL     OW 2113   2.852   1.882   2.007  0.2002 -0.7665 -0.5900
  705SOL    HW1 2114   2.759   1.861   1.962 -2.8964  0.9791  1.3228
  705SOL    HW2 2115   2.841   1.890   2.106  1.9591 -1.7478  0.6943
  706SOL     OW 2116   2.990   2.809   1.013 -0.1862 -0.1361 -0.1865
  706SOL    HW1 2117   2.964   2.816   0.910 -0.0671  0.0812 -0.0225
  706SOL    HW2 2118   3.090   2.805   1.027 -1.3948 -1.6358 -0.8667
  707SOL     OW 2119   0.808   2.831   0.346 -1.0465 -0.5114  0.3651
  707SOL    HW1 2120   0.890   2.776   0.359  0.8354  0.1623  0.7693
  707SOL    HW2 2121   0.810   2.893   0.261 -0.0498  0.3222  2.3426
  708SOL     OW 2122   0.618   2.163   1.493 -0.1814 -0.2516 -0.4993
  708SOL    HW1 2123   0.652   2.189   1.402 -1.1669  1.7302  0.4397
  708SOL    HW2 2124   0.527   2.201   1.512  1.8036 -0.3896  0.1213
  709SOL     OW 2125   1.529   0.040   2.393  0.2929  0.4357 -0.1367
  709SOL    HW1 2126   1.469   0.121   2.403 -0.6181  0.6537  0.0572
  709SOL    HW2 2127   1.483   3.066   2.329  2.1215 -2.3875 -2.1079
  710SOL     OW 2128   1.439   2.770   2.682  0.2027  0.1171 -0.2279
  710SOL    HW1 2129   1.491   2.718   2.754 -0.5036 -2.0048  1.5848
  710SOL    HW2 2130   1.483   2.860   2.669 -1.5502 -1.1481 -0.0792
  711SOL     OW 2131   1.307   2.213   2.898 -0.4700  0.3942 -0.2891
  711SOL    HW1 2132   1.221   2.156   2.891 -0.6081 -0.4628 -0.1200
  711SOL    HW2 2133   1.297   2.293   2.845  0.5401 -0.6092  3.6338
  712SOL     OW 2134   0.863   1.805   2.842  0.3687 -0.0621  0.0881
  712SOL    HW1 2135   0.943   1.825   2.784 -1.1553 -1.2233 -0.8064
  712SOL    HW2 2136   0.789   1.873   2.838  0.2467 -0.3603  1.1438
  713SOL     OW 2137   1.215   0.914   1.753  0.0459 -0.4317 -0.3028
  713SOL    HW1 2138   1.132   0.889   1.696 -0.9181  0.1796  0.1877
  713SOL    HW2 2139   1.296   0.925   1.696 -0.9281 -1.6809  3.8599
  714SOL     OW 2140   1.393   1.422   1.020 -0.1128 -0.0095  0.0066
  714SOL    HW1 2141   1.407   1.476   0.936  2.5383 -0.3432 -1.6177
  714SOL    HW2 2142   1.355   1.471   1.100  1.5972  2.2419  0.6509
  715SOL     OW 2143   2.458   0.245   0.970 -0.9818  0.6147  0.9820
  715SOL    HW1 2144   2.460   0.193   1.056  1.3761  1.0374  0.7805
  715SOL    HW2 2145   2.373   0.299   0.957  0.5076  1.5957  1.9286
  716SOL     OW 2146   0.444   2.740   0.788  0.3150  0.3647  0.5248
  716SOL    HW1 2147   0.483   2.655   0.829 -1.0196 -0.7637 -2.6476
  716SOL    HW2 2148   0.513   2.810   0.768  0.1801  0.4839  1.9494
  717SOL     OW 2149   2.885   0.558   0.180  0.4912 -0.4130 -0.0514
  717SOL    HW1 2150   2.864   0.490   0.111  0.3969  1.1547  1.9475
  717SOL    HW2 2151   2.806   0.627   0.186 -2.0465 -1.3905  0.2141
  718SOL     OW 2152   1.788   1.806   1.086  0.7093  0.2760  0.6747
  718SOL    HW1 2153   1.845   1.725   1.049  2.8233 -1.9705 -0.6182
  718SOL    HW2 2154   1.814   1.898   1.048  0.6626 -0.9096 -0.1118
  719SOL     OW 2155   2.660   2.343   0.940  0.6424  0.0155  0.4863
  719SOL    HW1 2156   2.647   2.265   0.878 -1.3285 -1.9778 -2.5505
  719SOL    HW2 2157   2.757   2.370   0.945 -0.7607 -0.9751  0.5781
  720SOL     OW 2158   1.000   0.922   0.736  0.1911 -0.0857 -0.3714
  720SOL    HW1 2159   1.080   0.893   0.791  0.4874  1.3111  0.7251
  720SOL    HW2 2160   1.019   1.021   0.706 -0.9888  2.0774 -0.0012
  721SOL     OW 2161   1.497   0.495   1.158 -0.2081  0.0086  0.0354
  721SOL    HW1 2162   1.463   0.487   1.064  1.3821  1.2096  0.5042
  721SOL    HW2 2163   1.423   0.499   1.225 -2.0737  2.5477 -1.1053
  722SOL     OW 2164   1.195   1.516   2.100 -0.7935  0.1643  0.2605
  722SOL    HW1 2165   1.238   1.539   2.189 -1.1433  2.7512  0.3997
  722SOL    HW2 2166   1.098   1.518   2.101  0.8794  0.8254 -1.3729
  723SOL     OW 2167   0.976   2.815   1.467 -0.5429 -0.6972 -0.1869
  723SOL    HW1 2168   0.985   2.913   1.425 -0.7662  0.9448  0.2232
  723SOL    HW2 2169   1.008   2.815   1.563 -0.1245  1.0600 -0.3826
  724SOL     OW 2170   2.241   1.969   1.472 -0.0141  0.2484  0.1654
  724SOL    HW1 2171   2.189   1.903   1.420  1.0478 -1.0380  1.0917
  724SOL    HW2 2172   2.209   1.968   1.572  2.5600  1.5638  3.2340
  725SOL     OW 2173   0.988   2.742   1.171  0.2791  0.5622 -0.0612
  725SOL    HW1 2174   0.953   2.756   1.264 -0.0315  4.1530  1.5844
  725SOL    HW2 2175   1.088   2.740   1.172 -0.1664 -1.5190  0.0321
  726SOL     OW 2176   1.769   2.888   0.051  0.2324  0.7328 -0.1858
  726SOL    HW1 2177   1.710   2.807   0.055 -0.5551 -0.6800 -0.5769
  726SOL    HW2 2178   1.856   2.862   0.005  0.4890  2.1802 -1.6393
  727SOL     OW 2179   1.507   1.576   0.798 -0.1335 -0.2072  0.1474
  727SOL    HW1 2180   1.488   1.628   0.714 -0.0015  2.0620  1.0123
  727SOL    HW2 2181   1.605   1.557   0.801 -0.9974  1.1115  0.8006
  728SOL     OW 2182   1.855   3.085   2.120 -0.2509 -0.9704 -0.0067
  728SOL    HW1 2183   1.943   0.018   2.085  0.6716  0.0497  2.1864
  728SOL    HW2 2184   1.853   0.014   2.220  0.9419  2.8370  1.2298
  729SOL     OW 2185   2.429   1.788   1.243  0.4970 -0.7432  0.0906
  729SOL    HW1 2186   2.377   1.872   1.220  0.1108 -0.4855 -0.6739
  729SOL    HW2 2187   2.441   1.731   1.158 -1.0201  0.3204  0.0024
  730SOL     OW 2188   1.736   0.505   2.618  0.0968 -0.1311  0.0109
  730SOL    HW1 2189   1.782   0.418   2.648 -1.6078  1.0968  3.7260
  730SOL    HW2 2190   1.784   0.588   2.655 -0.5692  2.5354 -0.5498
  731SOL     OW 2191   0.510   0.323   1.349 -0.0867 -0.6151  0.2748
  731SOL    HW1 2192   0.473   0.374   1.431 -0.6901 -1.5841  0.1286
  731SOL    HW2 2193   0.496   0.377   1.260 -0.2500  2.2494 -0.1294
  732SOL     OW 2194   1.844   0.319   1.244 -0.8153  0.5138 -0.0159
  732SOL    HW1 2195   1.764   0.373   1.269  0.4424 -4.5669  2.9319
  732SOL    HW2 2196   1.849   0.237   1.298  1.5485 -1.7225 -1.3691
  733SOL     OW 2197   0.911   0.988   1.628 -0.5536  0.1261 -0.1118
  733SOL    HW1 2198   0.850   1.032   1.562 -4.2599  0.9461  1.0999
  733SOL    HW2 2199   0.962   0.909   1.589  1.5320  0.9509 -1.5592
  734SOL     OW 2200   2.272   1.931   0.228  0.3051 -0.1321 -0.4924
  734SOL    HW1 2201   2.181   1.899   0.187 -0.0578  2.3872 -4.1614
  734SOL    HW2 2202   2.265   1.932   0.330  0.0685  0.5987  0.8228
  735SOL     OW 2203   0.423   0.614   0.189 -0.1812  0.4512  0.2902
  735SOL    HW1 2204   0.336   0.645   0.139  0.0684  1.6834  0.5092
  735SOL    HW2 2205   0.502   0.590   0.127  2.6798 -2.1388  1.8775
  736SOL     OW 2206   1.886   2.540   2.619 -0.0608  0.3648  0.1645
  736SOL    HW1 2207   1.892   2.530   2.722 -0.4837  0.3586 -0.5015
  736SOL    HW2 2208   1.857   2.637   2.595  1.8272 -0.7830  1.7492
  737SOL     OW 2209   1.045   1.790   1.037 -0.2452  0.2107 -0.4671
  737SOL    HW1 2210   1.040   1.692   1.064  3.9377 -1.8222 -1.6169
  737SOL    HW2 2211   1.058   1.846   1.120  1.2530  0.1167 -1.4341
  738SOL     OW 2212   1.823   2.818   2.070 -0.4997  0.4059  0.0773
  738SOL    HW1 2213   1.802   2.913   2.104  0.1584  0.1942  0.9176
  738SOL    HW2 2214   1.839   2.750   2.149 -0.3056 -1.5943  0.9267
  739SOL     OW 2215   1.343   2.182   2.423  0.1148  0.0562  0.0094
  739SOL    HW1 2216   1.347   2.085   2.454  0.0618  0.5603 -1.5522
  739SOL    HW2 2217   1.438   2.227   2.421  2.6560  0.3667  0.9802
  740SOL     OW 2218   1.839   2.396   1.801  0.0701  0.3866  0.1005
  740SOL    HW1 2219   1.886   2.466   1.855 -1.0856 -3.1335 -2.1008
  740SOL    HW2 2220   1.744   2.415   1.786  1.4056 -1.4480 -1.0362
  741SOL     OW 2221   2.404   1.576   2.603  0.2496  0.1611 -0.4316
  741SOL    HW1 2222   2.398   1.508   2.526  0.8910  1.2718  0.9972
  741SOL    HW2 2223   2.488   1.638   2.597  1.0641 -1.0331  1.2592
  742SOL     OW 2224   0.702   1.354   3.065 -0.2016 -0.8292  0.0520
  742SOL    HW1 2225   0.663   1.446   3.075 -0.3865  0.1539  2.0939
  742SOL    HW2 2226   0.659   1.310   2.983 -0.5591 -1.8031  3.3016
  743SOL     OW 2227   2.053   1.174   2.507 -0.3809  0.2349  0.0373
  743SOL    HW1 2228   1.959   1.154   2.479 -0.3750 -0.5136  0.2415
  743SOL    HW2 2229   2.089   1.264   2.479 -1.5665 -2.0734  1.3825
  744SOL     OW 2230   2.057   2.918   1.319  0.2990 -0.0447  0.4777
  744SOL    HW1 2231   2.135   2.968   1.278 -1.4931  0.4915  0.3841
  744SOL    HW2 2232   2.089   2.839   1.375 -0.4082  0.6145 -1.5484
  745SOL     OW 2233   2.483   1.199   1.129  0.6508  0.4407  0.0941
  745SOL    HW1 2234   2.414   1.150   1.187 -0.7921 -0.7022  1.9170
  745SOL    HW2 2235   2.447   1.196   1.037  0.8777  1.0185  2.5740
  746SOL     OW 2236   2.361   1.633   0.991  0.0737 -0.0268  0.1176
  746SOL    HW1 2237   2.309   1.585   0.911 -2.1957 -1.7025 -0.1178
  746SOL    HW2 2238   2.453   1.670   0.958  3.2936  1.5449  0.1332
  747SOL     OW 2239   2.071   2.663   0.235 -0.3577  0.4865  0.1160
  747SOL    HW1 2240   2.027   2.750   0.267  0.1048 -1.8905  0.9594
  747SOL    HW2 2241   2.175   2.671   0.228  1.0876 -0.8525  0.5368
  748SOL     OW 2242   0.887   2.177   0.095 -0.1625  0.2017 -0.0095
  748SOL    HW1 2243   0.860   2.090   0.134  1.5670  2.7875  0.2540
  748SOL    HW2 2244   0.835   2.195   0.010  0.6598  0.3112  2.8034
  749SOL     OW 2245   2.863   0.422   2.287  0.4057  0.2343  0.1345
  749SOL    HW1 2246   2.940   0.357   2.305  2.1836 -1.7337 -0.4723
  749SOL    HW2 2247   2.902   0.515   2.276 -3.3387  0.7724  0.2912
  750SOL     OW 2248   1.169   0.529   1.806  0.4132  0.4135 -0.7333
  750SOL    HW1 2249   1.261   0.489   1.824 -0.5460 -0.4450  0.7824
  750SOL    HW2 2250   1.132   0.581   1.885  1.6290 -0.9938 -0.2294
  751SOL     OW 2251   2.611   2.520   1.952 -0.9087 -0.1314  0.7284
  751SOL    HW1 2252   2.627   2.503   1.851 -1.3192  3.4156  0.5858
  751SOL    HW2 2253   2.516   2.559   1.960 -0.8103  1.8263 -2.0950
  752SOL     OW 2254   2.059   1.348   0.995  0.1017  0.7606  0.0378
  752SOL    HW1 2255   2.016   1.257   0.975 -2.1542  1.1293 -1.3414
  752SOL    HW2 2256   2.128   1.372   0.919 -1.1749 -0.9112 -3.1336
  753SOL     OW 2257   1.552   1.147   2.371 -0.0310 -0.1340  0.4334
  753SOL    HW1 2258   1.575   1.162   2.273  1.3583  0.9814  2.7771
  753SOL    HW2 2259   1.452   1.132   2.376  0.3291  1.4574  1.2312
  754SOL     OW 2260   3.075   2.456   1.148 -0.4582 -0.3202 -0.1402
  754SOL    HW1 2261   0.024   2.528   1.208  0.7592 -1.4284  0.7113
  754SOL    HW2 2262   3.075   2.365   1.193  0.6348 -0.8175  0.3873
  755SOL     OW 2263   2.274   3.041   1.210 -0.2253 -0.0397 -0.0738
  755SOL    HW1 2264   2.311   0.037   1.231 -0.7407 -1.5672  0.1572
  755SOL    HW2 2265   2.353   2.980   1.176  1.4112 -2.6809 -2.2722
  756SOL     OW 2266   1.824   1.940   2.125  0.1296  0.6738 -1.0408
  756SOL    HW1 2267   1.796   1.854   2.082  0.4821  1.1666  2.3916
  756SOL    HW2 2268   1.836   1.940   2.230  1.0191 -0.5262 -0.0561
  757SOL     OW 2269   3.052   2.943   1.973 -0.0339 -0.3159  0.4204
  757SOL    HW1 2270   2.964   2.964   2.016 -1.4666  0.0239  0.0251
  757SOL    HW2 2271   0.011   3.030   1.954  0.5332  1.2755  0.7022
  758SOL     OW 2272   0.451   2.656   1.436  0.0637  0.4868 -0.0400
  758SOL    HW1 2273   0.553   2.664   1.465  0.7301 -2.3586 -1.4312
  758SOL    HW2 2274   0.405   2.594   1.501  0.3523  0.7040  0.1970
  759SOL     OW 2275   2.159   1.320   1.244  0.0117 -0.2192 -0.7209
  759SOL    HW1 2276   2.223   1.243   1.261 -0.0988  0.3576 -2.7509
  759SOL    HW2 2277   2.113   1.316   1.152 -0.7222  1.9095  0.4328
  760SOL     OW 2278   1.557   0.317   1.640 -0.2814  0.2840  0.2706
  760SOL    HW1 2279   1.589   0.248   1.706 -1.0528 -1.0920 -0.8784
  760SOL    HW2 2280   1.636   0.370   1.597  1.8844  1.1692 -0.2896
  761SOL     OW 2281   2.043   0.189   0.867 -0.7217  0.1605  0.4773
  761SOL    HW1 2282   1.967   0.150   0.919 -1.2974  0.8828 -0.0262
  761SOL    HW2 2283   2.053   0.142   0.776 -0.9642 -0.2510  1.3526
  762SOL     OW 2284   1.908   2.877   0.293  0.8224 -0.5143 -0.1599
  762SOL    HW1 2285   1.947   2.956   0.338 -2.4608 -1.8217  2.8524
  762SOL    HW2 2286   1.822   2.898   0.242 -0.2490  1.9312 -0.2519
  763SOL     OW 2287   1.025   0.514   1.292  0.5240  0.0360  0.2478
  763SOL    HW1 2288   0.960   0.434   1.310 -1.1708 -0.2244  2.3777
  763SOL    HW2 2289   0.977   0.599   1.311 -1.7320  1.5803  0.8911
  764SOL     OW 2290   2.628   2.549   2.578  0.8719 -0.6607  0.2157
  764SOL    HW1 2291   2.725   2.543   2.577 -3.8835 -0.7813 -1.6977
  764SOL    HW2 2292   2.599   2.640   2.531 -0.0384  1.4977 -0.3566
  765SOL     OW 2293   2.984   1.131   2.561 -0.8864 -0.0870 -0.0261
  765SOL    HW1 2294   2.955   1.107   2.466  0.1848 -2.2447  0.0507
  765SOL    HW2 2295   2.986   1.052   2.618 -0.5313  0.6250 -2.5046
  766SOL     OW 2296   2.684   1.406   2.466 -0.1541 -0.4171  0.4130
  766SOL    HW1 2297   2.715   1.453   2.549 -0.9165 -0.6161 -2.6630
  766SOL    HW2 2298   2.588   1.426   2.445  0.2619 -1.7126 -2.0767
  767SOL     OW 2299   0.141   2.096   1.684  0.5424 -0.5825 -0.7860
  767SOL    HW1 2300   0.101   2.130   1.773 -1.8045 -0.2443  1.0797
  767SOL    HW2 2301   0.209   2.020   1.696  1.2294 -0.8487 -1.0571
  768SOL     OW 2302   0.814   0.751   0.031 -0.3671  0.4811 -0.1755
  768SOL    HW1 2303   0.762   0.671   0.059  1.1804 -0.0910  0.8937
  768SOL    HW2 2304   0.749   0.819   3.082  0.0127 -0.6302  3.8037
  769SOL     OW 2305   1.282   2.611   3.092 -0.2883 -0.6876  0.5222
  769SOL    HW1 2306   1.196   2.592   3.044 -3.5236 -1.0486 -1.0616
  769SOL    HW2 2307   1.274   2.587   0.093 -1.2926 -1.5659 -1.8584
  770SOL     OW 2308   1.088   0.167   2.426 -0.1418  0.4663 -0.0397
  770SOL    HW1 2309   1.005   0.189   2.370 -0.7317 -1.8043  0.8079
  770SOL    HW2 2310   1.090   0.066   2.442  0.1730 -1.6919  0.6996
  771SOL     OW 2311   0.571   2.521   0.873  0.1841 -0.1465  0.1846
  771SOL    HW1 2312   0.654   2.482   0.821 -0.4657  0.8251  3.0112
  771SOL    HW2 2313   0.593   2.551   0.970 -1.6922  1.3037  0.8030
  772SOL     OW 2314   2.714   0.957   0.322  0.5724  0.0144 -0.5428
  772SOL    HW1 2315   2.696   1.059   0.327  2.0444  1.5828 -0.4683
  772SOL    HW2 2316   2.811   0.940   0.309 -2.8030  0.2475  0.5436
  773SOL     OW 2317   1.876   1.047   1.974  0.0672  0.1399 -0.1658
  773SOL    HW1 2318   1.947   1.004   1.918  0.6023 -0.2436 -0.8511
  773SOL    HW2 2319   1.807   1.095   1.915  1.2137  0.0164  1.4784
  774SOL     OW 2320   0.536   0.386   0.670  0.3143  0.9785  0.2633
  774SOL    HW1 2321   0.627   0.344   0.649 -0.7444  1.3280  1.9034
  774SOL    HW2 2322   0.508   0.375   0.768 -0.2605  0.2523  0.0851
  775SOL     OW 2323   1.534   3.090   0.375  0.0222  0.5279 -0.0124
  775SOL    HW1 2324   1.471   3.014   0.345  1.3281 -1.9898  1.2562
  775SOL    HW2 2325   1.480   0.082   0.383  1.3206  1.2555  0.7762
  776SOL     OW 2326   2.267   0.443   2.376  0.2788  0.1525 -0.4687
  776SOL    HW1 2327   2.252   0.535   2.421 -0.4680  1.3057  0.0395
  776SOL    HW2 2328   2.186   0.409   2.322 -1.2318 -1.0528  0.5371
  777SOL     OW 2329   1.304   1.357   2.993  0.3301 -0.4066  0.0011
  777SOL    HW1 2330   1.342   1.420   2.922  1.6360 -2.8756  0.3476
  777SOL    HW2 2331   1.273   1.267   2.950  0.1456 -0.5065  0.0826
  778SOL     OW 2332   0.237   2.669   0.183 -0.0320  0.1415 -0.2768
  778SOL    HW1 2333   0.210   2.646   0.280  0.0590 -1.8197  1.0593
  778SOL    HW2 2334   0.258   2.766   0.178  2.2980 -2.0134 -1.6234
  779SOL     OW 2335   0.273   1.734   0.278 -0.1515 -0.5781 -0.1557
  779SOL    HW1 2336   0.334   1.664   0.237  1.7759  1.8749  0.7060
  779SOL    HW2 2337   0.284   1.725   0.375 -1.6899  1.1948 -2.8893
  780SOL     OW 2338   2.115   0.074   1.923  0.0418 -0.3198 -0.1655
  780SOL    HW1 2339   2.146   0.017   1.845 -0.0853  0.3818  1.8876
  780SOL    HW2 2340   2.055   0.154   1.897 -0.8733  1.2639  1.2312
  781SOL     OW 2341   1.608   1.139   1.515 -0.2640 -0.1940  0.5261
  781SOL    HW1 2342   1.520   1.171   1.465 -2.9684  0.9500 -1.3117
  781SOL    HW2 2343   1.680   1.196   1.482 -1.5996 -3.2569  2.1050
  782SOL     OW 2344   1.925   2.198   2.056  0.1579  0.0126 -0.6923
  782SOL    HW1 2345   1.868   2.253   1.987 -0.9692 -1.5143  2.5491
  782SOL    HW2 2346   1.876   2.105   2.066 -2.3652 -1.0343  2.0869
  783SOL     OW 2347   1.423   0.437   1.889  0.1009 -0.2221 -0.4916
  783SOL    HW1 2348   1.515   0.482   1.866  4.8767  1.6408  1.0362
  783SOL    HW2 2349   1.427   0.338   1.885  0.0253  0.2469 -1.1445
  784SOL     OW 2350   1.798   1.094   2.463 -0.6826 -0.1161  0.2537
  784SOL    HW1 2351   1.704   1.106   2.432  0.1958  0.5983  2.6800
  784SOL    HW2 2352   1.852   1.042   2.399 -1.9057  1.5064 -2.2041
  785SOL     OW 2353   1.877   0.509   0.075  1.1585  0.6719 -0.0783
  785SOL    HW1 2354   1.921   0.549   0.157  0.8584 -3.9458  2.3521
  785SOL    HW2 2355   1.805   0.441   0.100 -2.2059 -3.8171  2.4437
  786SOL     OW 2356   0.259   1.645   0.543  0.0725  0.2331 -0.2216
  786SOL    HW1 2357   0.162   1.620   0.560 -3.5245 -1.1752  0.3770
  786SOL    HW2 2358   0.317   1.602   0.613 -1.0898 -0.4594 -1.3665
  787SOL     OW 2359   1.751   1.860   0.415 -0.0197 -0.3230 -0.1359
  787SOL    HW1 2360   1.675   1.884   0.477  5.2317  1.5049 -0.8097
  787SOL    HW2 2361   1.713   1.837   0.324  3.5127 -0.4458 -1.0418
  788SOL     OW 2362   2.337   1.607   1.524 -0.0485 -0.1658  0.4286
  788SOL    HW1 2363   2.328   1.603   1.419  1.9959  1.7044 -2.3272
  788SOL    HW2 2364   2.436   1.593   1.542  0.5515 -2.6063  0.2557
  789SOL     OW 2365   3.043   1.616   2.479 -0.4681  0.8592  0.2902
  789SOL    HW1 2366   0.020   1.603   2.406 -0.3784 -0.7322 -0.8836
  789SOL    HW2 2367   3.034   1.540   2.551  0.0562 -0.9176  1.1749
  790SOL     OW 2368   0.811   3.076   2.616 -0.0010 -0.0257  0.3266
  790SOL    HW1 2369   0.900   3.068   2.568  2.3135  3.6947  1.3100
  790SOL    HW2 2370   0.727   3.073   2.551 -2.8947 -0.0187 -1.6565
  791SOL     OW 2371   0.849   2.816   2.682 -0.3708  0.0136 -0.2758
  791SOL    HW1 2372   0.902   2.824   2.770  3.0034 -0.8061  0.0068
  791SOL    HW2 2373   0.823   2.909   2.644  2.5240 -0.0846 -0.1684
  792SOL     OW 2374   1.650   0.276   2.305 -0.4358  0.5788  0.1669
  792SOL    HW1 2375   1.637   0.178   2.331 -0.7812 -1.7903 -2.4725
  792SOL    HW2 2376   1.587   0.340   2.346  2.1071  0.2648 -2.3509
  793SOL     OW 2377   2.851   3.061   2.133  0.1488 -0.0309  0.0319
  793SOL    HW1 2378   2.821   0.059   2.110  1.6129 -2.2590  1.9501
  793SOL    HW2 2379   2.773   3.009   2.166 -2.2131 -0.3645 -1.0520
  794SOL     OW 2380   0.381   0.926   1.761  0.6950 -0.1411 -0.2873
  794SOL    HW1 2381   0.429   0.865   1.829 -1.3323 -2.5914  0.2560
  794SOL    HW2 2382   0.292   0.885   1.737 -0.4702 -2.1029 -1.7532
  795SOL     OW 2383   3.086   1.603   0.630  0.3554  0.3427 -0.3409
  795SOL    HW1 2384   3.005   1.631   0.576 -0.6352 -0.7581  1.1617
  795SOL    HW2 2385   3.074   1.501   0.649 -1.6894 -1.4492 -1.1882
  796SOL     OW 2386   2.980   2.737   2.956  0.6344 -0.1636 -0.4007
  796SOL    HW1 2387   3.004   2.725   3.056  1.4032 -0.5353  3.9953
  796SOL    HW2 2388   3.036   2.675   2.898 -0.3508 -2.7985 -0.5097
  797SOL     OW 2389   2.741   2.436   0.226  0.3426 -0.2853 -0.3568
  797SOL    HW1 2390   2.792   2.354   0.253  1.3618 -1.1620  2.5581
  797SOL    HW2 2391   2.724   2.451   0.128  2.2338  1.7504 -0.9166
  798SOL     OW 2392   0.216   0.830   1.473  0.7485 -0.3225  0.8741
  798SOL    HW1 2393   0.178   0.739   1.451 -0.1863  2.9747 -0.2494
  798SOL    HW2 2394   0.146   0.884   1.522 -0.4510  0.9271  0.1688
  799SOL     OW 2395   2.839   0.678   2.129 -0.5311  0.2436  0.1358
  799SOL    HW1 2396   2.761   0.741   2.120  0.0952 -0.0533  2.1392
  799SOL    HW2 2397   2.922   0.726   2.156 -0.1879  1.8199  1.7479
  800SOL     OW 2398   2.797   2.400   0.549 -0.2716 -0.2974 -0.5421
  800SOL    HW1 2399   2.697   2.394   0.544  0.5022  1.6510  0.7263
  800SOL    HW2 2400   2.835   2.489   0.582  1.4999 -0.2438 -1.8804
  801SOL     OW 2401   1.453   1.206   0.719  0.1278 -0.1305 -0.0462
  801SOL    HW1 2402   1.427   1.257   0.632  0.8558 -1.4966 -0.7542
  801SOL    HW2 2403   1.375   1.193   0.780 -0.8616 -2.5076  2.2178
  802SOL     OW 2404   1.519   1.732   1.046  0.4638  0.3611 -0.5244
  802SOL    HW1 2405   1.609   1.758   1.085 -0.0583 -0.3083  1.0443
  802SOL    HW2 2406   1.526   1.696   0.948  1.0580 -1.3267 -2.9732
  803SOL     OW 2407   0.044   1.841   0.341 -0.6087  0.1116 -0.3816
  803SOL    HW1 2408   0.127   1.796   0.305 -1.1996  1.9981 -0.7295
  803SOL    HW2 2409   0.064   1.899   0.427  0.9426 -2.2659  2.0457
  804SOL     OW 2410   1.178   2.452   0.611 -0.2150  0.2651  0.4210
  804SOL    HW1 2411   1.082   2.472   0.582  2.4057  0.0325  1.9771
  804SOL    HW2 2412   1.187   2.470   0.710  0.5498  1.0041  4.2929
  805SOL     OW 2413   1.691   2.063   2.646  0.2327 -0.6965 -0.3155
  805SOL    HW1 2414   1.626   1.997   2.681  0.4869  0.3119  1.1778
  805SOL    HW2 2415   1.642   2.153   2.651 -0.9313  0.3708  0.3396
  806SOL     OW 2416   1.404   0.060   1.323  0.1744 -0.1470  0.2674
  806SOL    HW1 2417   1.358   0.123   1.388  0.2583 -1.6449 -2.2511
  806SOL    HW2 2418   1.337   0.011   1.262 -0.6567  1.3172  1.8699
  807SOL     OW 2419   1.981   2.936   2.531  0.1784  0.1831 -0.1099
  807SOL    HW1 2420   1.894   2.881   2.519 -2.5155 -0.0443  1.1439
  807SOL    HW2 2421   1.980   2.962   2.629  0.4804 -0.0433  0.8245
  808SOL     OW 2422   0.609   1.655   0.406 -0.2540 -0.5469  0.0393
  808SOL    HW1 2423   0.552   1.601   0.342 -0.8159 -0.8646 -0.7647
  808SOL    HW2 2424   0.698   1.611   0.414 -2.1935  1.7888 -0.0205
  809SOL     OW 2425   2.685   0.627   2.421  0.6080  0.4067 -0.3739
  809SOL    HW1 2426   2.751   0.555   2.404  1.0104 -0.2458  1.3144
  809SOL    HW2 2427   2.599   0.619   2.365 -1.2491  2.8700 -1.2194
  810SOL     OW 2428   0.039   0.304   2.351 -0.7124 -0.3059  0.0650
  810SOL    HW1 2429   0.071   0.400   2.353  0.0677  0.3097  0.7212
  810SOL    HW2 2430   0.083   0.254   2.270  2.4740  0.0760 -3.1653
  811SOL     OW 2431   1.989   2.256   1.613 -0.1557  0.3163 -0.3592
  811SOL    HW1 2432   1.953   2.313   1.691  0.1113  1.6610 -2.1188
  811SOL    HW2 2433   2.092   2.257   1.620  0.4965 -0.1354 -0.3097
  812SOL     OW 2434   1.417   0.618   0.102 -0.1670 -0.1691 -0.2754
  812SOL    HW1 2435   1.431   0.630   0.205 -1.6884 -2.6440  1.5768
  812SOL    HW2 2436   1.364   0.531   0.087 -0.3542  1.3079  1.3066
  813SOL     OW 2437   1.857   0.420   2.213  0.4313  0.1968 -0.2921
  813SOL    HW1 2438   1.789   0.370   2.265 -0.2033  3.0701 -2.5432
  813SOL    HW2 2439   1.838   0.518   2.197 -0.7500  0.6095 -0.8092
  814SOL     OW 2440   1.952   1.059   1.414 -0.1731 -0.3909 -0.1968
  814SOL    HW1 2441   2.032   1.113   1.445  0.8219 -0.7409 -0.0028
  814SOL    HW2 2442   1.874   1.121   1.393  1.4165 -0.2428  0.4727
  815SOL     OW 2443   0.722   0.961   0.452  0.1224  0.4041  0.2707
  815SOL    HW1 2444   0.716   0.961   0.554 -0.7841 -2.6923 -0.3141
  815SOL    HW2 2445   0.658   0.891   0.412 -0.2885  1.1051  1.2859
  816SOL     OW 2446   2.154   2.310   2.777 -0.1813  0.0241  0.1877
  816SOL    HW1 2447   2.192   2.370   2.708  0.1740 -0.7115  1.1857
  816SOL    HW2 2448   2.099   2.240   2.736 -2.2684  0.8461  1.8738
  817SOL     OW 2449   2.874   2.773   1.280  0.1241  0.2789 -0.0123
  817SOL    HW1 2450   2.940   2.797   1.200  0.0555 -1.6888 -0.2823
  817SOL    HW2 2451   2.907   2.702   1.343 -0.3145 -0.8695  1.4041
  818SOL     OW 2452   1.279   0.389   0.079 -0.0145  0.0770  0.2267
  818SOL    HW1 2453   1.194   0.408   0.030 -0.4736 -1.5961 -0.4228
  818SOL    HW2 2454   1.324   0.300   0.072  1.0742  1.6356  2.9566
  819SOL     OW 2455   0.567   0.703   0.752  0.0797 -0.4319 -0.5054
  819SOL    HW1 2456   0.563   0.678   0.850  0.8567  2.1282  0.9249
  819SOL    HW2 2457   0.621   0.634   0.703  0.7889 -0.5649  1.5375
  820SOL     OW 2458   2.234   0.697   1.137 -0.3190 -0.3754 -0.1401
  820SOL    HW1 2459   2.229   0.599   1.141  1.6491  0.7803 -0.3660
  820SOL    HW2 2460   2.244   0.743   1.226 -1.4011  0.8718 -0.1974
  821SOL     OW 2461   2.691   3.021   0.572 -0.8843 -0.2793  0.1399
  821SOL    HW1 2462   2.660   3.013   0.667  0.8664 -0.0332 -0.7056
  821SOL    HW2 2463   2.677   2.928   0.532 -0.4110  2.4979  0.8431
  822SOL     OW 2464   0.982   2.611   2.585  0.2330 -0.0432  0.2463
  822SOL    HW1 2465   0.938   2.554   2.512 -1.4752 -0.0196 -2.6798
  822SOL    HW2 2466   0.917   2.681   2.610  3.0706 -1.3311  0.4432
  823SOL     OW 2467   2.874   1.416   1.752 -0.3991  0.0224 -0.5932
  823SOL    HW1 2468   2.813   1.482   1.801 -1.3270  1.2322 -2.0319
  823SOL    HW2 2469   2.855   1.409   1.651  0.4546 -1.4565  2.2004
  824SOL     OW 2470   0.797   0.003   2.104  0.3063 -0.2085  0.0021
  824SOL    HW1 2471   0.855   3.043   2.040 -0.2620  1.0347  1.1113
  824SOL    HW2 2472   0.725   3.042   2.146 -1.9013 -0.1831  1.8810
  825SOL     OW 2473   1.286   1.760   3.071 -0.6014 -0.1021 -0.3010
  825SOL    HW1 2474   1.346   1.827   0.028 -2.0025  0.8124 -0.9114
  825SOL    HW2 2475   1.348   1.718   3.004  0.6909  1.4702 -0.8017
  826SOL     OW 2476   1.061   2.513   2.950  0.5557  0.0463 -0.0199
  826SOL    HW1 2477   1.077   2.445   3.028 -0.4216 -0.4778  1.4961
  826SOL    HW2 2478   0.980   2.574   2.967  2.3488  0.7769 -3.3815
  827SOL     OW 2479   0.352   1.892   1.716 -0.1817 -0.1416  0.2838
  827SOL    HW1 2480   0.295   1.811   1.712 -2.1930  1.9142  2.6437
  827SOL    HW2 2481   0.385   1.901   1.812 -0.3094 -0.7889 -1.5052
  828SOL     OW 2482   2.995   1.792   1.040  0.4797  0.2282 -0.8068
  828SOL    HW1 2483   3.082   1.829   1.080  1.9446  2.9249 -0.6355
  828SOL    HW2 2484   2.924   1.864   1.051  0.5370 -0.2841  1.0913
  829SOL     OW 2485   3.064   2.673   0.110  0.2572  0.3187  0.3913
  829SOL    HW1 2486   0.066   2.673   0.136 -3.5444 -2.8282 -0.4988
  829SOL    HW2 2487   3.033   2.579   0.101 -0.8122 -1.1618 -0.3253
  830SOL     OW 2488   1.192   0.650   0.603  0.4044  0.6233  0.4184
  830SOL    HW1 2489   1.281   0.667   0.643  1.4283  0.5940 -0.5999
  830SOL    HW2 2490   1.177   0.705   0.520  0.9735  1.1816  4.2333
  831SOL     OW 2491   3.030   2.407   0.051  0.0598  0.2697 -0.8183
  831SOL    HW1 2492   2.965   2.412   3.065  1.7389  1.8153 -2.1341
  831SOL    HW2 2493   2.997   2.332   0.115 -3.8193  0.9565  0.6774
  832SOL     OW 2494   1.566   2.235   0.434  0.5660 -0.0601 -0.7992
  832SOL    HW1 2495   1.659   2.245   0.395  0.6874  1.1182  2.9432
  832SOL    HW2 2496   1.559   2.153   0.492 -0.2133  1.1799 -0.4086
  833SOL     OW 2497   0.569   0.825   2.532 -0.8513 -0.1968 -0.0042
  833SOL    HW1 2498   0.655   0.809   2.583 -0.7428  1.1221 -0.8788
  833SOL    HW2 2499   0.583   0.872   2.443 -0.3348 -2.0501  0.7568
  834SOL     OW 2500   2.854   0.776   0.867  0.0754 -0.1364 -0.1455
  834SOL    HW1 2501   2.855   0.683   0.915  1.0794 -1.2486 -0.7751
  834SOL    HW2 2502   2.763   0.821   0.884  0.7846  2.0342  0.3186
  835SOL     OW 2503   2.504   0.727   2.139 -0.2339  0.1017 -0.4332
  835SOL    HW1 2504   2.405   0.736   2.118 -0.1318 -1.0253 -4.0583
  835SOL    HW2 2505   2.524   0.631   2.168  1.2674  0.6506  2.2640
  836SOL     OW 2506   0.749   1.973   0.687  0.1322 -0.2335 -0.3917
  836SOL    HW1 2507   0.681   1.956   0.615  1.9902  0.5528 -2.0754
  836SOL    HW2 2508   0.717   1.931   0.774  1.1484  1.4203 -2.2344
  837SOL     OW 2509   2.381   1.700   2.034  0.1020 -0.3706 -0.1874
  837SOL    HW1 2510   2.321   1.732   2.111 -0.6533  0.7324 -0.6906
  837SOL    HW2 2511   2.352   1.613   1.993  2.0347  0.1946  0.7711
  838SOL     OW 2512   0.137   1.218   2.327  0.1747  0.3053 -0.2928
  838SOL    HW1 2513   0.045   1.172   2.330  0.2439 -0.6023 -0.5772
  838SOL    HW2 2514   0.194   1.175   2.255 -1.8781 -0.3481  0.9223
  839SOL     OW 2515   0.571   0.020   2.805  0.3928  0.1428  0.3954
  839SOL    HW1 2516   0.565   3.023   2.754  0.7845  0.0476 -1.2707
  839SOL    HW2 2517   0.663   0.052   2.817 -2.5514  0.4371 -0.1409
  840SOL     OW 2518   2.990   0.892   2.716 -0.1751  0.2779  0.2413
  840SOL    HW1 2519   3.000   0.908   2.811  4.3590 -0.3296  0.1099
  840SOL    HW2 2520   2.912   0.829   2.693 -1.9705  2.5659 -1.6587
  841SOL     OW 2521   0.700   2.081   2.465  0.3753  0.6121 -0.2877
  841SOL    HW1 2522   0.689   2.181   2.468 -0.4523 -1.1890  0.5663
  841SOL    HW2 2523   0.792   2.046   2.439 -1.8764  0.2058  0.3473
  842SOL     OW 2524   0.839   0.180   1.098 -0.4136  0.2080 -0.2684
  842SOL    HW1 2525   0.766   0.112   1.097 -0.3107  0.0856  0.8951
  842SOL    HW2 2526   0.833   0.242   1.179  0.1702  2.8163 -4.2433
  843SOL     OW 2527   0.268   1.660   2.450  0.4497  0.4044 -0.2870
  843SOL    HW1 2528   0.227   1.754   2.454  0.1776  0.2127 -0.4359
  843SOL    HW2 2529   0.245   1.603   2.535 -2.1778 -3.5947  0.4003
  844SOL     OW 2530   1.532   2.027   2.210 -0.7617 -0.0405 -0.2400
  844SOL    HW1 2531   1.568   1.957   2.146 -0.2149 -0.2426 -0.3931
  844SOL    HW2 2532   1.607   2.070   2.265  1.4415 -0.8007 -0.1662
  845SOL     OW 2533   2.547   2.794   2.524  0.4077  0.4661 -0.0067
  845SOL    HW1 2534   2.590   2.856   2.592 -0.8539 -2.0896 -0.7532
  845SOL    HW2 2535   2.445   2.822   2.516 -1.9397  1.6348 -1.9725
  846SOL     OW 2536   1.984   1.736   2.850  0.6365 -0.1235  0.0989
  846SOL    HW1 2537   2.029   1.826   2.870  1.7647  1.3977  0.5861
  846SOL    HW2 2538   1.952   1.698   2.941  0.0815  0.7477 -3.6794
  847SOL     OW 2539   2.557   0.101   2.731  0.6779  0.6019  0.0275
  847SOL    HW1 2540   2.524   0.149   2.650  2.2875 -0.1710  0.9222
  847SOL    HW2 2541   2.589   0.009   2.712 -2.7964  0.5759  1.3598
  848SOL     OW 2542   2.521   0.529   0.325 -0.1676  0.2329  0.0400
  848SOL    HW1 2543   2.552   0.472   0.250 -1.2812  1.8787  1.3144
  848SOL    HW2 2544   2.504   0.471   0.412  0.4943  2.0900 -0.4782
  849SOL     OW 2545   1.429   0.224   2.698  0.3316  0.7454 -0.6263
  849SOL    HW1 2546   1.408   0.196   2.602  2.0459 -1.9221 -0.0657
  849SOL    HW2 2547   1.467   0.319   2.695  0.0834  1.1843  1.0111
  850SOL     OW 2548   2.667   0.756   0.535  0.7247 -0.1043  0.3886
  850SOL    HW1 2549   2.673   0.833   0.473 -0.5102  0.8360  1.8165
  850SOL    HW2 2550   2.752   0.704   0.538 -1.1940 -0.3363 -0.8178
  851SOL     OW 2551   0.142   1.176   0.870 -0.1083 -0.7580 -0.0213
  851SOL    HW1 2552   0.224   1.202   0.813  0.5683  1.5764 -1.2055
  851SOL    HW2 2553   0.138   1.074   0.886  0.0956 -1.3505  0.0499
  852SOL     OW 2554   1.195   0.818   2.337 -0.4857 -0.1909  0.1338
  852SOL    HW1 2555   1.165   0.797   2.431 -0.8321 -0.0740  2.5334
  852SOL    HW2 2556   1.152   0.904   2.308 -1.8805  0.2354  0.3217
  853SOL     OW 2557   1.792   1.272   2.882 -0.0123  0.3336 -0.0644
  853SOL    HW1 2558   1.888   1.289   2.850 -0.2380  2.0652  0.8753
  853SOL    HW2 2559   1.767   1.171   2.875  1.2496 -2.2651  0.7948
  854SOL     OW 2560   1.183   1.128   1.933 -0.1204  1.1539  0.7053
  854SOL    HW1 2561   1.160   1.045   1.872  1.3580 -1.2422  0.9098
  854SOL    HW2 2562   1.152   1.125   2.030  1.8138 -2.8964 -0.9740
  855SOL     OW 2563   0.420   2.355   2.022 -0.0443 -0.4178  0.1511
  855SOL    HW1 2564   0.331   2.312   2.008  0.1077  1.1641 -2.7068
  855SOL    HW2 2565   0.407   2.430   2.089  0.6658  0.0389 -0.4325
  856SOL     OW 2566   1.253   1.162   2.352  0.0816 -0.2386 -0.0792
  856SOL    HW1 2567   1.194   1.228   2.404  1.5831  0.9713 -0.6507
  856SOL    HW2 2568   1.201   1.115   2.279  0.8547  0.9870 -0.7539
  857SOL     OW 2569   0.949   1.063   2.610 -0.2351 -0.2718  0.3328
  857SOL    HW1 2570   0.920   1.068   2.704  1.6020 -2.2251 -1.7252
  857SOL    HW2 2571   1.003   0.983   2.595 -0.9219 -1.3309  3.0902
  858SOL     OW 2572   0.134   0.576   1.777  0.2621 -0.6110 -0.3404
  858SOL    HW1 2573   0.043   0.617   1.777  0.8808  2.2009 -3.0438
  858SOL    HW2 2574   0.184   0.591   1.865 -0.0752  3.1881  1.0505
  859SOL     OW 2575   2.160   2.930   0.966  0.0405 -0.1588  0.3524
  859SOL    HW1 2576   2.178   2.987   1.049 -1.5170  0.8533 -0.5786
  859SOL    HW2 2577   2.113   2.843   0.991 -0.3668  0.0128 -1.8990
  860SOL     OW 2578   1.296   0.683   1.561 -0.0416  0.2353 -0.0182
  860SOL    HW1 2579   1.224   0.733   1.511 -1.8404  1.0939 -2.8846
  860SOL    HW2 2580   1.268   0.672   1.655  1.2597 -0.5513 -0.2353
  861SOL     OW 2581   1.860   0.880   1.225 -0.6667 -0.1346 -0.3608
  861SOL    HW1 2582   1.870   0.783   1.256  0.8521 -0.9184 -1.0488
  861SOL    HW2 2583   1.905   0.952   1.285  1.6692 -1.5215 -0.0820
  862SOL     OW 2584   1.204   0.248   2.113 -0.2167  0.4957 -0.8028
  862SOL    HW1 2585   1.123   0.290   2.065 -0.5187  0.5547  0.4321
  862SOL    HW2 2586   1.223   0.306   2.196  0.1779  1.4089  0.8796
  863SOL     OW 2587   2.547   0.248   1.432  0.1853 -0.7022  0.2351
  863SOL    HW1 2588   2.474   0.242   1.502 -0.0008 -2.6583  2.2752
  863SOL    HW2 2589   2.628   0.295   1.469 -0.0509 -0.5450  2.2400
  864SOL     OW 2590   3.002   2.918   2.384  0.2862  0.5980  0.0223
  864SOL    HW1 2591   2.933   2.842   2.390  0.1233  2.1529  1.2975
  864SOL    HW2 2592   3.024   2.946   2.287  1.3123  0.2697 -0.2337
  865SOL     OW 2593   1.090   1.324   2.508  0.7362  0.5121  0.4810
  865SOL    HW1 2594   1.018   1.298   2.572 -0.3864  0.5785 -1.1241
  865SOL    HW2 2595   1.077   1.424   2.500 -0.1688 -0.9799 -1.5498
  866SOL     OW 2596   2.730   2.665   1.072 -0.3046  0.4171 -0.2597
  866SOL    HW1 2597   2.811   2.727   1.076 -5.0594  0.8284 -0.7339
  866SOL    HW2 2598   2.735   2.603   1.152 -1.2594  0.6126  3.2176
  867SOL     OW 2599   2.594   2.752   1.320  0.0885  0.0559 -0.7379
  867SOL    HW1 2600   2.694   2.740   1.314 -2.0833  0.3095  1.0921
  867SOL    HW2 2601   2.567   2.735   1.420 -1.1829 -1.5175  2.8872
  868SOL     OW 2602   2.993   1.205   1.262 -0.0527  0.4578 -0.0844
  868SOL    HW1 2603   2.903   1.249   1.243 -1.5607  0.4819 -1.2215
  868SOL    HW2 2604   3.058   1.251   1.193 -1.1823  1.5633 -2.4642
  869SOL     OW 2605   2.270   2.185   2.347  0.6438 -0.3920  0.4512
  869SOL    HW1 2606   2.305   2.236   2.428  1.3169  3.0801 -0.8525
  869SOL    HW2 2607   2.336   2.124   2.293 -0.5926  0.2802 -1.0332
  870SOL     OW 2608   1.614   0.978   0.750  0.2346  0.1011  0.0952
  870SOL    HW1 2609   1.587   0.947   0.846 -1.0842 -1.7873  1.3460
  870SOL    HW2 2610   1.562   1.062   0.724 -2.0308 -0.9308 -2.0789
  871SOL     OW 2611   2.585   1.843   1.935  0.1954  0.5374  0.0321
  871SOL    HW1 2612   2.521   1.780   1.983  1.9664  0.0961 -1.6218
  871SOL    HW2 2613   2.534   1.899   1.866  0.1239  1.2917  0.0206
  872SOL     OW 2614   1.170   1.511   2.785  0.0310  0.2713  0.2809
  872SOL    HW1 2615   1.081   1.514   2.839  2.9499  0.8185  1.0164
  872SOL    HW2 2616   1.241   1.578   2.822 -0.5583  0.7977  0.4489
  873SOL     OW 2617   1.014   1.229   1.716 -0.2970 -0.3467 -0.5195
  873SOL    HW1 2618   0.986   1.135   1.686 -2.3674 -0.1638 -0.2562
  873SOL    HW2 2619   1.085   1.225   1.791  1.1594  1.1737  0.9945
  874SOL     OW 2620   1.278   0.956   1.388 -0.1284 -0.3521  0.5609
  874SOL    HW1 2621   1.315   0.876   1.432 -0.3929  2.3095  1.2018
  874SOL    HW2 2622   1.211   0.932   1.315 -0.4258 -0.1281 -2.9832
  875SOL     OW 2623   2.682   2.956   2.678 -0.0089 -0.0771 -0.3354
  875SOL    HW1 2624   2.756   3.010   2.637  0.7746  0.5566  1.3879
  875SOL    HW2 2625   2.721   2.875   2.737 -0.4310 -1.0945 -1.4281
  876SOL     OW 2626   0.996   0.976   0.430 -0.1140  0.0305  0.2536
  876SOL    HW1 2627   0.899   0.964   0.449  2.8822 -1.5488  0.5615
  876SOL    HW2 2628   1.013   1.017   0.333  1.0016  2.3198 -1.5627
  877SOL     OW 2629   1.797   2.741   0.513 -0.3444 -0.1543  0.1023
  877SOL    HW1 2630   1.859   2.773   0.443 -0.4007 -0.6806  0.9909
  877SOL    HW2 2631   1.759   2.823   0.557  1.6291  0.5797 -1.4663
  878SOL     OW 2632   2.426   2.154   0.148 -0.1077 -0.5617  0.2193
  878SOL    HW1 2633   2.382   2.065   0.164  1.7386  0.8620  1.9204
  878SOL    HW2 2634   2.360   2.232   0.130 -3.5533  1.5101 -0.8942
  879SOL     OW 2635   0.397   2.457   1.645  0.2807 -0.1656  0.2796
  879SOL    HW1 2636   0.315   2.460   1.700  1.4287  1.2207 -3.1704
  879SOL    HW2 2637   0.380   2.380   1.583 -2.1463 -0.1944  0.0754
  880SOL     OW 2638   0.312   1.765   0.851 -0.2063  0.4745 -0.1223
  880SOL    HW1 2639   0.280   1.842   0.913  1.4417  1.4749  3.1136
  880SOL    HW2 2640   0.416   1.747   0.869  2.3841  1.3058  1.8496
  881SOL     OW 2641   1.365   0.252   2.417  0.0134  0.5060  0.4503
  881SOL    HW1 2642   1.269   0.214   2.410 -0.1011 -2.2293  1.7325
  881SOL    HW2 2643   1.373   0.348   2.381  0.5811 -0.6072 -0.7596
  882SOL     OW 2644   2.458   0.993   0.498 -0.3749  0.1709  0.0674
  882SOL    HW1 2645   2.487   1.087   0.526  0.0808 -0.5777 -2.0210
  882SOL    HW2 2646   2.467   0.924   0.571  0.1729 -0.9727  0.3106
  883SOL     OW 2647   1.474   0.767   2.366  0.5583 -0.3176 -0.3369
  883SOL    HW1 2648   1.490   0.811   2.455 -2.0401 -1.6744  0.3089
  883SOL    HW2 2649   1.375   0.779   2.332 -3.0121  0.1374 -0.9986
  884SOL     OW 2650   0.051   0.097   1.945 -0.5457 -0.0730  0.7286
  884SOL    HW1 2651   3.068   0.121   1.880 -0.6344  0.4163  1.0724
  884SOL    HW2 2652   0.136   0.087   1.889  0.0064 -1.9252 -2.9819
  885SOL     OW 2653   2.135   1.438   2.447  0.0491  0.1824 -0.7830
  885SOL    HW1 2654   2.120   1.493   2.364 -2.6333  0.3918  1.8623
  885SOL    HW2 2655   2.139   1.498   2.529  1.6822  0.5682 -1.6970
  886SOL     OW 2656   1.689   0.104   2.792  0.5926  0.1164 -0.4732
  886SOL    HW1 2657   1.619   0.159   2.841  2.0556 -0.7086  0.4311
  886SOL    HW2 2658   1.746   0.161   2.736 -1.0636 -0.3628  1.3259
  887SOL     OW 2659   1.054   2.792   1.750  0.0950  0.4120  0.4331
  887SOL    HW1 2660   1.141   2.843   1.765 -1.6537 -0.2832  0.3356
  887SOL    HW2 2661   1.074   2.695   1.708 -0.2364 -0.0292 -2.0480
  888SOL     OW 2662   2.453   1.018   1.582  0.1723  0.2815 -0.7275
  888SOL    HW1 2663   2.443   1.093   1.654 -0.0456 -1.4416  0.4025
  888SOL    HW2 2664   2.549   1.003   1.558 -0.6709 -1.7222 -0.5478
  889SOL     OW 2665   2.049   2.469   1.422 -0.4745 -0.0034 -0.2954
  889SOL    HW1 2666   2.050   2.450   1.320 -1.2442 -3.3546 -0.0464
  889SOL    HW2 2667   2.038   2.384   1.475  0.7176 -0.6221 -0.7393
  890SOL     OW 2668   0.997   2.225   0.891 -0.0138  0.1020 -0.3659
  890SOL    HW1 2669   1.063   2.148   0.889  0.8790  2.5637  0.7253
  890SOL    HW2 2670   1.048   2.315   0.916 -0.2759 -0.4405  3.3743
  891SOL     OW 2671   2.601   1.415   0.023 -0.4121  0.5760 -0.0690
  891SOL    HW1 2672   2.657   1.333   0.002  2.6627  0.5203  0.4726
  891SOL    HW2 2673   2.615   1.446   0.118  1.7729  0.6231  0.4765
  892SOL     OW 2674   2.601   1.750   2.512 -0.5569 -0.2336  0.1147
  892SOL    HW1 2675   2.612   1.853   2.528 -0.6821  1.3509 -0.9054
  892SOL    HW2 2676   2.660   1.715   2.437 -0.5752  2.7705 -1.1731
  893SOL     OW 2677   2.223   2.616   1.069 -0.0257 -0.2189  0.3641
  893SOL    HW1 2678   2.208   2.625   0.970 -0.1217  0.2049  0.4374
  893SOL    HW2 2679   2.305   2.560   1.086  0.8144  1.9401  1.0725
  894SOL     OW 2680   2.953   0.686   0.626  0.0190  0.3346 -0.0019
  894SOL    HW1 2681   2.925   0.712   0.719  1.8083  0.1975 -0.6603
  894SOL    HW2 2682   3.002   0.599   0.626  0.1177  1.7998 -2.9864
  895SOL     OW 2683   2.910   2.469   2.677 -0.0410 -0.7061  0.3594
  895SOL    HW1 2684   2.925   2.420   2.588 -0.4676 -0.8116 -4.0151
  895SOL    HW2 2685   3.001   2.500   2.715  0.5903  0.4258  0.6871
  896SOL     OW 2686   2.147   2.647   2.569  0.1542 -0.2908  0.2162
  896SOL    HW1 2687   2.189   2.678   2.657 -0.1914  0.6558 -1.0254
  896SOL    HW2 2688   2.058   2.597   2.591 -0.3329 -1.4968  0.3632
  897SOL     OW 2689   0.208   1.671   1.738 -0.0214 -0.9648 -0.4989
  897SOL    HW1 2690   0.175   1.609   1.665 -0.6103  0.8508 -0.1225
  897SOL    HW2 2691   0.190   1.644   1.834 -0.0989  0.7800 -1.9161
  898SOL     OW 2692   0.111   1.957   2.146  0.4554  0.5132 -0.4667
  898SOL    HW1 2693   0.089   1.914   2.054  1.7342 -1.4658  1.8798
  898SOL    HW2 2694   0.041   2.025   2.172  1.7214 -0.2346  0.0765
  899SOL     OW 2695   1.877   0.089   1.381  0.3212  0.1400 -0.1047
  899SOL    HW1 2696   1.786   0.047   1.387  2.3326  0.7338 -0.4510
  899SOL    HW2 2697   1.945   0.015   1.376 -0.1810  1.8731  0.7397
  900SOL     OW 2698   1.412   1.144   0.327  0.0291 -0.3220  0.4676
  900SOL    HW1 2699   1.502   1.193   0.325  0.4295  0.0647 -0.5387
  900SOL    HW2 2700   1.418   1.061   0.269 -1.5476  0.8449 -0.5238
  901SOL     OW 2701   1.552   1.375   2.513  0.0133  0.2852  0.1943
  901SOL    HW1 2702   1.553   1.292   2.453 -5.0480 -1.8207  0.6426
  901SOL    HW2 2703   1.486   1.444   2.478 -0.7295  0.0810 -0.1847
  902SOL     OW 2704   2.918   2.424   0.944 -0.2942  0.2072 -0.0267
  902SOL    HW1 2705   2.909   2.492   0.869 -0.3934  0.5031  3.1378
  902SOL    HW2 2706   2.974   2.459   1.024  0.3452  0.0780  2.3386
  903SOL     OW 2707   2.913   1.252   1.991  0.2629  0.8719  0.0217
  903SOL    HW1 2708   2.844   1.259   2.067  0.8590  0.3849 -1.2447
  903SOL    HW2 2709   2.889   1.306   1.912  0.8068 -0.2005  2.3388
  904SOL     OW 2710   1.137   1.519   0.046  0.9135  0.3462 -0.0786
  904SOL    HW1 2711   1.190   1.456   3.079  0.3984  0.4700  0.0836
  904SOL    HW2 2712   1.186   1.608   0.054 -1.7828 -0.4514  0.9642
  905SOL     OW 2713   2.443   2.419   1.571 -0.3843 -0.2860  0.3311
  905SOL    HW1 2714   2.410   2.512   1.592  0.3883  2.0439 -1.3534
  905SOL    HW2 2715   2.522   2.392   1.634  2.3359  1.5006 -1.2832
  906SOL     OW 2716   1.868   2.504   2.885  0.0928  0.9729  0.7988
  906SOL    HW1 2717   1.799   2.447   2.930 -1.2996 -0.3828 -3.6634
  906SOL    HW2 2718   1.955   2.506   2.940 -1.3787  2.3307  1.0944
  907SOL     OW 2719   0.173   2.779   1.059  0.3529  0.1686  0.4252
  907SOL    HW1 2720   0.251   2.748   1.119  0.2041 -0.0736  1.7833
  907SOL    HW2 2721   0.213   2.865   1.011 -0.0634  1.0697 -1.7034
  908SOL     OW 2722   0.714   0.059   1.776 -0.4166 -0.0313 -0.3020
  908SOL    HW1 2723   0.804   0.077   1.822 -2.9059  0.9884 -1.5102
  908SOL    HW2 2724   0.682   3.056   1.800  2.9402  0.1607  0.6853
  909SOL     OW 2725   1.760   0.467   1.492 -0.5251 -0.1725  0.0228
  909SOL    HW1 2726   1.857   0.443   1.501  1.6057 -1.2130  0.0023
  909SOL    HW2 2727   1.741   0.541   1.424  1.1767  0.2325 -1.1179
  910SOL     OW 2728   0.758   0.361   0.325  0.1136  0.2075  0.5570
  910SOL    HW1 2729   0.772   0.432   0.394 -0.6532  0.9617  1.5926
  910SOL    HW2 2730   0.656   0.351   0.302 -0.3606  1.0986  1.0039
  911SOL     OW 2731   0.428   0.102   3.011  0.4073 -0.2565 -0.6563
  911SOL    HW1 2732   0.361   0.026   3.021  1.9930  0.0739 -3.0979
  911SOL    HW2 2733   0.469   0.098   2.921 -1.1358 -1.8791 -0.1872
  912SOL     OW 2734   0.048   2.550   2.788  0.1005 -0.0228 -0.2781
  912SOL    HW1 2735   0.073   2.632   2.728  0.1820 -0.2092 -2.3243
  912SOL    HW2 2736   0.125   2.487   2.814  3.0246  0.0656 -1.9748
  913SOL     OW 2737   2.345   2.675   0.213 -0.5988 -0.5708  0.8729
  913SOL    HW1 2738   2.388   2.733   0.138  0.0945  0.2351 -2.0388
  913SOL    HW2 2739   2.418   2.633   0.268 -0.4296  0.8509 -0.9522
  914SOL     OW 2740   1.397   1.776   1.900  0.2474 -0.2546  0.5407
  914SOL    HW1 2741   1.493   1.803   1.888  2.7212  1.3788  0.1491
  914SOL    HW2 2742   1.351   1.829   1.971  0.1037  4.3334 -0.2922
  915SOL     OW 2743   2.963   2.601   2.236  0.3882  0.5889 -0.1101
  915SOL    HW1 2744   3.027   2.631   2.160 -1.5779  1.6015  0.5494
  915SOL    HW2 2745   2.895   2.676   2.257 -0.7040  0.2052  2.4866
  916SOL     OW 2746   3.066   0.839   2.141  0.2086 -0.4992  0.2366
  916SOL    HW1 2747   3.048   0.854   2.047  0.5587  0.2477  4.9389
  916SOL    HW2 2748   0.077   0.853   2.156  0.6259 -4.0567 -0.9233
  917SOL     OW 2749   1.969   0.069   0.078  0.6394 -0.4543  0.0277
  917SOL    HW1 2750   2.034   0.033   0.148  0.0524 -1.7022  0.6568
  917SOL    HW2 2751   1.874   0.035   0.092  1.6497  1.9464  1.0529
  918SOL     OW 2752   1.868   2.631   2.264 -0.7470  0.0402 -0.2257
  918SOL    HW1 2753   1.851   2.539   2.301 -2.3796  2.2149  0.7168
  918SOL    HW2 2754   1.920   2.692   2.331  1.9520 -0.3938  1.3676
  919SOL     OW 2755   1.604   2.011   1.702  0.5986  0.0193 -0.4209
  919SOL    HW1 2756   1.603   2.092   1.644 -0.1717  1.6348 -3.4569
  919SOL    HW2 2757   1.551   2.031   1.788  0.9801  1.3784  0.3100
  920SOL     OW 2758   0.186   0.999   0.309 -0.0633 -0.0962  0.6454
  920SOL    HW1 2759   0.090   0.967   0.314 -4.6173  0.2137 -1.8527
  920SOL    HW2 2760   0.241   0.998   0.397 -1.2158 -2.2065 -0.7398
  921SOL     OW 2761   2.469   1.144   2.488 -0.2866 -0.1583  0.2221
  921SOL    HW1 2762   2.465   1.243   2.451  1.5428  4.9223 -1.5636
  921SOL    HW2 2763   2.557   1.127   2.533 -1.3027 -1.4289 -1.4853
  922SOL     OW 2764   0.725   1.932   0.147  0.1701 -0.9095 -0.3513
  922SOL    HW1 2765   0.676   1.918   0.058 -0.7884  0.6259  2.2127
  922SOL    HW2 2766   0.668   1.988   0.214  1.9547 -0.3838 -1.3083
  923SOL     OW 2767   0.555   0.940   2.260  0.2566 -0.0163 -0.2940
  923SOL    HW1 2768   0.587   1.009   2.193 -2.4782 -0.8565 -2.1389
  923SOL    HW2 2769   0.620   0.860   2.253  0.6685 -1.8236 -0.4364
  924SOL     OW 2770   0.655   2.485   2.579 -0.2699  0.0442  0.1600
  924SOL    HW1 2771   0.750   2.471   2.538  2.1420  1.1398 -3.5979
  924SOL    HW2 2772   0.659   2.522   2.672 -0.1415 -2.5231 -1.7859
  925SOL     OW 2773   1.592   1.229   1.094 -0.1032  0.2849 -0.0818
  925SOL    HW1 2774   1.641   1.237   1.006  0.7063  0.7711  2.5803
  925SOL    HW2 2775   1.515   1.297   1.091 -0.9164 -0.2354  2.0336
  926SOL     OW 2776   1.545   0.508   2.411 -0.1666 -0.0126 -0.4533
  926SOL    HW1 2777   1.496   0.598   2.401 -1.3503 -2.3498  0.1518
  926SOL    HW2 2778   1.637   0.527   2.452 -0.2390 -0.9182 -0.0851
  927SOL     OW 2779   2.669   2.758   2.062  0.3331 -0.2661  0.1193
  927SOL    HW1 2780   2.657   2.663   2.024  0.1505  0.3758  0.5618
  927SOL    HW2 2781   2.690   2.824   1.984  2.3017  0.4785  0.5388
  928SOL     OW 2782   0.362   1.115   2.864 -0.2162  0.7758 -0.0446
  928SOL    HW1 2783   0.332   1.199   2.915 -2.5868  2.5639  0.9807
  928SOL    HW2 2784   0.319   1.023   2.887  1.6723 -0.9086 -1.4437
  929SOL     OW 2785   0.094   0.167   0.694 -0.0237  0.6006 -0.2450
  929SOL    HW1 2786   0.127   0.097   0.754 -3.8888  1.4406 -1.4992
  929SOL    HW2 2787   0.173   0.229   0.677  2.3832 -0.1060  0.6830
  930SOL     OW 2788   2.311   0.223   2.037  1.0474  0.4158  0.1672
  930SOL    HW1 2789   2.253   0.161   1.985  2.3736  0.5631  2.4147
  930SOL    HW2 2790   2.357   0.290   1.975 -1.6083 -0.5385  0.8144
  931SOL     OW 2791   2.310   1.228   0.011  0.0404  0.0959  0.3228
  931SOL    HW1 2792   2.350   1.233   3.011 -0.5223  0.5251  0.0882
  931SOL    HW2 2793   2.216   1.192   0.023 -2.0394  0.1372 -0.4722
  932SOL     OW 2794   2.563   1.574   1.627 -0.1578 -0.1827  0.1359
  932SOL    HW1 2795   2.582   1.578   1.725 -1.7173 -1.6826  1.0032
  932SOL    HW2 2796   2.644   1.522   1.585 -2.7534  0.8094 -1.4066
  933SOL     OW 2797   2.856   2.518   1.565  0.1911  0.2950  0.0630
  933SOL    HW1 2798   2.945   2.543   1.607  0.7022  2.0732  1.0989
  933SOL    HW2 2799   2.793   2.596   1.561 -1.5012 -0.4179  1.1713
  934SOL     OW 2800   0.385   2.692   1.191 -0.2894  0.2113  0.9078
  934SOL    HW1 2801   0.471   2.694   1.135  1.5334  1.0601 -1.1001
  934SOL    HW2 2802   0.413   2.666   1.285  2.4712  1.6434 -1.1099
  935SOL     OW 2803   2.478   1.048   2.185 -0.9299 -0.4234  0.1012
  935SOL    HW1 2804   2.449   1.039   2.282  1.6458  0.3932 -0.5852
  935SOL    HW2 2805   2.508   1.146   2.169  2.4188 -2.6720 -0.9640
  936SOL     OW 2806   2.338   0.924   1.972 -0.0685  0.1849 -0.0656
  936SOL    HW1 2807   2.357   0.888   1.877 -1.1903 -2.7215 -2.3753
  936SOL    HW2 2808   2.428   0.949   2.025  0.3875  0.1346 -0.2315
  937SOL     OW 2809   1.933   1.009   2.256 -0.2683  0.3440 -0.0365
  937SOL    HW1 2810   1.921   1.013   2.153 -0.1123 -0.3589 -4.8874
  937SOL    HW2 2811   2.028   0.996   2.279 -1.1512  1.8371  0.3528
  938SOL     OW 2812   0.650   2.742   0.066 -0.0221 -0.3350 -0.2737
  938SOL    HW1 2813   0.623   2.680   0.148 -3.4406 -1.6010 -0.1641
  938SOL    HW2 2814   0.722   2.811   0.081 -0.6026 -0.7637 -2.5189
  939SOL     OW 2815   2.312   0.627   0.080 -0.0855  0.3378  0.6050
  939SOL    HW1 2816   2.239   0.693   0.063  0.3308 -1.3581  0.9937
  939SOL    HW2 2817   2.364   0.656   0.164 -0.0601  0.4342  0.7446
  940SOL     OW 2818   1.175   2.021   0.838  0.2581  0.7941  0.7409
  940SOL    HW1 2819   1.227   1.975   0.908  2.3906  1.5849 -0.4527
  940SOL    HW2 2820   1.152   1.953   0.767  0.9484 -0.5996  1.3317
  941SOL     OW 2821   1.029   2.031   1.651 -0.7279 -0.4332 -0.0347
  941SOL    HW1 2822   0.978   2.102   1.599  0.8314  2.1457 -0.4191
  941SOL    HW2 2823   1.012   1.942   1.607 -0.9722  3.5155 -2.0403
  942SOL     OW 2824   0.261   2.075   2.873  0.1246 -0.1086  0.0648
  942SOL    HW1 2825   0.246   1.982   2.833  2.7178 -1.4056 -2.0158
  942SOL    HW2 2826   0.178   2.136   2.862  0.7808  0.2148  2.0612
  943SOL     OW 2827   2.221   2.966   1.753 -0.0705  0.3526 -0.2372
  943SOL    HW1 2828   2.171   2.877   1.755 -0.4994 -0.0324  1.5361
  943SOL    HW2 2829   2.263   2.984   1.661  1.2286  0.9811  0.4849
  944SOL     OW 2830   1.458   1.988   2.810 -0.0007  0.8736 -0.0396
  944SOL    HW1 2831   1.535   1.965   2.872 -0.1202  0.3000 -0.3979
  944SOL    HW2 2832   1.399   2.057   2.857 -0.4051  1.7010  1.9715
  945SOL     OW 2833   2.500   2.445   0.618  0.4972  0.0849 -0.0400
  945SOL    HW1 2834   2.502   2.349   0.654  0.3110  0.4963 -0.0142
  945SOL    HW2 2835   2.521   2.507   0.696  0.1364 -0.8362 -0.2870
  946SOL     OW 2836   1.103   1.600   2.537  0.0860 -0.0591 -0.3473
  946SOL    HW1 2837   1.064   1.694   2.534 -1.9907 -0.4815  2.1047
  946SOL    HW2 2838   1.122   1.575   2.636  1.2892 -1.1337  0.8682
  947SOL     OW 2839   0.240   0.609   2.038 -0.0624  0.1489 -0.1522
  947SOL    HW1 2840   0.234   0.657   2.129  1.3047  1.0828 -2.4000
  947SOL    HW2 2841   0.291   0.520   2.052 -0.3628 -0.0101 -0.4063
  948SOL     OW 2842   3.053   1.358   0.717 -0.5286  0.0827  0.2981
  948SOL    HW1 2843   0.022   1.307   0.780 -0.9497  4.0543 -3.9180
  948SOL    HW2 2844   3.009   1.291   0.654  1.6445  2.0635  1.3816
  949SOL     OW 2845   0.768   0.755   2.261 -0.1606 -0.0603  0.1960
  949SOL    HW1 2846   0.810   0.674   2.302 -0.6394 -2.8065 -2.6429
  949SOL    HW2 2847   0.823   0.789   2.184  0.0975  1.4551  2.6351
  950SOL     OW 2848   0.077   0.592   1.469 -0.6164 -0.1852  0.3193
  950SOL    HW1 2849   0.054   0.500   1.429  1.9385 -2.2374 -1.2403
  950SOL    HW2 2850   0.082   0.588   1.572  0.9475  0.3937  0.7823
  951SOL     OW 2851   0.602   1.255   2.807  0.4509  0.1040  0.3233
  951SOL    HW1 2852   0.587   1.331   2.740  0.1718  0.4463 -1.1473
  951SOL    HW2 2853   0.525   1.190   2.805 -1.4735  2.1370 -1.9017
  952SOL     OW 2854   1.735   2.056   0.964 -0.0450 -0.1267  0.5049
  952SOL    HW1 2855   1.670   2.117   1.018  1.2881  1.5588 -0.1575
  952SOL    HW2 2856   1.824   2.101   0.939  2.1379 -0.9650  0.1880
  953SOL     OW 2857   0.643   0.104   0.101  0.1771  0.0536  0.0215
  953SOL    HW1 2858   0.595   0.166   0.164  0.7102 -2.4241  0.0997
  953SOL    HW2 2859   0.582   0.080   0.021 -0.9220  0.2083 -0.5915
  954SOL     OW 2860   2.585   0.629   1.055  0.3030  0.1741 -0.0448
  954SOL    HW1 2861   2.607   0.562   1.134 -1.8544 -2.4696  0.7402
  954SOL    HW2 2862   2.645   0.617   0.974 -2.7195 -0.7531 -0.7014
  955SOL     OW 2863   1.572   1.437   2.791 -0.8010 -0.3954  0.0681
  955SOL    HW1 2864   1.657   1.413   2.838 -1.0961 -2.1057 -1.4329
  955SOL    HW2 2865   1.563   1.411   2.696  0.0340  0.1242 -2.0040
  956SOL     OW 2866   1.128   0.781   2.613 -0.2903  0.1977  0.4167
  956SOL    HW1 2867   1.188   0.857   2.631 -1.8149  0.2327  0.6913
  956SOL    HW2 2868   1.172   0.687   2.620 -1.2603 -0.0948  0.9056
  957SOL     OW 2869   1.210   0.143   1.744 -0.0702  0.0733  0.0523
  957SOL    HW1 2870   1.268   0.161   1.829 -0.6270  1.8468  0.1463
  957SOL    HW2 2871   1.254   0.184   1.661 -0.7499  1.4246 -0.1756
  958SOL     OW 2872   0.372   2.035   0.408 -0.0402  0.7108  0.0774
  958SOL    HW1 2873   0.300   2.004   0.470 -0.4842  1.2336 -1.0821
  958SOL    HW2 2874   0.324   2.066   0.321  0.1495  1.6276 -3.5469
  959SOL     OW 2875   2.068   0.897   1.826  0.1576 -0.5983 -0.0345
  959SOL    HW1 2876   2.165   0.916   1.863 -0.2194  0.0174  2.0384
  959SOL    HW2 2877   2.028   0.821   1.879  0.3463  0.8819 -2.1617
  960SOL     OW 2878   0.119   1.779   2.917  0.0415  0.4481 -0.1952
  960SOL    HW1 2879   0.198   1.801   2.857  2.4259 -1.7034 -2.7166
  960SOL    HW2 2880   0.145   1.791   3.015  1.0624  0.2160  0.3515
  961SOL     OW 2881   0.791   1.870   0.975  0.1259 -0.2094 -0.0518
  961SOL    HW1 2882   0.791   1.971   0.962 -2.4492 -0.9338  1.8644
  961SOL    HW2 2883   0.889   1.835   0.982 -1.0127  0.3922  0.1346
  962SOL     OW 2884   0.197   1.627   1.357 -0.1349 -0.1957  0.2558
  962SOL    HW1 2885   0.226   1.603   1.264 -1.0725 -3.2464  1.0402
  962SOL    HW2 2886   0.228   1.562   1.432 -0.6539  0.4015  1.9993
  963SOL     OW 2887   1.296   1.943   2.591 -0.1750  0.0515 -0.3314
  963SOL    HW1 2888   1.345   1.890   2.515  2.0078 -1.1350 -2.9283
  963SOL    HW2 2889   1.351   1.964   2.671 -1.6731  0.8693  1.6163
  964SOL     OW 2890   0.305   3.031   2.297  0.1240  0.0691 -1.0196
  964SOL    HW1 2891   0.243   2.948   2.300 -1.2884  0.8853 -0.1475
  964SOL    HW2 2892   0.305   3.069   2.393  2.9143  1.2928 -0.2862
  965SOL     OW 2893   0.026   2.193   2.840  0.6170 -0.5764 -0.1162
  965SOL    HW1 2894   3.090   2.287   2.874 -0.4446 -0.1613 -2.1298
  965SOL    HW2 2895   0.038   2.192   2.737  1.4235 -0.3195 -0.9450
  966SOL     OW 2896   2.808   1.785   2.836 -0.6498 -0.3239 -0.0801
  966SOL    HW1 2897   2.710   1.766   2.817  1.8422  1.1634  1.4918
  966SOL    HW2 2898   2.864   1.706   2.807 -0.6246  1.1572  1.2323
  967SOL     OW 2899   1.742   0.138   0.302 -0.6581 -0.3707  0.0142
  967SOL    HW1 2900   1.707   0.224   0.257  1.1283  0.3469  1.7265
  967SOL    HW2 2901   1.668   0.077   0.341 -2.1835  1.4068  2.1325
  968SOL     OW 2902   2.649   2.958   0.832 -0.3718 -0.0787  0.3115
  968SOL    HW1 2903   2.554   2.928   0.841 -0.1954  0.9353  3.4686
  968SOL    HW2 2904   2.667   3.042   0.889  0.5190  0.5956  0.9018
  969SOL     OW 2905   0.302   1.128   2.124 -0.4055  0.3290 -0.3504
  969SOL    HW1 2906   0.228   1.105   2.061  0.3702 -1.0831  3.4465
  969SOL    HW2 2907   0.355   1.208   2.102 -1.1705 -0.8403  1.9825
  970SOL     OW 2908   1.735   1.791   2.756  0.2629 -0.4097  0.4348
  970SOL    HW1 2909   1.833   1.773   2.772  0.3246  0.6503 -0.9898
  970SOL    HW2 2910   1.690   1.807   2.846 -0.8504  0.0743 -0.7316
  971SOL     OW 2911   2.382   0.186   1.634 -0.3621 -0.3674 -1.1453
  971SOL    HW1 2912   2.290   0.213   1.599 -1.7413  1.0632 -3.0433
  971SOL    HW2 2913   2.385   0.087   1.661  0.8320  0.3135 -0.3175
  972SOL     OW 2914   2.926   0.234   0.786 -0.1708 -0.1643 -0.8301
  972SOL    HW1 2915   2.867   0.288   0.726  0.0223 -1.4710  1.4436
  972SOL    HW2 2916   3.014   0.199   0.743  0.3987 -1.4220 -0.8277
  973SOL     OW 2917   0.334   0.481   2.418 -0.1255  0.5342  0.0749
  973SOL    HW1 2918   0.370   0.436   2.332  0.9375 -1.5752  0.0544
  973SOL    HW2 2919   0.320   0.417   2.493  1.5515  1.3509 -0.2747
  974SOL     OW 2920   2.743   1.032   1.611 -0.3686 -0.6254  0.4086
  974SOL    HW1 2921   2.740   1.060   1.711  0.6386  0.4455 -0.0651
  974SOL    HW2 2922   2.817   1.083   1.567 -0.4258 -2.1662 -2.6402
  975SOL     OW 2923   1.448   2.888   1.972 -0.1242 -0.3443  0.2725
  975SOL    HW1 2924   1.407   2.922   1.886  1.3134  1.6076  0.9508
  975SOL    HW2 2925   1.419   2.792   1.994 -2.1761  0.5358  2.3777
  976SOL     OW 2926   1.928   1.501   1.316 -0.2463  0.4083 -0.3677
  976SOL    HW1 2927   2.025   1.475   1.310  1.1430 -2.9196  0.7212
  976SOL    HW2 2928   1.916   1.601   1.302 -1.9494  1.9551 -0.0869
  977SOL     OW 2929   0.448   2.806   2.980 -0.1019  0.3678 -0.3338
  977SOL    HW1 2930   0.481   2.825   2.886  1.7819 -1.5226  1.4158
  977SOL    HW2 2931   0.528   2.780   3.045  2.4152 -3.5614  2.1674
  978SOL     OW 2932   1.921   1.549   1.986 -0.4466 -0.0320  0.0800
  978SOL    HW1 2933   1.935   1.515   1.892  2.1747  1.0731  0.9630
  978SOL    HW2 2934   1.842   1.508   2.036 -0.8443 -1.1609  2.0865
  979SOL     OW 2935   1.446   0.836   1.922 -0.5589  0.1171  0.3038
  979SOL    HW1 2936   1.350   0.857   1.910 -1.5127 -1.3869  1.0339
  979SOL    HW2 2937   1.491   0.844   1.830 -0.5150 -3.3334  1.0236
  980SOL     OW 2938   1.744   2.048   2.396  0.0896 -0.1258  0.3520
  980SOL    HW1 2939   1.833   2.093   2.392  0.1006  0.4836  1.3053
  980SOL    HW2 2940   1.716   2.043   2.495  0.1019 -2.3348 -2.6386
  981SOL     OW 2941   1.631   0.631   1.866  0.4603 -0.1219  0.0152
  981SOL    HW1 2942   1.632   0.649   1.766 -5.1201 -0.7500 -1.0809
  981SOL    HW2 2943   1.566   0.686   1.922  1.5733 -1.4835  1.9622
  982SOL     OW 2944   0.487   0.317   0.252  0.5500 -0.3168  0.3404
  982SOL    HW1 2945   0.436   0.266   0.323 -0.7221  1.3460 -1.9054
  982SOL    HW2 2946   0.433   0.347   0.171 -0.9399 -0.5564 -1.4736
  983SOL     OW 2947   2.135   0.812   3.054 -0.5269 -0.1734  0.5416
  983SOL    HW1 2948   2.113   0.897   3.000  0.1044  2.8477 -0.6069
  983SOL    HW2 2949   2.125   0.730   2.992  0.2283 -2.0289 -0.8847
  984SOL     OW 2950   1.104   0.342   2.659  0.1252  0.0134 -0.1261
  984SOL    HW1 2951   1.104   0.251   2.611  0.6230  1.6111 -0.2506
  984SOL    HW2 2952   1.142   0.319   2.749 -0.4251  0.0337 -1.9833
  985SOL     OW 2953   1.417   2.374   2.028  0.5078 -0.1463 -0.2953
  985SOL    HW1 2954   1.409   2.286   1.973  0.7421 -0.3264  0.6897
  985SOL    HW2 2955   1.503   2.383   2.082 -1.2056  1.6684  1.5866
  986SOL     OW 2956   2.382   2.642   1.966 -0.4897  0.1211  0.4289
  986SOL    HW1 2957   2.405   2.740   1.972  0.7062 -1.4547 -0.3932
  986SOL    HW2 2958   2.300   2.616   2.020  2.2140 -1.2645 -0.0039
  987SOL     OW 2959   1.969   1.100   0.940  0.1389  0.3958 -0.2878
  987SOL    HW1 2960   1.991   0.996   0.955  2.6620  0.6910  0.4079
  987SOL    HW2 2961   1.868   1.107   0.942 -0.1619 -0.9170 -1.3671
  988SOL     OW 2962   2.436   1.171   1.822 -0.3914 -0.3568  0.1546
  988SOL    HW1 2963   2.361   1.124   1.876 -2.5186 -1.0726 -0.8467
  988SOL    HW2 2964   2.407   1.265   1.814 -0.0395  1.0132  0.7215
  989SOL     OW 2965   1.427   2.185   0.221 -0.5878 -0.2805  0.7611
  989SOL    HW1 2966   1.455   2.243   0.142 -1.6835 -2.7144 -0.8703
  989SOL    HW2 2967   1.471   2.214   0.308 -1.5332  0.5625  0.5389
  990SOL     OW 2968   1.844   0.761   2.682 -0.2400 -0.0065  0.0758
  990SOL    HW1 2969   1.842   0.865   2.655  0.0807  2.7511 -1.7385
  990SOL    HW2 2970   1.840   0.757   2.785 -0.4772 -1.8334  0.3037
  991SOL     OW 2971   0.930   0.673   0.651  0.2202 -0.5212  1.1500
  991SOL    HW1 2972   0.937   0.775   0.656 -2.5284 -0.9950 -0.9121
  991SOL    HW2 2973   1.028   0.639   0.651 -0.3218  2.7281  1.3501
  992SOL     OW 2974   2.878   0.749   1.297 -0.3144 -0.4697  0.3844
  992SOL    HW1 2975   2.845   0.818   1.232  3.0581  1.7749  1.7525
  992SOL    HW2 2976   2.916   0.668   1.247 -0.3833 -2.3503  0.8446
  993SOL     OW 2977   2.208   0.555   1.986  0.7080 -0.3795  0.4233
  993SOL    HW1 2978   2.143   0.479   1.996 -0.7659 -0.1617 -1.9825
  993SOL    HW2 2979   2.229   0.563   1.884 -1.9478  0.5132 -0.7756
  994SOL     OW 2980   1.148   1.681   1.755  0.9293 -0.1693  0.1540
  994SOL    HW1 2981   1.243   1.675   1.789 -0.8661  0.3857  0.3783
  994SOL    HW2 2982   1.110   1.763   1.805 -1.0981  0.7051 -2.3076
  995SOL     OW 2983   2.145   1.569   2.691  0.3452  0.3565 -0.1363
  995SOL    HW1 2984   2.241   1.602   2.684  4.3254 -1.6595  0.9435
  995SOL    HW2 2985   2.088   1.627   2.754  0.4100 -2.6019  2.2648
  996SOL     OW 2986   2.128   1.721   0.473 -0.0479  0.2242 -0.2753
  996SOL    HW1 2987   2.125   1.784   0.555 -2.4051  2.7254  0.1039
  996SOL    HW2 2988   2.228   1.698   0.452  3.5099 -1.4365 -0.5216
  997SOL     OW 2989   1.999   0.375   1.943 -0.5005 -0.2543 -0.2124
  997SOL    HW1 2990   1.924   0.387   2.012  0.6672  2.0135 -0.5143
  997SOL    HW2 2991   1.959   0.325   1.863  1.4767  0.8635  2.0697
  998SOL     OW 2992   2.506   0.848   0.732  0.2053 -0.4683 -0.1838
  998SOL    HW1 2993   2.543   0.896   0.810 -1.3033 -0.0791  0.2705
  998SOL    HW2 2994   2.576   0.807   0.664 -1.2018 -2.4986 -0.7666
  999SOL     OW 2995   2.620   1.486   0.289  0.4535 -0.3935  0.2939
  999SOL    HW1 2996   2.656   1.576   0.261 -1.7561  1.4226  0.1109
  999SOL    HW2 2997   2.598   1.499   0.391 -4.2121  1.6723  0.2169
 1000SOL     OW 2998   0.657   1.066   2.017  0.4219 -0.0858 -0.5773
 1000SOL    HW1 2999   0.634   1.154   1.972  0.3513 -1.2633 -1.5037
 1000SOL    HW2 3000   0.668   0.985   1.952 -0.7600 -0.2378  0.0359
   3.09379   3.09379   3.09379
