1000 SPC/Fw water molecules t= 266.00000 step= 266000
 3000
    1SOL     OW    1   2.906   2.485   1.254 -0.1467 -0.8474  0.0859
    1SOL    HW1    2   2.974   2.430   1.296 -5.0572  1.9391 -1.8123
    1SOL    HW2    3   2.925   2.585   1.263  0.3238  1.2490  1.6345
    2SOL     OW    4   2.005   2.069   1.213 -0.1220 -0.2507  0.7651
    2SOL    HW1    5   2.023   1.974   1.182 -1.6059 -0.1008 -2.0866
    2SOL    HW2    6   2.080   2.111   1.268 -1.3853  2.1316  2.7056
    3SOL     OW    7   1.172   2.897   3.014 -0.1947 -0.8332 -0.5727
    3SOL    HW1    8   1.079   2.870   2.978  1.3878  1.3864 -1.0928
    3SOL    HW2    9   1.249   2.837   2.986 -1.2918  0.2726  2.0966
    4SOL     OW   10   1.961   2.048   1.588  0.3881  0.2032 -0.3433
    4SOL    HW1   11   1.900   1.999   1.657 -2.4016  1.5396  3.1479
    4SOL    HW2   12   1.944   2.151   1.598 -0.1034  2.0760 -1.2956
    5SOL     OW   13   1.380   0.863   1.386 -0.9801 -0.1699  0.0679
    5SOL    HW1   14   1.397   0.933   1.308  1.6067  3.1804 -1.2418
    5SOL    HW2   15   1.451   0.887   1.457 -0.6062  3.8328 -0.5153
    6SOL     OW   16   2.423   3.065   0.203  0.5133  0.3861 -0.0654
    6SOL    HW1   17   2.357   3.035   0.133  0.6860  2.3558  1.6333
    6SOL    HW2   18   2.515   3.065   0.160 -0.4802 -0.1267 -0.9090
    7SOL     OW   19   2.905   1.137   1.278 -0.0774  0.7255  0.6023
    7SOL    HW1   20   2.929   1.116   1.373  0.1970  0.2498  1.7705
    7SOL    HW2   21   2.926   1.233   1.250  0.8670  0.0620 -1.6793
    8SOL     OW   22   1.353   2.892   1.011  0.5317 -0.1173 -0.2066
    8SOL    HW1   23   1.407   2.930   0.935  1.8150 -1.4535  2.3528
    8SOL    HW2   24   1.375   2.931   1.100 -2.3121 -0.6670 -2.0459
    9SOL     OW   25   1.877   3.110   2.167 -0.1045 -0.4212 -0.0109
    9SOL    HW1   26   1.810   3.038   2.182  1.4538  0.0102 -1.5478
    9SOL    HW2   27   1.837   0.047   2.119 -0.7156 -1.3131 -0.5092
   10SOL     OW   28   0.771   2.296   0.790  0.7247 -0.7011 -0.6368
   10SOL    HW1   29   0.686   2.354   0.771  0.2894 -0.6996 -2.4515
   10SOL    HW2   30   0.820   2.321   0.875 -3.4329  0.9705  2.0177
   11SOL     OW   31   1.310   1.399   0.272 -0.3777  0.0684  0.7407
   11SOL    HW1   32   1.317   1.375   0.172 -1.3316  0.4004 -2.4271
   11SOL    HW2   33   1.247   1.475   0.289  0.6016  2.0527 -1.1350
   12SOL     OW   34   2.837   2.824   1.895 -0.0729 -0.3911 -0.7217
   12SOL    HW1   35   2.858   2.731   1.855 -2.1924 -0.2272  1.7317
   12SOL    HW2   36   2.925   2.871   1.917  1.1451  1.4776 -0.6439
   13SOL     OW   37   1.911   0.038   0.585 -0.3877 -0.4513  0.5435
   13SOL    HW1   38   1.871   0.111   0.642 -0.7837  1.8896 -1.5088
   13SOL    HW2   39   2.010   0.060   0.566  3.8857  1.1285 -3.7628
   14SOL     OW   40   1.475   2.459   1.145  0.7934 -0.4116  0.0130
   14SOL    HW1   41   1.411   2.387   1.101 -2.2280 -0.2363 -1.3477
   14SOL    HW2   42   1.522   2.510   1.071  3.3400  0.8529  0.8347
   15SOL     OW   43   3.040   1.537   1.520  0.4205 -0.0424 -0.2635
   15SOL    HW1   44   3.130   1.561   1.476  0.2702  2.2038 -0.0716
   15SOL    HW2   45   3.055   1.475   1.603 -1.8886 -2.0867 -0.3925
   16SOL     OW   46   2.147   2.276   0.362  0.0677  0.2865  0.4328
   16SOL    HW1   47   2.195   2.366   0.329  0.8052 -0.3593 -1.0671
   16SOL    HW2   48   2.165   2.200   0.296  1.1676 -1.6788  0.1403
   17SOL     OW   49   1.056   3.014   1.490  0.3424  0.0953  0.1074
   17SOL    HW1   50   1.122   3.042   1.561 -1.9512  0.1976 -2.8040
   17SOL    HW2   51   1.055   3.073   1.407 -0.0469  0.5857  1.7725
   18SOL     OW   52   1.292   0.873   3.113  0.1068  0.2887 -0.3819
   18SOL    HW1   53   1.263   0.921   0.056  1.3851 -1.6309  0.6759
   18SOL    HW2   54   1.395   0.861   3.108  0.9758  3.0693 -0.0762
   19SOL     OW   55   1.821   1.883   2.764  0.0851  0.0946 -0.0081
   19SOL    HW1   56   1.918   1.860   2.745  0.6186  0.1231 -0.6057
   19SOL    HW2   57   1.809   1.951   2.840 -1.2416  0.2263 -0.0257
   20SOL     OW   58   2.249   1.843   1.910 -0.4973  0.0010  1.2132
   20SOL    HW1   59   2.239   1.921   1.842  0.8211  0.0145 -2.9145
   20SOL    HW2   60   2.251   1.752   1.864 -1.9232 -2.4568 -1.0628
   21SOL     OW   61   0.898   1.550   0.301  0.7116 -0.7744 -0.1098
   21SOL    HW1   62   0.866   1.477   0.227 -1.8724 -3.4848 -1.9848
   21SOL    HW2   63   0.816   1.597   0.342  0.6042 -0.7444  0.0290
   22SOL     OW   64   1.809   3.050   1.364 -0.6896 -0.6868 -0.3851
   22SOL    HW1   65   1.876   2.973   1.352  0.6985  1.5155  1.2860
   22SOL    HW2   66   1.809   3.113   1.286  1.2105 -1.4786  0.4382
   23SOL     OW   67   2.927   0.851   1.894  0.2538  0.1626 -0.6309
   23SOL    HW1   68   2.912   0.837   1.794 -0.6931 -2.5217  1.8370
   23SOL    HW2   69   2.842   0.828   1.946 -1.6762  0.6633 -1.1382
   24SOL     OW   70   2.268   2.480   0.193 -0.6130  0.5762 -0.1961
   24SOL    HW1   71   2.339   2.536   0.146  0.1858 -2.1295 -0.8825
   24SOL    HW2   72   2.168   2.493   0.165  0.1418 -0.4563 -1.5025
   25SOL     OW   73   1.554   3.047   2.594 -0.2586 -0.2240  0.2694
   25SOL    HW1   74   1.548   3.140   2.628  1.3893 -0.6415  1.8457
   25SOL    HW2   75   1.650   3.015   2.603  1.0260  0.6098 -1.1928
   26SOL     OW   76   1.788   2.238   3.134  0.0152  0.7277 -0.8898
   26SOL    HW1   77   1.861   2.292   3.093  0.4588 -1.4565  0.4185
   26SOL    HW2   78   1.757   2.285   0.075 -0.2503 -0.3591  0.5560
   27SOL     OW   79   2.870   2.011   2.886  0.2180  0.9601  0.2133
   27SOL    HW1   80   2.776   1.970   2.898 -1.0940 -1.5750  0.0118
   27SOL    HW2   81   2.872   2.082   2.813 -1.4335 -0.5515 -0.2218
   28SOL     OW   82   0.236   1.011   1.925 -0.3832  0.4161 -0.3221
   28SOL    HW1   83   0.211   0.914   1.900 -1.4335 -4.0004  0.1050
   28SOL    HW2   84   0.157   1.047   1.982 -2.2551  3.1401 -2.4193
   29SOL     OW   85   2.475   2.348   1.468 -0.0601  0.0272 -0.0129
   29SOL    HW1   86   2.452   2.415   1.544 -0.7620  1.0828  0.3626
   29SOL    HW2   87   2.572   2.346   1.441  0.2046  0.8719  2.6713
   30SOL     OW   88   1.491   0.152   0.666  0.1101 -0.3720 -0.3535
   30SOL    HW1   89   1.438   0.222   0.612 -1.2852 -0.5589 -3.0856
   30SOL    HW2   90   1.538   0.088   0.599  1.0223  1.3043 -0.1128
   31SOL     OW   91   2.601   2.581   1.821  0.8356  0.6722  0.7847
   31SOL    HW1   92   2.554   2.645   1.880  1.2297 -0.7516  0.4146
   31SOL    HW2   93   2.639   2.628   1.733  1.3642  0.5392 -2.9247
   32SOL     OW   94   0.771   1.878   1.094 -0.0611  0.3316 -0.0548
   32SOL    HW1   95   0.793   1.895   0.997  1.4190 -0.5018  1.0387
   32SOL    HW2   96   0.705   1.953   1.116 -1.4828  0.5009 -0.4237
   33SOL     OW   97   0.551   3.137   2.766 -0.7811  0.8087  0.3991
   33SOL    HW1   98   0.470   0.016   2.708  1.1967  0.9527  1.1381
   33SOL    HW2   99   0.538   3.055   2.824 -2.6808  1.7980  0.7475
   34SOL     OW  100   1.443   2.776   0.669 -0.6924 -0.2079 -0.7927
   34SOL    HW1  101   1.440   2.877   0.663 -0.2460  0.6079 -2.3714
   34SOL    HW2  102   1.535   2.737   0.643  0.4986 -0.1023 -0.5571
   35SOL     OW  103   2.234   2.863   1.092 -0.4867 -0.3095 -0.0072
   35SOL    HW1  104   2.264   2.933   1.021 -0.2235  0.2010 -0.0793
   35SOL    HW2  105   2.174   2.905   1.163 -2.7803 -0.7316  1.5966
   36SOL     OW  106   2.012   2.602   2.178 -0.4833 -0.0686 -0.3705
   36SOL    HW1  107   1.966   2.678   2.132 -1.1841  0.8896  1.3349
   36SOL    HW2  108   1.948   2.560   2.247 -0.2301  2.7091 -1.5408
   37SOL     OW  109   0.861   0.126   2.327 -0.3371 -0.4721  0.5081
   37SOL    HW1  110   0.848   0.110   2.225  1.5455  1.7345  0.3492
   37SOL    HW2  111   0.814   0.213   2.349 -1.6154  0.2939 -1.1356
   38SOL     OW  112   0.284   2.574   2.822 -0.4641 -0.1739  0.4085
   38SOL    HW1  113   0.383   2.605   2.810  1.3016  0.1836 -1.8937
   38SOL    HW2  114   0.249   2.523   2.742 -1.8578  1.2647 -0.6565
   39SOL     OW  115   2.273   1.089   1.775  0.1954  0.2498 -0.5005
   39SOL    HW1  116   2.282   1.160   1.705 -0.6036  0.2720 -0.9811
   39SOL    HW2  117   2.206   1.119   1.846  2.2803  1.0886 -0.3727
   40SOL     OW  118   0.661   2.885   0.149 -0.5102 -0.1746 -0.7230
   40SOL    HW1  119   0.565   2.848   0.165  1.7113 -0.6930 -2.2555
   40SOL    HW2  120   0.686   2.968   0.202  0.6175 -1.0271 -1.9030
   41SOL     OW  121   2.096   1.178   0.933  0.0127 -0.3358 -0.2761
   41SOL    HW1  122   2.160   1.123   0.994 -1.7725  1.2552  0.2241
   41SOL    HW2  123   2.139   1.195   0.841  4.1384 -2.5706 -0.6380
   42SOL     OW  124   0.655   0.477   1.084 -0.0125 -0.1946 -0.3971
   42SOL    HW1  125   0.568   0.510   1.032 -3.6667  0.5837  0.2497
   42SOL    HW2  126   0.696   0.546   1.150  0.3625  1.7168  0.3608
   43SOL     OW  127   2.370   1.645   2.767  0.1835 -0.1874 -0.0755
   43SOL    HW1  128   2.377   1.575   2.842  0.2098  0.7576  2.1846
   43SOL    HW2  129   2.296   1.621   2.700 -1.6635  0.9269 -0.7535
   44SOL     OW  130   2.829   0.030   1.285 -0.1104 -0.3047  0.5190
   44SOL    HW1  131   2.871   3.094   1.333 -0.2702  0.3584 -0.6487
   44SOL    HW2  132   2.825   0.110   1.347  0.5620  1.1694  1.2851
   45SOL     OW  133   0.535   3.070   1.506  0.6509  0.0474 -0.1141
   45SOL    HW1  134   0.529   3.130   1.588 -2.1085  0.1918  0.7988
   45SOL    HW2  135   0.607   2.999   1.507 -1.0555  3.5190  2.4240
   46SOL     OW  136   2.205   0.103   2.651 -0.5429  0.3032 -0.2907
   46SOL    HW1  137   2.261   0.072   2.573 -3.9133 -0.0385  2.2888
   46SOL    HW2  138   2.261   0.107   2.735 -1.2706  1.4989  1.6034
   47SOL     OW  139   2.096   1.983   0.668  0.0886 -0.4931 -0.5063
   47SOL    HW1  140   2.088   1.907   0.738 -0.5824  1.1966  0.4786
   47SOL    HW2  141   2.044   1.956   0.589  0.8908 -0.3352 -0.3977
   48SOL     OW  142   0.775   2.177   0.383 -0.5128  0.1711  0.0990
   48SOL    HW1  143   0.789   2.276   0.360  0.6033  0.3548 -0.2062
   48SOL    HW2  144   0.789   2.117   0.295  0.5823 -2.0285 -0.0470
   49SOL     OW  145   2.664   0.316   2.675  0.1274 -0.5912 -0.3058
   49SOL    HW1  146   2.676   0.313   2.576  1.4319 -0.4907 -0.1123
   49SOL    HW2  147   2.586   0.260   2.709 -1.3583  1.2800  1.1740
   50SOL     OW  148   1.958   0.814   0.362  0.2639  0.4077  0.1622
   50SOL    HW1  149   2.051   0.819   0.325 -1.6153 -2.4406  0.7958
   50SOL    HW2  150   1.886   0.803   0.289 -1.9057  1.4118 -1.2497
   51SOL     OW  151   2.149   0.831   0.660  0.1071  0.1720 -0.0576
   51SOL    HW1  152   2.086   0.881   0.721 -1.4564 -1.5456  0.5063
   51SOL    HW2  153   2.124   0.734   0.648  3.1732 -0.8247  2.3583
   52SOL     OW  154   1.582   1.652   1.917  0.3311 -0.4364  0.3920
   52SOL    HW1  155   1.671   1.697   1.891  2.6406  0.9012  2.0132
   52SOL    HW2  156   1.521   1.650   1.836  2.3232 -1.9414 -1.2693
   53SOL     OW  157   0.647   1.808   2.129  0.3324  0.1806 -0.1500
   53SOL    HW1  158   0.659   1.722   2.076 -0.5976 -2.6348  1.1451
   53SOL    HW2  159   0.618   1.887   2.073  0.1830 -0.1169 -0.6645
   54SOL     OW  160   2.182   0.556   1.222 -0.4332  0.3786  0.2427
   54SOL    HW1  161   2.172   0.638   1.166 -0.7751  0.2223 -0.7586
   54SOL    HW2  162   2.279   0.529   1.236 -1.2658 -2.0422 -1.7030
   55SOL     OW  163   2.491   2.107   0.877  0.2546 -0.1361 -0.0718
   55SOL    HW1  164   2.564   2.045   0.910  0.2894  0.4978 -0.1358
   55SOL    HW2  165   2.435   2.054   0.815 -0.4291  0.6295 -1.1149
   56SOL     OW  166   1.176   0.028   1.946  0.4128 -0.2007 -0.1583
   56SOL    HW1  167   1.201   3.109   2.025 -0.4200  1.9514 -2.5179
   56SOL    HW2  168   1.224   0.118   1.965  0.2410  1.1338  2.0902
   57SOL     OW  169   1.454   1.613   0.065 -0.1740 -0.6837 -0.3746
   57SOL    HW1  170   1.448   1.712   0.095 -0.9408  0.9395  0.2860
   57SOL    HW2  171   1.543   1.570   0.093  0.1231  0.1558  0.8362
   58SOL     OW  172   0.113   0.790   2.549 -0.2889 -0.2212 -0.2777
   58SOL    HW1  173   0.151   0.869   2.603  2.3118 -1.3303 -0.2507
   58SOL    HW2  174   0.139   0.695   2.583  2.2288 -5.7955  0.3661
   59SOL     OW  175   1.090   0.164   2.725 -0.4697 -0.1488  0.0304
   59SOL    HW1  176   1.009   0.201   2.771 -1.9926 -0.9594 -2.4107
   59SOL    HW2  177   1.136   0.092   2.781  0.2555 -1.7925  1.5103
   60SOL     OW  178   3.046   2.023   0.402  0.0476 -0.6429 -0.5926
   60SOL    HW1  179   3.028   1.956   0.330 -3.0943 -0.4874 -2.3397
   60SOL    HW2  180   2.971   2.025   0.472  0.3925  1.5297  0.3844
   61SOL     OW  181   1.107   2.198   0.173  0.3574 -0.1632  0.0509
   61SOL    HW1  182   1.063   2.249   0.098 -1.7520  0.0870  2.2128
   61SOL    HW2  183   1.092   2.250   0.262 -3.3990  4.1931  0.8794
   62SOL     OW  184   2.039   2.366   2.374 -0.0576 -0.2277  0.6339
   62SOL    HW1  185   2.061   2.281   2.317 -1.8394  0.6810  1.7469
   62SOL    HW2  186   1.944   2.396   2.360  2.9720  3.9041 -0.6483
   63SOL     OW  187   2.137   2.134   0.137 -0.0519 -0.2325  0.2868
   63SOL    HW1  188   2.229   2.085   0.139  2.3782 -0.9041  2.3372
   63SOL    HW2  189   2.132   2.187   0.052 -0.5055 -0.4085 -0.7737
   64SOL     OW  190   1.563   1.232   2.481 -0.1710 -0.1558  0.4658
   64SOL    HW1  191   1.613   1.142   2.468  2.4928 -0.6234 -0.6145
   64SOL    HW2  192   1.498   1.213   2.557  1.6131  0.8595 -0.0306
   65SOL     OW  193   1.248   2.215   2.583 -0.5708  0.0997 -0.0674
   65SOL    HW1  194   1.226   2.137   2.522  2.1573 -1.4983 -1.5341
   65SOL    HW2  195   1.288   2.180   2.670  0.4183 -1.0773  1.3266
   66SOL     OW  196   0.292   1.636   2.128 -0.3916 -0.3763  0.1724
   66SOL    HW1  197   0.361   1.625   2.202  2.4021  1.3633 -0.4966
   66SOL    HW2  198   0.264   1.543   2.084 -1.4309 -2.5662 -1.0807
   67SOL     OW  199   2.708   2.710   2.995  0.2018 -0.6598 -0.6453
   67SOL    HW1  200   2.725   2.753   3.087 -0.1232 -0.1203  0.3466
   67SOL    HW2  201   2.642   2.756   2.932 -1.5463  0.3861 -1.0947
   68SOL     OW  202   0.737   2.351   1.270  0.3848 -0.1758 -0.2108
   68SOL    HW1  203   0.698   2.427   1.213 -0.6812 -1.6450 -0.6968
   68SOL    HW2  204   0.835   2.338   1.238 -1.7224  1.8503  1.9722
   69SOL     OW  205   0.723   2.688   0.746 -0.4552 -0.1351  0.0106
   69SOL    HW1  206   0.672   2.600   0.733  1.5137  0.2674 -2.5520
   69SOL    HW2  207   0.810   2.688   0.694 -2.9878 -0.2822  0.9090
   70SOL     OW  208   2.672   0.777   2.883 -0.1635  0.1983  0.5740
   70SOL    HW1  209   2.771   0.774   2.863  0.5355 -0.4339  0.6326
   70SOL    HW2  210   2.640   0.693   2.930 -1.1963  1.8421 -0.0733
   71SOL     OW  211   0.754   1.171   2.460 -0.0162  0.0940  0.2080
   71SOL    HW1  212   0.753   1.097   2.394  0.4678  0.4784 -0.4146
   71SOL    HW2  213   0.777   1.263   2.416 -0.6836 -0.2172 -1.7249
   72SOL     OW  214   0.235   1.622   0.321 -0.2103  0.5585  0.2406
   72SOL    HW1  215   0.284   1.639   0.234 -0.1816 -0.8862 -0.3066
   72SOL    HW2  216   0.291   1.658   0.395 -3.2363 -1.0526 -2.2714
   73SOL     OW  217   0.882   1.419   0.532  0.1791 -0.3399 -0.8006
   73SOL    HW1  218   0.896   1.480   0.452  0.3008  1.0064 -1.8971
   73SOL    HW2  219   0.784   1.433   0.574 -1.4821  0.6520  2.2535
   74SOL     OW  220   2.405   2.708   0.075 -0.1323 -0.0590 -0.0758
   74SOL    HW1  221   2.499   2.749   0.076  0.1294  0.5436  0.6370
   74SOL    HW2  222   2.340   2.775   0.115  1.1750 -0.9615 -0.9673
   75SOL     OW  223   2.261   1.582   1.781 -0.2317  0.1715  0.6099
   75SOL    HW1  224   2.190   1.511   1.776  0.1740  0.9896  0.0448
   75SOL    HW2  225   2.332   1.576   1.705 -0.8561  1.3614 -0.4911
   76SOL     OW  226   2.027   2.467   1.830 -0.4353 -0.0999  0.2888
   76SOL    HW1  227   2.114   2.516   1.821  1.9325 -0.2861  0.0205
   76SOL    HW2  228   1.943   2.524   1.851 -1.2666 -1.6874  2.3497
   77SOL     OW  229   2.519   0.230   1.900  0.4727  0.3978  0.3934
   77SOL    HW1  230   2.579   0.228   1.816 -1.6755  1.6581 -1.2524
   77SOL    HW2  231   2.454   0.305   1.889  2.1176  0.3534 -1.4421
   78SOL     OW  232   1.558   0.823   3.054 -0.6441  0.4500  0.2433
   78SOL    HW1  233   1.596   0.732   3.080 -0.0694 -2.1435 -1.2196
   78SOL    HW2  234   1.579   0.840   2.954 -1.5601 -1.2172 -2.7888
   79SOL     OW  235   2.651   1.476   2.053 -0.4164  0.2884  0.4863
   79SOL    HW1  236   2.629   1.514   1.961 -2.0500  0.0535  0.8312
   79SOL    HW2  237   2.750   1.483   2.077 -0.9873  1.2349 -1.5480
   80SOL     OW  238   1.971   1.219   1.189 -0.1569 -0.3492  0.2954
   80SOL    HW1  239   2.004   1.266   1.103 -0.9014  2.1425 -1.1063
   80SOL    HW2  240   2.043   1.180   1.247 -3.0160 -0.1023  2.9470
   81SOL     OW  241   1.443   0.553   1.700  0.3343 -0.2251  0.0662
   81SOL    HW1  242   1.543   0.565   1.726  0.9780  4.8152 -0.7196
   81SOL    HW2  243   1.397   0.642   1.683  0.7293 -0.1220  1.1084
   82SOL     OW  244   1.459   2.575   1.387  0.3284 -0.1341 -0.1151
   82SOL    HW1  245   1.480   2.525   1.299 -0.6228 -1.0049  1.2311
   82SOL    HW2  246   1.375   2.632   1.377  2.9420  2.5235  1.9503
   83SOL     OW  247   0.181   0.209   0.471 -0.3078  0.6197 -0.5197
   83SOL    HW1  248   0.142   0.115   0.456 -0.5100 -3.6520  0.0034
   83SOL    HW2  249   0.128   0.281   0.424  2.3978  0.1927 -0.4040
   84SOL     OW  250   0.167   1.099   2.914  0.4938 -0.1957 -0.0168
   84SOL    HW1  251   0.066   1.100   2.897 -2.5436  0.2596 -1.5156
   84SOL    HW2  252   0.200   1.027   2.980  0.6586 -1.8830  1.5590
   85SOL     OW  253   2.692   1.885   1.922 -0.2651 -0.5949  0.1784
   85SOL    HW1  254   2.612   1.841   1.883 -0.8246  1.2979  1.1116
   85SOL    HW2  255   2.694   1.986   1.926 -0.2165 -1.0536  0.6800
   86SOL     OW  256   2.945   2.086   1.737 -0.3838  0.2152  0.3579
   86SOL    HW1  257   2.938   1.981   1.741  1.2711 -1.5744  2.0260
   86SOL    HW2  258   2.904   2.129   1.821 -0.9518 -2.4922 -0.7817
   87SOL     OW  259   0.621   0.262   2.790 -0.2555  0.8208 -0.2022
   87SOL    HW1  260   0.580   0.168   2.779  0.7921 -0.2466  1.3995
   87SOL    HW2  261   0.587   0.303   2.879  0.0990 -0.5482  0.2914
   88SOL     OW  262   0.405   2.191   1.140  0.0198  0.1843 -0.3149
   88SOL    HW1  263   0.322   2.207   1.080  2.3918  0.3097  0.6801
   88SOL    HW2  264   0.378   2.117   1.197 -0.9406 -2.9277 -2.7094
   89SOL     OW  265   1.077   0.615   1.677 -0.2544  0.0783 -0.0277
   89SOL    HW1  266   1.092   0.556   1.596  2.6784  0.1759  0.4884
   89SOL    HW2  267   1.089   0.562   1.766 -0.1763 -2.9409  0.4593
   90SOL     OW  268   2.814   1.671   1.566 -0.4572  0.3737  0.1708
   90SOL    HW1  269   2.752   1.652   1.486  0.0045 -0.6354  0.7966
   90SOL    HW2  270   2.897   1.616   1.546  1.0002 -0.2342 -0.9503
   91SOL     OW  271   1.233   1.417   0.654 -0.4723  0.5667  0.3637
   91SOL    HW1  272   1.184   1.477   0.591 -0.2343 -2.1606  3.5862
   91SOL    HW2  273   1.169   1.343   0.680  0.3963  0.8420 -0.6122
   92SOL     OW  274   2.101   0.478   0.803  0.5618 -0.3621 -0.0328
   92SOL    HW1  275   2.033   0.495   0.730  2.4094  1.7998  2.3253
   92SOL    HW2  276   2.101   0.563   0.859  2.2794 -2.0323  0.2519
   93SOL     OW  277   1.927   1.123   3.040 -0.4540  0.1517  0.3256
   93SOL    HW1  278   1.836   1.120   3.084  0.8830 -2.0231 -1.6423
   93SOL    HW2  279   1.927   1.191   2.963 -1.1679 -2.0890  4.2818
   94SOL     OW  280   2.515   2.161   2.171  0.1072 -0.0596 -0.2617
   94SOL    HW1  281   2.459   2.219   2.112 -2.2993  2.0132  2.3721
   94SOL    HW2  282   2.500   2.061   2.150 -0.8218 -1.5175 -2.4717
   95SOL     OW  283   2.042   0.234   0.885 -0.3555 -0.7705  0.2113
   95SOL    HW1  284   2.082   0.324   0.846 -0.3774  1.4844  0.7296
   95SOL    HW2  285   2.108   0.156   0.868  1.0158  0.1213 -0.4828
   96SOL     OW  286   2.732   0.168   2.055 -0.5537  0.0441 -0.2491
   96SOL    HW1  287   2.692   0.086   2.101  1.0266 -0.5763  1.7796
   96SOL    HW2  288   2.657   0.219   2.000  0.1616  1.8417 -0.8348
   97SOL     OW  289   2.466   0.352   1.016  0.1942  0.5646  0.5495
   97SOL    HW1  290   2.415   0.381   0.933 -4.4190 -1.8279 -1.5888
   97SOL    HW2  291   2.451   0.253   1.026  0.0430  4.3325  2.7372
   98SOL     OW  292   1.711   2.413   1.510  0.1752  0.0071 -0.2899
   98SOL    HW1  293   1.683   2.376   1.421 -0.9932  2.3039 -1.9561
   98SOL    HW2  294   1.644   2.485   1.540  0.6464  1.6855  0.8226
   99SOL     OW  295   2.387   2.235   1.769 -0.2883  0.6622  0.1587
   99SOL    HW1  296   2.363   2.260   1.866 -0.2027  0.1191  1.1642
   99SOL    HW2  297   2.372   2.320   1.711 -0.3408  2.6842 -0.2070
  100SOL     OW  298   0.470   0.829   2.926  0.1654  0.1056 -0.8796
  100SOL    HW1  299   0.527   0.900   2.876  0.9816  3.6136 -0.3012
  100SOL    HW2  300   0.392   0.863   2.979 -0.5168 -0.3965  0.7448
  101SOL     OW  301   1.946   0.392   3.072  0.1352 -0.0216  0.4612
  101SOL    HW1  302   1.967   0.416   2.971 -1.0940  4.1800 -1.4143
  101SOL    HW2  303   2.027   0.410   3.131 -0.2296 -0.0909 -0.1971
  102SOL     OW  304   0.193   0.757   1.835  0.1933 -0.1561  0.2491
  102SOL    HW1  305   0.118   0.776   1.770  0.7178 -0.3199 -0.9629
  102SOL    HW2  306   0.235   0.669   1.807 -0.9943 -0.4563 -0.7390
  103SOL     OW  307   2.962   1.101   2.442  0.1974  0.4752 -0.2496
  103SOL    HW1  308   3.038   1.140   2.500  0.6428  2.4399 -0.6624
  103SOL    HW2  309   2.944   1.001   2.470 -0.3625 -2.7404 -2.9378
  104SOL     OW  310   0.493   0.303   2.550 -0.1063 -0.4951  0.3421
  104SOL    HW1  311   0.534   0.287   2.644 -1.6679  0.0003  0.4596
  104SOL    HW2  312   0.571   0.333   2.492  0.4186  0.1515 -1.4429
  105SOL     OW  313   2.507   1.802   1.718  0.2904 -0.2132  0.3130
  105SOL    HW1  314   2.435   1.872   1.698  3.5918 -0.0514  0.8395
  105SOL    HW2  315   2.503   1.717   1.670 -1.2042  2.8539  3.0801
  106SOL     OW  316   2.141   0.161   0.535 -0.3112  0.0075  0.1944
  106SOL    HW1  317   2.176   0.114   0.449  1.1279 -1.7859 -0.3196
  106SOL    HW2  318   2.184   0.118   0.615 -2.9567  0.3121 -3.5789
  107SOL     OW  319   0.144   1.656   1.123 -0.3228 -0.0451 -0.2947
  107SOL    HW1  320   0.156   1.637   1.225 -0.5382  0.7912  0.1229
  107SOL    HW2  321   0.213   1.727   1.095  0.0491 -1.7814 -0.4093
  108SOL     OW  322   2.937   2.580   1.815 -0.1994  0.1332  0.7384
  108SOL    HW1  323   3.036   2.547   1.815  0.1510 -0.5251 -1.9351
  108SOL    HW2  324   2.876   2.525   1.874  2.3576 -0.3404 -2.3051
  109SOL     OW  325   2.199   0.032   0.763  0.7842 -0.1403 -0.6050
  109SOL    HW1  326   2.296   0.068   0.752  2.6578  1.5229 -3.5516
  109SOL    HW2  327   2.201   3.074   0.765 -1.5470  3.0776  1.3803
  110SOL     OW  328   0.461   2.166   2.644  0.6998 -0.1719 -0.0363
  110SOL    HW1  329   0.364   2.134   2.640 -2.1540  1.5406 -1.0488
  110SOL    HW2  330   0.524   2.099   2.605  2.9946 -1.2193 -1.0610
  111SOL     OW  331   1.424   2.485   1.648  0.6494  0.2466  0.2870
  111SOL    HW1  332   1.381   2.392   1.653  0.6150  1.8245 -0.2740
  111SOL    HW2  333   1.436   2.512   1.551 -2.4032  2.3851  1.4833
  112SOL     OW  334   1.843   2.746   0.085  0.4126  0.6263 -0.6096
  112SOL    HW1  335   1.772   2.706   0.028 -0.0395 -0.4803  2.4791
  112SOL    HW2  336   1.815   2.833   0.131 -1.3156 -0.8144 -3.3100
  113SOL     OW  337   1.991   2.679   1.507 -0.4667  0.0004 -0.3914
  113SOL    HW1  338   1.924   2.670   1.581  1.3682  1.7067 -0.0129
  113SOL    HW2  339   2.028   2.587   1.477  1.4928  0.9557  0.8437
  114SOL     OW  340   2.890   0.915   0.878 -0.1974 -0.6569  0.3627
  114SOL    HW1  341   2.807   0.872   0.847 -0.7441  0.8303 -0.6108
  114SOL    HW2  342   2.958   0.953   0.811 -0.4173  1.0545  1.1795
  115SOL     OW  343   0.648   1.075   3.107 -0.6978  0.1045  0.5915
  115SOL    HW1  344   0.568   1.128   3.133 -0.1056 -1.8430  0.1618
  115SOL    HW2  345   0.646   0.984   0.017  0.5436 -2.7432  1.7210
  116SOL     OW  346   2.726   1.821   2.174  0.5431  0.2808 -0.3976
  116SOL    HW1  347   2.630   1.812   2.210 -3.1949 -0.2657 -2.4657
  116SOL    HW2  348   2.720   1.832   2.072 -0.1937  0.2499 -0.2351
  117SOL     OW  349   2.911   2.545   0.858 -0.0102 -0.1642 -0.1427
  117SOL    HW1  350   2.827   2.489   0.866 -0.3374 -0.9171 -0.7348
  117SOL    HW2  351   2.884   2.641   0.835 -0.0530 -0.1318  0.2429
  118SOL     OW  352   1.078   2.469   1.822  0.4153  0.0140  0.4315
  118SOL    HW1  353   1.166   2.439   1.859  0.4550 -0.2119 -1.9597
  118SOL    HW2  354   1.041   2.556   1.858  0.3202  1.4722  0.4809
  119SOL     OW  355   0.188   1.932   2.865 -0.3861 -0.6552  0.4954
  119SOL    HW1  356   0.278   1.934   2.914  1.9323  0.4200 -0.5847
  119SOL    HW2  357   0.121   1.981   2.926  0.5346 -3.0288 -3.1719
  120SOL     OW  358   1.111   0.974   2.907  0.1899  0.2668 -0.2237
  120SOL    HW1  359   1.051   1.045   2.947 -0.2549  0.6523  1.4304
  120SOL    HW2  360   1.175   0.945   2.981 -0.4615 -0.3905  0.2602
  121SOL     OW  361   1.641   2.624   0.954  0.5747 -0.1690  0.2736
  121SOL    HW1  362   1.635   2.686   0.871  1.8387  1.4836 -3.1248
  121SOL    HW2  363   1.687   2.536   0.928 -1.2198 -2.2705  0.8075
  122SOL     OW  364   2.374   2.509   1.702 -0.1413 -0.4605 -0.3243
  122SOL    HW1  365   2.308   2.593   1.715 -1.8502 -0.6936 -0.8977
  122SOL    HW2  366   2.467   2.532   1.730  0.4868 -1.0870 -0.1124
  123SOL     OW  367   0.308   3.028   0.907 -0.6730  0.0427  0.5800
  123SOL    HW1  368   0.370   2.948   0.889  4.4023 -0.2629 -1.5024
  123SOL    HW2  369   0.346   3.092   0.982 -1.5712  2.1030 -0.3049
  124SOL     OW  370   2.168   1.207   2.619 -0.7802 -0.0396 -0.7379
  124SOL    HW1  371   2.240   1.136   2.643  5.8720 -1.3673  0.6462
  124SOL    HW2  372   2.116   1.228   2.704 -0.3624 -0.0012  1.1237
  125SOL     OW  373   0.670   0.902   0.538  0.2164 -0.6321 -0.0560
  125SOL    HW1  374   0.622   0.930   0.626 -0.6011  0.0320  3.0663
  125SOL    HW2  375   0.707   0.987   0.488 -1.2209  2.7902 -0.5483
  126SOL     OW  376   3.113   1.350   0.902  0.2964  0.1402  0.2159
  126SOL    HW1  377   3.042   1.280   0.880  0.4362 -3.4489  1.4140
  126SOL    HW2  378   3.090   1.439   0.934  1.6775 -1.9959 -2.0421
  127SOL     OW  379   0.320   1.750   1.879 -0.0717 -0.8392  0.0410
  127SOL    HW1  380   0.319   1.717   1.981  0.8098 -1.3749  2.5455
  127SOL    HW2  381   0.385   1.827   1.860 -0.4562  1.6902 -0.4520
  128SOL     OW  382   0.959   1.041   0.182  0.8198  0.5052  0.4578
  128SOL    HW1  383   1.058   1.026   0.180 -2.6542  1.4667 -0.3193
  128SOL    HW2  384   0.932   1.070   0.088  1.0778 -1.6697  3.0196
  129SOL     OW  385   2.784   1.348   0.833 -0.0622  0.9747  0.0997
  129SOL    HW1  386   2.700   1.405   0.838  1.4781  0.5798  0.8885
  129SOL    HW2  387   2.774   1.260   0.885 -2.9715 -0.4107 -0.2709
  130SOL     OW  388   2.298   0.973   1.386 -0.5428  0.1397 -0.0359
  130SOL    HW1  389   2.395   0.958   1.412  2.3413  0.7965 -0.4898
  130SOL    HW2  390   2.301   1.010   1.293 -0.9268  0.0641 -0.4401
  131SOL     OW  391   2.840   3.090   3.001 -0.5249 -0.1330  0.3575
  131SOL    HW1  392   2.907   3.017   2.972  2.8226  0.3281  0.7358
  131SOL    HW2  393   2.899   0.027   3.024  0.1320 -1.3945  1.2234
  132SOL     OW  394   0.132   1.617   1.410 -0.4010  0.0249 -0.4520
  132SOL    HW1  395   0.116   1.717   1.436  1.6622  0.1413  3.1948
  132SOL    HW2  396   0.200   1.582   1.479  1.1192  0.3300 -1.1361
  133SOL     OW  397   1.291   0.124   1.512  0.4499 -0.1219  0.2110
  133SOL    HW1  398   1.282   0.069   1.594 -1.2515  1.5315  0.6653
  133SOL    HW2  399   1.267   0.223   1.525 -1.7912  1.1661 -0.2545
  134SOL     OW  400   3.124   1.332   0.132 -0.0238  0.4974  0.5176
  134SOL    HW1  401   3.052   1.267   0.168 -1.0636  1.9553 -2.7936
  134SOL    HW2  402   3.084   1.389   0.058 -1.0810  1.0051  0.1367
  135SOL     OW  403   2.273   1.216   1.539 -0.1243 -0.0861  0.2471
  135SOL    HW1  404   2.254   1.132   1.489  0.8344 -3.3336  1.0317
  135SOL    HW2  405   2.335   1.273   1.480 -2.3865 -0.2982  2.0905
  136SOL     OW  406   0.284   0.856   0.347  0.1980 -0.1093  0.0693
  136SOL    HW1  407   0.181   0.855   0.352  1.7826  1.9472 -3.1114
  136SOL    HW2  408   0.322   0.868   0.441  0.2832  2.2342 -0.5740
  137SOL     OW  409   2.746   1.137   1.022  0.1652  0.5824 -0.4656
  137SOL    HW1  410   2.778   1.048   0.986  0.3638 -1.1847 -0.1772
  137SOL    HW2  411   2.771   1.148   1.121  0.4132  2.3316  0.0598
  138SOL     OW  412   1.532   1.121   1.070 -0.1086  0.2913  0.4328
  138SOL    HW1  413   1.456   1.049   1.068 -1.3480 -0.5372  1.3429
  138SOL    HW2  414   1.624   1.076   1.073 -1.5494 -0.4970  0.8398
  139SOL     OW  415   1.933   3.095   3.057  0.1126 -0.0516 -0.3312
  139SOL    HW1  416   1.975   3.005   3.077  0.5575  3.9191 -2.8318
  139SOL    HW2  417   1.843   3.102   3.091  5.2945 -0.7489  0.1773
  140SOL     OW  418   1.581   1.873   1.566 -0.4057  0.8139 -0.3483
  140SOL    HW1  419   1.573   1.783   1.517  0.7069 -0.3079  1.1903
  140SOL    HW2  420   1.554   1.955   1.509  1.3616 -0.0257 -0.5118
  141SOL     OW  421   1.933   2.294   0.514 -0.3906  0.5000  0.1429
  141SOL    HW1  422   2.026   2.299   0.470  0.2824 -0.3398 -2.1437
  141SOL    HW2  423   1.945   2.268   0.610 -1.1031  1.3799 -1.5813
  142SOL     OW  424   0.641   0.838   0.078  0.3895  0.3626  0.4159
  142SOL    HW1  425   0.628   0.798   0.167  0.3744  0.7547 -2.3547
  142SOL    HW2  426   0.670   0.778   0.002 -1.6511 -2.7646  1.5090
  143SOL     OW  427   0.373   2.179   0.226  0.0740 -0.7094  0.3935
  143SOL    HW1  428   0.290   2.183   0.286 -4.7600 -4.0390  2.5453
  143SOL    HW2  429   0.340   2.210   0.132 -0.0902  1.6118 -3.4377
  144SOL     OW  430   1.484   3.011   1.247 -0.0775 -0.2745 -0.0126
  144SOL    HW1  431   1.535   3.098   1.224  0.5423  2.0301 -0.1691
  144SOL    HW2  432   1.549   2.934   1.257 -2.5467  0.6343  0.8448
  145SOL     OW  433   2.251   1.479   0.287 -0.6239 -0.0667  0.6713
  145SOL    HW1  434   2.325   1.459   0.353  0.6520  2.9373 -1.5423
  145SOL    HW2  435   2.187   1.407   0.270  3.3874  2.0503  1.1730
  146SOL     OW  436   3.124   1.754   0.294  0.0383 -0.5541 -0.6111
  146SOL    HW1  437   0.070   1.728   0.345  1.9174 -3.5500  1.2608
  146SOL    HW2  438   3.054   1.698   0.338  2.7111  1.2555 -1.9961
  147SOL     OW  439   2.290   3.064   1.663  0.6430 -0.1923  0.2384
  147SOL    HW1  440   2.223   2.997   1.621  0.7845  1.5880 -0.1816
  147SOL    HW2  441   2.379   3.057   1.614 -1.2169  0.1774 -1.8550
  148SOL     OW  442   1.655   2.965   2.090  0.2546 -0.0964  0.1232
  148SOL    HW1  443   1.641   2.951   1.992 -0.9966 -1.3586 -0.3324
  148SOL    HW2  444   1.565   2.979   2.137  1.3508 -3.6558  0.9980
  149SOL     OW  445   1.850   0.642   2.162  0.4454  0.1063 -0.1599
  149SOL    HW1  446   1.941   0.603   2.146 -2.3660 -0.9210  1.9791
  149SOL    HW2  447   1.836   0.738   2.145 -2.2311 -1.3579  1.2308
  150SOL     OW  448   0.176   3.037   0.637  0.1346  0.0999  0.5885
  150SOL    HW1  449   0.257   3.043   0.697 -2.5876  1.5212  0.6042
  150SOL    HW2  450   0.202   3.012   0.542 -0.9318 -1.1108 -0.4499
  151SOL     OW  451   3.112   1.773   0.017  0.2798  0.3648  0.0624
  151SOL    HW1  452   3.093   1.777   0.120 -0.1259 -0.1261  1.8581
  151SOL    HW2  453   3.100   1.863   3.105  0.4790  3.5578  1.8730
  152SOL     OW  454   2.904   0.040   0.742  0.0220  0.1657  0.6697
  152SOL    HW1  455   2.922   0.004   0.834 -0.1497 -0.8972 -0.2955
  152SOL    HW2  456   2.817   0.093   0.737 -0.4756  0.5228 -2.0349
  153SOL     OW  457   2.423   0.087   1.084  0.0613 -0.2506  0.2996
  153SOL    HW1  458   2.387   0.049   1.168  1.2397  0.2815 -2.0665
  153SOL    HW2  459   2.436   0.017   1.016  0.3300  1.2388 -2.0204
  154SOL     OW  460   1.119   0.421   1.886  0.0278  0.7415  0.0279
  154SOL    HW1  461   1.207   0.371   1.890 -1.8525  0.8766  0.4791
  154SOL    HW2  462   1.094   0.461   1.977  1.7312  1.0088 -0.7370
  155SOL     OW  463   0.071   1.045   1.230 -0.0292 -0.5905  0.4177
  155SOL    HW1  464   0.159   1.064   1.182 -0.8151  0.3244  0.8847
  155SOL    HW2  465   3.133   1.092   1.187 -0.5789  3.2073  0.7835
  156SOL     OW  466   3.118   1.999   3.015 -0.2047 -0.2593 -0.3341
  156SOL    HW1  467   3.122   2.077   3.084 -0.1687 -0.2611  1.9312
  156SOL    HW2  468   3.032   1.995   2.959 -2.8569  0.4981  2.8056
  157SOL     OW  469   0.838   0.451   0.305  0.5975  0.0518  0.2445
  157SOL    HW1  470   0.831   0.459   0.408  1.3317  0.6414  1.2347
  157SOL    HW2  471   0.914   0.506   0.272 -1.2524 -0.6806  1.1254
  158SOL     OW  472   2.659   3.093   2.813 -0.0382  0.0925 -0.5094
  158SOL    HW1  473   2.731   3.084   2.890  1.3083 -1.8901  2.0230
  158SOL    HW2  474   2.712   3.106   2.728 -0.7617 -0.3205  1.0606
  159SOL     OW  475   0.682   3.133   0.293  0.2804  0.2222  0.2795
  159SOL    HW1  476   0.776   0.033   0.280  2.7795 -2.1650 -0.5572
  159SOL    HW2  477   0.614   0.039   0.231 -0.5734 -1.1767 -0.9732
  160SOL     OW  478   1.095   2.133   2.902 -0.3439 -0.8647  0.0457
  160SOL    HW1  479   1.074   2.202   2.974 -0.0413  3.0122 -0.4410
  160SOL    HW2  480   1.200   2.126   2.899 -0.4204  1.8526  0.4891
  161SOL     OW  481   3.077   1.639   2.395  0.1448  0.7342  1.1050
  161SOL    HW1  482   3.128   1.714   2.352  2.3013 -0.7154 -0.0135
  161SOL    HW2  483   2.975   1.661   2.391 -1.1605 -0.7965  0.3182
  162SOL     OW  484   0.564   2.467   1.666  0.3155  0.1538  0.4270
  162SOL    HW1  485   0.590   2.539   1.730  0.9749 -1.1159 -0.8554
  162SOL    HW2  486   0.509   2.505   1.591  0.1363 -2.9148 -0.4527
  163SOL     OW  487   2.042   0.483   2.796 -0.1718 -0.3145 -0.5472
  163SOL    HW1  488   1.977   0.562   2.812  0.8690  1.4190 -1.1270
  163SOL    HW2  489   2.015   0.426   2.718  1.0978  1.6966 -0.3500
  164SOL     OW  490   2.828   1.438   0.598  0.7926  0.0419  0.1324
  164SOL    HW1  491   2.750   1.505   0.588 -3.8954 -1.6836 -2.3198
  164SOL    HW2  492   2.819   1.380   0.684 -1.3753  1.1866 -0.8070
  165SOL     OW  493   0.129   0.249   1.651 -0.3024 -0.0740 -0.9019
  165SOL    HW1  494   0.176   0.201   1.729  1.8120 -1.2119 -0.1463
  165SOL    HW2  495   0.195   0.315   1.613 -1.0195 -0.5666 -0.8367
  166SOL     OW  496   1.968   0.595   0.556 -0.7887  0.2441  0.1152
  166SOL    HW1  497   1.953   0.685   0.507  0.5931  0.8224  0.7895
  166SOL    HW2  498   1.905   0.516   0.536  0.8273 -2.1618  0.9227
  167SOL     OW  499   0.367   0.732   0.114  0.2651  0.1106  0.1953
  167SOL    HW1  500   0.469   0.717   0.116  0.4491 -1.8814 -0.5300
  167SOL    HW2  501   0.332   0.764   0.204 -1.2916  0.7978  0.1314
  168SOL     OW  502   2.083   2.926   1.892 -0.3163  0.0360 -0.2715
  168SOL    HW1  503   2.122   2.956   1.981  0.4972  1.0237  0.4663
  168SOL    HW2  504   2.064   3.002   1.827  0.4627  1.1866  0.4191
  169SOL     OW  505   0.881   1.046   0.853  0.4606 -0.3039  0.7044
  169SOL    HW1  506   0.904   0.956   0.821 -0.2086  2.1418  0.4295
  169SOL    HW2  507   0.947   1.071   0.922 -0.7944 -3.8571 -1.5243
  170SOL     OW  508   2.968   0.435   1.334 -0.3274 -0.0667  0.1506
  170SOL    HW1  509   2.962   0.376   1.251  0.0053 -0.9824  2.4305
  170SOL    HW2  510   3.059   0.433   1.381  1.9794  0.8185 -1.6437
  171SOL     OW  511   1.178   2.880   2.513  0.2588 -0.2867 -0.2189
  171SOL    HW1  512   1.152   2.847   2.603  1.6687  2.1904 -1.5267
  171SOL    HW2  513   1.146   2.973   2.488 -0.3884 -2.7238 -2.6699
  172SOL     OW  514   0.473   2.599   1.396  0.1429  0.0862  0.1600
  172SOL    HW1  515   0.556   2.584   1.346 -2.0761  2.0844  1.3862
  172SOL    HW2  516   0.451   2.699   1.405 -1.1734  2.5337 -1.7151
  173SOL     OW  517   1.416   1.076   2.707  0.1414 -0.3570  0.0076
  173SOL    HW1  518   1.385   1.023   2.625 -0.3507  1.5889 -2.0569
  173SOL    HW2  519   1.454   1.016   2.777  0.0937  0.5252  0.9672
  174SOL     OW  520   1.927   0.031   2.804  0.3254 -0.3179 -0.3201
  174SOL    HW1  521   1.931   0.011   2.907  0.4213 -0.7745 -0.5257
  174SOL    HW2  522   2.017   0.058   2.759  3.7012  0.1068 -1.1863
  175SOL     OW  523   1.803   2.534   0.402 -0.0611 -0.0563  0.4694
  175SOL    HW1  524   1.757   2.520   0.311  0.0624  1.8037 -0.7324
  175SOL    HW2  525   1.849   2.447   0.434  0.2284  0.7655  2.7540
  176SOL     OW  526   1.683   0.190   2.736  0.3053 -0.4877  0.0470
  176SOL    HW1  527   1.656   0.261   2.807  0.4828 -1.0102  2.9947
  176SOL    HW2  528   1.765   0.141   2.766 -0.8278 -0.3855  0.4736
  177SOL     OW  529   1.166   1.578   0.400  0.3606  0.1609 -0.1857
  177SOL    HW1  530   1.217   1.660   0.370  0.5484 -2.5597 -1.5310
  177SOL    HW2  531   1.071   1.574   0.358 -0.9099  0.0507  1.1373
  178SOL     OW  532   2.869   2.200   2.705 -0.3915 -0.0636 -0.7622
  178SOL    HW1  533   2.839   2.298   2.726 -0.6355 -0.4549 -2.8136
  178SOL    HW2  534   2.948   2.203   2.636  2.0746 -2.1437 -1.6538
  179SOL     OW  535   0.545   2.906   2.896  0.0704 -0.1760  0.4935
  179SOL    HW1  536   0.542   2.841   2.818 -1.4360  2.1199  1.4577
  179SOL    HW2  537   0.467   2.893   2.963  2.4642 -0.9873 -1.3750
  180SOL     OW  538   1.443   1.532   0.742  0.4819  0.0900 -0.2226
  180SOL    HW1  539   1.419   1.627   0.709 -1.2784  1.9616  1.1221
  180SOL    HW2  540   1.366   1.469   0.726  0.6224 -0.7719 -1.2231
  181SOL     OW  541   2.340   0.952   2.262  0.2073  0.4841  0.0778
  181SOL    HW1  542   2.258   0.970   2.201 -2.3603 -1.1822  0.4614
  181SOL    HW2  543   2.375   1.031   2.320 -1.0895  2.7717  4.1471
  182SOL     OW  544   3.117   2.964   2.581 -0.8638  0.5823  0.0364
  182SOL    HW1  545   3.025   2.926   2.593  0.9283  2.3217  1.2273
  182SOL    HW2  546   3.118   3.057   2.546 -0.6315 -1.2712 -1.0873
  183SOL     OW  547   1.438   0.800   2.346  0.0786 -0.0640  0.5426
  183SOL    HW1  548   1.468   0.721   2.403  0.1264  0.3574 -1.0599
  183SOL    HW2  549   1.425   0.768   2.250 -1.6688 -0.7402  0.8983
  184SOL     OW  550   0.619   0.675   1.735  0.8774  0.0642 -0.2033
  184SOL    HW1  551   0.621   0.682   1.635 -1.8700  0.3712 -0.9317
  184SOL    HW2  552   0.607   0.767   1.775  2.0937 -1.4985 -1.8354
  185SOL     OW  553   1.812   1.038   0.451 -0.3625  0.1407  0.1225
  185SOL    HW1  554   1.832   1.114   0.386 -1.4515 -1.2179  1.3600
  185SOL    HW2  555   1.861   0.949   0.427  0.9557 -1.2868  0.3249
  186SOL     OW  556   0.273   2.280   3.138  0.6718  0.4716 -0.3219
  186SOL    HW1  557   0.328   2.266   3.057 -3.2770  0.9008 -1.7659
  186SOL    HW2  558   0.197   2.218   3.131 -0.0019 -0.6410 -0.1767
  187SOL     OW  559   2.470   1.247   0.195  0.3409 -0.2330 -0.1864
  187SOL    HW1  560   2.402   1.272   0.128  0.5367 -0.1784 -0.1497
  187SOL    HW2  561   2.491   1.146   0.183 -1.1131  0.2651  2.1790
  188SOL     OW  562   3.090   1.606   0.965  0.5157 -0.6518  0.0786
  188SOL    HW1  563   0.020   1.608   1.040  1.0322  0.4489  0.8796
  188SOL    HW2  564   3.104   1.671   0.882 -0.1326  1.7603 -2.8126
  189SOL     OW  565   2.427   0.258   0.209 -0.3341 -0.2895  0.3015
  189SOL    HW1  566   2.334   0.219   0.223 -0.0176 -0.9610  0.5834
  189SOL    HW2  567   2.497   0.217   0.273  1.5664 -1.0750  0.2871
  190SOL     OW  568   1.106   1.695   1.910 -0.1154  0.3303 -0.2352
  190SOL    HW1  569   1.070   1.650   1.994  2.4724 -0.5812 -4.3032
  190SOL    HW2  570   1.126   1.627   1.838 -1.7213 -0.5834 -2.3628
  191SOL     OW  571   2.757   0.478   1.634 -0.0631 -0.9548  0.6526
  191SOL    HW1  572   2.860   0.500   1.621  2.2881 -2.0488 -0.0008
  191SOL    HW2  573   2.737   0.377   1.651  0.8962  1.5454 -0.2712
  192SOL     OW  574   1.821   1.515   1.264  0.3923  0.3770  0.1054
  192SOL    HW1  575   1.864   1.425   1.275 -1.1950  3.5500 -2.7419
  192SOL    HW2  576   1.893   1.585   1.248  1.4631  3.4356  1.0567
  193SOL     OW  577   0.941   0.798   0.811  0.4063 -0.0342  0.2832
  193SOL    HW1  578   0.885   0.751   0.740 -0.0594  1.2489  0.7479
  193SOL    HW2  579   0.902   0.790   0.907  0.6522  1.3735 -0.9467
  194SOL     OW  580   1.072   2.448   1.536  0.1841  0.1703  0.1074
  194SOL    HW1  581   1.059   2.539   1.493  0.3378 -0.0236 -0.1395
  194SOL    HW2  582   1.070   2.458   1.638  0.2309 -0.6043 -1.7215
  195SOL     OW  583   2.322   0.470   2.850  0.0593  0.7444  0.4852
  195SOL    HW1  584   2.341   0.371   2.877  2.3597  0.4757  0.7786
  195SOL    HW2  585   2.226   0.491   2.831  2.8697  0.3882 -0.2968
  196SOL     OW  586   1.005   2.730   1.911  0.0597  0.4217  0.2075
  196SOL    HW1  587   1.023   2.721   2.014  0.9111 -0.7030 -0.1339
  196SOL    HW2  588   0.918   2.786   1.892  0.8306 -0.3246  1.2180
  197SOL     OW  589   0.857   2.645   0.983 -0.4973  0.0204  0.1766
  197SOL    HW1  590   0.787   2.657   0.908 -0.0724 -1.2454  0.4779
  197SOL    HW2  591   0.919   2.724   0.995  0.8584  0.6816 -0.5860
  198SOL     OW  592   0.811   0.692   0.599  0.0899  0.0863 -0.2002
  198SOL    HW1  593   0.784   0.597   0.580  0.7913 -0.8826 -1.5026
  198SOL    HW2  594   0.734   0.756   0.578  0.9597 -1.1982  1.7600
  199SOL     OW  595   0.133   2.757   1.992  0.0764 -0.0818  0.1056
  199SOL    HW1  596   0.144   2.724   2.086  1.0365 -3.7319 -1.6761
  199SOL    HW2  597   0.215   2.750   1.933  1.2147  1.0759 -1.0032
  200SOL     OW  598   2.175   1.948   2.310 -0.0662 -0.3028  0.0117
  200SOL    HW1  599   2.259   1.953   2.255 -0.3268 -2.1628  0.2392
  200SOL    HW2  600   2.185   1.988   2.403 -1.6188  1.8784  0.6169
  201SOL     OW  601   3.121   2.218   1.521  0.2687 -0.0262 -0.0465
  201SOL    HW1  602   3.076   2.183   1.435 -0.1486  0.7673  0.6253
  201SOL    HW2  603   3.069   2.181   1.603 -0.6770 -2.4618 -0.7657
  202SOL     OW  604   2.784   3.092   0.378  0.5193 -0.2821  0.0729
  202SOL    HW1  605   2.885   3.087   0.394 -3.1583  2.2983 -1.2610
  202SOL    HW2  606   2.759   3.102   0.283  2.0330 -0.3619  3.6839
  203SOL     OW  607   1.138   2.160   2.077  0.5271 -0.0959 -0.2779
  203SOL    HW1  608   1.062   2.189   2.010 -2.5753  0.5593 -3.6022
  203SOL    HW2  609   1.171   2.065   2.061 -0.1811  1.8271  2.2474
  204SOL     OW  610   1.508   2.116   1.461  0.0237  0.1386 -0.2408
  204SOL    HW1  611   1.570   2.197   1.455 -0.3786 -0.5530  1.7086
  204SOL    HW2  612   1.409   2.129   1.472  0.3101  0.2490 -0.0266
  205SOL     OW  613   0.874   1.688   1.725 -0.2434 -0.3862 -0.4920
  205SOL    HW1  614   0.927   1.724   1.804  0.3483  1.0135  1.9227
  205SOL    HW2  615   0.848   1.593   1.738  0.9101  0.9875 -3.7657
  206SOL     OW  616   0.342   0.582   2.858 -0.1948 -0.3369 -0.5599
  206SOL    HW1  617   0.383   0.669   2.892 -0.1091  0.3054 -1.7703
  206SOL    HW2  618   0.372   0.570   2.762 -0.9603  1.4749  2.8237
  207SOL     OW  619   0.939   0.077   1.865  0.5326 -0.1266 -0.2525
  207SOL    HW1  620   0.927   0.166   1.815 -3.6933  2.1368 -1.3093
  207SOL    HW2  621   1.033   0.066   1.895 -0.6314  1.1107 -0.0296
  208SOL     OW  622   0.722   2.685   2.175 -0.1200  0.1507 -0.5448
  208SOL    HW1  623   0.663   2.669   2.253 -1.1939  1.2564 -3.5866
  208SOL    HW2  624   0.739   2.786   2.165  0.2881  0.4057  0.2205
  209SOL     OW  625   1.689   0.576   0.049 -0.3683  0.3796 -0.4269
  209SOL    HW1  626   1.762   0.512   0.026 -3.3189  0.4819 -0.1515
  209SOL    HW2  627   1.635   0.532   0.122  3.3202  3.1495  2.3285
  210SOL     OW  628   3.102   0.549   0.827 -0.1241  0.2751  0.1226
  210SOL    HW1  629   3.090   0.609   0.910  0.3218 -1.3347  0.6937
  210SOL    HW2  630   3.058   0.454   0.841 -3.2795 -0.3162 -1.2772
  211SOL     OW  631   0.808   0.619   1.278  0.0660 -0.6176  0.0017
  211SOL    HW1  632   0.903   0.610   1.312 -0.7049  1.4227 -1.0444
  211SOL    HW2  633   0.756   0.691   1.331 -1.3630  0.5558 -1.3149
  212SOL     OW  634   1.399   1.763   0.631  0.2389  0.3265  0.3888
  212SOL    HW1  635   1.300   1.784   0.620  0.2317 -0.7623  1.1440
  212SOL    HW2  636   1.448   1.830   0.694  1.2043  2.1316  1.8599
  213SOL     OW  637   2.020   0.300   1.922 -1.0475 -0.5145 -0.0971
  213SOL    HW1  638   2.078   0.264   1.852 -1.7629 -1.0717  2.1528
  213SOL    HW2  639   1.966   0.231   1.961  1.4726  3.2134 -1.6979
  214SOL     OW  640   1.138   2.718   2.733  0.8689  0.6748 -0.0528
  214SOL    HW1  641   1.205   2.717   2.810 -0.3024 -1.2465  0.3365
  214SOL    HW2  642   1.165   2.643   2.666  1.8872  1.4567 -0.7000
  215SOL     OW  643   2.697   1.602   1.335 -0.3120 -0.2929  0.4079
  215SOL    HW1  644   2.621   1.631   1.274 -1.9271  1.0361 -0.6035
  215SOL    HW2  645   2.786   1.610   1.285 -2.3805 -0.0015 -3.3632
  216SOL     OW  646   0.293   0.579   2.281 -0.0060 -0.2759 -0.1876
  216SOL    HW1  647   0.225   0.654   2.265 -0.9532 -0.8439  1.7482
  216SOL    HW2  648   0.383   0.626   2.286 -2.2338  0.5566  0.6760
  217SOL     OW  649   3.046   0.226   0.329 -0.2159 -0.4001  0.5808
  217SOL    HW1  650   2.961   0.285   0.315 -0.8708 -0.1873  0.2358
  217SOL    HW2  651   3.046   0.159   0.409 -0.2777  1.2623  0.5580
  218SOL     OW  652   1.747   1.975   1.731 -0.1678  0.3139 -0.3312
  218SOL    HW1  653   1.791   1.911   1.796  2.2265 -0.1185  0.1729
  218SOL    HW2  654   1.681   1.927   1.670 -0.1028 -1.3306 -2.9468
  219SOL     OW  655   1.766   0.803   0.179 -0.3706 -0.2380  0.0327
  219SOL    HW1  656   1.724   0.729   0.124 -1.3793 -1.0685  0.6936
  219SOL    HW2  657   1.698   0.874   0.200 -0.0942 -1.7220 -0.9874
  220SOL     OW  658   1.532   1.931   0.796  0.0938 -0.1724  0.2073
  220SOL    HW1  659   1.436   1.930   0.818  4.9837 -0.0804 -1.3836
  220SOL    HW2  660   1.588   1.893   0.874  1.2772 -1.6972 -1.0174
  221SOL     OW  661   0.187   0.509   0.147 -0.0144 -0.8487 -0.6705
  221SOL    HW1  662   0.149   0.508   0.053  0.3742 -2.3846  0.8377
  221SOL    HW2  663   0.264   0.572   0.154 -1.5658  1.5594  0.9001
  222SOL     OW  664   0.873   2.963   1.756 -0.3594 -0.2924  0.2363
  222SOL    HW1  665   0.911   3.042   1.812  0.6542  0.3689 -0.3781
  222SOL    HW2  666   0.919   2.966   1.661 -0.9654  0.6077  2.3833
  223SOL     OW  667   1.599   0.585   2.884  0.0217 -0.3844  0.2229
  223SOL    HW1  668   1.576   0.497   2.934 -0.8370 -0.4103  1.6129
  223SOL    HW2  669   1.517   0.615   2.828 -3.5251  0.7689 -1.9640
  224SOL     OW  670   2.876   0.684   1.233 -0.6275 -0.2625  0.4517
  224SOL    HW1  671   2.909   0.603   1.286  2.0937 -0.0802  1.1966
  224SOL    HW2  672   2.808   0.653   1.168  0.6070 -4.7381 -1.3165
  225SOL     OW  673   1.016   1.380   1.574  0.4668 -0.6132  0.9073
  225SOL    HW1  674   0.941   1.398   1.507 -1.8843  3.2086  1.5532
  225SOL    HW2  675   1.093   1.328   1.528 -0.6408 -0.1052  3.6408
  226SOL     OW  676   0.889   0.193   0.674 -0.6015 -0.1080  0.0179
  226SOL    HW1  677   0.836   0.107   0.685  0.4150  0.3436  0.0453
  226SOL    HW2  678   0.966   0.204   0.742 -0.3974  0.8957  0.1156
  227SOL     OW  679   0.800   1.658   1.392 -0.0738 -0.0079  0.2814
  227SOL    HW1  680   0.750   1.726   1.333  0.8659 -0.3214 -0.5056
  227SOL    HW2  681   0.891   1.694   1.421 -0.1419  1.0382  0.1280
  228SOL     OW  682   0.538   0.074   1.736 -0.0570  0.0315  0.1249
  228SOL    HW1  683   0.567   3.139   1.799  1.6789 -2.4808 -0.3822
  228SOL    HW2  684   0.548   0.160   1.785  0.6399  1.0159  0.9773
  229SOL     OW  685   2.561   0.810   0.536 -0.5937 -0.3728 -0.0737
  229SOL    HW1  686   2.499   0.736   0.499  3.3100  1.7000 -0.8557
  229SOL    HW2  687   2.612   0.856   0.462 -2.5766 -1.3289  0.7566
  230SOL     OW  688   0.381   1.234   1.938 -0.1954 -0.6163  0.3663
  230SOL    HW1  689   0.349   1.138   1.936  4.0577  0.3607  1.6670
  230SOL    HW2  690   0.449   1.237   2.009  0.6273 -0.7432 -1.5826
  231SOL     OW  691   1.260   2.761   1.380  0.3695  0.3681 -0.0275
  231SOL    HW1  692   1.322   2.821   1.431 -0.1866  0.8156  0.0788
  231SOL    HW2  693   1.175   2.755   1.434  1.7749  1.9081 -2.7749
  232SOL     OW  694   2.510   2.350   0.183  0.2837  0.2477  0.5823
  232SOL    HW1  695   2.421   2.376   0.208  4.2025  1.4829 -0.9850
  232SOL    HW2  696   2.521   2.271   0.132 -2.5044  3.7655  1.5799
  233SOL     OW  697   0.980   2.850   0.263  0.2624 -0.2184 -0.7843
  233SOL    HW1  698   0.891   2.885   0.217  0.0510  1.6723  0.3215
  233SOL    HW2  699   1.066   2.862   0.204  1.5038  2.5852  3.0662
  234SOL     OW  700   1.113   0.799   2.266 -0.8121 -0.1171 -0.1031
  234SOL    HW1  701   1.108   0.898   2.256  2.7997 -0.7658  0.8065
  234SOL    HW2  702   1.195   0.764   2.211  3.2160 -0.7342  1.5864
  235SOL     OW  703   0.104   2.204   0.324 -0.1170  0.3264 -0.1016
  235SOL    HW1  704   0.114   2.271   0.400  2.3310 -0.6848 -0.7771
  235SOL    HW2  705   0.028   2.141   0.336  1.3646  1.0499  1.2620
  236SOL     OW  706   2.006   2.903   2.528 -0.4117 -0.2223 -0.3316
  236SOL    HW1  707   2.055   2.912   2.435 -1.9684  0.0922  0.9790
  236SOL    HW2  708   2.029   2.817   2.574  0.9459 -2.7133 -2.7611
  237SOL     OW  709   2.081   1.343   1.705 -0.6160  0.4972  0.0992
  237SOL    HW1  710   2.131   1.275   1.644 -1.5300 -1.9645  1.7953
  237SOL    HW2  711   2.089   1.300   1.800 -0.0614  0.6442 -0.4166
  238SOL     OW  712   2.009   0.069   2.406 -0.0647  0.1565 -0.4444
  238SOL    HW1  713   1.968   0.054   2.311  0.1324 -0.2157 -2.4328
  238SOL    HW2  714   1.986   3.138   2.473  2.7119 -3.2967 -0.6149
  239SOL     OW  715   0.831   2.096   1.687  0.0053  0.5246  0.1396
  239SOL    HW1  716   0.799   2.165   1.621 -0.1288 -0.9686 -0.3957
  239SOL    HW2  717   0.768   2.017   1.696  2.7710 -2.6095 -2.5358
  240SOL     OW  718   0.027   2.488   0.941 -0.2574 -0.9941 -0.1969
  240SOL    HW1  719   0.081   2.572   0.926  1.6202 -3.0656 -0.7562
  240SOL    HW2  720   3.073   2.494   0.910  1.4677 -0.2843 -2.9154
  241SOL     OW  721   1.607   1.896   0.012 -0.2915 -0.0210 -0.2034
  241SOL    HW1  722   1.555   1.953   0.080 -2.7594  2.0001 -0.0774
  241SOL    HW2  723   1.675   1.956   3.108  2.5165 -0.5286 -0.2753
  242SOL     OW  724   2.141   1.207   0.244  0.1844  0.2276  0.0212
  242SOL    HW1  725   2.176   1.135   0.311  0.7172 -0.0533  1.7113
  242SOL    HW2  726   2.178   1.196   0.149  0.6493  0.5283 -2.9442
  243SOL     OW  727   0.731   0.473   1.859  0.3837 -0.1258  0.0739
  243SOL    HW1  728   0.780   0.420   1.787  0.8837  0.0922  0.2647
  243SOL    HW2  729   0.708   0.566   1.822 -0.5729 -2.2291 -0.7948
  244SOL     OW  730   1.677   2.796   2.838 -0.2930  0.2046 -0.0708
  244SOL    HW1  731   1.584   2.837   2.855 -2.1697  1.1290  2.1362
  244SOL    HW2  732   1.735   2.862   2.785 -0.1300  0.6479 -0.3447
  245SOL     OW  733   1.658   3.117   3.085  0.2123  0.0911 -0.1763
  245SOL    HW1  734   1.668   0.077   3.085 -0.3708 -1.1362 -0.8765
  245SOL    HW2  735   1.578   3.083   3.028  0.4463  3.1187 -0.3566
  246SOL     OW  736   1.217   1.233   2.376 -0.1356 -0.2415 -0.0564
  246SOL    HW1  737   1.291   1.266   2.314 -2.5792  0.7024  1.7514
  246SOL    HW2  738   1.164   1.310   2.419 -2.5151 -0.8423  0.2831
  247SOL     OW  739   2.806   0.545   2.263 -0.2925 -0.0490 -0.6067
  247SOL    HW1  740   2.880   0.493   2.210 -0.2115 -0.3007 -1.4817
  247SOL    HW2  741   2.774   0.623   2.210 -0.7284  1.7610  2.3358
  248SOL     OW  742   0.604   0.913   1.851  0.0351  0.1664  0.4679
  248SOL    HW1  743   0.672   0.977   1.894  1.3998 -2.9085 -0.6662
  248SOL    HW2  744   0.548   0.968   1.782  0.8096  1.7386 -0.5165
  249SOL     OW  745   2.539   0.502   0.256 -0.1437 -0.1460  0.3101
  249SOL    HW1  746   2.497   0.530   0.346 -1.9787 -1.3629 -2.4821
  249SOL    HW2  747   2.484   0.434   0.202 -1.5960  0.2093  0.2787
  250SOL     OW  748   3.029   0.260   0.837  0.5299  0.4965  1.0495
  250SOL    HW1  749   3.126   0.261   0.810  2.1479  1.7311  1.8871
  250SOL    HW2  750   2.982   0.179   0.793  0.8177 -1.7827  0.9674
  251SOL     OW  751   0.817   0.964   2.279  0.4304  0.0833 -0.0009
  251SOL    HW1  752   0.827   0.927   2.367 -1.1721  1.4414 -4.2154
  251SOL    HW2  753   0.907   0.985   2.231  0.1208  0.9605  1.1675
  252SOL     OW  754   1.433   1.632   1.678 -0.1690  0.0140  0.6554
  252SOL    HW1  755   1.413   1.709   1.615  0.7919  1.0369 -0.5650
  252SOL    HW2  756   1.353   1.573   1.694 -2.6584 -0.3302 -1.9645
  253SOL     OW  757   1.410   2.677   1.858 -0.1319  0.5153  0.4240
  253SOL    HW1  758   1.447   2.662   1.954  1.5507  1.0266 -1.3171
  253SOL    HW2  759   1.426   2.592   1.800  1.4539  0.1594 -0.7239
  254SOL     OW  760   0.754   2.256   2.295  0.1459  0.2964  0.1723
  254SOL    HW1  761   0.767   2.157   2.287  0.9113 -0.3216  1.5918
  254SOL    HW2  762   0.675   2.297   2.240 -1.4663  1.8285  0.4635
  255SOL     OW  763   1.333   0.345   0.547 -0.0058 -0.5134 -0.0384
  255SOL    HW1  764   1.288   0.335   0.637  0.4467  0.7490 -2.1974
  255SOL    HW2  765   1.262   0.341   0.471 -2.4553 -1.2654  2.9790
  256SOL     OW  766   1.877   2.293   1.100  0.2799  0.5409  0.0529
  256SOL    HW1  767   1.946   2.367   1.111  1.3474 -0.4286 -3.2638
  256SOL    HW2  768   1.915   2.205   1.128 -3.1608  3.1593 -3.3741
  257SOL     OW  769   0.184   2.074   2.638  0.3502 -0.2732 -0.3559
  257SOL    HW1  770   0.184   2.010   2.723  1.5587 -0.3371  2.4079
  257SOL    HW2  771   0.170   2.030   2.546  0.0148  3.9960 -4.2082
  258SOL     OW  772   0.509   1.021   2.521  0.5581  0.5160  0.4331
  258SOL    HW1  773   0.565   1.096   2.555 -1.5720 -1.0801  1.3227
  258SOL    HW2  774   0.480   1.046   2.426 -1.3665  0.4463  0.9539
  259SOL     OW  775   1.296   0.991   2.470  0.0918 -0.1745  0.4305
  259SOL    HW1  776   1.279   1.079   2.425 -1.0629  0.4988 -0.4263
  259SOL    HW2  777   1.358   0.930   2.415  0.7627  0.0072  1.9201
  260SOL     OW  778   1.814   0.378   0.518 -0.2461 -0.1384 -0.2905
  260SOL    HW1  779   1.730   0.434   0.537  0.3364 -1.5802 -2.7498
  260SOL    HW2  780   1.845   0.334   0.608 -0.9922 -0.0851  0.2940
  261SOL     OW  781   1.073   0.548   2.880  0.0872 -0.0583  0.5179
  261SOL    HW1  782   1.033   0.455   2.853  2.1028 -4.5011 -1.3587
  261SOL    HW2  783   1.014   0.631   2.871  1.8477 -0.7797 -1.1081
  262SOL     OW  784   2.284   2.960   2.844 -0.0297  0.2381 -0.5281
  262SOL    HW1  785   2.244   2.984   2.755  2.2668  1.7742  0.0877
  262SOL    HW2  786   2.383   2.941   2.834 -0.2050  2.0015 -1.7936
  263SOL     OW  787   0.800   2.029   0.135 -0.7025  0.7329  0.4892
  263SOL    HW1  788   0.879   1.959   0.135  0.7919  1.1312 -1.9845
  263SOL    HW2  789   0.789   2.071   0.043  1.7741  0.3426 -1.6627
  264SOL     OW  790   0.468   1.626   1.655 -0.2006 -0.3755  0.3645
  264SOL    HW1  791   0.508   1.536   1.675  0.9155 -0.9672 -0.8620
  264SOL    HW2  792   0.428   1.670   1.736  2.8903 -0.8634 -0.6346
  265SOL     OW  793   0.539   1.231   0.420 -0.2640  0.8797  0.2195
  265SOL    HW1  794   0.468   1.189   0.352 -1.2918 -0.2742 -3.0017
  265SOL    HW2  795   0.626   1.175   0.414  0.4945 -1.0270 -0.7205
  266SOL     OW  796   1.826   1.735   0.105 -0.1550 -0.3382  0.3200
  266SOL    HW1  797   1.906   1.783   0.060  1.0261  1.2655 -0.0289
  266SOL    HW2  798   1.738   1.780   0.079  2.3139 -1.7667  0.7722
  267SOL     OW  799   2.793   0.260   0.066  0.3697 -0.0763 -0.3179
  267SOL    HW1  800   2.883   0.225   0.042 -0.3993  0.4613  0.2607
  267SOL    HW2  801   2.746   0.287   3.121 -2.0859 -0.3944 -0.9993
  268SOL     OW  802   0.503   0.359   3.012 -0.2035 -0.9164  0.2085
  268SOL    HW1  803   0.569   0.365   3.095  1.7054 -1.3386  2.3639
  268SOL    HW2  804   0.464   0.447   2.982 -0.5668 -0.1580 -4.3851
  269SOL     OW  805   1.839   0.661   2.792  0.7729  0.3432 -0.4391
  269SOL    HW1  806   1.856   0.765   2.794 -1.0612  1.5711 -2.0520
  269SOL    HW2  807   1.750   0.634   2.833  1.4410 -1.2277 -3.0238
  270SOL     OW  808   1.121   0.897   2.637 -0.2710  0.3938  0.1171
  270SOL    HW1  809   1.185   0.931   2.565 -0.8563 -0.7884 -1.5418
  270SOL    HW2  810   1.135   0.942   2.726 -0.4723 -1.1528  0.4487
  271SOL     OW  811   2.523   0.989   0.112 -0.4238  0.0622 -0.7622
  271SOL    HW1  812   2.529   1.022   0.018  0.4470  0.7643  0.4325
  271SOL    HW2  813   2.528   0.887   0.111 -0.7897 -2.7491  2.8298
  272SOL     OW  814   2.505   1.987   2.660 -0.7261 -0.3171  0.0516
  272SOL    HW1  815   2.502   2.092   2.660  1.4358  2.2396 -3.0615
  272SOL    HW2  816   2.582   1.949   2.609  1.6811  1.9798 -1.3335
  273SOL     OW  817   2.566   0.526   2.993 -0.1087 -0.3288  0.2227
  273SOL    HW1  818   2.475   0.503   2.957 -0.0800  0.9391  0.5492
  273SOL    HW2  819   2.634   0.452   2.986 -1.7515  4.1792 -1.8647
  274SOL     OW  820   0.045   0.033   1.536  0.6726 -0.6265  0.2448
  274SOL    HW1  821   0.071   3.124   1.619 -0.4187 -1.3124  1.0168
  274SOL    HW2  822   0.064   0.129   1.561  2.9840  1.1233  0.8608
  275SOL     OW  823   2.105   1.544   0.729  0.5383  0.0085  0.4684
  275SOL    HW1  824   2.055   1.460   0.704  1.5052 -3.7199  0.6158
  275SOL    HW2  825   2.131   1.603   0.647 -0.3479 -2.2558 -0.9771
  276SOL     OW  826   0.434   1.502   2.673 -0.2095 -0.1741 -0.6299
  276SOL    HW1  827   0.486   1.429   2.720 -2.8401  0.5388  2.3312
  276SOL    HW2  828   0.383   1.465   2.593  2.3730 -1.0386  1.5698
  277SOL     OW  829   1.787   2.545   1.962  0.9119  0.0047  0.5299
  277SOL    HW1  830   1.812   2.633   2.015 -0.5628 -1.6376 -3.9427
  277SOL    HW2  831   1.793   2.460   2.023 -3.1101  2.0091 -0.4596
  278SOL     OW  832   1.899   0.145   1.576 -0.1850  0.1989  0.1874
  278SOL    HW1  833   1.873   0.060   1.525  2.7563 -2.2023 -0.3745
  278SOL    HW2  834   1.905   0.223   1.512 -1.0077  0.2324 -0.2772
  279SOL     OW  835   1.582   1.294   3.083  0.5052  0.0336  0.4379
  279SOL    HW1  836   1.607   1.196   3.103 -3.2657 -0.6549 -1.7864
  279SOL    HW2  837   1.661   1.349   3.056 -0.3163 -2.9929 -0.3782
  280SOL     OW  838   0.763   1.601   1.061 -0.2020 -0.1161 -0.5812
  280SOL    HW1  839   0.745   1.593   0.960 -2.2743  0.9622  0.3107
  280SOL    HW2  840   0.763   1.697   1.085  2.7816 -3.8923 -2.0887
  281SOL     OW  841   3.122   0.082   2.469  1.0014  0.4602 -0.0004
  281SOL    HW1  842   3.054   0.155   2.466  2.0719 -0.0501 -0.2806
  281SOL    HW2  843   0.071   0.130   2.473  1.7744  0.6963  1.3880
  282SOL     OW  844   0.261   1.039   1.470 -0.4866  0.2891  0.2497
  282SOL    HW1  845   0.191   1.111   1.484  2.4995  2.1919 -2.1659
  282SOL    HW2  846   0.221   0.952   1.440 -0.1614  2.1938 -1.7305
  283SOL     OW  847   1.799   2.323   2.719 -0.2846  0.5053  1.0939
  283SOL    HW1  848   1.765   2.417   2.714  0.0630 -0.5797  0.5670
  283SOL    HW2  849   1.741   2.263   2.663 -1.8666 -4.0604  1.3640
  284SOL     OW  850   1.873   1.244   0.284  0.0226  0.1503  0.0401
  284SOL    HW1  851   1.815   1.321   0.252  1.8283 -1.6207  0.4263
  284SOL    HW2  852   1.969   1.241   0.250  1.6046  1.5485  0.3759
  285SOL     OW  853   3.022   0.154   3.085  0.2051  0.0626 -1.0140
  285SOL    HW1  854   3.077   0.196   0.023  2.5270  0.8766  2.7550
  285SOL    HW2  855   3.068   0.171   3.000 -2.2442  0.0838  1.1732
  286SOL     OW  856   1.744   3.007   1.634  0.3295  0.4352  0.2210
  286SOL    HW1  857   1.805   2.927   1.649 -1.4976  0.5451 -1.4823
  286SOL    HW2  858   1.750   3.032   1.532 -0.1559  1.7816 -3.9116
  287SOL     OW  859   0.926   1.037   1.416  0.6159  0.3000 -0.4021
  287SOL    HW1  860   0.947   0.962   1.479  0.0712  1.8333  0.4477
  287SOL    HW2  861   0.853   1.098   1.458  0.8347  0.3593  2.9474
  288SOL     OW  862   1.434   2.701   0.216  0.0979 -0.1585 -0.2078
  288SOL    HW1  863   1.511   2.682   0.159 -1.0055  1.4844  1.7261
  288SOL    HW2  864   1.395   2.614   0.250 -1.0078  1.8005 -0.4756
  289SOL     OW  865   3.060   1.512   3.059 -0.3736 -0.0259 -0.1107
  289SOL    HW1  866   3.078   1.595   3.115  0.1042  3.7737 -1.0394
  289SOL    HW2  867   3.066   1.539   2.959  0.3982  1.4271 -1.5589
  290SOL     OW  868   0.977   2.678   0.654 -0.9974  0.3295  0.0396
  290SOL    HW1  869   0.977   2.779   0.684  0.7300  3.4016  0.0260
  290SOL    HW2  870   1.065   2.642   0.684 -0.0269  2.7456 -0.1370
  291SOL     OW  871   1.983   2.365   3.011 -0.2265 -0.2550 -0.0834
  291SOL    HW1  872   2.080   2.331   2.996  1.3518  0.1689 -0.5636
  291SOL    HW2  873   1.932   2.375   2.921 -0.4760  0.1501 -0.1758
  292SOL     OW  874   1.036   1.317   1.942 -0.4489  0.1223 -0.1534
  292SOL    HW1  875   1.090   1.227   1.948  0.3631  1.0964  1.1694
  292SOL    HW2  876   0.964   1.308   1.872  0.0200 -2.8579 -0.7447
  293SOL     OW  877   2.426   2.811   1.278  0.0217 -0.0576 -0.0738
  293SOL    HW1  878   2.350   2.803   1.207  1.1255  0.2003  2.1037
  293SOL    HW2  879   2.517   2.803   1.244 -2.5297 -1.0574 -0.3860
  294SOL     OW  880   3.085   0.488   2.694 -0.0064  0.2390 -0.4396
  294SOL    HW1  881   3.009   0.521   2.630  1.9413  1.7973 -1.4018
  294SOL    HW2  882   0.030   0.487   2.640 -1.4844 -0.2353  2.2514
  295SOL     OW  883   1.068   1.933   0.111  0.1125  0.2358  0.2090
  295SOL    HW1  884   1.063   1.933   0.009  1.0071 -0.1077  0.6121
  295SOL    HW2  885   1.080   2.031   0.135  1.0784  2.8308 -1.2990
  296SOL     OW  886   2.095   2.025   2.593 -0.1946 -0.0908  0.1708
  296SOL    HW1  887   2.073   2.102   2.653 -0.2651 -2.9435 -0.7424
  296SOL    HW2  888   2.173   1.967   2.633  0.5090 -0.8578  1.3867
  297SOL     OW  889   2.558   0.698   0.061 -0.1199 -0.2157  0.4731
  297SOL    HW1  890   2.543   0.628   3.130  0.3367 -0.3553 -2.0104
  297SOL    HW2  891   2.545   0.657   0.149 -2.6331  1.0633 -0.2866
  298SOL     OW  892   0.776   2.169   3.035  0.5327  0.8036 -0.1165
  298SOL    HW1  893   0.744   2.107   2.960 -0.1837 -0.1931  0.2619
  298SOL    HW2  894   0.723   2.254   3.029 -1.0894  0.3656  0.1467
  299SOL     OW  895   1.436   2.838   2.474 -0.3465 -0.1750  0.4958
  299SOL    HW1  896   1.473   2.926   2.516 -1.9549 -0.0708 -2.1258
  299SOL    HW2  897   1.332   2.835   2.484 -3.4398  2.5172 -0.2574
  300SOL     OW  898   2.829   0.429   0.264  0.0835  0.7137  0.7780
  300SOL    HW1  899   2.739   0.467   0.282 -2.8834 -1.0449  0.1758
  300SOL    HW2  900   2.820   0.360   0.187 -0.4245 -2.3210  0.2782
  301SOL     OW  901   1.150   1.089   1.628  0.2191  0.4337  0.0579
  301SOL    HW1  902   1.184   1.051   1.715  0.1194 -1.4706 -0.4074
  301SOL    HW2  903   1.207   1.165   1.586  0.6616  1.2112  1.1364
  302SOL     OW  904   3.142   2.212   0.040  0.3984 -0.5254 -0.5055
  302SOL    HW1  905   0.003   2.206   0.141 -1.7805  0.8806 -0.7411
  302SOL    HW2  906   3.051   2.242   0.009 -0.5298 -2.5512 -1.3099
  303SOL     OW  907   3.032   2.906   2.958  0.2344 -0.1715 -0.0891
  303SOL    HW1  908   3.125   2.916   2.994  2.2634 -1.8100 -3.5890
  303SOL    HW2  909   3.024   2.811   2.918  0.7685 -2.9644 -1.4589
  304SOL     OW  910   2.745   0.753   2.087  0.0229 -0.0048  0.6856
  304SOL    HW1  911   2.727   0.829   2.158  0.1277  1.3834  1.6381
  304SOL    HW2  912   2.671   0.744   2.021  2.1353  0.6406 -0.3688
  305SOL     OW  913   0.554   2.851   2.367 -0.2533 -0.2105  0.1713
  305SOL    HW1  914   0.525   2.877   2.270  1.8965  0.5806 -0.0824
  305SOL    HW2  915   0.594   2.935   2.414  0.7226  2.3081  0.4778
  306SOL     OW  916   2.723   1.122   1.703 -0.4389  0.3535 -0.4602
  306SOL    HW1  917   2.675   1.183   1.639  0.3179  0.4620  1.6670
  306SOL    HW2  918   2.661   1.088   1.779 -0.2738  0.3439  2.2259
  307SOL     OW  919   1.752   0.587   1.300 -0.1240  0.6685 -0.1001
  307SOL    HW1  920   1.815   0.657   1.268 -2.5134 -0.7525  1.7321
  307SOL    HW2  921   1.691   0.566   1.223  2.1462  0.5569 -0.7323
  308SOL     OW  922   2.545   1.769   1.155  0.6828 -0.3776 -0.1072
  308SOL    HW1  923   2.503   1.855   1.190  1.8793 -0.0647 -0.0569
  308SOL    HW2  924   2.595   1.787   1.067  1.7094 -1.0401  1.7568
  309SOL     OW  925   2.480   1.585   1.578  0.5046  0.4585  0.1425
  309SOL    HW1  926   2.391   1.598   1.524  0.2984 -0.3590 -2.4132
  309SOL    HW2  927   2.553   1.559   1.512  0.9646  1.1529  1.3980
  310SOL     OW  928   2.936   1.648   2.772 -0.0034 -0.7835  0.0693
  310SOL    HW1  929   2.933   1.749   2.795  2.8277  0.1510 -0.3431
  310SOL    HW2  930   2.854   1.617   2.722 -2.6372 -3.7958  0.1081
  311SOL     OW  931   2.301   2.210   2.765 -0.2605 -0.2792  0.0822
  311SOL    HW1  932   2.221   2.264   2.729 -0.1581  2.4143  2.6973
  311SOL    HW2  933   2.393   2.240   2.730 -0.7162  1.1829  3.3924
  312SOL     OW  934   2.300   1.893   1.311  0.1165 -0.0218 -0.1626
  312SOL    HW1  935   2.308   1.805   1.367 -0.6908 -0.8670  0.2088
  312SOL    HW2  936   2.341   1.974   1.358 -0.5710 -1.4621 -1.2592
  313SOL     OW  937   2.326   2.441   1.211  0.0433 -0.4361  0.5164
  313SOL    HW1  938   2.383   2.521   1.185  0.3709 -2.6296  0.2841
  313SOL    HW2  939   2.378   2.366   1.261  2.7856 -0.8886  3.2126
  314SOL     OW  940   0.932   2.214   0.595  0.3503  0.1697 -0.3018
  314SOL    HW1  941   0.870   2.254   0.664  1.7759 -0.2586 -0.3286
  314SOL    HW2  942   0.879   2.184   0.510  1.6802 -1.2875 -3.4879
  315SOL     OW  943   0.537   2.668   2.763 -1.0532 -0.2533 -0.4323
  315SOL    HW1  944   0.542   2.576   2.729 -1.6970  2.3512  0.2015
  315SOL    HW2  945   0.635   2.706   2.761  1.4336 -0.9495 -1.7419
  316SOL     OW  946   0.109   0.524   0.409  0.3310 -0.0586  0.0021
  316SOL    HW1  947   0.028   0.585   0.410 -0.0225 -0.0469  2.0635
  316SOL    HW2  948   0.143   0.524   0.310  0.9329  1.2457 -1.1871
  317SOL     OW  949   1.205   0.275   0.793  0.1498 -0.2111 -0.6915
  317SOL    HW1  950   1.238   0.254   0.891 -0.3647 -1.9628  0.8766
  317SOL    HW2  951   1.145   0.359   0.787 -1.7219  1.1078  0.4346
  318SOL     OW  952   3.029   2.475   0.617 -0.6458 -0.1399 -0.0021
  318SOL    HW1  953   3.010   2.555   0.558 -1.7217 -0.0822 -0.5602
  318SOL    HW2  954   2.988   2.496   0.710 -0.6692  0.7151 -2.5679
  319SOL     OW  955   0.572   1.730   2.623 -0.0892  0.0170 -0.0740
  319SOL    HW1  956   0.566   1.765   2.718  0.8613 -1.1945 -1.4732
  319SOL    HW2  957   0.511   1.651   2.611  2.4844  0.1745 -0.1583
  320SOL     OW  958   0.821   2.909   2.483  0.3142  0.8691  0.2325
  320SOL    HW1  959   0.802   2.877   2.387  1.0509  1.8204 -0.2273
  320SOL    HW2  960   0.900   2.974   2.475  1.2179  3.3238  1.0075
  321SOL     OW  961   1.217   2.874   0.143  0.1653 -0.8327 -0.1614
  321SOL    HW1  962   1.281   2.803   0.183  0.2502  2.0341 -0.5857
  321SOL    HW2  963   1.204   2.868   0.042  0.3216  0.0584 -0.6924
  322SOL     OW  964   2.601   1.203   2.102 -0.3893 -0.2487  0.1829
  322SOL    HW1  965   2.633   1.293   2.065  3.7715  0.7670 -1.2919
  322SOL    HW2  966   2.534   1.223   2.175  0.9654 -0.3347 -0.5487
  323SOL     OW  967   2.421   0.575   0.480 -0.3802 -0.5417  0.5144
  323SOL    HW1  968   2.321   0.575   0.468 -0.9576 -1.9481 -0.7088
  323SOL    HW2  969   2.449   0.488   0.524 -1.3140  1.9820 -0.3727
  324SOL     OW  970   0.262   2.840   3.062 -0.2102 -0.2179  0.0683
  324SOL    HW1  971   0.239   2.846   2.960 -1.5357 -0.8216 -1.6252
  324SOL    HW2  972   0.262   2.747   3.099 -0.5179  0.7976 -1.4218
  325SOL     OW  973   1.550   0.313   2.496  0.5467 -0.0910 -0.1644
  325SOL    HW1  974   1.609   0.260   2.560 -0.7990 -0.0494  0.1427
  325SOL    HW2  975   1.452   0.295   2.518  1.9868  0.8710  0.7064
  326SOL     OW  976   2.450   2.782   1.533  0.0624 -0.1238  0.3167
  326SOL    HW1  977   2.366   2.767   1.579  2.5764  1.6990 -3.4430
  326SOL    HW2  978   2.429   2.781   1.435  1.6311 -1.0609 -1.9692
  327SOL     OW  979   1.547   0.302   2.998  0.6481 -0.2098 -0.0367
  327SOL    HW1  980   1.459   0.255   3.026  1.3845  0.6362  1.4382
  327SOL    HW2  981   1.613   0.299   3.072  0.0759  0.6653 -1.2314
  328SOL     OW  982   2.884   1.363   2.719 -0.7872 -0.1426 -0.4090
  328SOL    HW1  983   2.813   1.443   2.727 -2.4462  1.9689  0.0539
  328SOL    HW2  984   2.975   1.398   2.694 -2.6259  0.3080  0.1362
  329SOL     OW  985   1.559   2.941   1.823  0.0594 -0.5363 -0.3212
  329SOL    HW1  986   1.630   2.967   1.754 -1.9533  0.6735 -0.6364
  329SOL    HW2  987   1.524   2.844   1.804  0.3558 -3.3449 -0.2966
  330SOL     OW  988   2.674   1.348   1.468 -0.0529  0.2670 -0.6977
  330SOL    HW1  989   2.765   1.304   1.480  1.4341  0.2096  1.5047
  330SOL    HW2  990   2.685   1.438   1.422 -1.9843 -0.6539 -3.4011
  331SOL     OW  991   0.429   1.415   1.450 -0.0847  0.1265  0.3734
  331SOL    HW1  992   0.443   1.475   1.370  2.9869  0.8639  0.9211
  331SOL    HW2  993   0.361   1.343   1.423  2.1970 -1.9094 -0.1637
  332SOL     OW  994   0.902   0.216   1.422  0.7882  0.2847 -0.0525
  332SOL    HW1  995   0.959   0.299   1.435 -0.7923  2.0062  0.1778
  332SOL    HW2  996   0.806   0.244   1.414  0.9887  0.7575 -1.0951
  333SOL     OW  997   2.247   2.736   1.796 -0.3520  0.4884  0.2999
  333SOL    HW1  998   2.327   2.728   1.860  0.6416  1.7456 -0.7163
  333SOL    HW2  999   2.194   2.821   1.818 -0.2560 -1.2217 -0.7534
  334SOL     OW 1000   1.289   1.309   1.456 -0.1095 -0.3151  0.4078
  334SOL    HW1 1001   1.261   1.348   1.366 -1.5535  1.3697  1.1170
  334SOL    HW2 1002   1.386   1.279   1.453 -0.0727  1.0609 -0.2707
  335SOL     OW 1003   0.909   2.828   2.986  0.1960  0.7171  0.2907
  335SOL    HW1 1004   0.865   2.903   3.038 -1.8922  0.5312 -0.7884
  335SOL    HW2 1005   0.844   2.800   2.909 -1.9980  1.0786  1.4056
  336SOL     OW 1006   3.082   2.732   2.300 -0.2372  0.1584  0.0033
  336SOL    HW1 1007   3.023   2.817   2.294 -2.2580  0.5129 -0.0500
  336SOL    HW2 1008   3.058   2.657   2.237  0.4818 -0.5072  0.6202
  337SOL     OW 1009   2.664   1.656   0.571  0.4036 -0.1015  0.2636
  337SOL    HW1 1010   2.571   1.689   0.603 -0.0529 -0.5865 -1.2237
  337SOL    HW2 1011   2.681   1.668   0.470 -0.8633  1.4447 -2.5926
  338SOL     OW 1012   0.983   2.031   1.227 -0.3193  0.1695  0.0460
  338SOL    HW1 1013   1.068   1.998   1.178 -0.3694 -1.9292  0.1641
  338SOL    HW2 1014   0.904   1.978   1.193  1.0082  1.0768 -0.0920
  339SOL     OW 1015   2.993   0.848   2.508 -1.3556  0.3766  0.9880
  339SOL    HW1 1016   2.957   0.762   2.463 -1.0176  1.1096 -0.6541
  339SOL    HW2 1017   3.093   0.843   2.534  0.3724  0.5984  0.4341
  340SOL     OW 1018   1.635   2.794   1.174 -0.1357 -0.0922  0.1845
  340SOL    HW1 1019   1.712   2.794   1.244  0.1054  0.0884  0.4422
  340SOL    HW2 1020   1.660   2.742   1.086  2.4955 -3.0783  0.3441
  341SOL     OW 1021   1.724   1.805   0.987 -0.0574 -0.2489  0.3993
  341SOL    HW1 1022   1.816   1.785   0.962 -3.3501  0.7456 -2.7320
  341SOL    HW2 1023   1.721   1.845   1.082  3.5373  0.1567  0.9945
  342SOL     OW 1024   0.455   1.360   0.977  0.0867 -0.7347 -0.5226
  342SOL    HW1 1025   0.383   1.391   0.911 -0.8823 -0.1411 -1.1127
  342SOL    HW2 1026   0.539   1.325   0.926  4.9934 -1.6151  0.4612
  343SOL     OW 1027   2.379   0.503   1.536 -0.1673  0.1725  0.0918
  343SOL    HW1 1028   2.453   0.570   1.570  1.5731 -0.5874 -0.3759
  343SOL    HW2 1029   2.289   0.543   1.542 -0.2196 -1.1938 -0.9855
  344SOL     OW 1030   2.227   2.451   0.621 -0.0045 -0.3836 -0.0130
  344SOL    HW1 1031   2.167   2.380   0.663  2.0625 -0.3924  0.1935
  344SOL    HW2 1032   2.326   2.425   0.636  2.0427 -0.8480  0.7839
  345SOL     OW 1033   0.001   2.647   2.829  0.3511 -0.5097 -0.7975
  345SOL    HW1 1034   3.121   2.611   2.737 -1.2270 -1.6829 -2.5889
  345SOL    HW2 1035   0.101   2.646   2.844  1.4842 -1.5355  0.4125
  346SOL     OW 1036   3.051   1.021   0.686 -0.1045 -0.4064 -0.1233
  346SOL    HW1 1037   0.006   1.049   0.691 -0.4778  1.1061 -1.0143
  346SOL    HW2 1038   3.012   1.018   0.592 -2.0599  0.5660 -1.2644
  347SOL     OW 1039   1.890   2.777   1.257  0.5347 -0.4033 -0.2281
  347SOL    HW1 1040   1.958   2.741   1.322 -3.0326  0.6184  1.3245
  347SOL    HW2 1041   1.909   2.747   1.163 -0.8038  1.2207  3.4692
  348SOL     OW 1042   1.488   1.555   2.168  0.0804  0.3856  0.1180
  348SOL    HW1 1043   1.462   1.457   2.148 -0.1561  0.0310  0.3602
  348SOL    HW2 1044   1.513   1.605   2.082  0.7397 -2.1723  0.0045
  349SOL     OW 1045   2.392   1.282   2.288 -0.8388 -0.0490 -0.3757
  349SOL    HW1 1046   2.318   1.270   2.353 -2.7809 -0.7528 -1.9721
  349SOL    HW2 1047   2.350   1.329   2.205  2.2066  1.3040 -2.3071
  350SOL     OW 1048   0.016   2.025   1.068 -0.1185 -0.0304 -0.3727
  350SOL    HW1 1049   0.100   1.967   1.053  0.1990 -1.9483  2.9725
  350SOL    HW2 1050   0.015   2.094   0.998 -0.1473 -4.0986  4.0293
  351SOL     OW 1051   0.709   0.350   2.387  0.1822  0.1126 -0.3094
  351SOL    HW1 1052   0.717   0.420   2.460  1.2180 -2.2938  0.5714
  351SOL    HW2 1053   0.734   0.386   2.298  0.9445  0.0539  1.7675
  352SOL     OW 1054   0.615   2.955   1.854 -0.9285 -0.0850  0.0077
  352SOL    HW1 1055   0.645   2.953   1.950 -2.0232  1.1475  3.0951
  352SOL    HW2 1056   0.691   2.936   1.794 -3.3581  2.0149  1.6697
  353SOL     OW 1057   0.532   1.441   2.189  0.2450 -0.2793  0.0936
  353SOL    HW1 1058   0.481   1.355   2.224 -1.7153 -0.1388  0.9683
  353SOL    HW2 1059   0.500   1.529   2.233 -1.1873  0.4886  0.4455
  354SOL     OW 1060   1.931   1.327   0.560 -0.7480  0.1065  0.3673
  354SOL    HW1 1061   1.848   1.386   0.563 -2.0296  0.2838 -1.0619
  354SOL    HW2 1062   1.934   1.279   0.470 -1.4191  0.0672  2.0983
  355SOL     OW 1063   2.494   0.046   0.693  0.1184  0.2552  0.6489
  355SOL    HW1 1064   2.541   3.106   0.658 -0.6802  1.9621  0.3634
  355SOL    HW2 1065   2.565   0.121   0.712 -2.8334 -1.5919 -0.6557
  356SOL     OW 1066   3.139   1.182   2.607 -0.5308 -0.0764 -0.5093
  356SOL    HW1 1067   0.008   1.276   2.640 -0.3308 -1.3427 -0.2763
  356SOL    HW2 1068   0.083   1.134   2.623  0.9419 -0.3002  0.3571
  357SOL     OW 1069   0.062   2.990   1.754 -0.1091 -0.3881  0.8390
  357SOL    HW1 1070   0.006   2.996   1.835  1.3642  0.9491 -2.2678
  357SOL    HW2 1071   0.063   2.893   1.726  1.1763 -3.1266 -1.3201
  358SOL     OW 1072   3.128   1.446   2.651  0.1102 -0.3880  0.1342
  358SOL    HW1 1073   0.065   1.483   2.707  2.3033  2.5453  2.1754
  358SOL    HW2 1074   3.102   1.506   2.570 -1.4915  0.1668  0.8743
  359SOL     OW 1075   2.579   2.438   2.856  0.0896  0.1457  0.4747
  359SOL    HW1 1076   2.672   2.411   2.886 -1.1261 -1.1149  1.3157
  359SOL    HW2 1077   2.508   2.454   2.929  1.0023  0.4392  0.3086
  360SOL     OW 1078   1.483   1.375   1.163 -0.1863  0.5038  0.1633
  360SOL    HW1 1079   1.492   1.280   1.122  1.6795 -1.9656 -1.3960
  360SOL    HW2 1080   1.509   1.446   1.098  0.9864 -0.0018 -1.9266
  361SOL     OW 1081   2.064   2.477   1.148 -0.0897  0.5154 -0.2775
  361SOL    HW1 1082   2.161   2.452   1.174  0.9264  1.3367 -2.2440
  361SOL    HW2 1083   2.054   2.577   1.124  1.3681  0.5870  0.7789
  362SOL     OW 1084   1.519   1.594   0.997  0.3677 -0.2516 -0.3251
  362SOL    HW1 1085   1.590   1.664   0.992 -2.2581 -1.4936 -3.9665
  362SOL    HW2 1086   1.493   1.569   0.899 -2.0143  2.7669  1.9765
  363SOL     OW 1087   2.834   2.194   0.246 -0.2666  0.4396 -0.0880
  363SOL    HW1 1088   2.866   2.274   0.188 -0.6167  2.2360 -1.9250
  363SOL    HW2 1089   2.857   2.194   0.347 -1.2706 -1.1657 -1.4050
  364SOL     OW 1090   2.299   0.360   1.767  0.4275 -0.1790  0.6717
  364SOL    HW1 1091   2.340   0.398   1.684  1.1700 -1.3866 -0.3429
  364SOL    HW2 1092   2.259   0.268   1.746 -0.5875  0.3409 -1.6884
  365SOL     OW 1093   2.965   2.608   1.549  0.2119 -0.6340  0.3196
  365SOL    HW1 1094   2.960   2.608   1.652  0.5237 -0.8816 -0.0354
  365SOL    HW2 1095   3.051   2.570   1.511 -1.2235  1.0978 -1.6413
  366SOL     OW 1096   2.918   1.104   0.068  0.0023  0.4536  0.0062
  366SOL    HW1 1097   2.940   1.122   3.116 -0.5636  1.7559 -0.0035
  366SOL    HW2 1098   2.966   1.019   0.098  0.4426 -0.7676  1.0873
  367SOL     OW 1099   2.366   2.522   3.025 -0.7175  0.0471 -0.2090
  367SOL    HW1 1100   2.329   2.579   2.953  1.2454 -0.4171  3.4422
  367SOL    HW2 1101   2.373   2.584   3.101  0.6979 -0.8873 -4.4373
  368SOL     OW 1102   0.092   1.865   1.501 -0.1234  0.0166 -0.1765
  368SOL    HW1 1103   0.170   1.922   1.524 -2.0823 -2.2758  0.3823
  368SOL    HW2 1104   0.033   1.909   1.425 -0.2458  1.1841 -1.8673
  369SOL     OW 1105   0.446   0.128   0.640 -0.2797 -0.1747 -0.4494
  369SOL    HW1 1106   0.394   0.160   0.723  1.9076 -2.1159  0.6683
  369SOL    HW2 1107   0.449   0.196   0.569  0.4955  0.4893  0.8922
  370SOL     OW 1108   0.859   0.348   0.966 -0.3743 -0.1065 -0.3124
  370SOL    HW1 1109   0.782   0.395   1.012  1.7258 -0.8835  0.7324
  370SOL    HW2 1110   0.893   0.396   0.885  1.5344 -0.8835  2.5425
  371SOL     OW 1111   2.445   1.758   0.149 -0.0189 -0.2342 -0.1382
  371SOL    HW1 1112   2.501   1.747   0.229 -2.1552 -3.4407 -2.3083
  371SOL    HW2 1113   2.479   1.705   0.070  0.4186  0.1709  0.1878
  372SOL     OW 1114   0.225   1.046   2.664 -0.1028  0.1307  0.5649
  372SOL    HW1 1115   0.221   1.059   2.766  3.9185  1.1038  3.9261
  372SOL    HW2 1116   0.320   1.049   2.630 -1.1667  2.4045  0.3928
  373SOL     OW 1117   0.014   0.872   0.334 -0.3101 -0.7800 -0.1904
  373SOL    HW1 1118   3.096   0.955   0.360  0.4168 -1.1378 -1.0435
  373SOL    HW2 1119   3.108   0.791   0.373 -1.3115 -1.9308 -0.9996
  374SOL     OW 1120   0.609   2.369   2.959 -0.1274 -0.0640 -0.2925
  374SOL    HW1 1121   0.617   2.442   3.030  1.4879  1.4813 -0.3534
  374SOL    HW2 1122   0.620   2.402   2.868 -1.6101 -3.5783  0.1020
  375SOL     OW 1123   1.264   0.397   0.083  0.0664 -0.1008 -0.3363
  375SOL    HW1 1124   1.214   0.480   0.047 -0.3894  0.0353 -0.8554
  375SOL    HW2 1125   1.241   0.374   0.177 -0.3184 -0.4469  0.1776
  376SOL     OW 1126   3.075   2.941   1.965  0.3121 -0.2476 -0.5651
  376SOL    HW1 1127   3.080   3.010   2.039  1.4839  0.5708 -0.2727
  376SOL    HW2 1128   0.014   2.871   1.971  2.5186 -3.7742  0.3410
  377SOL     OW 1129   3.116   2.242   2.613  0.5376  0.0179 -0.0759
  377SOL    HW1 1130   3.134   2.338   2.578 -1.5669  1.8909 -2.1468
  377SOL    HW2 1131   0.064   2.198   2.631 -3.1905  0.3852 -0.0104
  378SOL     OW 1132   1.573   0.757   0.594  0.4227  0.4335  0.0818
  378SOL    HW1 1133   1.516   0.788   0.515 -2.1103 -1.0468  1.2244
  378SOL    HW2 1134   1.634   0.832   0.628  0.5974  0.0673 -1.2883
  379SOL     OW 1135   1.394   1.183   0.429  0.0871 -0.0921 -0.5170
  379SOL    HW1 1136   1.362   1.267   0.383  0.7947 -0.2486  0.5127
  379SOL    HW2 1137   1.367   1.187   0.529  1.2167 -1.3569 -0.7916
  380SOL     OW 1138   2.305   2.296   2.028  1.0202 -0.2760  0.3297
  380SOL    HW1 1139   2.305   2.395   2.063 -0.3199 -0.9118  1.5244
  380SOL    HW2 1140   2.218   2.251   2.048 -2.8992 -2.2659  3.0764
  381SOL     OW 1141   0.181   1.095   2.221  0.0324  0.3605 -0.3129
  381SOL    HW1 1142   0.082   1.130   2.220  1.5402  1.2125 -0.7345
  381SOL    HW2 1143   0.184   0.995   2.246 -1.1728  4.1122  2.2781
  382SOL     OW 1144   2.922   2.395   0.053  0.1952 -0.0527 -0.6168
  382SOL    HW1 1145   2.871   2.413   3.108 -2.3104  0.1130 -4.0165
  382SOL    HW2 1146   3.015   2.440   0.049 -1.0451 -0.3358 -2.1098
  383SOL     OW 1147   1.661   1.110   2.097  0.0288  0.2703  0.1974
  383SOL    HW1 1148   1.641   1.018   2.059 -0.4708 -1.4667  1.3508
  383SOL    HW2 1149   1.713   1.173   2.036 -0.5876 -0.9204  1.1542
  384SOL     OW 1150   0.853   2.294   2.562 -0.8385 -0.1832 -0.3461
  384SOL    HW1 1151   0.830   2.295   2.465 -1.2064  1.9211  0.2989
  384SOL    HW2 1152   0.867   2.196   2.597 -0.3031 -3.2760 -3.0292
  385SOL     OW 1153   2.819   2.004   0.573 -0.5611  0.1235 -0.3411
  385SOL    HW1 1154   2.733   1.994   0.527  1.9953 -0.0391  1.6761
  385SOL    HW2 1155   2.834   1.940   0.648  1.7750  1.2369 -2.9726
  386SOL     OW 1156   1.240   1.060   0.184 -0.0912  0.0806 -0.7586
  386SOL    HW1 1157   1.283   1.122   0.115  0.0474 -1.0277  0.2937
  386SOL    HW2 1158   1.262   1.093   0.277 -0.8851  0.3157  0.1458
  387SOL     OW 1159   3.039   0.513   1.638  0.0070  0.0377 -0.6175
  387SOL    HW1 1160   3.078   0.606   1.638  2.6747 -1.9953  0.7280
  387SOL    HW2 1161   3.110   0.441   1.639 -0.9511 -0.3705 -0.0238
  388SOL     OW 1162   2.815   0.908   1.375 -0.2200  0.4154  0.1647
  388SOL    HW1 1163   2.838   0.990   1.322 -1.4821 -2.6294 -1.9960
  388SOL    HW2 1164   2.827   0.824   1.316 -0.5512 -2.8751 -3.1529
  389SOL     OW 1165   1.737   1.314   2.696 -0.1761 -0.3229 -0.5470
  389SOL    HW1 1166   1.686   1.283   2.616  0.9328 -1.0752  0.0194
  389SOL    HW2 1167   1.691   1.397   2.732 -0.2698  0.2844 -1.2204
  390SOL     OW 1168   1.900   2.079   0.309 -0.2596 -0.4393  0.6325
  390SOL    HW1 1169   1.908   2.158   0.376 -0.9742 -1.0316 -1.6065
  390SOL    HW2 1170   1.976   2.083   0.238  1.6691 -1.3712  1.2834
  391SOL     OW 1171   1.307   2.292   0.990 -0.6297 -0.0118 -0.1119
  391SOL    HW1 1172   1.309   2.341   0.898  1.7063 -1.1904  0.5839
  391SOL    HW2 1173   1.210   2.276   1.013 -1.4210  2.4800 -0.5678
  392SOL     OW 1174   2.688   2.705   1.617  0.1148  0.8473 -0.0617
  392SOL    HW1 1175   2.772   2.673   1.571  0.4864  3.4648  1.9833
  392SOL    HW2 1176   2.612   2.732   1.556  0.8160  2.1306  1.5210
  393SOL     OW 1177   1.787   2.461   2.339  0.1993 -0.5560  0.3143
  393SOL    HW1 1178   1.745   2.410   2.264  0.3154 -0.7373  2.8670
  393SOL    HW2 1179   1.720   2.527   2.383 -2.4836  0.8784  1.6353
  394SOL     OW 1180   0.241   2.899   2.551  0.7646  0.5641  0.6191
  394SOL    HW1 1181   0.286   2.950   2.477 -1.5103  0.1818  0.1631
  394SOL    HW2 1182   0.140   2.926   2.543  1.3396  1.2095 -1.2714
  395SOL     OW 1183   0.513   1.028   1.369  0.0103 -0.2399 -0.0188
  395SOL    HW1 1184   0.412   1.031   1.386 -1.9809 -0.2649 -1.6927
  395SOL    HW2 1185   0.542   1.093   1.293  3.4456 -1.7474 -1.7492
  396SOL     OW 1186   2.102   1.204   2.363  0.0282 -0.6116  0.0065
  396SOL    HW1 1187   2.049   1.114   2.353  3.4870  0.2202 -2.3250
  396SOL    HW2 1188   2.130   1.210   2.462 -3.1165  2.1670 -3.9850
  397SOL     OW 1189   2.757   0.336   2.955  0.4808  0.3856 -0.4237
  397SOL    HW1 1190   2.834   0.404   2.961 -0.6933 -0.8743  0.2840
  397SOL    HW2 1191   2.743   0.322   2.854 -2.4466  1.7691 -1.0042
  398SOL     OW 1192   1.872   2.917   0.618  0.3148  0.2858  0.1446
  398SOL    HW1 1193   1.937   2.867   0.557 -1.4133  3.0945  1.5811
  398SOL    HW2 1194   1.894   3.015   0.615 -0.0306 -1.0112 -2.0785
  399SOL     OW 1195   2.435   2.702   2.011 -0.7225  0.1777  0.4065
  399SOL    HW1 1196   2.364   2.651   2.058  4.3382  1.4308  1.9221
  399SOL    HW2 1197   2.500   2.741   2.080  0.3529 -0.4758 -2.1522
  400SOL     OW 1198   0.043   2.301   2.221 -0.2623 -0.4903 -0.3144
  400SOL    HW1 1199   0.084   2.228   2.160  1.1215 -1.7914  0.5476
  400SOL    HW2 1200   0.096   2.294   2.315  1.3923  0.8099 -0.4830
  401SOL     OW 1201   0.522   0.534   0.490 -0.2761  0.5547  0.0482
  401SOL    HW1 1202   0.487   0.452   0.448 -1.1700  3.4752  2.0068
  401SOL    HW2 1203   0.482   0.539   0.583  0.1735  0.2992  0.1373
  402SOL     OW 1204   0.762   2.984   2.140 -0.2759 -0.0716 -0.0643
  402SOL    HW1 1205   0.858   2.970   2.179  3.2746  0.5297  0.2624
  402SOL    HW2 1206   0.751   3.082   2.109  1.4045  0.1171  0.0626
  403SOL     OW 1207   0.178   1.383   2.032  0.7164 -0.1500  0.1330
  403SOL    HW1 1208   0.247   1.317   2.001 -0.5217 -0.1800  2.6742
  403SOL    HW2 1209   0.143   1.350   2.125 -1.2488 -0.7264  2.3534
  404SOL     OW 1210   2.842   2.386   2.359  0.3419 -0.2032  0.4160
  404SOL    HW1 1211   2.926   2.342   2.319  1.4091  0.4127 -0.4639
  404SOL    HW2 1212   2.765   2.318   2.366  2.3548  1.5707  3.0364
  405SOL     OW 1213   2.440   0.131   2.801 -0.2344  0.2249 -0.2461
  405SOL    HW1 1214   2.456   0.186   2.887  2.7393  2.6593  1.6155
  405SOL    HW2 1215   2.499   0.046   2.797 -1.1105  2.0099 -0.0965
  406SOL     OW 1216   1.636   2.355   0.258 -0.2544 -0.3056 -0.4213
  406SOL    HW1 1217   1.564   2.401   0.323 -3.3193 -0.0198 -0.8969
  406SOL    HW2 1218   1.624   2.253   0.256 -1.4976 -2.6508  1.1343
  407SOL     OW 1219   1.756   1.479   0.168 -0.7315  0.4643  0.1825
  407SOL    HW1 1220   1.808   1.566   0.168 -2.4029  0.4652 -0.0841
  407SOL    HW2 1221   1.684   1.476   0.239 -4.4654 -2.0525  0.1554
  408SOL     OW 1222   0.135   0.825   2.271  0.1422 -0.4643 -0.1513
  408SOL    HW1 1223   0.057   0.823   2.206  1.0237  2.3167  2.0453
  408SOL    HW2 1224   0.112   0.795   2.364 -1.3682 -1.1357  1.6165
  409SOL     OW 1225   2.828   1.416   3.131  0.5175  0.1502  0.4149
  409SOL    HW1 1226   2.923   1.456   3.115  2.9041 -0.0095 -0.0992
  409SOL    HW2 1227   2.829   1.322   3.088  0.1780 -3.7877  1.8607
  410SOL     OW 1228   2.939   1.388   1.297 -0.2827 -0.3561  0.1303
  410SOL    HW1 1229   2.949   1.475   1.243 -0.9217 -0.7683 -1.3937
  410SOL    HW2 1230   2.962   1.410   1.396  2.1441  0.8708  2.1251
  411SOL     OW 1231   3.010   0.658   0.387  0.4298 -0.4657  0.0471
  411SOL    HW1 1232   2.964   0.583   0.336  0.4669  0.5707  2.3921
  411SOL    HW2 1233   2.967   0.685   0.476 -0.7034 -1.2732  1.7914
  412SOL     OW 1234   1.606   3.124   0.474 -0.2946 -0.1695 -0.2290
  412SOL    HW1 1235   1.692   3.101   0.523  0.2118 -1.4604 -0.3772
  412SOL    HW2 1236   1.566   3.041   0.428 -1.8239 -0.7788  1.3958
  413SOL     OW 1237   1.330   0.253   1.956 -0.0639  0.2466 -0.5361
  413SOL    HW1 1238   1.375   0.334   2.006  1.9525 -0.2554  0.1378
  413SOL    HW2 1239   1.400   0.178   1.942  0.2152  0.3691 -0.1539
  414SOL     OW 1240   0.359   1.132   0.269  0.1594 -0.0417  0.0274
  414SOL    HW1 1241   0.316   1.038   0.280 -2.2652 -1.0197 -1.7740
  414SOL    HW2 1242   0.351   1.153   0.173 -0.7141 -0.4827 -1.0654
  415SOL     OW 1243   3.053   1.101   0.434 -0.2477 -0.1101 -1.0286
  415SOL    HW1 1244   2.954   1.103   0.440  0.4180  0.2004 -1.8832
  415SOL    HW2 1245   3.088   1.188   0.472 -0.5897 -1.2819  1.3726
  416SOL     OW 1246   2.210   0.815   0.241  0.8801 -0.8156  0.2225
  416SOL    HW1 1247   2.232   0.815   0.143  1.0964  1.4800  2.1414
  416SOL    HW2 1248   2.247   0.905   0.283  1.4612  0.4035 -2.3902
  417SOL     OW 1249   2.717   2.773   0.128  0.4428  0.3777 -0.3086
  417SOL    HW1 1250   2.816   2.785   0.145  2.3240  0.1422 -0.6741
  417SOL    HW2 1251   2.699   2.676   0.148  2.2444  1.0558 -0.5982
  418SOL     OW 1252   2.836   0.664   0.058  0.3807 -0.4159  0.2304
  418SOL    HW1 1253   2.832   0.570   0.097 -0.4128  0.3518 -0.8225
  418SOL    HW2 1254   2.744   0.702   0.051  2.7235 -0.3929 -0.6131
  419SOL     OW 1255   0.789   0.409   0.570  0.2364  1.0109 -0.3355
  419SOL    HW1 1256   0.697   0.391   0.534  1.3317 -0.6488  3.8637
  419SOL    HW2 1257   0.827   0.325   0.618 -0.1087 -0.9730  1.8867
  420SOL     OW 1258   0.531   0.979   0.762  0.3679 -0.3544 -0.0130
  420SOL    HW1 1259   0.429   0.969   0.753  1.4032  0.1275 -0.4197
  420SOL    HW2 1260   0.568   0.926   0.844  0.2489  0.2724  2.1384
  421SOL     OW 1261   0.403   1.789   0.515 -0.3374  0.0083 -0.1774
  421SOL    HW1 1262   0.495   1.828   0.536 -1.1656  1.6242 -0.8460
  421SOL    HW2 1263   0.339   1.867   0.511 -0.2066 -3.6318  1.6097
  422SOL     OW 1264   2.702   0.227   1.678 -0.3816 -0.1434  0.7173
  422SOL    HW1 1265   2.766   0.175   1.734  3.3686 -0.2670 -1.0531
  422SOL    HW2 1266   2.726   0.199   1.582  1.2547  0.3951 -2.5187
  423SOL     OW 1267   2.014   1.906   0.022 -0.9659  0.6337 -0.5550
  423SOL    HW1 1268   2.061   1.977   0.078 -0.2436 -0.3600 -0.9097
  423SOL    HW2 1269   2.086   1.866   3.109 -0.5005 -0.4674  3.2654
  424SOL     OW 1270   1.658   1.537   2.833 -0.3736 -0.0211 -0.1199
  424SOL    HW1 1271   1.675   1.613   2.767  3.5282 -0.8116 -1.0060
  424SOL    HW2 1272   1.720   1.543   2.917 -1.3969  0.7300  2.5345
  425SOL     OW 1273   0.395   2.917   2.131  0.1033  0.0045 -0.4066
  425SOL    HW1 1274   0.358   2.828   2.103  1.4035  0.1117  0.0503
  425SOL    HW2 1275   0.378   2.981   2.058  0.4668 -1.8892  0.8917
  426SOL     OW 1276   2.233   2.888   0.121 -0.2613 -0.6009  0.1646
  426SOL    HW1 1277   2.164   2.919   0.190 -0.6043 -1.4722  1.0428
  426SOL    HW2 1278   2.193   2.886   0.029  0.8666 -0.3797  1.0666
  427SOL     OW 1279   0.499   1.665   2.339  0.0069 -0.4305  0.0133
  427SOL    HW1 1280   0.576   1.708   2.292  1.8867 -1.1816 -0.5443
  427SOL    HW2 1281   0.505   1.682   2.439  0.5625  0.6484 -1.6173
  428SOL     OW 1282   2.202   1.508   2.602  0.1424 -0.0086 -0.6251
  428SOL    HW1 1283   2.202   1.535   2.504 -0.2513  1.5526  2.5434
  428SOL    HW2 1284   2.230   1.411   2.618  1.7641  0.1636  0.2425
  429SOL     OW 1285   2.625   2.987   0.605 -0.2698 -0.0132  0.4305
  429SOL    HW1 1286   2.711   3.025   0.564 -0.4605 -2.6318  1.0307
  429SOL    HW2 1287   2.596   2.919   0.539  2.1075  0.0474 -2.4049
  430SOL     OW 1288   1.878   1.980   2.102  0.0449  0.5103 -0.0232
  430SOL    HW1 1289   1.896   1.884   2.077  0.6580  1.9872  1.8567
  430SOL    HW2 1290   1.927   2.046   2.044 -2.9932  0.0170 -2.1283
  431SOL     OW 1291   3.131   1.909   1.941  0.1744 -0.0101 -0.3748
  431SOL    HW1 1292   3.057   1.972   1.970 -1.7042  2.6546 -1.0148
  431SOL    HW2 1293   3.106   1.853   1.862  0.5221  1.1471 -2.0831
  432SOL     OW 1294   1.073   2.278   2.319 -0.0652  0.2547 -0.5055
  432SOL    HW1 1295   0.988   2.231   2.350 -2.7795  0.4393  0.0214
  432SOL    HW2 1296   1.099   2.234   2.228 -1.3097  0.3130  0.7981
  433SOL     OW 1297   1.057   2.838   1.012  0.2575  0.0715 -0.4074
  433SOL    HW1 1298   1.045   2.862   0.916 -0.2952 -1.4407 -2.9949
  433SOL    HW2 1299   1.152   2.867   1.045  0.4394  1.9448 -0.5040
  434SOL     OW 1300   0.307   2.308   2.373 -0.3821  0.8122 -0.4570
  434SOL    HW1 1301   0.373   2.241   2.409  0.7662 -0.8568  1.8029
  434SOL    HW2 1302   0.341   2.351   2.284  1.4650 -0.5380  0.1047
  435SOL     OW 1303   0.269   1.298   0.573  0.2431 -0.0705 -0.1449
  435SOL    HW1 1304   0.353   1.271   0.527 -1.6543 -0.4807  0.3707
  435SOL    HW2 1305   0.188   1.306   0.506 -1.9717  1.6308 -1.6339
  436SOL     OW 1306   0.472   1.992   1.788 -0.0822 -0.1853  0.3078
  436SOL    HW1 1307   0.552   1.941   1.745  2.6003  1.1221 -0.2804
  436SOL    HW2 1308   0.437   2.073   1.736 -1.7987 -0.5260 -2.1025
  437SOL     OW 1309   1.165   0.381   0.356 -0.5781 -0.2435 -0.2913
  437SOL    HW1 1310   1.105   0.312   0.393 -1.5237  0.9399 -2.3467
  437SOL    HW2 1311   1.112   0.462   0.320 -0.6178 -0.4834 -0.8149
  438SOL     OW 1312   0.866   1.826   0.830  0.4034 -0.1327 -0.0326
  438SOL    HW1 1313   0.820   1.758   0.769  0.0079 -1.5541 -0.7853
  438SOL    HW2 1314   0.956   1.788   0.859  1.7450  1.5115 -2.3087
  439SOL     OW 1315   1.437   2.144   1.773 -0.2034 -0.3736 -0.4006
  439SOL    HW1 1316   1.404   2.136   1.682 -0.1136 -0.4777  2.4212
  439SOL    HW2 1317   1.435   2.059   1.824 -0.3925  0.8386  0.6234
  440SOL     OW 1318   1.619   0.172   1.376  0.3221  0.2321  0.5189
  440SOL    HW1 1319   1.566   0.153   1.459  0.6258  1.1371 -1.2129
  440SOL    HW2 1320   1.693   0.238   1.399 -1.4279 -1.0550 -1.1343
  441SOL     OW 1321   0.555   0.101   1.285 -0.5523 -0.2640 -0.1302
  441SOL    HW1 1322   0.567   0.202   1.305  2.1898 -0.7768 -0.7510
  441SOL    HW2 1323   0.557   0.041   1.366  0.3347  1.4038 -3.4480
  442SOL     OW 1324   2.368   2.020   0.632  0.5158  0.1120 -0.0936
  442SOL    HW1 1325   2.270   2.036   0.655  0.0431 -1.0791 -1.1429
  442SOL    HW2 1326   2.404   2.096   0.572  1.3433  0.9923 -1.5624
  443SOL     OW 1327   2.682   0.340   2.381 -0.1551 -0.2768 -0.1559
  443SOL    HW1 1328   2.577   0.352   2.363 -2.2630 -0.3356  1.7650
  443SOL    HW2 1329   2.729   0.415   2.336 -0.0779  1.1448  1.4070
  444SOL     OW 1330   1.978   1.446   2.291  0.1883  0.4732 -0.2402
  444SOL    HW1 1331   1.874   1.465   2.297 -2.2405 -0.0739 -0.0615
  444SOL    HW2 1332   2.002   1.352   2.320 -0.1904 -1.0458 -3.8903
  445SOL     OW 1333   2.720   2.041   1.586 -0.3007 -0.8525 -0.4316
  445SOL    HW1 1334   2.688   1.962   1.638  0.4423 -2.4708 -0.8290
  445SOL    HW2 1335   2.792   2.090   1.637  0.6790 -1.5553  3.2104
  446SOL     OW 1336   0.262   0.910   0.753 -0.3361 -0.3960  0.5456
  446SOL    HW1 1337   0.213   0.833   0.706  1.7215  0.8690  0.9083
  446SOL    HW2 1338   0.215   1.004   0.737 -1.1332  1.7564  0.2123
  447SOL     OW 1339   0.650   1.630   0.769 -0.0884 -0.0567 -0.0489
  447SOL    HW1 1340   0.648   1.545   0.715  1.2200 -0.1671 -0.0926
  447SOL    HW2 1341   0.553   1.670   0.772  1.0822  1.3840  1.5516
  448SOL     OW 1342   1.199   1.110   1.976 -0.0232  0.2624  0.1033
  448SOL    HW1 1343   1.263   1.193   1.973 -0.2969  1.3639  1.8751
  448SOL    HW2 1344   1.247   1.024   1.948  1.2214 -1.6718 -1.5270
  449SOL     OW 1345   0.215   1.679   3.108  0.5018  0.0457 -0.1312
  449SOL    HW1 1346   0.202   1.650   3.009 -0.1945 -0.3577 -2.7543
  449SOL    HW2 1347   0.123   1.698   0.008 -1.3432  1.2764 -0.0620
  450SOL     OW 1348   2.713   2.376   1.991 -0.5406 -0.5777  0.3616
  450SOL    HW1 1349   2.664   2.439   1.925 -0.2229 -3.5302 -0.4589
  450SOL    HW2 1350   2.711   2.411   2.084 -2.0619 -1.7205  0.5259
  451SOL     OW 1351   2.183   0.366   2.263 -0.2373 -0.4260 -0.6586
  451SOL    HW1 1352   2.194   0.264   2.249  1.1850 -1.5145 -1.3384
  451SOL    HW2 1353   2.147   0.416   2.184  1.7261  1.2408  0.3005
  452SOL     OW 1354   0.853   2.931   1.176  0.1475 -0.1074  0.6737
  452SOL    HW1 1355   0.919   2.898   1.103  1.2484  0.1573 -0.4340
  452SOL    HW2 1356   0.884   3.017   1.213 -1.3401 -1.5669 -0.0676
  453SOL     OW 1357   1.223   1.320   1.150 -0.3896  0.3230 -0.1346
  453SOL    HW1 1358   1.309   1.373   1.152  0.3908 -0.5744  0.3860
  453SOL    HW2 1359   1.165   1.373   1.088 -3.3103 -1.7628  2.0104
  454SOL     OW 1360   0.333   1.153   1.101  0.3026  0.4445  0.2881
  454SOL    HW1 1361   0.301   1.186   1.193  0.1256 -0.1781 -0.6745
  454SOL    HW2 1362   0.392   1.229   1.061  1.7732  2.4165  0.7645
  455SOL     OW 1363   0.018   2.857   0.347  0.2790 -0.6598 -0.3050
  455SOL    HW1 1364   3.124   2.883   0.254  2.1868 -0.4443  2.0514
  455SOL    HW2 1365   0.109   2.899   0.362  1.8116  0.3123 -0.0790
  456SOL     OW 1366   2.495   2.336   0.697 -0.2545 -0.1770 -0.0768
  456SOL    HW1 1367   2.500   2.263   0.769  1.7626  0.3645 -1.7074
  456SOL    HW2 1368   2.545   2.306   0.613  2.9335 -2.2031  2.0895
  457SOL     OW 1369   1.298   0.163   3.090  0.3889 -0.1719  0.3934
  457SOL    HW1 1370   1.302   0.102   0.027 -1.9872  1.1646 -2.5425
  457SOL    HW2 1371   1.240   0.243   3.113 -3.2959  0.5383 -1.7213
  458SOL     OW 1372   2.974   2.707   0.500 -0.0013 -0.0014  0.5581
  458SOL    HW1 1373   3.028   2.755   0.429  1.0345 -1.2047 -0.1516
  458SOL    HW2 1374   2.876   2.720   0.478  1.0238  0.8867  0.5048
  459SOL     OW 1375   2.422   0.381   2.388  0.0197  0.3847  0.0625
  459SOL    HW1 1376   2.417   0.445   2.464  0.4894 -0.7434 -1.8154
  459SOL    HW2 1377   2.333   0.367   2.342  0.4070 -1.2557  1.6520
  460SOL     OW 1378   0.049   0.286   0.117 -0.2085  0.5290 -0.6609
  460SOL    HW1 1379   0.112   0.371   0.120  1.4198  1.3890  0.3793
  460SOL    HW2 1380   3.142   0.266   0.206 -0.9130 -0.9985  1.7190
  461SOL     OW 1381   0.485   1.754   1.403 -0.0659  0.0378  0.0847
  461SOL    HW1 1382   0.512   1.691   1.487  2.9672 -1.8596  2.4585
  461SOL    HW2 1383   0.482   1.698   1.317  0.5544 -2.3876 -1.3540
  462SOL     OW 1384   2.989   3.011   1.449  0.7150  0.0473  0.0853
  462SOL    HW1 1385   3.060   3.075   1.484  1.1062 -1.2826  2.5171
  462SOL    HW2 1386   2.916   3.008   1.523  0.9617  0.2380  3.0174
  463SOL     OW 1387   2.619   1.062   2.999  0.3009 -0.0662  0.1960
  463SOL    HW1 1388   2.644   0.976   2.948 -0.2945  0.8099 -0.5907
  463SOL    HW2 1389   2.703   1.118   3.016 -1.1858  0.0058  1.2360
  464SOL     OW 1390   0.336   2.431   1.223 -0.3785 -0.2841  0.4786
  464SOL    HW1 1391   0.371   2.339   1.218 -0.5626  1.2736  3.0473
  464SOL    HW2 1392   0.383   2.490   1.287 -2.3901 -3.6048 -1.7193
  465SOL     OW 1393   0.405   0.543   0.734 -0.1153 -0.4700 -0.6884
  465SOL    HW1 1394   0.317   0.571   0.690  1.2650  0.6153  1.4212
  465SOL    HW2 1395   0.417   0.594   0.826  1.4865  0.7341 -0.8154
  466SOL     OW 1396   1.226   3.023   2.179  0.1195 -0.2340  0.0754
  466SOL    HW1 1397   1.304   2.959   2.207 -3.2311  0.5869  0.4589
  466SOL    HW2 1398   1.232   3.113   2.229 -2.1588 -3.1554  1.9652
  467SOL     OW 1399   0.770   0.466   2.129  0.8340 -0.4780  0.1846
  467SOL    HW1 1400   0.789   0.454   2.029 -0.3035 -0.3152 -1.4011
  467SOL    HW2 1401   0.739   0.561   2.146 -1.1799 -0.9299 -0.8396
  468SOL     OW 1402   0.405   1.227   2.283  0.0410 -0.1019  0.0072
  468SOL    HW1 1403   0.361   1.271   2.362  0.7299  3.6034 -1.1953
  468SOL    HW2 1404   0.333   1.171   2.238  2.1904 -1.5484  2.5615
  469SOL     OW 1405   0.391   1.725   0.789 -0.2389 -0.0710  0.1800
  469SOL    HW1 1406   0.388   1.745   0.686 -1.9472 -0.7426 -1.4997
  469SOL    HW2 1407   0.314   1.664   0.813  1.3977  1.0305 -2.2266
  470SOL     OW 1408   2.811   1.699   2.379 -0.2223  0.6486  0.6114
  470SOL    HW1 1409   2.762   1.607   2.388 -3.0245  0.0734  0.0281
  470SOL    HW2 1410   2.785   1.741   2.286 -1.0512 -0.4849 -1.9347
  471SOL     OW 1411   1.585   0.606   2.461 -0.4577 -0.1033 -0.0987
  471SOL    HW1 1412   1.679   0.638   2.489  2.8781  0.2751  0.3823
  471SOL    HW2 1413   1.579   0.503   2.458  0.4766 -2.6435 -0.3613
  472SOL     OW 1414   0.793   2.623   1.499  0.1134  0.1111 -0.7596
  472SOL    HW1 1415   0.806   2.528   1.528  0.1800  4.4819 -1.0042
  472SOL    HW2 1416   0.887   2.667   1.496  0.1205  0.5004 -1.4488
  473SOL     OW 1417   0.248   0.158   2.469 -0.1402 -0.0852 -0.3797
  473SOL    HW1 1418   0.327   0.216   2.499 -3.0057 -1.5583 -0.0608
  473SOL    HW2 1419   0.279   0.070   2.433 -1.8275  1.3674  0.8132
  474SOL     OW 1420   1.893   0.082   1.174  0.1378 -0.1507 -0.8520
  474SOL    HW1 1421   1.909   0.180   1.163  0.4778 -0.3151  0.9901
  474SOL    HW2 1422   1.856   0.042   1.093  0.7615  2.7590  0.1316
  475SOL     OW 1423   1.942   0.945   0.850 -0.5876  0.3899 -0.0971
  475SOL    HW1 1424   1.850   0.965   0.809  1.2507 -0.0224 -0.9159
  475SOL    HW2 1425   1.983   1.029   0.890  1.4890 -0.9680 -0.4049
  476SOL     OW 1426   0.619   0.889   1.027 -0.4921  0.5934  0.6914
  476SOL    HW1 1427   0.608   0.987   1.062  2.1135  1.2274 -1.8010
  476SOL    HW2 1428   0.719   0.865   1.041  1.2964  2.1167 -0.5912
  477SOL     OW 1429   1.377   2.429   0.349 -0.0248 -0.3054 -0.7657
  477SOL    HW1 1430   1.295   2.365   0.362 -2.2751  1.0182 -1.8633
  477SOL    HW2 1431   1.423   2.453   0.438 -0.5093  1.6079  0.2444
  478SOL     OW 1432   0.226   2.459   2.581 -0.2929  0.5850 -0.0811
  478SOL    HW1 1433   0.279   2.539   2.543  0.9154 -1.4770 -0.7114
  478SOL    HW2 1434   0.233   2.382   2.509 -0.8619  0.5724 -2.8818
  479SOL     OW 1435   2.420   0.299   1.363 -0.2129  0.0167 -0.0748
  479SOL    HW1 1436   2.432   0.385   1.421  1.0012  1.5130  0.8359
  479SOL    HW2 1437   2.416   0.327   1.265  1.0698 -0.5510  0.1946
  480SOL     OW 1438   0.403   2.370   0.596  0.0436  0.3698 -0.6069
  480SOL    HW1 1439   0.446   2.375   0.507  1.8323  1.8526  2.7401
  480SOL    HW2 1440   0.303   2.387   0.586 -0.1929  1.9585 -2.6349
  481SOL     OW 1441   2.153   2.204   1.399  0.6208 -0.2486  0.1094
  481SOL    HW1 1442   2.102   2.141   1.460  0.7092 -0.5049  0.3587
  481SOL    HW2 1443   2.126   2.298   1.417  1.5621  0.3378  2.9094
  482SOL     OW 1444   1.353   2.703   2.890  0.4137 -0.3459  0.2242
  482SOL    HW1 1445   1.376   2.617   2.857 -0.1815  3.9987  1.6999
  482SOL    HW2 1446   1.405   2.782   2.854 -0.0347 -0.3627 -2.8814
  483SOL     OW 1447   0.953   2.246   1.879  0.2474  0.1407  0.4772
  483SOL    HW1 1448   1.008   2.324   1.849 -2.3313 -1.2977  1.2711
  483SOL    HW2 1449   0.925   2.191   1.797 -0.2963  1.5915 -1.8907
  484SOL     OW 1450   1.269   0.385   1.563  0.2493  0.5043 -0.2772
  484SOL    HW1 1451   1.278   0.442   1.475 -3.3791 -0.3331 -1.1214
  484SOL    HW2 1452   1.331   0.428   1.632  1.8029  0.9304 -1.4668
  485SOL     OW 1453   1.598   0.856   2.768 -0.4659  0.1410 -0.1004
  485SOL    HW1 1454   1.687   0.901   2.747  2.1601  0.4289  4.3350
  485SOL    HW2 1455   1.573   0.790   2.698  1.3358  1.8054 -0.0598
  486SOL     OW 1456   2.129   3.059   1.271 -0.8412 -0.2632 -0.1819
  486SOL    HW1 1457   2.047   3.111   1.240  3.6103 -0.4236  0.3013
  486SOL    HW2 1458   2.202   3.120   1.297 -3.6380  2.1443 -0.7778
  487SOL     OW 1459   0.657   2.130   1.138  0.0444  0.4542 -0.2333
  487SOL    HW1 1460   0.698   2.191   1.206 -0.7007 -1.3193 -1.4721
  487SOL    HW2 1461   0.554   2.147   1.125  0.6668  0.5514  0.9848
  488SOL     OW 1462   2.623   2.113   3.134  0.0757  0.3265 -0.5214
  488SOL    HW1 1463   2.696   2.179   3.111  1.3452 -2.0004  3.6047
  488SOL    HW2 1464   2.618   2.043   3.061 -1.4085  0.7781  1.1961
  489SOL     OW 1465   2.161   2.876   0.759  0.0350  0.5130 -0.3970
  489SOL    HW1 1466   2.243   2.816   0.768  2.1261  0.0745  2.1324
  489SOL    HW2 1467   2.078   2.822   0.729 -1.5721 -0.0524 -0.3192
  490SOL     OW 1468   0.996   1.657   0.039 -0.1568  1.2287  0.0087
  490SOL    HW1 1469   1.037   1.747   0.031 -0.9530 -0.0603  3.7292
  490SOL    HW2 1470   0.947   1.651   0.129 -0.8798  0.7390  2.5359
  491SOL     OW 1471   0.242   2.129   1.488 -0.2783  0.2245  0.2566
  491SOL    HW1 1472   0.150   2.163   1.494  1.3997 -0.5590 -1.0936
  491SOL    HW2 1473   0.303   2.184   1.545 -2.4781 -2.2121 -2.1019
  492SOL     OW 1474   0.784   1.432   1.776 -0.4408  0.4362 -0.4035
  492SOL    HW1 1475   0.850   1.388   1.714 -0.6654 -1.3356  1.1378
  492SOL    HW2 1476   0.691   1.403   1.760 -0.0209  2.1629  1.2201
  493SOL     OW 1477   2.664   1.905   0.948  0.5044 -0.7364  0.0551
  493SOL    HW1 1478   2.715   1.859   0.869 -0.9525 -1.0672 -1.8007
  493SOL    HW2 1479   2.731   1.945   1.018  2.5234 -0.8861  0.2347
  494SOL     OW 1480   2.825   1.779   0.749  0.8513  0.6966  0.0823
  494SOL    HW1 1481   2.773   1.730   0.674 -4.1134  0.7569 -1.5804
  494SOL    HW2 1482   2.912   1.732   0.756 -1.6549 -0.6424  3.0610
  495SOL     OW 1483   2.469   2.854   0.385  0.5922  0.2765  0.2366
  495SOL    HW1 1484   2.453   2.944   0.336  0.0038 -0.4609  1.0591
  495SOL    HW2 1485   2.392   2.780   0.373 -2.1887  0.6353  1.6133
  496SOL     OW 1486   2.370   0.027   1.336 -0.1304 -0.2356 -0.0630
  496SOL    HW1 1487   2.453   3.116   1.367  1.0283 -0.0309  1.3998
  496SOL    HW2 1488   2.390   0.123   1.369  0.4327 -0.7100  0.9222
  497SOL     OW 1489   2.387   1.188   2.939  0.5238  0.4761  0.0285
  497SOL    HW1 1490   2.360   1.156   2.844  2.1869 -1.4071  0.2986
  497SOL    HW2 1491   2.474   1.143   2.972  2.4100  0.5905  0.1676
  498SOL     OW 1492   3.088   2.003   1.331 -0.4396  0.2105 -0.0803
  498SOL    HW1 1493   2.994   2.047   1.335  0.2479 -2.2106 -2.6846
  498SOL    HW2 1494   3.137   2.020   1.240  3.0812  0.2664 -1.4843
  499SOL     OW 1495   0.908   2.518   2.750 -0.6278 -0.0994 -0.1165
  499SOL    HW1 1496   0.986   2.578   2.728 -1.4108 -1.3361  0.3119
  499SOL    HW2 1497   0.904   2.435   2.690  1.1430  0.3842  0.9292
  500SOL     OW 1498   1.568   1.459   0.375 -0.1450  0.3814  0.1211
  500SOL    HW1 1499   1.476   1.422   0.353 -0.9551  0.7840  0.3510
  500SOL    HW2 1500   1.590   1.427   0.469 -2.1828  0.3867 -0.4716
  501SOL     OW 1501   1.542   0.065   1.652 -0.1589 -0.8086 -0.0356
  501SOL    HW1 1502   1.487   0.074   1.739  2.7202  1.5667 -4.2263
  501SOL    HW2 1503   1.618   3.141   1.663 -0.2072  0.2192 -0.5933
  502SOL     OW 1504   2.557   0.673   1.620  0.0845 -0.0485 -0.0320
  502SOL    HW1 1505   2.643   0.615   1.600  4.5553  0.0625 -1.3038
  502SOL    HW2 1506   2.546   0.684   1.718 -0.9718 -1.9892 -2.2164
  503SOL     OW 1507   2.499   1.650   2.203 -0.4002 -0.3353 -0.1879
  503SOL    HW1 1508   2.409   1.598   2.205 -1.9559  1.9477  0.4761
  503SOL    HW2 1509   2.576   1.608   2.152  0.5258  1.7683  2.6621
  504SOL     OW 1510   1.375   1.293   1.909  0.4603 -0.7023  0.6547
  504SOL    HW1 1511   1.439   1.312   1.987 -0.4425  0.1809 -1.2000
  504SOL    HW2 1512   1.416   1.251   1.821 -1.4980  0.5240 -1.6178
  505SOL     OW 1513   0.293   0.484   1.562 -0.3757 -0.3645  0.1448
  505SOL    HW1 1514   0.340   0.546   1.495  0.5756  1.5270 -0.9845
  505SOL    HW2 1515   0.334   0.487   1.649  0.7980 -0.3448 -1.8514
  506SOL     OW 1516   0.257   0.124   3.139  0.2905  0.1227  0.7712
  506SOL    HW1 1517   0.168   0.154   0.037 -0.9454  1.5121  2.3245
  506SOL    HW2 1518   0.267   0.136   3.040  0.0101 -0.2896  1.2865
  507SOL     OW 1519   0.476   2.672   0.117  0.3769  0.3644  0.0500
  507SOL    HW1 1520   0.455   2.681   0.215  2.2511 -0.8620  0.0767
  507SOL    HW2 1521   0.405   2.619   0.061  0.6341 -1.7796 -0.8805
  508SOL     OW 1522   1.046   0.526   2.129 -0.0771  0.6099 -0.3274
  508SOL    HW1 1523   0.946   0.532   2.141  0.3773  1.4335 -2.3136
  508SOL    HW2 1524   1.095   0.471   2.202  0.3714  1.6622  1.4779
  509SOL     OW 1525   1.446   2.118   1.135 -0.6964  0.4405 -0.3991
  509SOL    HW1 1526   1.398   2.170   1.063  1.6602  0.3601  1.8364
  509SOL    HW2 1527   1.511   2.185   1.180  2.7605 -2.0678 -1.8717
  510SOL     OW 1528   2.959   1.179   1.556  0.6416  0.1255 -0.0103
  510SOL    HW1 1529   2.939   1.245   1.630 -0.1580 -0.3580 -1.8346
  510SOL    HW2 1530   2.924   1.088   1.585 -0.8992 -0.0995  2.5606
  511SOL     OW 1531   1.233   1.931   1.149 -1.2334  0.3179  0.1334
  511SOL    HW1 1532   1.318   1.988   1.154 -0.3998 -0.0860 -2.3782
  511SOL    HW2 1533   1.263   1.834   1.170 -1.3661 -1.7108  0.9980
  512SOL     OW 1534   3.059   1.549   0.479 -0.0250 -0.3008  0.4751
  512SOL    HW1 1535   2.978   1.507   0.524  2.4303  1.3316  1.9469
  512SOL    HW2 1536   3.115   1.485   0.421  1.6048  0.5143  0.5239
  513SOL     OW 1537   0.191   1.533   2.805  0.1922 -0.1189 -0.4845
  513SOL    HW1 1538   0.270   1.575   2.758  0.3196  0.3668 -1.2042
  513SOL    HW2 1539   0.219   1.461   2.869 -1.5016  0.1095  1.0311
  514SOL     OW 1540   2.325   2.365   2.369  0.2361  0.0478 -0.6322
  514SOL    HW1 1541   2.226   2.359   2.384  0.7944  1.8931  0.9590
  514SOL    HW2 1542   2.373   2.288   2.408 -2.6629  0.6624 -1.6079
  515SOL     OW 1543   2.390   0.975   0.737  0.8605 -0.1073 -0.1525
  515SOL    HW1 1544   2.295   0.934   0.731 -1.3748 -1.9505 -0.1129
  515SOL    HW2 1545   2.445   0.931   0.661 -0.0940  0.8442 -1.1219
  516SOL     OW 1546   2.718   2.515   0.229 -0.5491 -0.1682 -0.4272
  516SOL    HW1 1547   2.634   2.461   0.213  0.6414 -0.6198 -1.9857
  516SOL    HW2 1548   2.800   2.474   0.178  2.3327 -0.7983  0.3846
  517SOL     OW 1549   0.697   1.565   3.028 -0.6965 -0.1278  0.0250
  517SOL    HW1 1550   0.784   1.595   3.059 -1.4955 -0.2912 -0.8741
  517SOL    HW2 1551   0.644   1.517   3.100  0.7050  3.6087  0.3102
  518SOL     OW 1552   2.936   0.347   2.102 -0.0183  0.1988  0.2577
  518SOL    HW1 1553   2.861   0.282   2.071 -1.1994 -1.3875 -0.5516
  518SOL    HW2 1554   2.953   0.421   2.030 -1.3973  1.5042 -1.4514
  519SOL     OW 1555   1.673   1.057   0.023 -0.6740 -0.3602 -0.0318
  519SOL    HW1 1556   1.643   0.970   3.121 -0.8953 -3.6932  1.4569
  519SOL    HW2 1557   1.625   1.074   0.111 -0.1389  0.8581  0.0263
  520SOL     OW 1558   2.813   2.932   2.375 -0.2869  0.8945  0.2218
  520SOL    HW1 1559   2.791   3.008   2.438  1.7129  0.8533 -1.9058
  520SOL    HW2 1560   2.876   2.866   2.419  4.1554 -2.1394  0.9830
  521SOL     OW 1561   0.426   2.014   2.288 -0.0570 -0.0259  0.0802
  521SOL    HW1 1562   0.482   2.025   2.202  0.1659  1.0807  2.0604
  521SOL    HW2 1563   0.498   2.009   2.365  2.3890  0.0260  2.8390
  522SOL     OW 1564   1.243   3.075   1.712 -0.1112 -0.0013 -0.4382
  522SOL    HW1 1565   1.224   3.117   1.806 -0.0049  2.0772  0.8719
  522SOL    HW2 1566   1.235   2.975   1.713 -1.2861 -0.4579 -0.0008
  523SOL     OW 1567   2.254   2.218   0.991 -0.1761  0.3102 -0.2362
  523SOL    HW1 1568   2.345   2.201   0.957 -2.8041  3.3112 -0.6532
  523SOL    HW2 1569   2.256   2.283   1.068  0.3831  0.3220  1.8795
  524SOL     OW 1570   1.158   2.136   0.697  0.4250 -0.1420  0.0809
  524SOL    HW1 1571   1.215   2.216   0.712 -0.5172 -0.6889  0.4563
  524SOL    HW2 1572   1.060   2.165   0.671  0.3704 -0.5450 -0.1892
  525SOL     OW 1573   2.729   0.480   0.715  0.1763 -0.2297  0.0798
  525SOL    HW1 1574   2.678   0.565   0.731  2.6396 -1.4878 -0.5691
  525SOL    HW2 1575   2.828   0.497   0.694  0.2816 -0.0088 -0.8888
  526SOL     OW 1576   1.575   2.880   0.350  0.3012  0.3726  0.3067
  526SOL    HW1 1577   1.630   2.817   0.401  0.1714 -0.3189 -0.2949
  526SOL    HW2 1578   1.503   2.821   0.304 -0.4836  0.4824 -1.4117
  527SOL     OW 1579   1.993   1.729   1.231 -0.8951  0.5865  0.2323
  527SOL    HW1 1580   2.005   1.754   1.331  0.4246 -0.0715  1.2971
  527SOL    HW2 1581   2.072   1.774   1.182 -0.8261  2.0633 -1.3644
  528SOL     OW 1582   2.901   2.757   2.593  0.1213  0.1217 -0.4645
  528SOL    HW1 1583   2.964   2.678   2.576 -0.4031 -0.5408  1.5864
  528SOL    HW2 1584   2.812   2.725   2.639 -0.5005 -1.0365  3.0918
  529SOL     OW 1585   1.059   1.442   2.436 -0.0108 -0.2138 -0.0753
  529SOL    HW1 1586   1.048   1.419   2.537 -0.5580 -2.1335  1.3946
  529SOL    HW2 1587   0.967   1.415   2.394  0.5570  1.0514 -2.9910
  530SOL     OW 1588   1.922   0.979   2.347 -0.2177  0.7287  0.0781
  530SOL    HW1 1589   1.823   0.997   2.355  3.4619 -0.2108  0.5066
  530SOL    HW2 1590   1.948   0.911   2.421  1.3039  2.4681  0.3087
  531SOL     OW 1591   0.225   0.919   3.102  0.4811 -0.1525 -0.3308
  531SOL    HW1 1592   0.288   0.857   0.011 -0.9535 -0.3181 -2.5467
  531SOL    HW2 1593   0.129   0.897   3.130 -1.0964 -1.9656  0.3617
  532SOL     OW 1594   1.656   1.375   0.630  0.4621 -0.4327  0.1713
  532SOL    HW1 1595   1.634   1.297   0.693 -3.0704  1.7984 -1.7041
  532SOL    HW2 1596   1.612   1.462   0.661 -0.8514  1.8108 -0.0464
  533SOL     OW 1597   0.186   0.516   2.566 -0.7423 -0.0947 -0.0098
  533SOL    HW1 1598   0.164   0.475   2.477  0.9540 -2.6893  0.4217
  533SOL    HW2 1599   0.286   0.542   2.575  0.6673  0.1909 -1.2223
  534SOL     OW 1600   0.712   0.508   2.608  0.0345 -0.6560  0.6847
  534SOL    HW1 1601   0.750   0.491   2.702  1.1705  0.2011 -0.4224
  534SOL    HW2 1602   0.695   0.609   2.596 -4.2253  0.9405 -0.0792
  535SOL     OW 1603   0.683   0.639   2.998 -0.0906 -0.4225 -0.0744
  535SOL    HW1 1604   0.762   0.674   2.940  0.0719 -0.1338 -2.2650
  535SOL    HW2 1605   0.599   0.696   2.982  2.3229  0.7630 -0.4463
  536SOL     OW 1606   0.651   1.014   2.837  0.6539 -0.2376  0.3229
  536SOL    HW1 1607   0.719   1.067   2.785  0.2972 -2.4231  0.4530
  536SOL    HW2 1608   0.656   1.037   2.939 -0.4052 -0.1696  1.3971
  537SOL     OW 1609   1.403   2.953   1.510  0.5973 -0.2032  0.4341
  537SOL    HW1 1610   1.384   3.031   1.576  0.6592  3.3653  0.6223
  537SOL    HW2 1611   1.431   3.004   1.426 -1.2115 -0.9607  4.0960
  538SOL     OW 1612   0.713   2.538   0.035  0.2152 -0.1258  0.0415
  538SOL    HW1 1613   0.642   2.610   0.018  0.0051 -0.6712  0.3813
  538SOL    HW2 1614   0.801   2.545   3.127  1.0957 -0.2061 -0.8946
  539SOL     OW 1615   2.922   1.393   1.751 -0.0796 -0.3059 -0.0150
  539SOL    HW1 1616   2.826   1.427   1.759 -0.6107 -0.7913  1.5265
  539SOL    HW2 1617   2.981   1.422   1.833  1.9498 -0.1064  4.0582
  540SOL     OW 1618   1.999   1.781   1.498 -0.0342  0.6007  0.2695
  540SOL    HW1 1619   1.954   1.707   1.539  1.3853  0.2716 -0.1345
  540SOL    HW2 1620   1.964   1.870   1.526  1.4576 -0.2490 -1.4934
  541SOL     OW 1621   0.675   1.867   1.632 -0.1215 -0.0630 -0.3621
  541SOL    HW1 1622   0.617   1.843   1.550  0.3403 -1.5700 -0.0147
  541SOL    HW2 1623   0.744   1.791   1.663 -0.1286 -1.4087  0.7760
  542SOL     OW 1624   1.787   1.247   1.902 -0.5222 -0.0685  0.6752
  542SOL    HW1 1625   1.748   1.277   1.815  1.4598 -2.0836  1.4686
  542SOL    HW2 1626   1.846   1.167   1.881 -0.8630  1.2036  0.7303
  543SOL     OW 1627   1.002   0.462   0.748 -0.5410 -0.1935 -0.1583
  543SOL    HW1 1628   1.081   0.530   0.741  0.0621  0.6722 -1.6591
  543SOL    HW2 1629   0.941   0.473   0.666  0.0028  0.5922  2.5334
  544SOL     OW 1630   2.016   1.740   2.018  0.1364 -0.0080  0.3575
  544SOL    HW1 1631   2.106   1.767   1.973  0.7266 -2.0565 -1.6267
  544SOL    HW2 1632   2.028   1.668   2.087 -2.3523 -1.2155 -0.9546
  545SOL     OW 1633   1.614   1.700   1.337 -0.3444  0.0925  0.2121
  545SOL    HW1 1634   1.627   1.800   1.319  1.0787 -0.5295 -0.7530
  545SOL    HW2 1635   1.698   1.644   1.306  1.5462 -1.1015  0.2917
  546SOL     OW 1636   0.270   0.229   2.896 -0.7419  0.6893 -0.1148
  546SOL    HW1 1637   0.298   0.145   2.841 -0.6739 -3.4693 -2.4877
  546SOL    HW2 1638   0.354   0.280   2.922 -1.0683 -1.8205 -1.4150
  547SOL     OW 1639   2.197   0.711   3.112 -0.3918 -0.2358  0.5012
  547SOL    HW1 1640   2.100   0.748   3.100 -1.5872 -2.6481  0.9458
  547SOL    HW2 1641   2.188   0.622   0.020 -0.5343 -0.9663 -1.8867
  548SOL     OW 1642   2.390   1.901   2.151  0.0116  0.6277 -0.4151
  548SOL    HW1 1643   2.337   1.896   2.062 -0.0802  1.4624 -0.3160
  548SOL    HW2 1644   2.425   1.812   2.183  0.0960  2.4488  1.1634
  549SOL     OW 1645   2.445   3.016   0.919 -0.0509 -0.4813 -0.1373
  549SOL    HW1 1646   2.444   2.916   0.921 -0.2742  1.8686  0.8507
  549SOL    HW2 1647   2.463   3.054   0.822 -0.7897  3.1837 -1.5275
  550SOL     OW 1648   2.193   1.599   0.055  0.5300 -0.1546  0.7120
  550SOL    HW1 1649   2.216   1.567   0.150  0.0459 -1.2989 -0.7218
  550SOL    HW2 1650   2.246   1.677   0.035 -2.5385 -2.2048 -2.7825
  551SOL     OW 1651   1.517   0.046   1.927  0.0640 -0.1005  0.1372
  551SOL    HW1 1652   1.586   0.065   1.999  0.2564  0.2774 -0.2957
  551SOL    HW2 1653   1.518   3.092   1.895  1.8529 -1.9632 -0.1782
  552SOL     OW 1654   2.877   2.500   2.925  0.1588 -0.2456  0.5415
  552SOL    HW1 1655   2.973   2.536   2.903  3.5888 -0.5825 -1.2835
  552SOL    HW2 1656   2.805   2.576   2.922 -1.6825 -1.8987  1.4902
  553SOL     OW 1657   0.762   3.094   0.762  0.4415  0.1681 -0.4142
  553SOL    HW1 1658   0.720   3.081   0.852  0.9707  0.6185 -0.5409
  553SOL    HW2 1659   0.697   3.067   0.688  2.3810  0.6209  2.0491
  554SOL     OW 1660   1.967   2.360   1.577  0.0316  0.1024 -0.3828
  554SOL    HW1 1661   1.867   2.381   1.559 -0.2979 -0.5925 -1.5936
  554SOL    HW2 1662   2.011   2.412   1.654  1.3098  0.9226  2.3775
  555SOL     OW 1663   1.265   2.230   1.507  0.1249  0.5755  0.0484
  555SOL    HW1 1664   1.214   2.319   1.509 -3.5315  1.3950  0.4230
  555SOL    HW2 1665   1.204   2.154   1.485  2.2689 -0.2866 -0.4036
  556SOL     OW 1666   1.694   1.786   0.583 -0.0841  0.7505 -0.4336
  556SOL    HW1 1667   1.674   1.791   0.685  0.1934  0.7356 -0.4945
  556SOL    HW2 1668   1.617   1.744   0.532  2.3073  2.5865  0.7841
  557SOL     OW 1669   1.315   2.325   1.935  0.0576 -0.1563  0.5850
  557SOL    HW1 1670   1.376   2.272   1.872 -0.2386 -2.7649  0.2062
  557SOL    HW2 1671   1.238   2.268   1.975 -5.9011 -1.2209 -1.9833
  558SOL     OW 1672   2.986   0.527   1.916  0.1506  0.1468 -0.4834
  558SOL    HW1 1673   3.004   0.628   1.918  0.9807  3.4815 -1.3838
  558SOL    HW2 1674   2.953   0.495   1.827  0.4415  0.1998 -1.4241
  559SOL     OW 1675   2.547   3.044   1.509 -0.6225 -0.0263 -0.0666
  559SOL    HW1 1676   2.513   2.949   1.505 -1.0194  1.0410 -3.7841
  559SOL    HW2 1677   2.650   3.044   1.519  3.6236 -0.7161 -1.9185
  560SOL     OW 1678   0.743   3.016   3.056  0.3388 -0.3469  0.2474
  560SOL    HW1 1679   0.669   3.003   2.987  1.8772  3.1276  1.1785
  560SOL    HW2 1680   0.707   2.970   3.142 -3.1943 -1.6388  0.0192
  561SOL     OW 1681   1.256   0.816   0.554  0.4504  0.8774 -0.2767
  561SOL    HW1 1682   1.170   0.820   0.502  0.7024  1.7237 -0.3883
  561SOL    HW2 1683   1.332   0.782   0.498 -0.5234  0.3624  0.2112
  562SOL     OW 1684   0.910   0.822   2.508 -0.2331  0.5993  1.0336
  562SOL    HW1 1685   0.989   0.848   2.563  0.5249 -2.1174 -2.0798
  562SOL    HW2 1686   0.938   0.764   2.427 -2.0514  0.2874 -0.8931
  563SOL     OW 1687   2.045   2.628   2.678 -0.3351  0.4280  0.3931
  563SOL    HW1 1688   2.079   2.564   2.609  2.7911  1.7351  1.3375
  563SOL    HW2 1689   1.943   2.621   2.684 -0.8537 -0.7173 -1.8066
  564SOL     OW 1690   0.114   1.352   0.369  0.1048 -0.5821  0.1268
  564SOL    HW1 1691   0.159   1.445   0.373  0.8912 -2.4336 -2.0973
  564SOL    HW2 1692   0.091   1.326   0.277  0.8274 -0.8971  1.6102
  565SOL     OW 1693   1.442   2.951   2.812  0.0987  0.5527  0.1533
  565SOL    HW1 1694   1.475   2.971   2.715 -0.0821 -1.5608 -0.2649
  565SOL    HW2 1695   1.374   3.028   2.834  0.4143  3.3867  1.3682
  566SOL     OW 1696   1.794   2.971   2.672 -0.2230  0.7185 -0.0711
  566SOL    HW1 1697   1.856   2.928   2.600 -0.8457  0.4732 -0.9256
  566SOL    HW2 1698   1.839   3.050   2.718  1.4048 -2.1653 -0.1738
  567SOL     OW 1699   2.504   1.392   0.794  0.0645  0.3701 -0.0317
  567SOL    HW1 1700   2.510   1.323   0.870  1.0656  1.2829  1.4681
  567SOL    HW2 1701   2.424   1.456   0.801  0.4906  1.1833  0.5860
  568SOL     OW 1702   2.049   1.533   2.986  0.3600 -0.2481 -0.2410
  568SOL    HW1 1703   2.054   1.610   2.917  1.4156  0.4438 -1.4643
  568SOL    HW2 1704   2.105   1.554   3.072 -1.1948 -0.4658  1.3241
  569SOL     OW 1705   2.275   1.867   2.701  0.3989 -0.3572 -0.0435
  569SOL    HW1 1706   2.356   1.928   2.688 -2.1512  1.0798 -0.6051
  569SOL    HW2 1707   2.310   1.777   2.733 -3.0421  1.3964 -0.4065
  570SOL     OW 1708   3.078   2.518   2.098  0.2407 -0.3342 -0.3392
  570SOL    HW1 1709   3.110   2.437   2.153  3.3064  0.5793 -2.9743
  570SOL    HW2 1710   3.132   2.522   2.006 -0.3792  1.1337 -2.9621
  571SOL     OW 1711   0.148   0.332   2.317  0.2371 -0.1470 -0.6159
  571SOL    HW1 1712   0.189   0.256   2.367 -0.0203 -2.8458 -0.4618
  571SOL    HW2 1713   0.211   0.408   2.299 -2.5231 -1.6435  1.1715
  572SOL     OW 1714   1.101   1.709   0.848 -0.3359 -0.0579  0.0128
  572SOL    HW1 1715   1.182   1.770   0.858  0.8312 -0.1085 -1.6221
  572SOL    HW2 1716   1.106   1.633   0.917 -1.9654  0.9298 -2.2095
  573SOL     OW 1717   0.874   0.177   0.225 -0.1875 -0.4309  0.7134
  573SOL    HW1 1718   0.823   0.265   0.243 -1.9883  1.5510  2.2740
  573SOL    HW2 1719   0.953   0.165   0.285  3.4324  0.4690  0.1103
  574SOL     OW 1720   0.616   3.065   0.537 -0.2387 -0.0744  0.1514
  574SOL    HW1 1721   0.652   3.090   0.444 -0.7020 -0.2497 -4.9513
  574SOL    HW2 1722   0.546   3.126   0.577 -0.0977  0.7488 -0.8803
  575SOL     OW 1723   0.162   1.416   1.706  0.3642 -0.1678 -0.0785
  575SOL    HW1 1724   0.162   1.517   1.716  0.2945 -0.2924 -1.1765
  575SOL    HW2 1725   0.174   1.375   1.800  0.1374  1.3057  1.3060
  576SOL     OW 1726   2.127   0.572   1.770  0.2957  0.3298  0.6448
  576SOL    HW1 1727   2.099   0.582   1.673 -2.2836  0.7051  1.1741
  576SOL    HW2 1728   2.192   0.493   1.786 -0.4989 -1.4486 -0.6332
  577SOL     OW 1729   2.913   1.539   2.115  0.1999 -0.0146  0.7728
  577SOL    HW1 1730   2.958   1.609   2.174 -1.8000  1.9399 -1.8217
  577SOL    HW2 1731   2.963   1.526   2.027 -1.5055  0.9348 -0.1281
  578SOL     OW 1732   1.402   2.823   2.209  0.8286  0.1086 -0.5186
  578SOL    HW1 1733   1.439   2.734   2.174 -1.7454  1.3069 -1.2561
  578SOL    HW2 1734   1.422   2.838   2.307  1.9425 -1.3285 -2.9023
  579SOL     OW 1735   2.089   2.179   2.163 -0.1869  0.4393 -0.1425
  579SOL    HW1 1736   2.011   2.193   2.096 -1.3113  0.2743  1.5319
  579SOL    HW2 1737   2.098   2.083   2.199  0.7788 -0.2682  2.5429
  580SOL     OW 1738   2.023   1.439   2.020 -0.2155  0.0415  1.0147
  580SOL    HW1 1739   1.932   1.431   1.981  1.3399 -1.2033 -0.4570
  580SOL    HW2 1740   2.023   1.427   2.121  2.3822  0.9987  1.9423
  581SOL     OW 1741   1.446   1.284   2.197 -0.1849  0.6483 -0.3052
  581SOL    HW1 1742   1.505   1.219   2.147  1.9943 -0.0542  0.1303
  581SOL    HW2 1743   1.488   1.290   2.291 -0.4650  0.7322 -3.3308
  582SOL     OW 1744   0.167   2.092   2.056 -0.1871  0.0285 -0.0140
  582SOL    HW1 1745   0.242   2.055   2.107  1.7603 -1.5203 -1.8558
  582SOL    HW2 1746   0.118   2.012   2.010  3.5408 -1.2914 -2.7169
  583SOL     OW 1747   1.517   1.177   0.792 -0.2934 -0.0078  0.1244
  583SOL    HW1 1748   1.428   1.155   0.754  2.2317  0.4252  1.3309
  583SOL    HW2 1749   1.516   1.165   0.891  1.1612 -0.5019 -0.6284
  584SOL     OW 1750   1.109   2.361   0.390 -0.0054  0.6249 -0.0199
  584SOL    HW1 1751   1.089   2.464   0.386 -1.0130  1.5043 -0.2650
  584SOL    HW2 1752   1.072   2.322   0.471  0.0672  2.8985 -1.4111
  585SOL     OW 1753   0.023   2.538   0.074  0.5505 -0.4329  0.5380
  585SOL    HW1 1754   0.055   2.564   0.165 -0.6085  0.6707 -2.7141
  585SOL    HW2 1755   0.099   2.514   0.011 -0.3366  2.6335 -0.2406
  586SOL     OW 1756   2.400   1.348   0.530 -0.4272 -0.5099  0.8805
  586SOL    HW1 1757   2.449   1.314   0.448  1.5154 -0.1076 -1.8199
  586SOL    HW2 1758   2.471   1.363   0.603 -0.0813 -2.0463 -0.8743
  587SOL     OW 1759   0.966   1.421   3.047 -0.5753  0.4361  0.8276
  587SOL    HW1 1760   0.964   1.440   2.945 -1.1794  0.9044 -2.1522
  587SOL    HW2 1761   1.006   1.509   3.086  0.7460 -1.7591 -1.6834
  588SOL     OW 1762   0.131   0.251   0.718 -0.5285  0.1529 -0.3289
  588SOL    HW1 1763   0.160   0.241   0.621 -0.3254  3.0256  1.6693
  588SOL    HW2 1764   0.217   0.274   0.773  1.7129  3.8804  3.9364
  589SOL     OW 1765   1.409   3.046   0.732 -0.5622  0.1996  0.1005
  589SOL    HW1 1766   1.445   3.136   0.704 -0.9645  1.6534 -1.4408
  589SOL    HW2 1767   1.314   3.059   0.775 -0.0961  0.6355 -0.6421
  590SOL     OW 1768   2.574   2.260   0.444  0.3298  0.0248  0.2168
  590SOL    HW1 1769   2.665   2.285   0.482 -0.0988  1.0044 -0.2700
  590SOL    HW2 1770   2.558   2.306   0.352 -0.0152  1.5765 -0.2129
  591SOL     OW 1771   0.371   2.507   2.067 -0.0594  0.2309  0.0472
  591SOL    HW1 1772   0.322   2.556   2.143  0.2578  2.1588 -0.3596
  591SOL    HW2 1773   0.392   2.576   1.995 -0.3665 -1.1235 -1.6073
  592SOL     OW 1774   0.200   1.951   2.406 -0.0111  0.5814 -0.0679
  592SOL    HW1 1775   0.130   1.920   2.338  1.1285  0.6449  1.9665
  592SOL    HW2 1776   0.288   1.982   2.364  2.7499  0.0711 -0.8721
  593SOL     OW 1777   1.573   1.279   1.394  0.5544 -0.0172 -0.4156
  593SOL    HW1 1778   1.624   1.353   1.440 -0.2971 -1.3178  2.7659
  593SOL    HW2 1779   1.536   1.314   1.306 -0.2504 -3.4343 -0.5574
  594SOL     OW 1780   0.618   1.342   2.870 -0.4095  0.1477  0.0744
  594SOL    HW1 1781   0.557   1.290   2.935 -0.0021  1.9229  1.2990
  594SOL    HW2 1782   0.642   1.429   2.911 -2.9731  0.7675  1.3477
  595SOL     OW 1783   1.402   0.640   0.912 -0.3903 -0.0276  0.3117
  595SOL    HW1 1784   1.467   0.685   0.849  1.2413 -2.7185  0.4466
  595SOL    HW2 1785   1.307   0.647   0.876 -1.3995  0.3347  3.3385
  596SOL     OW 1786   0.617   1.142   1.156  0.4288 -0.1585  0.3854
  596SOL    HW1 1787   0.716   1.136   1.160 -5.7052 -2.5533  1.6594
  596SOL    HW2 1788   0.601   1.204   1.076  3.2880  0.8433 -2.2735
  597SOL     OW 1789   0.702   2.269   1.981  0.0984 -0.1040 -0.0139
  597SOL    HW1 1790   0.663   2.357   1.955  1.6946  0.0242 -0.5859
  597SOL    HW2 1791   0.804   2.271   1.967  0.9072  2.5879 -1.4830
  598SOL     OW 1792   2.274   2.553   2.153  0.1448 -0.3866  0.2153
  598SOL    HW1 1793   2.170   2.564   2.165 -0.1592  1.4214 -2.1225
  598SOL    HW2 1794   2.300   2.483   2.223 -0.0046  2.2628  0.0397
  599SOL     OW 1795   0.787   1.122   0.397  0.1892 -0.0115 -0.0898
  599SOL    HW1 1796   0.833   1.208   0.410 -0.2348 -4.0121 -3.4183
  599SOL    HW2 1797   0.854   1.070   0.342  1.7019 -0.5987 -0.8768
  600SOL     OW 1798   1.469   0.503   0.265  0.4816 -1.1441  0.2009
  600SOL    HW1 1799   1.414   0.470   0.182 -3.2393 -1.8616 -2.0410
  600SOL    HW2 1800   1.503   0.431   0.330  1.6600 -0.1690 -0.5341
  601SOL     OW 1801   0.597   0.385   1.379  0.0311  0.2888  0.3377
  601SOL    HW1 1802   0.534   0.451   1.424 -1.6564  1.1644  1.8341
  601SOL    HW2 1803   0.620   0.407   1.276 -1.9946  0.9470 -0.8831
  602SOL     OW 1804   0.317   2.135   0.737  0.5448 -0.2265 -0.1282
  602SOL    HW1 1805   0.382   2.076   0.788 -0.3848  0.3091  1.0934
  602SOL    HW2 1806   0.367   2.199   0.681  0.3772 -1.6135  0.6036
  603SOL     OW 1807   0.777   2.756   2.738 -0.4924 -0.3328  0.2408
  603SOL    HW1 1808   0.829   2.669   2.729  0.3521 -2.5019  0.9075
  603SOL    HW2 1809   0.807   2.822   2.666  0.0963 -0.7036  0.2322
  604SOL     OW 1810   0.534   2.391   0.352 -0.3254  0.3808  0.3944
  604SOL    HW1 1811   0.490   2.311   0.307  0.6616 -2.0951 -1.1309
  604SOL    HW2 1812   0.631   2.393   0.326  2.0425  1.9010 -0.2380
  605SOL     OW 1813   1.910   1.558   1.629 -0.0073  0.3924 -0.0522
  605SOL    HW1 1814   1.976   1.481   1.654  0.1270 -0.7932  3.0127
  605SOL    HW2 1815   1.817   1.517   1.600 -2.1030  0.8011  1.6409
  606SOL     OW 1816   0.909   1.141   3.078 -0.0370 -0.1250  0.1560
  606SOL    HW1 1817   0.804   1.128   3.075 -3.7080  1.7280 -3.0100
  606SOL    HW2 1818   0.939   1.235   3.049  2.7850  1.8830  3.9032
  607SOL     OW 1819   1.091   1.062   1.180 -0.4457 -0.5263  0.0323
  607SOL    HW1 1820   1.060   1.055   1.279 -1.3496 -1.3330  2.8747
  607SOL    HW2 1821   1.144   1.151   1.165 -2.7377  1.1712 -1.4270
  608SOL     OW 1822   2.899   2.132   2.019 -0.1448  0.2991 -0.2768
  608SOL    HW1 1823   2.913   2.106   2.115  0.7082 -1.6837  1.7386
  608SOL    HW2 1824   2.842   2.214   2.011 -0.6898  1.8065  2.1910
  609SOL     OW 1825   2.214   0.050   0.304 -0.4290  0.3419 -0.2875
  609SOL    HW1 1826   2.307   0.006   0.275  0.1036 -3.4980 -0.3429
  609SOL    HW2 1827   2.145   3.128   0.277  3.5992  2.9535 -0.1902
  610SOL     OW 1828   0.218   2.713   1.623 -0.2520  0.5798 -0.0322
  610SOL    HW1 1829   0.256   2.770   1.544  1.3105  1.2784  0.0180
  610SOL    HW2 1830   0.175   2.631   1.585  3.2263  0.5933 -1.5745
  611SOL     OW 1831   1.630   2.072   0.274  0.3489 -0.5542  0.1629
  611SOL    HW1 1832   1.732   2.053   0.272  0.0807 -0.7410  0.9162
  611SOL    HW2 1833   1.583   1.986   0.290 -3.0680 -0.1010  0.2849
  612SOL     OW 1834   0.576   0.262   1.954  0.5654 -0.1396 -0.2741
  612SOL    HW1 1835   0.646   0.329   1.917  1.4118  1.3976 -1.7176
  612SOL    HW2 1836   0.497   0.312   2.001 -0.7699  0.0741 -1.9049
  613SOL     OW 1837   2.796   1.212   0.436  0.1358 -0.3963  0.0891
  613SOL    HW1 1838   2.785   1.283   0.511  0.8504  1.4356 -0.6791
  613SOL    HW2 1839   2.796   1.258   0.341 -0.7041 -0.2990  0.1047
  614SOL     OW 1840   2.083   0.510   2.071  1.2453  0.4249 -0.1018
  614SOL    HW1 1841   2.136   0.564   1.998  2.0285  1.7926  0.5194
  614SOL    HW2 1842   2.041   0.425   2.031 -0.4919  0.7977  1.7547
  615SOL     OW 1843   1.041   1.542   1.060 -0.6647 -0.0945 -0.1053
  615SOL    HW1 1844   1.079   1.556   1.154  0.9957  0.4080 -0.8742
  615SOL    HW2 1845   0.940   1.539   1.073  0.0784 -0.0008 -1.8386
  616SOL     OW 1846   1.574   1.820   2.668 -0.0033 -0.3651 -0.5443
  616SOL    HW1 1847   1.528   1.840   2.760 -1.3604  2.7203 -2.3780
  616SOL    HW2 1848   1.678   1.826   2.680  1.9137  0.5989 -2.7113
  617SOL     OW 1849   2.030   2.976   0.302 -0.1669  0.2197  0.2853
  617SOL    HW1 1850   1.943   3.020   0.265 -0.8403  0.2420 -0.1298
  617SOL    HW2 1851   2.012   2.903   0.365 -1.9792  2.2497  0.1074
  618SOL     OW 1852   0.654   0.770   2.552 -0.1484 -0.5860 -0.0436
  618SOL    HW1 1853   0.589   0.847   2.543 -0.8038 -0.8707 -0.1791
  618SOL    HW2 1854   0.748   0.797   2.524 -0.6312  0.6591 -0.5548
  619SOL     OW 1855   2.950   1.674   1.227  0.1946  0.4545  0.4296
  619SOL    HW1 1856   2.995   1.676   1.133 -0.3303 -0.4989  0.0618
  619SOL    HW2 1857   2.992   1.741   1.283 -2.1647 -1.2126 -1.4147
  620SOL     OW 1858   2.206   0.006   3.019  0.6351  0.5657 -0.4111
  620SOL    HW1 1859   2.103   0.007   3.034 -2.0320  2.3334  1.3794
  620SOL    HW2 1860   2.228   3.066   2.969 -1.2638  1.5744  1.9865
  621SOL     OW 1861   2.395   1.465   3.002 -0.0505 -0.3311 -0.4820
  621SOL    HW1 1862   2.320   1.484   3.070 -1.8032  2.5651  1.9286
  621SOL    HW2 1863   2.394   1.369   2.968  2.6105 -1.7854  0.2665
  622SOL     OW 1864   1.866   2.790   2.051 -0.2117  0.1969  0.8497
  622SOL    HW1 1865   1.780   2.846   2.077  0.2357 -0.4086  0.5755
  622SOL    HW2 1866   1.935   2.851   2.001  0.9305  0.3322  0.2485
  623SOL     OW 1867   1.241   1.837   0.345 -0.2675 -0.0445  0.2317
  623SOL    HW1 1868   1.186   1.850   0.429  0.3341  1.1625 -1.5681
  623SOL    HW2 1869   1.191   1.853   0.256 -0.3308 -0.9986 -0.7408
  624SOL     OW 1870   0.267   3.046   0.136  0.3307  0.3072  0.4789
  624SOL    HW1 1871   0.270   2.962   0.075  0.2340 -0.9187 -0.8355
  624SOL    HW2 1872   0.264   3.134   0.078  1.2303  2.0148 -2.0878
  625SOL     OW 1873   0.693   1.695   0.381  0.2988  0.6076 -0.6857
  625SOL    HW1 1874   0.714   1.786   0.421 -2.6971 -0.4181  0.5311
  625SOL    HW2 1875   0.595   1.694   0.357 -2.5940  0.5163 -1.2318
  626SOL     OW 1876   3.009   2.799   0.106 -0.0707 -0.0201  0.4642
  626SOL    HW1 1877   3.040   2.707   0.128 -0.1046  1.1728  0.4247
  626SOL    HW2 1878   2.997   2.808   0.006  0.7491 -2.0973  2.5481
  627SOL     OW 1879   0.939   2.047   2.685  0.0545  0.4416 -0.0633
  627SOL    HW1 1880   0.976   2.007   2.598  1.3882  1.4055 -2.6794
  627SOL    HW2 1881   1.017   2.067   2.750  2.2809  1.8022 -1.3749
  628SOL     OW 1882   0.276   0.005   2.771  0.6619 -0.0551 -1.1813
  628SOL    HW1 1883   0.219   0.032   2.692 -0.0484  1.3436  1.1004
  628SOL    HW2 1884   0.236   3.065   2.814  0.8913 -1.3304 -3.0441
  629SOL     OW 1885   0.334   3.077   2.363  0.7856 -0.6188 -0.7230
  629SOL    HW1 1886   0.432   3.090   2.381 -1.9448 -0.2855  2.6403
  629SOL    HW2 1887   0.315   3.047   2.267 -1.6811  0.4556  0.5659
  630SOL     OW 1888   1.570   0.896   1.985 -0.0313 -0.4301 -0.5607
  630SOL    HW1 1889   1.643   0.845   1.936  2.1081  0.3271 -1.1096
  630SOL    HW2 1890   1.476   0.890   1.950  0.6264  2.3325  2.9044
  631SOL     OW 1891   2.223   1.058   0.459 -0.2118 -0.2315 -0.4162
  631SOL    HW1 1892   2.184   0.985   0.517 -2.8667 -0.0891  2.0966
  631SOL    HW2 1893   2.263   1.137   0.510 -0.7200 -0.4975  1.8402
  632SOL     OW 1894   2.362   0.656   2.110 -0.5197 -0.3599 -0.4472
  632SOL    HW1 1895   2.384   0.701   2.197 -1.0758  0.5274 -1.5084
  632SOL    HW2 1896   2.287   0.590   2.121  1.5582  2.5008 -2.5897
  633SOL     OW 1897   0.786   2.425   0.260  0.3115 -0.3721  0.2829
  633SOL    HW1 1898   0.754   2.463   0.168  1.2501  1.1138 -1.7665
  633SOL    HW2 1899   0.852   2.488   0.308  0.8159 -2.1416  0.8826
  634SOL     OW 1900   1.609   2.620   2.484  0.1259  0.5845  0.4643
  634SOL    HW1 1901   1.553   2.533   2.491 -1.3369 -1.7328  1.1138
  634SOL    HW2 1902   1.543   2.698   2.499  3.5522 -1.9258 -3.3460
  635SOL     OW 1903   2.178   0.479   0.119 -0.1482  1.0808  0.5684
  635SOL    HW1 1904   2.260   0.421   0.106 -1.7336 -0.6101  0.6020
  635SOL    HW2 1905   2.151   0.495   0.215 -1.0527 -0.5791  2.3805
  636SOL     OW 1906   0.672   1.238   0.856 -0.8195  0.4091 -0.1396
  636SOL    HW1 1907   0.631   1.148   0.827 -0.0012 -0.2718  0.3301
  636SOL    HW2 1908   0.767   1.213   0.878 -0.5267 -0.0881  1.9498
  637SOL     OW 1909   0.136   1.920   0.572 -0.1641 -0.4617  0.4742
  637SOL    HW1 1910   0.179   1.996   0.631  1.0380  0.4122  2.7394
  637SOL    HW2 1911   0.071   1.953   0.500 -0.8663 -0.2521  0.2762
  638SOL     OW 1912   0.833   0.137   3.085 -0.2702 -0.4489  0.1625
  638SOL    HW1 1913   0.828   0.035   3.089 -0.4310 -0.3422 -0.4668
  638SOL    HW2 1914   0.845   0.172   0.039  0.6996  1.1749  0.8937
  639SOL     OW 1915   1.475   1.840   2.920 -0.1216 -0.3369 -0.2935
  639SOL    HW1 1916   1.386   1.792   2.929  3.2150  0.4100  2.9379
  639SOL    HW2 1917   1.522   1.856   3.010 -0.1039 -1.6454 -2.5492
  640SOL     OW 1918   1.833   2.894   0.872 -0.0306 -0.3152 -0.3435
  640SOL    HW1 1919   1.900   2.876   0.952 -1.2232 -1.5831  0.7341
  640SOL    HW2 1920   1.877   2.899   0.777  2.8552 -0.0417 -1.7137
  641SOL     OW 1921   3.142   2.814   0.697 -0.0169  0.3368  0.0779
  641SOL    HW1 1922   3.096   2.778   0.613 -1.2886  1.2629  4.4460
  641SOL    HW2 1923   0.068   2.886   0.667 -1.4967 -0.3222 -1.7892
  642SOL     OW 1924   0.915   0.304   1.701  0.3086 -0.3819 -0.1361
  642SOL    HW1 1925   0.924   0.247   1.617 -0.3715 -1.2526  0.9162
  642SOL    HW2 1926   1.006   0.307   1.743  0.4869  3.7851 -1.2509
  643SOL     OW 1927   0.532   2.051   2.043  0.2245  0.2682 -0.0161
  643SOL    HW1 1928   0.585   2.141   2.030  0.9891  3.3890  0.2298
  643SOL    HW2 1929   0.497   2.025   1.952 -2.8912  2.8253  2.0312
  644SOL     OW 1930   0.499   2.806   0.572 -0.4443  0.2090  0.1970
  644SOL    HW1 1931   0.552   2.885   0.534  2.2601 -1.5597  0.6525
  644SOL    HW2 1932   0.523   2.801   0.670 -0.9745 -0.3894 -1.0607
  645SOL     OW 1933   1.364   2.107   2.878  0.0108 -0.7846  0.8259
  645SOL    HW1 1934   1.422   2.173   2.930 -0.0722  0.1086 -0.2359
  645SOL    HW2 1935   1.415   2.028   2.849  0.3729  0.6138 -2.1403
  646SOL     OW 1936   0.435   1.236   3.140  0.1105  0.5125  0.3939
  646SOL    HW1 1937   0.336   1.241   3.139  3.6961 -1.0322 -0.9031
  646SOL    HW2 1938   0.476   1.331   0.011 -1.0731  2.6315 -0.2259
  647SOL     OW 1939   0.984   0.119   0.972 -0.2315  0.2101  0.6790
  647SOL    HW1 1940   0.984   0.080   1.066 -2.2906 -0.0347 -0.8700
  647SOL    HW2 1941   0.926   0.204   0.967  0.4831 -1.1072  0.9190
  648SOL     OW 1942   2.155   0.136   1.710 -0.3350 -0.0080 -0.3239
  648SOL    HW1 1943   2.056   0.125   1.688 -1.3834 -1.2549 -2.2769
  648SOL    HW2 1944   2.215   0.056   1.682  0.3290 -0.1446  1.1705
  649SOL     OW 1945   0.722   2.019   2.836  0.6415  0.1621  0.3349
  649SOL    HW1 1946   0.806   2.027   2.778  0.9648  0.3974 -1.9968
  649SOL    HW2 1947   0.684   1.922   2.842 -0.0155 -2.3010 -1.8709
  650SOL     OW 1948   2.916   1.821   1.763 -0.6849 -0.2328  0.7930
  650SOL    HW1 1949   2.851   1.847   1.835 -1.4339  0.4610  0.5675
  650SOL    HW2 1950   2.864   1.775   1.693  0.1989  0.7912  1.1626
  651SOL     OW 1951   1.147   2.914   0.499 -0.8098  0.1744  0.0858
  651SOL    HW1 1952   1.075   2.926   0.424  1.1029  0.9435 -0.9569
  651SOL    HW2 1953   1.170   2.817   0.518  0.5527 -1.6978 -0.3614
  652SOL     OW 1954   2.801   1.923   0.206 -0.4261 -0.1810  0.0250
  652SOL    HW1 1955   2.748   1.894   0.120  0.8250  0.0659 -1.6632
  652SOL    HW2 1956   2.796   2.027   0.224  2.8360  1.8891  0.5229
  653SOL     OW 1957   2.896   0.325   1.081  0.1744 -0.0985  0.9203
  653SOL    HW1 1958   2.820   0.254   1.075 -0.6963 -1.1538 -1.4375
  653SOL    HW2 1959   2.953   0.329   0.995  0.9386  0.2127  1.3471
  654SOL     OW 1960   2.035   0.307   2.595 -0.0791  0.2988  0.0897
  654SOL    HW1 1961   1.978   0.252   2.529  0.7396 -0.4391 -0.2036
  654SOL    HW2 1962   2.108   0.244   2.633 -1.2763 -1.9576  0.6498
  655SOL     OW 1963   0.395   2.574   0.973  0.1588  0.3753 -0.2665
  655SOL    HW1 1964   0.360   2.658   0.936  0.2042 -2.5996 -0.5472
  655SOL    HW2 1965   0.349   2.549   1.061  1.6107  1.7977 -1.1362
  656SOL     OW 1966   0.226   0.163   1.894  0.2935  0.0147  0.0144
  656SOL    HW1 1967   0.142   0.166   1.948  1.3633  2.0225  0.3361
  656SOL    HW2 1968   0.270   0.073   1.894  0.0804 -0.1392  1.1399
  657SOL     OW 1969   2.382   0.581   2.593  0.6875 -0.1566 -0.1792
  657SOL    HW1 1970   2.303   0.624   2.540  1.9411  1.4773 -1.2263
  657SOL    HW2 1971   2.350   0.551   2.685  1.2213  0.6402 -2.5598
  658SOL     OW 1972   2.174   1.911   1.075  0.0204 -0.2500 -0.5437
  658SOL    HW1 1973   2.170   1.998   1.020 -0.0405  0.1464 -1.2186
  658SOL    HW2 1974   2.236   1.929   1.156  0.0454  0.1297 -1.5222
  659SOL     OW 1975   2.391   0.215   3.045  0.0731 -0.4663 -0.2493
  659SOL    HW1 1976   2.427   0.175   3.129 -0.4209 -1.2844 -2.6898
  659SOL    HW2 1977   2.310   0.163   3.016  0.9157  2.5205  0.9143
  660SOL     OW 1978   1.408   1.531   2.956  0.3466 -0.1291 -0.0695
  660SOL    HW1 1979   1.495   1.551   2.906 -1.6049  1.5232 -0.4154
  660SOL    HW2 1980   1.421   1.515   3.053 -0.6576 -0.6707 -3.0776
  661SOL     OW 1981   2.550   2.565   1.080 -0.3465  0.4020  0.1705
  661SOL    HW1 1982   2.608   2.478   1.064  0.6459 -2.4520 -0.6766
  661SOL    HW2 1983   2.609   2.645   1.089 -3.7556 -1.2387 -0.6501
  662SOL     OW 1984   0.577   0.736   0.319 -0.0283 -0.1844  0.4646
  662SOL    HW1 1985   0.534   0.652   0.353  0.0181  3.4615 -1.4557
  662SOL    HW2 1986   0.623   0.785   0.394 -2.4259 -1.3894 -0.3261
  663SOL     OW 1987   1.835   2.019   3.007 -0.2877  0.0584 -0.5010
  663SOL    HW1 1988   1.816   2.114   3.045 -3.0898  0.2701 -0.8523
  663SOL    HW2 1989   1.908   1.977   3.066  1.0557  1.6001  0.8950
  664SOL     OW 1990   0.765   2.305   1.531  0.1468  0.1731  0.2001
  664SOL    HW1 1991   0.747   2.315   1.428 -1.7306 -3.0461 -0.0368
  664SOL    HW2 1992   0.705   2.370   1.583 -2.4791 -1.1149 -0.3742
  665SOL     OW 1993   1.918   2.215   1.959 -0.5825  0.0207 -0.5100
  665SOL    HW1 1994   1.963   2.293   1.914 -1.2033 -0.0998 -0.1137
  665SOL    HW2 1995   1.822   2.208   1.924  3.5784  1.1246 -0.7266
  666SOL     OW 1996   0.411   2.633   0.388  0.6015  0.2149 -0.6409
  666SOL    HW1 1997   0.450   2.695   0.457  1.8847 -1.7987 -0.3722
  666SOL    HW2 1998   0.456   2.544   0.400  1.1549  1.2590  1.1107
  667SOL     OW 1999   2.082   1.184   1.936 -0.0785 -0.0278 -0.1879
  667SOL    HW1 2000   2.109   1.112   2.001 -2.6320  0.3848 -1.3829
  667SOL    HW2 2001   2.051   1.264   1.987  1.2057 -2.5564  0.2488
  668SOL     OW 2002   0.444   0.588   2.605  0.0985 -0.2314  0.2973
  668SOL    HW1 2003   0.496   0.652   2.548  1.1369 -1.0876  2.0673
  668SOL    HW2 2004   0.480   0.493   2.604  0.2851 -0.8490 -1.6825
  669SOL     OW 2005   1.644   2.172   2.519  0.0908  0.1940  0.4311
  669SOL    HW1 2006   1.604   2.172   2.427  1.9185 -0.9953 -3.7547
  669SOL    HW2 2007   1.740   2.137   2.507 -0.7638  0.0319  1.4999
  670SOL     OW 2008   2.235   2.264   3.024 -0.2496  0.1591  0.4038
  670SOL    HW1 2009   2.282   2.354   3.040  0.6722 -1.6296  0.5284
  670SOL    HW2 2010   2.257   2.233   2.928  1.7944 -0.3504 -0.6648
  671SOL     OW 2011   0.882   1.215   1.134  0.2077  0.2857 -0.0292
  671SOL    HW1 2012   0.960   1.152   1.144  0.7804 -1.9264 -0.6309
  671SOL    HW2 2013   0.875   1.263   1.227 -1.1826  0.9626  2.5046
  672SOL     OW 2014   2.566   1.012   2.520 -0.5838  0.2010 -0.2958
  672SOL    HW1 2015   2.624   0.932   2.489  1.1670  2.1587  1.2359
  672SOL    HW2 2016   2.616   1.103   2.510  0.6284  0.8501 -0.9290
  673SOL     OW 2017   2.662   2.556   2.244  0.2802 -0.0994  0.0399
  673SOL    HW1 2018   2.746   2.504   2.275  1.1044 -0.8716  1.6137
  673SOL    HW2 2019   2.682   2.650   2.206 -2.0156  0.3637  0.1872
  674SOL     OW 2020   1.277   2.528   2.357 -0.3696  0.0936 -0.0127
  674SOL    HW1 2021   1.206   2.458   2.340  0.9485  2.6700  0.7857
  674SOL    HW2 2022   1.356   2.531   2.288  1.4235  1.5845  0.3861
  675SOL     OW 2023   0.914   0.840   1.625  0.0314  0.2910 -0.6232
  675SOL    HW1 2024   0.938   0.744   1.615  0.8829 -0.8971 -1.1502
  675SOL    HW2 2025   0.946   0.886   1.714  0.2623 -1.3303 -0.5151
  676SOL     OW 2026   1.715   0.982   0.705 -0.1467  0.4883  0.1950
  676SOL    HW1 2027   1.632   1.038   0.725 -1.4290 -2.5180 -2.1496
  676SOL    HW2 2028   1.762   1.022   0.627 -1.0303 -1.3290 -0.8543
  677SOL     OW 2029   2.754   1.976   2.494  0.2283  0.6560 -0.7261
  677SOL    HW1 2030   2.850   1.990   2.525 -1.2028 -1.6147 -0.9216
  677SOL    HW2 2031   2.747   1.886   2.447  0.8776  3.1602  0.4020
  678SOL     OW 2032   2.849   2.139   1.361  0.1566  0.0885  0.4978
  678SOL    HW1 2033   2.828   2.227   1.401  1.4642 -2.2793 -1.1508
  678SOL    HW2 2034   2.800   2.067   1.409  0.9679  1.0904 -1.8088
  679SOL     OW 2035   2.026   2.547   0.808  0.3105 -0.3492 -0.2538
  679SOL    HW1 2036   2.109   2.528   0.754  1.5814 -0.4111  0.5476
  679SOL    HW2 2037   1.961   2.470   0.808 -0.0352 -0.6429  0.0480
  680SOL     OW 2038   0.372   2.667   2.473 -0.0427  0.7449 -0.4977
  680SOL    HW1 2039   0.324   2.751   2.511  2.1166 -0.1853 -1.7228
  680SOL    HW2 2040   0.472   2.690   2.460  3.2798 -0.6026 -1.5786
  681SOL     OW 2041   0.080   1.240   1.520  0.3563  0.2754  0.2038
  681SOL    HW1 2042   0.115   1.314   1.575  2.0605  1.0244 -3.7384
  681SOL    HW2 2043   3.124   1.219   1.546 -1.4352  0.5107  0.2565
  682SOL     OW 2044   0.351   1.972   1.312  0.3114 -0.0573  0.0245
  682SOL    HW1 2045   0.316   2.037   1.386  1.7737 -0.9969 -2.4565
  682SOL    HW2 2046   0.412   1.903   1.352 -0.3637 -1.3506 -1.1510
  683SOL     OW 2047   2.407   1.330   1.320 -0.1008  0.0180 -0.4526
  683SOL    HW1 2048   2.377   1.401   1.256 -0.9215 -2.6924  0.7070
  683SOL    HW2 2049   2.499   1.343   1.356 -0.8269  0.2250  2.3246
  684SOL     OW 2050   2.607   1.666   3.034  0.2560 -0.0734 -0.5190
  684SOL    HW1 2051   2.684   1.609   3.045 -1.2646  1.1384 -2.7702
  684SOL    HW2 2052   2.519   1.617   3.013  0.2149 -0.6666  1.2673
  685SOL     OW 2053   1.319   1.283   0.027 -0.2727  0.4481  0.4134
  685SOL    HW1 2054   1.270   1.294   3.079 -0.7044  1.8479 -2.3631
  685SOL    HW2 2055   1.419   1.294   0.003  1.3965  0.9292  1.5089
  686SOL     OW 2056   0.376   0.368   1.105  0.4884  0.4395  0.0487
  686SOL    HW1 2057   0.438   0.286   1.114 -0.0565  1.4738 -0.4695
  686SOL    HW2 2058   0.285   0.345   1.149 -0.2797 -0.3294  2.4958
  687SOL     OW 2059   0.831   1.976   2.301  0.0181  0.3361  0.1907
  687SOL    HW1 2060   0.930   1.945   2.290  1.1331 -0.4521  2.2161
  687SOL    HW2 2061   0.775   1.901   2.264 -1.2631 -0.7169  0.5316
  688SOL     OW 2062   0.257   1.918   1.073 -0.4528 -0.3125  0.5245
  688SOL    HW1 2063   0.290   1.938   1.168 -3.2569 -0.7175  1.6400
  688SOL    HW2 2064   0.326   1.944   1.001  0.5559 -2.3950 -0.9097
  689SOL     OW 2065   1.676   0.770   1.529  0.3172  0.1167 -0.1225
  689SOL    HW1 2066   1.670   0.853   1.471 -0.5356 -3.1537  0.0511
  689SOL    HW2 2067   1.692   0.687   1.473  0.7633  1.2907 -0.6207
  690SOL     OW 2068   2.481   1.133   0.937  0.1292 -0.0165  0.1886
  690SOL    HW1 2069   2.447   1.072   0.861  1.5238  3.0552 -1.6012
  690SOL    HW2 2070   2.582   1.115   0.952  0.1982 -1.0527  1.5788
  691SOL     OW 2071   0.231   2.304   1.899 -0.0298 -0.0924  0.8376
  691SOL    HW1 2072   0.273   2.368   1.965  0.9375  0.3880 -0.4527
  691SOL    HW2 2073   0.206   2.219   1.951 -2.0574 -0.6694  1.8673
  692SOL     OW 2074   1.639   3.041   0.970 -0.4154  0.5691 -0.2863
  692SOL    HW1 2075   1.722   3.017   0.918 -1.8649 -0.7433 -0.3931
  692SOL    HW2 2076   1.633   2.963   1.038  0.0513 -0.3770 -0.0628
  693SOL     OW 2077   0.270   1.434   2.452  0.2859  0.0584  0.1981
  693SOL    HW1 2078   0.240   1.519   2.501 -0.4203 -0.3535  0.3530
  693SOL    HW2 2079   0.195   1.397   2.390  1.4751  0.3953  2.0859
  694SOL     OW 2080   2.045   0.717   0.976 -0.1693 -0.3500  0.0866
  694SOL    HW1 2081   2.143   0.751   0.991  1.4077  0.8684  1.9995
  694SOL    HW2 2082   1.986   0.780   0.922  0.3566  2.2274  2.7605
  695SOL     OW 2083   0.900   1.166   1.735  0.3934 -0.1314  0.5676
  695SOL    HW1 2084   0.838   1.138   1.659 -0.9638 -2.1947  0.6838
  695SOL    HW2 2085   0.995   1.143   1.704  1.8064 -2.1591 -2.1807
  696SOL     OW 2086   1.309   3.137   0.167  0.2255  0.2936 -0.8362
  696SOL    HW1 2087   1.268   3.043   0.153  0.2114 -1.1758  2.1157
  696SOL    HW2 2088   1.293   0.022   0.264  1.7455 -0.0607 -3.2550
  697SOL     OW 2089   1.025   0.386   1.173  0.2602  0.0785  0.3268
  697SOL    HW1 2090   0.957   0.366   1.099 -0.0164 -2.2470 -0.0786
  697SOL    HW2 2091   1.113   0.334   1.155  1.4572 -0.1283 -1.6395
  698SOL     OW 2092   1.314   1.691   2.317  0.4896  0.0754  0.0511
  698SOL    HW1 2093   1.370   1.640   2.248  2.3512  3.1890 -1.2982
  698SOL    HW2 2094   1.213   1.670   2.314 -0.4451  3.1444  1.4485
  699SOL     OW 2095   1.338   0.936   1.094 -0.2941  0.0503  0.0249
  699SOL    HW1 2096   1.250   0.981   1.108  1.6117 -1.0102 -0.0967
  699SOL    HW2 2097   1.344   0.841   1.128 -0.3011  0.3273  2.1400
  700SOL     OW 2098   0.971   2.934   0.751 -0.5111 -0.3532 -0.1502
  700SOL    HW1 2099   1.058   2.984   0.724  0.9402  3.4674 -2.4096
  700SOL    HW2 2100   0.892   3.002   0.764 -1.9924 -1.3411 -2.3005
  701SOL     OW 2101   2.562   2.852   2.802  0.9743 -0.0941 -0.1613
  701SOL    HW1 2102   2.583   2.773   2.744  0.8590 -1.4187  2.4704
  701SOL    HW2 2103   2.609   2.935   2.777  0.1698 -0.2392 -2.5412
  702SOL     OW 2104   1.059   0.155   0.444  0.3607  0.0362 -0.1352
  702SOL    HW1 2105   1.148   0.102   0.437  0.0819 -1.4640 -1.6572
  702SOL    HW2 2106   1.007   0.138   0.532  0.7080  0.9127 -1.8432
  703SOL     OW 2107   2.613   0.082   2.364 -0.4898  0.3537 -0.0514
  703SOL    HW1 2108   2.609   0.025   2.279  1.8975 -0.9722 -5.0327
  703SOL    HW2 2109   2.653   0.171   2.339  0.4505  0.2225 -3.3841
  704SOL     OW 2110   3.107   1.702   0.692  0.1762  0.0644  0.6271
  704SOL    HW1 2111   3.119   1.635   0.616  1.4551  1.4744  0.4602
  704SOL    HW2 2112   0.003   1.791   0.662 -0.6457 -1.0108  0.7981
  705SOL     OW 2113   3.127   3.107   2.196  0.0599 -0.5934 -0.2541
  705SOL    HW1 2114   0.017   0.043   2.135 -0.1377  2.1781 -1.6736
  705SOL    HW2 2115   3.131   3.131   2.294 -2.3542 -0.3625 -1.1587
  706SOL     OW 2116   2.403   2.709   0.802 -0.3422  0.3185  0.1406
  706SOL    HW1 2117   2.472   2.681   0.731 -2.1292  0.6088  0.0059
  706SOL    HW2 2118   2.431   2.656   0.884  1.0617 -0.9080 -5.9886
  707SOL     OW 2119   1.059   2.031   1.488 -0.1119 -0.0985 -0.1073
  707SOL    HW1 2120   0.993   2.031   1.567  0.7888  0.8771  0.0704
  707SOL    HW2 2121   1.013   2.050   1.397  0.4899 -0.8373  0.4905
  708SOL     OW 2122   0.037   2.466   1.785 -0.0153  0.3289  0.5454
  708SOL    HW1 2123   0.058   2.484   1.689  0.1896 -0.6497  0.2889
  708SOL    HW2 2124   0.115   2.424   1.835  0.1496 -4.0253  0.3024
  709SOL     OW 2125   2.208   3.003   2.109 -0.5387  0.0960  0.5630
  709SOL    HW1 2126   2.162   3.081   2.157 -0.1040 -1.6561  0.0195
  709SOL    HW2 2127   2.293   3.025   2.058 -0.7901  0.0676  3.1079
  710SOL     OW 2128   1.851   0.969   2.771  0.1802 -0.4327 -0.3270
  710SOL    HW1 2129   1.945   0.936   2.801  0.0233  0.3470  1.2004
  710SOL    HW2 2130   1.861   1.061   2.730  2.2455  0.7736 -1.6592
  711SOL     OW 2131   1.000   2.315   3.093 -0.4171 -0.0877  0.4217
  711SOL    HW1 2132   0.972   2.407   3.058 -2.4142  1.6369  0.1809
  711SOL    HW2 2133   0.917   2.257   3.095 -0.1407 -1.1173 -0.9611
  712SOL     OW 2134   0.614   2.410   2.701  0.6153  0.0510  0.3379
  712SOL    HW1 2135   0.709   2.404   2.659 -0.0957  1.0249  0.7198
  712SOL    HW2 2136   0.546   2.348   2.657 -2.5310  2.2145  0.6803
  713SOL     OW 2137   1.797   1.471   3.051 -0.1777 -0.3588  1.0584
  713SOL    HW1 2138   1.895   1.494   3.024  0.8245 -1.8291  1.8961
  713SOL    HW2 2139   1.778   1.490   0.007 -2.4734  2.2002  0.8307
  714SOL     OW 2140   1.167   1.567   1.303 -0.0535 -0.0435  0.1426
  714SOL    HW1 2141   1.255   1.601   1.261 -1.1198  1.4854 -0.8176
  714SOL    HW2 2142   1.138   1.619   1.385  2.1508 -1.1485 -1.3294
  715SOL     OW 2143   1.729   0.265   0.057  0.3625 -0.2935  0.2605
  715SOL    HW1 2144   1.811   0.312   0.028 -1.4826  0.2317  1.4381
  715SOL    HW2 2145   1.725   0.251   0.155  2.0512  1.0424 -1.0630
  716SOL     OW 2146   0.222   2.656   2.247  0.3276 -0.4169  0.1259
  716SOL    HW1 2147   0.121   2.680   2.262 -1.5993  2.4608 -2.1574
  716SOL    HW2 2148   0.270   2.658   2.338  3.6210 -0.1350  0.7868
  717SOL     OW 2149   3.059   0.723   1.022 -0.2062 -0.2027 -0.4811
  717SOL    HW1 2150   3.027   0.812   0.981 -0.3795 -2.6393 -1.4876
  717SOL    HW2 2151   2.999   0.692   1.099 -0.2245  2.1576  1.0028
  718SOL     OW 2152   0.792   1.424   2.354 -0.1276 -0.4886  0.0801
  718SOL    HW1 2153   0.774   1.479   2.440 -0.4943 -0.8773  0.4121
  718SOL    HW2 2154   0.729   1.453   2.279  1.1609  0.6368  2.1476
  719SOL     OW 2155   2.191   1.192   3.118  0.1735 -0.0853 -0.3638
  719SOL    HW1 2156   2.104   1.145   3.100  1.2659 -1.0623  2.6534
  719SOL    HW2 2157   2.263   1.160   3.055  0.8627 -1.4792  1.9115
  720SOL     OW 2158   0.869   0.785   1.061  0.1295  0.2256 -0.3584
  720SOL    HW1 2159   0.951   0.831   1.106  1.4080  0.8119 -1.5103
  720SOL    HW2 2160   0.834   0.712   1.124  0.0851  1.9106 -1.3655
  721SOL     OW 2161   2.578   0.116   0.389 -0.0768 -0.2008 -0.3462
  721SOL    HW1 2162   2.499   0.074   0.442 -1.0627 -2.0641  1.3889
  721SOL    HW2 2163   2.663   0.058   0.386 -1.6500 -1.8477 -0.5261
  722SOL     OW 2164   2.089   0.867   2.837  0.2600  0.1642  0.5102
  722SOL    HW1 2165   2.186   0.847   2.847 -1.3339  0.6027 -2.5997
  722SOL    HW2 2166   2.046   0.813   2.908 -0.1374  1.4391  2.4295
  723SOL     OW 2167   2.524   0.337   0.572  0.6942  0.2564 -0.9711
  723SOL    HW1 2168   2.613   0.383   0.596  5.2899  2.9140  0.9032
  723SOL    HW2 2169   2.532   0.250   0.516 -1.6318 -4.9377 -0.2663
  724SOL     OW 2170   0.639   1.581   1.990 -0.0251  0.1949  0.0613
  724SOL    HW1 2171   0.578   1.522   2.043  0.6597  2.7616 -0.1120
  724SOL    HW2 2172   0.657   1.536   1.904  1.3835 -0.1933  4.7695
  725SOL     OW 2173   1.838   0.349   1.382 -0.1939 -0.2104 -0.3082
  725SOL    HW1 2174   1.783   0.436   1.366  0.6979  0.2424  1.0312
  725SOL    HW2 2175   1.915   0.357   1.309  2.9526  0.8026 -3.0940
  726SOL     OW 2176   1.987   2.745   0.452  0.4496  0.3424 -0.3376
  726SOL    HW1 2177   2.080   2.708   0.463  0.2552 -0.3396 -1.0749
  726SOL    HW2 2178   1.925   2.668   0.421  1.0689  1.6388 -0.0963
  727SOL     OW 2179   1.828   1.736   1.837 -0.0478  0.3990  0.1702
  727SOL    HW1 2180   1.901   1.739   1.913 -0.3821 -1.4254  3.5079
  727SOL    HW2 2181   1.854   1.667   1.772 -1.8410  0.9588  1.5383
  728SOL     OW 2182   2.130   2.916   1.507 -0.0603  0.3843 -0.6892
  728SOL    HW1 2183   2.107   2.970   1.422  0.7452 -0.2931  2.2735
  728SOL    HW2 2184   2.075   2.830   1.529 -1.0468 -0.3280  0.8978
  729SOL     OW 2185   2.330   1.579   0.861 -0.0930 -0.2082  0.0714
  729SOL    HW1 2186   2.235   1.572   0.827  0.4929  3.1334  0.9589
  729SOL    HW2 2187   2.373   1.663   0.821  2.2682 -0.1167 -0.2528
  730SOL     OW 2188   0.831   1.204   2.713  1.2880  0.0666  0.0173
  730SOL    HW1 2189   0.755   1.264   2.748 -1.8491 -0.4710  1.3163
  730SOL    HW2 2190   0.819   1.183   2.614  0.3892 -1.2170 -2.0482
  731SOL     OW 2191   0.089   0.041   0.932  0.1225 -0.6468 -0.3380
  731SOL    HW1 2192   0.127   0.134   0.949 -0.2016  0.6503  0.8282
  731SOL    HW2 2193   0.159   3.113   0.925 -2.0834 -0.5896  0.5042
  732SOL     OW 2194   1.435   0.755   0.352  0.6784  0.2136 -0.0347
  732SOL    HW1 2195   1.493   0.828   0.309 -0.9768 -0.4980  0.1249
  732SOL    HW2 2196   1.461   0.658   0.328 -0.6952 -0.6725  1.2254
  733SOL     OW 2197   0.497   1.972   0.875 -0.7218  0.3034  0.4602
  733SOL    HW1 2198   0.589   1.993   0.840 -1.6885 -0.8719 -1.6294
  733SOL    HW2 2199   0.459   1.883   0.842  2.6816 -0.8809  0.8729
  734SOL     OW 2200   0.131   2.417   0.518 -0.4330 -0.2250  0.5102
  734SOL    HW1 2201   0.149   2.488   0.446  2.2444 -1.1581  3.2626
  734SOL    HW2 2202   0.043   2.430   0.564 -1.5698 -2.0502  3.1301
  735SOL     OW 2203   1.248   0.259   1.058  0.2527  0.0470 -0.3396
  735SOL    HW1 2204   1.238   0.192   1.133 -3.3727 -0.6740 -1.0270
  735SOL    HW2 2205   1.347   0.281   1.046  0.7492  3.3545 -1.3095
  736SOL     OW 2206   2.000   2.523   0.114 -0.4003 -0.2065  0.4696
  736SOL    HW1 2207   2.007   2.493   0.017  0.2898 -0.2465  0.0800
  736SOL    HW2 2208   1.960   2.618   0.127 -0.8494  3.4498 -1.3914
  737SOL     OW 2209   0.274   0.897   1.018 -0.0798 -0.3786 -0.2296
  737SOL    HW1 2210   0.306   0.987   1.053 -0.2487 -0.9451  1.1001
  737SOL    HW2 2211   0.269   0.893   0.918 -1.1191 -0.0898  3.5545
  738SOL     OW 2212   2.799   3.000   1.649 -0.1201  0.1950 -0.6325
  738SOL    HW1 2213   2.776   2.913   1.699 -0.3737 -0.3988 -1.9611
  738SOL    HW2 2214   2.804   3.077   1.718 -0.6194  1.0328  0.5871
  739SOL     OW 2215   1.483   2.458   2.847 -0.4688 -0.7536  0.0778
  739SOL    HW1 2216   1.483   2.432   2.749 -0.1773  0.9941  0.5401
  739SOL    HW2 2217   1.495   2.380   2.909 -1.9301  1.0639  0.1126
  740SOL     OW 2218   1.518   0.246   1.143  0.0673  0.6854  0.3569
  740SOL    HW1 2219   1.562   0.231   1.235 -1.4329 -0.1778  0.8942
  740SOL    HW2 2220   1.572   0.210   1.063 -0.6237 -1.8622 -2.7492
  741SOL     OW 2221   2.933   0.683   0.663 -0.1398 -0.6344  0.1690
  741SOL    HW1 2222   2.857   0.714   0.724  0.8370 -0.5350  0.3497
  741SOL    HW2 2223   2.994   0.626   0.719 -0.9934 -1.9658  2.6282
  742SOL     OW 2224   0.802   1.578   2.581 -0.2012  0.1268  0.8508
  742SOL    HW1 2225   0.886   1.582   2.645  3.9083 -3.2254  1.6085
  742SOL    HW2 2226   0.728   1.642   2.605  0.1613 -3.4900 -0.8999
  743SOL     OW 2227   1.269   0.679   2.086 -0.0102  0.3225 -0.2249
  743SOL    HW1 2228   1.334   0.600   2.088 -0.1949  1.4021  2.3019
  743SOL    HW2 2229   1.173   0.638   2.091 -1.8576 -2.9703  2.3414
  744SOL     OW 2230   2.069   0.868   1.438  1.3264 -0.1497 -0.1197
  744SOL    HW1 2231   2.157   0.916   1.430 -0.1387 -1.0506  1.7958
  744SOL    HW2 2232   1.996   0.928   1.477  1.7915  2.0392  1.3087
  745SOL     OW 2233   1.204   1.500   1.736  0.5051  0.4378 -0.7868
  745SOL    HW1 2234   1.132   1.459   1.673 -1.0302 -1.2417 -0.5567
  745SOL    HW2 2235   1.229   1.435   1.811  0.5413 -1.0578  0.8211
  746SOL     OW 2236   2.033   1.797   0.872 -0.2162 -0.2146 -0.3517
  746SOL    HW1 2237   2.094   1.810   0.953 -2.4982  0.4115  0.2300
  746SOL    HW2 2238   2.020   1.698   0.852  2.6246  1.3335 -3.8968
  747SOL     OW 2239   2.349   1.547   1.135 -0.0518 -0.4324  0.0051
  747SOL    HW1 2240   2.316   1.559   1.037 -3.0492  0.0814 -1.5040
  747SOL    HW2 2241   2.386   1.635   1.170  2.6363 -2.0072  2.9932
  748SOL     OW 2242   0.716   2.024   0.734  0.4595  0.5524  0.5506
  748SOL    HW1 2243   0.747   2.117   0.755  0.7159 -2.8179 -0.8900
  748SOL    HW2 2244   0.787   1.955   0.765  1.0427 -1.8547  0.3929
  749SOL     OW 2245   2.400   2.892   2.477  0.0046  0.0862  0.6443
  749SOL    HW1 2246   2.300   2.892   2.471 -0.4660  2.5090 -0.4901
  749SOL    HW2 2247   2.439   2.802   2.450  1.1955  0.5995 -1.1666
  750SOL     OW 2248   2.394   0.455   0.763  0.2124  0.1324 -0.0528
  750SOL    HW1 2249   2.457   0.405   0.704 -2.2672  0.9576  0.3077
  750SOL    HW2 2250   2.297   0.432   0.747  2.3097 -1.0152 -1.1104
  751SOL     OW 2251   2.703   2.701   0.439 -0.3514 -0.1973  0.0549
  751SOL    HW1 2252   2.726   2.624   0.378  0.1542 -1.5821  0.8826
  751SOL    HW2 2253   2.636   2.760   0.393 -0.1600  2.2876 -0.0023
  752SOL     OW 2254   3.059   2.984   0.918  0.1887  0.2666 -0.1315
  752SOL    HW1 2255   3.088   2.930   0.840  0.2288  2.8986  0.6028
  752SOL    HW2 2256   3.109   3.072   0.922  0.9518 -0.4320 -0.8606
  753SOL     OW 2257   1.641   1.012   2.347 -0.5212  0.0731 -0.3375
  753SOL    HW1 2258   1.668   1.073   2.269  0.9012 -0.9759  0.1653
  753SOL    HW2 2259   1.583   0.930   2.323  0.9181 -0.5127 -1.4645
  754SOL     OW 2260   1.681   2.224   1.841  0.2033  0.1133 -0.1160
  754SOL    HW1 2261   1.579   2.214   1.834  0.3453  0.4932  0.4601
  754SOL    HW2 2262   1.721   2.142   1.802 -0.0659 -0.3892  1.5770
  755SOL     OW 2263   2.698   0.775   0.775  0.3070  0.3929  0.5211
  755SOL    HW1 2264   2.616   0.758   0.835 -4.4595  0.8616  0.6817
  755SOL    HW2 2265   2.659   0.791   0.680 -2.9921 -0.1996 -3.8556
  756SOL     OW 2266   0.992   1.562   2.764  0.3591 -0.1309  0.1205
  756SOL    HW1 2267   1.034   1.477   2.726  2.6127  1.3323  1.1798
  756SOL    HW2 2268   1.060   1.634   2.786  1.8522 -2.4294 -2.3180
  757SOL     OW 2269   1.235   2.667   0.766 -0.7924  0.4386 -0.3476
  757SOL    HW1 2270   1.214   2.696   0.861 -1.2934  0.0422 -2.7713
  757SOL    HW2 2271   1.322   2.716   0.741  2.9940  0.8272  3.8321
  758SOL     OW 2272   1.025   2.737   1.519  0.5952 -0.7733  0.0160
  758SOL    HW1 2273   1.003   2.833   1.486  0.4037  1.6787  2.9056
  758SOL    HW2 2274   1.087   2.749   1.596  1.5753  1.6802 -1.8781
  759SOL     OW 2275   0.162   0.632   0.659 -0.9962  0.2364 -0.2773
  759SOL    HW1 2276   0.088   0.619   0.724  4.0590  0.8412 -3.1826
  759SOL    HW2 2277   0.147   0.570   0.577  2.3579 -1.9021  0.6283
  760SOL     OW 2278   2.328   1.132   1.161  0.1650  0.0081  0.0018
  760SOL    HW1 2279   2.387   1.134   1.075  0.1942 -0.4453 -0.2552
  760SOL    HW2 2280   2.336   1.216   1.217 -2.7661  0.1257  0.0936
  761SOL     OW 2281   1.821   0.235   0.748  0.3860 -0.8520 -0.4718
  761SOL    HW1 2282   1.734   0.217   0.803 -0.5730 -0.0719  0.1195
  761SOL    HW2 2283   1.899   0.252   0.811 -0.7923  1.7721  0.1028
  762SOL     OW 2284   2.395   2.023   0.099  0.2533  0.3002  0.4152
  762SOL    HW1 2285   2.414   1.924   0.123  1.2236 -2.1970  1.7247
  762SOL    HW2 2286   2.473   2.068   0.047 -0.4185 -4.2559 -3.5555
  763SOL     OW 2287   0.787   1.383   1.413 -0.2987  0.0127 -0.3902
  763SOL    HW1 2288   0.696   1.347   1.445 -2.3919  1.9354 -1.2749
  763SOL    HW2 2289   0.768   1.480   1.389 -0.4850 -3.3766 -0.7135
  764SOL     OW 2290   2.661   2.214   2.385  0.0300 -0.3587  0.5252
  764SOL    HW1 2291   2.611   2.208   2.296  1.1710 -0.5159  1.9383
  764SOL    HW2 2292   2.709   2.126   2.414 -0.0033  0.3405  2.5757
  765SOL     OW 2293   0.623   2.555   1.142  0.4964 -0.0338  0.0328
  765SOL    HW1 2294   0.705   2.607   1.107  0.0525  0.9705 -1.8377
  765SOL    HW2 2295   0.551   2.542   1.078  1.0816  0.0142  1.2114
  766SOL     OW 2296   3.035   1.975   2.520  0.2676  0.1135 -0.7209
  766SOL    HW1 2297   3.095   1.898   2.543  0.6285  0.4275  1.6211
  766SOL    HW2 2298   3.078   2.062   2.548  2.1346 -2.2987  2.6161
  767SOL     OW 2299   2.356   1.039   2.708 -0.1648 -0.1075 -0.0371
  767SOL    HW1 2300   2.419   1.017   2.630 -1.6158  0.1161  0.8403
  767SOL    HW2 2301   2.329   0.957   2.766 -0.1200 -1.1057  3.2043
  768SOL     OW 2302   1.286   0.290   2.589  0.1458  0.4244 -0.0148
  768SOL    HW1 2303   1.273   0.389   2.607 -1.7916 -3.8202  1.7080
  768SOL    HW2 2304   1.223   0.229   2.644  2.3785  1.3636 -0.4444
  769SOL     OW 2305   0.059   2.431   1.240  0.2975  0.3489 -0.0657
  769SOL    HW1 2306   0.023   2.451   1.145 -1.4121  0.1060  0.8802
  769SOL    HW2 2307   0.162   2.415   1.238  1.2375  1.4884  0.1100
  770SOL     OW 2308   0.692   0.425   0.051  0.4550 -0.1653  0.2699
  770SOL    HW1 2309   0.722   0.493   3.127 -2.6366  1.2240  0.9528
  770SOL    HW2 2310   0.712   0.463   0.143  0.1542  2.9847  2.6218
  771SOL     OW 2311   1.140   1.972   2.521  0.4947 -0.9185 -0.3455
  771SOL    HW1 2312   1.126   1.965   2.421 -0.4242 -4.5962 -1.4476
  771SOL    HW2 2313   1.191   1.897   2.560 -1.6069  2.2617 -3.0764
  772SOL     OW 2314   2.212   0.109   2.238  0.1871  0.2322  0.2464
  772SOL    HW1 2315   2.294   0.077   2.284 -0.4966 -0.8606  0.4421
  772SOL    HW2 2316   2.129   0.095   2.301 -0.2502 -2.8092  1.4822
  773SOL     OW 2317   1.719   0.765   1.801 -0.1719 -0.0351 -0.0244
  773SOL    HW1 2318   1.703   0.784   1.702 -0.6145  0.0257 -1.6590
  773SOL    HW2 2319   1.741   0.664   1.816 -4.5494  1.8001 -1.4439
  774SOL     OW 2320   1.338   0.573   1.329  0.2686  0.1087  0.1889
  774SOL    HW1 2321   1.419   0.536   1.274  2.2136  0.9102  0.3432
  774SOL    HW2 2322   1.349   0.665   1.365 -2.5295  0.0967  0.6590
  775SOL     OW 2323   2.045   2.851   3.078  0.0539 -0.0721  0.0112
  775SOL    HW1 2324   1.961   2.820   3.124 -0.8389  3.8343 -0.3822
  775SOL    HW2 2325   2.098   2.779   3.030  0.9963 -2.2228  0.9646
  776SOL     OW 2326   1.903   1.076   1.546  0.2811 -0.3548 -0.1377
  776SOL    HW1 2327   1.812   1.077   1.504  0.7739 -1.9647  1.8248
  776SOL    HW2 2328   1.904   1.047   1.643  1.5624  2.5276 -0.5657
  777SOL     OW 2329   0.041   1.408   2.270 -0.6873 -0.1272  0.2756
  777SOL    HW1 2330   3.130   1.492   2.273  0.9094 -1.9155 -1.3411
  777SOL    HW2 2331   3.114   1.332   2.255  0.4417 -3.0992 -0.2555
  778SOL     OW 2332   2.709   1.226   2.512  0.1367 -0.3662  0.2278
  778SOL    HW1 2333   2.787   1.187   2.453  0.4254 -1.7286 -3.3995
  778SOL    HW2 2334   2.746   1.278   2.594 -0.7342  1.3275  1.3179
  779SOL     OW 2335   2.931   0.567   2.957 -0.1649  0.1463  0.4018
  779SOL    HW1 2336   3.028   0.552   2.985 -0.2208  0.7932  0.2100
  779SOL    HW2 2337   2.889   0.640   3.019 -0.2015  3.3284 -2.8059
  780SOL     OW 2338   2.450   2.604   2.437 -0.1741 -0.5260 -0.2593
  780SOL    HW1 2339   2.527   2.601   2.371  2.8007 -3.4211 -0.6199
  780SOL    HW2 2340   2.384   2.527   2.422 -1.6619  0.3792 -1.6886
  781SOL     OW 2341   2.935   1.137   1.956  0.1717 -0.1185  0.2333
  781SOL    HW1 2342   2.924   1.039   1.926  0.7687  0.7022 -0.0294
  781SOL    HW2 2343   2.902   1.207   1.889 -0.0663 -0.0649 -2.7172
  782SOL     OW 2344   1.490   2.389   2.578 -0.1507 -0.3226 -0.1870
  782SOL    HW1 2345   1.546   2.315   2.545 -4.2299  2.0781  1.4249
  782SOL    HW2 2346   1.395   2.372   2.546  1.4863 -2.0990  0.1476
  783SOL     OW 2347   0.937   2.390   0.992 -0.2188 -0.5192  0.7938
  783SOL    HW1 2348   0.983   2.363   1.078 -1.6070  2.4084  1.4646
  783SOL    HW2 2349   0.915   2.492   0.996 -2.2346 -1.0491  1.1905
  784SOL     OW 2350   2.125   0.539   2.463 -0.1388  0.5611 -0.1269
  784SOL    HW1 2351   2.080   0.473   2.525 -2.0186 -1.9946  1.7569
  784SOL    HW2 2352   2.173   0.485   2.390 -1.4836 -2.8282 -1.6159
  785SOL     OW 2353   0.093   0.433   1.376  0.1084 -0.1101 -0.0150
  785SOL    HW1 2354   0.112   0.336   1.390  1.7539  1.2915 -3.1332
  785SOL    HW2 2355   0.152   0.489   1.438 -0.0226 -1.9928  0.7828
  786SOL     OW 2356   1.534   2.247   3.033  0.3714 -0.1149  0.1372
  786SOL    HW1 2357   1.626   2.215   3.072 -0.2601 -1.4713  2.5281
  786SOL    HW2 2358   1.474   2.281   3.105  0.9254  0.1330 -1.1315
  787SOL     OW 2359   1.140   0.011   0.782  0.2986 -0.4320  0.1022
  787SOL    HW1 2360   1.076   0.035   0.863 -1.4104 -0.5344  2.2879
  787SOL    HW2 2361   1.173   0.101   0.751 -2.4287  0.2058  1.0349
  788SOL     OW 2362   0.222   1.292   1.304 -0.1346  0.1826 -0.1085
  788SOL    HW1 2363   0.184   1.371   1.246  0.8298  1.0146 -3.1808
  788SOL    HW2 2364   0.157   1.274   1.383 -4.1835  0.2034  1.8878
  789SOL     OW 2365   2.630   0.947   2.235 -0.5461 -0.9527  0.0871
  789SOL    HW1 2366   2.528   0.952   2.246 -0.8984 -1.3783  1.0257
  789SOL    HW2 2367   2.661   1.038   2.202  0.0363  0.6446  1.4273
  790SOL     OW 2368   1.336   0.634   2.787  0.2473  0.3280 -0.4425
  790SOL    HW1 2369   1.345   0.731   2.787 -1.3758 -0.7672  1.0000
  790SOL    HW2 2370   1.250   0.603   2.826 -0.4129  1.2992 -0.4944
  791SOL     OW 2371   0.132   2.618   0.326  0.4381 -0.5383  0.1457
  791SOL    HW1 2372   0.084   2.709   0.338 -3.3107  3.1919  0.4789
  791SOL    HW2 2373   0.234   2.627   0.340  0.2121 -2.0637 -0.4900
  792SOL     OW 2374   1.318   0.857   1.899  0.1906  0.0501 -0.2907
  792SOL    HW1 2375   1.299   0.786   1.968 -1.6302  1.5826  0.5681
  792SOL    HW2 2376   1.294   0.822   1.806 -0.7071 -2.9259  1.4475
  793SOL     OW 2377   2.683   0.500   1.083 -0.2382 -0.7110  0.5403
  793SOL    HW1 2378   2.773   0.453   1.074  2.6143 -1.4320  0.2217
  793SOL    HW2 2379   2.600   0.441   1.059 -3.2248  0.0019 -1.9575
  794SOL     OW 2380   2.903   0.252   2.514  0.4065  0.6397 -0.5967
  794SOL    HW1 2381   2.901   0.336   2.571  1.5335 -2.7411  0.1975
  794SOL    HW2 2382   2.841   0.261   2.437  0.2313 -0.7490 -0.1887
  795SOL     OW 2383   0.559   1.452   0.102  0.4175 -0.1189  0.1450
  795SOL    HW1 2384   0.620   1.415   0.173  0.3615 -0.7743 -1.3819
  795SOL    HW2 2385   0.495   1.522   0.139  1.1025 -0.7440  1.9123
  796SOL     OW 2386   2.934   0.786   2.758 -0.5937 -0.6218 -0.2635
  796SOL    HW1 2387   2.985   0.710   2.800 -0.1823  1.3877  2.6916
  796SOL    HW2 2388   2.937   0.783   2.660 -0.5019 -0.8736  0.1027
  797SOL     OW 2389   2.370   0.015   2.450  0.0525 -0.1534 -0.3506
  797SOL    HW1 2390   2.457   0.053   2.414 -0.7087 -1.4723 -1.4336
  797SOL    HW2 2391   2.386   3.050   2.445  0.6213 -4.5825 -0.2606
  798SOL     OW 2392   0.161   3.058   1.283  0.0350  0.9694  0.1681
  798SOL    HW1 2393   0.081   3.002   1.248  3.3202  1.9683 -1.3226
  798SOL    HW2 2394   0.140   3.110   1.367  1.3245 -0.7988  0.9629
  799SOL     OW 2395   2.897   0.908   1.640  0.3944  0.1483 -0.3284
  799SOL    HW1 2396   2.893   0.885   1.540  1.2534 -1.4461 -1.0083
  799SOL    HW2 2397   2.823   0.972   1.667 -2.1889  2.8235 -0.4214
  800SOL     OW 2398   0.613   1.403   0.632 -0.1268 -0.2561 -0.3312
  800SOL    HW1 2399   0.603   1.351   0.545 -0.2477 -0.5698 -0.2456
  800SOL    HW2 2400   0.621   1.337   0.711 -0.6232 -1.9640  1.1854
  801SOL     OW 2401   1.942   1.859   0.450  0.1967 -0.5646 -0.3170
  801SOL    HW1 2402   1.934   1.940   0.383 -0.9221  0.2962 -2.1852
  801SOL    HW2 2403   1.846   1.822   0.475 -3.0113 -1.3620 -0.2831
  802SOL     OW 2404   1.276   1.276   2.871 -0.2268 -0.0596  0.0926
  802SOL    HW1 2405   1.325   1.363   2.898 -1.6054  4.0312  2.8363
  802SOL    HW2 2406   1.336   1.218   2.810 -0.8045  2.3674  0.2906
  803SOL     OW 2407   1.052   1.740   1.506 -0.1645  0.2195  0.0834
  803SOL    HW1 2408   1.027   1.687   1.594  0.5267 -2.5047  1.2258
  803SOL    HW2 2409   1.044   1.840   1.524  0.0083  0.1178  2.7463
  804SOL     OW 2410   1.532   2.441   0.579 -0.0944  0.4189  0.1316
  804SOL    HW1 2411   1.565   2.346   0.591  0.3092  0.5784 -1.4933
  804SOL    HW2 2412   1.602   2.511   0.615 -0.0185  1.6537  1.1193
  805SOL     OW 2413   3.043   2.534   2.500  0.0376  0.1029 -0.7524
  805SOL    HW1 2414   2.953   2.502   2.472  2.1590  0.6333  0.3203
  805SOL    HW2 2415   3.075   2.597   2.423 -1.6037 -1.5320 -4.0288
  806SOL     OW 2416   3.081   0.022   0.527 -0.1879 -0.2583 -0.2649
  806SOL    HW1 2417   3.017   0.034   0.604  0.7214 -1.3218  0.3135
  806SOL    HW2 2418   0.025   3.132   0.563  1.0963 -1.4763  0.0512
  807SOL     OW 2419   2.351   0.854   2.918  0.0238 -0.0550 -0.2068
  807SOL    HW1 2420   2.449   0.830   2.908  0.5615 -2.5194  0.4093
  807SOL    HW2 2421   2.320   0.810   3.001  2.7745 -0.8077 -2.0808
  808SOL     OW 2422   1.300   2.376   0.729  0.2771 -0.0406 -0.2047
  808SOL    HW1 2423   1.378   2.365   0.663  2.4481  0.1724  0.0223
  808SOL    HW2 2424   1.264   2.469   0.728 -2.3335 -0.4625  0.6192
  809SOL     OW 2425   2.686   3.130   0.114  0.3175 -0.0285 -0.7368
  809SOL    HW1 2426   2.692   3.072   0.031 -1.2963 -1.2279  1.2640
  809SOL    HW2 2427   2.699   0.089   0.097  2.6413 -0.7912  1.9019
  810SOL     OW 2428   1.258   1.097   0.684 -0.1285  0.2304  0.3694
  810SOL    HW1 2429   1.170   1.153   0.687 -1.7967 -0.2485  1.9074
  810SOL    HW2 2430   1.242   1.008   0.641  1.0503  0.6987  1.0322
  811SOL     OW 2431   1.788   2.701   1.689 -0.1356  0.1285  0.0661
  811SOL    HW1 2432   1.707   2.706   1.627  1.5501  1.8205  2.6478
  811SOL    HW2 2433   1.768   2.646   1.773  1.4099 -0.9058 -0.2625
  812SOL     OW 2434   1.755   3.020   0.180  0.3546  0.2437 -0.0282
  812SOL    HW1 2435   1.692   2.972   0.250 -2.2497  0.4350 -0.1084
  812SOL    HW2 2436   1.703   3.073   0.111  0.2597 -0.5375 -1.9901
  813SOL     OW 2437   1.247   0.404   2.292 -0.0100 -0.3925  0.3303
  813SOL    HW1 2438   1.228   0.474   2.365  1.0726  1.4568  0.1085
  813SOL    HW2 2439   1.242   0.308   2.323 -1.4168 -0.0037  1.2245
  814SOL     OW 2440   0.357   0.042   1.128 -0.2578 -0.1716  0.1398
  814SOL    HW1 2441   0.275   3.133   1.165  0.5881 -1.0237 -0.1818
  814SOL    HW2 2442   0.430   0.060   1.196 -1.3260  0.4900  0.1061
  815SOL     OW 2443   0.171   2.759   0.905  0.6067  0.3868  0.1403
  815SOL    HW1 2444   0.120   2.760   0.814 -0.1109 -1.2830 -1.3299
  815SOL    HW2 2445   0.190   2.851   0.942 -2.4130  0.0858  1.3170
  816SOL     OW 2446   2.674   1.561   2.683 -0.2030 -0.2907  0.1866
  816SOL    HW1 2447   2.598   1.610   2.727 -1.9794  0.0211  3.0554
  816SOL    HW2 2448   2.655   1.543   2.586 -0.1348  0.9121  1.5584
  817SOL     OW 2449   1.253   3.130   2.897  0.4573  0.5357  0.6929
  817SOL    HW1 2450   1.270   0.068   2.956  1.3002  2.0108  1.1304
  817SOL    HW2 2451   1.203   3.058   2.953  2.8408 -0.7183  0.5815
  818SOL     OW 2452   1.594   1.003   0.299 -0.1043 -0.6911  0.6760
  818SOL    HW1 2453   1.679   1.004   0.357  1.1582  0.3214 -0.2741
  818SOL    HW2 2454   1.530   1.061   0.346  0.2670 -1.4861 -0.0653
  819SOL     OW 2455   1.783   2.590   2.655 -0.3019  0.0080 -0.2133
  819SOL    HW1 2456   1.715   2.604   2.583  0.0348 -0.4101  1.4067
  819SOL    HW2 2457   1.758   2.645   2.740  1.3596  1.5785  4.0350
  820SOL     OW 2458   1.058   0.603   0.263 -0.3705  0.2302 -0.3041
  820SOL    HW1 2459   1.110   0.635   0.185  1.1843 -1.3107  1.7699
  820SOL    HW2 2460   1.061   0.668   0.336 -1.0577  0.7942 -2.9959
  821SOL     OW 2461   0.434   0.647   1.360 -0.0371  0.5365 -0.9558
  821SOL    HW1 2462   0.512   0.715   1.349  1.5198  3.9022 -2.9600
  821SOL    HW2 2463   0.362   0.671   1.294 -2.3358  0.9853  1.5898
  822SOL     OW 2464   1.450   2.510   2.112 -0.3250  0.3182 -0.3291
  822SOL    HW1 2465   1.533   2.458   2.089 -3.0796 -0.8520 -0.7828
  822SOL    HW2 2466   1.372   2.468   2.064 -1.9311  0.8516 -1.5014
  823SOL     OW 2467   0.763   1.073   1.992  0.5139 -0.1088 -0.0677
  823SOL    HW1 2468   0.825   1.145   1.951  0.9875 -0.7663 -0.6577
  823SOL    HW2 2469   0.780   1.065   2.091 -0.7428  1.3737  0.2366
  824SOL     OW 2470   2.400   3.112   1.937  0.7326 -0.0848  0.1002
  824SOL    HW1 2471   2.364   3.086   1.846  1.0480  2.9410  0.5339
  824SOL    HW2 2472   2.417   0.071   1.939 -0.6871 -0.5655 -1.2829
  825SOL     OW 2473   0.834   1.338   0.158  0.1079 -0.0086 -0.1309
  825SOL    HW1 2474   0.869   1.364   0.068  0.2034 -1.6664  1.2313
  825SOL    HW2 2475   0.839   1.239   0.174  0.1799 -0.2081  0.7086
  826SOL     OW 2476   1.858   0.659   2.525 -0.5045 -0.2683  0.2821
  826SOL    HW1 2477   1.871   0.675   2.626  2.0715 -0.2490  0.7313
  826SOL    HW2 2478   1.944   0.622   2.481  0.9857 -4.6622 -0.1041
  827SOL     OW 2479   0.438   2.176   2.931  0.2120  0.1389  0.1869
  827SOL    HW1 2480   0.511   2.235   2.969 -0.8659 -4.5816 -2.0427
  827SOL    HW2 2481   0.450   2.171   2.831  2.9031 -0.0915  2.0691
  828SOL     OW 2482   2.764   0.269   1.405 -0.5688  0.5904  0.6625
  828SOL    HW1 2483   2.667   0.300   1.400  1.0311  1.0230  0.4217
  828SOL    HW2 2484   2.833   0.346   1.390 -2.1765  0.5660 -3.1705
  829SOL     OW 2485   1.379   1.687   1.200 -0.4950  0.1514  0.2063
  829SOL    HW1 2486   1.461   1.713   1.257 -1.2199 -2.1411 -3.7516
  829SOL    HW2 2487   1.408   1.643   1.113  0.6421 -0.1570  2.6461
  830SOL     OW 2488   0.426   1.041   1.695 -0.2405  0.4436 -0.0811
  830SOL    HW1 2489   0.404   1.004   1.603  0.5380  0.7771  0.1142
  830SOL    HW2 2490   0.346   1.037   1.756  0.1832 -1.2351  0.2643
  831SOL     OW 2491   0.422   1.685   0.137  0.2890 -0.4181 -0.2048
  831SOL    HW1 2492   0.384   1.704   0.039 -0.0318  3.1116  1.9254
  831SOL    HW2 2493   0.466   1.774   0.175  2.7300  4.5387  3.0459
  832SOL     OW 2494   0.870   0.317   2.883  0.4963 -0.2125 -0.3180
  832SOL    HW1 2495   0.866   0.277   2.977  0.7249  1.3409  0.6807
  832SOL    HW2 2496   0.783   0.282   2.839 -0.9313  1.1058  1.2154
  833SOL     OW 2497   3.121   0.754   2.039 -0.0821  0.3960  0.0250
  833SOL    HW1 2498   0.054   0.727   1.973  0.3658  0.7061 -3.2008
  833SOL    HW2 2499   3.055   0.814   1.989 -0.7339  0.3522  1.5940
  834SOL     OW 2500   0.248   0.689   1.171 -0.0497 -0.2282  0.3386
  834SOL    HW1 2501   0.264   0.770   1.108  0.7361  3.7989 -2.5709
  834SOL    HW2 2502   0.170   0.631   1.140  0.6055  2.1726 -4.4294
  835SOL     OW 2503   2.702   2.810   1.134  0.8469 -0.1428  0.3085
  835SOL    HW1 2504   2.732   2.823   1.039 -0.0393 -2.1367  1.0979
  835SOL    HW2 2505   2.778   2.793   1.196 -2.5055 -0.5187  0.7935
  836SOL     OW 2506   0.444   1.930   3.039 -0.1056 -0.4260 -0.1769
  836SOL    HW1 2507   0.489   1.931   3.132 -0.7799  0.1594 -0.6470
  836SOL    HW2 2508   0.455   2.023   2.995  0.9062  1.5202 -2.2950
  837SOL     OW 2509   2.054   2.297   2.656 -0.5045  0.3232  0.1650
  837SOL    HW1 2510   1.960   2.312   2.694  2.5018  0.6380 -1.2541
  837SOL    HW2 2511   2.061   2.315   2.553  3.6895  2.3435 -0.7819
  838SOL     OW 2512   3.069   1.161   2.196  0.0662 -0.8253 -0.4834
  838SOL    HW1 2513   3.020   1.127   2.276  1.5200 -0.2039 -4.0571
  838SOL    HW2 2514   3.015   1.152   2.111 -3.0631 -0.2501 -1.6859
  839SOL     OW 2515   1.014   0.852   0.397  0.3890  0.2749 -0.0146
  839SOL    HW1 2516   0.940   0.835   0.466  0.4666 -0.7381 -0.7063
  839SOL    HW2 2517   0.996   0.932   0.336  0.9681 -2.5131 -0.2863
  840SOL     OW 2518   1.573   0.467   0.542 -0.0608  0.6458 -0.3297
  840SOL    HW1 2519   1.552   0.568   0.550  0.9292 -1.4983 -0.4561
  840SOL    HW2 2520   1.482   0.413   0.552  0.3921 -1.0409  0.4191
  841SOL     OW 2521   0.541   2.856   0.848  0.3959 -0.3978 -0.1174
  841SOL    HW1 2522   0.578   2.910   0.927  3.2087 -0.7135 -2.1892
  841SOL    HW2 2523   0.611   2.793   0.810  1.9121 -0.3371 -0.9851
  842SOL     OW 2524   0.517   0.174   0.152 -0.2029  0.2024  0.2023
  842SOL    HW1 2525   0.428   0.179   0.095 -1.3101  1.5241 -2.5208
  842SOL    HW2 2526   0.586   0.244   0.122 -0.1929  1.3518 -0.4048
  843SOL     OW 2527   0.396   0.528   1.807 -0.2302  0.2807  0.2539
  843SOL    HW1 2528   0.479   0.586   1.801  1.7518  1.8464  1.9768
  843SOL    HW2 2529   0.397   0.496   1.908  0.6620 -1.3031  2.0996
  844SOL     OW 2530   1.648   2.633   3.033  0.1821 -0.0165  0.1176
  844SOL    HW1 2531   1.677   2.690   2.956 -3.4925 -0.7767  2.5406
  844SOL    HW2 2532   1.599   2.551   2.995  1.6217  0.2107 -0.3239
  845SOL     OW 2533   2.687   2.826   2.155  0.2148 -0.2049 -0.1861
  845SOL    HW1 2534   2.729   2.862   2.068 -0.0720 -0.2466 -2.1904
  845SOL    HW2 2535   2.754   2.844   2.233  2.7268  0.1699  3.2687
  846SOL     OW 2536   1.892   2.064   2.400 -0.2456  0.3696 -0.4280
  846SOL    HW1 2537   1.964   2.026   2.461 -0.8864  2.1571  1.7895
  846SOL    HW2 2538   1.901   2.036   2.304 -1.8883 -0.6970  2.0104
  847SOL     OW 2539   2.150   2.834   2.309 -0.2404  0.2705 -0.0316
  847SOL    HW1 2540   2.134   2.736   2.290 -1.5993 -0.5580  3.4020
  847SOL    HW2 2541   2.166   2.887   2.226 -0.5982 -0.0675  2.5000
  848SOL     OW 2542   0.274   2.955   0.400 -0.1766  0.2812 -0.0872
  848SOL    HW1 2543   0.365   2.913   0.428  2.2149 -0.9267  1.0210
  848SOL    HW2 2544   0.288   3.003   0.317 -2.5978 -0.9077  2.0041
  849SOL     OW 2545   0.720   2.867   1.454 -0.0527  0.1539  0.6325
  849SOL    HW1 2546   0.739   2.773   1.493 -2.0803 -0.8330  0.8103
  849SOL    HW2 2547   0.767   2.870   1.365 -2.7106  0.6452 -0.6446
  850SOL     OW 2548   0.139   1.147   0.768 -0.4480 -0.0498 -0.5521
  850SOL    HW1 2549   0.206   1.215   0.728  0.9616 -0.6633  1.9923
  850SOL    HW2 2550   0.080   1.180   0.843  1.3659 -0.4610 -1.6757
  851SOL     OW 2551   0.095   0.496   3.023  0.3004  0.1156  0.3162
  851SOL    HW1 2552   0.161   0.555   2.977  0.1739 -1.1964 -2.0128
  851SOL    HW2 2553   0.094   0.404   2.980  0.2491 -0.9033 -1.6780
  852SOL     OW 2554   1.476   1.936   1.939 -0.5610  0.5615  0.4274
  852SOL    HW1 2555   1.531   1.868   1.887 -2.1311 -2.8297 -0.7137
  852SOL    HW2 2556   1.523   1.944   2.028 -1.0464 -0.1922 -0.4061
  853SOL     OW 2557   0.649   1.942   0.472  0.3941 -0.1333  0.4727
  853SOL    HW1 2558   0.657   1.957   0.572  0.1012 -0.5570 -0.2937
  853SOL    HW2 2559   0.667   2.031   0.420 -4.9831  0.0008 -2.3561
  854SOL     OW 2560   1.655   1.026   1.417  0.0649 -0.9932 -0.1721
  854SOL    HW1 2561   1.585   1.100   1.396  0.6641 -2.2673  2.4144
  854SOL    HW2 2562   1.708   1.004   1.333 -2.7475  1.3443 -0.7122
  855SOL     OW 2563   0.542   1.949   0.153 -0.3178 -0.0249 -0.2777
  855SOL    HW1 2564   0.640   1.982   0.156  1.1107  0.3036  0.3979
  855SOL    HW2 2565   0.475   2.024   0.168 -0.3706  2.7464 -0.7713
  856SOL     OW 2566   2.894   0.060   1.844  0.5792  0.4838  0.5306
  856SOL    HW1 2567   2.995   0.079   1.848 -0.9980  0.4734 -2.1766
  856SOL    HW2 2568   2.851   0.047   1.932 -0.4098 -0.2746 -0.4977
  857SOL     OW 2569   0.357   0.366   2.044  0.0101  0.4562 -0.0705
  857SOL    HW1 2570   0.309   0.300   1.984  1.4282 -0.0275  1.4123
  857SOL    HW2 2571   0.291   0.395   2.117  0.5240 -2.5209 -0.0797
  858SOL     OW 2572   2.958   1.999   2.252  0.0433  0.1030 -0.0016
  858SOL    HW1 2573   2.890   1.933   2.215  1.9606 -0.8059  0.1692
  858SOL    HW2 2574   2.978   1.976   2.347 -3.8735 -3.3261 -0.4381
  859SOL     OW 2575   2.236   2.643   0.423  0.1330  0.6252 -0.4303
  859SOL    HW1 2576   2.244   2.580   0.344  1.6227 -0.4042 -1.0966
  859SOL    HW2 2577   2.248   2.595   0.512 -2.2439  1.2103  0.8848
  860SOL     OW 2578   1.698   0.207   0.321 -0.3044 -0.0265 -0.0439
  860SOL    HW1 2579   1.767   0.262   0.370  1.9395  1.2633 -1.8613
  860SOL    HW2 2580   1.670   0.130   0.373  0.2656  2.5743 -0.7784
  861SOL     OW 2581   0.353   0.301   0.850 -0.3362 -0.1250  0.5739
  861SOL    HW1 2582   0.398   0.369   0.790 -1.8447  3.5720  0.5340
  861SOL    HW2 2583   0.350   0.331   0.945  0.5239  2.7912 -0.0533
  862SOL     OW 2584   2.118   0.608   1.483  0.1877 -0.3324 -0.2816
  862SOL    HW1 2585   2.131   0.566   1.395  0.5158  2.5130 -1.8484
  862SOL    HW2 2586   2.107   0.713   1.468 -0.0755  1.9716  1.2618
  863SOL     OW 2587   0.506   1.536   1.187  0.2947 -0.1711 -0.3693
  863SOL    HW1 2588   0.477   1.469   1.116  0.6612 -0.8063  0.2762
  863SOL    HW2 2589   0.603   1.573   1.165  0.0940  1.3079  0.5712
  864SOL     OW 2590   2.605   3.085   2.133 -0.4504 -0.0624 -0.9805
  864SOL    HW1 2591   2.543   3.060   2.054 -2.2353 -2.1188 -3.3040
  864SOL    HW2 2592   2.641   2.999   2.179 -0.0401 -0.1477  2.5970
  865SOL     OW 2593   1.725   0.251   1.761  0.2783 -0.1993  0.2236
  865SOL    HW1 2594   1.802   0.238   1.689  2.4610 -0.6734 -1.9972
  865SOL    HW2 2595   1.632   0.244   1.711 -1.6797 -0.6889 -0.5622
  866SOL     OW 2596   2.835   2.810   0.814  0.1726  0.1219 -0.0265
  866SOL    HW1 2597   2.894   2.880   0.862  0.9772  0.4736 -0.2362
  866SOL    HW2 2598   2.750   2.845   0.768 -2.3551  0.7279  0.4613
  867SOL     OW 2599   2.636   2.597   0.696 -0.9794 -0.3377 -0.1459
  867SOL    HW1 2600   2.631   2.500   0.714 -2.8660  0.8407  0.1343
  867SOL    HW2 2601   2.646   2.613   0.594 -1.3027  1.0928 -2.8399
  868SOL     OW 2602   1.591   1.808   2.393 -0.6090 -0.6267 -0.2737
  868SOL    HW1 2603   1.498   1.804   2.365  0.1597  0.0415 -1.0553
  868SOL    HW2 2604   1.601   1.839   2.491  0.1283 -0.9086  0.4951
  869SOL     OW 2605   2.412   1.743   0.642 -0.2522 -0.1798  0.0295
  869SOL    HW1 2606   2.367   1.689   0.570 -0.0209 -0.9289  0.4086
  869SOL    HW2 2607   2.366   1.836   0.641  2.8751  1.5892 -1.2675
  870SOL     OW 2608   2.678   1.688   0.302 -0.2671 -0.5292 -0.2435
  870SOL    HW1 2609   2.692   1.590   0.290  0.6730  1.1820  1.1343
  870SOL    HW2 2610   2.748   1.750   0.255 -1.4100 -0.2241 -1.9887
  871SOL     OW 2611   0.006   0.796   1.650  0.0531  0.0835  0.2517
  871SOL    HW1 2612   0.040   0.808   1.554 -0.0376  0.9700 -0.0131
  871SOL    HW2 2613   3.063   0.849   1.658 -0.9583 -0.1029 -1.1366
  872SOL     OW 2614   0.612   1.989   2.504  0.4092 -0.4770 -0.2771
  872SOL    HW1 2615   0.713   1.983   2.486 -1.5604 -1.7852  3.2221
  872SOL    HW2 2616   0.579   1.904   2.551  0.3059 -0.5542  0.0956
  873SOL     OW 2617   0.359   2.722   1.856  0.5997 -0.3697  0.2773
  873SOL    HW1 2618   0.313   2.723   1.761  0.5892  0.7425  0.0187
  873SOL    HW2 2619   0.422   2.798   1.854 -0.7924 -1.5148 -1.4206
  874SOL     OW 2620   1.065   1.075   2.210 -0.1559 -0.0833  0.5809
  874SOL    HW1 2621   1.090   1.146   2.281  1.9965  0.2932 -3.6053
  874SOL    HW2 2622   1.123   1.095   2.124  2.1664  0.8188  0.8964
  875SOL     OW 2623   2.916   2.770   1.336 -0.0011 -0.7197  0.0197
  875SOL    HW1 2624   2.955   2.713   1.414  3.2873  0.9518  0.9286
  875SOL    HW2 2625   2.942   2.867   1.356  0.8858  1.6602 -1.9845
  876SOL     OW 2626   1.018   1.230   0.677 -0.0252  0.1746  0.2805
  876SOL    HW1 2627   0.950   1.182   0.736 -1.0981 -1.0036  0.8145
  876SOL    HW2 2628   0.958   1.297   0.629  0.6776 -1.4218  3.2983
  877SOL     OW 2629   1.066   0.575   1.335 -0.0286 -0.5209 -0.5143
  877SOL    HW1 2630   1.165   0.583   1.342 -1.1014 -0.1730  2.7979
  877SOL    HW2 2631   1.037   0.504   1.268  0.7234 -2.8514  1.7125
  878SOL     OW 2632   2.615   1.940   2.926 -0.4948  0.0476  0.1289
  878SOL    HW1 2633   2.614   1.847   2.967  0.3828 -2.2852 -0.7018
  878SOL    HW2 2634   2.571   1.934   2.832 -0.3491 -0.0395  0.5189
  879SOL     OW 2635   2.286   1.989   1.675 -0.4535 -0.0030 -0.6691
  879SOL    HW1 2636   2.345   2.069   1.690  0.9955 -1.6731  1.3893
  879SOL    HW2 2637   2.205   2.016   1.622  2.2966  0.3535 -2.2702
  880SOL     OW 2638   1.004   2.305   1.253  0.0052  0.3251  0.2210
  880SOL    HW1 2639   1.037   2.360   1.330 -2.0057  2.2218  0.8920
  880SOL    HW2 2640   1.018   2.203   1.264  1.5932  0.3268 -0.3257
  881SOL     OW 2641   1.115   1.846   0.592 -0.4433  0.5496  0.1764
  881SOL    HW1 2642   1.079   1.941   0.599  1.1162 -0.6314 -0.1698
  881SOL    HW2 2643   1.077   1.790   0.669  3.4824  0.2588 -0.5722
  882SOL     OW 2644   2.061   1.702   2.728  0.2875  0.2207 -0.0820
  882SOL    HW1 2645   2.126   1.776   2.694 -1.8134  0.7551 -2.4741
  882SOL    HW2 2646   2.087   1.615   2.682  1.1564  0.1240  3.9506
  883SOL     OW 2647   1.496   0.513   1.127  0.2372  0.0445  0.5090
  883SOL    HW1 2648   1.445   0.543   1.042 -1.0025 -0.4471 -2.7819
  883SOL    HW2 2649   1.502   0.411   1.121 -1.9489 -0.8482 -2.9916
  884SOL     OW 2650   3.099   2.931   1.183 -0.0130  0.5555 -0.1909
  884SOL    HW1 2651   3.103   2.953   1.085  0.4110  0.0917  0.1995
  884SOL    HW2 2652   3.081   2.831   1.191 -1.0295  1.2670  1.3182
  885SOL     OW 2653   0.910   1.563   2.059  1.0676  0.2491 -0.2647
  885SOL    HW1 2654   0.814   1.574   2.021 -0.9388 -2.6218  2.7419
  885SOL    HW2 2655   0.943   1.472   2.025  1.2216 -0.1044  0.8915
  886SOL     OW 2656   1.081   1.299   2.686 -0.7880  0.2815 -0.1862
  886SOL    HW1 2657   0.989   1.247   2.699 -1.3077 -1.0519  0.3096
  886SOL    HW2 2658   1.144   1.269   2.757 -0.3831 -1.5951  0.6139
  887SOL     OW 2659   1.607   0.167   0.900 -0.2040 -0.1305  0.0614
  887SOL    HW1 2660   1.558   0.174   0.810  0.6411 -1.2703  1.1998
  887SOL    HW2 2661   1.628   0.067   0.920 -1.1893 -0.6178 -1.4313
  888SOL     OW 2662   2.084   0.990   2.121 -0.1693 -0.4110  0.6084
  888SOL    HW1 2663   2.025   0.975   2.205  1.2965 -0.9219  4.7383
  888SOL    HW2 2664   2.068   0.931   2.043  1.1601  1.4827  1.1424
  889SOL     OW 2665   2.867   2.041   1.068  0.1816 -0.3463 -0.1682
  889SOL    HW1 2666   2.964   2.036   1.044 -0.6038  0.3552  1.5041
  889SOL    HW2 2667   2.855   2.084   1.161  2.1687  1.1043  0.8133
  890SOL     OW 2668   1.369   2.297   0.099  0.2863  0.0126  0.3573
  890SOL    HW1 2669   1.269   2.266   0.093 -1.0362 -0.4946 -1.3861
  890SOL    HW2 2670   1.386   2.354   0.184  1.0483  0.9833  2.6209
  891SOL     OW 2671   2.871   0.558   2.534  0.5131  0.5729 -0.6918
  891SOL    HW1 2672   2.841   0.527   2.443 -0.4507  3.5335  0.4568
  891SOL    HW2 2673   2.784   0.576   2.588 -1.5937 -0.0689 -3.3198
  892SOL     OW 2674   0.039   2.477   1.505  0.4393 -0.0388 -0.3230
  892SOL    HW1 2675   0.050   2.467   1.403  2.0592  1.0660 -2.8436
  892SOL    HW2 2676   0.020   2.379   1.531 -1.4551  1.7149 -1.2793
  893SOL     OW 2677   1.282   0.058   1.253  0.0661 -0.4070 -0.0004
  893SOL    HW1 2678   1.341   3.124   1.218 -0.1650 -2.2955 -1.4158
  893SOL    HW2 2679   1.299   0.084   1.352  3.1969  2.4328  0.9538
  894SOL     OW 2680   2.693   0.128   1.081  0.2694 -0.0718 -0.2840
  894SOL    HW1 2681   2.593   0.119   1.099  0.3262  0.4405 -1.4220
  894SOL    HW2 2682   2.751   0.079   1.148  0.6179  4.0576 -1.7414
  895SOL     OW 2683   1.598   1.959   2.166 -0.9208 -0.3815  0.4141
  895SOL    HW1 2684   1.696   1.974   2.134  1.0955 -0.9125 -2.7208
  895SOL    HW2 2685   1.591   1.889   2.242  0.6280  0.7114  1.4193
  896SOL     OW 2686   1.926   0.784   1.210  0.5176 -0.2815  0.9267
  896SOL    HW1 2687   2.000   0.801   1.276 -1.9128  4.8567 -0.0321
  896SOL    HW2 2688   1.964   0.757   1.116  0.7180  1.9171 -1.8648
  897SOL     OW 2689   0.533   1.354   1.722  0.4265  0.3125 -0.0413
  897SOL    HW1 2690   0.488   1.342   1.631  0.2043  1.5435  2.6646
  897SOL    HW2 2691   0.464   1.322   1.797 -3.0016  1.2181  2.5865
  898SOL     OW 2692   1.670   2.328   2.108  0.4782 -0.4731  0.1191
  898SOL    HW1 2693   1.669   2.293   2.013 -0.4418 -0.8234 -1.1796
  898SOL    HW2 2694   1.596   2.276   2.160  1.1020 -1.9135  2.2465
  899SOL     OW 2695   1.261   1.931   0.880 -0.3779  0.2743 -0.5869
  899SOL    HW1 2696   1.233   2.013   0.826 -2.0570 -0.1376 -0.3284
  899SOL    HW2 2697   1.253   1.950   0.984 -0.0838 -0.5730  2.1838
  900SOL     OW 2698   0.584   0.001   2.461 -0.2167 -0.7688 -0.2208
  900SOL    HW1 2699   0.600   3.127   2.556  2.9237  1.2582 -2.6964
  900SOL    HW2 2700   0.666   0.042   2.411 -1.7970  4.2158  0.0327
  901SOL     OW 2701   1.058   1.630   2.263 -0.6189  0.4812 -0.1196
  901SOL    HW1 2702   0.983   1.618   2.189  1.7954  1.1371 -0.8386
  901SOL    HW2 2703   1.063   1.550   2.327 -0.9539  1.6602 -1.0949
  902SOL     OW 2704   1.952   0.839   3.085 -0.8333 -0.2998 -0.1782
  902SOL    HW1 2705   1.952   0.935   3.050 -1.8208 -2.3916  2.0150
  902SOL    HW2 2706   1.898   0.836   0.024 -0.8362  0.9844 -0.7835
  903SOL     OW 2707   2.014   1.299   2.813 -0.4551  0.1958  0.4877
  903SOL    HW1 2708   2.036   1.384   2.872  2.1725  0.0541 -1.2766
  903SOL    HW2 2709   1.918   1.304   2.794  0.7466 -0.9221  0.2052
  904SOL     OW 2710   1.560   1.096   1.734  0.0296  0.4832  0.0452
  904SOL    HW1 2711   1.638   1.046   1.775 -3.4548  0.9964  1.7326
  904SOL    HW2 2712   1.534   1.041   1.652 -0.1247  2.3395  0.0838
  905SOL     OW 2713   2.500   0.641   0.925  0.1092  0.1975 -0.0687
  905SOL    HW1 2714   2.472   0.567   0.863  2.4072  3.0051  1.8947
  905SOL    HW2 2715   2.574   0.615   0.989  2.1036 -2.6039  1.6130
  906SOL     OW 2716   0.225   1.441   0.819 -0.1942 -0.9146  0.4328
  906SOL    HW1 2717   0.237   1.398   0.729  1.0497 -0.7994 -0.5712
  906SOL    HW2 2718   0.127   1.439   0.850 -1.6618 -1.8004 -0.8946
  907SOL     OW 2719   1.283   3.137   0.467  0.4793  0.0168  0.0604
  907SOL    HW1 2720   1.218   3.059   0.483  1.7868 -1.1800  0.2909
  907SOL    HW2 2721   1.366   3.119   0.523 -0.4649 -0.9941  0.8980
  908SOL     OW 2722   1.192   2.798   1.745  0.4532 -0.1513  0.4466
  908SOL    HW1 2723   1.124   2.772   1.823  0.0412 -0.9368  1.7718
  908SOL    HW2 2724   1.281   2.754   1.761 -1.9620  0.3149 -0.1345
  909SOL     OW 2725   2.484   0.771   1.888  0.2707  0.1166 -0.3219
  909SOL    HW1 2726   2.428   0.722   1.961 -0.6268 -1.9834  3.1282
  909SOL    HW2 2727   2.485   0.875   1.896 -2.9218  0.9626 -1.9351
  910SOL     OW 2728   1.225   0.121   2.354 -0.4837  0.6594  0.3271
  910SOL    HW1 2729   1.289   0.163   2.425  3.8978 -1.1285  0.7244
  910SOL    HW2 2730   1.150   0.063   2.399 -1.2475 -1.6543  0.3625
  911SOL     OW 2731   2.649   1.483   2.409 -0.0448  0.7472 -0.4897
  911SOL    HW1 2732   2.553   1.494   2.379  1.2005  0.9846  3.8321
  911SOL    HW2 2733   2.675   1.383   2.418  0.2334 -0.8928  1.0207
  912SOL     OW 2734   2.493   2.090   1.399 -0.4006  0.1298  0.0547
  912SOL    HW1 2735   2.568   2.065   1.462 -0.1753 -0.1607 -3.0362
  912SOL    HW2 2736   2.453   2.187   1.423 -0.8589  0.3566 -0.4124
  913SOL     OW 2737   2.631   2.142   1.889 -0.2686 -0.0858  0.5671
  913SOL    HW1 2738   2.655   2.235   1.918  2.6706 -0.4796 -1.2517
  913SOL    HW2 2739   2.540   2.134   1.851  0.9800  1.4295  0.7188
  914SOL     OW 2740   2.078   2.226   0.757 -0.1021  0.2597 -0.1030
  914SOL    HW1 2741   2.120   2.229   0.845 -0.8943 -1.8470 -4.5570
  914SOL    HW2 2742   2.066   2.127   0.728  1.1119 -1.2600 -2.4783
  915SOL     OW 2743   0.962   2.577   2.156 -0.3895 -0.0851 -0.3520
  915SOL    HW1 2744   0.868   2.619   2.164  3.4255  0.0250 -0.1983
  915SOL    HW2 2745   0.968   2.496   2.213  3.1158  1.3662  0.2349
  916SOL     OW 2746   0.128   2.233   0.907  0.5591 -0.0144 -0.2499
  916SOL    HW1 2747   0.091   2.328   0.904 -0.8406  0.6369  0.0002
  916SOL    HW2 2748   0.184   2.210   0.826 -2.3967 -1.3734  3.6047
  917SOL     OW 2749   2.828   1.211   2.938  0.5084 -0.0084  0.3328
  917SOL    HW1 2750   2.908   1.156   2.908 -0.4966 -0.6535  1.3960
  917SOL    HW2 2751   2.805   1.285   2.867 -2.1901 -0.3568  0.2476
  918SOL     OW 2752   1.478   2.205   2.275 -0.4401  0.8275 -0.3369
  918SOL    HW1 2753   1.493   2.104   2.256 -0.7052 -3.3980  1.3890
  918SOL    HW2 2754   1.381   2.235   2.271  0.3971  0.6290 -0.9646
  919SOL     OW 2755   1.609   2.174   0.640 -0.3559 -0.8037  0.2019
  919SOL    HW1 2756   1.588   2.081   0.674  0.6958 -1.3319 -2.3128
  919SOL    HW2 2757   1.661   2.164   0.554 -1.1848  2.0478 -0.7831
  920SOL     OW 2758   1.218   0.613   2.458  0.4599 -0.0252 -0.5565
  920SOL    HW1 2759   1.239   0.632   2.553 -2.0020 -0.2582 -1.9799
  920SOL    HW2 2760   1.190   0.696   2.405  1.7770  0.6028 -0.5328
  921SOL     OW 2761   0.009   0.286   2.871 -0.5121 -0.3960 -0.2779
  921SOL    HW1 2762   3.125   0.360   2.808  2.5881 -0.0208 -0.2561
  921SOL    HW2 2763   0.106   0.256   2.858 -0.1075 -0.4588 -3.4748
  922SOL     OW 2764   2.679   1.538   1.783  0.3234 -0.0301  0.2102
  922SOL    HW1 2765   2.583   1.542   1.754  1.1006 -0.4549  0.7225
  922SOL    HW2 2766   2.744   1.596   1.725  2.9721  0.8049 -1.5069
  923SOL     OW 2767   0.238   1.701   2.528  0.0502 -0.3041 -0.1996
  923SOL    HW1 2768   0.242   1.782   2.470  0.8690 -1.3608  0.4744
  923SOL    HW2 2769   0.151   1.702   2.584 -2.0433  1.7548 -0.3935
  924SOL     OW 2770   1.692   0.375   2.249 -0.4576 -0.5448  0.6071
  924SOL    HW1 2771   1.681   0.350   2.347  0.9582  2.3544 -1.4000
  924SOL    HW2 2772   1.748   0.459   2.236 -0.1463 -1.0572  1.0963
  925SOL     OW 2773   3.072   0.851   0.078 -0.0979  0.1445 -0.4169
  925SOL    HW1 2774   3.037   0.756   0.066 -0.1851  0.0281 -2.2149
  925SOL    HW2 2775   3.105   0.861   0.174  0.7589  0.5246  0.2635
  926SOL     OW 2776   2.689   0.200   0.794 -0.2885 -0.0854 -0.1885
  926SOL    HW1 2777   2.714   0.295   0.795 -2.5961  2.6798  0.2219
  926SOL    HW2 2778   2.686   0.163   0.894 -0.9728 -1.8415  2.0738
  927SOL     OW 2779   1.165   0.674   0.774 -0.1722 -0.5026 -0.3916
  927SOL    HW1 2780   1.212   0.713   0.695 -1.1805 -1.4939  1.9845
  927SOL    HW2 2781   1.080   0.727   0.800  0.6741 -0.4624  2.8045
  928SOL     OW 2782   0.024   0.210   2.065  1.0764 -0.1758  0.2796
  928SOL    HW1 2783   3.076   0.256   2.073 -0.1949  0.4162  3.0477
  928SOL    HW2 2784   0.081   0.257   2.134 -2.5925  1.2720  1.1719
  929SOL     OW 2785   2.549   0.929   1.471 -0.2947  0.2046 -0.0352
  929SOL    HW1 2786   2.644   0.939   1.450 -2.1247  2.3747  0.4785
  929SOL    HW2 2787   2.535   0.854   1.537 -1.1316 -3.9254 -2.6975
  930SOL     OW 2788   2.011   2.721   1.021  0.2499 -0.1874 -0.2800
  930SOL    HW1 2789   2.012   2.655   0.943  2.1107  0.2142  0.5299
  930SOL    HW2 2790   2.104   2.772   1.031 -0.0892 -0.8133 -2.9324
  931SOL     OW 2791   2.175   1.232   0.659 -0.1165 -0.1938 -0.0940
  931SOL    HW1 2792   2.249   1.280   0.612 -2.2483 -1.2055  2.8305
  931SOL    HW2 2793   2.088   1.247   0.615  1.1915  0.4669 -0.3418
  932SOL     OW 2794   0.105   0.820   1.385 -0.0462 -0.3476 -0.1935
  932SOL    HW1 2795   0.078   0.906   1.331 -0.6235  3.0516 -2.0292
  932SOL    HW2 2796   0.137   0.750   1.319 -1.9657 -0.4288  0.4468
  933SOL     OW 2797   2.265   1.519   2.151 -0.4100  0.0520  0.0556
  933SOL    HW1 2798   2.214   1.559   2.228  2.2145 -2.4652 -1.7095
  933SOL    HW2 2799   2.206   1.516   2.066 -0.5906  1.0695 -2.2604
  934SOL     OW 2800   1.589   2.757   1.512  0.1576  0.2796 -0.3259
  934SOL    HW1 2801   1.554   2.680   1.451 -1.8644 -3.1583 -1.5103
  934SOL    HW2 2802   1.515   2.829   1.518 -1.1120  1.4185  2.1627
  935SOL     OW 2803   0.663   0.814   1.442 -0.4679 -0.9846 -0.0907
  935SOL    HW1 2804   0.598   0.887   1.410  0.6479 -2.0036 -1.7649
  935SOL    HW2 2805   0.728   0.856   1.514  1.6247  0.5668  4.1170
  936SOL     OW 2806   2.292   0.798   1.010  0.2102  0.0952  0.1773
  936SOL    HW1 2807   2.362   0.726   0.991  0.5808  1.6958 -0.6141
  936SOL    HW2 2808   2.331   0.892   1.002  0.3537  2.7174 -0.4936
  937SOL     OW 2809   1.012   0.025   1.244  0.0109  0.1764  0.7399
  937SOL    HW1 2810   0.970   0.087   1.311  1.7630 -0.6073 -1.3349
  937SOL    HW2 2811   1.112   0.036   1.232  1.8250 -1.6306  1.5500
  938SOL     OW 2812   2.745   2.378   1.070 -0.0533 -0.3732 -0.0641
  938SOL    HW1 2813   2.746   2.276   1.063  0.3894 -1.6411 -1.4023
  938SOL    HW2 2814   2.823   2.421   1.122  1.5820  0.5471 -0.7624
  939SOL     OW 2815   0.018   1.775   2.682 -0.3047  0.2390  0.1169
  939SOL    HW1 2816   3.104   1.696   2.719 -1.5642 -4.4043  1.7398
  939SOL    HW2 2817   0.073   1.824   2.752 -1.1222 -0.2564  0.6842
  940SOL     OW 2818   2.187   2.703   2.898  0.1053  0.0779 -0.1031
  940SOL    HW1 2819   2.112   2.691   2.833  0.0436 -0.0028 -0.4756
  940SOL    HW2 2820   2.217   2.799   2.886 -1.4960  1.3500 -0.4922
  941SOL     OW 2821   1.688   2.696   0.588  0.2669 -0.1873 -0.1840
  941SOL    HW1 2822   1.738   2.635   0.527  0.4212  2.5322  0.3190
  941SOL    HW2 2823   1.748   2.775   0.607 -1.0122  0.7488  2.1129
  942SOL     OW 2824   1.671   1.942   1.199 -0.0806 -0.2835  0.1179
  942SOL    HW1 2825   1.741   1.998   1.252  0.1625  0.0337 -0.8167
  942SOL    HW2 2826   1.591   2.004   1.179  0.9868  1.1892 -2.1480
  943SOL     OW 2827   1.877   0.983   1.814  0.6201  0.0660 -0.1474
  943SOL    HW1 2828   1.806   0.911   1.825  0.3733  1.0554 -1.7285
  943SOL    HW2 2829   1.968   0.945   1.843 -0.7870 -0.7599 -0.6441
  944SOL     OW 2830   1.836   0.505   1.801  0.2239  0.0349 -0.1885
  944SOL    HW1 2831   1.804   0.408   1.794  0.2284 -0.2625  0.8563
  944SOL    HW2 2832   1.932   0.511   1.837  2.6479 -1.9211 -1.9517
  945SOL     OW 2833   2.750   2.389   1.450 -0.3076 -0.0607 -0.3246
  945SOL    HW1 2834   2.791   2.442   1.370  0.9406  2.6910 -0.6532
  945SOL    HW2 2835   2.796   2.420   1.540  0.1522  3.6316  2.3596
  946SOL     OW 2836   0.674   1.143   1.564 -0.2806  0.0539 -0.4159
  946SOL    HW1 2837   0.625   1.094   1.494  2.6008  0.0608  3.4662
  946SOL    HW2 2838   0.616   1.152   1.650  1.8406 -0.3995 -3.5332
  947SOL     OW 2839   0.563   2.463   0.788 -0.1143 -0.1275 -0.1182
  947SOL    HW1 2840   0.501   2.518   0.844  2.5153 -1.8968 -0.4643
  947SOL    HW2 2841   0.506   2.428   0.717  2.4902 -0.5463  0.0228
  948SOL     OW 2842   3.098   1.521   1.924  0.5946 -0.1515 -0.2344
  948SOL    HW1 2843   0.030   1.479   1.979  2.3076  1.8186  4.8097
  948SOL    HW2 2844   3.131   1.597   1.869 -2.4046 -3.2502  3.1558
  949SOL     OW 2845   0.706   0.720   2.195 -0.0165 -0.5571  0.1835
  949SOL    HW1 2846   0.743   0.815   2.203 -0.7391  1.2021  0.5855
  949SOL    HW2 2847   0.613   0.720   2.153  1.2216 -0.2821  1.0709
  950SOL     OW 2848   0.448   0.646   0.973 -0.4148 -0.5296  0.2529
  950SOL    HW1 2849   0.468   0.743   0.991 -3.5758 -2.8882 -1.4507
  950SOL    HW2 2850   0.391   0.607   1.049  0.5456 -1.7098 -0.8043
  951SOL     OW 2851   1.106   1.915   2.265  0.8901  0.2188 -0.0065
  951SOL    HW1 2852   1.106   1.815   2.279 -1.2699  1.3975 -0.6445
  951SOL    HW2 2853   1.157   1.939   2.181 -1.3247  0.4587  0.6839
  952SOL     OW 2854   1.240   1.689   2.828  0.1387 -0.1125 -0.5100
  952SOL    HW1 2855   1.262   1.706   2.730  1.7595  2.5551 -2.3105
  952SOL    HW2 2856   1.313   1.638   2.884  0.1791 -0.5901  1.7852
  953SOL     OW 2857   1.030   3.142   2.501  0.0224  0.3833  0.1187
  953SOL    HW1 2858   0.953   0.039   2.446  2.0270 -0.4304  0.4406
  953SOL    HW2 2859   1.027   0.047   2.592  1.3971  0.2767  0.2530
  954SOL     OW 2860   2.181   1.656   0.487 -0.4947  0.1724  0.1009
  954SOL    HW1 2861   2.110   1.723   0.457  2.7265  1.1084 -3.0835
  954SOL    HW2 2862   2.213   1.590   0.418  0.1257  0.9883  0.1784
  955SOL     OW 2863   0.279   2.549   3.100 -0.1596  0.4860  0.1922
  955SOL    HW1 2864   0.277   2.546   2.999  1.6638  0.6317  0.4550
  955SOL    HW2 2865   0.281   2.453   3.136  0.8745 -0.6953 -1.0423
  956SOL     OW 2866   1.300   0.778   1.634 -0.2317 -0.4339  0.3149
  956SOL    HW1 2867   1.213   0.724   1.637 -0.6704 -0.8517  0.4691
  956SOL    HW2 2868   1.313   0.815   1.537  0.6133  0.0801 -2.2847
  957SOL     OW 2869   2.159   1.652   2.357 -0.6426 -0.6102  0.5180
  957SOL    HW1 2870   2.074   1.595   2.348  0.9843  1.3340  0.8950
  957SOL    HW2 2871   2.150   1.754   2.359 -0.2529  2.4715  3.0456
  958SOL     OW 2872   1.663   2.297   1.260 -0.5497  0.0644  0.1579
  958SOL    HW1 2873   1.600   2.365   1.217 -0.4579 -0.3129 -0.1468
  958SOL    HW2 2874   1.756   2.316   1.229 -0.3428 -0.6937 -0.7838
  959SOL     OW 2875   1.664   1.494   1.540 -0.3343 -0.0944 -0.1976
  959SOL    HW1 2876   1.683   1.548   1.457 -3.2805  1.6122 -1.7142
  959SOL    HW2 2877   1.603   1.541   1.602 -1.4032 -0.2813 -0.0695
  960SOL     OW 2878   3.022   1.041   2.817  0.6211  0.0056 -0.3586
  960SOL    HW1 2879   2.985   0.946   2.795  1.4275 -1.8069  0.4334
  960SOL    HW2 2880   3.025   1.105   2.736 -0.0580  2.9585  1.4453
  961SOL     OW 2881   0.447   0.792   2.067  0.2277  0.2405 -0.2286
  961SOL    HW1 2882   0.357   0.842   2.068 -1.1609 -1.6797 -1.1776
  961SOL    HW2 2883   0.509   0.819   1.992 -0.3642  0.1332 -2.2796
  962SOL     OW 2884   1.514   1.797   0.294  0.1909  0.5479 -0.2500
  962SOL    HW1 2885   1.420   1.823   0.332 -0.8527 -0.4089  1.4995
  962SOL    HW2 2886   1.528   1.702   0.318 -1.4901  2.7212 -1.4028
  963SOL     OW 2887   1.171   2.498   2.588 -0.5766  0.2099 -0.1535
  963SOL    HW1 2888   1.208   2.527   2.496 -1.4889 -0.6217 -0.7155
  963SOL    HW2 2889   1.162   2.397   2.598  2.1828  2.9801 -0.1711
  964SOL     OW 2890   0.996   2.597   0.385 -0.6022  0.0891  0.7535
  964SOL    HW1 2891   1.005   2.683   0.329  2.6498  2.0272  1.0042
  964SOL    HW2 2892   0.979   2.629   0.483 -0.2673  1.3462  1.4221
  965SOL     OW 2893   0.646   3.056   1.022 -0.3284  0.1171  0.6987
  965SOL    HW1 2894   0.721   3.013   1.069 -1.8124 -0.5496 -1.8139
  965SOL    HW2 2895   0.584   3.103   1.085  2.4226 -1.2426 -1.7456
  966SOL     OW 2896   0.187   1.339   3.015  0.1856  0.1003 -0.4442
  966SOL    HW1 2897   0.104   1.383   3.055 -2.7068 -1.1897  1.5251
  966SOL    HW2 2898   0.166   1.254   2.974  1.6837  2.1389  1.0932
  967SOL     OW 2899   1.009   2.879   2.213 -0.2125  0.0920  0.0416
  967SOL    HW1 2900   1.087   2.936   2.175  1.9927 -1.2995  0.6875
  967SOL    HW2 2901   1.041   2.783   2.233  0.3502 -1.4787 -0.3007
  968SOL     OW 2902   2.188   0.426   0.453  0.8253 -0.0472 -0.1369
  968SOL    HW1 2903   2.193   0.324   0.469 -0.0371 -1.8995 -1.0147
  968SOL    HW2 2904   2.095   0.461   0.479 -2.0301 -0.0312  2.1682
  969SOL     OW 2905   0.084   1.799   2.206 -0.4884 -0.1832  0.1798
  969SOL    HW1 2906   0.054   1.842   2.117  3.1415  0.3504 -0.0824
  969SOL    HW2 2907   0.170   1.745   2.183  1.4599  2.3982  1.1864
  970SOL     OW 2908   2.241   1.633   1.448 -0.2864 -0.4311  0.0614
  970SOL    HW1 2909   2.165   1.694   1.472 -0.0617 -0.2691  0.3120
  970SOL    HW2 2910   2.211   1.553   1.396  2.6271  0.2376  0.4454
  971SOL     OW 2911   2.020   0.332   1.160  0.3570  0.0514  0.1227
  971SOL    HW1 2912   2.074   0.416   1.176  1.4899  1.9948 -0.7363
  971SOL    HW2 2913   2.038   0.296   1.066 -1.7323  0.3814  2.4232
  972SOL     OW 2914   0.321   3.039   1.875  0.1076 -0.6461  0.2392
  972SOL    HW1 2915   0.394   3.074   1.811 -0.0871 -1.8203  1.8136
  972SOL    HW2 2916   0.248   2.987   1.823 -0.2809 -1.0430 -1.1694
  973SOL     OW 2917   2.697   0.978   0.353 -0.0489  0.2911 -0.0484
  973SOL    HW1 2918   2.657   1.004   0.266 -0.5964 -0.2712  0.2216
  973SOL    HW2 2919   2.737   1.061   0.392 -0.1176 -2.8809  0.9136
  974SOL     OW 2920   1.739   1.559   2.285 -0.2322 -0.2015  0.0714
  974SOL    HW1 2921   1.726   1.648   2.331  0.1379 -2.0356  0.3025
  974SOL    HW2 2922   1.647   1.541   2.251  1.7324 -0.2050 -1.8063
  975SOL     OW 2923   0.354   2.862   1.425  0.2961 -0.3083 -0.2410
  975SOL    HW1 2924   0.411   2.936   1.454 -1.3109 -1.2894 -2.4394
  975SOL    HW2 2925   0.282   2.900   1.364  0.9139 -1.5142 -0.7576
  976SOL     OW 2926   0.085   1.702   1.742  0.0906  0.0601  0.6115
  976SOL    HW1 2927   0.077   1.777   1.671 -1.3948 -1.0520  0.8231
  976SOL    HW2 2928   0.161   1.721   1.812  0.3809  0.0471  1.2303
  977SOL     OW 2929   0.935   2.553   3.027 -0.0643  0.0690 -0.3452
  977SOL    HW1 2930   0.958   2.645   3.060 -2.6717 -2.1721  0.3630
  977SOL    HW2 2931   0.934   2.547   2.924 -1.8096 -1.0971 -1.1372
  978SOL     OW 2932   0.596   1.781   2.890 -0.3635  0.0181 -0.0080
  978SOL    HW1 2933   0.528   1.826   2.956 -1.9813  1.5107  1.0415
  978SOL    HW2 2934   0.626   1.695   2.932  0.0552  1.9585 -1.7970
  979SOL     OW 2935   1.743   2.361   0.839 -0.1864  0.2063  0.4855
  979SOL    HW1 2936   1.792   2.333   0.921 -0.5774 -1.1212  3.1122
  979SOL    HW2 2937   1.714   2.284   0.780  0.3065  0.3817 -0.2332
  980SOL     OW 2938   1.089   1.871   2.992  0.0297  0.5322 -0.0086
  980SOL    HW1 2939   1.134   1.801   2.936 -0.7468 -1.7086 -2.5496
  980SOL    HW2 2940   1.084   1.961   2.950  3.1641 -0.0404  1.8690
  981SOL     OW 2941   2.771   3.140   2.556 -0.4757 -0.4133 -0.5672
  981SOL    HW1 2942   2.841   0.071   2.550 -2.3069  4.2992  0.1184
  981SOL    HW2 2943   2.692   0.026   2.502  1.8646 -1.1695  1.6321
  982SOL     OW 2944   0.165   2.886   2.818  0.0056 -0.1311 -0.0649
  982SOL    HW1 2945   0.072   2.923   2.789  1.0734 -1.1604 -1.1928
  982SOL    HW2 2946   0.207   2.849   2.730 -1.9189  0.8710  0.0866
  983SOL     OW 2947   2.510   1.036   1.886 -0.7870  0.2724 -0.4696
  983SOL    HW1 2948   2.533   1.094   1.970  0.8805  0.7730  6.0015
  983SOL    HW2 2949   2.416   1.049   1.856  3.5634  2.7621 -0.3073
  984SOL     OW 2950   1.444   0.440   2.108 -0.2776  0.0485  0.0240
  984SOL    HW1 2951   1.361   0.433   2.165  0.9104 -2.4018  0.3549
  984SOL    HW2 2952   1.527   0.407   2.147 -1.1445 -0.0952 -1.1270
  985SOL     OW 2953   1.206   1.917   2.020  0.3515  0.1608 -0.4469
  985SOL    HW1 2954   1.148   1.846   1.969  1.3031  0.9060 -1.1278
  985SOL    HW2 2955   1.298   1.922   1.978  1.2570 -4.3622  2.0415
  986SOL     OW 2956   1.763   0.186   2.043  0.6561 -0.0891 -0.0665
  986SOL    HW1 2957   1.739   0.212   1.948 -1.5713 -0.4663  2.5055
  986SOL    HW2 2958   1.743   0.266   2.105  0.2565 -1.6338 -2.3169
  987SOL     OW 2959   2.097   0.851   1.856  0.4255 -0.0414 -0.0816
  987SOL    HW1 2960   2.100   0.753   1.839 -0.4986  0.4534  1.9161
  987SOL    HW2 2961   2.165   0.908   1.796  0.4380  1.7294 -3.0757
  988SOL     OW 2962   2.642   0.649   2.640 -0.5832  0.0808  0.5037
  988SOL    HW1 2963   2.631   0.726   2.703  1.7871 -1.5735  1.3909
  988SOL    HW2 2964   2.556   0.600   2.634 -3.1698 -0.1104 -3.8587
  989SOL     OW 2965   2.627   2.615   2.658  0.7112 -0.2012 -0.0855
  989SOL    HW1 2966   2.574   2.604   2.567  2.0029  2.8334 -0.9673
  989SOL    HW2 2967   2.596   2.549   2.735  0.3152  0.7028  1.1367
  990SOL     OW 2968   0.897   0.783   2.830 -0.0225  0.0525  0.0838
  990SOL    HW1 2969   0.972   0.857   2.841  1.4914 -1.2019 -0.9719
  990SOL    HW2 2970   0.824   0.819   2.769  0.5791 -2.5339 -1.3967
  991SOL     OW 2971   1.166   0.633   3.134 -0.2682 -0.2979  0.2036
  991SOL    HW1 2972   1.142   0.606   3.037 -0.6214  1.8570 -0.3929
  991SOL    HW2 2973   1.201   0.731   3.135  2.2174  1.5108 -0.6366
  992SOL     OW 2974   2.524   2.265   2.640 -0.5906  0.8553 -0.2552
  992SOL    HW1 2975   2.580   2.272   2.554  0.1845 -0.5203  3.3332
  992SOL    HW2 2976   2.549   2.332   2.711  0.6740 -0.7420 -1.5674
  993SOL     OW 2977   0.433   0.288   0.403 -0.5079  0.1687  0.4466
  993SOL    HW1 2978   0.472   0.241   0.319 -0.4067 -0.3150 -1.8173
  993SOL    HW2 2979   0.335   0.274   0.423  0.4312 -0.0603  1.1660
  994SOL     OW 2980   0.387   2.259   1.687  0.2621  0.6309  0.3810
  994SOL    HW1 2981   0.314   2.281   1.754  0.7253  0.3170 -0.0742
  994SOL    HW2 2982   0.453   2.335   1.681 -0.8598  2.2533 -0.9968
  995SOL     OW 2983   2.229   1.843   3.000  0.2724  0.1571 -0.2651
  995SOL    HW1 2984   2.288   1.909   3.056 -3.1823  1.6979  1.2667
  995SOL    HW2 2985   2.221   1.871   2.898  0.9783 -1.9270 -2.3307
  996SOL     OW 2986   1.324   1.766   2.575  0.5240  0.2279 -0.4033
  996SOL    HW1 2987   1.341   1.724   2.485  0.8594 -0.4296  0.9481
  996SOL    HW2 2988   1.413   1.792   2.620  0.2647  2.3000  1.0054
  997SOL     OW 2989   1.774   1.001   1.159  0.6111  0.2028  1.1100
  997SOL    HW1 2990   1.843   1.079   1.143  1.3405  0.4324 -0.7827
  997SOL    HW2 2991   1.823   0.916   1.176 -2.3344  1.7994  1.2012
  998SOL     OW 2992   2.691   1.412   0.231  0.5309 -0.4652  0.2826
  998SOL    HW1 2993   2.613   1.350   0.207 -1.8153 -0.5084  0.0147
  998SOL    HW2 2994   2.748   1.420   0.146 -0.3076 -1.4193 -0.9728
  999SOL     OW 2995   2.854   2.279   0.514  0.0513 -0.4579 -0.1176
  999SOL    HW1 2996   2.931   2.330   0.551  0.6520 -1.9677 -0.2168
  999SOL    HW2 2997   2.847   2.188   0.556  0.1674  0.0375  1.5119
 1000SOL     OW 2998   0.764   0.098   2.070 -0.2839 -0.5063 -0.6289
 1000SOL    HW1 2999   0.684   0.155   2.055  3.1243  1.2479  1.8864
 1000SOL    HW2 3000   0.823   0.097   1.986 -1.3957  2.9102 -3.8585
   3.14275   3.14275   3.14275
