1000 SPC/Fw water molecules t= 132.00000 step= 132000
 3000
    1SOL     OW    1   2.215   2.323   0.870 -0.0572  0.1648 -0.2906
    1SOL    HW1    2   2.238   2.422   0.863  1.0990  1.0490 -0.2292
    1SOL    HW2    3   2.122   2.305   0.909 -0.2123 -2.3244  0.0207
    2SOL     OW    4   1.423   2.006   2.205  0.4045 -0.0416  0.2947
    2SOL    HW1    5   1.379   2.057   2.281 -0.3043  1.3943  0.5622
    2SOL    HW2    6   1.359   1.935   2.178  0.4233  0.2275 -1.2089
    3SOL     OW    7   1.503   2.309   2.250  0.2030  0.0440  0.1042
    3SOL    HW1    8   1.553   2.385   2.299 -1.0266  0.6866 -0.5920
    3SOL    HW2    9   1.563   2.277   2.172  1.0700 -0.2010 -1.8892
    4SOL     OW   10   1.278   2.432   2.135  0.1590 -0.1758  0.1460
    4SOL    HW1   11   1.363   2.393   2.179  0.1137  0.1095 -1.4839
    4SOL    HW2   12   1.192   2.407   2.185  2.0412 -1.3688  1.5565
    5SOL     OW   13   0.533   0.768   1.549 -0.5839 -0.0620 -0.3253
    5SOL    HW1   14   0.535   0.677   1.505  0.0844 -0.0480  3.2859
    5SOL    HW2   15   0.442   0.805   1.567  4.4453 -2.4516  0.3116
    6SOL     OW   16   2.516   0.928   0.188  0.1562  0.2694 -0.1283
    6SOL    HW1   17   2.450   0.957   0.260  0.4082  2.1403  2.9240
    6SOL    HW2   18   2.589   0.872   0.230  0.5597  1.1829  3.2853
    7SOL     OW   19   0.402   0.100   1.575  0.0770  0.1205 -0.0661
    7SOL    HW1   20   0.480   0.123   1.639 -0.8744  3.5134  2.8809
    7SOL    HW2   21   0.353   0.014   1.599 -0.1962  1.6503  1.9819
    8SOL     OW   22   1.164   2.888   1.468  0.6525  0.0968  0.4681
    8SOL    HW1   23   1.087   2.860   1.407  1.4599  1.9314  0.3059
    8SOL    HW2   24   1.235   2.816   1.483  1.7102 -1.0411 -0.9220
    9SOL     OW   25   0.652   0.829   0.342  0.1539  0.1851 -0.3547
    9SOL    HW1   26   0.566   0.860   0.296  2.2897  0.2320 -0.6676
    9SOL    HW2   27   0.714   0.910   0.345 -0.1354 -0.6931 -2.4922
   10SOL     OW   28   0.842   2.478   2.404 -0.4019 -0.3170 -0.4886
   10SOL    HW1   29   0.810   2.406   2.466 -1.3369  1.0129  1.0736
   10SOL    HW2   30   0.785   2.564   2.411 -1.0874  0.6035 -1.7058
   11SOL     OW   31   0.438   1.939   0.212  0.0318  0.0296 -0.0876
   11SOL    HW1   32   0.349   1.929   0.169  0.3197  0.9438 -0.2187
   11SOL    HW2   33   0.427   1.912   0.314 -1.9053 -1.6681  1.3417
   12SOL     OW   34   0.501   0.055   1.314  0.0769 -0.9281  0.5758
   12SOL    HW1   35   0.495   0.065   1.414 -0.5538 -0.6560 -1.1504
   12SOL    HW2   36   0.420   0.013   1.268 -0.7531 -0.2910 -0.6316
   13SOL     OW   37   0.772   2.688   0.113 -0.1669  0.6512  0.4819
   13SOL    HW1   38   0.861   2.682   0.164  3.2532  2.5670 -0.1873
   13SOL    HW2   39   0.758   2.787   0.091  0.9261  1.3460  0.0827
   14SOL     OW   40   1.528   1.552   0.888 -0.1313 -0.5570  0.6567
   14SOL    HW1   41   1.599   1.558   0.957 -1.7738  0.6881  0.7203
   14SOL    HW2   42   1.484   1.650   0.881 -0.6482  4.6200  0.9484
   15SOL     OW   43   3.086   1.137   2.244 -0.3475 -0.0276  0.2367
   15SOL    HW1   44   3.088   1.106   2.341  0.7259  0.7345 -1.4277
   15SOL    HW2   45   0.015   1.232   2.236 -0.2622 -2.8335  1.5243
   16SOL     OW   46   1.511   2.890   3.027 -0.2698 -0.5189  0.3401
   16SOL    HW1   47   1.490   2.805   2.972 -0.3463  2.1704  1.9196
   16SOL    HW2   48   1.606   2.921   3.014 -1.9620 -0.5491  2.9332
   17SOL     OW   49   0.760   2.420   2.110 -0.3400 -0.9042 -0.1761
   17SOL    HW1   50   0.781   2.340   2.176  2.6176 -0.9072  2.5091
   17SOL    HW2   51   0.664   2.454   2.112  0.6394  0.2393  1.2709
   18SOL     OW   52   1.611   0.815   0.350  0.1405 -0.6525 -0.0585
   18SOL    HW1   53   1.643   0.899   0.396  1.5137 -0.8720 -0.6506
   18SOL    HW2   54   1.521   0.784   0.393  0.2492  1.3755  0.4856
   19SOL     OW   55   2.580   1.920   2.753  0.0129  0.0473 -0.3645
   19SOL    HW1   56   2.552   1.971   2.838  0.2774  0.5858  1.7762
   19SOL    HW2   57   2.678   1.891   2.753 -2.2609  1.3321 -0.4429
   20SOL     OW   58   2.383   2.076   2.409  1.0615 -0.3156  0.2091
   20SOL    HW1   59   2.365   2.096   2.310 -1.9369 -0.3632 -1.4359
   20SOL    HW2   60   2.478   2.041   2.421 -2.4837  0.4572  0.9324
   21SOL     OW   61   0.537   2.168   0.127  0.2239 -0.1782  0.1822
   21SOL    HW1   62   0.556   2.232   0.205  0.7840 -0.0773  1.1413
   21SOL    HW2   63   0.510   2.078   0.165 -0.0365  1.0527 -0.7281
   22SOL     OW   64   2.171   2.972   1.302  0.1925  0.7989 -0.7304
   22SOL    HW1   65   2.147   3.071   1.320 -0.8853  0.5905 -3.6101
   22SOL    HW2   66   2.185   2.919   1.391 -2.6282 -2.5685  1.1540
   23SOL     OW   67   0.314   1.307   1.474  0.1148  0.1866  0.0183
   23SOL    HW1   68   0.298   1.384   1.541  0.0382  1.1606  2.1498
   23SOL    HW2   69   0.411   1.268   1.487  0.2651  0.3462 -0.5320
   24SOL     OW   70   2.057   1.825   1.583 -0.0142 -0.4161  0.8195
   24SOL    HW1   71   2.155   1.811   1.595  0.4748  0.5361  0.6573
   24SOL    HW2   72   2.018   1.892   1.649 -0.8117 -0.6832  0.1655
   25SOL     OW   73   1.886   0.011   2.755  0.8236  0.3206  0.3677
   25SOL    HW1   74   1.980   0.006   2.715 -2.0318 -0.5989  0.3014
   25SOL    HW2   75   1.814   0.004   2.677  0.1260 -1.4362 -0.8397
   26SOL     OW   76   1.248   3.030   0.895 -0.4934 -0.5166  0.7519
   26SOL    HW1   77   1.313   3.059   0.821  0.8563  0.4002  0.2535
   26SOL    HW2   78   1.235   0.004   0.953 -0.2589 -0.8519  1.4670
   27SOL     OW   79   1.086   1.921   0.103 -0.3349  0.0737 -0.4682
   27SOL    HW1   80   1.117   2.006   0.147  0.4901  1.1093 -2.4577
   27SOL    HW2   81   0.986   1.914   0.108  4.4802  0.1079  2.3171
   28SOL     OW   82   2.792   1.762   1.389  0.5874  0.0998 -0.3815
   28SOL    HW1   83   2.767   1.669   1.425  0.4935 -2.2892  1.7577
   28SOL    HW2   84   2.880   1.764   1.336 -1.8467  1.3301 -0.7888
   29SOL     OW   85   2.353   2.483   2.137  0.3144  0.1118 -0.0054
   29SOL    HW1   86   2.419   2.553   2.159 -2.1900  1.0754 -2.4248
   29SOL    HW2   87   2.278   2.475   2.205 -2.0425 -2.2538  1.0634
   30SOL     OW   88   0.902   2.683   1.110  0.1328 -0.6555 -0.0458
   30SOL    HW1   89   0.980   2.667   1.045 -0.2729  2.2266  0.8053
   30SOL    HW2   90   0.810   2.653   1.077 -0.4648  1.2243  1.8849
   31SOL     OW   91   3.044   2.013   1.958 -0.2548  0.0650  0.1892
   31SOL    HW1   92   3.018   1.914   1.952  0.1328 -2.5085  0.2870
   31SOL    HW2   93   0.036   2.023   1.971 -0.9219 -0.0063  0.9814
   32SOL     OW   94   1.477   1.198   2.100 -0.2195 -0.5873 -0.5623
   32SOL    HW1   95   1.450   1.117   2.049  1.6318  1.7341  0.2599
   32SOL    HW2   96   1.395   1.233   2.159  0.0524 -0.4736  1.0727
   33SOL     OW   97   0.460   2.822   2.652 -0.0820 -0.2494  0.6884
   33SOL    HW1   98   0.373   2.786   2.604 -0.5210 -2.0393 -0.3428
   33SOL    HW2   99   0.537   2.844   2.587  1.4253 -1.6930 -2.2618
   34SOL     OW  100   1.388   3.008   1.705  0.0336 -0.5881 -0.3256
   34SOL    HW1  101   1.372   2.945   1.630 -1.1928 -0.8092 -0.7939
   34SOL    HW2  102   1.459   2.965   1.764  0.0369 -0.1009 -3.4410
   35SOL     OW  103   2.089   0.422   1.142 -0.4848 -0.0536 -0.6892
   35SOL    HW1  104   2.061   0.504   1.195  0.8136 -0.7791  2.0685
   35SOL    HW2  105   2.004   0.370   1.116  0.5502  3.8054  1.3522
   36SOL     OW  106   2.250   2.820   2.544  0.0949 -0.6450 -0.1862
   36SOL    HW1  107   2.302   2.735   2.571  1.5341 -0.0830 -2.3359
   36SOL    HW2  108   2.226   2.809   2.445  3.2940  0.7720  1.7586
   37SOL     OW  109   1.240   2.322   2.901  0.4406 -0.4624  0.0968
   37SOL    HW1  110   1.182   2.383   2.962 -1.3620 -0.6663  1.0646
   37SOL    HW2  111   1.237   2.225   2.935 -1.2260  1.2552  1.4468
   38SOL     OW  112   2.610   0.829   2.793 -0.0443 -0.4659 -0.1068
   38SOL    HW1  113   2.668   0.912   2.800 -1.5475 -1.0066  0.2332
   38SOL    HW2  114   2.544   0.841   2.869  1.5135 -0.2761 -1.1805
   39SOL     OW  115   2.087   2.112   1.963 -0.0415  0.0614  0.4025
   39SOL    HW1  116   2.049   2.051   1.890  1.3153  0.9209 -0.1609
   39SOL    HW2  117   2.037   2.201   1.969 -0.3523 -0.5260 -1.3361
   40SOL     OW  118   0.310   0.261   2.918  0.5014 -0.0991  0.6234
   40SOL    HW1  119   0.357   0.276   3.007 -0.2860 -0.5755 -1.3338
   40SOL    HW2  120   0.213   0.230   2.934 -1.9582 -1.0904  2.5738
   41SOL     OW  121   1.209   1.077   1.555 -0.3122  0.7049 -0.3472
   41SOL    HW1  122   1.185   1.096   1.456  1.1047 -0.3233  1.2792
   41SOL    HW2  123   1.118   1.071   1.600  0.0059 -0.3787  0.0403
   42SOL     OW  124   0.172   0.254   1.967 -0.1008  0.1237 -0.0893
   42SOL    HW1  125   0.106   0.334   1.952 -1.6424 -0.4841  2.0426
   42SOL    HW2  126   0.268   0.267   1.931  2.3898  1.7334 -0.7567
   43SOL     OW  127   1.462   1.573   2.006 -0.0478  0.7492  0.5878
   43SOL    HW1  128   1.417   1.591   2.098 -0.5913  1.8927  1.1556
   43SOL    HW2  129   1.522   1.490   2.010  1.1628 -0.1235  0.7400
   44SOL     OW  130   2.951   2.806   2.573  0.4352 -0.3772 -0.0247
   44SOL    HW1  131   2.942   2.900   2.615  0.7556 -0.1746 -0.6740
   44SOL    HW2  132   2.997   2.811   2.483  1.4030 -0.3431  1.4577
   45SOL     OW  133   0.544   2.283   1.313 -0.1260  0.1161  0.3658
   45SOL    HW1  134   0.577   2.209   1.374  1.8826 -0.4569  0.5973
   45SOL    HW2  135   0.625   2.336   1.283  2.0168  1.3107  2.2251
   46SOL     OW  136   2.446   2.346   1.918 -0.1820 -0.2959  0.7545
   46SOL    HW1  137   2.396   2.397   1.994  0.5044  0.1569 -0.4654
   46SOL    HW2  138   2.529   2.307   1.961 -1.3049  1.6403  1.3301
   47SOL     OW  139   1.667   1.815   1.595 -0.4984 -0.7493  0.0642
   47SOL    HW1  140   1.590   1.788   1.658  1.0005 -2.5408  0.7835
   47SOL    HW2  141   1.746   1.761   1.626  2.3335 -0.0739  0.8040
   48SOL     OW  142   0.246   2.063   0.609 -0.3800  0.2421 -0.3335
   48SOL    HW1  143   0.298   2.089   0.696 -1.7026 -0.4291  0.8270
   48SOL    HW2  144   0.225   2.146   0.549 -0.5198  1.1851 -0.5850
   49SOL     OW  145   0.029   0.933   2.049  0.1816 -0.1180 -0.4234
   49SOL    HW1  146   0.122   0.883   2.068  4.5611 -0.3384  0.4063
   49SOL    HW2  147   0.022   1.022   2.099  0.7814  1.6874 -2.3842
   50SOL     OW  148   2.026   0.804   1.023  0.2182  0.3384  0.1896
   50SOL    HW1  149   2.116   0.829   0.986  1.0718 -1.1568  1.1434
   50SOL    HW2  150   1.969   0.771   0.947  2.4796  1.4605  0.1131
   51SOL     OW  151   1.246   0.567   0.617  0.1970  0.0030  0.6684
   51SOL    HW1  152   1.201   0.617   0.697 -1.9033  0.4016 -0.7797
   51SOL    HW2  153   1.310   0.494   0.652  0.3645 -1.8789  1.6058
   52SOL     OW  154   1.205   1.207   0.330  0.5442  0.1333  0.3042
   52SOL    HW1  155   1.237   1.109   0.316 -0.0313  1.4327  0.2605
   52SOL    HW2  156   1.157   1.220   0.416 -1.2431 -0.1939 -1.2485
   53SOL     OW  157   1.225   2.435   2.641 -0.2078 -0.3390  0.0253
   53SOL    HW1  158   1.293   2.385   2.583  0.1151 -1.1514  1.7449
   53SOL    HW2  159   1.230   2.403   2.738 -4.1428 -1.6268  2.7533
   54SOL     OW  160   1.353   0.911   1.712  0.0217  0.1057 -0.4488
   54SOL    HW1  161   1.313   0.815   1.705 -3.6157 -1.6348  1.0091
   54SOL    HW2  162   1.308   0.964   1.637  1.8085 -2.5649  1.3828
   55SOL     OW  163   2.011   2.944   0.523 -0.2455  0.3368 -0.5796
   55SOL    HW1  164   1.950   2.866   0.493 -1.2142 -1.9868 -0.6180
   55SOL    HW2  165   1.957   3.010   0.579  0.8839 -1.0389  0.8150
   56SOL     OW  166   0.945   2.793   1.340 -0.1806 -0.3034  0.6207
   56SOL    HW1  167   0.920   2.764   1.246 -1.2227  1.1850  2.2327
   56SOL    HW2  168   0.879   2.871   1.361 -1.4690 -0.5994  1.3600
   57SOL     OW  169   1.726   0.898   2.864 -0.7288  0.0322  0.1429
   57SOL    HW1  170   1.758   0.896   2.765  0.9397  1.3643 -1.5549
   57SOL    HW2  171   1.749   0.983   2.913 -0.7582 -1.2100 -2.2899
   58SOL     OW  172   0.012   1.014   1.757 -0.1414  0.4596  0.0411
   58SOL    HW1  173   0.008   0.962   1.843 -0.1870  3.5554 -1.8621
   58SOL    HW2  174   3.037   1.073   1.749 -3.8550 -0.2587 -1.5988
   59SOL     OW  175   0.620   2.630   2.346  0.4222  0.1778  0.0698
   59SOL    HW1  176   0.557   2.607   2.265 -1.1162  1.6490 -2.9698
   59SOL    HW2  177   0.684   2.710   2.322  0.8180  1.1176  2.5931
   60SOL     OW  178   2.609   2.494   1.193  0.1798  0.2410  0.2460
   60SOL    HW1  179   2.550   2.479   1.111  0.3313 -2.3144 -0.8213
   60SOL    HW2  180   2.710   2.506   1.175 -1.2158  1.0615 -0.9905
   61SOL     OW  181   1.098   2.268   0.639  0.2024 -0.0397 -0.3971
   61SOL    HW1  182   1.186   2.220   0.626 -0.6055  1.2174 -0.4546
   61SOL    HW2  183   1.029   2.209   0.681  0.1501  0.3664 -0.8044
   62SOL     OW  184   2.126   2.728   2.986  0.1114  0.5712 -0.1598
   62SOL    HW1  185   2.203   2.663   2.972 -0.5233 -0.2411  0.6536
   62SOL    HW2  186   2.048   2.701   2.925 -2.2982 -2.7043 -0.7227
   63SOL     OW  187   2.303   0.106   0.023 -0.1740  0.1818 -0.2760
   63SOL    HW1  188   2.249   0.038   3.079 -1.6922  2.5991  1.0590
   63SOL    HW2  189   2.326   0.179   3.066 -1.4540  1.6963  2.1898
   64SOL     OW  190   0.979   1.121   2.565  0.2221 -0.5502 -0.0685
   64SOL    HW1  191   0.927   1.190   2.619 -0.2904 -1.4406 -0.2489
   64SOL    HW2  192   0.932   1.037   2.574  0.5836 -0.9870  0.1517
   65SOL     OW  193   1.316   2.612   0.601 -0.3559 -0.0364 -0.2006
   65SOL    HW1  194   1.376   2.546   0.553 -1.1175  1.8327  2.1198
   65SOL    HW2  195   1.362   2.640   0.686  0.0947  0.0391 -2.4784
   66SOL     OW  196   0.551   1.596   1.685  0.4047  0.2205  0.1002
   66SOL    HW1  197   0.586   1.500   1.700 -1.7278 -2.5199  0.4458
   66SOL    HW2  198   0.453   1.589   1.649 -4.5156 -0.7831 -3.1677
   67SOL     OW  199   2.411   0.071   2.207 -0.0092  0.0251  0.1255
   67SOL    HW1  200   2.466   0.015   2.266 -0.0023  1.3065  1.2963
   67SOL    HW2  201   2.474   0.138   2.155 -1.0218  1.2115  3.3898
   68SOL     OW  202   0.871   0.786   1.487 -0.2340 -0.1194  0.0502
   68SOL    HW1  203   0.850   0.701   1.433 -2.9272 -2.3005 -0.5882
   68SOL    HW2  204   0.802   0.855   1.458  1.9422 -2.5156 -0.7967
   69SOL     OW  205   2.025   2.973   0.225  0.1109  0.2480  0.1239
   69SOL    HW1  206   1.974   3.052   0.181 -0.9333 -0.0232  0.9682
   69SOL    HW2  207   2.049   2.988   0.322 -3.6725  1.0741 -2.3536
   70SOL     OW  208   2.678   1.112   2.910  0.1164  0.1089 -0.0420
   70SOL    HW1  209   2.661   1.111   2.808 -0.5162  0.8250 -3.7844
   70SOL    HW2  210   2.761   1.056   2.926  0.5939  1.2544 -2.1409
   71SOL     OW  211   3.025   1.844   0.045  0.3444 -0.2494  0.0165
   71SOL    HW1  212   2.987   1.890   3.072 -0.0818 -2.1679 -0.8465
   71SOL    HW2  213   3.102   1.895   0.095  0.1213  1.1976  2.3149
   72SOL     OW  214   0.019   1.951   0.469  0.2020  0.0753 -0.0376
   72SOL    HW1  215   0.049   1.857   0.452  0.3650 -0.7242 -1.7139
   72SOL    HW2  216   0.066   1.988   0.554 -0.6345  1.4124  2.2126
   73SOL     OW  217   0.931   1.250   0.473 -0.2096  0.1260  0.1365
   73SOL    HW1  218   0.944   1.217   0.566 -1.8679  1.0656 -5.1431
   73SOL    HW2  219   0.921   1.350   0.480 -0.1980  0.7412 -1.1627
   74SOL     OW  220   0.245   1.795   1.895 -0.0437  0.3172  0.1997
   74SOL    HW1  221   0.221   1.884   1.942 -0.6315  1.6184 -0.9796
   74SOL    HW2  222   0.326   1.748   1.937  2.0461  0.2838 -0.3988
   75SOL     OW  223   1.716   1.343   1.588  0.1214  0.2680  0.1971
   75SOL    HW1  224   1.785   1.303   1.653  0.9946  1.6562 -2.7878
   75SOL    HW2  225   1.623   1.307   1.602  0.6781 -2.7657 -1.1373
   76SOL     OW  226   2.286   2.473   1.361  0.0332  0.3271 -0.5324
   76SOL    HW1  227   2.266   2.484   1.459  0.2390 -0.4576 -0.1682
   76SOL    HW2  228   2.252   2.383   1.324 -0.8667 -0.1207 -0.8903
   77SOL     OW  229   2.640   1.321   1.736 -0.0112 -0.5677  0.0307
   77SOL    HW1  230   2.562   1.306   1.800  1.8371  0.9541 -1.4197
   77SOL    HW2  231   2.659   1.423   1.721  1.2093  0.1875 -1.3163
   78SOL     OW  232   1.487   0.525   0.369 -0.1625  0.1585 -0.0254
   78SOL    HW1  233   1.440   0.596   0.425 -2.8529  0.1971  0.5638
   78SOL    HW2  234   1.583   0.548   0.346 -2.4132 -2.6660 -1.4260
   79SOL     OW  235   2.361   1.542   1.541 -0.4276  0.4199 -0.4707
   79SOL    HW1  236   2.430   1.518   1.469  0.6148 -1.0377 -1.2479
   79SOL    HW2  237   2.358   1.642   1.564  1.0051 -2.3624  2.5942
   80SOL     OW  238   0.779   0.532   1.393 -0.1293 -0.4275  0.1354
   80SOL    HW1  239   0.674   0.526   1.392 -1.6102 -0.6350 -1.2233
   80SOL    HW2  240   0.824   0.447   1.425  0.7043  0.7920  1.1316
   81SOL     OW  241   0.774   2.867   0.805  0.3073 -0.3608  0.6624
   81SOL    HW1  242   0.769   2.925   0.893  0.5074 -0.8685  0.6769
   81SOL    HW2  243   0.873   2.848   0.779  0.7466 -2.2248 -1.9536
   82SOL     OW  244   1.550   2.913   1.929  0.5154  0.0262  0.2025
   82SOL    HW1  245   1.513   2.836   1.984  2.7429 -0.2161 -1.3524
   82SOL    HW2  246   1.538   2.996   1.984 -0.3794  0.6568 -1.1171
   83SOL     OW  247   1.399   1.793   0.869 -0.2820 -0.4222  0.3777
   83SOL    HW1  248   1.415   1.873   0.933  1.0946  1.5403  2.2081
   83SOL    HW2  249   1.443   1.815   0.780 -3.9924  2.6357 -0.1594
   84SOL     OW  250   0.123   1.558   2.804 -0.1396 -0.2555 -0.5634
   84SOL    HW1  251   0.174   1.510   2.726  1.6037 -0.5789 -3.2423
   84SOL    HW2  252   0.053   1.625   2.773  0.7005 -2.2103  0.5932
   85SOL     OW  253   0.404   2.305   1.071 -0.0093 -0.3601 -0.3996
   85SOL    HW1  254   0.405   2.399   1.030 -1.5800  0.3405  0.2067
   85SOL    HW2  255   0.468   2.294   1.155  2.4358 -0.3550  5.1572
   86SOL     OW  256   2.263   2.497   1.660  0.3011  0.3476 -0.0810
   86SOL    HW1  257   2.359   2.517   1.683 -0.9341  1.3742  2.9911
   86SOL    HW2  258   2.196   2.567   1.698  0.9219 -0.8157 -1.7619
   87SOL     OW  259   2.997   2.157   0.722 -0.2492 -0.5228  0.6722
   87SOL    HW1  260   2.937   2.234   0.758 -0.5693  0.2120  0.3635
   87SOL    HW2  261   2.951   2.112   0.648 -1.6668  1.9780  1.4129
   88SOL     OW  262   0.942   1.093   1.145  0.1225 -0.0074 -0.1072
   88SOL    HW1  263   0.956   1.129   1.049 -0.5089 -1.1767  2.1918
   88SOL    HW2  264   0.866   1.027   1.148 -0.0508  0.6082 -1.7490
   89SOL     OW  265   1.106   3.108   2.227  0.0611  0.4984 -0.4856
   89SOL    HW1  266   1.046   0.049   2.295 -3.8578  0.4489 -1.7205
   89SOL    HW2  267   1.037   3.065   2.160  1.7829 -1.7152  0.4339
   90SOL     OW  268   0.027   2.054   1.535  0.4851 -0.2544 -0.4889
   90SOL    HW1  269   0.049   1.958   1.514  0.4358  1.9122  2.7004
   90SOL    HW2  270   0.112   2.105   1.555 -2.0386  2.5079 -1.6891
   91SOL     OW  271   1.421   2.212   1.423  0.1832  0.2149  0.3243
   91SOL    HW1  272   1.449   2.229   1.517  2.3109 -0.0649 -2.8066
   91SOL    HW2  273   1.483   2.148   1.376  0.9562 -2.5926  0.3587
   92SOL     OW  274   2.795   2.969   1.392  0.0424 -0.4437  0.1911
   92SOL    HW1  275   2.716   3.024   1.378 -1.3968  0.2478 -0.8987
   92SOL    HW2  276   2.868   3.004   1.333 -1.0530  0.3804 -1.0595
   93SOL     OW  277   0.113   1.185   2.699 -0.0552 -0.5427 -0.1811
   93SOL    HW1  278   0.157   1.114   2.761  1.2827 -1.8872  1.6257
   93SOL    HW2  279   0.034   1.234   2.746  0.1146  2.7519  1.1340
   94SOL     OW  280   2.783   2.488   1.898  0.0848 -0.4068  0.5758
   94SOL    HW1  281   2.843   2.565   1.925 -0.2454 -0.7409 -0.0772
   94SOL    HW2  282   2.710   2.528   1.836 -1.7745  3.5339 -0.1007
   95SOL     OW  283   1.510   0.369   2.110 -0.1521  0.6077 -0.5246
   95SOL    HW1  284   1.468   0.313   2.182  2.3356  1.2544 -1.9151
   95SOL    HW2  285   1.575   0.443   2.142  1.7724 -2.1400 -2.2587
   96SOL     OW  286   2.448   0.559   1.664 -0.5178 -0.3606 -0.2870
   96SOL    HW1  287   2.500   0.467   1.673  2.3763 -3.7740 -0.4849
   96SOL    HW2  288   2.451   0.590   1.568  1.5606 -0.0411  2.0999
   97SOL     OW  289   1.982   0.489   1.859  0.5489 -0.6001 -0.1910
   97SOL    HW1  290   2.018   0.396   1.887  2.3403 -1.5768  0.2204
   97SOL    HW2  291   1.887   0.500   1.887  1.5092  0.9327  1.8292
   98SOL     OW  292   1.985   2.815   1.182  0.3951  0.6174  0.4469
   98SOL    HW1  293   2.056   2.888   1.210 -0.2395 -0.2477 -1.2204
   98SOL    HW2  294   1.983   2.754   1.266  1.8048 -1.8536  1.1220
   99SOL     OW  295   2.783   0.279   1.992 -0.3464  0.2217  0.1770
   99SOL    HW1  296   2.821   0.251   2.082  0.1564 -0.1820 -1.0911
   99SOL    HW2  297   2.814   0.375   1.967  0.5859  1.7045 -1.5298
  100SOL     OW  298   2.255   1.393   1.738  0.1375 -0.1843 -0.0464
  100SOL    HW1  299   2.294   1.457   1.664  0.0424  0.3928  2.0514
  100SOL    HW2  300   2.328   1.341   1.794  1.5587 -3.7245  0.5892
  101SOL     OW  301   1.462   0.087   0.796 -0.3834 -0.0572 -0.5547
  101SOL    HW1  302   1.482   0.180   0.832 -0.7210  1.9523  0.7561
  101SOL    HW2  303   1.549   0.036   0.786  0.5304  1.5393 -0.1585
  102SOL     OW  304   0.718   0.887   1.150  0.6447 -0.4344 -0.1908
  102SOL    HW1  305   0.623   0.866   1.113 -1.3155  0.5866  0.2580
  102SOL    HW2  306   0.699   0.929   1.239 -1.7686 -0.0153 -0.7938
  103SOL     OW  307   2.825   0.439   3.018  0.3326  0.0276 -0.2897
  103SOL    HW1  308   2.869   0.384   2.946 -1.3626  0.1421  0.4529
  103SOL    HW2  309   2.873   0.412   3.102  0.0787  3.0574 -0.8860
  104SOL     OW  310   2.742   0.141   1.751 -0.0867 -0.4900  0.4067
  104SOL    HW1  311   2.829   0.091   1.721  2.7954 -2.2274 -2.8690
  104SOL    HW2  312   2.761   0.192   1.837 -0.4649  0.7287  2.8387
  105SOL     OW  313   1.854   0.864   2.067  0.4376  0.6076 -0.3830
  105SOL    HW1  314   1.767   0.809   2.049  1.6932 -1.9927  0.2479
  105SOL    HW2  315   1.831   0.960   2.101  0.4210  0.6338 -0.2604
  106SOL     OW  316   1.702   3.074   0.829  0.2087  0.0825  0.1624
  106SOL    HW1  317   1.738   3.090   0.928  1.5430  0.8144  1.2254
  106SOL    HW2  318   1.768   0.010   0.762  3.0943 -1.5010 -1.3938
  107SOL     OW  319   0.806   1.003   0.672 -0.2043  0.1272  0.1035
  107SOL    HW1  320   0.787   1.051   0.590  1.2922 -3.1871  1.1248
  107SOL    HW2  321   0.730   0.940   0.700  0.9386 -0.1215  0.4204
  108SOL     OW  322   2.807   0.278   2.276  0.0808 -0.2508 -0.1691
  108SOL    HW1  323   2.860   0.197   2.287 -0.4526  3.8522 -0.6199
  108SOL    HW2  324   2.729   0.280   2.339  1.3930 -1.8235  1.5086
  109SOL     OW  325   2.111   0.614   3.071  0.0087  0.4971 -0.2345
  109SOL    HW1  326   2.031   0.675   3.052  0.7545  2.6911  1.0770
  109SOL    HW2  327   2.186   0.624   3.004  0.4450 -0.1753  0.5824
  110SOL     OW  328   0.072   2.322   2.914  0.2670  0.2856  0.1276
  110SOL    HW1  329   0.164   2.341   2.880 -1.1164 -3.9160 -0.7246
  110SOL    HW2  330   0.079   2.319   3.018  0.3763 -0.6916  3.4816
  111SOL     OW  331   2.163   0.223   2.336  0.2258  0.0926  0.0041
  111SOL    HW1  332   2.169   0.323   2.323  0.1807  1.3051  0.6995
  111SOL    HW2  333   2.248   0.176   2.295 -0.5328  0.2840 -1.5417
  112SOL     OW  334   2.416   3.053   0.455 -0.3752  0.0143 -0.1981
  112SOL    HW1  335   2.363   0.006   0.390  0.8515 -1.1398 -1.4007
  112SOL    HW2  336   2.355   2.983   0.501 -1.9397 -0.5722  0.8656
  113SOL     OW  337   2.361   1.807   1.642 -0.1053 -0.1909 -0.0750
  113SOL    HW1  338   2.386   1.842   1.546 -1.4825 -2.9379  0.7144
  113SOL    HW2  339   2.414   1.869   1.707 -0.6579  1.0913  0.7670
  114SOL     OW  340   2.953   0.589   0.782 -0.1017  0.3424 -0.4270
  114SOL    HW1  341   2.960   0.487   0.755 -0.0019 -2.2334  0.3719
  114SOL    HW2  342   3.043   0.629   0.816 -0.9664  2.6340 -1.3761
  115SOL     OW  343   2.788   1.771   0.236  0.2667  0.2218 -0.0273
  115SOL    HW1  344   2.830   1.769   0.331  1.0946  0.6667  6.2525
  115SOL    HW2  345   2.857   1.808   0.170  1.0518 -0.2515  1.4167
  116SOL     OW  346   3.072   1.497   1.970  0.3163 -0.1023  0.0387
  116SOL    HW1  347   2.996   1.449   2.025 -0.9170 -1.4826  3.4900
  116SOL    HW2  348   0.055   1.485   2.017 -0.2733  1.7516 -2.0263
  117SOL     OW  349   2.667   0.060   0.563  0.2272  0.3248  0.3155
  117SOL    HW1  350   2.593   3.094   0.556 -0.0486 -1.4753 -0.3730
  117SOL    HW2  351   2.676   0.113   0.478 -0.0017 -1.5954  0.2293
  118SOL     OW  352   0.513   2.293   1.686 -0.2029 -0.2279 -0.1571
  118SOL    HW1  353   0.582   2.335   1.747  1.4535  3.9623  2.2397
  118SOL    HW2  354   0.500   2.359   1.606 -1.2329 -2.0557 -0.0255
  119SOL     OW  355   1.818   2.197   1.135  0.3127 -0.2371 -0.7722
  119SOL    HW1  356   1.902   2.155   1.167 -2.9712 -2.0279 -0.2244
  119SOL    HW2  357   1.811   2.297   1.154 -0.3674  1.2451 -3.3060
  120SOL     OW  358   0.255   1.790   2.186  0.5618 -0.4531 -0.2370
  120SOL    HW1  359   0.160   1.757   2.206 -0.3945 -0.1795 -2.1905
  120SOL    HW2  360   0.268   1.878   2.239 -0.8933 -0.5203  1.0808
  121SOL     OW  361   2.751   1.539   1.007  0.1478 -0.5171  0.1015
  121SOL    HW1  362   2.691   1.533   1.088  0.5410 -2.1619  1.5026
  121SOL    HW2  363   2.847   1.512   1.035  0.2679 -0.1120  1.3819
  122SOL     OW  364   2.258   1.767   2.249 -0.3811 -0.2758  0.4077
  122SOL    HW1  365   2.172   1.759   2.308 -0.5731 -1.6415  1.7859
  122SOL    HW2  366   2.332   1.764   2.312 -2.0677 -0.3676  1.8225
  123SOL     OW  367   2.815   0.166   0.780  0.1719  0.0077 -0.2503
  123SOL    HW1  368   2.860   0.080   0.820  1.6792 -3.3917 -0.2236
  123SOL    HW2  369   2.749   0.143   0.704 -2.2776  0.9947  1.0250
  124SOL     OW  370   1.384   1.058   2.697 -0.1776  0.1700 -0.3829
  124SOL    HW1  371   1.316   1.123   2.664  2.5335 -0.0565 -0.7809
  124SOL    HW2  372   1.464   1.111   2.730  0.6578 -1.2179 -1.3447
  125SOL     OW  373   0.433   1.432   2.583 -0.1690 -0.7529 -0.0205
  125SOL    HW1  374   0.451   1.421   2.683  0.6385  2.6611  0.3366
  125SOL    HW2  375   0.342   1.403   2.550  0.9369  2.1714 -0.8499
  126SOL     OW  376   2.725   2.190   0.333 -0.0879 -0.2541  0.1654
  126SOL    HW1  377   2.716   2.266   0.401  3.6550 -1.7873  0.3432
  126SOL    HW2  378   2.772   2.108   0.371  0.5518 -0.5252  0.6765
  127SOL     OW  379   0.740   1.745   0.889 -0.6298  0.4760 -0.0264
  127SOL    HW1  380   0.642   1.739   0.917  0.2248 -0.1845 -2.2916
  127SOL    HW2  381   0.755   1.780   0.793  1.3926 -1.6577 -0.6224
  128SOL     OW  382   1.474   0.941   0.134 -0.3217  0.5221  0.8713
  128SOL    HW1  383   1.542   0.874   0.166 -0.5110  0.3080 -2.2286
  128SOL    HW2  384   1.467   0.946   0.035  0.7169 -0.6036  0.0250
  129SOL     OW  385   2.380   1.733   1.216  0.7505 -0.0229  0.9084
  129SOL    HW1  386   2.431   1.749   1.127  0.5026  0.7000 -3.2825
  129SOL    HW2  387   2.394   1.813   1.276  0.4468 -2.2636  0.1017
  130SOL     OW  388   1.790   1.244   0.570  0.0749  0.3018  0.1203
  130SOL    HW1  389   1.839   1.330   0.532  1.0312  1.3168  0.7951
  130SOL    HW2  390   1.770   1.267   0.670 -1.4456  0.2756 -0.0405
  131SOL     OW  391   3.053   1.113   2.499 -0.0395  0.6193 -0.1358
  131SOL    HW1  392   2.963   1.156   2.472 -3.6027 -0.9401 -0.0351
  131SOL    HW2  393   3.085   1.146   2.591  0.6859  0.7872 -1.2263
  132SOL     OW  394   2.107   1.488   1.451  0.2548 -0.1222 -0.4954
  132SOL    HW1  395   2.123   1.552   1.368 -0.6231  2.0517  1.4979
  132SOL    HW2  396   2.201   1.493   1.499 -0.2372 -0.4875 -1.0964
  133SOL     OW  397   0.131   1.473   3.067  0.2340  0.0202 -0.0422
  133SOL    HW1  398   0.129   1.494   2.970  0.8585 -0.6152 -0.9734
  133SOL    HW2  399   0.144   1.374   3.083  1.4513 -0.3612 -0.4443
  134SOL     OW  400   3.001   1.592   0.025 -0.1138 -0.0982  0.2557
  134SOL    HW1  401   3.097   1.555   0.012 -2.2921 -0.4205 -0.4133
  134SOL    HW2  402   3.006   1.694   0.026 -1.7893 -0.0931  1.2628
  135SOL     OW  403   2.409   1.307   0.331 -0.2892  0.1899 -0.5719
  135SOL    HW1  404   2.350   1.369   0.281 -3.4022 -0.4369 -1.7976
  135SOL    HW2  405   2.500   1.345   0.359 -0.5844 -1.0250  0.0077
  136SOL     OW  406   1.905   1.302   1.300  0.1002  0.4120  0.8077
  136SOL    HW1  407   1.963   1.337   1.378 -0.0573 -1.0367 -1.7076
  136SOL    HW2  408   1.817   1.352   1.301  0.5177 -0.6113 -1.4046
  137SOL     OW  409   2.592   2.277   0.756  0.1275 -0.0536  0.3552
  137SOL    HW1  410   2.509   2.221   0.738  1.5947 -0.2840 -2.4982
  137SOL    HW2  411   2.638   2.300   0.668  2.9582  0.4095 -0.6395
  138SOL     OW  412   1.280   0.150   1.689  0.3019  0.3333 -0.6920
  138SOL    HW1  413   1.337   0.065   1.696 -1.5190 -1.0607  0.1668
  138SOL    HW2  414   1.210   0.142   1.761  0.3281  0.7197  1.8521
  139SOL     OW  415   2.633   0.285   2.921  0.4497 -0.4114 -0.0359
  139SOL    HW1  416   2.701   0.346   2.960  1.4314 -0.7516  0.3231
  139SOL    HW2  417   2.637   0.197   2.969  1.1396 -0.8369 -0.0957
  140SOL     OW  418   1.600   2.115   2.594 -0.0969 -0.8472 -0.0594
  140SOL    HW1  419   1.675   2.124   2.523  2.3572 -1.8306 -1.9832
  140SOL    HW2  420   1.578   2.016   2.609 -0.4858  1.3696  0.9336
  141SOL     OW  421   0.701   1.101   1.723 -0.5327  0.2838 -0.8825
  141SOL    HW1  422   0.614   1.063   1.752 -1.7578 -1.2612 -1.3670
  141SOL    HW2  423   0.770   1.020   1.720  0.6136 -1.9202  1.1174
  142SOL     OW  424   2.489   2.868   0.004  0.1247 -0.0463  0.1841
  142SOL    HW1  425   2.395   2.841   0.027  1.0580  0.1032 -0.3892
  142SOL    HW2  426   2.527   2.820   3.029 -1.2445  0.8299  0.4117
  143SOL     OW  427   0.799   2.232   0.032  0.5835  0.5243 -0.0756
  143SOL    HW1  428   0.815   2.272   3.053  1.0681 -1.0619  3.9991
  143SOL    HW2  429   0.702   2.239   0.055  1.4400 -1.4151  0.0482
  144SOL     OW  430   1.054   2.745   0.250  0.2298  0.1542  0.1055
  144SOL    HW1  431   1.101   2.728   0.160 -1.9303  0.0898  1.1017
  144SOL    HW2  432   1.089   2.676   0.319  1.1820 -2.0785  2.6719
  145SOL     OW  433   2.275   1.716   0.102 -0.1574  0.4350 -0.3758
  145SOL    HW1  434   2.363   1.743   0.152 -0.0959 -0.7319 -2.1872
  145SOL    HW2  435   2.220   1.800   0.078  0.2206  1.8204  0.4431
  146SOL     OW  436   2.652   2.765   2.878  0.6019  0.4272  0.0761
  146SOL    HW1  437   2.630   2.855   2.831 -0.0901  2.4329 -2.3988
  146SOL    HW2  438   2.644   2.684   2.812  0.1632 -0.0200 -2.1519
  147SOL     OW  439   2.672   1.997   1.442  0.0853  0.2272 -0.3952
  147SOL    HW1  440   2.708   2.060   1.366  1.1670  0.8159  0.0225
  147SOL    HW2  441   2.705   1.899   1.427  1.1167 -0.9676  2.0926
  148SOL     OW  442   1.926   0.308   0.054 -0.0264  0.9535  0.9233
  148SOL    HW1  443   1.994   0.380   0.067  0.5907 -1.7125 -1.2757
  148SOL    HW2  444   1.836   0.342   0.080  2.8285 -1.7445 -0.2469
  149SOL     OW  445   1.040   1.431   2.755  0.0670  0.4506 -0.2463
  149SOL    HW1  446   1.112   1.400   2.818 -0.5383  0.1198  0.1126
  149SOL    HW2  447   0.964   1.360   2.757  0.3511 -0.5848 -1.1523
  150SOL     OW  448   0.626   2.253   0.710  0.4633 -0.0615 -0.3305
  150SOL    HW1  449   0.692   2.318   0.757 -0.2413 -0.0552  0.9509
  150SOL    HW2  450   0.678   2.173   0.679 -1.9644  0.1774  1.9817
  151SOL     OW  451   0.605   1.732   2.842  0.3744 -0.6384  0.3478
  151SOL    HW1  452   0.656   1.811   2.879  2.0670  0.5750 -1.3034
  151SOL    HW2  453   0.658   1.685   2.767  0.6347 -1.4158 -0.2256
  152SOL     OW  454   2.667   1.422   0.434 -0.5490 -0.4053 -0.0765
  152SOL    HW1  455   2.690   1.445   0.334 -1.3495  1.3347  1.8832
  152SOL    HW2  456   2.743   1.373   0.476  2.0493  2.4040  1.0493
  153SOL     OW  457   2.144   2.586   0.576  0.1065 -0.6678 -0.2308
  153SOL    HW1  458   2.187   2.519   0.513 -1.1351  0.3255 -0.1794
  153SOL    HW2  459   2.042   2.589   0.564  0.3658 -0.6982  1.3014
  154SOL     OW  460   0.515   2.890   0.718 -0.1731  0.3379  0.4916
  154SOL    HW1  461   0.496   2.967   0.656 -3.6105  0.4707  1.7891
  154SOL    HW2  462   0.615   2.874   0.725  0.8684  0.2745 -1.0679
  155SOL     OW  463   0.399   2.158   0.846  0.4884  0.1891 -0.0084
  155SOL    HW1  464   0.491   2.184   0.807 -0.7446 -1.1528  0.0066
  155SOL    HW2  465   0.387   2.207   0.932 -1.0462 -1.0094 -0.1264
  156SOL     OW  466   2.555   2.540   3.080 -0.2873 -0.1991  0.7680
  156SOL    HW1  467   2.600   2.510   2.992  0.9996  0.0108 -2.9563
  156SOL    HW2  468   2.604   2.608   0.026 -1.1915  0.5664 -1.8664
  157SOL     OW  469   0.985   2.059   1.309 -0.1313 -0.0475  0.3533
  157SOL    HW1  470   0.930   2.122   1.366 -2.3141 -2.0526 -0.2332
  157SOL    HW2  471   0.933   1.980   1.278  1.3114  0.4183 -0.3464
  158SOL     OW  472   1.852   0.697   2.966 -0.3543  0.7061 -0.5410
  158SOL    HW1  473   1.869   0.635   2.887  1.6135  0.8960 -1.0080
  158SOL    HW2  474   1.819   0.789   2.932 -1.4365  0.0616 -0.2850
  159SOL     OW  475   0.977   0.451   2.925 -0.5687 -0.6791  0.6623
  159SOL    HW1  476   0.972   0.539   2.978  0.0958  0.5014  2.4870
  159SOL    HW2  477   1.020   0.386   2.985  0.0633 -0.4284  2.6105
  160SOL     OW  478   1.225   1.465   0.051  0.4042  0.1053 -0.1552
  160SOL    HW1  479   1.213   1.546   0.116  0.0745 -1.3956 -1.6313
  160SOL    HW2  480   1.301   1.408   0.084  0.5800 -1.5308 -2.3468
  161SOL     OW  481   0.053   2.059   2.899  0.4060 -0.1431 -0.3028
  161SOL    HW1  482   0.067   2.160   2.881  3.0491  1.1592  0.6038
  161SOL    HW2  483   0.135   2.025   2.946 -0.5681  1.3735 -0.6970
  162SOL     OW  484   0.684   2.658   0.959 -0.4159  0.2353  0.5441
  162SOL    HW1  485   0.699   2.747   0.912 -1.4512  1.5929  2.0158
  162SOL    HW2  486   0.604   2.659   1.018  2.6072 -1.0142 -1.1129
  163SOL     OW  487   2.992   1.116   0.006  0.2686  0.2161  0.2619
  163SOL    HW1  488   2.967   1.047   3.045  0.9215  1.6232  0.1536
  163SOL    HW2  489   2.940   1.097   0.091  1.4557  0.0726  1.0634
  164SOL     OW  490   0.213   3.060   2.839 -0.1293  0.5314 -0.5767
  164SOL    HW1  491   0.164   2.973   2.850 -1.1289  1.2756 -0.0640
  164SOL    HW2  492   0.312   3.045   2.844  2.1841 -0.7420  1.0652
  165SOL     OW  493   1.896   0.335   1.645  0.6423 -0.2862  0.1897
  165SOL    HW1  494   1.933   0.394   1.717  1.7257 -0.9728  1.3581
  165SOL    HW2  495   1.857   0.405   1.575  1.5754  2.2753 -2.6391
  166SOL     OW  496   2.074   0.121   1.345  0.2831  0.2690  0.3732
  166SOL    HW1  497   1.974   0.141   1.348  1.0790  0.3815  2.3754
  166SOL    HW2  498   2.116   0.111   1.441  0.1459 -2.7609  0.2109
  167SOL     OW  499   1.006   0.357   1.853 -0.1894 -0.0758 -0.9401
  167SOL    HW1  500   1.065   0.437   1.866 -0.8030 -2.1260 -1.7305
  167SOL    HW2  501   1.061   0.269   1.860  0.3278 -2.6117 -1.8671
  168SOL     OW  502   2.597   0.547   2.063 -0.3354 -0.4443  0.0102
  168SOL    HW1  503   2.644   0.532   1.974 -1.1550  0.2959 -2.4459
  168SOL    HW2  504   2.519   0.611   2.047  0.2759  0.5688  1.7505
  169SOL     OW  505   0.293   1.462   0.201  0.4002 -0.5255 -0.4618
  169SOL    HW1  506   0.266   1.498   0.109 -1.1889  0.3794  0.4141
  169SOL    HW2  507   0.223   1.396   0.239 -0.5815 -2.7659  2.5665
  170SOL     OW  508   0.296   1.479   1.680  0.0561 -0.4073  0.0910
  170SOL    HW1  509   0.341   1.455   1.770 -0.6551  0.5690  1.3108
  170SOL    HW2  510   0.202   1.510   1.697 -1.2593  1.4582  1.6411
  171SOL     OW  511   1.042   2.320   2.290  0.5427  1.1706  0.0806
  171SOL    HW1  512   0.957   2.339   2.344 -0.3705  3.2050  2.4520
  171SOL    HW2  513   1.051   2.218   2.284 -0.9067 -0.5252 -0.8375
  172SOL     OW  514   0.510   2.506   1.503 -0.2566 -0.2428 -0.4194
  172SOL    HW1  515   0.594   2.564   1.501  1.3912 -1.2642 -4.7709
  172SOL    HW2  516   0.486   2.461   1.413 -0.0097  1.6554 -1.6636
  173SOL     OW  517   1.554   2.428   0.920 -0.0917 -0.1903  0.0517
  173SOL    HW1  518   1.613   2.424   1.004 -0.2035  0.5252 -0.5695
  173SOL    HW2  519   1.500   2.513   0.911  1.1351 -0.7956 -0.9495
  174SOL     OW  520   1.281   3.044   0.314  0.1214 -0.0254 -0.2184
  174SOL    HW1  521   1.301   3.094   0.405 -0.6179  1.9580  0.7165
  174SOL    HW2  522   1.195   2.991   0.324  0.4585  2.3563  3.5436
  175SOL     OW  523   1.004   1.320   0.130 -0.1078  0.8836  0.2204
  175SOL    HW1  524   1.064   1.390   0.092 -0.5702 -1.5847  0.9738
  175SOL    HW2  525   1.054   1.259   0.196  1.8421 -1.5395  1.2449
  176SOL     OW  526   1.757   0.572   0.311  0.6051  0.0776 -0.0483
  176SOL    HW1  527   1.763   0.665   0.352  0.9974  0.1705 -0.0616
  176SOL    HW2  528   1.725   0.575   0.212  1.2705 -2.1165 -1.7621
  177SOL     OW  529   1.275   0.708   1.056 -0.5899  0.3911  0.1957
  177SOL    HW1  530   1.227   0.740   0.966 -1.2710  0.9747 -0.6380
  177SOL    HW2  531   1.325   0.784   1.100 -1.2033 -0.6391 -3.4067
  178SOL     OW  532   2.821   1.560   2.805  0.5439  0.0407  0.2834
  178SOL    HW1  533   2.840   1.521   2.712  2.5989  2.5356 -0.3722
  178SOL    HW2  534   2.871   1.504   2.873 -3.1855  0.7262 -3.8415
  179SOL     OW  535   0.603   2.541   3.022 -0.4450  0.3736  0.0698
  179SOL    HW1  536   0.625   2.604   2.947 -2.3686 -0.0095 -0.1818
  179SOL    HW2  537   0.655   2.557   3.108  0.0964 -0.2980 -3.6418
  180SOL     OW  538   1.820   1.575   1.612  0.1120 -0.5155 -0.5044
  180SOL    HW1  539   1.909   1.580   1.563 -4.2784  1.8881  2.9127
  180SOL    HW2  540   1.777   1.488   1.599  2.9870  2.5381 -0.3781
  181SOL     OW  541   1.256   1.296   2.235  0.1638 -0.1604  0.7464
  181SOL    HW1  542   1.159   1.271   2.211 -1.7293 -0.9744 -0.8890
  181SOL    HW2  543   1.268   1.397   2.229 -1.2968 -0.6239 -1.0473
  182SOL     OW  544   0.242   0.896   2.399  0.1169  0.0229  0.0838
  182SOL    HW1  545   0.259   0.993   2.384  0.6761 -0.0584  3.9120
  182SOL    HW2  546   0.158   0.894   2.458 -2.0001 -0.9042  0.5703
  183SOL     OW  547   1.641   0.297   2.463 -0.3836 -0.4080  0.4378
  183SOL    HW1  548   1.547   0.306   2.425  1.2261 -2.5387 -0.2748
  183SOL    HW2  549   1.647   0.352   2.549  2.3472  1.5858  0.1412
  184SOL     OW  550   3.079   0.521   1.398 -0.0684  0.0867 -0.3674
  184SOL    HW1  551   3.101   0.543   1.300  2.0227  1.3607 -1.5920
  184SOL    HW2  552   3.046   0.427   1.414  0.4181 -2.2230  0.6240
  185SOL     OW  553   2.554   1.763   1.005  0.5619  0.5811 -0.0985
  185SOL    HW1  554   2.552   1.848   0.961 -0.2162 -2.2925  0.7538
  185SOL    HW2  555   2.640   1.714   0.994  0.1795 -1.9123  1.7374
  186SOL     OW  556   0.628   1.885   2.541  0.0116  0.3310 -0.1586
  186SOL    HW1  557   0.645   1.784   2.525  1.3386 -0.5318  1.8467
  186SOL    HW2  558   0.552   1.901   2.615  0.5101 -0.8432  0.1709
  187SOL     OW  559   2.556   2.112   2.951 -0.3454  0.2917  0.5818
  187SOL    HW1  560   2.652   2.132   2.981  0.9226 -0.1096 -0.7666
  187SOL    HW2  561   2.497   2.149   3.026  0.5013 -1.7745  0.6179
  188SOL     OW  562   0.836   2.383   0.427  0.5910 -0.4964 -0.3624
  188SOL    HW1  563   0.855   2.310   0.494 -1.4464  0.6365  0.1514
  188SOL    HW2  564   0.735   2.378   0.393 -1.7812  2.4427  0.6596
  189SOL     OW  565   2.425   0.858   2.996 -0.1021 -0.4894 -0.2052
  189SOL    HW1  566   2.430   0.859   3.101  0.1263 -0.1058 -0.7302
  189SOL    HW2  567   2.329   0.877   2.969  0.4171  0.9441  2.6447
  190SOL     OW  568   1.070   2.000   1.966  0.2885 -0.4662  0.1753
  190SOL    HW1  569   0.980   2.039   1.994 -1.8178  0.9480 -1.4112
  190SOL    HW2  570   1.137   2.071   1.951 -0.7227  0.1852  1.4378
  191SOL     OW  571   2.150   0.685   1.447 -0.3664  0.1728 -0.3048
  191SOL    HW1  572   2.119   0.664   1.544 -0.4563 -4.0574  0.4311
  191SOL    HW2  573   2.075   0.664   1.380  1.5749 -1.2784  1.8057
  192SOL     OW  574   2.103   0.266   1.906 -0.0923  0.4423  0.2582
  192SOL    HW1  575   2.049   0.249   1.992 -1.0517 -0.2051  3.5487
  192SOL    HW2  576   2.135   0.177   1.867 -1.6525 -0.4325  0.0602
  193SOL     OW  577   0.074   0.638   0.904  0.2378  0.7624  0.3234
  193SOL    HW1  578   0.025   0.608   0.991  1.4081  1.1922  1.9668
  193SOL    HW2  579   0.151   0.570   0.887 -0.9767 -0.3809 -1.2227
  194SOL     OW  580   1.774   2.521   1.527 -0.0426  0.1683  0.1083
  194SOL    HW1  581   1.705   2.486   1.460 -1.1181 -0.9658 -0.6746
  194SOL    HW2  582   1.825   2.442   1.558  0.2571  3.8848 -0.0974
  195SOL     OW  583   2.439   0.737   0.737 -0.1918 -0.1875 -0.0010
  195SOL    HW1  584   2.373   0.704   0.665 -0.8626  0.8303 -0.2517
  195SOL    HW2  585   2.490   0.662   0.779 -2.7207 -1.2800  1.3895
  196SOL     OW  586   1.315   2.118   1.935  0.0109 -0.2106 -0.3426
  196SOL    HW1  587   1.350   2.082   2.023 -0.7632 -1.2112  1.0846
  196SOL    HW2  588   1.354   2.063   1.856  0.6862 -0.8898  1.1935
  197SOL     OW  589   0.078   0.152   2.715  0.0881 -0.0988  0.0489
  197SOL    HW1  590   0.132   0.089   2.776 -0.0537  1.4695  0.2001
  197SOL    HW2  591   0.140   0.211   2.660  2.4887  0.2047  0.5662
  198SOL     OW  592   1.149   1.145   0.652 -0.1693  0.0749  0.1823
  198SOL    HW1  593   1.218   1.133   0.724 -1.6921 -0.1004 -0.4512
  198SOL    HW2  594   1.118   1.053   0.618 -2.7295 -2.4712  2.1007
  199SOL     OW  595   2.713   0.955   1.784  0.5006  0.0960  0.1330
  199SOL    HW1  596   2.785   0.894   1.742  0.5418  2.7032  0.9278
  199SOL    HW2  597   2.610   0.935   1.760 -4.1635 -0.8382  0.9836
  200SOL     OW  598   2.217   2.779   2.267 -0.1656 -0.0051  0.1009
  200SOL    HW1  599   2.230   2.876   2.241 -2.1897 -2.6236 -0.3551
  200SOL    HW2  600   2.142   2.744   2.209  0.9518  0.4330  2.7696
  201SOL     OW  601   2.588   0.328   1.651 -0.4584 -0.5611 -0.5744
  201SOL    HW1  602   2.644   0.248   1.687 -0.6780 -0.6249  0.1287
  201SOL    HW2  603   2.531   0.292   1.575 -2.3663 -0.4110  0.6637
  202SOL     OW  604   2.228   0.082   0.305 -0.4931  0.0578 -0.1582
  202SOL    HW1  605   2.191   0.168   0.349  0.8142  0.4718  3.2926
  202SOL    HW2  606   2.241   0.101   0.209 -0.1710 -1.3396  1.3219
  203SOL     OW  607   1.248   2.079   2.398  0.1624  0.2832  0.5173
  203SOL    HW1  608   1.161   2.088   2.350 -0.8953 -3.0701  0.4405
  203SOL    HW2  609   1.270   2.160   2.457 -0.9457  0.1982  0.5571
  204SOL     OW  610   0.980   1.589   2.546  0.2436  0.6427 -0.0779
  204SOL    HW1  611   0.988   1.530   2.633  0.4569 -1.4663  0.7131
  204SOL    HW2  612   1.008   1.534   2.465 -0.3366 -0.5792  0.3138
  205SOL     OW  613   1.011   1.566   1.494 -0.1791  0.3339 -0.1155
  205SOL    HW1  614   1.038   1.568   1.394  2.5204  2.3739 -1.3225
  205SOL    HW2  615   1.084   1.512   1.542 -0.6330 -1.6457  1.1519
  206SOL     OW  616   0.377   0.456   2.739  0.0850 -0.2220  0.1345
  206SOL    HW1  617   0.311   0.448   2.660  0.4392  0.3261  0.5512
  206SOL    HW2  618   0.378   0.376   2.802 -2.4981  0.8638  0.6329
  207SOL     OW  619   1.687   2.512   2.397  0.3142 -0.5477 -0.4484
  207SOL    HW1  620   1.782   2.484   2.418 -3.4087  0.7022  0.7501
  207SOL    HW2  621   1.679   2.562   2.307 -0.6780  0.8100  3.4539
  208SOL     OW  622   0.769   2.394   1.237 -0.3297  0.3327 -0.1554
  208SOL    HW1  623   0.835   2.468   1.270  0.9597  1.0802 -0.3125
  208SOL    HW2  624   0.799   2.342   1.157 -0.7199  0.1014 -1.4326
  209SOL     OW  625   1.260   1.254   2.551  0.1571 -0.4206  0.0957
  209SOL    HW1  626   1.274   1.243   2.450  1.7821 -0.4560  0.6952
  209SOL    HW2  627   1.160   1.237   2.577  0.5393  0.6167  3.0615
  210SOL     OW  628   1.857   1.047   0.989  0.1979 -0.4998 -0.3993
  210SOL    HW1  629   1.875   1.019   1.087 -0.8887  2.7442  1.1335
  210SOL    HW2  630   1.793   0.989   0.942 -1.3944  0.7523  1.2405
  211SOL     OW  631   0.831   2.677   0.479 -0.5183 -0.1217  0.0467
  211SOL    HW1  632   0.840   2.581   0.462  0.7890  0.1302  1.8574
  211SOL    HW2  633   0.921   2.719   0.497  2.4068  2.9367  0.8090
  212SOL     OW  634   1.911   1.844   0.283  0.1263  0.3271  0.6487
  212SOL    HW1  635   1.812   1.838   0.305  2.0034 -1.7756  0.0624
  212SOL    HW2  636   1.957   1.885   0.366  0.4664  1.5239 -1.2647
  213SOL     OW  637   1.721   0.269   2.892  0.1011  0.2768 -0.2880
  213SOL    HW1  638   1.750   0.335   2.968  1.6811 -2.0965  3.1940
  213SOL    HW2  639   1.785   0.191   2.890 -0.2613  2.4166  1.0654
  214SOL     OW  640   1.188   1.835   2.165 -0.4182 -0.2987 -0.0730
  214SOL    HW1  641   1.143   1.880   2.081  1.3270 -1.5168 -0.7436
  214SOL    HW2  642   1.128   1.834   2.246  0.4370 -0.4562 -0.8641
  215SOL     OW  643   0.817   1.854   0.362  0.2457  0.8066 -0.2065
  215SOL    HW1  644   0.830   1.899   0.273 -0.0750  0.6116  2.8010
  215SOL    HW2  645   0.752   1.776   0.339 -0.4256  1.9335 -1.2440
  216SOL     OW  646   0.205   2.755   2.528  0.3825  0.3516 -0.9708
  216SOL    HW1  647   0.138   2.681   2.553 -1.4475 -2.2791  0.1227
  216SOL    HW2  648   0.236   2.762   2.432  1.2686  1.4006 -2.9202
  217SOL     OW  649   2.319   0.861   0.945  0.2742 -0.1323  0.3864
  217SOL    HW1  650   2.374   0.840   0.861 -1.4697  1.2239  0.5221
  217SOL    HW2  651   2.308   0.776   1.000  1.2924  1.1007 -2.7326
  218SOL     OW  652   2.130   1.659   1.970  0.8444  0.2149  0.0290
  218SOL    HW1  653   2.078   1.707   2.047 -0.2827 -0.0626  1.4952
  218SOL    HW2  654   2.186   1.581   2.009 -0.5466  1.1724  3.7054
  219SOL     OW  655   1.944   1.576   0.229 -0.8158 -0.1294 -0.1798
  219SOL    HW1  656   1.919   1.553   0.133  0.3466 -1.4488  1.6079
  219SOL    HW2  657   1.931   1.676   0.243 -1.3278 -3.5101  1.9741
  220SOL     OW  658   1.596   1.039   0.523 -0.0965 -0.0070 -0.0758
  220SOL    HW1  659   1.509   1.082   0.493  1.0609  1.3912 -0.1418
  220SOL    HW2  660   1.679   1.099   0.513  2.7493  2.0024 -0.1202
  221SOL     OW  661   0.597   0.608   2.769  0.1681 -0.1866  0.2454
  221SOL    HW1  662   0.608   0.649   2.861 -0.6611  0.0493 -0.1810
  221SOL    HW2  663   0.515   0.545   2.761 -3.9088  1.8279 -1.1060
  222SOL     OW  664   1.415   1.307   0.168 -0.3456  0.5202 -0.0578
  222SOL    HW1  665   1.482   1.345   0.231  0.7394  1.5555 -4.2031
  222SOL    HW2  666   1.329   1.281   0.223  0.1901 -1.5856 -0.8869
  223SOL     OW  667   1.241   0.127   0.124  0.2854  0.5903 -0.0109
  223SOL    HW1  668   1.281   0.052   0.180  0.6674  0.4963  0.5894
  223SOL    HW2  669   1.252   0.215   0.177  0.2407  0.6155  0.5670
  224SOL     OW  670   2.146   0.109   1.604  0.2080  0.0964  0.5826
  224SOL    HW1  671   2.077   0.181   1.626  1.2176  1.5252  1.4361
  224SOL    HW2  672   2.192   0.085   1.692  0.3607 -0.0438  1.8202
  225SOL     OW  673   0.305   3.049   1.157  0.5189  0.7256 -0.0010
  225SOL    HW1  674   0.218   3.102   1.140 -1.8291  1.0711 -0.2164
  225SOL    HW2  675   0.363   3.052   1.072 -0.3397  1.5941  1.6200
  226SOL     OW  676   1.244   1.374   2.922  0.5141 -0.2626 -0.6517
  226SOL    HW1  677   1.339   1.397   2.895 -5.4814  0.8144 -0.3180
  226SOL    HW2  678   1.227   1.409   3.017  0.4361 -1.4008  2.5446
  227SOL     OW  679   1.163   1.613   0.923 -0.0502  0.2325  0.5708
  227SOL    HW1  680   1.237   1.667   0.885 -1.4530 -0.1309  1.4391
  227SOL    HW2  681   1.199   1.522   0.949 -0.2414  2.0537 -0.3654
  228SOL     OW  682   0.511   1.675   0.659  0.1687  0.3068  0.1633
  228SOL    HW1  683   0.538   1.592   0.603 -2.0991 -1.0237 -1.1060
  228SOL    HW2  684   0.436   1.651   0.726 -0.6163 -1.0723  2.3783
  229SOL     OW  685   1.448   0.413   3.061 -0.4950 -0.0678 -0.5087
  229SOL    HW1  686   1.431   0.510   3.034 -0.7355 -1.8091  1.0074
  229SOL    HW2  687   1.423   0.351   2.982 -1.0297 -1.9697 -1.4275
  230SOL     OW  688   1.598   0.659   2.577  0.0318  0.0982 -0.0141
  230SOL    HW1  689   1.647   0.574   2.613  1.1629  1.0914  2.0149
  230SOL    HW2  690   1.663   0.740   2.577  1.6628  2.7657  2.5633
  231SOL     OW  691   1.239   1.877   2.619  0.3404 -0.1926  0.8985
  231SOL    HW1  692   1.174   1.922   2.685 -2.4385 -0.7387  0.2906
  231SOL    HW2  693   1.246   1.932   2.531  3.2534  1.3356 -2.5528
  232SOL     OW  694   2.368   2.118   0.724 -0.0229  0.1935  0.1858
  232SOL    HW1  695   2.302   2.183   0.769  0.1424  1.4930 -0.7418
  232SOL    HW2  696   2.340   2.088   0.632  2.6308 -1.4722  1.0100
  233SOL     OW  697   2.584   2.925   0.257  0.1968  0.0689 -0.0746
  233SOL    HW1  698   2.537   2.904   0.170 -2.2426 -0.5037  0.2141
  233SOL    HW2  699   2.522   2.982   0.320  1.8472  0.0419 -0.5008
  234SOL     OW  700   0.851   0.521   2.687  0.0010 -0.0702 -0.1860
  234SOL    HW1  701   0.754   0.551   2.708 -1.5385  0.2525 -0.1240
  234SOL    HW2  702   0.905   0.535   2.774 -0.2170 -1.5047 -0.3700
  235SOL     OW  703   2.771   0.335   2.627 -0.3202 -0.1262 -0.5943
  235SOL    HW1  704   2.695   0.294   2.574  2.1950 -1.0463  1.6766
  235SOL    HW2  705   2.741   0.426   2.666 -0.6974 -1.1589  1.4740
  236SOL     OW  706   2.089   2.687   1.761 -0.5305 -0.2038 -0.4486
  236SOL    HW1  707   1.996   2.661   1.773  0.6643  1.6175 -1.2628
  236SOL    HW2  708   2.114   2.750   1.836  1.1654  2.3411 -2.9382
  237SOL     OW  709   0.644   1.544   2.132 -0.1849 -0.0411 -0.1784
  237SOL    HW1  710   0.670   1.624   2.195  0.1029  1.3665  0.0302
  237SOL    HW2  711   0.653   1.454   2.182  1.1781 -1.4862 -2.0467
  238SOL     OW  712   1.516   0.137   2.788  0.0748  0.5856  0.3760
  238SOL    HW1  713   1.580   0.198   2.841  0.3481  2.5772 -0.0473
  238SOL    HW2  714   1.568   0.085   2.721  1.2164 -2.6722  1.3955
  239SOL     OW  715   0.255   2.192   1.602 -0.1435  0.4048  0.1763
  239SOL    HW1  716   0.259   2.255   1.683 -0.3572 -0.7114  0.7405
  239SOL    HW2  717   0.309   2.107   1.616 -2.1871 -0.4796  0.9424
  240SOL     OW  718   2.876   2.373   0.871 -0.8882  0.3744  0.0290
  240SOL    HW1  719   2.874   2.442   0.794  0.7176  1.9293 -1.3316
  240SOL    HW2  720   2.859   2.417   0.963  2.1078 -5.6883 -1.7972
  241SOL     OW  721   2.462   1.101   0.748 -0.1490 -0.0185 -0.0392
  241SOL    HW1  722   2.410   1.062   0.829 -0.3097  2.3710 -2.7648
  241SOL    HW2  723   2.399   1.166   0.696  0.8652 -0.6794 -2.4539
  242SOL     OW  724   2.083   2.105   2.433 -0.0953 -0.2716 -0.4992
  242SOL    HW1  725   2.053   2.101   2.335  1.9168 -1.9376  2.2897
  242SOL    HW2  726   2.179   2.077   2.440  0.2006 -1.5653 -1.1880
  243SOL     OW  727   0.722   2.687   1.530  0.2097  0.0859 -0.0978
  243SOL    HW1  728   0.712   2.763   1.470 -1.4761 -1.0622 -1.0216
  243SOL    HW2  729   0.786   2.615   1.496 -0.1894  2.6465  0.4218
  244SOL     OW  730   2.157   3.025   2.972  0.0545 -0.0103 -0.1773
  244SOL    HW1  731   2.167   3.043   2.873  0.6341  2.1586  3.7490
  244SOL    HW2  732   2.131   2.929   2.988  0.2415  1.8325 -0.4068
  245SOL     OW  733   1.344   3.003   1.305  0.3397 -0.3753  0.5602
  245SOL    HW1  734   1.304   2.965   1.219  0.3422 -2.8752  2.6464
  245SOL    HW2  735   1.297   2.965   1.390 -1.0287 -1.3488  2.3375
  246SOL     OW  736   1.698   2.493   0.356 -0.5615  0.3868 -0.2888
  246SOL    HW1  737   1.690   2.397   0.317 -1.3580 -3.4597  1.8785
  246SOL    HW2  738   1.752   2.556   0.296 -0.0164  0.9525 -0.2147
  247SOL     OW  739   1.381   0.350   2.397 -0.7530  0.3156  0.1997
  247SOL    HW1  740   1.324   0.428   2.369 -1.3958 -3.5456  0.8412
  247SOL    HW2  741   1.361   0.325   2.491  1.7465  1.8610 -1.1129
  248SOL     OW  742   0.501   1.947   1.905 -0.3057  0.0949 -0.2079
  248SOL    HW1  743   0.422   1.965   1.846  2.3223 -2.6080 -0.8202
  248SOL    HW2  744   0.516   1.846   1.903 -2.1624  1.3738 -0.7066
  249SOL     OW  745   2.139   0.341   0.412 -0.0863  0.0242  0.4557
  249SOL    HW1  746   2.148   0.409   0.339 -0.9214 -1.0657  0.4940
  249SOL    HW2  747   2.076   0.373   0.486 -2.1253 -2.2389  0.7166
  250SOL     OW  748   0.236   0.543   0.532 -0.0276  0.6497  0.4612
  250SOL    HW1  749   0.298   0.623   0.525  1.2162 -0.5758 -1.7105
  250SOL    HW2  750   0.141   0.571   0.499 -0.2161  0.0357 -0.2013
  251SOL     OW  751   1.420   0.664   2.952  0.5235 -0.6062  0.1046
  251SOL    HW1  752   1.461   0.758   2.936 -0.1022 -1.4959 -1.0430
  251SOL    HW2  753   1.390   0.626   2.860 -0.5372  0.6136  0.4695
  252SOL     OW  754   1.691   1.756   2.022  0.3145 -0.2468 -0.3094
  252SOL    HW1  755   1.763   1.740   1.952 -3.2888  1.5697  2.2839
  252SOL    HW2  756   1.609   1.696   2.007 -3.6166 -0.0269  0.6360
  253SOL     OW  757   2.562   2.410   1.675 -0.4063  0.0589  0.0534
  253SOL    HW1  758   2.514   2.375   1.759 -0.4070  0.2007 -3.1559
  253SOL    HW2  759   2.602   2.333   1.626 -0.0213 -1.4147  1.5067
  254SOL     OW  760   2.812   1.226   1.144  0.1658 -0.4157  0.0284
  254SOL    HW1  761   2.857   1.242   1.232 -1.2789  0.6408  1.2511
  254SOL    HW2  762   2.889   1.212   1.081  0.9711 -1.6788 -0.6267
  255SOL     OW  763   0.950   0.534   1.141 -0.2372  0.3578  0.2182
  255SOL    HW1  764   0.882   0.535   1.215  2.1004 -1.8903 -0.0566
  255SOL    HW2  765   1.042   0.540   1.186 -1.3395  0.5682 -1.4206
  256SOL     OW  766   1.913   2.295   1.598  0.0870  0.7827  0.0708
  256SOL    HW1  767   2.014   2.283   1.621  2.8094 -2.0263  1.2524
  256SOL    HW2  768   1.857   2.213   1.595 -1.1198  2.9398 -0.9459
  257SOL     OW  769   0.683   2.916   2.528 -0.1820  0.3007 -0.3450
  257SOL    HW1  770   0.773   2.941   2.573 -0.0750  2.3646  3.7573
  257SOL    HW2  771   0.691   2.893   2.429 -0.6016 -1.9784 -0.2502
  258SOL     OW  772   0.991   2.356   0.167  0.5128 -0.1349  0.2153
  258SOL    HW1  773   0.914   2.309   0.117  0.1744 -1.7871 -1.4841
  258SOL    HW2  774   0.973   2.375   0.266  0.3089 -2.1681  0.0676
  259SOL     OW  775   1.156   3.012   2.621  0.7453  0.3708  0.2660
  259SOL    HW1  776   1.217   2.937   2.656 -2.1522 -0.6542  1.1402
  259SOL    HW2  777   1.167   3.031   2.523 -0.0964 -0.7737  0.2864
  260SOL     OW  778   1.702   0.633   1.271 -0.5002  0.3465  0.0552
  260SOL    HW1  779   1.606   0.660   1.282  0.9928 -1.8061 -0.4353
  260SOL    HW2  780   1.703   0.543   1.225  1.0061  1.6951 -0.5593
  261SOL     OW  781   0.554   0.290   2.470  0.1776 -0.1308 -0.9135
  261SOL    HW1  782   0.469   0.317   2.429  2.3828 -1.1433 -1.4230
  261SOL    HW2  783   0.623   0.362   2.456 -3.4817 -0.7759 -2.8492
  262SOL     OW  784   0.216   2.063   2.024  0.1555  0.2798  0.0158
  262SOL    HW1  785   0.252   2.071   2.117 -0.8210  1.1014  0.0826
  262SOL    HW2  786   0.254   2.137   1.964  0.8812 -0.1385  1.2338
  263SOL     OW  787   2.501   1.289   2.346 -0.1936 -0.5603 -0.2596
  263SOL    HW1  788   2.430   1.213   2.346  0.5126  0.2548 -0.8138
  263SOL    HW2  789   2.529   1.310   2.440  0.3688 -1.3168  0.9778
  264SOL     OW  790   0.946   1.126   0.875  0.3393  0.4888  0.1741
  264SOL    HW1  791   0.870   1.094   0.818  2.5195 -0.3362  3.6033
  264SOL    HW2  792   1.035   1.090   0.841  0.7013 -1.3540 -1.0127
  265SOL     OW  793   1.229   2.461   1.109 -0.0676 -0.4115  0.1022
  265SOL    HW1  794   1.222   2.378   1.167 -1.8306  1.3375 -1.2109
  265SOL    HW2  795   1.302   2.522   1.143 -0.9723  1.0638 -0.2418
  266SOL     OW  796   1.585   1.135   1.133 -0.4231  0.4483  0.1581
  266SOL    HW1  797   1.679   1.102   1.161 -0.1875 -1.5776  0.7925
  266SOL    HW2  798   1.586   1.168   1.034 -0.1541  1.3138 -3.5480
  267SOL     OW  799   2.540   1.140   0.022 -0.4116 -0.0282  0.6341
  267SOL    HW1  800   2.590   1.125   3.045  0.3843 -1.9117  1.8117
  267SOL    HW2  801   2.537   1.054   0.077  1.9152 -0.7623 -0.0676
  268SOL     OW  802   1.300   0.443   0.182 -0.0916 -0.0414  0.3343
  268SOL    HW1  803   1.379   0.469   0.241  1.9719  0.4273  2.2910
  268SOL    HW2  804   1.338   0.425   0.088  3.2100  1.0732  1.3111
  269SOL     OW  805   2.670   0.558   2.734  0.0784  0.5206 -0.5841
  269SOL    HW1  806   2.682   0.655   2.764  0.3771  0.0975 -0.9034
  269SOL    HW2  807   2.585   0.515   2.769  2.1439  0.6052  0.3618
  270SOL     OW  808   0.229   0.934   2.866  1.0153  0.4020  0.3076
  270SOL    HW1  809   0.315   0.918   2.806  1.4552 -0.5353 -0.4243
  270SOL    HW2  810   0.256   0.974   2.955  0.0223 -0.2825 -1.2291
  271SOL     OW  811   2.925   1.042   0.270  0.0104 -0.3404 -0.7307
  271SOL    HW1  812   2.833   1.011   0.302  0.3444 -0.2082  1.3690
  271SOL    HW2  813   2.952   1.121   0.323 -2.7542  1.8683 -1.3716
  272SOL     OW  814   2.777   2.616   2.495  0.1613 -0.4539  0.0103
  272SOL    HW1  815   2.844   2.682   2.539 -1.3766 -1.4163 -0.8509
  272SOL    HW2  816   2.816   2.522   2.503  0.1319  1.1502  1.6813
  273SOL     OW  817   2.896   3.050   2.691  0.3248  0.3124  0.0280
  273SOL    HW1  818   2.915   0.016   2.622 -0.4129 -0.9481 -2.4168
  273SOL    HW2  819   2.932   3.069   2.782 -0.8639  1.4624 -1.1471
  274SOL     OW  820   0.783   2.423   0.832 -0.1556 -0.3072 -0.0519
  274SOL    HW1  821   0.741   2.507   0.875  2.6854 -2.4313 -0.3593
  274SOL    HW2  822   0.873   2.447   0.799 -1.7103 -0.1025 -1.7846
  275SOL     OW  823   2.342   1.026   0.382 -0.0639 -0.6772 -0.6613
  275SOL    HW1  824   2.353   1.127   0.374  0.1248  0.0549  1.9399
  275SOL    HW2  825   2.410   0.988   0.451 -2.7912 -1.1308  2.5668
  276SOL     OW  826   2.859   1.149   1.741 -0.0094  0.1709  0.4705
  276SOL    HW1  827   2.795   1.074   1.759  2.5627  2.2507  2.8640
  276SOL    HW2  828   2.814   1.237   1.761 -1.8921  1.3545  1.8996
  277SOL     OW  829   2.104   0.046   1.074  0.0788 -0.1050  0.2778
  277SOL    HW1  830   2.107   0.081   1.167 -0.3724  0.1380 -0.3629
  277SOL    HW2  831   2.184   3.096   1.055 -0.6787  2.0081 -0.1400
  278SOL     OW  832   1.634   2.561   2.670  0.0721  0.1090  0.2512
  278SOL    HW1  833   1.634   2.526   2.574  0.5929 -0.3132 -1.3470
  278SOL    HW2  834   1.552   2.522   2.717  0.6206 -0.6522  1.3112
  279SOL     OW  835   1.602   2.081   1.226 -0.2018 -0.2640  0.2114
  279SOL    HW1  836   1.616   1.986   1.257 -0.1797  3.0831 -3.7514
  279SOL    HW2  837   1.691   2.120   1.188 -0.4232  0.5610 -0.8595
  280SOL     OW  838   0.328   1.373   0.957  0.5411 -1.2139  0.1393
  280SOL    HW1  839   0.298   1.465   0.917  3.6409  3.0403  1.3516
  280SOL    HW2  840   0.328   1.381   1.062  0.0119 -0.3702  1.1468
  281SOL     OW  841   2.785   1.202   2.460  0.0241  0.0839 -0.2057
  281SOL    HW1  842   2.715   1.160   2.522  3.5505  0.4276 -1.3802
  281SOL    HW2  843   2.761   1.190   2.365 -2.5850 -1.7951  0.5530
  282SOL     OW  844   0.514   1.470   0.005  0.4465  0.5148 -0.0103
  282SOL    HW1  845   0.456   1.466   0.088 -1.9072 -1.2972 -0.6452
  282SOL    HW2  846   0.606   1.513   0.027  0.3466  0.1526 -1.0321
  283SOL     OW  847   2.318   2.564   0.141  0.0184  0.2125  0.3511
  283SOL    HW1  848   2.287   2.662   0.139  1.0297  0.4850  0.5194
  283SOL    HW2  849   2.386   2.543   0.068  0.5058 -0.8895 -1.0762
  284SOL     OW  850   0.935   0.084   0.749 -0.2544  0.1625 -0.4544
  284SOL    HW1  851   0.966   3.099   0.768 -0.9222  2.2269  0.9368
  284SOL    HW2  852   0.864   0.085   0.682  2.7841  2.1458 -0.3084
  285SOL     OW  853   2.304   1.136   2.669 -0.0082 -0.0118 -0.0955
  285SOL    HW1  854   2.341   1.045   2.697 -0.9364 -1.5643  0.6139
  285SOL    HW2  855   2.207   1.138   2.698 -0.0278  1.7056 -0.5935
  286SOL     OW  856   1.971   2.639   0.971 -0.4472  0.2119 -0.3451
  286SOL    HW1  857   1.985   2.694   1.058  1.0445 -0.0290  1.5198
  286SOL    HW2  858   2.061   2.633   0.925 -1.2984  0.9082  2.0631
  287SOL     OW  859   1.158   0.291   0.775 -0.3860  0.0490  0.3968
  287SOL    HW1  860   1.140   0.280   0.676  0.7917  0.8838  2.1022
  287SOL    HW2  861   1.079   0.327   0.830 -0.0839  1.3915  0.0282
  288SOL     OW  862   0.845   2.390   2.934  0.0594 -0.0031 -0.1613
  288SOL    HW1  863   0.780   2.468   2.928  1.8116  0.6844  1.9462
  288SOL    HW2  864   0.932   2.419   2.977 -1.3292 -1.4331  1.0741
  289SOL     OW  865   3.024   1.440   0.986 -0.2186  0.1496 -0.0934
  289SOL    HW1  866   3.062   1.507   0.926  0.5820 -2.4232  0.8950
  289SOL    HW2  867   3.090   1.434   1.066 -1.2012 -3.0161  0.2566
  290SOL     OW  868   1.417   2.010   1.029  0.4471  0.0768 -0.0150
  290SOL    HW1  869   1.499   2.025   1.090  0.9159  0.2280  0.7338
  290SOL    HW2  870   1.399   2.090   0.969 -1.5768 -1.2475  1.0922
  291SOL     OW  871   1.498   2.968   0.172  0.3321  0.4065  0.1319
  291SOL    HW1  872   1.404   2.975   0.214 -4.4036 -1.4467  1.7570
  291SOL    HW2  873   1.494   2.929   0.080 -2.0341  1.2470  1.3868
  292SOL     OW  874   0.395   0.318   1.851  0.3876  0.5823  0.4978
  292SOL    HW1  875   0.437   0.365   1.931 -2.7121 -0.3246  0.9014
  292SOL    HW2  876   0.463   0.257   1.801 -1.8344 -1.1173  0.7657
  293SOL     OW  877   2.416   1.930   1.415 -0.2828  0.3251 -0.2749
  293SOL    HW1  878   2.517   1.955   1.420  0.6842 -0.6812  1.0234
  293SOL    HW2  879   2.365   1.999   1.365 -0.1222  0.6612  0.0363
  294SOL     OW  880   0.939   0.133   2.393  0.7517 -0.4698 -0.5564
  294SOL    HW1  881   0.951   0.219   2.438 -2.0535  2.7362 -1.5036
  294SOL    HW2  882   0.842   0.123   2.359  0.7151  0.7257 -0.0179
  295SOL     OW  883   1.700   1.623   1.115 -0.4809  0.0093  0.2425
  295SOL    HW1  884   1.684   1.557   1.189 -1.7781  1.5140 -4.8510
  295SOL    HW2  885   1.728   1.710   1.156 -0.7310  0.1642 -0.0747
  296SOL     OW  886   2.514   1.804   0.243 -0.2813  0.1796  0.5077
  296SOL    HW1  887   2.489   1.901   0.239  1.8441 -0.4182  1.1095
  296SOL    HW2  888   2.616   1.784   0.235  1.3615 -2.9307  1.8846
  297SOL     OW  889   2.615   0.190   0.316  0.1434  0.7422  0.2812
  297SOL    HW1  890   2.595   0.113   0.261 -0.6144  0.6845  0.8287
  297SOL    HW2  891   2.687   0.251   0.273 -0.6389 -2.2117 -1.3763
  298SOL     OW  892   0.914   0.009   2.901  0.0310  0.6115  0.3228
  298SOL    HW1  893   0.950   0.023   2.995  2.2263 -0.6613 -1.2031
  298SOL    HW2  894   0.840   0.070   2.875  0.2340 -1.6586 -0.6285
  299SOL     OW  895   0.767   2.149   2.196 -0.3895 -0.3666  0.2433
  299SOL    HW1  896   0.743   2.119   2.103  0.1828 -0.6316 -0.9620
  299SOL    HW2  897   0.687   2.121   2.254  1.4664  0.3256  1.9992
  300SOL     OW  898   2.750   3.011   2.267  0.4140  0.1296  0.6345
  300SOL    HW1  899   2.821   3.086   2.278  5.5123  2.6171 -1.0822
  300SOL    HW2  900   2.774   2.939   2.200 -1.6733 -1.1469  2.1980
  301SOL     OW  901   1.092   0.823   1.842  0.5006  0.3901 -0.2084
  301SOL    HW1  902   1.150   0.762   1.787  1.6396  0.0834  1.2993
  301SOL    HW2  903   1.146   0.880   1.901 -0.7621 -1.9516  0.4077
  302SOL     OW  904   0.110   2.108   0.262  0.2984 -0.1564 -0.1662
  302SOL    HW1  905   0.169   2.164   0.316 -0.7226 -1.9234 -2.0328
  302SOL    HW2  906   0.047   2.062   0.334 -4.3648  0.0679  4.6843
  303SOL     OW  907   2.461   2.763   1.574  0.3856  0.2321  0.2274
  303SOL    HW1  908   2.497   2.683   1.524  1.7121 -1.7046  2.5621
  303SOL    HW2  909   2.525   2.789   1.645  0.1271 -0.3656 -1.1477
  304SOL     OW  910   2.858   0.768   1.638  0.3636 -0.0678  0.2885
  304SOL    HW1  911   2.800   0.688   1.615 -0.5027  1.6732  1.3248
  304SOL    HW2  912   2.953   0.760   1.615 -4.6854  2.4210  0.0762
  305SOL     OW  913   0.798   1.848   1.189  0.6988 -1.1162 -0.4907
  305SOL    HW1  914   0.746   1.916   1.137  0.0330 -0.1868  2.3628
  305SOL    HW2  915   0.734   1.796   1.247 -0.1193 -0.7767 -0.7580
  306SOL     OW  916   0.542   1.178   2.125 -0.0214  0.5900 -0.3412
  306SOL    HW1  917   0.483   1.232   2.059 -0.6896 -1.7637 -0.8488
  306SOL    HW2  918   0.607   1.239   2.170  0.1953 -0.8165  1.2065
  307SOL     OW  919   0.776   0.371   1.697  0.0841  0.0723 -0.4342
  307SOL    HW1  920   0.864   0.369   1.750  0.6258 -2.8910  1.2579
  307SOL    HW2  921   0.804   0.329   1.609 -2.4707 -1.0469  1.4800
  308SOL     OW  922   3.008   0.982   1.070 -0.2746 -0.6997 -0.2755
  308SOL    HW1  923   3.005   0.912   1.143  1.3620  1.4273 -1.9157
  308SOL    HW2  924   2.930   0.965   1.003 -1.3742  2.4382  1.1980
  309SOL     OW  925   2.620   1.057   1.257 -0.0550 -0.4167  0.1706
  309SOL    HW1  926   2.619   1.101   1.350  0.7868  0.2720  1.4677
  309SOL    HW2  927   2.670   1.125   1.193 -1.4305 -0.3236  1.2681
  310SOL     OW  928   0.001   2.005   2.445  0.0053  0.1848  0.7310
  310SOL    HW1  929   3.037   2.029   2.515 -1.8258  2.9682  1.9582
  310SOL    HW2  930   0.096   2.014   2.487  1.4963 -2.4327  1.7980
  311SOL     OW  931   2.776   2.549   2.231 -0.5389 -0.2668 -0.1897
  311SOL    HW1  932   2.842   2.576   2.158  0.1932 -1.4918 -1.1188
  311SOL    HW2  933   2.805   2.578   2.325 -2.5596  0.7605  3.6264
  312SOL     OW  934   2.113   2.148   3.080 -0.2652  0.3435  0.2390
  312SOL    HW1  935   2.028   2.204   3.101 -0.3015  1.4251  0.3638
  312SOL    HW2  936   2.090   2.048   3.074  1.0903  1.6711  1.8110
  313SOL     OW  937   2.947   3.013   0.616  0.3864 -0.0290 -0.2675
  313SOL    HW1  938   2.891   3.072   0.551  2.9236  0.3344  0.6487
  313SOL    HW2  939   3.025   2.971   0.573 -0.3570  1.3208 -1.0224
  314SOL     OW  940   1.792   1.172   2.982 -0.4953 -0.1476 -0.0913
  314SOL    HW1  941   1.738   1.160   3.067 -0.1740 -1.0318 -1.9196
  314SOL    HW2  942   1.886   1.214   2.999 -3.5231  0.4108 -0.8602
  315SOL     OW  943   1.408   2.914   2.447  0.0278 -0.1520 -0.4252
  315SOL    HW1  944   1.481   2.932   2.373  3.9476 -1.3365 -2.9881
  315SOL    HW2  945   1.455   2.870   2.524 -1.6404  0.0174 -1.2244
  316SOL     OW  946   3.046   1.563   0.304 -0.8867 -0.0861  0.0776
  316SOL    HW1  947   3.072   1.469   0.327  0.2576  0.6187  0.5229
  316SOL    HW2  948   3.012   1.572   0.210 -1.3309 -2.4309  1.3598
  317SOL     OW  949   0.517   2.805   3.061 -0.4712 -0.3902 -0.1275
  317SOL    HW1  950   0.538   2.873   2.991 -2.9116 -1.3629  1.7467
  317SOL    HW2  951   0.580   2.730   3.056 -1.0379  0.9278  1.7975
  318SOL     OW  952   2.495   2.413   0.971  0.7796  0.0194 -0.2394
  318SOL    HW1  953   2.548   2.356   0.903  1.0996 -0.3866  2.3610
  318SOL    HW2  954   2.396   2.402   0.945  1.9733 -1.0370 -0.0211
  319SOL     OW  955   1.171   2.040   2.979 -0.3481  0.3723 -0.0266
  319SOL    HW1  956   1.108   2.021   2.901  1.1374 -2.0955  1.9672
  319SOL    HW2  957   1.137   1.991   3.065 -1.9911  0.7827  1.4713
  320SOL     OW  958   0.624   2.058   1.106 -1.0128  0.2510  0.0563
  320SOL    HW1  959   0.685   2.142   1.097 -0.4609  0.8018 -1.5119
  320SOL    HW2  960   0.545   2.072   1.161  0.4642 -1.7574 -1.7811
  321SOL     OW  961   1.270   2.765   2.692  0.2961 -0.1546  0.0950
  321SOL    HW1  962   1.285   2.699   2.617 -0.3637 -2.4521 -0.9318
  321SOL    HW2  963   1.195   2.732   2.750  0.8596 -0.4129 -2.3145
  322SOL     OW  964   2.485   1.450   2.087  0.0148  0.2305  0.0944
  322SOL    HW1  965   2.540   1.469   2.172  1.9778 -0.4635  2.0722
  322SOL    HW2  966   2.445   1.533   2.044 -2.1727 -1.2415  0.1742
  323SOL     OW  967   2.602   0.730   1.020 -0.0388  0.2260  0.1191
  323SOL    HW1  968   2.621   0.654   0.955  5.0869  1.1518  0.7118
  323SOL    HW2  969   2.509   0.717   1.054  0.8277  0.9872 -2.0494
  324SOL     OW  970   2.501   2.979   2.389 -0.2448 -0.5064 -0.1680
  324SOL    HW1  971   2.476   2.887   2.419  3.0607  1.7401 -1.9307
  324SOL    HW2  972   2.598   2.979   2.358  2.2386  2.4168 -1.1020
  325SOL     OW  973   1.162   0.516   2.354 -0.5674  0.5593 -0.1079
  325SOL    HW1  974   1.113   0.462   2.424  2.6822  0.6988  1.1139
  325SOL    HW2  975   1.095   0.537   2.280 -2.7290 -0.4444  0.7254
  326SOL     OW  976   1.924   2.744   2.209 -0.1006 -0.4517  0.6223
  326SOL    HW1  977   1.897   2.821   2.269  0.5156 -0.3742  0.8489
  326SOL    HW2  978   1.844   2.703   2.159  0.2158 -0.7315  0.8896
  327SOL     OW  979   2.369   0.335   2.963 -0.5864 -0.6218 -0.6017
  327SOL    HW1  980   2.469   0.343   2.965 -1.2421  0.3835  2.8017
  327SOL    HW2  981   2.330   0.422   2.994 -1.2465 -1.1743  2.0030
  328SOL     OW  982   0.042   1.388   2.283 -0.3728 -0.6147  0.6758
  328SOL    HW1  983   0.123   1.421   2.229 -0.3663  0.9756 -0.7978
  328SOL    HW2  984   3.066   1.436   2.252 -0.3164  1.5130 -0.0233
  329SOL     OW  985   1.803   0.097   1.683  0.0000 -0.1700 -0.3936
  329SOL    HW1  986   1.716   0.103   1.728  1.9227 -1.0409 -1.6562
  329SOL    HW2  987   1.847   0.192   1.682  0.6198 -0.3810 -1.2353
  330SOL     OW  988   0.244   1.113   0.872 -0.1592 -0.2307 -0.1026
  330SOL    HW1  989   0.147   1.133   0.861 -1.0002  0.7957  2.9670
  330SOL    HW2  990   0.302   1.197   0.881  4.1425  1.0257 -0.9075
  331SOL     OW  991   0.233   1.505   2.089  0.3350  0.4452 -0.3069
  331SOL    HW1  992   0.313   1.462   2.042 -2.6447  0.2653  2.5485
  331SOL    HW2  993   0.251   1.595   2.128 -1.7265 -1.1971 -0.1376
  332SOL     OW  994   2.990   2.680   1.693  0.1286  0.5162 -0.7459
  332SOL    HW1  995   2.921   2.695   1.618  0.8589 -1.1829  1.8269
  332SOL    HW2  996   3.019   2.581   1.700 -1.9588 -2.0039  1.2369
  333SOL     OW  997   2.396   0.197   0.873 -0.1141  0.1094 -0.5301
  333SOL    HW1  998   2.405   0.096   0.853 -2.9364  0.3165 -3.4873
  333SOL    HW2  999   2.430   0.219   0.969  0.1787  0.8056  2.0106
  334SOL     OW 1000   0.744   1.828   0.639  0.4532 -0.3854  0.0230
  334SOL    HW1 1001   0.782   1.810   0.546  3.0587 -0.1018  1.5867
  334SOL    HW2 1002   0.653   1.776   0.646 -4.4322  0.4249 -1.2252
  335SOL     OW 1003   0.234   2.576   2.821 -0.9772  0.2552  0.0505
  335SOL    HW1 1004   0.161   2.569   2.756  3.5907 -1.1816  3.4017
  335SOL    HW2 1005   0.299   2.500   2.829  0.4393 -0.0128  1.7165
  336SOL     OW 1006   0.228   2.802   2.242  0.2059 -0.2931  0.1743
  336SOL    HW1 1007   0.243   2.866   2.163 -2.1917  0.2466 -1.3874
  336SOL    HW2 1008   0.233   2.706   2.207 -0.1855 -0.6715  1.2541
  337SOL     OW 1009   2.049   2.511   2.227  0.3087  0.5326 -0.4526
  337SOL    HW1 1010   1.993   2.594   2.218  2.9255  1.8634 -1.7993
  337SOL    HW2 1011   2.006   2.448   2.295 -2.0436  3.0032 -0.8050
  338SOL     OW 1012   0.589   0.173   0.310  0.0650 -0.1575 -0.9097
  338SOL    HW1 1013   0.543   0.255   0.347  0.0550 -0.2245  1.1469
  338SOL    HW2 1014   0.523   0.109   0.266  0.4008  1.3974 -0.0664
  339SOL     OW 1015   0.462   0.933   2.047  0.1266  0.2043 -0.3747
  339SOL    HW1 1016   0.383   0.901   2.100  1.2061  1.4900  1.8565
  339SOL    HW2 1017   0.492   1.020   2.082 -2.2635  1.7879 -0.1515
  340SOL     OW 1018   1.866   0.028   0.084 -0.5191  0.4104  0.3094
  340SOL    HW1 1019   1.910   0.114   0.052 -1.2996 -2.8442  0.3025
  340SOL    HW2 1020   1.791   0.045   0.151 -2.7148  0.0859  0.9928
  341SOL     OW 1021   2.087   1.072   0.840  0.4819 -0.1177 -0.6592
  341SOL    HW1 1022   2.005   1.078   0.904  1.9197 -2.3992  0.5558
  341SOL    HW2 1023   2.169   1.060   0.895  0.2102 -1.1040 -0.3107
  342SOL     OW 1024   2.551   0.033   3.093  0.1243 -0.2898  0.4098
  342SOL    HW1 1025   2.451   0.049   0.004  0.5042 -0.6266  0.7226
  342SOL    HW2 1026   2.569   3.040   3.096 -0.3001  4.2108 -1.0399
  343SOL     OW 1027   1.133   2.291   1.801  0.2940 -0.4595 -0.5279
  343SOL    HW1 1028   1.132   2.383   1.843 -0.6339  0.3818 -2.3331
  343SOL    HW2 1029   1.214   2.236   1.819 -1.0915  2.0076  0.6167
  344SOL     OW 1030   2.580   2.862   1.185 -0.4953  0.2065 -0.5121
  344SOL    HW1 1031   2.650   2.853   1.263  1.3659 -0.8988  1.9786
  344SOL    HW2 1032   2.518   2.783   1.182 -4.4547 -1.3908 -1.8023
  345SOL     OW 1033   2.766   2.203   0.036  0.2826 -0.0257  0.7634
  345SOL    HW1 1034   2.832   2.273   0.003  0.1034 -0.9589  0.4760
  345SOL    HW2 1035   2.759   2.193   0.137  1.6932 -0.3847 -0.5735
  346SOL     OW 1036   2.554   1.975   0.858  0.7310  0.5464  0.8541
  346SOL    HW1 1037   2.468   2.021   0.825 -2.9221  2.0218  0.7963
  346SOL    HW2 1038   2.618   2.044   0.901 -0.9136 -2.0065  1.1164
  347SOL     OW 1039   1.524   2.208   1.677  0.5070 -0.3308 -0.1678
  347SOL    HW1 1040   1.524   2.285   1.745  2.0149 -1.5715 -1.1218
  347SOL    HW2 1041   1.473   2.129   1.711  0.2510  0.8589 -0.9673
  348SOL     OW 1042   0.650   1.612   2.553  0.0949  0.3225 -0.4495
  348SOL    HW1 1043   0.561   1.558   2.548  0.5589  0.7194  1.0042
  348SOL    HW2 1044   0.732   1.549   2.545  2.6561  0.6713  1.0838
  349SOL     OW 1045   2.423   1.384   0.866 -0.4357  0.1494  0.3112
  349SOL    HW1 1046   2.504   1.426   0.826  0.4793  0.7281 -0.9221
  349SOL    HW2 1047   2.335   1.418   0.825 -3.6487  1.6290  0.3703
  350SOL     OW 1048   2.900   2.517   1.104 -0.1883  0.3212 -0.5608
  350SOL    HW1 1049   2.940   2.606   1.073  2.0465  1.1984  1.1291
  350SOL    HW2 1050   2.961   2.466   1.167  0.1393  0.4924 -1.8587
  351SOL     OW 1051   0.509   2.901   1.921 -0.2252 -0.3352 -0.0100
  351SOL    HW1 1052   0.411   2.929   1.917  0.2880  0.0415  1.2007
  351SOL    HW2 1053   0.548   2.940   2.007  0.1034  1.3256 -0.8559
  352SOL     OW 1054   0.895   1.537   1.038  0.0669  0.0279  0.1734
  352SOL    HW1 1055   0.842   1.607   0.990 -1.4635  0.1495  1.2448
  352SOL    HW2 1056   0.995   1.551   1.023 -1.3782  0.1839  2.6785
  353SOL     OW 1057   1.278   1.619   2.719 -0.1343  0.6068 -0.4010
  353SOL    HW1 1058   1.252   1.703   2.668  0.5616 -0.9352 -0.4163
  353SOL    HW2 1059   1.194   1.563   2.736 -1.6421  0.1072 -0.8766
  354SOL     OW 1060   1.596   3.108   1.259 -0.5560  0.1986 -0.0427
  354SOL    HW1 1061   1.647   3.023   1.269 -0.0826  0.1217  0.1996
  354SOL    HW2 1062   1.504   3.092   1.297  1.1604 -0.4318  1.0534
  355SOL     OW 1063   2.223   1.482   0.690 -0.2010  0.8655 -0.0166
  355SOL    HW1 1064   2.226   1.388   0.640 -0.8507  0.8734 -3.8003
  355SOL    HW2 1065   2.169   1.551   0.633 -2.4092  1.4686 -0.7715
  356SOL     OW 1066   2.732   1.624   2.213 -0.0027 -0.2470 -0.1036
  356SOL    HW1 1067   2.729   1.677   2.132  0.1202  1.6326  0.5317
  356SOL    HW2 1068   2.691   1.671   2.296 -1.6788 -1.3124 -0.0032
  357SOL     OW 1069   0.504   2.931   1.543  0.0706  0.1693  0.3632
  357SOL    HW1 1070   0.417   2.945   1.600  1.9741  1.1323  1.4551
  357SOL    HW2 1071   0.481   2.879   1.460  0.1093 -0.6701  1.6157
  358SOL     OW 1072   2.429   0.873   1.756 -0.7259 -0.1387 -0.2005
  358SOL    HW1 1073   2.329   0.895   1.763  0.0951 -4.8241  0.3126
  358SOL    HW2 1074   2.446   0.803   1.687  0.8658 -1.9653 -0.4942
  359SOL     OW 1075   2.314   2.545   2.640  0.2643  0.2571  0.1327
  359SOL    HW1 1076   2.220   2.518   2.615  0.6250 -1.9934 -1.9242
  359SOL    HW2 1077   2.330   2.553   2.740 -1.7571 -0.1332 -0.4308
  360SOL     OW 1078   0.710   0.398   0.838 -0.2532  0.1865 -0.7168
  360SOL    HW1 1079   0.810   0.420   0.852 -1.5269  2.6722  2.9831
  360SOL    HW2 1080   0.665   0.485   0.807 -3.1412 -2.1175  0.8820
  361SOL     OW 1081   1.817   0.001   1.067 -0.2617 -0.0717  0.2900
  361SOL    HW1 1082   1.772   3.094   1.154 -0.6792 -0.3880  1.0192
  361SOL    HW2 1083   1.921   0.015   1.083  2.3364  0.7616 -0.4693
  362SOL     OW 1084   1.305   1.119   0.872  0.4870  0.0738 -0.2218
  362SOL    HW1 1085   1.401   1.140   0.848  0.1551  0.2168 -0.7946
  362SOL    HW2 1086   1.302   1.071   0.960 -0.7857 -1.4702  3.8707
  363SOL     OW 1087   2.297   1.486   2.748 -0.1282  0.4426  0.0489
  363SOL    HW1 1088   2.330   1.474   2.845 -1.1198  0.0436  0.9085
  363SOL    HW2 1089   2.254   1.406   2.708  0.4750 -0.3074  0.5518
  364SOL     OW 1090   0.082   0.175   1.061 -0.1596 -0.0992  0.1622
  364SOL    HW1 1091   0.130   0.201   1.148  3.0437  0.4821  0.4053
  364SOL    HW2 1092   3.092   0.210   1.059 -1.6433  0.1529 -0.6485
  365SOL     OW 1093   0.096   2.822   2.894 -0.1313 -0.3777 -0.3801
  365SOL    HW1 1094   0.124   2.729   2.863 -1.3404  0.2027  0.4995
  365SOL    HW2 1095   3.102   2.829   2.899 -0.7060  1.6580  0.2848
  366SOL     OW 1096   2.379   2.204   0.047 -0.3152  0.3577  0.2575
  366SOL    HW1 1097   2.275   2.196   0.041 -1.8288 -2.5354 -0.5820
  366SOL    HW2 1098   2.408   2.292   0.091  0.7765  0.8506  1.6634
  367SOL     OW 1099   2.699   2.467   2.841 -0.0831 -0.1935  0.3647
  367SOL    HW1 1100   2.678   2.378   2.794 -0.1587 -1.2230 -3.6754
  367SOL    HW2 1101   2.787   2.456   2.892 -0.2935  1.7075 -0.7004
  368SOL     OW 1102   0.297   1.907   0.871 -0.2605 -0.0060  0.4009
  368SOL    HW1 1103   0.324   2.001   0.860 -0.4152 -0.8474  2.0467
  368SOL    HW2 1104   0.201   1.891   0.851  2.1006 -0.7307 -3.0725
  369SOL     OW 1105   0.670   2.678   2.798 -0.4959 -0.5028 -0.5273
  369SOL    HW1 1106   0.595   2.734   2.759  0.6401  0.7190  0.4546
  369SOL    HW2 1107   0.753   2.667   2.735  1.4049 -1.1032 -0.4043
  370SOL     OW 1108   0.200   0.860   0.991  0.2993 -0.0720 -0.5402
  370SOL    HW1 1109   0.217   0.946   0.942 -0.0068 -0.6408  1.9287
  370SOL    HW2 1110   0.129   0.804   0.951  0.8981  5.3036  0.0650
  371SOL     OW 1111   1.938   2.360   0.948 -0.0242  0.2307  0.2954
  371SOL    HW1 1112   1.921   2.457   0.961  1.5764 -1.3346 -2.0875
  371SOL    HW2 1113   1.876   2.301   1.004 -0.0340 -1.0046 -2.8330
  372SOL     OW 1114   0.450   0.881   2.723 -0.4014 -0.6192  0.0011
  372SOL    HW1 1115   0.492   0.924   2.635  2.2905  1.3363  1.7486
  372SOL    HW2 1116   0.490   0.791   2.741 -0.1863  0.5105  1.0296
  373SOL     OW 1117   0.007   1.916   0.869  0.3068 -0.2566 -0.6330
  373SOL    HW1 1118   3.074   1.994   0.820 -0.8143 -2.1169  2.7571
  373SOL    HW2 1119   3.091   1.933   0.971 -1.4233 -2.0077  1.9489
  374SOL     OW 1120   0.146   2.630   0.144  0.2110 -0.5903 -0.2372
  374SOL    HW1 1121   0.204   2.551   0.120  0.1698 -1.0242  1.3583
  374SOL    HW2 1122   0.174   2.709   0.085 -2.1113 -2.1802  0.8619
  375SOL     OW 1123   0.387   0.540   0.181  0.0134 -0.0699  0.2043
  375SOL    HW1 1124   0.418   0.522   0.276 -1.8944  1.1232 -1.7836
  375SOL    HW2 1125   0.284   0.555   0.195  0.9664 -0.1750  0.0357
  376SOL     OW 1126   0.130   2.468   1.909 -0.1033  0.5612  0.9241
  376SOL    HW1 1127   0.045   2.416   1.876 -1.0728 -0.3853  0.8321
  376SOL    HW2 1128   0.174   2.516   1.830 -0.3580  1.0915 -0.4110
  377SOL     OW 1129   1.641   2.312   3.088  0.2433  0.1349 -0.3375
  377SOL    HW1 1130   1.641   2.308   2.988  0.5555  0.6912  0.5297
  377SOL    HW2 1131   1.614   2.404   0.004  0.8052 -1.7611  1.2493
  378SOL     OW 1132   0.675   0.588   0.481 -0.0598  0.0467 -0.2944
  378SOL    HW1 1133   0.735   0.525   0.431  1.8859  1.1886  2.2085
  378SOL    HW2 1134   0.679   0.680   0.436 -0.4732  0.7830  2.9268
  379SOL     OW 1135   0.720   1.591   0.336 -0.4610  0.0535  0.0044
  379SOL    HW1 1136   0.623   1.558   0.338  1.9286  1.0147 -1.4231
  379SOL    HW2 1137   0.766   1.576   0.430 -1.0123  0.2670 -0.3787
  380SOL     OW 1138   0.358   1.898   1.457  0.6612 -0.1120 -0.4547
  380SOL    HW1 1139   0.436   1.927   1.518 -0.8821 -0.1106 -0.0791
  380SOL    HW2 1140   0.356   1.951   1.371  0.8574 -0.1251 -1.2709
  381SOL     OW 1141   0.640   1.350   1.788 -0.1950 -0.4019 -0.5225
  381SOL    HW1 1142   0.717   1.413   1.821  1.1033 -0.5842  2.5663
  381SOL    HW2 1143   0.670   1.256   1.765 -0.8984  4.6999 -1.7650
  382SOL     OW 1144   2.221   1.781   0.616  0.4511 -0.1187  0.8303
  382SOL    HW1 1145   2.275   1.747   0.533  1.4239 -0.5188 -0.2232
  382SOL    HW2 1146   2.261   1.750   0.703 -0.0870  3.0465 -1.4846
  383SOL     OW 1147   2.730   1.691   2.496 -0.1872  0.1093 -0.2902
  383SOL    HW1 1148   2.726   1.774   2.553 -1.1518 -0.4408  1.4299
  383SOL    HW2 1149   2.821   1.677   2.450 -0.8304 -0.9403  1.5996
  384SOL     OW 1150   0.245   2.130   2.546  0.7150 -0.9358 -0.4640
  384SOL    HW1 1151   0.304   2.078   2.605  0.9803  1.7377 -0.7193
  384SOL    HW2 1152   0.263   2.229   2.553  0.4180 -0.5153 -0.3080
  385SOL     OW 1153   2.774   2.138   0.958 -0.3167  0.0556 -0.1454
  385SOL    HW1 1154   2.867   2.087   0.951  1.3075 -2.6477  2.6434
  385SOL    HW2 1155   2.789   2.233   0.917 -0.4249 -0.4046 -0.0085
  386SOL     OW 1156   1.699   0.864   0.842 -0.1829 -0.1163 -0.1681
  386SOL    HW1 1157   1.683   0.783   0.902 -0.3951 -2.4904  0.2731
  386SOL    HW2 1158   1.716   0.829   0.750  1.0491  0.5076  2.3041
  387SOL     OW 1159   0.492   0.700   1.887  0.0442 -0.0360 -0.1250
  387SOL    HW1 1160   0.491   0.786   1.946  3.3365 -0.9736 -0.0761
  387SOL    HW2 1161   0.572   0.705   1.821  0.0091 -1.5373  2.8432
  388SOL     OW 1162   2.312   0.846   2.199 -0.2331 -0.3141 -0.1617
  388SOL    HW1 1163   2.224   0.894   2.198  6.2830 -0.8828  0.8413
  388SOL    HW2 1164   2.336   0.799   2.109 -0.5792 -1.5905  2.4511
  389SOL     OW 1165   1.953   1.356   2.149 -0.0800 -1.0121  0.4659
  389SOL    HW1 1166   2.014   1.348   2.068  2.6487 -1.2497 -0.7383
  389SOL    HW2 1167   1.954   1.447   2.199 -0.1192 -0.6273  1.5346
  390SOL     OW 1168   1.855   2.665   0.207 -0.0927 -0.0357 -0.2158
  390SOL    HW1 1169   1.863   2.756   0.257  1.1446  0.9644  0.4753
  390SOL    HW2 1170   1.855   2.680   0.105 -2.4600  1.6333 -1.9391
  391SOL     OW 1171   2.051   2.039   1.174  0.0749 -1.0114  0.1180
  391SOL    HW1 1172   2.105   2.017   1.086  3.6756  2.2598  0.6024
  391SOL    HW2 1173   2.010   1.955   1.221 -0.6874 -0.2603 -0.4178
  392SOL     OW 1174   3.058   2.779   1.342 -0.3428  0.2854 -0.0135
  392SOL    HW1 1175   2.973   2.752   1.393 -1.4529 -1.9643  1.2868
  392SOL    HW2 1176   3.052   2.821   1.245 -1.3775  0.4602 -3.9110
  393SOL     OW 1177   2.048   1.890   0.050 -0.2385  0.2595 -0.0824
  393SOL    HW1 1178   2.021   1.878   0.146  3.0482  0.1344  2.7433
  393SOL    HW2 1179   1.970   1.868   3.104  0.0126 -2.5759  0.8900
  394SOL     OW 1180   0.202   0.383   2.543  0.0769 -0.0402 -0.2813
  394SOL    HW1 1181   0.264   0.341   2.475 -1.1555 -0.8822  0.7699
  394SOL    HW2 1182   0.136   0.448   2.501  1.1529  0.9155 -1.3280
  395SOL     OW 1183   1.108   0.714   0.833 -0.1435 -0.1478  0.0961
  395SOL    HW1 1184   1.036   0.727   0.905 -1.3817  1.7681 -0.4370
  395SOL    HW2 1185   1.097   0.788   0.762 -0.2425 -0.0052 -1.5366
  396SOL     OW 1186   1.208   0.828   3.105 -0.2310  0.3166  0.0030
  396SOL    HW1 1187   1.210   0.730   0.026 -2.7581 -0.9126  1.4566
  396SOL    HW2 1188   1.286   0.839   3.035  1.8761  1.0423 -0.5658
  397SOL     OW 1189   0.465   0.465   2.058 -0.2262 -0.1185  0.3875
  397SOL    HW1 1190   0.376   0.489   2.096  0.4829  1.9134  1.4745
  397SOL    HW2 1191   0.500   0.551   2.007 -0.0760 -0.4238 -0.4766
  398SOL     OW 1192   0.851   0.158   0.366 -0.1263 -0.0438 -0.1020
  398SOL    HW1 1193   0.892   0.068   0.339 -1.6770 -1.1471  0.6335
  398SOL    HW2 1194   0.749   0.143   0.365  0.6908 -0.4606  0.1761
  399SOL     OW 1195   2.248   0.035   1.834 -0.0052  0.7429 -0.2601
  399SOL    HW1 1196   2.213   3.058   1.879 -1.1602 -1.9413 -0.3310
  399SOL    HW2 1197   2.350   0.037   1.839 -0.2375 -2.6060  1.0502
  400SOL     OW 1198   0.579   1.878   2.175 -0.2339 -0.2736  0.2877
  400SOL    HW1 1199   0.497   1.840   2.221  0.1291  0.6205 -0.0103
  400SOL    HW2 1200   0.553   1.911   2.079 -1.5725 -0.4114 -3.3760
  401SOL     OW 1201   0.755   0.483   2.370 -0.2226 -0.1985 -0.8109
  401SOL    HW1 1202   0.833   0.465   2.431  0.9697 -2.6218 -0.3511
  401SOL    HW2 1203   0.744   0.580   2.343 -0.0310 -0.1385  1.3090
  402SOL     OW 1204   2.968   2.113   1.722  0.0864  0.0977 -0.1536
  402SOL    HW1 1205   2.981   2.070   1.817 -0.3753 -0.7349 -0.0936
  402SOL    HW2 1206   3.045   2.086   1.663  1.5603 -1.0406 -0.8995
  403SOL     OW 1207   0.453   1.011   1.775 -0.3775  0.0658  0.1624
  403SOL    HW1 1208   0.366   1.062   1.761  1.5544 -0.8660  0.7004
  403SOL    HW2 1209   0.457   0.957   1.860 -3.3860  1.4723  0.5425
  404SOL     OW 1210   0.104   2.778   1.815  0.0346  0.0427  0.0647
  404SOL    HW1 1211   0.172   2.720   1.773  1.5701 -1.5485  1.1892
  404SOL    HW2 1212   0.010   2.742   1.800  0.6716  0.4591 -1.5719
  405SOL     OW 1213   0.281   0.540   1.746  0.1010 -0.2037 -0.2722
  405SOL    HW1 1214   0.346   0.615   1.767 -0.6822 -0.0053  0.2000
  405SOL    HW2 1215   0.307   0.452   1.798 -0.5685 -0.7184 -2.4435
  406SOL     OW 1216   1.947   2.299   2.882 -0.0219  0.4024  0.3955
  406SOL    HW1 1217   1.948   2.293   2.983 -1.1651  0.2539 -1.6665
  406SOL    HW2 1218   1.973   2.208   2.840 -1.9224 -4.0831  1.3012
  407SOL     OW 1219   1.309   1.581   2.218 -0.3011  0.1179  0.2670
  407SOL    HW1 1220   1.266   1.674   2.214  2.0128  1.6749 -1.6480
  407SOL    HW2 1221   1.341   1.565   2.312 -3.1726  0.9535 -3.6381
  408SOL     OW 1222   0.516   0.166   2.722  0.3082  0.0597 -0.2381
  408SOL    HW1 1223   0.509   0.209   2.631 -1.7645 -1.9793 -2.4308
  408SOL    HW2 1224   0.444   0.201   2.787 -2.8504 -1.3523  1.8800
  409SOL     OW 1225   0.420   1.889   0.456  0.2681  0.1447  0.2946
  409SOL    HW1 1226   0.460   1.850   0.541  0.3755  3.9217  2.2911
  409SOL    HW2 1227   0.373   1.976   0.482 -1.0682  1.7580 -0.2056
  410SOL     OW 1228   2.706   1.495   0.191 -0.6064  0.4943  0.3246
  410SOL    HW1 1229   2.747   1.593   0.181  1.1124 -1.4221 -0.6914
  410SOL    HW2 1230   2.685   1.457   0.098  0.3846 -1.1392 -5.5288
  411SOL     OW 1231   2.932   0.281   1.007 -0.1560 -0.6153  0.0017
  411SOL    HW1 1232   2.879   0.232   1.077 -0.6202  1.4126 -0.2134
  411SOL    HW2 1233   2.885   0.265   0.916 -2.6433  0.3672 -2.4140
  412SOL     OW 1234   1.344   1.009   1.124  0.0930  0.3796 -0.4581
  412SOL    HW1 1235   1.444   1.019   1.138  2.7717  0.3555  0.1752
  412SOL    HW2 1236   1.289   1.026   1.211 -0.7738 -0.3966  0.9711
  413SOL     OW 1237   0.390   2.838   1.323  0.1306 -0.4301 -0.0536
  413SOL    HW1 1238   0.343   2.916   1.285 -0.5553  1.6050  1.9595
  413SOL    HW2 1239   0.324   2.764   1.346  0.2282  0.6771 -0.5503
  414SOL     OW 1240   0.064   1.823   2.695  0.3352  0.8461  0.3823
  414SOL    HW1 1241   0.028   1.905   2.741  1.8043 -0.9838 -1.9410
  414SOL    HW2 1242   0.160   1.818   2.677 -1.9658  0.4763 -0.3076
  415SOL     OW 1243   0.466   2.098   2.983  0.5075 -0.6357 -0.4661
  415SOL    HW1 1244   0.509   2.122   3.068 -1.0605  1.8254 -0.5190
  415SOL    HW2 1245   0.388   2.038   3.008  0.7110 -0.4192 -0.4808
  416SOL     OW 1246   1.547   0.286   0.499  0.2535  0.4131 -0.2103
  416SOL    HW1 1247   1.534   0.370   0.440  1.4961  2.7382  1.1441
  416SOL    HW2 1248   1.510   0.305   0.593  1.3900  1.2716  1.9163
  417SOL     OW 1249   0.360   1.028   0.629  0.1037 -0.0293  0.2487
  417SOL    HW1 1250   0.313   1.061   0.716 -1.2388  0.9510  1.9109
  417SOL    HW2 1251   0.284   1.033   0.557 -0.7712 -0.0982  0.1884
  418SOL     OW 1252   2.213   1.117   2.013 -0.2437  0.7592  0.1605
  418SOL    HW1 1253   2.176   1.063   2.099 -1.4351 -0.4854  0.8014
  418SOL    HW2 1254   2.145   1.188   1.986 -0.8438 -0.0161  0.9371
  419SOL     OW 1255   0.163   0.368   0.725 -0.1213  0.5406 -0.5591
  419SOL    HW1 1256   0.232   0.302   0.751 -1.6507  1.3383  1.4374
  419SOL    HW2 1257   0.198   0.436   0.657 -2.0894 -0.0128  0.3118
  420SOL     OW 1258   0.488   1.482   0.413 -0.2498  0.2320 -0.5431
  420SOL    HW1 1259   0.425   1.475   0.335  4.3584 -1.3381  1.7216
  420SOL    HW2 1260   0.512   1.386   0.450  1.2243 -0.7050  0.4069
  421SOL     OW 1261   1.009   2.507   0.712  0.1287  0.6085 -0.1892
  421SOL    HW1 1262   1.054   2.416   0.692 -0.5600 -1.1752 -0.2130
  421SOL    HW2 1263   0.968   2.548   0.629  2.3566  4.1907 -0.8511
  422SOL     OW 1264   3.056   0.834   1.290  0.3213  0.2673 -0.1013
  422SOL    HW1 1265   3.052   0.819   1.390  0.8223  1.1046 -1.2945
  422SOL    HW2 1266   0.045   0.816   1.257  2.0197 -0.2212  1.3289
  423SOL     OW 1267   1.394   1.619   1.528 -0.0224  0.1620 -0.0547
  423SOL    HW1 1268   1.333   1.537   1.536 -1.5864  0.1259 -2.2727
  423SOL    HW2 1269   1.422   1.620   1.430 -0.7890  0.5108 -3.3528
  424SOL     OW 1270   2.032   1.124   2.708 -0.1836 -0.1552  0.0733
  424SOL    HW1 1271   1.979   1.163   2.788 -1.9236 -2.3918 -2.0774
  424SOL    HW2 1272   1.979   1.130   2.621  2.0705  0.4064  2.4321
  425SOL     OW 1273   0.034   0.544   1.977  0.3666 -0.1353  0.6358
  425SOL    HW1 1274   0.017   0.510   1.883 -0.6474 -1.8148 -1.2339
  425SOL    HW2 1275   3.070   0.612   2.006  0.6638  1.6104  0.6326
  426SOL     OW 1276   2.515   2.671   2.511 -0.6779 -0.6610 -0.2303
  426SOL    HW1 1277   2.613   2.643   2.507 -1.0017  0.3458  1.0018
  426SOL    HW2 1278   2.462   2.605   2.571 -0.2378 -1.6526  2.3021
  427SOL     OW 1279   1.007   0.515   2.111  0.3383 -0.2088  0.6931
  427SOL    HW1 1280   0.972   0.420   2.111 -0.0851  1.0993  1.2384
  427SOL    HW2 1281   0.960   0.581   2.047  0.0978 -0.1248  0.1758
  428SOL     OW 1282   2.150   0.943   1.773  0.3800  0.1841  0.6773
  428SOL    HW1 1283   2.148   0.999   1.857  0.7834  1.0749  0.0886
  428SOL    HW2 1284   2.081   0.971   1.703  0.7189  1.4505  1.6704
  429SOL     OW 1285   2.840   2.819   0.252  0.4537 -0.5158  0.3195
  429SOL    HW1 1286   2.903   2.899   0.251  0.8868 -0.6952  1.2658
  429SOL    HW2 1287   2.743   2.858   0.248 -2.4088  2.5598  1.7400
  430SOL     OW 1288   1.703   1.731   2.517 -0.0832  0.5687 -0.1589
  430SOL    HW1 1289   1.661   1.676   2.441  0.7263  0.1764 -0.2683
  430SOL    HW2 1290   1.635   1.783   2.577 -0.1262  0.0294 -1.2819
  431SOL     OW 1291   3.048   1.705   1.286 -0.4030 -0.4730 -0.1729
  431SOL    HW1 1292   3.060   1.607   1.258 -1.1181 -1.0481  3.4095
  431SOL    HW2 1293   0.019   1.733   1.342 -0.3030 -2.0013 -0.8881
  432SOL     OW 1294   1.588   2.818   2.631 -0.1750  0.6296  0.0949
  432SOL    HW1 1295   1.665   2.857   2.579 -4.0675  0.0007  0.0872
  432SOL    HW2 1296   1.601   2.718   2.637  1.7040  3.3180 -0.4946
  433SOL     OW 1297   1.633   3.002   2.332 -0.2851  0.4777 -0.1161
  433SOL    HW1 1298   1.620   3.081   2.267  0.3532 -2.1487 -2.2001
  433SOL    HW2 1299   1.726   2.973   2.349 -0.5177  0.5015 -0.9708
  434SOL     OW 1300   0.514   2.528   2.089 -0.2818 -0.5082 -0.1120
  434SOL    HW1 1301   0.410   2.519   2.107 -1.1612  1.6942 -0.3225
  434SOL    HW2 1302   0.527   2.601   2.022  0.5426 -0.5948  0.5268
  435SOL     OW 1303   0.096   2.302   0.075  0.0224 -0.0098  0.7189
  435SOL    HW1 1304   0.180   2.355   0.102  1.2375 -0.1476  1.6003
  435SOL    HW2 1305   0.072   2.229   0.145  1.1937 -1.9318  1.4847
  436SOL     OW 1306   0.704   0.653   1.720 -0.0757 -0.2040 -0.4019
  436SOL    HW1 1307   0.677   0.561   1.697 -0.5629  1.4672  2.6172
  436SOL    HW2 1308   0.687   0.715   1.641 -1.0332 -0.6052  2.3283
  437SOL     OW 1309   0.531   2.535   2.581  0.2070 -0.0676  0.5159
  437SOL    HW1 1310   0.564   2.568   2.487  0.5240 -0.9850 -1.1571
  437SOL    HW2 1311   0.544   2.608   2.651  0.0007  0.7768  0.3581
  438SOL     OW 1312   0.635   1.769   1.455 -1.0923 -0.1096 -0.0295
  438SOL    HW1 1313   0.660   1.866   1.480  2.1683 -1.2767  4.1009
  438SOL    HW2 1314   0.639   1.715   1.540  0.8854 -0.7835  0.4838
  439SOL     OW 1315   2.125   0.848   2.699  0.1590 -0.2595 -0.0592
  439SOL    HW1 1316   2.223   0.820   2.701 -2.5845 -0.7359  0.6042
  439SOL    HW2 1317   2.117   0.951   2.696  0.8151  1.1524 -3.5697
  440SOL     OW 1318   0.604   0.734   3.001  0.5921 -0.1355  0.2925
  440SOL    HW1 1319   0.631   0.696   3.092 -0.3483 -1.0720  0.9222
  440SOL    HW2 1320   0.645   0.828   2.983  0.0455 -0.1035 -0.5339
  441SOL     OW 1321   0.841   2.230   1.460 -0.2480  0.5956 -0.4200
  441SOL    HW1 1322   0.834   2.250   1.561  1.7897  0.6496  1.7083
  441SOL    HW2 1323   0.827   2.310   1.404  1.0771 -1.6953  2.8735
  442SOL     OW 1324   2.839   1.584   0.754 -0.3950  0.2008 -0.1441
  442SOL    HW1 1325   2.804   1.677   0.722  0.3063 -0.8308  3.0097
  442SOL    HW2 1326   2.801   1.563   0.846  0.1160  0.0068  1.1346
  443SOL     OW 1327   2.888   2.014   2.584 -0.0731  0.0795  0.2084
  443SOL    HW1 1328   2.832   1.992   2.502  1.4656 -2.1898  0.5893
  443SOL    HW2 1329   2.881   1.930   2.647 -0.2998  0.1065 -0.5897
  444SOL     OW 1330   1.599   1.206   2.798  0.1087  0.3530  0.0413
  444SOL    HW1 1331   1.665   1.188   2.877 -0.1079 -0.1015 -1.2830
  444SOL    HW2 1332   1.581   1.303   2.784  0.9591 -1.7558 -0.0535
  445SOL     OW 1333   2.500   0.056   1.871 -0.4490  0.6840  0.6086
  445SOL    HW1 1334   2.581   0.073   1.812 -1.6982  1.9667  3.1694
  445SOL    HW2 1335   2.484   0.125   1.944  0.3910  0.8110 -3.2185
  446SOL     OW 1336   0.483   0.886   1.035  0.0416  0.2071 -1.0953
  446SOL    HW1 1337   0.493   0.990   1.051  1.0073  4.1151  0.9594
  446SOL    HW2 1338   0.385   0.859   1.023  1.6869 -2.3307  2.5342
  447SOL     OW 1339   1.033   1.836   1.026  0.0391  0.1993 -0.5250
  447SOL    HW1 1340   0.935   1.835   1.055  0.3506  0.4128  0.1413
  447SOL    HW2 1341   1.057   1.760   0.958  0.6918 -1.0616 -0.3235
  448SOL     OW 1342   0.923   1.243   1.615 -0.0805  0.5476  0.0030
  448SOL    HW1 1343   0.854   1.301   1.571  2.6531 -2.7001  1.9595
  448SOL    HW2 1344   0.886   1.150   1.631 -2.7652  0.0736  1.1720
  449SOL     OW 1345   2.886   2.098   2.163 -0.0758  0.4430 -0.1337
  449SOL    HW1 1346   2.802   2.151   2.131 -0.4291  1.5748 -0.2137
  449SOL    HW2 1347   2.936   2.069   2.082  0.0637  0.6746 -1.4535
  450SOL     OW 1348   0.076   1.622   1.772  0.0616 -0.1323  0.1048
  450SOL    HW1 1349   0.026   1.570   1.843  0.7085 -0.1337 -2.7155
  450SOL    HW2 1350   0.137   1.687   1.815 -0.0876 -1.3954 -0.0238
  451SOL     OW 1351   1.981   0.656   1.241 -0.1956  0.1996  0.5620
  451SOL    HW1 1352   1.880   0.671   1.249 -0.5622 -0.6485 -0.1662
  451SOL    HW2 1353   2.014   0.713   1.162  1.6509 -0.8931  1.3806
  452SOL     OW 1354   0.536   1.383   0.752  0.1714  0.1438  0.1678
  452SOL    HW1 1355   0.625   1.402   0.795 -1.4821  3.1709 -0.0943
  452SOL    HW2 1356   0.469   1.375   0.830 -0.9447 -0.0480  0.4430
  453SOL     OW 1357   1.346   2.219   0.852 -0.1770 -0.3199 -0.1572
  453SOL    HW1 1358   1.352   2.202   0.751 -0.8232 -0.7426 -1.6547
  453SOL    HW2 1359   1.407   2.301   0.875  1.3053  0.7877  2.1411
  454SOL     OW 1360   0.615   1.836   0.006  0.1859 -0.7832 -0.3205
  454SOL    HW1 1361   0.617   1.738   0.002 -0.8053  3.7137 -0.6410
  454SOL    HW2 1362   0.539   1.873   0.066 -3.1057 -1.0355 -1.4026
  455SOL     OW 1363   1.406   0.744   0.484 -0.3813  0.2866  0.4748
  455SOL    HW1 1364   1.346   0.812   0.446  2.4233 -2.7124  0.7382
  455SOL    HW2 1365   1.350   0.681   0.547 -0.8674  0.8650 -0.9189
  456SOL     OW 1366   2.223   2.182   1.328  0.4267  0.0133  0.7757
  456SOL    HW1 1367   2.152   2.135   1.271  0.8581  2.2699  2.8331
  456SOL    HW2 1368   2.211   2.169   1.431  0.6294  0.8357  3.3061
  457SOL     OW 1369   1.802   2.967   3.002  0.2186 -0.3412 -0.5716
  457SOL    HW1 1370   1.812   3.031   3.083 -0.5061 -1.3924  2.9989
  457SOL    HW2 1371   1.856   3.005   2.922 -0.5848  1.0813 -0.4190
  458SOL     OW 1372   2.402   0.634   0.354 -0.5587 -0.5605  0.6800
  458SOL    HW1 1373   2.422   0.544   0.387  0.3901 -1.2504 -1.0120
  458SOL    HW2 1374   2.346   0.681   0.421  1.0088  0.9984 -2.3171
  459SOL     OW 1375   0.082   0.598   2.383 -0.0249  0.6079 -0.0486
  459SOL    HW1 1376   0.068   0.695   2.412 -1.6115  0.6411 -1.2531
  459SOL    HW2 1377   3.107   0.562   2.342 -0.9345 -2.3883  0.6743
  460SOL     OW 1378   0.146   1.204   0.013  0.1998  0.0902 -0.6769
  460SOL    HW1 1379   0.223   1.160   3.074  2.2711  1.4341 -3.6423
  460SOL    HW2 1380   0.070   1.138   0.016  2.1500  0.1686 -0.4596
  461SOL     OW 1381   2.848   2.619   0.717  0.6124  0.6578  0.2896
  461SOL    HW1 1382   2.918   2.688   0.737 -0.2103  1.2141 -0.2005
  461SOL    HW2 1383   2.758   2.648   0.761 -2.3665  2.3812 -0.2421
  462SOL     OW 1384   2.979   0.010   1.688  0.4990 -0.2407  0.1496
  462SOL    HW1 1385   3.006   0.108   1.702 -1.9793  1.6478 -0.9827
  462SOL    HW2 1386   3.021   3.085   1.601 -0.5964  0.6459  2.4280
  463SOL     OW 1387   1.990   2.030   2.193  0.0914 -0.5225 -0.7419
  463SOL    HW1 1388   2.033   2.040   2.102 -0.5434 -0.9452  4.1208
  463SOL    HW2 1389   1.959   1.935   2.203 -0.3935  1.1018 -0.6679
  464SOL     OW 1390   0.744   2.958   1.378 -0.6788  0.2079  0.2369
  464SOL    HW1 1391   0.761   2.993   1.472 -2.5219 -1.5837 -1.3939
  464SOL    HW2 1392   0.649   2.981   1.345  0.1872  0.6557 -0.6888
  465SOL     OW 1393   0.612   0.182   1.744 -0.2806  0.1801 -0.0432
  465SOL    HW1 1394   0.660   0.092   1.735  0.8989 -1.8176  1.4696
  465SOL    HW2 1395   0.679   0.260   1.732 -0.3814 -1.6229  0.8274
  466SOL     OW 1396   1.669   2.596   2.146  0.1315 -0.1097  0.3749
  466SOL    HW1 1397   1.567   2.622   2.134  0.2053  1.5957  1.1352
  466SOL    HW2 1398   1.697   2.538   2.063 -0.3512  1.0692 -1.0836
  467SOL     OW 1399   0.344   2.038   1.221  0.5426 -0.2548  0.4693
  467SOL    HW1 1400   0.288   1.964   1.174 -2.4618 -1.5908  0.6987
  467SOL    HW2 1401   0.312   2.128   1.185  0.8265  1.3035 -1.0729
  468SOL     OW 1402   2.562   1.461   2.582 -0.3340 -0.2291 -0.0908
  468SOL    HW1 1403   2.649   1.514   2.570 -2.3191 -2.3653 -0.7272
  468SOL    HW2 1404   2.519   1.476   2.672  1.6102  0.1024 -0.5841
  469SOL     OW 1405   1.191   1.833   0.674 -0.0326  0.4853 -0.2233
  469SOL    HW1 1406   1.227   1.842   0.770  2.5142  0.3184  1.2972
  469SOL    HW2 1407   1.227   1.900   0.612 -0.6669 -0.0484 -2.0600
  470SOL     OW 1408   2.601   1.161   1.490 -0.1562 -0.5464 -0.3969
  470SOL    HW1 1409   2.632   1.153   1.587 -1.5591 -2.7400 -1.0218
  470SOL    HW2 1410   2.504   1.187   1.483 -1.5392 -1.3991 -1.2856
  471SOL     OW 1411   0.378   2.346   2.876  0.3862  0.7956 -0.0806
  471SOL    HW1 1412   0.408   2.253   2.904  0.8459 -0.1968 -1.5620
  471SOL    HW2 1413   0.444   2.416   2.913 -1.0475 -1.2083 -2.9181
  472SOL     OW 1414   2.959   1.774   2.052 -0.5831  0.0616 -0.0301
  472SOL    HW1 1415   3.013   1.697   2.019 -1.1385  0.0336  1.1830
  472SOL    HW2 1416   2.867   1.779   2.015 -0.5371  1.1763  0.5076
  473SOL     OW 1417   0.653   2.929   0.408 -0.1991  0.3328  0.4034
  473SOL    HW1 1418   0.722   2.851   0.415  0.8920 -1.2745  2.3291
  473SOL    HW2 1419   0.647   2.976   0.314  1.4924 -1.6057  0.5722
  474SOL     OW 1420   2.638   2.976   0.920  0.0858  0.0707 -0.0493
  474SOL    HW1 1421   2.569   2.984   0.844  1.9773 -2.1517  1.4888
  474SOL    HW2 1422   2.605   2.912   0.995  1.8580  0.1248 -0.1758
  475SOL     OW 1423   1.924   2.957   1.622 -0.2772 -0.2472  0.3340
  475SOL    HW1 1424   2.024   2.950   1.595  2.5359 -0.9003  1.6300
  475SOL    HW2 1425   1.889   3.051   1.644 -2.0007 -2.3728  0.0990
  476SOL     OW 1426   0.568   0.599   0.739  0.3282  0.0086  0.0435
  476SOL    HW1 1427   0.602   0.583   0.642 -1.4098 -1.1008 -1.1456
  476SOL    HW2 1428   0.570   0.701   0.755 -0.5374  1.6027  1.8461
  477SOL     OW 1429   0.862   2.231   1.025  0.1044  0.4387 -0.6530
  477SOL    HW1 1430   0.828   2.289   0.949  0.7737  0.1258  0.0039
  477SOL    HW2 1431   0.953   2.196   0.998 -3.0001  1.0983  0.0058
  478SOL     OW 1432   0.095   2.424   2.328  0.1367 -0.8107 -0.0445
  478SOL    HW1 1433   0.007   2.368   2.326  0.2419 -2.6567  1.6460
  478SOL    HW2 1434   0.164   2.386   2.393  1.3646  0.8024  0.8166
  479SOL     OW 1435   3.106   0.527   1.699 -0.2735 -0.0285  0.1083
  479SOL    HW1 1436   0.095   0.554   1.719  1.7650  0.1216 -3.5427
  479SOL    HW2 1437   3.091   0.559   1.603  1.8834 -2.0589 -0.0047
  480SOL     OW 1438   2.938   2.431   3.010  0.0335  0.3881  0.0091
  480SOL    HW1 1439   2.966   2.502   3.079  0.4826 -0.0811 -0.4118
  480SOL    HW2 1440   3.023   2.395   2.965  2.4608  0.2874  1.4697
  481SOL     OW 1441   1.676   2.000   2.159 -0.1518  0.6569  0.1655
  481SOL    HW1 1442   1.683   1.910   2.108 -2.4179 -1.2906  0.9924
  481SOL    HW2 1443   1.578   2.007   2.187  0.5775 -0.1769  0.4003
  482SOL     OW 1444   1.688   2.251   2.834 -0.3391 -0.0737  0.2004
  482SOL    HW1 1445   1.678   2.216   2.739  1.0008  0.9911  0.7292
  482SOL    HW2 1446   1.785   2.288   2.847 -0.1171 -1.5020  0.1724
  483SOL     OW 1447   0.581   2.121   2.397 -0.0865 -0.7231 -0.2725
  483SOL    HW1 1448   0.588   2.028   2.435 -0.2198 -0.2089 -0.6306
  483SOL    HW2 1449   0.596   2.185   2.474 -0.0823 -2.0727 -1.3631
  484SOL     OW 1450   3.044   0.533   1.127 -0.2435 -0.5819 -0.0276
  484SOL    HW1 1451   3.007   0.447   1.087  2.1150  3.0679 -1.3833
  484SOL    HW2 1452   2.967   0.592   1.162 -0.9535  0.2050  0.3804
  485SOL     OW 1453   2.246   0.708   0.557 -0.1051  0.0762  0.3845
  485SOL    HW1 1454   2.186   0.623   0.554  0.3231 -1.2822  1.1868
  485SOL    HW2 1455   2.187   0.790   0.575 -0.3311 -0.7556  1.9394
  486SOL     OW 1456   1.874   2.921   2.412  0.9822  0.4319 -0.2978
  486SOL    HW1 1457   1.936   3.000   2.405  1.0418 -2.8644 -0.8766
  486SOL    HW2 1458   1.897   2.863   2.488 -0.9358  0.8887  2.1989
  487SOL     OW 1459   1.314   1.369   1.006 -0.0388  0.4850 -0.0247
  487SOL    HW1 1460   1.294   1.280   0.958  0.1350  1.1369  0.2330
  487SOL    HW2 1461   1.397   1.411   0.968  1.6422 -1.5669  0.0818
  488SOL     OW 1462   2.269   1.235   0.058 -0.1967 -0.2387  0.1847
  488SOL    HW1 1463   2.368   1.225   0.040 -2.2575  0.0889  0.7335
  488SOL    HW2 1464   2.247   1.324   0.110 -0.2168 -0.5684 -0.2023
  489SOL     OW 1465   2.429   0.330   0.458  0.3443  0.2540 -0.0887
  489SOL    HW1 1466   2.328   0.311   0.444  0.7168  1.3756  1.2227
  489SOL    HW2 1467   2.488   0.275   0.396 -0.3113  0.0747 -0.5159
  490SOL     OW 1468   1.627   2.869   0.389 -0.3601 -0.6316  0.7214
  490SOL    HW1 1469   1.606   2.895   0.293  1.3029  1.1432  2.7612
  490SOL    HW2 1470   1.542   2.871   0.450 -2.1676  0.9279 -0.0697
  491SOL     OW 1471   1.059   0.872   0.633 -0.0613  0.4058 -0.0137
  491SOL    HW1 1472   0.964   0.900   0.641 -0.3914 -1.7114  1.9166
  491SOL    HW2 1473   1.075   0.842   0.537 -0.4432 -0.9280 -0.1034
  492SOL     OW 1474   1.661   0.346   0.091  0.3042  0.6179  0.0992
  492SOL    HW1 1475   1.639   0.262   0.150  2.8060  3.7914  0.3111
  492SOL    HW2 1476   1.584   0.381   0.030  1.7459  1.3562 -1.2218
  493SOL     OW 1477   1.919   2.297   0.048 -0.4268 -0.2921  0.3507
  493SOL    HW1 1478   1.979   2.352   0.111  2.2396  2.4274  2.9221
  493SOL    HW2 1479   1.823   2.292   0.082  0.6644  0.9425  0.0438
  494SOL     OW 1480   0.528   1.236   0.501 -0.0697 -0.1537  0.0415
  494SOL    HW1 1481   0.483   1.154   0.537 -0.8827  1.9032 -1.2297
  494SOL    HW2 1482   0.569   1.282   0.584 -0.5908 -0.1127  0.4511
  495SOL     OW 1483   0.022   2.651   1.038 -0.1980 -0.6010 -0.1462
  495SOL    HW1 1484   0.025   2.667   0.942  0.5065  1.4642  1.7815
  495SOL    HW2 1485   0.054   2.556   1.057  1.2509  1.1784  0.7412
  496SOL     OW 1486   2.311   0.464   1.916  0.0197  0.2568  0.1813
  496SOL    HW1 1487   2.324   0.488   1.821 -2.5327  2.6784  2.7990
  496SOL    HW2 1488   2.234   0.401   1.919  0.3205 -0.4139 -1.3234
  497SOL     OW 1489   1.865   1.772   2.715 -0.4071  0.0538  0.3948
  497SOL    HW1 1490   1.817   1.755   2.627  0.8432 -0.8377 -1.3169
  497SOL    HW2 1491   1.963   1.738   2.706  2.3914 -0.6054  0.0064
  498SOL     OW 1492   0.855   2.085   0.699 -0.4283 -0.7545 -0.3209
  498SOL    HW1 1493   0.810   1.994   0.681 -2.6512 -1.5973 -0.0451
  498SOL    HW2 1494   0.921   2.073   0.779  2.1193  1.4446  1.9636
  499SOL     OW 1495   0.509   1.841   0.991 -0.3612  0.1435  0.2726
  499SOL    HW1 1496   0.550   1.927   1.023  0.9125 -2.2073 -1.1049
  499SOL    HW2 1497   0.423   1.853   0.934  2.0945  0.1890 -0.7222
  500SOL     OW 1498   1.281   1.953   0.416  0.8996  0.2188  0.1626
  500SOL    HW1 1499   1.243   2.020   0.351  0.1109 -0.9027 -0.7908
  500SOL    HW2 1500   1.293   1.863   0.370 -0.9808  0.2245  2.0995
  501SOL     OW 1501   2.313   2.708   1.213 -0.2284 -0.1170  0.2559
  501SOL    HW1 1502   2.305   2.618   1.266  0.9542 -1.3016  1.3192
  501SOL    HW2 1503   2.242   2.775   1.233  1.3159  0.0820 -0.5893
  502SOL     OW 1504   0.264   0.852   1.467 -0.3665  0.4133  0.0582
  502SOL    HW1 1505   0.233   0.943   1.441  1.0408 -0.0835  3.2489
  502SOL    HW2 1506   0.275   0.796   1.380  2.5462  1.1161 -2.1490
  503SOL     OW 1507   1.778   0.574   1.531 -0.0411 -0.4368 -0.4380
  503SOL    HW1 1508   1.755   0.610   1.437 -0.2276  1.2404  0.1902
  503SOL    HW2 1509   1.841   0.640   1.574 -0.4227 -0.0858 -0.0263
  504SOL     OW 1510   1.580   0.864   2.146  0.4377 -0.3840  0.2259
  504SOL    HW1 1511   1.536   0.855   2.242  1.8753  2.3683  1.5483
  504SOL    HW2 1512   1.513   0.897   2.080 -2.1388 -0.1808  4.5079
  505SOL     OW 1513   1.141   0.180   2.713 -0.4947 -0.1388 -0.8801
  505SOL    HW1 1514   1.146   0.086   2.679  1.0348  1.2609  3.1069
  505SOL    HW2 1515   1.117   0.185   2.813 -0.5549 -0.5652  0.1623
  506SOL     OW 1516   0.324   0.378   1.533  0.3085 -0.4360  0.5031
  506SOL    HW1 1517   0.313   0.293   1.584 -1.5879 -0.2826 -3.6801
  506SOL    HW2 1518   0.292   0.455   1.598 -1.0072  2.3914  0.0684
  507SOL     OW 1519   1.359   3.104   2.972 -0.2762 -0.0002 -0.3487
  507SOL    HW1 1520   1.423   3.035   3.011 -1.5652 -1.8582  0.6952
  507SOL    HW2 1521   1.416   0.057   2.913 -0.6924 -2.9071  0.4981
  508SOL     OW 1522   2.381   0.529   2.643 -0.1431  0.0052  0.3978
  508SOL    HW1 1523   2.318   0.451   2.626  0.5348 -0.6821 -0.1447
  508SOL    HW2 1524   2.382   0.590   2.560 -2.5099 -1.2834  1.5614
  509SOL     OW 1525   0.815   1.537   1.920 -0.0559  0.0075  0.0806
  509SOL    HW1 1526   0.858   1.623   1.898  0.4285 -1.2559 -0.5262
  509SOL    HW2 1527   0.739   1.555   1.986 -0.9590  0.7931  0.8085
  510SOL     OW 1528   3.082   1.160   0.885 -0.0098 -0.6138  0.0837
  510SOL    HW1 1529   3.065   1.256   0.918 -1.4635  1.8617  2.2637
  510SOL    HW2 1530   3.071   1.092   0.964  1.3034  1.5892 -1.7791
  511SOL     OW 1531   1.829   1.655   0.880  0.1758  0.1439  0.4444
  511SOL    HW1 1532   1.777   1.653   0.965  1.4599 -1.1384  0.6540
  511SOL    HW2 1533   1.929   1.667   0.894  0.4640 -0.6368  2.1146
  512SOL     OW 1534   0.790   1.054   0.346 -0.2915 -0.2283  0.2774
  512SOL    HW1 1535   0.734   1.127   0.299 -0.6768  0.5769  0.4646
  512SOL    HW2 1536   0.863   1.107   0.395 -0.7237  2.1840 -0.1004
  513SOL     OW 1537   0.433   2.394   0.565 -0.6715  0.1190 -0.0122
  513SOL    HW1 1538   0.484   2.485   0.563  1.9231  1.3823  1.1387
  513SOL    HW2 1539   0.466   2.341   0.644 -0.9848  1.8414 -0.9719
  514SOL     OW 1540   2.687   2.032   2.389  0.3656 -0.4331  0.5016
  514SOL    HW1 1541   2.677   2.134   2.390 -0.1301 -1.4103  2.5332
  514SOL    HW2 1542   2.728   2.004   2.297  0.4564  0.4493  0.0726
  515SOL     OW 1543   2.661   0.637   0.267 -0.1865 -0.0684 -0.6948
  515SOL    HW1 1544   2.703   0.721   0.307  0.7784 -3.9272 -3.0649
  515SOL    HW2 1545   2.562   0.632   0.287 -0.6008  0.0310  0.1741
  516SOL     OW 1546   2.390   3.014   0.776 -0.3075 -0.0847  0.1357
  516SOL    HW1 1547   2.304   3.069   0.765  0.9987 -2.5239  1.0902
  516SOL    HW2 1548   2.387   2.923   0.727 -1.3104 -1.0736 -0.7593
  517SOL     OW 1549   1.456   1.922   2.908  0.0681  0.9732  0.0795
  517SOL    HW1 1550   1.500   1.869   2.987  0.2349 -1.0976  1.6988
  517SOL    HW2 1551   1.372   1.972   2.936 -0.1069  0.4523  1.7622
  518SOL     OW 1552   0.937   0.974   1.691 -0.0467 -0.1998  0.6246
  518SOL    HW1 1553   0.925   0.907   1.611  0.1950  1.1462  0.1111
  518SOL    HW2 1554   0.995   0.923   1.756  0.4181 -3.2832 -2.6782
  519SOL     OW 1555   2.902   1.696   0.479  0.0465 -0.3476  0.3399
  519SOL    HW1 1556   2.847   1.635   0.544  1.2849 -1.4397 -0.0179
  519SOL    HW2 1557   2.951   1.641   0.414 -1.4826 -0.7289 -0.7867
  520SOL     OW 1558   2.321   2.100   1.825 -0.4583 -0.3370 -0.3737
  520SOL    HW1 1559   2.337   2.193   1.860 -1.3213  0.5351 -1.0456
  520SOL    HW2 1560   2.248   2.061   1.884  1.1624 -0.6978 -0.7667
  521SOL     OW 1561   0.910   2.963   2.669 -0.0178 -0.2255 -0.0166
  521SOL    HW1 1562   0.897   3.035   2.744  1.4573 -0.6056  0.9486
  521SOL    HW2 1563   1.003   2.983   2.628 -2.0724 -0.6001 -1.4349
  522SOL     OW 1564   2.241   0.473   2.229 -0.1737 -0.0611  0.6965
  522SOL    HW1 1565   2.342   0.486   2.238  0.7466  0.3351  0.0346
  522SOL    HW2 1566   2.201   0.558   2.188  1.6643 -3.6532  1.8072
  523SOL     OW 1567   1.970   2.675   1.406 -0.6774 -0.5429 -0.5028
  523SOL    HW1 1568   1.910   2.618   1.470  0.5058 -0.0529  0.1331
  523SOL    HW2 1569   2.048   2.721   1.455  0.6809  0.9511 -0.4149
  524SOL     OW 1570   1.682   2.073   0.128  0.0663 -0.0202 -0.0999
  524SOL    HW1 1571   1.652   2.151   0.068  1.1826 -1.2479 -3.1458
  524SOL    HW2 1572   1.772   2.036   0.102 -0.7390  0.1864 -3.0259
  525SOL     OW 1573   0.111   0.820   0.038  0.1177  0.2597  0.5176
  525SOL    HW1 1574   0.208   0.802   0.014 -0.3845  0.5682 -0.0552
  525SOL    HW2 1575   0.054   0.803   3.065 -0.7507 -3.4089 -2.0479
  526SOL     OW 1576   1.117   2.798   0.569  0.7091 -0.0408 -0.2365
  526SOL    HW1 1577   1.181   2.716   0.577 -0.1665 -3.0004 -4.0640
  526SOL    HW2 1578   1.081   2.830   0.658  1.1367 -1.9119  0.4944
  527SOL     OW 1579   2.692   1.799   0.690 -0.2534 -0.2026  0.2497
  527SOL    HW1 1580   2.645   1.874   0.740  1.2526 -3.2037 -2.5737
  527SOL    HW2 1581   2.632   1.751   0.622 -1.4082 -1.7251 -0.5161
  528SOL     OW 1582   0.700   0.832   2.105 -0.2669  0.0211  0.2796
  528SOL    HW1 1583   0.615   0.879   2.078  3.1832  2.7623 -0.8634
  528SOL    HW2 1584   0.754   0.792   2.023 -1.4047 -3.1176  0.2199
  529SOL     OW 1585   1.528   1.852   2.659  0.0096 -0.4244 -0.2461
  529SOL    HW1 1586   1.520   1.874   2.760 -0.3595  1.7459 -0.3715
  529SOL    HW2 1587   1.428   1.859   2.627 -2.8513  0.2285 -1.6217
  530SOL     OW 1588   1.587   1.135   2.358 -0.2058 -0.2483  0.1876
  530SOL    HW1 1589   1.554   1.172   2.270  0.1017 -0.0812  2.2205
  530SOL    HW2 1590   1.552   1.041   2.384 -2.5868 -2.5155  2.7140
  531SOL     OW 1591   0.612   2.281   2.597 -0.6271  0.1523  0.0231
  531SOL    HW1 1592   0.605   2.383   2.599 -1.9634 -2.2341 -0.6570
  531SOL    HW2 1593   0.595   2.247   2.689 -2.4408  0.9266  1.1878
  532SOL     OW 1594   2.551   0.916   0.569 -0.3323  0.1374  0.0295
  532SOL    HW1 1595   2.544   1.001   0.625  2.6882  0.0712  0.6034
  532SOL    HW2 1596   2.509   0.838   0.614 -0.4735 -0.6077 -2.5058
  533SOL     OW 1597   3.023   0.262   1.684 -0.2005 -0.3465 -0.0743
  533SOL    HW1 1598   3.047   0.350   1.726 -0.9556 -0.0690  2.4209
  533SOL    HW2 1599   2.994   0.267   1.584  2.3329  1.4103  0.2059
  534SOL     OW 1600   0.640   0.108   0.018 -0.4045 -0.3518 -0.0384
  534SOL    HW1 1601   0.576   0.181   0.047  0.8461 -1.5255  1.4259
  534SOL    HW2 1602   0.696   0.131   3.043 -0.8997 -0.0424  1.2466
  535SOL     OW 1603   0.223   0.129   0.115  0.9377 -0.8473 -0.1281
  535SOL    HW1 1604   0.173   0.161   0.033  0.8831  0.4816 -0.9145
  535SOL    HW2 1605   0.165   0.070   0.173 -3.0113 -0.6127  1.8460
  536SOL     OW 1606   0.480   1.645   1.231  0.5526  0.2403  0.3235
  536SOL    HW1 1607   0.484   1.699   1.145 -0.1176  1.0346 -1.5179
  536SOL    HW2 1608   0.520   1.695   1.309  1.5551  0.6237  0.2339
  537SOL     OW 1609   0.874   2.824   1.863 -0.0206  0.2942 -0.7899
  537SOL    HW1 1610   0.949   2.857   1.803 -3.0840 -1.2267  0.6356
  537SOL    HW2 1611   0.901   2.745   1.926 -1.2625 -1.0318  0.4236
  538SOL     OW 1612   0.263   1.914   3.015 -0.0471 -0.3006  0.3007
  538SOL    HW1 1613   0.218   1.867   3.090 -0.0144  2.8673 -2.3888
  538SOL    HW2 1614   0.279   1.849   2.939  2.3076  0.9025  2.3823
  539SOL     OW 1615   2.395   0.860   2.652 -0.1396  0.3034 -0.0860
  539SOL    HW1 1616   2.392   0.821   2.558  1.5409  0.7619  3.5178
  539SOL    HW2 1617   2.487   0.842   2.690  0.0786 -1.2717 -1.6708
  540SOL     OW 1618   1.730   0.456   2.691  0.1535  0.5707 -0.3176
  540SOL    HW1 1619   1.715   0.399   2.777 -0.2945  0.9022  2.6344
  540SOL    HW2 1620   1.819   0.503   2.701  1.1901 -1.5344  0.0327
  541SOL     OW 1621   0.620   3.074   2.112  0.2480  0.1797 -0.1450
  541SOL    HW1 1622   0.614   3.104   2.206 -1.5683 -0.4194  0.9977
  541SOL    HW2 1623   0.665   0.041   2.064 -1.8068  1.7440 -0.6455
  542SOL     OW 1624   1.781   2.694   3.037  1.1188  0.4280  0.1905
  542SOL    HW1 1625   1.791   2.641   2.949 -0.4357  0.2299 -4.8052
  542SOL    HW2 1626   1.791   2.795   3.011  1.2975  2.2317 -3.1391
  543SOL     OW 1627   1.094   0.220   0.521 -0.5067 -0.1924  0.5717
  543SOL    HW1 1628   1.090   0.299   0.457  1.4028  0.8322  1.0608
  543SOL    HW2 1629   1.016   0.161   0.499 -0.0405  3.1233 -0.3633
  544SOL     OW 1630   2.426   1.261   1.908 -0.3423 -0.1439 -0.1458
  544SOL    HW1 1631   2.360   1.191   1.945  0.3334 -0.4700 -3.1697
  544SOL    HW2 1632   2.452   1.330   1.981 -1.5487  2.0771 -0.9225
  545SOL     OW 1633   2.135   1.628   1.213  0.4486 -0.6332 -0.0737
  545SOL    HW1 1634   2.226   1.670   1.218 -3.1174 -0.2809 -1.2896
  545SOL    HW2 1635   2.125   1.579   1.124 -1.7417  1.8568 -2.2570
  546SOL     OW 1636   0.115   0.036   2.100  0.1882 -0.1756 -0.0233
  546SOL    HW1 1637   0.132   0.116   2.045 -1.1012 -0.6189  0.1661
  546SOL    HW2 1638   0.186   0.037   2.177 -0.4130 -0.3826 -0.1059
  547SOL     OW 1639   1.489   0.541   0.986  0.4846  0.0545  0.5182
  547SOL    HW1 1640   1.422   0.604   1.033  0.8044  1.0815  1.9237
  547SOL    HW2 1641   1.524   0.471   1.053 -1.5146 -1.4996 -1.4277
  548SOL     OW 1642   1.467   2.430   2.839 -0.1839 -0.3046  0.0196
  548SOL    HW1 1643   1.387   2.375   2.867  1.1333  1.0853 -1.6162
  548SOL    HW2 1644   1.547   2.368   2.830  1.1899  1.7093  2.4066
  549SOL     OW 1645   2.190   0.533   0.200  0.3042  0.3011  0.6126
  549SOL    HW1 1646   2.181   0.546   0.099  1.3649  1.2382 -1.9335
  549SOL    HW2 1647   2.272   0.582   0.240  1.6022  2.4114  1.3077
  550SOL     OW 1648   2.851   2.011   0.513 -0.1356  0.2067 -0.5494
  550SOL    HW1 1649   2.795   1.949   0.574  1.1488 -0.0696  0.0523
  550SOL    HW2 1650   2.941   1.976   0.488 -2.0226 -1.9269  0.0983
  551SOL     OW 1651   1.237   2.874   2.249 -0.3143 -0.3514  0.4052
  551SOL    HW1 1652   1.284   2.880   2.337 -2.3702 -1.8891 -4.1992
  551SOL    HW2 1653   1.174   2.956   2.238 -1.1722 -0.1885 -0.3095
  552SOL     OW 1654   2.958   2.396   2.584 -0.0259  0.1129 -0.2224
  552SOL    HW1 1655   2.994   2.354   2.497  1.0384 -1.2330  0.1403
  552SOL    HW2 1656   2.891   2.332   2.628  0.6461 -2.5441  0.2805
  553SOL     OW 1657   0.068   0.005   0.857  0.1037 -0.0317  0.0098
  553SOL    HW1 1658   0.079   0.085   0.920  0.6277 -1.0419 -0.5972
  553SOL    HW2 1659   0.004   3.052   0.903 -1.5027 -1.2387  0.4092
  554SOL     OW 1660   2.191   2.196   1.600 -0.3714  0.1271  0.3651
  554SOL    HW1 1661   2.229   2.128   1.657  0.3154  1.1140 -2.5766
  554SOL    HW2 1662   2.228   2.286   1.619  1.6617 -3.5509 -0.1899
  555SOL     OW 1663   1.728   2.240   2.042 -0.0672  0.2776 -0.4332
  555SOL    HW1 1664   1.719   2.141   2.069  1.4916 -0.6906 -1.3023
  555SOL    HW2 1665   1.824   2.269   2.027 -1.0737  0.4908  0.9994
  556SOL     OW 1666   1.230   1.454   1.241 -0.2337  0.0332  0.2943
  556SOL    HW1 1667   1.266   1.417   1.151  1.4992  0.0189 -0.0014
  556SOL    HW2 1668   1.282   1.534   1.269  0.7058 -0.9932 -0.6892
  557SOL     OW 1669   2.196   2.894   1.940 -0.4626 -0.1151 -0.3999
  557SOL    HW1 1670   2.294   2.866   1.953 -1.6203  0.4164 -0.7511
  557SOL    HW2 1671   2.162   2.940   2.026  1.9010 -1.4159 -1.3790
  558SOL     OW 1672   0.252   2.949   1.973  0.1188 -0.2913  0.1175
  558SOL    HW1 1673   0.195   3.032   1.985  0.8531 -0.8407  0.4594
  558SOL    HW2 1674   0.191   2.879   1.922 -2.0691  1.0313 -2.3560
  559SOL     OW 1675   1.903   0.068   0.665  0.2036 -0.7034 -0.7890
  559SOL    HW1 1676   1.994   0.087   0.705  1.5181 -1.1397 -1.6021
  559SOL    HW2 1677   1.875   0.134   0.594 -1.1254  0.6230  1.1327
  560SOL     OW 1678   1.739   2.822   0.638  0.4435  0.6408 -0.2439
  560SOL    HW1 1679   1.741   2.904   0.700 -0.9019  1.8075 -0.4493
  560SOL    HW2 1680   1.695   2.843   0.552  2.6536 -1.3726 -0.8484
  561SOL     OW 1681   0.807   0.178   0.959 -0.7008  0.4932 -0.2718
  561SOL    HW1 1682   0.750   0.260   0.948  0.6903  0.4238  2.8755
  561SOL    HW2 1683   0.849   0.152   0.872  1.4658 -0.9129  3.1873
  562SOL     OW 1684   0.529   0.988   2.491 -0.5079 -0.1444  0.3253
  562SOL    HW1 1685   0.445   1.008   2.436 -0.4079 -0.0988 -0.4999
  562SOL    HW2 1686   0.570   0.903   2.455 -0.8068 -2.3489  0.1603
  563SOL     OW 1687   1.795   2.128   2.422  0.8352 -0.9489 -0.0233
  563SOL    HW1 1688   1.880   2.086   2.456  1.2733  2.7745 -0.6628
  563SOL    HW2 1689   1.778   2.099   2.323 -0.1571  1.9938 -1.1162
  564SOL     OW 1690   2.806   0.928   0.909 -0.5543  0.0556  0.1126
  564SOL    HW1 1691   2.731   0.871   0.948 -0.7000 -0.7294  0.5923
  564SOL    HW2 1692   2.766   1.021   0.885 -1.0424  3.2045 -0.5573
  565SOL     OW 1693   0.971   0.922   0.188 -0.1808  0.1213  0.4491
  565SOL    HW1 1694   0.986   0.968   0.096  2.9725 -0.3420 -3.2420
  565SOL    HW2 1695   0.902   0.976   0.245 -0.7296  0.1687  2.5689
  566SOL     OW 1696   2.212   0.324   2.638  0.4715  0.1705 -0.6604
  566SOL    HW1 1697   2.219   0.248   2.575  2.6791  4.4311  3.4130
  566SOL    HW2 1698   2.151   0.292   2.716 -1.9684 -4.1967 -2.2184
  567SOL     OW 1699   1.678   0.697   0.623  0.5819 -0.2495 -0.2554
  567SOL    HW1 1700   1.599   0.745   0.577 -0.9122 -1.6490  1.9824
  567SOL    HW2 1701   1.767   0.726   0.578  0.0571  0.1176 -2.7632
  568SOL     OW 1702   1.842   1.799   2.987 -0.1048 -0.0584  0.0206
  568SOL    HW1 1703   1.751   1.780   3.030  1.2811  1.2046 -0.7669
  568SOL    HW2 1704   1.845   1.804   2.885  1.7365  0.2809 -1.3369
  569SOL     OW 1705   2.037   1.302   3.021  0.0796 -0.0282 -1.0320
  569SOL    HW1 1706   2.022   1.408   3.029  0.1844  2.5842 -1.2862
  569SOL    HW2 1707   2.127   1.273   3.055 -0.3651 -1.4286 -0.1564
  570SOL     OW 1708   0.311   2.271   1.872 -0.3947  1.1954 -0.0654
  570SOL    HW1 1709   0.400   2.289   1.830  0.3747  0.8387  1.1541
  570SOL    HW2 1710   0.284   2.350   1.930  0.1370  1.2161 -2.0580
  571SOL     OW 1711   0.414   1.284   1.934 -0.3534 -0.3185 -0.5045
  571SOL    HW1 1712   0.500   1.301   1.880  0.4904 -1.7817  0.5172
  571SOL    HW2 1713   0.333   1.252   1.878 -1.1579  0.8016  1.4592
  572SOL     OW 1714   1.537   1.791   0.609  0.1969 -0.1773 -0.3446
  572SOL    HW1 1715   1.483   1.756   0.527 -0.3391  1.1856 -3.2348
  572SOL    HW2 1716   1.639   1.766   0.602  1.5932 -2.4180  0.5508
  573SOL     OW 1717   1.964   2.146   0.492 -0.3013 -0.4651  0.1413
  573SOL    HW1 1718   1.885   2.166   0.434  1.1629  0.9065 -0.5252
  573SOL    HW2 1719   1.958   2.206   0.574 -0.6377 -1.4012 -0.9686
  574SOL     OW 1720   0.766   0.168   1.240  0.7058  0.0367 -0.1356
  574SOL    HW1 1721   0.678   0.121   1.269  0.6718  1.0117  1.6386
  574SOL    HW2 1722   0.772   0.184   1.142 -2.5212 -2.0085 -0.4948
  575SOL     OW 1723   0.574   1.242   1.520 -0.2962 -0.0021  0.1221
  575SOL    HW1 1724   0.633   1.323   1.494 -1.0108  0.2020 -2.4039
  575SOL    HW2 1725   0.607   1.206   1.616 -0.5103 -1.0565  5.4086
  576SOL     OW 1726   2.773   0.048   1.142 -0.9671  0.5220  0.6115
  576SOL    HW1 1727   2.737   3.098   1.071 -1.3580 -1.5486  2.4461
  576SOL    HW2 1728   2.708   0.069   1.217  2.5133  0.2453 -1.7012
  577SOL     OW 1729   0.999   1.252   2.168  0.3691  0.5346 -0.4484
  577SOL    HW1 1730   0.982   1.287   2.070  1.0866  3.6688 -0.2639
  577SOL    HW2 1731   0.968   1.153   2.162 -2.2876  1.9156  0.3708
  578SOL     OW 1732   1.754   1.147   2.575  0.2832  0.4240  0.1354
  578SOL    HW1 1733   1.705   1.182   2.493 -0.1072  3.1102 -2.2088
  578SOL    HW2 1734   1.690   1.157   2.654 -0.1711  1.6437 -2.8368
  579SOL     OW 1735   1.511   2.359   1.916  0.4527  0.2813  0.4785
  579SOL    HW1 1736   1.592   2.312   1.953  1.5547 -0.0969  0.8360
  579SOL    HW2 1737   1.422   2.332   1.958 -1.8013 -0.5119 -1.1272
  580SOL     OW 1738   1.403   1.692   0.340 -0.5450 -0.3655 -0.0838
  580SOL    HW1 1739   1.441   1.603   0.349 -1.0990  0.7119  0.1860
  580SOL    HW2 1740   1.325   1.690   0.280  0.1498  0.3795 -0.0612
  581SOL     OW 1741   1.128   0.914   2.131 -0.1840 -0.2216 -0.4147
  581SOL    HW1 1742   1.031   0.931   2.168 -2.0523  0.8355  0.8490
  581SOL    HW2 1743   1.182   0.864   2.201  0.0736 -1.9455  1.7205
  582SOL     OW 1744   0.763   1.447   1.490 -0.0379  0.6818  0.4227
  582SOL    HW1 1745   0.839   1.507   1.506 -3.3589 -0.7334 -0.7639
  582SOL    HW2 1746   0.738   1.452   1.389  2.4116 -0.6109 -1.0446
  583SOL     OW 1747   0.964   1.270   1.904 -0.1736 -0.2918  0.2277
  583SOL    HW1 1748   0.964   1.220   1.818 -0.9690  0.4108 -1.7708
  583SOL    HW2 1749   0.922   1.361   1.885  1.3440 -1.5809  1.2210
  584SOL     OW 1750   2.614   2.620   0.837  0.3247  0.1395  0.3144
  584SOL    HW1 1751   2.613   2.523   0.870 -0.2536  0.1959  0.6442
  584SOL    HW2 1752   2.555   2.683   0.896 -2.4028  1.0540  0.0584
  585SOL     OW 1753   2.075   0.245   2.883 -0.5695  0.3837  0.1132
  585SOL    HW1 1754   2.155   0.293   2.925  1.1856  2.5901  1.1368
  585SOL    HW2 1755   2.052   0.167   2.942 -0.1432 -1.9826 -0.3029
  586SOL     OW 1756   0.079   2.391   0.788 -0.3054 -0.1225 -0.4703
  586SOL    HW1 1757   0.045   2.423   0.698 -0.8162 -1.6581 -0.2858
  586SOL    HW2 1758   0.020   2.321   0.825  1.8891  1.2447 -1.5797
  587SOL     OW 1759   1.607   1.733   0.002  0.3504  0.2473 -0.0055
  587SOL    HW1 1760   1.624   1.762   0.096  2.4934  0.0108 -1.0395
  587SOL    HW2 1761   1.588   1.630   3.100 -0.6708 -0.0518  1.2009
  588SOL     OW 1762   0.253   0.276   1.287  0.5028 -0.1438 -0.2395
  588SOL    HW1 1763   0.305   0.207   1.340 -0.2826  1.0369  1.0988
  588SOL    HW2 1764   0.216   0.345   1.353  0.9008  1.4718  0.3523
  589SOL     OW 1765   1.427   0.375   0.761  0.3114 -0.6725 -0.4438
  589SOL    HW1 1766   1.333   0.336   0.780 -0.2687  1.3503 -0.9454
  589SOL    HW2 1767   1.452   0.436   0.841 -0.3212  0.0015  0.0859
  590SOL     OW 1768   1.032   1.039   3.053 -0.1018 -0.2076  0.4181
  590SOL    HW1 1769   1.064   1.137   3.047 -1.6820  0.4748 -1.9659
  590SOL    HW2 1770   1.110   0.977   3.066  0.0098 -2.1476 -2.0980
  591SOL     OW 1771   2.665   2.301   2.345 -0.6884 -0.1222 -0.1993
  591SOL    HW1 1772   2.594   2.331   2.413 -3.0796 -0.1357  1.6836
  591SOL    HW2 1773   2.731   2.373   2.324 -0.8263  1.2672  0.9570
  592SOL     OW 1774   1.959   1.835   1.314  0.1939 -0.2252  0.3489
  592SOL    HW1 1775   1.980   1.815   1.411  1.6967  1.1402 -2.1427
  592SOL    HW2 1776   2.008   1.763   1.256  0.9068 -0.5699  0.6697
  593SOL     OW 1777   1.178   0.764   1.443 -0.1307 -0.0081  0.1971
  593SOL    HW1 1778   1.093   0.784   1.491  0.1602 -0.0554  0.3458
  593SOL    HW2 1779   1.166   0.714   1.351 -1.7800  0.2534 -0.2211
  594SOL     OW 1780   2.346   1.074   2.377  0.0215  0.7473  0.3922
  594SOL    HW1 1781   2.282   1.072   2.453  2.3064 -1.3044 -2.2106
  594SOL    HW2 1782   2.380   0.982   2.354  4.1779  2.2241 -1.5656
  595SOL     OW 1783   0.144   0.323   0.343  0.2598  0.3972  0.1358
  595SOL    HW1 1784   0.148   0.410   0.289 -0.8335 -0.7927  1.9816
  595SOL    HW2 1785   0.237   0.308   0.383  2.3389  3.1868  2.3225
  596SOL     OW 1786   0.069   1.432   1.203  0.0437 -0.5398 -0.3345
  596SOL    HW1 1787   0.171   1.425   1.209 -1.4457 -0.5661  1.9254
  596SOL    HW2 1788   0.028   1.405   1.295  1.6001 -0.3511 -0.5103
  597SOL     OW 1789   1.783   1.498   0.433  0.3287 -0.6934 -0.2282
  597SOL    HW1 1790   1.774   1.579   0.494  1.1619 -1.5020 -0.5196
  597SOL    HW2 1791   1.849   1.519   0.360 -0.8498 -1.6353  1.7073
  598SOL     OW 1792   0.310   2.630   1.700  0.3775 -0.1924 -0.3788
  598SOL    HW1 1793   0.316   2.612   1.600 -2.3286 -0.5534  0.5505
  598SOL    HW2 1794   0.406   2.630   1.732 -0.0075 -1.1682 -0.4496
  599SOL     OW 1795   2.567   1.186   2.647  0.3724 -0.6869 -0.6065
  599SOL    HW1 1796   2.557   1.285   2.634 -1.5875 -2.5337  0.0211
  599SOL    HW2 1797   2.467   1.156   2.666 -0.9505 -1.1035  1.0617
  600SOL     OW 1798   0.439   1.171   0.225 -0.1175  0.3667  0.6068
  600SOL    HW1 1799   0.508   1.231   0.183  1.0414 -1.4399 -1.1413
  600SOL    HW2 1800   0.380   1.216   0.288  1.2115 -1.3776 -1.4627
  601SOL     OW 1801   0.576   0.869   0.780 -0.4979 -0.2161  0.2565
  601SOL    HW1 1802   0.567   0.886   0.881  3.2377  1.4668  2.0872
  601SOL    HW2 1803   0.509   0.919   0.724  1.2358  2.0553  1.2427
  602SOL     OW 1804   1.502   2.411   0.532 -0.2142  0.2604 -0.1484
  602SOL    HW1 1805   1.549   2.362   0.607  0.3197 -1.3770  0.1338
  602SOL    HW2 1806   1.575   2.449   0.469 -0.8422 -1.1003 -0.9810
  603SOL     OW 1807   0.934   2.604   2.029 -0.0196  0.1753 -0.0256
  603SOL    HW1 1808   0.970   2.646   2.109 -3.1388 -1.1061 -2.1177
  603SOL    HW2 1809   0.871   2.531   2.065  0.4441  0.0474  0.2325
  604SOL     OW 1810   0.349   0.328   2.324 -0.0886  0.5095  0.0809
  604SOL    HW1 1811   0.318   0.234   2.291  1.1672  1.2446 -0.5705
  604SOL    HW2 1812   0.318   0.395   2.256 -0.0964  0.3526 -1.5219
  605SOL     OW 1813   2.982   1.116   1.469  0.2390  0.0907 -0.2154
  605SOL    HW1 1814   2.968   1.150   1.562 -1.1809  0.2232 -0.5089
  605SOL    HW2 1815   2.939   1.025   1.467  1.2159 -2.2429  0.8474
  606SOL     OW 1816   0.874   1.794   2.684 -0.2931 -0.6829 -0.1880
  606SOL    HW1 1817   0.791   1.824   2.633  0.7916 -0.9766  0.1623
  606SOL    HW2 1818   0.923   1.716   2.637 -1.2013  1.4981  0.0094
  607SOL     OW 1819   0.447   3.033   0.168  0.4873  0.4323  0.6150
  607SOL    HW1 1820   0.515   3.016   0.091  0.0073  0.9825 -2.5412
  607SOL    HW2 1821   0.371   3.091   0.128  0.7445  3.1672 -2.6255
  608SOL     OW 1822   2.399   1.691   2.023 -0.0217 -0.1016 -0.4434
  608SOL    HW1 1823   2.335   1.710   1.944  1.7659  0.8231 -2.5536
  608SOL    HW2 1824   2.357   1.721   2.115 -1.2143 -2.5718 -0.2919
  609SOL     OW 1825   2.616   0.345   1.048  0.1155  0.3191 -0.0628
  609SOL    HW1 1826   2.624   0.377   0.947  2.2898  1.4815 -3.8794
  609SOL    HW2 1827   2.526   0.357   1.084  1.5509  0.6418  1.4682
  610SOL     OW 1828   0.192   2.711   0.392 -0.2778 -0.1728  0.3398
  610SOL    HW1 1829   0.275   2.766   0.362 -0.4850 -0.7010  0.6139
  610SOL    HW2 1830   0.152   2.669   0.312 -1.3563  0.0116  1.9435
  611SOL     OW 1831   1.670   1.165   0.137  0.2992 -0.0052  0.6766
  611SOL    HW1 1832   1.714   1.069   0.139  1.2367 -3.0435 -1.9607
  611SOL    HW2 1833   1.579   1.162   0.170 -0.1693  1.6414 -0.4013
  612SOL     OW 1834   0.709   2.447   1.835 -0.7542 -0.7271  0.0980
  612SOL    HW1 1835   0.752   2.437   1.927  0.7325  0.6185 -0.2018
  612SOL    HW2 1836   0.673   2.544   1.824 -1.9443  1.5606 -0.7336
  613SOL     OW 1837   0.585   2.644   0.585 -0.0703  0.5359 -0.0552
  613SOL    HW1 1838   0.569   2.725   0.646 -1.0428  0.7257 -0.7911
  613SOL    HW2 1839   0.680   2.652   0.540  1.0496 -0.8110  0.0931
  614SOL     OW 1840   2.183   2.811   1.527 -0.0571  0.1452 -0.2673
  614SOL    HW1 1841   2.282   2.781   1.520 -0.2156 -0.3233 -0.4939
  614SOL    HW2 1842   2.147   2.797   1.626 -0.2357  0.9854  1.7730
  615SOL     OW 1843   1.786   0.917   0.131 -0.3760 -0.1628  0.1709
  615SOL    HW1 1844   1.729   0.834   0.139  0.3541  0.0614 -1.7145
  615SOL    HW2 1845   1.884   0.891   0.159 -0.1714 -2.8573  0.9563
  616SOL     OW 1846   1.998   0.812   0.246 -0.5348  0.4280 -0.2983
  616SOL    HW1 1847   2.044   0.907   0.226  3.4461  4.5753 -1.3592
  616SOL    HW2 1848   2.039   0.729   0.201 -0.9665 -2.1329  0.9763
  617SOL     OW 1849   0.992   0.785   2.806  0.1292  0.5669  0.1765
  617SOL    HW1 1850   1.082   0.830   2.778 -1.1242  0.6400 -2.3862
  617SOL    HW2 1851   1.006   0.730   2.892  1.3013  1.1671 -0.3966
  618SOL     OW 1852   0.935   3.009   2.061 -0.1869 -0.3376  0.3470
  618SOL    HW1 1853   0.922   2.935   1.994 -0.9051 -0.3900 -0.2568
  618SOL    HW2 1854   0.894   3.097   2.026  0.6321  1.7350  2.7983
  619SOL     OW 1855   2.993   1.384   1.396 -0.1753  0.2479  0.0281
  619SOL    HW1 1856   2.915   1.432   1.435 -2.2657 -0.0677  1.4134
  619SOL    HW2 1857   2.987   1.282   1.409 -1.3287  0.3320  3.4471
  620SOL     OW 1858   3.108   0.783   2.802 -0.0920 -0.1051  0.4761
  620SOL    HW1 1859   0.028   0.685   2.798  2.3117  0.2175 -1.6480
  620SOL    HW2 1860   0.085   0.841   2.816  3.4445  0.8526 -1.8378
  621SOL     OW 1861   2.346   2.173   2.162  0.0245  0.4847  0.0343
  621SOL    HW1 1862   2.275   2.135   2.098 -1.4935 -0.5736  0.3376
  621SOL    HW2 1863   2.345   2.273   2.176 -0.2694 -1.7518  0.5311
  622SOL     OW 1864   1.262   0.477   1.998 -0.0183  0.0225  0.6830
  622SOL    HW1 1865   1.177   0.506   2.046  1.2605 -0.2885 -2.2461
  622SOL    HW2 1866   1.343   0.461   2.059 -1.6107  2.5534 -0.7606
  623SOL     OW 1867   0.901   1.017   2.237 -0.0271 -0.3081 -0.0939
  623SOL    HW1 1868   0.819   0.961   2.217 -0.0649  2.2549 -0.6247
  623SOL    HW2 1869   0.915   1.021   2.337  1.3072 -2.1071  0.2499
  624SOL     OW 1870   2.747   0.856   0.376 -0.3028 -0.1175  0.3861
  624SOL    HW1 1871   2.655   0.870   0.418  0.2759 -1.8887  0.7703
  624SOL    HW2 1872   2.803   0.811   0.444 -1.2289  1.1148 -0.7345
  625SOL     OW 1873   0.828   1.387   0.824 -0.1445  0.5598 -0.5320
  625SOL    HW1 1874   0.837   1.447   0.905 -1.7176 -2.1684 -0.0741
  625SOL    HW2 1875   0.876   1.302   0.844 -1.5365  0.0763 -2.8452
  626SOL     OW 1876   1.781   0.864   2.588  0.5860 -0.2319  0.2578
  626SOL    HW1 1877   1.845   0.842   2.511 -3.0530 -1.6551 -1.3605
  626SOL    HW2 1878   1.744   0.962   2.576 -0.1213  2.1255 -1.5474
  627SOL     OW 1879   1.158   2.942   2.964  0.2224 -0.2313  0.4861
  627SOL    HW1 1880   1.244   2.999   2.956 -1.2021  0.8610  0.3719
  627SOL    HW2 1881   1.085   2.987   2.910 -0.0293  2.9537 -0.7788
  628SOL     OW 1882   2.059   0.001   2.425  0.0479  0.0632  0.4955
  628SOL    HW1 1883   2.126   3.084   2.496 -1.5503 -3.0311  0.1697
  628SOL    HW2 1884   2.067   0.101   2.411 -0.8324 -1.7390  0.6462
  629SOL     OW 1885   0.748   0.232   2.904 -0.8257  0.2035 -0.0546
  629SOL    HW1 1886   0.676   0.246   2.835 -1.5364  1.0416 -1.0551
  629SOL    HW2 1887   0.814   0.307   2.901 -0.0342 -0.9003 -0.0521
  630SOL     OW 1888   1.016   0.370   2.540  0.1562  0.0249  0.2211
  630SOL    HW1 1889   1.066   0.301   2.598  1.0975 -1.5938 -0.5780
  630SOL    HW2 1890   0.955   0.430   2.594  1.8126  1.8509 -0.3709
  631SOL     OW 1891   2.187   1.212   0.629 -0.6586 -0.0424 -0.1252
  631SOL    HW1 1892   2.131   1.188   0.714 -1.2254 -3.5117  1.2355
  631SOL    HW2 1893   2.129   1.193   0.548  1.2206  1.6283 -0.7590
  632SOL     OW 1894   2.005   1.008   1.567  0.2580  0.0972 -0.2235
  632SOL    HW1 1895   2.086   0.996   1.510 -0.7748  0.5892 -2.3067
  632SOL    HW2 1896   1.929   0.952   1.529  1.6076  2.2324  1.5323
  633SOL     OW 1897   1.156   1.678   0.230  0.1048  0.2982  0.1542
  633SOL    HW1 1898   1.128   1.760   0.177 -0.8032 -2.9500 -0.3814
  633SOL    HW2 1899   1.104   1.669   0.318 -2.3864  1.2562 -1.3885
  634SOL     OW 1900   2.379   3.041   1.494 -0.1434 -0.1041  0.5126
  634SOL    HW1 1901   2.326   3.104   1.549  0.7770  3.7120 -0.9893
  634SOL    HW2 1902   2.401   2.956   1.543 -1.6520  2.6488 -0.5335
  635SOL     OW 1903   1.880   0.261   1.036  0.1692 -0.3140 -0.0059
  635SOL    HW1 1904   1.878   0.315   0.948  0.0352  2.5581 -0.6787
  635SOL    HW2 1905   1.855   0.167   1.021  0.6316  1.7269 -0.4069
  636SOL     OW 1906   0.699   1.299   0.240  0.2334 -0.4064  0.1030
  636SOL    HW1 1907   0.685   1.334   0.333  0.7149  0.9061 -0.5196
  636SOL    HW2 1908   0.767   1.361   0.199  1.0499 -1.1476  0.9496
  637SOL     OW 1909   2.898   2.017   2.970  0.7349  0.9365  0.3087
  637SOL    HW1 1910   2.835   2.064   3.037 -0.5124  3.3967  1.7977
  637SOL    HW2 1911   2.984   2.070   2.953 -0.2582 -2.1949 -0.4916
  638SOL     OW 1912   1.388   2.679   2.913  0.7244  0.4068  0.1179
  638SOL    HW1 1913   1.373   2.729   2.827 -0.7147 -1.2246  1.6251
  638SOL    HW2 1914   1.412   2.581   2.897  2.5595  1.1779 -1.2865
  639SOL     OW 1915   1.415   1.649   1.258  0.1420  0.2513 -0.5253
  639SOL    HW1 1916   1.356   1.729   1.239  0.7623 -0.7187 -2.8840
  639SOL    HW2 1917   1.515   1.662   1.226  0.1768  0.9627 -1.6119
  640SOL     OW 1918   2.256   2.854   0.596 -0.3288 -0.5189 -0.2140
  640SOL    HW1 1919   2.157   2.885   0.609 -4.0686 -0.5564  1.3436
  640SOL    HW2 1920   2.257   2.757   0.586 -0.7321  1.6411  0.8106
  641SOL     OW 1921   2.965   0.004   2.938  0.0313  0.3242  0.2137
  641SOL    HW1 1922   2.911   0.058   3.001  4.1011 -4.2046 -0.4694
  641SOL    HW2 1923   2.978   3.018   2.969 -1.4668  0.8590 -0.8700
  642SOL     OW 1924   2.832   0.679   1.198  0.0463  0.4030 -0.2213
  642SOL    HW1 1925   2.751   0.722   1.155  2.9912 -1.4806 -1.7694
  642SOL    HW2 1926   2.902   0.745   1.227  0.9504 -0.6011  0.0598
  643SOL     OW 1927   0.826   1.809   2.123  0.0885 -0.0134  0.3669
  643SOL    HW1 1928   0.731   1.845   2.136  0.2444  1.2798 -0.8160
  643SOL    HW2 1929   0.854   1.798   2.028 -0.7884 -1.7169  0.3181
  644SOL     OW 1930   1.935   2.340   0.678  0.1800 -0.0978  0.3986
  644SOL    HW1 1931   1.942   2.342   0.784  1.3468 -0.2052  1.1760
  644SOL    HW2 1932   1.920   2.431   0.637  3.4972 -1.3671  0.7089
  645SOL     OW 1933   2.145   1.954   0.935  0.0913 -0.4221  0.4066
  645SOL    HW1 1934   2.121   2.003   0.850 -1.2038 -2.1941  0.0826
  645SOL    HW2 1935   2.199   1.869   0.905  0.6935 -3.4680 -2.0112
  646SOL     OW 1936   1.066   2.484   3.065  0.4868 -0.2421 -0.3200
  646SOL    HW1 1937   1.096   2.578   3.088 -1.6761  0.2925 -0.4463
  646SOL    HW2 1938   1.055   2.432   0.044  3.6904  0.4295 -2.4798
  647SOL     OW 1939   0.578   2.667   1.788  0.2900 -0.1212 -0.1325
  647SOL    HW1 1940   0.550   2.758   1.822  0.6327  1.3192 -0.0272
  647SOL    HW2 1941   0.604   2.678   1.687  1.1369  0.7116  0.4654
  648SOL     OW 1942   1.712   0.560   1.891  0.0763 -0.2530  0.3874
  648SOL    HW1 1943   1.659   0.618   1.826  1.2405  0.5981 -1.4993
  648SOL    HW2 1944   1.686   0.562   1.987  3.7908  1.4712  1.6334
  649SOL     OW 1945   1.734   2.201   0.363 -0.0360 -0.4647 -0.3332
  649SOL    HW1 1946   1.693   2.162   0.445  0.0345 -0.1129 -1.5479
  649SOL    HW2 1947   1.721   2.138   0.287  2.0098 -0.5416  0.8122
  650SOL     OW 1948   1.881   1.716   1.844 -0.5784 -0.1183 -0.1401
  650SOL    HW1 1949   1.976   1.690   1.876  1.9958 -1.4548  2.0131
  650SOL    HW2 1950   1.851   1.655   1.768  0.0057 -3.6928 -1.4936
  651SOL     OW 1951   1.587   2.564   0.071  1.1080  0.9727 -0.0495
  651SOL    HW1 1952   1.576   2.583   0.168 -0.5648 -1.7006 -2.3500
  651SOL    HW2 1953   1.656   2.625   0.024  0.7582 -0.7617 -2.5649
  652SOL     OW 1954   0.551   2.356   0.326 -0.0101  0.2482 -0.5313
  652SOL    HW1 1955   0.510   2.362   0.422  2.1834 -1.0636  1.5704
  652SOL    HW2 1956   0.541   2.440   0.274  0.9635 -1.8602  1.5996
  653SOL     OW 1957   2.496   2.241   1.290 -0.3500 -0.0306 -0.1377
  653SOL    HW1 1958   2.398   2.214   1.294  0.0040 -0.6110  1.2106
  653SOL    HW2 1959   2.512   2.334   1.252  0.3174  2.0149  0.2338
  654SOL     OW 1960   2.815   2.718   1.484 -0.7010  0.4523  0.0741
  654SOL    HW1 1961   2.781   2.815   1.479 -2.4788  1.3424  0.6122
  654SOL    HW2 1962   2.739   2.654   1.465  0.0291 -2.5153  2.6676
  655SOL     OW 1963   3.083   1.934   1.141  0.2657  0.3462 -0.1288
  655SOL    HW1 1964   3.079   1.845   1.190  0.8395  0.2385  0.4375
  655SOL    HW2 1965   3.059   2.013   1.205  2.1293  1.3216  1.6502
  656SOL     OW 1966   3.060   2.823   2.314  0.0338 -0.4361 -0.2424
  656SOL    HW1 1967   3.023   2.871   2.233  0.7400  0.9158  3.3179
  656SOL    HW2 1968   0.051   2.807   2.299  2.5497  0.0225 -0.4906
  657SOL     OW 1969   2.978   1.269   2.783  0.2187  0.2678  0.5539
  657SOL    HW1 1970   2.939   1.289   2.875 -1.0151 -2.9732  1.4542
  657SOL    HW2 1971   2.934   1.332   2.710 -1.1628 -0.3514  0.5878
  658SOL     OW 1972   1.792   1.712   0.617  0.0733  0.4007  0.4517
  658SOL    HW1 1973   1.853   1.787   0.597  1.5891 -0.9276  0.2801
  658SOL    HW2 1974   1.798   1.682   0.715 -0.8541 -1.8810  2.3527
  659SOL     OW 1975   1.189   0.553   1.264  0.0184  0.8763 -0.1026
  659SOL    HW1 1976   1.219   0.593   1.174 -0.1292 -0.9631 -0.6939
  659SOL    HW2 1977   1.260   0.499   1.313 -0.5475 -0.6363  0.0985
  660SOL     OW 1978   1.568   1.467   3.085  0.0344 -0.1770 -0.1232
  660SOL    HW1 1979   1.523   1.393   0.028 -2.0085  0.7549 -2.1077
  660SOL    HW2 1980   1.542   1.465   2.986 -1.7941  0.6199  0.6319
  661SOL     OW 1981   0.216   2.293   0.443  0.4144  0.1214 -1.0483
  661SOL    HW1 1982   0.293   2.338   0.489 -0.3452  1.2015 -1.4383
  661SOL    HW2 1983   0.131   2.356   0.464 -2.5504  3.1735  0.0741
  662SOL     OW 1984   0.267   0.796   2.145 -0.1745 -0.1384 -0.4171
  662SOL    HW1 1985   0.259   0.820   2.245 -2.6131 -2.7169  0.0017
  662SOL    HW2 1986   0.252   0.698   2.120  1.0344  0.3990 -1.3707
  663SOL     OW 1987   1.797   1.347   0.823  0.3306 -0.3390 -0.0235
  663SOL    HW1 1988   1.871   1.324   0.892  1.4724  0.2324  1.9741
  663SOL    HW2 1989   1.792   1.449   0.811 -0.0091 -0.5984  0.3911
  664SOL     OW 1990   0.920   0.761   0.998 -0.1234  0.0311 -0.0796
  664SOL    HW1 1991   0.921   0.674   1.057  1.8148 -2.3591  2.1936
  664SOL    HW2 1992   0.854   0.827   1.038  2.4079 -0.1588 -2.6532
  665SOL     OW 1993   1.020   3.034   0.096  0.9900 -0.8663 -0.2168
  665SOL    HW1 1994   1.073   3.105   0.145  3.7564  0.2687 -0.1602
  665SOL    HW2 1995   1.083   2.987   0.028 -0.4898  1.5254 -1.0647
  666SOL     OW 1996   2.968   0.163   2.546  0.1681 -0.3274  0.6366
  666SOL    HW1 1997   3.044   0.202   2.603  0.0406  2.2996 -0.4259
  666SOL    HW2 1998   2.881   0.218   2.554 -2.7206  0.9648 -1.4321
  667SOL     OW 1999   2.276   1.465   2.353  0.1096 -0.6838 -0.4515
  667SOL    HW1 2000   2.349   1.520   2.403  0.0317  0.7709  1.7859
  667SOL    HW2 2001   2.330   1.400   2.289  0.3326 -2.8229 -0.2958
  668SOL     OW 2002   0.655   1.246   2.524  0.3030  0.1499  0.0712
  668SOL    HW1 2003   0.577   1.311   2.525  3.2900  0.8715 -2.7172
  668SOL    HW2 2004   0.622   1.149   2.531  3.7310 -2.1349  1.8808
  669SOL     OW 2005   2.113   2.335   2.602  0.3693  0.3168 -0.1372
  669SOL    HW1 2006   2.124   2.259   2.538  0.5833  0.7420 -1.8455
  669SOL    HW2 2007   2.168   2.314   2.686  0.5590  0.0028 -1.9195
  670SOL     OW 2008   1.992   1.192   2.419 -0.0224  0.2060  0.1924
  670SOL    HW1 2009   1.914   1.247   2.456 -4.1224 -0.4825  0.9407
  670SOL    HW2 2010   2.062   1.259   2.387  0.9229  1.4156 -1.8756
  671SOL     OW 2011   2.612   1.394   3.049 -0.8155  0.2419  0.0263
  671SOL    HW1 2012   2.579   1.305   3.085  1.2860  0.8061  0.1042
  671SOL    HW2 2013   2.711   1.386   3.021 -0.3838  0.5972  3.1703
  672SOL     OW 2014   2.603   0.989   2.063  0.0723  0.1931 -0.3579
  672SOL    HW1 2015   2.631   0.968   1.972 -3.3106  2.0095 -1.5052
  672SOL    HW2 2016   2.500   1.011   2.069 -3.2901  0.1044  0.5395
  673SOL     OW 2017   2.609   0.791   1.362 -0.2836 -0.1460  0.1093
  673SOL    HW1 2018   2.623   0.890   1.351 -0.6858 -2.0734  0.3365
  673SOL    HW2 2019   2.694   0.737   1.350  2.6305 -0.0328 -0.7675
  674SOL     OW 2020   1.932   1.977   1.794  0.3019  0.1191  0.0692
  674SOL    HW1 2021   1.895   1.888   1.829  0.3625 -3.6950 -2.1203
  674SOL    HW2 2022   1.863   2.030   1.737 -0.0537 -0.2482  3.5098
  675SOL     OW 2023   0.419   0.480   0.940  0.3474  0.2442 -0.3609
  675SOL    HW1 2024   0.495   0.525   0.885 -0.4209  1.0467  0.4811
  675SOL    HW2 2025   0.393   0.395   0.898  2.1071 -0.4355 -0.6840
  676SOL     OW 2026   1.825   1.024   1.262  0.4231 -0.0153 -0.4282
  676SOL    HW1 2027   1.841   1.115   1.299 -1.5929 -0.0649  3.1444
  676SOL    HW2 2028   1.808   0.959   1.336 -2.1919 -1.5933  0.4933
  677SOL     OW 2029   2.056   1.600   2.411  0.5926 -0.0391  0.2866
  677SOL    HW1 2030   2.065   1.621   2.509 -2.7999  0.7063 -3.9546
  677SOL    HW2 2031   2.137   1.546   2.382  0.6439 -0.7301 -1.7745
  678SOL     OW 2032   3.097   1.645   0.795 -0.1480  0.3211  0.1473
  678SOL    HW1 2033   3.093   1.747   0.798 -0.6630  1.2645 -1.3110
  678SOL    HW2 2034   3.013   1.605   0.753 -0.2251 -2.9370  3.7895
  679SOL     OW 2035   2.905   2.605   0.449  0.2241 -0.3383  0.5997
  679SOL    HW1 2036   2.897   2.675   0.374  0.1573 -0.8704  0.8742
  679SOL    HW2 2037   2.872   2.646   0.536  1.8802 -1.8745 -0.4918
  680SOL     OW 2038   0.016   2.382   1.234 -0.1134 -0.1855  0.0256
  680SOL    HW1 2039   0.117   2.384   1.255  2.7747 -1.5755 -1.2646
  680SOL    HW2 2040   3.087   2.295   1.263  2.0207 -0.3419 -1.0824
  681SOL     OW 2041   0.530   1.148   1.070 -0.0553 -0.6528  0.1279
  681SOL    HW1 2042   0.592   1.220   1.117  1.6062  2.1571  3.6235
  681SOL    HW2 2043   0.454   1.187   1.011 -1.2847 -0.2114  0.0943
  682SOL     OW 2044   1.734   2.780   0.926 -0.1857  0.4187 -0.1136
  682SOL    HW1 2045   1.815   2.715   0.933  1.3962 -0.9302 -2.0340
  682SOL    HW2 2046   1.734   2.854   0.998 -0.2562 -0.3170  2.5748
  683SOL     OW 2047   2.261   1.231   1.047 -0.3152  0.7955 -0.4452
  683SOL    HW1 2048   2.326   1.293   1.008 -1.5219 -1.8924  1.8503
  683SOL    HW2 2049   2.307   1.153   1.098  0.8501 -1.0586  1.0354
  684SOL     OW 2050   0.755   2.074   1.932 -0.5158  0.3643 -0.0957
  684SOL    HW1 2051   0.804   2.139   1.872 -2.4523 -0.7103  2.4521
  684SOL    HW2 2052   0.658   2.057   1.896 -2.0296  0.3185 -0.5815
  685SOL     OW 2053   2.201   1.456   0.195  0.3511  0.0397  0.2275
  685SOL    HW1 2054   2.233   1.552   0.172  2.6240 -0.0279  2.5559
  685SOL    HW2 2055   2.108   1.453   0.229  0.8848 -0.2919 -1.7761
  686SOL     OW 2056   3.102   0.657   0.454 -0.9222 -0.2299 -0.2671
  686SOL    HW1 2057   0.000   0.742   0.396 -1.1407 -1.2639 -0.4526
  686SOL    HW2 2058   3.009   0.641   0.486  0.7266  1.6943 -1.6221
  687SOL     OW 2059   1.002   2.984   0.389 -0.1701 -0.2332 -0.1952
  687SOL    HW1 2060   1.041   2.919   0.458  0.5191  1.8652  1.1315
  687SOL    HW2 2061   0.980   2.946   0.301  1.4931  2.4449  3.6315
  688SOL     OW 2062   1.897   1.784   2.209 -0.5639 -0.0079 -0.1929
  688SOL    HW1 2063   1.889   1.740   2.303  0.1677  0.8670  0.4864
  688SOL    HW2 2064   1.820   1.766   2.146  1.2306 -0.0572  1.1561
  689SOL     OW 2065   2.819   0.918   2.228  0.0285 -0.3888 -0.0918
  689SOL    HW1 2066   2.733   0.950   2.182 -0.4850 -2.0090 -0.6600
  689SOL    HW2 2067   2.904   0.973   2.207 -0.0081  0.1975  0.8834
  690SOL     OW 2068   1.660   0.391   1.161 -0.5633 -0.0318  0.1793
  690SOL    HW1 2069   1.579   0.329   1.173  0.1438 -0.6233  0.9230
  690SOL    HW2 2070   1.743   0.333   1.130 -0.6580 -1.8009  2.8927
  691SOL     OW 2071   0.984   1.809   1.607 -0.0636  0.4947  0.0378
  691SOL    HW1 2072   0.978   1.714   1.561  0.7277 -1.0557 -1.3336
  691SOL    HW2 2073   1.062   1.855   1.565 -4.2956  0.8227  1.7838
  692SOL     OW 2074   1.692   0.193   1.976  0.3222 -0.0302  0.3974
  692SOL    HW1 2075   1.631   0.272   2.002  1.9156  0.0901  0.2644
  692SOL    HW2 2076   1.781   0.201   2.019 -2.7338 -0.6650  1.2685
  693SOL     OW 2077   0.612   1.157   2.935  0.2436 -0.2290 -0.0032
  693SOL    HW1 2078   0.662   1.248   2.949  1.9350  0.2767 -1.4863
  693SOL    HW2 2079   0.680   1.083   2.920  0.0665 -1.1292 -1.9887
  694SOL     OW 2080   2.222   2.592   0.837 -0.1598 -0.7442  0.3622
  694SOL    HW1 2081   2.304   2.648   0.862 -1.3311  0.1930 -0.9744
  694SOL    HW2 2082   2.199   2.595   0.738 -2.2765 -0.5733  0.4697
  695SOL     OW 2083   1.376   1.515   2.468  0.3424 -0.2798  0.3929
  695SOL    HW1 2084   1.380   1.554   2.562  1.2683  1.1044  1.0290
  695SOL    HW2 2085   1.329   1.418   2.478 -1.1673 -1.0932 -1.0358
  696SOL     OW 2086   1.368   0.369   1.369  0.3392 -0.3941  0.3088
  696SOL    HW1 2087   1.407   0.309   1.299 -0.8165 -1.8764 -0.1344
  696SOL    HW2 2088   1.435   0.432   1.415  1.1002  1.3935 -0.0073
  697SOL     OW 2089   1.103   0.095   1.888 -0.5802 -0.1933 -0.3514
  697SOL    HW1 2090   1.074   0.016   1.830  0.9955 -0.0827  0.7240
  697SOL    HW2 2091   1.144   0.070   1.973 -3.1507  1.6846  0.7026
  698SOL     OW 2092   1.632   1.534   2.353  0.6073  0.1112  0.4901
  698SOL    HW1 2093   1.621   1.485   2.261 -1.7786  0.2305  0.4878
  698SOL    HW2 2094   1.546   1.525   2.412 -1.0110 -0.3805  0.7413
  699SOL     OW 2095   1.464   1.298   1.329  0.3297  0.0391 -0.4643
  699SOL    HW1 2096   1.493   1.228   1.264  0.5214  1.0108  1.3550
  699SOL    HW2 2097   1.364   1.321   1.314 -0.9773 -0.4322 -2.3314
  700SOL     OW 2098   1.617   0.124   0.269  0.7830  0.1761  0.5223
  700SOL    HW1 2099   1.583   0.164   0.357 -0.6698  2.0764 -0.3072
  700SOL    HW2 2100   1.568   0.035   0.247 -0.2098 -2.2060 -1.7207
  701SOL     OW 2101   0.249   2.989   1.615 -0.1659 -0.1301  0.0536
  701SOL    HW1 2102   0.230   2.909   1.679 -1.5452  1.0448  1.6436
  701SOL    HW2 2103   0.164   3.010   1.568  1.7274  1.8661 -2.4931
  702SOL     OW 2104   1.398   2.813   1.031 -0.0938  0.4208 -0.2173
  702SOL    HW1 2105   1.452   2.774   0.951 -2.3805  1.2651  0.5306
  702SOL    HW2 2106   1.338   2.887   0.993 -2.5612 -3.3937  1.6595
  703SOL     OW 2107   2.523   0.265   2.055 -0.1720 -0.1804 -0.2512
  703SOL    HW1 2108   2.482   0.358   2.035 -0.1074  3.1336 -1.8614
  703SOL    HW2 2109   2.628   0.275   2.031  4.0893 -1.9576  0.0218
  704SOL     OW 2110   1.237   1.856   1.200 -0.5747 -0.4231  0.2621
  704SOL    HW1 2111   1.146   1.829   1.161  1.9497  2.0757 -0.8473
  704SOL    HW2 2112   1.285   1.920   1.141 -0.5044 -1.9690  0.5060
  705SOL     OW 2113   2.909   1.419   2.173  0.4986 -0.6177 -0.3176
  705SOL    HW1 2114   2.849   1.501   2.185 -0.7116  0.8462  2.1471
  705SOL    HW2 2115   2.852   1.336   2.180 -0.4036 -2.2467 -0.6160
  706SOL     OW 2116   1.293   0.052   0.585 -0.7059  0.4998 -0.5070
  706SOL    HW1 2117   1.218   0.107   0.558  1.9136 -4.5375 -2.2237
  706SOL    HW2 2118   1.331   0.076   0.679 -1.3687 -2.4643  0.4438
  707SOL     OW 2119   1.080   2.592   2.488 -0.0792  0.0584 -0.3818
  707SOL    HW1 2120   1.027   2.533   2.425 -0.8838  1.0245 -0.7066
  707SOL    HW2 2121   1.153   2.537   2.533  0.9268  0.4359 -1.7929
  708SOL     OW 2122   0.261   2.352   1.354 -0.1371 -0.4350 -0.2257
  708SOL    HW1 2123   0.235   2.291   1.429  1.0814  1.7145 -1.5777
  708SOL    HW2 2124   0.351   2.330   1.309  2.0478  3.6894 -1.4061
  709SOL     OW 2125   2.036   0.676   2.130  0.2898  0.3881 -0.0561
  709SOL    HW1 2126   1.966   0.748   2.110  0.2583 -1.1042 -1.0504
  709SOL    HW2 2127   2.053   0.616   2.048 -0.0067  1.8885 -1.0979
  710SOL     OW 2128   2.748   0.532   1.577 -0.6373 -0.2421 -0.1903
  710SOL    HW1 2129   2.716   0.455   1.636  1.2201  0.2731 -1.5173
  710SOL    HW2 2130   2.742   0.510   1.479 -0.4601 -0.6308 -2.2782
  711SOL     OW 2131   0.054   2.489   0.521  0.4201  0.1912  0.0708
  711SOL    HW1 2132   0.097   2.581   0.508  0.1883  1.4990 -2.5959
  711SOL    HW2 2133   3.062   2.493   0.493 -2.3037  1.1273 -0.7252
  712SOL     OW 2134   0.292   2.423   2.539 -0.3064  1.0035 -0.2744
  712SOL    HW1 2135   0.387   2.436   2.576 -2.6796  1.3635  0.9965
  712SOL    HW2 2136   0.252   2.515   2.517  1.1178 -1.3922 -1.3684
  713SOL     OW 2137   1.671   0.666   0.057  0.0476 -0.2624  0.2309
  713SOL    HW1 2138   1.586   0.650   0.002 -3.6343  1.0817 -2.2064
  713SOL    HW2 2139   1.750   0.682   3.104  1.3564  0.9558  2.7232
  714SOL     OW 2140   1.629   2.057   0.565 -0.3387 -0.6020 -0.0081
  714SOL    HW1 2141   1.573   1.982   0.601  2.3247  0.7315 -1.1420
  714SOL    HW2 2142   1.622   2.137   0.630 -2.3687  0.1457  1.0694
  715SOL     OW 2143   2.994   0.248   0.396 -0.6152  0.1349  0.1007
  715SOL    HW1 2144   2.971   0.252   0.496 -0.0518  2.3273 -2.1288
  715SOL    HW2 2145   3.089   0.282   0.383 -3.0980  0.3756  0.7802
  716SOL     OW 2146   0.584   0.025   2.380  0.4099 -0.1312 -0.5440
  716SOL    HW1 2147   0.545   0.113   2.410  4.0794 -3.8808  1.4114
  716SOL    HW2 2148   0.601   3.072   2.454  0.6343  0.2658 -2.5497
  717SOL     OW 2149   0.080   0.533   2.817  0.1719  0.3680 -0.5444
  717SOL    HW1 2150   0.168   0.490   2.842 -2.2188 -0.3571 -0.4779
  717SOL    HW2 2151   3.106   0.476   2.825  0.2259  1.9876  0.2749
  718SOL     OW 2152   1.113   0.487   0.398  0.1306 -0.4890  0.6521
  718SOL    HW1 2153   1.156   0.506   0.488  0.8620 -2.1751 -1.0132
  718SOL    HW2 2154   1.184   0.469   0.325  0.2591  1.2380 -0.7110
  719SOL     OW 2155   2.752   2.235   2.667  0.3122 -0.1884  0.2302
  719SOL    HW1 2156   2.649   2.231   2.647 -2.5338 -0.6338  1.6316
  719SOL    HW2 2157   2.798   2.147   2.645 -1.3050 -0.7234  0.8937
  720SOL     OW 2158   1.635   0.872   1.727  0.4890 -0.8128  0.1457
  720SOL    HW1 2159   1.684   0.937   1.785  0.1657 -1.0184 -1.6355
  720SOL    HW2 2160   1.534   0.883   1.722  1.4665 -0.0676  2.7669
  721SOL     OW 2161   2.675   0.527   0.853  0.5898  0.1999  0.3045
  721SOL    HW1 2162   2.612   0.481   0.789  0.6029  1.5477 -1.4188
  721SOL    HW2 2163   2.761   0.556   0.813 -0.0064  1.1492 -2.7191
  722SOL     OW 2164   1.405   2.275   2.500 -1.0287  0.0959 -0.1759
  722SOL    HW1 2165   1.431   2.296   2.404 -1.0813 -2.6534  0.7872
  722SOL    HW2 2166   1.476   2.218   2.552 -0.6637  0.4346  1.7253
  723SOL     OW 2167   0.575   0.260   0.629 -0.4058  0.0755 -0.9851
  723SOL    HW1 2168   0.623   0.305   0.712 -0.0953 -2.8699  0.5612
  723SOL    HW2 2169   0.558   0.318   0.550  0.4211  2.4523 -0.7797
  724SOL     OW 2170   0.988   2.046   2.332 -0.4684  0.7714 -0.2859
  724SOL    HW1 2171   0.976   1.942   2.348 -3.1227 -1.9673  3.3947
  724SOL    HW2 2172   0.913   2.095   2.283 -0.9682 -0.9565 -2.5095
  725SOL     OW 2173   0.216   0.731   1.227 -0.5554  0.1284 -0.4060
  725SOL    HW1 2174   0.219   0.777   1.137 -0.4974  0.4735  0.7864
  725SOL    HW2 2175   0.265   0.637   1.222 -0.7741 -1.0516  0.9395
  726SOL     OW 2176   1.890   0.405   0.802  0.5018  0.2072  0.2663
  726SOL    HW1 2177   1.815   0.466   0.830 -0.8090 -4.3065  0.7284
  726SOL    HW2 2178   1.858   0.333   0.736 -2.6936  1.2936  1.8133
  727SOL     OW 2179   1.792   1.111   2.150 -0.0396 -0.2043  0.4351
  727SOL    HW1 2180   1.867   1.176   2.150 -1.9076 -1.3349 -2.1728
  727SOL    HW2 2181   1.766   1.099   2.247  1.3211  1.7886 -0.5687
  728SOL     OW 2182   1.689   2.794   1.570  0.2051 -0.1770 -0.3167
  728SOL    HW1 2183   1.765   2.837   1.623 -0.4010 -1.8031  0.4903
  728SOL    HW2 2184   1.700   2.696   1.564 -1.9252  1.5970  1.0248
  729SOL     OW 2185   1.348   0.409   1.727 -0.1473  0.6140  0.4738
  729SOL    HW1 2186   1.327   0.311   1.699  0.1401  0.7124  1.4067
  729SOL    HW2 2187   1.327   0.423   1.824  0.4454 -0.3145 -0.9979
  730SOL     OW 2188   0.764   1.976   1.531 -0.7186  0.3501 -0.4278
  730SOL    HW1 2189   0.801   2.061   1.485 -1.5303  1.6225 -0.3155
  730SOL    HW2 2190   0.843   1.914   1.560 -2.1454 -2.0028  0.7168
  731SOL     OW 2191   0.448   0.296   0.057  0.0733  0.1504  0.4468
  731SOL    HW1 2192   0.422   0.388   0.098  1.1278  2.9968  0.0298
  731SOL    HW2 2193   0.375   0.227   0.082 -2.3554 -0.0804  1.6695
  732SOL     OW 2194   0.397   0.896   0.238  0.1945  0.1712 -0.1805
  732SOL    HW1 2195   0.367   0.870   0.145  1.7300 -1.9240  3.3819
  732SOL    HW2 2196   0.422   0.995   0.243  1.5796 -2.4058 -1.4927
  733SOL     OW 2197   1.457   1.712   1.758  0.0186  0.6151  0.4268
  733SOL    HW1 2198   1.464   1.641   1.832  0.9063 -0.3836  0.7148
  733SOL    HW2 2199   1.416   1.669   1.673  1.6801 -0.2118 -0.4675
  734SOL     OW 2200   2.972   2.639   2.041  0.1832 -0.5038  0.0525
  734SOL    HW1 2201   3.062   2.600   2.019 -0.2924 -1.7476 -0.1682
  734SOL    HW2 2202   2.973   2.737   2.066  2.1987  1.2783  1.2653
  735SOL     OW 2203   1.047   2.860   0.816  0.4653  0.2531  0.2447
  735SOL    HW1 2204   1.067   2.764   0.838  1.1297  1.7429 -1.5278
  735SOL    HW2 2205   1.117   2.924   0.855 -1.3897 -1.5208  1.9308
  736SOL     OW 2206   1.235   0.845   2.736 -0.2456 -0.4625 -0.0448
  736SOL    HW1 2207   1.297   0.766   2.726  0.3990  0.1164 -0.9285
  736SOL    HW2 2208   1.287   0.931   2.721 -1.5027 -1.2214 -3.5861
  737SOL     OW 2209   0.031   0.875   0.279 -0.1289  0.0249  0.2111
  737SOL    HW1 2210   0.065   0.864   0.187  1.6681  2.5586  0.8446
  737SOL    HW2 2211   3.050   0.915   0.270  0.7314 -0.2777 -1.0581
  738SOL     OW 2212   0.214   2.641   1.346 -0.0573 -0.4616  0.3402
  738SOL    HW1 2213   0.214   2.543   1.341  2.5067  1.6935 -2.0811
  738SOL    HW2 2214   0.120   2.683   1.332  0.2117  1.2184 -2.0692
  739SOL     OW 2215   1.470   2.946   0.611  0.3314 -0.0542 -0.2178
  739SOL    HW1 2216   1.466   2.903   0.707  0.6383 -3.0687  5.5035
  739SOL    HW2 2217   1.380   2.989   0.578 -1.7453  0.8774 -2.4785
  740SOL     OW 2218   1.728   2.885   1.275  0.4186  0.1774 -0.5088
  740SOL    HW1 2219   1.816   2.857   1.236 -1.5985  0.4331 -1.2389
  740SOL    HW2 2220   1.701   2.834   1.359 -2.0046 -0.9477  2.8967
  741SOL     OW 2221   2.035   0.531   0.624 -0.2644 -0.4078  0.4277
  741SOL    HW1 2222   1.992   0.478   0.697 -3.4429  0.7564 -1.6717
  741SOL    HW2 2223   1.970   0.585   0.566 -0.6286  3.7473  0.6463
  742SOL     OW 2224   1.170   2.530   1.907 -0.2511  0.6005  0.0752
  742SOL    HW1 2225   1.080   2.559   1.931 -0.1960 -0.0648 -0.9352
  742SOL    HW2 2226   1.216   2.500   1.992 -2.5439  0.3035  1.8414
  743SOL     OW 2227   2.391   0.714   1.979  0.5107  0.4266  0.3589
  743SOL    HW1 2228   2.357   0.617   1.961 -0.7962 -1.9106  1.7410
  743SOL    HW2 2229   2.407   0.767   1.890  1.3801  1.7695 -2.7263
  744SOL     OW 2230   2.360   0.654   1.122  0.3580 -0.6386  0.1341
  744SOL    HW1 2231   2.323   0.576   1.065 -1.2685  0.9004  0.4444
  744SOL    HW2 2232   2.358   0.635   1.220  0.9504 -0.1176 -2.1791
  745SOL     OW 2233   2.056   1.301   1.900 -0.5618  0.3121 -0.2500
  745SOL    HW1 2234   2.132   1.350   1.851  1.6099  0.8995  0.9189
  745SOL    HW2 2235   1.990   1.256   1.831 -1.2342 -0.4959 -0.8859
  746SOL     OW 2236   1.432   1.475   0.624 -0.6104  0.2323  0.2534
  746SOL    HW1 2237   1.486   1.492   0.709 -0.1219 -2.3931  2.2118
  746SOL    HW2 2238   1.333   1.481   0.640 -2.2522 -2.9864 -0.7113
  747SOL     OW 2239   1.989   1.323   1.053  0.0458  0.3209  0.2008
  747SOL    HW1 2240   1.936   1.322   1.140 -0.7299  1.3923 -0.1183
  747SOL    HW2 2241   2.078   1.272   1.061 -1.3221  0.4561  1.7059
  748SOL     OW 2242   0.094   3.008   0.227  0.0226 -0.5190  0.2772
  748SOL    HW1 2243   0.109   2.981   0.320  1.3909  2.3753 -1.5402
  748SOL    HW2 2244   0.150   2.945   0.166  3.9537  0.2917  1.4952
  749SOL     OW 2245   0.222   0.518   2.149  0.2174  0.1176 -0.3822
  749SOL    HW1 2246   0.167   0.534   2.232  2.7395 -0.2373  1.7112
  749SOL    HW2 2247   0.163   0.516   2.068 -0.4693  1.9792  2.6307
  750SOL     OW 2248   1.782   2.787   1.889 -0.5784 -0.4910 -0.2368
  750SOL    HW1 2249   1.700   2.835   1.911  5.2239 -2.5158 -1.9098
  750SOL    HW2 2250   1.838   2.832   1.812  0.3367  0.0172  2.9819
  751SOL     OW 2251   2.748   0.445   0.533  0.3864 -0.6192 -0.3355
  751SOL    HW1 2252   2.669   0.389   0.572 -1.7151 -0.3308  0.8973
  751SOL    HW2 2253   2.830   0.398   0.560 -1.5120 -0.8664 -1.3982
  752SOL     OW 2254   0.266   2.526   0.923 -0.2325 -0.2854 -0.3521
  752SOL    HW1 2255   0.287   2.606   0.857  0.9418  2.9468  0.6676
  752SOL    HW2 2256   0.202   2.455   0.884  1.8668 -0.9606  0.4822
  753SOL     OW 2257   0.902   0.303   1.448  0.0310  0.0562  0.1396
  753SOL    HW1 2258   0.883   0.238   1.371 -0.8197  0.5037 -0.6108
  753SOL    HW2 2259   1.002   0.314   1.465 -1.1802 -0.6467 -2.9236
  754SOL     OW 2260   0.740   2.853   2.254 -0.2621 -0.4243 -0.4370
  754SOL    HW1 2261   0.700   2.917   2.184 -2.1736  1.7330  0.2143
  754SOL    HW2 2262   0.831   2.821   2.221 -2.7042  0.7008 -2.5764
  755SOL     OW 2263   2.133   1.057   0.219 -0.1511 -0.0832  0.4748
  755SOL    HW1 2264   2.219   1.041   0.274 -0.6364 -0.0618 -2.6071
  755SOL    HW2 2265   2.150   1.128   0.146  0.0195  1.4100 -0.1557
  756SOL     OW 2266   2.334   1.886   2.610  0.0880  0.1458  0.2482
  756SOL    HW1 2267   2.414   1.877   2.671 -0.7288  0.1343 -1.1308
  756SOL    HW2 2268   2.336   1.972   2.552 -0.3355  1.4304  0.7229
  757SOL     OW 2269   1.461   0.232   1.153  0.5026 -0.0160  0.3690
  757SOL    HW1 2270   1.378   0.223   1.096  1.9694  0.0364 -0.2435
  757SOL    HW2 2271   1.493   0.139   1.186 -0.9596 -1.7107  0.1161
  758SOL     OW 2272   1.517   2.711   0.804 -0.1334 -0.1958 -0.2296
  758SOL    HW1 2273   1.608   2.735   0.843  1.0463  2.1760 -2.1287
  758SOL    HW2 2274   1.529   2.706   0.702  1.0218  2.5479 -2.2676
  759SOL     OW 2275   2.404   0.612   1.394  0.2303 -0.1743 -0.5334
  759SOL    HW1 2276   2.316   0.657   1.414  2.9340 -3.7888 -0.4457
  759SOL    HW2 2277   2.480   0.680   1.395 -1.0742  1.0476 -0.2039
  760SOL     OW 2278   2.358   0.999   1.198 -0.9989 -0.5855 -0.1151
  760SOL    HW1 2279   2.453   1.018   1.234  1.9915 -0.0415 -0.2904
  760SOL    HW2 2280   2.355   0.944   1.113  0.5909  1.5943  0.1752
  761SOL     OW 2281   0.459   0.417   0.414  0.1408 -0.0858  0.3625
  761SOL    HW1 2282   0.548   0.469   0.423  0.1966 -1.9847 -0.1426
  761SOL    HW2 2283   0.385   0.458   0.473 -1.2783  0.7109  1.8263
  762SOL     OW 2284   1.695   1.854   1.297  0.4293  0.6834  0.0043
  762SOL    HW1 2285   1.790   1.880   1.290 -2.2964 -0.9133 -2.6062
  762SOL    HW2 2286   1.671   1.857   1.395 -1.0733 -0.0328 -0.2402
  763SOL     OW 2287   1.201   1.417   1.606 -0.2249 -0.1797  0.0516
  763SOL    HW1 2288   1.162   1.330   1.574  0.8865 -1.7000 -2.0663
  763SOL    HW2 2289   1.182   1.429   1.703 -0.4414 -0.5524 -0.0639
  764SOL     OW 2290   0.001   1.801   2.275 -0.0843 -0.0025 -0.3636
  764SOL    HW1 2291   3.035   1.801   2.209  3.8162 -2.1754  0.8727
  764SOL    HW2 2292   0.008   1.893   2.317 -2.2701 -2.7367  0.4983
  765SOL     OW 2293   1.570   2.438   1.364  0.2997  0.2477 -0.0858
  765SOL    HW1 2294   1.515   2.354   1.388  0.4961  0.2335 -1.7621
  765SOL    HW2 2295   1.509   2.514   1.333 -1.6949  0.2229 -1.4916
  766SOL     OW 2296   0.013   2.601   2.651  0.3161 -0.1163 -0.2321
  766SOL    HW1 2297   3.064   2.684   2.635 -0.8464 -0.2578 -1.0704
  766SOL    HW2 2298   3.063   2.521   2.629 -3.4420  0.5663 -0.4414
  767SOL     OW 2299   1.203   0.856   2.392  0.2881 -0.2464 -0.0964
  767SOL    HW1 2300   1.178   0.913   2.476 -0.6786  1.4967  1.5173
  767SOL    HW2 2301   1.184   0.760   2.404 -2.5532 -1.7516  1.3690
  768SOL     OW 2302   1.170   2.155   0.275  0.2083  0.4457 -0.2761
  768SOL    HW1 2303   1.098   2.113   0.344  0.8206  1.1126 -0.5642
  768SOL    HW2 2304   1.134   2.231   0.220 -0.1581 -2.1964  1.6653
  769SOL     OW 2305   0.462   2.643   1.099  0.2016 -0.2450 -0.0201
  769SOL    HW1 2306   0.373   2.617   1.056 -0.4360  1.4905  1.7381
  769SOL    HW2 2307   0.460   2.699   1.181  0.7167  0.9251 -1.1201
  770SOL     OW 2308   1.468   0.931   2.935 -0.0031 -0.1025  0.3067
  770SOL    HW1 2309   1.404   0.975   2.864  1.3629  1.5088 -0.3350
  770SOL    HW2 2310   1.559   0.921   2.894  1.0232  0.9697 -0.8159
  771SOL     OW 2311   0.282   0.048   2.311 -0.4727  0.3669  0.1813
  771SOL    HW1 2312   0.248   0.028   2.402  2.3370 -1.7737 -0.4720
  771SOL    HW2 2313   0.383   0.025   2.320  0.4597  0.5199 -2.3368
  772SOL     OW 2314   2.191   3.039   2.181  0.1466  0.3501 -0.1374
  772SOL    HW1 2315   2.273   3.101   2.176  3.9148 -1.0070 -2.6895
  772SOL    HW2 2316   2.131   3.061   2.263 -1.2518 -0.2469 -2.3576
  773SOL     OW 2317   0.870   2.250   1.743  0.5208 -1.0724  0.1663
  773SOL    HW1 2318   0.967   2.259   1.769 -0.0672  0.3112  3.8164
  773SOL    HW2 2319   0.808   2.320   1.787  0.3823 -2.7524 -1.2005
  774SOL     OW 2320   1.514   0.026   2.096  0.5670 -0.3954 -0.0892
  774SOL    HW1 2321   1.441   0.091   2.129 -3.1282  0.6040  0.5977
  774SOL    HW2 2322   1.575   0.071   2.030 -0.8610 -0.9048  0.1238
  775SOL     OW 2323   2.248   2.828   0.091  0.2399  0.7222  0.1308
  775SOL    HW1 2324   2.203   2.801   0.001 -1.4086  1.0113 -0.6931
  775SOL    HW2 2325   2.188   2.893   0.145 -1.1971  1.9767  1.6563
  776SOL     OW 2326   2.705   0.733   2.377 -0.6027 -0.3276  0.3826
  776SOL    HW1 2327   2.751   0.642   2.395  1.8264 -0.4485  2.5050
  776SOL    HW2 2328   2.772   0.792   2.327 -1.2583  0.6466 -0.0107
  777SOL     OW 2329   2.440   1.685   2.446  0.0821 -0.3902 -0.1086
  777SOL    HW1 2330   2.535   1.669   2.479 -0.0003 -0.3142  3.7739
  777SOL    HW2 2331   2.402   1.765   2.498  0.3026  1.5738 -0.0080
  778SOL     OW 2332   2.068   0.989   2.230 -1.0406  0.2685 -0.0466
  778SOL    HW1 2333   1.992   0.940   2.188  1.3899  1.8441 -0.2899
  778SOL    HW2 2334   2.040   1.052   2.305  0.0881 -0.7852 -0.4910
  779SOL     OW 2335   3.039   0.380   0.079 -0.1655  0.3535 -0.0183
  779SOL    HW1 2336   3.093   0.438   0.142  1.7692 -3.4007  0.7450
  779SOL    HW2 2337   2.965   0.330   0.128 -1.2952 -0.0619  0.5231
  780SOL     OW 2338   2.799   0.724   3.108  0.4264 -0.4070  0.0574
  780SOL    HW1 2339   2.805   0.651   3.040  1.4997 -2.2953  1.4143
  780SOL    HW2 2340   2.785   0.679   0.087 -0.1262  1.3518  0.4611
  781SOL     OW 2341   0.015   3.006   1.469  0.1556  0.5189  0.1407
  781SOL    HW1 2342   3.093   3.072   1.392  1.0352  1.2016  0.0251
  781SOL    HW2 2343   3.107   2.911   1.442 -0.0152  0.8733 -1.1429
  782SOL     OW 2344   1.862   2.577   0.566  0.8448  0.3857 -0.5604
  782SOL    HW1 2345   1.822   2.539   0.485  1.6254 -0.0117  1.1022
  782SOL    HW2 2346   1.817   2.666   0.594  1.7956 -0.5488 -1.3467
  783SOL     OW 2347   0.706   1.461   1.237  0.3376 -0.0366  0.8005
  783SOL    HW1 2348   0.626   1.524   1.217 -0.0612  2.6642 -0.8139
  783SOL    HW2 2349   0.783   1.475   1.173  1.9493 -0.2982  4.1365
  784SOL     OW 2350   1.356   0.569   2.691 -0.2473  0.9531 -0.0441
  784SOL    HW1 2351   1.328   0.472   2.681 -1.1838 -3.0888  2.5040
  784SOL    HW2 2352   1.438   0.593   2.637 -0.4915  0.3636 -0.2420
  785SOL     OW 2353   2.423   0.342   1.434  0.2023  0.5401 -0.9279
  785SOL    HW1 2354   2.418   0.442   1.454  0.9683 -0.0765  1.4860
  785SOL    HW2 2355   2.356   0.325   1.358  0.5052 -1.9030  0.1500
  786SOL     OW 2356   1.307   2.560   1.653 -0.0208  0.1727 -0.5033
  786SOL    HW1 2357   1.239   2.493   1.612 -1.0839  0.2755  1.7632
  786SOL    HW2 2358   1.280   2.565   1.751  0.8821  0.5631 -2.7860
  787SOL     OW 2359   1.804   0.177   1.343  0.2799 -0.2563 -0.0445
  787SOL    HW1 2360   1.730   0.120   1.303  0.3839 -1.3489  1.2562
  787SOL    HW2 2361   1.779   0.242   1.420  0.1212 -0.9250  0.5506
  788SOL     OW 2362   3.030   1.218   0.450  0.4563 -0.6403 -0.2029
  788SOL    HW1 2363   2.982   1.266   0.525 -1.7265  1.3772  1.7275
  788SOL    HW2 2364   3.082   1.142   0.486  0.1955  1.9472  0.1870
  789SOL     OW 2365   0.502   2.038   1.623 -0.0210  0.4386 -0.0496
  789SOL    HW1 2366   0.591   1.996   1.602  1.9958  0.5657  0.0929
  789SOL    HW2 2367   0.513   2.138   1.651 -0.8716  0.1249  1.2855
  790SOL     OW 2368   0.691   0.347   2.144 -0.5260  0.2954  0.1981
  790SOL    HW1 2369   0.719   0.393   2.230 -1.1587 -0.7032 -1.2101
  790SOL    HW2 2370   0.603   0.394   2.112  1.6810  0.9670  1.0654
  791SOL     OW 2371   2.260   0.471   0.929 -0.2976  0.1617 -0.3820
  791SOL    HW1 2372   2.175   0.459   0.988  2.8594 -1.9522 -0.6935
  791SOL    HW2 2373   2.291   0.383   0.894  1.0461  0.6418  1.7411
  792SOL     OW 2374   1.091   2.955   1.730 -0.8346  0.0657  0.2736
  792SOL    HW1 2375   1.182   2.922   1.752  0.2561  1.4018 -2.2640
  792SOL    HW2 2376   1.065   2.926   1.639  0.6726 -0.5034  0.3706
  793SOL     OW 2377   0.213   0.006   0.636 -0.0294  0.4758 -0.1359
  793SOL    HW1 2378   0.317   0.020   0.646  0.1900 -1.0954  0.7681
  793SOL    HW2 2379   0.158   0.016   0.719  0.8890 -0.3369 -2.9111
  794SOL     OW 2380   0.247   1.179   1.729  0.0435 -0.3270 -0.7547
  794SOL    HW1 2381   0.157   1.127   1.726 -0.4973 -0.3522  1.4805
  794SOL    HW2 2382   0.257   1.228   1.639  5.3555 -3.0219  0.3595
  795SOL     OW 2383   0.336   2.045   2.294  0.2428  0.0536  0.0697
  795SOL    HW1 2384   0.270   2.091   2.357 -0.9470 -1.0014  0.7404
  795SOL    HW2 2385   0.432   2.081   2.308 -1.2889  0.5660 -1.6066
  796SOL     OW 2386   2.520   0.487   2.316 -0.1152  0.1213 -0.3888
  796SOL    HW1 2387   2.545   0.581   2.346  1.3506 -0.6347  0.9591
  796SOL    HW2 2388   2.549   0.473   2.217 -0.7320 -1.0609 -1.2735
  797SOL     OW 2389   2.501   2.276   2.573 -0.0806 -0.9280 -0.8377
  797SOL    HW1 2390   2.453   2.200   2.523 -2.1901 -1.5726 -1.4952
  797SOL    HW2 2391   2.449   2.314   2.653  0.8949 -0.5753  1.4611
  798SOL     OW 2392   2.960   2.906   2.070  0.0703  0.5041  0.0642
  798SOL    HW1 2393   3.030   2.982   2.070  2.1145  1.4354  0.3365
  798SOL    HW2 2394   2.918   2.898   1.981 -0.2535 -0.0474  1.6158
  799SOL     OW 2395   0.246   2.556   2.144  0.5563  0.0636  0.0920
  799SOL    HW1 2396   0.215   2.499   2.219 -0.2739  0.8487 -3.5484
  799SOL    HW2 2397   0.201   2.527   2.060  1.1535 -1.1777  0.1609
  800SOL     OW 2398   0.168   1.867   0.166  0.6173  0.0795 -0.2935
  800SOL    HW1 2399   0.156   1.968   0.183 -0.2121  5.0228  1.6735
  800SOL    HW2 2400   0.135   1.819   0.258 -1.3277  0.8292  2.5199
  801SOL     OW 2401   1.679   1.459   1.335 -0.0574  0.1576 -0.0873
  801SOL    HW1 2402   1.590   1.414   1.311 -0.5756 -2.4610  0.2352
  801SOL    HW2 2403   1.701   1.440   1.433  0.3428  2.6059  0.4023
  802SOL     OW 2404   0.131   0.999   0.489  0.1657 -0.0616  0.1607
  802SOL    HW1 2405   0.063   0.993   0.565  3.8550 -0.2019  0.4680
  802SOL    HW2 2406   0.099   0.941   0.413 -1.4262  2.0511  3.6226
  803SOL     OW 2407   1.178   1.542   1.859 -0.8273 -0.1267 -0.3395
  803SOL    HW1 2408   1.124   1.627   1.848 -1.5785 -0.5338  0.2889
  803SOL    HW2 2409   1.259   1.563   1.916 -0.2838 -1.9514 -0.1137
  804SOL     OW 2410   2.122   1.526   0.942 -0.0436  0.1319  0.6512
  804SOL    HW1 2411   2.068   1.455   0.985  0.8477  0.1274 -1.1328
  804SOL    HW2 2412   2.164   1.496   0.853  1.3161  1.7728 -0.1214
  805SOL     OW 2413   2.899   1.437   2.567  0.0682 -0.0663 -0.3750
  805SOL    HW1 2414   2.953   1.499   2.506 -0.9493 -2.4782  1.6512
  805SOL    HW2 2415   2.867   1.362   2.510 -0.7372 -0.4031 -2.0297
  806SOL     OW 2416   0.344   2.465   0.066  0.3212 -0.0550  0.1081
  806SOL    HW1 2417   0.388   2.509   3.095 -2.2819 -0.0034 -2.0745
  806SOL    HW2 2418   0.403   2.484   0.143 -2.1822 -0.2134 -2.3572
  807SOL     OW 2419   2.383   1.519   3.012 -0.2811 -0.2297 -0.0968
  807SOL    HW1 2420   2.478   1.480   3.032 -1.7755 -1.7315 -1.2566
  807SOL    HW2 2421   2.354   1.589   3.075  1.2918 -0.6483 -4.0830
  808SOL     OW 2422   1.175   2.244   1.272  0.4716  0.0767  0.7255
  808SOL    HW1 2423   1.106   2.168   1.275  0.2497 -1.1077 -1.4208
  808SOL    HW2 2424   1.261   2.222   1.321 -1.6321 -1.8265 -0.4462
  809SOL     OW 2425   2.837   0.686   0.550  0.1839  0.5325 -0.0959
  809SOL    HW1 2426   2.865   0.690   0.653  0.5989 -3.1607  4.8195
  809SOL    HW2 2427   2.789   0.598   0.530 -0.9166 -0.4457  0.0444
  810SOL     OW 2428   0.828   1.528   0.560  0.3181 -0.4679  0.4099
  810SOL    HW1 2429   0.817   1.489   0.651  2.6571  2.1275 -2.2027
  810SOL    HW2 2430   0.892   1.606   0.556 -0.1874  0.0572 -1.4863
  811SOL     OW 2431   1.734   2.455   1.153 -0.1514 -0.1289 -0.3606
  811SOL    HW1 2432   1.757   2.553   1.139 -2.6507  1.5662  0.3852
  811SOL    HW2 2433   1.669   2.450   1.231 -0.0884  1.4235  1.3318
  812SOL     OW 2434   1.417   2.752   1.508  0.0635 -0.1942 -0.0081
  812SOL    HW1 2435   1.511   2.776   1.533  0.6349  1.0620 -0.7439
  812SOL    HW2 2436   1.386   2.682   1.578  2.2762 -2.9050 -0.0716
  813SOL     OW 2437   0.701   3.029   1.690  0.0953  0.2968  0.3087
  813SOL    HW1 2438   0.625   2.978   1.647  1.9232  1.8945 -0.3656
  813SOL    HW2 2439   0.722   2.989   1.779 -0.5249  1.7462 -2.4669
  814SOL     OW 2440   1.021   2.729   2.266 -0.0040  0.0873 -0.3072
  814SOL    HW1 2441   1.103   2.776   2.236 -1.8814  0.7967  0.8445
  814SOL    HW2 2442   1.045   2.694   2.360  0.0830 -2.5883  1.9003
  815SOL     OW 2443   0.489   3.015   2.843 -0.6925 -0.4749 -0.0848
  815SOL    HW1 2444   0.472   2.944   2.774  2.3107 -0.2513 -1.4218
  815SOL    HW2 2445   0.530   3.092   2.793  1.3793  0.1550  0.6462
  816SOL     OW 2446   2.300   0.647   2.890  0.2913  0.1191  0.3079
  816SOL    HW1 2447   2.327   0.598   2.804  1.1816  0.8058 -3.3934
  816SOL    HW2 2448   2.373   0.700   2.938 -2.0651 -1.2865  4.4412
  817SOL     OW 2449   2.538   2.707   2.242 -0.6884 -0.0304 -0.0511
  817SOL    HW1 2450   2.635   2.671   2.230 -0.7417  0.6101 -1.5401
  817SOL    HW2 2451   2.518   2.693   2.341 -0.7922  0.8348  0.5717
  818SOL     OW 2452   1.062   0.742   0.406 -0.0996 -0.0990  0.6125
  818SOL    HW1 2453   1.059   0.644   0.394 -0.4827  0.2062  0.3155
  818SOL    HW2 2454   1.021   0.787   0.320  2.5363 -0.4226 -3.4535
  819SOL     OW 2455   1.746   1.477   2.707 -0.0335  0.4264  0.1962
  819SOL    HW1 2456   1.795   1.562   2.731  1.7294  0.1636  3.9361
  819SOL    HW2 2457   1.784   1.435   2.623  1.4513 -0.5459 -3.4624
  820SOL     OW 2458   3.017   1.674   2.480 -0.1165  0.2483 -0.4555
  820SOL    HW1 2459   3.053   1.728   2.559  0.4944 -1.0352 -1.3582
  820SOL    HW2 2460   3.057   1.709   2.392  3.5982  0.9275 -1.3577
  821SOL     OW 2461   0.286   2.706   0.723 -0.4242  0.0020  0.1882
  821SOL    HW1 2462   0.333   2.797   0.710  0.4095  3.3726 -1.8541
  821SOL    HW2 2463   0.303   2.648   0.644  1.7829  0.2481  2.3347
  822SOL     OW 2464   2.328   2.547   2.934 -0.0312 -0.3215 -0.1982
  822SOL    HW1 2465   2.309   2.445   2.934 -0.6357  3.2041  2.4162
  822SOL    HW2 2466   2.423   2.563   2.978  0.3446  0.3348 -0.0509
  823SOL     OW 2467   1.695   0.056   2.565  0.0586  0.1134 -0.3367
  823SOL    HW1 2468   1.686   0.145   2.523  2.2818 -1.5794 -0.3205
  823SOL    HW2 2469   1.649   3.093   2.509  1.1309  0.5953  1.1790
  824SOL     OW 2470   2.677   2.270   2.060  0.2615  0.4383  0.2210
  824SOL    HW1 2471   2.731   2.350   2.027  1.1750 -0.0569 -1.6205
  824SOL    HW2 2472   2.627   2.288   2.149 -0.2324 -0.7803  1.6959
  825SOL     OW 2473   3.009   2.246   2.348 -0.0083  0.1194 -0.4620
  825SOL    HW1 2474   3.061   2.164   2.385  0.3446 -1.3872 -2.4815
  825SOL    HW2 2475   2.952   2.206   2.277  2.2170  3.0137  1.3718
  826SOL     OW 2476   1.952   0.613   2.708  0.0971  0.0523 -0.4511
  826SOL    HW1 2477   2.014   0.687   2.745  0.8577 -0.1160  1.1193
  826SOL    HW2 2478   1.984   0.571   2.620  0.9342 -0.4525 -2.4843
  827SOL     OW 2479   2.679   1.587   1.737 -0.0820  0.4739 -0.3157
  827SOL    HW1 2480   2.692   1.640   1.820 -0.3168  0.5297  1.0479
  827SOL    HW2 2481   2.751   1.604   1.671 -0.6623  1.3237  1.6634
  828SOL     OW 2482   3.010   0.000   1.250 -0.7828  0.3718 -0.4203
  828SOL    HW1 2483   3.056   3.049   1.181  0.0752  1.0995 -1.1800
  828SOL    HW2 2484   2.916   0.020   1.218  2.2243  2.7423 -1.4363
  829SOL     OW 2485   1.000   2.009   2.753 -0.3360 -0.3520  0.5014
  829SOL    HW1 2486   0.956   2.100   2.720  2.9040 -0.3678 -0.4269
  829SOL    HW2 2487   0.936   1.932   2.734  1.1644 -3.6823  1.4119
  830SOL     OW 2488   0.669   0.958   1.417 -0.3771  0.1805  1.1270
  830SOL    HW1 2489   0.630   1.056   1.433 -2.5096  0.5306  2.5624
  830SOL    HW2 2490   0.600   0.888   1.445 -1.6738  1.7030 -1.3410
  831SOL     OW 2491   2.836   1.835   2.769  0.3140  0.0207 -0.2349
  831SOL    HW1 2492   2.807   1.740   2.804  0.2482  0.2878  1.1929
  831SOL    HW2 2493   2.840   1.897   2.850  1.3094 -0.3316 -0.5570
  832SOL     OW 2494   1.881   2.559   2.795 -0.3255 -0.6476 -0.4553
  832SOL    HW1 2495   1.914   2.468   2.823 -0.5921  1.4638 -1.6953
  832SOL    HW2 2496   1.789   2.545   2.746  0.0589 -0.9588 -2.0917
  833SOL     OW 2497   0.820   0.163   2.012  0.0612 -0.5821 -0.1943
  833SOL    HW1 2498   0.868   0.208   1.931  1.2755  2.3451 -0.1510
  833SOL    HW2 2499   0.778   0.238   2.067 -0.8614  3.9248  0.8002
  834SOL     OW 2500   2.965   0.267   1.418  0.0193  0.1433 -0.3884
  834SOL    HW1 2501   2.980   0.187   1.355  0.0517 -0.5706 -1.3412
  834SOL    HW2 2502   2.895   0.327   1.377  2.6453 -0.3068  1.6881
  835SOL     OW 2503   2.807   0.416   0.236  0.5488  0.9195  0.0698
  835SOL    HW1 2504   2.743   0.490   0.262 -0.4545  2.6114  0.1845
  835SOL    HW2 2505   2.882   0.393   0.301 -2.5597  0.9015  1.3479
  836SOL     OW 2506   1.637   1.835   0.266 -0.4026 -0.2237  0.6255
  836SOL    HW1 2507   1.548   1.796   0.296  1.3336  0.8778  0.2176
  836SOL    HW2 2508   1.617   1.927   0.229  1.2908 -1.5811  0.1176
  837SOL     OW 2509   1.978   1.894   0.565 -0.4129 -0.1179 -0.1127
  837SOL    HW1 2510   2.074   1.876   0.597 -2.3851 -0.7872 -1.5028
  837SOL    HW2 2511   1.964   1.994   0.543 -1.1284  0.5325 -0.5727
  838SOL     OW 2512   1.484   0.890   2.405  0.0866 -0.0159  0.5745
  838SOL    HW1 2513   1.499   0.816   2.474 -2.5424 -0.5283 -0.4662
  838SOL    HW2 2514   1.384   0.897   2.392 -1.3793 -2.6435  1.4367
  839SOL     OW 2515   0.725   1.313   2.254  0.0631 -0.1402  0.0323
  839SOL    HW1 2516   0.721   1.278   2.351  1.6885 -1.2882  1.1180
  839SOL    HW2 2517   0.821   1.309   2.219  1.2797  0.0856 -1.8886
  840SOL     OW 2518   1.056   1.667   0.503 -0.0484 -0.3291 -0.2132
  840SOL    HW1 2519   1.103   1.735   0.558 -0.8838 -4.5965 -1.8318
  840SOL    HW2 2520   1.095   1.582   0.533 -1.8201  3.2433 -0.4484
  841SOL     OW 2521   1.675   2.309   0.711 -0.3908 -0.0836 -0.3227
  841SOL    HW1 2522   1.780   2.318   0.696  2.5381  1.2893  0.3218
  841SOL    HW2 2523   1.652   2.329   0.805  0.9315 -1.2191 -2.8903
  842SOL     OW 2524   0.358   0.743   0.011  0.2796 -0.1557  0.2281
  842SOL    HW1 2525   0.388   0.664   0.062  1.4881  0.1003  1.9788
  842SOL    HW2 2526   0.420   0.770   3.046 -1.8264  0.3963  1.3334
  843SOL     OW 2527   0.487   0.001   0.573 -0.0082 -0.1588  0.0762
  843SOL    HW1 2528   0.536   3.058   0.500  4.3532 -0.1491 -0.0856
  843SOL    HW2 2529   0.534   0.087   0.596  0.1641 -1.7334  0.2348
  844SOL     OW 2530   2.374   0.067   2.531  0.0537  0.8467 -0.0949
  844SOL    HW1 2531   2.427   0.091   2.616 -3.4390 -2.4771 -2.7762
  844SOL    HW2 2532   2.409   3.098   2.478 -1.8913  1.4526 -2.9125
  845SOL     OW 2533   3.007   2.368   1.823 -0.2148  0.3708  0.7288
  845SOL    HW1 2534   2.923   2.417   1.844 -1.0594  0.3332  0.4904
  845SOL    HW2 2535   2.988   2.277   1.772  1.3455 -3.2545 -2.5961
  846SOL     OW 2536   1.838   1.406   2.455 -0.3247  0.0724 -0.0201
  846SOL    HW1 2537   1.918   1.472   2.452 -3.2145 -0.5934 -1.2673
  846SOL    HW2 2538   1.759   1.448   2.405 -0.5091 -1.8809  0.7496
  847SOL     OW 2539   0.877   0.676   1.939 -0.1764 -0.1583  0.7314
  847SOL    HW1 2540   0.822   0.643   1.857 -2.6683  1.4609  0.4949
  847SOL    HW2 2541   0.944   0.744   1.911 -1.5542 -1.6310  0.3796
  848SOL     OW 2542   2.429   0.043   2.810  0.2922 -0.2249  0.5532
  848SOL    HW1 2543   2.511   3.094   2.820 -0.3655  0.8315  0.4634
  848SOL    HW2 2544   2.424   0.131   2.858 -0.4030  2.2668 -2.4711
  849SOL     OW 2545   0.237   2.876   0.013 -0.1545  0.1254 -0.3766
  849SOL    HW1 2546   0.195   2.862   3.031  2.6478  0.9301 -2.1990
  849SOL    HW2 2547   0.338   2.876   0.009 -0.8760 -2.3552  1.6906
  850SOL     OW 2548   1.089   2.609   0.929  0.3320 -0.4327 -0.7571
  850SOL    HW1 2549   1.140   2.551   0.999 -0.0887 -0.9788  1.2640
  850SOL    HW2 2550   1.069   2.555   0.843  2.4824 -0.7425  0.2876
  851SOL     OW 2551   2.071   0.489   2.476 -0.1124  0.1295 -0.4070
  851SOL    HW1 2552   2.135   0.519   2.403 -3.1234 -1.8197  0.8952
  851SOL    HW2 2553   2.119   0.427   2.544 -0.5316  0.7879 -1.7636
  852SOL     OW 2554   1.349   0.309   2.650 -0.0601  0.0893  0.1178
  852SOL    HW1 2555   1.428   0.252   2.676 -0.3851  1.5479  1.9632
  852SOL    HW2 2556   1.266   0.255   2.679 -0.3490  0.3815 -1.3607
  853SOL     OW 2557   2.941   2.834   2.943 -0.6786  0.3162  0.2237
  853SOL    HW1 2558   2.964   2.763   3.020 -2.8847 -1.0364  2.8552
  853SOL    HW2 2559   2.868   2.799   2.890  2.5998  0.3287  1.2581
  854SOL     OW 2560   1.933   0.749   2.377 -0.3816 -1.1404 -0.0557
  854SOL    HW1 2561   2.014   0.769   2.436 -1.1542  0.7165 -1.6087
  854SOL    HW2 2562   1.970   0.691   2.303 -1.0401  1.2184  4.9001
  855SOL     OW 2563   0.527   2.615   0.210  0.5676  0.1606  0.2044
  855SOL    HW1 2564   0.475   2.701   0.228  1.7509  1.6503  2.1977
  855SOL    HW2 2565   0.628   2.639   0.188  2.5894 -0.8252  1.8262
  856SOL     OW 2566   0.160   3.044   2.516  0.3691 -0.2319 -0.3720
  856SOL    HW1 2567   0.162   2.943   2.514 -0.6517 -1.5575  1.0248
  856SOL    HW2 2568   0.080   3.077   2.565 -1.2771 -0.0269  0.5869
  857SOL     OW 2569   1.084   0.204   1.194  0.2645 -0.2466 -0.4377
  857SOL    HW1 2570   1.093   0.243   1.288  3.5982 -0.1428 -0.6258
  857SOL    HW2 2571   0.992   0.195   1.163  2.4852  1.4669  3.5179
  858SOL     OW 2572   2.578   1.980   1.801  0.0563  0.0236  0.2988
  858SOL    HW1 2573   2.631   2.038   1.735 -1.4721 -0.1676  0.2739
  858SOL    HW2 2574   2.501   2.031   1.840  2.3090  0.3746 -3.2360
  859SOL     OW 2575   1.956   2.358   1.990  0.4713 -0.2147  0.2625
  859SOL    HW1 2576   1.908   2.416   1.919  0.1543  0.0718  0.7574
  859SOL    HW2 2577   1.995   2.413   2.062  0.0208 -3.6160 -0.8512
  860SOL     OW 2578   1.813   0.356   0.520 -0.2413  0.2307 -0.2277
  860SOL    HW1 2579   1.833   0.419   0.441 -0.3625  0.5569 -3.0203
  860SOL    HW2 2580   1.720   0.313   0.509  0.7860  0.4652 -0.7561
  861SOL     OW 2581   2.982   0.343   0.643 -0.4235 -0.1706  0.2837
  861SOL    HW1 2582   3.078   0.329   0.664 -0.0532  0.0686  1.2275
  861SOL    HW2 2583   2.929   0.270   0.689 -1.4960 -1.1944  1.5333
  862SOL     OW 2584   0.904   2.682   2.655  0.1868 -0.3069  0.4948
  862SOL    HW1 2585   0.901   2.785   2.664 -0.7116  3.3056  4.2595
  862SOL    HW2 2586   0.982   2.655   2.596  0.1015 -0.2183 -1.0638
  863SOL     OW 2587   0.512   0.510   1.410  0.0307  0.3326 -0.4832
  863SOL    HW1 2588   0.459   0.441   1.461  1.8149 -0.0184 -0.1268
  863SOL    HW2 2589   0.463   0.521   1.322  0.2533 -1.2550  2.5677
  864SOL     OW 2590   2.894   2.896   1.822 -0.3304 -0.2576 -0.2809
  864SOL    HW1 2591   2.917   2.985   1.769 -1.2348  2.2608  0.5615
  864SOL    HW2 2592   2.919   2.821   1.764 -0.9262  1.4729  0.6396
  865SOL     OW 2593   0.446   1.387   2.860 -0.1799 -0.3753 -0.0202
  865SOL    HW1 2594   0.451   1.287   2.865  4.4652  1.6612  0.6443
  865SOL    HW2 2595   0.474   1.435   2.947 -0.3520  2.4527  2.4962
  866SOL     OW 2596   0.065   0.188   3.030 -0.3772 -0.5383 -0.1027
  866SOL    HW1 2597   3.103   0.244   3.075  1.5970 -0.9567  1.9738
  866SOL    HW2 2598   0.018   0.106   2.990  2.3375  0.1360 -0.0476
  867SOL     OW 2599   2.626   2.985   2.688 -0.0909 -0.6746 -0.2131
  867SOL    HW1 2600   2.722   3.021   2.673  3.0216  0.8204  0.0208
  867SOL    HW2 2601   2.604   2.925   2.611  0.0681  1.9110 -0.6765
  868SOL     OW 2602   1.268   0.950   0.321  0.1331 -0.4531 -0.3631
  868SOL    HW1 2603   1.178   0.912   0.289 -2.2416 -2.7641  2.0908
  868SOL    HW2 2604   1.338   0.945   0.250 -0.0801  3.0916  1.3001
  869SOL     OW 2605   2.871   1.354   0.631 -0.0830  0.1924  0.2778
  869SOL    HW1 2606   2.871   1.448   0.672 -3.0326 -2.0991  2.4677
  869SOL    HW2 2607   2.812   1.300   0.689  1.2280 -0.6794  0.9791
  870SOL     OW 2608   2.496   1.678   0.477 -0.1513  0.5427  0.0932
  870SOL    HW1 2609   2.495   1.726   0.389 -5.7168 -1.3341  2.1195
  870SOL    HW2 2610   2.546   1.588   0.463 -0.1095  1.4382  0.6488
  871SOL     OW 2611   1.137   1.455   0.650  0.0364  0.1920  0.0491
  871SOL    HW1 2612   1.143   1.351   0.662  2.8521 -2.4871  0.8354
  871SOL    HW2 2613   1.085   1.488   0.731  1.0258  0.6986 -1.7817
  872SOL     OW 2614   1.365   1.972   1.713  0.6163 -0.4417 -0.1706
  872SOL    HW1 2615   1.313   1.965   1.624  1.3813 -0.2086 -1.1219
  872SOL    HW2 2616   1.380   1.874   1.738  0.2670  2.4728 -0.4632
  873SOL     OW 2617   0.984   1.768   2.343 -0.0582  0.2104  0.4190
  873SOL    HW1 2618   0.960   1.690   2.399 -0.3144  1.2709 -2.6480
  873SOL    HW2 2619   0.920   1.764   2.262 -0.9475 -0.8354  1.6818
  874SOL     OW 2620   1.063   2.065   0.889  0.5050 -0.2924  0.0859
  874SOL    HW1 2621   1.148   2.121   0.887  2.2523  1.9574  0.5010
  874SOL    HW2 2622   1.083   1.980   0.938 -2.3819  1.2582 -0.0340
  875SOL     OW 2623   2.340   0.292   1.171  0.1099 -0.3526  0.1962
  875SOL    HW1 2624   2.251   0.343   1.169  1.3397  0.4126 -0.3748
  875SOL    HW2 2625   2.329   0.196   1.201 -1.4961 -1.1809 -0.9673
  876SOL     OW 2626   0.722   0.640   0.164  0.0055  0.2311 -0.6260
  876SOL    HW1 2627   0.698   0.710   0.235 -0.0941 -0.4745 -0.0076
  876SOL    HW2 2628   0.749   0.557   0.215  0.1524  1.2342 -0.3548
  877SOL     OW 2629   2.789   0.421   1.278  0.9061 -0.0651  0.2168
  877SOL    HW1 2630   2.716   0.408   1.205 -1.2907  0.9099  0.5582
  877SOL    HW2 2631   2.836   0.509   1.250  2.0451 -1.9798 -0.9693
  878SOL     OW 2632   2.215   2.359   0.441 -0.3587 -0.4638 -0.1399
  878SOL    HW1 2633   2.150   2.390   0.368  3.1739  2.0607  1.5035
  878SOL    HW2 2634   2.202   2.261   0.463 -0.2337  1.7438  2.3448
  879SOL     OW 2635   2.743   1.508   1.457  0.0848  0.1345 -0.0399
  879SOL    HW1 2636   2.687   1.513   1.367 -0.9337  1.8263 -1.4164
  879SOL    HW2 2637   2.691   1.459   1.529  0.6904  0.5244 -3.1796
  880SOL     OW 2638   1.405   2.637   1.229  0.7245 -0.1977 -0.0789
  880SOL    HW1 2639   1.401   2.707   1.156 -0.8129  0.1878  1.7269
  880SOL    HW2 2640   1.401   2.691   1.313  1.1553  0.4357 -3.1769
  881SOL     OW 2641   1.127   2.510   0.418  0.2669 -0.8724 -0.1754
  881SOL    HW1 2642   1.147   2.416   0.446  1.2619  1.2411  0.7007
  881SOL    HW2 2643   1.197   2.572   0.456 -0.0008 -1.1302  1.1522
  882SOL     OW 2644   1.743   0.874   1.487 -0.0952 -0.7296 -0.1544
  882SOL    HW1 2645   1.689   0.894   1.573  1.1528  0.2721  1.5548
  882SOL    HW2 2646   1.679   0.835   1.421 -1.8427 -0.8486  0.3785
  883SOL     OW 2647   1.306   0.180   2.214  0.8004  0.1840  0.0316
  883SOL    HW1 2648   1.322   0.230   2.309  0.3545  1.7137 -0.2636
  883SOL    HW2 2649   1.219   0.126   2.218  0.1645 -0.6325  2.6582
  884SOL     OW 2650   0.102   0.566   0.203  0.5450  0.4913 -0.6777
  884SOL    HW1 2651   0.033   0.597   0.274 -0.8033 -1.3837 -1.4587
  884SOL    HW2 2652   0.095   0.617   0.115  1.2380  3.6223 -3.7966
  885SOL     OW 2653   0.811   1.344   3.040  0.0306 -0.4044 -0.2052
  885SOL    HW1 2654   0.803   1.442   3.068 -1.6907 -0.4451  0.1024
  885SOL    HW2 2655   0.859   1.295   0.007 -0.1179  1.2087 -0.6375
  886SOL     OW 2656   1.518   1.471   2.823 -0.1116 -0.0871 -0.0802
  886SOL    HW1 2657   1.440   1.534   2.792 -0.1007 -1.5061  1.5976
  886SOL    HW2 2658   1.599   1.491   2.768 -0.6923  0.6710 -0.6922
  887SOL     OW 2659   1.259   0.667   1.685  0.9383  0.3337  0.2374
  887SOL    HW1 2660   1.217   0.676   1.595 -3.1328 -0.6016  1.0551
  887SOL    HW2 2661   1.301   0.579   1.699 -0.3791  2.1814  0.0351
  888SOL     OW 2662   2.824   0.535   1.898  0.4077  0.6152 -0.2672
  888SOL    HW1 2663   2.843   0.616   1.959 -0.4024 -1.1354  0.7533
  888SOL    HW2 2664   2.852   0.548   1.801 -1.8362  1.0233 -0.0523
  889SOL     OW 2665   3.059   2.786   0.764 -0.0952  0.1256 -0.2544
  889SOL    HW1 2666   3.031   2.878   0.740 -0.6073 -1.0061  0.8725
  889SOL    HW2 2667   0.053   2.777   0.735  3.0213 -0.9421  1.2313
  890SOL     OW 2668   2.981   2.689   0.042  0.1291  0.4108 -0.2845
  890SOL    HW1 2669   3.075   2.669   0.073 -2.2195 -1.0605  1.1795
  890SOL    HW2 2670   2.925   2.704   0.130  0.7703  0.0687  1.0845
  891SOL     OW 2671   0.960   1.697   3.066  0.0047  0.0381 -0.2820
  891SOL    HW1 2672   1.053   1.724   3.090  1.2831  1.5995 -0.2805
  891SOL    HW2 2673   0.956   1.657   2.974  2.0175 -0.5995 -0.2110
  892SOL     OW 2674   2.909   3.004   0.885 -0.2228 -0.1362  0.2661
  892SOL    HW1 2675   2.926   3.007   0.781 -1.0532 -3.1465 -0.9287
  892SOL    HW2 2676   2.810   2.992   0.896 -1.3649  0.5635  1.6131
  893SOL     OW 2677   0.741   3.030   1.014 -0.0657 -0.0944 -0.2053
  893SOL    HW1 2678   0.733   3.004   1.110  1.3109 -0.5929 -1.4415
  893SOL    HW2 2679   0.764   0.021   1.000 -0.2111  1.5159 -1.2370
  894SOL     OW 2680   3.037   1.002   0.674 -0.3408  0.3202  0.2768
  894SOL    HW1 2681   2.991   0.914   0.705 -1.1671 -2.5903  0.8120
  894SOL    HW2 2682   3.050   1.062   0.757 -1.4195 -1.3740  0.9354
  895SOL     OW 2683   2.614   2.819   1.815 -0.4528  0.2736 -0.0319
  895SOL    HW1 2684   2.566   2.805   1.907 -1.9900 -3.1808  0.7932
  895SOL    HW2 2685   2.709   2.853   1.818 -1.8898  0.7715 -0.4450
  896SOL     OW 2686   1.160   0.238   1.456 -0.0344  0.4219 -0.6100
  896SOL    HW1 2687   1.245   0.273   1.409 -0.6740 -0.5794  0.1344
  896SOL    HW2 2688   1.190   0.196   1.544  0.4307 -2.1415 -0.7104
  897SOL     OW 2689   0.983   1.769   1.875 -0.4741 -0.1472 -0.3757
  897SOL    HW1 2690   0.966   1.762   1.777  0.8804 -0.5524  1.8186
  897SOL    HW2 2691   1.034   1.859   1.893  0.1203  0.4755  2.6192
  898SOL     OW 2692   1.792   2.492   1.808  0.2313 -0.2144 -0.5621
  898SOL    HW1 2693   1.761   2.486   1.710  1.3824 -0.9426  1.6789
  898SOL    HW2 2694   1.762   2.578   1.849 -2.6041 -0.4950  2.0328
  899SOL     OW 2695   0.974   0.460   0.876 -0.0571 -0.1613  0.3322
  899SOL    HW1 2696   0.963   0.470   0.974  2.3599  1.5572 -1.6692
  899SOL    HW2 2697   1.016   0.550   0.849 -1.1938  0.1452  0.6328
  900SOL     OW 2698   1.912   2.388   2.439  0.1787  0.1015  0.5189
  900SOL    HW1 2699   1.855   2.307   2.439 -2.5008  1.3203 -0.8112
  900SOL    HW2 2700   1.984   2.387   2.512  1.9102  0.4022 -0.0700
  901SOL     OW 2701   0.946   2.261   2.699 -0.2555 -0.0847 -0.1772
  901SOL    HW1 2702   1.049   2.264   2.694 -0.7253  1.2629  0.3695
  901SOL    HW2 2703   0.899   2.328   2.757 -0.8802  2.0966  2.0527
  902SOL     OW 2704   2.090   0.930   0.625 -0.2151 -0.0745  0.5535
  902SOL    HW1 2705   2.090   1.004   0.552  0.0551  3.3863 -1.0077
  902SOL    HW2 2706   2.085   0.976   0.716 -2.1698  2.7546  0.3763
  903SOL     OW 2707   1.902   0.766   0.485  0.1701 -0.3318 -0.7740
  903SOL    HW1 2708   1.927   0.792   0.394  2.4906 -1.3116  0.8786
  903SOL    HW2 2709   1.972   0.814   0.550  0.8097  3.5284  0.2165
  904SOL     OW 2710   0.799   0.965   2.947 -0.1340 -0.3550  0.2201
  904SOL    HW1 2711   0.868   0.986   3.019 -1.1415  1.0629 -0.2178
  904SOL    HW2 2712   0.842   0.912   2.873  0.5252 -1.3651  1.0051
  905SOL     OW 2713   2.145   0.125   0.808  0.3200 -0.3802 -0.3829
  905SOL    HW1 2714   2.238   0.169   0.800  1.7842 -0.0270 -2.0145
  905SOL    HW2 2715   2.111   0.116   0.908  0.0575 -1.8349  3.8630
  906SOL     OW 2716   3.019   2.139   1.316 -0.6125  0.4272 -0.6441
  906SOL    HW1 2717   3.043   2.126   1.415  2.6761  0.2117 -0.6175
  906SOL    HW2 2718   2.918   2.156   1.301 -0.6068  0.7062 -0.4392
  907SOL     OW 2719   0.947   0.663   3.099  0.0636  0.6540 -0.1593
  907SOL    HW1 2720   0.863   0.652   0.044  0.9311  2.2332  1.9603
  907SOL    HW2 2721   0.995   0.746   0.021  0.6124  2.2808  1.1824
  908SOL     OW 2722   2.380   2.787   0.959 -0.0147  0.0332 -0.5056
  908SOL    HW1 2723   2.347   2.741   1.043 -0.9740  0.4384 -0.8025
  908SOL    HW2 2724   2.385   2.886   0.979  0.2345  1.9298 -3.6562
  909SOL     OW 2725   2.233   0.961   1.437  0.1801  0.2867 -0.0754
  909SOL    HW1 2726   2.220   0.859   1.432 -1.1936 -1.6778 -2.9799
  909SOL    HW2 2727   2.276   0.986   1.346  1.1737  0.2982  1.0591
  910SOL     OW 2728   1.401   2.685   2.102  0.3979 -0.5543  0.0912
  910SOL    HW1 2729   1.339   2.728   2.173  0.6323 -2.3755 -1.2896
  910SOL    HW2 2730   1.357   2.612   2.053 -1.2059  1.6994  1.4753
  911SOL     OW 2731   2.966   0.496   2.254  0.3424 -0.3806 -0.3875
  911SOL    HW1 2732   2.940   0.551   2.173 -1.5848  2.9410  0.1526
  911SOL    HW2 2733   2.900   0.419   2.270 -2.7130  0.7387 -0.1866
  912SOL     OW 2734   0.132   1.074   1.363 -0.1995  0.3474  0.4279
  912SOL    HW1 2735   0.167   1.165   1.388 -1.2983 -1.6073 -0.1739
  912SOL    HW2 2736   0.031   1.069   1.354 -2.2746  1.6275  2.1308
  913SOL     OW 2737   2.710   2.166   1.647 -0.4893  0.0593 -0.1522
  913SOL    HW1 2738   2.796   2.148   1.702  0.3521  0.4661  3.8184
  913SOL    HW2 2739   2.711   2.112   1.558  2.5275  2.2607 -0.4713
  914SOL     OW 2740   1.461   0.705   1.368  0.1069 -0.1453  0.1180
  914SOL    HW1 2741   1.483   0.639   1.440  0.7723  2.2143  2.9591
  914SOL    HW2 2742   1.364   0.737   1.384 -1.9164  0.8382 -0.0161
  915SOL     OW 2743   1.511   0.514   1.544 -0.0889  0.8251 -0.5512
  915SOL    HW1 2744   1.460   0.472   1.620 -1.7151  0.2446 -2.6359
  915SOL    HW2 2745   1.615   0.520   1.562  2.0524 -2.7230  0.1184
  916SOL     OW 2746   2.583   2.562   1.454 -0.0411  0.3924  0.3091
  916SOL    HW1 2747   2.572   2.523   1.357  0.1381 -1.0659  1.0537
  916SOL    HW2 2748   2.569   2.493   1.524  0.4205  1.0675 -1.4162
  917SOL     OW 2749   2.481   2.077   0.250 -0.1246  0.1614 -0.3451
  917SOL    HW1 2750   2.434   2.112   0.167 -1.8600  1.4894 -0.6834
  917SOL    HW2 2751   2.566   2.133   0.269 -1.0303  1.0253 -0.7729
  918SOL     OW 2752   1.979   2.754   2.613  0.0966  0.2950  0.3708
  918SOL    HW1 2753   2.081   2.749   2.628 -0.6795  0.1350  1.4058
  918SOL    HW2 2754   1.933   2.691   2.676 -2.5696  1.7682 -0.2275
  919SOL     OW 2755   1.125   2.394   1.541  0.0642  0.1509 -0.0818
  919SOL    HW1 2756   1.124   2.330   1.622 -1.5141 -0.2869  1.2027
  919SOL    HW2 2757   1.126   2.349   1.448  0.4384  0.0620 -2.8560
  920SOL     OW 2758   2.984   0.078   2.276 -0.2416 -0.0873  0.0388
  920SOL    HW1 2759   3.010   0.115   2.368 -0.8630  1.1151  3.2380
  920SOL    HW2 2760   3.061   0.080   2.211 -1.6859  0.7636 -2.6450
  921SOL     OW 2761   0.003   0.814   1.550  0.5235  0.5300 -0.5334
  921SOL    HW1 2762   3.101   0.902   1.597  0.8351 -1.1018  2.0225
  921SOL    HW2 2763   0.103   0.804   1.522  1.0204 -2.8213 -1.1780
  922SOL     OW 2764   2.321   2.062   0.470 -0.0571  0.0339  0.1991
  922SOL    HW1 2765   2.409   2.052   0.417  0.1124  0.0574 -0.5862
  922SOL    HW2 2766   2.248   1.998   0.441  1.8974 -0.3002  0.5537
  923SOL     OW 2767   0.828   1.971   0.110 -0.4265 -0.2847  0.2753
  923SOL    HW1 2768   0.751   1.933   0.053 -1.4631 -0.3217 -1.0950
  923SOL    HW2 2769   0.849   2.066   0.076  1.2657  1.4358 -0.2784
  924SOL     OW 2770   0.842   0.438   0.324  0.7820  0.0881 -0.2684
  924SOL    HW1 2771   0.838   0.337   0.343  0.3986  2.5354  2.8797
  924SOL    HW2 2772   0.938   0.461   0.299 -0.5607  1.3039  2.0114
  925SOL     OW 2773   2.519   0.370   0.701 -0.0864 -0.2186 -0.2747
  925SOL    HW1 2774   2.495   0.369   0.598  2.2569  0.8564 -0.5411
  925SOL    HW2 2775   2.495   0.280   0.745  0.6469  0.8922  1.6739
  926SOL     OW 2776   0.354   0.501   1.191 -0.4445 -0.2864 -0.4346
  926SOL    HW1 2777   0.391   0.491   1.098  2.3948 -0.7468  0.2344
  926SOL    HW2 2778   0.311   0.414   1.217  1.4551  2.1760 -0.6112
  927SOL     OW 2779   0.204   1.339   2.489 -0.0110 -0.7044  0.2669
  927SOL    HW1 2780   0.133   1.360   2.420 -1.3641 -2.1213  0.3909
  927SOL    HW2 2781   0.171   1.273   2.564  2.9790 -0.3240 -2.4433
  928SOL     OW 2782   2.891   0.914   2.929  0.7063 -0.1333 -0.3900
  928SOL    HW1 2783   2.855   0.846   2.998 -1.1575 -0.0909 -2.1856
  928SOL    HW2 2784   2.972   0.870   2.885  0.4307 -0.1168  2.1175
  929SOL     OW 2785   2.589   0.065   1.361 -0.4842  0.0035 -0.1349
  929SOL    HW1 2786   2.584   0.159   1.391 -0.3766  4.1339 -0.6133
  929SOL    HW2 2787   2.509   0.013   1.395 -1.3656  2.1346  1.0205
  930SOL     OW 2788   1.888   1.198   1.723  0.5085  0.2769  0.6092
  930SOL    HW1 2789   1.825   1.155   1.790  0.5854  3.0799 -2.5989
  930SOL    HW2 2790   1.939   1.132   1.663 -2.4440 -0.8919 -0.4327
  931SOL     OW 2791   2.007   1.115   0.451  0.0144  0.4658 -0.3353
  931SOL    HW1 2792   2.029   1.078   0.359  2.9873 -0.8757 -1.4920
  931SOL    HW2 2793   1.914   1.159   0.468  1.4974  1.8491  1.7163
  932SOL     OW 2794   2.718   1.193   0.862 -0.1419  0.4200  0.6845
  932SOL    HW1 2795   2.634   1.205   0.805  0.4436  1.2368  2.0129
  932SOL    HW2 2796   2.711   1.247   0.945 -0.6884  1.3749 -1.1569
  933SOL     OW 2797   2.585   1.532   1.223  0.2141  0.8722 -0.3141
  933SOL    HW1 2798   2.520   1.612   1.212 -2.4476 -2.3301 -0.2349
  933SOL    HW2 2799   2.543   1.441   1.225  0.2864 -3.9392 -0.1443
  934SOL     OW 2800   1.855   0.413   2.315 -0.2592 -0.4304  0.0238
  934SOL    HW1 2801   1.787   0.372   2.374  2.3499  1.3927  1.1358
  934SOL    HW2 2802   1.923   0.473   2.368 -0.0062  0.1019 -2.8178
  935SOL     OW 2803   0.261   1.608   0.844 -0.2320  0.3275  0.7075
  935SOL    HW1 2804   0.159   1.613   0.818 -3.2708  1.3050 -1.5295
  935SOL    HW2 2805   0.281   1.696   0.895 -0.8085 -0.2803 -0.0583
  936SOL     OW 2806   0.353   0.780   0.487 -0.0520  0.4113 -0.1616
  936SOL    HW1 2807   0.383   0.834   0.407 -0.6888  1.2848  1.2455
  936SOL    HW2 2808   0.337   0.841   0.565  0.9480  1.3221 -3.4917
  937SOL     OW 2809   2.369   3.036   1.103 -0.2399  0.5929  0.6104
  937SOL    HW1 2810   2.464   3.009   1.130 -1.3280  2.8883  3.9759
  937SOL    HW2 2811   2.305   3.004   1.175 -0.4140  0.6180 -2.4953
  938SOL     OW 2812   2.714   2.384   0.509 -0.0469  0.3799 -0.3780
  938SOL    HW1 2813   2.785   2.450   0.484 -1.2379 -3.5238  0.3086
  938SOL    HW2 2814   2.625   2.417   0.469  1.3442 -0.7465  2.4838
  939SOL     OW 2815   0.979   2.066   0.451  0.1998 -0.0463  0.2322
  939SOL    HW1 2816   0.928   1.987   0.418 -0.9687  1.2221  1.3612
  939SOL    HW2 2817   0.942   2.083   0.542  1.5412  1.4015 -2.1433
  940SOL     OW 2818   2.966   0.319   2.839  0.3074 -0.5547 -0.4380
  940SOL    HW1 2819   3.023   0.240   2.813  1.5222  0.8189 -0.2706
  940SOL    HW2 2820   2.892   0.330   2.768 -2.0633 -1.2312 -1.2799
  941SOL     OW 2821   1.178   0.210   2.978  0.2340  0.1472 -0.4287
  941SOL    HW1 2822   1.239   0.133   2.947  1.3979 -1.0087  1.1549
  941SOL    HW2 2823   1.173   0.196   3.080 -0.4006  0.6778 -0.8078
  942SOL     OW 2824   1.125   1.197   1.316 -0.4333 -0.1037  0.1306
  942SOL    HW1 2825   1.149   1.294   1.299  0.6142 -1.0510 -0.7409
  942SOL    HW2 2826   1.062   1.159   1.245  0.2723 -1.6924 -2.3955
  943SOL     OW 2827   1.370   0.969   2.001 -0.0169  0.2660 -0.7216
  943SOL    HW1 2828   1.361   0.978   1.900  2.0962  0.8316 -0.4083
  943SOL    HW2 2829   1.286   0.934   2.050 -2.6296  1.3782 -0.6907
  944SOL     OW 2830   1.672   1.112   1.889  0.6520  0.5714  0.1000
  944SOL    HW1 2831   1.614   1.194   1.881  2.4098 -1.5223 -0.4463
  944SOL    HW2 2832   1.691   1.095   1.985 -2.2955 -0.8751 -1.5440
  945SOL     OW 2833   2.964   3.108   0.228  0.0947  0.3325  0.4458
  945SOL    HW1 2834   3.062   3.077   0.234 -2.7477  0.1971 -1.7977
  945SOL    HW2 2835   2.966   0.100   0.261  2.1260  1.6039  0.7482
  946SOL     OW 2836   2.952   0.732   2.043  0.0568  0.2098 -0.7386
  946SOL    HW1 2837   3.021   0.804   2.011 -1.1478 -0.5102  1.4121
  946SOL    HW2 2838   2.902   0.780   2.119  2.6884 -3.3134  1.7814
  947SOL     OW 2839   0.394   2.866   0.345  0.2956 -0.1964 -0.0174
  947SOL    HW1 2840   0.484   2.863   0.392 -1.3931  2.9915  0.2924
  947SOL    HW2 2841   0.399   2.928   0.264 -0.2721 -0.8243  0.1880
  948SOL     OW 2842   2.317   1.211   1.519  0.5935 -0.5405  0.1483
  948SOL    HW1 2843   2.261   1.248   1.596 -0.3600 -0.1538 -0.4107
  948SOL    HW2 2844   2.300   1.111   1.502 -1.2592  0.1406 -1.4011
  949SOL     OW 2845   0.677   0.771   2.371 -0.3603 -0.0492 -0.4294
  949SOL    HW1 2846   0.691   0.773   2.270 -1.6298  2.5749 -1.4008
  949SOL    HW2 2847   0.589   0.729   2.407 -2.2071 -1.3195 -2.1574
  950SOL     OW 2848   0.449   3.060   0.946  0.0787  0.2265 -0.0552
  950SOL    HW1 2849   0.548   3.055   0.967  1.5997  0.3063  0.1444
  950SOL    HW2 2850   0.427   2.999   0.868  1.0142  1.4867  1.5612
  951SOL     OW 2851   0.999   1.482   2.292  0.5074 -0.7246 -0.3087
  951SOL    HW1 2852   1.010   1.561   2.229  0.8315 -0.1234 -1.2265
  951SOL    HW2 2853   0.990   1.395   2.242 -0.1847  1.1325  0.1169
  952SOL     OW 2854   0.755   1.567   0.075  0.3103 -0.7614 -0.3994
  952SOL    HW1 2855   0.839   1.622   0.053  0.9365 -0.5717  0.2562
  952SOL    HW2 2856   0.747   1.566   0.182  1.6578  1.1603  1.5873
  953SOL     OW 2857   2.567   0.251   2.444 -0.1707  0.1062  0.2503
  953SOL    HW1 2858   2.534   0.336   2.392  2.0357  0.4758 -0.1045
  953SOL    HW2 2859   2.489   0.187   2.468 -1.5127  0.5265 -0.8580
  954SOL     OW 2860   1.582   1.166   0.849  0.4433  0.3782 -0.2657
  954SOL    HW1 2861   1.613   1.072   0.825  0.9732  0.7188  0.8810
  954SOL    HW2 2862   1.654   1.235   0.830 -0.2811  0.5709 -0.6076
  955SOL     OW 2863   0.416   1.977   2.727  0.4408  0.1033  0.4300
  955SOL    HW1 2864   0.353   1.901   2.764  1.0984  0.0290  2.0305
  955SOL    HW2 2865   0.450   2.018   2.813 -1.6813 -1.2037 -0.2547
  956SOL     OW 2866   1.646   0.595   2.175 -0.2135 -0.2414 -0.3529
  956SOL    HW1 2867   1.727   0.551   2.220 -0.4850  0.0899 -0.9327
  956SOL    HW2 2868   1.635   0.695   2.195 -4.2807 -0.1330 -1.3455
  957SOL     OW 2869   1.996   2.035   2.825  0.1136  0.1756 -0.3870
  957SOL    HW1 2870   2.036   1.975   2.897 -1.9183  1.1736 -0.1567
  957SOL    HW2 2871   1.952   1.979   2.752  0.0680  0.7779 -1.5688
  958SOL     OW 2872   1.224   1.858   1.478 -0.2803  0.0467 -0.4065
  958SOL    HW1 2873   1.294   1.781   1.492  3.1670 -0.7400 -1.3925
  958SOL    HW2 2874   1.221   1.879   1.381  0.7008 -0.3984  2.7055
  959SOL     OW 2875   2.288   2.265   2.853 -0.2176  0.2885 -0.7268
  959SOL    HW1 2876   2.382   2.225   2.878  3.7703 -0.1110  2.1231
  959SOL    HW2 2877   2.215   2.219   2.906  0.4477 -2.6327 -0.1237
  960SOL     OW 2878   3.103   0.841   2.496 -0.0879 -0.4367 -0.1883
  960SOL    HW1 2879   3.062   0.813   2.583  0.2790  1.1086 -1.0724
  960SOL    HW2 2880   3.071   0.936   2.483 -1.4264 -1.7925  1.6918
  961SOL     OW 2881   0.886   0.863   2.537 -0.1260  0.1360  0.0038
  961SOL    HW1 2882   0.798   0.831   2.497 -2.3213 -2.1929 -1.5939
  961SOL    HW2 2883   0.915   0.796   2.614 -1.5016 -2.7918  0.0402
  962SOL     OW 2884   0.837   1.265   2.753 -0.6709 -0.3297 -0.1880
  962SOL    HW1 2885   0.836   1.282   2.858 -2.0627  0.9389  2.4433
  962SOL    HW2 2886   0.742   1.242   2.721 -0.7191  0.1418 -2.2990
  963SOL     OW 2887   2.473   2.457   0.388 -0.4376 -0.4539  0.2535
  963SOL    HW1 2888   2.454   2.533   0.323  1.9090  0.0552 -0.8704
  963SOL    HW2 2889   2.389   2.407   0.424 -3.7261 -0.7583  3.8981
  964SOL     OW 2890   0.917   2.544   1.419 -0.1361 -0.4968 -0.0387
  964SOL    HW1 2891   0.974   2.506   1.497 -1.4326 -0.0834 -0.8484
  964SOL    HW2 2892   0.957   2.631   1.373  0.8871  0.2376  0.9377
  965SOL     OW 2893   1.525   1.455   0.370  0.3605  0.3828 -0.1809
  965SOL    HW1 2894   1.627   1.451   0.374  0.7791 -0.8362  0.3150
  965SOL    HW2 2895   1.494   1.453   0.472  0.1465  3.4636  1.7632
  966SOL     OW 2896   0.134   1.697   0.423 -0.2877  0.6324  0.0600
  966SOL    HW1 2897   0.231   1.670   0.431 -0.0751 -1.3847  0.9277
  966SOL    HW2 2898   0.075   1.618   0.399  0.9653 -2.8722  1.1379
  967SOL     OW 2899   1.958   0.198   2.133  0.9075 -0.2016  0.1176
  967SOL    HW1 2900   2.044   0.172   2.183  0.9779  0.5300 -4.0980
  967SOL    HW2 2901   1.905   0.267   2.191 -1.4449  1.3267 -0.5148
  968SOL     OW 2902   1.702   0.583   0.863 -0.3276 -0.0488  0.5396
  968SOL    HW1 2903   1.685   0.597   0.765  2.0369  0.7819 -0.0849
  968SOL    HW2 2904   1.616   0.567   0.911  1.3136  1.4449  0.4644
  969SOL     OW 2905   0.333   1.141   2.352 -0.2088 -0.6493 -0.3044
  969SOL    HW1 2906   0.418   1.162   2.300 -1.9304 -2.1992 -0.0132
  969SOL    HW2 2907   0.293   1.231   2.387  0.6116  2.5427  1.2999
  970SOL     OW 2908   2.369   1.359   1.293 -0.0560 -0.6438 -0.1080
  970SOL    HW1 2909   2.337   1.300   1.369 -0.5365 -0.8176 -1.1789
  970SOL    HW2 2910   2.322   1.335   1.210  0.8706  0.0531  1.3056
  971SOL     OW 2911   3.057   2.897   1.098  0.4430 -0.1960  0.0342
  971SOL    HW1 2912   3.100   2.804   1.094  0.7791 -0.7533  2.3901
  971SOL    HW2 2913   3.006   2.921   1.012  1.7491  1.2909 -2.5921
  972SOL     OW 2914   0.460   0.693   2.484 -0.1538 -0.2459  0.1026
  972SOL    HW1 2915   0.470   0.606   2.532  2.6719  0.2340  3.1615
  972SOL    HW2 2916   0.366   0.728   2.489  0.5793 -0.5694  0.8149
  973SOL     OW 2917   0.322   0.196   0.867  0.2582 -0.0098  0.1416
  973SOL    HW1 2918   0.244   0.205   0.937 -2.8454 -2.2272 -0.1243
  973SOL    HW2 2919   0.361   0.101   0.865 -0.6013 -0.1871  0.4656
  974SOL     OW 2920   2.021   0.699   1.695  0.0758  0.4674  0.4779
  974SOL    HW1 2921   2.077   0.774   1.738 -1.0041  0.2502  1.2983
  974SOL    HW2 2922   1.982   0.624   1.753 -0.3619 -2.9629  0.4022
  975SOL     OW 2923   2.825   0.120   0.031  0.0550  0.0339 -0.3214
  975SOL    HW1 2924   2.868   0.056   0.094 -1.9701  2.8568 -3.8937
  975SOL    HW2 2925   2.729   0.102   0.015  2.3159  2.2442 -0.2943
  976SOL     OW 2926   0.339   1.423   1.224 -0.1686 -0.1205 -0.2619
  976SOL    HW1 2927   0.341   1.377   1.316  0.7518  0.4786  1.0016
  976SOL    HW2 2928   0.376   1.516   1.229  2.4028 -5.6822  3.3169
  977SOL     OW 2929   1.358   2.170   0.578  0.3407  0.0039 -0.1229
  977SOL    HW1 2930   1.344   2.089   0.516  0.4991 -0.6935 -0.4389
  977SOL    HW2 2931   1.420   2.243   0.541  2.3366 -1.5093 -0.5980
  978SOL     OW 2932   0.377   1.088   3.068  0.3207  0.2545 -0.0076
  978SOL    HW1 2933   0.400   1.127   0.050 -1.3030  1.1450 -1.9330
  978SOL    HW2 2934   0.461   1.106   3.009  3.3604 -1.0828  1.3052
  979SOL     OW 2935   2.313   1.741   0.894 -0.5254 -0.2240  0.0672
  979SOL    HW1 2936   2.245   1.676   0.935  0.2427 -0.3247  1.2800
  979SOL    HW2 2937   2.403   1.744   0.939 -3.4305  1.3332 -3.2314
  980SOL     OW 2938   0.474   1.666   1.952 -0.0235  0.0371 -0.2667
  980SOL    HW1 2939   0.516   1.648   1.863 -0.3838  2.1905  2.8732
  980SOL    HW2 2940   0.516   1.612   2.028 -1.7332 -1.2932 -0.2988
  981SOL     OW 2941   2.900   1.369   3.008  0.1990  0.3497 -0.3331
  981SOL    HW1 2942   2.929   1.276   3.042  1.2046 -0.6013  2.5214
  981SOL    HW2 2943   2.935   1.438   3.078  2.0321 -1.9375 -0.6042
  982SOL     OW 2944   2.449   2.838   2.044 -0.2750  0.0049 -0.0395
  982SOL    HW1 2945   2.458   2.935   2.073  1.4198 -0.7850  1.7266
  982SOL    HW2 2946   2.472   2.781   2.126 -0.8579  1.3763 -1.2196
  983SOL     OW 2947   1.252   0.175   1.012  0.0458 -0.4588  0.7373
  983SOL    HW1 2948   1.183   0.188   1.087 -1.1472  0.1814 -0.3386
  983SOL    HW2 2949   1.226   0.232   0.930  0.7430 -1.0676  0.2544
  984SOL     OW 2950   1.177   2.733   0.018  0.0824 -0.1864  0.4717
  984SOL    HW1 2951   1.144   2.806   3.065 -1.0946  1.5451 -1.8628
  984SOL    HW2 2952   1.263   2.696   3.094 -3.3285  0.6096 -2.1250
  985SOL     OW 2953   1.756   2.086   1.618 -0.2613  0.2881 -0.5097
  985SOL    HW1 2954   1.669   2.142   1.625 -3.2264  1.8798  0.0769
  985SOL    HW2 2955   1.727   1.994   1.583  1.2313  1.1893 -3.0471
  986SOL     OW 2956   2.148   3.032   2.689  0.0776 -0.0284 -0.2096
  986SOL    HW1 2957   2.175   2.937   2.661 -0.4519 -3.3109  1.1785
  986SOL    HW2 2958   2.230   3.091   2.678 -0.4561 -0.7215 -3.8639
  987SOL     OW 2959   2.704   1.230   2.181 -0.2965 -0.8316 -0.2266
  987SOL    HW1 2960   2.687   1.200   2.086 -1.9179  0.2784 -1.8293
  987SOL    HW2 2961   2.618   1.231   2.234  0.5700  0.4266  0.0375
  988SOL     OW 2962   2.440   0.742   2.415 -0.3883 -0.5709 -0.0058
  988SOL    HW1 2963   2.541   0.756   2.403 -0.4918  0.1791 -1.6686
  988SOL    HW2 2964   2.400   0.752   2.325 -0.2745  1.3808  1.9012
  989SOL     OW 2965   1.650   1.381   2.126 -0.0289  0.6435  0.0475
  989SOL    HW1 2966   1.589   1.297   2.112 -0.8977 -2.3984 -0.3659
  989SOL    HW2 2967   1.743   1.345   2.156  1.3658  0.5756  0.8968
  990SOL     OW 2968   0.130   1.279   0.298 -0.2113  0.3579  0.2254
  990SOL    HW1 2969   0.057   1.261   0.362  0.9998 -2.0304 -3.6548
  990SOL    HW2 2970   0.142   1.207   0.225  2.4206 -0.7072  0.9266
  991SOL     OW 2971   0.341   1.741   2.830 -0.1658  0.5303 -0.0333
  991SOL    HW1 2972   0.299   1.642   2.818 -1.9952 -3.1536  0.1492
  991SOL    HW2 2973   0.444   1.738   2.832  1.2449  0.4313 -0.3267
  992SOL     OW 2974   2.663   1.755   1.949 -0.5267 -0.3655  0.5941
  992SOL    HW1 2975   2.664   1.851   1.911  0.3641  1.4346  0.8295
  992SOL    HW2 2976   2.569   1.722   1.945 -1.7869 -0.9766 -1.1797
  993SOL     OW 2977   0.065   2.928   0.481 -0.4987  0.3526 -0.3065
  993SOL    HW1 2978   0.116   2.992   0.539  0.4281 -1.9981 -0.7510
  993SOL    HW2 2979   0.116   2.841   0.477  0.3554  0.0598 -0.4706
  994SOL     OW 2980   0.118   1.795   1.493 -0.4381 -0.4485 -0.0299
  994SOL    HW1 2981   0.105   1.750   1.580  0.7094  1.0806 -3.4470
  994SOL    HW2 2982   0.216   1.823   1.468  0.3642 -0.6174 -1.1206
  995SOL     OW 2983   2.119   1.680   2.681 -0.6804 -0.5050  0.4396
  995SOL    HW1 2984   2.183   1.754   2.649  0.7445  1.0110  0.9049
  995SOL    HW2 2985   2.175   1.611   2.738  1.9536 -1.5729  2.7465
  996SOL     OW 2986   1.893   1.543   3.061 -0.1709  0.1771  0.1628
  996SOL    HW1 2987   1.813   1.481   3.038 -1.6822  2.7900 -0.1426
  996SOL    HW2 2988   1.878   1.639   3.025  1.4913 -0.7529 -2.1636
  997SOL     OW 2989   1.497   1.197   1.600 -0.3732 -0.3690  0.4922
  997SOL    HW1 2990   1.464   1.237   1.510  0.7962 -2.0088 -2.0597
  997SOL    HW2 2991   1.423   1.143   1.643 -0.2044 -2.4691  1.0768
  998SOL     OW 2992   2.771   2.155   1.229 -0.0855  0.1203  0.2777
  998SOL    HW1 2993   2.679   2.193   1.240  1.0426  0.0860  1.0568
  998SOL    HW2 2994   2.789   2.143   1.127 -0.6591  0.0726 -0.1280
  999SOL     OW 2995   2.066   2.451   0.224  0.0079 -0.1454  0.5007
  999SOL    HW1 2996   2.032   2.541   0.258  0.9228 -1.0200  0.5710
  999SOL    HW2 2997   2.167   2.456   0.193 -0.9321 -0.0886 -3.3907
 1000SOL     OW 2998   0.772   2.991   0.149 -0.0728  0.2001  0.1532
 1000SOL    HW1 2999   0.875   2.985   0.136  1.8296 -0.7067 -2.1791
 1000SOL    HW2 3000   0.746   3.086   0.119  2.3599  1.5125  1.6069
   3.10930   3.10930   3.10930
