1000 SPC/Fw water molecules t= 152.00000 step= 152000
 3000
    1SOL     OW    1   2.553   2.851   0.535  0.2317 -0.6695 -0.1326
    1SOL    HW1    2   2.576   2.840   0.440 -1.4578  0.4504  5.0355
    1SOL    HW2    3   2.466   2.800   0.551 -0.3705  2.5385  0.0087
    2SOL     OW    4   1.470   2.037   2.352  0.0801  0.4708  0.3327
    2SOL    HW1    5   1.557   2.082   2.381 -0.3964  0.3643 -0.0729
    2SOL    HW2    6   1.449   1.964   2.422 -0.2328 -2.9272 -1.6434
    3SOL     OW    7   1.778   2.670   2.016 -0.0592 -0.2009  0.3496
    3SOL    HW1    8   1.830   2.653   2.100 -0.1786  0.8435 -3.0045
    3SOL    HW2    9   1.820   2.619   1.941 -2.6145  1.6041  1.3128
    4SOL     OW   10   1.947   2.560   1.826 -0.4430  0.2122  0.3522
    4SOL    HW1   11   1.974   2.461   1.832  3.1309 -0.0409  0.0047
    4SOL    HW2   12   2.024   2.628   1.832 -0.4029  0.2556 -1.9568
    5SOL     OW   13   0.523   0.557   1.522  0.2081 -0.3278 -0.0827
    5SOL    HW1   14   0.557   0.540   1.428 -0.5690  2.4450  0.5942
    5SOL    HW2   15   0.462   0.489   1.571 -1.8468 -0.2495 -0.2345
    6SOL     OW   16   2.350   0.945   2.947 -0.0052 -1.0227  0.0841
    6SOL    HW1   17   2.284   0.889   3.000 -0.7076  3.9275 -1.6124
    6SOL    HW2   18   2.367   0.901   2.858  1.1865 -0.3660  1.2743
    7SOL     OW   19   0.613   0.518   1.288 -0.0982 -0.1407  0.7588
    7SOL    HW1   20   0.672   0.447   1.240  0.4209  1.4268 -0.7451
    7SOL    HW2   21   0.599   0.594   1.218 -0.4438  0.6817  1.7120
    8SOL     OW   22   1.246   2.443   1.450  0.1869 -0.3992 -0.1298
    8SOL    HW1   23   1.175   2.436   1.526 -2.0237 -1.5566 -0.4624
    8SOL    HW2   24   1.305   2.361   1.453 -0.4049 -0.2097  0.4587
    9SOL     OW   25   0.645   0.975   0.186 -0.2711  0.0281  0.6811
    9SOL    HW1   26   0.619   0.954   0.088 -0.0175  1.0841 -1.3477
    9SOL    HW2   27   0.744   0.960   0.201 -1.2781 -1.1152 -0.4583
   10SOL     OW   28   0.494   2.673   2.893 -0.0693  0.3100  0.1052
   10SOL    HW1   29   0.446   2.586   2.914 -1.7742 -3.3801 -1.2052
   10SOL    HW2   30   0.512   2.682   2.790 -3.8491 -1.5400 -1.2660
   11SOL     OW   31   0.168   1.528   0.034  0.1606  0.7042 -0.0309
   11SOL    HW1   32   0.080   1.577   0.053 -2.0014 -2.3122 -0.2157
   11SOL    HW2   33   0.238   1.593   3.081 -0.0344  0.0064  0.5100
   12SOL     OW   34   0.555   0.106   1.571 -0.5252 -0.2861 -0.3061
   12SOL    HW1   35   0.486   0.039   1.540  2.6145  1.8223  2.1845
   12SOL    HW2   36   0.565   0.182   1.505  1.8006  0.3918 -1.7990
   13SOL     OW   37   0.666   2.667   0.553  0.2537 -0.3654 -0.0280
   13SOL    HW1   38   0.679   2.569   0.538 -0.8743 -2.0646 -1.9198
   13SOL    HW2   39   0.757   2.715   0.554 -0.4661 -2.1801  2.5684
   14SOL     OW   40   1.367   1.891   0.832 -0.1998 -0.8169 -0.7796
   14SOL    HW1   41   1.299   1.963   0.813  0.8678  0.6485  0.4642
   14SOL    HW2   42   1.369   1.863   0.929 -3.3646  0.2514 -1.6789
   15SOL     OW   43   2.535   0.738   2.399  0.2383 -0.5242  0.6382
   15SOL    HW1   44   2.595   0.735   2.482 -0.7591 -0.2996 -2.6116
   15SOL    HW2   45   2.472   0.816   2.394 -0.7820  0.3165 -0.8803
   16SOL     OW   46   1.420   2.863   3.066  0.1707 -0.5556  0.6401
   16SOL    HW1   47   1.513   2.885   3.035 -2.8964 -0.4434 -0.9724
   16SOL    HW2   48   1.408   2.922   0.056 -0.1475 -1.8535 -1.0492
   17SOL     OW   49   0.780   2.570   1.935  0.2095  0.0419  0.0750
   17SOL    HW1   50   0.686   2.557   1.898 -0.9516 -0.5874  2.7543
   17SOL    HW2   51   0.813   2.661   1.908 -0.1702 -1.0799  0.1366
   18SOL     OW   52   1.691   0.856   3.070  0.4397 -0.1213  0.3715
   18SOL    HW1   53   1.613   0.900   0.038 -0.2914  1.7751  1.4597
   18SOL    HW2   54   1.774   0.910   3.070 -0.5794 -1.8675 -0.6310
   19SOL     OW   55   2.383   1.973   2.707 -0.9969 -0.0603 -0.0334
   19SOL    HW1   56   2.389   1.985   2.809 -0.2774 -0.7396  2.2360
   19SOL    HW2   57   2.454   1.905   2.679 -1.5536  1.0835 -1.0948
   20SOL     OW   58   1.817   1.709   2.211  0.0138 -0.1506 -0.2717
   20SOL    HW1   59   1.870   1.633   2.159  1.9612 -2.0659 -1.1922
   20SOL    HW2   60   1.746   1.662   2.266 -0.0814 -1.3670  0.0972
   21SOL     OW   61   0.327   1.746   3.017 -0.1410  0.4901  0.1397
   21SOL    HW1   62   0.394   1.769   0.004  2.4462  2.2219  1.8399
   21SOL    HW2   63   0.378   1.739   2.926 -1.4980  0.6645 -0.7152
   22SOL     OW   64   2.221   3.055   1.339  0.0122  0.4189  0.4691
   22SOL    HW1   65   2.240   0.059   1.378  0.0421 -0.6158 -0.1043
   22SOL    HW2   66   2.260   3.062   1.246 -0.5570 -1.3206  0.2828
   23SOL     OW   67   0.065   1.338   1.621  0.4843  0.5861 -0.2032
   23SOL    HW1   68   0.081   1.237   1.608 -0.3512 -2.0980 -0.1046
   23SOL    HW2   69   0.159   1.378   1.630  1.0895  0.0041  0.3997
   24SOL     OW   70   2.487   1.956   1.576 -0.6244  0.2634  0.3560
   24SOL    HW1   71   2.528   1.863   1.567  0.2197  1.5996 -2.6583
   24SOL    HW2   72   2.388   1.956   1.598  1.3412  1.5261 -2.1337
   25SOL     OW   73   2.018   2.842   2.575 -0.5153  0.1223  0.1762
   25SOL    HW1   74   2.021   2.912   2.502  1.4795  2.4756 -0.1534
   25SOL    HW2   75   1.933   2.778   2.567 -1.0944 -3.2520 -3.0488
   26SOL     OW   76   1.333   2.832   0.588  0.6215  0.4059  0.0786
   26SOL    HW1   77   1.353   2.930   0.589 -0.5124 -0.0084 -0.7821
   26SOL    HW2   78   1.395   2.787   0.530 -2.8664  4.1124  0.7468
   27SOL     OW   79   0.921   2.045   2.955 -0.1423  0.1473  0.1079
   27SOL    HW1   80   0.932   2.080   3.050 -0.0102 -3.1189 -1.6165
   27SOL    HW2   81   0.824   2.057   2.916  2.7994  1.4098 -0.3100
   28SOL     OW   82   2.916   1.625   1.277 -0.1128  0.3554  0.2299
   28SOL    HW1   83   2.973   1.575   1.213 -2.7329  0.6430  0.3171
   28SOL    HW2   84   2.838   1.670   1.230 -4.0938 -0.5433 -0.5637
   29SOL     OW   85   2.593   2.313   2.045  0.3087 -0.1375  0.0627
   29SOL    HW1   86   2.519   2.379   2.064 -0.8830  1.1849 -1.0512
   29SOL    HW2   87   2.633   2.293   2.135 -0.8154  1.1908 -1.0986
   30SOL     OW   88   1.074   2.675   1.135  0.3685  0.2509  0.0321
   30SOL    HW1   89   1.069   2.767   1.178 -0.2635 -1.2370 -1.2653
   30SOL    HW2   90   0.997   2.658   1.073  0.0759 -0.3242  0.8096
   31SOL     OW   91   3.022   2.173   1.908 -0.2460  0.5381  0.3607
   31SOL    HW1   92   2.942   2.115   1.932 -0.4290  3.2726  0.9201
   31SOL    HW2   93   0.005   2.156   1.981 -0.7866  0.4188 -1.1122
   32SOL     OW   94   1.368   0.943   2.089 -0.4158 -0.2442 -0.6857
   32SOL    HW1   95   1.332   1.016   2.032  3.1009 -1.3195 -0.0255
   32SOL    HW2   96   1.418   0.996   2.163  0.3984  0.7092  3.1816
   33SOL     OW   97   0.657   0.040   2.708  0.2362 -0.0272 -0.4209
   33SOL    HW1   98   0.561   0.052   2.674 -0.8728  1.1536 -2.1389
   33SOL    HW2   99   0.673   3.043   2.759 -1.1429  3.3917 -0.5026
   34SOL     OW  100   1.655   2.960   1.339 -0.2173  0.2493  0.7608
   34SOL    HW1  101   1.686   2.908   1.422 -1.0422 -0.7369 -0.4436
   34SOL    HW2  102   1.736   2.965   1.278  3.1397  3.3251 -0.1869
   35SOL     OW  103   2.001   0.609   1.045  0.0970 -0.4830 -0.2684
   35SOL    HW1  104   2.077   0.576   0.990 -3.9750  0.7574 -0.2116
   35SOL    HW2  105   2.033   0.657   1.130  0.4930 -0.2547 -0.9308
   36SOL     OW  106   2.158   2.781   2.120  0.1251  0.6856 -0.4032
   36SOL    HW1  107   2.181   2.682   2.138  0.8612  1.3048 -0.9177
   36SOL    HW2  108   2.225   2.846   2.166 -0.0209 -0.4865  0.9764
   37SOL     OW  109   1.392   2.349   2.417 -0.3801  0.5875  0.2388
   37SOL    HW1  110   1.294   2.316   2.427  1.0528 -2.4782 -0.7435
   37SOL    HW2  111   1.442   2.314   2.333  1.7640  0.2870  0.6157
   38SOL     OW  112   2.313   0.235   2.987  0.1261 -0.7717 -0.0141
   38SOL    HW1  113   2.373   0.160   3.014  0.7785  5.0013 -0.0231
   38SOL    HW2  114   2.356   0.330   2.991 -0.0323  1.5085 -1.1084
   39SOL     OW  115   1.923   2.065   2.357  0.4549  0.7703  0.0429
   39SOL    HW1  116   1.824   2.079   2.384  0.7323 -0.9181  0.1836
   39SOL    HW2  117   1.920   2.024   2.265  0.7344  0.7690  0.9000
   40SOL     OW  118   0.277   0.009   2.876 -0.2753 -0.6852  0.3098
   40SOL    HW1  119   0.335   0.060   2.809  2.6881  1.7816  1.5503
   40SOL    HW2  120   0.278   3.001   2.847  1.6722  2.4725 -1.2881
   41SOL     OW  121   1.700   0.770   1.459 -0.4279  0.4872  0.0871
   41SOL    HW1  122   1.677   0.675   1.489  2.1894  1.1789 -1.1590
   41SOL    HW2  123   1.790   0.803   1.495  2.1561 -1.8726 -3.0080
   42SOL     OW  124   0.435   0.157   1.813  0.2890 -0.2730  0.3086
   42SOL    HW1  125   0.487   0.150   1.728  0.4401  2.2775  3.2592
   42SOL    HW2  126   0.499   0.187   1.888  0.6645 -2.7447 -1.2937
   43SOL     OW  127   1.534   0.348   1.952 -0.1692 -0.1469 -0.5002
   43SOL    HW1  128   1.502   0.330   2.046 -0.2489  2.4883 -2.7681
   43SOL    HW2  129   1.633   0.382   1.952 -0.8238  0.2739 -0.2708
   44SOL     OW  130   0.119   2.506   2.558 -0.3272 -0.1257 -0.4883
   44SOL    HW1  131   0.179   2.590   2.539  2.2466  0.5048  0.8547
   44SOL    HW2  132   0.023   2.532   2.541  3.6536 -1.9482  1.1705
   45SOL     OW  133   0.195   2.396   1.439 -0.6248 -0.2374  0.5540
   45SOL    HW1  134   0.109   2.435   1.477 -0.5498 -0.9030 -1.4076
   45SOL    HW2  135   0.277   2.444   1.470 -2.2658  0.7330 -1.8779
   46SOL     OW  136   2.109   2.293   2.124  0.6721 -0.2853  0.1454
   46SOL    HW1  137   2.071   2.281   2.030  1.8609 -0.2786 -1.8256
   46SOL    HW2  138   2.036   2.286   2.198 -1.9019  2.1061  1.5092
   47SOL     OW  139   1.800   1.933   1.623  0.4623 -0.1862  0.1208
   47SOL    HW1  140   1.748   1.950   1.707 -1.5774  0.2021  0.6444
   47SOL    HW2  141   1.740   1.896   1.553 -0.1698 -0.4856  2.4602
   48SOL     OW  142   0.294   1.812   0.334  0.0155 -0.7487 -0.0272
   48SOL    HW1  143   0.321   1.804   0.433  1.1290  0.4031  0.9907
   48SOL    HW2  144   0.212   1.876   0.335 -0.3098  0.9102  0.1619
   49SOL     OW  145   2.662   0.691   2.142  0.4483 -0.3067  0.3939
   49SOL    HW1  146   2.621   0.730   2.228  1.9439  1.0857  0.9733
   49SOL    HW2  147   2.599   0.703   2.060 -1.8210  0.4065 -2.5711
   50SOL     OW  148   1.867   0.823   0.857 -0.0065 -0.2062 -0.0099
   50SOL    HW1  149   1.805   0.827   0.775 -0.6953 -0.3514 -3.5907
   50SOL    HW2  150   1.855   0.734   0.899 -1.0105  0.9001 -1.3684
   51SOL     OW  151   1.105   0.632   0.963  0.2490 -0.6577 -0.2112
   51SOL    HW1  152   1.054   0.695   1.032 -1.0302  3.8807  1.1348
   51SOL    HW2  153   1.163   0.699   0.909  0.3504  0.6060 -1.9491
   52SOL     OW  154   1.377   1.236   2.972 -0.3346 -0.1047  0.5852
   52SOL    HW1  155   1.373   1.136   2.969  1.5376  2.6438  0.9146
   52SOL    HW2  156   1.351   1.261   3.067 -1.4343  2.1491  1.6817
   53SOL     OW  157   1.173   2.015   2.571  0.0703  0.1070  0.1795
   53SOL    HW1  158   1.106   1.978   2.642  0.3210 -1.4127  2.1994
   53SOL    HW2  159   1.238   2.078   2.615  0.4935 -0.0908  3.3416
   54SOL     OW  160   1.982   0.592   1.592  0.3293 -0.3401  0.2600
   54SOL    HW1  161   1.945   0.678   1.543 -0.9561 -1.1638  0.6461
   54SOL    HW2  162   1.974   0.599   1.691  0.9883 -1.7240 -1.2811
   55SOL     OW  163   1.875   2.822   0.695  0.4413  0.2950  0.1418
   55SOL    HW1  164   1.898   2.868   0.608  0.8285 -1.1202 -0.1437
   55SOL    HW2  165   1.778   2.838   0.721  0.3596 -2.9908 -0.8263
   56SOL     OW  166   0.908   2.571   1.347 -0.0797  0.2526 -1.0064
   56SOL    HW1  167   0.954   2.616   1.271  1.7157 -1.3783  0.2838
   56SOL    HW2  168   0.901   2.629   1.430  2.5734 -1.7807 -0.2514
   57SOL     OW  169   1.908   0.890   0.252  0.2457  0.4315 -0.0530
   57SOL    HW1  170   1.929   0.941   0.168 -2.7187 -2.7654  0.9573
   57SOL    HW2  171   1.809   0.896   0.278 -2.3027 -0.4433 -0.1259
   58SOL     OW  172   0.114   1.177   2.151  0.0655 -0.6039 -0.0504
   58SOL    HW1  173   0.135   1.146   2.254 -0.1700 -2.2063  1.1519
   58SOL    HW2  174   0.014   1.200   2.129  0.4042  0.4510  0.1628
   59SOL     OW  175   0.842   2.436   2.414 -0.0007  0.2321  0.3339
   59SOL    HW1  176   0.893   2.520   2.435 -1.7312 -0.8039 -0.5507
   59SOL    HW2  177   0.816   2.426   2.319  0.1719  3.4048  5.0446
   60SOL     OW  178   2.571   2.964   0.951 -0.2932 -0.1255 -0.3207
   60SOL    HW1  179   2.526   2.870   0.933  1.0199 -0.8289  0.8313
   60SOL    HW2  180   2.602   3.005   0.863 -0.7810  2.8182 -0.5427
   61SOL     OW  181   1.295   1.922   0.512  0.3059  0.1242  0.2058
   61SOL    HW1  182   1.250   1.868   0.585  1.4998 -1.7794 -1.6059
   61SOL    HW2  183   1.375   1.976   0.553  2.0171  1.5557  2.7448
   62SOL     OW  184   2.177   2.569   2.922 -0.1403  0.2096  0.4698
   62SOL    HW1  185   2.261   2.510   2.935  0.6973  0.1085 -0.3197
   62SOL    HW2  186   2.189   2.657   2.969  1.3906 -0.3212 -0.2629
   63SOL     OW  187   1.911   0.377   0.275 -0.2919 -0.5356 -0.3082
   63SOL    HW1  188   1.969   0.445   0.321 -0.0114  0.8190  2.4254
   63SOL    HW2  189   1.871   0.420   0.190 -2.6572  0.4139 -0.8484
   64SOL     OW  190   0.833   1.093   2.446  0.0889 -0.1725  0.7652
   64SOL    HW1  191   0.915   1.036   2.469  2.5358  2.1912  0.5004
   64SOL    HW2  192   0.773   1.107   2.528  2.0600  1.0501 -0.5906
   65SOL     OW  193   1.299   2.293   0.544 -0.2840 -0.7368 -0.0221
   65SOL    HW1  194   1.363   2.298   0.466  1.0619  1.8887  0.8741
   65SOL    HW2  195   1.304   2.205   0.591  1.7633  0.9391 -0.0334
   66SOL     OW  196   0.597   1.382   1.842 -0.3451  0.5363  0.0155
   66SOL    HW1  197   0.617   1.353   1.940 -0.8318  0.7363 -0.5979
   66SOL    HW2  198   0.502   1.421   1.837  0.2914  0.7813  3.9016
   67SOL     OW  199   2.397   0.126   2.354 -0.1655  0.1490  0.0311
   67SOL    HW1  200   2.428   0.211   2.307  1.2571 -0.4981  2.9261
   67SOL    HW2  201   2.445   0.119   2.444 -2.2790  1.9857  1.6660
   68SOL     OW  202   0.834   0.845   1.569  0.3563  0.1200  0.4688
   68SOL    HW1  203   0.845   0.851   1.670 -0.5039  2.9533 -0.1613
   68SOL    HW2  204   0.869   0.756   1.528 -0.5243 -1.0163 -0.2755
   69SOL     OW  205   1.529   2.688   0.465  0.0226 -0.1480  0.1826
   69SOL    HW1  206   1.590   2.758   0.422 -0.8123 -1.9394 -1.1954
   69SOL    HW2  207   1.571   2.650   0.543  0.5247  0.9011 -3.8417
   70SOL     OW  208   2.931   1.056   2.395 -0.4406 -0.2495 -0.8170
   70SOL    HW1  209   3.004   0.984   2.415  0.4837 -1.2504  0.2145
   70SOL    HW2  210   2.877   1.033   2.313  0.1198 -1.1109 -0.6606
   71SOL     OW  211   2.840   1.602   3.034 -0.3486  0.4579  0.1439
   71SOL    HW1  212   2.794   1.522   2.985  1.0094 -0.6274 -0.6539
   71SOL    HW2  213   2.893   1.665   2.973  0.0447 -0.2019  2.5639
   72SOL     OW  214   3.026   1.662   0.387  0.0060 -0.5225 -0.1784
   72SOL    HW1  215   2.944   1.638   0.440 -2.0664  0.2737 -0.0375
   72SOL    HW2  216   3.031   1.763   0.383 -0.6245  0.8131  0.9089
   73SOL     OW  217   0.991   1.539   0.486 -0.0582  0.2825  0.0266
   73SOL    HW1  218   1.032   1.451   0.516  0.9244  2.4953  1.3299
   73SOL    HW2  219   0.961   1.530   0.386  0.2383 -0.3570  2.8106
   74SOL     OW  220   0.326   1.976   1.979  0.6130 -0.1012  0.2485
   74SOL    HW1  221   0.240   1.931   2.005  0.8178  1.9897  1.5887
   74SOL    HW2  222   0.389   1.907   1.942  1.0223  1.0419 -2.1338
   75SOL     OW  223   1.634   1.470   1.604 -0.0445  0.6051  0.4566
   75SOL    HW1  224   1.656   1.372   1.632  2.2813  0.9438 -0.3813
   75SOL    HW2  225   1.675   1.540   1.660  0.1521 -0.6166 -4.4261
   76SOL     OW  226   2.258   2.573   1.217 -0.1539 -0.0039 -0.1054
   76SOL    HW1  227   2.276   2.475   1.190 -1.9149  0.2953 -0.6427
   76SOL    HW2  228   2.244   2.588   1.321  0.2599  0.7307  2.1494
   77SOL     OW  229   2.699   1.195   1.491 -0.2636 -0.3234  0.3262
   77SOL    HW1  230   2.790   1.242   1.479  1.3045  1.1817 -0.0724
   77SOL    HW2  231   2.708   1.095   1.503 -2.5355  0.3478 -1.4105
   78SOL     OW  232   1.300   0.883   0.246 -0.4447 -0.3045  0.8155
   78SOL    HW1  233   1.354   0.906   0.163  1.0405  0.8290  3.1165
   78SOL    HW2  234   1.351   0.866   0.332 -2.6246 -0.6596  0.3933
   79SOL     OW  235   2.577   1.434   1.586 -0.4803  0.1972 -0.3809
   79SOL    HW1  236   2.596   1.378   1.499 -0.0104 -0.5532 -0.5866
   79SOL    HW2  237   2.611   1.382   1.665 -1.0958  0.6656  1.1920
   80SOL     OW  238   0.782   0.546   1.608  0.5919 -1.0657 -0.3921
   80SOL    HW1  239   0.684   0.558   1.577 -1.6963  0.8669 -0.9810
   80SOL    HW2  240   0.841   0.489   1.547  0.2082  3.1422  1.3684
   81SOL     OW  241   1.004   2.833   0.813  0.1997 -0.4727 -0.1579
   81SOL    HW1  242   1.090   2.774   0.810 -0.2405 -1.2196 -2.5547
   81SOL    HW2  243   1.021   2.911   0.876  0.0014  0.4938  0.5811
   82SOL     OW  244   1.284   0.044   1.643  0.5813  0.5081  0.4406
   82SOL    HW1  245   1.382   0.043   1.606  1.2843 -2.3298  0.7127
   82SOL    HW2  246   1.243   3.038   1.645  2.0871 -2.3073  2.0845
   83SOL     OW  247   1.215   2.101   0.767  0.4104 -0.6984  0.3488
   83SOL    HW1  248   1.207   2.157   0.854 -3.0874  0.5425 -1.1565
   83SOL    HW2  249   1.121   2.101   0.726 -1.3941 -0.1615 -3.0910
   84SOL     OW  250   0.392   1.695   2.756  0.2517  0.1853  0.6205
   84SOL    HW1  251   0.316   1.625   2.738 -1.2112  0.6328 -1.0398
   84SOL    HW2  252   0.478   1.654   2.710  2.7360 -3.0211 -1.9739
   85SOL     OW  253   0.214   2.197   1.246 -0.5408 -0.1959 -0.2303
   85SOL    HW1  254   0.123   2.151   1.242  0.8957 -0.4863 -1.2840
   85SOL    HW2  255   0.208   2.267   1.325 -2.9986  2.8078  1.7951
   86SOL     OW  256   2.575   2.616   1.238  0.9116 -0.1695 -0.5741
   86SOL    HW1  257   2.585   2.611   1.340 -0.3453 -1.8801  0.3271
   86SOL    HW2  258   2.475   2.623   1.210 -0.8184 -0.7383  0.7099
   87SOL     OW  259   0.096   1.887   0.621  0.6811 -0.0168 -0.2440
   87SOL    HW1  260   0.160   1.817   0.643 -1.6127  0.9502 -1.3524
   87SOL    HW2  261   0.138   1.980   0.643  2.4198  1.5927  0.5827
   88SOL     OW  262   0.871   1.222   1.464  0.1757 -0.1322  0.7818
   88SOL    HW1  263   0.848   1.306   1.404  2.1015  2.2743 -0.7652
   88SOL    HW2  264   0.880   1.133   1.411 -1.7393 -1.4798  0.5010
   89SOL     OW  265   1.130   2.881   2.213  0.1428 -0.1036  0.0230
   89SOL    HW1  266   1.063   2.933   2.160  1.0047  2.1975  1.1064
   89SOL    HW2  267   1.195   2.946   2.258 -0.2012  0.4641  1.9872
   90SOL     OW  268   0.005   1.860   1.364 -0.0326  0.1585 -0.3100
   90SOL    HW1  269   0.010   1.853   1.465  2.1499 -1.3918 -0.3396
   90SOL    HW2  270   0.012   1.766   1.318 -2.1233 -1.7179 -0.8873
   91SOL     OW  271   1.403   1.850   1.127  0.0665  0.0146  0.1005
   91SOL    HW1  272   1.306   1.845   1.155  0.7540  0.5134  0.8483
   91SOL    HW2  273   1.453   1.759   1.124 -1.6902  1.0975 -0.3288
   92SOL     OW  274   2.340   2.719   1.700 -0.0020 -0.2294 -0.5315
   92SOL    HW1  275   2.370   2.646   1.765  2.1224  2.3287  0.7035
   92SOL    HW2  276   2.350   2.690   1.603 -0.7731  0.6505 -0.0278
   93SOL     OW  277   2.866   1.411   2.738  0.2467  0.1645  0.2007
   93SOL    HW1  278   2.893   1.313   2.722 -0.2241 -1.7294 -1.3011
   93SOL    HW2  279   2.782   1.417   2.794  0.8748 -0.3401 -0.7382
   94SOL     OW  280   2.747   2.942   2.206 -0.0010 -0.2240  0.0470
   94SOL    HW1  281   2.730   3.043   2.202 -0.7367 -0.1470  0.9409
   94SOL    HW2  282   2.743   2.903   2.109 -1.9078 -0.0264 -0.4913
   95SOL     OW  283   1.303   0.462   1.833 -0.0470  0.2040  1.2649
   95SOL    HW1  284   1.396   0.433   1.861 -0.2648 -0.4747  2.5919
   95SOL    HW2  285   1.285   0.545   1.895  0.2162  1.8475 -0.3149
   96SOL     OW  286   2.721   0.557   1.727  0.0832 -0.5633  0.3847
   96SOL    HW1  287   2.651   0.527   1.649 -2.8975  0.5456 -2.4031
   96SOL    HW2  288   2.691   0.529   1.822 -1.3514 -1.0130  1.0821
   97SOL     OW  289   2.021   0.424   1.396  0.6505 -0.0488  0.7879
   97SOL    HW1  290   1.957   0.443   1.314 -1.5927 -1.6690 -1.8156
   97SOL    HW2  291   2.001   0.484   1.479  0.9806  0.3655 -1.2688
   98SOL     OW  292   1.923   2.687   1.346 -0.1351  0.0455 -0.6209
   98SOL    HW1  293   1.897   2.696   1.440 -0.3817  1.4035 -1.4311
   98SOL    HW2  294   1.895   2.773   1.301 -1.7140  0.0335  1.0410
   99SOL     OW  295   2.705   0.264   1.774 -0.0305 -0.4922 -0.2674
   99SOL    HW1  296   2.670   0.344   1.835 -2.1954 -2.7771  2.7577
   99SOL    HW2  297   2.777   0.294   1.708  0.0279  1.5695 -1.6725
  100SOL     OW  298   2.716   1.305   1.813 -0.3499 -0.3482  0.1495
  100SOL    HW1  299   2.711   1.383   1.880 -2.9546  1.9675  2.7329
  100SOL    HW2  300   2.812   1.281   1.798 -1.8181  1.4974 -0.1753
  101SOL     OW  301   1.314   0.487   0.784 -0.2887  0.4206  0.4236
  101SOL    HW1  302   1.410   0.459   0.811  2.1263 -0.7400  0.0823
  101SOL    HW2  303   1.301   0.583   0.815  0.8590  0.5047 -0.3212
  102SOL     OW  304   0.456   0.931   1.228  0.1147  0.8998  0.3137
  102SOL    HW1  305   0.393   1.006   1.209 -1.1431 -2.6593 -0.2470
  102SOL    HW2  306   0.491   0.941   1.320  0.4337 -0.8573 -3.1021
  103SOL     OW  307   2.426   0.674   0.046  0.7077  0.3364 -0.3113
  103SOL    HW1  308   2.334   0.677   0.087 -0.4088 -1.3170  1.5210
  103SOL    HW2  309   2.468   0.768   0.053 -0.5308  0.4292  0.1406
  104SOL     OW  310   2.883   0.055   1.839  0.5127  0.0435 -0.0287
  104SOL    HW1  311   2.980   0.056   1.808 -1.8969 -1.2035  2.1503
  104SOL    HW2  312   2.836   0.142   1.821 -0.9394 -0.7469  0.3993
  105SOL     OW  313   2.008   0.854   1.956 -0.2039 -0.1706 -0.6220
  105SOL    HW1  314   1.924   0.824   2.002  0.9897 -0.4535 -1.6187
  105SOL    HW2  315   1.993   0.881   1.859 -0.9910 -3.1504 -0.0461
  106SOL     OW  316   1.456   3.077   1.028  0.3684  0.1373  0.4202
  106SOL    HW1  317   1.453   2.976   1.014  1.0278  1.9692 -1.0579
  106SOL    HW2  318   1.421   0.047   0.954  2.3009  0.6569  1.6112
  107SOL     OW  319   0.413   1.044   0.809  0.4127  0.2123 -0.7603
  107SOL    HW1  320   0.431   0.965   0.741 -1.1726 -1.2866  1.7397
  107SOL    HW2  321   0.322   1.036   0.866 -0.0666  1.9840 -2.6680
  108SOL     OW  322   2.606   0.454   1.939  0.0949  0.2899  0.0495
  108SOL    HW1  323   2.506   0.453   1.934 -1.3023  0.2665 -0.4713
  108SOL    HW2  324   2.642   0.446   2.035 -1.6690 -0.1447  1.4601
  109SOL     OW  325   2.262   0.742   0.470  0.3700  0.6233  0.2060
  109SOL    HW1  326   2.277   0.803   0.551 -0.1868 -0.4538 -1.9491
  109SOL    HW2  327   2.297   0.648   0.493  1.5654 -0.8258 -0.0283
  110SOL     OW  328   0.210   2.343   2.739 -0.0331  0.3175  0.1931
  110SOL    HW1  329   0.237   2.252   2.696  0.4240 -3.4198 -0.0875
  110SOL    HW2  330   0.170   2.403   2.661  1.0391  1.1508 -3.0125
  111SOL     OW  331   1.875   0.039   1.989 -0.1568 -0.7381  0.3058
  111SOL    HW1  332   1.871   0.125   2.038 -0.7442 -3.7348 -0.8964
  111SOL    HW2  333   1.821   0.051   1.906 -4.1180 -1.1215  2.9695
  112SOL     OW  334   2.270   2.586   0.296 -0.0359  0.5866  0.4350
  112SOL    HW1  335   2.192   2.539   0.251  0.5174  0.8937 -2.6376
  112SOL    HW2  336   2.314   2.655   0.230  0.3629 -0.8009  0.6539
  113SOL     OW  337   2.370   2.268   1.416 -0.1843  0.0749  0.5606
  113SOL    HW1  338   2.466   2.274   1.389 -0.7302 -1.9141  2.2788
  113SOL    HW2  339   2.363   2.254   1.516  0.0071  2.4592 -1.2569
  114SOL     OW  340   2.755   0.880   0.905  0.3082 -0.0515 -0.4151
  114SOL    HW1  341   2.674   0.929   0.870 -1.4368 -0.4832 -0.6859
  114SOL    HW2  342   2.820   0.847   0.831  1.7620  1.5233  0.8690
  115SOL     OW  343   3.034   1.667   0.126  0.4947 -0.0933 -0.0362
  115SOL    HW1  344   3.035   1.654   0.223  0.8667  2.3955  0.4497
  115SOL    HW2  345   2.939   1.647   0.088  0.9791 -0.0818 -0.6679
  116SOL     OW  346   3.058   1.496   2.057 -0.5030 -0.3013 -0.3763
  116SOL    HW1  347   3.019   1.402   2.050  0.3107  0.3404 -1.8338
  116SOL    HW2  348   0.064   1.497   2.094  0.5318 -1.1299 -0.5317
  117SOL     OW  349   2.507   3.070   0.696  0.2777 -0.1920  0.1711
  117SOL    HW1  350   2.417   0.026   0.674  1.3846  1.7157  1.0257
  117SOL    HW2  351   2.516   2.986   0.641  1.4158  0.6131 -0.7503
  118SOL     OW  352   0.442   2.190   1.588  0.0985  0.3246 -0.5979
  118SOL    HW1  353   0.410   2.183   1.684 -0.5976  0.8485 -0.6639
  118SOL    HW2  354   0.477   2.281   1.565  2.5626 -0.6627  0.6666
  119SOL     OW  355   1.886   1.967   0.545 -0.1729 -0.5142  0.0214
  119SOL    HW1  356   1.981   1.939   0.569 -1.0092  2.4769 -3.4012
  119SOL    HW2  357   1.826   1.964   0.623  1.1539 -1.1383 -1.1076
  120SOL     OW  358   3.019   1.927   2.312  0.4534  0.3940  0.0134
  120SOL    HW1  359   3.027   1.826   2.329 -3.6996  1.1585  0.7806
  120SOL    HW2  360   2.928   1.940   2.259 -1.7889  0.3504 -3.1993
  121SOL     OW  361   2.624   1.956   1.323 -0.0269  0.0800 -0.0472
  121SOL    HW1  362   2.559   1.952   1.240 -0.4702  1.1411  1.4353
  121SOL    HW2  363   2.574   1.931   1.407 -0.0335  3.6219 -2.9732
  122SOL     OW  364   2.178   1.370   2.433 -0.5131  0.2236 -0.0542
  122SOL    HW1  365   2.244   1.404   2.359 -1.7028 -2.1147 -3.3179
  122SOL    HW2  366   2.227   1.306   2.489 -1.3587  0.8571  0.3667
  123SOL     OW  367   0.077   2.935   0.758  0.1283  0.4233 -0.1197
  123SOL    HW1  368   3.089   2.903   0.817 -1.0468 -1.3645 -1.5132
  123SOL    HW2  369   0.138   2.852   0.738 -0.9292 -2.2234  0.0439
  124SOL     OW  370   1.704   0.699   2.655 -0.4996  0.2177  0.1685
  124SOL    HW1  371   1.772   0.769   2.685 -1.0701 -1.3245  0.5375
  124SOL    HW2  372   1.629   0.745   2.600 -1.9830 -1.5369 -0.3046
  125SOL     OW  373   0.656   1.473   2.958 -0.7961 -0.3117  0.1514
  125SOL    HW1  374   0.701   1.540   3.025  1.6723  1.9890  1.0690
  125SOL    HW2  375   0.562   1.450   2.981  1.4640 -0.7833 -0.7676
  126SOL     OW  376   2.814   1.981   0.019 -0.5404 -0.5349 -0.6364
  126SOL    HW1  377   2.837   2.069   0.067 -1.0630  0.4029 -0.9484
  126SOL    HW2  378   2.792   1.999   3.013 -2.0085 -0.2981  3.0998
  127SOL     OW  379   0.680   1.792   1.257 -0.1376  0.0640  0.1508
  127SOL    HW1  380   0.667   1.714   1.196 -0.9313  0.3933 -0.2261
  127SOL    HW2  381   0.774   1.796   1.292 -2.4797 -1.8781  1.4001
  128SOL     OW  382   1.052   0.768   0.205 -0.3446  0.4237 -0.1196
  128SOL    HW1  383   1.057   0.713   0.118  0.6707 -3.2749 -1.0987
  128SOL    HW2  384   1.136   0.823   0.219 -1.4413 -1.0593  1.2205
  129SOL     OW  385   2.266   1.673   1.091  0.1642 -0.2045 -0.0993
  129SOL    HW1  386   2.243   1.733   1.016  0.5437 -1.6383  2.3687
  129SOL    HW2  387   2.342   1.613   1.058  0.5152 -1.0140 -0.7423
  130SOL     OW  388   2.015   1.731   0.789  0.5013  0.1380  0.0719
  130SOL    HW1  389   2.044   1.639   0.825 -0.3491 -2.6580 -1.2125
  130SOL    HW2  390   1.932   1.766   0.836  2.3404 -0.1349  0.3567
  131SOL     OW  391   2.849   1.151   2.859  0.3264 -0.0533 -0.3931
  131SOL    HW1  392   2.766   1.110   2.901 -0.9281 -0.2684 -0.2972
  131SOL    HW2  393   2.925   1.156   2.923 -0.7207  3.2141 -0.7401
  132SOL     OW  394   2.509   1.924   2.036 -0.4077 -0.0374  0.1465
  132SOL    HW1  395   2.475   2.002   1.976 -0.7292  3.4032  0.3942
  132SOL    HW2  396   2.514   1.840   1.977 -0.9912  2.5864  1.1227
  133SOL     OW  397   3.007   0.899   0.057 -0.6210 -0.4500 -0.2931
  133SOL    HW1  398   2.989   0.889   0.154  0.3256 -0.0942 -1.5772
  133SOL    HW2  399   3.032   0.994   0.031 -0.0808 -1.6208  0.9340
  134SOL     OW  400   0.139   1.068   0.257  0.0858  0.4041 -0.2938
  134SOL    HW1  401   0.212   1.011   0.218 -2.7036  1.0142  1.4124
  134SOL    HW2  402   0.131   1.161   0.217 -0.3993  0.2892 -2.2936
  135SOL     OW  403   2.033   1.620   0.526 -0.1476  0.1493  0.3165
  135SOL    HW1  404   1.996   1.651   0.615  2.0795 -2.2704 -0.2423
  135SOL    HW2  405   2.123   1.660   0.514 -0.9356  0.3571  0.3324
  136SOL     OW  406   1.970   1.451   1.352  0.3380 -0.5539 -0.3713
  136SOL    HW1  407   1.916   1.375   1.397  1.8305  0.7989 -2.3093
  136SOL    HW2  408   1.990   1.442   1.254 -0.5231  0.5133  0.8818
  137SOL     OW  409   2.517   1.875   0.771  0.2186 -0.3794 -0.1383
  137SOL    HW1  410   2.526   1.963   0.822 -0.3197 -0.1208  1.2160
  137SOL    HW2  411   2.513   1.897   0.666  0.7413 -0.0996 -2.8461
  138SOL     OW  412   1.118   0.244   1.307 -0.0342  0.2027  0.2699
  138SOL    HW1  413   1.139   0.335   1.267  0.5957 -1.4388  0.5026
  138SOL    HW2  414   1.192   0.186   1.272 -0.0145  0.9523 -0.1467
  139SOL     OW  415   2.272   3.023   0.130 -0.1912  0.0416 -0.3997
  139SOL    HW1  416   2.201   2.992   0.061 -2.3000  2.3774 -1.9441
  139SOL    HW2  417   2.350   3.069   0.084  0.4927  2.1443  0.3116
  140SOL     OW  418   1.507   2.103   2.924 -0.2029 -0.8529 -1.0555
  140SOL    HW1  419   1.476   2.012   2.897  2.1251  0.2552 -1.2835
  140SOL    HW2  420   1.575   2.097   2.999  1.0016  0.3487 -2.7080
  141SOL     OW  421   0.634   1.091   1.611  0.0486  0.1932  0.2323
  141SOL    HW1  422   0.632   1.082   1.711 -2.0374  1.1601 -4.4927
  141SOL    HW2  423   0.720   1.135   1.575  1.3782 -0.6183  0.3356
  142SOL     OW  424   2.484   3.081   3.070  0.1170 -0.1955 -0.0864
  142SOL    HW1  425   2.545   3.087   0.063  1.3025 -1.7685  0.6385
  142SOL    HW2  426   2.511   2.999   3.013 -0.2321 -1.7798  1.8851
  143SOL     OW  427   0.687   2.364   2.852 -0.1484  0.0860 -0.3514
  143SOL    HW1  428   0.769   2.422   2.872 -2.4264 -0.8581  1.2810
  143SOL    HW2  429   0.686   2.344   2.754  0.5535 -1.7316  0.2335
  144SOL     OW  430   1.292   2.692   2.649  0.3525 -0.1630  0.6781
  144SOL    HW1  431   1.281   2.618   2.719  1.2460  1.3269  0.2877
  144SOL    HW2  432   1.272   2.781   2.697 -1.1830  0.5541  0.1074
  145SOL     OW  433   2.342   1.610   3.067 -0.3773  0.2690 -0.2293
  145SOL    HW1  434   2.423   1.668   3.042  0.7730 -0.8156  0.1969
  145SOL    HW2  435   2.252   1.655   3.068  0.5127  0.7754  0.7272
  146SOL     OW  436   2.814   2.680   0.084 -0.1232  0.1928  0.4589
  146SOL    HW1  437   2.862   2.772   0.079  1.9607  2.0650  0.1254
  146SOL    HW2  438   2.878   2.607   0.055  1.2321 -0.8796  0.2959
  147SOL     OW  439   2.596   2.362   1.107 -0.2774 -0.2611  0.4086
  147SOL    HW1  440   2.569   2.432   1.173 -2.1441 -1.0232  0.3463
  147SOL    HW2  441   2.568   2.374   1.009  0.3429 -0.1179  1.1470
  148SOL     OW  442   1.682   0.221   0.242  0.5347 -0.0670 -0.2721
  148SOL    HW1  443   1.775   0.252   0.280 -1.8168 -1.2494 -0.9336
  148SOL    HW2  444   1.658   0.258   0.151 -0.4472 -0.4022  1.4568
  149SOL     OW  445   1.057   1.598   2.703  0.8079  0.4080 -0.1145
  149SOL    HW1  446   0.994   1.516   2.690 -1.3079 -1.5535  0.8475
  149SOL    HW2  447   1.026   1.667   2.636 -0.5622 -2.2398  1.6234
  150SOL     OW  448   0.667   2.385   0.495 -0.5829 -0.5133  0.0170
  150SOL    HW1  449   0.698   2.302   0.444 -0.1468 -1.4100 -0.1354
  150SOL    HW2  450   0.726   2.390   0.581  2.5103  1.0985  2.3438
  151SOL     OW  451   0.787   1.662   0.013  0.4924 -0.4222 -0.1861
  151SOL    HW1  452   0.868   1.680   3.039  2.1999 -1.3512  0.4802
  151SOL    HW2  453   0.772   1.732   0.083  0.1737  0.5045 -1.7153
  152SOL     OW  454   2.967   1.241   0.538 -0.3795 -0.0990  0.4987
  152SOL    HW1  455   2.872   1.273   0.548 -0.6137  1.2393  0.4775
  152SOL    HW2  456   2.992   1.160   0.589  2.8862  1.3911 -1.6134
  153SOL     OW  457   2.487   2.435   0.383  0.0153 -0.9102 -1.0928
  153SOL    HW1  458   2.570   2.496   0.404 -0.6910 -2.1417  1.0837
  153SOL    HW2  459   2.402   2.489   0.372 -0.4582  4.5383 -1.7056
  154SOL     OW  460   0.569   3.023   1.095 -0.5947 -0.2105 -0.0061
  154SOL    HW1  461   0.571   0.015   1.159  0.4671 -0.2076 -0.0082
  154SOL    HW2  462   0.488   3.014   1.039 -0.6478 -0.2282 -0.2056
  155SOL     OW  463   0.295   2.015   1.014  0.2652  0.6658  0.4927
  155SOL    HW1  464   0.262   2.044   0.922 -0.6764 -0.5773  0.0842
  155SOL    HW2  465   0.298   2.099   1.071  1.7555 -2.1656 -1.1142
  156SOL     OW  466   2.533   2.212   2.943 -0.0156  0.0273  0.0302
  156SOL    HW1  467   2.574   2.127   2.908 -2.1422 -0.1595  1.9408
  156SOL    HW2  468   2.599   2.261   3.007  2.3325  0.5872  0.8548
  157SOL     OW  469   1.225   2.144   1.265 -0.1242 -0.0949 -0.3314
  157SOL    HW1  470   1.125   2.167   1.276 -4.5918  1.9010  1.9106
  157SOL    HW2  471   1.258   2.162   1.174 -0.4935 -1.6222  2.9193
  158SOL     OW  472   1.680   0.600   3.069  0.0178  0.6382  0.1295
  158SOL    HW1  473   1.765   0.565   0.022  0.2804 -0.1089  0.7420
  158SOL    HW2  474   1.691   0.705   3.080  1.5231  0.5704  0.8230
  159SOL     OW  475   1.150   0.631   2.706  0.2996 -0.0323  0.0684
  159SOL    HW1  476   1.050   0.643   2.743 -2.6426  0.0680  1.8222
  159SOL    HW2  477   1.160   0.543   2.654 -0.0138 -1.7718 -0.5464
  160SOL     OW  478   1.222   1.585   0.342  0.2833 -0.0571  0.1988
  160SOL    HW1  479   1.170   1.646   0.279 -1.5044 -3.7409 -1.2966
  160SOL    HW2  480   1.165   1.548   0.419 -0.1378 -0.1469  0.6615
  161SOL     OW  481   0.113   2.379   2.981 -0.5401 -0.3317  0.4600
  161SOL    HW1  482   0.151   2.361   2.885 -1.2026 -0.0406  1.6936
  161SOL    HW2  483   0.178   2.395   3.057  0.6800  0.6196  0.2482
  162SOL     OW  484   0.659   2.720   0.968  0.1346  0.7099  0.0516
  162SOL    HW1  485   0.751   2.683   0.980  0.0727  2.0560  1.5216
  162SOL    HW2  486   0.648   2.804   1.021 -1.7151  0.0904 -2.1227
  163SOL     OW  487   2.585   1.050   3.050 -0.1221 -0.4634  0.1076
  163SOL    HW1  488   2.500   1.019   3.002  0.9697 -1.3639 -0.1302
  163SOL    HW2  489   2.656   0.971   3.053  1.9050 -1.7619  0.8018
  164SOL     OW  490   0.275   2.837   2.856 -0.2698  0.2139  0.7507
  164SOL    HW1  491   0.361   2.786   2.858 -2.5699  3.9444  1.1039
  164SOL    HW2  492   0.219   2.817   2.935 -0.9694  2.2656 -1.1634
  165SOL     OW  493   2.231   0.322   1.213  0.1090  0.0600  0.2160
  165SOL    HW1  494   2.144   0.356   1.260  0.9133 -0.9219  0.2212
  165SOL    HW2  495   2.207   0.254   1.143 -0.1563  1.1827 -1.3397
  166SOL     OW  496   1.866   0.176   1.134  0.5042 -0.4841  0.6464
  166SOL    HW1  497   1.954   0.176   1.086 -0.7913  1.4902  1.7101
  166SOL    HW2  498   1.874   0.128   1.221  0.7521  1.8530  0.6398
  167SOL     OW  499   0.990   0.559   2.063  0.1925 -0.2172 -0.4114
  167SOL    HW1  500   0.983   0.609   1.974  1.2386 -0.8531 -1.2217
  167SOL    HW2  501   0.902   0.563   2.114 -3.5713 -0.9046  1.9950
  168SOL     OW  502   2.354   0.452   1.892 -1.0380  0.3218  0.1996
  168SOL    HW1  503   2.337   0.390   1.969 -3.9084  2.8369  1.3570
  168SOL    HW2  504   2.338   0.400   1.801 -1.3116 -2.4143  0.1579
  169SOL     OW  505   0.386   1.364   0.473  0.4575  0.0550  0.5400
  169SOL    HW1  506   0.341   1.431   0.407  0.6400 -0.6742 -2.4394
  169SOL    HW2  507   0.322   1.285   0.488  1.2447 -0.1119  1.8204
  170SOL     OW  508   0.084   1.049   1.574  0.1906 -0.2070 -0.1370
  170SOL    HW1  509   0.150   0.972   1.559 -2.1090 -0.9031  0.7998
  170SOL    HW2  510   0.016   1.023   1.647 -1.0806 -1.2314  1.3978
  171SOL     OW  511   1.256   2.054   1.943  0.0411  0.0695 -0.2481
  171SOL    HW1  512   1.297   2.138   1.904 -0.2274  0.7428  0.2232
  171SOL    HW2  513   1.185   2.013   1.883 -1.1185 -0.0270  2.5832
  172SOL     OW  514   0.478   2.440   1.492  0.0516 -0.3953 -0.3130
  172SOL    HW1  515   0.484   2.538   1.511  0.7035 -1.4753 -0.2244
  172SOL    HW2  516   0.530   2.435   1.406  1.1880  3.2490 -1.2295
  173SOL     OW  517   1.241   2.710   0.800  0.3248  0.2865  0.0144
  173SOL    HW1  518   1.280   2.763   0.720  1.4312 -0.0109 -0.1871
  173SOL    HW2  519   1.261   2.610   0.799 -1.2930  3.1995  0.0904
  174SOL     OW  520   1.085   2.771   0.227  0.3514  0.4897 -0.4034
  174SOL    HW1  521   1.165   2.720   0.181  3.0853 -1.9524 -3.3194
  174SOL    HW2  522   1.069   2.725   0.320 -0.7430 -1.5207  3.0564
  175SOL     OW  523   1.055   1.050   2.836 -0.3105  0.0865 -0.3453
  175SOL    HW1  524   1.109   1.136   2.820  1.5245  0.4185  0.9384
  175SOL    HW2  525   1.037   1.013   2.743  2.9430 -1.0685 -2.1442
  176SOL     OW  526   1.624   0.893   0.321 -0.1840 -0.1276 -0.2889
  176SOL    HW1  527   1.584   0.948   0.246  1.7311  1.4010 -1.0891
  176SOL    HW2  528   1.569   0.909   0.405  2.4866 -0.5882 -1.6473
  177SOL     OW  529   1.339   1.057   0.693  0.1438 -0.2796 -0.7631
  177SOL    HW1  530   1.236   1.046   0.694  1.8906  3.1499 -0.4777
  177SOL    HW2  531   1.377   1.069   0.787  3.2801 -0.1263  2.5485
  178SOL     OW  532   2.700   1.574   2.538  0.0093  0.4203  0.1478
  178SOL    HW1  533   2.793   1.540   2.551 -0.0742 -1.1092 -1.3016
  178SOL    HW2  534   2.689   1.628   2.450  0.1133  2.0068 -1.9205
  179SOL     OW  535   0.689   2.678   0.013  0.1628 -0.5499 -0.1376
  179SOL    HW1  536   0.608   2.664   3.038  0.2614  1.6773 -0.1862
  179SOL    HW2  537   0.772   2.636   3.057 -0.3563  2.1816  2.7227
  180SOL     OW  538   1.719   1.580   1.375  0.1007  0.5167  0.8374
  180SOL    HW1  539   1.819   1.567   1.358  3.0759 -0.1124 -0.4156
  180SOL    HW2  540   1.688   1.516   1.455 -1.5529  0.5522 -2.3003
  181SOL     OW  541   1.070   1.317   2.192 -0.6472 -0.1819  0.2565
  181SOL    HW1  542   1.068   1.226   2.146 -0.8396  2.2799 -0.9547
  181SOL    HW2  543   1.111   1.303   2.283 -0.1164 -1.6110 -0.2921
  182SOL     OW  544   3.036   0.781   2.735  0.0165  0.1176 -0.1894
  182SOL    HW1  545   2.957   0.847   2.720 -1.0614  0.3542  1.9559
  182SOL    HW2  546   0.026   0.830   2.780 -0.0185  0.2897  0.2038
  183SOL     OW  547   1.487   0.210   2.490  0.0996 -0.0634 -0.5880
  183SOL    HW1  548   1.557   0.239   2.557  1.5157 -2.6195 -1.6342
  183SOL    HW2  549   1.461   0.116   2.517 -1.1319  1.0961  0.3635
  184SOL     OW  550   0.089   0.594   1.333 -0.2421 -0.2847 -0.2276
  184SOL    HW1  551   0.117   0.600   1.431 -0.8751  1.1904 -1.9682
  184SOL    HW2  552   0.011   0.662   1.318 -1.6659 -0.3529  2.5538
  185SOL     OW  553   2.481   1.577   0.978  0.0749  0.0908 -0.2108
  185SOL    HW1  554   2.560   1.598   0.915 -1.9339 -0.0839 -2.3012
  185SOL    HW2  555   2.503   1.494   1.034  1.2674  0.9200  0.4306
  186SOL     OW  556   0.223   2.062   2.694  0.3394 -0.2242 -0.0670
  186SOL    HW1  557   0.187   2.054   2.598 -1.8518 -1.5493 -3.0786
  186SOL    HW2  558   0.147   2.060   2.760 -3.2223 -1.3981 -3.1030
  187SOL     OW  559   2.592   1.758   2.993  0.1372  0.6573 -0.0328
  187SOL    HW1  560   2.693   1.742   2.991  1.2629 -1.7642 -0.7280
  187SOL    HW2  561   2.569   1.827   3.056  3.7363 -1.6715 -3.6013
  188SOL     OW  562   0.695   2.173   0.313 -0.0160  0.8769  0.5973
  188SOL    HW1  563   0.736   2.091   0.360  1.5003 -0.0256  0.3709
  188SOL    HW2  564   0.641   2.143   0.229 -0.7280 -2.7422 -0.3212
  189SOL     OW  565   2.456   0.923   0.176  0.2417 -0.0573 -0.5760
  189SOL    HW1  566   2.534   0.883   0.229 -1.3021 -2.0511 -1.9821
  189SOL    HW2  567   2.490   0.993   0.110 -0.7407 -1.3580  1.9079
  190SOL     OW  568   0.759   1.845   1.859  0.0011  0.2333 -0.5954
  190SOL    HW1  569   0.811   1.916   1.910  1.0096 -0.4944 -2.3903
  190SOL    HW2  570   0.779   1.753   1.896 -1.1022 -3.4716 -0.9616
  191SOL     OW  571   2.510   0.489   1.533 -0.1690  0.0404 -0.4470
  191SOL    HW1  572   2.419   0.534   1.561 -0.4478 -1.0330  1.2547
  191SOL    HW2  573   2.492   0.404   1.475  0.5828 -2.1748 -3.9268
  192SOL     OW  574   2.062   0.215   1.638  1.0041 -0.2478 -0.4325
  192SOL    HW1  575   2.039   0.284   1.568 -0.6228  0.7020  0.7426
  192SOL    HW2  576   2.004   0.135   1.625 -0.6253 -0.6656 -0.0765
  193SOL     OW  577   0.142   0.595   0.717 -0.6082 -0.4755 -0.2399
  193SOL    HW1  578   0.055   0.563   0.680  0.4801  1.0543 -3.2510
  193SOL    HW2  579   0.212   0.526   0.698 -0.0906  1.7743  0.3889
  194SOL     OW  580   1.557   2.664   1.668  0.3959 -0.0783  0.2341
  194SOL    HW1  581   1.641   2.621   1.635 -4.1191  2.3280 -0.8316
  194SOL    HW2  582   1.558   2.666   1.766 -0.2310 -0.9775 -4.4860
  195SOL     OW  583   2.498   0.600   0.922 -0.0359  0.4040 -0.1065
  195SOL    HW1  584   2.597   0.568   0.931  3.0141  1.7811 -0.6520
  195SOL    HW2  585   2.477   0.698   0.936 -3.2704 -0.5274  1.4570
  196SOL     OW  586   1.744   2.231   1.968 -0.3210 -0.0363 -0.2601
  196SOL    HW1  587   1.800   2.225   2.053 -2.1733  0.3736 -2.5656
  196SOL    HW2  588   1.670   2.298   1.978  2.0390  1.3244  2.4272
  197SOL     OW  589   0.456   3.051   3.062  0.2205 -0.4170 -0.1933
  197SOL    HW1  590   0.385   0.005   2.997  0.7291  1.8700  1.1640
  197SOL    HW2  591   0.418   3.037   0.067  1.5948 -0.9693  0.1663
  198SOL     OW  592   1.124   1.218   0.854  0.0431  0.1416  0.0830
  198SOL    HW1  593   1.181   1.303   0.846  1.8751  0.8725  0.1495
  198SOL    HW2  594   1.065   1.195   0.771 -1.7431 -1.8464 -0.6707
  199SOL     OW  595   2.307   0.854   1.730 -0.7046  0.3261  0.2479
  199SOL    HW1  596   2.379   0.834   1.799  0.6450  0.6934  2.7723
  199SOL    HW2  597   2.346   0.912   1.655  2.1510 -0.9419 -1.0820
  200SOL     OW  598   2.589   2.546   2.415 -0.3874  0.4718 -0.3208
  200SOL    HW1  599   2.591   2.648   2.434 -1.1282  0.0297 -0.2019
  200SOL    HW2  600   2.515   2.502   2.469  2.3248  0.6672  0.9273
  201SOL     OW  601   2.676   0.119   1.280 -0.4257  0.4499  0.0529
  201SOL    HW1  602   2.711   0.048   1.346 -0.9953 -0.1756  1.9491
  201SOL    HW2  603   2.651   0.084   1.190 -1.4815  1.2880  1.7034
  202SOL     OW  604   1.930   0.139   0.443  0.5921 -0.0043  0.2681
  202SOL    HW1  605   1.991   0.161   0.367 -1.3044 -1.6907  1.0159
  202SOL    HW2  606   1.932   0.205   0.524 -0.5976  0.3195 -1.0612
  203SOL     OW  607   1.444   1.900   2.109 -0.1599 -0.0605 -0.0357
  203SOL    HW1  608   1.379   1.949   2.047 -2.2978  0.1210  0.7172
  203SOL    HW2  609   1.457   1.946   2.197 -1.3215 -0.2220 -2.7025
  204SOL     OW  610   0.983   1.642   2.432  0.0670  0.2470 -0.4716
  204SOL    HW1  611   0.951   1.545   2.408  1.5010  0.9107 -3.0172
  204SOL    HW2  612   1.001   1.701   2.348  0.8820  0.7429  0.3473
  205SOL     OW  613   0.997   1.763   1.352  0.2744 -0.0120  0.4493
  205SOL    HW1  614   1.015   1.672   1.308 -0.1627 -2.2854 -0.8770
  205SOL    HW2  615   0.993   1.755   1.456 -1.7932  0.2157  0.5903
  206SOL     OW  616   2.807   0.584   2.989 -0.0777 -0.0335 -0.6149
  206SOL    HW1  617   2.762   0.561   2.902  1.1998  3.6555  1.2233
  206SOL    HW2  618   2.795   0.510   3.059  2.0146 -0.3143  1.0264
  207SOL     OW  619   1.724   2.809   2.259  0.3812  0.3144  0.1591
  207SOL    HW1  620   1.774   2.885   2.305 -0.8313  0.2404 -2.4471
  207SOL    HW2  621   1.721   2.815   2.157  1.2828 -0.9622  0.0800
  208SOL     OW  622   0.672   2.444   1.298 -0.4450  0.3131 -0.0641
  208SOL    HW1  623   0.761   2.496   1.307  0.3271  0.9783 -0.1015
  208SOL    HW2  624   0.643   2.420   1.205 -0.5029  0.4457  3.2627
  209SOL     OW  625   1.464   1.104   2.290  0.0360  0.1010 -0.0718
  209SOL    HW1  626   1.465   1.201   2.255 -0.2522  0.3140  1.6762
  209SOL    HW2  627   1.405   1.104   2.374  1.8316 -0.0023 -1.2280
  210SOL     OW  628   1.893   1.049   1.319  0.0199 -0.5693  0.5163
  210SOL    HW1  629   1.951   1.029   1.235 -0.4336  3.1653  0.3674
  210SOL    HW2  630   1.791   1.046   1.307 -3.0831 -0.2382  1.1538
  211SOL     OW  631   0.892   2.823   0.562  0.1832  0.0783 -0.1092
  211SOL    HW1  632   0.848   2.895   0.502  1.3370  1.0148  2.1090
  211SOL    HW2  633   0.933   2.863   0.646 -2.0714  1.1404  2.3327
  212SOL     OW  634   1.627   1.676   0.149  0.3583 -0.6880 -0.4243
  212SOL    HW1  635   1.585   1.742   0.209  0.6427 -0.6916  0.3944
  212SOL    HW2  636   1.723   1.650   0.181  1.9977  0.1953  1.8363
  213SOL     OW  637   1.556   0.244   2.826 -0.4811  0.2978 -0.1462
  213SOL    HW1  638   1.553   0.344   2.825  0.7861 -2.1966 -0.2138
  213SOL    HW2  639   1.643   0.212   2.874 -0.6757 -0.8049 -0.3027
  214SOL     OW  640   1.114   1.490   2.005  1.1564  0.2244 -0.2621
  214SOL    HW1  641   1.106   1.424   2.080 -0.7525  0.9950  0.6602
  214SOL    HW2  642   1.149   1.577   2.043 -0.4420 -0.3916 -0.1820
  215SOL     OW  643   0.808   1.836   0.199 -0.5787 -0.3528  0.0490
  215SOL    HW1  644   0.818   1.938   0.195  1.3111 -0.4696  2.7013
  215SOL    HW2  645   0.801   1.805   0.296 -1.1146 -0.2409  1.2729
  216SOL     OW  646   0.316   2.972   2.266  0.0493  0.1971  0.4712
  216SOL    HW1  647   0.374   3.048   2.248 -1.7831 -0.7172 -0.6555
  216SOL    HW2  648   0.368   2.901   2.319 -0.3808  0.4750  1.8886
  217SOL     OW  649   2.267   1.097   1.027 -0.3011 -0.5128  0.2548
  217SOL    HW1  650   2.288   1.176   1.091  2.0261  2.1845  0.9851
  217SOL    HW2  651   2.251   1.138   0.931  3.0752  0.7090  1.2298
  218SOL     OW  652   1.751   1.609   1.809 -0.1912 -0.1762 -0.2927
  218SOL    HW1  653   1.696   1.655   1.883  3.9378 -3.7539  1.9503
  218SOL    HW2  654   1.844   1.653   1.816  1.0932  0.5028  0.0999
  219SOL     OW  655   1.757   1.412   2.973  0.4037 -0.2588  0.2953
  219SOL    HW1  656   1.799   1.399   2.886 -1.4270  0.0196  2.6506
  219SOL    HW2  657   1.676   1.473   2.965  4.6251  2.5473  0.3335
  220SOL     OW  658   1.450   1.276   1.004  0.2410 -0.0703  0.5418
  220SOL    HW1  659   1.405   1.362   0.971 -0.8872  1.9657  0.5850
  220SOL    HW2  660   1.481   1.216   0.931  0.2360  3.5670  0.2005
  221SOL     OW  661   0.879   0.630   2.793 -0.3033  0.5972 -0.3689
  221SOL    HW1  662   0.827   0.640   2.705  3.6994 -1.2955 -0.8046
  221SOL    HW2  663   0.814   0.639   2.874 -1.5663 -2.3003  0.1245
  222SOL     OW  664   1.109   1.286   0.520 -0.2014 -0.7935  0.5281
  222SOL    HW1  665   1.191   1.229   0.494 -1.4131  1.5696  1.6820
  222SOL    HW2  666   1.023   1.252   0.465 -0.4711  1.8263 -3.3620
  223SOL     OW  667   0.997   2.937   2.782  0.3095  0.1374  0.0621
  223SOL    HW1  668   1.098   2.918   2.784  0.1535 -0.5840 -0.2743
  223SOL    HW2  669   0.966   2.932   2.875 -0.4194 -0.3753 -1.5931
  224SOL     OW  670   2.440   0.239   1.410  0.1735 -0.2039 -0.9613
  224SOL    HW1  671   2.388   0.295   1.347 -1.7707 -0.4000  2.2617
  224SOL    HW2  672   2.523   0.200   1.367  1.5966  3.6281  3.7143
  225SOL     OW  673   0.510   0.180   1.237  0.4689  0.3452  0.2103
  225SOL    HW1  674   0.433   0.249   1.248 -0.7311 -2.7094 -1.6130
  225SOL    HW2  675   0.601   0.212   1.263 -0.2419 -3.5104  0.8335
  226SOL     OW  676   1.410   1.859   2.868 -0.2426  0.1326  0.2089
  226SOL    HW1  677   1.388   1.783   2.805 -0.0038  3.0572 -0.8847
  226SOL    HW2  678   1.329   1.873   2.935  1.0069 -0.7188  2.0314
  227SOL     OW  679   1.047   1.496   1.262  0.0407  0.1306 -0.4391
  227SOL    HW1  680   1.013   1.428   1.191 -1.4748 -0.8272 -0.5372
  227SOL    HW2  681   1.150   1.501   1.268 -1.6882 -1.7353  2.0924
  228SOL     OW  682   0.646   1.746   0.675  0.2908 -0.4838 -0.0505
  228SOL    HW1  683   0.648   1.677   0.745  0.3888  0.9455 -4.4787
  228SOL    HW2  684   0.638   1.836   0.720  0.3128 -2.1688  1.0050
  229SOL     OW  685   1.156   0.431   0.022 -0.2888 -0.1686  0.0168
  229SOL    HW1  686   1.140   0.522   3.072 -1.6205 -0.9973 -0.0869
  229SOL    HW2  687   1.219   0.437   0.099  1.1923 -0.4283 -0.6974
  230SOL     OW  688   1.232   0.510   2.222  0.5943 -1.1550  0.6149
  230SOL    HW1  689   1.135   0.508   2.183 -1.6060 -0.1267 -0.2969
  230SOL    HW2  690   1.280   0.423   2.238  0.7043 -0.8087  2.3568
  231SOL     OW  691   1.209   1.703   2.133 -0.1806  0.2714  0.0160
  231SOL    HW1  692   1.273   1.784   2.134 -1.7721 -0.2195  0.4220
  231SOL    HW2  693   1.119   1.738   2.162  0.9365  0.0587  1.2885
  232SOL     OW  694   2.447   1.914   1.092 -0.1446  0.0943 -0.0702
  232SOL    HW1  695   2.411   1.911   1.001 -1.0558  1.4459  3.1731
  232SOL    HW2  696   2.374   1.875   1.158 -3.5338  0.3572 -1.2729
  233SOL     OW  697   2.611   2.801   0.273 -0.3502  0.0242  0.3715
  233SOL    HW1  698   2.687   2.763   0.215 -0.6404  0.5302 -1.9230
  233SOL    HW2  699   2.525   2.801   0.223 -0.0255 -2.8060  2.7464
  234SOL     OW  700   1.052   0.131   2.761  0.1594 -0.4498 -0.0636
  234SOL    HW1  701   1.019   0.034   2.760  0.9281 -0.4324 -1.5645
  234SOL    HW2  702   1.112   0.149   2.842 -0.6453 -3.3671 -0.9940
  235SOL     OW  703   2.561   0.115   2.605 -0.2692  0.0421  0.5125
  235SOL    HW1  704   2.470   0.110   2.657 -0.5237  1.0969  0.8843
  235SOL    HW2  705   2.600   0.209   2.606  1.1672  0.1911  0.1709
  236SOL     OW  706   2.220   2.519   2.204  0.0015  0.2959 -0.0306
  236SOL    HW1  707   2.157   2.514   2.284  1.1620  0.3187  1.9981
  236SOL    HW2  708   2.206   2.436   2.151 -2.5911  3.5495  0.8709
  237SOL     OW  709   0.851   1.486   2.229  0.7337 -0.3959 -0.0200
  237SOL    HW1  710   0.856   1.573   2.177  0.5831  1.3674 -2.0861
  237SOL    HW2  711   0.928   1.421   2.206 -2.0710 -1.3287 -1.0049
  238SOL     OW  712   1.772   0.068   2.440 -0.3638 -0.5793 -0.2417
  238SOL    HW1  713   1.681   0.037   2.476  0.3948 -0.6615 -0.4442
  238SOL    HW2  714   1.842   0.002   2.471 -1.2842  0.9009 -0.1386
  239SOL     OW  715   0.035   1.874   1.666  0.5386 -0.1430 -0.2595
  239SOL    HW1  716   0.121   1.901   1.708 -1.0288 -3.9823  0.0829
  239SOL    HW2  717   3.081   1.802   1.720  1.0394  1.2163 -0.0159
  240SOL     OW  718   2.922   2.630   0.764  0.2040 -0.1747  0.6919
  240SOL    HW1  719   2.944   2.537   0.803 -2.5551 -2.1814  0.1245
  240SOL    HW2  720   2.969   2.627   0.672  0.8811 -1.7815 -1.9209
  241SOL     OW  721   2.134   1.455   0.816  0.0217 -0.2076 -0.8861
  241SOL    HW1  722   2.215   1.455   0.761 -1.1886  1.1886  0.3719
  241SOL    HW2  723   2.078   1.368   0.801 -1.7305 -2.9022 -0.1328
  242SOL     OW  724   1.845   1.977   2.718 -0.1086 -0.1603 -0.2001
  242SOL    HW1  725   1.945   2.000   2.706 -0.1611  0.7991  1.7891
  242SOL    HW2  726   1.810   2.013   2.811 -0.6156  1.2441 -1.6157
  243SOL     OW  727   0.549   2.501   1.760  0.7237  0.6127  0.2902
  243SOL    HW1  728   0.448   2.478   1.752 -1.5270  0.9416 -0.4138
  243SOL    HW2  729   0.554   2.585   1.705 -0.4418 -0.8210  1.2422
  244SOL     OW  730   2.114   2.965   2.795 -0.2149  0.3260 -0.2033
  244SOL    HW1  731   2.166   3.051   2.783  1.0335 -0.5787  0.9548
  244SOL    HW2  732   2.080   2.930   2.708  1.5925  1.8798 -1.8428
  245SOL     OW  733   1.443   2.821   0.954  0.4072  0.2473  0.3275
  245SOL    HW1  734   1.453   2.791   1.050  1.1188  0.8678 -0.1666
  245SOL    HW2  735   1.349   2.796   0.919  0.2385 -1.1821  4.1852
  246SOL     OW  736   1.475   2.540   0.230  0.2156 -0.0851  0.5617
  246SOL    HW1  737   1.488   2.587   0.318 -1.4897 -1.6999 -1.2336
  246SOL    HW2  738   1.553   2.559   0.169  0.4405  1.3422  1.0454
  247SOL     OW  739   0.773   0.517   2.240 -0.0274  0.2509 -0.3364
  247SOL    HW1  740   0.677   0.524   2.219  2.6259  0.2622  2.2852
  247SOL    HW2  741   0.786   0.449   2.322  0.9472 -0.9589  0.2453
  248SOL     OW  742   0.476   1.759   1.868 -0.9778  0.2520 -0.5476
  248SOL    HW1  743   0.572   1.774   1.869 -1.1254  2.9093  1.0934
  248SOL    HW2  744   0.429   1.797   1.790 -0.2922  1.7540  0.5927
  249SOL     OW  745   2.313   0.460   0.447  0.0627 -0.0400 -0.2729
  249SOL    HW1  746   2.333   0.362   0.431 -1.4206  2.2253  2.3247
  249SOL    HW2  747   2.211   0.464   0.458 -1.4627 -0.8995 -1.5794
  250SOL     OW  748   0.588   0.252   0.602 -0.1868  0.2774  0.5390
  250SOL    HW1  749   0.521   0.275   0.520  0.8617  2.5266 -3.1149
  250SOL    HW2  750   0.607   0.157   0.612 -2.0702  1.2834  0.2532
  251SOL     OW  751   1.785   0.167   2.971 -0.6838 -0.0782 -0.3538
  251SOL    HW1  752   1.854   0.237   2.944  0.2167 -0.0237 -1.9559
  251SOL    HW2  753   1.834   0.084   3.001 -2.1468  1.8245 -1.8323
  252SOL     OW  754   1.642   1.779   2.004  0.0482  0.2523  0.4771
  252SOL    HW1  755   1.718   1.764   2.070 -0.5191  1.6901 -1.1930
  252SOL    HW2  756   1.559   1.816   2.053 -0.5281 -0.8681  1.8026
  253SOL     OW  757   2.646   2.429   1.742 -0.2224  0.0060 -0.2128
  253SOL    HW1  758   2.744   2.440   1.772  1.0182 -1.9605  0.6828
  253SOL    HW2  759   2.633   2.338   1.699 -1.6730 -3.9926 -0.5027
  254SOL     OW  760   0.108   1.374   1.180  0.6865 -0.2282 -0.2141
  254SOL    HW1  761   0.074   1.289   1.222 -1.8503 -0.5576  1.4703
  254SOL    HW2  762   0.169   1.429   1.236 -1.9812 -0.9581  0.0126
  255SOL     OW  763   1.007   0.661   1.453  0.0231  0.0873 -0.5564
  255SOL    HW1  764   0.969   0.568   1.465  3.8350  0.3017 -0.4116
  255SOL    HW2  765   1.109   0.665   1.450  1.2980 -2.1988 -0.9691
  256SOL     OW  766   2.171   2.591   1.507  0.2415 -0.3096  0.5603
  256SOL    HW1  767   2.135   2.688   1.504 -1.8626 -2.8673 -0.2266
  256SOL    HW2  768   2.098   2.535   1.459 -1.2907  0.5057 -0.3461
  257SOL     OW  769   0.620   2.678   2.647  0.2360  0.5800 -0.3837
  257SOL    HW1  770   0.713   2.712   2.638 -0.9104 -0.9219  3.9468
  257SOL    HW2  771   0.618   2.580   2.633 -0.5121  0.9051 -0.0301
  258SOL     OW  772   0.735   2.438   0.184 -0.0878  0.1749  1.1683
  258SOL    HW1  773   0.705   2.353   0.233 -3.5582  1.2809 -0.7813
  258SOL    HW2  774   0.669   2.509   0.185  3.9284 -2.5015  3.0024
  259SOL     OW  775   1.015   0.106   2.091 -0.6015 -0.3900 -0.2195
  259SOL    HW1  776   1.081   0.173   2.051  0.8572  1.1029  0.4524
  259SOL    HW2  777   0.955   0.069   2.020 -0.0816 -0.3660  0.6246
  260SOL     OW  778   1.639   0.655   1.034  1.2997 -0.4939  0.5049
  260SOL    HW1  779   1.633   0.629   1.133 -1.2575  1.0260  1.4284
  260SOL    HW2  780   1.637   0.759   1.032  0.2035  1.4188  0.3197
  261SOL     OW  781   0.541   0.299   2.512  0.0298 -0.3148  0.2627
  261SOL    HW1  782   0.528   0.345   2.606  2.8827 -0.4670 -2.7789
  261SOL    HW2  783   0.637   0.304   2.483 -0.2010  1.5298  0.2790
  262SOL     OW  784   0.116   2.403   1.905  0.0456 -0.1220  0.7166
  262SOL    HW1  785   0.105   2.465   1.990  1.1576  1.8612  0.6105
  262SOL    HW2  786   0.044   2.331   1.903  3.0667  0.6989 -0.3554
  263SOL     OW  787   2.846   1.656   2.103  0.0651 -0.1345  0.3991
  263SOL    HW1  788   2.848   1.763   2.108  0.7018  0.5194 -0.0436
  263SOL    HW2  789   2.934   1.607   2.094 -3.3684 -1.2759 -2.2789
  264SOL     OW  790   0.582   0.995   1.010 -0.2351  0.4612 -0.4748
  264SOL    HW1  791   0.528   0.980   1.093  2.9598  1.6091 -2.9937
  264SOL    HW2  792   0.515   1.006   0.932  0.0568  2.4892 -2.1655
  265SOL     OW  793   1.055   2.425   0.854  0.3940 -0.4218  1.1278
  265SOL    HW1  794   1.038   2.371   0.942 -0.2137 -1.9733  2.2906
  265SOL    HW2  795   1.152   2.433   0.829 -0.5751  0.2797 -0.1151
  266SOL     OW  796   1.536   1.047   0.875  0.4761  0.4463 -0.4938
  266SOL    HW1  797   1.568   1.004   0.961  1.7540  2.8003 -0.2605
  266SOL    HW2  798   1.605   1.023   0.802  0.3277 -2.5097 -0.2496
  267SOL     OW  799   2.603   1.286   0.062 -0.0266  0.2867 -0.0893
  267SOL    HW1  800   2.681   1.283   0.125  2.6847  0.8614 -1.4801
  267SOL    HW2  801   2.594   1.189   0.027 -2.5050  3.0293 -0.6297
  268SOL     OW  802   1.265   0.347   0.310 -0.2304  0.0865 -0.3468
  268SOL    HW1  803   1.366   0.347   0.337  2.4236  2.3223 -0.5330
  268SOL    HW2  804   1.253   0.270   0.245 -2.4598 -0.5740 -0.5325
  269SOL     OW  805   2.162   0.552   2.902  0.4314 -0.1718  0.8354
  269SOL    HW1  806   2.250   0.501   2.926 -0.1539  1.0237 -1.3232
  269SOL    HW2  807   2.157   0.634   2.960  2.0678 -0.6709 -1.8321
  270SOL     OW  808   0.155   0.792   3.060 -0.1210  0.3605  0.4460
  270SOL    HW1  809   0.195   0.717   0.025  0.9203 -0.2898 -1.2998
  270SOL    HW2  810   0.058   0.809   3.081 -0.3202 -2.2329 -1.1747
  271SOL     OW  811   2.696   0.844   0.294  0.5756 -0.1449  0.1726
  271SOL    HW1  812   2.764   0.770   0.296 -0.2247  3.0559  0.1893
  271SOL    HW2  813   2.744   0.932   0.327  2.9227 -3.0033  1.1319
  272SOL     OW  814   0.090   2.737   3.029  0.2855 -0.1453  0.5365
  272SOL    HW1  815   0.050   2.660   2.980 -0.8236  1.3606  3.3619
  272SOL    HW2  816   0.077   2.726   0.043 -0.8930 -1.6980  0.7215
  273SOL     OW  817   2.870   2.937   0.053 -0.0439  0.2703 -0.1864
  273SOL    HW1  818   2.962   2.967   0.081 -1.8637  2.2482  2.0901
  273SOL    HW2  819   2.794   3.003   0.086 -3.6606  0.6091 -0.9467
  274SOL     OW  820   0.597   2.395   1.028  0.1600  0.0064  0.0874
  274SOL    HW1  821   0.622   2.493   1.003 -1.5376  2.4485  0.5910
  274SOL    HW2  822   0.610   2.338   0.947  0.9436  2.1388  0.6893
  275SOL     OW  823   2.861   1.284   0.187  0.0896 -0.2447 -0.3223
  275SOL    HW1  824   2.940   1.321   0.139 -2.1565  0.6691  2.7678
  275SOL    HW2  825   2.880   1.193   0.230 -2.1794 -0.5443  0.0854
  276SOL     OW  826   2.986   1.231   1.803 -0.2382  0.0609  0.3400
  276SOL    HW1  827   2.979   1.128   1.789  0.9304  0.2297  2.3204
  276SOL    HW2  828   3.052   1.275   1.738 -0.7416 -1.7322  2.2461
  277SOL     OW  829   2.092   0.198   0.984  0.2580  0.3801  0.1340
  277SOL    HW1  830   2.075   0.098   0.954 -1.1933 -1.2088  1.1162
  277SOL    HW2  831   2.114   0.250   0.901 -1.4887 -1.4501  2.0206
  278SOL     OW  832   1.594   2.458   2.192  0.0149  0.4741  0.0300
  278SOL    HW1  833   1.539   2.535   2.229  1.0986  1.3289  0.1758
  278SOL    HW2  834   1.541   2.422   2.115  0.8200 -0.6608  1.2684
  279SOL     OW  835   1.548   1.611   0.461 -0.3762  0.0410 -0.1133
  279SOL    HW1  836   1.642   1.629   0.426 -0.7216 -1.9595  0.7753
  279SOL    HW2  837   1.481   1.653   0.395 -1.1957  3.2435 -2.4221
  280SOL     OW  838   0.417   1.404   1.116  0.4347 -0.4048 -0.3082
  280SOL    HW1  839   0.390   1.446   1.028  0.2458 -0.3593 -0.2938
  280SOL    HW2  840   0.352   1.432   1.192 -1.6443  1.1175  0.6475
  281SOL     OW  841   0.117   1.109   2.421 -0.3446  0.0455  0.3787
  281SOL    HW1  842   0.089   1.010   2.427  2.4639 -1.1642 -1.2872
  281SOL    HW2  843   0.036   1.171   2.428  1.4163 -1.2712 -1.0147
  282SOL     OW  844   0.563   1.532   0.171 -0.2400 -0.4698  0.1056
  282SOL    HW1  845   0.479   1.526   0.231 -1.4497 -1.7709  0.6557
  282SOL    HW2  846   0.568   1.446   0.111 -2.8405 -1.2175 -0.1883
  283SOL     OW  847   2.264   2.307   0.090 -0.2626  0.2916  0.5017
  283SOL    HW1  848   2.231   2.397   0.125 -1.4802  0.5647 -0.9142
  283SOL    HW2  849   2.363   2.295   0.111 -1.3682  1.1059 -1.4392
  284SOL     OW  850   1.053   0.002   0.550  0.3903  0.4164  0.0219
  284SOL    HW1  851   1.043   3.037   0.461 -2.5939  0.7737 -0.7230
  284SOL    HW2  852   1.064   0.097   0.519  0.4896 -0.0506 -1.4702
  285SOL     OW  853   2.253   1.181   2.792  0.4914  0.4920 -0.4115
  285SOL    HW1  854   2.287   1.114   2.864  2.1224 -2.9726  0.6302
  285SOL    HW2  855   2.280   1.275   2.813 -1.8089 -0.7563  2.9422
  286SOL     OW  856   1.869   2.470   0.963  0.3570  0.1220  0.1225
  286SOL    HW1  857   1.862   2.458   1.066 -2.1735  0.1216  0.0389
  286SOL    HW2  858   1.778   2.459   0.917 -0.9355 -0.2022 -0.2117
  287SOL     OW  859   1.070   0.313   0.755 -0.0453 -0.0159  0.1793
  287SOL    HW1  860   1.055   0.288   0.660  0.6083  1.6209  2.9435
  287SOL    HW2  861   1.152   0.371   0.770 -1.7091  0.4554 -0.9902
  288SOL     OW  862   1.267   2.231   2.706 -0.2806  0.4652  0.5613
  288SOL    HW1  863   1.166   2.246   2.691 -0.0335 -0.1463 -1.9482
  288SOL    HW2  864   1.283   2.235   2.809  1.1362 -0.1852  1.8253
  289SOL     OW  865   0.272   1.507   1.329 -0.2740  0.3492 -0.2469
  289SOL    HW1  866   0.311   1.603   1.322  2.3853 -0.0713 -3.3158
  289SOL    HW2  867   0.318   1.455   1.402  0.0093 -0.1071  2.6198
  290SOL     OW  868   1.643   2.194   0.871 -0.2760 -0.3918 -0.8731
  290SOL    HW1  869   1.581   2.161   0.948 -0.8934  0.2269  2.2949
  290SOL    HW2  870   1.686   2.113   0.828  0.0008  0.9788 -1.4367
  291SOL     OW  871   1.934   2.826   0.108 -0.1836  0.1025 -0.2700
  291SOL    HW1  872   1.905   2.731   0.104 -1.7643  0.0844 -1.3464
  291SOL    HW2  873   1.978   2.847   0.197 -1.9303  2.3866  0.7106
  292SOL     OW  874   0.758   0.294   1.778 -0.0710 -0.4460  0.2850
  292SOL    HW1  875   0.783   0.384   1.745 -1.0114 -0.3019  0.7227
  292SOL    HW2  876   0.704   0.305   1.864  0.0657 -1.4359  0.1453
  293SOL     OW  877   2.490   2.452   0.851  0.1552 -0.0055  0.0947
  293SOL    HW1  878   2.557   2.493   0.786 -2.0754  3.0030  0.7010
  293SOL    HW2  879   2.398   2.502   0.840 -1.3581 -0.5073 -2.2362
  294SOL     OW  880   0.559   0.790   2.200  0.0629  0.0136 -0.2473
  294SOL    HW1  881   0.603   0.791   2.107  0.6063 -0.9708  1.4964
  294SOL    HW2  882   0.520   0.697   2.218 -2.8118 -1.4008  3.8753
  295SOL     OW  883   1.524   1.614   1.157 -0.7000  0.2017 -0.1425
  295SOL    HW1  884   1.588   1.586   1.233  1.6507 -1.2573  0.3643
  295SOL    HW2  885   1.566   1.600   1.062 -0.0376  2.7636 -1.0038
  296SOL     OW  886   2.710   1.817   0.213  0.7503 -0.2181 -0.6716
  296SOL    HW1  887   2.764   1.864   0.145 -1.2260  1.6449 -1.5047
  296SOL    HW2  888   2.621   1.862   0.218 -0.3887 -1.5885 -0.7006
  297SOL     OW  889   2.169   0.136   0.300  0.1902  0.3277  0.6607
  297SOL    HW1  890   2.185   0.060   0.235  0.9752 -0.9698 -1.1142
  297SOL    HW2  891   2.253   0.176   0.349  0.5441 -1.8168  2.3920
  298SOL     OW  892   0.946   2.690   2.652 -0.3579 -0.0177 -0.0649
  298SOL    HW1  893   0.974   2.683   2.555  0.0354  1.0868 -0.8069
  298SOL    HW2  894   0.951   2.787   2.685  2.4719  1.0153  0.7136
  299SOL     OW  895   1.042   2.083   2.109 -0.3096 -0.7172  0.1644
  299SOL    HW1  896   1.120   2.092   2.039  2.3318  0.1237  0.2738
  299SOL    HW2  897   1.072   2.112   2.205  1.7138 -0.0921  1.0382
  300SOL     OW  898   2.703   0.171   2.905 -0.0261 -0.4038  0.6117
  300SOL    HW1  899   2.731   0.078   2.931 -1.0330 -1.2586 -1.0140
  300SOL    HW2  900   2.675   0.179   2.802 -1.2535  0.8436 -4.2019
  301SOL     OW  901   1.013   1.024   1.877 -0.0318  0.1970 -0.6129
  301SOL    HW1  902   1.009   1.086   1.794 -0.2767 -1.7191 -1.1107
  301SOL    HW2  903   1.051   0.934   1.849 -1.6342  1.3649 -1.9840
  302SOL     OW  904   2.886   2.347   0.355 -0.4466  0.2433 -0.2839
  302SOL    HW1  905   2.980   2.379   0.376 -0.5223  2.8256 -1.8911
  302SOL    HW2  906   2.847   2.298   0.436 -0.0354  1.0833  3.0797
  303SOL     OW  907   2.433   2.508   1.868 -0.2310  0.3514  0.4178
  303SOL    HW1  908   2.531   2.480   1.839 -0.2171 -0.3150  0.9387
  303SOL    HW2  909   2.442   2.555   1.961  0.1022  0.8483 -0.2768
  304SOL     OW  910   2.965   0.977   1.745 -0.1902 -0.1565 -0.3457
  304SOL    HW1  911   2.975   0.905   1.821 -0.0526 -1.3798 -0.7615
  304SOL    HW2  912   2.886   0.960   1.680 -1.9040 -0.5040 -0.5497
  305SOL     OW  913   0.790   1.498   1.351  0.0505  0.1532 -0.2195
  305SOL    HW1  914   0.875   1.540   1.318 -4.3259 -2.6068 -4.2227
  305SOL    HW2  915   0.733   1.460   1.277 -3.8543 -0.2100  0.1764
  306SOL     OW  916   0.220   1.406   2.100  0.0274 -0.1186  0.1500
  306SOL    HW1  917   0.189   1.308   2.105  0.0841 -0.8819 -0.3800
  306SOL    HW2  918   0.301   1.420   2.166 -0.4536 -2.2255  0.6610
  307SOL     OW  919   0.924   0.665   1.819  0.4068  0.2090  0.3389
  307SOL    HW1  920   0.869   0.643   1.729 -1.2990 -0.3764  0.0930
  307SOL    HW2  921   1.025   0.678   1.803 -1.0282 -0.6544  3.1212
  308SOL     OW  922   2.937   1.184   1.205  0.1331  0.3531  0.1741
  308SOL    HW1  923   2.919   1.234   1.293  2.8894  0.6931 -2.2468
  308SOL    HW2  924   2.852   1.144   1.165 -0.5506 -1.7245  2.1303
  309SOL     OW  925   2.576   1.328   1.285  0.2565  0.1913  0.2581
  309SOL    HW1  926   2.599   1.253   1.347 -1.2552 -2.5520  0.3203
  309SOL    HW2  927   2.624   1.325   1.194  0.9526  0.6594 -0.6556
  310SOL     OW  928   2.900   2.195   2.666  0.0411 -0.0656  1.1659
  310SOL    HW1  929   2.960   2.127   2.711  1.1058 -0.2407 -0.9505
  310SOL    HW2  930   2.932   2.209   2.568  3.7319 -0.1381 -2.2508
  311SOL     OW  931   2.654   2.612   2.745  0.0528 -0.4512  0.2942
  311SOL    HW1  932   2.749   2.650   2.718  3.4958  1.8914  2.3768
  311SOL    HW2  933   2.586   2.681   2.715  1.2155 -0.3033 -2.5053
  312SOL     OW  934   2.211   1.949   0.155  0.3213  0.1339  0.5799
  312SOL    HW1  935   2.148   2.029   0.162  1.9293  0.0230  0.8880
  312SOL    HW2  936   2.159   1.868   0.116 -1.6762  0.5261  0.6390
  313SOL     OW  937   2.780   2.995   0.547  0.2238  0.1341  0.1108
  313SOL    HW1  938   2.810   3.008   0.644  3.5172 -1.4259  2.9039
  313SOL    HW2  939   2.723   2.909   0.530  1.3941 -3.9667  1.5268
  314SOL     OW  940   1.724   1.206   0.075  0.0139 -0.3421  0.5320
  314SOL    HW1  941   1.735   1.282   0.006  0.5339  0.7948  2.2671
  314SOL    HW2  942   1.682   1.238   0.165 -0.0085  1.6315  3.2450
  315SOL     OW  943   1.328   2.857   2.040  0.5715 -0.0313 -0.6844
  315SOL    HW1  944   1.246   2.874   2.098  1.7989  0.5252  0.1502
  315SOL    HW2  945   1.354   2.940   1.985 -0.7622  1.2132  1.6342
  316SOL     OW  946   2.766   0.849   3.055  0.3688  0.0661 -0.2591
  316SOL    HW1  947   2.859   0.858   0.005  0.1267 -1.2285 -0.3852
  316SOL    HW2  948   2.763   0.757   3.010 -0.6144 -1.3563 -0.3924
  317SOL     OW  949   0.602   2.877   0.258 -0.4970  1.2157 -0.0861
  317SOL    HW1  950   0.508   2.913   0.249  0.1510 -3.6310  0.0566
  317SOL    HW2  951   0.621   2.800   0.192 -0.7845  0.2012 -1.6429
  318SOL     OW  952   2.301   2.686   0.576 -0.3692  0.1809 -0.0108
  318SOL    HW1  953   2.279   2.635   0.661 -1.1972  0.1227 -3.2834
  318SOL    HW2  954   2.286   2.625   0.494  1.5119 -1.2886 -0.4104
  319SOL     OW  955   0.984   1.887   2.745 -0.0576 -0.0753 -0.4602
  319SOL    HW1  956   0.971   1.929   2.839  0.5751 -1.0321  2.3076
  319SOL    HW2  957   0.897   1.842   2.714  1.0598  0.2460  0.3162
  320SOL     OW  958   0.348   2.217   1.858 -0.0736  0.3640 -0.0802
  320SOL    HW1  959   0.334   2.130   1.909  0.4614  1.7926 -0.1179
  320SOL    HW2  960   0.281   2.289   1.880 -0.1699 -0.6366  1.3969
  321SOL     OW  961   1.379   2.883   2.446 -0.0860  0.3989  0.0997
  321SOL    HW1  962   1.425   2.823   2.375  0.9813  1.4037 -2.0685
  321SOL    HW2  963   1.335   2.821   2.515  0.5021 -0.5359 -0.8291
  322SOL     OW  964   2.640   1.499   2.001 -0.1392 -0.3604  0.3405
  322SOL    HW1  965   2.713   1.557   2.049  1.5089  0.0998 -1.7525
  322SOL    HW2  966   2.600   1.430   2.064 -0.0324  0.5081  0.1552
  323SOL     OW  967   2.455   0.875   1.021 -0.0635 -0.2074  0.0011
  323SOL    HW1  968   2.399   0.964   1.022 -0.4899  3.4721  0.3078
  323SOL    HW2  969   2.459   0.841   1.119  0.8586 -1.9273  0.2134
  324SOL     OW  970   2.719   0.125   2.219 -0.0456 -0.4601  0.5961
  324SOL    HW1  971   2.745   0.151   2.314 -2.5699 -0.1350 -1.1029
  324SOL    HW2  972   2.635   0.182   2.194 -0.9065  2.6490  0.6086
  325SOL     OW  973   1.188   0.846   2.455  0.6185 -0.6813 -0.0046
  325SOL    HW1  974   1.199   0.757   2.496  1.3951  3.9742 -1.3425
  325SOL    HW2  975   1.175   0.835   2.351 -1.0348  0.0396 -0.6281
  326SOL     OW  976   1.882   2.894   1.803 -0.2468  0.5084  0.1023
  326SOL    HW1  977   1.828   2.901   1.890  1.5239 -1.0204  0.0993
  326SOL    HW2  978   1.967   2.840   1.811 -3.2290  2.3157  1.6531
  327SOL     OW  979   2.175   0.393   0.111 -0.5228 -0.2501  0.1433
  327SOL    HW1  980   2.179   0.352   0.205  0.2504 -0.1007  0.6713
  327SOL    HW2  981   2.220   0.328   0.047 -0.9243 -0.8808  0.9567
  328SOL     OW  982   0.226   1.500   2.691 -0.1326  0.2998  0.0019
  328SOL    HW1  983   0.226   1.405   2.725 -2.6872 -2.5072  0.9841
  328SOL    HW2  984   0.131   1.510   2.650 -0.1557  1.1680 -1.2999
  329SOL     OW  985   1.860   0.030   1.623  0.2489  0.0505  0.4629
  329SOL    HW1  986   1.884   3.037   1.682 -0.7493 -1.3066  0.7219
  329SOL    HW2  987   1.868   0.002   1.525 -1.3552 -0.9652 -0.6882
  330SOL     OW  988   0.182   1.032   0.968  0.2302  0.2329 -0.1513
  330SOL    HW1  989   0.090   0.990   0.966  0.8239  1.6288 -0.5666
  330SOL    HW2  990   0.191   1.101   1.044  0.5189 -1.3977  1.5125
  331SOL     OW  991   0.095   1.671   2.297  0.5047  0.0214 -0.6280
  331SOL    HW1  992   0.071   1.577   2.325 -0.6795 -1.3346 -1.0685
  331SOL    HW2  993   0.156   1.727   2.364 -1.1728 -0.2377 -1.2988
  332SOL     OW  994   0.044   2.785   1.592 -0.6985  0.4221  0.3958
  332SOL    HW1  995   0.021   2.804   1.686 -1.3239 -1.9782 -2.3307
  332SOL    HW2  996   3.075   2.840   1.529  1.0600  4.0031 -0.5201
  333SOL     OW  997   2.285   0.118   0.628  0.7905 -0.0731 -0.3063
  333SOL    HW1  998   2.214   0.046   0.644 -0.1503 -0.3887  0.2561
  333SOL    HW2  999   2.257   0.206   0.674 -0.0077  0.9531  3.5865
  334SOL     OW 1000   0.553   2.044   0.641 -0.0910  0.0067 -0.1971
  334SOL    HW1 1001   0.640   2.025   0.585  4.8081 -1.8440  2.1404
  334SOL    HW2 1002   0.474   2.046   0.574  2.0370 -1.3028 -0.7786
  335SOL     OW 1003   0.060   2.583   0.187  0.4621  0.0921 -0.5639
  335SOL    HW1 1004   3.070   2.527   0.164  1.4486  0.1937  1.9887
  335SOL    HW2 1005   0.148   2.538   0.150  3.4888 -1.0941 -1.4690
  336SOL     OW 1006   0.065   3.078   2.289  0.0026 -0.5452  0.3079
  336SOL    HW1 1007   0.046   0.085   2.250  0.2413  0.0033  0.2706
  336SOL    HW2 1008   0.163   3.047   2.283  0.5309 -0.3702  0.1361
  337SOL     OW 1009   2.320   2.203   2.533 -0.1189 -0.1261 -0.0466
  337SOL    HW1 1010   2.347   2.125   2.588  2.5708 -0.9685 -4.0828
  337SOL    HW2 1011   2.352   2.188   2.437 -0.7018 -1.1565  0.3336
  338SOL     OW 1012   0.745   0.471   0.608 -0.2966  0.1766 -0.0040
  338SOL    HW1 1013   0.705   0.546   0.669 -0.3102  1.0845 -2.3094
  338SOL    HW2 1014   0.687   0.390   0.613 -2.0034  0.5594  0.0015
  339SOL     OW 1015   0.266   0.774   1.851  0.4044 -0.0714  0.1862
  339SOL    HW1 1016   0.248   0.855   1.912  0.2714 -3.0034  1.5265
  339SOL    HW2 1017   0.265   0.808   1.756 -0.3042 -1.4291 -0.4654
  340SOL     OW 1018   1.721   2.846   0.359  0.0903  0.6822 -0.0753
  340SOL    HW1 1019   1.794   2.889   0.411 -2.3292 -2.2034  1.5595
  340SOL    HW2 1020   1.652   2.919   0.339  0.4343 -1.7611  0.4751
  341SOL     OW 1021   2.021   1.005   1.078 -0.5018  0.1429  0.0587
  341SOL    HW1 1022   1.972   0.933   1.031 -1.6282 -1.0729  0.3663
  341SOL    HW2 1023   2.123   0.992   1.061  3.3907  3.3194 -1.0740
  342SOL     OW 1024   2.386   2.731   0.103 -0.4888 -0.4671 -0.4810
  342SOL    HW1 1025   2.342   2.785   0.030  1.8783 -0.2922  0.5045
  342SOL    HW2 1026   2.462   2.679   0.060 -1.0855  2.2660  2.6217
  343SOL     OW 1027   1.466   2.049   1.620  0.1681  0.0558  0.7623
  343SOL    HW1 1028   1.543   2.061   1.687 -2.4320  2.5610 -1.1111
  343SOL    HW2 1029   1.460   1.954   1.584  1.1781  0.4254 -1.9626
  344SOL     OW 1030   2.467   2.728   0.934  0.4595 -0.1963  1.0911
  344SOL    HW1 1031   2.406   2.659   0.967  1.0427 -1.1301  0.3857
  344SOL    HW2 1032   2.512   2.698   0.848 -1.1220 -0.2604  0.3069
  345SOL     OW 1033   2.710   2.328   0.032 -0.0660  1.0882 -0.0244
  345SOL    HW1 1034   2.720   2.410   3.062  2.7199 -1.1819 -1.9377
  345SOL    HW2 1035   2.798   2.269   0.029 -0.8887  2.1683  2.3352
  346SOL     OW 1036   2.660   1.607   0.783 -0.2615 -0.0236  0.1245
  346SOL    HW1 1037   2.609   1.689   0.749 -0.8923  4.2840 -0.5212
  346SOL    HW2 1038   2.749   1.640   0.823 -1.4763  0.9035  0.8680
  347SOL     OW 1039   1.645   2.013   1.840  0.3668 -0.3262 -0.0209
  347SOL    HW1 1040   1.683   2.098   1.885 -0.2036 -0.6418  1.8620
  347SOL    HW2 1041   1.633   1.936   1.902  2.0819 -2.4868 -0.5198
  348SOL     OW 1042   0.629   1.560   2.674  0.0460  0.4214 -0.4043
  348SOL    HW1 1043   0.706   1.633   2.660  0.7927  3.7231 -2.9325
  348SOL    HW2 1044   0.636   1.524   2.773  0.4600 -2.8567  0.2800
  349SOL     OW 1045   2.323   1.255   1.250  0.0562  0.1590  0.7581
  349SOL    HW1 1046   2.267   1.329   1.209  0.1050  0.5537  2.0187
  349SOL    HW2 1047   2.413   1.294   1.284  0.7353 -1.9129  1.2587
  350SOL     OW 1048   2.901   2.425   1.169 -0.0773  0.2351 -0.8611
  350SOL    HW1 1049   2.919   2.365   1.250 -0.7352 -1.0911 -1.5851
  350SOL    HW2 1050   2.800   2.406   1.141 -1.0345 -2.3990 -1.2796
  351SOL     OW 1051   0.530   0.060   2.220  0.8970 -0.4829  0.3318
  351SOL    HW1 1052   0.487   0.151   2.236  0.6172 -0.9014  1.8269
  351SOL    HW2 1053   0.589   0.039   2.304  0.0350 -3.8027  1.3126
  352SOL     OW 1054   0.849   1.586   0.965  0.1501 -0.3573  0.2818
  352SOL    HW1 1055   0.901   1.508   1.000 -0.4576  2.8044 -2.1934
  352SOL    HW2 1056   0.760   1.562   0.918 -2.1443 -0.6264 -1.1422
  353SOL     OW 1057   1.333   1.529   2.291  0.0037 -0.1242 -0.4136
  353SOL    HW1 1058   1.294   1.600   2.226  0.6438  1.2200  0.2445
  353SOL    HW2 1059   1.263   1.514   2.366 -0.2859  0.3345 -2.1900
  354SOL     OW 1060   1.286   0.181   0.881  0.7242 -0.0970 -0.6470
  354SOL    HW1 1061   1.321   0.278   0.877 -0.0143  3.0985 -2.2629
  354SOL    HW2 1062   1.182   0.183   0.883  1.6730  1.2173 -1.8368
  355SOL     OW 1063   2.696   1.256   0.536 -0.3751 -0.7350  0.2083
  355SOL    HW1 1064   2.692   1.307   0.447 -0.3932 -0.1632 -0.8880
  355SOL    HW2 1065   2.601   1.229   0.564 -0.5720 -1.5811 -2.1271
  356SOL     OW 1066   2.392   1.774   2.222  0.0002  0.2986 -0.3018
  356SOL    HW1 1067   2.324   1.827   2.277  0.2077  0.9542 -0.8103
  356SOL    HW2 1068   2.421   1.831   2.143 -0.4967  1.3521 -1.4642
  357SOL     OW 1069   0.576   2.696   1.541 -0.3739 -0.1776 -0.2950
  357SOL    HW1 1070   0.531   2.781   1.510 -0.8389 -2.7418  1.4011
  357SOL    HW2 1071   0.672   2.718   1.557  0.0328 -2.1787 -1.9673
  358SOL     OW 1072   2.354   0.655   1.296  0.4790 -0.1484 -0.1835
  358SOL    HW1 1073   2.409   0.581   1.253 -1.1768  0.6222 -2.2892
  358SOL    HW2 1074   2.340   0.636   1.393 -0.7791 -0.9855  0.5781
  359SOL     OW 1075   2.216   2.657   2.653  0.1431  0.5715 -0.3862
  359SOL    HW1 1076   2.159   2.727   2.604  3.3502 -3.5859 -3.3582
  359SOL    HW2 1077   2.186   2.631   2.746 -1.0102  0.5920 -0.0547
  360SOL     OW 1078   0.911   0.445   0.936  0.0138 -0.5746 -0.3224
  360SOL    HW1 1079   0.975   0.521   0.943 -2.1540 -0.7803 -0.1985
  360SOL    HW2 1080   0.954   0.381   0.867 -0.1837  0.8039 -2.3247
  361SOL     OW 1081   1.872   2.919   1.180 -0.0423  0.3609 -0.2730
  361SOL    HW1 1082   1.824   2.940   1.092 -1.2849 -0.6627 -2.7264
  361SOL    HW2 1083   1.958   2.874   1.157  1.1074 -1.0399  2.3758
  362SOL     OW 1084   1.350   1.182   0.442 -0.1475  0.5155  0.0214
  362SOL    HW1 1085   1.440   1.201   0.394  2.3071 -0.6184 -0.8639
  362SOL    HW2 1086   1.374   1.145   0.534  2.9776 -2.0656 -4.4844
  363SOL     OW 1087   2.119   1.654   2.457  0.0344 -0.0657  0.2970
  363SOL    HW1 1088   2.184   1.656   2.538  1.2386 -0.0089  2.9969
  363SOL    HW2 1089   2.090   1.559   2.439 -1.5491  1.9953  0.0042
  364SOL     OW 1090   0.326   0.390   1.215  0.2818 -0.0013 -0.5027
  364SOL    HW1 1091   0.326   0.493   1.192 -2.4778 -1.9231 -0.5273
  364SOL    HW2 1092   0.276   0.366   1.298 -0.4912 -0.9500 -2.1685
  365SOL     OW 1093   0.212   2.762   0.323  0.5181 -0.2351 -0.3799
  365SOL    HW1 1094   0.165   2.692   0.267 -0.1600  0.7060  0.3990
  365SOL    HW2 1095   0.146   2.803   0.391 -1.5079  0.6836 -1.7102
  366SOL     OW 1096   2.370   1.994   2.983 -0.1115 -0.2102 -0.5732
  366SOL    HW1 1097   2.301   1.965   3.047  2.0175 -1.1815  0.8200
  366SOL    HW2 1098   2.387   2.093   2.982 -2.8507  0.5846  2.8141
  367SOL     OW 1099   2.415   2.454   2.862  0.7507  0.2267  0.0116
  367SOL    HW1 1100   2.418   2.490   2.767  0.5688  0.9463 -4.7966
  367SOL    HW2 1101   2.465   2.365   2.859 -2.0905  0.5327 -0.0204
  368SOL     OW 1102   0.187   1.754   1.067  0.9780  0.0684 -0.1280
  368SOL    HW1 1103   0.240   1.747   1.151 -0.8019  0.4285 -1.4362
  368SOL    HW2 1104   0.204   1.844   1.025  1.4735 -1.8282  0.2973
  369SOL     OW 1105   0.927   2.491   2.841  0.2564  0.2618  0.0287
  369SOL    HW1 1106   0.938   2.553   2.760 -0.4998 -0.9574 -1.5951
  369SOL    HW2 1107   0.997   2.520   2.913 -0.0873 -1.2810  2.0103
  370SOL     OW 1108   0.149   0.856   0.642  0.2518 -0.2327 -0.1447
  370SOL    HW1 1109   0.092   0.915   0.702  1.9726 -2.1542 -1.4711
  370SOL    HW2 1110   0.147   0.759   0.670  0.7607  3.5522 -0.0243
  371SOL     OW 1111   2.020   2.696   0.877 -0.3395  0.2757 -0.2865
  371SOL    HW1 1112   1.980   2.743   0.797  0.3155 -2.1174 -0.1248
  371SOL    HW2 1113   1.965   2.623   0.917  1.8618 -0.8110  1.2048
  372SOL     OW 1114   0.101   1.091   2.818 -0.1583  0.3910  0.4406
  372SOL    HW1 1115   0.158   1.156   2.775  1.2782 -3.1494  1.5319
  372SOL    HW2 1116   0.160   1.014   2.834 -1.7423  3.6031  1.1012
  373SOL     OW 1117   2.949   1.904   0.759  0.0791 -0.3536  0.4567
  373SOL    HW1 1118   2.928   1.838   0.835  1.1898  0.8522  2.8582
  373SOL    HW2 1119   3.042   1.889   0.717  1.3640  0.4033 -0.5681
  374SOL     OW 1120   0.065   2.359   0.431  0.5424  0.2434 -0.0948
  374SOL    HW1 1121   0.074   2.271   0.378  0.5415 -2.3076 -1.4956
  374SOL    HW2 1122   0.124   2.362   0.513 -1.7481 -3.6405  0.4711
  375SOL     OW 1123   0.440   0.546   0.204 -0.3465 -0.6405  0.1257
  375SOL    HW1 1124   0.467   0.579   0.298 -0.0432  0.0908  3.9742
  375SOL    HW2 1125   0.485   0.457   0.182 -0.3502 -2.0992  3.3990
  376SOL     OW 1126   0.581   2.284   2.254 -0.7236  1.3961 -0.3100
  376SOL    HW1 1127   0.612   2.218   2.323  0.1198  0.5332 -1.3617
  376SOL    HW2 1128   0.665   2.320   2.205 -2.4445  1.0592 -0.7712
  377SOL     OW 1129   1.719   2.461   2.700  0.3316 -0.0209  0.4803
  377SOL    HW1 1130   1.642   2.405   2.667  2.7250  5.1361  0.1663
  377SOL    HW2 1131   1.795   2.403   2.739 -1.0903 -0.0721 -1.5236
  378SOL     OW 1132   0.951   0.914   0.421 -0.5914 -0.1495 -0.0815
  378SOL    HW1 1133   0.988   0.885   0.330  0.2235 -2.1404 -2.4331
  378SOL    HW2 1134   0.945   0.833   0.482 -1.0983 -0.9696  0.1036
  379SOL     OW 1135   0.824   1.752   0.456 -0.5316  0.5473  0.0084
  379SOL    HW1 1136   0.743   1.742   0.518 -1.5556 -0.0169 -0.7507
  379SOL    HW2 1137   0.878   1.665   0.457  0.2444 -0.5528  0.7318
  380SOL     OW 1138   0.321   2.023   1.413  0.4511 -0.3187 -0.0045
  380SOL    HW1 1139   0.261   2.086   1.358 -1.1360  0.4765 -1.2520
  380SOL    HW2 1140   0.363   2.083   1.483 -1.0621  0.4761  0.7883
  381SOL     OW 1141   0.409   1.193   1.526  0.6533 -0.1484  0.2714
  381SOL    HW1 1142   0.499   1.152   1.556 -0.9236 -0.4938 -2.5276
  381SOL    HW2 1143   0.384   1.284   1.558 -2.9280 -2.2317 -0.5454
  382SOL     OW 1144   2.500   1.914   0.509 -0.1966  0.4015  0.4248
  382SOL    HW1 1145   2.541   2.000   0.543  1.0958  3.3881  0.4310
  382SOL    HW2 1146   2.479   1.939   0.408 -1.4217 -0.1759 -0.9980
  383SOL     OW 1147   2.804   1.927   2.155 -0.2093 -0.3821 -0.2336
  383SOL    HW1 1148   2.812   1.968   2.059 -0.5407 -1.0671  0.2050
  383SOL    HW2 1149   2.715   1.961   2.191 -1.5924  2.3033  0.4339
  384SOL     OW 1150   0.091   2.119   2.098  0.5037 -0.4390  0.3016
  384SOL    HW1 1151   0.180   2.156   2.143  3.7267  1.5118  3.0516
  384SOL    HW2 1152   0.078   2.020   2.115  0.6865  1.8239  2.9203
  385SOL     OW 1153   2.985   2.174   0.797 -0.6058  0.0744 -0.0987
  385SOL    HW1 1154   2.965   2.072   0.792  1.7929 -1.1470 -2.1112
  385SOL    HW2 1155   2.933   2.225   0.734  3.3389 -1.4711  3.0367
  386SOL     OW 1156   1.694   0.748   0.652 -0.1761  0.0669 -0.0209
  386SOL    HW1 1157   1.625   0.807   0.610 -0.2036 -1.3313  0.7750
  386SOL    HW2 1158   1.669   0.652   0.632 -1.4241 -0.6192  1.9689
  387SOL     OW 1159   0.446   0.600   1.922 -0.0596  0.3141  0.2183
  387SOL    HW1 1160   0.378   0.676   1.904  2.6448  1.3032  0.5299
  387SOL    HW2 1161   0.535   0.644   1.909  0.6394  1.3569 -0.2211
  388SOL     OW 1162   2.352   0.950   2.404  0.1587  0.0840  0.2797
  388SOL    HW1 1163   2.361   1.043   2.442 -2.9139  0.0067 -1.9917
  388SOL    HW2 1164   2.254   0.923   2.388  1.3225  0.5519  1.3443
  389SOL     OW 1165   1.970   1.280   1.965  0.6440 -0.1899  0.0511
  389SOL    HW1 1166   1.995   1.300   1.868 -1.2635  2.5949 -1.8034
  389SOL    HW2 1167   2.042   1.235   2.018 -0.6215 -0.4466 -2.3963
  390SOL     OW 1168   1.817   2.605   0.284  0.0679  1.5283  0.1332
  390SOL    HW1 1169   1.781   2.691   0.329  0.5814  0.3244 -1.6080
  390SOL    HW2 1170   1.776   2.593   0.192  1.3556  0.2399  1.4026
  391SOL     OW 1171   2.264   2.270   1.146  0.3293  0.2320  0.6475
  391SOL    HW1 1172   2.195   2.194   1.127 -2.3299 -1.2326 -1.6122
  391SOL    HW2 1173   2.296   2.264   1.245 -0.2149  0.1909  0.3152
  392SOL     OW 1174   3.026   2.682   1.165  0.3346 -0.0230 -0.2342
  392SOL    HW1 1175   2.962   2.601   1.168  0.2108 -1.7514  3.1633
  392SOL    HW2 1176   0.033   2.656   1.200  1.1197 -2.5679  0.5573
  393SOL     OW 1177   2.064   1.716   0.013 -0.0516  0.2469 -0.3824
  393SOL    HW1 1178   1.994   1.650   0.049 -0.4104 -1.1596  0.5807
  393SOL    HW2 1179   2.030   1.755   3.013 -1.2172  0.1206 -1.1466
  394SOL     OW 1180   2.999   0.299   2.979  0.1770  0.1779 -0.0152
  394SOL    HW1 1181   3.041   0.387   3.009  0.0121 -0.7719  0.6479
  394SOL    HW2 1182   2.907   0.286   3.028  1.6539 -0.3955 -0.8684
  395SOL     OW 1183   1.108   0.975   0.991 -0.3561 -0.2256  0.4442
  395SOL    HW1 1184   1.128   1.069   0.968 -1.4674  0.5772 -1.9775
  395SOL    HW2 1185   1.045   0.933   0.922  2.4168  1.7068 -0.9905
  396SOL     OW 1186   1.306   0.665   2.911 -0.0047  0.0445  0.0683
  396SOL    HW1 1187   1.250   0.639   2.828 -0.2766 -1.6485 -1.9876
  396SOL    HW2 1188   1.389   0.600   2.913 -0.9527 -0.7852 -1.6686
  397SOL     OW 1189   0.121   0.446   2.623  0.1401 -0.1029 -0.2421
  397SOL    HW1 1190   0.026   0.476   2.617  1.9424 -0.0132  2.8953
  397SOL    HW2 1191   0.125   0.347   2.625  0.3752  2.8053 -1.2406
  398SOL     OW 1192   0.869   0.130   0.205 -0.2126 -0.4262  0.3982
  398SOL    HW1 1193   0.869   0.229   0.243  0.0946  2.1483 -0.9682
  398SOL    HW2 1194   0.817   0.128   0.119  0.8761 -0.7600 -0.5401
  399SOL     OW 1195   2.288   2.984   1.763  0.6927  0.4122  0.3597
  399SOL    HW1 1196   2.321   2.887   1.739 -1.6672 -1.7798 -0.5550
  399SOL    HW2 1197   2.358   3.053   1.790  0.0357 -0.9156  0.4174
  400SOL     OW 1198   0.304   1.731   2.467  0.2779 -0.2745 -0.5500
  400SOL    HW1 1199   0.364   1.728   2.548  3.8545 -1.3249 -0.9475
  400SOL    HW2 1200   0.345   1.784   2.385 -0.1650  0.4020 -1.7348
  401SOL     OW 1201   0.922   0.347   2.656  0.6776  0.1715 -0.3168
  401SOL    HW1 1202   0.972   0.265   2.694  0.3460  0.5738 -1.2270
  401SOL    HW2 1203   0.939   0.426   2.717 -0.1283 -1.8176  0.0155
  402SOL     OW 1204   2.930   2.068   1.656  0.0583  0.0303  0.0925
  402SOL    HW1 1205   2.982   1.985   1.627  0.9353  0.2515  1.3449
  402SOL    HW2 1206   2.967   2.094   1.747 -0.1974 -1.9928 -1.1530
  403SOL     OW 1207   0.643   1.066   1.894 -0.2120 -0.1189  0.2338
  403SOL    HW1 1208   0.682   1.114   1.974  2.3832 -0.6541  0.1106
  403SOL    HW2 1209   0.549   1.088   1.876  0.0438  1.0392 -1.6238
  404SOL     OW 1210   3.062   2.493   1.527  0.2164  0.0074 -0.4572
  404SOL    HW1 1211   3.056   2.577   1.577  0.6149 -2.2501  1.1689
  404SOL    HW2 1212   2.971   2.446   1.520 -2.3327 -0.4383 -0.6889
  405SOL     OW 1213   0.372   0.420   1.715 -0.4893  0.4250 -0.0929
  405SOL    HW1 1214   0.426   0.478   1.776 -1.8025  1.4788  0.7979
  405SOL    HW2 1215   0.362   0.323   1.743 -1.8666  1.1596  0.1717
  406SOL     OW 1216   1.975   2.137   0.086 -0.4366 -0.0299  1.0092
  406SOL    HW1 1217   2.015   2.143   0.183  2.0595  1.5151  2.0072
  406SOL    HW2 1218   1.982   2.228   0.041  0.3384 -0.3823  0.7197
  407SOL     OW 1219   1.683   0.896   1.860  0.2620 -0.3963 -0.1924
  407SOL    HW1 1220   1.612   0.902   1.796  0.2991 -3.6198  0.6694
  407SOL    HW2 1221   1.695   0.987   1.905 -3.2511 -1.7782  0.3554
  408SOL     OW 1222   0.752   0.251   2.849  0.0426  0.6223  0.0130
  408SOL    HW1 1223   0.712   0.173   2.796 -0.3416 -0.8920  0.0474
  408SOL    HW2 1224   0.819   0.307   2.796  2.7780  1.9230 -0.8215
  409SOL     OW 1225   3.041   1.926   0.384 -0.0123 -0.0534  0.0756
  409SOL    HW1 1226   2.942   1.945   0.398 -2.7635  1.6869 -0.7905
  409SOL    HW2 1227   3.086   1.921   0.475  1.2708  0.3516 -0.3984
  410SOL     OW 1228   2.701   1.474   0.314  0.2420 -0.5250 -0.3949
  410SOL    HW1 1229   2.696   1.562   0.262  0.8677  0.6247  2.5151
  410SOL    HW2 1230   2.755   1.407   0.257  0.0733 -0.6521 -0.0110
  411SOL     OW 1231   3.025   0.331   0.910  0.3080 -0.0216  0.1588
  411SOL    HW1 1232   3.060   0.251   0.856 -1.3924 -0.6703  1.3421
  411SOL    HW2 1233   3.078   0.341   0.999  2.2219 -3.1336  1.8813
  412SOL     OW 1234   1.292   0.759   0.812 -0.1470  0.1018 -0.0587
  412SOL    HW1 1235   1.227   0.836   0.806  0.7104 -1.6131 -1.9352
  412SOL    HW2 1236   1.379   0.797   0.851 -1.5847  1.7152 -3.4619
  413SOL     OW 1237   0.807   0.134   1.293  0.5350 -0.2125 -0.6099
  413SOL    HW1 1238   0.838   0.063   1.231  1.9220  1.5530  2.9623
  413SOL    HW2 1239   0.885   0.156   1.354 -0.3944  0.9243 -0.0114
  414SOL     OW 1240   2.962   1.815   2.886 -0.2324 -0.0991 -0.5025
  414SOL    HW1 1241   2.961   1.871   2.803  0.9568 -0.2967  0.6689
  414SOL    HW2 1242   3.011   1.867   2.963 -1.3378  0.0666 -1.0667
  415SOL     OW 1243   0.413   2.429   2.930 -0.1876  0.4993 -0.0159
  415SOL    HW1 1244   0.510   2.403   2.909 -1.2438  0.0019 -0.9591
  415SOL    HW2 1245   0.343   2.382   2.863  0.4936  0.6261 -1.8648
  416SOL     OW 1246   1.340   0.636   0.546  0.1017  0.4394 -0.4113
  416SOL    HW1 1247   1.270   0.609   0.477 -2.0951  0.5161  2.5319
  416SOL    HW2 1248   1.325   0.592   0.638  1.4159 -1.3196  0.4214
  417SOL     OW 1249   0.267   1.121   0.499 -0.0707 -0.6020 -0.3492
  417SOL    HW1 1250   0.224   1.109   0.406  0.6038  3.0222 -1.7614
  417SOL    HW2 1251   0.227   1.057   0.570 -0.6944 -0.4264  2.4026
  418SOL     OW 1252   2.553   1.336   2.209  0.2680  0.4280 -0.3372
  418SOL    HW1 1253   2.457   1.374   2.193 -1.3907 -1.6337 -1.4724
  418SOL    HW2 1254   2.574   1.324   2.307  0.3123 -0.4141 -0.1439
  419SOL     OW 1255   0.233   0.539   2.858  0.3441  0.6816  0.1745
  419SOL    HW1 1256   0.162   0.560   2.929  1.5873  0.7893  1.5582
  419SOL    HW2 1257   0.187   0.500   2.774 -1.3409  0.1283  0.0711
  420SOL     OW 1258   0.609   1.529   0.844  0.4715  0.4132 -0.0235
  420SOL    HW1 1259   0.527   1.580   0.878 -0.0012 -0.5046 -1.8032
  420SOL    HW2 1260   0.573   1.460   0.779 -2.3609  2.2454 -3.3216
  421SOL     OW 1261   0.648   2.245   0.807  0.8201 -0.5647 -0.1264
  421SOL    HW1 1262   0.750   2.253   0.796 -0.8310  1.8015  2.3113
  421SOL    HW2 1263   0.607   2.176   0.743 -0.9013  0.3136 -1.9232
  422SOL     OW 1264   2.774   0.911   1.549 -0.0599 -0.0565  0.4588
  422SOL    HW1 1265   2.850   0.937   1.478 -1.1576  0.7385 -2.4917
  422SOL    HW2 1266   2.728   0.823   1.522  0.4781 -0.2936  0.7055
  423SOL     OW 1267   1.316   1.518   1.296 -0.1806  0.7329 -0.2669
  423SOL    HW1 1268   1.316   1.557   1.389 -0.0029  0.1150 -2.2786
  423SOL    HW2 1269   1.395   1.552   1.244  1.7711 -0.2272 -0.2219
  424SOL     OW 1270   1.919   1.013   3.059 -0.2178  0.7577  0.1976
  424SOL    HW1 1271   1.860   1.086   0.011 -1.4817 -1.3841  2.3549
  424SOL    HW2 1272   1.971   1.038   2.975  1.0005  0.2267 -0.0351
  425SOL     OW 1273   3.087   0.544   1.918  0.0927  0.4138  0.7091
  425SOL    HW1 1274   0.097   0.512   1.933 -0.5691 -0.4000  0.7627
  425SOL    HW2 1275   3.045   0.504   1.827 -1.0821 -0.9080  0.7636
  426SOL     OW 1276   2.475   2.785   2.660 -0.1694 -0.5061 -0.1185
  426SOL    HW1 1277   2.393   2.725   2.656  0.3489 -0.3664 -1.8906
  426SOL    HW2 1278   2.508   2.792   2.565 -1.8195 -1.0760  1.8893
  427SOL     OW 1279   1.110   0.857   2.184 -0.6856  0.1241 -0.1888
  427SOL    HW1 1280   1.203   0.862   2.147 -0.1981 -0.0416  0.2442
  427SOL    HW2 1281   1.054   0.929   2.143 -0.2634 -0.9265  0.0976
  428SOL     OW 1282   2.138   1.069   2.097  0.2536 -0.0193  0.2208
  428SOL    HW1 1283   2.210   1.005   2.120 -1.7268  1.4553 -2.5395
  428SOL    HW2 1284   2.072   1.013   2.041 -3.8938 -1.1573 -1.3625
  429SOL     OW 1285   0.023   2.892   0.493  0.3187 -0.7420 -0.3112
  429SOL    HW1 1286   0.021   2.912   0.594 -0.7218 -0.1555  1.9779
  429SOL    HW2 1287   0.002   2.974   0.437  0.1205 -1.2106 -0.2138
  430SOL     OW 1288   1.985   1.217   2.304  0.5753  0.3025  0.2143
  430SOL    HW1 1289   2.043   1.270   2.371 -0.3723 -2.0553  1.8513
  430SOL    HW2 1290   2.050   1.186   2.230  3.8835 -1.2849  3.2059
  431SOL     OW 1291   0.376   1.765   1.294 -0.0458 -0.6017  0.3494
  431SOL    HW1 1292   0.334   1.851   1.329  1.3220 -0.5518 -1.7654
  431SOL    HW2 1293   0.481   1.772   1.295  2.8230 -0.7334  0.3779
  432SOL     OW 1294   1.779   0.261   2.239 -0.0267  0.1358 -0.4904
  432SOL    HW1 1295   1.780   0.182   2.306  0.3692  1.2845  1.6140
  432SOL    HW2 1296   1.732   0.340   2.284 -1.4828 -2.3317 -0.8485
  433SOL     OW 1297   1.409   3.085   1.922 -1.0428  0.3928  0.1895
  433SOL    HW1 1298   1.347   0.018   1.844  2.0589 -1.5374 -1.4525
  433SOL    HW2 1299   1.505   0.011   1.886  1.9379  2.2395  1.3988
  434SOL     OW 1300   0.459   2.475   2.078  0.1201  0.3106  0.1147
  434SOL    HW1 1301   0.401   2.417   2.015  0.4452 -0.4700 -2.4309
  434SOL    HW2 1302   0.519   2.416   2.136  0.0192 -0.1496 -1.1449
  435SOL     OW 1303   0.355   2.162   0.252  0.2387  0.0570 -0.7670
  435SOL    HW1 1304   0.387   2.251   0.290  0.3133 -0.8724  0.0823
  435SOL    HW2 1305   0.426   2.126   0.184  1.7542 -1.4567 -3.9856
  436SOL     OW 1306   0.686   0.775   1.960  0.2136 -0.1474 -0.5686
  436SOL    HW1 1307   0.765   0.736   1.906  0.2028  0.4906 -0.7947
  436SOL    HW2 1308   0.677   0.876   1.926  3.1517  0.2048 -1.7950
  437SOL     OW 1309   0.500   2.836   2.435 -0.5715 -0.1042  0.0074
  437SOL    HW1 1310   0.546   2.929   2.449  0.8048 -1.1595 -0.7284
  437SOL    HW2 1311   0.543   2.756   2.478 -0.9328 -1.0173  1.3723
  438SOL     OW 1312   0.957   1.689   1.629 -0.2594 -0.1810  0.5767
  438SOL    HW1 1313   0.950   1.754   1.703 -0.2898 -2.4105 -1.1202
  438SOL    HW2 1314   0.899   1.606   1.635  0.8390  1.7139  0.1294
  439SOL     OW 1315   2.133   0.793   3.055  0.0800  0.6933 -0.8223
  439SOL    HW1 1316   2.042   0.839   3.041  0.8930  0.4356 -2.2969
  439SOL    HW2 1317   2.136   0.763   0.068  0.4439  0.5632 -0.7739
  440SOL     OW 1318   0.857   0.374   0.363 -0.5394  0.1244 -0.0632
  440SOL    HW1 1319   0.824   0.407   0.454 -0.0528 -0.9054  0.3644
  440SOL    HW2 1320   0.849   0.450   0.290  1.0657  1.7175 -2.2244
  441SOL     OW 1321   0.997   2.294   1.329 -0.5783  0.3664  0.1550
  441SOL    HW1 1322   0.993   2.392   1.348  1.4163  1.2830  1.6937
  441SOL    HW2 1323   0.911   2.244   1.358 -4.3764 -4.0064  0.6694
  442SOL     OW 1324   3.072   1.404   0.725 -0.4442 -0.4444  0.0563
  442SOL    HW1 1325   3.050   1.343   0.647  1.4931  2.3459  2.8339
  442SOL    HW2 1326   2.991   1.457   0.754  2.7838 -0.1409  1.2718
  443SOL     OW 1327   2.737   1.924   2.470  0.2318 -0.4421  0.3746
  443SOL    HW1 1328   2.694   2.002   2.420 -1.2758  0.3067 -1.9762
  443SOL    HW2 1329   2.709   1.833   2.436  1.6719  1.0607  1.6080
  444SOL     OW 1330   1.510   1.029   0.119  0.2827 -0.4164  0.4062
  444SOL    HW1 1331   1.586   1.098   0.104 -1.2722 -0.3669 -0.9277
  444SOL    HW2 1332   1.428   1.080   0.149  2.6289 -0.2437  1.1786
  445SOL     OW 1333   2.679   2.723   2.023 -0.1113 -0.8520  0.5452
  445SOL    HW1 1334   2.678   2.814   1.976  0.8885 -2.0600 -0.9561
  445SOL    HW2 1335   2.601   2.718   2.090 -3.2682 -1.8443  1.8437
  446SOL     OW 1336   2.940   1.214   0.909 -0.2049  0.1267 -0.1241
  446SOL    HW1 1337   3.020   1.278   0.890  1.8152  3.0256  0.6710
  446SOL    HW2 1338   2.941   1.180   1.006  1.2869 -0.3429 -2.4503
  447SOL     OW 1339   1.127   1.849   1.130 -0.3638 -0.6041  0.0158
  447SOL    HW1 1340   1.112   1.889   1.224  0.9829 -1.4110  4.6795
  447SOL    HW2 1341   1.041   1.840   1.077 -0.4405  0.1093  2.0444
  448SOL     OW 1342   1.377   1.558   1.554 -0.1458  0.5829 -0.7441
  448SOL    HW1 1343   1.476   1.533   1.563 -0.1301  1.8833 -0.6830
  448SOL    HW2 1344   1.319   1.501   1.616 -0.6116  0.0961 -1.0285
  449SOL     OW 1345   2.722   2.354   2.294  0.3849  0.0763  0.3597
  449SOL    HW1 1346   2.681   2.422   2.360 -0.6806  2.1898  0.2665
  449SOL    HW2 1347   2.808   2.316   2.332 -1.5032  0.4274 -1.6836
  450SOL     OW 1348   3.030   1.677   1.848 -0.5364  0.1004 -0.4911
  450SOL    HW1 1349   2.935   1.715   1.857 -0.2426  2.8684 -0.5678
  450SOL    HW2 1350   3.052   1.594   1.901 -2.6358 -0.0516  1.8463
  451SOL     OW 1351   2.093   0.726   1.262  0.0491  0.0967  0.4163
  451SOL    HW1 1352   2.194   0.705   1.265  0.2087  0.3596  1.3119
  451SOL    HW2 1353   2.061   0.751   1.355  1.0165  1.1155  0.8350
  452SOL     OW 1354   0.499   1.287   0.695 -0.0069 -0.2458 -0.6624
  452SOL    HW1 1355   0.471   1.197   0.728 -0.7769  0.3991  3.3748
  452SOL    HW2 1356   0.455   1.326   0.611  2.1791 -1.7928 -2.7732
  453SOL     OW 1357   1.493   2.095   0.609 -0.1206  0.0980  0.3565
  453SOL    HW1 1358   1.503   2.119   0.702  0.6513  0.2042  2.0811
  453SOL    HW2 1359   1.571   2.140   0.558 -0.3082 -1.1775  0.0992
  454SOL     OW 1360   0.490   1.817   0.149 -0.5095  0.1256  0.3083
  454SOL    HW1 1361   0.548   1.729   0.156  0.9065 -1.3592 -1.2449
  454SOL    HW2 1362   0.418   1.812   0.223 -0.8628 -0.5398 -1.1045
  455SOL     OW 1363   1.283   1.182   0.184  0.2684 -0.3791  0.2276
  455SOL    HW1 1364   1.179   1.179   0.169 -0.3417 -0.3635 -0.4668
  455SOL    HW2 1365   1.306   1.185   0.281  0.3268  0.3419  0.1584
  456SOL     OW 1366   2.239   2.559   0.817  0.7647  0.1230 -0.1542
  456SOL    HW1 1367   2.200   2.462   0.822  1.5387 -2.2200 -0.9493
  456SOL    HW2 1368   2.173   2.627   0.858 -2.3508  1.7590  1.0351
  457SOL     OW 1369   1.647   2.926   2.945 -0.5539 -0.7943 -0.2067
  457SOL    HW1 1370   1.743   2.960   2.954  0.5684  0.1115  0.3467
  457SOL    HW2 1371   1.647   2.832   2.905  0.1588  0.9463 -2.4903
  458SOL     OW 1372   2.475   1.197   0.639 -0.4979  0.0419  0.3140
  458SOL    HW1 1373   2.398   1.183   0.572 -0.6720  1.1388  1.4929
  458SOL    HW2 1374   2.472   1.285   0.690  0.8183  0.4307 -0.4872
  459SOL     OW 1375   2.602   0.391   2.546  0.1480  0.4891  0.1499
  459SOL    HW1 1376   2.516   0.423   2.503 -0.5807 -1.9457 -0.2253
  459SOL    HW2 1377   2.682   0.389   2.484  0.6076  0.3903  0.0347
  460SOL     OW 1378   2.663   0.809   2.641 -0.2996  0.5524 -0.4896
  460SOL    HW1 1379   2.575   0.837   2.684 -2.1218  0.1284  0.9511
  460SOL    HW2 1380   2.718   0.895   2.611 -0.3310 -0.0979 -1.4172
  461SOL     OW 1381   3.001   2.426   0.907  0.4581 -0.0873  0.5058
  461SOL    HW1 1382   2.967   2.423   1.007 -1.8449 -1.5587  3.0818
  461SOL    HW2 1383   3.020   2.329   0.878  0.6037  0.1254  1.7577
  462SOL     OW 1384   3.075   2.865   1.879 -0.7100 -0.5293 -0.1251
  462SOL    HW1 1385   3.071   2.959   1.838  2.6335  0.2493 -0.7631
  462SOL    HW2 1386   0.036   2.868   1.970  1.2176  0.9682  1.9865
  463SOL     OW 1387   2.157   1.907   2.329  0.5375  0.1770 -0.0311
  463SOL    HW1 1388   2.141   1.816   2.380 -0.8327 -2.8958  1.0053
  463SOL    HW2 1389   2.077   1.961   2.329 -0.0276 -2.8388  0.7516
  464SOL     OW 1390   0.856   2.795   1.564  0.3554 -0.0697  0.0893
  464SOL    HW1 1391   0.870   2.795   1.667 -1.2380  0.1667  3.7810
  464SOL    HW2 1392   0.915   2.865   1.524 -1.7436 -1.7949  0.3108
  465SOL     OW 1393   0.819   0.072   1.643  0.2518  0.0218 -0.1044
  465SOL    HW1 1394   0.723   0.056   1.605 -0.4435 -1.2873 -1.1216
  465SOL    HW2 1395   0.817   0.162   1.693 -1.4017 -1.3082 -1.1762
  466SOL     OW 1396   1.531   2.687   1.925  0.1473  0.3272  0.4280
  466SOL    HW1 1397   1.623   2.681   1.967 -0.2179 -1.3582  0.4175
  466SOL    HW2 1398   1.466   2.741   1.985  1.6605 -0.4346  0.0376
  467SOL     OW 1399   0.592   2.030   1.330  0.2240  0.3783 -0.4397
  467SOL    HW1 1400   0.625   1.939   1.296 -2.2337 -0.7150 -0.7092
  467SOL    HW2 1401   0.503   2.022   1.378 -1.6563  0.7304  0.5605
  468SOL     OW 1402   2.653   1.708   2.311 -0.4336  0.4517  0.2774
  468SOL    HW1 1403   2.716   1.692   2.233  0.8831  3.4223 -0.2755
  468SOL    HW2 1404   2.562   1.739   2.279 -0.9069 -1.2657  1.2780
  469SOL     OW 1405   0.943   1.961   0.718 -0.2678  0.5890 -0.2235
  469SOL    HW1 1406   1.007   1.895   0.673 -0.4838 -3.2583 -0.2252
  469SOL    HW2 1407   0.935   1.940   0.822 -2.5671 -0.2986 -0.9543
  470SOL     OW 1408   2.150   1.216   1.656  0.4301 -0.2776  0.4571
  470SOL    HW1 1409   2.076   1.279   1.683  0.2410 -2.5387 -0.3559
  470SOL    HW2 1410   2.161   1.215   1.554  0.7589  0.1789 -5.2054
  471SOL     OW 1411   0.295   2.446   0.107  0.5710 -0.2923  0.0872
  471SOL    HW1 1412   0.348   2.408   0.181  1.4581 -0.1638  0.0412
  471SOL    HW2 1413   0.364   2.461   0.036  0.6232  0.4548  0.9466
  472SOL     OW 1414   2.782   2.049   1.911  0.2635  0.0541 -0.1675
  472SOL    HW1 1415   2.779   1.966   1.859  1.6389 -0.7550  1.6532
  472SOL    HW2 1416   2.694   2.105   1.917  2.3096 -0.3526 -0.3823
  473SOL     OW 1417   1.072   3.037   0.274 -0.1947  0.1370  0.0882
  473SOL    HW1 1418   1.043   2.944   0.240  0.1023 -0.5569 -1.3711
  473SOL    HW2 1419   1.021   0.019   0.223 -0.3339  1.9662  3.8241
  474SOL     OW 1420   2.638   2.611   0.721 -0.1176  0.1950  0.0135
  474SOL    HW1 1421   2.642   2.611   0.618 -1.4688  0.1199 -0.7764
  474SOL    HW2 1422   2.732   2.602   0.761 -2.0782  0.6840  1.6860
  475SOL     OW 1423   2.145   2.888   1.542 -0.3961 -0.0515  0.0305
  475SOL    HW1 1424   2.195   2.935   1.463  3.0067  1.5286  0.1368
  475SOL    HW2 1425   2.185   2.924   1.633  0.4908  0.7100  0.8105
  476SOL     OW 1426   0.944   0.848   0.799  0.1605 -0.3867 -0.2115
  476SOL    HW1 1427   0.939   0.777   0.724  1.2115 -0.8326 -1.2347
  476SOL    HW2 1428   0.878   0.828   0.876  2.1931  2.2328  2.7827
  477SOL     OW 1429   0.552   1.951   0.907 -0.4711  0.1300 -0.1633
  477SOL    HW1 1430   0.468   1.950   0.961 -0.0848 -0.6252  0.0197
  477SOL    HW2 1431   0.538   1.993   0.816  4.0770 -1.2029  2.0647
  478SOL     OW 1432   0.052   2.571   2.112  0.4692  0.0580 -0.5586
  478SOL    HW1 1433   3.040   2.564   2.118  2.2033 -0.2775  0.6832
  478SOL    HW2 1434   0.087   2.666   2.106 -1.0103 -1.2960  0.9897
  479SOL     OW 1435   0.168   0.553   1.583 -0.0941  0.3777 -0.3183
  479SOL    HW1 1436   0.077   0.529   1.622  2.5285  0.2088 -0.2426
  479SOL    HW2 1437   0.242   0.490   1.618  2.3001 -0.3135 -0.9737
  480SOL     OW 1438   2.984   2.520   3.023  0.3642  0.3710  0.0228
  480SOL    HW1 1439   2.900   2.495   2.967 -2.2460 -0.4904 -0.7481
  480SOL    HW2 1440   3.067   2.459   3.008  2.3471 -2.8227  1.6557
  481SOL     OW 1441   1.911   1.937   2.120 -0.2404  0.0131 -0.9265
  481SOL    HW1 1442   1.881   1.842   2.141  0.1307  1.6742  0.8958
  481SOL    HW2 1443   1.937   1.940   2.023 -0.3671  1.5384  1.9141
  482SOL     OW 1444   1.689   2.315   0.045  0.1464 -0.2593 -0.1575
  482SOL    HW1 1445   1.672   2.229   0.093 -0.3113 -1.2019  1.8967
  482SOL    HW2 1446   1.731   2.297   3.044 -2.7261  0.2432  1.3872
  483SOL     OW 1447   0.420   1.883   2.277 -0.3567  0.3943 -0.4124
  483SOL    HW1 1448   0.520   1.851   2.270 -1.6048 -1.9099  0.6185
  483SOL    HW2 1449   0.376   1.902   2.187  0.7727 -1.3807  0.0303
  484SOL     OW 1450   2.786   0.552   1.208 -0.5072 -0.0657 -0.4051
  484SOL    HW1 1451   2.859   0.629   1.212  1.1404  0.9678 -0.6971
  484SOL    HW2 1452   2.761   0.537   1.111  1.8997  1.8044  0.2008
  485SOL     OW 1453   2.143   1.100   0.772  0.1169  0.2413  0.3663
  485SOL    HW1 1454   2.130   0.998   0.755 -1.5231 -1.4026 -2.9891
  485SOL    HW2 1455   2.116   1.151   0.689 -0.2687  1.2762  0.2849
  486SOL     OW 1456   1.435   0.344   2.257  0.1605 -0.4059 -0.3139
  486SOL    HW1 1457   1.498   0.422   2.268 -1.4367  0.9373 -1.1295
  486SOL    HW2 1458   1.441   0.279   2.338 -2.7145 -1.7663 -0.8518
  487SOL     OW 1459   0.966   1.334   1.041 -0.0319 -0.3734 -0.1029
  487SOL    HW1 1460   0.889   1.269   1.051 -1.8352 -2.1285 -2.6641
  487SOL    HW2 1461   1.036   1.295   0.975  2.0278  0.9876  1.3373
  488SOL     OW 1462   2.366   1.433   2.829  0.1525 -0.0865  0.1373
  488SOL    HW1 1463   2.335   1.501   2.760 -0.3476 -2.3199  2.3144
  488SOL    HW2 1464   2.342   1.458   2.924  2.6558  0.0553 -2.0021
  489SOL     OW 1465   2.425   0.214   0.416  0.3660  0.1519  0.1798
  489SOL    HW1 1466   2.518   0.178   0.390 -0.8150  3.9238  0.4773
  489SOL    HW2 1467   2.386   0.159   0.498  0.5523 -1.3894 -0.1286
  490SOL     OW 1468   1.468   2.284   0.336  0.0610 -0.0791 -0.1759
  490SOL    HW1 1469   1.560   2.242   0.352 -1.5109  1.6802  1.1950
  490SOL    HW2 1470   1.483   2.377   0.286 -0.8092  0.1776  1.0190
  491SOL     OW 1471   1.056   1.028   0.646 -0.6633  0.0304 -0.2055
  491SOL    HW1 1472   1.010   0.966   0.709  0.1773  0.0114 -1.6895
  491SOL    HW2 1473   1.038   0.997   0.551  1.2178 -3.7768  0.3688
  492SOL     OW 1474   1.591   0.309   0.013 -0.5829  0.0887 -0.5902
  492SOL    HW1 1475   1.660   0.252   3.051 -0.8824  1.3715  0.6497
  492SOL    HW2 1476   1.597   0.411   3.083 -0.2059  0.6745 -0.7091
  493SOL     OW 1477   2.075   2.129   0.345 -0.0581  0.3928  0.5557
  493SOL    HW1 1478   2.069   2.220   0.388 -2.6689  2.8180  3.1220
  493SOL    HW2 1479   2.119   2.060   0.411 -0.9995 -0.8112 -0.9325
  494SOL     OW 1480   0.551   0.990   0.439  0.8716 -0.4743  0.4990
  494SOL    HW1 1481   0.599   1.074   0.474 -0.2099 -2.6532  0.5699
  494SOL    HW2 1482   0.576   0.978   0.340 -0.9899  0.4961 -2.5706
  495SOL     OW 1483   2.979   2.864   0.931 -0.0825  0.0405  0.1386
  495SOL    HW1 1484   2.937   2.828   1.017 -1.5890 -2.0697 -0.9328
  495SOL    HW2 1485   2.962   2.786   0.861 -0.1067 -2.7149  0.3173
  496SOL     OW 1486   2.330   0.262   1.689 -0.1331 -0.2145  0.2161
  496SOL    HW1 1487   2.389   0.274   1.605  0.4535  1.3864 -2.3642
  496SOL    HW2 1488   2.232   0.259   1.658  0.8979  0.7418  1.1896
  497SOL     OW 1489   1.919   1.687   2.644 -0.0208  0.2116  0.1232
  497SOL    HW1 1490   1.967   1.672   2.554  1.4480  0.9785  0.4851
  497SOL    HW2 1491   1.817   1.703   2.634 -2.2098  0.1481 -0.7554
  498SOL     OW 1492   0.894   1.866   0.985  0.0645  0.0550  0.2959
  498SOL    HW1 1493   0.848   1.943   1.040 -0.9457  1.0568  1.8159
  498SOL    HW2 1494   0.847   1.771   0.986 -0.1559 -2.6244 -0.4199
  499SOL     OW 1495   0.741   2.219   1.450 -0.3729  0.2745  0.4992
  499SOL    HW1 1496   0.684   2.136   1.424 -1.2203 -2.6266  0.2373
  499SOL    HW2 1497   0.709   2.302   1.400 -4.1275 -0.8361  1.1524
  500SOL     OW 1498   0.958   2.122   0.118 -0.3253 -0.2102 -0.0912
  500SOL    HW1 1499   0.962   2.215   0.156 -1.5592 -0.9534 -3.5144
  500SOL    HW2 1500   1.021   2.061   0.167  0.0851  1.9497  0.1996
  501SOL     OW 1501   2.702   2.956   1.392  0.5824  0.1671  0.6024
  501SOL    HW1 1502   2.701   2.924   1.295 -1.4641 -0.5355  0.8857
  501SOL    HW2 1503   2.712   2.884   1.457  1.7317  1.3236 -3.1749
  502SOL     OW 1504   0.253   0.837   1.554 -0.4856  0.0972 -0.3032
  502SOL    HW1 1505   0.240   0.739   1.561  0.0149  3.5831 -0.4532
  502SOL    HW2 1506   0.350   0.849   1.524  1.7812 -1.7168 -0.5080
  503SOL     OW 1507   2.062   0.967   1.709  0.6845 -0.0119  0.0672
  503SOL    HW1 1508   2.151   0.922   1.735 -0.7779 -0.7817  0.3673
  503SOL    HW2 1509   2.081   1.057   1.669  1.2593 -0.1716  1.6759
  504SOL     OW 1510   1.298   0.669   2.017  0.0492 -0.2273 -0.0002
  504SOL    HW1 1511   1.280   0.598   2.090 -1.8827  1.3323 -0.8938
  504SOL    HW2 1512   1.354   0.743   2.052 -1.8383  0.6242 -3.8817
  505SOL     OW 1513   0.709   3.054   2.415  0.1258  0.1804 -0.0611
  505SOL    HW1 1514   0.805   3.066   2.387  0.4519 -0.7860 -2.1981
  505SOL    HW2 1515   0.687   0.007   2.505 -1.8500 -0.4116  2.1073
  506SOL     OW 1516   3.070   0.403   1.167  0.4346  0.3321 -0.0168
  506SOL    HW1 1517   2.995   0.362   1.221  1.7119 -0.0465 -3.6276
  506SOL    HW2 1518   0.033   0.477   1.218  2.2632  3.7719  3.2566
  507SOL     OW 1519   1.352   0.196   0.060 -0.4025  0.1685 -0.4013
  507SOL    HW1 1520   1.442   0.241   0.038  2.7213 -3.4010  0.9935
  507SOL    HW2 1521   1.294   0.174   3.074 -0.2771  0.0777  1.2498
  508SOL     OW 1522   1.912   0.286   2.556  0.2421  0.0876  0.0126
  508SOL    HW1 1523   1.992   0.225   2.560  0.8222 -0.5120  0.2265
  508SOL    HW2 1524   1.834   0.238   2.509  1.1063 -0.1321  1.2570
  509SOL     OW 1525   0.677   1.302   2.097 -0.0980  0.3594  0.6915
  509SOL    HW1 1526   0.711   1.378   2.158 -0.3840  0.8884 -2.3585
  509SOL    HW2 1527   0.669   1.213   2.151  0.8746 -0.8886  0.9518
  510SOL     OW 1528   2.995   1.019   0.676 -0.1878  0.7375 -0.1432
  510SOL    HW1 1529   2.973   1.051   0.771  1.8362  0.4291  0.3908
  510SOL    HW2 1530   2.949   0.929   0.653 -0.1051 -0.2264  1.1673
  511SOL     OW 1531   2.108   2.095   0.848  0.4707 -0.2034 -0.3915
  511SOL    HW1 1532   2.162   2.025   0.890 -0.8157  2.2613 -3.8589
  511SOL    HW2 1533   2.138   2.101   0.755 -1.2485 -1.0494  2.6156
  512SOL     OW 1534   0.622   1.280   0.356 -0.5111  0.1709  0.2396
  512SOL    HW1 1535   0.533   1.283   0.412 -0.7612 -0.2814  1.0979
  512SOL    HW2 1536   0.622   1.363   0.300 -0.8885 -0.7052 -0.2434
  513SOL     OW 1537   0.291   2.120   0.535  0.2408  0.2113  0.0291
  513SOL    HW1 1538   0.309   2.118   0.434  0.1821  0.5771  2.9414
  513SOL    HW2 1539   0.291   2.218   0.564  2.1480 -2.4279 -1.6046
  514SOL     OW 1540   2.589   2.078   2.289 -0.4070  0.5471 -0.5013
  514SOL    HW1 1541   2.498   2.060   2.248  0.6511 -0.3810 -0.9580
  514SOL    HW2 1542   2.617   2.175   2.287 -0.1499  0.6625 -0.0762
  515SOL     OW 1543   2.185   0.996   0.251 -0.3585 -0.0964  0.3086
  515SOL    HW1 1544   2.122   0.927   0.293 -2.8656 -1.8167 -1.6538
  515SOL    HW2 1545   2.274   0.950   0.222 -1.3939 -3.7132 -3.0221
  516SOL     OW 1546   1.776   0.116   0.794 -0.5365  0.2682 -0.0505
  516SOL    HW1 1547   1.725   0.154   0.875  0.0647 -0.6290 -1.4851
  516SOL    HW2 1548   1.714   0.094   0.717  0.7667  0.8832  1.6584
  517SOL     OW 1549   1.327   2.017   0.102 -0.0266  0.1059 -0.0629
  517SOL    HW1 1550   1.278   2.097   0.133  2.2462 -1.0981  1.0952
  517SOL    HW2 1551   1.268   1.964   0.037 -2.5549 -2.0073  3.7342
  518SOL     OW 1552   1.166   0.785   1.815  0.1352 -0.7343  0.0954
  518SOL    HW1 1553   1.215   0.759   1.903  0.8570  1.7146 -0.2476
  518SOL    HW2 1554   1.235   0.800   1.746  0.8415 -1.9260 -0.9534
  519SOL     OW 1555   0.070   1.311   0.138  0.0114 -0.2060  0.1113
  519SOL    HW1 1556   0.115   1.386   0.079 -0.7392 -0.2128  0.5068
  519SOL    HW2 1557   0.063   1.339   0.235  2.7893 -1.2952 -5.0182
  520SOL     OW 1558   2.108   2.185   1.647  0.8121  0.1761  0.2126
  520SOL    HW1 1559   2.150   2.092   1.654  2.6665  0.9665 -0.4860
  520SOL    HW2 1560   2.178   2.255   1.666 -0.2808 -1.6492  0.4190
  521SOL     OW 1561   0.976   2.667   2.388  0.0940  0.3767 -0.1450
  521SOL    HW1 1562   0.928   2.735   2.328  0.1918 -0.7922 -0.1786
  521SOL    HW2 1563   1.076   2.668   2.380  0.2589 -0.6624  0.6283
  522SOL     OW 1564   2.041   0.322   2.222 -0.0179  0.6318 -0.0883
  522SOL    HW1 1565   2.061   0.387   2.297 -1.3387  3.6717  0.2267
  522SOL    HW2 1566   1.940   0.290   2.219  0.4409  1.7539 -0.4990
  523SOL     OW 1567   1.810   1.994   1.234 -0.1571 -0.0864  0.0191
  523SOL    HW1 1568   1.787   2.093   1.251 -2.2592 -0.3434 -0.1168
  523SOL    HW2 1569   1.771   1.938   1.311 -2.0803 -0.6737 -0.6658
  524SOL     OW 1570   1.233   2.263   0.156 -1.0531  0.5567  0.1232
  524SOL    HW1 1571   1.151   2.317   0.176  2.7331 -1.7374  0.0239
  524SOL    HW2 1572   1.315   2.282   0.213 -1.3973  0.0147  0.1622
  525SOL     OW 1573   0.005   0.536   3.036 -0.1456  0.3329  0.3052
  525SOL    HW1 1574   3.007   0.583   3.013 -0.5514 -0.6816 -1.1341
  525SOL    HW2 1575   0.026   0.536   0.045 -2.8719  1.8163 -0.7547
  526SOL     OW 1576   1.126   2.676   0.494  0.0649 -0.5219  0.3582
  526SOL    HW1 1577   1.040   2.718   0.527  0.3641  2.0794  0.3996
  526SOL    HW2 1578   1.205   2.723   0.535 -0.3003  2.3362 -6.0672
  527SOL     OW 1579   2.817   1.582   0.555  0.7875  0.2555  0.3259
  527SOL    HW1 1580   2.770   1.562   0.645  1.4144 -0.5265  0.5645
  527SOL    HW2 1581   2.777   1.527   0.482 -2.0402 -0.6174  0.2875
  528SOL     OW 1582   0.026   0.857   2.467  0.3439 -1.1186  0.1507
  528SOL    HW1 1583   0.032   0.846   2.569  2.8786  0.7061 -0.0090
  528SOL    HW2 1584   0.074   0.785   2.415  0.1224  0.9978 -0.3556
  529SOL     OW 1585   1.322   1.630   2.749  0.0046  0.1573 -0.1990
  529SOL    HW1 1586   1.362   1.542   2.717  0.1672  0.8220  0.3775
  529SOL    HW2 1587   1.221   1.624   2.735 -1.3319 -0.5429  2.4180
  530SOL     OW 1588   1.878   0.977   2.407 -0.2265 -0.0523  0.2225
  530SOL    HW1 1589   1.796   0.936   2.365 -1.0663 -0.5029  1.7206
  530SOL    HW2 1590   1.891   1.071   2.376 -1.3086 -1.4123 -0.5752
  531SOL     OW 1591   0.488   2.090   2.503 -0.5654 -0.3990  0.1827
  531SOL    HW1 1592   0.395   2.079   2.465  0.8740 -2.3845  0.0082
  531SOL    HW2 1593   0.497   2.031   2.587 -0.9520  2.2949 -1.4865
  532SOL     OW 1594   2.240   1.179   0.456  0.2505  0.9475  0.1184
  532SOL    HW1 1595   2.223   1.108   0.383 -0.3907 -0.4028 -1.7059
  532SOL    HW2 1596   2.172   1.258   0.460 -0.2444  2.8419  1.1572
  533SOL     OW 1597   0.066   0.007   1.744 -0.1105 -0.2291  0.0499
  533SOL    HW1 1598   0.155   3.045   1.757 -2.6060  1.0242 -1.3073
  533SOL    HW2 1599   0.057   0.052   1.653 -2.4866  1.1370 -1.1106
  534SOL     OW 1600   0.709   0.129   3.083 -0.1469 -0.1269 -0.6478
  534SOL    HW1 1601   0.719   0.174   2.988  0.1927 -0.0599  0.7427
  534SOL    HW2 1602   0.654   0.045   3.076 -0.3258  0.0221 -0.5211
  535SOL     OW 1603   0.403   0.273   0.411  0.2697 -0.3394  0.0846
  535SOL    HW1 1604   0.322   0.332   0.380 -1.4111  1.8704 -1.3625
  535SOL    HW2 1605   0.369   0.181   0.434  1.2178 -3.3909  2.1645
  536SOL     OW 1606   0.552   1.618   1.534  0.1613 -0.0500  0.2042
  536SOL    HW1 1607   0.539   1.711   1.574  3.8994 -0.1246 -0.1190
  536SOL    HW2 1608   0.635   1.615   1.471  0.6661 -0.3658 -2.2573
  537SOL     OW 1609   1.201   2.683   1.781 -0.0350  0.1843  0.3834
  537SOL    HW1 1610   1.298   2.662   1.803 -4.1497  0.5616  2.9092
  537SOL    HW2 1611   1.141   2.605   1.800  3.2623  2.6165  1.9242
  538SOL     OW 1612   0.081   1.872   3.076 -0.3589  0.0046 -0.1090
  538SOL    HW1 1613   0.033   1.811   0.057 -4.0831 -2.2584  2.3779
  538SOL    HW2 1614   0.162   1.818   3.036  0.9797 -0.9656  1.8138
  539SOL     OW 1615   2.758   1.076   2.609  0.4470  0.6180 -0.4940
  539SOL    HW1 1616   2.796   1.107   2.701  0.1065  1.5398  1.9896
  539SOL    HW2 1617   2.823   1.062   2.535 -1.7335 -1.7348  2.5107
  540SOL     OW 1618   1.638   0.501   2.307  0.2430  0.3846  0.0026
  540SOL    HW1 1619   1.651   0.598   2.316  0.6204 -3.0155 -0.5427
  540SOL    HW2 1620   1.625   0.453   2.396  0.2280  0.3735 -1.7333
  541SOL     OW 1621   0.510   0.506   2.161 -0.2160  0.0272 -0.2951
  541SOL    HW1 1622   0.441   0.456   2.209  0.6958  3.8921 -0.1944
  541SOL    HW2 1623   0.483   0.537   2.072 -1.9470 -2.3067  1.9011
  542SOL     OW 1624   2.165   2.824   3.009 -0.2501 -0.2220 -0.3084
  542SOL    HW1 1625   2.073   2.810   3.051  2.2981 -1.6703  0.8805
  542SOL    HW2 1626   2.168   2.886   2.926  1.2004  3.4673  1.5352
  543SOL     OW 1627   1.343   3.038   0.193  0.2109  0.1053 -0.2646
  543SOL    HW1 1628   1.352   0.038   0.142 -0.3926  0.0087 -0.4930
  543SOL    HW2 1629   1.249   3.037   0.238 -0.3108 -1.5005 -1.3562
  544SOL     OW 1630   2.546   1.706   1.885  0.4046 -0.0187 -0.1505
  544SOL    HW1 1631   2.568   1.618   1.933  2.7293  0.6696 -2.0153
  544SOL    HW2 1632   2.505   1.684   1.793  2.9203 -0.7097 -1.2221
  545SOL     OW 1633   2.197   2.033   1.381  0.5003  0.0110 -0.0420
  545SOL    HW1 1634   2.156   2.042   1.288  1.4699  4.0152 -2.2486
  545SOL    HW2 1635   2.264   2.106   1.394 -0.6912  0.8704  2.4680
  546SOL     OW 1636   0.160   3.011   2.552  0.2814  0.3890 -0.0380
  546SOL    HW1 1637   0.121   2.970   2.464 -0.6806 -0.7529 -0.7019
  546SOL    HW2 1638   0.103   2.981   2.634 -1.0444  0.2025  2.3293
  547SOL     OW 1639   1.430   0.885   0.509  0.4047  0.3716  0.2303
  547SOL    HW1 1640   1.404   0.962   0.570 -0.2287  1.0369  0.8966
  547SOL    HW2 1641   1.385   0.797   0.529 -0.9038 -0.5221 -1.4630
  548SOL     OW 1642   1.674   2.105   2.498  0.2965 -0.3581 -0.4914
  548SOL    HW1 1643   1.612   2.164   2.553  1.9980  2.5154 -0.7649
  548SOL    HW2 1644   1.731   2.051   2.560 -0.3533  0.6656 -1.7314
  549SOL     OW 1645   2.053   0.498   0.462 -0.1991 -0.3065  0.1557
  549SOL    HW1 1646   1.988   0.581   0.459 -2.7058  0.0524 -1.8470
  549SOL    HW2 1647   2.029   0.447   0.546 -1.9519  0.1468 -2.1455
  550SOL     OW 1648   2.794   1.917   0.506  0.3203 -0.3892  0.3308
  550SOL    HW1 1649   2.843   1.865   0.577  0.8833  3.5109  1.7648
  550SOL    HW2 1650   2.724   1.865   0.453 -0.0111  1.3553  0.2023
  551SOL     OW 1651   1.247   2.588   2.284  0.7266 -0.0882  0.3894
  551SOL    HW1 1652   1.287   2.669   2.235 -1.4505  1.0801  2.7833
  551SOL    HW2 1653   1.319   2.544   2.339 -1.0011 -2.6467 -2.4950
  552SOL     OW 1654   2.795   2.419   2.855  0.1136 -0.8170 -0.1426
  552SOL    HW1 1655   2.836   2.354   2.787 -2.1203  2.2557 -0.5679
  552SOL    HW2 1656   2.739   2.488   2.810  1.3211 -0.3043  3.0253
  553SOL     OW 1657   0.017   0.118   0.742 -0.1372  0.5571 -0.2800
  553SOL    HW1 1658   0.079   0.041   0.719  1.4632 -1.1952 -0.3164
  553SOL    HW2 1659   3.014   0.086   0.780  0.0836 -0.4131  0.9867
  554SOL     OW 1660   2.302   2.354   1.683  0.2453 -0.0443 -0.0600
  554SOL    HW1 1661   2.276   2.431   1.624 -2.3974 -0.9316 -0.5158
  554SOL    HW2 1662   2.357   2.392   1.763  0.8000 -1.9237  0.2703
  555SOL     OW 1663   1.832   2.352   2.206 -0.4070  0.1793  0.2502
  555SOL    HW1 1664   1.736   2.377   2.199  1.2938  0.0543  1.5476
  555SOL    HW2 1665   1.893   2.401   2.276 -3.3765  1.5872  3.5073
  556SOL     OW 1666   1.339   1.247   1.262 -0.3872  0.2536  0.8035
  556SOL    HW1 1667   1.374   1.236   1.168 -0.4782 -0.3710  0.4890
  556SOL    HW2 1668   1.319   1.345   1.276  0.9964 -0.8482  0.1033
  557SOL     OW 1669   2.003   2.460   2.397  0.0986 -0.2237  0.3860
  557SOL    HW1 1670   2.019   2.379   2.456 -0.2719  0.5305 -1.1019
  557SOL    HW2 1671   1.960   2.530   2.456  0.8463 -0.4019  0.9566
  558SOL     OW 1672   0.159   2.824   2.095 -0.1621  0.2472 -0.4740
  558SOL    HW1 1673   0.223   2.781   2.028  0.8165 -2.0658 -3.6723
  558SOL    HW2 1674   0.216   2.883   2.156 -0.5684 -1.5019 -3.0280
  559SOL     OW 1675   2.167   2.926   0.675  0.3395 -0.1971 -0.3346
  559SOL    HW1 1676   2.204   2.841   0.635 -3.6478 -2.2891  0.7235
  559SOL    HW2 1677   2.066   2.915   0.691 -0.1729  0.3299 -3.8404
  560SOL     OW 1678   1.629   2.579   0.682 -0.3370 -0.0469  0.8638
  560SOL    HW1 1679   1.616   2.540   0.774  0.1631 -1.7248 -1.3529
  560SOL    HW2 1680   1.640   2.682   0.693  3.0947  1.2180 -1.6345
  561SOL     OW 1681   0.947   0.060   0.795  0.0437  0.1839 -0.0766
  561SOL    HW1 1682   0.985   0.013   0.713 -1.8248 -0.0730  1.5694
  561SOL    HW2 1683   0.964   0.160   0.794 -3.6051 -0.2428 -0.7805
  562SOL     OW 1684   0.467   0.882   2.434  0.3550  0.0714 -0.0524
  562SOL    HW1 1685   0.515   0.845   2.353  1.4862 -0.2880 -1.1898
  562SOL    HW2 1686   0.375   0.917   2.404 -1.2771 -0.7849 -0.9617
  563SOL     OW 1687   1.661   1.801   2.610 -0.9729  0.2083 -0.3780
  563SOL    HW1 1688   1.708   1.860   2.678  0.9010  0.0505 -0.4630
  563SOL    HW2 1689   1.564   1.824   2.596 -0.2770  0.1252 -0.1146
  564SOL     OW 1690   2.717   1.055   1.104 -0.6370 -0.5627  0.4201
  564SOL    HW1 1691   2.675   1.007   1.184  1.4132 -3.3232  0.4095
  564SOL    HW2 1692   2.738   0.988   1.032  1.1066 -0.0678 -2.1884
  565SOL     OW 1693   1.065   0.691   3.046  0.2571 -0.2999 -0.1201
  565SOL    HW1 1694   1.165   0.692   3.015 -0.8630 -0.4915 -1.1402
  565SOL    HW2 1695   0.999   0.676   2.968  2.1768 -1.7312 -0.0094
  566SOL     OW 1696   2.248   0.115   2.732  0.0081  0.2400  0.2968
  566SOL    HW1 1697   2.224   0.155   2.635  0.0015 -0.7892  0.3048
  566SOL    HW2 1698   2.253   0.182   2.807 -1.7702  1.4603  0.9190
  567SOL     OW 1699   2.029   1.354   0.449 -0.3575  0.1936 -0.4064
  567SOL    HW1 1700   2.011   1.450   0.474 -3.1529 -0.2637 -1.6928
  567SOL    HW2 1701   2.058   1.350   0.351 -2.6186  2.6124  0.1396
  568SOL     OW 1702   1.659   1.829   3.011  0.1349  0.1464 -0.2750
  568SOL    HW1 1703   1.573   1.812   2.959  3.5438 -1.2324 -0.2894
  568SOL    HW2 1704   1.657   1.771   0.005 -0.8302 -1.4848  0.5215
  569SOL     OW 1705   1.981   1.135   2.840  0.3367  0.4109 -0.0323
  569SOL    HW1 1706   1.918   1.214   2.845  2.1710  0.9530  1.2135
  569SOL    HW2 1707   2.077   1.164   2.828 -1.6804 -1.9717  2.1149
  570SOL     OW 1708   0.638   2.254   1.867  0.3896 -0.5228 -0.0389
  570SOL    HW1 1709   0.642   2.342   1.819  0.5444  0.3750  0.9642
  570SOL    HW2 1710   0.546   2.215   1.864 -2.9841  0.4863 -1.5614
  571SOL     OW 1711   0.373   1.073   1.789 -0.2141 -0.3021  0.1660
  571SOL    HW1 1712   0.356   1.100   1.694  0.5552  1.4045  1.4338
  571SOL    HW2 1713   0.289   1.042   1.837 -1.3965  0.5785  1.1905
  572SOL     OW 1714   1.111   1.762   0.637 -0.1201 -0.1998 -0.1055
  572SOL    HW1 1715   1.138   1.726   0.729 -0.1018 -1.6157 -1.7874
  572SOL    HW2 1716   1.067   1.695   0.579 -0.9182 -1.6216 -1.8814
  573SOL     OW 1717   1.827   1.918   0.267 -0.7744  0.1583 -0.2415
  573SOL    HW1 1718   1.854   1.996   0.209  1.3307 -2.8292  2.0819
  573SOL    HW2 1719   1.832   1.941   0.366 -0.7144 -0.7920  1.3596
  574SOL     OW 1720   0.844   3.047   1.060  0.6193 -0.6309  0.0690
  574SOL    HW1 1721   0.746   3.018   1.051 -0.6523  0.8710 -2.8852
  574SOL    HW2 1722   0.879   3.086   0.973 -1.7849 -2.9111 -1.4645
  575SOL     OW 1723   0.335   1.174   1.218  0.1605 -0.1785 -0.5574
  575SOL    HW1 1724   0.323   1.186   1.317  1.2570 -0.0171  0.8664
  575SOL    HW2 1725   0.349   1.266   1.168 -0.1059  2.8814 -1.4832
  576SOL     OW 1726   2.379   0.031   1.081 -0.0082  0.4857 -0.2249
  576SOL    HW1 1727   2.289   0.012   1.030  0.2670  0.0684  0.1455
  576SOL    HW2 1728   2.452   3.067   1.036  1.1039  4.1830 -0.1918
  577SOL     OW 1729   0.946   1.076   2.121  0.5190 -0.0405 -0.1459
  577SOL    HW1 1730   0.961   1.066   2.023  1.4193 -0.0956  2.0990
  577SOL    HW2 1731   0.850   1.056   2.157 -0.9437  0.4207  1.4761
  578SOL     OW 1732   1.881   0.909   2.689  0.1734  0.4399 -1.0313
  578SOL    HW1 1733   1.889   0.937   2.594  1.1405 -2.2063  0.4178
  578SOL    HW2 1734   1.885   0.987   2.755  0.2070  0.5609  0.3356
  579SOL     OW 1735   1.783   2.510   1.630  0.2678  0.6558  0.1757
  579SOL    HW1 1736   1.842   2.530   1.709 -1.8454 -2.2365  0.8027
  579SOL    HW2 1737   1.824   2.436   1.571 -0.1525 -1.5454 -1.5929
  580SOL     OW 1738   1.590   1.568   2.394  0.2439 -0.0277 -0.3111
  580SOL    HW1 1739   1.585   1.657   2.444  0.0864 -0.4580  2.7484
  580SOL    HW2 1740   1.501   1.547   2.352 -0.5886  1.8139 -0.1657
  581SOL     OW 1741   1.186   1.337   2.490  0.1243 -0.5774 -0.3914
  581SOL    HW1 1742   1.223   1.246   2.510  1.6050 -0.6493  0.8869
  581SOL    HW2 1743   1.087   1.345   2.513  0.7033  0.7371  0.0964
  582SOL     OW 1744   1.067   1.214   1.679 -0.2164  0.0992 -0.4251
  582SOL    HW1 1745   1.097   1.298   1.722 -3.9602 -0.3585 -2.4162
  582SOL    HW2 1746   0.995   1.238   1.609  0.7106 -1.4023  1.4646
  583SOL     OW 1747   1.294   1.140   1.900 -0.1474  0.1238 -0.3611
  583SOL    HW1 1748   1.194   1.121   1.885 -1.2503  1.9573 -1.5969
  583SOL    HW2 1749   1.317   1.244   1.902  1.8872  3.4515  3.0629
  584SOL     OW 1750   2.139   2.856   0.304 -0.4871  0.2036 -0.3173
  584SOL    HW1 1751   2.193   2.775   0.335  2.2703  0.9952 -0.3046
  584SOL    HW2 1752   2.186   2.906   0.229 -1.1231 -0.7787  1.2165
  585SOL     OW 1753   1.916   2.999   2.987  0.3923 -0.3580  0.0931
  585SOL    HW1 1754   1.981   2.964   2.918  0.0122 -3.1348 -1.5179
  585SOL    HW2 1755   1.916   2.943   3.071 -1.2965 -1.6523 -2.7540
  586SOL     OW 1756   2.805   1.861   1.158  0.0591  0.3800 -0.5834
  586SOL    HW1 1757   2.738   1.895   1.231  2.1211 -0.9134 -0.1654
  586SOL    HW2 1758   2.878   1.933   1.147  0.9971 -0.2681  0.5667
  587SOL     OW 1759   1.206   1.835   3.050 -0.1412  0.1503 -0.1348
  587SOL    HW1 1760   1.190   1.804   0.058  0.6492 -1.2790 -0.7797
  587SOL    HW2 1761   1.158   1.767   2.996  2.6317  0.5822  3.2187
  588SOL     OW 1762   0.302   0.274   0.949  0.3218 -0.3482  0.0705
  588SOL    HW1 1763   0.398   0.302   0.947 -1.8975  1.1594 -0.2053
  588SOL    HW2 1764   0.266   0.289   1.045 -0.8959  0.1769  0.0165
  589SOL     OW 1765   1.311   0.013   0.651  0.0985 -0.7643 -0.3411
  589SOL    HW1 1766   1.225   0.016   0.596 -0.2824  0.6906  1.3665
  589SOL    HW2 1767   1.300   0.058   0.740 -1.3988 -2.5520  0.0964
  590SOL     OW 1768   1.311   0.938   2.918 -0.3752 -0.1912  0.3724
  590SOL    HW1 1769   1.334   0.840   2.915 -2.3434 -2.1548 -0.4283
  590SOL    HW2 1770   1.212   0.948   2.918 -0.0275 -0.2673 -0.0343
  591SOL     OW 1771   2.880   2.416   1.860  0.4729  0.0766 -0.5776
  591SOL    HW1 1772   2.848   2.457   1.948 -0.2834  0.7231  0.4769
  591SOL    HW2 1773   2.933   2.331   1.876 -2.2006  3.0231 -2.4778
  592SOL     OW 1774   2.356   1.543   1.694 -0.1906 -0.0287 -0.0463
  592SOL    HW1 1775   2.279   1.557   1.630 -1.3075  1.4792  0.4643
  592SOL    HW2 1776   2.428   1.489   1.647  1.7117  0.5562  0.1800
  593SOL     OW 1777   1.157   0.982   1.578  0.1880 -0.0040  0.0271
  593SOL    HW1 1778   1.078   0.942   1.526 -3.9033  0.9633 -3.5681
  593SOL    HW2 1779   1.130   1.069   1.619  2.4004 -0.7589 -1.3378
  594SOL     OW 1780   2.623   1.296   2.479  0.1095 -0.2166 -0.0651
  594SOL    HW1 1781   2.639   1.389   2.522  2.1165  0.3501  0.1129
  594SOL    HW2 1782   2.678   1.222   2.525  0.1972 -0.2183  1.2404
  595SOL     OW 1783   2.996   0.230   0.502 -0.1348 -0.3905 -0.1394
  595SOL    HW1 1784   3.021   0.180   0.588  0.4906  1.1451  2.1379
  595SOL    HW2 1785   2.904   0.270   0.511  0.7883 -2.1704  0.5510
  596SOL     OW 1786   3.077   1.575   1.058 -0.1194 -0.4842 -0.2795
  596SOL    HW1 1787   0.019   1.477   1.089 -0.7971 -1.4952 -0.5454
  596SOL    HW2 1788   0.068   1.639   1.052 -1.3367  0.8002  1.4510
  597SOL     OW 1789   1.343   1.452   0.563 -0.0291  0.4049 -0.1408
  597SOL    HW1 1790   1.404   1.501   0.495 -0.7294 -1.5559  0.5161
  597SOL    HW2 1791   1.307   1.373   0.512  0.0088 -1.1848 -0.2317
  598SOL     OW 1792   0.327   2.759   1.883 -0.8123 -0.7671 -0.8764
  598SOL    HW1 1793   0.340   2.846   1.837 -0.1662 -2.3859  1.3136
  598SOL    HW2 1794   0.318   2.675   1.822 -1.3127 -1.1411  0.2632
  599SOL     OW 1795   3.057   1.576   2.641  0.1749  0.0441 -0.3057
  599SOL    HW1 1796   2.984   1.520   2.686 -1.0346  2.2640  1.1526
  599SOL    HW2 1797   3.051   1.671   2.677 -0.5230  0.8114  0.3932
  600SOL     OW 1798   0.567   0.883   2.992 -0.2294  0.1139 -0.2794
  600SOL    HW1 1799   0.634   0.811   2.998 -1.6163  0.1517  0.9966
  600SOL    HW2 1800   0.526   0.886   2.897  0.3910 -1.3992  0.1843
  601SOL     OW 1801   0.735   0.768   1.014  0.4612  0.5310 -0.1537
  601SOL    HW1 1802   0.665   0.697   1.012 -0.2356 -3.5358 -0.8058
  601SOL    HW2 1803   0.700   0.864   1.004 -0.2606 -0.1663 -0.7026
  602SOL     OW 1804   1.072   2.416   0.478 -0.3901 -0.9206 -0.1833
  602SOL    HW1 1805   1.090   2.521   0.494  3.6183  1.7306  0.5632
  602SOL    HW2 1806   1.158   2.371   0.504 -0.5684  0.1876  1.5476
  603SOL     OW 1807   1.521   2.379   1.941  0.1966 -0.4194 -0.0674
  603SOL    HW1 1808   1.537   2.465   1.891  1.3829  0.0928  1.2220
  603SOL    HW2 1809   1.452   2.317   1.894 -0.8030 -1.5027 -1.8969
  604SOL     OW 1810   0.567   0.425   2.766 -0.2698  0.2122  0.1424
  604SOL    HW1 1811   0.504   0.472   2.832  1.0632 -1.0569  1.1604
  604SOL    HW2 1812   0.628   0.355   2.815 -0.7037  1.9933  0.3933
  605SOL     OW 1813   2.374   1.020   1.528 -0.0482 -0.2327 -0.5277
  605SOL    HW1 1814   2.296   1.074   1.497 -0.3326 -2.7996  2.5064
  605SOL    HW2 1815   2.448   1.081   1.561 -0.0957 -0.4047  0.2283
  606SOL     OW 1816   0.797   1.751   2.602 -0.5948 -0.0575 -0.0509
  606SOL    HW1 1817   0.752   1.832   2.556 -1.3937  0.6483 -2.3875
  606SOL    HW2 1818   0.854   1.702   2.533  2.3105 -0.7514  0.8788
  607SOL     OW 1819   0.673   3.082   0.650  0.5996 -0.6538 -0.0694
  607SOL    HW1 1820   0.702   3.061   0.556 -0.1919 -1.5215 -1.8061
  607SOL    HW2 1821   0.745   3.083   0.722  0.9476  2.4729  1.5795
  608SOL     OW 1822   2.261   1.959   1.776 -0.1268  0.0082 -0.1290
  608SOL    HW1 1823   2.324   2.032   1.805  1.5181 -0.7591  0.4958
  608SOL    HW2 1824   2.169   1.951   1.824 -2.8853  0.0542  0.1815
  609SOL     OW 1825   2.758   0.333   0.541 -0.0689 -0.4838  0.0089
  609SOL    HW1 1826   2.741   0.287   0.632  2.1637  0.8388 -0.6799
  609SOL    HW2 1827   2.688   0.402   0.530 -0.7820 -0.9529  0.7561
  610SOL     OW 1828   0.354   2.433   1.121 -0.7312  0.2878 -0.1011
  610SOL    HW1 1829   0.320   2.370   1.186  1.1151  0.4420  0.8179
  610SOL    HW2 1830   0.453   2.411   1.097  3.6892  2.2152 -1.7465
  611SOL     OW 1831   1.422   1.475   0.182  0.5721  0.1298 -0.4810
  611SOL    HW1 1832   1.489   1.537   0.145 -1.9010 -2.0786  2.2573
  611SOL    HW2 1833   1.355   1.517   0.244  0.1880 -2.4109 -0.8623
  612SOL     OW 1834   0.539   2.737   2.023 -0.1185  0.1417  0.2097
  612SOL    HW1 1835   0.541   2.636   2.018  1.0973  2.6776 -0.2545
  612SOL    HW2 1836   0.453   2.766   1.973 -1.0237 -2.3505 -1.9030
  613SOL     OW 1837   0.492   2.738   0.739 -0.1565 -0.5310 -0.2907
  613SOL    HW1 1838   0.555   2.711   0.665 -1.0972  3.2135  2.9409
  613SOL    HW2 1839   0.541   2.732   0.830  0.7192 -2.2597  4.6180
  614SOL     OW 1840   2.266   0.258   2.057  0.4555 -0.0348  0.4819
  614SOL    HW1 1841   2.202   0.282   2.129  3.6270 -0.2418 -3.0055
  614SOL    HW2 1842   2.248   0.168   2.007  0.1440 -0.6393  0.0251
  615SOL     OW 1843   1.568   1.269   0.292 -0.1857 -0.0743 -0.3421
  615SOL    HW1 1844   1.518   1.344   0.248  4.9578 -4.4749  0.5471
  615SOL    HW2 1845   1.640   1.307   0.354 -1.1661 -0.8133 -4.9299
  616SOL     OW 1846   1.730   1.393   0.482 -0.2747 -0.1196  0.1068
  616SOL    HW1 1847   1.745   1.490   0.444 -1.2995  0.6436 -0.0830
  616SOL    HW2 1848   1.826   1.358   0.512  0.5681  0.3808  0.0254
  617SOL     OW 1849   1.299   1.094   2.511 -0.3030  0.1728  0.1191
  617SOL    HW1 1850   1.251   1.008   2.488  1.6943  0.1898 -1.5016
  617SOL    HW2 1851   1.353   1.076   2.596  1.4788 -0.7056  0.3980
  618SOL     OW 1852   0.662   2.977   2.020  0.4408  0.0110  0.0875
  618SOL    HW1 1853   0.618   2.889   1.986 -0.5430 -0.6010  0.3228
  618SOL    HW2 1854   0.609   3.010   2.101 -1.1296 -0.0338  1.8717
  619SOL     OW 1855   2.824   1.678   1.526  0.6885  0.0134 -0.2230
  619SOL    HW1 1856   2.885   1.670   1.446  0.7838  1.9093 -0.5656
  619SOL    HW2 1857   2.724   1.662   1.504 -1.9304  0.8804 -0.3447
  620SOL     OW 1858   2.647   0.564   2.758  0.1740  0.1775  0.2528
  620SOL    HW1 1859   2.639   0.661   2.725 -0.3001 -0.1991 -2.6985
  620SOL    HW2 1860   2.672   0.507   2.677  1.0733 -0.2166 -0.0576
  621SOL     OW 1861   2.308   2.120   2.269 -0.4082  0.2545  0.0243
  621SOL    HW1 1862   2.257   2.171   2.199  1.1918  1.3892 -3.0424
  621SOL    HW2 1863   2.258   2.036   2.296  2.9304 -0.3201 -0.0943
  622SOL     OW 1864   0.935   0.701   2.341  0.5403  0.2849 -0.2086
  622SOL    HW1 1865   0.889   0.627   2.283 -1.7487 -1.0992 -3.2360
  622SOL    HW2 1866   0.995   0.760   2.278 -0.8669  1.4988  0.0493
  623SOL     OW 1867   0.688   1.049   2.213  0.1955  0.0230 -0.4055
  623SOL    HW1 1868   0.711   1.076   2.309 -0.9117 -2.4259 -3.8561
  623SOL    HW2 1869   0.630   0.965   2.203  1.0114 -0.4324  1.7790
  624SOL     OW 1870   2.896   0.671   0.335  0.0509  0.3043  0.4456
  624SOL    HW1 1871   2.884   0.572   0.365  0.4269  0.1297  0.3936
  624SOL    HW2 1872   2.986   0.705   0.366 -1.2309  0.8651 -1.0928
  625SOL     OW 1873   0.761   2.069   1.105 -0.0623  0.6164  0.4338
  625SOL    HW1 1874   0.693   2.039   1.033 -0.3685 -0.8148  0.3628
  625SOL    HW2 1875   0.709   2.128   1.176 -2.2593 -0.8645 -0.4861
  626SOL     OW 1876   2.082   0.684   2.674  0.2662  0.2627  0.2223
  626SOL    HW1 1877   2.099   0.644   2.768 -0.9976  1.7486  2.8636
  626SOL    HW2 1878   1.985   0.722   2.673 -2.5326 -0.9771  0.3899
  627SOL     OW 1879   1.602   2.654   2.884 -0.2808 -0.0522 -0.4332
  627SOL    HW1 1880   1.504   2.624   2.893  0.4974 -0.3693 -0.0762
  627SOL    HW2 1881   1.642   2.592   2.814 -2.5046 -0.2558  2.2121
  628SOL     OW 1882   2.656   2.805   2.403 -0.1330 -0.1496 -0.0569
  628SOL    HW1 1883   2.689   2.848   2.316 -1.5468 -2.4159  1.3790
  628SOL    HW2 1884   2.685   2.865   2.479  1.1197 -1.4696 -2.4081
  629SOL     OW 1885   0.961   0.082   2.338 -0.4945  0.5905  0.4333
  629SOL    HW1 1886   0.983   0.107   2.239  2.6999  1.2423 -1.0094
  629SOL    HW2 1887   1.054   0.076   2.382 -1.5670 -0.4860 -0.1179
  630SOL     OW 1888   0.809   0.297   2.429  0.4890  0.1740  0.6187
  630SOL    HW1 1889   0.856   0.319   2.516 -3.5203 -1.3502 -0.6372
  630SOL    HW2 1890   0.851   0.213   2.390  0.7446 -1.6642 -2.2547
  631SOL     OW 1891   1.917   1.258   0.777 -0.0504 -0.3979 -0.4367
  631SOL    HW1 1892   1.865   1.180   0.731  1.1479 -2.2487 -1.0320
  631SOL    HW2 1893   1.922   1.249   0.879 -0.2423  0.8732  0.1898
  632SOL     OW 1894   2.264   0.662   1.557  0.1405  0.0974  0.1825
  632SOL    HW1 1895   2.174   0.618   1.562 -0.4841 -0.4550 -1.5222
  632SOL    HW2 1896   2.263   0.752   1.604 -1.6038  1.3804  0.6856
  633SOL     OW 1897   1.075   1.776   0.222 -0.1863  0.1954  0.3209
  633SOL    HW1 1898   0.974   1.775   0.203  2.6823  1.0683 -0.1351
  633SOL    HW2 1899   1.095   1.859   0.277  2.0820 -2.8435  0.4274
  634SOL     OW 1900   2.505   0.085   1.799  0.0507  0.2039  0.9099
  634SOL    HW1 1901   2.427   0.132   1.752 -0.3574 -1.5749 -2.0710
  634SOL    HW2 1902   2.592   0.136   1.796  0.8807 -3.1100  0.5660
  635SOL     OW 1903   1.596   0.453   0.853  0.3438  0.4033  0.0785
  635SOL    HW1 1904   1.612   0.533   0.915 -0.6828 -1.5240 -0.8402
  635SOL    HW2 1905   1.607   0.366   0.903 -1.0179  0.0460 -1.2166
  636SOL     OW 1906   0.907   1.063   3.079  0.4852 -0.0259  0.5282
  636SOL    HW1 1907   0.970   1.046   2.999 -0.4350  1.3095 -0.5160
  636SOL    HW2 1908   0.813   1.070   3.046  0.5960 -1.2660 -1.0730
  637SOL     OW 1909   0.018   2.081   2.909  0.2605 -0.8157 -0.1468
  637SOL    HW1 1910   0.042   2.013   2.976 -0.4219  0.7553 -4.4627
  637SOL    HW2 1911   0.005   2.175   2.956 -1.1742  2.7293 -1.6447
  638SOL     OW 1912   1.547   2.254   2.674  0.3519 -0.0288 -0.2608
  638SOL    HW1 1913   1.453   2.284   2.662  1.1158 -1.0374 -1.4245
  638SOL    HW2 1914   1.551   2.203   2.764  1.3126  1.1802  1.7387
  639SOL     OW 1915   1.571   1.768   0.694 -0.0362  0.3310  0.2677
  639SOL    HW1 1916   1.500   1.819   0.746  0.4302  1.9023 -0.0995
  639SOL    HW2 1917   1.531   1.720   0.614  0.2462  0.6053 -1.2511
  640SOL     OW 1918   1.950   2.955   0.472 -0.4251  0.1905 -0.4221
  640SOL    HW1 1919   2.030   2.926   0.409  1.9548 -1.1988 -1.0027
  640SOL    HW2 1920   1.936   3.055   0.458  2.2174  2.7823  0.3694
  641SOL     OW 1921   2.751   0.343   0.027  0.1317 -0.0398 -0.3728
  641SOL    HW1 1922   2.678   0.383   0.085  0.0859  2.2123 -0.7195
  641SOL    HW2 1923   2.708   0.301   3.032  2.2085  1.5798  0.2392
  642SOL     OW 1924   2.994   0.760   1.234 -0.2257  0.6328  0.2353
  642SOL    HW1 1925   3.026   0.799   1.139 -0.1899  1.7866 -0.6924
  642SOL    HW2 1926   2.988   0.840   1.301  0.7918  0.3642  0.6987
  643SOL     OW 1927   0.372   1.526   2.277 -0.4006  0.0599  0.5065
  643SOL    HW1 1928   0.450   1.501   2.336 -1.2548 -0.9073  0.1178
  643SOL    HW2 1929   0.313   1.608   2.315 -2.1650  0.2163  4.0479
  644SOL     OW 1930   2.067   2.383   0.554  0.1447 -0.3146 -0.8463
  644SOL    HW1 1931   1.973   2.406   0.513 -1.2459 -0.9689 -2.7367
  644SOL    HW2 1932   2.057   2.390   0.657  2.7645 -1.5339  2.9414
  645SOL     OW 1933   2.064   2.082   1.134  0.1599  0.4653  0.6949
  645SOL    HW1 1934   2.031   2.070   1.040 -0.6073  2.7006 -1.5776
  645SOL    HW2 1935   1.988   2.048   1.193 -0.4471  0.5786  1.8312
  646SOL     OW 1936   0.981   2.232   2.765  0.2365 -0.8666  0.6475
  646SOL    HW1 1937   0.953   2.165   2.836 -0.1616  1.3976 -2.0587
  646SOL    HW2 1938   0.960   2.326   2.796  0.5660  0.3922 -1.2122
  647SOL     OW 1939   0.933   2.784   1.817 -0.2457  0.5252 -0.2842
  647SOL    HW1 1940   1.029   2.766   1.802 -0.8075  0.6450  1.9696
  647SOL    HW2 1941   0.926   2.876   1.867  0.5862  0.8114  0.3590
  648SOL     OW 1942   1.602   0.520   1.279 -0.2912 -0.1998  0.6671
  648SOL    HW1 1943   1.576   0.516   1.378 -0.4318  1.4593  1.2237
  648SOL    HW2 1944   1.700   0.505   1.267  0.0826  0.7880  1.0869
  649SOL     OW 1945   1.614   2.085   0.125 -0.2535 -0.1296 -0.1556
  649SOL    HW1 1946   1.509   2.068   0.117 -2.3054 -0.5194 -0.6804
  649SOL    HW2 1947   1.668   2.010   0.165 -0.6238 -0.3331 -0.0303
  650SOL     OW 1948   2.130   1.582   1.537  0.0475  0.2884 -0.0252
  650SOL    HW1 1949   2.080   1.530   1.463  0.9197 -1.7861 -1.0962
  650SOL    HW2 1950   2.116   1.680   1.531  1.7680  1.4305  0.1254
  651SOL     OW 1951   1.692   2.589   0.033 -0.1640  0.1527 -0.2846
  651SOL    HW1 1952   1.659   2.616   3.031  1.8491  0.8638  1.9657
  651SOL    HW2 1953   1.701   2.487   0.039 -0.6483  1.2420  0.9999
  652SOL     OW 1954   0.562   2.088   0.098 -0.2923 -0.6554 -0.0406
  652SOL    HW1 1955   0.536   1.989   0.110  0.3077 -0.0958 -1.1004
  652SOL    HW2 1956   0.595   2.098   0.002  1.5617 -2.9514 -2.3596
  653SOL     OW 1957   2.713   2.839   1.154  0.2798 -0.2103 -0.0625
  653SOL    HW1 1958   2.669   2.750   1.170 -2.4600  0.9209 -1.3616
  653SOL    HW2 1959   2.671   2.899   1.083  0.4182 -1.4312 -0.4761
  654SOL     OW 1960   2.665   2.971   1.893 -0.2299  0.5749 -0.1861
  654SOL    HW1 1961   2.751   3.018   1.872  2.5176  2.7741 -1.8100
  654SOL    HW2 1962   2.583   3.031   1.876  0.6143 -0.4519  1.6918
  655SOL     OW 1963   2.856   1.705   0.946  0.0983 -0.4226  0.2613
  655SOL    HW1 1964   2.944   1.669   0.987  2.4169  3.3493 -1.4532
  655SOL    HW2 1965   2.801   1.759   1.016 -1.9433  1.2818  0.2463
  656SOL     OW 1966   2.917   3.031   2.395  0.0854  0.0400  0.3198
  656SOL    HW1 1967   2.853   2.983   2.330 -0.5639  3.0174  1.3592
  656SOL    HW2 1968   3.010   3.049   2.352  1.0345 -0.5705 -0.7238
  657SOL     OW 1969   2.637   1.422   2.911 -0.3889 -0.3143 -0.3270
  657SOL    HW1 1970   2.621   1.386   3.004  0.6624  2.8299  5.7421
  657SOL    HW2 1971   2.553   1.438   2.855  1.3208  0.9921  0.5241
  658SOL     OW 1972   2.240   1.858   0.889 -0.1657 -0.1502  0.5655
  658SOL    HW1 1973   2.155   1.817   0.855 -0.0495  0.4241 -0.2741
  658SOL    HW2 1974   2.319   1.849   0.823 -0.0499 -1.5301 -1.7956
  659SOL     OW 1975   1.639   0.251   0.994 -0.2453 -0.1929 -0.4942
  659SOL    HW1 1976   1.711   0.204   1.047 -0.9209  1.9062 -2.6890
  659SOL    HW2 1977   1.565   0.287   1.054  1.9638  0.7214  0.4986
  660SOL     OW 1978   1.523   1.516   2.942  0.5597  0.2218 -0.4336
  660SOL    HW1 1979   1.466   1.439   2.974 -1.1992 -0.5639  0.5761
  660SOL    HW2 1980   1.458   1.590   2.917  0.0078 -3.7295  1.7871
  661SOL     OW 1981   0.171   2.084   0.795 -0.2008  0.6127  0.6207
  661SOL    HW1 1982   0.223   2.108   0.716 -4.2392  1.0063 -1.3843
  661SOL    HW2 1983   0.083   2.136   0.794  1.3829 -0.0710 -3.3655
  662SOL     OW 1984   2.942   0.509   2.655  0.2630  0.3324  0.1280
  662SOL    HW1 1985   2.966   0.593   2.705  2.9573 -0.4520 -1.0046
  662SOL    HW2 1986   2.883   0.534   2.582  0.4019 -1.2122  1.8660
  663SOL     OW 1987   1.858   1.540   1.018 -0.0293  0.0222  0.4964
  663SOL    HW1 1988   1.773   1.518   0.967  1.9902 -2.0437 -1.4139
  663SOL    HW2 1989   1.908   1.451   1.035 -0.4092 -1.2383 -1.0356
  664SOL     OW 1990   0.911   0.961   1.334  0.1435 -0.1083 -0.1272
  664SOL    HW1 1991   0.891   0.906   1.419  2.3562 -0.6876 -1.7524
  664SOL    HW2 1992   0.994   0.925   1.288 -0.6422  0.0356 -0.7478
  665SOL     OW 1993   1.520   2.600   2.501  0.2210 -0.3275  0.1501
  665SOL    HW1 1994   1.449   2.644   2.556  3.1927  2.2198  2.4590
  665SOL    HW2 1995   1.500   2.506   2.474 -1.2973 -0.3488  0.4099
  666SOL     OW 1996   2.873   2.748   2.678 -0.4416 -0.2660 -0.0186
  666SOL    HW1 1997   2.965   2.782   2.716  2.1915 -1.3628  2.6585
  666SOL    HW2 1998   2.827   2.835   2.643  2.6515 -0.0561 -1.1352
  667SOL     OW 1999   2.272   1.460   1.945 -0.1120 -0.6164 -0.5362
  667SOL    HW1 2000   2.299   1.516   1.864 -1.7784 -0.3608 -1.3467
  667SOL    HW2 2001   2.289   1.360   1.920  2.4856  0.6741  0.6360
  668SOL     OW 2002   0.322   1.237   2.747 -0.1843 -0.4106  0.1289
  668SOL    HW1 2003   0.374   1.283   2.819  0.3104 -0.8082 -0.1231
  668SOL    HW2 2004   0.374   1.236   2.662 -1.0972  1.2806  1.3299
  669SOL     OW 2005   2.052   2.227   2.541  0.8355 -0.4357 -0.0572
  669SOL    HW1 2006   1.996   2.170   2.485  4.5203  1.0151  1.6831
  669SOL    HW2 2007   2.152   2.211   2.525  0.4983 -1.1554 -0.0901
  670SOL     OW 2008   2.303   1.210   1.893 -0.0372 -0.5158  0.6231
  670SOL    HW1 2009   2.281   1.142   1.967  0.5537  1.3039 -0.7498
  670SOL    HW2 2010   2.251   1.197   1.801 -0.6911  0.6112  1.2705
  671SOL     OW 2011   2.354   1.411   0.165 -0.2495 -0.3527  0.5503
  671SOL    HW1 2012   2.441   1.363   0.150  0.6628 -1.2405  0.8695
  671SOL    HW2 2013   2.343   1.484   0.088  1.3430  0.8812 -3.4670
  672SOL     OW 2014   2.667   1.134   2.069 -0.3235  0.5524  0.2428
  672SOL    HW1 2015   2.587   1.073   2.042  0.2659 -0.9430 -1.8515
  672SOL    HW2 2016   2.635   1.223   2.114  4.2896 -2.1154  2.6942
  673SOL     OW 2017   2.587   0.816   1.809 -0.1742 -0.1186 -0.4989
  673SOL    HW1 2018   2.604   0.917   1.792  0.7412  1.7542 -0.1393
  673SOL    HW2 2019   2.642   0.755   1.744  0.3864 -0.0910 -2.0999
  674SOL     OW 2020   2.076   1.847   1.536  0.6575  0.1207 -0.4829
  674SOL    HW1 2021   1.983   1.881   1.562 -2.0097  0.2582 -0.8746
  674SOL    HW2 2022   2.130   1.931   1.502  1.4455  0.7482  3.7764
  675SOL     OW 2023   0.549   0.579   1.029 -0.7080  0.2453 -0.2358
  675SOL    HW1 2024   0.459   0.606   1.064 -1.6720  0.1029 -0.7118
  675SOL    HW2 2025   0.550   0.495   0.969  1.8973  0.6417  0.4496
  676SOL     OW 2026   1.680   1.273   1.180 -0.3476  0.2215 -0.0605
  676SOL    HW1 2027   1.609   1.258   1.114  2.6486  0.6674 -0.8784
  676SOL    HW2 2028   1.674   1.223   1.265  0.3573 -0.0289 -0.4467
  677SOL     OW 2029   2.308   1.481   2.207 -0.0407 -0.0213 -0.2602
  677SOL    HW1 2030   2.291   1.486   2.104 -2.5001 -2.5108 -2.9604
  677SOL    HW2 2031   2.346   1.570   2.238  1.7205 -0.3290  0.4404
  678SOL     OW 2032   0.234   1.502   0.688  0.0525 -0.1730 -0.2387
  678SOL    HW1 2033   0.279   1.438   0.623  0.3356  0.7407  0.9278
  678SOL    HW2 2034   0.148   1.453   0.718 -0.5155 -3.0542 -1.3676
  679SOL     OW 2035   2.727   2.541   0.455  0.1028 -0.2141 -0.1110
  679SOL    HW1 2036   2.803   2.609   0.449  0.5063  0.6607 -0.6920
  679SOL    HW2 2037   2.771   2.459   0.407  1.2697  0.1217  0.7653
  680SOL     OW 2038   2.892   2.293   1.501 -0.0790 -0.0841  0.1254
  680SOL    HW1 2039   2.795   2.285   1.472 -0.0565  0.5410  2.4964
  680SOL    HW2 2040   2.925   2.225   1.571  2.1323 -1.3245 -1.0477
  681SOL     OW 2041   0.645   1.335   1.194 -0.0245 -0.2243 -0.2834
  681SOL    HW1 2042   0.691   1.253   1.155 -2.3583  3.8225 -4.4386
  681SOL    HW2 2043   0.554   1.348   1.146  0.6044 -1.1374 -3.9717
  682SOL     OW 2044   1.564   2.441   0.892  0.1863  0.1075 -0.8591
  682SOL    HW1 2045   1.563   2.472   0.990 -0.2448 -1.1283  3.0660
  682SOL    HW2 2046   1.591   2.342   0.884  0.9441  0.1462 -0.4784
  683SOL     OW 2047   2.400   1.463   0.697 -0.9267 -0.0177 -0.5945
  683SOL    HW1 2048   2.467   1.524   0.738  3.2424 -1.5545  0.3377
  683SOL    HW2 2049   2.403   1.469   0.593  1.8375 -1.4575  2.2274
  684SOL     OW 2050   0.764   2.093   2.067  0.4783  0.0125 -0.2168
  684SOL    HW1 2051   0.860   2.100   2.097 -1.1902 -1.4404  0.3354
  684SOL    HW2 2052   0.731   2.179   2.021 -1.0779 -1.4465 -1.1066
  685SOL     OW 2053   1.893   1.492   0.106 -0.2787  0.3661  0.1846
  685SOL    HW1 2054   1.964   1.425   0.139  1.0260 -1.1175 -0.7902
  685SOL    HW2 2055   1.848   1.448   0.027  1.0101 -2.5322  2.6885
  686SOL     OW 2056   0.213   0.326   0.691 -0.7741  0.2195  0.3499
  686SOL    HW1 2057   0.264   0.309   0.778 -0.0388 -0.9570  1.3488
  686SOL    HW2 2058   0.149   0.246   0.680 -2.1799 -3.9839 -0.1299
  687SOL     OW 2059   1.328   2.567   2.901 -0.1246  0.5714 -0.4372
  687SOL    HW1 2060   1.312   2.621   2.983 -0.9009 -0.8701  0.1633
  687SOL    HW2 2061   1.317   2.469   2.919 -3.7164  2.3783 -0.9228
  688SOL     OW 2062   1.978   1.908   1.846 -0.4948  0.1894 -0.2601
  688SOL    HW1 2063   2.030   1.823   1.859  0.5153  0.3446 -2.1134
  688SOL    HW2 2064   1.936   1.920   1.756 -1.2361  0.3164  0.0778
  689SOL     OW 2065   2.385   0.970   2.098  0.5036 -0.0060 -0.0524
  689SOL    HW1 2066   2.368   0.882   2.049 -1.7024  1.7990 -1.7615
  689SOL    HW2 2067   2.384   0.959   2.200  0.5381  1.2011 -0.7896
  690SOL     OW 2068   1.958   0.837   1.498 -0.7773  0.0805  0.4556
  690SOL    HW1 2069   1.943   0.898   1.424 -1.0312 -0.7012 -0.4554
  690SOL    HW2 2070   1.995   0.884   1.580  1.3709  1.9719 -0.5268
  691SOL     OW 2071   1.150   1.981   1.486 -0.0524 -0.0689  0.1822
  691SOL    HW1 2072   1.068   1.946   1.440 -0.5084 -0.7001 -0.1642
  691SOL    HW2 2073   1.189   2.057   1.426  1.9171  1.2649  0.1725
  692SOL     OW 2074   1.698   0.266   1.560  0.0330 -0.5837 -0.0420
  692SOL    HW1 2075   1.662   0.361   1.564  0.1959  2.1878 -0.9825
  692SOL    HW2 2076   1.796   0.272   1.547 -0.1543 -0.4010  0.5264
  693SOL     OW 2077   0.664   1.155   2.677 -0.2894  0.4188  0.3062
  693SOL    HW1 2078   0.622   1.078   2.730  1.9418 -2.9745  1.0343
  693SOL    HW2 2079   0.601   1.174   2.594 -1.2809 -0.1985 -0.0052
  694SOL     OW 2080   2.123   2.806   1.094 -0.2563  0.0808  0.2996
  694SOL    HW1 2081   2.094   2.774   1.000 -1.9096  1.8578 -2.1542
  694SOL    HW2 2082   2.164   2.732   1.145 -0.5633 -0.5971 -1.1022
  695SOL     OW 2083   1.465   1.340   2.150 -0.1420  0.6445 -0.0588
  695SOL    HW1 2084   1.463   1.363   2.049  0.6781  2.1583 -3.1904
  695SOL    HW2 2085   1.413   1.409   2.207  1.5771  0.1332  0.6096
  696SOL     OW 2086   1.849   0.459   1.204 -0.4493 -0.1250  0.0521
  696SOL    HW1 2087   1.822   0.367   1.164  1.4015 -1.9596  0.6340
  696SOL    HW2 2088   1.897   0.520   1.134  1.4370  0.9775  0.2344
  697SOL     OW 2089   1.434   0.353   1.151 -1.0009 -0.4211  0.7580
  697SOL    HW1 2090   1.439   0.265   1.203  1.2650  1.0474 -1.1511
  697SOL    HW2 2091   1.490   0.428   1.196 -1.2815  0.2387 -2.1082
  698SOL     OW 2092   1.680   1.216   1.988 -0.2272  0.1266 -0.4904
  698SOL    HW1 2093   1.771   1.261   2.004  0.9420 -2.1794  1.5260
  698SOL    HW2 2094   1.612   1.253   2.055 -2.0515 -0.1233  0.7802
  699SOL     OW 2095   1.392   1.127   1.502  0.7599  0.2275 -0.4895
  699SOL    HW1 2096   1.380   1.184   1.418 -0.7049  0.4785  0.6064
  699SOL    HW2 2097   1.302   1.088   1.530  0.1824  4.0817  0.4258
  700SOL     OW 2098   1.570   3.071   0.339  0.3953 -0.3797 -0.6491
  700SOL    HW1 2099   1.632   0.060   0.305  1.4437 -1.0477 -0.3605
  700SOL    HW2 2100   1.481   3.070   0.287  2.2675 -0.0965 -0.6145
  701SOL     OW 2101   0.340   3.005   1.750 -0.2642 -0.1417 -0.0673
  701SOL    HW1 2102   0.379   3.087   1.787 -2.7927 -3.3716 -0.7793
  701SOL    HW2 2103   0.367   2.990   1.655 -0.2053  1.2807 -1.8697
  702SOL     OW 2104   1.278   2.664   0.063 -0.5941  0.6438 -0.1835
  702SOL    HW1 2105   1.341   2.606   0.124 -1.0742 -0.1961 -0.9133
  702SOL    HW2 2106   1.327   2.755   0.034 -1.1369  2.2360  1.8568
  703SOL     OW 2107   2.512   0.321   2.193  0.2313  0.2171 -0.1077
  703SOL    HW1 2108   2.483   0.405   2.246  1.7921  0.7237 -0.2994
  703SOL    HW2 2109   2.438   0.286   2.138  0.6020 -0.1501 -0.8494
  704SOL     OW 2110   1.287   2.258   1.014  0.2051  0.7374 -0.1640
  704SOL    HW1 2111   1.381   2.221   1.040  3.0498 -0.2729  1.8674
  704SOL    HW2 2112   1.265   2.349   1.057 -0.1235  1.8971  2.3379
  705SOL     OW 2113   2.959   1.216   2.061 -0.2216  0.9367 -0.5144
  705SOL    HW1 2114   2.869   1.175   2.088  1.3022 -0.2949 -0.2410
  705SOL    HW2 2115   2.967   1.229   1.958 -1.0307  0.3236 -1.9296
  706SOL     OW 2116   1.589   0.006   0.599 -0.3192  0.0346  0.2421
  706SOL    HW1 2117   1.494   0.027   0.624  0.7291 -1.0997 -3.9876
  706SOL    HW2 2118   1.588   3.086   0.495  1.1450 -2.1389 -2.2241
  707SOL     OW 2119   1.206   2.171   2.319 -0.4582  0.1075 -0.3297
  707SOL    HW1 2120   1.164   2.147   2.406 -0.8962  1.3775 -0.9314
  707SOL    HW2 2121   1.306   2.137   2.317  3.9396 -0.9859 -0.9529
  708SOL     OW 2122   3.033   2.123   1.298  0.3250  0.1201  0.6092
  708SOL    HW1 2123   3.057   2.034   1.335 -1.6143  2.2858 -2.1374
  708SOL    HW2 2124   2.990   2.185   1.367 -0.5084 -0.1541 -0.9218
  709SOL     OW 2125   1.775   0.487   2.023 -0.7591  0.2667 -0.2605
  709SOL    HW1 2126   1.848   0.414   1.996  1.3117  0.6670  1.4396
  709SOL    HW2 2127   1.751   0.497   2.124 -2.3540  1.0135  1.3124
  710SOL     OW 2128   2.847   0.311   1.310 -0.1880  0.0527  0.0638
  710SOL    HW1 2129   2.774   0.238   1.296 -0.4595 -1.8237  0.3314
  710SOL    HW2 2130   2.814   0.396   1.270 -0.0403 -2.6197 -0.9878
  711SOL     OW 2131   0.197   2.465   0.887 -0.4960 -0.0091 -0.6131
  711SOL    HW1 2132   0.245   2.438   0.973  2.3709  1.3384 -1.4046
  711SOL    HW2 2133   0.096   2.453   0.898  0.2456 -0.5036  1.6197
  712SOL     OW 2134   0.136   2.060   2.446 -0.8464  0.2460  0.2730
  712SOL    HW1 2135   0.053   2.016   2.399 -1.1985 -0.1125 -0.8031
  712SOL    HW2 2136   0.189   2.124   2.381  1.0797  1.6010  1.9327
  713SOL     OW 2137   1.555   0.625   0.377 -0.1612 -0.3094  0.4896
  713SOL    HW1 2138   1.480   0.634   0.447 -0.4532  0.6384  3.0760
  713SOL    HW2 2139   1.602   0.713   0.361  0.2360  0.4888  0.9966
  714SOL     OW 2140   1.430   1.819   0.287 -0.1134  0.1301  0.2715
  714SOL    HW1 2141   1.417   1.884   0.206 -1.5340  0.2802 -1.7470
  714SOL    HW2 2142   1.353   1.838   0.353 -1.2283  1.8022  1.4157
  715SOL     OW 2143   2.703   0.111   0.388  0.1246 -0.5117 -0.1524
  715SOL    HW1 2144   2.736   0.198   0.436 -0.0983 -2.6568 -1.6821
  715SOL    HW2 2145   2.736   0.027   0.435  1.6261 -0.1262 -2.0149
  716SOL     OW 2146   0.400   0.269   2.288 -1.0494 -0.0296 -0.0886
  716SOL    HW1 2147   0.457   0.296   2.372  2.8981 -0.1443  3.0064
  716SOL    HW2 2148   0.303   0.288   2.296  2.4748 -1.0457  0.8574
  717SOL     OW 2149   0.063   0.169   2.571 -0.0091  0.0364 -0.5960
  717SOL    HW1 2150   0.086   0.071   2.563  0.1449 -4.3223  0.7220
  717SOL    HW2 2151   3.060   0.182   2.613 -3.3492 -0.0782 -2.1009
  718SOL     OW 2152   0.959   0.681   0.585  0.1898  0.3992  0.2093
  718SOL    HW1 2153   0.877   0.625   0.596  1.4314  0.9942  0.8252
  718SOL    HW2 2154   1.031   0.625   0.529  2.9876 -0.6868 -0.5068
  719SOL     OW 2155   2.728   2.036   2.843 -0.1054  0.4204 -0.2380
  719SOL    HW1 2156   2.717   1.944   2.803 -0.3675 -0.8075  1.6387
  719SOL    HW2 2157   2.760   2.108   2.779  2.2849  1.2837  3.6698
  720SOL     OW 2158   1.601   0.915   1.111  0.3324 -0.3624 -0.6965
  720SOL    HW1 2159   1.665   0.957   1.179  1.5270 -1.4316  0.9045
  720SOL    HW2 2160   1.521   0.872   1.159 -0.3018 -0.8795  1.5986
  721SOL     OW 2161   2.875   0.771   0.682  0.4637  0.6839 -0.4489
  721SOL    HW1 2162   2.784   0.782   0.639 -1.6770  1.4287 -0.6695
  721SOL    HW2 2163   2.904   0.672   0.682 -0.6445 -0.7964 -0.4391
  722SOL     OW 2164   1.385   1.836   2.542 -0.0542 -0.0166 -0.0165
  722SOL    HW1 2165   1.306   1.902   2.548 -1.7598  1.5236  0.4480
  722SOL    HW2 2166   1.361   1.745   2.584  0.5976 -2.4509  1.0878
  723SOL     OW 2167   0.602   0.651   0.421 -0.0568  0.3138  0.1383
  723SOL    HW1 2168   0.619   0.579   0.487  1.4408  1.3131 -3.7933
  723SOL    HW2 2169   0.587   0.741   0.467 -0.6612 -0.6377  0.3033
  724SOL     OW 2170   1.045   1.991   1.751  0.8604 -0.3421 -0.4000
  724SOL    HW1 2171   1.082   1.987   1.653  2.1791 -1.5936 -2.7859
  724SOL    HW2 2172   0.968   2.056   1.757  0.7301 -2.9022  0.2608
  725SOL     OW 2173   2.975   0.990   1.386  0.4025  0.1512  0.0786
  725SOL    HW1 2174   2.968   1.063   1.311 -0.7609  0.6284  0.5184
  725SOL    HW2 2175   3.059   1.002   1.445  1.3296 -1.5038 -1.4590
  726SOL     OW 2176   1.664   0.466   0.594  0.1134 -0.3724 -0.2899
  726SOL    HW1 2177   1.630   0.445   0.689  0.3276 -0.6239  1.0141
  726SOL    HW2 2178   1.604   0.423   0.523 -0.2347 -0.0198 -0.1307
  727SOL     OW 2179   1.633   0.904   2.299 -0.7340  0.2757 -0.1644
  727SOL    HW1 2180   1.574   0.989   2.298  2.3666  0.8688  1.8917
  727SOL    HW2 2181   1.611   0.851   2.384 -1.0951 -1.9598 -0.3517
  728SOL     OW 2182   1.799   2.484   1.234  0.1200 -0.5640 -0.4506
  728SOL    HW1 2183   1.696   2.511   1.223 -5.3791  0.4829  0.5457
  728SOL    HW2 2184   1.856   2.558   1.272 -1.7927 -0.6066 -4.2421
  729SOL     OW 2185   1.291   0.611   1.391  0.3587  0.4574  0.1746
  729SOL    HW1 2186   1.266   0.559   1.302  0.6090 -0.9107 -1.5002
  729SOL    HW2 2187   1.271   0.545   1.467 -0.5756  1.7363  0.5162
  730SOL     OW 2188   0.858   2.184   1.716 -0.1677 -0.1289  0.1858
  730SOL    HW1 2189   0.784   2.214   1.777 -0.1652 -2.0852 -0.3747
  730SOL    HW2 2190   0.828   2.181   1.620 -2.3485  2.1423  0.1350
  731SOL     OW 2191   0.587   0.312   0.145  0.3245 -0.5331  0.7225
  731SOL    HW1 2192   0.574   0.282   0.243  2.5115 -1.5663  3.9765
  731SOL    HW2 2193   0.629   0.244   0.083  0.4513 -2.9277 -0.1545
  732SOL     OW 2194   0.739   0.665   3.031  0.5398 -0.3359  0.2453
  732SOL    HW1 2195   0.784   0.661   0.036 -0.4717 -0.0542 -1.2050
  732SOL    HW2 2196   0.657   0.602   3.021  1.1418  0.1954 -0.3252
  733SOL     OW 2197   1.382   1.813   1.499  0.2925  0.4285 -0.7474
  733SOL    HW1 2198   1.360   1.714   1.522 -0.7211 -2.8146 -1.0150
  733SOL    HW2 2199   1.298   1.869   1.482  2.2323 -0.4282  1.8424
  734SOL     OW 2200   2.956   2.589   2.472  0.2180  0.5963  0.7731
  734SOL    HW1 2201   2.927   2.646   2.546 -0.6760 -0.9879 -1.3631
  734SOL    HW2 2202   2.887   2.596   2.397 -1.5048 -1.9365  0.0426
  735SOL     OW 2203   0.907   2.635   0.944  0.1723 -0.2444  0.0602
  735SOL    HW1 2204   0.928   2.707   0.877  0.3727 -1.7117  1.2533
  735SOL    HW2 2205   0.945   2.546   0.907 -1.0848  2.5973  0.7724
  736SOL     OW 2206   1.501   0.803   2.509 -0.0508 -0.3862 -0.0378
  736SOL    HW1 2207   1.430   0.735   2.481  1.7822  1.1833  1.5171
  736SOL    HW2 2208   1.461   0.880   2.569 -0.0011  3.7548  2.0263
  737SOL     OW 2209   0.063   0.785   0.369 -0.1400  0.3051 -0.5759
  737SOL    HW1 2210   0.131   0.776   0.295 -0.7991 -3.7847 -1.6632
  737SOL    HW2 2211   0.102   0.822   0.455 -0.3632  0.2600  0.9246
  738SOL     OW 2212   0.267   2.711   1.492  0.1462  0.1838  0.0430
  738SOL    HW1 2213   0.180   2.748   1.534  0.4322  0.1487 -0.3770
  738SOL    HW2 2214   0.249   2.685   1.392  1.6070 -1.4338 -0.4712
  739SOL     OW 2215   1.594   2.847   0.729 -0.1276 -0.2832 -0.8935
  739SOL    HW1 2216   1.543   2.831   0.816 -2.0193 -0.1659 -1.1404
  739SOL    HW2 2217   1.584   2.936   0.681 -2.1600  1.1241 -2.0912
  740SOL     OW 2218   1.480   2.774   1.237  0.2218  0.1219 -0.2431
  740SOL    HW1 2219   1.529   2.858   1.258 -3.1902 -1.0136 -0.9237
  740SOL    HW2 2220   1.417   2.756   1.312  0.8974 -0.9915 -0.3437
  741SOL     OW 2221   1.901   0.342   0.647 -0.1898  0.4617 -0.4826
  741SOL    HW1 2222   1.817   0.381   0.606  1.9639  1.4972  2.3509
  741SOL    HW2 2223   1.877   0.277   0.722  0.8204 -0.6096  3.3505
  742SOL     OW 2224   1.308   2.244   1.753 -0.2237  0.4760 -0.1608
  742SOL    HW1 2225   1.215   2.283   1.734 -1.5739  3.1797 -2.0417
  742SOL    HW2 2226   1.346   2.183   1.677  3.1494 -2.7490 -3.1431
  743SOL     OW 2227   1.946   0.614   2.231 -0.6260 -0.1970 -0.4545
  743SOL    HW1 2228   1.887   0.685   2.190  0.3952  0.2444 -2.0253
  743SOL    HW2 2229   1.948   0.524   2.176 -0.1520  0.0401 -0.4137
  744SOL     OW 2230   2.277   0.561   0.767  0.1534  0.4161  0.5197
  744SOL    HW1 2231   2.229   0.652   0.760 -0.7516 -0.2411 -2.4602
  744SOL    HW2 2232   2.366   0.570   0.814 -0.9875 -0.5252  1.5088
  745SOL     OW 2233   2.049   1.638   1.850  0.3206 -0.4005  0.1819
  745SOL    HW1 2234   2.097   1.631   1.761 -2.5039 -1.6743  0.7234
  745SOL    HW2 2235   2.089   1.578   1.915 -0.6386  0.5036  1.0936
  746SOL     OW 2236   1.125   1.658   0.901  0.2668 -0.2859  0.2125
  746SOL    HW1 2237   1.027   1.631   0.898 -0.9112  2.6790 -2.5174
  746SOL    HW2 2238   1.141   1.743   0.952  0.1009  0.0771  0.5381
  747SOL     OW 2239   1.911   1.247   1.046  0.4128 -0.9881 -0.0772
  747SOL    HW1 2240   1.835   1.267   1.109  1.7867 -1.3874  0.9681
  747SOL    HW2 2241   1.960   1.165   1.073  0.0239  3.7402  1.0405
  748SOL     OW 2242   0.344   2.989   0.240  0.1568  0.4806  0.3754
  748SOL    HW1 2243   0.316   3.047   0.320 -1.6928  2.9410  0.0155
  748SOL    HW2 2244   0.308   2.893   0.249 -0.9243 -1.3367 -1.0667
  749SOL     OW 2245   0.132   0.295   2.318 -0.2155  0.1710  0.3129
  749SOL    HW1 2246   0.059   0.355   2.281 -2.0165  2.2099  0.5568
  749SOL    HW2 2247   0.093   0.248   2.397 -3.2075 -0.0551 -1.1446
  750SOL     OW 2248   1.721   2.843   1.576  0.3338 -0.5218 -0.7931
  750SOL    HW1 2249   1.792   2.866   1.643 -0.9549  0.8547 -1.1675
  750SOL    HW2 2250   1.650   2.781   1.614  0.5475  1.5638 -3.1022
  751SOL     OW 2251   2.945   0.496   0.701 -0.5681  0.4056 -0.1981
  751SOL    HW1 2252   2.878   0.454   0.638  0.9575  2.1235  0.6260
  751SOL    HW2 2253   2.961   0.443   0.789  1.0986 -1.8783  0.1821
  752SOL     OW 2254   0.156   2.932   1.090  0.2304 -0.2847  0.4538
  752SOL    HW1 2255   0.219   2.975   1.027 -0.4598  1.8081  0.1552
  752SOL    HW2 2256   0.066   2.921   1.049  0.5696  0.5841 -0.5732
  753SOL     OW 2257   0.954   0.388   1.487  0.2446 -0.0468 -0.1526
  753SOL    HW1 2258   1.007   0.369   1.402  0.5579 -4.4267  0.3571
  753SOL    HW2 2259   0.979   0.319   1.561 -0.9963  1.7713 -0.9565
  754SOL     OW 2260   0.741   2.776   2.212 -0.1215  0.8189  0.1046
  754SOL    HW1 2261   0.697   2.842   2.276 -0.2238  0.6463  0.3026
  754SOL    HW2 2262   0.676   2.745   2.141 -1.1346 -0.5682  1.8915
  755SOL     OW 2263   2.454   1.476   0.428 -0.5849  0.5243 -0.3318
  755SOL    HW1 2264   2.546   1.504   0.402  0.4165 -2.7175 -0.6436
  755SOL    HW2 2265   2.411   1.431   0.342 -3.0500 -3.6143 -0.6405
  756SOL     OW 2266   2.131   2.051   2.783  0.3651  0.1764  0.1904
  756SOL    HW1 2267   2.159   2.137   2.831 -0.6036 -2.6995  0.9441
  756SOL    HW2 2268   2.211   2.008   2.740 -0.9854  3.5938  0.0301
  757SOL     OW 2269   1.727   2.989   0.961 -0.2109  0.1010 -0.6295
  757SOL    HW1 2270   1.757   3.052   0.886 -0.9561 -2.4166 -0.5597
  757SOL    HW2 2271   1.644   3.024   1.011 -0.7061  1.2550  0.0364
  758SOL     OW 2272   1.303   2.444   0.773 -0.3458 -0.2199  0.4459
  758SOL    HW1 2273   1.393   2.466   0.812  0.4439  1.5741  0.7274
  758SOL    HW2 2274   1.314   2.405   0.675 -3.0757 -1.0382 -0.0249
  759SOL     OW 2275   2.459   0.466   1.141 -0.2172 -0.6759  0.0770
  759SOL    HW1 2276   2.461   0.522   1.048  2.1500  2.3828 -4.1470
  759SOL    HW2 2277   2.374   0.414   1.158 -2.1463  0.2778  0.6777
  760SOL     OW 2278   2.130   1.165   1.399 -0.0469  0.3432  0.3061
  760SOL    HW1 2279   2.035   1.131   1.376 -0.7494 -4.1887  0.7471
  760SOL    HW2 2280   2.185   1.188   1.320  0.4257  1.8607 -0.0151
  761SOL     OW 2281   0.597   0.655   0.731 -0.4120  0.2195  0.5367
  761SOL    HW1 2282   0.527   0.719   0.693  3.0366  1.6150  2.1943
  761SOL    HW2 2283   0.602   0.660   0.830 -0.5755  1.9209 -0.8130
  762SOL     OW 2284   1.832   1.833   1.029 -0.3656  0.0478  0.5774
  762SOL    HW1 2285   1.833   1.733   1.044  1.1054 -1.0556 -0.5087
  762SOL    HW2 2286   1.819   1.885   1.114  0.7476  1.7419 -1.9932
  763SOL     OW 2287   1.148   1.514   1.731  0.1165  0.2785 -0.2538
  763SOL    HW1 2288   1.078   1.579   1.693  2.3161  2.2644 -1.4422
  763SOL    HW2 2289   1.136   1.495   1.830 -2.5599 -0.9279  0.9146
  764SOL     OW 2290   0.101   1.822   2.037 -0.3605  0.1415 -0.1513
  764SOL    HW1 2291   0.054   1.773   1.959  0.0693 -2.2495  0.4056
  764SOL    HW2 2292   0.124   1.750   2.110 -0.5409 -3.2074  1.2274
  765SOL     OW 2293   1.727   2.235   1.295 -0.3202 -0.5119 -0.7015
  765SOL    HW1 2294   1.638   2.247   1.347 -0.4802 -2.2983 -0.9492
  765SOL    HW2 2295   1.759   2.324   1.256  1.9924  3.4418  1.1355
  766SOL     OW 2296   0.097   2.396   2.302  0.4109 -0.2906  0.4731
  766SOL    HW1 2297   0.116   2.430   2.396 -0.4862 -0.4268 -2.5164
  766SOL    HW2 2298   0.082   2.472   2.237 -0.5919  0.9585  1.7587
  767SOL     OW 2299   1.355   0.596   2.453  0.0862 -0.0310  0.3729
  767SOL    HW1 2300   1.328   0.525   2.524  0.9763 -2.6059 -1.5385
  767SOL    HW2 2301   1.305   0.584   2.363 -0.7913  0.7342  1.1364
  768SOL     OW 2302   1.321   2.294   2.980  0.2191 -0.6231 -0.5141
  768SOL    HW1 2303   1.394   2.224   2.957  2.8107  0.8185  0.0402
  768SOL    HW2 2304   1.268   2.273   3.065 -0.1756  1.1202  0.9357
  769SOL     OW 2305   0.221   2.677   1.231 -0.5277 -0.1753  0.1953
  769SOL    HW1 2306   0.200   2.761   1.175 -2.4045  0.8157 -1.8338
  769SOL    HW2 2307   0.273   2.609   1.183 -0.8100  3.4749  1.0192
  770SOL     OW 2308   1.575   0.519   2.833 -0.1930 -0.1993 -0.5888
  770SOL    HW1 2309   1.583   0.594   2.764 -1.3511  0.2589  2.3955
  770SOL    HW2 2310   1.626   0.551   2.915 -0.5816  1.5167  0.4229
  771SOL     OW 2311   0.396   0.084   2.622 -0.0528 -0.3471  0.5858
  771SOL    HW1 2312   0.428   0.159   2.560 -2.3377  0.5601  0.0974
  771SOL    HW2 2313   0.318   0.030   2.578 -0.7644 -2.2316 -2.0813
  772SOL     OW 2314   2.144   0.009   1.965 -0.1332 -0.1688 -0.0896
  772SOL    HW1 2315   2.043   0.009   1.959  0.2932  1.3184  0.7456
  772SOL    HW2 2316   2.184   3.048   1.884  0.3484 -1.3126 -1.2055
  773SOL     OW 2317   1.040   2.496   1.888 -0.7568  0.2118  0.2123
  773SOL    HW1 2318   1.075   2.480   1.984  0.0714  0.9500  0.2220
  773SOL    HW2 2319   0.941   2.525   1.890  1.6034 -2.3098 -2.2190
  774SOL     OW 2320   1.074   0.346   1.928  0.2005  0.2062 -0.1628
  774SOL    HW1 2321   1.168   0.375   1.902  2.2408 -0.5161  0.5622
  774SOL    HW2 2322   1.026   0.424   1.980 -0.1382 -0.4399  1.2227
  775SOL     OW 2323   2.053   2.467   0.193  0.1864  0.3065  0.7288
  775SOL    HW1 2324   1.971   2.491   0.246  0.5581 -0.8084 -0.4579
  775SOL    HW2 2325   2.026   2.430   0.095 -3.6768 -1.3911 -1.6898
  776SOL     OW 2326   2.127   0.516   2.449  0.3681 -0.4488  0.5548
  776SOL    HW1 2327   2.131   0.582   2.532  1.9727 -0.3227 -0.3495
  776SOL    HW2 2328   2.075   0.564   2.374 -1.8253  0.0952 -1.1869
  777SOL     OW 2329   2.353   1.191   2.541  0.7307  0.4053  0.0475
  777SOL    HW1 2330   2.316   1.205   2.637  0.2336  1.7242  0.0880
  777SOL    HW2 2331   2.453   1.211   2.532 -1.2887 -0.4333  1.3222
  778SOL     OW 2332   2.094   0.836   2.353 -0.1097 -0.4768  0.1609
  778SOL    HW1 2333   2.017   0.898   2.376 -2.6466 -1.3359 -2.0483
  778SOL    HW2 2334   2.052   0.750   2.309  1.3769 -0.8149  0.5623
  779SOL     OW 2335   0.000   0.039   2.914 -0.0610 -0.3402 -0.2496
  779SOL    HW1 2336   0.096   0.056   2.894  1.0986 -0.9391 -0.6995
  779SOL    HW2 2337   3.037   0.125   2.909 -1.7744 -1.0570  2.8369
  780SOL     OW 2338   2.429   0.501   2.934  0.0342  0.0180 -0.5110
  780SOL    HW1 2339   2.502   0.515   2.861  3.3913  0.1593 -0.3455
  780SOL    HW2 2340   2.440   0.571   3.009 -0.8168 -2.2393  0.6850
  781SOL     OW 2341   0.365   2.959   1.481  0.0412  0.1364 -0.4909
  781SOL    HW1 2342   0.332   3.012   1.404 -0.1815  2.8187 -1.8082
  781SOL    HW2 2343   0.322   2.867   1.482  0.2336 -1.4861  2.2058
  782SOL     OW 2344   1.815   2.426   0.471 -0.2066  0.2046  0.2371
  782SOL    HW1 2345   1.761   2.447   0.554 -0.0670 -0.3822 -0.7431
  782SOL    HW2 2346   1.810   2.505   0.408 -1.2768 -0.4451  0.0455
  783SOL     OW 2347   0.791   1.467   1.659  0.0125  0.2036 -0.0291
  783SOL    HW1 2348   0.785   1.434   1.566 -2.2294  0.4202  3.5635
  783SOL    HW2 2349   0.711   1.440   1.712  1.4026  0.6154  2.5521
  784SOL     OW 2350   1.225   0.398   2.578 -0.6548 -0.5777  0.0531
  784SOL    HW1 2351   1.300   0.331   2.595  1.0475 -0.3161 -0.7691
  784SOL    HW2 2352   1.135   0.360   2.560  3.3520  0.5553  0.2693
  785SOL     OW 2353   2.536   0.227   0.990  0.1634 -0.1365 -0.5708
  785SOL    HW1 2354   2.519   0.320   1.033  0.1135  0.4370 -1.9979
  785SOL    HW2 2355   2.472   0.157   1.028 -1.3574 -1.1008 -2.3118
  786SOL     OW 2356   1.348   2.687   1.476  0.3815  0.4114  0.0824
  786SOL    HW1 2357   1.431   2.679   1.538  1.0147 -0.2041 -0.8075
  786SOL    HW2 2358   1.312   2.592   1.454 -0.7712 -1.0458  1.7807
  787SOL     OW 2359   1.532   0.038   1.518  0.3792  0.5590 -0.1493
  787SOL    HW1 2360   1.587   3.061   1.455  2.6845 -3.1034 -1.1120
  787SOL    HW2 2361   1.594   0.111   1.546 -0.6070  0.9191  2.4186
  788SOL     OW 2362   2.942   1.036   0.327 -0.5682  0.3485 -0.3582
  788SOL    HW1 2363   3.037   0.994   0.327  0.9863 -4.1680 -0.5921
  788SOL    HW2 2364   2.918   1.086   0.413  2.6102  0.8214  1.8751
  789SOL     OW 2365   0.614   1.961   1.672  0.6522  0.0989  0.5677
  789SOL    HW1 2366   0.648   2.053   1.648  0.8057 -0.6522  2.1828
  789SOL    HW2 2367   0.672   1.919   1.747 -1.9164  1.4502 -0.0869
  790SOL     OW 2368   0.329   0.558   2.473  0.1793 -0.6910 -0.6330
  790SOL    HW1 2369   0.414   0.560   2.534  1.1858 -0.1770 -1.7627
  790SOL    HW2 2370   0.251   0.514   2.526 -0.8910 -0.3601  1.7258
  791SOL     OW 2371   2.100   0.760   0.729  0.0672  0.0969 -0.2705
  791SOL    HW1 2372   2.068   0.734   0.630  0.0106 -1.0254 -0.5426
  791SOL    HW2 2373   2.018   0.796   0.775  0.4600  0.9529 -2.6860
  792SOL     OW 2374   1.191   2.874   1.583  0.0576 -0.2573  0.1727
  792SOL    HW1 2375   1.173   2.813   1.662 -0.2969 -1.0611  0.9562
  792SOL    HW2 2376   1.248   2.829   1.511 -1.2805  1.5817  0.4127
  793SOL     OW 2377   0.323   3.078   0.932 -0.5897  0.0629  0.0553
  793SOL    HW1 2378   0.304   0.090   0.947  1.2514  2.0221  1.8286
  793SOL    HW2 2379   0.341   3.053   0.836  2.2236  0.9008 -1.6331
  794SOL     OW 2380   0.139   1.036   1.950 -0.3585 -0.2883  0.0577
  794SOL    HW1 2381   0.146   1.090   2.034  0.0970  1.2120  0.3282
  794SOL    HW2 2382   0.061   0.968   1.961 -1.7756 -0.1965  0.9780
  795SOL     OW 2383   0.635   2.384   2.578 -0.6420  0.2363  0.4137
  795SOL    HW1 2384   0.568   2.316   2.542  0.6182 -0.6485  0.6013
  795SOL    HW2 2385   0.713   2.396   2.514  1.6156  0.2544  0.7726
  796SOL     OW 2386   2.180   0.220   2.492  0.1118  0.3145  0.4149
  796SOL    HW1 2387   2.168   0.317   2.472 -1.5428  0.6970 -1.3165
  796SOL    HW2 2388   2.241   0.176   2.424 -1.2294 -0.3280  0.1614
  797SOL     OW 2389   2.385   2.471   2.581  0.3563 -0.1187  0.1004
  797SOL    HW1 2390   2.348   2.376   2.580  0.0718 -0.0328  2.1408
  797SOL    HW2 2391   2.312   2.540   2.607 -1.7221 -2.5837  4.1655
  798SOL     OW 2392   3.013   0.422   2.214 -0.5637  0.5018 -0.2575
  798SOL    HW1 2393   3.049   0.458   2.122 -1.6850 -1.5832 -0.8188
  798SOL    HW2 2394   2.976   0.324   2.200 -2.7964  0.1700 -0.5442
  799SOL     OW 2395   0.821   2.412   2.144  0.3155 -0.3240  0.4004
  799SOL    HW1 2396   0.923   2.401   2.137  0.7800  1.3887  1.0594
  799SOL    HW2 2397   0.792   2.486   2.079 -2.0982 -3.1760 -0.2492
  800SOL     OW 2398   0.084   2.131   0.244 -0.2299  0.2002  0.1301
  800SOL    HW1 2399   0.013   2.055   0.266 -1.9870 -1.7890 -1.4914
  800SOL    HW2 2400   0.181   2.102   0.242 -0.6151  2.0963  3.4234
  801SOL     OW 2401   1.608   1.575   0.887 -0.3687  0.0901 -0.0563
  801SOL    HW1 2402   1.561   1.493   0.851  0.6875 -1.9620  2.1012
  801SOL    HW2 2403   1.611   1.654   0.820 -1.9077 -0.3443  0.5675
  802SOL     OW 2404   0.149   0.405   0.404  0.2289 -0.1771  0.2969
  802SOL    HW1 2405   0.167   0.385   0.504 -1.9152  0.6257 -1.0144
  802SOL    HW2 2406   0.066   0.356   0.373 -1.0985 -1.8905  1.8097
  803SOL     OW 2407   1.408   1.399   1.890 -0.5150  0.0491  0.0605
  803SOL    HW1 2408   1.393   1.504   1.880  0.4516 -0.5527 -0.1908
  803SOL    HW2 2409   1.471   1.363   1.820 -3.4414  0.9578 -0.4864
  804SOL     OW 2410   1.761   1.968   0.791  0.1669 -0.1993  0.5196
  804SOL    HW1 2411   1.786   1.933   0.886  2.6234 -1.3660  0.9123
  804SOL    HW2 2412   1.697   1.902   0.747  1.0092 -0.0381  3.2357
  805SOL     OW 2413   2.970   1.880   2.616 -0.5288 -0.0093 -0.1093
  805SOL    HW1 2414   3.047   1.902   2.555  2.5960 -1.3195  0.9431
  805SOL    HW2 2415   2.887   1.870   2.567  1.3971 -1.4007 -1.3851
  806SOL     OW 2416   0.442   2.399   0.346  0.2823  0.9820 -0.2160
  806SOL    HW1 2417   0.523   2.394   0.407 -4.8316 -1.6651  1.2080
  806SOL    HW2 2418   0.383   2.474   0.384  2.2415  0.2983 -1.0007
  807SOL     OW 2419   2.289   1.671   2.698  0.5300  0.2291  0.4519
  807SOL    HW1 2420   2.375   1.727   2.704  0.7196  1.9495  2.4989
  807SOL    HW2 2421   2.215   1.712   2.753  1.4825 -0.5518 -3.3343
  808SOL     OW 2422   1.515   2.103   1.110 -0.3217 -0.6211  0.0941
  808SOL    HW1 2423   1.483   2.007   1.103  1.4672  3.0204  0.4897
  808SOL    HW2 2424   1.607   2.109   1.148 -0.1852 -1.4642 -0.4212
  809SOL     OW 2425   0.178   0.587   0.182 -0.4066 -0.3321  0.1574
  809SOL    HW1 2426   0.152   0.528   0.259 -0.2390  3.2651 -2.1214
  809SOL    HW2 2427   0.280   0.594   0.177 -0.2316  1.3044  0.7630
  810SOL     OW 2428   1.164   1.451   0.047  0.2482 -0.4783  0.2097
  810SOL    HW1 2429   1.107   1.373   0.076 -1.9560  2.4436  0.1112
  810SOL    HW2 2430   1.230   1.471   0.122  0.8327 -0.0077 -0.0623
  811SOL     OW 2431   2.075   2.359   0.820  0.2665 -0.1798 -0.6388
  811SOL    HW1 2432   2.101   2.264   0.852 -2.0191 -1.7164  2.5879
  811SOL    HW2 2433   1.990   2.394   0.876 -2.5071 -0.2731  2.0700
  812SOL     OW 2434   1.457   0.136   1.289  0.2970  0.0301  0.1485
  812SOL    HW1 2435   1.481   0.129   1.386 -1.5543  0.0713 -1.2848
  812SOL    HW2 2436   1.484   0.055   1.241  0.5587 -1.7160  0.4941
  813SOL     OW 2437   0.879   3.056   1.900 -0.2853 -0.5324 -0.1242
  813SOL    HW1 2438   0.853   0.020   1.817  1.9248 -0.5133  1.2849
  813SOL    HW2 2439   0.800   3.030   1.957  3.0441 -0.4330 -2.1966
  814SOL     OW 2440   1.096   2.410   2.162  0.6467 -0.3408  0.0819
  814SOL    HW1 2441   1.135   2.320   2.187 -2.4415 -1.9640 -2.4448
  814SOL    HW2 2442   1.136   2.489   2.215  0.4727 -0.1996  1.0101
  815SOL     OW 2443   0.668   2.919   2.898 -0.5659  0.3613 -0.5341
  815SOL    HW1 2444   0.637   2.829   2.871  1.6921  3.1613 -0.8555
  815SOL    HW2 2445   0.599   2.956   2.967 -2.1626  1.1572  1.8902
  816SOL     OW 2446   2.195   0.665   0.203  0.4547  0.0370 -0.1399
  816SOL    HW1 2447   2.192   0.563   0.184  1.9741 -3.5919 -1.3635
  816SOL    HW2 2448   2.207   0.690   0.306 -3.2648  0.1134  2.9415
  817SOL     OW 2449   2.822   2.509   2.114 -0.0903 -0.5684 -0.9999
  817SOL    HW1 2450   2.754   2.583   2.082 -0.9190 -2.2403 -1.1252
  817SOL    HW2 2451   2.783   2.443   2.182 -0.6128  2.1812 -0.7822
  818SOL     OW 2452   0.893   1.187   0.382  0.2743 -0.3597 -0.1996
  818SOL    HW1 2453   0.910   1.089   0.381 -1.1546  5.3981 -0.6103
  818SOL    HW2 2454   0.794   1.212   0.383 -0.9104 -0.1251  1.0001
  819SOL     OW 2455   1.642   1.230   2.714 -0.4730 -0.2606  0.5746
  819SOL    HW1 2456   1.674   1.266   2.623  0.7770  2.3178 -1.7682
  819SOL    HW2 2457   1.652   1.300   2.785  0.5359 -0.6270 -0.2058
  820SOL     OW 2458   0.404   1.369   2.979 -0.0549 -0.0051  0.4612
  820SOL    HW1 2459   0.325   1.406   3.025  0.4630  0.8461 -1.0159
  820SOL    HW2 2460   0.446   1.292   3.033 -1.0405  0.6348 -1.6131
  821SOL     OW 2461   0.395   2.983   0.680  0.3667 -0.6765  0.9679
  821SOL    HW1 2462   0.491   3.018   0.678  1.9482 -1.7297 -0.9842
  821SOL    HW2 2463   0.393   2.884   0.714  1.4819  0.1500  1.6866
  822SOL     OW 2464   2.574   2.626   3.043  0.3055 -0.2615 -0.4194
  822SOL    HW1 2465   2.564   2.568   2.956 -1.6975  0.4754 -1.2286
  822SOL    HW2 2466   2.670   2.644   3.065  2.2908  1.7977 -1.1005
  823SOL     OW 2467   1.441   0.006   2.839 -0.1115 -0.3273 -0.3887
  823SOL    HW1 2468   1.503   3.030   2.885  0.8243 -1.0811 -1.0082
  823SOL    HW2 2469   1.472   0.106   2.842 -0.0215  0.8709 -2.0907
  824SOL     OW 2470   2.922   2.668   1.773 -0.0193 -0.5262  0.2271
  824SOL    HW1 2471   2.976   2.734   1.837 -0.3954  1.2182  0.9998
  824SOL    HW2 2472   2.928   2.569   1.801 -3.1644 -2.5949 -1.4711
  825SOL     OW 2473   2.934   2.210   2.390 -0.2786 -0.1061 -0.1456
  825SOL    HW1 2474   3.015   2.254   2.337  3.0624 -2.8491 -2.1071
  825SOL    HW2 2475   2.926   2.106   2.382 -1.8453 -1.1146  1.4801
  826SOL     OW 2476   1.901   0.456   0.020  0.3135  0.0234 -0.0318
  826SOL    HW1 2477   2.000   0.437   0.043 -0.2466 -3.2357 -0.1236
  826SOL    HW2 2478   1.883   0.437   3.011 -1.9748 -0.5305  0.5151
  827SOL     OW 2479   2.791   1.780   1.784 -0.4789  0.2389 -0.6239
  827SOL    HW1 2480   2.811   1.735   1.690  0.7487 -0.3405  0.9442
  827SOL    HW2 2481   2.693   1.772   1.811 -1.5094 -2.2300 -1.8133
  828SOL     OW 2482   0.015   0.007   1.469  0.1906  0.2024  0.3872
  828SOL    HW1 2483   0.092   0.014   1.407  0.2008 -1.2302  0.0050
  828SOL    HW2 2484   3.058   3.006   1.451 -2.3776 -0.6759  1.4104
  829SOL     OW 2485   0.734   2.002   2.447  0.2940 -0.0159 -0.3667
  829SOL    HW1 2486   0.810   2.061   2.478  0.5594 -1.8960  0.6643
  829SOL    HW2 2487   0.643   2.051   2.460 -1.2234  0.3297 -1.7686
  830SOL     OW 2488   0.493   0.865   1.504 -0.5614  0.4656  0.5185
  830SOL    HW1 2489   0.541   0.929   1.567 -0.6083  0.3296 -2.1883
  830SOL    HW2 2490   0.523   0.771   1.521 -0.5673  2.1454  3.3182
  831SOL     OW 2491   2.562   1.741   2.720  0.4426  0.4947 -0.0157
  831SOL    HW1 2492   2.621   1.677   2.669  3.9169 -1.4698  1.3476
  831SOL    HW2 2493   2.565   1.724   2.821 -0.4068  2.1630 -1.8785
  832SOL     OW 2494   1.989   2.388   3.041  0.0931 -0.3177  0.3050
  832SOL    HW1 2495   1.955   2.343   2.954  0.2296 -0.9369  0.5047
  832SOL    HW2 2496   2.050   2.466   3.011 -0.7625 -1.6567 -2.2679
  833SOL     OW 2497   0.595   0.272   2.028 -0.5205  0.1159 -0.2662
  833SOL    HW1 2498   0.622   0.195   2.094  0.1975  0.1533 -0.5615
  833SOL    HW2 2499   0.557   0.353   2.088  1.8793 -0.4370  0.2468
  834SOL     OW 2500   2.941   0.206   1.556 -0.2698  0.0626  0.0077
  834SOL    HW1 2501   2.996   0.121   1.533  2.5341 -0.2460  0.1688
  834SOL    HW2 2502   2.894   0.241   1.474 -2.8454  0.2960  1.0837
  835SOL     OW 2503   2.559   0.513   0.502 -0.0819  0.0264 -0.5438
  835SOL    HW1 2504   2.461   0.512   0.474 -0.5721 -0.5491  2.7763
  835SOL    HW2 2505   2.587   0.608   0.521 -2.6655  0.1980 -2.8940
  836SOL     OW 2506   1.077   2.018   0.332  0.3378 -0.0436 -0.4410
  836SOL    HW1 2507   1.161   2.013   0.392 -2.8348  1.7098  0.5395
  836SOL    HW2 2508   0.995   2.050   0.384 -0.4056  0.1315 -0.1221
  837SOL     OW 2509   1.808   1.651   0.387 -0.3515 -0.5865  0.2032
  837SOL    HW1 2510   1.899   1.636   0.439  1.1261 -2.1489  1.5870
  837SOL    HW2 2511   1.815   1.732   0.329 -1.9322  0.0170 -3.5977
  838SOL     OW 2512   1.771   0.790   2.081  0.4092 -0.0510  0.4907
  838SOL    HW1 2513   1.727   0.809   1.991 -2.3005 -2.2736 -1.6417
  838SOL    HW2 2514   1.712   0.830   2.152 -1.4127  0.0409 -0.2211
  839SOL     OW 2515   0.615   1.418   2.443  0.2928 -0.5099  0.0763
  839SOL    HW1 2516   0.606   1.489   2.515 -0.2576 -0.2478 -1.1461
  839SOL    HW2 2517   0.680   1.447   2.371  0.3194  0.2207 -2.4257
  840SOL     OW 2518   1.020   1.228   0.154  0.3932  0.1125  0.0771
  840SOL    HW1 2519   0.965   1.220   0.245 -0.5575 -0.5458  1.6405
  840SOL    HW2 2520   0.982   1.171   0.080  0.5806  2.0932  0.9486
  841SOL     OW 2521   1.720   2.183   0.471  0.2063  0.0443  0.1217
  841SOL    HW1 2522   1.796   2.122   0.492 -1.9028  0.5954  0.5085
  841SOL    HW2 2523   1.761   2.278   0.477 -0.7814  1.3352  0.5360
  842SOL     OW 2524   0.469   0.553   3.008  0.2144  0.0765  0.0044
  842SOL    HW1 2525   0.378   0.559   2.960 -2.7987 -1.8913 -0.2123
  842SOL    HW2 2526   0.451   0.549   0.017  0.0541  3.6386 -3.4021
  843SOL     OW 2527   0.549   0.335   0.881  0.3338  0.7593 -0.0025
  843SOL    HW1 2528   0.624   0.296   0.938 -1.3653 -0.7278  0.5024
  843SOL    HW2 2529   0.562   0.307   0.781 -0.0168  0.5384 -0.2777
  844SOL     OW 2530   1.972   2.976   2.192 -0.6392 -0.0823 -0.0615
  844SOL    HW1 2531   2.038   2.912   2.150 -1.7380  0.5075 -1.9240
  844SOL    HW2 2532   1.932   3.028   2.116 -1.2496 -2.2186  0.4076
  845SOL     OW 2533   0.286   2.540   1.726  0.6915 -0.2426 -0.1623
  845SOL    HW1 2534   0.219   2.469   1.758  1.3635 -2.2824 -3.6626
  845SOL    HW2 2535   0.249   2.605   1.657 -1.4162  2.2779 -0.3403
  846SOL     OW 2536   1.714   1.351   2.475 -0.7678  0.4165  0.1493
  846SOL    HW1 2537   1.683   1.447   2.463  1.5244 -0.2363  3.2116
  846SOL    HW2 2538   1.756   1.312   2.396 -1.1616  0.4973 -0.2523
  847SOL     OW 2539   0.120   0.651   2.330  0.1722  0.3927  0.7421
  847SOL    HW1 2540   0.208   0.611   2.362  0.5034  0.6965 -0.0129
  847SOL    HW2 2541   0.059   0.584   2.286 -1.3588 -1.0832 -0.9947
  848SOL     OW 2542   2.527   2.872   2.919  0.2107  0.5077  0.2024
  848SOL    HW1 2543   2.550   2.783   2.968  0.0041 -2.2955 -1.3083
  848SOL    HW2 2544   2.500   2.860   2.818  0.4458  0.4626  1.6131
  849SOL     OW 2545   0.365   2.624   0.474 -0.0931  0.0424 -0.3619
  849SOL    HW1 2546   0.324   2.686   0.404 -0.1730  0.5103 -1.3771
  849SOL    HW2 2547   0.446   2.673   0.510 -2.6336  0.9768  0.2580
  850SOL     OW 2548   0.882   2.342   0.670 -0.5658  0.0113  0.5711
  850SOL    HW1 2549   0.927   2.369   0.759 -0.4486 -2.0165 -0.6186
  850SOL    HW2 2550   0.950   2.379   0.599  2.4370  2.2904 -2.3989
  851SOL     OW 2551   1.936   0.365   2.857 -0.1319 -0.0825 -0.1478
  851SOL    HW1 2552   1.915   0.320   2.765 -1.3180 -0.8335 -2.8009
  851SOL    HW2 2553   2.009   0.439   2.840 -0.4379  1.0475 -1.4555
  852SOL     OW 2554   1.576   3.041   2.594  0.2814 -0.2451  0.5611
  852SOL    HW1 2555   1.514   2.963   2.574 -1.1383 -1.8434 -2.4539
  852SOL    HW2 2556   1.552   3.080   2.684  0.7975  1.8483  0.9748
  853SOL     OW 2557   2.995   2.656   0.506  0.0284  0.8300  0.2725
  853SOL    HW1 2558   3.050   2.587   0.453 -0.0537  0.5123  1.7414
  853SOL    HW2 2559   3.029   2.749   0.504 -3.2090 -2.0877 -0.1250
  854SOL     OW 2560   1.665   0.398   2.576 -0.0021 -0.0910  0.3196
  854SOL    HW1 2561   1.766   0.373   2.576 -0.7155  1.3282 -2.1168
  854SOL    HW2 2562   1.658   0.466   2.652 -1.7103  1.8535 -0.8413
  855SOL     OW 2563   0.271   2.364   0.637 -0.2016 -0.5859  0.0935
  855SOL    HW1 2564   0.243   2.403   0.729  2.0463 -1.7894  1.3095
  855SOL    HW2 2565   0.336   2.432   0.599  1.9281 -1.2683 -1.0138
  856SOL     OW 2566   0.263   2.733   2.504  0.1741 -0.3595 -0.4108
  856SOL    HW1 2567   0.357   2.758   2.474 -1.4664 -1.7432 -0.3723
  856SOL    HW2 2568   0.229   2.804   2.569  1.1608  0.6090  0.1418
  857SOL     OW 2569   1.003   3.044   1.477  0.2481 -0.0699 -0.1760
  857SOL    HW1 2570   1.080   2.998   1.526 -1.7048 -2.5705  3.5564
  857SOL    HW2 2571   0.941   0.003   1.543  0.5944  0.1246  1.6268
  858SOL     OW 2572   2.655   2.146   1.651  0.6284 -0.3968 -0.2030
  858SOL    HW1 2573   2.749   2.098   1.658  3.4024  0.9055 -0.7685
  858SOL    HW2 2574   2.586   2.073   1.619 -1.5880 -0.6108 -1.6657
  859SOL     OW 2575   1.989   2.299   1.845 -0.0393  0.0665  0.4051
  859SOL    HW1 2576   1.894   2.277   1.859  2.6142  0.9432  2.3888
  859SOL    HW2 2577   2.028   2.250   1.759  1.7870 -1.0892 -2.9935
  860SOL     OW 2578   1.521   0.357   0.391  0.1468  0.1599  0.3219
  860SOL    HW1 2579   1.523   0.457   0.366 -0.3675  1.2712  0.6866
  860SOL    HW2 2580   1.591   0.301   0.337  0.7212  1.2534 -0.5791
  861SOL     OW 2581   2.768   0.445   0.943 -0.1896  0.2548 -0.0151
  861SOL    HW1 2582   2.856   0.402   0.970 -1.6358  2.9406 -1.7820
  861SOL    HW2 2583   2.707   0.376   0.902  0.4201 -1.5777 -0.0102
  862SOL     OW 2584   1.226   0.014   2.408  0.0370  0.8572 -0.0391
  862SOL    HW1 2585   1.256   0.076   2.329  1.3702  2.6714 -1.8521
  862SOL    HW2 2586   1.275   3.016   2.422 -0.8422  1.4911  1.0779
  863SOL     OW 2587   0.344   0.683   1.192 -0.1798 -0.1201 -0.0631
  863SOL    HW1 2588   0.253   0.664   1.238  1.4453 -1.1877  0.0424
  863SOL    HW2 2589   0.371   0.780   1.201 -1.9081  0.4911  1.1474
  864SOL     OW 2590   2.968   0.180   2.121  0.7159 -0.5938 -0.0610
  864SOL    HW1 2591   2.987   0.144   2.029 -1.2959 -0.4023  0.0757
  864SOL    HW2 2592   2.878   0.149   2.156 -0.1122 -2.1448  0.3098
  865SOL     OW 2593   0.822   1.333   2.783 -0.1801 -0.1990 -0.3439
  865SOL    HW1 2594   0.775   1.378   2.862  0.0907  1.1399  1.0636
  865SOL    HW2 2595   0.764   1.261   2.744  2.5034  1.4274  0.7814
  866SOL     OW 2596   0.027   3.054   0.082 -0.0883 -0.0558 -0.0213
  866SOL    HW1 2597   0.014   3.078   3.074 -0.2824  0.3993  4.1072
  866SOL    HW2 2598   0.100   2.987   0.090 -0.6198 -1.1915 -0.1714
  867SOL     OW 2599   0.004   2.904   2.757 -0.2389  0.1528  0.2013
  867SOL    HW1 2600   0.096   2.875   2.783 -1.0566 -0.4537  1.6792
  867SOL    HW2 2601   3.061   2.980   2.821  0.4054  0.7040 -0.7322
  868SOL     OW 2602   1.472   1.001   2.707  0.5556  1.0643  0.2885
  868SOL    HW1 2603   1.536   1.076   2.729  1.4888  0.4777 -1.3211
  868SOL    HW2 2604   1.415   0.973   2.791 -2.3956  2.2715  0.4685
  869SOL     OW 2605   0.349   1.736   0.596 -0.2499 -0.6008 -0.4469
  869SOL    HW1 2606   0.448   1.731   0.623  0.3179  0.6809  0.3821
  869SOL    HW2 2607   0.315   1.645   0.626  4.1454 -0.9400  1.5401
  870SOL     OW 2608   2.300   1.706   0.499 -0.0703 -0.0654 -0.2821
  870SOL    HW1 2609   2.381   1.762   0.520 -2.0155  0.3501 -0.0532
  870SOL    HW2 2610   2.340   1.610   0.485  0.2192  1.4799 -0.8805
  871SOL     OW 2611   0.775   1.125   1.136  0.1591 -0.1690 -0.0633
  871SOL    HW1 2612   0.691   1.083   1.088 -0.7546 -2.1986 -3.8301
  871SOL    HW2 2613   0.808   1.061   1.209 -0.2938  0.8236 -0.1883
  872SOL     OW 2614   1.429   1.664   1.879  0.3997 -0.1951  0.4255
  872SOL    HW1 2615   1.500   1.719   1.924 -0.3790 -1.9798 -4.4607
  872SOL    HW2 2616   1.369   1.727   1.826 -0.5055 -0.4662 -1.6922
  873SOL     OW 2617   0.700   1.881   2.204 -0.1165 -0.3256 -0.7836
  873SOL    HW1 2618   0.703   1.940   2.287  1.2510 -1.1786  2.5436
  873SOL    HW2 2619   0.709   1.946   2.129 -1.3840  1.0054 -1.9562
  874SOL     OW 2620   0.945   2.276   1.052  0.4541 -0.9022 -0.1155
  874SOL    HW1 2621   0.888   2.194   1.043  0.0911  0.9586  1.2195
  874SOL    HW2 2622   0.970   2.298   1.148 -0.5186  1.1997  1.5816
  875SOL     OW 2623   2.655   0.201   0.754 -1.2480  0.4279 -0.1648
  875SOL    HW1 2624   2.620   0.120   0.712 -2.5320 -0.3094  0.1549
  875SOL    HW2 2625   2.597   0.218   0.839  0.1597 -0.0433 -1.8507
  876SOL     OW 2626   0.816   0.621   0.203  0.1131  0.2812 -0.2647
  876SOL    HW1 2627   0.735   0.647   0.259  0.2314 -2.7892  1.2362
  876SOL    HW2 2628   0.896   0.677   0.224  1.7618 -1.1644  2.3108
  877SOL     OW 2629   2.624   0.716   1.410  0.2533 -0.4875 -0.2266
  877SOL    HW1 2630   2.693   0.680   1.349 -0.4295 -0.5045  0.4788
  877SOL    HW2 2631   2.558   0.639   1.426  1.1579 -2.5512 -1.4801
  878SOL     OW 2632   2.542   2.163   0.664 -0.0580 -0.3235  0.3240
  878SOL    HW1 2633   2.452   2.190   0.622  2.2431  1.5661  3.2610
  878SOL    HW2 2634   2.541   2.162   0.765 -1.6548 -0.4450  4.0545
  879SOL     OW 2635   2.541   1.703   1.494  0.2374 -0.4795  0.6936
  879SOL    HW1 2636   2.454   1.707   1.433 -2.9112 -2.8712 -1.5386
  879SOL    HW2 2637   2.534   1.621   1.550 -1.8661  0.2918 -2.0571
  880SOL     OW 2638   1.545   2.529   1.162 -0.2702 -0.3890 -0.0536
  880SOL    HW1 2639   1.514   2.623   1.187  2.6575 -0.4650 -1.1681
  880SOL    HW2 2640   1.463   2.469   1.166  1.7268  1.9039 -0.4825
  881SOL     OW 2641   0.994   2.395   0.218  0.2535 -0.3823  0.1549
  881SOL    HW1 2642   1.020   2.400   0.318  1.1977 -1.9864 -2.2346
  881SOL    HW2 2643   0.900   2.438   0.200  1.6628  2.3103 -1.2850
  882SOL     OW 2644   1.631   1.032   1.367 -0.4943 -0.3972  0.1799
  882SOL    HW1 2645   1.552   1.077   1.410  0.4189 -1.6660  0.6532
  882SOL    HW2 2646   1.615   0.935   1.369  2.2059  0.6356 -1.2550
  883SOL     OW 2647   1.306   0.128   2.168  0.7754  0.2935 -0.5051
  883SOL    HW1 2648   1.336   0.088   2.082 -1.7589 -0.8110  0.5659
  883SOL    HW2 2649   1.353   0.215   2.181 -3.0359 -0.7090  0.6580
  884SOL     OW 2650   2.583   0.504   0.176 -0.4321 -0.1000 -0.6671
  884SOL    HW1 2651   2.548   0.490   0.273 -2.0083 -0.9117 -0.1881
  884SOL    HW2 2652   2.541   0.585   0.131  1.0457  0.6696  0.2710
  885SOL     OW 2653   1.160   1.300   2.783  0.1051 -0.7740 -0.0423
  885SOL    HW1 2654   1.252   1.316   2.820 -1.0676 -0.4959 -0.7988
  885SOL    HW2 2655   1.086   1.339   2.844 -1.8892 -0.4640 -1.0006
  886SOL     OW 2656   1.403   1.405   2.641 -0.8410  0.6898 -0.4398
  886SOL    HW1 2657   1.329   1.381   2.575  0.2337  0.4323 -0.6312
  886SOL    HW2 2658   1.470   1.332   2.651 -0.4640  1.2869 -2.1707
  887SOL     OW 2659   1.268   0.419   1.567  0.4226 -0.9979  0.0124
  887SOL    HW1 2660   1.211   0.336   1.563  2.5592  1.3780 -0.1019
  887SOL    HW2 2661   1.266   0.455   1.664 -1.1005 -0.4190 -0.5349
  888SOL     OW 2662   2.404   0.711   1.993 -0.5915 -0.0728 -0.4645
  888SOL    HW1 2663   2.379   0.615   1.990 -0.5540  1.1050  1.1077
  888SOL    HW2 2664   2.481   0.732   1.927  0.3052 -1.9484  0.5604
  889SOL     OW 2665   0.216   2.711   0.747  0.2057 -0.4202  0.0456
  889SOL    HW1 2666   0.193   2.630   0.804  0.8845 -2.0818  0.7982
  889SOL    HW2 2667   0.315   2.723   0.752  1.0815  0.9480  2.5620
  890SOL     OW 2668   2.965   2.222   0.099 -0.3183  1.1635 -0.4765
  890SOL    HW1 2669   2.913   2.258   0.173  3.8157  0.6411 -1.6400
  890SOL    HW2 2670   3.063   2.209   0.132 -0.2526  2.5248 -2.5395
  891SOL     OW 2671   1.043   1.645   2.967 -0.2223 -0.6821  0.3458
  891SOL    HW1 2672   1.042   1.620   2.868  1.1854  1.6229  0.2926
  891SOL    HW2 2673   1.075   1.572   3.025  1.5840  2.7197 -0.7573
  892SOL     OW 2674   2.885   3.085   0.828 -0.0657 -0.5500 -0.0065
  892SOL    HW1 2675   2.815   0.046   0.880 -0.3223  1.5547 -1.4343
  892SOL    HW2 2676   2.922   3.008   0.880  0.4998  2.1892  3.3562
  893SOL     OW 2677   1.011   2.905   1.245 -0.5914  0.6877  0.2224
  893SOL    HW1 2678   1.016   2.944   1.341  3.0816 -2.6534 -0.6067
  893SOL    HW2 2679   0.941   2.948   1.185 -0.1101  2.6819  1.0146
  894SOL     OW 2680   2.617   0.787   0.567 -0.1474  0.0134  0.5160
  894SOL    HW1 2681   2.548   0.816   0.638 -4.0114  0.1359 -1.3279
  894SOL    HW2 2682   2.573   0.801   0.473 -2.8127 -0.5286 -0.4824
  895SOL     OW 2683   2.470   2.560   2.153 -0.0186  0.5313 -0.2588
  895SOL    HW1 2684   2.371   2.545   2.176 -1.9285  1.1580  0.3718
  895SOL    HW2 2685   2.523   2.553   2.240  1.9222 -1.9940  0.1542
  896SOL     OW 2686   1.069   0.241   1.676  0.4280 -0.5293  0.3788
  896SOL    HW1 2687   1.132   0.160   1.669 -0.0985 -0.9669 -2.9023
  896SOL    HW2 2688   1.056   0.273   1.772  1.8395 -0.6496 -0.6302
  897SOL     OW 2689   0.838   1.589   1.910 -0.5918  0.4956  0.1543
  897SOL    HW1 2690   0.799   1.551   1.822 -3.1814  0.3465 -1.4043
  897SOL    HW2 2691   0.885   1.517   1.962 -2.4307 -2.4431  0.3792
  898SOL     OW 2692   2.107   2.780   1.832  0.3543  0.7620 -0.0990
  898SOL    HW1 2693   2.179   2.748   1.770 -1.9230  1.3768 -0.3761
  898SOL    HW2 2694   2.148   2.792   1.926 -1.2803 -0.7953  1.6829
  899SOL     OW 2695   0.960   0.735   1.169 -0.0115  0.0366 -0.4549
  899SOL    HW1 2696   0.948   0.730   1.270  0.0616  0.4320  0.2543
  899SOL    HW2 2697   0.872   0.750   1.120 -1.2318  0.3015 -0.1815
  900SOL     OW 2698   1.923   2.275   2.814 -0.1415 -0.0301  0.2923
  900SOL    HW1 2699   1.941   2.193   2.876  0.9279 -0.0239  0.3295
  900SOL    HW2 2700   1.973   2.255   2.730  0.0427  1.5868  1.4195
  901SOL     OW 2701   0.907   2.191   2.514 -0.2227  0.0214  0.3626
  901SOL    HW1 2702   0.940   2.191   2.608 -3.3238  0.0758 -0.5524
  901SOL    HW2 2703   0.888   2.283   2.473 -1.2136  0.0288 -0.7784
  902SOL     OW 2704   2.109   1.309   0.202  0.2238  0.9090 -0.1394
  902SOL    HW1 2705   2.187   1.368   0.171  1.1919  1.7179  0.8745
  902SOL    HW2 2706   2.120   1.208   0.178 -0.9008  1.4428 -0.9622
  903SOL     OW 2707   1.899   0.726   0.479 -0.4779  0.2164 -0.3700
  903SOL    HW1 2708   1.810   0.734   0.529  0.7513  1.9954 -1.7043
  903SOL    HW2 2709   1.892   0.783   0.395 -1.2094 -1.3710 -0.2928
  904SOL     OW 2710   0.981   0.925   2.605 -0.3772  0.1821  0.0638
  904SOL    HW1 2711   0.903   0.860   2.614 -0.4753  1.1760 -2.3858
  904SOL    HW2 2712   1.061   0.893   2.541  1.4155  0.5164 -1.6645
  905SOL     OW 2713   2.156   0.318   0.751  0.2462  0.1982 -0.4129
  905SOL    HW1 2714   2.071   0.354   0.709  0.4738  0.1407 -0.3146
  905SOL    HW2 2715   2.216   0.398   0.765 -1.0514 -0.6425  0.2738
  906SOL     OW 2716   2.619   2.571   1.493 -0.5205  0.1878  0.4085
  906SOL    HW1 2717   2.638   2.485   1.548 -0.3861  0.6969  1.0462
  906SOL    HW2 2718   2.659   2.649   1.541 -1.4630 -1.2954 -0.3174
  907SOL     OW 2719   1.131   0.583   0.382 -0.0159 -0.0884 -0.5903
  907SOL    HW1 2720   1.138   0.641   0.296  3.8447  1.7587 -0.3303
  907SOL    HW2 2721   1.134   0.482   0.374 -1.5420  0.7653  0.4671
  908SOL     OW 2722   1.937   0.020   1.358  0.3348  0.1534  0.6418
  908SOL    HW1 2723   2.035   0.006   1.356 -0.8262 -1.3534  2.5816
  908SOL    HW2 2724   1.902   3.032   1.299  0.7123  1.4213 -0.8108
  909SOL     OW 2725   2.555   0.969   1.303  0.0404 -0.1671  0.3214
  909SOL    HW1 2726   2.589   0.885   1.354 -2.6658  0.3427 -0.2374
  909SOL    HW2 2727   2.478   1.013   1.354  0.4721 -0.0759 -0.0732
  910SOL     OW 2728   1.470   2.740   2.249  0.4012 -0.0051 -0.3453
  910SOL    HW1 2729   1.570   2.755   2.265  0.6919 -0.8963  1.6880
  910SOL    HW2 2730   1.437   2.799   2.170 -1.0135 -1.0149 -2.7731
  911SOL     OW 2731   2.415   0.497   2.378 -0.2114 -0.4337  0.5458
  911SOL    HW1 2732   2.463   0.589   2.374 -1.5335  1.2200 -1.3369
  911SOL    HW2 2733   2.317   0.503   2.402  0.7951 -0.6772  0.9763
  912SOL     OW 2734   2.920   1.331   1.436  0.5525 -0.9689 -0.2587
  912SOL    HW1 2735   2.893   1.427   1.410 -0.9868 -1.3372 -0.2059
  912SOL    HW2 2736   3.003   1.327   1.501 -0.3216  0.7437  2.1697
  913SOL     OW 2737   2.660   2.241   1.331 -0.1378  0.0830 -0.3481
  913SOL    HW1 2738   2.643   2.276   1.238 -3.0796  0.0594  0.7615
  913SOL    HW2 2739   2.661   2.141   1.337  0.1813  0.5817 -0.0275
  914SOL     OW 2740   1.831   1.239   1.499  0.1976  0.5814  0.5588
  914SOL    HW1 2741   1.840   1.162   1.433  0.2041 -0.5316 -2.2889
  914SOL    HW2 2742   1.763   1.220   1.569  1.0639  3.3823  0.8872
  915SOL     OW 2743   1.403   0.845   1.286 -0.1903 -0.0920 -0.1244
  915SOL    HW1 2744   1.365   0.766   1.334  2.1681 -1.3135 -2.2483
  915SOL    HW2 2745   1.329   0.918   1.291  0.0982  2.5493  0.4324
  916SOL     OW 2746   2.729   2.780   1.619 -0.3381  0.3154  0.0656
  916SOL    HW1 2747   2.803   2.733   1.672  0.1530  3.0782 -0.4060
  916SOL    HW2 2748   2.695   2.860   1.670 -0.1319 -0.2630  1.9213
  917SOL     OW 2749   2.477   1.973   0.246  0.0885  0.1191  1.0457
  917SOL    HW1 2750   2.376   1.947   0.215 -0.9902 -3.4021 -0.9038
  917SOL    HW2 2751   2.496   2.070   0.212 -0.1188 -0.0606 -1.8724
  918SOL     OW 2752   1.824   2.643   2.507 -0.1296 -0.0721 -0.5409
  918SOL    HW1 2753   1.756   2.683   2.446  1.3911 -1.3916  1.6067
  918SOL    HW2 2754   1.772   2.584   2.571 -0.3341  0.0551 -0.7035
  919SOL     OW 2755   1.471   2.225   1.419 -0.4737 -0.0688 -0.7676
  919SOL    HW1 2756   1.480   2.165   1.508  0.3836 -2.8520  4.7742
  919SOL    HW2 2757   1.413   2.179   1.346  0.6948  2.6481  1.2841
  920SOL     OW 2758   2.832   0.190   2.450  0.6014 -0.3720  0.1128
  920SOL    HW1 2759   2.891   0.114   2.417  0.7264  0.3884  0.5900
  920SOL    HW2 2760   2.856   0.212   2.549 -1.9599  1.5917  1.6195
  921SOL     OW 2761   3.013   0.812   1.954 -0.2166 -0.2434  0.1712
  921SOL    HW1 2762   3.026   0.715   1.924  0.0138  1.1178 -0.5288
  921SOL    HW2 2763   2.989   0.817   2.051  1.1901  1.1404 -1.8206
  922SOL     OW 2764   2.193   2.022   0.583 -0.0360  0.7230  0.4490
  922SOL    HW1 2765   2.217   1.930   0.554  1.4753  4.0977  2.4021
  922SOL    HW2 2766   2.264   2.090   0.553  0.1018  2.9493 -0.1018
  923SOL     OW 2767   0.641   2.112   2.911  0.1380  0.1029 -0.3613
  923SOL    HW1 2768   0.587   2.053   2.847  0.9170  0.8422 -0.7572
  923SOL    HW2 2769   0.659   2.211   2.884 -0.1790 -2.0126  1.1719
  924SOL     OW 2770   1.070   0.278   0.491  0.0228 -0.1957 -0.4464
  924SOL    HW1 2771   0.991   0.303   0.427  3.0968  2.5129 -1.6361
  924SOL    HW2 2772   1.157   0.290   0.440  0.4340  0.4109 -1.1827
  925SOL     OW 2773   2.460   0.937   0.751  0.5325 -0.1330  0.3287
  925SOL    HW1 2774   2.427   0.918   0.847 -1.5084  0.9048 -0.0327
  925SOL    HW2 2775   2.457   1.037   0.728 -2.1260  2.9649 -1.0971
  926SOL     OW 2776   3.052   0.872   0.985 -0.2767 -0.4893  0.5017
  926SOL    HW1 2777   2.952   0.883   0.961  0.6497 -0.0381  1.9046
  926SOL    HW2 2778   0.000   0.778   0.965  2.7709  0.4767  0.0941
  927SOL     OW 2779   3.054   1.145   3.049  0.2447  0.6377  0.4372
  927SOL    HW1 2780   0.027   1.129   2.969  0.1867 -0.5758  0.7738
  927SOL    HW2 2781   0.011   1.216   0.018  0.1001  0.9105 -2.9238
  928SOL     OW 2782   2.776   0.546   2.374 -0.0307 -0.2938 -0.3829
  928SOL    HW1 2783   2.726   0.591   2.298  0.1405  0.5189 -3.1587
  928SOL    HW2 2784   2.846   0.485   2.329  0.2232 -3.7951  1.4148
  929SOL     OW 2785   2.975   2.891   1.372  0.4366  0.7220  0.3089
  929SOL    HW1 2786   2.876   2.909   1.396 -2.0587 -0.5693  2.1964
  929SOL    HW2 2787   2.983   2.822   1.292  0.0178 -1.7322 -0.3470
  930SOL     OW 2788   1.949   1.385   1.709 -0.1256 -0.0259 -0.5133
  930SOL    HW1 2789   1.898   1.346   1.633 -1.0969  2.3759  2.7249
  930SOL    HW2 2790   1.884   1.436   1.769 -0.4111  1.5244  0.8892
  931SOL     OW 2791   1.579   1.330   0.713  0.0518 -0.1205 -0.0713
  931SOL    HW1 2792   1.670   1.376   0.708 -2.2911 -1.1777 -3.5933
  931SOL    HW2 2793   1.510   1.396   0.679  2.6044  1.2171  2.4987
  932SOL     OW 2794   2.673   1.318   1.025  0.1158  0.1490 -0.2104
  932SOL    HW1 2795   2.670   1.219   1.051  0.2678  3.1940  1.6327
  932SOL    HW2 2796   2.750   1.332   0.960 -0.5207  1.9800  1.0105
  933SOL     OW 2797   2.351   1.781   1.323  0.2158 -0.9936  0.0951
  933SOL    HW1 2798   2.301   1.725   1.252 -0.1200 -2.7897 -2.0567
  933SOL    HW2 2799   2.281   1.831   1.382  2.0554 -1.4960 -0.5150
  934SOL     OW 2800   1.668   0.105   1.828 -0.3345  0.2916 -0.0947
  934SOL    HW1 2801   1.605   0.184   1.841 -0.1350 -0.2736  1.3367
  934SOL    HW2 2802   1.725   0.116   1.743  3.3992 -0.7736  1.9213
  935SOL     OW 2803   0.358   1.598   0.908 -0.1102 -0.3369  0.1504
  935SOL    HW1 2804   0.306   1.552   0.833 -2.8456 -0.1763  1.5343
  935SOL    HW2 2805   0.298   1.668   0.953  0.7184  0.4479  0.4395
  936SOL     OW 2806   0.407   0.821   0.596  0.4831 -0.2930  0.1391
  936SOL    HW1 2807   0.302   0.833   0.614 -1.0194  0.3608  0.8262
  936SOL    HW2 2808   0.448   0.891   0.531  0.7981  2.5613  1.9790
  937SOL     OW 2809   2.168   3.017   0.938  0.1736 -0.0285  0.0764
  937SOL    HW1 2810   2.154   2.943   1.009  0.2832  0.7717  0.4802
  937SOL    HW2 2811   2.183   2.982   0.841  0.5591 -0.5436 -2.3669
  938SOL     OW 2812   2.773   2.210   0.551 -0.0197 -0.4101  0.4287
  938SOL    HW1 2813   2.805   2.121   0.508  0.0195 -1.8964  0.7563
  938SOL    HW2 2814   2.683   2.204   0.600 -1.0002 -0.1340  0.4680
  939SOL     OW 2815   0.794   2.018   0.498  0.5451 -0.0624  0.0847
  939SOL    HW1 2816   0.795   1.914   0.494  0.2583 -1.9404  0.1329
  939SOL    HW2 2817   0.859   2.050   0.571  0.7020  1.5657 -0.7921
  940SOL     OW 2818   2.757   2.993   2.909 -0.4483  0.2170 -0.1086
  940SOL    HW1 2819   2.819   2.967   2.984 -2.3166 -0.3674 -1.4831
  940SOL    HW2 2820   2.689   2.918   2.895  1.5473  0.6498  3.2650
  941SOL     OW 2821   1.112   0.161   3.027 -0.1268 -0.3067 -0.2061
  941SOL    HW1 2822   1.015   0.134   3.051  0.0108  0.5862 -0.0183
  941SOL    HW2 2823   1.139   0.259   3.055  0.7488  2.4726  0.4989
  942SOL     OW 2824   1.192   1.008   1.246 -0.5799  0.3032  0.3811
  942SOL    HW1 2825   1.243   1.097   1.253  0.1769  3.5727 -0.6110
  942SOL    HW2 2826   1.166   0.985   1.149 -0.8312 -4.7989  1.2002
  943SOL     OW 2827   1.629   1.213   1.697  1.3231  0.4022  0.5396
  943SOL    HW1 2828   1.657   1.185   1.792 -1.4502  0.2345  3.0113
  943SOL    HW2 2829   1.553   1.150   1.668  0.1924 -0.1591 -0.2563
  944SOL     OW 2830   1.711   0.607   1.764  0.1810  0.1152  0.1364
  944SOL    HW1 2831   1.699   0.706   1.770  0.3418  3.3455 -3.3503
  944SOL    HW2 2832   1.727   0.568   1.855  1.7481 -0.4784 -1.4048
  945SOL     OW 2833   0.030   0.021   0.357 -0.7210  0.0544 -0.3715
  945SOL    HW1 2834   3.056   0.090   0.397 -3.2884  2.3066  0.8675
  945SOL    HW2 2835   0.020   0.012   0.255 -0.4199  2.3023  0.9640
  946SOL     OW 2836   3.018   0.465   1.667 -0.2795  0.1914 -0.5683
  946SOL    HW1 2837   3.036   0.378   1.622  0.5132 -0.8001 -1.1550
  946SOL    HW2 2838   2.922   0.487   1.644 -1.6269 -3.6794  2.0662
  947SOL     OW 2839   0.760   3.050   0.389  0.6321 -0.2182 -0.2059
  947SOL    HW1 2840   0.691   2.996   0.340  1.1714  0.4771  1.0402
  947SOL    HW2 2841   0.822   0.013   0.328 -1.8267 -0.7673  0.8454
  948SOL     OW 2842   2.525   1.108   1.776 -0.2240 -0.6868  0.3623
  948SOL    HW1 2843   2.453   1.166   1.817  0.2691  0.2016  1.0202
  948SOL    HW2 2844   2.613   1.164   1.787  0.6596  0.5767  0.6041
  949SOL     OW 2845   0.464   0.919   2.729 -0.2956  0.5272  0.7701
  949SOL    HW1 2846   0.480   0.907   2.627 -2.9647  1.5928 -0.7703
  949SOL    HW2 2847   0.368   0.900   2.756  2.4028  0.1906  1.4053
  950SOL     OW 2848   0.748   0.322   1.113  0.0217 -0.3513 -0.2100
  950SOL    HW1 2849   0.780   0.249   1.176 -0.2924  3.4090 -1.2268
  950SOL    HW2 2850   0.825   0.363   1.063  1.4986  1.0178  0.7988
  951SOL     OW 2851   0.963   1.820   2.198 -0.3377  0.2179  0.2770
  951SOL    HW1 2852   1.016   1.899   2.168 -2.6496 -3.6791  1.3277
  951SOL    HW2 2853   0.866   1.845   2.201 -0.9425  0.2676  0.1176
  952SOL     OW 2854   0.933   1.504   0.232  0.2028  0.7045 -0.2512
  952SOL    HW1 2855   0.980   1.426   0.190 -1.3550  1.1213  1.8553
  952SOL    HW2 2856   0.892   1.559   0.159  0.3960  0.4940 -2.5496
  953SOL     OW 2857   2.034   3.069   2.424 -0.2411  0.1925  0.0004
  953SOL    HW1 2858   2.009   3.041   2.326  1.7444 -2.1276  0.0236
  953SOL    HW2 2859   2.108   0.052   2.425 -0.1486  2.3778  0.2799
  954SOL     OW 2860   1.686   1.065   0.661  0.8354  0.4927 -0.1913
  954SOL    HW1 2861   1.759   1.070   0.592  0.5795 -2.8145  0.5112
  954SOL    HW2 2862   1.629   1.148   0.662  0.1193 -1.1789 -3.1817
  955SOL     OW 2863   0.284   2.215   2.273 -0.1636 -0.0984  0.6506
  955SOL    HW1 2864   0.382   2.226   2.255 -1.3117 -0.8185  3.2415
  955SOL    HW2 2865   0.232   2.303   2.281 -0.2706  0.9142  1.5051
  956SOL     OW 2866   1.572   0.511   1.566  0.1186 -0.0802  0.0562
  956SOL    HW1 2867   1.470   0.498   1.577 -1.5244 -0.9236 -1.2912
  956SOL    HW2 2868   1.623   0.558   1.642  0.9708 -1.1987  0.4119
  957SOL     OW 2869   1.837   2.021   2.986  0.2388 -0.0320 -0.5060
  957SOL    HW1 2870   1.771   1.945   3.007 -0.3188  1.3815  1.8566
  957SOL    HW2 2871   1.871   2.064   3.068 -1.0786  2.0987  0.9404
  958SOL     OW 2872   1.079   2.351   1.662 -0.2414  0.5080  0.1325
  958SOL    HW1 2873   1.074   2.421   1.735 -1.5416 -2.5773 -1.3776
  958SOL    HW2 2874   1.005   2.279   1.674  1.0273 -0.9534 -0.1320
  959SOL     OW 2875   2.230   2.254   2.924 -0.2926 -0.2599  0.2486
  959SOL    HW1 2876   2.297   2.322   2.894 -1.0871 -1.7393 -0.1449
  959SOL    HW2 2877   2.238   2.246   3.028  3.8271  1.8085  0.5358
  960SOL     OW 2878   2.899   0.238   2.691  0.1589 -0.2504 -0.0985
  960SOL    HW1 2879   2.879   0.217   2.790 -1.6060  0.5224  3.2328
  960SOL    HW2 2880   2.924   0.340   2.692  2.0732  4.1972 -1.3979
  961SOL     OW 2881   0.765   0.707   2.546  0.0897 -0.1806  0.1940
  961SOL    HW1 2882   0.669   0.721   2.518  0.1849 -0.9588  1.2523
  961SOL    HW2 2883   0.832   0.706   2.468  2.3587 -2.6886  2.1610
  962SOL     OW 2884   0.925   1.361   2.521 -0.4093  0.0226 -0.3472
  962SOL    HW1 2885   0.893   1.345   2.619 -1.0919 -1.5073  3.3161
  962SOL    HW2 2886   0.893   1.284   2.457 -1.5634 -1.1394 -0.2209
  963SOL     OW 2887   2.517   2.243   0.211 -0.1218  0.0320 -0.3664
  963SOL    HW1 2888   2.593   2.265   0.148 -1.8975 -1.6357 -1.8105
  963SOL    HW2 2889   2.504   2.315   0.283 -2.7784  0.8302  2.9606
  964SOL     OW 2890   1.269   2.481   1.167  0.0001 -0.3740  0.2065
  964SOL    HW1 2891   1.260   2.450   1.264 -1.1037 -1.1578 -0.8040
  964SOL    HW2 2892   1.204   2.559   1.150  1.6784  1.8401 -0.3216
  965SOL     OW 2893   1.293   1.440   0.817  0.4181 -0.3928  0.4418
  965SOL    HW1 2894   1.306   1.448   0.715  0.6023  0.0758  3.7959
  965SOL    HW2 2895   1.263   1.534   0.853 -2.2094  3.0303 -0.2428
  966SOL     OW 2896   0.320   1.528   0.283  0.0331 -0.2713  0.3763
  966SOL    HW1 2897   0.309   1.627   0.308  1.6031 -0.1437  0.2394
  966SOL    HW2 2898   0.257   1.507   0.207  2.1340  1.4259  1.4718
  967SOL     OW 2899   1.955   0.353   1.875 -0.0791  0.3336  0.1596
  967SOL    HW1 2900   1.991   0.277   1.814  1.4991 -0.9348  1.1460
  967SOL    HW2 2901   2.000   0.443   1.860 -0.5714  0.4748  1.8439
  968SOL     OW 2902   1.877   1.118   0.469 -0.0674 -0.1821  0.0326
  968SOL    HW1 2903   1.931   1.205   0.469  0.9789 -0.7300 -2.6914
  968SOL    HW2 2904   1.889   1.056   0.393 -1.1656  0.0049 -0.2323
  969SOL     OW 2905   0.492   1.193   2.482  0.2880 -0.0766 -0.3696
  969SOL    HW1 2906   0.398   1.188   2.447  1.3996 -2.8492  1.6213
  969SOL    HW2 2907   0.548   1.279   2.454  2.1141  3.1759  2.1305
  970SOL     OW 2908   2.142   1.414   1.109 -0.2310  0.0255  0.1692
  970SOL    HW1 2909   2.150   1.405   1.010 -1.0037 -1.6916  3.4006
  970SOL    HW2 2910   2.141   1.509   1.140  1.1279 -0.9106  0.6214
  971SOL     OW 2911   0.256   0.019   1.293 -0.1467 -0.1333  0.7842
  971SOL    HW1 2912   0.329   0.080   1.257 -2.0396  1.6130 -1.3573
  971SOL    HW2 2913   0.217   3.045   1.221 -0.9808  4.1190  0.2594
  972SOL     OW 2914   0.216   0.832   2.795 -0.2679  0.0105  0.3714
  972SOL    HW1 2915   0.199   0.747   2.739  2.7682 -1.2952  0.2869
  972SOL    HW2 2916   0.201   0.806   2.893  1.6656 -0.2414 -0.1417
  973SOL     OW 2917   0.078   0.638   0.996  0.0690  0.4008  0.0402
  973SOL    HW1 2918   0.138   0.640   0.913  0.9574 -1.9401 -0.7992
  973SOL    HW2 2919   0.070   0.540   1.031  1.0344 -1.3010  1.7858
  974SOL     OW 2920   2.068   0.606   1.864 -0.5714  0.4748 -0.3759
  974SOL    HW1 2921   2.043   0.691   1.914  0.0037 -2.0939 -1.4849
  974SOL    HW2 2922   2.169   0.595   1.875  0.7170  2.3069 -2.7875
  975SOL     OW 2923   2.719   0.028   0.140 -0.1056  0.0307 -0.2070
  975SOL    HW1 2924   2.695   0.045   0.237  0.1941 -1.8372  0.7089
  975SOL    HW2 2925   2.753   0.110   0.091  0.7690  1.5381  0.6295
  976SOL     OW 2926   0.342   1.452   1.613  0.2001  0.4433 -0.0262
  976SOL    HW1 2927   0.419   1.509   1.583  1.9119  0.7185  0.1929
  976SOL    HW2 2928   0.326   1.478   1.709 -0.3661  1.1115  1.4259
  977SOL     OW 2929   1.047   2.539   3.063  0.0453 -0.5340  0.1015
  977SOL    HW1 2930   1.138   2.581   3.085  0.4626  0.1856  2.2349
  977SOL    HW2 2931   1.024   2.466   0.037 -3.5664  2.3612 -2.9719
  978SOL     OW 2932   0.491   1.215   0.115  0.6325 -0.0559  0.3909
  978SOL    HW1 2933   0.407   1.155   0.115  2.3023  0.8007 -3.1345
  978SOL    HW2 2934   0.536   1.210   0.205 -2.1044  0.8766  0.6813
  979SOL     OW 2935   1.657   1.823   1.411  0.2236 -0.0501  0.2690
  979SOL    HW1 2936   1.555   1.831   1.403  0.7354 -1.3602 -1.2879
  979SOL    HW2 2937   1.687   1.736   1.365  1.7874 -0.6734 -2.8267
  980SOL     OW 2938   0.339   1.522   1.885  0.5653 -0.4645  0.1211
  980SOL    HW1 2939   0.382   1.614   1.900  0.2114  0.0388 -0.8934
  980SOL    HW2 2940   0.294   1.484   1.967  0.1910  0.2749 -1.5438
  981SOL     OW 2941   0.044   1.387   0.383  0.2585  0.4880 -0.8907
  981SOL    HW1 2942   0.012   1.485   0.391 -2.3523  0.7548  1.7487
  981SOL    HW2 2943   3.071   1.329   0.442  1.4358 -0.2869 -1.0009
  982SOL     OW 2944   2.321   3.006   2.157  0.2894  0.4737  0.3370
  982SOL    HW1 2945   2.245   3.046   2.102  2.2026  0.9190  1.8498
  982SOL    HW2 2946   2.366   3.074   2.221  0.4204  0.0716  1.3053
  983SOL     OW 2947   1.197   0.485   1.166 -0.0636  0.0515 -0.1457
  983SOL    HW1 2948   1.287   0.447   1.133  2.5749  0.0092 -1.2879
  983SOL    HW2 2949   1.152   0.528   1.088 -1.5637  3.5699 -0.0324
  984SOL     OW 2950   1.257   2.906   2.835  0.0138  0.3580 -0.5472
  984SOL    HW1 2951   1.276   2.890   2.932  0.0176  0.6928 -0.5705
  984SOL    HW2 2952   1.302   2.993   2.804  2.8881 -0.0414  1.0032
  985SOL     OW 2953   1.906   2.304   1.496 -0.3949 -0.8075  0.1332
  985SOL    HW1 2954   1.964   2.237   1.543 -0.0357  0.7759 -1.9588
  985SOL    HW2 2955   1.845   2.261   1.427  0.1779 -0.6187  1.9673
  986SOL     OW 2956   2.740   2.996   2.578 -0.3235  0.5387  0.7177
  986SOL    HW1 2957   2.822   3.016   2.517 -1.0073 -0.8133 -1.8457
  986SOL    HW2 2958   2.685   3.077   2.598 -0.5055 -0.5931 -1.7498
  987SOL     OW 2959   2.815   0.910   2.194 -0.3350  0.1614 -0.5416
  987SOL    HW1 2960   2.792   0.808   2.170  0.8624 -0.2282 -0.7894
  987SOL    HW2 2961   2.775   0.977   2.132  0.5058  0.0432  1.4932
  988SOL     OW 2962   2.339   0.816   2.681  0.2445  0.3016  0.3592
  988SOL    HW1 2963   2.262   0.758   2.716  0.5418  0.4386 -1.1026
  988SOL    HW2 2964   2.322   0.845   2.586  0.0021 -1.5417 -1.3901
  989SOL     OW 2965   1.987   1.517   2.112 -0.4458 -0.3150  0.1460
  989SOL    HW1 2966   2.082   1.503   2.145  0.8854  0.1745  1.5120
  989SOL    HW2 2967   1.959   1.443   2.044 -0.6132  0.5310 -0.5161
  990SOL     OW 2968   0.348   0.972   0.066  0.1498 -0.9104  0.3913
  990SOL    HW1 2969   0.428   0.956   0.005 -3.6736 -2.9451  2.0270
  990SOL    HW2 2970   0.266   0.922   0.027  2.1969  1.0615 -0.5554
  991SOL     OW 2971   0.466   1.959   2.754  0.5386  0.2846  0.3198
  991SOL    HW1 2972   0.454   1.859   2.764  0.7883 -1.0341  0.1465
  991SOL    HW2 2973   0.374   2.003   2.742  0.2584 -1.7034 -0.2612
  992SOL     OW 2974   2.463   2.124   1.845  0.3041  0.1271  0.5935
  992SOL    HW1 2975   2.518   2.149   1.763 -0.5195 -1.2869 -0.2351
  992SOL    HW2 2976   2.469   2.192   1.921  2.3831  0.8899 -0.5134
  993SOL     OW 2977   0.281   0.026   0.473 -0.3374 -0.3687  0.0147
  993SOL    HW1 2978   0.319   3.050   0.545  0.5406  0.4771  0.4824
  993SOL    HW2 2979   0.183   0.019   0.464  2.0997 -1.5329  0.8351
  994SOL     OW 2980   0.344   1.855   1.662 -0.1651  0.7341 -0.6541
  994SOL    HW1 2981   0.295   1.847   1.574  2.0067  0.0587  0.9265
  994SOL    HW2 2982   0.418   1.919   1.660  0.9963 -4.0517  1.1302
  995SOL     OW 2983   2.079   1.796   2.836  0.0775  0.2157  0.0470
  995SOL    HW1 2984   2.009   1.752   2.780  0.5665  0.5242  1.5862
  995SOL    HW2 2985   2.089   1.892   2.810 -0.0390 -1.2169  0.0010
  996SOL     OW 2986   1.897   1.432   2.731 -0.6911 -0.3470  0.3670
  996SOL    HW1 2987   1.841   1.411   2.644  0.4608 -1.6575 -1.5739
  996SOL    HW2 2988   1.929   1.529   2.724  0.0086  1.3644  0.5203
  997SOL     OW 2989   1.460   0.962   1.723  0.2439 -0.2286 -0.4378
  997SOL    HW1 2990   1.392   1.015   1.784  0.2310  0.2370  1.1864
  997SOL    HW2 2991   1.448   0.992   1.628  0.4460 -0.3611  0.5597
  998SOL     OW 2992   2.543   2.106   0.934 -0.2359 -0.1654 -0.1080
  998SOL    HW1 2993   2.494   2.188   0.974 -4.3167  0.3622  0.9055
  998SOL    HW2 2994   2.545   2.034   1.012  1.0856 -0.1165  1.2992
  999SOL     OW 2995   2.337   2.268   0.524 -0.3050 -0.0203 -0.5731
  999SOL    HW1 2996   2.243   2.312   0.525  0.0975 -0.4411 -0.8666
  999SOL    HW2 2997   2.406   2.333   0.484  0.9983  2.6861  1.9468
 1000SOL     OW 2998   0.918   2.918   3.024 -0.3943  0.0190 -0.1628
 1000SOL    HW1 2999   0.913   2.899   0.038 -1.0586  3.5400  0.0530
 1000SOL    HW2 3000   0.829   2.926   2.972 -2.0198  1.1120  2.0522
   3.08884   3.08884   3.08884
