1000 SPC/Fw water molecules t= 330.00000 step= 330000
 3000
    1SOL     OW    1   2.466   0.211   1.239 -0.1915  0.1063  0.1699
    1SOL    HW1    2   2.440   0.112   1.237  0.6677  3.1487 -1.7976
    1SOL    HW2    3   2.518   0.231   1.324  0.2085 -0.1219  1.3593
    2SOL     OW    4   2.789   2.460   0.799  0.2747  0.3255 -0.3026
    2SOL    HW1    5   2.718   2.389   0.812  0.6145  0.2482  0.0919
    2SOL    HW2    6   2.869   2.432   0.860  0.4071 -2.3275  4.1115
    3SOL     OW    7   1.093   0.067   3.061 -0.0073 -0.4588 -0.2448
    3SOL    HW1    8   1.125   0.027   0.013  0.5539 -0.0511 -0.7344
    3SOL    HW2    9   0.992   0.065   3.067 -0.1498  0.0595 -0.5761
    4SOL     OW   10   1.851   2.598   2.118  0.5137 -0.2880  0.2245
    4SOL    HW1   11   1.939   2.645   2.088 -1.8011 -0.2007 -0.6883
    4SOL    HW2   12   1.840   2.511   2.066 -0.0084 -1.0773 -0.0166
    5SOL     OW   13   1.521   1.046   1.805  0.0683 -0.0884  0.4072
    5SOL    HW1   14   1.523   1.129   1.753 -4.0595 -0.4487  5.0448
    5SOL    HW2   15   1.519   0.963   1.748  1.5192  0.6610  0.7147
    6SOL     OW   16   1.940   2.643   0.781  0.2602 -0.1249 -0.0511
    6SOL    HW1   17   1.888   2.569   0.736  0.6072 -0.8578  0.8923
    6SOL    HW2   18   1.962   2.626   0.881  0.8076 -1.4897  1.7270
    7SOL     OW   19   2.386   1.330   1.114  0.1691  0.5900 -0.2738
    7SOL    HW1   20   2.485   1.313   1.116 -1.4065  1.3415  1.4365
    7SOL    HW2   21   2.349   1.303   1.211 -1.4043  0.5494  3.2845
    8SOL     OW   22   0.590   1.725   1.547  0.4831 -0.9006 -0.3915
    8SOL    HW1   23   0.564   1.675   1.465 -0.5644  2.0486  1.7248
    8SOL    HW2   24   0.555   1.818   1.538  0.3354 -2.3161 -0.2761
    9SOL     OW   25   1.226   2.629   2.263 -0.5464  0.3649  0.7712
    9SOL    HW1   26   1.183   2.572   2.336  0.4314  2.4229 -2.2153
    9SOL    HW2   27   1.163   2.701   2.244 -0.5327 -2.2432  0.6173
   10SOL     OW   28   0.266   2.067   0.791 -0.2390  0.1672  0.0053
   10SOL    HW1   29   0.337   2.007   0.835  1.6916 -0.7853  2.3862
   10SOL    HW2   30   0.242   2.146   0.843 -0.3455 -1.6431 -2.0937
   11SOL     OW   31   1.766   1.929   0.987 -0.6483  0.0217 -0.5117
   11SOL    HW1   32   1.806   1.856   1.047 -0.7947 -0.5894  2.3278
   11SOL    HW2   33   1.663   1.922   0.988 -3.0844  0.1601 -1.3958
   12SOL     OW   34   2.335   2.972   2.055  0.1113  0.4202  0.1304
   12SOL    HW1   35   2.415   2.922   2.077 -0.3369  0.5881 -1.3989
   12SOL    HW2   36   2.344   3.027   1.968 -0.9654 -0.3944 -1.3764
   13SOL     OW   37   2.660   2.983   0.449 -0.5231 -0.6997  0.3417
   13SOL    HW1   38   2.605   3.035   0.517  1.0849 -0.2040 -2.8823
   13SOL    HW2   39   2.740   2.937   0.497  3.2058  1.6299 -1.5299
   14SOL     OW   40   1.527   1.942   2.957  0.5333  0.6123 -0.4050
   14SOL    HW1   41   1.558   1.970   3.056  0.3704  2.2843 -0.5858
   14SOL    HW2   42   1.602   1.886   2.915 -0.3462  1.1313 -0.3553
   15SOL     OW   43   2.900   2.727   1.486  0.7487  0.4150  0.1250
   15SOL    HW1   44   2.909   2.716   1.588 -0.3053 -2.7728 -0.7886
   15SOL    HW2   45   2.818   2.795   1.473 -0.9350  0.9621 -1.5876
   16SOL     OW   46   2.719   3.016   0.194  0.1765  0.1084  0.0035
   16SOL    HW1   47   2.685   2.996   0.290  0.7269 -2.0029  3.8016
   16SOL    HW2   48   2.805   3.069   0.196 -3.1426  3.3427  1.6283
   17SOL     OW   49   0.369   0.081   1.554  0.0369  0.3427  0.6284
   17SOL    HW1   50   0.441   0.135   1.509  2.2313 -1.2113 -0.5418
   17SOL    HW2   51   0.339   0.003   1.492  1.0040 -1.7810  0.8487
   18SOL     OW   52   2.183   0.837   0.467  0.1211 -0.3925 -0.0335
   18SOL    HW1   53   2.260   0.836   0.398 -0.2112  1.5362 -0.1098
   18SOL    HW2   54   2.224   0.861   0.557  0.7215 -1.9193  2.1202
   19SOL     OW   55   1.514   1.884   0.279  1.0345 -0.2727 -0.0263
   19SOL    HW1   56   1.578   1.885   0.362  2.2435  2.7410  0.3509
   19SOL    HW2   57   1.553   1.954   0.212 -0.0806  0.7200 -2.3032
   20SOL     OW   58   2.461   2.067   2.229 -0.0422 -0.2301  0.0642
   20SOL    HW1   59   2.441   1.974   2.263 -0.0714  0.4899  0.4765
   20SOL    HW2   60   2.453   2.126   2.309  2.8213 -2.6664 -2.3117
   21SOL     OW   61   1.861   0.087   0.586 -0.0950 -0.3582 -0.6433
   21SOL    HW1   62   1.851   0.068   0.681  1.5888 -0.9103 -2.7310
   21SOL    HW2   63   1.953   0.053   0.558  0.0908 -1.5848 -1.7973
   22SOL     OW   64   2.559   0.279   1.467 -0.5855 -0.2948 -0.0620
   22SOL    HW1   65   2.646   0.333   1.488  1.4480 -0.4731 -1.6319
   22SOL    HW2   66   2.491   0.284   1.543 -0.7307 -0.0025 -1.3795
   23SOL     OW   67   0.425   0.388   1.733 -0.3722  0.6531  0.1023
   23SOL    HW1   68   0.387   0.468   1.785 -0.2511 -2.0262  0.9522
   23SOL    HW2   69   0.404   0.393   1.633 -1.0041 -1.5751 -1.1583
   24SOL     OW   70   2.496   2.766   0.384 -0.5090  0.1564 -0.2018
   24SOL    HW1   71   2.546   2.696   0.443  0.0329 -1.1842 -1.9843
   24SOL    HW2   72   2.558   2.845   0.359  1.2425 -1.7741 -2.2855
   25SOL     OW   73   1.231   2.799   2.642  0.0153  0.0597 -0.7641
   25SOL    HW1   74   1.210   2.866   2.571 -0.5745 -0.5747 -1.3283
   25SOL    HW2   75   1.320   2.811   2.681 -2.1971 -1.1853 -1.6485
   26SOL     OW   76   1.333   2.275   0.296 -0.0902 -0.5087  0.7243
   26SOL    HW1   77   1.432   2.265   0.309  0.1180 -2.2332 -1.7495
   26SOL    HW2   78   1.322   2.308   0.202  0.2493 -0.1660  2.0516
   27SOL     OW   79   2.478   1.007   2.801 -0.4176 -0.3414  0.0052
   27SOL    HW1   80   2.429   1.096   2.822  1.9133 -0.0014 -1.6895
   27SOL    HW2   81   2.559   1.029   2.739  0.3793  1.3961 -0.0387
   28SOL     OW   82   0.982   1.469   1.110 -0.9537 -0.2398 -0.0750
   28SOL    HW1   83   1.030   1.442   1.198  0.9343 -0.5654  0.7283
   28SOL    HW2   84   0.879   1.477   1.119  0.9301 -0.6498 -1.1204
   29SOL     OW   85   2.928   2.661   1.764  0.0884  0.2346  0.1308
   29SOL    HW1   86   3.020   2.686   1.806 -0.6065  2.8857  0.5257
   29SOL    HW2   87   2.909   2.563   1.775  0.4140 -0.7293  1.3962
   30SOL     OW   88   1.423   0.045   1.317  0.0822 -0.0158 -0.4775
   30SOL    HW1   89   1.462   3.087   1.328  0.8460 -0.9010  0.6322
   30SOL    HW2   90   1.466   0.093   1.236  1.6804  0.5599 -1.2283
   31SOL     OW   91   1.947   3.010   2.210  0.5603 -0.4901 -0.0197
   31SOL    HW1   92   1.866   3.014   2.275 -0.6958 -1.5349  3.3273
   31SOL    HW2   93   1.927   3.062   2.125  3.3995  1.8100  1.8012
   32SOL     OW   94   0.936   1.698   0.350  0.1208  0.0554 -0.4462
   32SOL    HW1   95   0.984   1.609   0.339  1.1863  1.0355  0.1161
   32SOL    HW2   96   0.941   1.722   0.455  0.0531  1.5357 -0.1862
   33SOL     OW   97   0.330   0.944   2.566  0.5618 -0.6446  0.8463
   33SOL    HW1   98   0.332   0.864   2.630 -0.2592 -1.0187  0.7493
   33SOL    HW2   99   0.274   0.920   2.482 -1.3329  0.4070  0.2660
   34SOL     OW  100   2.446   3.095   0.588 -0.4064 -0.4363  0.1900
   34SOL    HW1  101   2.432   3.042   0.675  2.9215 -0.2545  0.7573
   34SOL    HW2  102   2.380   3.059   0.517  0.9152  2.8404 -0.1331
   35SOL     OW  103   2.105   2.720   1.661  0.4101  0.1209 -0.1520
   35SOL    HW1  104   2.073   2.796   1.719 -1.0917 -1.0730  1.4544
   35SOL    HW2  105   2.084   2.627   1.693  0.2445  0.9810  2.6770
   36SOL     OW  106   1.918   2.303   0.012  0.1024  0.3193  1.0224
   36SOL    HW1  107   1.868   2.314   3.057 -0.4277  0.8876 -0.6351
   36SOL    HW2  108   1.942   2.205   0.028 -0.3545  1.2838  0.6522
   37SOL     OW  109   1.523   0.373   2.336 -0.7244 -0.2902 -0.0798
   37SOL    HW1  110   1.574   0.454   2.371  1.4347  0.7269 -0.2820
   37SOL    HW2  111   1.458   0.339   2.403  1.5699 -2.3661 -0.7320
   38SOL     OW  112   0.314   0.473   2.882 -0.1801  0.1025  0.0447
   38SOL    HW1  113   0.362   0.540   2.827 -1.0677 -1.4556  1.2927
   38SOL    HW2  114   0.339   0.375   2.859 -0.1288 -3.8825 -0.8242
   39SOL     OW  115   2.243   1.294   1.784  0.8985 -0.0561 -0.5365
   39SOL    HW1  116   2.257   1.306   1.683 -0.7244 -1.2654 -1.0007
   39SOL    HW2  117   2.235   1.382   1.840  0.3281 -0.6626 -2.0938
   40SOL     OW  118   1.290   2.701   0.362  0.0295  0.2014  0.0188
   40SOL    HW1  119   1.251   2.626   0.423 -0.0491 -0.6457  1.3132
   40SOL    HW2  120   1.256   2.688   0.264 -1.0719 -1.7021  0.1090
   41SOL     OW  121   2.424   1.467   0.883  0.2983 -0.3459 -0.5131
   41SOL    HW1  122   2.410   1.417   0.970  0.8076 -0.1133 -1.2762
   41SOL    HW2  123   2.501   1.532   0.885  2.2406 -1.5599  0.2015
   42SOL     OW  124   0.794   0.299   1.435  0.0238  0.2904 -0.1813
   42SOL    HW1  125   0.795   0.381   1.492  1.6180 -3.1801 -2.3040
   42SOL    HW2  126   0.888   0.270   1.407 -1.3279  0.9678  3.1137
   43SOL     OW  127   0.207   1.446   2.428 -0.0768  1.2726  0.5877
   43SOL    HW1  128   0.174   1.459   2.524  1.1093  0.0573  1.8877
   43SOL    HW2  129   0.303   1.464   2.414 -0.3502  1.7619 -2.0813
   44SOL     OW  130   2.475   3.108   1.824 -0.0589  0.2636  0.6518
   44SOL    HW1  131   2.446   0.056   1.871  0.5294 -0.2255 -0.7081
   44SOL    HW2  132   2.419   3.097   1.737  0.9589  0.8943 -0.6774
   45SOL     OW  133   1.244   0.020   2.343 -0.0839  0.6006  0.7218
   45SOL    HW1  134   1.328   3.119   2.307 -0.3399  1.4483 -0.5302
   45SOL    HW2  135   1.187   3.078   2.389 -1.4628 -1.2717  1.3333
   46SOL     OW  136   0.983   2.703   2.704 -0.2479 -0.5767  0.2621
   46SOL    HW1  137   1.077   2.744   2.697 -1.3770  2.7604  0.2555
   46SOL    HW2  138   0.942   2.681   2.616 -0.2144 -3.5084  1.1228
   47SOL     OW  139   1.814   1.430   0.775  0.1039  0.5387 -0.4386
   47SOL    HW1  140   1.881   1.481   0.830  1.0531 -0.6975 -2.2312
   47SOL    HW2  141   1.848   1.408   0.681 -1.6718 -2.2131  1.6693
   48SOL     OW  142   1.159   2.175   0.707  0.7539 -0.4664  0.0529
   48SOL    HW1  143   1.120   2.207   0.617  0.6069  0.3970  0.0959
   48SOL    HW2  144   1.188   2.079   0.702 -0.0787  2.2945 -1.6089
   49SOL     OW  145   2.317   3.103   2.808  0.5101 -0.1470 -0.3847
   49SOL    HW1  146   2.235   3.055   2.778 -0.1077 -0.3158  1.2367
   49SOL    HW2  147   2.349   0.027   2.731 -2.0295 -0.5744 -2.3753
   50SOL     OW  148   1.790   3.002   0.168  0.2044 -0.4433  0.0407
   50SOL    HW1  149   1.809   3.062   0.090  1.4226 -0.0144 -0.9518
   50SOL    HW2  150   1.868   2.937   0.181 -2.0544 -0.0697  0.7327
   51SOL     OW  151   2.292   0.862   1.161 -0.2378  0.2958  0.2258
   51SOL    HW1  152   2.357   0.786   1.162 -3.8268  0.9243 -2.5495
   51SOL    HW2  153   2.336   0.929   1.226 -0.8956  2.9341 -1.0026
   52SOL     OW  154   0.972   1.600   0.814 -0.4065 -0.5231 -0.3142
   52SOL    HW1  155   1.062   1.587   0.861  0.7642 -3.1868  1.1261
   52SOL    HW2  156   0.893   1.624   0.874 -2.2387  0.1504 -0.9299
   53SOL     OW  157   0.432   1.755   2.635  0.2943  0.2553 -0.3798
   53SOL    HW1  158   0.479   1.846   2.632 -0.9245 -1.0264 -1.8287
   53SOL    HW2  159   0.430   1.722   2.733  1.6476 -0.2076  2.5095
   54SOL     OW  160   2.908   1.247   1.690 -0.4409  0.0442 -0.2605
   54SOL    HW1  161   2.900   1.169   1.751 -1.1674  1.2491 -1.1328
   54SOL    HW2  162   2.908   1.331   1.747  2.4039  0.3353 -0.3326
   55SOL     OW  163   2.408   1.866   0.638  0.3571 -0.2320  0.1064
   55SOL    HW1  164   2.349   1.795   0.595 -0.2676 -1.5224 -1.2752
   55SOL    HW2  165   2.353   1.947   0.668  0.2695  1.0788 -1.4483
   56SOL     OW  166   1.585   0.193   1.643  0.1652  0.9199  0.0249
   56SOL    HW1  167   1.538   0.269   1.593 -0.0073 -1.0197 -1.5173
   56SOL    HW2  168   1.548   0.179   1.734  2.8674  0.0892 -0.2101
   57SOL     OW  169   1.425   1.395   2.733 -0.1443  0.0835 -0.0939
   57SOL    HW1  170   1.463   1.444   2.651  0.4299  1.6944 -0.2185
   57SOL    HW2  171   1.377   1.314   2.692 -1.7359 -1.8466 -1.3341
   58SOL     OW  172   0.097   0.344   1.623  0.1092  0.0971  0.3092
   58SOL    HW1  173   0.195   0.329   1.600  0.0806  2.1651 -0.6476
   58SOL    HW2  174   0.083   0.426   1.688 -0.5293  1.7027 -0.9045
   59SOL     OW  175   1.567   2.721   0.453  0.2847  0.0597 -0.6497
   59SOL    HW1  176   1.594   2.816   0.460  1.6899 -2.4563  0.5413
   59SOL    HW2  177   1.469   2.705   0.417 -2.0046 -0.3555  0.2995
   60SOL     OW  178   2.952   1.953   2.944 -0.2064  0.1769 -0.2329
   60SOL    HW1  179   3.028   1.912   3.000 -0.8728 -1.8161 -0.0576
   60SOL    HW2  180   2.870   1.894   2.932 -2.0676 -1.3913 -0.9374
   61SOL     OW  181   0.938   2.635   0.822 -0.0644  0.2360  0.2573
   61SOL    HW1  182   0.947   2.671   0.919 -0.7542 -2.6565 -0.3293
   61SOL    HW2  183   0.947   2.535   0.825 -1.4719  2.1386  0.9580
   62SOL     OW  184   1.942   1.446   2.535 -0.5107  0.7183 -0.1418
   62SOL    HW1  185   2.042   1.450   2.541  0.4646 -0.6504 -1.2345
   62SOL    HW2  186   1.906   1.538   2.520  1.1965 -1.9635  2.0232
   63SOL     OW  187   2.191   2.073   0.398  0.2602 -0.3345  0.5828
   63SOL    HW1  188   2.154   2.168   0.391  0.7749 -1.6230  0.0318
   63SOL    HW2  189   2.210   2.044   0.495  0.7368 -0.3044 -1.3383
   64SOL     OW  190   1.758   1.218   3.036 -0.3558 -0.0395  0.2578
   64SOL    HW1  191   1.693   1.195   3.109  1.1666  0.7548 -3.2800
   64SOL    HW2  192   1.835   1.154   3.035 -0.2853 -0.1883  0.3961
   65SOL     OW  193   1.842   1.636   2.166 -0.3638 -0.1978 -0.2111
   65SOL    HW1  194   1.894   1.546   2.163 -0.3867 -0.0825  0.5344
   65SOL    HW2  195   1.877   1.704   2.098  1.9370 -1.9853  3.1560
   66SOL     OW  196   0.248   0.842   1.310  0.0817  0.6758  0.6476
   66SOL    HW1  197   0.335   0.841   1.257 -3.1094  0.7187  1.2791
   66SOL    HW2  198   0.226   0.932   1.357 -0.9511 -0.9728 -0.0063
   67SOL     OW  199   2.170   2.826   2.796 -0.5168  0.3929 -0.1212
   67SOL    HW1  200   2.139   2.898   2.735  0.1949 -2.2179  3.3210
   67SOL    HW2  201   2.248   2.775   2.748  0.6344 -2.3306 -0.6005
   68SOL     OW  202   1.311   2.264   1.239 -0.1433 -0.1017  0.0355
   68SOL    HW1  203   1.374   2.297   1.171 -5.4071  1.5461  1.6479
   68SOL    HW2  204   1.344   2.280   1.336 -1.9590 -1.0006  0.1230
   69SOL     OW  205   0.673   2.540   3.104 -0.1388 -0.3464  0.2569
   69SOL    HW1  206   0.768   2.511   3.121  0.5623 -2.3725  0.3023
   69SOL    HW2  207   0.608   2.491   0.028 -0.6560 -2.6810 -0.1137
   70SOL     OW  208   2.934   0.592   2.521 -0.3186  0.5502  0.0153
   70SOL    HW1  209   2.959   0.508   2.463  0.0668 -4.6889 -1.5792
   70SOL    HW2  210   3.019   0.648   2.531 -0.3355 -1.8443  0.8951
   71SOL     OW  211   0.417   1.631   2.888 -0.0241 -0.0182 -0.8888
   71SOL    HW1  212   0.476   1.555   2.855 -2.8784  0.6724 -1.0719
   71SOL    HW2  213   0.463   1.697   2.949 -0.5912 -2.4796 -1.2049
   72SOL     OW  214   0.325   1.865   2.375 -0.0172 -0.1082  0.8469
   72SOL    HW1  215   0.372   1.838   2.462 -0.2437  0.8133  0.9318
   72SOL    HW2  216   0.232   1.905   2.390  0.8001 -0.7626  0.6281
   73SOL     OW  217   1.525   1.621   0.222 -0.3415 -0.3777 -0.3383
   73SOL    HW1  218   1.531   1.587   0.319 -0.6095 -0.7131  0.5157
   73SOL    HW2  219   1.518   1.726   0.221 -1.6364  0.8141 -1.9134
   74SOL     OW  220   2.237   2.597   2.988  0.3847  0.4435  0.2567
   74SOL    HW1  221   2.215   2.697   2.970  0.6518  0.2390 -0.5112
   74SOL    HW2  222   2.240   2.578   3.091 -1.8572  1.0530 -0.3302
   75SOL     OW  223   2.106   1.954   0.897 -0.0371  0.4116  0.1700
   75SOL    HW1  224   2.056   2.025   0.953  0.6136 -2.2150  2.1191
   75SOL    HW2  225   2.201   1.935   0.936 -0.7733 -2.2038  1.4583
   76SOL     OW  226   2.348   2.170   2.012 -0.4309  0.4430  0.9595
   76SOL    HW1  227   2.403   2.129   2.085  0.3987  0.7479 -1.5461
   76SOL    HW2  228   2.281   2.237   2.053  1.4884 -0.6454 -1.0804
   77SOL     OW  229   2.861   0.116   2.386 -0.2831  0.9009 -0.2215
   77SOL    HW1  230   2.793   0.091   2.315  0.7442  1.2928  1.0857
   77SOL    HW2  231   2.823   0.106   2.482  0.3809  1.5537  0.3471
   78SOL     OW  232   2.002   1.080   2.961  0.1892 -0.0514  0.0669
   78SOL    HW1  233   2.040   1.045   3.049  2.4576  0.6388 -0.1459
   78SOL    HW2  234   2.067   1.143   2.915 -0.5504  2.0618 -2.5711
   79SOL     OW  235   2.803   1.554   2.461 -0.3123 -0.0587  0.2590
   79SOL    HW1  236   2.800   1.561   2.362  0.2367 -0.4340  0.9566
   79SOL    HW2  237   2.825   1.645   2.500 -2.2431  1.7643 -1.0180
   80SOL     OW  238   1.508   1.553   1.576 -0.2465 -0.0840 -0.4544
   80SOL    HW1  239   1.442   1.607   1.626  1.0467 -1.7152 -2.2742
   80SOL    HW2  240   1.591   1.599   1.547  1.3062 -1.5148 -1.2827
   81SOL     OW  241   1.780   0.728   1.879 -0.2411 -0.2111 -0.5364
   81SOL    HW1  242   1.831   0.685   1.957  1.8996  0.0395  0.4518
   81SOL    HW2  243   1.831   0.810   1.843  1.6632  2.9367  0.1040
   82SOL     OW  244   1.854   1.979   1.598 -0.2224 -0.5311  0.8651
   82SOL    HW1  245   1.864   1.978   1.493  1.1766 -0.2238 -2.8738
   82SOL    HW2  246   1.950   2.000   1.635  0.8648 -1.5523  0.1639
   83SOL     OW  247   2.954   3.132   0.216  0.4146 -0.3935  0.8303
   83SOL    HW1  248   3.004   0.019   0.304  0.2528  0.2505  0.1822
   83SOL    HW2  249   2.949   0.089   0.164 -0.5290  2.0556  0.5546
   84SOL     OW  250   0.591   1.182   0.262 -0.1459 -0.5361  0.1657
   84SOL    HW1  251   0.548   1.102   0.219  0.0950  1.7794 -1.1499
   84SOL    HW2  252   0.553   1.194   0.355  1.5708  0.1619 -1.3809
   85SOL     OW  253   2.630   2.112   1.486  0.0120 -0.0069  0.1403
   85SOL    HW1  254   2.578   2.024   1.480 -0.2284 -3.6405 -2.4625
   85SOL    HW2  255   2.603   2.182   1.417  1.7091  1.7072 -0.3793
   86SOL     OW  256   0.683   2.631   1.397 -0.0826 -0.4589  0.9291
   86SOL    HW1  257   0.701   2.693   1.319 -2.5269 -2.0881  0.2160
   86SOL    HW2  258   0.668   2.672   1.484 -0.2459 -2.0830 -1.1103
   87SOL     OW  259   0.363   2.565   2.377  0.5218  0.3717  0.0361
   87SOL    HW1  260   0.443   2.557   2.318  0.5550  0.0140  2.2770
   87SOL    HW2  261   0.301   2.483   2.386 -1.6372 -0.6324  3.3427
   88SOL     OW  262   0.197   2.363   0.362 -0.0089  0.0668  0.1327
   88SOL    HW1  263   0.209   2.300   0.283  1.2622  2.8929  1.7303
   88SOL    HW2  264   0.253   2.333   0.441  0.8735 -0.5380 -1.4317
   89SOL     OW  265   0.904   0.799   1.139 -0.3960  0.5789  0.0002
   89SOL    HW1  266   0.972   0.854   1.194  3.4303  1.1601  0.9927
   89SOL    HW2  267   0.928   0.783   1.039  1.1907  0.1920  0.8694
   90SOL     OW  268   0.112   1.075   1.696  0.3413  0.5516  0.1993
   90SOL    HW1  269   0.075   1.169   1.679  0.8510 -2.0857  0.6398
   90SOL    HW2  270   0.209   1.075   1.723 -0.0853  0.7462  0.2048
   91SOL     OW  271   1.245   0.851   0.803  0.0127 -0.2395  0.5235
   91SOL    HW1  272   1.313   0.888   0.875  1.7052  2.0355  1.0859
   91SOL    HW2  273   1.232   0.749   0.805  0.6139  0.0688 -1.5451
   92SOL     OW  274   2.054   1.234   0.938 -0.1394  0.2082 -0.2287
   92SOL    HW1  275   2.145   1.196   0.950 -0.0496  1.9482  1.5689
   92SOL    HW2  276   2.023   1.210   0.846  1.8304  0.2276 -0.2906
   93SOL     OW  277   2.587   0.741   2.465 -0.0172  0.2557  0.6161
   93SOL    HW1  278   2.648   0.693   2.392  0.3798 -1.9232 -2.0450
   93SOL    HW2  279   2.632   0.727   2.557  1.2068 -0.9913  2.1128
   94SOL     OW  280   2.305   1.761   2.497  0.3430  0.0079  0.5366
   94SOL    HW1  281   2.241   1.841   2.516  0.6735  0.1841  0.0784
   94SOL    HW2  282   2.338   1.724   2.588  0.9273  1.0530 -0.0936
   95SOL     OW  283   2.687   0.816   1.111  0.4233  1.1809 -0.5699
   95SOL    HW1  284   2.662   0.855   1.019  0.5546 -1.6481  0.4726
   95SOL    HW2  285   2.611   0.756   1.150  1.2201 -2.0332  0.6473
   96SOL     OW  286   2.430   2.824   1.662 -0.0826  0.5896 -0.1665
   96SOL    HW1  287   2.497   2.808   1.737 -1.8787  0.6383  1.6739
   96SOL    HW2  288   2.349   2.760   1.673 -1.9983 -0.5203 -0.9311
   97SOL     OW  289   2.656   1.149   1.372  0.1256 -0.8580  0.4075
   97SOL    HW1  290   2.716   1.069   1.373 -0.3206 -0.5121  0.2443
   97SOL    HW2  291   2.649   1.194   1.461  2.6210  0.9605  1.8861
   98SOL     OW  292   1.541   2.245   1.821 -0.1667 -0.0644 -0.3574
   98SOL    HW1  293   1.569   2.168   1.756 -0.6773 -2.3719  1.3952
   98SOL    HW2  294   1.453   2.289   1.796  0.4138 -0.5741 -0.3304
   99SOL     OW  295   0.514   2.443   1.507  0.3616 -0.0891  0.7096
   99SOL    HW1  296   0.507   2.356   1.460  0.1139  1.7556  1.6058
   99SOL    HW2  297   0.568   2.514   1.454 -1.7090 -3.3687  1.6845
  100SOL     OW  298   1.273   0.669   3.087 -0.1054  0.7303  0.2686
  100SOL    HW1  299   1.348   0.695   0.011 -3.5271 -1.1895 -0.6889
  100SOL    HW2  300   1.307   0.598   3.018 -0.0936 -2.7459 -1.9699
  101SOL     OW  301   2.467   0.093   2.594  0.4048 -0.3138  0.0717
  101SOL    HW1  302   2.566   0.069   2.610 -0.0307  1.6913 -1.8036
  101SOL    HW2  303   2.456   0.195   2.584  0.8841  0.0821  1.1167
  102SOL     OW  304   0.401   0.447   1.461 -0.3150  0.1614 -0.6593
  102SOL    HW1  305   0.426   0.353   1.433  0.3130  0.3122  0.5988
  102SOL    HW2  306   0.479   0.510   1.436  2.1640  1.9368  1.3599
  103SOL     OW  307   0.421   0.715   2.717 -0.2692 -0.9297  0.0375
  103SOL    HW1  308   0.394   0.746   2.815 -1.0039 -2.3468  1.7397
  103SOL    HW2  309   0.512   0.761   2.690  1.3900  1.5822  2.0950
  104SOL     OW  310   0.845   0.700   2.464  0.8475  0.0385  0.3955
  104SOL    HW1  311   0.762   0.652   2.427 -1.4697 -1.1909 -0.3150
  104SOL    HW2  312   0.817   0.757   2.542 -0.6546 -1.7134 -1.2231
  105SOL     OW  313   2.093   2.021   1.672  0.2142  0.7524  0.2908
  105SOL    HW1  314   2.136   2.002   1.764 -1.5398 -0.7733  1.1519
  105SOL    HW2  315   2.156   2.083   1.618  2.2761  0.6680 -1.6020
  106SOL     OW  316   2.074   3.023   0.571  0.3498  0.0035  0.4118
  106SOL    HW1  317   1.996   2.958   0.583  1.3284 -1.7460  1.6954
  106SOL    HW2  318   2.110   3.014   0.478  3.8867 -0.9341 -0.6625
  107SOL     OW  319   2.704   1.986   1.103  0.4413 -0.6682  0.2933
  107SOL    HW1  320   2.671   1.951   1.014  1.3017 -1.4886 -0.9140
  107SOL    HW2  321   2.767   2.066   1.095 -1.1987 -1.5797 -0.2682
  108SOL     OW  322   2.673   2.873   1.459  0.1092  0.1856  0.0562
  108SOL    HW1  323   2.601   2.858   1.533 -1.0645  0.8069  0.1405
  108SOL    HW2  324   2.678   2.972   1.437 -0.3297 -1.5842 -0.2168
  109SOL     OW  325   1.978   2.588   1.031  0.1085  0.1865  0.2723
  109SOL    HW1  326   1.946   2.535   1.112  1.6684  0.2365 -0.1463
  109SOL    HW2  327   2.050   2.654   1.057 -0.0001  2.3597  2.9773
  110SOL     OW  328   0.735   1.728   2.111 -0.1103  0.5871  0.0858
  110SOL    HW1  329   0.710   1.800   2.044 -1.4566  0.9704  2.3153
  110SOL    HW2  330   0.657   1.696   2.167  1.3744  1.2802  0.0475
  111SOL     OW  331   1.594   2.531   2.484  0.0081 -0.7248  0.6477
  111SOL    HW1  332   1.693   2.543   2.464  0.9290  0.6083 -0.2506
  111SOL    HW2  333   1.544   2.490   2.402 -1.1443  1.7977  0.2511
  112SOL     OW  334   1.989   1.718   2.410  0.1322  0.3149 -0.5563
  112SOL    HW1  335   2.084   1.698   2.382  0.8869  0.9398  2.4272
  112SOL    HW2  336   1.925   1.720   2.335  0.3616  1.1581  2.2870
  113SOL     OW  337   1.586   2.063   1.642  0.4780  0.1285  0.3041
  113SOL    HW1  338   1.526   1.995   1.688  1.5888  0.5213  2.1964
  113SOL    HW2  339   1.676   2.024   1.610  0.3098 -0.7783 -0.6884
  114SOL     OW  340   2.997   0.882   0.759  0.3712  0.2199 -0.2197
  114SOL    HW1  341   2.922   0.841   0.708  0.1153  3.9881  2.6110
  114SOL    HW2  342   2.984   0.853   0.859 -3.0679 -1.4366  0.2073
  115SOL     OW  343   0.681   0.795   0.353 -0.2967  0.3055  0.3993
  115SOL    HW1  344   0.591   0.819   0.395 -0.0737 -2.4098  2.0069
  115SOL    HW2  345   0.667   0.713   0.291 -0.0234  0.7401 -3.5262
  116SOL     OW  346   2.860   1.838   2.377  0.0243 -0.4027 -0.3308
  116SOL    HW1  347   2.802   1.907   2.426  0.5363  0.1419 -0.7700
  116SOL    HW2  348   2.952   1.877   2.355  3.1080 -0.5631 -2.0026
  117SOL     OW  349   2.855   2.848   0.572 -0.0053 -0.2869 -0.1151
  117SOL    HW1  350   2.903   2.812   0.490  0.8852 -1.1422 -1.1096
  117SOL    HW2  351   2.880   2.800   0.658 -1.5720 -1.3862 -2.0173
  118SOL     OW  352   0.997   1.572   2.776 -0.6797 -0.5051 -0.0933
  118SOL    HW1  353   0.986   1.664   2.726 -0.7787  3.0451 -2.3911
  118SOL    HW2  354   0.959   1.585   2.870  0.0597 -0.5094  1.4259
  119SOL     OW  355   0.323   2.069   0.082 -0.1667  0.4713  0.1982
  119SOL    HW1  356   0.242   2.128   0.085  1.2104 -0.2451 -0.7444
  119SOL    HW2  357   0.324   2.003   0.158  0.8338  0.4597  0.1236
  120SOL     OW  358   1.521   0.962   0.328 -0.0507  0.3733  0.1211
  120SOL    HW1  359   1.586   0.888   0.357 -1.1447  0.3225 -0.8357
  120SOL    HW2  360   1.441   0.960   0.393 -3.5133  0.2803 -2.0143
  121SOL     OW  361   1.176   2.519   0.526 -0.2431  0.2848  0.0445
  121SOL    HW1  362   1.241   2.523   0.610 -0.3548 -0.3197  1.2732
  121SOL    HW2  363   1.149   2.420   0.516  1.5656 -1.2944  1.0139
  122SOL     OW  364   2.371   2.576   1.842 -0.1447 -0.5137 -0.1075
  122SOL    HW1  365   2.450   2.510   1.835  1.3961 -2.2740 -0.2113
  122SOL    HW2  366   2.289   2.531   1.805  1.7575 -2.9322  1.2210
  123SOL     OW  367   0.710   2.124   0.552  0.2256  0.5253  0.0129
  123SOL    HW1  368   0.644   2.099   0.478 -1.6339  0.0150 -0.3115
  123SOL    HW2  369   0.770   2.203   0.521  0.4448  1.5917  0.6918
  124SOL     OW  370   0.012   0.776   0.093  0.5272 -0.0502 -0.6839
  124SOL    HW1  371   0.074   0.735   0.167 -0.3243 -1.6841 -1.0343
  124SOL    HW2  372   0.000   0.874   0.119 -0.5256  2.1206  3.9452
  125SOL     OW  373   0.439   0.842   0.457  0.3913  0.5651  0.0357
  125SOL    HW1  374   0.341   0.849   0.419 -0.6327 -0.1654 -1.5309
  125SOL    HW2  375   0.446   0.812   0.551 -0.5781  1.1211  0.3089
  126SOL     OW  376   3.003   1.854   0.676  0.0584 -0.3936 -0.1596
  126SOL    HW1  377   2.999   1.886   0.775  1.3937 -1.6782 -0.6401
  126SOL    HW2  378   3.097   1.873   0.639 -1.7366 -1.5145  2.1638
  127SOL     OW  379   1.430   1.899   1.763 -0.2676 -0.2790 -0.2950
  127SOL    HW1  380   1.482   1.813   1.794  3.1666  0.7762 -0.5780
  127SOL    HW2  381   1.378   1.939   1.843 -0.6912  0.7528  0.6415
  128SOL     OW  382   0.961   1.133   0.273 -0.0018  0.6438  0.4029
  128SOL    HW1  383   0.895   1.201   0.240  1.3150  0.8645  0.4400
  128SOL    HW2  384   1.056   1.161   0.247  1.6729 -0.1499 -0.5328
  129SOL     OW  385   1.870   1.443   1.345 -0.2795  0.5612  0.2848
  129SOL    HW1  386   1.855   1.450   1.239 -1.5939  0.4851 -3.7872
  129SOL    HW2  387   1.800   1.507   1.387 -1.7015  0.4471  2.6830
  130SOL     OW  388   2.344   1.699   1.595  0.1644  0.1041 -0.2594
  130SOL    HW1  389   2.343   1.803   1.578 -0.9770  3.2779 -1.0829
  130SOL    HW2  390   2.384   1.678   1.684 -1.6173  0.9252 -1.5752
  131SOL     OW  391   3.004   2.627   2.781  0.0623 -0.8162 -0.9525
  131SOL    HW1  392   2.926   2.651   2.840  0.5423  1.6815  0.2040
  131SOL    HW2  393   3.010   2.703   2.717  2.4612 -0.5273  0.2980
  132SOL     OW  394   2.922   1.642   0.524 -0.2250  0.5039  0.5040
  132SOL    HW1  395   2.948   1.729   0.574  1.1678  2.9227 -0.2094
  132SOL    HW2  396   2.833   1.609   0.558  2.0416 -0.6146  0.9280
  133SOL     OW  397   0.575   3.063   1.839 -0.0042 -0.1927 -0.2989
  133SOL    HW1  398   0.635   3.072   1.759 -0.7508  3.8249  1.0521
  133SOL    HW2  399   0.498   3.130   1.828 -0.7252 -0.0143 -1.5020
  134SOL     OW  400   0.151   1.946   2.763 -0.0007  0.1584  0.0835
  134SOL    HW1  401   0.078   2.008   2.803  0.5360  0.8489  0.0406
  134SOL    HW2  402   0.225   2.010   2.728 -0.0386  1.1870  3.8622
  135SOL     OW  403   1.501   0.688   1.913 -0.2041  0.6266  0.4728
  135SOL    HW1  404   1.466   0.704   2.009  1.4256 -0.6996  0.3971
  135SOL    HW2  405   1.602   0.697   1.911 -1.6102  0.5379  2.4763
  136SOL     OW  406   2.869   1.360   0.241  0.0848 -0.3946 -0.1452
  136SOL    HW1  407   2.938   1.387   0.313 -1.8083 -0.3281 -0.1606
  136SOL    HW2  408   2.881   1.419   0.160 -0.4996 -0.8678  1.3646
  137SOL     OW  409   0.015   1.938   0.906  0.3345 -0.0351 -0.0294
  137SOL    HW1  410   0.049   1.866   0.974  1.5151  0.3677  1.0529
  137SOL    HW2  411   0.090   1.960   0.844  0.5960  0.5977  1.5488
  138SOL     OW  412   2.471   0.625   1.172 -0.1459 -0.2490  0.4884
  138SOL    HW1  413   2.520   0.598   1.259 -0.0604  0.9466  1.7840
  138SOL    HW2  414   2.439   0.545   1.126 -2.0921 -0.3181  2.7737
  139SOL     OW  415   1.278   2.646   0.074  0.0566 -0.1609 -0.3634
  139SOL    HW1  416   1.348   2.706   0.045 -1.1874  0.4140  1.8483
  139SOL    HW2  417   1.202   2.655   0.003 -2.9754  0.2139  0.8655
  140SOL     OW  418   1.163   1.718   1.188  0.1773  0.3817 -0.4977
  140SOL    HW1  419   1.126   1.679   1.103 -2.8323 -1.2813  2.1342
  140SOL    HW2  420   1.179   1.820   1.175  0.1983  1.3107 -2.5928
  141SOL     OW  421   1.128   2.250   0.454  0.4771 -0.7270  0.2336
  141SOL    HW1  422   1.055   2.231   0.395  0.8092  2.7057 -0.3292
  141SOL    HW2  423   1.204   2.265   0.388  0.3356 -1.7812  0.8574
  142SOL     OW  424   1.139   0.114   0.841  0.2906  0.1267  0.0660
  142SOL    HW1  425   1.227   0.074   0.807 -0.2723  0.6180 -0.6877
  142SOL    HW2  426   1.115   0.196   0.784 -2.3136 -0.5584  0.1287
  143SOL     OW  427   0.827   1.880   3.019  0.0266 -0.2669  0.0455
  143SOL    HW1  428   0.850   1.881   3.119  0.1649 -2.3280  0.3780
  143SOL    HW2  429   0.912   1.912   2.964  2.9306  0.0632 -0.3880
  144SOL     OW  430   1.618   2.616   0.704 -0.0579  0.2044  0.5654
  144SOL    HW1  431   1.598   2.670   0.619  0.0789  1.7819 -0.6410
  144SOL    HW2  432   1.691   2.549   0.681 -0.8172  0.8475  0.5759
  145SOL     OW  433   2.041   0.660   2.545 -0.4904  0.8124 -0.4330
  145SOL    HW1  434   2.055   0.699   2.451  0.7536 -0.0814 -0.0806
  145SOL    HW2  435   2.133   0.641   2.596 -0.3762 -2.4773 -0.1681
  146SOL     OW  436   0.388   3.046   0.783  0.2606 -0.8087 -0.0263
  146SOL    HW1  437   0.293   3.028   0.822 -2.6216 -1.1703 -0.8708
  146SOL    HW2  438   0.388   3.024   0.681 -0.6858 -0.1940 -1.7336
  147SOL     OW  439   2.167   0.359   2.049  0.2168 -0.3042 -0.1778
  147SOL    HW1  440   2.073   0.321   2.030 -2.0227 -0.2283  0.8455
  147SOL    HW2  441   2.177   0.452   2.013 -3.5416 -0.1121  2.6455
  148SOL     OW  442   0.997   3.080   2.152  0.1296 -0.2479 -0.1072
  148SOL    HW1  443   0.920   3.121   2.206  0.6812 -0.2149 -1.5999
  148SOL    HW2  444   1.058   0.023   2.124  1.8531  1.1851 -0.3012
  149SOL     OW  445   1.658   0.295   2.088 -0.1730 -0.1265 -0.5493
  149SOL    HW1  446   1.608   0.236   2.023 -0.8786  2.1458 -0.4264
  149SOL    HW2  447   1.601   0.316   2.174 -1.1813  1.6143 -0.0304
  150SOL     OW  448   0.015   0.200   0.061  0.6857  0.5868  0.1393
  150SOL    HW1  449   3.051   0.214   0.074  1.1659  0.0415  1.9541
  150SOL    HW2  450   0.038   0.268   3.124 -1.6867 -1.4194 -2.4422
  151SOL     OW  451   0.681   1.594   0.244 -0.4008 -0.0641  0.5274
  151SOL    HW1  452   0.700   1.565   0.149  2.1053  2.2887  0.7179
  151SOL    HW2  453   0.737   1.672   0.273  1.7090  1.0628 -1.1893
  152SOL     OW  454   2.986   0.377   0.432  0.6747 -0.3384 -0.3094
  152SOL    HW1  455   2.898   0.396   0.387 -0.9026  0.6755  1.9109
  152SOL    HW2  456   3.037   0.464   0.438 -1.4736 -1.2087 -0.9708
  153SOL     OW  457   2.643   0.588   1.372  0.4584 -0.3726  0.0941
  153SOL    HW1  458   2.615   0.624   1.461  1.9397  0.2230 -1.1029
  153SOL    HW2  459   2.742   0.568   1.369 -1.6178 -1.1604  2.5887
  154SOL     OW  460   1.700   3.116   2.333 -0.2838  0.6766 -0.3276
  154SOL    HW1  461   1.650   3.027   2.362 -1.2159 -0.6940  1.9174
  154SOL    HW2  462   1.670   0.023   2.245 -0.9297 -1.0813  1.8545
  155SOL     OW  463   0.138   1.875   0.601 -0.9187 -0.5307  0.3232
  155SOL    HW1  464   0.193   1.962   0.619  0.7934  0.2220  0.2671
  155SOL    HW2  465   0.171   1.798   0.660 -0.4497  1.3010 -2.0780
  156SOL     OW  466   1.986   2.186   2.815  0.5264  0.8667  0.1490
  156SOL    HW1  467   1.975   2.084   2.816 -1.0708 -1.6565  0.1083
  156SOL    HW2  468   1.889   2.222   2.825 -0.2032 -0.8908 -0.2215
  157SOL     OW  469   1.112   0.343   0.673 -0.0262  0.0890  0.2682
  157SOL    HW1  470   1.029   0.391   0.645  0.5191 -0.7889 -1.7341
  157SOL    HW2  471   1.185   0.347   0.600  1.3296 -1.6586  0.2219
  158SOL     OW  472   2.363   0.459   2.398 -0.1820 -0.3108 -0.1455
  158SOL    HW1  473   2.283   0.395   2.392 -0.3619  1.3699  1.1077
  158SOL    HW2  474   2.414   0.462   2.311 -0.9648 -0.8060  1.1559
  159SOL     OW  475   3.058   0.094   0.468 -0.0238 -0.1295  0.2971
  159SOL    HW1  476   3.021   0.191   0.455 -0.7269  0.7458 -0.9278
  159SOL    HW2  477   0.028   0.100   0.482  2.6480 -0.9581 -1.1457
  160SOL     OW  478   1.636   1.886   2.035  0.1654 -0.0448  0.3419
  160SOL    HW1  479   1.577   1.897   2.114  2.2310 -4.4035  0.2184
  160SOL    HW2  480   1.611   1.809   1.973  0.5302 -1.1519 -1.9706
  161SOL     OW  481   2.820   0.811   2.706 -0.2924 -0.5218 -0.0522
  161SOL    HW1  482   2.909   0.854   2.733  0.3943 -0.1904  1.0933
  161SOL    HW2  483   2.842   0.723   2.659 -1.4057 -1.7099  1.7525
  162SOL     OW  484   0.951   2.620   1.438 -0.1157 -0.1341 -0.4095
  162SOL    HW1  485   1.008   2.564   1.370  2.6889 -0.8517 -1.1698
  162SOL    HW2  486   0.851   2.613   1.416  0.6432 -1.5749 -1.4127
  163SOL     OW  487   2.499   0.376   2.610  0.3104 -0.7614 -0.1804
  163SOL    HW1  488   2.436   0.401   2.688 -2.6338 -0.5008  0.3055
  163SOL    HW2  489   2.454   0.419   2.527  0.6339 -2.0571 -1.9928
  164SOL     OW  490   2.050   1.793   3.011 -0.5317 -0.4225  0.0582
  164SOL    HW1  491   2.027   1.839   2.922 -0.2795  0.6979  0.6986
  164SOL    HW2  492   2.150   1.796   3.027  1.2870  0.9301 -1.1140
  165SOL     OW  493   2.802   0.357   1.544  0.3173  0.0522  0.4713
  165SOL    HW1  494   2.852   0.395   1.462  2.0834  0.5341  0.3430
  165SOL    HW2  495   2.870   0.305   1.599 -1.4490  1.1774 -1.0760
  166SOL     OW  496   2.448   0.794   2.981 -0.0314  0.2408  0.0551
  166SOL    HW1  497   2.541   0.757   3.007  2.3715 -0.6795  1.4145
  166SOL    HW2  498   2.455   0.864   2.906 -1.3922  1.0600 -1.4137
  167SOL     OW  499   2.909   0.627   0.061  0.0377  0.0882  0.1514
  167SOL    HW1  500   2.989   0.681   0.087 -1.5194 -3.2164  0.1986
  167SOL    HW2  501   2.937   0.546   0.005 -0.4076  2.6028 -0.0704
  168SOL     OW  502   1.796   2.977   2.866  0.3608 -0.4292  0.2291
  168SOL    HW1  503   1.791   2.898   2.924 -1.0923 -0.5804 -0.5841
  168SOL    HW2  504   1.800   3.065   2.919  0.1108 -0.3531  2.8987
  169SOL     OW  505   0.033   1.375   0.771  0.4367  0.0261 -0.5655
  169SOL    HW1  506   3.094   1.450   0.796 -1.1485  2.2562  0.0835
  169SOL    HW2  507   3.120   1.302   0.715 -2.6257 -1.8317 -0.1689
  170SOL     OW  508   2.925   0.551   1.397 -0.8595  0.3326  0.0563
  170SOL    HW1  509   3.021   0.518   1.371  0.1346  1.1969  1.4475
  170SOL    HW2  510   2.924   0.642   1.448  1.8498 -0.0658  0.8487
  171SOL     OW  511   2.004   2.350   1.970  0.7713  0.3396  0.1993
  171SOL    HW1  512   1.968   2.253   1.972  3.2674 -2.7428 -1.3398
  171SOL    HW2  513   2.050   2.368   2.060  0.9837 -2.9565  3.0856
  172SOL     OW  514   0.255   2.524   1.576 -0.5207 -0.2789 -0.0328
  172SOL    HW1  515   0.330   2.466   1.546 -3.6595 -0.7770  0.3673
  172SOL    HW2  516   0.281   2.597   1.637 -1.6389 -1.3902 -1.0288
  173SOL     OW  517   1.192   1.245   0.178  0.7596  0.0919  0.0844
  173SOL    HW1  518   1.279   1.243   0.234  1.1152 -2.0329 -0.9276
  173SOL    HW2  519   1.223   1.262   0.088  1.1458  1.9972  3.1315
  174SOL     OW  520   1.435   0.021   2.758  0.2770 -0.2647 -0.1178
  174SOL    HW1  521   1.372   3.103   2.817  1.5304  1.3337  1.1617
  174SOL    HW2  522   1.401   0.113   2.732 -0.6855 -1.8368  1.4357
  175SOL     OW  523   2.023   1.724   0.798 -0.0302  0.1712  0.2354
  175SOL    HW1  524   2.060   1.815   0.824  1.9147 -3.4356 -2.0693
  175SOL    HW2  525   2.058   1.654   0.862  0.6797 -1.9121 -0.4044
  176SOL     OW  526   1.545   0.256   0.302 -0.3891  0.2671  0.4693
  176SOL    HW1  527   1.645   0.240   0.311  0.7991  0.4026  2.4293
  176SOL    HW2  528   1.520   0.350   0.287  3.0034 -0.6947 -1.0078
  177SOL     OW  529   0.726   1.504   3.122  0.3559 -0.0572  0.5868
  177SOL    HW1  530   0.653   1.509   3.051 -0.0398  2.1748  1.4089
  177SOL    HW2  531   0.818   1.537   3.089  3.5289 -1.0806 -0.6300
  178SOL     OW  532   2.705   2.280   2.710 -0.5795  0.3051 -0.7338
  178SOL    HW1  533   2.723   2.184   2.674  1.0326  0.3854  1.0932
  178SOL    HW2  534   2.624   2.324   2.671 -1.0502  3.5499 -0.8841
  179SOL     OW  535   2.716   0.185   3.004 -0.4954  0.6361  0.0431
  179SOL    HW1  536   2.770   0.182   2.916  2.2340 -2.3675 -0.2435
  179SOL    HW2  537   2.637   0.116   2.993 -3.8368 -2.6107  0.0651
  180SOL     OW  538   1.539   1.472   0.474  0.0507  0.0484 -0.3299
  180SOL    HW1  539   1.567   1.400   0.541  0.3873 -2.1312  0.3221
  180SOL    HW2  540   1.442   1.506   0.486 -1.7850 -1.7092 -0.4354
  181SOL     OW  541   1.688   1.036   2.431 -0.4704  0.3628  0.5706
  181SOL    HW1  542   1.724   0.980   2.355  1.1239  0.5035  2.7390
  181SOL    HW2  543   1.739   1.014   2.516  0.4661  0.8667  1.5309
  182SOL     OW  544   2.621   2.778   2.749 -0.4879 -0.6015  1.0690
  182SOL    HW1  545   2.672   2.738   2.830 -0.1889  0.0704 -3.3502
  182SOL    HW2  546   2.674   2.853   2.701 -0.2263 -1.1768 -3.1150
  183SOL     OW  547   1.909   0.672   2.106 -0.3070  0.3355 -0.4735
  183SOL    HW1  548   1.988   0.703   2.159  0.2293 -1.3480  0.5325
  183SOL    HW2  549   1.874   0.584   2.148 -1.3127 -1.2777  3.1929
  184SOL     OW  550   0.100   1.310   1.551 -0.0619  0.0013  0.0657
  184SOL    HW1  551   0.110   1.354   1.462 -0.2169  0.8354  2.0175
  184SOL    HW2  552   0.028   1.354   1.607  2.5780  0.4440  1.2451
  185SOL     OW  553   1.874   0.383   0.878  0.7957 -0.3249 -0.0992
  185SOL    HW1  554   1.836   0.368   0.970  0.1958 -0.1209 -0.6426
  185SOL    HW2  555   1.812   0.358   0.799  0.6332  0.9796  0.6048
  186SOL     OW  556   0.326   2.505   2.945  0.1396 -0.0071 -0.6072
  186SOL    HW1  557   0.240   2.558   2.961  0.7246 -2.6161 -2.2930
  186SOL    HW2  558   0.295   2.408   2.932 -0.7664  1.9420 -0.3985
  187SOL     OW  559   2.867   1.078   0.230 -0.3363  0.4273 -0.1219
  187SOL    HW1  560   2.860   1.179   0.244  1.2269  0.5391  2.6135
  187SOL    HW2  561   2.856   1.058   0.130  0.8614 -0.2297  0.9950
  188SOL     OW  562   2.798   1.596   1.439 -0.0441  0.1300  0.4665
  188SOL    HW1  563   2.872   1.523   1.421 -0.1995  0.8630  1.8180
  188SOL    HW2  564   2.805   1.678   1.379 -0.5061  0.5020 -1.1214
  189SOL     OW  565   2.776   0.443   2.703  0.3410 -0.4696 -0.3603
  189SOL    HW1  566   2.681   0.432   2.667  1.3710  1.8813  0.3268
  189SOL    HW2  567   2.832   0.495   2.636  0.0437  0.3159  1.4204
  190SOL     OW  568   1.484   1.284   1.645 -0.0061 -0.0921  0.3606
  190SOL    HW1  569   1.388   1.286   1.602 -2.7910  0.6461  0.2258
  190SOL    HW2  570   1.536   1.361   1.600 -1.9761 -0.5505  3.2621
  191SOL     OW  571   0.582   0.357   2.206  0.9273  0.3894  0.1966
  191SOL    HW1  572   0.492   0.368   2.153 -0.2817  0.3363 -2.0465
  191SOL    HW2  573   0.659   0.370   2.141  1.3339 -1.8425  0.2058
  192SOL     OW  574   1.768   1.710   1.200 -0.3673 -0.0705 -0.1332
  192SOL    HW1  575   1.805   1.626   1.162 -2.0403  1.7856  1.4068
  192SOL    HW2  576   1.672   1.697   1.238 -0.3276 -0.9777 -0.1929
  193SOL     OW  577   1.572   0.882   1.161  0.0242  0.0254  0.3172
  193SOL    HW1  578   1.621   0.964   1.198  3.8258 -0.6000 -2.0852
  193SOL    HW2  579   1.636   0.806   1.156 -1.3120 -1.4736 -0.7300
  194SOL     OW  580   0.647   2.040   1.379  0.7991  0.2930 -0.1021
  194SOL    HW1  581   0.624   2.126   1.325  0.7975 -0.4762  0.4425
  194SOL    HW2  582   0.729   1.992   1.339  0.1280  2.1257 -0.7200
  195SOL     OW  583   1.787   0.199   0.341 -0.1289 -0.3663  0.6205
  195SOL    HW1  584   1.815   0.136   0.414 -0.7365  1.0427 -1.0220
  195SOL    HW2  585   1.858   0.270   0.321 -0.3453  0.0115  1.7386
  196SOL     OW  586   0.257   1.105   1.391 -0.2955 -0.4103  0.7015
  196SOL    HW1  587   0.189   1.129   1.462 -0.2042  0.6155  3.8896
  196SOL    HW2  588   0.355   1.098   1.429  0.8975 -0.7424 -0.1894
  197SOL     OW  589   1.117   0.136   1.730 -0.3471 -0.2282 -0.3610
  197SOL    HW1  590   1.145   0.092   1.640  0.3210 -0.1551 -1.6848
  197SOL    HW2  591   1.166   0.091   1.804 -1.9913 -1.9205  0.2439
  198SOL     OW  592   0.488   0.872   1.149 -0.5513  0.2014  0.1643
  198SOL    HW1  593   0.562   0.914   1.204  1.2450 -0.8283  0.1544
  198SOL    HW2  594   0.476   0.924   1.062  0.1308  0.2791  0.5004
  199SOL     OW  595   0.079   2.363   1.779 -0.8692 -0.3411  0.4313
  199SOL    HW1  596   0.156   2.356   1.843  0.6149  0.0494 -0.1675
  199SOL    HW2  597   0.088   2.443   1.721  0.0972 -0.2881 -2.5962
  200SOL     OW  598   1.832   1.778   1.776  0.0544  0.1869  0.7188
  200SOL    HW1  599   1.913   1.715   1.767  2.5564 -0.2854 -3.3102
  200SOL    HW2  600   1.850   1.858   1.711  0.1902  2.2285  1.1903
  201SOL     OW  601   0.515   1.668   2.255 -0.4752 -0.0893 -0.3561
  201SOL    HW1  602   0.435   1.717   2.292  1.8533 -1.4603  2.2766
  201SOL    HW2  603   0.528   1.576   2.303  3.2334 -2.9399 -0.9902
  202SOL     OW  604   1.883   0.558   0.073  0.0086 -0.4373 -0.5256
  202SOL    HW1  605   1.820   0.552   3.127  0.6283  0.3168  0.7873
  202SOL    HW2  606   1.969   0.593   0.047 -0.9156 -0.2453 -1.4948
  203SOL     OW  607   1.293   2.687   1.790  0.4001  0.0688  0.0971
  203SOL    HW1  608   1.300   2.742   1.874 -2.2188 -0.2532  0.6715
  203SOL    HW2  609   1.203   2.701   1.744  5.2645  1.9311  0.1113
  204SOL     OW  610   0.618   1.853   1.878  0.1266 -0.4372  0.4329
  204SOL    HW1  611   0.668   1.863   1.786  1.1118  2.4867 -3.0824
  204SOL    HW2  612   0.524   1.879   1.868  0.2039 -1.5375  0.6373
  205SOL     OW  613   1.594   1.690   1.841 -0.5649 -0.2005  0.3149
  205SOL    HW1  614   1.692   1.715   1.819  1.5866  1.1143  1.2502
  205SOL    HW2  615   1.581   1.586   1.849 -0.3040 -1.7852  2.2175
  206SOL     OW  616   0.131   1.194   2.382  0.1329 -0.1290 -0.2987
  206SOL    HW1  617   0.192   1.132   2.333 -1.6503 -0.3527  1.0614
  206SOL    HW2  618   0.170   1.290   2.402  3.8868  1.2562  1.0887
  207SOL     OW  619   0.694   2.879   2.028 -0.0304 -0.0918  0.1549
  207SOL    HW1  620   0.783   2.857   1.982  0.3671  0.7170  1.7888
  207SOL    HW2  621   0.643   2.942   1.967  1.7420 -0.1706 -0.6314
  208SOL     OW  622   0.538   2.610   1.979  0.5705 -0.1308  0.1086
  208SOL    HW1  623   0.555   2.710   2.010  0.3455  1.9398  1.4874
  208SOL    HW2  624   0.600   2.570   1.907 -0.4646 -0.6000 -2.2034
  209SOL     OW  625   1.450   0.030   0.417  0.2330  0.0734  0.0913
  209SOL    HW1  626   1.539   3.109   0.412  4.0057  1.0697  0.1394
  209SOL    HW2  627   1.467   0.118   0.371  0.6118  1.8903  0.9694
  210SOL     OW  628   2.772   0.775   0.635 -0.6487 -0.2580  0.2431
  210SOL    HW1  629   2.803   0.745   0.540  3.4566 -1.5791 -0.8085
  210SOL    HW2  630   2.677   0.740   0.644  0.2991  2.5579 -1.1292
  211SOL     OW  631   0.711   0.332   1.801 -0.0889  0.3477  0.4962
  211SOL    HW1  632   0.609   0.342   1.812  2.4388 -1.7001  0.4612
  211SOL    HW2  633   0.749   0.410   1.742  0.3346 -0.3085  0.2691
  212SOL     OW  634   1.482   1.814   1.297  0.0633  0.1605 -0.3640
  212SOL    HW1  635   1.403   1.817   1.363 -1.4796  1.7869 -0.6890
  212SOL    HW2  636   1.510   1.908   1.287 -1.3347 -0.4611  1.0031
  213SOL     OW  637   2.752   0.568   1.713  0.2874  0.5176  0.1935
  213SOL    HW1  638   2.795   0.505   1.643  0.9787  0.6322  0.6720
  213SOL    HW2  639   2.783   0.533   1.803 -2.3252  3.3537  1.0873
  214SOL     OW  640   0.541   2.419   2.177  0.9353  0.3708 -0.0963
  214SOL    HW1  641   0.565   2.483   2.105  0.0748 -1.3945  0.7619
  214SOL    HW2  642   0.613   2.405   2.244  1.7608  0.2235 -0.6393
  215SOL     OW  643   2.727   1.709   1.694  0.0428  0.5822  0.2439
  215SOL    HW1  644   2.817   1.709   1.745  1.2197  1.4918 -0.4792
  215SOL    HW2  645   2.731   1.659   1.606  0.0263 -2.1108  1.2190
  216SOL     OW  646   0.675   0.734   1.917 -0.3001 -0.0564  0.0098
  216SOL    HW1  647   0.576   0.751   1.899 -0.0901  2.1613 -0.2787
  216SOL    HW2  648   0.707   0.797   1.992 -2.6918  2.3036 -0.9756
  217SOL     OW  649   2.868   0.250   1.097 -0.1204 -0.5055 -0.1048
  217SOL    HW1  650   2.970   0.274   1.073  0.9355  1.1126 -1.4196
  217SOL    HW2  651   2.875   0.171   1.157  1.3969 -0.8112 -2.6505
  218SOL     OW  652   1.476   1.928   1.005  0.1208  0.1393 -0.0409
  218SOL    HW1  653   1.457   1.943   0.904  0.2730  1.0469 -0.4955
  218SOL    HW2  654   1.407   1.976   1.064 -0.1161  1.9125 -0.6416
  219SOL     OW  655   1.879   2.838   0.539 -0.4035  0.1091 -0.2362
  219SOL    HW1  656   1.905   2.765   0.608  0.5597  1.0483 -0.6640
  219SOL    HW2  657   1.876   2.801   0.444  1.7059 -1.1366  0.8843
  220SOL     OW  658   1.598   2.250   0.216 -0.0644  0.2370  0.6672
  220SOL    HW1  659   1.653   2.261   0.307 -0.4467  1.2023  1.6847
  220SOL    HW2  660   1.644   2.305   0.148 -2.3179  3.4787  1.7230
  221SOL     OW  661   2.998   1.768   0.221  0.1287 -0.2618 -0.5903
  221SOL    HW1  662   2.926   1.820   0.267  1.6080  1.1686 -0.7650
  221SOL    HW2  663   2.959   1.682   0.186 -0.6336  3.4338 -0.2099
  222SOL     OW  664   0.543   2.285   0.820  0.2787 -0.0196 -0.2673
  222SOL    HW1  665   0.547   2.358   0.752 -2.0994 -1.8866 -0.1813
  222SOL    HW2  666   0.631   2.268   0.867  1.7002 -2.1223  1.3603
  223SOL     OW  667   1.295   0.288   0.465  0.4527 -0.2805 -0.0365
  223SOL    HW1  668   1.377   0.290   0.405  0.4441 -1.0314 -0.3067
  223SOL    HW2  669   1.235   0.212   0.446 -0.5374  0.2635  1.6073
  224SOL     OW  670   3.055   1.146   0.628  0.1506 -0.0250 -0.1529
  224SOL    HW1  671   2.958   1.178   0.638  0.5541  1.0621 -1.8968
  224SOL    HW2  672   3.083   1.067   0.687 -2.0543  2.5960  0.2938
  225SOL     OW  673   0.171   1.744   1.328  0.5200  0.1095 -0.7505
  225SOL    HW1  674   0.102   1.813   1.304  0.1625 -1.4373  0.7848
  225SOL    HW2  675   0.206   1.767   1.421 -0.8494  1.2384  1.7143
  226SOL     OW  676   0.561   2.925   0.962  0.1178  0.1292  0.3272
  226SOL    HW1  677   0.503   2.956   0.885  1.2345 -1.3597 -0.3180
  226SOL    HW2  678   0.556   2.995   1.040  0.7801 -1.0978 -1.5522
  227SOL     OW  679   1.166   1.509   1.666 -0.1748 -0.1573  0.1561
  227SOL    HW1  680   1.121   1.586   1.722  1.9564  0.1686  0.9769
  227SOL    HW2  681   1.170   1.541   1.568 -2.8667  0.8724 -0.1695
  228SOL     OW  682   0.699   0.128   2.009  0.0808  0.1433 -0.1533
  228SOL    HW1  683   0.675   0.040   1.964  1.3456  0.4600  2.0359
  228SOL    HW2  684   0.735   0.197   1.947  0.0244 -0.2359  2.6942
  229SOL     OW  685   0.016   0.731   2.552 -0.5174  0.3598  0.2547
  229SOL    HW1  686   3.111   0.779   2.632  0.6715  1.4691 -2.9944
  229SOL    HW2  687   0.041   0.812   2.486 -0.9705  2.7322 -1.3090
  230SOL     OW  688   0.112   0.749   1.097 -0.1480  0.2598 -0.5022
  230SOL    HW1  689   0.021   0.792   1.091 -2.5315 -0.4948  0.8055
  230SOL    HW2  690   0.164   0.792   1.175  0.4797  2.7749  2.3475
  231SOL     OW  691   1.279   0.028   1.929  0.4985 -0.0649  0.0277
  231SOL    HW1  692   1.238   0.093   1.997 -1.1723 -2.1210 -0.9955
  231SOL    HW2  693   1.281   3.066   1.966 -1.1862  1.8730  3.9894
  232SOL     OW  694   3.028   2.144   0.264  0.0631 -0.6935  0.0503
  232SOL    HW1  695   3.079   2.060   0.297 -0.0285  1.3955 -0.2711
  232SOL    HW2  696   2.953   2.123   0.198 -2.4257 -0.2823 -0.3292
  233SOL     OW  697   1.264   2.537   2.879  0.5541 -0.3634  0.2397
  233SOL    HW1  698   1.271   2.514   2.777  1.1236 -0.9729  0.2484
  233SOL    HW2  699   1.309   2.624   2.899 -0.9244 -0.8755 -0.7590
  234SOL     OW  700   0.373   1.070   1.771  0.2870  0.1669  0.0846
  234SOL    HW1  701   0.427   1.092   1.683  0.3679  0.7997  2.2358
  234SOL    HW2  702   0.415   1.122   1.852  1.4028  3.0687  1.4198
  235SOL     OW  703   3.054   2.378   2.429 -0.2474  0.2861 -0.5265
  235SOL    HW1  704   0.024   2.366   2.431 -0.5393  0.6428  1.6997
  235SOL    HW2  705   3.026   2.381   2.528 -2.8531 -0.5270  0.9822
  236SOL     OW  706   1.637   1.874   2.491 -0.4415  1.0376 -0.2014
  236SOL    HW1  707   1.617   1.805   2.419 -0.5993 -3.6591  1.8314
  236SOL    HW2  708   1.711   1.937   2.456 -3.4544 -1.5693 -1.2724
  237SOL     OW  709   1.631   0.876   0.877  0.1724  0.0257  0.2724
  237SOL    HW1  710   1.593   0.785   0.869  1.6184  1.0165 -1.0752
  237SOL    HW2  711   1.568   0.938   0.930 -1.6527  0.9833 -0.3258
  238SOL     OW  712   1.044   2.813   2.206  0.0623  0.2667  0.0249
  238SOL    HW1  713   1.036   2.905   2.171 -1.7224 -0.1514  1.2031
  238SOL    HW2  714   0.980   2.753   2.158  0.1255  0.7915  0.0192
  239SOL     OW  715   0.847   2.624   2.129 -0.0549  0.0815 -0.0555
  239SOL    HW1  716   0.847   2.634   2.022  1.0565 -0.0505 -0.6336
  239SOL    HW2  717   0.781   2.683   2.180  3.6822  0.1141 -1.3316
  240SOL     OW  718   2.180   0.098   0.750 -0.0503  1.3311 -0.1001
  240SOL    HW1  719   2.132   0.021   0.703 -0.3503 -2.1900  0.2824
  240SOL    HW2  720   2.189   0.180   0.692 -0.9677  1.4526  0.9225
  241SOL     OW  721   1.130   1.364   2.485  0.0259  0.3897 -0.3470
  241SOL    HW1  722   1.060   1.299   2.449  1.2676  0.6370 -0.8890
  241SOL    HW2  723   1.086   1.443   2.533  0.3574 -0.3557 -2.6095
  242SOL     OW  724   2.731   0.753   3.026  0.0160  0.3082  1.0066
  242SOL    HW1  725   2.799   0.704   3.085 -0.1103  0.6074 -1.4103
  242SOL    HW2  726   2.759   0.750   2.928 -0.2222  0.7941 -1.8261
  243SOL     OW  727   0.848   0.497   1.637 -0.1266 -0.7881 -0.7530
  243SOL    HW1  728   0.833   0.597   1.627  0.2232 -0.0100 -0.8432
  243SOL    HW2  729   0.948   0.481   1.658 -0.7740 -1.5645 -0.0810
  244SOL     OW  730   1.302   3.026   2.966 -0.0407 -0.1805 -0.6842
  244SOL    HW1  731   1.210   3.073   2.989 -0.7443  4.3295 -1.6165
  244SOL    HW2  732   1.366   3.043   3.045  0.7013 -0.2714  1.1796
  245SOL     OW  733   1.820   2.737   3.092  0.0701 -0.2973  0.2151
  245SOL    HW1  734   1.841   2.671   0.036  1.8013 -1.6181 -0.4931
  245SOL    HW2  735   1.898   2.801   3.083  2.3291  2.7402  0.1497
  246SOL     OW  736   0.616   0.867   1.490  0.0067 -0.3403  0.3135
  246SOL    HW1  737   0.680   0.838   1.567  2.0743 -2.7178  1.6472
  246SOL    HW2  738   0.661   0.906   1.402  0.7741  1.6385 -1.4627
  247SOL     OW  739   0.336   0.406   2.073  0.2594 -0.1991 -0.3452
  247SOL    HW1  740   0.261   0.337   2.087 -0.6966  0.1485  0.5512
  247SOL    HW2  741   0.306   0.475   2.002 -1.7049 -2.0486  0.7393
  248SOL     OW  742   2.992   1.261   1.990 -0.4088 -0.3447  0.5816
  248SOL    HW1  743   2.892   1.267   1.965 -1.6180 -3.4332 -0.2011
  248SOL    HW2  744   3.003   1.281   2.088  1.2023 -2.2283 -2.3995
  249SOL     OW  745   0.272   0.270   0.164 -0.3394 -0.1066 -0.0417
  249SOL    HW1  746   0.319   0.242   0.252  0.2109 -1.5739  2.5737
  249SOL    HW2  747   0.181   0.230   0.147  4.0878  0.9310 -1.7455
  250SOL     OW  748   2.876   0.229   0.110  0.6147 -0.1324 -0.0959
  250SOL    HW1  749   2.847   0.288   0.190 -1.0547  0.6326  3.0585
  250SOL    HW2  750   2.799   0.227   0.047  2.9866  1.1205  0.3297
  251SOL     OW  751   1.028   1.919   1.815  0.3040  0.0320  1.2493
  251SOL    HW1  752   1.014   1.995   1.744 -1.8197 -0.1400 -1.6418
  251SOL    HW2  753   1.106   1.946   1.869 -0.7395 -2.5497  1.1250
  252SOL     OW  754   1.956   2.135   1.050  0.5090 -0.1408 -0.0148
  252SOL    HW1  755   1.871   2.073   1.042 -2.3009  0.6699  3.1769
  252SOL    HW2  756   1.962   2.176   1.144 -0.0926  1.4103  2.9955
  253SOL     OW  757   1.828   2.120   2.057  0.0509  0.2127 -0.0439
  253SOL    HW1  758   1.743   2.164   2.091 -1.3154 -0.2162  2.7127
  253SOL    HW2  759   1.809   2.032   2.012  2.1143 -0.5768  3.7269
  254SOL     OW  760   0.813   2.159   2.062 -0.0445 -0.5386  0.0824
  254SOL    HW1  761   0.746   2.155   1.987  0.8561  0.7198  2.9295
  254SOL    HW2  762   0.871   2.245   2.053  1.8104 -0.3315  2.5887
  255SOL     OW  763   1.046   0.189   1.354  0.1480  0.4548 -0.0846
  255SOL    HW1  764   1.059   0.187   1.251 -0.1986  0.3681 -1.1087
  255SOL    HW2  765   1.102   0.116   1.394  1.6025 -1.5768  2.5918
  256SOL     OW  766   2.243   2.217   1.564 -0.2048 -0.1461  0.3623
  256SOL    HW1  767   2.244   2.241   1.465 -0.2102 -1.8417  1.0208
  256SOL    HW2  768   2.337   2.226   1.606  4.6294  1.6825 -0.6855
  257SOL     OW  769   0.729   2.292   2.672 -0.1588 -0.8302 -0.4835
  257SOL    HW1  770   0.635   2.328   2.701 -0.8325 -0.6996  0.4508
  257SOL    HW2  771   0.790   2.294   2.755  1.0845 -1.9539 -1.3972
  258SOL     OW  772   0.577   1.041   2.209  0.1234  0.2103 -0.0578
  258SOL    HW1  773   0.567   1.085   2.302 -0.2683 -3.1809  1.3845
  258SOL    HW2  774   0.527   0.955   2.204  2.6556  1.6966 -0.1583
  259SOL     OW  775   0.667   1.340   1.867  0.2903 -0.6438  0.1744
  259SOL    HW1  776   0.621   1.401   1.801 -0.1666 -1.8097 -1.3224
  259SOL    HW2  777   0.730   1.391   1.930  1.7722 -1.3041  1.9380
  260SOL     OW  778   1.944   1.102   1.156 -0.7125 -0.3402 -0.5989
  260SOL    HW1  779   1.990   1.146   1.075 -1.3210  2.3069  0.7356
  260SOL    HW2  780   1.977   1.144   1.247  1.0948  2.1253  0.9673
  261SOL     OW  781   0.968   3.007   0.929 -0.4481  0.2491 -0.0704
  261SOL    HW1  782   0.939   3.101   0.955 -0.0322  2.2695 -0.1057
  261SOL    HW2  783   1.036   3.016   0.854 -1.4656 -1.8809  0.1065
  262SOL     OW  784   2.039   2.528   2.530  0.0549 -0.2443  0.1520
  262SOL    HW1  785   2.042   2.534   2.635 -1.0102 -2.1778 -0.3472
  262SOL    HW2  786   2.084   2.609   2.491  2.5027  2.3885  1.2960
  263SOL     OW  787   0.161   1.702   2.861 -0.1395 -0.2805 -0.1697
  263SOL    HW1  788   0.176   1.800   2.831  0.2680  0.1571 -1.5723
  263SOL    HW2  789   0.254   1.658   2.886  2.1581 -2.0157  0.6935
  264SOL     OW  790   0.425   1.940   1.474  0.2752  0.0180 -0.5793
  264SOL    HW1  791   0.500   1.988   1.420 -0.1385  1.6086 -1.7634
  264SOL    HW2  792   0.366   2.018   1.516 -0.8726  0.6856  0.1416
  265SOL     OW  793   0.766   0.976   0.606 -0.3894  0.0169 -0.5182
  265SOL    HW1  794   0.734   0.895   0.657 -1.2903  2.1863 -0.1374
  265SOL    HW2  795   0.869   0.981   0.587  1.0782  0.9921 -0.7144
  266SOL     OW  796   1.298   1.849   3.019 -0.2517  0.1147  0.6399
  266SOL    HW1  797   1.391   1.886   2.999  2.1273  1.0790  2.1514
  266SOL    HW2  798   1.283   1.758   2.973 -3.3091 -0.4873 -1.2427
  267SOL     OW  799   0.679   0.835   2.687 -0.4954  0.2745  0.4752
  267SOL    HW1  800   0.702   0.822   2.782  1.1292 -0.6688  1.6687
  267SOL    HW2  801   0.742   0.909   2.653  0.3098  2.4107  1.4679
  268SOL     OW  802   0.965   0.697   0.007 -0.4062 -0.5020 -0.5067
  268SOL    HW1  803   0.925   0.783   0.050  1.3466  0.7200 -1.0116
  268SOL    HW2  804   1.069   0.695   0.011  1.2566 -2.0280  2.3339
  269SOL     OW  805   2.036   3.037   2.717  0.5428  0.2559  0.1151
  269SOL    HW1  806   1.995   3.099   2.646  0.3130  0.9060  0.1158
  269SOL    HW2  807   1.962   3.006   2.777 -0.6243  2.1790  3.2000
  270SOL     OW  808   0.986   0.914   2.705  0.4996  0.3590  0.0193
  270SOL    HW1  809   1.076   0.864   2.709  2.8343  0.5224 -2.0826
  270SOL    HW2  810   0.950   0.929   2.800 -0.4446 -0.3812  1.6391
  271SOL     OW  811   0.247   0.562   0.217 -0.1482  0.0486  0.1838
  271SOL    HW1  812   0.288   0.627   0.151 -0.6588  0.0409 -0.8196
  271SOL    HW2  813   0.263   0.464   0.183  1.2986 -2.1184 -3.2018
  272SOL     OW  814   2.426   1.265   2.567  0.1077  0.0590  0.0897
  272SOL    HW1  815   2.393   1.234   2.654  0.6796  0.2281  0.9425
  272SOL    HW2  816   2.496   1.204   2.521  0.1982 -4.7540 -1.4587
  273SOL     OW  817   0.093   0.235   2.379 -0.4137 -0.4016  0.0728
  273SOL    HW1  818   0.134   0.319   2.424 -0.1527  3.5438 -0.0094
  273SOL    HW2  819   0.118   0.150   2.425 -2.6427  0.2170  0.3296
  274SOL     OW  820   0.135   0.219   2.115  0.2900 -0.2716  0.4349
  274SOL    HW1  821   0.161   0.117   2.110 -1.0576 -3.2213  1.1489
  274SOL    HW2  822   0.094   0.235   2.206  0.5091  0.5665 -0.7788
  275SOL     OW  823   2.036   1.337   0.311 -0.0075 -0.2486  0.9296
  275SOL    HW1  824   2.070   1.399   0.234  2.4501  2.0340  0.1900
  275SOL    HW2  825   2.051   1.241   0.287  0.5596 -1.1391  1.7494
  276SOL     OW  826   0.477   1.036   2.926 -0.3663  0.5609 -0.8347
  276SOL    HW1  827   0.437   0.942   2.944  1.1406  0.7873  1.2737
  276SOL    HW2  828   0.440   1.072   2.839  0.9617  2.2135 -1.4060
  277SOL     OW  829   1.662   2.851   2.427 -0.2815 -0.6395  0.4043
  277SOL    HW1  830   1.735   2.777   2.430 -2.5867  1.4467  0.1704
  277SOL    HW2  831   1.668   2.917   2.501 -0.5083 -1.7592 -2.0995
  278SOL     OW  832   1.996   0.140   1.615  0.7233 -0.0039 -0.5062
  278SOL    HW1  833   1.931   0.217   1.628  0.3872  0.9467 -2.4532
  278SOL    HW2  834   1.948   0.062   1.566 -2.2295  0.7807 -0.2086
  279SOL     OW  835   1.568   1.390   2.957 -0.6541 -0.4529 -0.4796
  279SOL    HW1  836   1.523   1.386   2.864 -2.1875 -1.0730 -1.9688
  279SOL    HW2  837   1.655   1.333   2.962  3.9727 -0.1374 -0.3204
  280SOL     OW  838   0.809   1.296   0.142  0.5914 -0.8624 -0.5713
  280SOL    HW1  839   0.803   1.385   0.089 -0.4539  2.3470  1.4438
  280SOL    HW2  840   0.724   1.283   0.197  0.9140 -1.0281  2.6894
  281SOL     OW  841   3.006   3.043   1.773 -0.3321 -0.9603  0.0119
  281SOL    HW1  842   3.048   3.004   1.855 -1.9518 -3.6863 -0.1583
  281SOL    HW2  843   2.908   3.063   1.793 -0.2991  2.2189 -1.1547
  282SOL     OW  844   0.011   2.409   0.686  0.0814 -0.1115  0.0802
  282SOL    HW1  845   3.102   2.377   0.600 -0.1424 -0.0178  1.0915
  282SOL    HW2  846   0.080   2.485   0.670  0.7559  2.2744  2.2308
  283SOL     OW  847   1.187   2.275   1.965 -0.0575  0.2583  0.6466
  283SOL    HW1  848   1.094   2.316   1.980  0.4989 -0.1116  1.3875
  283SOL    HW2  849   1.236   2.314   1.884 -0.2997  0.9540  1.1975
  284SOL     OW  850   2.408   0.612   0.449  0.3902 -0.0689  0.1689
  284SOL    HW1  851   2.321   0.612   0.505 -3.5711  1.7668 -0.1125
  284SOL    HW2  852   2.411   0.698   0.392  0.1106 -2.2053 -1.4007
  285SOL     OW  853   3.088   2.824   2.606 -0.0733 -0.6453 -0.5298
  285SOL    HW1  854   3.096   2.808   2.511  0.1400 -1.3250  3.9902
  285SOL    HW2  855   0.048   2.834   2.650 -1.0966  1.2417 -1.4772
  286SOL     OW  856   1.969   2.566   1.305  0.3449 -0.0988 -0.0421
  286SOL    HW1  857   2.063   2.562   1.343  0.1196  1.4115 -1.3366
  286SOL    HW2  858   1.904   2.512   1.365 -3.5530 -1.3938  0.9259
  287SOL     OW  859   0.714   1.475   1.064 -0.5311  0.3548  0.1162
  287SOL    HW1  860   0.680   1.469   0.965  0.1358  2.0028  0.5643
  287SOL    HW2  861   0.654   1.536   1.118 -1.5053 -1.6772 -1.2230
  288SOL     OW  862   1.924   2.553   0.132 -0.2337  0.1065  0.5880
  288SOL    HW1  863   2.028   2.568   0.139  0.3213  1.0587 -0.8863
  288SOL    HW2  864   1.899   2.468   0.087 -1.3902  0.3119  0.5296
  289SOL     OW  865   0.773   2.045   2.550  0.4303 -0.0958 -0.1513
  289SOL    HW1  866   0.752   2.042   2.448 -0.6260 -2.3722  1.7500
  289SOL    HW2  867   0.759   2.135   2.590  0.3692 -2.8058 -2.5988
  290SOL     OW  868   1.226   1.986   1.096  0.2810 -0.2290 -0.3156
  290SOL    HW1  869   1.188   2.081   1.117 -1.2148  4.1762  0.1141
  290SOL    HW2  870   1.187   1.947   1.013  2.0208 -0.1172 -0.6644
  291SOL     OW  871   1.707   1.563   2.697 -0.5336 -0.3474 -0.3178
  291SOL    HW1  872   1.646   1.559   2.614 -2.2117  0.0743 -1.2775
  291SOL    HW2  873   1.672   1.517   2.779  1.3552 -0.7805 -1.1893
  292SOL     OW  874   1.466   1.657   1.026 -0.1161  0.1158 -0.7983
  292SOL    HW1  875   1.457   1.756   1.007  1.7020 -0.8539  0.2752
  292SOL    HW2  876   1.462   1.631   1.127  0.8095  1.2872  0.7043
  293SOL     OW  877   1.915   2.917   0.887 -0.2075 -0.5718  0.1597
  293SOL    HW1  878   2.011   2.899   0.909 -2.1329 -1.3878 -1.9460
  293SOL    HW2  879   1.872   2.835   0.844 -1.0545 -2.5440 -0.9775
  294SOL     OW  880   0.005   1.128   2.618 -0.1585  0.0638  0.0369
  294SOL    HW1  881   3.072   1.205   2.620 -0.4161  0.7825  1.1975
  294SOL    HW2  882   0.059   1.123   2.533  0.4761  0.1180  2.5572
  295SOL     OW  883   1.329   2.221   2.714 -0.6365 -0.0019  0.3860
  295SOL    HW1  884   1.293   2.310   2.692  2.5290 -2.6957  0.1286
  295SOL    HW2  885   1.412   2.242   2.765 -0.0510  0.6107 -2.3815
  296SOL     OW  886   2.008   1.111   2.197  0.2735  0.1990 -0.4613
  296SOL    HW1  887   1.984   1.011   2.188  2.5104 -3.3804  2.2697
  296SOL    HW2  888   1.964   1.149   2.281 -3.1537 -0.2062 -0.2303
  297SOL     OW  889   0.161   0.616   2.187 -0.2681  0.2559 -0.2435
  297SOL    HW1  890   0.215   0.533   2.153  2.4341  1.2530 -2.1016
  297SOL    HW2  891   0.075   0.634   2.137  0.0831 -1.6435 -2.3365
  298SOL     OW  892   0.959   2.389   2.078  0.4745 -0.1284  0.1131
  298SOL    HW1  893   0.930   2.484   2.112  0.8862  0.8515  0.2972
  298SOL    HW2  894   0.980   2.332   2.159 -0.5840  0.8893 -1.2105
  299SOL     OW  895   0.864   2.925   2.791 -0.0823 -0.6268 -0.5379
  299SOL    HW1  896   0.817   2.915   2.877  2.9147  2.9057 -1.0057
  299SOL    HW2  897   0.909   2.838   2.758  0.4837 -0.7784 -0.6512
  300SOL     OW  898   0.333   0.804   2.970 -0.4777 -0.3792  0.0568
  300SOL    HW1  899   0.247   0.853   2.948  0.6827  2.1362  0.9819
  300SOL    HW2  900   0.353   0.808   3.070  0.4235  1.9914 -1.0500
  301SOL     OW  901   1.789   1.137   1.583  0.2657  0.3286  0.4991
  301SOL    HW1  902   1.693   1.154   1.566  0.9527  2.2642  1.4707
  301SOL    HW2  903   1.834   1.205   1.640  0.1119 -0.2465  0.4040
  302SOL     OW  904   2.556   1.953   2.707 -0.2401  0.5705  0.1626
  302SOL    HW1  905   2.626   1.962   2.636 -1.3421  0.6542  1.7626
  302SOL    HW2  906   2.525   1.853   2.710  0.1891 -4.0072 -0.6522
  303SOL     OW  907   3.125   0.246   2.738  0.4696 -0.1160 -0.0021
  303SOL    HW1  908   0.045   0.166   2.701  0.9524  1.2489  1.0441
  303SOL    HW2  909   3.124   0.324   2.676 -1.7153  1.4317  3.6998
  304SOL     OW  910   2.963   0.783   1.544 -0.1910  0.5900 -0.2961
  304SOL    HW1  911   3.037   0.767   1.616  2.0609  1.8921  0.8042
  304SOL    HW2  912   2.885   0.837   1.581 -1.4014  0.5190  0.3024
  305SOL     OW  913   2.740   3.081   1.833  0.4593 -0.2659 -0.3220
  305SOL    HW1  914   2.769   0.033   1.888 -1.0834  1.1534  0.1924
  305SOL    HW2  915   2.640   3.084   1.819 -0.2064  2.2096  1.8014
  306SOL     OW  916   2.973   1.382   1.437  0.6424 -0.0934  0.0266
  306SOL    HW1  917   2.938   1.334   1.521  0.2963 -0.5780 -1.4088
  306SOL    HW2  918   2.986   1.316   1.361  1.8652 -1.1836 -0.6521
  307SOL     OW  919   2.129   0.530   1.167 -0.3787  0.0242 -0.0445
  307SOL    HW1  920   2.096   0.627   1.176  0.6596  2.6103  1.5449
  307SOL    HW2  921   2.117   0.491   1.071  0.4851 -0.7734  1.3733
  308SOL     OW  922   3.118   2.025   1.243 -0.4818 -0.4830  0.0817
  308SOL    HW1  923   0.076   2.060   1.208  1.9778 -0.0255 -3.3391
  308SOL    HW2  924   3.046   2.090   1.210 -0.2369 -0.6648 -3.5742
  309SOL     OW  925   2.404   1.971   1.571 -1.0524  0.0245  0.3926
  309SOL    HW1  926   2.357   2.007   1.483 -0.6254  0.3123 -1.9734
  309SOL    HW2  927   2.419   2.038   1.645 -0.3639 -1.4106 -1.9988
  310SOL     OW  928   2.470   1.729   3.006 -0.6515  0.2152  0.0419
  310SOL    HW1  929   2.399   1.792   3.042  2.2914 -1.8333  0.7150
  310SOL    HW2  930   2.559   1.780   3.008  3.2789  1.2069  1.6426
  311SOL     OW  931   2.352   1.247   2.840 -0.0812  0.0242  0.9012
  311SOL    HW1  932   2.413   1.310   2.889 -4.3664 -0.2437 -0.9932
  311SOL    HW2  933   2.257   1.285   2.837 -0.9808 -1.8901  1.3659
  312SOL     OW  934   1.468   2.275   1.478 -0.3591  0.4501 -0.2630
  312SOL    HW1  935   1.527   2.361   1.458  0.3076 -1.7793 -1.1361
  312SOL    HW2  936   1.492   2.234   1.567 -0.4070  0.3341  2.7524
  313SOL     OW  937   0.248   2.588   1.263 -0.3990 -0.1245  0.6820
  313SOL    HW1  938   0.314   2.538   1.202 -0.1854  1.5924  1.7372
  313SOL    HW2  939   0.243   2.546   1.357  0.7767 -1.8741  0.8191
  314SOL     OW  940   0.861   1.636   1.539 -0.2749 -0.1053 -0.7297
  314SOL    HW1  941   0.769   1.679   1.542  0.6565  3.8255 -0.5837
  314SOL    HW2  942   0.908   1.632   1.630  0.9803 -2.7051  2.6254
  315SOL     OW  943   0.616   2.876   2.602 -0.3849 -0.3204 -0.0936
  315SOL    HW1  944   0.702   2.918   2.564  0.0278 -0.5673 -3.1648
  315SOL    HW2  945   0.616   2.778   2.583  0.0164  2.4581  0.9300
  316SOL     OW  946   2.935   2.115   0.846  0.0930  0.3729 -0.4454
  316SOL    HW1  947   2.913   2.125   0.747  1.4794  0.5668  0.9203
  316SOL    HW2  948   3.023   2.065   0.859 -0.6492  0.3758  0.5406
  317SOL     OW  949   1.920   0.780   0.545  0.5026 -0.0382 -0.3387
  317SOL    HW1  950   1.931   0.737   0.636 -0.9806  3.4485  0.7317
  317SOL    HW2  951   2.010   0.799   0.500  0.4781 -0.7457  0.6566
  318SOL     OW  952   2.888   2.523   0.114  0.2469 -0.0914  0.4816
  318SOL    HW1  953   2.837   2.613   0.115  1.1961  0.3589 -1.9612
  318SOL    HW2  954   2.892   2.487   0.208  2.3050 -1.1704 -1.2751
  319SOL     OW  955   1.254   1.676   0.218  0.7958  0.0475  0.2568
  319SOL    HW1  956   1.354   1.667   0.202  2.4115  0.2830 -3.5366
  319SOL    HW2  957   1.242   1.767   0.254  0.7514 -3.4773 -1.7028
  320SOL     OW  958   0.576   2.622   2.570 -0.2978  0.0460  0.3586
  320SOL    HW1  959   0.497   2.594   2.507  0.4290 -1.5918 -0.8806
  320SOL    HW2  960   0.565   2.585   2.664 -1.9151 -2.0137 -0.2515
  321SOL     OW  961   1.109   0.102   0.379  0.5145  0.2522  0.3997
  321SOL    HW1  962   1.048   0.049   0.441  0.5144  0.0344  0.8671
  321SOL    HW2  963   1.133   0.042   0.300 -1.6889  1.7664 -0.8484
  322SOL     OW  964   2.293   1.102   2.190 -0.6906 -0.5767 -0.6504
  322SOL    HW1  965   2.195   1.109   2.209  2.6352 -0.3549 -0.8183
  322SOL    HW2  966   2.336   1.014   2.223  2.1251 -3.4014 -1.8453
  323SOL     OW  967   2.951   0.758   0.350 -0.3772  0.0490  0.0326
  323SOL    HW1  968   3.025   0.685   0.362  1.9938 -0.8712 -0.0849
  323SOL    HW2  969   2.990   0.852   0.359  3.3308 -1.0611 -1.2588
  324SOL     OW  970   0.091   0.478   2.546 -0.6170 -0.1063  0.0791
  324SOL    HW1  971   0.068   0.575   2.545 -0.7222 -2.1746  1.3736
  324SOL    HW2  972   0.189   0.462   2.569 -0.8399 -0.8438 -0.0313
  325SOL     OW  973   0.821   3.048   2.485 -0.1942 -0.0145 -0.0377
  325SOL    HW1  974   0.809   3.119   2.409 -2.0862 -2.2348 -1.4489
  325SOL    HW2  975   0.830   3.098   2.572 -0.4448  0.5057 -1.1540
  326SOL     OW  976   2.558   2.669   1.244  0.5254 -0.2315  0.2696
  326SOL    HW1  977   2.462   2.671   1.207 -2.0292  0.8123 -0.2310
  326SOL    HW2  978   2.586   2.755   1.291  1.4941 -0.8736 -0.6255
  327SOL     OW  979   1.860   0.806   0.236 -0.1349  0.7500 -0.4606
  327SOL    HW1  980   1.801   0.859   0.296 -1.4005 -0.0711 -3.0923
  327SOL    HW2  981   1.839   0.704   0.230  0.2651 -0.4750  1.9121
  328SOL     OW  982   2.954   1.904   2.002  0.4571 -0.2342 -0.2217
  328SOL    HW1  983   3.027   1.892   2.067  0.5570 -2.4018 -0.8361
  328SOL    HW2  984   2.862   1.933   2.042 -2.4221  3.2979 -0.1819
  329SOL     OW  985   2.015   2.947   1.810  0.1784  0.4476 -0.0281
  329SOL    HW1  986   2.026   3.038   1.855 -0.5913  1.2602 -0.2288
  329SOL    HW2  987   1.918   2.928   1.778 -2.9482 -0.0850  2.0506
  330SOL     OW  988   2.521   1.650   1.857  0.4785 -0.2936  0.4619
  330SOL    HW1  989   2.524   1.553   1.894  1.8981 -0.2948 -1.0524
  330SOL    HW2  990   2.613   1.676   1.823 -1.8276 -0.2139  0.4984
  331SOL     OW  991   2.898   2.185   1.120  0.5171 -0.5876  0.3389
  331SOL    HW1  992   2.927   2.176   1.025  3.7449 -0.3131  1.3539
  331SOL    HW2  993   2.840   2.272   1.127  0.3271  2.5666  0.5536
  332SOL     OW  994   0.374   3.026   0.511  0.0816 -0.3276  0.2658
  332SOL    HW1  995   0.445   3.091   0.471  0.3494  1.0870 -3.0304
  332SOL    HW2  996   0.328   2.965   0.439 -0.8690 -1.7397 -0.2941
  333SOL     OW  997   1.942   0.332   2.451 -0.0152 -0.1276  0.4520
  333SOL    HW1  998   1.906   0.244   2.477  0.9757 -0.0187 -0.2236
  333SOL    HW2  999   2.039   0.318   2.415  0.1519  0.1226 -0.6091
  334SOL     OW 1000   0.652   1.449   0.801  0.1282 -0.4588  0.3861
  334SOL    HW1 1001   0.666   1.351   0.807  1.6272  1.1293  0.2390
  334SOL    HW2 1002   0.665   1.475   0.701  0.8366  1.5991 -1.4452
  335SOL     OW 1003   3.098   2.798   2.329 -0.6169 -0.0849 -0.0226
  335SOL    HW1 1004   3.075   2.891   2.292 -1.3213 -2.8504  0.9050
  335SOL    HW2 1005   3.058   2.722   2.270 -0.4491  0.6028  0.0282
  336SOL     OW 1006   2.777   0.196   1.954  1.0091 -0.4256  0.1694
  336SOL    HW1 1007   2.744   0.153   2.043 -1.8757  1.1523  3.2905
  336SOL    HW2 1008   2.852   0.260   1.963  0.6225 -2.0250  1.6007
  337SOL     OW 1009   2.010   1.390   0.575  0.2999 -0.2471  0.0264
  337SOL    HW1 1010   2.107   1.403   0.607  1.4488  0.3419 -0.3757
  337SOL    HW2 1011   2.015   1.364   0.472 -0.3851  0.7482 -0.3707
  338SOL     OW 1012   0.790   1.758   0.962  0.5772  0.5676 -0.1232
  338SOL    HW1 1013   0.740   1.816   0.892 -0.0624  2.1500  0.4499
  338SOL    HW2 1014   0.746   1.773   1.055  0.9520  2.3622  4.3963
  339SOL     OW 1015   2.974   0.804   1.022 -0.0240  0.2212 -0.2643
  339SOL    HW1 1016   2.875   0.840   1.012 -0.6098  1.1536 -1.5051
  339SOL    HW2 1017   2.967   0.713   1.078 -1.4212 -2.5501  2.0225
  340SOL     OW 1018   1.434   2.794   2.261 -0.3334 -0.1638 -0.1524
  340SOL    HW1 1019   1.363   2.723   2.260 -2.8439 -0.0161 -0.2434
  340SOL    HW2 1020   1.499   2.777   2.337  3.5068 -1.3202  3.4210
  341SOL     OW 1021   2.271   1.397   0.659 -0.1768  0.9461  0.0118
  341SOL    HW1 1022   2.333   1.435   0.733 -0.4118  0.4110  1.5846
  341SOL    HW2 1023   2.319   1.309   0.633  1.1872 -1.7935  1.0477
  342SOL     OW 1024   2.994   1.562   0.829 -0.7030  0.5964  0.2245
  342SOL    HW1 1025   2.954   1.601   0.913 -0.2246 -1.1813 -2.5969
  342SOL    HW2 1026   2.986   1.629   0.748  2.4872  1.4180 -1.5023
  343SOL     OW 1027   2.617   1.280   1.617  1.0768  0.2319 -0.1850
  343SOL    HW1 1028   2.559   1.223   1.678 -0.5889  0.5971 -0.2599
  343SOL    HW2 1029   2.717   1.280   1.645 -0.4798 -2.5236 -1.4154
  344SOL     OW 1030   1.896   0.876   0.990 -0.0324  0.1895  0.3680
  344SOL    HW1 1031   1.801   0.877   0.948 -3.2632  2.0185  2.0962
  344SOL    HW2 1032   1.910   0.964   1.034  0.2743  0.7899  2.0766
  345SOL     OW 1033   0.159   0.054   2.646  0.6689 -0.6621  0.6881
  345SOL    HW1 1034   0.154   3.093   2.680  0.5822  0.5801 -0.0792
  345SOL    HW2 1035   0.259   0.071   2.645 -0.4673 -2.3439  0.9465
  346SOL     OW 1036   2.923   1.552   0.032 -0.5194 -0.9052  0.2427
  346SOL    HW1 1037   3.020   1.546   3.121  3.0957 -2.5086 -0.6482
  346SOL    HW2 1038   2.855   1.526   3.096 -0.6874 -0.0331 -1.2750
  347SOL     OW 1039   1.720   2.673   1.577 -0.0309 -0.0916 -0.6260
  347SOL    HW1 1040   1.741   2.628   1.662  0.5299  2.9594 -2.5681
  347SOL    HW2 1041   1.802   2.718   1.533  3.6183 -0.0160  0.1101
  348SOL     OW 1042   1.126   1.239   1.673 -0.1093  0.3524 -0.3359
  348SOL    HW1 1043   1.123   1.339   1.650  1.9618 -1.2692 -0.4139
  348SOL    HW2 1044   1.044   1.212   1.730 -1.9241 -0.8136  0.8937
  349SOL     OW 1045   2.254   1.516   2.328  0.0346 -0.1269  0.0617
  349SOL    HW1 1046   2.241   1.441   2.396  1.7337  2.3477 -1.5513
  349SOL    HW2 1047   2.300   1.587   2.379 -2.8017 -1.0045  1.1976
  350SOL     OW 1048   2.502   2.326   0.467 -0.0838  0.1601  0.1961
  350SOL    HW1 1049   2.536   2.344   0.370  2.4816 -2.4763  0.7327
  350SOL    HW2 1050   2.526   2.407   0.524 -0.8740  1.2827 -0.6854
  351SOL     OW 1051   0.347   0.105   1.824  0.4032  0.2819  0.4663
  351SOL    HW1 1052   0.359   0.205   1.846  1.2870  0.9182  2.2348
  351SOL    HW2 1053   0.363   0.092   1.721  1.3484 -0.2209 -1.6434
  352SOL     OW 1054   1.355   2.421   1.734 -0.3637  0.7069  0.0537
  352SOL    HW1 1055   1.355   2.520   1.766 -0.4882  0.9163  0.1475
  352SOL    HW2 1056   1.298   2.399   1.652  1.8809 -3.6508  1.0468
  353SOL     OW 1057   0.991   1.177   2.374  0.1661 -0.2400  0.2665
  353SOL    HW1 1058   0.932   1.150   2.450  3.3460 -0.2190 -0.1031
  353SOL    HW2 1059   1.015   1.094   2.314 -0.4072 -0.6054 -1.9518
  354SOL     OW 1060   1.293   1.567   0.507  0.1153 -0.4363  0.1069
  354SOL    HW1 1061   1.263   1.566   0.410  0.2875  1.1125  2.5246
  354SOL    HW2 1062   1.218   1.577   0.576 -1.2187 -0.9997  2.1152
  355SOL     OW 1063   2.117   0.297   0.963  0.1751 -0.2883 -0.0390
  355SOL    HW1 1064   2.143   0.213   0.918  1.6475 -0.6687  3.7504
  355SOL    HW2 1065   2.034   0.341   0.927  0.6687  0.6390  0.7627
  356SOL     OW 1066   3.094   1.314   2.879  0.1140  0.2783 -0.0388
  356SOL    HW1 1067   0.027   1.235   2.872  1.0172 -2.6860 -2.0823
  356SOL    HW2 1068   2.997   1.283   2.886 -1.6521 -0.5248  0.9467
  357SOL     OW 1069   0.041   2.975   2.022 -0.0672 -0.1552  0.1819
  357SOL    HW1 1070   0.128   3.022   2.046 -2.3202  0.2654 -2.2296
  357SOL    HW2 1071   3.093   3.010   2.080 -0.1025 -0.2250 -3.3969
  358SOL     OW 1072   0.535   1.386   2.904  0.2827 -0.3510 -0.6500
  358SOL    HW1 1073   0.510   1.319   2.836  1.0870 -0.3177  0.9127
  358SOL    HW2 1074   0.495   1.359   2.996  1.1321 -2.3226 -0.2844
  359SOL     OW 1075   2.764   2.722   2.377 -0.6029 -0.3393  0.0957
  359SOL    HW1 1076   2.676   2.669   2.393  0.7649 -0.7163 -0.8363
  359SOL    HW2 1077   2.835   2.658   2.339  1.3012 -3.1199  1.6043
  360SOL     OW 1078   1.521   1.334   1.165 -0.0420  0.4356 -0.2129
  360SOL    HW1 1079   1.456   1.295   1.097 -0.7466  0.9039  5.8359
  360SOL    HW2 1080   1.470   1.391   1.230  2.3877 -1.8657  0.5521
  361SOL     OW 1081   1.950   2.232   1.309 -0.0988 -0.0501 -0.3539
  361SOL    HW1 1082   1.958   2.156   1.371 -0.9928  1.8664 -1.5756
  361SOL    HW2 1083   1.883   2.300   1.350  0.6730 -0.0294  0.8511
  362SOL     OW 1084   1.541   1.454   0.809 -0.3398 -0.2935 -0.1814
  362SOL    HW1 1085   1.641   1.443   0.784  0.3505  0.9527 -0.4450
  362SOL    HW2 1086   1.530   1.531   0.872 -1.2302  0.3483  2.1291
  363SOL     OW 1087   2.221   2.338   0.684 -0.7232 -0.0187 -0.2877
  363SOL    HW1 1088   2.304   2.324   0.743 -1.8272 -1.1127 -1.1885
  363SOL    HW2 1089   2.217   2.436   0.652  4.0533  0.4402 -2.6812
  364SOL     OW 1090   0.101   0.139   1.273 -0.2965 -0.2796 -0.3921
  364SOL    HW1 1091   0.071   0.071   1.200 -0.5249 -0.1944  0.5664
  364SOL    HW2 1092   0.161   0.094   1.344 -0.7867 -1.7329 -0.6844
  365SOL     OW 1093   0.731   2.823   0.754  0.4057 -0.3537 -0.1906
  365SOL    HW1 1094   0.689   2.870   0.836  0.6847  1.9387  0.2115
  365SOL    HW2 1095   0.791   2.746   0.787  0.9929 -2.2032  2.6849
  366SOL     OW 1096   0.232   1.532   0.482 -0.3471  0.1747 -0.4073
  366SOL    HW1 1097   0.319   1.560   0.430  1.8817 -0.4919 -0.1618
  366SOL    HW2 1098   0.227   1.571   0.578  2.4242  0.8937  0.0646
  367SOL     OW 1099   2.664   2.406   2.962  0.0788 -0.4486  0.1660
  367SOL    HW1 1100   2.711   2.385   3.048 -0.5635 -0.5539 -2.9613
  367SOL    HW2 1101   2.675   2.340   2.884  2.1824 -1.3299 -0.2644
  368SOL     OW 1102   2.637   1.912   0.834  0.4131 -0.4078  0.0013
  368SOL    HW1 1103   2.567   1.899   0.761 -0.2064 -3.6238 -0.9827
  368SOL    HW2 1104   2.684   1.827   0.850  0.4882  0.0655  1.7322
  369SOL     OW 1105   1.020   1.022   0.521 -0.2984 -0.0806 -0.3904
  369SOL    HW1 1106   1.005   1.069   0.434  2.9278 -0.2125 -0.8733
  369SOL    HW2 1107   1.111   1.058   0.549  2.0814 -0.9463 -1.3283
  370SOL     OW 1108   0.214   2.866   1.157 -0.4174  0.0313  0.2454
  370SOL    HW1 1109   0.206   2.862   1.057  1.9124  2.8233 -0.1164
  370SOL    HW2 1110   0.208   2.778   1.207 -0.8823 -1.3036  0.4123
  371SOL     OW 1111   2.923   1.294   2.615 -0.3783 -0.4203  0.1912
  371SOL    HW1 1112   2.929   1.363   2.535  0.4078 -0.4456 -1.9974
  371SOL    HW2 1113   2.829   1.291   2.649 -2.6446  1.3050  0.0281
  372SOL     OW 1114   0.603   0.551   2.405 -0.2400 -0.2404 -0.4487
  372SOL    HW1 1115   0.615   0.480   2.336  1.7484  1.4947  0.1028
  372SOL    HW2 1116   0.642   0.521   2.497 -0.6655 -0.7835  3.6943
  373SOL     OW 1117   0.880   0.432   0.110 -0.4135 -0.1148 -0.2724
  373SOL    HW1 1118   0.925   0.522   0.087 -0.0495  0.8402  0.6123
  373SOL    HW2 1119   0.921   0.395   0.194  1.5224 -0.0027 -1.6394
  374SOL     OW 1120   1.104   2.256   0.038 -0.5608 -0.1420  0.7386
  374SOL    HW1 1121   1.199   2.281   0.019 -1.0334 -0.3153 -1.1494
  374SOL    HW2 1122   1.104   2.159   0.007 -1.8099  0.2586 -0.3671
  375SOL     OW 1123   1.049   2.885   1.476 -0.2109  0.1744 -0.1879
  375SOL    HW1 1124   1.029   2.790   1.450 -1.0068 -0.5638 -0.4350
  375SOL    HW2 1125   0.975   2.952   1.450  1.4585 -1.0979 -0.2220
  376SOL     OW 1126   0.269   2.422   1.970  0.1040 -0.4535 -0.3147
  376SOL    HW1 1127   0.354   2.471   1.943 -3.1102  0.0881  0.4764
  376SOL    HW2 1128   0.292   2.362   2.048  0.3360  0.4353  2.0256
  377SOL     OW 1129   2.165   2.139   3.030  0.1388 -0.3264 -0.2755
  377SOL    HW1 1130   2.100   2.217   3.019  1.0087  0.0200  2.3523
  377SOL    HW2 1131   2.215   2.116   2.945  0.4804 -2.1414 -1.1523
  378SOL     OW 1132   2.244   0.320   0.584 -0.4094  0.2427  0.0486
  378SOL    HW1 1133   2.236   0.405   0.638  1.1143  2.8138  0.1832
  378SOL    HW2 1134   2.341   0.289   0.578  0.6966  2.8189 -1.9383
  379SOL     OW 1135   1.227   0.586   0.790 -0.1578  0.3052 -0.9997
  379SOL    HW1 1136   1.257   0.600   0.694 -1.3516  1.7410 -0.0654
  379SOL    HW2 1137   1.168   0.505   0.790  0.9434  1.0905  1.4612
  380SOL     OW 1138   2.590   2.469   2.129 -0.1659 -0.7386 -0.6113
  380SOL    HW1 1139   2.683   2.430   2.128 -0.4609 -0.2640  3.1853
  380SOL    HW2 1140   2.552   2.450   2.044  0.7860  1.4309  3.4489
  381SOL     OW 1141   2.804   1.428   1.859  0.6242  0.5477 -0.5840
  381SOL    HW1 1142   2.835   1.516   1.896  0.9354 -0.2686  1.5616
  381SOL    HW2 1143   2.703   1.422   1.878 -0.8696  1.8975  0.0257
  382SOL     OW 1144   3.113   2.173   2.863  0.0238 -0.8618  0.0873
  382SOL    HW1 1145   3.087   2.260   2.814 -1.7445 -1.4979  0.2966
  382SOL    HW2 1146   3.044   2.148   2.935  0.7692 -1.5114  1.4837
  383SOL     OW 1147   1.330   0.704   2.674  0.5818 -0.0376 -0.3142
  383SOL    HW1 1148   1.332   0.803   2.694 -1.6263 -2.2646  0.2316
  383SOL    HW2 1149   1.246   0.678   2.622  1.3462 -0.0854  2.8581
  384SOL     OW 1150   1.446   1.970   2.217  0.4042  0.6406  0.2953
  384SOL    HW1 1151   1.423   2.003   2.313  0.0556  1.0265  3.6507
  384SOL    HW2 1152   1.362   1.954   2.160 -0.2682  0.5248 -1.0914
  385SOL     OW 1153   2.525   2.644   0.150 -0.3277 -0.2452 -0.1415
  385SOL    HW1 1154   2.519   2.540   0.143  0.2673 -2.9309 -0.7209
  385SOL    HW2 1155   2.520   2.682   0.245  0.7739  1.7264 -1.6275
  386SOL     OW 1156   1.485   1.240   0.635  0.5591 -0.7165  0.3237
  386SOL    HW1 1157   1.503   1.291   0.720 -0.9114  1.0734  0.7644
  386SOL    HW2 1158   1.521   1.145   0.636  1.3168  0.1787 -3.3692
  387SOL     OW 1159   3.132   1.830   1.681 -0.2966 -0.2675  0.0394
  387SOL    HW1 1160   0.086   1.782   1.676  1.5935  1.1515  1.8612
  387SOL    HW2 1161   3.127   1.897   1.604 -1.9636  2.5015  0.1361
  388SOL     OW 1162   0.501   1.104   1.536  0.1994  0.2042 -0.3126
  388SOL    HW1 1163   0.545   1.183   1.484 -1.2994 -0.8984  0.7559
  388SOL    HW2 1164   0.543   1.013   1.517  1.8752  1.2735 -2.2357
  389SOL     OW 1165   2.060   1.039   2.530 -0.6585  0.7439 -0.8810
  389SOL    HW1 1166   2.134   1.000   2.591  0.9021 -4.2491  1.1490
  389SOL    HW2 1167   1.974   1.045   2.585  2.3621  1.5230 -0.0509
  390SOL     OW 1168   0.902   1.891   0.156  0.0112 -0.5998  0.7763
  390SOL    HW1 1169   0.856   1.976   0.191 -0.2404 -0.0538  3.0940
  390SOL    HW2 1170   0.931   1.831   0.233  0.2834  2.4684 -2.6153
  391SOL     OW 1171   1.157   1.894   0.604  0.5004 -0.1505 -0.8159
  391SOL    HW1 1172   1.073   1.834   0.611  2.0917  0.1929  0.0621
  391SOL    HW2 1173   1.180   1.920   0.507 -0.2613 -1.4470 -0.8935
  392SOL     OW 1174   2.759   2.870   2.163 -0.0055 -0.5358  0.0034
  392SOL    HW1 1175   2.776   2.822   2.076 -2.0539  1.3298  0.5460
  392SOL    HW2 1176   2.755   2.807   2.249 -2.7735 -2.1321 -0.7606
  393SOL     OW 1177   1.514   2.216   2.944  0.1101  0.3141 -0.4537
  393SOL    HW1 1178   1.507   2.116   2.935  0.1983  0.2240  0.1055
  393SOL    HW2 1179   1.444   2.260   3.003 -1.7813  1.6648 -2.0842
  394SOL     OW 1180   0.432   0.030   2.567 -0.2987 -0.0023 -0.2016
  394SOL    HW1 1181   0.420   0.067   2.473  2.3999  1.2114  2.6286
  394SOL    HW2 1182   0.484   3.079   2.574 -1.4447 -0.8317  0.0930
  395SOL     OW 1183   0.138   1.456   1.323 -0.3796 -0.3352 -0.2204
  395SOL    HW1 1184   0.143   1.556   1.299  0.3329  0.0020  0.8207
  395SOL    HW2 1185   0.149   1.398   1.242 -0.1800 -0.2066 -0.6339
  396SOL     OW 1186   2.104   1.340   2.873 -0.1068  0.2485  0.1209
  396SOL    HW1 1187   2.019   1.313   2.824  1.9231  0.4165 -1.7148
  396SOL    HW2 1188   2.077   1.406   2.947  3.9693 -0.7716  1.1378
  397SOL     OW 1189   0.590   0.978   0.045  0.3657  0.3508  0.0261
  397SOL    HW1 1190   0.691   0.967   0.072  0.5844 -1.0972 -0.6460
  397SOL    HW2 1191   0.581   1.026   3.091 -1.9126 -1.5629 -2.3019
  398SOL     OW 1192   0.942   2.608   0.278  0.0130  0.3684 -0.3453
  398SOL    HW1 1193   0.996   2.592   0.362  0.3854  3.8503 -1.2908
  398SOL    HW2 1194   0.853   2.654   0.302  2.3218 -0.6209  0.5274
  399SOL     OW 1195   1.832   2.644   2.387 -0.1910  0.1700 -0.0127
  399SOL    HW1 1196   1.905   2.601   2.448 -2.0442 -2.2038 -0.7929
  399SOL    HW2 1197   1.840   2.610   2.288 -0.6465 -0.5192 -0.3005
  400SOL     OW 1198   0.030   1.024   1.983 -0.0404 -0.0822  0.5994
  400SOL    HW1 1199   3.096   1.100   2.000 -0.3936 -0.6369 -1.0413
  400SOL    HW2 1200   0.061   1.029   1.885 -0.3648  1.4063 -2.4384
  401SOL     OW 1201   0.675   0.780   0.791  0.0069 -0.2090  0.0161
  401SOL    HW1 1202   0.663   0.691   0.738  1.7866  0.0077 -0.0122
  401SOL    HW2 1203   0.764   0.778   0.839 -1.8540  0.9198 -4.0902
  402SOL     OW 1204   0.838   0.050   2.716  0.0422  0.1558 -0.7799
  402SOL    HW1 1205   0.785   0.118   2.766 -1.3425 -0.9643 -1.1924
  402SOL    HW2 1206   0.828   3.086   2.751 -0.8346  1.2346 -1.9231
  403SOL     OW 1207   2.679   1.976   1.784 -0.1493 -0.8934  0.1659
  403SOL    HW1 1208   2.767   2.024   1.769 -3.0898  0.2104  0.9421
  403SOL    HW2 1209   2.678   1.885   1.741 -0.5635  1.8335  1.1551
  404SOL     OW 1210   2.577   2.394   1.862  0.8600  0.0607 -0.1064
  404SOL    HW1 1211   2.679   2.407   1.862  1.8384 -1.0718  1.6041
  404SOL    HW2 1212   2.547   2.305   1.818 -1.1847 -1.6762 -0.8779
  405SOL     OW 1213   1.915   0.323   2.751  0.0306 -0.1038 -0.4903
  405SOL    HW1 1214   1.957   0.304   2.663 -1.4285  0.2063 -1.6588
  405SOL    HW2 1215   1.826   0.277   2.755  1.8922  1.9636 -2.3168
  406SOL     OW 1216   1.147   1.978   0.080 -0.7011 -0.7352 -0.2636
  406SOL    HW1 1217   1.202   1.925   0.014 -0.3218 -0.2881  1.3070
  406SOL    HW2 1218   1.061   1.928   0.100  0.1967  1.7597 -0.4564
  407SOL     OW 1219   1.672   1.712   0.594  0.1453  0.3864 -0.4465
  407SOL    HW1 1220   1.616   1.631   0.580  0.4737  2.5215  0.1720
  407SOL    HW2 1221   1.646   1.758   0.685 -0.5263  2.3201  3.8231
  408SOL     OW 1222   2.980   0.236   1.685 -0.1407 -0.1929 -0.0281
  408SOL    HW1 1223   3.072   0.276   1.670  0.5676  0.8744  0.3026
  408SOL    HW2 1224   2.967   0.145   1.635 -0.5158 -0.0764  1.7208
  409SOL     OW 1225   2.503   1.327   3.065 -0.1372 -0.4586 -0.3909
  409SOL    HW1 1226   2.449   1.244   3.089 -1.3581 -2.0625  0.9664
  409SOL    HW2 1227   2.487   1.391   0.006  0.0164 -0.2022 -0.9161
  410SOL     OW 1228   2.427   2.305   0.873 -0.3115  1.0914  0.2457
  410SOL    HW1 1229   2.401   2.253   0.960  0.6279 -1.0817 -0.3240
  410SOL    HW2 1230   2.522   2.278   0.852 -0.1899 -3.1431  0.8345
  411SOL     OW 1231   0.560   0.013   0.376  0.1602  0.9907 -0.0564
  411SOL    HW1 1232   0.522   0.109   0.383 -2.5275 -0.4464  1.7607
  411SOL    HW2 1233   0.633   0.018   0.310 -1.9166  2.3720  0.5751
  412SOL     OW 1234   1.655   2.989   0.407  0.0117 -0.3732 -0.8860
  412SOL    HW1 1235   1.706   3.012   0.319 -1.4575 -2.2188 -1.7406
  412SOL    HW2 1236   1.720   2.972   0.486 -1.6672  1.8122  1.1738
  413SOL     OW 1237   1.825   0.457   2.235  0.4576 -0.3768  0.6383
  413SOL    HW1 1238   1.886   0.420   2.310  0.3775  0.5512  1.0761
  413SOL    HW2 1239   1.786   0.384   2.183  3.4204  1.0797  1.4801
  414SOL     OW 1240   0.059   0.606   0.397 -0.2332 -0.4506  0.0003
  414SOL    HW1 1241   0.122   0.582   0.319 -0.4033 -1.3747 -0.8467
  414SOL    HW2 1242   0.085   0.576   0.490 -0.5420 -0.2475 -3.2090
  415SOL     OW 1243   3.063   1.004   0.393 -0.5259  0.2835  0.2358
  415SOL    HW1 1244   2.988   1.046   0.338  0.1694  0.3630 -0.0862
  415SOL    HW2 1245   3.067   1.049   0.486  1.4269  0.5899  2.3595
  416SOL     OW 1246   0.073   0.348   2.978 -0.0362  0.2275  0.1275
  416SOL    HW1 1247   0.050   0.294   2.893 -3.0800  0.1455 -1.8678
  416SOL    HW2 1248   0.143   0.419   2.958 -0.9294  1.4457 -0.4382
  417SOL     OW 1249   2.612   0.299   0.903  0.5857 -0.6372 -0.6316
  417SOL    HW1 1250   2.523   0.340   0.939 -0.0712  1.5366 -0.8912
  417SOL    HW2 1251   2.694   0.328   0.959  0.4494 -0.2588 -2.8237
  418SOL     OW 1252   0.830   0.015   3.088 -0.2855 -0.0543  0.0509
  418SOL    HW1 1253   0.821   0.045   0.052 -2.4945  1.3380  1.8834
  418SOL    HW2 1254   0.819   3.048   3.087  0.6968 -0.6429  0.6833
  419SOL     OW 1255   0.178   0.712   0.828  0.0106  0.1737 -0.2133
  419SOL    HW1 1256   0.170   0.799   0.769  0.8725  0.7593 -2.5468
  419SOL    HW2 1257   0.169   0.742   0.927 -0.5273 -2.8213 -0.6359
  420SOL     OW 1258   3.019   1.190   1.224  0.2733  0.2897 -0.3884
  420SOL    HW1 1259   3.119   1.194   1.214  2.7463  1.6038  2.7109
  420SOL    HW2 1260   2.982   1.095   1.246  2.0084 -0.9527 -0.7373
  421SOL     OW 1261   1.051   2.014   2.914 -0.5286 -0.9469  0.1913
  421SOL    HW1 1262   1.123   2.003   2.988  0.2417  1.7846  2.2353
  421SOL    HW2 1263   1.099   2.013   2.827 -0.6811 -2.5862  3.3170
  422SOL     OW 1264   2.526   0.464   2.145  0.0629 -0.1426  0.1517
  422SOL    HW1 1265   2.554   0.372   2.114 -0.7518 -1.4705  0.3824
  422SOL    HW2 1266   2.461   0.506   2.083  0.1448  1.9686 -1.2779
  423SOL     OW 1267   1.976   1.517   3.048 -0.0647 -0.4667 -0.2432
  423SOL    HW1 1268   2.007   1.617   3.051  1.8029  2.1335 -1.5516
  423SOL    HW2 1269   1.880   1.515   3.062  2.3137 -0.0219 -2.7775
  424SOL     OW 1270   0.938   0.919   1.847 -0.2085 -0.1166  0.0557
  424SOL    HW1 1271   0.880   0.900   1.928 -1.0353 -1.7001  0.7521
  424SOL    HW2 1272   1.035   0.919   1.878  1.3289 -0.7455  0.4843
  425SOL     OW 1273   0.078   2.599   2.086  0.5026 -0.1246  0.4243
  425SOL    HW1 1274   0.148   2.546   2.035 -1.1487 -1.6594  0.5032
  425SOL    HW2 1275   0.063   2.690   2.039 -2.4595  0.9162 -1.4201
  426SOL     OW 1276   2.161   2.656   0.626  0.1955 -0.4423  0.3092
  426SOL    HW1 1277   2.255   2.676   0.662 -1.4185  2.9001  0.4372
  426SOL    HW2 1278   2.093   2.693   0.689  1.2146  1.7195  0.2203
  427SOL     OW 1279   0.835   0.908   2.940  0.0739  0.1970  0.2631
  427SOL    HW1 1280   0.862   0.989   2.996 -2.3619 -6.7485  2.6082
  427SOL    HW2 1281   0.876   0.821   2.968 -2.7878  3.4549  2.6894
  428SOL     OW 1282   2.758   1.421   2.985  0.1746  0.3582 -0.4437
  428SOL    HW1 1283   2.669   1.380   3.020  1.0047  0.6134  0.5144
  428SOL    HW2 1284   2.795   1.349   2.922 -2.4710  0.6619  0.6331
  429SOL     OW 1285   2.519   0.376   0.395  0.0147 -0.0924 -0.2621
  429SOL    HW1 1286   2.539   0.322   0.482 -0.9984 -2.7395  1.9560
  429SOL    HW2 1287   2.474   0.466   0.414  0.4887  0.7108 -0.3939
  430SOL     OW 1288   1.413   2.068   2.461  0.2945 -0.1130 -0.4559
  430SOL    HW1 1289   1.508   2.036   2.471 -0.0945  0.0955  2.2999
  430SOL    HW2 1290   1.393   2.113   2.548  0.2959  1.1142 -0.5517
  431SOL     OW 1291   0.264   2.124   1.578  0.2117  0.4412 -0.7497
  431SOL    HW1 1292   0.163   2.128   1.567  1.3836  0.1469 -1.6312
  431SOL    HW2 1293   0.285   2.134   1.678 -2.5387  0.4689 -1.0352
  432SOL     OW 1294   1.645   2.775   2.056  0.3261  0.6580 -0.4474
  432SOL    HW1 1295   1.715   2.714   2.092 -3.6585  0.3374 -0.1749
  432SOL    HW2 1296   1.575   2.798   2.132 -3.2228  0.1160  3.1110
  433SOL     OW 1297   0.939   2.235   0.253  0.5046 -0.2129  0.5062
  433SOL    HW1 1298   1.004   2.237   0.173  1.3122  0.7131 -1.7637
  433SOL    HW2 1299   0.847   2.207   0.220 -1.0669 -0.3674 -2.2109
  434SOL     OW 1300   0.347   2.149   2.659 -0.1226  0.1281  0.1175
  434SOL    HW1 1301   0.430   2.092   2.678  3.8619  0.0444  1.5386
  434SOL    HW2 1302   0.329   2.207   2.737  1.9890  0.8972 -1.0530
  435SOL     OW 1303   0.152   0.857   0.396  0.2944  0.6809 -0.4772
  435SOL    HW1 1304   0.092   0.930   0.373  3.0923 -1.9642 -0.8419
  435SOL    HW2 1305   0.103   0.766   0.395  0.8522 -2.1393  0.0273
  436SOL     OW 1306   0.366   2.685   1.763  0.3832 -0.1738 -0.3731
  436SOL    HW1 1307   0.443   2.724   1.711  2.1451  1.4813 -0.6155
  436SOL    HW2 1308   0.385   2.670   1.857 -1.8038  0.6894 -4.3106
  437SOL     OW 1309   0.895   0.150   0.962 -0.5003  0.1549 -0.3296
  437SOL    HW1 1310   0.992   0.146   0.927  0.4227 -0.0313  0.8715
  437SOL    HW2 1311   0.847   0.224   0.910 -0.5870  0.3710  0.6827
  438SOL     OW 1312   0.346   2.237   0.561  0.5019  0.6263 -0.1861
  438SOL    HW1 1313   0.423   2.305   0.579 -0.7816 -0.9457 -2.0248
  438SOL    HW2 1314   0.331   2.176   0.648 -1.1363  0.6722  2.6881
  439SOL     OW 1315   0.824   2.660   1.850  0.1857 -0.1964 -0.4660
  439SOL    HW1 1316   0.781   2.580   1.818 -0.0493  2.2152 -1.4938
  439SOL    HW2 1317   0.908   2.682   1.805 -0.3844 -0.5988  2.8119
  440SOL     OW 1318   1.858   0.025   2.009  0.6881 -0.5174  0.1096
  440SOL    HW1 1319   1.882   0.116   1.962  0.2852  0.7383  1.4203
  440SOL    HW2 1320   1.810   3.092   1.943 -1.7853 -2.2474  0.6053
  441SOL     OW 1321   3.048   0.284   1.969 -0.2940 -0.3184  0.2094
  441SOL    HW1 1322   3.130   0.259   2.025  2.5193 -0.1889  0.1129
  441SOL    HW2 1323   3.043   0.226   1.883 -0.2068  0.4472  0.5292
  442SOL     OW 1324   1.950   2.235   0.634  0.0159  0.3874 -0.4269
  442SOL    HW1 1325   2.031   2.252   0.692 -1.5497  1.3709 -0.1606
  442SOL    HW2 1326   1.909   2.140   0.652 -1.4901 -2.0838 -3.1064
  443SOL     OW 1327   2.803   0.779   2.121  0.5846  0.6552  0.2937
  443SOL    HW1 1328   2.713   0.799   2.078  0.1113 -2.6010  0.9704
  443SOL    HW2 1329   2.785   0.703   2.187  0.2919  1.0477 -1.4256
  444SOL     OW 1330   1.771   0.900   2.206 -0.5379 -0.0680 -0.0147
  444SOL    HW1 1331   1.742   0.930   2.114 -0.0469 -2.1448 -5.5756
  444SOL    HW2 1332   1.834   0.820   2.202  0.7333  2.3746  0.3929
  445SOL     OW 1333   2.998   2.404   0.945  0.2800  0.5692  0.3576
  445SOL    HW1 1334   3.050   2.479   0.985 -0.3603 -4.3861 -0.5791
  445SOL    HW2 1335   3.036   2.364   0.860 -2.7220  3.8032  2.5464
  446SOL     OW 1336   2.896   1.641   1.058 -0.3243  0.1235 -0.1314
  446SOL    HW1 1337   2.915   1.720   1.118  2.1478  0.5378 -1.9051
  446SOL    HW2 1338   2.925   1.552   1.099 -0.5788 -0.9763  1.9751
  447SOL     OW 1339   0.537   1.018   0.919 -0.0759  0.5014  0.0840
  447SOL    HW1 1340   0.568   0.933   0.869 -1.2464 -1.4171 -2.2303
  447SOL    HW2 1341   0.611   1.086   0.892  0.6426 -0.9068  2.3394
  448SOL     OW 1342   1.608   1.424   1.878 -0.2754 -0.0771 -0.5479
  448SOL    HW1 1343   1.527   1.376   1.844  0.4278  0.0237 -2.4263
  448SOL    HW2 1344   1.636   1.377   1.968  0.4273 -4.1270  3.9098
  449SOL     OW 1345   1.171   1.408   3.087 -1.2538  0.3239  0.2357
  449SOL    HW1 1346   1.254   1.364   3.053 -1.7562  2.1874  0.5404
  449SOL    HW2 1347   1.097   1.367   3.033  0.7808  0.1972  2.7576
  450SOL     OW 1348   2.854   2.360   2.088 -0.5569 -0.0639 -0.2794
  450SOL    HW1 1349   2.905   2.433   2.132 -0.5818 -1.8403  0.4875
  450SOL    HW2 1350   2.873   2.364   1.990 -0.4341  0.0807  1.6230
  451SOL     OW 1351   2.307   0.076   2.381  0.1436  0.0832  0.5652
  451SOL    HW1 1352   2.270   3.120   2.356  2.1114  0.9609  1.0200
  451SOL    HW2 1353   2.369   0.058   2.457 -0.8611  2.8232 -0.8318
  452SOL     OW 1354   1.761   0.331   1.140  0.0853 -0.8532 -0.6964
  452SOL    HW1 1355   1.668   0.288   1.143 -0.8871  2.3964 -0.6237
  452SOL    HW2 1356   1.776   0.371   1.231  2.3067 -2.1681 -1.7094
  453SOL     OW 1357   1.688   1.128   1.239 -0.0577  0.0040  0.2749
  453SOL    HW1 1358   1.782   1.120   1.204  1.5370 -1.0254  1.6246
  453SOL    HW2 1359   1.645   1.214   1.206 -0.2199 -1.0107 -1.7360
  454SOL     OW 1360   3.086   1.469   0.408 -0.6612 -0.1190 -0.4113
  454SOL    HW1 1361   0.048   1.505   0.432 -2.0371 -0.7667 -1.2846
  454SOL    HW2 1362   3.014   1.529   0.453 -1.7703  1.7877 -0.5799
  455SOL     OW 1363   2.861   3.118   0.666  0.0356 -0.5516 -0.4389
  455SOL    HW1 1364   2.924   0.042   0.613  0.7558 -0.9586 -1.6325
  455SOL    HW2 1365   2.859   3.024   0.631  0.0055  1.2272  2.6388
  456SOL     OW 1366   0.054   2.547   1.094  0.0540 -0.0937 -0.6882
  456SOL    HW1 1367   3.103   2.562   1.151  1.1256 -2.4186 -1.6183
  456SOL    HW2 1368   0.143   2.557   1.140  1.5347  0.1012 -3.3724
  457SOL     OW 1369   1.348   0.000   0.668 -0.1838 -0.2271 -0.7853
  457SOL    HW1 1370   1.371   0.021   0.569 -2.3252 -0.8354 -2.7321
  457SOL    HW2 1371   1.426   0.021   0.729 -0.1155  1.2138 -0.4034
  458SOL     OW 1372   2.540   0.236   0.634 -0.3624 -0.1748 -0.0652
  458SOL    HW1 1373   2.563   0.247   0.734  0.0718  0.4537 -1.5395
  458SOL    HW2 1374   2.522   0.138   0.614  0.1287  3.0120  0.0568
  459SOL     OW 1375   2.290   0.648   2.619 -0.1073 -0.4891  0.1645
  459SOL    HW1 1376   2.327   0.620   2.528  0.3422  0.5305  1.1944
  459SOL    HW2 1377   2.336   0.593   2.692 -0.7405  1.9482  0.6762
  460SOL     OW 1378   2.922   3.001   3.000 -0.2467 -0.2783 -0.1244
  460SOL    HW1 1379   2.854   3.078   2.997  0.0648  0.7413  0.1041
  460SOL    HW2 1380   2.875   2.911   3.016  1.2867 -2.2009  1.5833
  461SOL     OW 1381   0.925   1.768   0.617 -0.2858 -0.8842 -0.2241
  461SOL    HW1 1382   0.964   1.701   0.682  0.0471 -1.3870 -1.8632
  461SOL    HW2 1383   0.832   1.803   0.635 -0.2051 -0.4929 -1.5288
  462SOL     OW 1384   2.399   2.166   1.089  0.1250  0.1726  0.3459
  462SOL    HW1 1385   2.325   2.203   1.151 -0.5277 -1.1846 -0.8219
  462SOL    HW2 1386   2.375   2.069   1.063 -0.9228  0.9702 -1.2670
  463SOL     OW 1387   2.683   1.032   0.561 -0.0517  0.6705 -0.1263
  463SOL    HW1 1388   2.652   0.991   0.470 -1.2894  0.8820 -2.7038
  463SOL    HW2 1389   2.746   0.967   0.614  2.9446  0.8593  0.6879
  464SOL     OW 1390   0.262   3.040   1.365  0.6816 -0.0333  1.0197
  464SOL    HW1 1391   0.247   2.978   1.284  1.9933  1.8015 -0.5809
  464SOL    HW2 1392   0.188   3.035   1.435 -1.6040  0.5592 -1.2883
  465SOL     OW 1393   0.029   1.537   3.025  0.3328  0.0081  0.2148
  465SOL    HW1 1394   0.011   1.458   2.968 -0.5873  0.4996 -0.0064
  465SOL    HW2 1395   0.077   1.613   2.978  1.3110 -2.6297  2.4753
  466SOL     OW 1396   1.804   0.027   3.086  0.2553  0.0269  0.2482
  466SOL    HW1 1397   1.903   0.045   3.068 -0.0742  0.4876  0.7414
  466SOL    HW2 1398   1.747   0.115   3.096 -0.0922  1.8329  0.6578
  467SOL     OW 1399   0.786   0.754   1.674 -0.2256  0.2665 -0.0549
  467SOL    HW1 1400   0.720   0.723   1.747 -0.2517  0.3532  1.3147
  467SOL    HW2 1401   0.863   0.805   1.715  0.6380 -2.3735  2.2490
  468SOL     OW 1402   0.553   1.120   2.461 -0.1275  0.0665  0.0422
  468SOL    HW1 1403   0.640   1.108   2.516  2.1709 -0.2450 -1.8178
  468SOL    HW2 1404   0.481   1.063   2.497  1.1948  1.1907 -1.3048
  469SOL     OW 1405   0.117   2.207   0.111  0.2022  0.2828 -0.5314
  469SOL    HW1 1406   0.068   2.294   0.104  0.5793 -0.4067 -0.0092
  469SOL    HW2 1407   0.061   2.129   0.139  1.2599 -1.1627 -2.5917
  470SOL     OW 1408   2.441   1.689   2.727  0.2486 -0.1975 -0.3528
  470SOL    HW1 1409   2.484   1.613   2.676 -0.0645 -1.8610  1.7953
  470SOL    HW2 1410   2.439   1.682   2.833  2.5020  0.4076  1.3402
  471SOL     OW 1411   2.381   0.804   2.311 -0.4696 -0.0093  0.7320
  471SOL    HW1 1412   2.438   0.767   2.385  0.0868 -1.6358 -0.3580
  471SOL    HW2 1413   2.445   0.812   2.231 -1.4235  0.9562  0.2050
  472SOL     OW 1414   0.472   2.737   0.642  0.3563  0.4724 -0.1959
  472SOL    HW1 1415   0.428   2.797   0.572  1.4291 -0.2688  0.6529
  472SOL    HW2 1416   0.553   2.788   0.678  0.8352  0.4588  0.8268
  473SOL     OW 1417   0.674   0.164   2.922 -0.1770  0.3705  0.1117
  473SOL    HW1 1418   0.722   0.097   2.984 -0.8348 -0.3934  2.4366
  473SOL    HW2 1419   0.674   0.256   2.960 -0.7264 -1.4840 -0.5936
  474SOL     OW 1420   1.842   0.089   2.549  0.3051  0.0581 -0.2940
  474SOL    HW1 1421   1.774   0.122   2.621  1.6190 -0.2377  2.9735
  474SOL    HW2 1422   1.796   0.048   2.466 -3.0566  0.2141  1.0574
  475SOL     OW 1423   1.815   2.463   0.609 -0.3763  0.1518  0.1597
  475SOL    HW1 1424   1.854   2.371   0.623  2.1855  0.3308  0.0970
  475SOL    HW2 1425   1.788   2.486   0.516 -3.0984  1.5487  1.3519
  476SOL     OW 1426   0.167   0.504   1.160 -0.4020 -0.8415  0.6327
  476SOL    HW1 1427   0.143   0.595   1.120  1.2371  0.3711  0.3318
  476SOL    HW2 1428   0.143   0.499   1.258  3.4664  2.4393  0.5188
  477SOL     OW 1429   1.355   2.272   0.876 -0.0109  0.3365  0.0999
  477SOL    HW1 1430   1.434   2.242   0.819  3.9893  0.8980  1.3028
  477SOL    HW2 1431   1.276   2.217   0.840  2.5371  0.5129  1.0113
  478SOL     OW 1432   0.193   2.316   2.427  0.2321 -0.5497 -0.4201
  478SOL    HW1 1433   0.234   2.247   2.491 -2.7200  1.6255 -0.5622
  478SOL    HW2 1434   0.194   2.273   2.336 -0.8191  4.3646  0.0076
  479SOL     OW 1435   2.324   0.711   0.886  0.2831  0.6372  0.1035
  479SOL    HW1 1436   2.341   0.713   0.987 -0.2418  1.2565  0.5388
  479SOL    HW2 1437   2.342   0.801   0.849  0.0632  1.2440  0.9172
  480SOL     OW 1438   3.049   2.894   0.165 -0.1150 -0.2654 -0.1883
  480SOL    HW1 1439   3.026   2.989   0.191 -0.4545  0.6451 -0.3367
  480SOL    HW2 1440   0.001   2.879   0.111  0.8050 -1.5611 -3.1556
  481SOL     OW 1441   2.737   2.469   1.161 -0.1632 -0.9938 -0.4749
  481SOL    HW1 1442   2.780   2.502   1.073 -1.2394 -0.1604  0.8253
  481SOL    HW2 1443   2.660   2.536   1.189 -4.2949  1.1226 -3.2634
  482SOL     OW 1444   1.000   2.472   2.868 -0.3923 -0.7521 -0.0423
  482SOL    HW1 1445   1.103   2.479   2.884  0.3991 -1.1141 -0.2160
  482SOL    HW2 1446   0.957   2.550   2.814  0.6729  2.8976  0.6721
  483SOL     OW 1447   0.560   1.977   2.688  0.8408  0.4579  0.1504
  483SOL    HW1 1448   0.590   1.979   2.787  2.3602 -0.2723 -0.2669
  483SOL    HW2 1449   0.642   1.999   2.630  1.2116  0.7030  0.0854
  484SOL     OW 1450   1.079   0.912   1.316 -0.0380 -0.0582  0.4851
  484SOL    HW1 1451   1.167   0.869   1.316 -1.6950  0.0694 -1.6307
  484SOL    HW2 1452   1.056   0.936   1.410 -0.2340 -0.6354 -1.2452
  485SOL     OW 1453   2.264   0.797   0.042  0.1968  0.4039  0.2707
  485SOL    HW1 1454   2.226   0.703   0.028 -1.7661  0.7019 -0.7791
  485SOL    HW2 1455   2.350   0.803   3.114  1.0745 -0.4902 -2.2499
  486SOL     OW 1456   2.112   3.091   1.219  0.1936 -0.1067  0.1978
  486SOL    HW1 1457   2.114   2.999   1.276 -1.6206 -2.6217  1.3429
  486SOL    HW2 1458   2.109   0.037   1.289  2.8493  0.7476 -0.4126
  487SOL     OW 1459   0.194   2.233   1.280  0.3948  0.2151 -0.4531
  487SOL    HW1 1460   0.252   2.189   1.352 -2.4480  4.0661  2.1036
  487SOL    HW2 1461   0.115   2.290   1.325 -2.0740 -0.4930  2.0415
  488SOL     OW 1462   2.739   1.005   3.084 -0.7433 -0.0135  0.4681
  488SOL    HW1 1463   2.658   1.024   0.004  3.9478  0.2795 -0.8653
  488SOL    HW2 1464   2.745   0.899   3.073 -0.8664 -0.3582  0.1758
  489SOL     OW 1465   1.910   0.077   1.104 -0.0555  0.3219 -0.0792
  489SOL    HW1 1466   1.988   0.049   1.160  0.1849  1.2500 -0.1788
  489SOL    HW2 1467   1.877   0.169   1.134 -0.2131 -0.8900  1.6224
  490SOL     OW 1468   0.905   0.555   0.641  0.1697  0.0067 -0.4760
  490SOL    HW1 1469   0.803   0.559   0.642 -0.3146 -0.8598 -0.6140
  490SOL    HW2 1470   0.948   0.615   0.570  3.6738  2.2909  1.3229
  491SOL     OW 1471   0.479   2.468   0.574 -0.2116  0.5677  0.1760
  491SOL    HW1 1472   0.524   2.463   0.483 -0.2081 -1.0072 -1.6844
  491SOL    HW2 1473   0.477   2.560   0.612 -4.3508 -2.2472  1.1947
  492SOL     OW 1474   1.429   1.475   2.142  0.3561  0.3030  0.5898
  492SOL    HW1 1475   1.379   1.439   2.057 -0.6986  0.1135 -1.8815
  492SOL    HW2 1476   1.390   1.428   2.224  1.1282  0.2385  2.0400
  493SOL     OW 1477   3.118   2.771   0.943  1.0103 -0.0678 -0.7086
  493SOL    HW1 1478   3.019   2.774   0.915 -2.0158 -0.6501 -0.6235
  493SOL    HW2 1479   0.006   2.703   1.019 -0.4836  0.5071  1.6133
  494SOL     OW 1480   2.868   2.064   0.063 -0.1972 -0.0287  0.4564
  494SOL    HW1 1481   2.820   1.994   0.115 -0.0488 -3.0817  0.3367
  494SOL    HW2 1482   2.889   2.040   3.096  0.3262 -0.0185  1.2051
  495SOL     OW 1483   2.690   1.837   2.912  0.2901 -0.5053 -0.7258
  495SOL    HW1 1484   2.651   1.911   2.854  1.0776 -3.7047 -0.9038
  495SOL    HW2 1485   2.701   1.750   2.860  1.3977  3.1344 -1.8307
  496SOL     OW 1486   2.627   0.006   1.489  0.5781  0.1115  0.0991
  496SOL    HW1 1487   2.628   0.101   1.450  1.6277 -2.0213  0.6673
  496SOL    HW2 1488   2.528   3.114   1.512 -0.0412 -0.9772 -2.4453
  497SOL     OW 1489   2.854   1.182   2.893  0.2231  0.1793 -0.5317
  497SOL    HW1 1490   2.791   1.148   2.823  3.4744  0.2958  1.6834
  497SOL    HW2 1491   2.847   1.114   2.967 -3.6782 -0.4468 -0.2184
  498SOL     OW 1492   0.050   1.941   2.147  0.3096 -0.5181 -0.2718
  498SOL    HW1 1493   0.041   2.021   2.082  0.6391  0.2944  2.1971
  498SOL    HW2 1494   0.058   1.978   2.241  1.1577 -0.2680 -0.5866
  499SOL     OW 1495   0.876   2.242   2.911  0.2652  0.8784 -0.0034
  499SOL    HW1 1496   0.935   2.161   2.898 -2.5099  2.1685 -0.3829
  499SOL    HW2 1497   0.935   2.324   2.906  0.7775 -3.0571 -1.3402
  500SOL     OW 1498   1.599   0.177   0.045  0.1331  0.0922  0.3685
  500SOL    HW1 1499   1.580   0.077   0.033 -2.2706  1.1605  1.1797
  500SOL    HW2 1500   1.574   0.201   0.141 -1.0579  0.5053  0.4959
  501SOL     OW 1501   1.578   3.036   1.612  0.2476 -0.0597  0.1793
  501SOL    HW1 1502   1.548   3.020   1.518  1.7705 -1.7388  0.9783
  501SOL    HW2 1503   1.579   0.003   1.628  1.0175 -0.1049  1.6402
  502SOL     OW 1504   2.529   0.846   2.085 -0.2446 -0.6235  0.4058
  502SOL    HW1 1505   2.570   0.935   2.052  3.1897 -0.2897 -0.0146
  502SOL    HW2 1506   2.440   0.832   2.038  0.0750  3.1885 -0.9351
  503SOL     OW 1507   2.188   2.378   2.191 -0.0807  0.2460 -0.0521
  503SOL    HW1 1508   2.234   2.347   2.279  1.4284 -2.1291  0.8535
  503SOL    HW2 1509   2.227   2.465   2.152  0.0397  0.9969 -0.4293
  504SOL     OW 1510   1.453   0.637   1.648  0.8254  0.0873  0.0054
  504SOL    HW1 1511   1.433   0.732   1.611 -1.4074  1.3183 -1.4795
  504SOL    HW2 1512   1.464   0.639   1.748 -0.1305  1.3453 -0.8580
  505SOL     OW 1513   0.709   0.983   1.242 -0.1845 -0.2945  0.5374
  505SOL    HW1 1514   0.731   1.083   1.223  0.2350 -1.3009  3.8956
  505SOL    HW2 1515   0.783   0.921   1.204 -1.2866 -0.9070  2.3605
  506SOL     OW 1516   0.361   0.529   2.534  0.6857 -0.4106 -0.3772
  506SOL    HW1 1517   0.439   0.547   2.474  0.1198  1.3289  0.8433
  506SOL    HW2 1518   0.355   0.604   2.605 -0.7367  0.9731 -0.3168
  507SOL     OW 1519   0.162   2.864   0.025  0.5647  0.1143 -0.3488
  507SOL    HW1 1520   0.253   2.820   0.011  0.2545 -0.6337  0.1356
  507SOL    HW2 1521   0.162   2.962   0.006 -0.4621 -0.2469  1.1184
  508SOL     OW 1522   1.370   0.906   1.587 -0.4430 -0.2723  0.5214
  508SOL    HW1 1523   1.273   0.935   1.605  0.9168  0.6899  2.5861
  508SOL    HW2 1524   1.419   0.974   1.524 -1.8351  1.5805 -1.3172
  509SOL     OW 1525   1.130   2.051   1.405 -0.3227  0.0255 -0.0850
  509SOL    HW1 1526   1.171   2.130   1.356  0.5437  0.3500 -0.1128
  509SOL    HW2 1527   1.207   1.988   1.436  2.1106  0.2919  1.0246
  510SOL     OW 1528   2.384   1.358   2.158 -0.2088 -0.2879  0.5178
  510SOL    HW1 1529   2.327   1.427   2.211 -0.2121  0.4373 -0.9690
  510SOL    HW2 1530   2.329   1.268   2.162 -0.2859 -1.2120 -1.2597
  511SOL     OW 1531   0.575   1.713   1.169  0.5734  0.7742  0.1253
  511SOL    HW1 1532   0.515   1.795   1.146 -1.3522 -3.5048  1.3151
  511SOL    HW2 1533   0.518   1.650   1.227 -2.3926  1.0311 -1.2582
  512SOL     OW 1534   2.584   2.070   0.538 -0.3996  0.4277 -0.5958
  512SOL    HW1 1535   2.566   2.156   0.495  1.2175  0.8196  0.4249
  512SOL    HW2 1536   2.494   2.018   0.558  0.3831 -2.3320  0.7971
  513SOL     OW 1537   0.001   1.745   2.516  0.0602  0.1020  0.2686
  513SOL    HW1 1538   3.090   1.673   2.467 -0.3188  0.5664  0.2408
  513SOL    HW2 1539   0.070   1.709   2.579  0.7075 -1.4035  1.7595
  514SOL     OW 1540   2.987   2.551   2.227 -0.4392  0.0077  0.1170
  514SOL    HW1 1541   3.005   2.482   2.302  2.4670 -2.0839 -0.5844
  514SOL    HW2 1542   3.066   2.548   2.163 -0.2379 -0.5103  0.8809
  515SOL     OW 1543   2.247   1.269   1.372  0.1738  0.7852 -0.2957
  515SOL    HW1 1544   2.144   1.263   1.383 -1.4301  1.5877 -2.4284
  515SOL    HW2 1545   2.292   1.337   1.438  2.3731  2.4344  0.2224
  516SOL     OW 1546   2.283   2.245   0.122  0.2809 -0.0179  0.3588
  516SOL    HW1 1547   2.260   2.167   0.180  1.2739 -0.8190 -1.2580
  516SOL    HW2 1548   2.240   2.228   0.025 -3.5149 -1.0055 -3.0053
  517SOL     OW 1549   1.362   1.224   3.060  0.0339 -0.0190 -0.1210
  517SOL    HW1 1550   1.446   1.267   3.019 -0.4944 -1.2515 -0.3950
  517SOL    HW2 1551   1.344   1.132   3.022  1.8258  1.4607 -0.2232
  518SOL     OW 1552   2.977   3.049   2.179 -0.3988 -0.2424  0.3825
  518SOL    HW1 1553   2.962   0.002   2.237 -0.2203  2.0215  0.8859
  518SOL    HW2 1554   2.890   2.999   2.166  0.8943  2.3743  1.3947
  519SOL     OW 1555   1.598   1.657   2.284 -0.0417  0.2240 -0.0725
  519SOL    HW1 1556   1.688   1.676   2.234  0.6636 -1.1011  1.0524
  519SOL    HW2 1557   1.546   1.596   2.222  0.2821  0.1726 -0.8526
  520SOL     OW 1558   2.826   2.925   2.574 -0.0641 -0.1143 -0.4658
  520SOL    HW1 1559   2.792   2.852   2.515  2.3636  1.4266  3.7354
  520SOL    HW2 1560   2.924   2.912   2.595 -0.1637  1.6924  0.0488
  521SOL     OW 1561   0.294   1.559   1.931  0.0898  0.1896 -0.3567
  521SOL    HW1 1562   0.254   1.581   2.026 -0.7357 -0.2469  3.1380
  521SOL    HW2 1563   0.231   1.493   1.889  3.3583  0.5106  1.6372
  522SOL     OW 1564   1.038   2.767   1.735 -0.3055  0.0170 -0.0185
  522SOL    HW1 1565   1.045   2.808   1.643  1.6967 -1.4739  1.6349
  522SOL    HW2 1566   1.039   2.841   1.805 -0.2336 -0.3162  0.6810
  523SOL     OW 1567   0.018   2.390   1.407  0.1030  0.5239  0.3187
  523SOL    HW1 1568   0.064   2.454   1.466 -0.2834 -1.3293 -0.9748
  523SOL    HW2 1569   3.056   2.418   1.398  2.7649  1.0075 -0.2160
  524SOL     OW 1570   1.350   2.514   0.738 -0.6652 -0.3614  0.1508
  524SOL    HW1 1571   1.449   2.544   0.709  2.9724  1.7185  1.0590
  524SOL    HW2 1572   1.338   2.445   0.810 -0.2894  5.4069  0.7808
  525SOL     OW 1573   2.583   1.154   0.858 -0.1733  0.0085  0.1144
  525SOL    HW1 1574   2.614   1.205   0.942 -0.1042 -0.2051  0.2712
  525SOL    HW2 1575   2.502   1.198   0.824 -0.7236 -2.7435  0.8427
  526SOL     OW 1576   0.954   2.361   0.780  0.4377  0.5009 -0.5196
  526SOL    HW1 1577   0.900   2.370   0.699  0.1265 -0.7270 -0.4967
  526SOL    HW2 1578   1.034   2.299   0.768 -1.4252 -0.6938 -1.4219
  527SOL     OW 1579   2.684   2.207   0.827 -0.2930  0.4122  0.3893
  527SOL    HW1 1580   2.645   2.120   0.785 -0.5012  0.2643 -0.7655
  527SOL    HW2 1581   2.777   2.183   0.859 -1.0322 -2.8589 -1.7682
  528SOL     OW 1582   2.171   0.540   0.014  0.0701 -0.5221 -0.2379
  528SOL    HW1 1583   2.149   0.498   3.060  0.7065  0.0532  3.3340
  528SOL    HW2 1584   2.214   0.475   0.078 -0.3637  1.0374 -0.1286
  529SOL     OW 1585   1.260   1.191   2.039 -0.1124 -0.6789 -0.4282
  529SOL    HW1 1586   1.189   1.192   2.110 -0.8624  0.5489  0.3008
  529SOL    HW2 1587   1.258   1.278   1.981  1.0345  1.3551 -1.6593
  530SOL     OW 1588   2.598   1.070   2.428  0.4472 -0.1756  0.2022
  530SOL    HW1 1589   2.651   1.128   2.364 -0.2040 -3.1900 -0.7004
  530SOL    HW2 1590   2.621   0.970   2.410  0.9317  1.3912 -2.0089
  531SOL     OW 1591   0.825   0.929   0.162  0.5165  0.7989  0.1841
  531SOL    HW1 1592   0.868   1.010   0.205 -2.7218 -0.1530 -0.8286
  531SOL    HW2 1593   0.768   0.873   0.226  1.6709 -0.4354 -1.4035
  532SOL     OW 1594   1.622   0.997   0.648 -0.2310 -0.1113  0.1936
  532SOL    HW1 1595   1.628   0.946   0.737  0.6128  0.5486  1.7863
  532SOL    HW2 1596   1.634   0.935   0.571  0.2363  0.9516 -0.4575
  533SOL     OW 1597   0.444   0.748   2.292 -0.2183 -0.4165  0.6621
  533SOL    HW1 1598   0.368   0.718   2.230  2.6306  1.4686 -0.7968
  533SOL    HW2 1599   0.500   0.671   2.332  0.5618 -0.9212 -1.6932
  534SOL     OW 1600   1.651   0.210   2.723  0.2697  0.0206  0.2101
  534SOL    HW1 1601   1.651   0.263   2.809 -0.5357  1.3627  0.2107
  534SOL    HW2 1602   1.581   0.138   2.722 -2.2897  0.3010  0.6080
  535SOL     OW 1603   0.802   0.154   0.475  0.3862 -1.0473 -0.2069
  535SOL    HW1 1604   0.850   0.071   0.513 -0.4123  0.0123 -4.1121
  535SOL    HW2 1605   0.713   0.165   0.522 -0.6847  1.1870  1.6662
  536SOL     OW 1606   1.179   0.147   1.114 -0.2962  0.5072 -0.2608
  536SOL    HW1 1607   1.270   0.125   1.151 -0.3102  0.7783 -4.5616
  536SOL    HW2 1608   1.167   0.132   1.014 -2.3129 -2.0372 -2.5491
  537SOL     OW 1609   1.357   2.922   2.031  0.0604 -0.3665 -0.5512
  537SOL    HW1 1610   1.383   2.892   2.129 -0.5454 -1.8559 -0.7019
  537SOL    HW2 1611   1.431   2.908   1.969  0.5822  0.1717  0.9774
  538SOL     OW 1612   0.398   2.745   3.038 -0.2967  0.7103 -0.1571
  538SOL    HW1 1613   0.400   2.647   3.009  0.4095 -1.4017  0.5453
  538SOL    HW2 1614   0.400   2.802   2.954 -0.2120  2.4550  1.7002
  539SOL     OW 1615   2.981   1.665   1.838 -0.1609 -0.0825  0.2643
  539SOL    HW1 1616   3.036   1.717   1.770  0.3643 -0.3877 -0.6840
  539SOL    HW2 1617   2.973   1.725   1.919  1.8046 -2.2904  2.2286
  540SOL     OW 1618   2.521   2.583   2.389  0.1815  0.3382 -0.1776
  540SOL    HW1 1619   2.473   2.662   2.352  3.2435 -1.9202  1.8848
  540SOL    HW2 1620   2.550   2.525   2.310 -1.0633  0.1554  0.8833
  541SOL     OW 1621   0.086   3.068   1.580 -0.3977  0.7864  0.2069
  541SOL    HW1 1622   0.017   3.042   1.656 -1.7544 -2.0170  0.7463
  541SOL    HW2 1623   0.168   3.116   1.612 -0.2893  0.7247 -0.1931
  542SOL     OW 1624   2.910   0.525   1.930 -0.5982 -0.2649  0.4527
  542SOL    HW1 1625   2.922   0.610   1.989 -1.8645  0.7431 -0.6193
  542SOL    HW2 1626   2.974   0.454   1.962  0.0747 -0.5336 -2.3025
  543SOL     OW 1627   0.840   0.423   0.887 -0.5930 -0.5755 -0.1023
  543SOL    HW1 1628   0.933   0.408   0.936 -0.2770 -1.4948  1.1135
  543SOL    HW2 1629   0.862   0.444   0.790  0.1048 -0.8165  0.6870
  544SOL     OW 1630   2.213   2.257   1.278 -0.0102 -0.2784 -0.1200
  544SOL    HW1 1631   2.225   2.156   1.293 -2.6500 -1.1660 -2.6220
  544SOL    HW2 1632   2.109   2.269   1.263 -3.1949  1.6869 -0.7987
  545SOL     OW 1633   1.206   1.555   0.951 -0.3502  0.2763  0.7272
  545SOL    HW1 1634   1.307   1.552   0.959  0.7730 -2.6495 -1.5562
  545SOL    HW2 1635   1.156   1.501   1.021  0.1273 -1.3178 -2.4130
  546SOL     OW 1636   2.964   0.379   2.338  0.3378  0.0261  0.2544
  546SOL    HW1 1637   2.937   0.284   2.362 -0.4164  0.3858 -2.0489
  546SOL    HW2 1638   3.063   0.394   2.350  1.3540  0.8693 -1.6676
  547SOL     OW 1639   2.952   0.467   2.967 -0.4045 -0.2815 -0.5411
  547SOL    HW1 1640   2.890   0.457   2.887 -0.8052  2.2919 -0.7253
  547SOL    HW2 1641   3.038   0.422   2.961 -2.2461 -1.4179 -3.5990
  548SOL     OW 1642   2.327   2.084   2.791 -0.3555  0.3308  0.5660
  548SOL    HW1 1643   2.414   2.038   2.762  1.7764  0.6417  0.9641
  548SOL    HW2 1644   2.348   2.179   2.835 -2.9431  2.2758 -1.3956
  549SOL     OW 1645   2.190   0.549   0.703 -0.0660  0.0986  0.2322
  549SOL    HW1 1646   2.094   0.579   0.714  2.0002 -2.0440  1.2430
  549SOL    HW2 1647   2.246   0.581   0.779  0.2312  0.6806 -2.6712
  550SOL     OW 1648   2.646   1.467   0.355  0.0340  0.7568  0.4179
  550SOL    HW1 1649   2.564   1.409   0.337 -0.3383  0.6886  0.7299
  550SOL    HW2 1650   2.725   1.429   0.306 -2.0375 -1.8632  0.3353
  551SOL     OW 1651   1.603   2.490   1.423 -0.6335 -0.0782 -0.5720
  551SOL    HW1 1652   1.585   2.540   1.336  0.2570 -0.0520 -2.8390
  551SOL    HW2 1653   1.604   2.555   1.503 -0.7672 -1.0202 -1.7495
  552SOL     OW 1654   2.470   2.408   2.585 -0.2372  0.1848 -0.0880
  552SOL    HW1 1655   2.506   2.475   2.516 -0.0367  1.4356  0.2694
  552SOL    HW2 1656   2.425   2.451   2.668  0.5410 -1.3913 -0.2014
  553SOL     OW 1657   0.720   2.956   0.507  0.2482 -0.0592  0.2366
  553SOL    HW1 1658   0.667   3.039   0.488  0.4898 -1.4454  1.5825
  553SOL    HW2 1659   0.712   2.930   0.606 -1.7956 -2.5597  0.9973
  554SOL     OW 1660   1.801   2.409   1.762 -0.1455 -0.6303 -0.0149
  554SOL    HW1 1661   1.720   2.346   1.778 -0.6027  0.8252  0.1082
  554SOL    HW2 1662   1.888   2.377   1.805 -2.2742 -1.0930 -0.3049
  555SOL     OW 1663   1.469   2.422   2.270  0.5089  0.5974  0.2355
  555SOL    HW1 1664   1.511   2.345   2.217 -0.8729 -2.8787  1.0843
  555SOL    HW2 1665   1.404   2.472   2.214  1.3508 -1.7047 -1.5651
  556SOL     OW 1666   1.500   0.617   0.891 -0.2512 -0.2158 -0.6320
  556SOL    HW1 1667   1.509   0.578   0.987  0.5111  0.1743 -1.2649
  556SOL    HW2 1668   1.403   0.623   0.860  1.2068  3.1204 -0.1793
  557SOL     OW 1669   0.971   2.097   1.598 -0.0192 -0.4532  0.1367
  557SOL    HW1 1670   1.032   2.070   1.523 -2.2356  0.1164 -0.1070
  557SOL    HW2 1671   0.962   2.201   1.599 -0.5199 -1.5036  1.3506
  558SOL     OW 1672   3.050   1.279   2.259 -0.1163 -0.2439 -0.1537
  558SOL    HW1 1673   2.957   1.245   2.291 -1.0424 -0.1023  0.8675
  558SOL    HW2 1674   3.127   1.243   2.317  2.3598 -0.8221  3.1783
  559SOL     OW 1675   2.251   2.749   2.454  0.0635 -0.2605 -0.0596
  559SOL    HW1 1676   2.273   2.685   2.385  4.1039  2.8943  1.9082
  559SOL    HW2 1677   2.245   2.842   2.415 -0.9705 -3.8585 -0.6191
  560SOL     OW 1678   0.429   0.234   2.791 -0.4248  0.7276  0.0487
  560SOL    HW1 1679   0.450   0.213   2.694  3.3865  1.1367 -1.2393
  560SOL    HW2 1680   0.505   0.189   2.846 -0.5714 -0.6351 -5.0982
  561SOL     OW 1681   1.269   0.665   0.542 -0.1322 -0.1215 -0.1977
  561SOL    HW1 1682   1.233   0.761   0.544 -1.3626 -0.6259 -0.2246
  561SOL    HW2 1683   1.264   0.618   0.454 -1.5552  2.1629  1.6135
  562SOL     OW 1684   0.910   1.187   1.809  0.1218 -0.1091 -0.5803
  562SOL    HW1 1685   0.897   1.089   1.825 -0.7508  2.9401  1.9933
  562SOL    HW2 1686   0.824   1.236   1.831  0.8196 -1.7171  2.1722
  563SOL     OW 1687   1.921   1.970   0.069 -0.6101  0.7668  0.3288
  563SOL    HW1 1688   1.969   1.921   3.127  1.3853  1.0170  0.2711
  563SOL    HW2 1689   1.958   1.944   0.162  2.2664  0.7017  0.0854
  564SOL     OW 1690   2.981   2.312   0.477 -0.1021  1.1961 -0.1959
  564SOL    HW1 1691   2.944   2.227   0.521  1.4513 -1.4453  0.1943
  564SOL    HW2 1692   3.020   2.287   0.387 -0.1739  0.0713 -2.0013
  565SOL     OW 1693   0.437   2.902   2.820  0.0609 -0.2882  0.2159
  565SOL    HW1 1694   0.434   2.994   2.862  2.1067 -2.9814 -2.3986
  565SOL    HW2 1695   0.509   2.890   2.756 -0.5638 -1.9686  1.1415
  566SOL     OW 1696   1.407   2.752   2.945  0.2214 -0.3321 -0.0594
  566SOL    HW1 1697   1.493   2.742   2.889  1.5433 -0.1167  1.8773
  566SOL    HW2 1698   1.381   2.848   2.967 -1.9748  0.1562 -0.8886
  567SOL     OW 1699   2.243   2.003   1.307  0.4932 -0.0379  0.5068
  567SOL    HW1 1700   2.339   1.973   1.284 -0.1190 -1.2296  1.3067
  567SOL    HW2 1701   2.177   1.927   1.339 -3.5481  0.3737  1.6931
  568SOL     OW 1702   1.854   0.872   2.901  0.2346  0.1369  0.0894
  568SOL    HW1 1703   1.907   0.786   2.896  1.5123  1.4804  0.0849
  568SOL    HW2 1704   1.919   0.950   2.906 -1.4471  0.3387  0.4354
  569SOL     OW 1705   2.192   1.944   1.907 -0.0664  0.5818  0.3345
  569SOL    HW1 1706   2.228   1.859   1.955 -0.5997  0.4867  1.9144
  569SOL    HW2 1707   2.239   2.030   1.944 -1.4372 -1.4763 -0.3624
  570SOL     OW 1708   2.730   2.799   1.891 -0.1002  0.7723 -0.9344
  570SOL    HW1 1709   2.717   2.892   1.855 -1.3802 -0.2842  0.6000
  570SOL    HW2 1710   2.802   2.745   1.848 -4.5315 -1.8399  0.8301
  571SOL     OW 1711   0.247   0.675   1.540  0.3526  0.3072  0.0156
  571SOL    HW1 1712   0.240   0.742   1.462  1.9478  0.0695  2.2548
  571SOL    HW2 1713   0.306   0.589   1.517  1.3786 -2.1841 -0.2547
  572SOL     OW 1714   0.169   1.460   0.980 -0.3255 -0.3921 -0.5043
  572SOL    HW1 1715   0.142   1.419   0.889  0.3966 -0.1183 -0.8519
  572SOL    HW2 1716   0.195   1.383   1.049  0.7839  2.1824  0.9852
  573SOL     OW 1717   0.934   0.778   0.447 -0.1987  0.3829 -0.4388
  573SOL    HW1 1718   0.837   0.773   0.420  0.3132  1.5841  1.5661
  573SOL    HW2 1719   0.969   0.875   0.456  1.1185  0.1693 -0.7178
  574SOL     OW 1720   0.358   0.219   0.415 -0.6045 -0.1796  0.2925
  574SOL    HW1 1721   0.386   0.297   0.476  0.7611 -0.0054  1.5597
  574SOL    HW2 1722   0.274   0.171   0.448  0.4900 -0.2394 -0.9374
  575SOL     OW 1723   0.784   2.239   0.958  0.1020  0.1555  0.4590
  575SOL    HW1 1724   0.857   2.264   0.883  2.0458  1.2682 -3.7276
  575SOL    HW2 1725   0.821   2.266   1.047  0.3043 -0.3071  0.4567
  576SOL     OW 1726   2.971   2.695   1.218  0.3179 -0.2106 -0.2034
  576SOL    HW1 1727   2.903   2.746   1.164 -0.4521 -2.0292 -1.0616
  576SOL    HW2 1728   2.963   2.710   1.317  1.8240  1.5157 -1.4257
  577SOL     OW 1729   2.698   1.953   2.065  0.3793  0.1312  0.0872
  577SOL    HW1 1730   2.640   2.012   2.126 -0.6630 -2.1181 -3.0224
  577SOL    HW2 1731   2.685   1.970   1.963 -1.1323 -1.9241 -3.4562
  578SOL     OW 1732   1.042   0.225   2.818 -0.1803 -0.0964 -0.0220
  578SOL    HW1 1733   0.971   0.164   2.774 -3.2443 -0.2317  1.9167
  578SOL    HW2 1734   1.077   0.189   2.908 -3.2293  1.3815  1.9948
  579SOL     OW 1735   1.974   1.842   2.002  0.1993  0.0556 -0.4515
  579SOL    HW1 1736   2.053   1.899   1.968 -2.3247 -2.8330 -0.2234
  579SOL    HW2 1737   1.900   1.861   1.935  1.8931 -0.9596  0.8462
  580SOL     OW 1738   1.645   0.622   2.372 -0.3259 -1.1857 -0.3522
  580SOL    HW1 1739   1.700   0.562   2.311 -1.2012  0.8814  0.1575
  580SOL    HW2 1740   1.685   0.640   2.463 -4.7202 -1.7236  0.5007
  581SOL     OW 1741   0.995   1.384   2.160 -0.1770  0.5507 -0.0396
  581SOL    HW1 1742   1.074   1.439   2.189 -2.6285 -1.1287  0.3793
  581SOL    HW2 1743   0.981   1.303   2.222  1.2037 -2.2724  2.7602
  582SOL     OW 1744   0.059   2.745   1.867  0.5710  0.4636  0.3868
  582SOL    HW1 1745   0.125   2.722   1.791  1.7456 -0.0333  1.0366
  582SOL    HW2 1746   0.069   2.840   1.906 -0.0184  0.4278  1.4330
  583SOL     OW 1747   1.504   1.079   1.424 -0.0080  0.5187 -0.4790
  583SOL    HW1 1748   1.578   1.096   1.355  0.4386 -1.3261  0.3583
  583SOL    HW2 1749   1.446   1.163   1.435  0.6441  0.6598 -0.5313
  584SOL     OW 1750   1.143   2.032   2.646  0.7291 -0.0659 -0.4656
  584SOL    HW1 1751   1.196   1.961   2.598 -0.8973 -0.8502 -2.2313
  584SOL    HW2 1752   1.195   2.120   2.652 -1.9607 -1.9024 -0.5452
  585SOL     OW 1753   0.265   2.588   0.152 -0.2872  0.4668 -0.4548
  585SOL    HW1 1754   0.223   2.678   0.161  1.9659 -0.1586 -2.1237
  585SOL    HW2 1755   0.194   2.514   0.163  0.3559  1.0828  1.5462
  586SOL     OW 1756   1.937   1.740   0.553 -0.3271  0.5985  0.3310
  586SOL    HW1 1757   1.841   1.705   0.549  1.0663 -1.2564  0.6239
  586SOL    HW2 1758   1.973   1.726   0.649 -0.4068 -0.4006 -0.8116
  587SOL     OW 1759   2.851   2.102   0.585 -0.1058  0.8469 -0.1860
  587SOL    HW1 1760   2.881   2.002   0.572  1.2862 -1.1183 -1.0353
  587SOL    HW2 1761   2.749   2.113   0.572 -0.6857 -0.2555 -1.1277
  588SOL     OW 1762   2.383   0.380   1.037  0.6075  0.0778 -0.3898
  588SOL    HW1 1763   2.404   0.307   1.105 -1.5019 -1.4689 -0.9949
  588SOL    HW2 1764   2.292   0.357   0.997  3.1973 -3.1876 -3.7746
  589SOL     OW 1765   0.976   0.767   0.876 -0.0918  0.1923 -0.2635
  589SOL    HW1 1766   1.075   0.798   0.873  0.9447 -0.9663 -0.0788
  589SOL    HW2 1767   0.964   0.674   0.829 -0.1504 -2.7687 -0.3636
  590SOL     OW 1768   2.512   2.351   0.190  0.2783 -0.4919 -0.4786
  590SOL    HW1 1769   2.422   2.312   0.146 -2.2596  0.0533  0.1110
  590SOL    HW2 1770   2.601   2.319   0.148 -0.4488  0.6472  2.8692
  591SOL     OW 1771   0.661   2.451   1.769 -0.7660 -0.1390 -0.1486
  591SOL    HW1 1772   0.662   2.354   1.798 -0.6073 -2.2772  1.1981
  591SOL    HW2 1773   0.629   2.464   1.677  2.0111 -0.1711  1.9415
  592SOL     OW 1774   0.599   1.309   1.392  0.0854  0.3115 -0.4692
  592SOL    HW1 1775   0.677   1.333   1.457 -3.4184  2.0998 -1.7102
  592SOL    HW2 1776   0.623   1.285   1.296  0.5399 -0.2405 -2.2515
  593SOL     OW 1777   0.904   2.025   1.250 -0.5242 -0.5563  0.3758
  593SOL    HW1 1778   0.926   1.984   1.159 -2.3578 -0.8187 -0.4527
  593SOL    HW2 1779   0.975   2.017   1.326 -0.7579  0.1070  1.7022
  594SOL     OW 1780   0.837   1.103   2.587 -0.0229  0.0416 -0.2152
  594SOL    HW1 1781   0.893   1.037   2.634 -2.1878 -0.1616 -0.2621
  594SOL    HW2 1782   0.834   1.190   2.641  2.2683 -0.0575 -0.6639
  595SOL     OW 1783   1.521   0.503   1.144 -0.0171 -0.2818  0.3190
  595SOL    HW1 1784   1.597   0.549   1.195  2.7114  1.4245  1.9104
  595SOL    HW2 1785   1.437   0.518   1.205  0.1898 -0.9859  1.1439
  596SOL     OW 1786   0.285   1.134   0.892 -0.6616  0.4992 -0.2851
  596SOL    HW1 1787   0.383   1.117   0.898 -0.5455 -2.0587 -0.2949
  596SOL    HW2 1788   0.245   1.101   0.805  1.0944  2.5870 -0.9183
  597SOL     OW 1789   0.248   2.229   2.913  0.2366  0.3837 -0.4660
  597SOL    HW1 1790   0.147   2.238   2.926 -0.4046  4.2287 -1.2755
  597SOL    HW2 1791   0.277   2.140   2.952 -0.9396 -0.1839  1.8726
  598SOL     OW 1792   2.173   2.033   2.574 -0.8118 -0.6208  0.3232
  598SOL    HW1 1793   2.124   2.108   2.523 -3.1280  1.2714 -0.2421
  598SOL    HW2 1794   2.215   2.061   2.663 -0.5749 -2.6763  0.0194
  599SOL     OW 1795   1.577   0.549   0.636  0.3555 -0.0429 -0.0223
  599SOL    HW1 1796   1.479   0.520   0.638  3.2976  0.5934  1.2086
  599SOL    HW2 1797   1.603   0.561   0.734 -1.0751  1.6539 -0.0944
  600SOL     OW 1798   0.959   3.096   0.566 -0.2727 -0.2272 -0.1599
  600SOL    HW1 1799   0.880   3.028   0.553  1.5509  0.1668  2.5505
  600SOL    HW2 1800   1.033   3.047   0.622 -0.5006  1.4368 -3.1890
  601SOL     OW 1801   0.536   0.223   1.373 -0.1210 -0.6797  0.0183
  601SOL    HW1 1802   0.502   0.269   1.284 -0.7518  0.9653 -1.9285
  601SOL    HW2 1803   0.636   0.254   1.395  2.4336  1.4617  0.4762
  602SOL     OW 1804   0.152   2.963   0.875  0.4170 -0.9463 -0.5842
  602SOL    HW1 1805   0.107   2.872   0.884  0.2366 -0.6337 -0.0463
  602SOL    HW2 1806   0.078   3.033   0.843 -1.6199 -0.2213 -1.4079
  603SOL     OW 1807   0.832   2.648   2.446  0.0510  0.0684 -0.1458
  603SOL    HW1 1808   0.814   2.728   2.382  2.5405 -0.7146  0.4770
  603SOL    HW2 1809   0.753   2.590   2.453  4.5152  0.4906 -1.1375
  604SOL     OW 1810   1.062   2.721   3.043  0.0907 -0.2760  0.1209
  604SOL    HW1 1811   1.005   2.640   3.014 -3.3917  1.3963  1.6275
  604SOL    HW2 1812   1.076   2.777   2.958 -3.3778 -0.6300 -1.5975
  605SOL     OW 1813   1.094   0.981   1.602 -1.2324 -0.1164 -0.5348
  605SOL    HW1 1814   1.080   0.937   1.690  1.9735  0.1480 -2.9060
  605SOL    HW2 1815   1.110   1.080   1.619  1.0307  0.1631  0.6199
  606SOL     OW 1816   1.303   0.261   2.719 -0.8417 -0.2337  0.0169
  606SOL    HW1 1817   1.212   0.224   2.748  1.6670  1.2428 -1.6565
  606SOL    HW2 1818   1.314   0.349   2.767 -1.5664  0.8064 -2.7283
  607SOL     OW 1819   0.179   1.230   1.145  0.0898 -0.0721 -0.0284
  607SOL    HW1 1820   0.218   1.180   1.227  0.9244  1.7604 -1.6544
  607SOL    HW2 1821   0.194   1.180   1.058  2.0587  3.1023  0.4106
  608SOL     OW 1822   2.864   2.209   2.345 -0.4193  0.0901  0.6196
  608SOL    HW1 1823   2.823   2.232   2.253  2.7836 -1.0467  1.0949
  608SOL    HW2 1824   2.928   2.284   2.371 -1.9210 -1.7152  2.1691
  609SOL     OW 1825   1.997   0.357   0.211 -0.7178 -0.1129 -0.9765
  609SOL    HW1 1826   2.045   0.291   0.146 -1.9588 -0.2385  3.3408
  609SOL    HW2 1827   1.958   0.436   0.161 -0.7113 -0.0391  1.3537
  610SOL     OW 1828   0.987   2.762   1.057 -0.3556 -0.0374  0.5221
  610SOL    HW1 1829   0.975   2.857   1.019  2.0262 -0.8209 -2.1345
  610SOL    HW2 1830   1.029   2.766   1.147  3.1229 -0.8182  1.6284
  611SOL     OW 1831   0.660   1.421   0.523  0.3857 -0.6779  0.3239
  611SOL    HW1 1832   0.658   1.462   0.422 -0.6119  2.6970 -0.5384
  611SOL    HW2 1833   0.626   1.327   0.523  0.6852  1.6047  2.8141
  612SOL     OW 1834   0.907   0.308   2.405  0.6178 -0.1873 -0.2117
  612SOL    HW1 1835   0.844   0.336   2.484 -0.6663 -0.3142  0.8759
  612SOL    HW2 1836   0.988   0.369   2.406 -2.8102 -3.9331  0.6244
  613SOL     OW 1837   2.435   1.303   0.332  0.0195 -0.0445  0.3545
  613SOL    HW1 1838   2.440   1.250   0.420 -1.6076  1.0349  0.2564
  613SOL    HW2 1839   2.357   1.265   0.280  1.3482 -0.3721 -2.3900
  614SOL     OW 1840   1.742   0.597   1.610 -0.1808  0.2375  0.1005
  614SOL    HW1 1841   1.647   0.638   1.609 -3.3651  3.2773 -1.4555
  614SOL    HW2 1842   1.789   0.631   1.696 -1.4437 -1.7979  1.2249
  615SOL     OW 1843   0.647   2.008   1.045 -0.0946  0.3793 -0.2789
  615SOL    HW1 1844   0.544   2.007   1.031 -2.0903  2.8158 -0.8635
  615SOL    HW2 1845   0.687   2.101   1.049  1.1655  1.7571 -0.7178
  616SOL     OW 1846   1.418   1.020   2.429 -0.2545  0.5947 -0.3730
  616SOL    HW1 1847   1.521   1.034   2.423  0.8513 -0.0654  0.8510
  616SOL    HW2 1848   1.394   0.965   2.515 -1.3106 -2.3172  4.4063
  617SOL     OW 1849   1.736   2.524   0.354  0.4304 -0.1279  0.0375
  617SOL    HW1 1850   1.664   2.595   0.380  1.8403 -0.3394  0.1274
  617SOL    HW2 1851   1.785   2.553   0.270  1.6392 -1.2483 -2.2800
  618SOL     OW 1852   0.931   1.131   3.092  0.0265  0.5204 -0.1459
  618SOL    HW1 1853   0.874   1.164   0.038 -0.6719  0.0374 -0.2756
  618SOL    HW2 1854   1.026   1.107   3.111 -1.8646 -0.8662  0.5896
  619SOL     OW 1855   2.714   1.498   0.617 -0.1582  0.5402  0.8180
  619SOL    HW1 1856   2.743   1.402   0.635  0.4870 -0.3056 -0.6175
  619SOL    HW2 1857   2.653   1.505   0.537  0.8420  0.3923  2.0491
  620SOL     OW 1858   2.468   2.821   3.069  0.2231 -0.7970  0.6418
  620SOL    HW1 1859   2.509   2.767   0.010  2.2097  1.9316 -2.9428
  620SOL    HW2 1860   2.448   2.766   2.984  0.4224  0.3988  1.5763
  621SOL     OW 1861   2.264   1.128   0.201 -0.5973 -0.0752 -0.1166
  621SOL    HW1 1862   2.206   1.045   0.212  2.2929 -0.2564  1.1022
  621SOL    HW2 1863   2.211   1.207   0.167  2.8274 -1.1368  1.5835
  622SOL     OW 1864   1.062   2.197   2.261  0.2889  0.2914 -0.1724
  622SOL    HW1 1865   1.159   2.188   2.224  1.3751 -0.0804  0.9035
  622SOL    HW2 1866   1.049   2.127   2.332  1.1500 -0.6800 -0.1981
  623SOL     OW 1867   0.568   1.809   3.025 -0.3159 -0.7690  0.3821
  623SOL    HW1 1868   0.672   1.814   3.036  1.7685 -1.3165  2.3885
  623SOL    HW2 1869   0.525   1.901   3.024  1.7238  0.0716  1.4075
  624SOL     OW 1870   0.296   3.127   2.902  0.1975  0.0466 -0.4542
  624SOL    HW1 1871   0.299   0.090   2.864 -2.2828  1.9774 -0.9214
  624SOL    HW2 1872   0.209   3.101   2.953  0.0703 -1.3853  0.4552
  625SOL     OW 1873   0.697   2.108   0.190 -0.6006 -0.6283 -0.5399
  625SOL    HW1 1874   0.662   2.168   0.114 -0.9191 -0.1480 -0.7260
  625SOL    HW2 1875   0.625   2.082   0.257  1.9700 -0.1301 -2.5674
  626SOL     OW 1876   2.430   0.282   0.151 -0.2669 -0.4784 -0.2568
  626SOL    HW1 1877   2.459   0.189   0.129  0.6372  2.6221  2.6375
  626SOL    HW2 1878   2.466   0.314   0.245 -0.6649  2.5613  0.8905
  627SOL     OW 1879   1.322   0.974   2.719  0.3198 -0.3916  0.4119
  627SOL    HW1 1880   1.281   1.064   2.688  2.8230  1.7543  0.7612
  627SOL    HW2 1881   1.349   0.973   2.816  0.6265  0.1300 -1.8458
  628SOL     OW 1882   1.075   0.637   2.574  0.0276 -0.0588  0.7820
  628SOL    HW1 1883   1.064   0.579   2.656 -2.3442  0.3942  0.4024
  628SOL    HW2 1884   0.985   0.663   2.537 -1.2992 -1.2771 -1.1399
  629SOL     OW 1885   0.254   0.002   2.113  1.0098  0.6288 -0.3143
  629SOL    HW1 1886   0.303   3.058   2.159 -2.1295 -1.5086  1.6223
  629SOL    HW2 1887   0.305   0.028   2.029 -0.5054  0.5310 -0.5751
  630SOL     OW 1888   2.453   1.143   1.805 -0.5575 -1.1603 -0.0940
  630SOL    HW1 1889   2.361   1.177   1.836  1.3023  2.6817  0.4682
  630SOL    HW2 1890   2.449   1.053   1.763  1.1461  1.8841 -0.5691
  631SOL     OW 1891   2.432   1.186   0.596 -0.4719 -0.0824  0.6042
  631SOL    HW1 1892   2.364   1.129   0.641  1.9726 -0.6113  1.3856
  631SOL    HW2 1893   2.520   1.138   0.594 -3.1079  1.0556  1.8102
  632SOL     OW 1894   2.483   0.607   1.723  0.0115  0.6002  0.3194
  632SOL    HW1 1895   2.586   0.589   1.715  1.6145 -0.5576 -0.2546
  632SOL    HW2 1896   2.430   0.518   1.712 -2.4848 -0.4956  3.5228
  633SOL     OW 1897   0.967   2.873   0.176  0.3590  0.2430 -0.2848
  633SOL    HW1 1898   0.966   2.855   0.075 -0.0869 -2.8548 -1.7264
  633SOL    HW2 1899   0.964   2.782   0.221  0.0278 -0.8745  0.7011
  634SOL     OW 1900   1.514   3.043   0.028 -0.1669 -0.3959 -1.0747
  634SOL    HW1 1901   1.467   3.012   0.112 -1.9979 -0.3599 -0.5422
  634SOL    HW2 1902   1.606   3.001   0.015 -1.8842  2.5353  0.6479
  635SOL     OW 1903   2.777   0.436   0.275 -0.2802  0.1023  0.1098
  635SOL    HW1 1904   2.764   0.519   0.215 -2.9820  1.5551 -0.2049
  635SOL    HW2 1905   2.681   0.405   0.302 -2.2285 -1.9256 -1.4397
  636SOL     OW 1906   0.499   1.696   0.811 -0.4520  0.7952 -0.1583
  636SOL    HW1 1907   0.566   1.767   0.783  1.1350 -1.5542  0.8181
  636SOL    HW2 1908   0.549   1.602   0.806  1.9216 -1.1339 -1.9289
  637SOL     OW 1909   0.296   2.812   0.369  0.5339 -0.5526  0.6401
  637SOL    HW1 1910   0.382   2.794   0.314  1.3541 -0.6708 -0.2250
  637SOL    HW2 1911   0.246   2.729   0.396  0.3874  2.0745 -0.9086
  638SOL     OW 1912   2.989   2.725   0.360 -0.1523 -0.5265  0.2843
  638SOL    HW1 1913   3.012   2.772   0.275  3.0268 -1.8332  1.4306
  638SOL    HW2 1914   3.075   2.672   0.386 -2.4048  0.1750 -0.2515
  639SOL     OW 1915   1.109   1.488   0.321  0.0894 -0.1520 -0.1465
  639SOL    HW1 1916   1.130   1.398   0.279  0.8298 -0.3981  1.5606
  639SOL    HW2 1917   1.139   1.559   0.253 -1.8531 -0.7487 -0.2263
  640SOL     OW 1918   1.517   2.342   1.075  0.0099  0.5114 -0.6063
  640SOL    HW1 1919   1.565   2.430   1.056 -2.2388  0.9951  2.1530
  640SOL    HW2 1920   1.448   2.317   1.004 -0.3082  3.7313 -1.0000
  641SOL     OW 1921   2.876   2.718   0.816  0.5188  0.0994 -0.0845
  641SOL    HW1 1922   2.837   2.629   0.776 -1.3380 -2.4237  0.0097
  641SOL    HW2 1923   2.820   2.751   0.892 -2.2802  1.4498  0.5130
  642SOL     OW 1924   0.928   3.011   1.888 -0.0125 -0.0574 -0.5017
  642SOL    HW1 1925   0.958   3.051   1.980  0.4964  0.4737  1.9667
  642SOL    HW2 1926   0.884   3.086   1.832  0.3613 -0.8474 -0.4353
  643SOL     OW 1927   0.711   2.332   2.369  0.1302  0.7159 -0.3374
  643SOL    HW1 1928   0.718   2.236   2.336 -1.1000  3.0159  2.6703
  643SOL    HW2 1929   0.712   2.343   2.473  0.5836  2.2643 -2.6675
  644SOL     OW 1930   0.874   2.631   0.560  0.2192 -0.1736 -0.3745
  644SOL    HW1 1931   0.952   2.634   0.627 -1.1925 -0.7064  2.4549
  644SOL    HW2 1932   0.808   2.707   0.573  1.0053 -0.4398 -1.3808
  645SOL     OW 1933   1.235   1.432   1.917 -0.2667 -0.2338 -0.3945
  645SOL    HW1 1934   1.228   1.438   1.817  1.1841 -1.4509  1.3443
  645SOL    HW2 1935   1.168   1.489   1.970 -1.4652  2.2376  2.4444
  646SOL     OW 1936   0.567   1.176   0.519  0.6713  0.0178  0.0306
  646SOL    HW1 1937   0.604   1.087   0.547  0.8593  1.2186 -1.3896
  646SOL    HW2 1938   0.473   1.181   0.552  0.0761  1.8039 -1.4201
  647SOL     OW 1939   1.550   0.132   0.809  0.2599  0.2348 -0.7049
  647SOL    HW1 1940   1.626   0.063   0.824 -2.8268 -0.2375  0.0649
  647SOL    HW2 1941   1.584   0.201   0.741 -1.9500 -1.3494  0.1956
  648SOL     OW 1942   2.455   2.493   1.486 -0.3914 -0.3824  0.5345
  648SOL    HW1 1943   2.541   2.538   1.517  0.7184 -0.6320  1.4591
  648SOL    HW2 1944   2.475   2.438   1.404 -1.8351  0.2764  1.8272
  649SOL     OW 1945   0.672   2.255   3.084  0.5137  0.2694 -0.0843
  649SOL    HW1 1946   0.754   2.229   3.030 -0.5678  2.1353  1.1971
  649SOL    HW2 1947   0.651   2.354   3.076  0.6969 -0.9687 -1.1724
  650SOL     OW 1948   2.879   2.228   1.578  0.5513  0.6936  0.1114
  650SOL    HW1 1949   2.870   2.311   1.517  0.6902 -2.3709  0.9205
  650SOL    HW2 1950   2.797   2.171   1.581  0.4033  2.0952  1.9925
  651SOL     OW 1951   0.057   3.088   3.060  0.2556 -0.3379 -0.2827
  651SOL    HW1 1952   3.100   3.054   3.024 -0.8143 -0.5473 -2.8239
  651SOL    HW2 1953   0.044   0.049   3.106  1.4089  3.2693  1.9741
  652SOL     OW 1954   2.291   1.874   0.018  0.0749 -0.2489 -0.1779
  652SOL    HW1 1955   2.249   1.965   3.126  0.9053  2.5581 -1.6463
  652SOL    HW2 1956   2.308   1.860   0.114  1.2438 -0.6689 -4.1538
  653SOL     OW 1957   0.341   0.193   1.016  0.0276  0.1782 -0.7597
  653SOL    HW1 1958   0.358   0.277   1.079  0.8780  0.1302  3.8808
  653SOL    HW2 1959   0.367   0.103   1.065 -0.3232 -0.6033 -1.5048
  654SOL     OW 1960   1.379   2.949   0.269 -0.4845 -0.0606 -0.4409
  654SOL    HW1 1961   1.347   2.868   0.319  2.5514  0.9948 -2.1249
  654SOL    HW2 1962   1.412   3.027   0.332  1.8004  2.4372 -0.8672
  655SOL     OW 1963   0.684   2.791   1.183  0.7780 -0.1075 -0.0637
  655SOL    HW1 1964   0.624   2.813   1.108  0.0473  1.1169  0.8554
  655SOL    HW2 1965   0.762   2.738   1.155 -0.8241  1.4398  0.6447
  656SOL     OW 1966   0.402   2.948   2.254 -0.4412  0.1267 -0.3742
  656SOL    HW1 1967   0.342   2.885   2.306 -0.0256  2.6372  1.7361
  656SOL    HW2 1968   0.499   2.955   2.290  1.3711 -1.8451 -2.2802
  657SOL     OW 1969   1.789   0.573   2.595  0.4198 -0.1202 -0.4276
  657SOL    HW1 1970   1.787   0.476   2.566 -0.6598  0.5998  0.6839
  657SOL    HW2 1971   1.886   0.610   2.582  1.0783  1.1170  1.4484
  658SOL     OW 1972   2.270   1.681   1.177 -0.2056 -0.6342 -0.2126
  658SOL    HW1 1973   2.196   1.696   1.247 -1.6747  3.7889  2.4109
  658SOL    HW2 1974   2.364   1.680   1.218  0.1145  1.2114 -0.0766
  659SOL     OW 1975   2.829   2.817   0.052 -0.0250  1.0838 -0.1258
  659SOL    HW1 1976   2.924   2.840   0.081 -2.7527 -1.7249  0.4320
  659SOL    HW2 1977   2.761   2.881   0.100  1.8971  2.2359 -1.3740
  660SOL     OW 1978   1.489   0.761   0.098 -0.3022  0.3766  0.0694
  660SOL    HW1 1979   1.526   0.820   0.025 -3.7726 -1.4543  1.1752
  660SOL    HW2 1980   1.514   0.799   0.187  0.6848  0.1004 -0.7557
  661SOL     OW 1981   2.403   2.600   0.989 -0.0162  0.4505  0.2939
  661SOL    HW1 1982   2.414   2.639   0.893 -1.8854  0.3848 -0.9587
  661SOL    HW2 1983   2.363   2.503   0.980 -0.2004 -3.7308 -0.8019
  662SOL     OW 1984   0.638   0.540   0.668 -0.3900 -0.3851  0.8961
  662SOL    HW1 1985   0.611   0.483   0.748  2.3654  1.5054  0.1126
  662SOL    HW2 1986   0.577   0.514   0.589 -2.2694 -1.8212 -0.6793
  663SOL     OW 1987   1.293   2.473   2.598 -0.1952  0.3488  0.3894
  663SOL    HW1 1988   1.363   2.496   2.533 -4.0460 -1.5336  1.6761
  663SOL    HW2 1989   1.206   2.487   2.549  1.7239 -1.2182 -2.6361
  664SOL     OW 1990   0.614   2.291   1.267  0.4775 -0.3145  0.0344
  664SOL    HW1 1991   0.712   2.303   1.234 -0.8022 -0.6298 -0.3016
  664SOL    HW2 1992   0.546   2.336   1.205 -3.0571  2.4924 -0.7614
  665SOL     OW 1993   1.290   1.872   1.504  0.1116  0.1575  0.2081
  665SOL    HW1 1994   1.322   1.888   1.601  0.6522  1.4074  2.1036
  665SOL    HW2 1995   1.209   1.806   1.493 -4.4709 -1.0509  1.0097
  666SOL     OW 1996   0.497   2.748   0.182  0.1758 -0.0220  0.1756
  666SOL    HW1 1997   0.503   2.794   0.090 -1.7705 -1.8497 -2.2310
  666SOL    HW2 1998   0.437   2.665   0.176  0.3003  0.0698  0.3514
  667SOL     OW 1999   1.713   1.680   1.481  0.0549  0.0034  0.0579
  667SOL    HW1 2000   1.783   1.669   1.555  1.3429  1.4174  0.8819
  667SOL    HW2 2001   1.722   1.772   1.445 -0.4316 -0.7388 -1.2547
  668SOL     OW 2002   0.424   0.145   2.313  0.8207  0.2155  0.1616
  668SOL    HW1 2003   0.499   0.203   2.280 -0.5069 -0.5754  1.0283
  668SOL    HW2 2004   0.350   0.140   2.240 -2.1129 -1.8717 -0.5183
  669SOL     OW 2005   2.296   2.629   2.175  0.1051 -0.3680  0.4621
  669SOL    HW1 2006   2.215   2.670   2.129  2.1145  1.3261  2.7561
  669SOL    HW2 2007   2.383   2.655   2.130  0.8654 -0.4235  0.3448
  670SOL     OW 2008   2.335   1.825   0.326  0.5783  0.1518 -0.2312
  670SOL    HW1 2009   2.284   1.911   0.329 -0.0584 -1.0219 -2.1479
  670SOL    HW2 2010   2.311   1.766   0.409 -0.3422  1.8850  1.4579
  671SOL     OW 2011   1.042   1.151   1.162 -0.4076  0.0506 -0.0274
  671SOL    HW1 2012   1.071   1.147   1.063  0.3499  1.9964 -0.8172
  671SOL    HW2 2013   1.039   1.059   1.206  0.0925 -1.1062  2.0447
  672SOL     OW 2014   2.617   1.437   2.222  0.3777 -0.2566 -0.3567
  672SOL    HW1 2015   2.622   1.538   2.223 -1.2871 -0.2532  0.7567
  672SOL    HW2 2016   2.526   1.403   2.184 -2.2440 -1.0671 -0.0993
  673SOL     OW 2017   2.669   1.716   2.231 -0.1247  0.3599 -0.0618
  673SOL    HW1 2018   2.731   1.750   2.303 -0.9531 -2.9424 -1.8915
  673SOL    HW2 2019   2.676   1.789   2.156  0.5749  0.8070 -0.0088
  674SOL     OW 2020   1.088   2.951   2.449  0.3269 -0.2290  0.3495
  674SOL    HW1 2021   1.004   2.980   2.499  3.3724  0.8422  1.0221
  674SOL    HW2 2022   1.071   2.897   2.364  1.7401  3.2594  0.9624
  675SOL     OW 2023   0.577   0.628   1.369  0.5861 -0.5482  0.1418
  675SOL    HW1 2024   0.612   0.624   1.271  2.3613  1.1687  0.6545
  675SOL    HW2 2025   0.584   0.720   1.404  0.6641  0.9639  1.0400
  676SOL     OW 2026   1.937   0.648   0.807 -0.0991  0.6018  0.2327
  676SOL    HW1 2027   1.903   0.553   0.837 -1.1762  1.6321 -3.7074
  676SOL    HW2 2028   1.923   0.720   0.878  2.1684 -0.6967 -1.6408
  677SOL     OW 2029   2.736   1.614   2.777 -0.6523  0.5483 -0.4071
  677SOL    HW1 2030   2.766   1.537   2.839  2.3023  3.1868 -1.3854
  677SOL    HW2 2031   2.719   1.581   2.682 -2.0283 -1.5303 -0.6191
  678SOL     OW 2032   0.029   3.087   1.107  0.2371 -0.0776 -0.0453
  678SOL    HW1 2033   0.012   0.001   1.020 -0.5566 -1.3728 -0.3635
  678SOL    HW2 2034   0.097   3.011   1.100 -2.8351  1.0264  2.1406
  679SOL     OW 2035   2.252   3.120   0.276  0.1106  0.0597 -0.5868
  679SOL    HW1 2036   2.349   0.014   0.263 -0.7942 -1.2525  2.5457
  679SOL    HW2 2037   2.197   0.058   0.330  0.1222 -1.0775  2.1176
  680SOL     OW 2038   0.366   2.237   2.155  0.6263 -0.6321  0.0496
  680SOL    HW1 2039   0.444   2.304   2.150  1.4118 -2.9594  0.2337
  680SOL    HW2 2040   0.397   2.140   2.164  1.1806  3.3044  0.1040
  681SOL     OW 2041   2.889   1.859   1.321 -0.3779  0.2234 -0.2931
  681SOL    HW1 2042   2.803   1.910   1.303  1.7428 -0.3001  0.0936
  681SOL    HW2 2043   2.971   1.912   1.291  0.1848  0.0620 -0.7869
  682SOL     OW 2044   0.304   2.117   1.861 -0.1712 -0.7422 -0.7200
  682SOL    HW1 2045   0.289   2.157   1.956 -2.8290 -0.1501  1.7026
  682SOL    HW2 2046   0.308   2.014   1.856  0.0430  0.1881 -3.7377
  683SOL     OW 2047   2.953   2.088   1.807  0.2258  0.6265 -0.5800
  683SOL    HW1 2048   2.956   1.997   1.857 -0.7971  0.8635  0.1484
  683SOL    HW2 2049   3.012   2.087   1.728 -2.6969 -0.4457  0.9186
  684SOL     OW 2050   2.556   1.515   2.562 -0.3081  0.0111 -0.0044
  684SOL    HW1 2051   2.638   1.518   2.503 -1.1222  1.2963 -2.7308
  684SOL    HW2 2052   2.504   1.432   2.559 -1.5232  0.8407 -0.4791
  685SOL     OW 2053   1.450   1.264   0.282 -0.0217  0.1294 -0.3151
  685SOL    HW1 2054   1.446   1.202   0.362  1.8486  0.5742  0.0725
  685SOL    HW2 2055   1.513   1.341   0.308  0.2029  0.2627 -1.4537
  686SOL     OW 2056   0.584   0.123   0.714  0.2276  0.4692 -0.3768
  686SOL    HW1 2057   0.595   0.212   0.762 -0.7130  2.3523  0.1615
  686SOL    HW2 2058   0.512   0.065   0.754 -1.0176  0.4732 -4.6883
  687SOL     OW 2059   1.366   1.337   2.357  0.1872  0.1775 -0.0448
  687SOL    HW1 2060   1.279   1.333   2.405 -0.1851  1.0059  1.8718
  687SOL    HW2 2061   1.410   1.241   2.361 -0.2890 -0.0775  1.5283
  688SOL     OW 2062   1.113   1.668   1.442  0.3972  0.1293 -0.0002
  688SOL    HW1 2063   1.110   1.684   1.340  0.0564 -1.1407 -0.9053
  688SOL    HW2 2064   1.014   1.654   1.462 -1.2351 -2.2273  0.8030
  689SOL     OW 2065   2.272   0.403   1.351 -0.1880  0.5908 -0.3552
  689SOL    HW1 2066   2.345   0.347   1.309 -1.0122  0.8045 -1.3486
  689SOL    HW2 2067   2.222   0.454   1.277  0.4682 -1.0923 -0.9863
  690SOL     OW 2068   2.883   1.355   1.056 -0.1824  0.1878  0.1362
  690SOL    HW1 2069   2.925   1.291   1.128  0.6423  0.3436 -1.3931
  690SOL    HW2 2070   2.937   1.362   0.972 -1.5266  0.3732  0.7852
  691SOL     OW 2071   0.390   2.379   1.093  0.0340 -0.0232 -0.1614
  691SOL    HW1 2072   0.377   2.350   0.999  0.2843  0.6619 -1.3356
  691SOL    HW2 2073   0.320   2.338   1.150 -0.2623  1.2830 -0.2477
  692SOL     OW 2074   2.338   0.340   1.607  0.3662  0.2661 -0.5614
  692SOL    HW1 2075   2.307   0.384   1.520  0.5539 -1.5153 -1.2175
  692SOL    HW2 2076   2.290   0.253   1.627 -3.1426  1.0854 -0.7320
  693SOL     OW 2077   0.125   1.687   2.108  0.2781  0.1360 -0.1190
  693SOL    HW1 2078   0.058   1.639   2.169  1.5181 -0.7311 -0.0036
  693SOL    HW2 2079   0.119   1.789   2.131 -0.6820  1.1056 -0.9747
  694SOL     OW 2080   1.859   1.372   1.743 -0.1938  0.2778 -0.4693
  694SOL    HW1 2081   1.772   1.413   1.779 -1.5804 -0.0597  1.7412
  694SOL    HW2 2082   1.916   1.329   1.817 -1.1876  1.2705 -1.7238
  695SOL     OW 2083   0.667   0.657   1.108 -0.0611 -0.2764 -0.1863
  695SOL    HW1 2084   0.611   0.742   1.102 -0.9733 -0.2300 -0.2074
  695SOL    HW2 2085   0.761   0.678   1.138  0.7134 -2.0353 -0.0434
  696SOL     OW 2086   1.812   0.028   0.844 -0.4003 -0.2311  0.2018
  696SOL    HW1 2087   1.858   0.072   0.923  2.6487  0.0335  2.9459
  696SOL    HW2 2088   1.848   3.065   0.838 -3.0767 -1.2812  0.0097
  697SOL     OW 2089   1.190   0.387   1.491 -0.7175  0.0011  0.0768
  697SOL    HW1 2090   1.150   0.397   1.582  0.3233 -1.4285 -0.1460
  697SOL    HW2 2091   1.134   0.320   1.441  0.4512 -0.9687  1.6910
  698SOL     OW 2092   1.657   1.271   2.122 -0.1554  0.0089 -0.1306
  698SOL    HW1 2093   1.614   1.177   2.117 -0.3153  0.6758 -1.1382
  698SOL    HW2 2094   1.715   1.288   2.207  1.5266  0.4839 -0.4064
  699SOL     OW 2095   2.103   0.870   1.384 -0.1602  0.4103 -0.9105
  699SOL    HW1 2096   2.045   0.949   1.376  2.8263 -1.4870 -1.9884
  699SOL    HW2 2097   2.163   0.861   1.304 -0.8937  0.1399  0.0759
  700SOL     OW 2098   0.925   2.474   0.055  0.1992  0.2478  0.1922
  700SOL    HW1 2099   0.941   2.527   0.145  0.0726 -0.5564 -0.6809
  700SOL    HW2 2100   1.003   2.413   0.035  0.5982  1.2921  0.5746
  701SOL     OW 2101   2.376   2.352   2.888 -0.0693  0.3530  0.0585
  701SOL    HW1 2102   2.290   2.406   2.909  0.2080  0.5197  0.6137
  701SOL    HW2 2103   2.458   2.389   2.935 -0.4412 -0.7976 -2.6983
  702SOL     OW 2104   0.782   0.071   1.187 -0.4146  0.2785 -1.0310
  702SOL    HW1 2105   0.823   0.136   1.255  0.8293 -1.1851  2.1849
  702SOL    HW2 2106   0.815   0.086   1.095 -0.6000 -0.2309 -0.4906
  703SOL     OW 2107   2.176   0.290   2.334  0.4288  0.1707 -0.0459
  703SOL    HW1 2108   2.214   0.196   2.357 -0.3923 -2.7555 -0.0999
  703SOL    HW2 2109   2.181   0.300   2.231  0.4088  0.8449 -1.0798
  704SOL     OW 2110   2.827   2.507   0.392  0.3286 -0.5927 -0.2425
  704SOL    HW1 2111   2.873   2.597   0.381  4.2442  1.3104  1.6120
  704SOL    HW2 2112   2.885   2.437   0.437  1.1291 -0.0009  0.6875
  705SOL     OW 2113   2.692   0.048   2.199 -0.1705 -0.2563  0.1166
  705SOL    HW1 2114   2.612   0.108   2.182 -0.1129  0.6004 -0.3082
  705SOL    HW2 2115   2.663   3.084   2.215 -0.3407 -1.1208  0.5373
  706SOL     OW 2116   2.299   2.849   1.258  0.4133 -0.1627 -0.2665
  706SOL    HW1 2117   2.278   2.809   1.349 -1.0678  1.5823 -1.1323
  706SOL    HW2 2118   2.247   2.810   1.177 -0.5771 -3.6737 -1.8960
  707SOL     OW 2119   0.758   2.871   2.283 -0.0657  0.5509 -0.6933
  707SOL    HW1 2120   0.729   2.909   2.194 -0.2219 -0.1359  0.6792
  707SOL    HW2 2121   0.777   2.938   2.357 -2.1454  2.0463  1.9636
  708SOL     OW 2122   2.914   2.399   1.802  0.0713 -0.7646 -0.0848
  708SOL    HW1 2123   2.891   2.327   1.734 -0.0621 -2.3434  2.1207
  708SOL    HW2 2124   3.013   2.404   1.825  0.2167 -0.5262  0.5981
  709SOL     OW 2125   1.828   0.335   1.660 -0.3500  0.1935 -0.3372
  709SOL    HW1 2126   1.857   0.401   1.586  0.3182  1.1092 -1.2240
  709SOL    HW2 2127   1.746   0.284   1.634 -1.9376  0.3813  0.5401
  710SOL     OW 2128   1.379   0.467   2.903  0.2387  0.3793  0.1162
  710SOL    HW1 2129   1.437   0.400   2.949 -0.2892 -0.2792 -0.7205
  710SOL    HW2 2130   1.441   0.529   2.849  0.5325  1.2366 -2.8302
  711SOL     OW 2131   1.024   1.663   2.429 -0.4097 -0.3437  0.0477
  711SOL    HW1 2132   1.026   1.707   2.519 -0.7762  1.7738 -3.2505
  711SOL    HW2 2133   0.990   1.729   2.359  0.7260  1.6962 -0.7481
  712SOL     OW 2134   0.948   1.831   2.642  0.2314 -0.2685 -0.2300
  712SOL    HW1 2135   1.013   1.909   2.664 -1.6761  2.1130  2.1154
  712SOL    HW2 2136   0.856   1.872   2.626  0.8752  1.1070  0.4616
  713SOL     OW 2137   1.841   1.058   2.668  0.0643 -0.3372 -0.1697
  713SOL    HW1 2138   1.826   1.000   2.752 -1.3634 -3.2817  0.8867
  713SOL    HW2 2139   1.863   1.160   2.688  0.2743  1.3583  1.1619
  714SOL     OW 2140   0.999   1.653   1.835  0.1298 -0.1360  0.0260
  714SOL    HW1 2141   0.919   1.611   1.891 -0.4198  2.4174 -0.2338
  714SOL    HW2 2142   0.993   1.756   1.823 -0.1971  2.9883 -1.7320
  715SOL     OW 2143   2.106   0.359   2.941 -0.2708  0.5101  0.3478
  715SOL    HW1 2144   2.125   0.291   3.012 -0.0731  2.0942 -2.0083
  715SOL    HW2 2145   2.037   0.335   2.867 -1.7334 -1.9941 -0.4810
  716SOL     OW 2146   2.875   2.457   1.409  0.1030  0.4787 -0.2923
  716SOL    HW1 2147   2.874   2.555   1.447  0.5084  0.1637  1.8426
  716SOL    HW2 2148   2.823   2.463   1.320 -2.6132 -0.0287 -0.0529
  717SOL     OW 2149   2.801   1.228   0.686 -0.7445 -0.2024  0.7147
  717SOL    HW1 2150   2.736   1.232   0.767  2.7297 -0.6823  1.7067
  717SOL    HW2 2151   2.770   1.162   0.619  1.7562  1.5839  1.0667
  718SOL     OW 2152   1.249   1.999   1.946  0.1874  0.3129 -0.0392
  718SOL    HW1 2153   1.239   2.099   1.955  0.9318  1.3472 -1.1583
  718SOL    HW2 2154   1.213   1.944   2.026  0.0622 -0.0084  1.6539
  719SOL     OW 2155   2.333   0.471   2.815  0.1714  0.0821 -0.1260
  719SOL    HW1 2156   2.238   0.445   2.833  0.7094 -0.3123  1.5312
  719SOL    HW2 2157   2.391   0.459   2.901  2.6428  2.2215 -1.1843
  720SOL     OW 2158   1.094   0.384   1.046 -0.5524 -0.5217  0.5565
  720SOL    HW1 2159   1.135   0.453   1.108  1.8696  0.4481  2.6089
  720SOL    HW2 2160   1.122   0.289   1.069 -0.2751  2.0873 -0.0311
  721SOL     OW 2161   2.687   0.903   0.301  0.0116  0.0586 -0.2605
  721SOL    HW1 2162   2.740   0.984   0.273 -3.2292 -1.2901 -1.7852
  721SOL    HW2 2163   2.735   0.818   0.269 -0.3511 -1.1801  1.3067
  722SOL     OW 2164   0.213   2.859   2.663  0.0354  0.0830  0.1202
  722SOL    HW1 2165   0.236   2.837   2.569 -1.7009  1.1681  0.9042
  722SOL    HW2 2166   0.293   2.870   2.724  1.7506  3.0366  1.9795
  723SOL     OW 2167   1.713   0.299   0.676  0.2516 -0.2019  0.4245
  723SOL    HW1 2168   1.756   0.223   0.622  1.0991  1.5494  1.6311
  723SOL    HW2 2169   1.703   0.383   0.620 -2.0642  0.5936  1.2746
  724SOL     OW 2170   0.830   1.507   2.001  0.0191 -0.1231 -0.0243
  724SOL    HW1 2171   0.891   1.454   2.068  1.5057 -1.1722 -0.1459
  724SOL    HW2 2172   0.780   1.587   2.044  0.3493 -2.0172  2.0657
  725SOL     OW 2173   1.550   2.946   1.336  0.3385  0.3924  0.2454
  725SOL    HW1 2174   1.517   2.863   1.385 -1.4340  0.6652  1.6292
  725SOL    HW2 2175   1.631   2.915   1.279  2.1939 -3.5617 -0.6649
  726SOL     OW 2176   2.250   2.914   0.077 -0.3914 -0.5652 -0.3869
  726SOL    HW1 2177   2.262   2.994   0.145  2.5518  2.1399  1.8468
  726SOL    HW2 2178   2.338   2.881   0.036 -0.3578 -2.4589  1.4434
  727SOL     OW 2179   1.429   1.981   0.728 -0.6813  0.0764 -0.0476
  727SOL    HW1 2180   1.470   2.072   0.707 -0.1698  0.3796 -2.6815
  727SOL    HW2 2181   1.363   1.940   0.662  0.4158 -0.8990 -1.1845
  728SOL     OW 2182   2.065   2.786   2.038  0.0332  0.6615 -0.5132
  728SOL    HW1 2183   2.081   2.830   1.948  1.7576  1.0720 -2.1922
  728SOL    HW2 2184   2.028   2.848   2.111 -3.0140 -1.5376 -0.2103
  729SOL     OW 2185   1.814   1.940   1.328 -0.5158 -0.1999 -0.4283
  729SOL    HW1 2186   1.742   2.015   1.317 -2.6989  3.6553 -2.3463
  729SOL    HW2 2187   1.798   1.862   1.261 -1.4937 -2.6893 -0.8843
  730SOL     OW 2188   1.611   1.114   0.087  0.2611 -0.3125  0.0716
  730SOL    HW1 2189   1.544   1.187   0.123 -2.3455 -0.8990 -0.9638
  730SOL    HW2 2190   1.608   1.042   0.159  0.8613  3.1523 -0.4656
  731SOL     OW 2191   0.790   2.985   1.345 -0.1893 -0.0949 -0.0835
  731SOL    HW1 2192   0.797   3.073   1.293 -0.1582 -0.0982  0.5658
  731SOL    HW2 2193   0.729   2.925   1.300  1.0368  1.9157  0.1413
  732SOL     OW 2194   1.496   0.194   1.078  0.0666  0.5732 -0.3048
  732SOL    HW1 2195   1.474   0.292   1.090  0.6660  2.1874 -0.6080
  732SOL    HW2 2196   1.512   0.167   0.978  1.8132  1.1315 -3.2494
  733SOL     OW 2197   0.767   1.241   1.185  0.1409 -0.4892  0.0194
  733SOL    HW1 2198   0.754   1.324   1.123 -0.4326  2.3680  0.6458
  733SOL    HW2 2199   0.861   1.209   1.177 -0.3777 -2.5131  1.2059
  734SOL     OW 2200   2.779   2.656   2.932  0.4654 -0.6967 -1.1702
  734SOL    HW1 2201   2.796   2.686   3.028  0.4895  1.8931 -0.0028
  734SOL    HW2 2202   2.732   2.563   2.923 -0.3869 -0.3849  0.3339
  735SOL     OW 2203   1.236   2.684   1.300  1.5841 -0.5049 -0.1173
  735SOL    HW1 2204   1.277   2.695   1.393  0.0967 -2.3318 -2.1597
  735SOL    HW2 2205   1.295   2.730   1.230  0.3833 -2.3704 -1.2075
  736SOL     OW 2206   1.642   2.019   0.078 -0.2128 -0.0548 -0.0250
  736SOL    HW1 2207   1.614   2.100   0.134  0.8112  1.5745 -1.1391
  736SOL    HW2 2208   1.743   1.996   0.082  0.2402 -0.5888  0.2603
  737SOL     OW 2209   3.119   2.074   1.517 -0.5710 -0.5695  0.3811
  737SOL    HW1 2210   3.118   2.066   1.420 -3.0924 -0.7260  0.8886
  737SOL    HW2 2211   3.048   2.139   1.547 -1.0599  0.3539  0.7056
  738SOL     OW 2212   1.994   2.260   2.535 -0.2842 -0.3047  0.0645
  738SOL    HW1 2213   1.979   2.239   2.630  2.3413  0.1940 -1.8033
  738SOL    HW2 2214   2.008   2.358   2.520  2.1963  0.7108 -4.1156
  739SOL     OW 2215   1.318   1.750   2.366 -0.0881  0.0474  0.1490
  739SOL    HW1 2216   1.417   1.728   2.347  1.0057 -2.0527 -1.3547
  739SOL    HW2 2217   1.294   1.750   2.466 -1.4873 -0.7315 -0.8897
  740SOL     OW 2218   1.361   2.828   1.093 -0.2894 -0.4373  0.2773
  740SOL    HW1 2219   1.386   2.925   1.070  0.7176  1.4459 -2.7919
  740SOL    HW2 2220   1.307   2.781   1.022 -0.3978 -0.9129  0.3487
  741SOL     OW 2221   0.144   1.243   0.331 -0.2500  0.4132 -0.0996
  741SOL    HW1 2222   0.199   1.206   0.415 -1.1335  1.4778  2.5461
  741SOL    HW2 2223   0.070   1.305   0.369 -2.1957  1.7731  1.0465
  742SOL     OW 2224   1.182   1.565   2.198 -0.1937 -0.4359  0.1967
  742SOL    HW1 2225   1.274   1.572   2.161 -0.3085  2.7878  2.3429
  742SOL    HW2 2226   1.170   1.622   2.283 -1.4650 -0.3340 -0.9074
  743SOL     OW 2227   0.989   0.864   2.313  1.0260  0.3177 -0.3263
  743SOL    HW1 2228   0.933   0.798   2.368  0.5429 -3.2488 -0.0817
  743SOL    HW2 2229   1.062   0.814   2.268 -2.6077 -0.0653 -0.2424
  744SOL     OW 2230   2.395   3.045   1.525 -0.0384 -0.0492  0.2166
  744SOL    HW1 2231   2.395   2.949   1.563  2.0596 -1.7527  1.9501
  744SOL    HW2 2232   2.357   3.043   1.426 -1.0676 -0.2461 -1.0642
  745SOL     OW 2233   2.072   1.764   1.367  0.1759 -0.0186 -0.5230
  745SOL    HW1 2234   1.975   1.790   1.359 -0.0822 -3.3558  1.3372
  745SOL    HW2 2235   2.078   1.696   1.443 -3.8501  1.2791  2.9282
  746SOL     OW 2236   1.974   1.139   0.693  0.4194 -0.7724  0.4821
  746SOL    HW1 2237   1.981   1.223   0.641 -1.2728  0.9233  2.2565
  746SOL    HW2 2238   1.884   1.098   0.680  1.3119  1.8744 -3.6782
  747SOL     OW 2239   2.222   1.696   0.557 -0.1345 -0.0119 -0.5387
  747SOL    HW1 2240   2.228   1.613   0.620  5.4815 -0.0218  0.3748
  747SOL    HW2 2241   2.125   1.725   0.542  2.3341  1.1365  1.2755
  748SOL     OW 2242   0.294   1.906   0.306 -0.0568 -0.3868  0.2319
  748SOL    HW1 2243   0.198   1.933   0.318  1.4836  1.8898 -0.3765
  748SOL    HW2 2244   0.303   1.809   0.283  2.4145  1.5667  2.9064
  749SOL     OW 2245   2.956   2.378   2.699 -0.3471 -0.4620 -0.1781
  749SOL    HW1 2246   2.860   2.341   2.696  1.5284  0.0132 -2.5334
  749SOL    HW2 2247   2.961   2.473   2.737 -0.9986 -1.7260 -0.9144
  750SOL     OW 2248   2.235   1.013   0.691 -0.4986  0.0391  0.0327
  750SOL    HW1 2249   2.254   1.024   0.788 -1.0811  0.5510 -1.7363
  750SOL    HW2 2250   2.136   1.032   0.676 -1.1134  1.3044  0.6823
  751SOL     OW 2251   2.526   0.033   0.085 -0.2435 -0.1896 -0.7832
  751SOL    HW1 2252   2.493   3.114   0.001 -0.8650  2.9726 -1.4427
  751SOL    HW2 2253   2.610   3.125   0.127  0.8433 -0.5111 -1.5077
  752SOL     OW 2254   2.422   2.714   0.730  0.2419  0.7061 -0.9471
  752SOL    HW1 2255   2.465   2.805   0.747  2.0327 -0.5034 -0.2762
  752SOL    HW2 2256   2.461   2.668   0.647 -0.3211  0.5704  0.5294
  753SOL     OW 2257   1.865   1.259   2.386 -0.2983  1.0273 -0.1930
  753SOL    HW1 2258   1.796   1.194   2.422 -1.5973 -1.0482 -0.2090
  753SOL    HW2 2259   1.901   1.321   2.460  2.7346 -1.7279 -1.2405
  754SOL     OW 2260   2.131   2.431   1.755  0.4128  0.2344  0.1689
  754SOL    HW1 2261   2.172   2.364   1.691  2.4768  2.2674  0.2547
  754SOL    HW2 2262   2.081   2.392   1.837 -1.5525 -0.4895  2.5207
  755SOL     OW 2263   2.631   0.888   0.869  0.1509 -0.4123  0.2415
  755SOL    HW1 2264   2.626   0.827   0.785  0.7201 -1.3387 -2.8268
  755SOL    HW2 2265   2.597   0.983   0.856 -0.9189 -2.5282 -0.4595
  756SOL     OW 2266   1.026   1.289   2.891  0.1091 -0.1600  0.0937
  756SOL    HW1 2267   0.953   1.228   2.940  0.8938 -1.3223 -0.2554
  756SOL    HW2 2268   0.979   1.351   2.821 -1.8005 -0.0247 -0.2424
  757SOL     OW 2269   1.698   2.549   0.958 -0.2965  0.2103 -0.1919
  757SOL    HW1 2270   1.667   2.576   0.862  1.5925 -0.7787  0.5127
  757SOL    HW2 2271   1.796   2.534   0.965 -0.0939 -1.7248  1.3583
  758SOL     OW 2272   0.876   2.306   1.196  0.0546  0.2621  0.3986
  758SOL    HW1 2273   0.954   2.368   1.226 -1.0620 -1.4968  0.4287
  758SOL    HW2 2274   0.877   2.220   1.251 -0.5321 -2.7149 -1.2392
  759SOL     OW 2275   2.649   1.327   1.156  0.0819 -0.1640  0.1492
  759SOL    HW1 2276   2.652   1.246   1.217  0.8151 -1.7957  2.1298
  759SOL    HW2 2277   2.743   1.352   1.128 -1.3882 -1.3860 -1.7183
  760SOL     OW 2278   1.931   0.974   1.799 -0.2389  0.2092 -0.0013
  760SOL    HW1 2279   1.948   1.056   1.860  3.0803  0.3126  1.4080
  760SOL    HW2 2280   1.874   1.004   1.720  1.3658  0.1340 -0.1762
  761SOL     OW 2281   2.018   2.857   0.229 -0.3367 -0.2416  0.1404
  761SOL    HW1 2282   2.027   2.756   0.243 -0.1266 -0.5517 -2.0867
  761SOL    HW2 2283   2.099   2.888   0.182 -1.6491 -0.8774  1.8534
  762SOL     OW 2284   1.963   1.921   2.784 -0.2003 -0.5825  0.0114
  762SOL    HW1 2285   1.865   1.898   2.775  1.9384 -0.6350 -2.3720
  762SOL    HW2 2286   2.009   1.913   2.693 -0.6662 -1.0931 -1.4919
  763SOL     OW 2287   0.467   1.536   1.346 -0.3856  0.4708  0.1256
  763SOL    HW1 2288   0.515   1.455   1.389  0.0508  0.2094 -2.2151
  763SOL    HW2 2289   0.366   1.524   1.366 -1.3796 -2.1442  1.2065
  764SOL     OW 2290   0.007   2.465   0.011 -0.3206 -0.2598  0.6468
  764SOL    HW1 2291   3.046   2.484   0.038 -0.5997 -3.2020 -0.5922
  764SOL    HW2 2292   0.035   2.532   3.076 -2.2980 -0.3107  1.3785
  765SOL     OW 2293   0.695   3.073   1.604  0.0798  0.8428 -0.2138
  765SOL    HW1 2294   0.722   3.046   1.509  1.0555 -2.4420 -0.0599
  765SOL    HW2 2295   0.770   3.127   1.654 -1.9533 -0.1859  0.8431
  766SOL     OW 2296   3.051   2.169   2.033 -0.7234 -0.3853  0.7998
  766SOL    HW1 2297   2.991   2.230   2.089 -1.8147 -0.4685  0.7412
  766SOL    HW2 2298   3.004   2.146   1.943 -1.5773  0.6530  1.5676
  767SOL     OW 2299   2.651   1.057   1.985  0.0080  0.0975 -0.2847
  767SOL    HW1 2300   2.582   1.113   1.944  3.7374  0.4911  0.5052
  767SOL    HW2 2301   2.741   1.055   1.933  4.4170  2.9693  2.2622
  768SOL     OW 2302   0.824   0.583   2.862  0.3451 -0.3586 -0.2359
  768SOL    HW1 2303   0.774   0.515   2.921 -1.8111  0.8707  0.1090
  768SOL    HW2 2304   0.913   0.543   2.836 -0.4049 -2.5081  0.2748
  769SOL     OW 2305   2.197   2.777   1.012 -0.0877 -0.1102 -0.4153
  769SOL    HW1 2306   2.277   2.718   0.998  1.1089  0.3886  2.5610
  769SOL    HW2 2307   2.225   2.876   1.006 -0.6600 -0.6648 -2.3067
  770SOL     OW 2308   2.869   0.191   2.779 -0.5465 -0.2456  0.4095
  770SOL    HW1 2309   2.825   0.278   2.755  1.6328 -0.4565 -1.4184
  770SOL    HW2 2310   2.969   0.205   2.761 -0.0924  0.2297  0.5461
  771SOL     OW 2311   1.576   2.220   2.115 -0.0025 -0.1434  0.1974
  771SOL    HW1 2312   1.573   2.236   2.013 -0.7508  2.3138 -3.5610
  771SOL    HW2 2313   1.528   2.137   2.144  0.3402  2.5200  1.6964
  772SOL     OW 2314   1.435   0.509   0.222 -0.1738 -0.0551  0.0803
  772SOL    HW1 2315   1.334   0.508   0.223  1.1788  1.7311  0.2897
  772SOL    HW2 2316   1.469   0.592   0.169  1.2520  1.0302  4.2009
  773SOL     OW 2317   2.732   0.840   1.657  0.0712  0.0205  0.1991
  773SOL    HW1 2318   2.744   0.742   1.688 -1.0666 -1.2930  2.3512
  773SOL    HW2 2319   2.627   0.852   1.653  0.1991 -0.3846  0.1364
  774SOL     OW 2320   1.137   1.134   0.908  0.0829 -0.2557  0.4668
  774SOL    HW1 2321   1.078   1.185   0.838  0.6568  0.2832 -0.5270
  774SOL    HW2 2322   1.178   1.051   0.866 -0.1132  2.5736 -0.5816
  775SOL     OW 2323   2.536   3.094   2.947 -0.6151 -0.0037 -0.5724
  775SOL    HW1 2324   2.443   3.114   2.908 -1.1334  0.7876  2.5261
  775SOL    HW2 2325   2.548   2.996   2.966 -0.3700  0.7502 -0.4001
  776SOL     OW 2326   2.529   1.386   1.907  0.4408 -0.1940 -0.3166
  776SOL    HW1 2327   2.479   1.385   1.992  1.8508 -1.7385 -2.5197
  776SOL    HW2 2328   2.493   1.321   1.841 -1.3243  3.3666  3.1282
  777SOL     OW 2329   0.453   1.268   2.653 -0.1820  0.1018 -0.0730
  777SOL    HW1 2330   0.431   1.364   2.630  1.5176  0.7124  0.0346
  777SOL    HW2 2331   0.492   1.214   2.577  2.3786  1.1694  3.8622
  778SOL     OW 2332   0.648   0.573   0.199 -0.5109  0.1241  0.4820
  778SOL    HW1 2333   0.725   0.508   0.183  1.0545 -0.1244 -0.0840
  778SOL    HW2 2334   0.565   0.538   0.152  0.7110 -2.7925 -1.1006
  779SOL     OW 2335   0.666   0.449   2.655 -0.2771  0.2359  0.7161
  779SOL    HW1 2336   0.711   0.507   2.725 -1.4801 -1.2884 -1.2318
  779SOL    HW2 2337   0.593   0.393   2.700  0.8367 -0.8605 -0.1005
  780SOL     OW 2338   2.247   0.903   2.678 -0.6703  0.1585  0.7149
  780SOL    HW1 2339   2.335   0.941   2.719  0.5844  2.8797  0.1582
  780SOL    HW2 2340   2.262   0.809   2.640 -2.0146 -1.8645 -0.6011
  781SOL     OW 2341   2.872   1.012   1.827  0.3780 -0.0994  0.5459
  781SOL    HW1 2342   2.836   0.930   1.771  0.7429 -1.3373 -2.5797
  781SOL    HW2 2343   2.949   0.984   1.886 -1.3679  1.1346  1.1115
  782SOL     OW 2344   0.805   1.366   2.696 -0.0559 -0.2969 -0.5975
  782SOL    HW1 2345   0.734   1.405   2.760  0.8990 -0.4143  0.5221
  782SOL    HW2 2346   0.806   1.425   2.608  1.3365  1.2371  0.5091
  783SOL     OW 2347   1.076   2.464   1.265  0.0801  0.5343 -0.0332
  783SOL    HW1 2348   1.128   2.550   1.252 -0.3548  0.8233  0.4067
  783SOL    HW2 2349   1.147   2.391   1.239  0.8411 -0.7078 -0.8895
  784SOL     OW 2350   1.608   0.333   2.954  0.0670  0.5675 -0.1597
  784SOL    HW1 2351   1.599   0.283   3.045  0.1793  0.1198  1.0668
  784SOL    HW2 2352   1.653   0.420   2.970 -1.0408 -4.3691  0.6602
  785SOL     OW 2353   0.805   0.070   2.275  0.0887 -0.0537  0.2961
  785SOL    HW1 2354   0.849   0.148   2.323 -1.2561  1.4876 -2.0413
  785SOL    HW2 2355   0.741   0.107   2.205 -0.2510  0.5528  0.0290
  786SOL     OW 2356   0.499   2.071   0.399  0.0249  0.1997 -0.0780
  786SOL    HW1 2357   0.434   1.992   0.369 -2.7239 -0.2615  0.2866
  786SOL    HW2 2358   0.441   2.148   0.430 -1.8158 -0.0125  0.8616
  787SOL     OW 2359   1.319   0.969   0.548 -0.0929  0.2829 -0.9566
  787SOL    HW1 2360   1.302   1.071   0.533  0.3500  4.4851  0.1596
  787SOL    HW2 2361   1.305   0.946   0.643  0.2579  1.2928  0.6076
  788SOL     OW 2362   2.516   1.647   1.363  0.2785  0.1581 -0.4148
  788SOL    HW1 2363   2.594   1.592   1.398 -1.4591  0.9223 -0.4310
  788SOL    HW2 2364   2.443   1.641   1.437  1.8390 -0.1674  1.4731
  789SOL     OW 2365   2.739   1.205   2.232 -0.7545 -0.0559 -0.0464
  789SOL    HW1 2366   2.713   1.149   2.152  0.8292  1.5069 -1.9064
  789SOL    HW2 2367   2.690   1.292   2.228 -1.2196 -0.2060  3.8959
  790SOL     OW 2368   0.804   3.115   0.218 -0.1921 -0.4135 -0.2077
  790SOL    HW1 2369   0.847   3.023   0.228 -0.9337  1.4228 -0.9419
  790SOL    HW2 2370   0.838   0.049   0.288  2.3266  2.6102  3.8980
  791SOL     OW 2371   0.353   0.807   0.125 -0.0728 -0.1566  0.4425
  791SOL    HW1 2372   0.302   0.855   0.196 -1.1225  2.7714 -0.7602
  791SOL    HW2 2373   0.434   0.863   0.103 -0.5960  0.2234  0.2641
  792SOL     OW 2374   1.596   0.657   2.763 -0.2070  0.1510 -0.2438
  792SOL    HW1 2375   1.515   0.657   2.704 -0.8151  0.3210  0.9536
  792SOL    HW2 2376   1.682   0.668   2.706  1.0046 -0.2531 -0.7042
  793SOL     OW 2377   3.124   0.308   0.719  0.7127 -0.2454 -0.0233
  793SOL    HW1 2378   3.049   0.303   0.651 -0.8315 -0.6760 -1.7982
  793SOL    HW2 2379   3.114   0.394   0.771  0.2664 -1.2136 -0.0266
  794SOL     OW 2380   0.258   0.568   1.865  0.7918  0.0283  0.5129
  794SOL    HW1 2381   0.295   0.656   1.832 -3.1977 -0.1568 -0.2162
  794SOL    HW2 2382   0.160   0.562   1.831 -1.0580 -0.4674  0.2849
  795SOL     OW 2383   0.458   1.347   0.025 -0.0482  0.3019  0.5727
  795SOL    HW1 2384   0.535   1.299   0.068  0.7555  1.6704 -0.0445
  795SOL    HW2 2385   0.388   1.387   0.087  0.7261 -0.9499 -2.0969
  796SOL     OW 2386   0.093   1.047   0.102  0.2129  0.5495  0.0229
  796SOL    HW1 2387   0.069   1.109   0.182 -2.8447  0.8060  0.7394
  796SOL    HW2 2388   0.155   1.093   0.036 -0.5587 -2.2205 -0.6585
  797SOL     OW 2389   1.757   2.566   2.903 -0.1104 -0.5086  0.1557
  797SOL    HW1 2390   1.762   2.631   2.979  0.6836 -1.3676 -0.0756
  797SOL    HW2 2391   1.704   2.602   2.826  1.8462  0.2485 -1.8922
  798SOL     OW 2392   0.033   0.391   1.373  0.7600  0.3604 -0.0572
  798SOL    HW1 2393   0.040   0.294   1.334 -0.4442 -1.1285  0.9252
  798SOL    HW2 2394   0.041   0.384   1.479 -0.1087  0.7443  0.6079
  799SOL     OW 2395   2.273   0.903   1.929 -0.1356 -0.1145 -0.0650
  799SOL    HW1 2396   2.210   0.969   1.973  0.9011 -1.4301 -0.7774
  799SOL    HW2 2397   2.245   0.898   1.828 -2.8042  2.0313  1.4794
  800SOL     OW 2398   0.037   1.924   0.360  0.3202  0.0652  0.4241
  800SOL    HW1 2399   0.069   1.907   0.458  0.9368 -0.3512  1.1516
  800SOL    HW2 2400   3.100   1.854   0.328 -1.0075 -3.8195 -1.2646
  801SOL     OW 2401   1.603   2.234   0.746  0.0119 -0.2164 -0.2254
  801SOL    HW1 2402   1.642   2.261   0.658 -2.0832  0.4579 -1.4450
  801SOL    HW2 2403   1.681   2.222   0.811  2.0013  0.2641  2.0013
  802SOL     OW 2404   1.263   1.644   2.849  0.8844 -0.0582  0.1554
  802SOL    HW1 2405   1.328   1.570   2.855 -2.8351  0.4661 -0.3950
  802SOL    HW2 2406   1.181   1.597   2.814 -1.0190  0.3099 -1.0957
  803SOL     OW 2407   0.331   1.843   1.852  0.2076  0.1300  0.1148
  803SOL    HW1 2408   0.350   1.778   1.927 -2.0412  0.8409  0.7183
  803SOL    HW2 2409   0.268   1.807   1.783  0.9980  0.7791  0.7701
  804SOL     OW 2410   1.579   2.649   1.196 -0.5207  0.6559  0.2179
  804SOL    HW1 2411   1.626   2.625   1.109  1.8757  0.7173  0.5571
  804SOL    HW2 2412   1.512   2.721   1.179 -0.5101 -2.9333  1.9134
  805SOL     OW 2413   2.379   2.201   2.443 -0.0271  0.2606 -0.4899
  805SOL    HW1 2414   2.415   2.288   2.488  3.8803 -0.2358  1.3796
  805SOL    HW2 2415   2.304   2.156   2.497 -0.4651 -1.8612  2.1508
  806SOL     OW 2416   2.478   2.971   0.835  0.1154  0.0232 -0.1537
  806SOL    HW1 2417   2.398   2.987   0.899  0.9420  1.1255  1.8946
  806SOL    HW2 2418   2.553   3.029   0.864 -1.8191 -4.9469 -0.7987
  807SOL     OW 2419   0.221   1.163   2.789 -0.9697  0.0463 -0.2086
  807SOL    HW1 2420   0.278   1.226   2.733 -0.9452  0.4768  2.6351
  807SOL    HW2 2421   0.152   1.113   2.737  1.9552 -0.2768  2.4423
  808SOL     OW 2422   0.654   1.901   0.751  0.0763 -0.1183  0.0802
  808SOL    HW1 2423   0.644   1.967   0.827 -1.9919 -2.5375 -0.7011
  808SOL    HW2 2424   0.657   1.948   0.661  0.9802 -1.4370  1.3445
  809SOL     OW 2425   2.460   0.167   2.132  0.1659  0.4042  0.2133
  809SOL    HW1 2426   2.397   0.162   2.053  0.6906  1.6467  2.8416
  809SOL    HW2 2427   2.407   0.155   2.217 -2.4050  2.7641 -0.8280
  810SOL     OW 2428   1.462   0.404   1.515  0.1856  0.1039  0.0327
  810SOL    HW1 2429   1.366   0.382   1.508  4.1878  1.6544  3.3151
  810SOL    HW2 2430   1.468   0.499   1.550 -2.1238  2.9611 -0.5376
  811SOL     OW 2431   1.868   0.298   1.931 -0.8408 -0.1327  0.2596
  811SOL    HW1 2432   1.863   0.343   1.841  1.0065 -1.9753 -0.3009
  811SOL    HW2 2433   1.779   0.296   1.982 -0.4371  2.0510  0.0778
  812SOL     OW 2434   1.720   1.931   0.428  0.6150 -0.1284 -0.2070
  812SOL    HW1 2435   1.809   1.952   0.387 -0.7436 -0.8746  1.5983
  812SOL    HW2 2436   1.725   1.841   0.477 -1.0053  1.3322 -1.3837
  813SOL     OW 2437   1.286   0.473   1.934  0.4094  0.3558  0.4330
  813SOL    HW1 2438   1.209   0.497   1.997  0.1621 -0.0670 -0.4828
  813SOL    HW2 2439   1.368   0.529   1.954  0.2229  1.1151 -1.0677
  814SOL     OW 2440   0.484   3.094   1.160 -0.1205  0.5931 -0.1966
  814SOL    HW1 2441   0.427   3.065   1.240  0.2693  0.7863 -0.1455
  814SOL    HW2 2442   0.562   0.023   1.190 -0.9034 -0.2942 -1.7489
  815SOL     OW 2443   0.178   0.091   0.552  0.2582  0.0734  0.0500
  815SOL    HW1 2444   0.232   0.006   0.556 -0.7147  0.5501 -0.6517
  815SOL    HW2 2445   0.211   0.153   0.626 -1.4074 -0.2402  1.0857
  816SOL     OW 2446   2.409   1.803   2.254  0.0314 -0.4034 -0.6836
  816SOL    HW1 2447   2.495   1.754   2.235  0.0862  2.2400 -0.2365
  816SOL    HW2 2448   2.368   1.772   2.342  3.1070  1.4921  1.2609
  817SOL     OW 2449   1.144   2.947   0.703 -0.7177  0.3421  0.1317
  817SOL    HW1 2450   1.231   2.999   0.702 -1.7046 -0.6825 -2.0187
  817SOL    HW2 2451   1.156   2.860   0.752  0.6072  1.4703  0.9624
  818SOL     OW 2452   1.741   0.555   2.968 -0.1205 -0.2887  0.3048
  818SOL    HW1 2453   1.686   0.615   2.905  2.1744 -1.8269  0.9862
  818SOL    HW2 2454   1.829   0.537   2.913 -3.2772 -0.6634 -0.4002
  819SOL     OW 2455   2.189   0.226   0.021 -0.1761 -0.1922 -0.0429
  819SOL    HW1 2456   2.279   0.240   0.073  2.8851  1.5944 -2.0859
  819SOL    HW2 2457   2.184   0.133   3.116  0.2853 -2.0251  0.1939
  820SOL     OW 2458   1.993   0.651   2.838  0.1363  0.1134 -0.2673
  820SOL    HW1 2459   2.086   0.663   2.883  0.1311 -3.7657 -0.4937
  820SOL    HW2 2460   2.002   0.643   2.738  3.1603 -2.4991  1.6843
  821SOL     OW 2461   3.121   0.284   1.024 -0.5605  0.2350 -0.1287
  821SOL    HW1 2462   0.053   0.308   1.097  0.6645  0.7099 -1.1879
  821SOL    HW2 2463   0.001   0.332   0.936  0.6747 -0.1093 -1.2431
  822SOL     OW 2464   1.063   2.510   2.429 -0.0160 -0.3056 -0.6146
  822SOL    HW1 2465   1.055   2.416   2.395  1.1423  0.0977  0.5960
  822SOL    HW2 2466   0.970   2.549   2.428 -3.2627  0.3477  2.6435
  823SOL     OW 2467   0.324   1.444   1.583 -0.3462  0.0763  0.1632
  823SOL    HW1 2468   0.373   1.440   1.674 -0.9598  0.9602  1.2985
  823SOL    HW2 2469   0.245   1.377   1.580 -0.5117 -2.1897  0.6981
  824SOL     OW 2470   1.593   2.692   2.706 -0.2474  0.4350  0.3625
  824SOL    HW1 2471   1.606   2.619   2.638  2.4529  1.8006  2.1742
  824SOL    HW2 2472   1.623   2.784   2.670  0.2773  1.4024 -1.6521
  825SOL     OW 2473   1.660   0.767   0.470  0.2104  0.1648  0.3858
  825SOL    HW1 2474   1.615   0.697   0.526  0.0785  0.5553  0.0409
  825SOL    HW2 2475   1.763   0.767   0.489  3.2978 -1.0176 -0.7489
  826SOL     OW 2476   2.079   0.948   0.168  0.0492 -0.4034 -0.3485
  826SOL    HW1 2477   1.990   0.896   0.171  3.5340 -1.0794 -0.0100
  826SOL    HW2 2478   2.144   0.897   0.106 -1.7683 -0.6247  1.6380
  827SOL     OW 2479   0.775   1.517   2.474 -0.3586  0.0419 -0.5161
  827SOL    HW1 2480   0.748   1.465   2.389 -2.2147 -0.3028  0.1812
  827SOL    HW2 2481   0.858   1.577   2.457  1.2022  1.0927  2.7418
  828SOL     OW 2482   2.374   1.434   1.552 -0.3730 -0.3618  0.0034
  828SOL    HW1 2483   2.366   1.537   1.578 -1.7474  0.6533  1.2691
  828SOL    HW2 2484   2.468   1.406   1.568 -1.0475 -1.2861 -0.3842
  829SOL     OW 2485   0.252   1.658   0.739 -0.3971 -0.0723  0.1521
  829SOL    HW1 2486   0.214   1.599   0.814 -1.5933 -2.9364 -0.3628
  829SOL    HW2 2487   0.348   1.680   0.772  1.1302 -0.4586  1.7812
  830SOL     OW 2488   1.380   1.001   1.009  0.3733  0.7479  0.0998
  830SOL    HW1 2489   1.369   1.099   1.033  2.1762 -1.2173  1.8750
  830SOL    HW2 2490   1.442   0.957   1.077  0.4439 -0.7407  0.7621
  831SOL     OW 2491   3.128   1.869   3.123  0.0895  0.0426 -0.1745
  831SOL    HW1 2492   3.085   1.839   0.079  0.6682 -1.5597 -0.6135
  831SOL    HW2 2493   0.074   1.812   3.108  0.2863 -0.2919 -0.1439
  832SOL     OW 2494   0.973   0.333   0.338 -0.0023  0.4624  0.0330
  832SOL    HW1 2495   0.896   0.273   0.377 -1.1083 -2.9292  0.3185
  832SOL    HW2 2496   1.060   0.294   0.369 -1.3983  0.4013  0.9191
  833SOL     OW 2497   0.784   0.462   2.050 -0.2970  0.1127 -0.6163
  833SOL    HW1 2498   0.730   0.546   2.043  0.4139  3.1123  1.0181
  833SOL    HW2 2499   0.807   0.432   1.954  1.0355 -0.5346 -0.0879
  834SOL     OW 2500   0.252   0.275   0.729  0.0407  0.3011  0.0785
  834SOL    HW1 2501   0.149   0.277   0.728 -2.7484  1.4874 -0.4666
  834SOL    HW2 2502   0.290   0.250   0.822  1.3804  2.4537  1.1357
  835SOL     OW 2503   2.664   3.092   1.123  0.0180 -0.0061  0.6102
  835SOL    HW1 2504   2.751   3.106   1.182  0.1498  2.1551  4.0752
  835SOL    HW2 2505   2.673   3.127   1.023  0.1838 -2.6345 -1.3683
  836SOL     OW 2506   0.466   2.055   2.990  0.1285 -0.1349  0.0331
  836SOL    HW1 2507   0.541   2.125   2.992 -1.9870 -0.0376  0.1245
  836SOL    HW2 2508   0.420   2.058   3.078  1.4680 -0.9288 -2.5648
  837SOL     OW 2509   1.518   1.497   2.498  0.1448  0.4323 -0.1651
  837SOL    HW1 2510   1.551   1.562   2.428  0.3375  1.2276  2.1610
  837SOL    HW2 2511   1.454   1.438   2.444 -0.4916 -2.3938  1.0096
  838SOL     OW 2512   0.070   0.821   1.702  0.5179  0.3498  0.1737
  838SOL    HW1 2513   0.141   0.778   1.643  0.4003 -2.4222 -0.4148
  838SOL    HW2 2514   0.062   0.919   1.686  0.1915 -1.0447  0.0327
  839SOL     OW 2515   0.733   1.176   0.818  0.0724  0.2314  0.3613
  839SOL    HW1 2516   0.734   1.107   0.740 -0.0838 -0.4129 -0.0442
  839SOL    HW2 2517   0.826   1.211   0.827 -1.9244  1.5902  0.3623
  840SOL     OW 2518   1.710   2.968   1.871 -0.2257 -0.3371 -0.3887
  840SOL    HW1 2519   1.678   2.881   1.922  0.2878 -0.0833  0.3726
  840SOL    HW2 2520   1.652   2.995   1.795  1.6962  2.6376  0.1455
  841SOL     OW 2521   0.589   2.480   0.324 -0.5469 -0.2570  0.1014
  841SOL    HW1 2522   0.657   2.552   0.299  2.4302  1.7644 -0.5165
  841SOL    HW2 2523   0.540   2.453   0.237 -1.6916 -0.5567 -0.0713
  842SOL     OW 2524   0.577   0.346   0.867 -0.4924 -0.5101  0.3836
  842SOL    HW1 2525   0.510   0.302   0.929 -1.8738 -0.4363  2.5819
  842SOL    HW2 2526   0.665   0.372   0.915  1.2279 -2.0856  0.1811
  843SOL     OW 2527   0.789   0.917   2.092 -0.0568 -0.8472 -0.5534
  843SOL    HW1 2528   0.723   0.990   2.121 -0.7869  0.8210 -1.2632
  843SOL    HW2 2529   0.867   0.905   2.159 -0.5561 -0.6070  0.3597
  844SOL     OW 2530   1.346   2.390   3.109  0.9666  0.3149 -0.4252
  844SOL    HW1 2531   1.300   2.435   3.027 -1.5697  0.9631 -1.6468
  844SOL    HW2 2532   1.368   2.463   0.044 -2.0782  0.5817 -2.1118
  845SOL     OW 2533   2.383   2.692   2.678  0.0541  0.7247  0.5700
  845SOL    HW1 2534   2.346   2.730   2.593 -1.0606  1.0232  0.7464
  845SOL    HW2 2535   2.471   2.737   2.701  4.2937  2.6283  1.4603
  846SOL     OW 2536   1.703   1.821   2.754  0.7606  0.0541  0.0401
  846SOL    HW1 2537   1.657   1.869   2.674 -0.0732 -0.3992  0.7482
  846SOL    HW2 2538   1.722   1.722   2.732  0.3969  1.3162  3.1815
  847SOL     OW 2539   2.086   0.018   3.016 -0.5124 -0.0716  0.0661
  847SOL    HW1 2540   2.068   3.049   3.025 -1.2353  0.0803 -1.0123
  847SOL    HW2 2541   2.150   0.036   2.943 -1.9262 -0.1391  4.7212
  848SOL     OW 2542   0.184   0.541   0.627  0.3431  0.3114 -0.8769
  848SOL    HW1 2543   0.183   0.605   0.707 -0.1652  0.7985 -0.6725
  848SOL    HW2 2544   0.226   0.452   0.655 -0.7239  0.8886 -0.2995
  849SOL     OW 2545   1.448   2.715   1.544  0.1108  0.3507 -0.2669
  849SOL    HW1 2546   1.549   2.717   1.560 -0.1957 -2.6272  1.1390
  849SOL    HW2 2547   1.406   2.697   1.636 -1.4232  0.5796  1.8263
  850SOL     OW 2548   0.411   1.623   0.270 -0.0027  0.1530  0.0743
  850SOL    HW1 2549   0.346   1.568   0.212 -1.9987  1.7809 -2.0542
  850SOL    HW2 2550   0.512   1.609   0.254 -0.2822  0.6341  0.4722
  851SOL     OW 2551   0.132   0.946   0.688 -0.2545  0.3970  0.9581
  851SOL    HW1 2552   0.176   0.911   0.599  0.8472 -1.9940 -0.7732
  851SOL    HW2 2553   0.037   0.912   0.705 -1.7499 -1.3992 -0.2204
  852SOL     OW 2554   1.840   2.393   1.491 -0.4550  0.1453  0.2804
  852SOL    HW1 2555   1.852   2.407   1.590  1.1116  0.4212  0.6230
  852SOL    HW2 2556   1.745   2.413   1.462 -1.6500  1.4339 -0.0823
  853SOL     OW 2557   0.214   1.468   0.132  0.1276  0.0011 -0.9443
  853SOL    HW1 2558   0.163   1.478   0.042 -0.9007 -0.5362 -2.3222
  853SOL    HW2 2559   0.157   1.412   0.200 -0.5801 -0.6023  0.7056
  854SOL     OW 2560   1.482   1.054   2.084 -0.1961  0.1920  0.5364
  854SOL    HW1 2561   1.393   1.102   2.111 -2.0604  0.8557  1.3625
  854SOL    HW2 2562   1.483   1.037   1.985 -2.0962  3.2061  1.8891
  855SOL     OW 2563   0.563   2.515   2.822 -0.2010 -0.2069 -0.1661
  855SOL    HW1 2564   0.469   2.499   2.857  2.4695 -0.6629  0.5913
  855SOL    HW2 2565   0.628   2.540   2.892  1.7456 -3.2393 -1.0552
  856SOL     OW 2566   0.008   0.576   1.766  0.5539  0.4366  0.7870
  856SOL    HW1 2567   3.045   0.568   1.804 -2.3849  2.1049 -0.4665
  856SOL    HW2 2568   0.028   0.678   1.756  2.4532 -0.4255 -1.3420
  857SOL     OW 2569   0.485   1.173   1.981 -0.0018  0.2243  0.1652
  857SOL    HW1 2570   0.523   1.125   2.061  0.8109 -2.2742 -2.0389
  857SOL    HW2 2571   0.557   1.219   1.927 -1.4477  1.4431  0.1264
  858SOL     OW 2572   0.496   1.521   2.507  0.1782  0.1056  0.0766
  858SOL    HW1 2573   0.486   1.613   2.550 -1.0627  0.7624  1.4566
  858SOL    HW2 2574   0.594   1.501   2.499 -1.0692 -0.9670 -1.4210
  859SOL     OW 2575   2.664   0.035   0.852  0.1624 -0.1847  0.4212
  859SOL    HW1 2576   2.656   0.137   0.871 -0.7413  0.8656  1.0554
  859SOL    HW2 2577   2.727   0.018   0.769  2.8208 -1.5647  1.8964
  860SOL     OW 2578   2.052   2.873   3.027  0.4190  0.5453  0.3715
  860SOL    HW1 2579   2.119   2.884   3.106  1.0038  2.3534  3.2439
  860SOL    HW2 2580   2.102   2.862   2.938 -1.6371 -0.9422  0.5549
  861SOL     OW 2581   0.466   0.479   0.432  0.0447 -0.3826  0.6525
  861SOL    HW1 2582   0.538   0.507   0.364  0.0006  0.0617  0.1290
  861SOL    HW2 2583   0.379   0.523   0.414 -0.5118 -1.6276  2.9689
  862SOL     OW 2584   1.491   0.194   1.911 -0.2212 -0.4784 -0.2320
  862SOL    HW1 2585   1.412   0.125   1.923 -1.8944  1.6141 -1.3895
  862SOL    HW2 2586   1.460   0.290   1.908 -1.5141 -0.8590  1.3227
  863SOL     OW 2587   2.565   2.294   1.283 -0.2318 -0.4705  0.2454
  863SOL    HW1 2588   2.531   2.226   1.215  0.1242  0.2259 -3.1384
  863SOL    HW2 2589   2.624   2.358   1.232 -1.0789 -1.5529  0.3844
  864SOL     OW 2590   2.208   2.973   2.298 -0.0131  1.0083 -0.0441
  864SOL    HW1 2591   2.107   2.979   2.275  0.7259 -0.6037  0.6893
  864SOL    HW2 2592   2.263   2.973   2.210  0.5659  1.0099 -0.2774
  865SOL     OW 2593   1.106   0.416   1.736  0.0233 -0.0101  0.6601
  865SOL    HW1 2594   1.078   0.320   1.747 -3.2430 -1.4938 -0.8704
  865SOL    HW2 2595   1.174   0.443   1.813  1.0167  0.7725  0.8497
  866SOL     OW 2596   2.235   3.055   0.982 -0.1143 -0.6061  0.4005
  866SOL    HW1 2597   2.216   0.002   0.919  1.8626  2.5490  2.5014
  866SOL    HW2 2598   2.185   3.069   1.071  0.8584 -0.2361  1.6462
  867SOL     OW 2599   2.634   2.600   0.551  0.3828  0.5345 -0.3167
  867SOL    HW1 2600   2.688   2.599   0.638  0.0712  0.8254 -1.9317
  867SOL    HW2 2601   2.679   2.555   0.476 -4.5002  0.0724 -0.0195
  868SOL     OW 2602   0.724   2.019   1.653  0.1920 -0.1331 -0.3198
  868SOL    HW1 2603   0.827   2.030   1.656 -1.2492  0.5681 -2.7300
  868SOL    HW2 2604   0.683   2.062   1.567 -1.6722  1.2593 -0.9751
  869SOL     OW 2605   2.207   2.529   0.148 -0.3184  0.1388  0.1862
  869SOL    HW1 2606   2.223   2.430   0.155  1.4931  1.0633  1.7598
  869SOL    HW2 2607   2.242   2.582   0.229  1.0728 -0.8967 -0.0443
  870SOL     OW 2608   2.333   1.874   0.989 -0.2796 -0.0802 -0.0557
  870SOL    HW1 2609   2.415   1.837   0.943 -0.2994  2.0177  1.7566
  870SOL    HW2 2610   2.297   1.808   1.059 -1.5022  3.6401 -1.9859
  871SOL     OW 2611   0.284   1.729   1.599 -0.7774 -0.3893  0.2759
  871SOL    HW1 2612   0.356   1.793   1.564 -3.1587  0.6480 -1.3464
  871SOL    HW2 2613   0.314   1.632   1.592  1.6430 -0.2963  1.3792
  872SOL     OW 2614   0.686   1.398   2.256  0.2724  0.5792  0.3670
  872SOL    HW1 2615   0.759   1.377   2.185  0.1037  0.0876 -2.6895
  872SOL    HW2 2616   0.612   1.328   2.259 -2.0505 -1.2055 -1.4735
  873SOL     OW 2617   0.942   2.371   1.583 -0.0105  0.2200 -0.1753
  873SOL    HW1 2618   0.941   2.423   1.672  0.8792  3.0305 -0.6739
  873SOL    HW2 2619   0.928   2.433   1.504  0.1091  0.4874 -1.7943
  874SOL     OW 2620   1.184   0.922   1.959  0.4312  0.0005 -0.1721
  874SOL    HW1 2621   1.216   1.016   1.973 -1.6250  0.7122  2.1987
  874SOL    HW2 2622   1.213   0.863   2.036 -0.5602 -1.7108 -2.2511
  875SOL     OW 2623   2.754   2.791   1.066  0.4370  0.5514  0.3521
  875SOL    HW1 2624   2.660   2.763   1.095 -1.0576 -0.9070 -1.3169
  875SOL    HW2 2625   2.760   2.892   1.069 -0.9288 -1.5296  0.5164
  876SOL     OW 2626   0.975   1.390   0.541  0.0044 -0.1608  0.0019
  876SOL    HW1 2627   1.022   1.431   0.460  0.6110 -1.8990 -2.3903
  876SOL    HW2 2628   0.882   1.374   0.511  3.0521  0.9629  0.3477
  877SOL     OW 2629   2.921   3.101   1.248 -0.4041  0.3051  0.3948
  877SOL    HW1 2630   3.007   3.095   1.192 -0.0753 -0.2744 -1.1204
  877SOL    HW2 2631   2.946   3.120   1.347  0.1793  2.0844  1.8680
  878SOL     OW 2632   2.627   1.732   0.351 -0.8088 -0.7730 -0.1329
  878SOL    HW1 2633   2.653   1.634   0.367  0.6204  2.0259 -0.3933
  878SOL    HW2 2634   2.527   1.743   0.360  2.1494  1.5466 -2.7221
  879SOL     OW 2635   2.507   1.921   1.279 -0.5549  0.0699 -0.1346
  879SOL    HW1 2636   2.531   1.845   1.343  0.4382 -0.4505  0.0190
  879SOL    HW2 2637   2.587   1.947   1.220  0.0371  0.1386 -1.9558
  880SOL     OW 2638   0.148   2.644   0.686  0.3364  0.6162  0.2560
  880SOL    HW1 2639   0.078   2.679   0.754  1.7033 -0.3330 -2.2010
  880SOL    HW2 2640   0.238   2.688   0.706 -1.8813  0.5006 -1.4861
  881SOL     OW 2641   1.359   1.298   0.965  0.1619 -0.3148 -0.1611
  881SOL    HW1 2642   1.387   1.358   0.891 -2.9827 -1.5366  2.6265
  881SOL    HW2 2643   1.272   1.248   0.944  2.1818  0.2962 -1.5518
  882SOL     OW 2644   2.712   1.082   2.677  0.5337 -0.0522 -0.0995
  882SOL    HW1 2645   2.683   1.096   2.576  0.0351  0.8841 -1.8484
  882SOL    HW2 2646   2.732   0.986   2.697 -0.1983 -0.4961  1.4350
  883SOL     OW 2647   1.211   3.110   1.523  0.0296 -0.1769 -0.4273
  883SOL    HW1 2648   1.171   3.019   1.533 -1.5518  0.0120 -1.0776
  883SOL    HW2 2649   1.308   3.098   1.495 -1.6210 -1.0009  1.2253
  884SOL     OW 2650   3.086   0.022   0.810 -0.1623 -0.1370  0.5715
  884SOL    HW1 2651   2.991   3.133   0.782  0.0157 -0.0451 -1.4682
  884SOL    HW2 2652   3.100   0.122   0.786  2.8853  3.4306 -1.0752
  885SOL     OW 2653   1.352   0.805   1.306  0.6936  0.1393 -0.1987
  885SOL    HW1 2654   1.377   0.829   1.401  0.0712 -1.0502 -1.2757
  885SOL    HW2 2655   1.424   0.832   1.246 -0.4858 -0.5883  3.3940
  886SOL     OW 2656   1.604   0.910   3.026  0.3111  0.3011  0.1885
  886SOL    HW1 2657   1.679   0.882   2.965 -0.3138  2.2739  0.7606
  886SOL    HW2 2658   1.627   1.000   3.058  0.1789 -2.3126 -0.4052
  887SOL     OW 2659   1.756   0.653   1.156  0.0101  0.3709  0.4101
  887SOL    HW1 2660   1.830   0.629   1.086  1.7175 -2.0433 -2.0644
  887SOL    HW2 2661   1.802   0.664   1.249  0.9005 -0.0205  0.7511
  888SOL     OW 2662   2.155   1.520   1.910 -0.4132  0.0431 -0.7905
  888SOL    HW1 2663   2.095   1.479   1.984  0.2954 -1.6386  1.1357
  888SOL    HW2 2664   2.201   1.605   1.945  0.3158 -0.5711 -0.0192
  889SOL     OW 2665   2.222   2.063   0.670  0.0725 -0.9441  0.2495
  889SOL    HW1 2666   2.224   2.165   0.683  3.5178  2.2136 -0.7220
  889SOL    HW2 2667   2.168   2.019   0.750 -0.5243  1.1340  1.9676
  890SOL     OW 2668   1.071   1.900   0.906 -0.0494 -0.4960 -0.0982
  890SOL    HW1 2669   1.089   1.929   0.809 -0.4685  1.7638  0.6116
  890SOL    HW2 2670   0.969   1.879   0.918  1.3377  0.6681  0.7165
  891SOL     OW 2671   2.743   0.574   2.288  0.2650  0.1849  0.5312
  891SOL    HW1 2672   2.819   0.511   2.323 -1.4874 -0.7618 -2.7262
  891SOL    HW2 2673   2.675   0.526   2.228 -3.5823 -0.6266  0.8178
  892SOL     OW 2674   1.143   0.445   2.355  0.1272 -0.2700  0.0929
  892SOL    HW1 2675   1.191   0.356   2.375  0.7059  1.8710  3.9299
  892SOL    HW2 2676   1.165   0.515   2.428  0.7036  0.6399 -1.1275
  893SOL     OW 2677   1.696   0.416   1.393  0.1072  0.1779 -0.3925
  893SOL    HW1 2678   1.731   0.477   1.465  0.4335 -1.7423 -1.9444
  893SOL    HW2 2679   1.595   0.409   1.403 -0.0471 -1.0403  0.3681
  894SOL     OW 2680   2.530   0.706   0.672 -0.0525 -0.7140 -0.4910
  894SOL    HW1 2681   2.481   0.687   0.757 -0.9077  0.8488  1.1398
  894SOL    HW2 2682   2.500   0.648   0.595  1.6878  0.4936 -0.0370
  895SOL     OW 2683   2.042   2.530   2.800  0.4105 -0.8302  0.0515
  895SOL    HW1 2684   2.124   2.558   2.847 -2.0865 -1.2322 -2.2222
  895SOL    HW2 2685   1.970   2.508   2.876 -0.4475  1.2110  3.2430
  896SOL     OW 2686   1.863   3.041   1.536  0.5944 -0.1361 -0.1534
  896SOL    HW1 2687   1.784   3.041   1.596  2.3219 -3.1483 -1.6797
  896SOL    HW2 2688   1.867   2.965   1.473  0.2753  2.9150  1.7356
  897SOL     OW 2689   0.456   1.973   2.170 -0.0497  0.1772 -0.6330
  897SOL    HW1 2690   0.381   1.940   2.235 -3.2223  0.1385  0.8887
  897SOL    HW2 2691   0.458   1.911   2.094  2.7911  4.0537  3.8622
  898SOL     OW 2692   2.314   1.738   2.004  0.3247  0.2984 -0.0966
  898SOL    HW1 2693   2.393   1.701   1.950 -1.5488 -0.1905  2.4935
  898SOL    HW2 2694   2.328   1.786   2.093 -1.5428  0.7649 -1.6111
  899SOL     OW 2695   1.723   2.223   0.460 -0.0246  0.1872  0.0796
  899SOL    HW1 2696   1.812   2.249   0.499 -1.5160 -2.2569  1.4243
  899SOL    HW2 2697   1.707   2.119   0.464  0.1812 -0.6422 -0.2251
  900SOL     OW 2698   1.132   0.592   0.292 -0.3218  0.1714  0.4121
  900SOL    HW1 2699   1.112   0.687   0.325 -0.9055  2.0540  0.4808
  900SOL    HW2 2700   1.063   0.527   0.326 -0.6897 -1.0706  0.8141
  901SOL     OW 2701   1.173   1.889   2.192 -0.1267 -0.1492 -0.2366
  901SOL    HW1 2702   1.076   1.887   2.214  1.0817 -1.3288 -0.0259
  901SOL    HW2 2703   1.228   1.823   2.250 -0.0344 -1.6675 -0.5571
  902SOL     OW 2704   2.512   0.431   3.030  0.0369 -0.1379  0.0388
  902SOL    HW1 2705   2.605   0.389   3.031  0.0511 -3.7555  0.6501
  902SOL    HW2 2706   2.486   0.453   3.124  2.0586  0.1149  1.4204
  903SOL     OW 2707   2.104   0.840   2.309 -0.3809 -0.6674 -1.0701
  903SOL    HW1 2708   2.196   0.795   2.306  1.7914  0.0577  0.1648
  903SOL    HW2 2709   2.105   0.891   2.400  3.0728 -0.1668 -0.8602
  904SOL     OW 2710   1.434   0.709   2.177 -0.5967  0.1277  0.3783
  904SOL    HW1 2711   1.458   0.801   2.215  2.0987 -4.5638  1.7647
  904SOL    HW2 2712   1.476   0.643   2.242  0.5209  3.8652 -1.6456
  905SOL     OW 2713   2.247   0.088   1.671 -0.1010 -0.3944  0.1053
  905SOL    HW1 2714   2.304   0.023   1.616  2.6234 -0.0820  1.6327
  905SOL    HW2 2715   2.150   0.097   1.650  1.3635 -0.1437 -0.7373
  906SOL     OW 2716   1.979   1.925   0.351  0.3013  0.0205  0.1012
  906SOL    HW1 2717   2.063   1.976   0.378  0.9076  1.1021  1.8785
  906SOL    HW2 2718   1.960   1.839   0.398 -1.2233  0.0800  0.8667
  907SOL     OW 2719   1.210   2.721   0.867 -0.0972  0.5647 -0.0157
  907SOL    HW1 2720   1.256   2.637   0.828  0.6504  0.1190 -0.6062
  907SOL    HW2 2721   1.112   2.713   0.859  2.8134 -0.2376  1.3678
  908SOL     OW 2722   1.833   2.058   2.396  0.0168 -0.5314 -0.1165
  908SOL    HW1 2723   1.883   2.129   2.443  1.8867  0.1201  0.8973
  908SOL    HW2 2724   1.820   2.078   2.298 -0.2522 -1.7538  0.9998
  909SOL     OW 2725   2.260   0.605   1.966 -0.2640  0.6252  0.3744
  909SOL    HW1 2726   2.249   0.704   1.960 -0.0358  0.8727 -1.3155
  909SOL    HW2 2727   2.337   0.578   1.902 -0.0470 -0.3975 -2.1740
  910SOL     OW 2728   1.347   0.922   3.000 -0.1240  0.4629 -0.1311
  910SOL    HW1 2729   1.301   0.833   3.021 -0.3884  0.4378  1.1868
  910SOL    HW2 2730   1.447   0.900   2.987 -1.4053 -3.2803  0.9556
  911SOL     OW 2731   0.051   0.883   2.973 -0.1839 -0.2007 -0.2720
  911SOL    HW1 2732   0.041   0.814   3.045 -0.6109  0.1980 -0.1220
  911SOL    HW2 2733   0.042   0.973   3.023 -0.9610  4.3170 -0.0502
  912SOL     OW 2734   0.082   2.607   0.423  0.2187 -0.5251 -0.3176
  912SOL    HW1 2735   0.122   2.518   0.405 -2.0594  0.5644  2.0215
  912SOL    HW2 2736   0.085   2.624   0.523  0.5767  0.3301  1.6002
  913SOL     OW 2737   2.787   2.036   2.543  0.2567 -0.5487  0.0639
  913SOL    HW1 2738   2.806   2.109   2.475  0.6228  1.9501  1.9838
  913SOL    HW2 2739   2.877   2.007   2.582  0.6176  0.6510  1.4348
  914SOL     OW 2740   1.776   1.472   1.067 -0.5908 -0.0687  0.4025
  914SOL    HW1 2741   1.800   1.419   0.984  1.1225 -1.0464 -1.1235
  914SOL    HW2 2742   1.677   1.469   1.090  1.6742 -0.9613 -0.9870
  915SOL     OW 2743   0.243   2.791   2.396 -0.2207 -0.3117  0.2801
  915SOL    HW1 2744   0.296   2.705   2.379 -0.9209  0.3023 -0.9520
  915SOL    HW2 2745   0.143   2.773   2.387 -3.0522 -0.0706  1.0874
  916SOL     OW 2746   0.857   0.090   1.734 -0.2651 -0.6734 -0.1389
  916SOL    HW1 2747   0.955   0.119   1.747  0.5944 -1.5835  3.1478
  916SOL    HW2 2748   0.800   0.170   1.702 -0.2243 -0.2156  0.5593
  917SOL     OW 2749   2.394   0.835   0.294 -0.2735  0.1637  0.0546
  917SOL    HW1 2750   2.474   0.893   0.291 -1.0604 -0.9570  2.2638
  917SOL    HW2 2751   2.362   0.828   0.199  0.6317  2.4615 -0.1363
  918SOL     OW 2752   1.754   2.313   2.929  0.6250  0.4952 -0.4114
  918SOL    HW1 2753   1.731   2.407   2.900  0.3772 -2.7502 -0.5049
  918SOL    HW2 2754   1.674   2.249   2.930 -2.4199  2.3598 -0.5488
  919SOL     OW 2755   1.840   2.947   1.154 -0.5434 -0.1111 -0.7251
  919SOL    HW1 2756   1.849   3.046   1.142 -3.5315 -2.3431 -0.6371
  919SOL    HW2 2757   1.849   2.900   1.064  0.1526 -1.2766 -0.9530
  920SOL     OW 2758   1.322   0.255   2.449 -0.4726  0.1309 -0.4230
  920SOL    HW1 2759   1.327   0.261   2.554  2.2351  1.4727  2.8476
  920SOL    HW2 2760   1.280   0.170   2.421  0.3263  1.3569 -2.7041
  921SOL     OW 2761   3.076   0.889   2.731 -0.0852  0.2877 -0.0082
  921SOL    HW1 2762   3.095   0.989   2.697 -0.3802  1.7601 -1.7283
  921SOL    HW2 2763   3.120   0.864   2.821  2.0361  1.4731  0.6000
  922SOL     OW 2764   0.165   2.288   0.925  0.2464 -0.1179  0.1248
  922SOL    HW1 2765   0.151   2.341   0.837 -0.3455  1.1810 -0.1362
  922SOL    HW2 2766   0.098   2.298   1.002  1.4306 -1.4913  0.0265
  923SOL     OW 2767   0.550   1.562   1.763 -0.0480  0.6749  0.2467
  923SOL    HW1 2768   0.573   1.637   1.700 -0.3431 -2.1499 -0.8534
  923SOL    HW2 2769   0.470   1.588   1.817 -0.3715  1.0714 -0.4771
  924SOL     OW 2770   1.638   3.010   2.654 -0.3327  0.1699 -0.9011
  924SOL    HW1 2771   1.555   3.056   2.687 -0.8221 -2.7254 -0.9347
  924SOL    HW2 2772   1.707   2.996   2.724 -0.1674 -2.1362 -1.5621
  925SOL     OW 2773   2.678   1.616   0.879  0.1004  0.3585  0.3213
  925SOL    HW1 2774   2.693   1.590   0.782  0.1088  1.0006  0.0328
  925SOL    HW2 2775   2.736   1.561   0.947 -0.9121 -0.8164  3.2558
  926SOL     OW 2776   2.309   1.119   0.973 -0.2337 -0.2506  0.1270
  926SOL    HW1 2777   2.319   1.046   1.042 -0.7380  0.0491  1.9244
  926SOL    HW2 2778   2.318   1.210   1.020  0.9071 -0.0071  1.0698
  927SOL     OW 2779   2.111   0.180   1.378 -0.2251 -0.5204  0.4211
  927SOL    HW1 2780   2.147   0.273   1.352 -0.2939  1.5362  2.0650
  927SOL    HW2 2781   2.078   0.182   1.476 -1.6038  1.2459 -0.5505
  928SOL     OW 2782   0.125   0.883   2.366 -0.0394  0.3601 -0.3166
  928SOL    HW1 2783   0.126   0.788   2.331  0.0923 -1.7586 -0.6551
  928SOL    HW2 2784   0.161   0.943   2.292  1.1078  1.0207 -0.1832
  929SOL     OW 2785   2.422   1.045   1.303 -0.8954  0.2631  0.0602
  929SOL    HW1 2786   2.354   1.099   1.358  1.0503  0.0825 -1.2547
  929SOL    HW2 2787   2.518   1.080   1.324 -1.6306 -0.2052  0.3190
  930SOL     OW 2788   2.500   2.750   2.006  0.1174  0.0897  0.2453
  930SOL    HW1 2789   2.602   2.763   1.981  1.4106 -2.3990 -2.1525
  930SOL    HW2 2790   2.459   2.688   1.935 -0.6485 -2.2539  0.4353
  931SOL     OW 2791   1.990   1.217   1.405  0.5114 -0.0784  0.1013
  931SOL    HW1 2792   1.933   1.161   1.468 -0.8533 -1.0050  0.0953
  931SOL    HW2 2793   1.951   1.311   1.395  1.1460  1.7320  0.0675
  932SOL     OW 2794   0.423   0.797   1.805 -0.1922 -0.7425 -0.5852
  932SOL    HW1 2795   0.449   0.771   1.711  1.8115 -0.1002  1.1991
  932SOL    HW2 2796   0.396   0.896   1.809 -1.7390  0.6630  1.9359
  933SOL     OW 2797   2.463   2.148   1.767  0.1891 -0.0347 -0.0129
  933SOL    HW1 2798   2.539   2.082   1.770  0.7372 -2.3216 -0.1021
  933SOL    HW2 2799   2.412   2.144   1.857  0.8064 -1.9815  0.1867
  934SOL     OW 2800   0.595   2.162   1.842  0.0537 -0.1256  0.6458
  934SOL    HW1 2801   0.617   2.083   1.779  0.7604  0.9638 -0.9779
  934SOL    HW2 2802   0.499   2.192   1.826  3.2086  0.6820  0.8708
  935SOL     OW 2803   0.068   1.392   1.866 -0.0061 -0.6116  0.4045
  935SOL    HW1 2804   0.026   1.484   1.889  3.5184  1.6267 -0.4316
  935SOL    HW2 2805   3.130   1.324   1.889 -0.5784  2.5415  0.3861
  936SOL     OW 2806   2.842   0.938   1.319  0.0955  0.6055 -0.2009
  936SOL    HW1 2807   2.777   0.883   1.260 -1.0536 -1.1210 -0.4935
  936SOL    HW2 2808   2.897   0.882   1.383  0.8656  0.2629  0.1814
  937SOL     OW 2809   1.876   0.715   1.397 -0.3599  0.3936 -0.2168
  937SOL    HW1 2810   1.963   0.762   1.411  0.9570  0.3146  0.9173
  937SOL    HW2 2811   1.837   0.665   1.479  0.7923  1.5878  1.0209
  938SOL     OW 2812   0.719   2.761   0.340 -0.1288 -0.0153  0.1081
  938SOL    HW1 2813   0.634   2.764   0.282 -0.5676 -0.3933  0.0686
  938SOL    HW2 2814   0.720   2.839   0.406 -1.2459 -2.3996 -2.1273
  939SOL     OW 2815   3.004   1.951   2.665 -0.1432 -0.1330  0.3455
  939SOL    HW1 2816   3.092   1.902   2.658 -1.2013  1.1963  1.5041
  939SOL    HW2 2817   2.986   1.971   2.765 -3.1487  2.8868 -0.2982
  940SOL     OW 2818   1.248   1.929   0.358 -0.7543 -0.2985 -0.0872
  940SOL    HW1 2819   1.349   1.914   0.366  2.6864  0.2051  0.2810
  940SOL    HW2 2820   1.232   1.993   0.280 -0.0158  0.6558  0.0275
  941SOL     OW 2821   2.259   2.648   0.370  0.1602 -0.0971 -0.0691
  941SOL    HW1 2822   2.332   2.711   0.345 -3.7819 -2.0662 -1.5078
  941SOL    HW2 2823   2.223   2.659   0.463 -0.3982  0.6866 -1.7880
  942SOL     OW 2824   1.838   2.001   0.725  0.3974 -0.5466 -0.5181
  942SOL    HW1 2825   1.882   1.920   0.680  1.1718  3.2485 -2.6959
  942SOL    HW2 2826   1.808   1.979   0.819  3.9042  0.0213 -2.5742
  943SOL     OW 2827   2.177   0.885   1.678 -0.2760  0.2373  0.3363
  943SOL    HW1 2828   2.179   0.857   1.581 -1.3165 -1.0601 -1.7968
  943SOL    HW2 2829   2.082   0.892   1.712 -1.7569 -0.8849  0.6407
  944SOL     OW 2830   1.170   0.733   2.155  0.2383  0.2500  0.1622
  944SOL    HW1 2831   1.268   0.736   2.170 -2.5397  0.4272  0.4873
  944SOL    HW2 2832   1.141   0.636   2.140 -1.4189 -2.6605 -0.4831
  945SOL     OW 2833   2.221   2.646   1.430  0.4702 -0.2179  0.2985
  945SOL    HW1 2834   2.292   2.577   1.445 -1.7709 -1.0745 -1.1122
  945SOL    HW2 2835   2.190   2.687   1.518  2.4687 -1.4706  0.9067
  946SOL     OW 2836   0.276   1.249   0.577  0.3821  0.2985 -0.0061
  946SOL    HW1 2837   0.270   1.350   0.550 -0.5004 -0.6419  1.6351
  946SOL    HW2 2838   0.201   1.232   0.646 -0.2286 -2.0184  0.8573
  947SOL     OW 2839   1.599   2.102   1.274 -0.5386  0.2651  0.2729
  947SOL    HW1 2840   1.540   2.153   1.334  1.0346  1.0305 -0.9372
  947SOL    HW2 2841   1.588   2.123   1.176 -2.2783 -1.5186  2.1887
  948SOL     OW 2842   0.182   1.756   1.072  0.0982 -0.2136  0.2676
  948SOL    HW1 2843   0.186   1.750   1.174 -2.0787  1.1489 -0.8559
  948SOL    HW2 2844   0.161   1.669   1.031  3.8694  0.6387  0.5169
  949SOL     OW 2845   1.039   1.332   1.356  0.1680 -0.1189 -0.4136
  949SOL    HW1 2846   0.948   1.317   1.403 -2.2729 -1.7446  1.8798
  949SOL    HW2 2847   1.053   1.258   1.285 -0.4098  0.4085 -0.2613
  950SOL     OW 2848   0.475   0.390   1.162 -0.0769  0.5283 -0.2373
  950SOL    HW1 2849   0.542   0.469   1.155 -1.2076 -2.0489  1.6519
  950SOL    HW2 2850   0.375   0.421   1.163 -0.1013  0.2534  0.4775
  951SOL     OW 2851   0.716   2.077   2.290  0.0723  0.3225 -0.0644
  951SOL    HW1 2852   0.633   2.022   2.263 -1.0283 -1.7442  0.3633
  951SOL    HW2 2853   0.758   2.114   2.207  1.4576  0.5413  3.8327
  952SOL     OW 2854   0.960   1.578   3.049  0.0400 -0.5454 -0.1547
  952SOL    HW1 2855   0.973   1.676   3.083 -1.0085  0.8991 -1.8667
  952SOL    HW2 2856   1.040   1.522   3.083 -0.9671  2.0730  2.3532
  953SOL     OW 2857   1.156   3.078   0.163 -0.4005  0.4248 -0.1697
  953SOL    HW1 2858   1.251   3.054   0.199  4.7481 -2.6879  3.1860
  953SOL    HW2 2859   1.096   2.999   0.184  1.5329  1.3140 -0.7089
  954SOL     OW 2860   1.721   1.552   0.039 -0.8321 -0.1149 -0.3908
  954SOL    HW1 2861   1.665   1.496   3.109  4.8018  0.4075  1.3981
  954SOL    HW2 2862   1.667   1.584   0.119  0.8585  0.4823 -0.4732
  955SOL     OW 2863   0.086   2.655   2.982  0.1301  0.6457  0.0217
  955SOL    HW1 2864   0.114   2.740   3.026  0.9257 -0.1154  0.0546
  955SOL    HW2 2865   0.043   2.674   2.891 -1.1830  2.5051  1.2794
  956SOL     OW 2866   1.234   0.521   1.248  0.0641 -0.0978 -0.1487
  956SOL    HW1 2867   1.270   0.612   1.259 -1.3280 -3.1297  0.8114
  956SOL    HW2 2868   1.200   0.484   1.338  0.4946  2.0505  0.0532
  957SOL     OW 2869   1.319   1.284   1.429  0.6872  0.2639  0.2314
  957SOL    HW1 2870   1.314   1.383   1.399 -1.9617  0.1994 -1.8231
  957SOL    HW2 2871   1.221   1.247   1.418 -2.2944 -0.7412 -0.8968
  958SOL     OW 2872   0.400   1.909   0.982 -0.0915  0.1316 -0.5845
  958SOL    HW1 2873   0.324   1.858   1.036  0.1927 -0.9019  3.4685
  958SOL    HW2 2874   0.440   1.838   0.923 -2.2468  2.0607 -1.5984
  959SOL     OW 2875   1.379   1.535   1.315  0.5369  0.1307 -0.1674
  959SOL    HW1 2876   1.299   1.580   1.274  0.7724  1.8449 -0.3291
  959SOL    HW2 2877   1.426   1.594   1.379 -0.9272 -0.6009  1.8697
  960SOL     OW 2878   0.249   1.181   3.078  0.1813  0.0526 -0.0914
  960SOL    HW1 2879   0.329   1.237   3.110  3.0863  1.1940  2.0780
  960SOL    HW2 2880   0.263   1.163   2.979  1.0003 -0.8416 -0.0077
  961SOL     OW 2881   0.825   1.355   1.551  0.6042  0.3657  0.2407
  961SOL    HW1 2882   0.856   1.303   1.633 -0.3525 -1.3072  0.1006
  961SOL    HW2 2883   0.850   1.455   1.558  0.7665 -1.1931 -0.2328
  962SOL     OW 2884   0.983   1.314   0.799  0.0376 -0.0291 -0.1166
  962SOL    HW1 2885   0.992   1.385   0.871 -1.1076  1.0856 -0.2884
  962SOL    HW2 2886   0.979   1.356   0.705 -2.7207  0.5494 -0.2209
  963SOL     OW 2887   1.304   1.793   2.629  0.0823 -0.0442 -0.3145
  963SOL    HW1 2888   1.400   1.824   2.617  3.0413  0.0685  0.5981
  963SOL    HW2 2889   1.294   1.744   2.717 -0.8724 -1.4827  0.8313
  964SOL     OW 2890   0.737   2.821   3.087 -0.1019 -0.7705 -0.1861
  964SOL    HW1 2891   0.697   2.858   0.048 -0.4721  3.4790  4.8169
  964SOL    HW2 2892   0.716   2.725   3.068  0.1088  3.4425 -0.6893
  965SOL     OW 2893   0.458   2.416   0.102  0.0855  0.1722  0.2102
  965SOL    HW1 2894   0.426   2.321   0.102  2.2059  0.9836  2.4738
  965SOL    HW2 2895   0.377   2.476   0.106  3.7340 -0.5853 -1.3488
  966SOL     OW 2896   0.125   1.507   2.666 -0.3200 -0.6063  0.6076
  966SOL    HW1 2897   0.048   1.443   2.690  0.0020 -2.5097 -2.6392
  966SOL    HW2 2898   0.135   1.577   2.743 -0.5752 -0.5493 -0.2035
  967SOL     OW 2899   2.728   0.035   2.613  0.0763  1.1286 -0.0459
  967SOL    HW1 2900   2.766   3.072   2.596  0.4093 -0.8985  1.7650
  967SOL    HW2 2901   2.786   0.093   2.672  0.2192  1.7682 -1.9733
  968SOL     OW 2902   2.096   0.183   0.420  1.0196 -0.0623  0.0622
  968SOL    HW1 2903   2.075   0.242   0.337 -1.0998 -2.4846 -0.4618
  968SOL    HW2 2904   2.153   0.235   0.487 -1.3230  0.7073  0.8903
  969SOL     OW 2905   0.245   1.037   2.184 -0.1125  0.2067 -0.1511
  969SOL    HW1 2906   0.154   1.039   2.135 -0.0478  1.5556  1.4668
  969SOL    HW2 2907   0.317   1.084   2.136 -1.6483  1.4379 -0.4552
  970SOL     OW 2908   2.092   1.523   0.985 -0.0724 -0.2514  0.0276
  970SOL    HW1 2909   2.143   1.548   1.076  2.1483  2.0657  1.3338
  970SOL    HW2 2910   2.071   1.423   0.982 -0.7405 -0.2614  2.9037
  971SOL     OW 2911   2.421   3.077   1.240 -0.2731  0.2113  0.3199
  971SOL    HW1 2912   2.360   2.995   1.246 -0.3513 -0.4436  0.5904
  971SOL    HW2 2913   2.515   3.050   1.197 -0.2155 -0.1147 -0.6457
  972SOL     OW 2914   0.625   2.768   1.668 -0.0112  0.1585  0.3299
  972SOL    HW1 2915   0.688   2.739   1.742  2.8460  3.1156 -0.6480
  972SOL    HW2 2916   0.636   2.873   1.653  1.4085  6.3272 -4.1341
  973SOL     OW 2917   0.698   0.412   3.041  0.0380 -0.2097 -0.0476
  973SOL    HW1 2918   0.778   0.404   3.107  3.0320  2.9769 -0.9718
  973SOL    HW2 2919   0.624   0.450   3.100 -2.7087 -0.3390 -2.1793
  974SOL     OW 2920   2.025   1.446   2.160 -0.3774 -0.0712  1.0433
  974SOL    HW1 2921   1.985   1.367   2.207 -0.6676  2.1057  0.3423
  974SOL    HW2 2922   2.092   1.494   2.219  1.2479 -4.5440  0.0449
  975SOL     OW 2923   2.908   3.113   1.524 -0.4736 -0.0855 -1.1242
  975SOL    HW1 2924   2.950   3.069   1.602 -2.8623  0.3125 -1.9711
  975SOL    HW2 2925   2.812   0.000   1.536  3.0676  0.4923  0.6777
  976SOL     OW 2926   0.928   1.862   2.272 -0.2140 -0.6340 -0.2413
  976SOL    HW1 2927   0.900   1.955   2.296  2.6692  0.6552 -0.4263
  976SOL    HW2 2928   0.857   1.812   2.225  1.3037 -0.4276  2.4327
  977SOL     OW 2929   0.840   2.371   0.493  0.4019  0.0899 -0.1661
  977SOL    HW1 2930   0.844   2.473   0.509 -1.1552  2.5189  1.1655
  977SOL    HW2 2931   0.873   2.352   0.401  0.1762 -1.2780 -0.1807
  978SOL     OW 2932   3.132   1.549   2.305  0.3619 -0.2133 -0.0258
  978SOL    HW1 2933   0.089   1.506   2.342  0.6743 -2.5265 -0.2923
  978SOL    HW2 2934   3.073   1.473   2.266 -1.7387 -2.3935  1.1051
  979SOL     OW 2935   1.904   2.810   1.384  0.2635  0.0180  0.4387
  979SOL    HW1 2936   1.888   2.882   1.316  1.3685 -0.8021  1.9972
  979SOL    HW2 2937   1.936   2.730   1.332 -0.6798  1.3395  2.6081
  980SOL     OW 2938   1.195   1.205   2.686 -0.0199 -0.3519 -0.5273
  980SOL    HW1 2939   1.167   1.257   2.607 -0.3876 -0.8831  3.5111
  980SOL    HW2 2940   1.125   1.207   2.760  2.4088 -1.0138 -2.1438
  981SOL     OW 2941   2.303   0.180   1.906  0.6031 -0.4378  0.0002
  981SOL    HW1 2942   2.259   0.262   1.954 -0.3771 -0.4593  2.3715
  981SOL    HW2 2943   2.274   0.166   1.808 -1.7591  0.0531  0.3264
  982SOL     OW 2944   0.442   0.449   0.026  0.3525 -0.5101  0.2557
  982SOL    HW1 2945   0.371   0.377   0.057 -2.9795 -1.6391  0.6179
  982SOL    HW2 2946   0.408   0.481   3.068 -1.4255  0.4213  0.0134
  983SOL     OW 2947   2.177   1.293   2.487 -0.2345  0.0201 -0.0892
  983SOL    HW1 2948   2.273   1.279   2.516  2.9063  1.6897  2.9171
  983SOL    HW2 2949   2.132   1.202   2.500  3.6474 -1.8201 -0.7274
  984SOL     OW 2950   1.163   0.198   2.121 -0.2915  0.0591  0.0981
  984SOL    HW1 2951   1.213   0.199   2.208  0.8138  1.6230 -1.3585
  984SOL    HW2 2952   1.130   0.292   2.108 -0.1578 -1.9430  0.8284
  985SOL     OW 2953   2.020   1.586   1.635 -0.5056  0.3277  0.6270
  985SOL    HW1 2954   1.959   1.501   1.646 -1.2029  0.6017 -0.3194
  985SOL    HW2 2955   2.112   1.573   1.683  2.2141  0.1005  1.0828
  986SOL     OW 2956   2.465   0.870   1.623  0.4217  0.3439  0.1850
  986SOL    HW1 2957   2.447   0.780   1.663 -0.7625  3.5828 -0.8543
  986SOL    HW2 2958   2.391   0.902   1.562  0.7457  2.5173  0.2565
  987SOL     OW 2959   2.895   0.531   1.092 -0.2782 -0.2554  0.3068
  987SOL    HW1 2960   2.867   0.546   1.190 -2.9677 -0.6225  1.9061
  987SOL    HW2 2961   2.874   0.432   1.068  0.4417  0.8929 -1.1390
  988SOL     OW 2962   3.062   0.737   2.075  0.0231  0.0117 -0.2348
  988SOL    HW1 2963   2.967   0.754   2.112  2.4426 -1.1969 -1.7417
  988SOL    HW2 2964   3.110   0.821   2.042 -2.4955  1.9156 -1.2474
  989SOL     OW 2965   2.421   1.541   0.087 -0.0852  0.4529 -0.1930
  989SOL    HW1 2966   2.480   1.578   0.161  0.5182 -0.0651 -1.0958
  989SOL    HW2 2967   2.447   1.578   3.129 -0.5925  0.1831 -1.9382
  990SOL     OW 2968   1.062   0.482   2.779  0.2781 -0.5470  0.0211
  990SOL    HW1 2969   1.062   0.380   2.792 -0.3543  3.5473  0.0429
  990SOL    HW2 2970   1.105   0.527   2.859 -0.9999  1.3157  2.6884
  991SOL     OW 2971   1.224   1.214   0.530  0.0425  0.3260  0.1657
  991SOL    HW1 2972   1.134   1.262   0.547 -2.2536  1.1194  0.5017
  991SOL    HW2 2973   1.301   1.260   0.573 -0.9345 -0.0866 -0.5859
  992SOL     OW 2974   2.181   1.390   0.074  0.2047  0.0343  0.5951
  992SOL    HW1 2975   2.116   1.441   0.013  1.1681  2.1708  1.0158
  992SOL    HW2 2976   2.270   1.438   0.093 -0.1241 -0.7735 -3.5792
  993SOL     OW 2977   3.080   0.522   0.868  0.2520 -0.5471  0.3344
  993SOL    HW1 2978   0.018   0.594   0.880  1.2286  0.8459  2.0830
  993SOL    HW2 2979   3.011   0.517   0.946 -1.6350  1.0557  1.3338
  994SOL     OW 2980   0.074   1.976   2.424  0.0852  0.0218 -0.0458
  994SOL    HW1 2981   0.042   1.881   2.452  0.7150  0.0960  0.6574
  994SOL    HW2 2982   0.018   2.052   2.467  0.5051  0.3232 -0.7887
  995SOL     OW 2983   1.862   1.325   2.768 -0.2656  0.4932  0.2182
  995SOL    HW1 2984   1.835   1.359   2.862 -1.2211  0.1496  1.4234
  995SOL    HW2 2985   1.864   1.399   2.701 -2.5053  1.6611  1.6794
  996SOL     OW 2986   2.462   1.046   0.021 -0.1497  0.0770 -0.2645
  996SOL    HW1 2987   2.400   1.079   0.091  2.2489 -2.7227 -2.1295
  996SOL    HW2 2988   2.437   0.968   3.094  2.1322  1.7212 -0.9061
  997SOL     OW 2989   2.012   1.198   1.913 -0.1778 -0.2792  0.2717
  997SOL    HW1 2990   2.010   1.190   2.013  1.9002  0.1417 -2.1939
  997SOL    HW2 2991   2.090   1.250   1.870  0.3374  1.3079  0.9224
  998SOL     OW 2992   2.756   1.952   0.306 -0.0630 -0.0351  0.1403
  998SOL    HW1 2993   2.720   1.856   0.316  0.6728  0.1353 -0.4899
  998SOL    HW2 2994   2.698   2.008   0.366 -1.2844 -1.9614 -0.7336
  999SOL     OW 2995   2.751   2.302   0.070  0.1579 -0.1085  0.4184
  999SOL    HW1 2996   2.805   2.215   0.073 -1.5181 -0.5699 -0.2736
  999SOL    HW2 2997   2.801   2.385   0.092 -3.5825  2.0139 -2.2539
 1000SOL     OW 2998   1.047   0.473   2.114 -0.2621 -0.5945  0.3975
 1000SOL    HW1 2999   1.071   0.478   2.211  0.3263 -2.2404 -0.2039
 1000SOL    HW2 3000   0.949   0.452   2.109  4.1691  1.7547 -1.3723
   3.13305   3.13305   3.13305
