1000 SPC/Fw water molecules t=   8.00000 step= 8000
 3000
    1SOL     OW    1   1.390   2.629   0.335  0.5892 -0.2281  0.3709
    1SOL    HW1    2   1.402   2.697   0.259 -0.5247 -0.3500 -1.3435
    1SOL    HW2    3   1.313   2.658   0.397 -0.7143 -1.0581  1.2615
    2SOL     OW    4   1.443   1.063   1.645 -0.5017 -0.3254 -0.1665
    2SOL    HW1    5   1.495   1.027   1.566  0.6542 -0.4272  1.4030
    2SOL    HW2    6   1.483   1.155   1.679  1.5014 -0.3880  3.7609
    3SOL     OW    7   0.770   0.093   2.797  0.2865  0.1073 -0.2570
    3SOL    HW1    8   0.781   0.157   2.718  1.8583  0.7420 -1.0065
    3SOL    HW2    9   0.671   0.082   2.820  2.7361  1.3245 -1.9485
    4SOL     OW   10   1.525   1.656   3.047 -0.5778 -0.1417 -0.0229
    4SOL    HW1   11   1.525   1.745   3.001 -1.4472 -2.1675 -2.5568
    4SOL    HW2   12   1.454   1.656   0.020 -2.6653  2.6623 -1.8680
    5SOL     OW   13   0.693   1.097   2.184  0.1368 -0.8111 -0.2626
    5SOL    HW1   14   0.747   1.011   2.161 -0.1994  0.7215  0.2389
    5SOL    HW2   15   0.752   1.162   2.233  0.7519 -2.0462  0.3031
    6SOL     OW   16   2.400   0.939   2.452 -0.0756 -0.4219 -0.6786
    6SOL    HW1   17   2.483   0.895   2.413  0.8085 -0.7638 -2.6586
    6SOL    HW2   18   2.317   0.888   2.424  0.8186  1.4194 -0.5568
    7SOL     OW   19   0.141   1.123   1.156 -0.1336 -0.6792 -0.0645
    7SOL    HW1   20   0.124   1.223   1.172  0.2210  2.5951  1.5113
    7SOL    HW2   21   0.199   1.102   1.075  1.2557  0.5421  0.7814
    8SOL     OW   22   2.026   2.753   1.816  0.3367  0.0007 -0.0825
    8SOL    HW1   23   1.930   2.762   1.798 -0.2638  0.8052  1.2489
    8SOL    HW2   24   2.059   2.838   1.858 -0.1581 -2.1760  0.6846
    9SOL     OW   25   3.061   2.587   0.511 -0.4181 -0.0944 -0.0841
    9SOL    HW1   26   0.007   2.551   0.596 -2.4970 -1.3626  4.0824
    9SOL    HW2   27   0.025   2.592   0.428 -1.6467  0.7633  1.1311
   10SOL     OW   28   0.027   2.420   2.497  0.1160 -0.1558  0.4005
   10SOL    HW1   29   0.030   2.466   2.406 -0.5912  1.3912  0.3364
   10SOL    HW2   30   0.123   2.386   2.516  0.5749  0.5043  1.1214
   11SOL     OW   31   0.180   1.755   0.082 -0.2365  0.1474  0.2729
   11SOL    HW1   32   0.206   1.682   0.012  1.0818  2.4972  2.2176
   11SOL    HW2   33   0.268   1.809   0.096  2.7279  0.9292  0.5078
   12SOL     OW   34   2.110   3.055   0.511  0.3779 -0.1361  0.3505
   12SOL    HW1   35   2.110   0.034   0.446 -0.0343 -1.6547  0.7670
   12SOL    HW2   36   2.169   2.979   0.476 -2.7959  0.7917 -0.4664
   13SOL     OW   37   0.257   0.358   2.632 -0.0405 -0.0831  0.3320
   13SOL    HW1   38   0.197   0.275   2.640 -0.4686 -0.0767  1.4116
   13SOL    HW2   39   0.228   0.428   2.697 -0.0061 -0.6888 -0.1596
   14SOL     OW   40   1.314   0.981   1.335  0.5028  0.0489  0.0554
   14SOL    HW1   41   1.228   0.981   1.390  1.5121 -0.5762 -2.5583
   14SOL    HW2   42   1.333   1.054   1.268  1.3803  0.4410 -0.2573
   15SOL     OW   43   0.650   1.537   2.218 -0.3797 -0.5892  0.1091
   15SOL    HW1   44   0.585   1.611   2.200 -1.2013 -2.6795  2.8986
   15SOL    HW2   45   0.620   1.453   2.177  1.9918  0.3001 -0.3227
   16SOL     OW   46   1.778   1.052   2.653 -0.3369  0.4677 -0.3044
   16SOL    HW1   47   1.728   1.080   2.569 -0.8173 -0.7330 -0.4884
   16SOL    HW2   48   1.879   1.082   2.647  1.8875  2.6000 -0.8530
   17SOL     OW   49   0.037   2.233   2.115 -0.3040 -0.5760  0.4124
   17SOL    HW1   50   3.094   2.319   2.076 -0.8859 -0.3725  2.1031
   17SOL    HW2   51   0.060   2.160   2.042  0.7898 -2.8506 -2.4796
   18SOL     OW   52   1.486   1.225   0.667 -0.1067 -0.6071 -0.1986
   18SOL    HW1   53   1.505   1.124   0.655 -4.0869  0.1987 -0.0918
   18SOL    HW2   54   1.395   1.245   0.631  4.8762 -1.4142  2.0703
   19SOL     OW   55   0.259   1.255   1.951  0.0276  0.3307 -0.0119
   19SOL    HW1   56   0.243   1.322   1.876 -1.0640  3.3203  1.9277
   19SOL    HW2   57   0.223   1.165   1.918  0.1900 -0.3707  0.8356
   20SOL     OW   58   2.130   2.344   2.992  0.2486  0.0067  0.1638
   20SOL    HW1   59   2.171   2.341   3.084  1.5281 -0.5834 -1.2987
   20SOL    HW2   60   2.052   2.410   2.988  1.5893 -0.4184  0.4354
   21SOL     OW   61   1.876   1.615   1.056 -0.2871 -0.1759 -0.2548
   21SOL    HW1   62   1.813   1.553   1.112 -2.7211 -1.3516  1.9229
   21SOL    HW2   63   1.976   1.595   1.072  0.3118  3.1774 -1.4282
   22SOL     OW   64   2.063   2.131   1.476  0.0075 -0.6093 -0.2168
   22SOL    HW1   65   1.992   2.123   1.397 -1.9292 -0.7514 -0.9022
   22SOL    HW2   66   2.082   2.226   1.504 -2.8076 -1.7176  0.8632
   23SOL     OW   67   2.773   1.113   1.301  0.1797 -0.3224 -0.2665
   23SOL    HW1   68   2.814   1.022   1.320  1.6132 -0.2061 -0.4054
   23SOL    HW2   69   2.742   1.120   1.203  0.5301 -0.5082  0.4937
   24SOL     OW   70   1.847   1.178   1.660 -0.4446 -0.1445 -0.4044
   24SOL    HW1   71   1.889   1.196   1.569 -3.0140 -0.2426  0.6061
   24SOL    HW2   72   1.900   1.099   1.699 -0.9586  2.4531  1.6090
   25SOL     OW   73   1.810   0.077   2.310  0.8687 -0.5504 -0.0444
   25SOL    HW1   74   1.894   0.137   2.329 -0.3625  2.1498 -1.1077
   25SOL    HW2   75   1.727   0.132   2.314  0.2500 -1.8335 -2.1346
   26SOL     OW   76   0.615   2.959   0.720  0.4482 -0.2435 -0.0645
   26SOL    HW1   77   0.642   2.965   0.817 -0.7208  1.0084  0.2460
   26SOL    HW2   78   0.683   2.907   0.665 -0.3646 -0.4882 -2.4479
   27SOL     OW   79   1.136   1.172   0.822  0.5833  0.4797  0.3866
   27SOL    HW1   80   1.200   1.140   0.891  0.5824  2.4456 -2.4349
   27SOL    HW2   81   1.113   1.269   0.832 -0.9362 -3.2433 -1.6731
   28SOL     OW   82   2.034   2.335   1.148  0.3204  0.2090  0.0799
   28SOL    HW1   83   2.037   2.427   1.197 -2.5453 -0.1972  0.2800
   28SOL    HW2   84   1.979   2.265   1.202 -2.3237 -3.1422 -0.0890
   29SOL     OW   85   2.145   2.863   2.227 -0.7310  0.1776 -0.2632
   29SOL    HW1   86   2.111   2.770   2.268 -0.2549 -1.7948  0.9397
   29SOL    HW2   87   2.150   2.929   2.300 -1.2256 -0.0789 -1.7316
   30SOL     OW   88   3.084   2.791   1.959 -0.5677 -0.2398 -0.0367
   30SOL    HW1   89   2.989   2.818   1.982 -1.6101 -0.5276  0.7216
   30SOL    HW2   90   0.046   2.865   1.995  1.4050  1.5457  1.5195
   31SOL     OW   91   0.045   1.823   2.299  0.4613 -0.6741  1.0039
   31SOL    HW1   92   3.077   1.854   2.368  0.8595  1.6128 -0.6501
   31SOL    HW2   93   0.007   1.843   2.207 -0.2818 -0.9602 -0.1048
   32SOL     OW   94   0.928   2.397   2.204  0.3666  0.6175  0.1181
   32SOL    HW1   95   0.883   2.343   2.281  1.9018 -4.4919  1.4241
   32SOL    HW2   96   1.033   2.409   2.220  3.6476  1.5997  0.2785
   33SOL     OW   97   0.304   0.328   3.033 -0.1336  0.6787  0.2328
   33SOL    HW1   98   0.255   0.416   3.027  3.3940  2.0997  2.6148
   33SOL    HW2   99   0.406   0.343   3.030 -2.4350  0.6194 -0.6848
   34SOL     OW  100   2.848   0.124   3.054  0.4165  0.1119  0.5239
   34SOL    HW1  101   2.890   0.042   3.088 -0.0862  1.0187 -0.4028
   34SOL    HW2  102   2.789   0.108   2.969  0.6694  1.4935  2.1862
   35SOL     OW  103   2.895   2.723   1.729  0.0853 -0.5192 -0.2141
   35SOL    HW1  104   2.929   2.718   1.825  1.4117  0.3310 -1.5129
   35SOL    HW2  105   2.883   2.820   1.688 -0.1526  0.4135 -1.3152
   36SOL     OW  106   2.215   3.089   2.347 -0.2620 -0.0874 -0.2322
   36SOL    HW1  107   2.195   0.011   2.446  1.7797  3.7927  1.0903
   36SOL    HW2  108   2.247   0.068   2.300 -0.5772 -1.7759  4.0680
   37SOL     OW  109   1.630   2.810   0.005  0.4782  0.1732 -0.3017
   37SOL    HW1  110   1.612   2.725   3.055  1.4347 -2.3479 -1.7671
   37SOL    HW2  111   1.545   2.834   0.054  3.2129 -2.4330  2.5639
   38SOL     OW  112   0.554   0.405   0.770  0.2304 -0.3654 -0.3411
   38SOL    HW1  113   0.600   0.472   0.714 -0.2689 -0.9756  0.4133
   38SOL    HW2  114   0.552   0.314   0.714  2.4031  0.5801 -0.7629
   39SOL     OW  115   0.932   1.904   2.200 -0.0972  0.1156  0.1181
   39SOL    HW1  116   0.939   1.858   2.291  1.4279  0.0225 -2.9023
   39SOL    HW2  117   1.017   1.965   2.177  1.8567  1.9265 -1.4233
   40SOL     OW  118   0.032   0.906   0.260  0.0935  0.3379  0.2476
   40SOL    HW1  119   3.082   0.833   0.209 -0.4536  2.5008  0.3249
   40SOL    HW2  120   3.075   0.970   0.310  4.8148 -0.5298 -0.3446
   41SOL     OW  121   1.554   0.331   2.008 -0.6708 -0.1888 -0.2971
   41SOL    HW1  122   1.523   0.407   2.070 -0.7488  2.0692  0.2421
   41SOL    HW2  123   1.492   0.253   2.011  0.6961  0.5098  0.2814
   42SOL     OW  124   2.430   0.155   1.138  0.4356  0.5047  0.0927
   42SOL    HW1  125   2.453   0.216   1.061 -1.8391 -1.0957 -0.7439
   42SOL    HW2  126   2.347   0.095   1.119 -2.1034  0.1543  0.3766
   43SOL     OW  127   1.546   0.549   1.634 -0.0199  0.1561 -0.6167
   43SOL    HW1  128   1.596   0.631   1.597 -1.8970 -0.6603 -1.4425
   43SOL    HW2  129   1.581   0.460   1.604  0.7372  2.0311  2.1226
   44SOL     OW  130   0.338   0.770   0.014 -0.1253  0.0239  0.2788
   44SOL    HW1  131   0.402   0.764   0.090 -1.1039 -1.4879 -3.4068
   44SOL    HW2  132   0.296   0.862   0.007  2.4873  3.5023 -0.7098
   45SOL     OW  133   0.621   1.507   1.789 -0.3572  0.1311  0.1702
   45SOL    HW1  134   0.641   1.481   1.690  1.5531 -2.7463  1.4114
   45SOL    HW2  135   0.629   1.418   1.843  1.4692  0.3028  0.5457
   46SOL     OW  136   2.072   2.370   1.744 -0.1899 -0.2639 -0.0226
   46SOL    HW1  137   2.061   2.355   1.844  0.0187  4.2911 -3.0457
   46SOL    HW2  138   2.147   2.439   1.728 -0.9613  0.0811 -0.6096
   47SOL     OW  139   0.420   1.811   1.561  0.4160 -0.7415  0.6590
   47SOL    HW1  140   0.524   1.817   1.548  1.4878  2.9979  3.2042
   47SOL    HW2  141   0.402   1.903   1.595 -0.5373  0.8650 -1.4688
   48SOL     OW  142   0.906   2.540   2.832 -0.6344  0.1355  0.1316
   48SOL    HW1  143   0.866   2.546   2.926 -2.0515  0.2839 -1.8065
   48SOL    HW2  144   0.858   2.592   2.761 -0.6847  0.5053 -1.5205
   49SOL     OW  145   2.461   1.460   1.886  0.2825  0.3219 -0.3188
   49SOL    HW1  146   2.505   1.518   1.819  1.5898 -3.4484  4.0291
   49SOL    HW2  147   2.525   1.383   1.908  0.8568 -0.4877  0.3951
   50SOL     OW  148   0.863   2.903   0.624 -0.0749 -0.6202 -0.3678
   50SOL    HW1  149   0.946   2.932   0.676  1.3208  0.1294 -0.7716
   50SOL    HW2  150   0.873   2.909   0.521  0.2106  0.8506 -1.2128
   51SOL     OW  151   1.369   0.334   1.168  0.2916 -0.6510 -0.0355
   51SOL    HW1  152   1.351   0.434   1.185  1.9317  2.7422  1.2948
   51SOL    HW2  153   1.286   0.281   1.156 -0.4609 -2.4703  0.8110
   52SOL     OW  154   0.257   0.761   0.600 -0.1382  0.4210  0.5068
   52SOL    HW1  155   0.224   0.726   0.508  1.9605  0.9159 -1.0137
   52SOL    HW2  156   0.258   0.865   0.605  3.5878  0.3386 -0.3408
   53SOL     OW  157   1.380   3.077   2.959 -0.2704 -0.1952  0.7318
   53SOL    HW1  158   1.430   3.011   2.898  2.7982  0.7709  0.4321
   53SOL    HW2  159   1.306   0.023   2.907 -1.1994 -0.1440 -1.1596
   54SOL     OW  160   2.191   0.594   2.192 -0.4563  0.5428  0.1442
   54SOL    HW1  161   2.201   0.512   2.252  2.1097 -0.2225 -1.3724
   54SOL    HW2  162   2.123   0.577   2.115  0.9272 -1.7580 -0.6690
   55SOL     OW  163   2.653   2.896   0.092  0.1027  0.0957 -0.4360
   55SOL    HW1  164   2.639   2.798   0.117 -0.0576  1.0679  3.4296
   55SOL    HW2  165   2.719   2.906   0.017 -0.4078  1.4600  1.4661
   56SOL     OW  166   0.794   0.212   2.235  0.0082  0.4529 -0.3777
   56SOL    HW1  167   0.724   0.178   2.171  1.3583 -0.6196 -0.1732
   56SOL    HW2  168   0.815   0.143   2.306 -0.0580 -0.3053  0.0400
   57SOL     OW  169   1.817   0.875   2.369 -0.8362 -0.1528  0.0018
   57SOL    HW1  170   1.893   0.935   2.346 -0.0326  1.2218  0.1797
   57SOL    HW2  171   1.799   0.810   2.288 -1.7597 -1.8177 -0.1437
   58SOL     OW  172   0.152   1.021   1.845 -0.0669 -0.2920  0.2924
   58SOL    HW1  173   0.096   0.998   1.768  1.3571  1.2990  2.6192
   58SOL    HW2  174   0.166   0.942   1.909 -2.5990  1.1505 -1.3000
   59SOL     OW  175   0.515   2.729   1.602  0.3734 -0.6371  0.1881
   59SOL    HW1  176   0.453   2.789   1.652 -0.1674 -1.6392 -0.5063
   59SOL    HW2  177   0.537   2.775   1.513 -1.4516  0.1133  0.5191
   60SOL     OW  178   2.032   2.889   0.223 -0.2068 -0.1180  0.1824
   60SOL    HW1  179   1.979   2.824   0.280  0.2431  0.0506 -0.8255
   60SOL    HW2  180   2.126   2.914   0.263 -0.6857  0.8599  0.6288
   61SOL     OW  181   1.441   2.353   0.337  0.0843 -0.8834 -0.0659
   61SOL    HW1  182   1.502   2.326   0.411 -0.9864  1.6307  0.0333
   61SOL    HW2  183   1.425   2.457   0.338 -1.4512  1.1291  1.3810
   62SOL     OW  184   1.913   2.515   2.937 -0.5816 -0.7376  0.1961
   62SOL    HW1  185   1.822   2.486   2.932  3.5102  1.1740 -0.8763
   62SOL    HW2  186   1.929   2.592   2.999  0.4423 -2.4490 -1.3737
   63SOL     OW  187   2.404   0.683   0.679 -0.2287  0.2983 -0.5139
   63SOL    HW1  188   2.479   0.743   0.702 -3.5172 -0.2117 -1.3664
   63SOL    HW2  189   2.339   0.729   0.627  3.8957 -0.7685  4.5517
   64SOL     OW  190   1.622   1.122   0.012 -0.2793 -0.3555  0.5380
   64SOL    HW1  191   1.632   1.219   0.045  0.5960  0.8509  0.0718
   64SOL    HW2  192   1.522   1.103   3.095  1.6179 -2.1413  0.5914
   65SOL     OW  193   0.603   2.298   1.506 -0.2477  0.1379 -0.2653
   65SOL    HW1  194   0.524   2.246   1.469  2.1835  0.3794 -0.2503
   65SOL    HW2  195   0.589   2.329   1.607 -0.0677  0.5198 -1.6396
   66SOL     OW  196   1.021   1.435   1.264 -0.4510 -0.3953 -0.3622
   66SOL    HW1  197   1.071   1.351   1.276 -0.5128  0.3367 -0.0679
   66SOL    HW2  198   0.963   1.436   1.180 -1.9034 -0.1799  1.2271
   67SOL     OW  199   2.243   1.948   1.787  0.1989  0.1850  0.2463
   67SOL    HW1  200   2.251   1.869   1.725  1.6275  3.3745  0.6994
   67SOL    HW2  201   2.283   1.931   1.875  1.9115  0.5988 -0.1221
   68SOL     OW  202   1.116   1.702   1.944  0.4293  0.2057 -0.3113
   68SOL    HW1  203   1.100   1.632   1.870 -0.8518 -2.8300 -1.9053
   68SOL    HW2  204   1.057   1.789   1.926 -1.0648  1.0918  2.0374
   69SOL     OW  205   2.916   0.298   0.152 -0.6782 -0.3428 -0.1792
   69SOL    HW1  206   2.848   0.296   0.224  1.3670  0.6614 -3.1863
   69SOL    HW2  207   2.885   0.248   0.069 -0.6807 -0.9465  2.0533
   70SOL     OW  208   2.390   1.131   2.253 -0.2692 -0.1902 -0.0024
   70SOL    HW1  209   2.358   1.073   2.331 -1.3311  2.1009  1.1455
   70SOL    HW2  210   2.346   1.225   2.265 -0.7236  0.7680 -1.3620
   71SOL     OW  211   0.931   2.058   0.845 -0.1754  0.0818  0.3648
   71SOL    HW1  212   1.028   2.095   0.845  1.4502  0.9483  0.3169
   71SOL    HW2  213   0.938   1.977   0.900 -0.1606  1.0516 -0.9847
   72SOL     OW  214   2.350   1.820   0.347  0.3023 -0.0203  0.3311
   72SOL    HW1  215   2.286   1.797   0.425 -0.4110 -2.2244  1.4638
   72SOL    HW2  216   2.441   1.848   0.382  1.2301  1.6651 -1.8866
   73SOL     OW  217   0.942   0.803   0.971  0.1840  0.1083 -0.6480
   73SOL    HW1  218   0.884   0.884   0.942  3.4671 -1.2160 -1.2139
   73SOL    HW2  219   0.914   0.721   0.922  1.6128 -2.4096  1.0997
   74SOL     OW  220   2.542   2.073   1.927  0.3082 -0.0513 -0.4844
   74SOL    HW1  221   2.588   2.092   1.835  0.2061 -1.0662 -0.1649
   74SOL    HW2  222   2.554   1.977   1.951  0.9114  2.9138  0.2143
   75SOL     OW  223   1.561   1.792   2.141  0.1535  0.4186 -0.3140
   75SOL    HW1  224   1.530   1.724   2.071  0.8304  0.9615 -1.3897
   75SOL    HW2  225   1.605   1.743   2.220 -0.0934  0.3465  0.1335
   76SOL     OW  226   1.275   1.653   1.178 -0.5004  0.1481  0.0713
   76SOL    HW1  227   1.204   1.713   1.135  0.7463 -0.1875 -0.9140
   76SOL    HW2  228   1.355   1.644   1.119 -2.4483  1.4466 -3.0256
   77SOL     OW  229   2.489   1.105   1.467  0.1943 -0.1799  0.3978
   77SOL    HW1  230   2.548   1.166   1.413  1.2866  2.6474  2.4855
   77SOL    HW2  231   2.402   1.155   1.477  2.8898  3.9526 -2.7492
   78SOL     OW  232   1.673   0.617   0.283 -0.7438 -0.0896  0.0724
   78SOL    HW1  233   1.702   0.621   0.185 -0.2963 -4.0796 -1.8354
   78SOL    HW2  234   1.575   0.632   0.293 -2.3992  0.9861 -0.4175
   79SOL     OW  235   1.163   1.621   2.218  0.2057 -0.0374  0.2896
   79SOL    HW1  236   1.148   1.675   2.131  0.9392 -1.0393 -0.3670
   79SOL    HW2  237   1.077   1.615   2.274 -2.2252 -0.3712  2.8710
   80SOL     OW  238   1.128   0.447   1.441 -0.2181  0.0644  0.1207
   80SOL    HW1  239   1.219   0.488   1.447  0.1277  0.3692 -2.1108
   80SOL    HW2  240   1.124   0.353   1.482  2.4230 -1.6967  0.1566
   81SOL     OW  241   0.353   2.433   0.319  0.2156 -0.1913  0.0058
   81SOL    HW1  242   0.426   2.501   0.300 -0.3673 -1.0522  2.2149
   81SOL    HW2  243   0.380   2.391   0.407 -1.1228 -2.9439 -0.2937
   82SOL     OW  244   1.134   0.164   1.620 -0.7111  0.1418  0.9316
   82SOL    HW1  245   1.114   0.154   1.718 -0.5807 -2.8147 -1.3356
   82SOL    HW2  246   1.237   0.170   1.606 -1.2544  0.6683 -0.3263
   83SOL     OW  247   0.364   2.341   1.092  0.1289  0.0304  0.6506
   83SOL    HW1  248   0.295   2.357   1.165 -2.0520  1.0875 -0.0388
   83SOL    HW2  249   0.326   2.275   1.022 -0.6932  0.0365  1.2833
   84SOL     OW  250   2.767   1.425   0.928 -0.1965  0.1422 -0.0503
   84SOL    HW1  251   2.752   1.341   0.985 -3.4859 -1.2071  2.6084
   84SOL    HW2  252   2.851   1.429   0.871  0.9084 -2.7230  1.3515
   85SOL     OW  253   2.403   2.017   1.238  0.6068 -0.0823 -0.7478
   85SOL    HW1  254   2.356   1.934   1.274  1.7665 -3.1251 -0.2087
   85SOL    HW2  255   2.493   1.999   1.197 -1.3604  0.7356 -2.7967
   86SOL     OW  256   1.298   2.229   2.004 -0.3574 -0.3624 -0.1567
   86SOL    HW1  257   1.266   2.265   1.911 -1.2586 -0.8479 -2.0511
   86SOL    HW2  258   1.391   2.184   2.005  0.6648  1.4202  3.7368
   87SOL     OW  259   2.307   1.451   0.685  0.5238  0.3589 -0.1008
   87SOL    HW1  260   2.294   1.407   0.596 -1.5128  1.5866 -0.3418
   87SOL    HW2  261   2.400   1.432   0.724 -1.3262 -0.9877  2.2683
   88SOL     OW  262   0.427   3.020   1.023 -0.0929  0.3880 -0.1233
   88SOL    HW1  263   0.354   3.007   0.956  1.2767  1.0435 -1.4181
   88SOL    HW2  264   0.522   3.004   0.988 -1.8962  0.0740  0.4463
   89SOL     OW  265   0.667   0.944   1.790  0.0773  0.1853  0.2299
   89SOL    HW1  266   0.693   0.870   1.858 -1.9768 -2.1473 -0.0219
   89SOL    HW2  267   0.744   1.000   1.758  0.5201 -1.3927  2.0137
   90SOL     OW  268   2.793   1.940   0.289 -0.5318 -0.7213 -0.1214
   90SOL    HW1  269   2.751   2.027   0.330  0.8505  2.5312  0.0134
   90SOL    HW2  270   2.775   1.855   0.345  0.7766  1.5254 -1.3005
   91SOL     OW  271   0.871   1.809   1.042 -0.2510 -0.2691 -0.3976
   91SOL    HW1  272   0.902   1.855   1.129 -2.9603  0.3670 -0.8677
   91SOL    HW2  273   0.768   1.794   1.051 -2.1057  3.3758  1.2182
   92SOL     OW  274   2.239   3.053   1.885 -0.3151 -0.2811  0.1839
   92SOL    HW1  275   2.316   3.085   1.941  0.1180 -1.0542 -2.0309
   92SOL    HW2  276   2.166   3.016   1.946  0.1400 -0.8889  1.0902
   93SOL     OW  277   0.387   1.833   2.825  0.0677 -0.1064  0.0643
   93SOL    HW1  278   0.325   1.766   2.866 -0.4847 -1.5936 -0.0870
   93SOL    HW2  279   0.470   1.852   2.881  1.8404 -2.1128  2.6994
   94SOL     OW  280   2.455   0.067   2.018  0.5764  0.0258  0.2510
   94SOL    HW1  281   2.440   0.125   2.098 -0.0889 -1.6381  0.5295
   94SOL    HW2  282   2.476   0.116   1.931  1.3912 -1.2473  2.5467
   95SOL     OW  283   1.966   0.165   1.931 -0.0634  0.4072  0.2160
   95SOL    HW1  284   2.032   0.143   1.856  0.1693 -0.6173  1.9014
   95SOL    HW2  285   1.915   0.077   1.955  1.0519 -1.0460  1.5509
   96SOL     OW  286   0.447   0.472   2.159  0.0753  0.1030 -0.4877
   96SOL    HW1  287   0.411   0.468   2.252  0.0437 -0.6789 -0.4937
   96SOL    HW2  288   0.419   0.557   2.109  1.4008  1.0886  0.3383
   97SOL     OW  289   2.127   2.992   1.463  0.1394 -0.2817  0.1619
   97SOL    HW1  290   2.144   3.091   1.466 -0.8639 -4.0373 -1.4483
   97SOL    HW2  291   2.030   2.982   1.432  1.6260  1.3493 -0.7750
   98SOL     OW  292   1.892   2.142   1.815 -0.4575 -0.3985  0.0076
   98SOL    HW1  293   1.939   2.217   1.761 -1.4107  0.2977 -3.3557
   98SOL    HW2  294   1.953   2.067   1.832 -2.1529  2.4738 -0.2517
   99SOL     OW  295   0.596   0.683   1.077  0.0462 -0.1832  0.3116
   99SOL    HW1  296   0.536   0.607   1.088  3.7316  0.5670  1.0820
   99SOL    HW2  297   0.668   0.664   1.011  3.9526  0.5651  0.9310
  100SOL     OW  298   2.737   1.904   2.055 -0.8495 -0.4456 -0.1005
  100SOL    HW1  299   2.718   1.838   2.127  3.4809  1.7445 -1.6692
  100SOL    HW2  300   2.754   1.997   2.092 -0.5256  0.6964 -0.9862
  101SOL     OW  301   1.540   0.133   0.020  0.0195  0.0663  0.1261
  101SOL    HW1  302   1.537   0.235   3.093  0.9838  0.2704  0.0388
  101SOL    HW2  303   1.491   0.078   3.050 -1.0516 -0.1285  0.1956
  102SOL     OW  304   2.907   2.981   1.289  0.0386  0.1638 -0.3403
  102SOL    HW1  305   2.833   3.048   1.259 -1.5564 -0.4180  3.4605
  102SOL    HW2  306   3.001   3.025   1.279  1.4004  2.0183  1.3667
  103SOL     OW  307   0.350   2.815   2.417 -0.2923  0.4237 -0.2743
  103SOL    HW1  308   0.346   2.822   2.519 -0.2139 -0.5276  0.5498
  103SOL    HW2  309   0.418   2.871   2.362  3.5118  0.0656 -3.8071
  104SOL     OW  310   0.343   2.227   1.409  0.1771  0.2653 -0.1943
  104SOL    HW1  311   0.301   2.291   1.343  0.4024 -0.3754 -1.0013
  104SOL    HW2  312   0.332   2.130   1.374 -1.8467  0.2760 -0.1825
  105SOL     OW  313   0.568   1.904   2.013  0.3123  0.2281 -0.2586
  105SOL    HW1  314   0.533   1.816   2.058  0.0308 -1.7204 -2.1112
  105SOL    HW2  315   0.620   1.959   2.077 -1.8608 -1.5731 -0.5121
  106SOL     OW  316   2.472   2.905   0.503  0.5310 -0.0495 -0.4716
  106SOL    HW1  317   2.426   2.907   0.593  1.1189  0.7934 -2.1180
  106SOL    HW2  318   2.570   2.929   0.511  0.7954 -1.3935 -0.2605
  107SOL     OW  319   0.601   1.210   0.919 -0.6040 -0.1207 -0.0275
  107SOL    HW1  320   0.606   1.292   0.980  0.7869  0.0891  1.3640
  107SOL    HW2  321   0.599   1.126   0.974 -0.8566  3.7889 -0.0116
  108SOL     OW  322   2.918   1.174   1.892 -0.2115  0.4773 -0.4560
  108SOL    HW1  323   2.829   1.223   1.901  0.4772 -1.5166 -2.3350
  108SOL    HW2  324   2.984   1.240   1.850 -0.7214 -0.7764 -0.8987
  109SOL     OW  325   1.903   2.772   3.095  0.1260 -0.0247 -0.0919
  109SOL    HW1  326   1.936   2.835   0.064  0.8885  0.0716  0.5164
  109SOL    HW2  327   1.799   2.767   0.011 -4.0489 -1.3445  0.3055
  110SOL     OW  328   0.117   2.111   2.845  0.1206 -0.4883  0.4127
  110SOL    HW1  329   0.182   2.070   2.779  1.0174 -0.1842 -0.0704
  110SOL    HW2  330   0.090   2.055   2.926  1.2538  0.1728 -1.1228
  111SOL     OW  331   2.900   0.858   2.382  0.3640 -0.0321 -0.0797
  111SOL    HW1  332   2.855   0.790   2.443 -0.6208 -0.3644 -0.5161
  111SOL    HW2  333   2.988   0.830   2.350 -2.6516  2.1390  1.8963
  112SOL     OW  334   2.262   2.585   1.702  0.3018  0.1539 -0.4423
  112SOL    HW1  335   2.225   2.678   1.688  0.9509  0.7614 -2.1962
  112SOL    HW2  336   2.312   2.581   1.788 -1.9716 -0.6024  0.1850
  113SOL     OW  337   2.276   1.879   2.712  0.6139 -0.2469  0.1811
  113SOL    HW1  338   2.310   1.787   2.727  0.2219  1.9264 -1.4981
  113SOL    HW2  339   2.267   1.931   2.795 -1.0446 -1.2384 -1.4163
  114SOL     OW  340   0.607   0.140   0.682 -0.1507  0.1813 -0.3758
  114SOL    HW1  341   0.608   0.038   0.678 -1.1087 -2.3365 -1.7586
  114SOL    HW2  342   0.702   0.169   0.695 -1.9423 -0.6728 -0.8515
  115SOL     OW  343   2.979   1.770   2.867 -0.1990 -0.4560 -0.4897
  115SOL    HW1  344   2.965   1.680   2.920 -0.9925 -0.3663  2.1155
  115SOL    HW2  345   3.017   1.843   2.932  1.5200  1.1721  2.0866
  116SOL     OW  346   3.071   1.379   1.799 -0.1746  0.9834  0.4114
  116SOL    HW1  347   0.054   1.420   1.757 -0.0449 -3.0679 -2.1567
  116SOL    HW2  348   3.000   1.448   1.810  0.9502 -1.1741 -2.1356
  117SOL     OW  349   2.164   0.165   1.479 -0.0230  0.3358 -0.1776
  117SOL    HW1  350   2.261   0.180   1.451 -0.1002  0.0488  2.5197
  117SOL    HW2  351   2.096   0.233   1.437 -1.9829  3.4858 -1.9697
  118SOL     OW  352   2.821   2.437   1.986  0.0474 -0.3109 -0.2500
  118SOL    HW1  353   2.763   2.492   1.920 -1.9324  0.1562  0.4242
  118SOL    HW2  354   2.924   2.451   1.985 -2.9865 -0.7189  0.9077
  119SOL     OW  355   0.380   1.627   1.733 -0.4192 -0.0921  0.0809
  119SOL    HW1  356   0.402   1.690   1.660  0.1376 -0.5253  0.0142
  119SOL    HW2  357   0.473   1.589   1.762 -1.4570 -0.9441  1.1967
  120SOL     OW  358   0.234   1.396   1.690  0.1168  1.1449 -0.0117
  120SOL    HW1  359   0.261   1.313   1.632  0.4912  0.0218  0.0533
  120SOL    HW2  360   0.302   1.468   1.676  0.5260 -0.3853  0.8296
  121SOL     OW  361   1.512   0.929   0.622  0.5774 -0.3483 -0.2162
  121SOL    HW1  362   1.455   0.848   0.619 -0.4569  1.7442  0.9909
  121SOL    HW2  363   1.612   0.907   0.600  2.3359  1.1725 -1.9700
  122SOL     OW  364   2.325   2.297   2.803 -0.6292 -0.3481  0.3698
  122SOL    HW1  365   2.238   2.314   2.859 -2.5465 -0.9226  0.3811
  122SOL    HW2  366   2.310   2.337   2.704 -2.2851 -1.1767 -1.2343
  123SOL     OW  367   0.090   0.273   0.492  0.1592  0.5055  0.0424
  123SOL    HW1  368   0.004   0.328   0.469  1.7998  1.2437  1.3376
  123SOL    HW2  369   0.106   0.262   0.591  2.8492  0.7257  2.3025
  124SOL     OW  370   1.730   1.374   0.085  0.0673 -0.4626 -0.6955
  124SOL    HW1  371   1.755   1.454   0.023 -0.7752  1.8684 -0.7476
  124SOL    HW2  372   1.811   1.343   0.134 -1.2602  1.3055 -0.5661
  125SOL     OW  373   0.082   0.740   2.292 -0.2409  0.1684 -0.5244
  125SOL    HW1  374   0.119   0.703   2.381  2.6468 -2.7936  0.4167
  125SOL    HW2  375   0.135   0.823   2.261 -4.6931  2.8706 -1.9230
  126SOL     OW  376   2.982   2.725   0.090  0.1413 -0.3033  0.1221
  126SOL    HW1  377   2.965   2.668   0.011  0.7038  1.3110  2.3802
  126SOL    HW2  378   2.942   2.696   0.179 -1.2572  2.0550  0.1271
  127SOL     OW  379   2.667   1.763   0.085 -0.2796 -0.0040  0.1931
  127SOL    HW1  380   2.741   1.795   0.147  1.4314 -0.7164  0.2452
  127SOL    HW2  381   2.635   1.832   0.018 -0.2154 -1.8284  2.1344
  128SOL     OW  382   0.850   1.064   0.873 -0.4288  0.3775 -0.0523
  128SOL    HW1  383   0.934   1.107   0.838  0.9268  1.8392  0.6838
  128SOL    HW2  384   0.786   1.129   0.915  0.5275 -2.5563 -2.2160
  129SOL     OW  385   2.229   2.148   1.058  0.0766  0.2604  0.1780
  129SOL    HW1  386   2.297   2.112   1.126 -0.2060 -0.5641 -1.3442
  129SOL    HW2  387   2.180   2.226   1.095  2.3424  0.3969  0.0731
  130SOL     OW  388   2.064   0.776   0.162  0.8644  0.0135 -0.0585
  130SOL    HW1  389   2.130   0.821   0.101  1.2971 -2.2380  0.3106
  130SOL    HW2  390   1.968   0.793   0.126 -1.2124  0.4216 -0.4150
  131SOL     OW  391   3.051   1.577   2.589 -0.5666  0.1131 -0.0629
  131SOL    HW1  392   3.026   1.545   2.495 -2.9384 -1.6045  1.6868
  131SOL    HW2  393   3.053   1.678   2.594 -2.4022  0.0382  1.0397
  132SOL     OW  394   1.119   1.157   1.881 -0.0250  0.1891 -0.4147
  132SOL    HW1  395   1.056   1.241   1.893 -1.2344  0.4221 -2.1217
  132SOL    HW2  396   1.134   1.138   1.778 -1.0167 -0.5326 -0.2105
  133SOL     OW  397   0.385   1.232   0.761  0.7237  0.1855  0.0539
  133SOL    HW1  398   0.477   1.239   0.804 -1.8271  1.6488 -0.2967
  133SOL    HW2  399   0.345   1.325   0.762  2.2376 -0.3402  3.5292
  134SOL     OW  400   2.976   1.539   2.999  0.0796 -1.1093 -0.0587
  134SOL    HW1  401   3.017   1.544   3.095  1.1533  1.8877 -0.8746
  134SOL    HW2  402   3.030   1.482   2.937 -1.7738  3.0773  0.6491
  135SOL     OW  403   1.834   0.812   0.042  0.6810  0.2324  0.1856
  135SOL    HW1  404   1.775   0.893   0.048 -0.3915 -1.0003  3.7558
  135SOL    HW2  405   1.841   0.767   3.053 -1.6335 -1.7597  2.7771
  136SOL     OW  406   2.205   1.898   1.469 -0.4612 -0.2082 -0.2869
  136SOL    HW1  407   2.150   1.813   1.464  0.2962 -2.2127 -0.5331
  136SOL    HW2  408   2.146   1.980   1.467 -0.3928 -3.3690 -0.9062
  137SOL     OW  409   2.175   2.552   0.659 -0.0670 -0.0032  0.1101
  137SOL    HW1  410   2.177   2.623   0.734  0.6075  2.7506  2.3501
  137SOL    HW2  411   2.087   2.537   0.618  1.9815  0.8905  1.7634
  138SOL     OW  412   2.283   0.404   1.853 -0.0565 -0.6316 -0.7387
  138SOL    HW1  413   2.238   0.383   1.941  1.5256 -1.7631  3.3680
  138SOL    HW2  414   2.249   0.334   1.789  0.5625  1.3850  0.7183
  139SOL     OW  415   2.708   2.480   2.857  0.6167  0.2920  0.2527
  139SOL    HW1  416   2.690   2.381   2.835  1.3532  1.7139 -0.5049
  139SOL    HW2  417   2.695   2.530   2.774 -1.3320  0.7835  2.2979
  140SOL     OW  418   1.621   2.124   2.563  0.4557 -0.7857  0.0763
  140SOL    HW1  419   1.705   2.175   2.581  0.9609 -1.3059  1.3490
  140SOL    HW2  420   1.631   2.021   2.567  0.0465 -3.4347 -0.9702
  141SOL     OW  421   1.209   1.220   2.534  0.1744  0.3280 -0.4424
  141SOL    HW1  422   1.232   1.208   2.632  1.3704 -1.7290  0.7797
  141SOL    HW2  423   1.294   1.238   2.475 -1.3988 -0.4563  0.1236
  142SOL     OW  424   2.042   2.585   2.054  0.3539  0.6603 -0.4503
  142SOL    HW1  425   2.015   2.489   2.033  0.3552  3.2631 -0.1568
  142SOL    HW2  426   2.053   2.634   1.969 -1.4093 -2.5010  0.2346
  143SOL     OW  427   0.955   2.368   0.518 -0.2684 -0.2957 -0.2756
  143SOL    HW1  428   1.034   2.381   0.578 -0.2953 -1.0156 -2.7606
  143SOL    HW2  429   0.960   2.276   0.479  0.3368  2.3254 -0.2570
  144SOL     OW  430   0.755   2.531   0.639  0.0053 -0.0075  0.2558
  144SOL    HW1  431   0.823   2.606   0.660  1.1499  0.4226 -1.2011
  144SOL    HW2  432   0.810   2.459   0.598  0.2792  1.3681  1.2110
  145SOL     OW  433   1.626   2.510   2.958  0.0701 -0.2392 -0.0218
  145SOL    HW1  434   1.562   2.464   2.895  2.3237 -0.4795  1.8677
  145SOL    HW2  435   1.632   2.461   3.046 -0.9376  0.0582 -0.3169
  146SOL     OW  436   2.076   2.537   0.114  0.4922 -0.4065 -0.8778
  146SOL    HW1  437   2.087   2.639   0.085  0.2659  3.4299 -1.6911
  146SOL    HW2  438   2.146   2.504   0.184  2.1198 -1.9124  0.3672
  147SOL     OW  439   0.265   1.572   2.018 -0.0314  0.4783 -0.0563
  147SOL    HW1  440   0.279   1.605   1.922 -3.1207 -2.0066  0.9511
  147SOL    HW2  441   0.166   1.549   2.041 -1.2509  0.3139 -0.8848
  148SOL     OW  442   1.391   2.805   0.146 -0.8673  0.5255  0.2702
  148SOL    HW1  443   1.393   2.878   0.213 -1.1497 -2.7786 -0.4599
  148SOL    HW2  444   1.305   2.798   0.091 -1.6233  2.2321 -1.0841
  149SOL     OW  445   0.590   2.058   0.013  0.6845 -0.5008 -0.1634
  149SOL    HW1  446   0.645   2.141   3.090  0.0759  2.1417 -0.0462
  149SOL    HW2  447   0.533   2.073   0.094 -1.1128  0.9347 -0.2344
  150SOL     OW  448   0.248   2.676   1.301 -0.2056 -0.0765 -0.0953
  150SOL    HW1  449   0.310   2.618   1.361  1.0235  2.6618 -4.1156
  150SOL    HW2  450   0.166   2.713   1.347  0.3410 -1.7871 -1.1558
  151SOL     OW  451   0.283   1.611   2.952 -0.1496  0.1676 -0.3754
  151SOL    HW1  452   0.261   1.559   2.873  1.8203  0.7821  1.4490
  151SOL    HW2  453   0.362   1.567   3.004  1.4326 -1.5421  0.3057
  152SOL     OW  454   2.876   2.027   0.890  0.2849  0.2569  0.3297
  152SOL    HW1  455   2.847   1.933   0.917  1.2341 -0.3929 -0.0447
  152SOL    HW2  456   2.795   2.093   0.901 -1.6375 -0.0904 -0.3754
  153SOL     OW  457   1.557   2.224   0.553 -0.3942  0.3555 -0.4337
  153SOL    HW1  458   1.654   2.191   0.564  2.0545 -0.6214  1.4278
  153SOL    HW2  459   1.485   2.164   0.591 -0.4906  0.5292 -0.8148
  154SOL     OW  460   0.656   0.072   1.649  0.1451 -0.0057  0.7898
  154SOL    HW1  461   0.557   0.099   1.663 -0.8409  0.1628 -2.3235
  154SOL    HW2  462   0.713   0.151   1.616  0.4942  2.8391 -0.7015
  155SOL     OW  463   2.671   2.189   0.401  0.1457 -0.0215  0.3026
  155SOL    HW1  464   2.712   2.226   0.488 -0.7474  0.4723 -2.7822
  155SOL    HW2  465   2.570   2.170   0.408 -2.2836  1.6089  0.1893
  156SOL     OW  466   2.205   2.003   0.205  0.4353  0.2479  0.4391
  156SOL    HW1  467   2.258   2.083   0.168 -0.3263  0.6175  1.8752
  156SOL    HW2  468   2.261   1.934   0.252 -0.2618  0.2504  0.8246
  157SOL     OW  469   0.457   2.995   1.981  0.3517 -0.0183 -0.2128
  157SOL    HW1  470   0.524   3.064   2.018  0.1643  0.4050  0.7403
  157SOL    HW2  471   0.491   2.903   1.999  1.1753  1.6659 -2.0537
  158SOL     OW  472   1.296   0.585   1.186  0.6645  0.0686  0.0519
  158SOL    HW1  473   1.261   0.676   1.150 -0.0049  1.2554  0.2199
  158SOL    HW2  474   1.326   0.598   1.280 -1.0394  0.4199 -1.8403
  159SOL     OW  475   1.826   1.113   2.922  0.3257  0.3756 -0.2116
  159SOL    HW1  476   1.816   1.069   2.835  0.2125 -1.0242 -0.0583
  159SOL    HW2  477   1.741   1.101   2.979  0.2686 -0.8734  0.3474
  160SOL     OW  478   1.154   1.940   0.476 -0.0003 -0.2520 -0.5049
  160SOL    HW1  479   1.074   2.003   0.458 -2.5358  1.1163  0.1648
  160SOL    HW2  480   1.137   1.879   0.553 -0.2966  1.9029  0.4592
  161SOL     OW  481   2.710   2.056   2.544 -0.3060  0.2378 -0.4101
  161SOL    HW1  482   2.751   2.147   2.523  5.2435  0.0872  0.5743
  161SOL    HW2  483   2.607   2.052   2.541  0.4188 -0.5612 -0.5147
  162SOL     OW  484   0.172   2.418   1.271 -0.0840  0.2286 -0.1580
  162SOL    HW1  485   0.212   2.512   1.272 -0.5161 -1.9112 -1.2219
  162SOL    HW2  486   0.068   2.411   1.290 -2.2009 -0.7245 -0.3238
  163SOL     OW  487   0.360   0.700   2.769 -0.4353 -0.3791  0.0930
  163SOL    HW1  488   0.306   0.763   2.824 -0.6986  4.2341 -0.1291
  163SOL    HW2  489   0.307   0.670   2.688 -0.4156  2.2523  2.2498
  164SOL     OW  490   0.211   2.650   2.794 -0.2215 -0.4226 -0.1833
  164SOL    HW1  491   0.143   2.587   2.759 -1.7198  2.2020  2.1121
  164SOL    HW2  492   0.180   2.692   2.884  0.5774  1.8924 -1.7490
  165SOL     OW  493   2.530   0.852   1.449  0.2997  0.2056 -0.6256
  165SOL    HW1  494   2.516   0.952   1.431  0.6347 -1.7499  1.4467
  165SOL    HW2  495   2.571   0.836   1.546 -1.4707 -2.1483 -0.3576
  166SOL     OW  496   2.044   1.658   1.471  0.1659 -0.2345  0.2047
  166SOL    HW1  497   2.122   1.617   1.427 -0.1754  1.4691  2.3136
  166SOL    HW2  498   1.960   1.605   1.451 -0.7520  2.4341 -1.4255
  167SOL     OW  499   0.143   0.601   3.035 -0.7172  0.1720  0.0252
  167SOL    HW1  500   0.097   0.540   0.003 -0.5375 -1.9777  0.1584
  167SOL    HW2  501   0.236   0.650   3.058  1.6781 -0.2748 -1.4470
  168SOL     OW  502   2.099   0.361   2.670 -0.1007 -0.1321  0.4546
  168SOL    HW1  503   2.008   0.389   2.695  2.9694 -1.1646 -0.1913
  168SOL    HW2  504   2.162   0.409   2.730  2.3957  0.1932 -0.5122
  169SOL     OW  505   0.445   1.200   2.959 -0.6172 -0.0643 -0.3453
  169SOL    HW1  506   0.458   1.289   3.005  1.7862 -2.7551 -1.0007
  169SOL    HW2  507   0.346   1.172   2.966  3.3118 -0.9363 -0.4652
  170SOL     OW  508   1.173   1.154   1.614 -0.0945 -0.8386  0.4979
  170SOL    HW1  509   1.271   1.136   1.619 -1.8344  0.9723 -1.8862
  170SOL    HW2  510   1.167   1.255   1.603  0.3196 -0.1049  0.5129
  171SOL     OW  511   1.476   2.712   1.220 -0.4444  0.1882 -0.7022
  171SOL    HW1  512   1.563   2.667   1.184  2.1682 -1.2457  0.4536
  171SOL    HW2  513   1.505   2.782   1.289 -2.1486  0.5094  3.6501
  172SOL     OW  514   0.914   2.996   1.935 -0.3809 -0.2322  0.4692
  172SOL    HW1  515   0.830   2.982   1.874 -3.2799 -2.5724 -1.8873
  172SOL    HW2  516   0.993   2.937   1.900  0.6734 -1.2260 -0.2480
  173SOL     OW  517   0.567   2.414   0.787  0.2294 -0.3065  0.0754
  173SOL    HW1  518   0.645   2.469   0.746 -0.5272 -0.9377 -1.7806
  173SOL    HW2  519   0.565   2.419   0.891  1.5365  3.2911  0.1053
  174SOL     OW  520   2.157   0.154   0.292  0.3013 -0.0775 -0.2212
  174SOL    HW1  521   2.062   0.114   0.281 -0.1706 -2.8596 -1.4170
  174SOL    HW2  522   2.225   0.143   0.216  3.0150 -0.9903  0.6204
  175SOL     OW  523   1.056   1.433   0.788  0.0121  0.0178  0.3360
  175SOL    HW1  524   1.097   1.526   0.798 -1.6454 -0.4704 -0.7042
  175SOL    HW2  525   0.960   1.433   0.792  4.3327  2.0169  3.2542
  176SOL     OW  526   1.139   1.812   0.979 -0.1698  0.0239 -0.0883
  176SOL    HW1  527   1.182   1.879   1.046  1.2435  2.5419  2.0627
  176SOL    HW2  528   1.044   1.796   1.005  1.9383 -1.5586  0.4834
  177SOL     OW  529   1.454   0.954   0.936  0.1828  0.1676  0.2471
  177SOL    HW1  530   1.496   0.900   1.011 -0.9112 -2.5014 -0.7089
  177SOL    HW2  531   1.494   0.942   0.844 -0.5856  2.2043 -2.6538
  178SOL     OW  532   2.276   1.349   0.434  0.3320  0.0590  0.5558
  178SOL    HW1  533   2.374   1.358   0.408 -2.6056  0.9907  0.6554
  178SOL    HW2  534   2.215   1.384   0.362 -0.1156 -1.1494  1.0332
  179SOL     OW  535   1.146   2.750   0.062  0.2713  0.4619  0.1258
  179SOL    HW1  536   1.081   2.725   0.140  0.0401  0.6155 -1.6893
  179SOL    HW2  537   1.158   2.674   3.092  0.3801 -2.9586 -2.5658
  180SOL     OW  538   1.939   1.255   1.420  0.1269  0.2855 -0.2512
  180SOL    HW1  539   1.933   1.354   1.395  0.8036  2.5610 -4.0530
  180SOL    HW2  540   2.012   1.202   1.369  0.8280 -1.1409  2.8653
  181SOL     OW  541   0.905   1.074   1.614 -0.3255  0.8554  0.1772
  181SOL    HW1  542   0.998   1.103   1.583 -0.3993 -1.4488  1.9725
  181SOL    HW2  543   0.910   0.973   1.634 -2.2643 -0.2407  0.9790
  182SOL     OW  544   2.925   0.927   3.015  0.5436  0.4032 -0.4500
  182SOL    HW1  545   2.902   0.858   2.939  0.6976 -2.1144 -2.5659
  182SOL    HW2  546   2.912   1.022   2.986 -0.4889 -0.6970  0.9711
  183SOL     OW  547   1.780   0.353   1.879 -0.1437 -0.1710 -0.3511
  183SOL    HW1  548   1.853   0.287   1.887  1.4613  1.1336  0.1571
  183SOL    HW2  549   1.695   0.333   1.931 -0.5421  0.6165  0.5289
  184SOL     OW  550   1.005   0.668   1.236  0.4060 -0.0326 -0.5431
  184SOL    HW1  551   0.963   0.679   1.143 -1.0279 -1.1710  3.4176
  184SOL    HW2  552   1.077   0.596   1.239 -1.9029  0.2557  3.8540
  185SOL     OW  553   2.352   1.091   0.497 -0.1077  0.5021 -0.1010
  185SOL    HW1  554   2.435   1.085   0.556 -0.9559 -3.0976 -3.1230
  185SOL    HW2  555   2.323   1.182   0.470 -2.2816 -1.2720 -0.7018
  186SOL     OW  556   0.213   2.042   0.309  0.2013 -0.2551 -0.3343
  186SOL    HW1  557   0.118   2.079   0.290  0.6483  2.3171  0.5448
  186SOL    HW2  558   0.290   2.105   0.280 -1.1597  0.9335 -1.6526
  187SOL     OW  559   1.966   2.172   2.814 -0.6363  0.2233  0.3009
  187SOL    HW1  560   2.036   2.239   2.852 -0.1079 -1.0178  0.0974
  187SOL    HW2  561   1.902   2.221   2.753  2.4600 -0.5819 -0.2453
  188SOL     OW  562   1.144   2.584   1.510  0.1466  0.3672  0.2222
  188SOL    HW1  563   1.096   2.674   1.506 -0.2592 -2.0722 -1.6014
  188SOL    HW2  564   1.186   2.563   1.417 -0.9329 -1.1411 -1.6868
  189SOL     OW  565   2.812   1.220   2.644  0.1347  0.0649 -0.3342
  189SOL    HW1  566   2.788   1.318   2.624 -0.6545  0.7033 -0.0433
  189SOL    HW2  567   2.910   1.203   2.662  0.7953  0.7980 -1.4251
  190SOL     OW  568   0.800   2.734   2.292 -0.1701  0.0293 -0.0702
  190SOL    HW1  569   0.794   2.661   2.223  0.0908 -0.3929  1.1684
  190SOL    HW2  570   0.835   2.824   2.256  0.0026  0.9169  0.1297
  191SOL     OW  571   2.459   1.067   0.903 -0.1970 -0.2847  0.1562
  191SOL    HW1  572   2.435   0.984   0.952  0.9817  2.0842 -2.6323
  191SOL    HW2  573   2.376   1.117   0.873 -1.0928  0.7126  1.0645
  192SOL     OW  574   2.036   0.535   0.970  0.4904 -0.0405 -0.7746
  192SOL    HW1  575   2.049   0.527   1.071 -0.3492 -0.2058 -3.4559
  192SOL    HW2  576   1.973   0.461   0.933 -2.7480  0.0338 -0.9896
  193SOL     OW  577   1.053   0.084   0.275  0.1754  0.6252  0.2573
  193SOL    HW1  578   1.126   0.056   0.209  0.6113 -0.4572  1.0186
  193SOL    HW2  579   0.995   0.158   0.242 -3.2912  0.0063  2.5424
  194SOL     OW  580   1.631   2.193   0.965 -0.1091 -0.3187  0.2122
  194SOL    HW1  581   1.575   2.251   0.905  2.6825 -2.1605  0.2856
  194SOL    HW2  582   1.561   2.137   1.024  0.4165 -0.6367 -0.1175
  195SOL     OW  583   2.770   0.930   0.578 -0.3363  0.3639  0.6901
  195SOL    HW1  584   2.788   0.830   0.583 -1.7756  5.1338 -1.1644
  195SOL    HW2  585   2.680   0.944   0.536  4.1270 -0.5517 -0.1185
  196SOL     OW  586   0.521   2.505   1.723  0.2222  0.0378 -0.1074
  196SOL    HW1  587   0.525   2.602   1.684  0.9427  3.2142 -0.4999
  196SOL    HW2  588   0.455   2.511   1.802 -3.6527  1.6410  2.6530
  197SOL     OW  589   2.614   0.308   2.590  0.5294  0.2681  0.3148
  197SOL    HW1  590   2.578   0.389   2.533  1.7939  1.3862  0.1305
  197SOL    HW2  591   2.612   0.221   2.540  2.8520  2.9820  2.4246
  198SOL     OW  592   2.145   1.472   0.245  0.3303 -0.3828  0.2251
  198SOL    HW1  593   2.232   1.474   0.191 -0.1278 -1.2744 -0.4465
  198SOL    HW2  594   2.096   1.563   0.247  1.3364 -2.9184  1.1815
  199SOL     OW  595   2.370   0.648   1.799  0.3443 -0.9616  0.2265
  199SOL    HW1  596   2.322   0.691   1.875 -1.5267  0.7043  2.3761
  199SOL    HW2  597   2.345   0.554   1.806 -0.4752  3.0762  2.3879
  200SOL     OW  598   1.712   3.071   2.728  0.3277  0.1751 -0.2535
  200SOL    HW1  599   1.789   3.087   2.793  0.5972 -0.2706  0.7114
  200SOL    HW2  600   1.640   3.011   2.771 -1.0363  0.6808 -0.5650
  201SOL     OW  601   2.706   0.125   1.306 -0.2698  0.0937 -0.4420
  201SOL    HW1  602   2.618   0.072   1.295 -0.0772 -1.3906 -0.1945
  201SOL    HW2  603   2.716   0.203   1.239  2.2951  0.1382  0.8002
  202SOL     OW  604   2.759   2.924   0.472  0.8783  0.3037  0.8688
  202SOL    HW1  605   2.791   2.985   0.391  0.8175 -3.7469  0.6642
  202SOL    HW2  606   2.831   2.913   0.539 -0.0412  0.6029  1.1581
  203SOL     OW  607   1.764   1.755   0.617 -0.1050  0.0409 -0.1874
  203SOL    HW1  608   1.688   1.801   0.665  2.0950 -0.5018 -0.4244
  203SOL    HW2  609   1.850   1.809   0.623 -1.4356  0.3015 -1.6441
  204SOL     OW  610   0.437   1.700   2.156  0.2743 -0.3337 -0.2538
  204SOL    HW1  611   0.383   1.712   2.240  2.1223 -1.1319  0.3035
  204SOL    HW2  612   0.376   1.653   2.083  1.2366  0.8973 -1.6523
  205SOL     OW  613   0.782   0.602   0.872  0.5611  0.0307  0.0368
  205SOL    HW1  614   0.840   0.520   0.898 -0.3558 -1.3977 -3.4097
  205SOL    HW2  615   0.722   0.582   0.792  2.2164  2.5115  0.2972
  206SOL     OW  616   0.564   0.957   2.967  0.2358 -0.2441  0.6644
  206SOL    HW1  617   0.494   0.889   2.999  0.7770  1.6379  2.4887
  206SOL    HW2  618   0.531   1.054   2.951  0.0509 -0.6074 -0.2413
  207SOL     OW  619   1.215   2.440   1.734 -0.1135  0.2946 -0.3581
  207SOL    HW1  620   1.219   2.342   1.706 -0.9571 -1.9101 -1.8146
  207SOL    HW2  621   1.192   2.498   1.650 -1.0285 -0.8910 -0.6549
  208SOL     OW  622   2.405   0.210   1.393 -0.0643 -1.3681 -0.0220
  208SOL    HW1  623   2.469   0.156   1.451  0.2104 -0.9645  1.2524
  208SOL    HW2  624   2.424   0.204   1.293 -4.3874  0.4936 -1.8983
  209SOL     OW  625   1.960   0.840   0.644 -0.1639  0.1936 -0.5797
  209SOL    HW1  626   1.925   0.796   0.733 -1.5007  0.3708  1.8208
  209SOL    HW2  627   1.890   0.844   0.568 -1.3544 -0.2255 -0.0870
  210SOL     OW  628   2.569   1.115   0.657  0.2090  0.3785  0.5916
  210SOL    HW1  629   2.542   1.099   0.754  0.2099 -1.4853 -0.3314
  210SOL    HW2  630   2.658   1.079   0.639 -0.2156  1.8727 -0.9954
  211SOL     OW  631   1.066   2.984   3.058 -0.5735  0.0815  0.6600
  211SOL    HW1  632   1.147   3.044   3.077  0.5190  2.5094 -1.4173
  211SOL    HW2  633   1.077   2.885   3.088 -0.7437 -0.9952 -0.1828
  212SOL     OW  634   2.013   1.909   0.612  0.6342  0.2010 -0.3206
  212SOL    HW1  635   2.059   1.938   0.698 -0.4417  0.6447  1.6407
  212SOL    HW2  636   2.066   1.833   0.566  0.9882 -2.9764 -1.9781
  213SOL     OW  637   2.378   2.965   0.025  0.2881 -0.3217 -0.6722
  213SOL    HW1  638   2.457   2.904   0.020  1.5928  0.1727  0.6235
  213SOL    HW2  639   2.300   2.924   3.073 -1.6015 -3.2443 -0.9819
  214SOL     OW  640   1.208   2.395   2.189  0.1415  0.1793 -0.1143
  214SOL    HW1  641   1.214   2.496   2.166  0.6698 -1.1656 -0.7379
  214SOL    HW2  642   1.246   2.343   2.113  1.8007 -1.5151  0.3724
  215SOL     OW  643   0.305   1.497   1.050 -0.3849  0.3682 -0.1980
  215SOL    HW1  644   0.218   1.459   1.077  1.0442  0.2825 -0.0509
  215SOL    HW2  645   0.308   1.506   0.947 -3.3355 -0.0593  3.0575
  216SOL     OW  646   0.336   3.094   2.663  0.2012  0.3348 -0.1348
  216SOL    HW1  647   0.329   2.993   2.689  2.5301 -0.0368  1.3669
  216SOL    HW2  648   0.254   0.040   2.631  0.6708 -1.8273 -1.7696
  217SOL     OW  649   2.746   1.472   1.539 -0.1918  0.0302  0.2601
  217SOL    HW1  650   2.839   1.505   1.517 -0.1313 -1.3901 -1.9336
  217SOL    HW2  651   2.744   1.364   1.542  1.0717 -2.8893  0.2093
  218SOL     OW  652   0.759   2.065   1.571  0.3057  0.2479  0.8669
  218SOL    HW1  653   0.700   2.148   1.561 -1.0926 -0.8635  1.9623
  218SOL    HW2  654   0.844   2.081   1.626  2.1312 -1.4824  2.6776
  219SOL     OW  655   2.079   1.866   0.004  0.9318  0.4010 -0.4155
  219SOL    HW1  656   2.136   1.934   0.061  2.4140  0.9325  1.8608
  219SOL    HW2  657   2.138   1.791   3.072 -0.9278 -0.2252 -2.1354
  220SOL     OW  658   1.890   0.029   2.924 -0.2816 -0.4648 -0.4300
  220SOL    HW1  659   1.962   0.087   2.956 -0.3312 -1.1508 -0.1445
  220SOL    HW2  660   1.837   3.096   3.006  2.1440  0.4287 -0.2095
  221SOL     OW  661   3.005   0.726   0.099  0.1382 -0.3075  0.0712
  221SOL    HW1  662   3.082   0.668   0.076 -2.3341 -0.7727 -1.1273
  221SOL    HW2  663   2.993   0.793   0.026 -1.4274 -2.7812  0.5204
  222SOL     OW  664   1.550   1.479   0.798  0.2644 -0.1769  0.8902
  222SOL    HW1  665   1.539   1.390   0.749 -1.5515  2.1283  0.7229
  222SOL    HW2  666   1.645   1.496   0.814  0.7651  1.2557  3.5639
  223SOL     OW  667   1.184   0.271   2.982 -0.1741  0.0675 -0.2119
  223SOL    HW1  668   1.186   0.239   2.888 -2.4882  0.7297 -1.1567
  223SOL    HW2  669   1.114   0.345   2.998 -4.4452 -0.3202  0.1430
  224SOL     OW  670   0.997   2.812   1.227  0.0356 -0.3913 -0.3442
  224SOL    HW1  671   0.938   2.885   1.272 -3.1002 -0.1669  2.0054
  224SOL    HW2  672   0.944   2.729   1.193  2.5186 -2.9760  0.5104
  225SOL     OW  673   0.897   2.961   2.204 -0.3904 -0.1766  0.3362
  225SOL    HW1  674   0.904   2.977   2.100 -0.9965 -1.7050 -3.4323
  225SOL    HW2  675   0.892   3.050   2.257 -1.8300  0.3201  0.1642
  226SOL     OW  676   1.422   1.656   0.621 -0.0109 -0.2231 -0.8921
  226SOL    HW1  677   1.475   1.741   0.611  2.3900 -1.9057 -1.7229
  226SOL    HW2  678   1.474   1.580   0.670  1.7148 -1.3118 -1.3629
  227SOL     OW  679   0.268   1.960   1.375  0.0019 -0.4877  0.7881
  227SOL    HW1  680   0.321   1.892   1.435  1.3187  0.7944 -1.8955
  227SOL    HW2  681   0.277   1.938   1.275  0.6673  0.3202  0.8579
  228SOL     OW  682   3.045   1.767   0.540  0.0935 -0.2477  0.1441
  228SOL    HW1  683   0.030   1.729   0.499  0.2282 -1.1404 -1.7949
  228SOL    HW2  684   3.053   1.852   0.595 -1.8630  1.6149 -2.0009
  229SOL     OW  685   2.678   0.113   2.779  0.2977  0.3144  0.2325
  229SOL    HW1  686   2.608   0.189   2.781  3.5782  0.9038 -0.2729
  229SOL    HW2  687   2.635   0.020   2.777 -0.6414  1.4709  0.4084
  230SOL     OW  688   2.522   0.545   0.281  0.1698  0.1385  0.1381
  230SOL    HW1  689   2.547   0.642   0.265  1.4187 -0.5992 -1.5471
  230SOL    HW2  690   2.462   0.511   0.206 -1.5506  0.3409  0.1439
  231SOL     OW  691   1.949   1.675   0.191 -0.2602  0.4622  0.1858
  231SOL    HW1  692   1.889   1.623   0.125 -2.7661  0.1775  0.5699
  231SOL    HW2  693   1.996   1.743   0.138  0.0174 -1.4583  0.8959
  232SOL     OW  694   1.894   1.901   1.064 -0.0107  0.6221  0.2705
  232SOL    HW1  695   1.884   1.795   1.077  1.3284 -5.3948 -1.5977
  232SOL    HW2  696   1.983   1.934   1.018 -1.7325  2.7761  2.7745
  233SOL     OW  697   0.348   2.921   1.718  0.2578  0.5137 -0.1231
  233SOL    HW1  698   0.371   2.947   1.812 -0.9926 -1.9094 -0.9564
  233SOL    HW2  699   0.247   2.920   1.708  0.2623 -0.6220 -1.1139
  234SOL     OW  700   0.780   0.309   2.574 -0.2299  0.5481  0.1272
  234SOL    HW1  701   0.870   0.296   2.527  0.5121  1.6926 -1.0312
  234SOL    HW2  702   0.776   0.388   2.639 -1.2734  0.3100 -0.9127
  235SOL     OW  703   2.553   1.048   1.755  0.8373  0.5674 -0.6782
  235SOL    HW1  704   2.589   0.958   1.724 -0.2066  2.0703  1.1764
  235SOL    HW2  705   2.556   1.110   1.674  0.9685  1.5867  1.5302
  236SOL     OW  706   1.385   2.806   1.540 -0.1048  0.0562  0.5363
  236SOL    HW1  707   1.284   2.792   1.525 -5.5618  2.9067 -1.3120
  236SOL    HW2  708   1.441   2.721   1.526  1.7484  0.9556  0.1116
  237SOL     OW  709   0.511   1.593   2.717 -0.0923 -0.5342 -0.0805
  237SOL    HW1  710   0.583   1.570   2.647  2.4878  0.6091 -0.3494
  237SOL    HW2  711   0.469   1.681   2.698  2.7925  1.5915  1.0113
  238SOL     OW  712   0.867   0.849   2.198 -0.4270  0.3422  0.0496
  238SOL    HW1  713   0.946   0.906   2.177 -0.6551  1.1068  3.1705
  238SOL    HW2  714   0.862   0.835   2.300  1.1192 -0.5116 -2.1360
  239SOL     OW  715   0.911   1.817   2.491  0.0105 -0.1478 -0.3601
  239SOL    HW1  716   0.824   1.834   2.544  2.1854 -1.5982  0.4683
  239SOL    HW2  717   0.987   1.881   2.519  1.9847 -1.6587 -1.4414
  240SOL     OW  718   2.284   2.926   0.292 -0.7429 -0.2636  0.3408
  240SOL    HW1  719   2.324   2.944   0.202 -1.8625  0.5643 -0.5671
  240SOL    HW2  720   2.357   2.930   0.369  2.4281 -0.9831  1.2092
  241SOL     OW  721   0.466   1.132   0.218 -0.5369  0.7254  0.5153
  241SOL    HW1  722   0.510   1.086   0.295 -0.7625  0.5753  1.1605
  241SOL    HW2  723   0.426   1.218   0.244  2.8510 -3.8954 -1.9001
  242SOL     OW  724   1.502   2.566   1.511  0.1297 -0.3820 -0.2243
  242SOL    HW1  725   1.459   2.477   1.476 -2.2130 -1.3987 -1.3168
  242SOL    HW2  726   1.600   2.568   1.485 -1.2953  0.3592  0.4340
  243SOL     OW  727   0.781   2.510   1.776  0.8694 -0.0306  0.2181
  243SOL    HW1  728   0.828   2.593   1.734  1.3733 -0.2092 -0.4746
  243SOL    HW2  729   0.686   2.509   1.742 -0.9517 -1.0281 -0.9926
  244SOL     OW  730   2.344   0.639   2.561  0.4765 -0.2866 -0.2260
  244SOL    HW1  731   2.296   0.704   2.499 -2.6956  0.9473 -0.0227
  244SOL    HW2  732   2.423   0.681   2.609 -0.3657  1.3770  1.2683
  245SOL     OW  733   1.716   2.406   1.174  0.2347  0.2944  0.1553
  245SOL    HW1  734   1.711   2.310   1.142  2.4429 -0.9875  1.7354
  245SOL    HW2  735   1.696   2.470   1.097 -1.4211  1.2181  0.4186
  246SOL     OW  736   1.423   3.022   0.339 -0.6146 -0.2582 -0.8214
  246SOL    HW1  737   1.431   3.001   0.441  2.0420 -0.8272  2.4779
  246SOL    HW2  738   1.461   0.017   0.319  1.5190  0.7713  1.6338
  247SOL     OW  739   1.911   0.542   1.741  0.1453  0.1278 -0.2403
  247SOL    HW1  740   1.926   0.524   1.644 -2.0179 -2.2474 -0.8075
  247SOL    HW2  741   1.850   0.470   1.785 -0.8624  0.1904  0.6570
  248SOL     OW  742   0.047   2.068   1.497 -0.6303 -0.1566 -0.4850
  248SOL    HW1  743   0.135   2.037   1.449  1.1221  1.7779 -0.8667
  248SOL    HW2  744   0.001   1.985   1.532  1.6165  0.6341 -1.4424
  249SOL     OW  745   0.492   0.364   0.267 -0.0417 -0.1368  0.2726
  249SOL    HW1  746   0.498   0.406   0.359  1.5635  0.0890 -0.1656
  249SOL    HW2  747   0.494   0.260   0.264 -3.2081 -2.0552 -1.3095
  250SOL     OW  748   2.414   0.234   2.232  0.3678  0.0076 -0.2174
  250SOL    HW1  749   2.358   0.280   2.311 -1.0809  1.1923  3.3100
  250SOL    HW2  750   2.457   0.304   2.169  0.5573 -1.0773  0.5198
  251SOL     OW  751   1.337   0.576   0.000  0.2429 -0.6321  0.0814
  251SOL    HW1  752   1.283   0.583   3.015  3.6821  1.7663 -1.8610
  251SOL    HW2  753   1.279   0.560   0.079  0.5674 -3.2195 -3.1883
  252SOL     OW  754   1.187   2.646   2.118 -0.5086 -0.9994 -0.6092
  252SOL    HW1  755   1.254   2.710   2.156  0.6524 -0.4111  0.6445
  252SOL    HW2  756   1.231   2.602   2.032 -0.0573 -0.0418 -2.6056
  253SOL     OW  757   2.696   2.648   0.616  0.2699  0.0590 -0.1963
  253SOL    HW1  758   2.613   2.662   0.675 -1.8915 -3.8494  2.2018
  253SOL    HW2  759   2.745   2.735   0.604 -1.1702 -1.1401 -1.6777
  254SOL     OW  760   2.371   1.257   1.207  0.3571  0.2050 -0.0436
  254SOL    HW1  761   2.458   1.268   1.256  0.7895 -1.7398 -1.8030
  254SOL    HW2  762   2.370   1.305   1.111 -0.5621  1.0921 -4.4510
  255SOL     OW  763   0.610   2.860   1.396 -0.2596 -0.3642  0.2635
  255SOL    HW1  764   0.687   2.929   1.392 -3.2689 -0.0682  1.3090
  255SOL    HW2  765   0.598   2.813   1.307  3.3112  2.1668 -0.6303
  256SOL     OW  766   2.047   1.617   1.749 -0.7319  0.2398  0.1074
  256SOL    HW1  767   2.041   1.516   1.774  1.3755 -2.1625 -3.6060
  256SOL    HW2  768   2.063   1.625   1.647  0.7026  1.1196 -2.9467
  257SOL     OW  769   0.457   2.533   2.703  0.0093 -0.6460 -0.2728
  257SOL    HW1  770   0.477   2.451   2.757  2.0374  1.7938 -2.1782
  257SOL    HW2  771   0.369   2.577   2.735  0.8516 -0.1945 -2.3394
  258SOL     OW  772   0.527   2.536   1.062 -0.3368 -0.3985  0.1382
  258SOL    HW1  773   0.467   2.461   1.099  0.0846 -0.2701 -0.7857
  258SOL    HW2  774   0.500   2.628   1.095  3.0226 -0.2902  0.6236
  259SOL     OW  775   1.462   0.623   2.705 -0.0810  0.0639 -0.1707
  259SOL    HW1  776   1.507   0.703   2.745 -2.7145 -1.0269 -0.8267
  259SOL    HW2  777   1.408   0.650   2.619 -2.7718  1.2294 -2.6918
  260SOL     OW  778   0.354   0.356   1.209  0.0230 -0.1259 -0.3523
  260SOL    HW1  779   0.365   0.258   1.204  3.0699  0.6283  0.6952
  260SOL    HW2  780   0.361   0.395   1.119 -0.5413 -2.5429  2.8538
  261SOL     OW  781   0.886   0.059   2.423  0.4392  0.0412 -0.0586
  261SOL    HW1  782   0.811   0.025   2.484  0.8416  0.3212 -1.4784
  261SOL    HW2  783   0.959   0.108   2.481  0.9469 -0.1345 -2.8118
  262SOL     OW  784   1.067   2.769   1.907 -0.7037  0.2614 -0.3764
  262SOL    HW1  785   1.077   2.724   1.997  0.8495  0.9307  1.7449
  262SOL    HW2  786   1.028   2.708   1.838  0.5971 -1.7991 -1.7914
  263SOL     OW  787   0.743   2.278   3.018  0.3076  0.4656 -0.5020
  263SOL    HW1  788   0.746   2.367   3.062  0.5003  1.5248 -0.8341
  263SOL    HW2  789   0.829   2.254   2.965 -3.6133  0.7656  1.5960
  264SOL     OW  790   1.500   1.612   1.025  0.0152  0.6822  0.4781
  264SOL    HW1  791   1.552   1.698   1.017  0.3470 -0.1044  0.0282
  264SOL    HW2  792   1.498   1.566   0.934  1.4415  2.0191  0.9729
  265SOL     OW  793   0.991   2.141   0.377 -0.3355 -0.0323 -0.0037
  265SOL    HW1  794   1.048   2.196   0.308  0.9584  0.5565  0.8390
  265SOL    HW2  795   0.912   2.093   0.325 -0.8098  1.3730 -1.8781
  266SOL     OW  796   2.899   0.990   0.957 -0.1470  1.0149  0.1108
  266SOL    HW1  797   2.828   0.918   0.952  0.0214  2.0862 -1.1145
  266SOL    HW2  798   2.945   0.979   1.044 -1.1474 -0.1867 -2.7604
  267SOL     OW  799   3.092   1.567   0.154  0.1176 -0.1844  0.6685
  267SOL    HW1  800   0.004   1.516   0.238  0.6582  0.3309 -0.5809
  267SOL    HW2  801   0.067   1.635   0.142 -1.7897 -0.2927 -0.7432
  268SOL     OW  802   1.323   0.407   0.344  0.5019 -0.6950 -0.2300
  268SOL    HW1  803   1.224   0.412   0.313 -0.8841  3.7964  0.1548
  268SOL    HW2  804   1.365   0.499   0.343 -3.1568  1.0329  5.6237
  269SOL     OW  805   2.593   0.795   2.055 -0.3617  0.5929  0.5864
  269SOL    HW1  806   2.652   0.875   2.052 -2.2693  0.1629 -1.1638
  269SOL    HW2  807   2.641   0.704   2.028  2.8243 -3.4189 -2.8997
  270SOL     OW  808   2.954   1.067   0.405 -0.3048  1.0123  0.4842
  270SOL    HW1  809   2.899   1.041   0.490 -2.0890  0.7665 -0.2505
  270SOL    HW2  810   2.902   1.038   0.320 -0.2530  0.4033  1.6793
  271SOL     OW  811   0.121   1.250   2.205 -0.0726 -0.4411  0.0685
  271SOL    HW1  812   0.021   1.271   2.184  1.0615 -1.2204 -0.4774
  271SOL    HW2  813   0.171   1.248   2.120 -0.8997  0.0323  1.3985
  272SOL     OW  814   2.515   2.351   1.823  0.3107 -0.0391 -0.1059
  272SOL    HW1  815   2.567   2.438   1.827  0.1549  2.4062  0.5123
  272SOL    HW2  816   2.464   2.337   1.907 -0.9108  0.6389 -2.3887
  273SOL     OW  817   0.020   2.395   0.086 -0.0694 -0.1453  0.0781
  273SOL    HW1  818   0.105   2.340   0.077 -2.3650  1.0022 -0.7101
  273SOL    HW2  819   3.096   2.431   3.093 -1.5436  0.3648 -2.4213
  274SOL     OW  820   0.654   2.158   0.846 -0.0887 -0.3845  0.1927
  274SOL    HW1  821   0.620   2.240   0.794 -0.8826  0.7968  0.2019
  274SOL    HW2  822   0.754   2.140   0.849  0.6382  3.2651 -1.1895
  275SOL     OW  823   1.337   1.925   2.641 -0.1827  0.6718  0.1198
  275SOL    HW1  824   1.267   1.964   2.580  0.8770 -1.9302 -0.5255
  275SOL    HW2  825   1.429   1.902   2.598  0.8264  1.7583  0.4249
  276SOL     OW  826   2.842   1.468   2.086 -0.5737  0.7735  0.6728
  276SOL    HW1  827   2.816   1.450   1.992  2.0365  3.6477  1.2483
  276SOL    HW2  828   2.797   1.554   2.120  0.4926  0.7097 -1.2337
  277SOL     OW  829   2.179   0.109   0.740  0.1944 -0.0117 -0.2338
  277SOL    HW1  830   2.194   0.213   0.729 -0.6578  1.9067 -0.0651
  277SOL    HW2  831   2.160   0.058   0.655 -1.3887  0.5436  3.4727
  278SOL     OW  832   1.324   0.229   2.312  0.8715 -0.3044  0.5186
  278SOL    HW1  833   1.316   0.145   2.369 -2.3805 -3.2779 -3.5425
  278SOL    HW2  834   1.260   0.306   2.342 -2.3826  4.6885  1.6431
  279SOL     OW  835   1.232   2.777   1.052  0.1621  0.0952 -0.1822
  279SOL    HW1  836   1.319   2.783   1.108 -0.2660  3.2160 -0.7925
  279SOL    HW2  837   1.145   2.767   1.107 -1.1544  1.1264  1.5600
  280SOL     OW  838   1.199   1.250   0.543  0.2918 -0.8738  0.1038
  280SOL    HW1  839   1.204   1.163   0.487 -0.6130 -0.2494 -0.9840
  280SOL    HW2  840   1.176   1.228   0.637 -0.4778  0.0989  1.4664
  281SOL     OW  841   2.190   1.704   0.542  0.2385 -0.3553  0.3221
  281SOL    HW1  842   2.217   1.705   0.636 -1.2757 -1.2542 -4.0571
  281SOL    HW2  843   2.179   1.607   0.511  1.4748 -0.8376 -0.0269
  282SOL     OW  844   2.865   1.319   0.471 -0.2658  0.4206  0.5282
  282SOL    HW1  845   2.881   1.234   0.419 -2.7543 -0.2222  1.2110
  282SOL    HW2  846   2.854   1.396   0.402  1.2994 -0.7803 -0.4202
  283SOL     OW  847   1.701   2.739   2.835 -0.2550 -0.6237  0.1581
  283SOL    HW1  848   1.684   2.645   2.875  1.9009  0.8192  1.5279
  283SOL    HW2  849   1.791   2.744   2.787 -0.6729 -0.1593  0.7545
  284SOL     OW  850   0.517   0.217   2.524  0.1067  0.2203  0.3464
  284SOL    HW1  851   0.604   0.269   2.534 -2.7270 -2.1902  1.5095
  284SOL    HW2  852   0.437   0.274   2.561  0.4867  0.8509 -0.6522
  285SOL     OW  853   1.801   1.600   3.066  0.1230 -0.1973  0.5038
  285SOL    HW1  854   1.699   1.622   3.052 -2.9026 -0.6075  0.4989
  285SOL    HW2  855   1.853   1.620   2.979  1.0183 -0.7794  0.7232
  286SOL     OW  856   1.463   2.057   1.738  0.2051 -0.1171 -0.2396
  286SOL    HW1  857   1.370   2.100   1.718 -2.2457  3.2115  0.9637
  286SOL    HW2  858   1.494   2.073   1.833  5.8034  1.2826 -1.9446
  287SOL     OW  859   1.870   2.991   1.380  0.3411  0.2173  0.1103
  287SOL    HW1  860   1.785   2.974   1.428  3.2433  0.0338 -2.6566
  287SOL    HW2  861   1.869   3.082   1.334  0.7570 -0.6439  1.0509
  288SOL     OW  862   0.555   2.759   2.012  0.5806 -0.5635 -0.1678
  288SOL    HW1  863   0.490   2.691   1.973  2.6597 -1.2644 -1.1070
  288SOL    HW2  864   0.650   2.718   2.027 -0.8797 -3.7656  1.0312
  289SOL     OW  865   0.148   1.787   0.797 -0.1654 -0.2085  0.0696
  289SOL    HW1  866   0.100   1.711   0.844 -0.0110  2.6300  0.5858
  289SOL    HW2  867   0.096   1.872   0.804  1.1047 -1.3803  0.2121
  290SOL     OW  868   0.950   2.111   1.763  0.3613 -0.1062 -0.0745
  290SOL    HW1  869   0.935   2.026   1.814 -1.5796  3.3714 -1.1185
  290SOL    HW2  870   0.937   2.194   1.826 -0.3254  2.4991  1.0900
  291SOL     OW  871   1.760   0.194   0.454 -0.0226 -0.1026 -0.2366
  291SOL    HW1  872   1.667   0.195   0.408  0.8439  0.2501  0.9900
  291SOL    HW2  873   1.825   0.139   0.395  1.9671 -0.9118 -2.0868
  292SOL     OW  874   0.441   0.408   1.476 -0.3106  0.5639 -0.0888
  292SOL    HW1  875   0.392   0.379   1.389 -0.6138  1.0782  1.6152
  292SOL    HW2  876   0.391   0.367   1.553  0.4608 -0.4012 -1.2600
  293SOL     OW  877   2.390   1.377   0.963  0.4786 -0.1902 -0.2238
  293SOL    HW1  878   2.468   1.418   0.915 -1.4669 -3.4417 -0.3722
  293SOL    HW2  879   2.344   1.315   0.895  0.1018 -3.8426 -2.5030
  294SOL     OW  880   0.409   0.078   2.290 -0.3705  0.2224  0.2475
  294SOL    HW1  881   0.432   3.079   2.295  0.5715 -1.7550 -0.0308
  294SOL    HW2  882   0.430   0.125   2.378 -0.5967  1.5886 -3.2472
  295SOL     OW  883   0.980   1.585   0.393 -0.3987  0.0238 -0.0187
  295SOL    HW1  884   1.063   1.579   0.446 -0.0694  0.4947 -1.6107
  295SOL    HW2  885   0.949   1.492   0.375  2.8723 -0.6362  1.8811
  296SOL     OW  886   2.256   1.200   0.774  0.5036  0.2417  0.2380
  296SOL    HW1  887   2.174   1.154   0.816  2.4056  1.4718 -1.7945
  296SOL    HW2  888   2.221   1.283   0.729 -1.5055 -0.6775  3.0732
  297SOL     OW  889   1.850   0.646   2.510  0.1628 -0.5694  0.0905
  297SOL    HW1  890   1.835   0.741   2.470  1.0628  0.6466  1.1145
  297SOL    HW2  891   1.851   0.583   2.424  0.5799 -1.1318 -3.3374
  298SOL     OW  892   1.068   0.221   2.560 -0.0519  0.6696 -0.2816
  298SOL    HW1  893   1.126   0.191   2.639 -0.6752  1.7956 -0.0055
  298SOL    HW2  894   1.115   0.299   2.507 -0.3296  0.7577 -1.1117
  299SOL     OW  895   1.367   0.566   2.079 -0.8102 -0.2490 -0.4030
  299SOL    HW1  896   1.363   0.666   2.093  0.6354 -0.1620 -1.4749
  299SOL    HW2  897   1.282   0.530   2.114  1.7216 -0.0134  0.5220
  300SOL     OW  898   2.519   0.125   1.758  0.1313  0.1754  0.0929
  300SOL    HW1  899   2.513   0.054   1.682  0.2904 -0.5000 -1.3473
  300SOL    HW2  900   2.573   0.205   1.725 -1.2436  2.2344  1.0485
  301SOL     OW  901   1.711   0.743   1.540  0.0295 -0.2162  0.9922
  301SOL    HW1  902   1.671   0.826   1.492 -0.6755 -0.4320  3.3761
  301SOL    HW2  903   1.779   0.766   1.611 -1.7603  0.6567 -2.2544
  302SOL     OW  904   0.642   2.711   2.733 -0.1762 -0.2624 -0.1931
  302SOL    HW1  905   0.568   2.638   2.710 -0.8121 -1.3360  0.9862
  302SOL    HW2  906   0.684   2.749   2.647  0.7674 -3.4308 -3.5352
  303SOL     OW  907   1.972   1.886   1.899  0.8428  0.5522  0.2863
  303SOL    HW1  908   2.066   1.909   1.863  1.0637  1.3561 -0.1338
  303SOL    HW2  909   1.959   1.787   1.912 -2.0914 -0.1665  0.2143
  304SOL     OW  910   0.345   2.919   0.741 -0.0713 -0.3211 -0.4332
  304SOL    HW1  911   0.446   2.927   0.747  0.1621 -0.1509  1.3398
  304SOL    HW2  912   0.311   2.818   0.744 -1.5001 -1.6936 -0.5819
  305SOL     OW  913   1.384   0.677   0.319  0.7499 -0.5447 -0.2165
  305SOL    HW1  914   1.320   0.745   0.275 -1.3162  0.4286 -1.2031
  305SOL    HW2  915   1.398   0.699   0.417 -0.3546 -0.7015 -0.8512
  306SOL     OW  916   0.476   1.420   3.076 -0.3880 -0.2843  0.2953
  306SOL    HW1  917   0.572   1.391   3.082  2.2777  1.2578  1.4143
  306SOL    HW2  918   0.433   1.414   0.065 -0.0863  0.8430  0.2738
  307SOL     OW  919   0.696   0.717   2.023  0.0917  0.5848 -0.1229
  307SOL    HW1  920   0.761   0.736   2.099  0.2424 -0.4691 -0.4405
  307SOL    HW2  921   0.746   0.706   1.940  2.6282 -0.2050  0.1143
  308SOL     OW  922   0.687   0.100   1.175  0.0482  0.1089 -0.4174
  308SOL    HW1  923   0.707   0.162   1.094  2.4745 -0.2026  1.2890
  308SOL    HW2  924   0.669   0.149   1.257  0.7324  0.1496  0.3482
  309SOL     OW  925   2.239   0.945   0.001 -0.0176  0.1686  0.5548
  309SOL    HW1  926   2.339   0.939   3.099 -2.4055 -0.1980  3.3095
  309SOL    HW2  927   2.205   1.041   3.081 -1.9470 -0.7612 -0.6527
  310SOL     OW  928   1.108   1.209   0.131  0.3378 -0.0112  0.0151
  310SOL    HW1  929   1.054   1.280   0.077  0.0464  2.2258  1.0366
  310SOL    HW2  930   1.178   1.261   0.187 -2.2215 -0.3005 -0.0984
  311SOL     OW  931   1.620   2.542   2.542  0.2541 -0.4175 -0.1120
  311SOL    HW1  932   1.568   2.495   2.469 -0.3172 -0.6359 -0.1416
  311SOL    HW2  933   1.668   2.622   2.509  3.9920 -2.2531 -1.3306
  312SOL     OW  934   2.028   2.903   2.887 -0.3762 -0.4819 -0.9549
  312SOL    HW1  935   1.991   3.000   2.896  1.0797  0.3024  1.1333
  312SOL    HW2  936   1.977   2.842   2.949 -2.1233  1.4741  1.2604
  313SOL     OW  937   0.654   0.564   0.368 -0.0391  0.0996  0.4390
  313SOL    HW1  938   0.583   0.619   0.315  0.1664  0.1774 -1.4126
  313SOL    HW2  939   0.749   0.590   0.334 -0.7609  0.8525 -1.6208
  314SOL     OW  940   2.610   1.356   2.878  0.4613  0.5520  0.0625
  314SOL    HW1  941   2.615   1.368   2.777 -0.6906  1.6705 -0.6707
  314SOL    HW2  942   2.656   1.431   2.926 -0.6064  0.4591 -2.0206
  315SOL     OW  943   1.850   0.797   1.759 -0.2853 -0.0193  0.2308
  315SOL    HW1  944   1.874   0.699   1.753 -0.5015  0.7855 -0.1554
  315SOL    HW2  945   1.771   0.812   1.825 -0.5263 -0.1541 -0.1373
  316SOL     OW  946   0.002   0.628   0.666  0.0151 -0.1158  0.2828
  316SOL    HW1  947   3.059   0.689   0.738  0.7245  0.8127  0.1152
  316SOL    HW2  948   0.093   0.669   0.640 -1.0167  1.6235 -0.6432
  317SOL     OW  949   0.902   0.260   0.100 -0.2561  0.1750 -0.2304
  317SOL    HW1  950   0.820   0.315   0.080  1.0258  0.3211  0.6769
  317SOL    HW2  951   0.898   0.171   0.051  1.6542  2.0290  1.2584
  318SOL     OW  952   2.552   2.727   1.201  0.0943  0.2832 -0.2442
  318SOL    HW1  953   2.584   2.725   1.298 -1.2773 -0.6841 -2.5230
  318SOL    HW2  954   2.619   2.688   1.142 -0.6757  0.5290  3.8983
  319SOL     OW  955   1.222   1.522   0.490  0.4513 -0.3747  0.2084
  319SOL    HW1  956   1.210   1.423   0.518  1.8711  0.2092 -0.8753
  319SOL    HW2  957   1.297   1.578   0.540 -0.3064  3.5195 -0.6416
  320SOL     OW  958   0.638   2.205   1.110  0.2575 -0.2486  0.0938
  320SOL    HW1  959   0.560   2.260   1.141 -1.4964  0.0444  0.4413
  320SOL    HW2  960   0.628   2.185   1.012  0.3530 -0.2911  0.1925
  321SOL     OW  961   2.000   2.663   2.402 -0.5892 -0.2191 -0.4638
  321SOL    HW1  962   2.012   2.693   2.500  2.2158 -2.1396 -2.2839
  321SOL    HW2  963   1.911   2.683   2.365  1.6037  2.4435 -0.4675
  322SOL     OW  964   2.769   2.507   2.411  0.1040 -0.1120  0.0752
  322SOL    HW1  965   2.794   2.414   2.444 -1.3372 -0.6046  0.5694
  322SOL    HW2  966   2.733   2.559   2.489 -0.3874 -1.6880 -1.5303
  323SOL     OW  967   2.802   0.633   0.816 -0.0725  0.1593  0.0562
  323SOL    HW1  968   2.827   0.557   0.874 -3.8157  1.2344  0.2467
  323SOL    HW2  969   2.780   0.605   0.720  0.0732 -0.4792  0.9464
  324SOL     OW  970   2.438   2.051   2.565  0.0756 -0.1415 -0.1381
  324SOL    HW1  971   2.429   2.021   2.466 -0.2490 -2.6186  0.2521
  324SOL    HW2  972   2.371   2.001   2.623  1.0491  0.1928  2.0707
  325SOL     OW  973   1.320   0.703   2.486 -0.2245 -0.0964 -0.0584
  325SOL    HW1  974   1.410   0.726   2.448 -0.0290  3.8370 -0.8195
  325SOL    HW2  975   1.266   0.789   2.502 -0.8024  3.5513  0.9917
  326SOL     OW  976   2.794   2.269   0.632 -0.1140 -0.0034  0.0322
  326SOL    HW1  977   2.805   2.353   0.689 -2.3295 -1.6546  2.0256
  326SOL    HW2  978   2.887   2.237   0.601 -1.4602  1.2924  2.0206
  327SOL     OW  979   2.501   2.988   2.783  0.0977 -0.0277  0.2350
  327SOL    HW1  980   2.419   2.939   2.812  0.2833 -0.3936 -2.2048
  327SOL    HW2  981   2.568   2.924   2.741  1.8947  0.5800 -0.3818
  328SOL     OW  982   0.998   0.449   0.514 -0.7038 -0.0943  0.6176
  328SOL    HW1  983   0.907   0.417   0.490  1.2863  0.6591 -1.2716
  328SOL    HW2  984   1.048   0.465   0.428  1.3385  1.7827  2.1258
  329SOL     OW  985   2.160   0.772   1.371  0.3878  0.3154  0.4204
  329SOL    HW1  986   2.173   0.871   1.341 -1.6339  2.7173 -2.2909
  329SOL    HW2  987   2.209   0.755   1.457  0.5473  0.1654  0.6700
  330SOL     OW  988   1.142   0.292   0.689 -0.3115  0.0731 -0.4156
  330SOL    HW1  989   1.106   0.358   0.618 -3.0495 -2.8651 -0.9054
  330SOL    HW2  990   1.233   0.319   0.722 -2.4853 -1.4312 -1.0996
  331SOL     OW  991   0.360   2.079   1.930 -0.1080  0.6035 -0.4817
  331SOL    HW1  992   0.383   2.174   1.963 -1.8426  1.1977  0.5354
  331SOL    HW2  993   0.446   2.015   1.933  0.6391 -0.2151 -0.2037
  332SOL     OW  994   2.365   2.182   1.666 -0.2395 -0.0197 -0.2370
  332SOL    HW1  995   2.404   2.246   1.739  0.0071 -0.0919  2.6141
  332SOL    HW2  996   2.298   2.112   1.704 -2.5339  0.7114 -1.7101
  333SOL     OW  997   2.831   2.882   1.024 -0.0710  0.2081  0.0585
  333SOL    HW1  998   2.842   2.893   1.125 -0.2904 -0.9858  2.0816
  333SOL    HW2  999   2.782   2.959   0.980 -0.8821 -5.0614 -0.3130
  334SOL     OW 1000   3.067   1.579   1.007 -0.2222  0.6273 -0.1946
  334SOL    HW1 1001   0.005   1.658   1.063  2.8071  2.2487 -0.0464
  334SOL    HW2 1002   3.025   1.601   0.917  2.8582 -2.3885  0.4540
  335SOL     OW 1003   0.384   2.840   2.707  0.0369  0.4263 -0.3914
  335SOL    HW1 1004   0.321   2.773   2.752  0.3118  1.3296 -0.2114
  335SOL    HW2 1005   0.480   2.825   2.733 -0.7610  0.2576 -0.2084
  336SOL     OW 1006   0.076   2.856   1.709 -0.3553 -0.3254  0.0543
  336SOL    HW1 1007   0.014   2.939   1.689 -1.4919  2.6361  0.2043
  336SOL    HW2 1008   0.049   2.818   1.799  1.4874  0.0233 -0.4887
  337SOL     OW 1009   1.105   2.029   2.486 -0.2832 -0.2002 -0.6023
  337SOL    HW1 1010   1.120   2.076   2.396  0.5652  0.8595 -0.7044
  337SOL    HW2 1011   1.095   2.100   2.556  0.0713 -1.3738  1.4670
  338SOL     OW 1012   1.070   2.889   2.571  0.6558 -0.4912 -0.1951
  338SOL    HW1 1013   1.108   2.925   2.479  1.0459  0.2640 -1.0977
  338SOL    HW2 1014   1.055   2.963   2.643  0.0994  0.2516  1.0345
  339SOL     OW 1015   0.025   1.403   2.805  0.3103  0.0878  0.2112
  339SOL    HW1 1016   3.084   1.470   2.738 -1.8867 -0.7497 -0.2565
  339SOL    HW2 1017   0.121   1.385   2.775 -0.6901 -2.2719  0.5828
  340SOL     OW 1018   2.064   0.534   1.241  0.3258 -0.2409  0.5131
  340SOL    HW1 1019   2.079   0.627   1.278 -1.1226 -0.3073 -0.7738
  340SOL    HW2 1020   2.154   0.492   1.225  1.2253  1.0941 -0.0211
  341SOL     OW 1021   2.002   1.068   0.835  0.2298 -0.1641 -0.6576
  341SOL    HW1 1022   1.959   1.158   0.804 -1.2283  4.5403 -1.4846
  341SOL    HW2 1023   1.995   1.006   0.759 -0.0830  3.8664  1.9690
  342SOL     OW 1024   2.066   2.396   2.463  0.1122  0.1698 -0.2049
  342SOL    HW1 1025   2.149   2.396   2.514 -0.7002  0.3871 -0.7170
  342SOL    HW2 1026   2.029   2.488   2.434 -0.3785  1.2243  1.3652
  343SOL     OW 1027   0.090   2.542   0.755  0.3162  0.3736  0.4045
  343SOL    HW1 1028   0.180   2.584   0.736 -2.3367 -1.7571  0.0032
  343SOL    HW2 1029   0.049   2.571   0.845  0.2161 -0.0409  0.5903
  344SOL     OW 1030   2.498   2.676   0.796  0.6039  0.7878 -0.3549
  344SOL    HW1 1031   2.440   2.759   0.786 -0.6513 -1.2110  1.0253
  344SOL    HW2 1032   2.537   2.659   0.891 -0.7352 -1.2050  1.4337
  345SOL     OW 1033   2.362   2.211   0.515  0.4383  0.4281  0.3910
  345SOL    HW1 1034   2.262   2.198   0.506  1.4441 -3.4510 -0.0446
  345SOL    HW2 1035   2.391   2.295   0.563 -2.0891 -3.5280 -1.9335
  346SOL     OW 1036   1.210   2.163   1.670  0.5363 -0.1960 -0.1134
  346SOL    HW1 1037   1.115   2.145   1.706 -1.5138  0.2007  1.2418
  346SOL    HW2 1038   1.213   2.119   1.579 -0.6956  0.3817  0.8114
  347SOL     OW 1039   1.435   2.024   2.259 -0.3666  0.2508  0.3701
  347SOL    HW1 1040   1.491   1.952   2.207 -0.7652 -2.8807 -1.2135
  347SOL    HW2 1041   1.470   2.116   2.254 -0.1747  1.0705  1.8598
  348SOL     OW 1042   0.577   1.753   1.305 -0.2224 -0.0711  0.1310
  348SOL    HW1 1043   0.584   1.720   1.207 -0.3481  1.2592 -0.1272
  348SOL    HW2 1044   0.609   1.848   1.321 -2.2873 -1.2904  2.0531
  349SOL     OW 1045   1.812   1.494   1.421  0.0530  0.4678  0.5661
  349SOL    HW1 1046   1.744   1.514   1.497  0.8539  1.3023  1.9552
  349SOL    HW2 1047   1.756   1.492   1.335 -3.0865 -0.2339 -0.4675
  350SOL     OW 1048   2.442   2.226   0.912  0.4500 -0.2043  0.3532
  350SOL    HW1 1049   2.357   2.194   0.964  0.4765 -1.8412  2.3972
  350SOL    HW2 1050   2.409   2.298   0.846  1.5308 -1.1811  1.8936
  351SOL     OW 1051   0.213   0.097   1.883  0.0757  0.1398  0.4304
  351SOL    HW1 1052   0.253   0.038   1.959  1.0743 -0.6951  1.2991
  351SOL    HW2 1053   0.111   0.083   1.878 -0.4812 -0.1613  0.0695
  352SOL     OW 1054   0.861   1.068   0.276  0.4176  0.0568  0.2026
  352SOL    HW1 1055   0.832   0.978   0.304 -1.3507  0.6606  1.7738
  352SOL    HW2 1056   0.800   1.106   0.205 -2.1103  0.3088  0.7989
  353SOL     OW 1057   0.736   1.600   2.914 -0.1013  0.0190  0.1256
  353SOL    HW1 1058   0.828   1.601   2.862  1.5718 -0.0431  2.3383
  353SOL    HW2 1059   0.651   1.589   2.854 -0.8893  0.0016 -2.3665
  354SOL     OW 1060   1.725   2.387   1.894  0.2487  0.1678 -0.2821
  354SOL    HW1 1061   1.740   2.409   1.794  0.2057 -0.5413  0.5075
  354SOL    HW2 1062   1.787   2.316   1.914 -1.1520  3.8238  1.9812
  355SOL     OW 1063   2.139   0.732   2.962  0.6642 -0.1061  0.2274
  355SOL    HW1 1064   2.091   0.757   2.876 -0.7943 -0.8614  0.8849
  355SOL    HW2 1065   2.173   0.813   3.017  1.0394  1.6370 -0.5531
  356SOL     OW 1066   0.718   2.007   1.288 -0.7832 -0.0475  0.3452
  356SOL    HW1 1067   0.690   2.081   1.219  0.2015 -0.1761 -0.5455
  356SOL    HW2 1068   0.709   2.044   1.385 -0.6779 -0.0484  3.3769
  357SOL     OW 1069   2.996   0.118   1.903 -0.2707 -0.8084 -0.0111
  357SOL    HW1 1070   2.994   0.184   1.979  0.5776 -2.2458 -0.0549
  357SOL    HW2 1071   2.920   0.051   1.908 -0.3460  0.1616  0.5405
  358SOL     OW 1072   2.467   1.816   1.537  0.6192  0.1957  0.5732
  358SOL    HW1 1073   2.375   1.864   1.522 -1.2548  2.0202 -0.0160
  358SOL    HW2 1074   2.540   1.878   1.570 -1.6618 -0.1553  0.0173
  359SOL     OW 1075   2.041   2.151   2.352  0.0388 -0.2676 -0.3096
  359SOL    HW1 1076   1.963   2.156   2.290 -1.9723 -1.0634 -0.2997
  359SOL    HW2 1077   2.053   2.246   2.387 -0.9691  0.2840  0.1038
  360SOL     OW 1078   1.320   2.600   0.851  0.5148  0.0040 -0.4809
  360SOL    HW1 1079   1.281   2.652   0.930 -2.5099  0.9300 -1.9367
  360SOL    HW2 1080   1.369   2.659   0.786 -1.9181 -1.6245  0.6128
  361SOL     OW 1081   1.888   0.024   0.285  0.1929 -0.1374 -0.4298
  361SOL    HW1 1082   1.830   0.015   0.205  3.8606  1.2188 -0.0926
  361SOL    HW2 1083   1.941   3.040   0.296  0.9062  1.2442  0.5482
  362SOL     OW 1084   1.578   0.919   1.381 -0.2631  0.1021 -0.7239
  362SOL    HW1 1085   1.626   1.006   1.397 -1.4735  0.1930 -0.5019
  362SOL    HW2 1086   1.476   0.937   1.363 -1.4005  4.7379 -1.6820
  363SOL     OW 1087   1.834   1.662   2.101  0.2603  0.3756 -0.5635
  363SOL    HW1 1088   1.791   1.645   2.191  0.1835 -0.3227  2.4721
  363SOL    HW2 1089   1.858   1.573   2.061  0.8291  0.5209 -1.7177
  364SOL     OW 1090   0.581   0.634   1.542 -0.6094 -0.1377  0.1943
  364SOL    HW1 1091   0.530   0.551   1.511 -3.6495 -0.4742 -0.3865
  364SOL    HW2 1092   0.656   0.660   1.473 -2.9214  0.8825 -1.1599
  365SOL     OW 1093   0.625   0.726   2.653 -0.4390 -0.4371  0.3817
  365SOL    HW1 1094   0.544   0.683   2.696 -0.5094  0.9960  0.9551
  365SOL    HW2 1095   0.631   0.823   2.672  0.3138  0.8910  0.3880
  366SOL     OW 1096   2.132   1.326   2.794  0.5470 -1.1057 -0.1088
  366SOL    HW1 1097   2.109   1.286   2.886 -1.5595  1.8082 -0.9407
  366SOL    HW2 1098   2.105   1.424   2.798 -0.1225 -2.4718  1.5660
  367SOL     OW 1099   3.001   2.644   2.283 -0.2202  0.5735  0.1543
  367SOL    HW1 1100   2.920   2.606   2.331 -0.5314 -3.1419  1.8909
  367SOL    HW2 1101   2.985   2.738   2.244 -1.8872  2.7679  0.0696
  368SOL     OW 1102   3.012   1.292   1.322 -0.0041  0.2149  0.2061
  368SOL    HW1 1103   3.057   1.248   1.405  0.8227  2.3328  0.5770
  368SOL    HW2 1104   2.926   1.241   1.301  2.5709 -0.8461  0.2156
  369SOL     OW 1105   0.568   2.947   2.303  0.4982  0.3105 -0.0170
  369SOL    HW1 1106   0.635   2.872   2.278  0.4321  1.0522 -2.4327
  369SOL    HW2 1107   0.609   3.000   2.381  2.5987 -2.5912  3.5652
  370SOL     OW 1108   2.874   0.213   0.549  0.1128  0.3100  0.4446
  370SOL    HW1 1109   2.853   0.165   0.459 -1.1882 -0.2502 -1.1661
  370SOL    HW2 1110   2.884   0.313   0.532 -0.3886 -2.6114  0.1271
  371SOL     OW 1111   0.858   2.398   1.418  0.4211 -0.1330 -0.5879
  371SOL    HW1 1112   0.908   2.427   1.501 -2.0747  1.5226  4.0722
  371SOL    HW2 1113   0.762   2.366   1.448 -0.7293  1.4134 -0.8286
  372SOL     OW 1114   2.276   0.408   2.429  0.1798  0.2449 -0.2250
  372SOL    HW1 1115   2.320   0.489   2.469 -1.0564 -0.9394 -2.7566
  372SOL    HW2 1116   2.209   0.369   2.491  0.5093 -0.2701  1.1486
  373SOL     OW 1117   3.074   2.003   0.714  0.1181 -0.3299  0.7606
  373SOL    HW1 1118   3.065   2.065   0.631  0.2446 -1.2356  0.4703
  373SOL    HW2 1119   2.995   2.011   0.777  3.6729 -1.6711 -2.8345
  374SOL     OW 1120   3.045   0.273   2.444  0.1804  0.6969 -0.0650
  374SOL    HW1 1121   2.990   0.201   2.401  2.6260 -0.8293  0.9304
  374SOL    HW2 1122   0.039   0.282   2.410 -0.7822  0.9970  0.2603
  375SOL     OW 1123   0.750   0.511   2.762 -0.7221  0.8040  0.1489
  375SOL    HW1 1124   0.724   0.596   2.712  1.1039 -1.6034  3.0452
  375SOL    HW2 1125   0.846   0.517   2.794 -0.7069  1.0429 -1.3036
  376SOL     OW 1126   0.037   2.217   1.715 -0.0820  0.4989  0.1681
  376SOL    HW1 1127   3.049   2.275   1.702 -2.0526 -0.1716 -1.2332
  376SOL    HW2 1128   0.039   2.151   1.637  0.9976  2.2696  1.8325
  377SOL     OW 1129   1.280   0.170   2.739  0.0775 -0.3475 -0.5830
  377SOL    HW1 1130   1.305   0.095   2.673  0.9083  0.8868 -2.1022
  377SOL    HW2 1131   1.351   0.240   2.764 -2.3050  1.3150 -0.9787
  378SOL     OW 1132   2.914   0.766   2.794  0.1282 -0.1713  0.4601
  378SOL    HW1 1133   3.012   0.795   2.782  2.2763  0.9557  0.3907
  378SOL    HW2 1134   2.872   0.741   2.703  0.4885  0.7587 -0.6062
  379SOL     OW 1135   1.154   0.945   2.871 -0.1733 -0.3007 -0.1945
  379SOL    HW1 1136   1.066   0.965   2.826 -0.2929 -1.2632 -2.0844
  379SOL    HW2 1137   1.143   0.944   2.974 -0.5843 -2.7404  0.3290
  380SOL     OW 1138   3.047   1.846   2.023 -0.4963 -0.0925 -0.5321
  380SOL    HW1 1139   0.009   1.912   1.973 -0.1728  0.4575  1.4828
  380SOL    HW2 1140   2.956   1.883   2.039 -2.3081  0.4554 -2.6583
  381SOL     OW 1141   0.096   0.985   2.494 -0.0830  0.0795 -0.0017
  381SOL    HW1 1142   0.133   0.978   2.394  2.5419  0.8497 -4.0965
  381SOL    HW2 1143   0.058   1.076   2.501 -0.1845 -1.0859 -2.8994
  382SOL     OW 1144   1.886   2.326   0.660 -0.1076 -0.0199  0.7173
  382SOL    HW1 1145   1.837   2.238   0.643  0.8156  1.0599  0.1034
  382SOL    HW2 1146   1.908   2.335   0.761  0.1169  0.9894  1.3419
  383SOL     OW 1147   0.610   1.635   0.245 -0.2517  0.3742  0.0125
  383SOL    HW1 1148   0.698   1.688   0.259 -0.7013 -2.8684 -1.1646
  383SOL    HW2 1149   0.576   1.597   0.333  1.8948  2.2241 -1.1169
  384SOL     OW 1150   0.751   2.266   2.381  0.3975 -0.0382 -0.2586
  384SOL    HW1 1151   0.700   2.354   2.397  0.7013 -1.4116 -2.7421
  384SOL    HW2 1152   0.794   2.220   2.465 -0.2092 -1.7720  1.8090
  385SOL     OW 1153   2.463   1.913   0.580 -0.0965  0.1579  0.4196
  385SOL    HW1 1154   2.547   1.945   0.619 -0.1665  1.3291  0.5344
  385SOL    HW2 1155   2.393   1.989   0.571  0.3331  0.8383  1.5944
  386SOL     OW 1156   2.302   0.800   1.045 -0.6299  0.0219 -0.2180
  386SOL    HW1 1157   2.301   0.707   0.996 -2.6220 -2.3061 -1.8933
  386SOL    HW2 1158   2.208   0.822   1.082 -0.1994  0.1456 -0.4577
  387SOL     OW 1159   0.434   0.724   2.086 -0.2123 -0.3911  0.1983
  387SOL    HW1 1160   0.445   0.730   2.187 -0.4215 -1.0585 -3.2757
  387SOL    HW2 1161   0.529   0.735   2.036  1.2520 -2.9067 -2.5272
  388SOL     OW 1162   0.903   1.592   2.322 -0.3353  0.3926  0.2977
  388SOL    HW1 1163   0.889   1.670   2.387 -3.5935  0.6499  0.2366
  388SOL    HW2 1164   0.819   1.560   2.277  0.4058  3.0841 -0.5873
  389SOL     OW 1165   0.947   1.347   1.970  0.1417 -0.1186 -0.2835
  389SOL    HW1 1166   0.859   1.327   1.920 -2.8448 -1.8278 -2.0666
  389SOL    HW2 1167   0.993   1.433   1.942  0.7345  2.8142  0.7064
  390SOL     OW 1168   2.996   2.936   0.835  0.7745 -0.1252 -0.4128
  390SOL    HW1 1169   2.936   2.889   0.903 -1.5462 -2.8239  4.5072
  390SOL    HW2 1170   2.963   3.035   0.827 -2.3770 -0.5538  1.3808
  391SOL     OW 1171   1.678   1.460   1.174 -0.5291  0.6358  0.2595
  391SOL    HW1 1172   1.598   1.522   1.162  0.2563 -2.0360  0.5291
  391SOL    HW2 1173   1.659   1.366   1.155  1.8554  0.0647 -0.0474
  392SOL     OW 1174   3.018   2.984   0.012  0.2603 -0.1350 -0.0110
  392SOL    HW1 1175   3.061   3.044   0.081 -0.5162 -2.4371 -1.9177
  392SOL    HW2 1176   2.992   2.890   0.052  0.1378 -1.1994 -1.9665
  393SOL     OW 1177   1.447   2.237   2.749 -0.1480 -0.3446  0.2168
  393SOL    HW1 1178   1.517   2.190   2.690 -0.9363 -0.9700  1.5333
  393SOL    HW2 1179   1.466   2.215   2.848 -0.0731  0.9335  0.0390
  394SOL     OW 1180   3.061   2.534   2.716  0.5108 -0.3719  0.5192
  394SOL    HW1 1181   3.085   2.499   2.621 -0.3224 -1.8131 -0.5055
  394SOL    HW2 1182   3.037   2.453   2.773 -0.8526 -0.5521 -0.2109
  395SOL     OW 1183   0.095   0.197   0.776  0.3051  0.3450 -0.4948
  395SOL    HW1 1184   0.105   0.283   0.827  2.1494 -1.4166 -1.3154
  395SOL    HW2 1185   0.185   0.152   0.753 -1.3111  2.0468 -1.0338
  396SOL     OW 1186   2.235   0.387   0.667  0.3215 -0.1249 -0.2185
  396SOL    HW1 1187   2.153   0.444   0.646 -0.9968  2.2935 -0.7300
  396SOL    HW2 1188   2.285   0.374   0.580  0.3301  1.3971 -1.3123
  397SOL     OW 1189   0.195   0.682   2.543 -0.0767  0.3494  0.1799
  397SOL    HW1 1190   0.132   0.617   2.597  0.7681 -0.0508  0.1741
  397SOL    HW2 1191   0.194   0.779   2.576 -0.0200  2.4479 -0.4140
  398SOL     OW 1192   0.828   0.025   3.059 -0.1677 -0.0734  0.4677
  398SOL    HW1 1193   0.795   0.057   2.968 -0.5556  0.1627  0.6548
  398SOL    HW2 1194   0.915   3.074   3.049 -0.8958  0.4847 -1.9680
  399SOL     OW 1195   2.154   0.315   2.079  0.0619 -0.1234  0.5333
  399SOL    HW1 1196   2.149   0.291   2.174 -1.6317  1.9196 -0.3040
  399SOL    HW2 1197   2.095   0.242   2.032 -0.4229 -2.0483  2.2540
  400SOL     OW 1198   0.968   2.281   2.806 -0.2134 -0.3007 -0.2907
  400SOL    HW1 1199   1.065   2.274   2.780 -1.2588 -0.5585  1.5372
  400SOL    HW2 1200   0.942   2.380   2.817  1.5424  1.2388 -0.7250
  401SOL     OW 1201   0.231   1.368   2.458  0.5562 -0.0243 -0.4829
  401SOL    HW1 1202   0.316   1.317   2.433 -0.3064 -0.8357 -0.0606
  401SOL    HW2 1203   0.174   1.360   2.374  0.4990 -1.0526 -1.8834
  402SOL     OW 1204   0.092   2.857   0.258 -0.3630  0.1056  0.1898
  402SOL    HW1 1205   0.090   2.752   0.274 -0.3652 -0.7110 -0.6128
  402SOL    HW2 1206   0.109   2.905   0.345  0.9960 -0.9227 -0.9604
  403SOL     OW 1207   0.481   1.142   1.780  0.4003  0.4392 -0.3855
  403SOL    HW1 1208   0.544   1.058   1.770  0.8011  0.2789  0.1441
  403SOL    HW2 1209   0.405   1.151   1.713 -1.4817  2.5098 -2.7492
  404SOL     OW 1210   2.283   2.521   2.209 -0.0107  0.3613  0.4419
  404SOL    HW1 1211   2.207   2.581   2.183 -1.5444 -0.8809 -1.6578
  404SOL    HW2 1212   2.255   2.425   2.201 -1.4225  1.2517  2.3237
  405SOL     OW 1213   0.107   0.511   1.930  0.1144  0.2451  0.0429
  405SOL    HW1 1214   0.053   0.429   1.951 -1.1157  1.5145 -1.0956
  405SOL    HW2 1215   0.157   0.498   1.843  1.3000 -0.9017 -0.1193
  406SOL     OW 1216   1.229   1.674   2.968  0.5603 -0.7676  0.0694
  406SOL    HW1 1217   1.187   1.585   2.937  0.6241 -2.6437 -2.3280
  406SOL    HW2 1218   1.258   1.664   3.062  0.8364  2.0411 -2.8780
  407SOL     OW 1219   2.057   0.763   2.700 -0.2404  0.4632 -0.0944
  407SOL    HW1 1220   2.017   0.717   2.623 -0.7952 -0.3509  0.6291
  407SOL    HW2 1221   2.125   0.832   2.668  1.3157  2.0223  3.0531
  408SOL     OW 1222   0.454   2.540   2.226 -0.5278  0.1192 -0.1548
  408SOL    HW1 1223   0.351   2.543   2.246 -0.3514  0.9337 -0.0591
  408SOL    HW2 1224   0.487   2.625   2.181  1.5918  0.9191 -0.7886
  409SOL     OW 1225   0.009   2.607   1.067  0.0288 -0.3797 -1.4661
  409SOL    HW1 1226   3.043   2.650   1.133  1.9358  2.2902 -0.9206
  409SOL    HW2 1227   0.053   2.523   1.101  0.6169 -1.6712 -2.3007
  410SOL     OW 1228   2.751   1.711   0.419  0.5154  0.5572  0.2785
  410SOL    HW1 1229   2.849   1.732   0.445 -2.7365 -2.2684 -1.4127
  410SOL    HW2 1230   2.753   1.632   0.355  1.8026  0.2411 -0.9247
  411SOL     OW 1231   2.508   3.012   1.260 -0.0998 -0.9476  0.1887
  411SOL    HW1 1232   2.419   3.032   1.211  0.9395 -0.3595  0.7178
  411SOL    HW2 1233   2.533   2.916   1.248 -0.9255  0.3389 -0.6654
  412SOL     OW 1234   2.178   0.184   1.747 -0.2068 -0.3925  0.7438
  412SOL    HW1 1235   2.224   0.112   1.803  2.4861  0.2235  0.9717
  412SOL    HW2 1236   2.169   0.158   1.650 -0.7125 -0.1642  0.0954
  413SOL     OW 1237   0.192   0.260   2.325 -0.0642 -0.6998 -0.0642
  413SOL    HW1 1238   0.247   0.336   2.371  2.9698 -1.1039 -2.1268
  413SOL    HW2 1239   0.258   0.187   2.298 -0.2419 -1.9314 -2.1164
  414SOL     OW 1240   2.775   1.172   2.987 -0.4617 -0.2529 -0.1597
  414SOL    HW1 1241   2.714   1.230   2.928  0.1076 -0.0998  0.8007
  414SOL    HW2 1242   2.743   1.172   3.082  0.5572  0.6292 -2.9437
  415SOL     OW 1243   0.825   2.511   0.295  0.7535 -0.1051  0.0939
  415SOL    HW1 1244   0.852   2.607   0.318 -1.2604  1.8389  1.3773
  415SOL    HW2 1245   0.871   2.446   0.360 -1.2528 -1.3043  0.5936
  416SOL     OW 1246   1.447   2.847   2.489  0.1895 -0.0706  0.2336
  416SOL    HW1 1247   1.387   2.769   2.472  0.7385 -0.3223  1.4209
  416SOL    HW2 1248   1.542   2.830   2.449  2.2820 -0.7510 -0.5887
  417SOL     OW 1249   0.282   0.927   1.378  0.2365  0.3667  0.3506
  417SOL    HW1 1250   0.234   0.951   1.294  2.1893 -2.0032  1.0903
  417SOL    HW2 1251   0.379   0.894   1.369  0.6688 -1.8008 -0.1805
  418SOL     OW 1252   2.713   3.072   0.886 -0.1421  0.2095 -0.0685
  418SOL    HW1 1253   2.631   3.093   0.832  1.2031 -1.7564 -0.3132
  418SOL    HW2 1254   2.789   0.029   0.856 -0.6351 -0.7326 -0.3253
  419SOL     OW 1255   0.220   0.074   0.349 -0.3952  0.6760  0.2954
  419SOL    HW1 1256   0.223   3.092   0.401  0.8620 -0.7456 -0.7062
  419SOL    HW2 1257   0.168   0.147   0.391  1.5219 -1.1666 -0.9789
  420SOL     OW 1258   0.273   1.135   1.568  0.3745 -0.3110  0.4478
  420SOL    HW1 1259   0.288   1.053   1.518 -1.6592  1.9869  3.1863
  420SOL    HW2 1260   0.171   1.146   1.570  1.2680 -0.3584  0.6713
  421SOL     OW 1261   1.709   2.551   0.931  0.2945  0.3092  0.2691
  421SOL    HW1 1262   1.797   2.498   0.927  1.4743  0.7371  0.1752
  421SOL    HW2 1263   1.634   2.508   0.871 -1.5682  2.0323 -1.0234
  422SOL     OW 1264   0.117   0.352   1.340 -0.6460  0.2851 -0.1899
  422SOL    HW1 1265   0.196   0.370   1.278 -0.1751  0.9056  1.2600
  422SOL    HW2 1266   0.106   0.442   1.389  0.5787  2.5326  1.7494
  423SOL     OW 1267   1.070   1.325   2.193 -0.2794  0.2453 -0.4593
  423SOL    HW1 1268   1.023   1.316   2.100 -3.5642 -0.3328 -2.4811
  423SOL    HW2 1269   1.110   1.421   2.202  0.3010 -1.4302  1.1678
  424SOL     OW 1270   1.783   2.090   0.560  0.3187  0.6479 -0.1076
  424SOL    HW1 1271   1.738   2.039   0.483  1.4210 -3.9307  0.1738
  424SOL    HW2 1272   1.863   2.037   0.602 -1.6428  0.4596  1.4408
  425SOL     OW 1273   2.824   2.904   2.020 -0.3642 -0.7077  0.1421
  425SOL    HW1 1274   2.764   2.835   2.064  1.6995 -0.1873 -0.9164
  425SOL    HW2 1275   2.771   2.968   1.960  1.3287 -2.4489 -0.3566
  426SOL     OW 1276   3.021   2.867   2.779 -0.0334 -0.4118 -0.1204
  426SOL    HW1 1277   0.020   2.894   2.763  3.7546 -0.7104  0.4135
  426SOL    HW2 1278   3.014   2.773   2.787 -0.0784  0.5416 -2.5927
  427SOL     OW 1279   0.900   2.977   0.353 -0.1541 -0.6086  0.5015
  427SOL    HW1 1280   0.969   3.053   0.331 -0.0619  1.6172  0.6094
  427SOL    HW2 1281   0.809   3.003   0.312 -1.0892 -1.6573 -2.9696
  428SOL     OW 1282   2.909   0.502   1.465  0.2471  0.9454 -0.0648
  428SOL    HW1 1283   2.892   0.401   1.488 -0.7655 -1.7838 -0.5560
  428SOL    HW2 1284   2.838   0.529   1.398  1.3915 -0.7496  0.7363
  429SOL     OW 1285   1.885   3.025   0.685  0.3348  0.1549 -0.0067
  429SOL    HW1 1286   1.818   2.966   0.632  0.7049 -2.0641 -0.9378
  429SOL    HW2 1287   1.970   3.044   0.627  3.6623 -1.9325 -2.1801
  430SOL     OW 1288   0.944   1.654   2.740 -0.0552 -0.0227 -0.2863
  430SOL    HW1 1289   0.993   1.724   2.790 -1.7591 -0.2604 -1.5724
  430SOL    HW2 1290   0.940   1.674   2.642 -0.5498 -2.9110  2.0776
  431SOL     OW 1291   2.958   2.136   1.307  0.0234  0.3701  0.1066
  431SOL    HW1 1292   2.876   2.070   1.317 -3.0030  0.5660  1.3503
  431SOL    HW2 1293   3.039   2.103   1.368 -1.0273 -1.6771  2.3481
  432SOL     OW 1294   1.417   2.500   2.712 -0.1775  0.6026  0.1253
  432SOL    HW1 1295   1.485   2.538   2.646 -0.6400 -1.0754  2.4996
  432SOL    HW2 1296   1.426   2.399   2.717  0.2958  0.5318  0.2672
  433SOL     OW 1297   1.191   0.434   2.442 -0.2101  0.4988 -0.0498
  433SOL    HW1 1298   1.096   0.463   2.433  2.9105 -0.7471 -1.1160
  433SOL    HW2 1299   1.242   0.513   2.478 -3.8969  2.2739  2.8899
  434SOL     OW 1300   0.783   2.573   2.069 -0.0542  0.1668  0.0063
  434SOL    HW1 1301   0.795   2.553   1.970  3.8778 -1.8747 -0.4384
  434SOL    HW2 1302   0.846   2.508   2.118 -0.1845 -0.0510 -0.7445
  435SOL     OW 1303   0.394   0.077   0.012  0.3619  0.5767 -0.1078
  435SOL    HW1 1304   0.439   0.078   0.110 -0.4875 -0.2155  2.4075
  435SOL    HW2 1305   0.368   0.172   3.092  0.2358  1.1700 -0.6948
  436SOL     OW 1306   0.617   1.431   2.474 -0.3921  0.4200 -0.2130
  436SOL    HW1 1307   0.553   1.354   2.457  2.1352  0.8796 -0.6155
  436SOL    HW2 1308   0.625   1.483   2.385  0.7245 -0.3124  0.8543
  437SOL     OW 1309   1.128   2.306   2.433  0.2505  0.5518 -0.3125
  437SOL    HW1 1310   1.171   2.255   2.354 -0.6259 -0.5390 -0.9584
  437SOL    HW2 1311   1.105   2.399   2.410 -0.1961 -3.3443  1.1041
  438SOL     OW 1312   0.772   1.007   0.587  0.0364  0.2484  0.2924
  438SOL    HW1 1313   0.770   1.030   0.686  0.8809  1.0647  1.6854
  438SOL    HW2 1314   0.856   0.951   0.568 -1.7981  2.1899  0.7434
  439SOL     OW 1315   2.953   1.245   2.205  0.0589  0.6398 -0.1462
  439SOL    HW1 1316   2.911   1.150   2.200  0.0207 -2.1969 -2.7749
  439SOL    HW2 1317   2.891   1.313   2.163  0.1296 -0.3933  0.6782
  440SOL     OW 1318   2.909   0.491   2.858 -0.0712 -0.3973  0.0179
  440SOL    HW1 1319   2.889   0.441   2.773  0.2188  1.1575  1.3106
  440SOL    HW2 1320   2.895   0.587   2.847  0.3479 -1.9095  2.4817
  441SOL     OW 1321   0.704   1.799   1.570  0.4414  0.3272 -0.4003
  441SOL    HW1 1322   0.724   1.899   1.562 -1.9419  0.1948  1.0850
  441SOL    HW2 1323   0.747   1.760   1.653 -1.2818  0.1618 -0.4569
  442SOL     OW 1324   1.957   1.316   0.739 -0.4349  0.1138  0.3671
  442SOL    HW1 1325   1.926   1.287   0.644  1.6631 -1.3828 -0.4882
  442SOL    HW2 1326   1.912   1.403   0.764 -1.5448 -0.9554  2.0923
  443SOL     OW 1327   2.583   1.917   2.989  0.2110  0.1904  0.4796
  443SOL    HW1 1328   2.491   1.962   2.967 -0.0609 -1.1603  2.4465
  443SOL    HW2 1329   2.644   1.901   2.909  1.0603 -0.1144  2.2417
  444SOL     OW 1330   1.807   1.394   2.863  0.4718  0.1208 -0.0536
  444SOL    HW1 1331   1.848   1.303   2.867  0.2217  2.9278  1.1729
  444SOL    HW2 1332   1.878   1.470   2.861  0.3111  2.6296  2.5680
  445SOL     OW 1333   0.420   2.296   2.085  0.3588 -0.1517  0.2363
  445SOL    HW1 1334   0.481   2.352   2.145 -0.5967  0.6746  0.8865
  445SOL    HW2 1335   0.361   2.238   2.143 -1.8044 -2.5984 -0.1436
  446SOL     OW 1336   0.939   0.824   1.702  0.1958 -0.3087  0.1247
  446SOL    HW1 1337   0.884   0.746   1.743  2.8599  0.0206 -2.7494
  446SOL    HW2 1338   1.038   0.823   1.736  0.3109 -3.4313  2.4213
  447SOL     OW 1339   0.995   0.860   0.567 -0.2728 -0.5377  0.0091
  447SOL    HW1 1340   1.068   0.914   0.522 -1.6158  2.4794 -0.7867
  447SOL    HW2 1341   1.031   0.792   0.632 -2.5488 -0.0983  0.9390
  448SOL     OW 1342   1.321   1.207   2.094 -0.3631  0.2684 -0.0139
  448SOL    HW1 1343   1.227   1.208   2.117 -0.2834 -0.9439  0.3722
  448SOL    HW2 1344   1.348   1.126   2.034  0.5137  1.9125 -0.0168
  449SOL     OW 1345   0.277   1.678   2.380 -0.1170 -0.1981 -0.1364
  449SOL    HW1 1346   0.200   1.741   2.354 -0.3957 -0.1897  0.3623
  449SOL    HW2 1347   0.236   1.599   2.427 -0.5339  1.0457 -1.5617
  450SOL     OW 1348   2.065   1.487   2.140 -0.0474  0.3433 -0.2275
  450SOL    HW1 1349   2.137   1.541   2.087  0.9989 -2.1862 -0.0208
  450SOL    HW2 1350   2.064   1.493   2.240 -2.9827  0.7096  2.4846
  451SOL     OW 1351   2.565   1.351   1.349  0.4174  0.5608  0.4607
  451SOL    HW1 1352   2.536   1.436   1.304  0.6791  1.2368  1.0819
  451SOL    HW2 1353   2.663   1.361   1.370  0.5924 -0.8974  0.4186
  452SOL     OW 1354   0.779   1.101   1.347  0.1941  0.0804 -0.4135
  452SOL    HW1 1355   0.809   1.110   1.446  1.6174  2.4700 -0.5378
  452SOL    HW2 1356   0.855   1.105   1.281 -2.0413  0.9717  0.1465
  453SOL     OW 1357   0.318   1.966   1.103 -0.3194 -0.0487 -0.3256
  453SOL    HW1 1358   0.304   2.061   1.072  2.2281  0.1668  0.8451
  453SOL    HW2 1359   0.384   1.920   1.037  1.8765 -0.2725 -0.3043
  454SOL     OW 1360   1.316   1.364   0.278 -0.0776  0.4284 -0.2590
  454SOL    HW1 1361   1.417   1.360   0.283 -1.2659  0.2077  3.3743
  454SOL    HW2 1362   1.279   1.426   0.348 -2.2856 -2.8012 -0.4657
  455SOL     OW 1363   1.706   0.588   0.897 -0.0386  0.3153  0.0975
  455SOL    HW1 1364   1.763   0.506   0.871 -0.5068 -0.2346 -4.2311
  455SOL    HW2 1365   1.758   0.668   0.924  0.8393  0.4723  0.8216
  456SOL     OW 1366   1.694   2.889   0.538  0.4780  0.2236  0.3866
  456SOL    HW1 1367   1.651   2.794   0.536 -1.0846 -1.6820  2.1129
  456SOL    HW2 1368   1.621   2.957   0.545  1.2735  0.4711  0.3873
  457SOL     OW 1369   2.050   0.995   2.273  0.2370 -0.0378 -0.2554
  457SOL    HW1 1370   2.053   0.974   2.175 -0.1261  0.1461  1.2576
  457SOL    HW2 1371   2.052   1.096   2.293  0.3000 -1.1161  1.6293
  458SOL     OW 1372   2.598   0.513   2.407  0.5877 -0.6686  0.3380
  458SOL    HW1 1373   2.548   0.603   2.414 -1.2831  1.2186  2.2262
  458SOL    HW2 1374   2.640   0.507   2.317 -1.0939 -0.8481 -2.2900
  459SOL     OW 1375   2.633   1.459   2.354  0.1064  0.2390  0.6650
  459SOL    HW1 1376   2.634   1.369   2.308 -1.1439  5.1321 -3.1220
  459SOL    HW2 1377   2.693   1.470   2.434 -0.4882  0.0138 -0.3930
  460SOL     OW 1378   0.923   1.052   2.792 -0.3956 -0.4641  0.0939
  460SOL    HW1 1379   0.892   1.134   2.831  1.8412  0.2696 -1.1053
  460SOL    HW2 1380   0.865   1.023   2.711  0.1115 -1.3918  0.2168
  461SOL     OW 1381   0.376   2.221   0.171 -0.3025  0.0226  0.3123
  461SOL    HW1 1382   0.336   2.302   0.221 -0.0211  3.0238  1.0301
  461SOL    HW2 1383   0.369   2.233   0.069  2.4250  1.2463 -1.4276
  462SOL     OW 1384   1.140   2.983   2.316 -0.0134 -0.3606  0.1932
  462SOL    HW1 1385   1.223   2.946   2.262  2.9772  0.3252 -2.6543
  462SOL    HW2 1386   1.055   2.956   2.266  2.1610  0.4293 -1.2537
  463SOL     OW 1387   2.023   2.309   2.011  0.2934 -0.4066  0.0047
  463SOL    HW1 1388   1.944   2.264   2.051  1.3643  2.1040 -1.6910
  463SOL    HW2 1389   2.106   2.299   2.072  0.9293  1.0056  0.5041
  464SOL     OW 1390   2.385   2.423   0.732 -0.4923  0.2019 -0.4620
  464SOL    HW1 1391   2.297   2.467   0.698  1.4985  0.5223 -2.8921
  464SOL    HW2 1392   2.444   2.504   0.755 -0.1818 -0.6665 -0.4187
  465SOL     OW 1393   3.075   0.141   1.399 -0.0560 -0.1112 -0.3859
  465SOL    HW1 1394   0.015   0.060   1.348  0.6962  1.2639 -2.8912
  465SOL    HW2 1395   0.030   0.225   1.375  1.0993  1.6333 -0.2659
  466SOL     OW 1396   1.331   2.606   2.463  0.0362 -0.8452  0.0297
  466SOL    HW1 1397   1.342   2.566   2.556  1.2470 -1.8666 -0.4167
  466SOL    HW2 1398   1.229   2.603   2.438 -3.2205  2.3833  0.0912
  467SOL     OW 1399   3.080   2.200   0.265 -0.3391 -0.3144  0.2855
  467SOL    HW1 1400   3.032   2.148   0.198 -0.2003  4.1872  2.0453
  467SOL    HW2 1401   3.096   2.292   0.218  1.4061  1.3323  2.2285
  468SOL     OW 1402   2.355   2.031   2.931 -0.1039 -0.1938  0.2719
  468SOL    HW1 1403   2.276   2.000   2.988  0.3820 -0.2633  1.5480
  468SOL    HW2 1404   2.335   2.119   2.890 -1.2522 -1.4602  2.0756
  469SOL     OW 1405   0.775   1.955   0.621 -0.2188  0.0126  0.1790
  469SOL    HW1 1406   0.806   2.011   0.698 -0.3025  0.0034  3.1406
  469SOL    HW2 1407   0.828   1.869   0.605  1.6131 -3.2703  0.1784
  470SOL     OW 1408   1.922   0.766   0.916 -0.1110 -0.2153  0.0617
  470SOL    HW1 1409   1.974   0.678   0.933  0.2580 -1.7035 -0.9476
  470SOL    HW2 1410   1.958   0.842   0.975  0.0388  1.6301 -1.9741
  471SOL     OW 1411   0.352   1.805   0.366 -0.4682  0.3357  0.4551
  471SOL    HW1 1412   0.402   1.799   0.277  0.5554 -0.8753  1.6233
  471SOL    HW2 1413   0.290   1.883   0.363 -0.7388 -0.7261 -0.0149
  472SOL     OW 1414   2.744   1.882   2.763 -0.1170 -0.1898 -0.2590
  472SOL    HW1 1415   2.831   1.855   2.803 -1.4772  0.6846 -0.2474
  472SOL    HW2 1416   2.754   1.937   2.683 -2.0773 -1.9426  1.4870
  473SOL     OW 1417   1.557   1.909   0.700 -0.1218  0.1340 -0.3900
  473SOL    HW1 1418   1.482   1.978   0.696 -2.6271 -0.9693 -2.1188
  473SOL    HW2 1419   1.593   1.896   0.797 -2.6033 -3.9498 -0.2931
  474SOL     OW 1420   2.718   0.318   1.131 -0.0787 -0.5181  0.7260
  474SOL    HW1 1421   2.659   0.332   1.049 -1.1608  0.5399 -2.0751
  474SOL    HW2 1422   2.816   0.330   1.114 -1.1909 -0.4609  0.9286
  475SOL     OW 1423   2.752   3.084   1.824 -0.0069 -0.1931  0.2736
  475SOL    HW1 1424   2.784   3.058   1.729 -1.4966  0.3342  0.5258
  475SOL    HW2 1425   2.663   0.031   1.821  1.9614 -0.5141  1.2860
  476SOL     OW 1426   0.718   0.281   0.972  0.1984  0.1343  0.4375
  476SOL    HW1 1427   0.820   0.304   0.948  0.7011  0.3086 -3.6639
  476SOL    HW2 1428   0.654   0.318   0.900  0.0053  2.3879  0.5124
  477SOL     OW 1429   1.272   2.520   1.275 -0.2399 -0.3751  0.0739
  477SOL    HW1 1430   1.330   2.442   1.305  1.9605 -2.0661  0.5116
  477SOL    HW2 1431   1.334   2.594   1.247 -0.6834 -2.6711  0.6593
  478SOL     OW 1432   1.247   2.509   2.999 -0.7171 -0.3603  0.3756
  478SOL    HW1 1433   1.216   2.550   2.910 -1.1535  1.4461  1.9644
  478SOL    HW2 1434   1.352   2.520   3.000  3.7751  0.9753 -0.8398
  479SOL     OW 1435   2.377   1.072   1.968  0.4820 -0.1379  0.6511
  479SOL    HW1 1436   2.407   1.013   2.046  0.6719  0.1049  1.2983
  479SOL    HW2 1437   2.444   1.062   1.891 -2.8277 -1.5123 -1.6152
  480SOL     OW 1438   2.641   2.207   2.780 -0.1704 -0.2417  0.2890
  480SOL    HW1 1439   2.636   2.137   2.709  0.8935 -0.5060  2.5603
  480SOL    HW2 1440   2.546   2.226   2.817 -0.3265 -1.8896  1.9571
  481SOL     OW 1441   1.641   2.928   1.527 -0.0368  0.4474 -0.1770
  481SOL    HW1 1442   1.664   2.863   1.606 -1.1106  0.0852 -1.3498
  481SOL    HW2 1443   1.544   2.911   1.504  2.8502 -2.8364 -0.0718
  482SOL     OW 1444   1.481   2.459   2.301 -0.9187  0.4503  0.3243
  482SOL    HW1 1445   1.494   2.478   2.201 -0.4010 -1.8274  0.5240
  482SOL    HW2 1446   1.419   2.530   2.343 -0.7254 -1.5318 -1.5889
  483SOL     OW 1447   1.134   2.691   2.795 -0.5148 -0.6949 -0.2296
  483SOL    HW1 1448   1.045   2.643   2.796  1.6719  0.2146 -1.0751
  483SOL    HW2 1449   1.152   2.739   2.706  2.5120  1.8606 -1.6359
  484SOL     OW 1450   2.505   3.077   1.527 -0.0987 -0.7665  0.2078
  484SOL    HW1 1451   2.436   3.011   1.559 -0.6013 -0.2745 -1.8145
  484SOL    HW2 1452   2.529   3.053   1.429  2.4377  1.1283 -3.2146
  485SOL     OW 1453   2.018   0.513   0.573 -0.2422  0.0639  1.1199
  485SOL    HW1 1454   2.066   0.570   0.501 -0.8356  3.1912 -1.6941
  485SOL    HW2 1455   1.916   0.523   0.567 -3.7256 -0.5527  1.5608
  486SOL     OW 1456   2.402   2.592   2.440  0.2390  0.2991 -0.1861
  486SOL    HW1 1457   2.356   2.677   2.467  1.7992  0.2049 -3.1724
  486SOL    HW2 1458   2.379   2.563   2.343  0.8476 -0.3190 -1.3118
  487SOL     OW 1459   1.373   0.696   0.599 -0.7168  0.2759 -0.0542
  487SOL    HW1 1460   1.280   0.666   0.611  2.3173  1.7140 -0.7395
  487SOL    HW2 1461   1.436   0.623   0.631 -0.2710  0.9365  1.1028
  488SOL     OW 1462   2.549   2.949   2.378 -0.4647  0.7011 -0.4188
  488SOL    HW1 1463   2.594   2.897   2.304 -0.4367 -1.4752  0.2378
  488SOL    HW2 1464   2.466   2.894   2.408 -0.7573 -2.9467 -1.3474
  489SOL     OW 1465   1.173   2.702   0.510  0.0327 -0.1334 -0.4096
  489SOL    HW1 1466   1.151   2.789   0.561  1.8563  0.7572 -0.1140
  489SOL    HW2 1467   1.159   2.618   0.563 -1.2021  1.0544  0.3218
  490SOL     OW 1468   1.516   0.384   3.067  0.2169 -0.3006 -0.3446
  490SOL    HW1 1469   1.610   0.416   3.051 -1.4133 -0.9798  2.1806
  490SOL    HW2 1470   1.450   0.456   3.086  1.6372 -3.6673 -2.7513
  491SOL     OW 1471   0.818   3.015   1.348  0.6522 -0.3459  0.0504
  491SOL    HW1 1472   0.776   3.094   1.303  1.7218  2.4415  2.4440
  491SOL    HW2 1473   0.866   3.054   1.425 -0.4887  0.4626  0.2359
  492SOL     OW 1474   1.626   2.631   0.505  0.1268 -0.2163  0.1773
  492SOL    HW1 1475   1.707   2.578   0.475 -2.3717  0.0628  3.6002
  492SOL    HW2 1476   1.563   2.637   0.425  1.2167  0.4864 -0.1517
  493SOL     OW 1477   0.903   2.029   2.914  0.1478  0.3100  0.4662
  493SOL    HW1 1478   0.973   1.958   2.893  0.1085 -0.1841  0.0396
  493SOL    HW2 1479   0.921   2.117   2.866 -0.7071  1.2186 -2.6777
  494SOL     OW 1480   0.868   0.713   0.297  0.0406  0.3948  0.3498
  494SOL    HW1 1481   0.933   0.682   0.222  1.6710 -1.0574  0.9068
  494SOL    HW2 1482   0.924   0.738   0.381  0.0857 -1.3711  1.4181
  495SOL     OW 1483   2.717   0.325   1.715  0.2417  0.4996 -0.4788
  495SOL    HW1 1484   2.785   0.293   1.653 -1.5395 -1.6981 -0.2604
  495SOL    HW2 1485   2.726   0.423   1.730  2.8702 -0.6543  0.7373
  496SOL     OW 1486   2.324   2.364   2.552  0.4689 -0.1759 -0.2806
  496SOL    HW1 1487   2.356   2.447   2.511 -1.2691 -0.8638  1.6145
  496SOL    HW2 1488   2.367   2.280   2.511  0.3274 -2.9224 -2.3612
  497SOL     OW 1489   1.752   1.530   2.579  0.3155  0.1039 -0.1370
  497SOL    HW1 1490   1.797   1.437   2.576  0.8091 -1.2486 -1.0679
  497SOL    HW2 1491   1.692   1.540   2.661 -1.5954  1.1741  1.6668
  498SOL     OW 1492   0.809   2.631   1.123 -0.1306  0.0923 -0.5046
  498SOL    HW1 1493   0.706   2.627   1.125  1.6502 -1.6661 -0.5975
  498SOL    HW2 1494   0.849   2.542   1.136 -0.5118  1.3824  0.5900
  499SOL     OW 1495   3.076   2.091   1.058  0.0942 -0.3784  0.2441
  499SOL    HW1 1496   2.996   2.093   0.989  0.7149  2.7391 -2.1659
  499SOL    HW2 1497   3.036   2.128   1.143 -0.9299  2.1291  2.4140
  500SOL     OW 1498   0.600   2.655   3.018  0.3294  0.0856 -0.1547
  500SOL    HW1 1499   0.500   2.631   3.011  0.9760  1.4230  0.2040
  500SOL    HW2 1500   0.628   2.689   2.928  0.5954  2.0188 -1.9145
  501SOL     OW 1501   1.734   3.074   0.052 -0.3197 -0.4481 -0.5349
  501SOL    HW1 1502   1.706   2.977   0.035  1.3286 -0.8971  2.0867
  501SOL    HW2 1503   1.654   0.034   0.033  1.5527  2.6738  1.2430
  502SOL     OW 1504   2.941   0.100   0.795  0.2226 -1.1109 -0.1171
  502SOL    HW1 1505   2.915   0.123   0.698  0.9617  1.8951 -1.2285
  502SOL    HW2 1506   3.042   0.131   0.805  1.4706 -0.0920  0.1120
  503SOL     OW 1507   2.019   2.949   2.003 -0.1131 -0.0970 -0.6760
  503SOL    HW1 1508   2.067   2.923   2.093  2.1204  0.8056  1.2733
  503SOL    HW2 1509   1.919   2.973   2.018 -2.7040 -1.7468 -1.9426
  504SOL     OW 1510   2.197   1.312   1.887  0.1536  0.0369 -0.0445
  504SOL    HW1 1511   2.245   1.340   1.972 -2.3590 -2.1364  1.0539
  504SOL    HW2 1512   2.202   1.209   1.889 -2.6396 -1.6054 -1.3588
  505SOL     OW 1513   1.790   3.089   2.058  0.0402 -0.1136 -0.2964
  505SOL    HW1 1514   1.801   0.025   2.152  2.5623  0.8120 -1.5534
  505SOL    HW2 1515   1.697   3.067   2.036  3.3889  1.3127  0.4502
  506SOL     OW 1516   0.170   0.771   1.970 -0.1184  0.1085 -0.1455
  506SOL    HW1 1517   0.134   0.679   1.960 -1.0623  1.3461  0.1192
  506SOL    HW2 1518   0.261   0.767   2.017  1.6557  1.1615  3.2932
  507SOL     OW 1519   1.767   0.464   0.505  0.0827 -0.4846 -0.5155
  507SOL    HW1 1520   1.740   0.509   0.421  1.4230 -2.7731 -0.8317
  507SOL    HW2 1521   1.798   0.369   0.487  2.7627  1.2711  3.1660
  508SOL     OW 1522   2.030   0.563   1.986  0.4567  0.2190 -0.2782
  508SOL    HW1 1523   2.004   0.590   1.894  0.9144 -2.0144  2.9144
  508SOL    HW2 1524   2.052   0.462   1.987 -0.0251 -1.6630 -0.6511
  509SOL     OW 1525   0.601   1.836   2.969  0.6022 -0.6402  0.4805
  509SOL    HW1 1526   0.632   1.921   3.015 -0.7383  1.5391 -2.4155
  509SOL    HW2 1527   0.672   1.767   2.971 -0.5820 -0.9593  0.5325
  510SOL     OW 1528   0.309   1.051   0.958 -0.2659  0.0940  1.0476
  510SOL    HW1 1529   0.400   1.006   0.987  1.6037 -2.6220  1.7026
  510SOL    HW2 1530   0.321   1.137   0.903 -1.2057  1.1320 -0.4023
  511SOL     OW 1531   1.471   1.353   1.415  0.4109 -0.1062 -0.0664
  511SOL    HW1 1532   1.533   1.277   1.405 -4.1953  2.5593 -0.0129
  511SOL    HW2 1533   1.512   1.425   1.471 -1.9439  0.6465  2.7546
  512SOL     OW 1534   0.495   1.916   0.889 -0.1075  1.0788  0.0619
  512SOL    HW1 1535   0.447   1.874   0.806 -0.9545  3.1189 -1.1761
  512SOL    HW2 1536   0.542   1.999   0.862 -0.7956 -1.1854  1.0879
  513SOL     OW 1537   0.318   2.642   0.748 -0.1069 -0.3224  0.0138
  513SOL    HW1 1538   0.374   2.630   0.664 -1.8164 -2.1446  2.1720
  513SOL    HW2 1539   0.352   2.592   0.829  2.2640  0.0616  0.8335
  514SOL     OW 1540   0.658   2.147   0.467  0.2104 -0.5731 -0.3109
  514SOL    HW1 1541   0.692   2.126   0.372  0.5412 -1.1885 -0.9423
  514SOL    HW2 1542   0.686   2.077   0.536 -2.0718 -2.1927 -2.5493
  515SOL     OW 1543   0.060   0.237   3.052  0.4500 -0.1860  0.1530
  515SOL    HW1 1544   0.017   0.329   3.076 -2.8207 -0.4875 -0.2548
  515SOL    HW2 1545   0.157   0.238   3.036 -0.0785  0.2035 -2.1610
  516SOL     OW 1546   2.218   2.983   1.174  0.2101 -0.4035  0.0299
  516SOL    HW1 1547   2.190   3.009   1.266 -1.9661  1.2459 -2.1417
  516SOL    HW2 1548   2.164   3.029   1.100  0.1578 -0.0128  1.0346
  517SOL     OW 1549   1.836   1.553   0.808 -0.3683  0.4314  0.3142
  517SOL    HW1 1550   1.813   1.640   0.772  0.3940 -1.1890  2.9035
  517SOL    HW2 1551   1.856   1.561   0.908 -0.1714 -0.4744 -0.9414
  518SOL     OW 1552   1.712   2.794   1.038  0.2654  0.1935 -0.1825
  518SOL    HW1 1553   1.780   2.771   1.106 -1.8320 -1.2125 -3.0094
  518SOL    HW2 1554   1.690   2.715   0.979 -0.9521  0.5218  1.0588
  519SOL     OW 1555   2.842   2.677   0.326  0.0802 -0.0705 -0.4919
  519SOL    HW1 1556   2.880   2.624   0.403 -1.9781  1.3378  0.6139
  519SOL    HW2 1557   2.822   2.768   0.368 -0.2825 -0.5409  1.6527
  520SOL     OW 1558   2.073   1.808   2.219 -0.1276 -0.1783 -0.1420
  520SOL    HW1 1559   2.068   1.845   2.315 -1.4192  0.9892 -1.8807
  520SOL    HW2 1560   1.982   1.782   2.189 -0.2952  0.4712 -2.0272
  521SOL     OW 1561   1.322   2.863   1.854 -0.2851  0.3613 -0.4565
  521SOL    HW1 1562   1.337   2.921   1.770  0.3023  0.2048  2.0836
  521SOL    HW2 1563   1.228   2.829   1.858  2.7819  1.5555 -1.6809
  522SOL     OW 1564   0.358   2.566   1.946  0.2220 -0.5820 -0.4929
  522SOL    HW1 1565   0.271   2.553   1.895  0.2557 -1.3387  1.5465
  522SOL    HW2 1566   0.380   2.485   2.004  0.1720  0.3404 -1.3339
  523SOL     OW 1567   0.938   2.317   1.933  0.4253 -0.2161 -0.1117
  523SOL    HW1 1568   0.894   2.384   1.875  0.4606 -0.1410  0.5516
  523SOL    HW2 1569   0.919   2.330   2.034  0.8433 -0.9807  1.6234
  524SOL     OW 1570   2.083   2.237   0.455 -0.4033  0.4473 -0.4729
  524SOL    HW1 1571   2.024   2.182   0.394  1.1533  1.0967  0.1121
  524SOL    HW2 1572   2.031   2.270   0.537 -0.2524 -0.8126 -1.1004
  525SOL     OW 1573   2.806   0.684   2.572  0.1846  0.0828  0.0947
  525SOL    HW1 1574   2.830   0.585   2.588  0.1734 -1.4805 -0.9248
  525SOL    HW2 1575   2.708   0.700   2.588  3.2085  1.3674  1.9821
  526SOL     OW 1576   0.490   2.659   0.533 -0.2070 -0.4960 -0.5087
  526SOL    HW1 1577   0.569   2.606   0.568 -1.4390  0.2663  0.1405
  526SOL    HW2 1578   0.490   2.659   0.430  1.9232 -2.2057  1.9804
  527SOL     OW 1579   3.012   0.911   0.730  0.1487  0.0300  0.3012
  527SOL    HW1 1580   2.946   0.903   0.653 -0.6368 -0.9907 -0.6736
  527SOL    HW2 1581   2.963   0.928   0.821  1.5165  1.7943  1.1055
  528SOL     OW 1582   0.902   1.187   2.387 -0.5814 -0.2742  0.0747
  528SOL    HW1 1583   0.899   1.244   2.473 -1.6583 -0.3141  2.8567
  528SOL    HW2 1584   0.965   1.227   2.319 -1.2991  3.5936  1.6521
  529SOL     OW 1585   0.872   1.362   0.309  0.3242  0.4757  0.1712
  529SOL    HW1 1586   0.896   1.260   0.308  1.9174 -2.6007  0.0543
  529SOL    HW2 1587   0.847   1.388   0.209 -2.8060 -1.7907 -0.8864
  530SOL     OW 1588   1.196   0.831   1.764 -0.0207 -0.1167  0.0657
  530SOL    HW1 1589   1.268   0.899   1.727  3.0953  1.5818 -1.7201
  530SOL    HW2 1590   1.229   0.735   1.769 -0.8839  1.4744  1.0493
  531SOL     OW 1591   1.159   2.272   0.209 -0.0320 -0.2682  0.4598
  531SOL    HW1 1592   1.163   2.275   0.105  2.5503  1.3369 -0.6970
  531SOL    HW2 1593   1.242   2.314   0.256  1.4811  0.5850  0.5679
  532SOL     OW 1594   2.625   0.850   2.331  0.2546 -0.3923  0.0922
  532SOL    HW1 1595   2.730   0.837   2.325  2.1693  0.0532  1.7125
  532SOL    HW2 1596   2.585   0.852   2.236 -3.9633  1.8334 -2.7956
  533SOL     OW 1597   3.088   0.302   2.103 -0.2597  0.4343 -0.0879
  533SOL    HW1 1598   0.072   0.266   2.161  0.6916 -1.5610  1.9883
  533SOL    HW2 1599   3.038   0.371   2.163  1.9298  0.2695 -1.2824
  534SOL     OW 1600   2.331   0.128   0.070 -0.2926 -0.1647  0.4150
  534SOL    HW1 1601   2.413   0.185   0.029  0.4599  1.7281 -1.1821
  534SOL    HW2 1602   2.358   0.035   0.050 -1.2605  2.2209  1.5673
  535SOL     OW 1603   0.672   0.422   0.080 -1.0459 -0.1281 -0.1862
  535SOL    HW1 1604   0.608   0.415   0.162 -2.2295  2.6667 -1.4232
  535SOL    HW2 1605   0.624   0.407   3.091  1.3959  0.9737  3.0086
  536SOL     OW 1606   1.206   2.037   1.139 -0.8451  0.2123 -0.0053
  536SOL    HW1 1607   1.145   1.983   1.202 -1.1402  1.0607 -0.7607
  536SOL    HW2 1608   1.172   2.130   1.126  0.2039 -0.2390  0.7853
  537SOL     OW 1609   2.949   2.489   1.614  0.4054  0.1171  0.4152
  537SOL    HW1 1610   2.957   2.583   1.652 -0.4777 -0.9381  0.3737
  537SOL    HW2 1611   2.865   2.441   1.647  0.8950  2.0026  1.6699
  538SOL     OW 1612   0.424   2.304   0.581 -0.3264  0.4993  0.0935
  538SOL    HW1 1613   0.479   2.238   0.535  0.2256  3.3127  2.3351
  538SOL    HW2 1614   0.485   2.357   0.648  1.0850  1.9732 -0.8249
  539SOL     OW 1615   1.973   1.240   2.357  0.2237 -0.1234  0.1853
  539SOL    HW1 1616   1.872   1.235   2.325 -4.6553  0.4093 -1.5337
  539SOL    HW2 1617   2.000   1.338   2.362 -0.1160  2.2386  0.5297
  540SOL     OW 1618   1.835   0.711   2.875 -1.1558 -0.4849  0.0796
  540SOL    HW1 1619   1.843   0.621   2.925 -0.1930  1.6451 -1.2510
  540SOL    HW2 1620   1.912   0.730   2.810 -2.4305 -1.2165  1.8809
  541SOL     OW 1621   0.744   1.037   2.578 -0.0393 -0.1325  0.2145
  541SOL    HW1 1622   0.668   1.100   2.593  0.3645  0.9862  3.0343
  541SOL    HW2 1623   0.820   1.072   2.521 -0.0223 -0.9342 -1.2800
  542SOL     OW 1624   1.379   2.585   1.873 -0.0604 -0.3370  0.2306
  542SOL    HW1 1625   1.312   2.521   1.832  0.8323  2.5755 -1.4933
  542SOL    HW2 1626   1.373   2.673   1.820 -0.2945 -2.2785  0.1022
  543SOL     OW 1627   0.538   2.811   0.120  0.0815 -0.2910  0.4340
  543SOL    HW1 1628   0.557   2.748   0.043 -1.1046  2.5355  1.6142
  543SOL    HW2 1629   0.454   2.861   0.100 -0.3134  1.2884  1.4019
  544SOL     OW 1630   2.824   2.161   2.121  0.2342 -0.2573  0.2989
  544SOL    HW1 1631   2.791   2.246   2.073 -0.6980  1.4614  0.0788
  544SOL    HW2 1632   2.916   2.167   2.157 -3.0154  0.3340 -0.8137
  545SOL     OW 1633   1.382   1.785   1.726 -0.1497  0.0279  0.3664
  545SOL    HW1 1634   1.410   1.881   1.726  1.1719 -1.4026  1.4017
  545SOL    HW2 1635   1.427   1.741   1.804 -1.6177  0.1678 -0.2205
  546SOL     OW 1636   2.867   0.414   2.592 -0.1154  0.0993  0.1788
  546SOL    HW1 1637   2.771   0.379   2.576  1.0670 -1.1248 -1.5820
  546SOL    HW2 1638   2.937   0.380   2.529  0.4025  0.5200 -0.1884
  547SOL     OW 1639   1.533   2.988   1.015 -0.0907 -0.0183 -0.3812
  547SOL    HW1 1640   1.513   3.032   1.104  0.9285 -0.3639  0.0551
  547SOL    HW2 1641   1.594   2.910   1.030 -3.0211  1.0581 -3.2044
  548SOL     OW 1642   1.260   2.000   0.039 -0.1194 -0.0642 -0.3706
  548SOL    HW1 1643   1.302   2.011   0.134 -3.1738  2.0402  1.8323
  548SOL    HW2 1644   1.238   2.092   3.098  0.8765  1.2078 -1.4121
  549SOL     OW 1645   2.016   0.459   3.095 -0.1971  0.1049 -0.2193
  549SOL    HW1 1646   2.044   0.450   0.094  1.1708 -1.2331  2.4303
  549SOL    HW2 1647   2.072   0.530   3.037  1.0234  0.9928 -4.0831
  550SOL     OW 1648   2.724   1.794   0.923 -0.1450 -0.2294 -0.4265
  550SOL    HW1 1649   2.717   1.797   0.821 -0.7121 -0.1998 -0.2151
  550SOL    HW2 1650   2.711   1.699   0.957 -1.4181  1.7322 -2.3339
  551SOL     OW 1651   1.160   0.163   1.131  0.5668 -0.1743 -0.5392
  551SOL    HW1 1652   1.073   0.219   1.147  0.3240  0.5666  0.1671
  551SOL    HW2 1653   1.162   0.132   1.034 -1.5255  0.1798  2.7645
  552SOL     OW 1654   3.065   1.918   2.663  0.1237 -0.6961  0.1536
  552SOL    HW1 1655   0.047   1.974   2.681 -0.5913 -0.0121  0.0147
  552SOL    HW2 1656   3.037   1.865   2.745  0.8794  1.2970 -3.0943
  553SOL     OW 1657   2.624   2.597   0.214  0.0832 -0.1903  0.8097
  553SOL    HW1 1658   2.714   2.627   0.243 -1.8709 -1.2406 -0.9011
  553SOL    HW2 1659   2.559   2.613   0.290  0.8336  0.3789 -0.9403
  554SOL     OW 1660   2.231   1.171   1.563  0.0460  0.5233  0.1073
  554SOL    HW1 1661   2.237   1.264   1.597 -0.9137 -3.9002  3.9582
  554SOL    HW2 1662   2.169   1.111   1.622 -0.7101  0.8448  1.2218
  555SOL     OW 1663   0.589   2.465   2.460  0.1188  0.1783  0.4588
  555SOL    HW1 1664   0.538   2.512   2.532  0.3326 -0.5549  0.0147
  555SOL    HW2 1665   0.544   2.477   2.367 -2.0565  1.2828 -0.0467
  556SOL     OW 1666   1.175   1.413   1.528 -0.4319  0.2059  0.3007
  556SOL    HW1 1667   1.267   1.436   1.492  2.7216 -0.5956  1.2706
  556SOL    HW2 1668   1.101   1.433   1.460 -4.2815 -0.5012  0.5576
  557SOL     OW 1669   1.467   3.069   1.274  0.0242 -0.1711  0.3810
  557SOL    HW1 1670   1.529   0.038   1.310 -2.2837 -0.7592 -0.1952
  557SOL    HW2 1671   1.377   3.067   1.320 -0.0028  1.9196  0.2754
  558SOL     OW 1672   0.572   0.730   2.353 -0.1959  1.0979  0.1289
  558SOL    HW1 1673   0.642   0.681   2.302 -0.9913  1.5698  0.9300
  558SOL    HW2 1674   0.603   0.708   2.450  1.1907 -0.5291  1.2703
  559SOL     OW 1675   1.005   2.740   0.292 -0.0865  0.3810  0.4816
  559SOL    HW1 1676   0.956   2.826   0.313  0.7238 -0.3455  0.1352
  559SOL    HW2 1677   1.073   2.730   0.371  1.5734 -1.0580  0.2473
  560SOL     OW 1678   1.718   1.935   0.331  0.1121 -0.1838 -0.0233
  560SOL    HW1 1679   1.699   1.843   0.371  0.3659  1.3562 -0.6738
  560SOL    HW2 1680   1.771   1.921   0.246  0.5542 -0.8658  0.6883
  561SOL     OW 1681   1.146   2.922   0.675 -0.5523  0.0888  0.0099
  561SOL    HW1 1682   1.161   3.013   0.628  0.3952  1.5041 -1.4149
  561SOL    HW2 1683   1.204   2.917   0.756  1.8859 -3.6771 -0.8319
  562SOL     OW 1684   0.494   0.986   2.311  0.0488  0.3275 -0.3459
  562SOL    HW1 1685   0.557   1.031   2.243  1.0988  0.4116 -0.2247
  562SOL    HW2 1686   0.536   0.889   2.327 -2.2068 -0.0922 -1.9728
  563SOL     OW 1687   1.146   2.058   2.170 -0.1579 -0.4895 -0.4505
  563SOL    HW1 1688   1.179   2.136   2.118  0.0864 -0.1344  1.2895
  563SOL    HW2 1689   1.234   2.005   2.191  1.8385 -1.2343 -1.5495
  564SOL     OW 1690   2.511   0.713   1.194 -0.0156 -0.4547 -0.1622
  564SOL    HW1 1691   2.434   0.745   1.137  1.2383 -2.6297 -0.6292
  564SOL    HW2 1692   2.529   0.772   1.274  0.2718 -0.9273 -0.5928
  565SOL     OW 1693   1.331   0.931   0.212 -0.0912  0.2270 -0.3219
  565SOL    HW1 1694   1.310   0.976   0.123  1.6221  1.8027  3.4125
  565SOL    HW2 1695   1.425   0.948   0.241 -2.2565 -1.3853 -4.2468
  566SOL     OW 1696   2.289   2.613   2.975  0.4237  0.8693  0.0208
  566SOL    HW1 1697   2.389   2.611   3.003  1.1909  1.4511 -1.8284
  566SOL    HW2 1698   2.246   2.521   2.976  0.2632 -0.9159 -0.1423
  567SOL     OW 1699   1.771   1.170   1.113  0.2231  0.1488 -0.2474
  567SOL    HW1 1700   1.856   1.212   1.083 -3.1077  2.5391  1.0084
  567SOL    HW2 1701   1.753   1.086   1.054 -2.7754 -1.1941 -0.8863
  568SOL     OW 1702   1.164   1.436   2.859  0.5658 -0.5058 -0.3288
  568SOL    HW1 1703   1.119   1.381   2.932 -0.1583 -0.1706 -0.0782
  568SOL    HW2 1704   1.122   1.421   2.761 -3.0582 -2.6823 -3.2229
  569SOL     OW 1705   2.225   1.666   0.857 -0.0331  0.0387 -0.0100
  569SOL    HW1 1706   2.250   1.583   0.801  0.8895 -0.8100 -2.8771
  569SOL    HW2 1707   2.301   1.696   0.923  1.6419 -2.7685  1.6067
  570SOL     OW 1708   2.626   2.464   2.166  0.0303  0.5956 -0.0737
  570SOL    HW1 1709   2.689   2.463   2.086 -1.6606  1.9448  1.4243
  570SOL    HW2 1710   2.682   2.482   2.248  0.3939 -2.3989 -2.6904
  571SOL     OW 1711   2.810   1.831   1.796 -0.0978 -0.2035 -0.1342
  571SOL    HW1 1712   2.784   1.853   1.895 -1.2152 -0.9592  4.7808
  571SOL    HW2 1713   2.762   1.890   1.727 -1.1444  0.4470  0.9003
  572SOL     OW 1714   1.194   2.219   2.690  0.0313  0.2457 -0.4537
  572SOL    HW1 1715   1.195   2.268   2.603  0.1140 -0.5783 -2.3610
  572SOL    HW2 1716   1.289   2.205   2.716  2.5037  0.1069 -2.7347
  573SOL     OW 1717   1.642   2.123   1.382  0.0388  0.4401  0.3205
  573SOL    HW1 1718   1.604   2.037   1.349  0.4050  0.3870  0.9321
  573SOL    HW2 1719   1.672   2.104   1.479 -0.4203 -0.4251  4.0942
  574SOL     OW 1720   1.078   2.851   1.503 -0.4897  0.4048  0.5835
  574SOL    HW1 1721   1.023   2.919   1.552  2.3335 -2.0996 -2.4391
  574SOL    HW2 1722   1.102   2.889   1.410  1.0967  2.8612 -1.2291
  575SOL     OW 1723   0.970   0.426   0.953 -0.2621  0.0339 -0.3761
  575SOL    HW1 1724   1.058   0.473   0.934  3.6177  1.2964  2.5241
  575SOL    HW2 1725   0.960   0.408   1.051 -0.4367  0.7188 -1.4660
  576SOL     OW 1726   2.317   0.451   1.247 -0.2450 -0.6167 -0.1115
  576SOL    HW1 1727   2.396   0.501   1.207 -1.7497 -1.0709  1.5863
  576SOL    HW2 1728   2.355   0.376   1.307 -1.6284  0.4297 -1.6032
  577SOL     OW 1729   2.076   0.195   3.052  0.1882  0.1070  0.4996
  577SOL    HW1 1730   2.170   0.166   3.080 -1.4154 -1.2947  0.6127
  577SOL    HW2 1731   2.052   0.291   3.073  0.6970 -1.5174  1.8950
  578SOL     OW 1732   1.718   1.960   2.008  0.1383 -0.2333 -0.4490
  578SOL    HW1 1733   1.663   1.881   2.040 -1.8212 -0.6779  2.8753
  578SOL    HW2 1734   1.804   1.938   1.958  0.7329  0.8443 -0.1903
  579SOL     OW 1735   0.625   1.729   1.032  0.3349  0.1818 -0.0383
  579SOL    HW1 1736   0.550   1.789   0.996 -0.8083 -1.0764 -1.8883
  579SOL    HW2 1737   0.649   1.657   0.970  0.8768  0.7816  3.1401
  580SOL     OW 1738   1.521   2.906   2.768  0.3498 -0.4437 -0.0469
  580SOL    HW1 1739   1.586   2.826   2.782  0.7854  1.2670 -1.6942
  580SOL    HW2 1740   1.461   2.889   2.689 -0.1951  0.6927  2.9563
  581SOL     OW 1741   1.112   0.926   2.093 -0.3602 -0.3184  0.4049
  581SOL    HW1 1742   1.204   0.891   2.095 -3.2446  1.6660  2.7878
  581SOL    HW2 1743   1.103   0.987   2.012  0.5797  0.7298  0.5396
  582SOL     OW 1744   0.375   0.502   0.953 -0.0426 -0.4022 -0.8150
  582SOL    HW1 1745   0.355   0.602   0.932 -1.3404  1.1909  0.9362
  582SOL    HW2 1746   0.431   0.463   0.880 -3.1122  1.5489  2.5043
  583SOL     OW 1747   0.932   1.895   1.922 -0.2946  0.0106  0.4623
  583SOL    HW1 1748   0.863   1.822   1.890 -1.8163 -1.0267  1.1270
  583SOL    HW2 1749   0.918   1.917   2.021  4.5312 -0.7575 -1.2423
  584SOL     OW 1750   2.459   2.617   0.441 -0.0794  0.4193 -0.0928
  584SOL    HW1 1751   2.516   2.581   0.516  0.6938  4.4811  0.4558
  584SOL    HW2 1752   2.429   2.709   0.459  1.3391 -4.0585  1.1685
  585SOL     OW 1753   2.261   0.509   2.822 -0.5762  0.0471 -0.2787
  585SOL    HW1 1754   2.248   0.590   2.881  0.7974  0.6735  0.0569
  585SOL    HW2 1755   2.300   0.554   2.738  0.0200  1.0840  0.0368
  586SOL     OW 1756   0.376   1.390   0.240 -0.4998  0.2080 -0.0568
  586SOL    HW1 1757   0.433   1.419   0.319 -1.5653  1.7930  0.1812
  586SOL    HW2 1758   0.275   1.405   0.259 -3.2029 -0.9013  2.4793
  587SOL     OW 1759   1.643   1.884   0.948 -0.0930 -0.5535  0.0691
  587SOL    HW1 1760   1.739   1.907   0.958 -0.8951 -0.9023 -0.1356
  587SOL    HW2 1761   1.585   1.943   1.004 -0.2540  0.0187  0.3762
  588SOL     OW 1762   0.745   0.706   1.314  0.0695  0.0309  0.0789
  588SOL    HW1 1763   0.845   0.700   1.293 -0.3220  1.8913 -0.5037
  588SOL    HW2 1764   0.689   0.692   1.228 -0.5909  1.4192  1.6525
  589SOL     OW 1765   1.964   2.914   0.954 -0.0993  0.9344 -0.1082
  589SOL    HW1 1766   1.905   2.937   0.875  0.3644 -0.7642  1.9032
  589SOL    HW2 1767   1.912   2.895   1.040  0.4413  2.1805  0.6548
  590SOL     OW 1768   1.588   1.000   0.264  0.0126 -0.0901 -0.0164
  590SOL    HW1 1769   1.622   1.030   0.172 -2.1880  0.3631  1.2199
  590SOL    HW2 1770   1.585   1.078   0.333 -1.5158  0.5178 -1.5114
  591SOL     OW 1771   2.239   2.257   2.171 -0.3038 -0.3027 -0.5021
  591SOL    HW1 1772   2.188   2.171   2.191  0.0596  0.2943 -0.8922
  591SOL    HW2 1773   2.342   2.244   2.182 -1.3513 -0.0990 -1.1332
  592SOL     OW 1774   1.492   2.043   1.133  0.5764  0.3639 -0.2448
  592SOL    HW1 1775   1.530   1.969   1.194  1.0394  0.7702 -2.1007
  592SOL    HW2 1776   1.393   2.046   1.136  2.6572 -0.4886 -1.2067
  593SOL     OW 1777   0.692   3.006   0.985 -0.1246 -0.3248  0.0016
  593SOL    HW1 1778   0.786   2.970   0.961  1.1739 -1.2844  2.7260
  593SOL    HW2 1779   0.686   3.073   1.064 -1.8429 -1.0611 -1.1262
  594SOL     OW 1780   2.851   0.907   2.022  0.0994  0.2326 -0.1231
  594SOL    HW1 1781   2.880   0.973   1.954  1.4479 -1.9199  0.7066
  594SOL    HW2 1782   2.918   0.832   2.046  1.3575 -0.5219 -2.2792
  595SOL     OW 1783   0.152   2.936   0.507 -0.1880  0.0763 -0.5447
  595SOL    HW1 1784   0.055   2.949   0.547 -0.6437  1.7254 -0.0404
  595SOL    HW2 1785   0.228   2.933   0.576 -0.0429 -2.7663 -1.6153
  596SOL     OW 1786   0.078   0.580   1.468 -0.1905 -0.3431 -0.5866
  596SOL    HW1 1787   0.101   0.670   1.518 -0.5703  0.8939  0.4775
  596SOL    HW2 1788   3.079   0.557   1.472  2.6500 -1.9224 -3.0758
  597SOL     OW 1789   2.538   0.914   0.434  0.3771  0.0564  0.7234
  597SOL    HW1 1790   2.536   0.863   0.342 -0.9127 -3.0750  0.1716
  597SOL    HW2 1791   2.450   0.966   0.440 -1.1183  0.4215 -0.3340
  598SOL     OW 1792   0.584   0.109   2.083 -0.1701 -0.6115  0.2080
  598SOL    HW1 1793   0.563   0.185   2.015 -2.6338  0.3163  0.3377
  598SOL    HW2 1794   0.512   0.092   2.151  1.4243  0.6069  1.4027
  599SOL     OW 1795   2.491   1.635   0.239 -0.0339  0.1387  0.0551
  599SOL    HW1 1796   2.422   1.692   0.290 -0.6377 -0.0031  0.1392
  599SOL    HW2 1797   2.556   1.686   0.179 -0.9759  1.6329  1.6802
  600SOL     OW 1798   1.061   0.938   0.035 -0.3716 -0.1386  0.0367
  600SOL    HW1 1799   1.071   1.032   0.076 -0.0413 -1.6418  0.0987
  600SOL    HW2 1800   0.964   0.916   0.011  1.8177 -1.4464 -1.0205
  601SOL     OW 1801   1.356   1.139   3.072  0.2323  0.0764 -0.4266
  601SOL    HW1 1802   1.266   1.175   3.087  2.6687  0.3924 -1.1919
  601SOL    HW2 1803   1.375   1.134   2.970  1.6734  0.6292 -0.6999
  602SOL     OW 1804   0.923   3.079   1.597 -0.4846  0.3594  0.5222
  602SOL    HW1 1805   0.978   0.061   1.613 -1.1501  1.6491  1.2886
  602SOL    HW2 1806   0.842   3.083   1.661  0.6857 -0.6685  0.8896
  603SOL     OW 1807   0.875   2.696   2.548 -0.3287  0.3222  0.3151
  603SOL    HW1 1808   0.945   2.771   2.561  0.7616  0.9780  1.8749
  603SOL    HW2 1809   0.831   2.697   2.459 -2.9584 -0.7617 -0.8120
  604SOL     OW 1810   2.751   0.267   2.016  0.1045  0.1883  0.4515
  604SOL    HW1 1811   2.730   0.175   2.051 -0.2610 -0.1156 -0.9615
  604SOL    HW2 1812   2.726   0.266   1.917 -1.1340  0.2909  2.2438
  605SOL     OW 1813   2.669   2.750   1.442  0.2723 -0.3791 -0.5134
  605SOL    HW1 1814   2.634   2.684   1.510  1.9494 -1.2924 -0.3037
  605SOL    HW2 1815   2.736   2.810   1.488  1.2511  0.8337  2.3512
  606SOL     OW 1816   2.875   2.298   2.562  0.1680  0.1218  0.3453
  606SOL    HW1 1817   2.900   2.282   2.661  1.9166 -2.2548  0.9428
  606SOL    HW2 1818   2.961   2.328   2.519  1.5394 -1.3461  1.0463
  607SOL     OW 1819   0.830   0.281   0.713  0.0675  0.1343 -0.0640
  607SOL    HW1 1820   0.843   0.284   0.612  0.6135 -1.1206  1.8377
  607SOL    HW2 1821   0.903   0.334   0.760 -0.9261 -1.2765  1.3019
  608SOL     OW 1822   1.599   1.806   2.579  0.0094 -0.0973 -0.1801
  608SOL    HW1 1823   1.585   1.762   2.668 -0.7071  1.2519  0.7112
  608SOL    HW2 1824   1.618   1.742   2.507 -0.7191  2.1178  0.8618
  609SOL     OW 1825   2.929   0.361   0.951  0.2641  0.5186  0.1086
  609SOL    HW1 1826   2.912   0.277   0.897 -1.3840 -0.5918  0.6573
  609SOL    HW2 1827   3.028   0.389   0.951  0.6298  0.3634  0.1617
  610SOL     OW 1828   0.807   2.535   0.016  0.3046  0.1511  0.3805
  610SOL    HW1 1829   0.710   2.575   3.099 -4.0414  2.2420 -0.1807
  610SOL    HW2 1830   0.823   2.508   0.113  0.0955  0.1321  0.5043
  611SOL     OW 1831   1.887   1.255   0.499  0.1006 -0.4952 -0.0893
  611SOL    HW1 1832   1.790   1.235   0.480  1.4011  2.3311 -0.0331
  611SOL    HW2 1833   1.952   1.202   0.439  0.0308 -3.0528 -0.7064
  612SOL     OW 1834   1.074   2.592   2.379  0.2596  0.7566  0.1372
  612SOL    HW1 1835   0.978   2.615   2.414 -0.1206  0.5178 -2.0352
  612SOL    HW2 1836   1.088   2.647   2.293 -1.4465  5.4357 -1.3721
  613SOL     OW 1837   1.389   1.793   0.293  0.2565  0.2795 -0.7127
  613SOL    HW1 1838   1.315   1.810   0.363 -0.5732  0.1884  0.5625
  613SOL    HW2 1839   1.440   1.877   0.265 -0.0708 -1.0161  1.0564
  614SOL     OW 1840   2.725   2.237   1.652 -0.2313  0.3268 -0.1344
  614SOL    HW1 1841   2.710   2.267   1.556  1.6195 -2.2424 -1.7969
  614SOL    HW2 1842   2.666   2.277   1.721  0.7247 -0.0234 -0.9110
  615SOL     OW 1843   2.443   1.237   3.065  0.4441 -0.1651  0.1351
  615SOL    HW1 1844   2.509   1.267   2.993  4.0715 -0.8972  1.3990
  615SOL    HW2 1845   2.372   1.185   3.013 -1.4351  1.4816  0.7892
  616SOL     OW 1846   1.518   0.069   0.814  0.3979  0.7696 -0.3763
  616SOL    HW1 1847   1.537   0.023   0.904  1.8461 -0.3333  1.7551
  616SOL    HW2 1848   1.602   0.115   0.787  0.3948 -0.7472 -0.9460
  617SOL     OW 1849   0.279   1.456   2.714 -0.0877  0.0311  0.0080
  617SOL    HW1 1850   0.373   1.493   2.711 -3.5322  2.4562 -0.2558
  617SOL    HW2 1851   0.261   1.419   2.618 -1.4692 -2.3105 -2.8655
  618SOL     OW 1852   0.394   0.741   1.718  0.1732  0.2697  0.2632
  618SOL    HW1 1853   0.470   0.717   1.652 -1.3439  3.2267 -0.0412
  618SOL    HW2 1854   0.422   0.822   1.765  0.4082 -0.5562  0.4360
  619SOL     OW 1855   2.591   0.776   1.700 -0.5355 -0.1726  0.1260
  619SOL    HW1 1856   2.677   0.719   1.702  3.9352 -1.3448 -0.9788
  619SOL    HW2 1857   2.512   0.737   1.752 -3.6047 -0.3482  0.2766
  620SOL     OW 1858   2.048   1.193   3.045  0.0420 -0.1431 -0.0119
  620SOL    HW1 1859   1.968   1.155   2.996  2.2656  0.2868 -2.0193
  620SOL    HW2 1860   2.013   1.212   0.039 -0.3230  0.7555  0.5127
  621SOL     OW 1861   2.287   2.714   1.141  0.1799 -0.0078  0.0746
  621SOL    HW1 1862   2.385   2.709   1.174  1.2548 -0.2383 -0.9145
  621SOL    HW2 1863   2.248   2.806   1.162  1.5440  0.1632 -0.3279
  622SOL     OW 1864   1.609   0.673   1.931 -0.2328 -0.5807  0.4500
  622SOL    HW1 1865   1.599   0.643   1.834 -0.5135 -1.6001 -0.7948
  622SOL    HW2 1866   1.535   0.640   1.987  3.9824  0.6998 -2.5599
  623SOL     OW 1867   1.124   0.937   2.546  0.1331  0.0789 -0.2970
  623SOL    HW1 1868   1.125   1.021   2.490  1.5766 -1.6398  2.1382
  623SOL    HW2 1869   1.147   0.960   2.644  3.8851  0.1062 -0.9195
  624SOL     OW 1870   1.788   0.164   0.738 -0.0664 -0.2849 -0.3170
  624SOL    HW1 1871   1.758   0.196   0.646 -0.6554 -0.7921  0.1685
  624SOL    HW2 1872   1.835   0.076   0.720 -1.7831 -0.4727 -2.1438
  625SOL     OW 1873   0.529   1.488   0.452  0.4790  0.0173  0.2982
  625SOL    HW1 1874   0.584   1.409   0.487  0.3972 -1.5549  3.1474
  625SOL    HW2 1875   0.495   1.549   0.527 -1.0892  2.5941  3.0735
  626SOL     OW 1876   1.681   1.213   2.318  0.4161 -0.4423  0.1683
  626SOL    HW1 1877   1.688   1.244   2.223 -0.4650 -0.4333 -2.2057
  626SOL    HW2 1878   1.587   1.233   2.358 -0.2624 -0.0423 -3.2259
  627SOL     OW 1879   0.804   0.409   1.870 -0.1263 -0.3613  0.1964
  627SOL    HW1 1880   0.871   0.395   1.949  1.0670  0.6353 -1.6865
  627SOL    HW2 1881   0.711   0.374   1.886  2.2153 -1.0199  1.4891
  628SOL     OW 1882   2.205   0.804   2.379 -0.0716  0.2703 -0.0305
  628SOL    HW1 1883   2.197   0.727   2.316 -2.2529  4.5730  3.1461
  628SOL    HW2 1884   2.149   0.882   2.342 -0.5350 -0.2836  2.1353
  629SOL     OW 1885   0.757   1.500   0.066  0.1680 -0.2010 -0.5434
  629SOL    HW1 1886   0.685   1.535   0.129  2.6791 -2.2076  0.5444
  629SOL    HW2 1887   0.762   1.550   3.073  0.8611 -1.8961 -1.5779
  630SOL     OW 1888   1.065   0.600   2.167  0.4376  0.2962 -0.5980
  630SOL    HW1 1889   1.038   0.693   2.136  1.3622 -2.2432 -0.4144
  630SOL    HW2 1890   1.046   0.589   2.263  1.9534 -1.1886 -4.8183
  631SOL     OW 1891   2.701   0.815   0.995  0.0652  0.0230 -0.0197
  631SOL    HW1 1892   2.615   0.778   1.042 -0.0915  0.6148  0.2650
  631SOL    HW2 1893   2.731   0.747   0.925 -2.7524 -0.3437 -0.4957
  632SOL     OW 1894   2.566   1.470   0.763 -0.1013  0.0967 -0.3329
  632SOL    HW1 1895   2.646   1.429   0.818  3.6323 -2.8398  0.2125
  632SOL    HW2 1896   2.594   1.557   0.718 -0.2889 -0.5529  2.4524
  633SOL     OW 1897   0.774   1.399   0.774 -0.0823  0.2147 -0.4824
  633SOL    HW1 1898   0.709   1.361   0.839 -0.0740  1.0299  0.3223
  633SOL    HW2 1899   0.761   1.352   0.686 -2.4138  0.8768 -3.3910
  634SOL     OW 1900   1.452   3.028   0.607  0.3011 -0.0309  0.4244
  634SOL    HW1 1901   1.385   3.089   0.565  0.6750  0.1261  1.0657
  634SOL    HW2 1902   1.478   3.071   0.690  0.5261 -1.8351 -4.8716
  635SOL     OW 1903   1.921   0.525   1.467 -0.3187 -0.2580  0.2201
  635SOL    HW1 1904   1.986   0.535   1.387 -0.5035  1.4616 -0.4678
  635SOL    HW2 1905   1.866   0.609   1.468  1.9496  1.3656 -2.2947
  636SOL     OW 1906   1.122   0.638   0.697  0.1001 -0.3508 -0.0004
  636SOL    HW1 1907   1.154   0.623   0.789 -1.2944  2.2843 -3.1411
  636SOL    HW2 1908   1.062   0.564   0.657 -0.2796 -2.3844 -0.5863
  637SOL     OW 1909   1.963   1.912   2.865 -0.0750  0.5178  0.2175
  637SOL    HW1 1910   2.009   1.918   2.955  1.0334  2.1606  2.7482
  637SOL    HW2 1911   1.955   2.011   2.829 -0.3255  0.4780 -0.5062
  638SOL     OW 1912   1.027   3.045   2.780  0.0298 -0.0649 -0.3188
  638SOL    HW1 1913   1.035   3.005   2.875  0.4987  1.1804 -0.6222
  638SOL    HW2 1914   0.948   0.010   2.773  0.5135  1.0299 -0.5557
  639SOL     OW 1915   1.243   2.063   1.427  0.4248  0.1826  0.2214
  639SOL    HW1 1916   1.221   1.964   1.448  1.8895  0.9429 -0.0026
  639SOL    HW2 1917   1.247   2.090   1.327  2.0252 -2.0164 -2.8644
  640SOL     OW 1918   0.507   0.089   2.868 -0.0628 -0.4761  0.5840
  640SOL    HW1 1919   0.461   0.080   2.960 -0.4614 -1.0927  0.7804
  640SOL    HW2 1920   0.447   0.050   2.794 -1.5578 -0.8510 -0.3448
  641SOL     OW 1921   0.443   0.724   0.289  0.4203  0.0178 -0.0416
  641SOL    HW1 1922   0.346   0.688   0.309 -1.8395 -2.5980 -2.7971
  641SOL    HW2 1923   0.464   0.813   0.337  0.8675  2.6347  1.3236
  642SOL     OW 1924   0.323   1.676   1.288 -0.2664 -0.2344  0.1775
  642SOL    HW1 1925   0.418   1.716   1.295 -1.1894 -0.4722  1.6690
  642SOL    HW2 1926   0.312   1.587   1.239  0.0483 -0.7242 -1.1338
  643SOL     OW 1927   0.698   1.886   2.642 -0.0782  0.1066  0.2235
  643SOL    HW1 1928   0.601   1.879   2.604 -0.7351  1.6919  1.4524
  643SOL    HW2 1929   0.698   1.914   2.740 -0.7280 -0.1374  0.3311
  644SOL     OW 1930   1.620   2.378   0.113  0.5106 -0.1822 -0.1279
  644SOL    HW1 1931   1.715   2.380   0.142 -1.9243  0.4421 -2.8986
  644SOL    HW2 1932   1.560   2.380   0.195  0.5192  0.6514 -2.1399
  645SOL     OW 1933   1.714   2.058   1.630  0.0072 -0.3123  0.5045
  645SOL    HW1 1934   1.614   2.050   1.658 -0.4474 -0.5588  0.4591
  645SOL    HW2 1935   1.772   2.093   1.707 -1.4255 -0.7782 -1.7738
  646SOL     OW 1936   0.555   2.585   0.251  0.1325  0.2293 -0.4807
  646SOL    HW1 1937   0.648   2.551   0.238 -0.1017  0.6843  0.9414
  646SOL    HW2 1938   0.552   2.676   0.204  0.3874 -0.8788  0.7727
  647SOL     OW 1939   0.106   2.943   2.158 -0.2119  0.0176  0.7208
  647SOL    HW1 1940   0.014   2.936   2.198  0.4104 -2.7256  0.8674
  647SOL    HW2 1941   0.177   2.967   2.224 -2.2641  2.0961 -0.7782
  648SOL     OW 1942   2.703   1.175   1.032 -0.2146  0.2511 -0.1046
  648SOL    HW1 1943   2.779   1.118   0.996 -0.1866 -1.1947 -1.4622
  648SOL    HW2 1944   2.617   1.143   0.988  0.5035 -0.5753  0.4727
  649SOL     OW 1945   1.941   2.649   2.676 -0.2334  0.2558 -0.0451
  649SOL    HW1 1946   1.942   2.580   2.753  1.4194 -2.0332  1.8351
  649SOL    HW2 1947   2.011   2.716   2.703  0.5290 -0.7729 -1.1749
  650SOL     OW 1948   2.243   1.604   1.959  0.2706 -0.5955 -0.6096
  650SOL    HW1 1949   2.190   1.623   1.876  1.1114 -1.7258 -0.3571
  650SOL    HW2 1950   2.323   1.543   1.942 -0.6836  2.7856 -3.5395
  651SOL     OW 1951   1.099   1.859   2.834  0.1971  0.1770 -0.0732
  651SOL    HW1 1952   1.168   1.914   2.783 -0.3199 -2.4383 -0.5747
  651SOL    HW2 1953   1.145   1.799   2.902  2.4912 -2.9649  0.6878
  652SOL     OW 1954   0.653   3.080   2.530  0.0823 -0.0122  0.5289
  652SOL    HW1 1955   0.615   0.070   2.522 -0.2973 -0.9709  1.2653
  652SOL    HW2 1956   0.612   3.030   2.612 -0.6288  0.9618  0.9754
  653SOL     OW 1957   2.414   1.714   1.044 -0.1135  0.3662  0.2714
  653SOL    HW1 1958   2.427   1.683   1.144  2.3754  0.3201 -0.5368
  653SOL    HW2 1959   2.494   1.768   1.009  1.0856 -2.5822 -2.9784
  654SOL     OW 1960   2.387   2.889   2.102  0.0498  0.3561  0.3177
  654SOL    HW1 1961   2.295   2.884   2.148 -0.4241  1.4591 -1.5738
  654SOL    HW2 1962   2.423   2.983   2.093  0.7860 -0.7252  2.4554
  655SOL     OW 1963   2.697   2.200   1.013 -0.5266 -0.4138 -0.3209
  655SOL    HW1 1964   2.740   2.275   1.073  2.3863  1.7617  2.3545
  655SOL    HW2 1965   2.605   2.214   0.983  1.3929  2.3872  0.6174
  656SOL     OW 1966   2.662   1.639   2.760 -0.3203  0.7632  0.3969
  656SOL    HW1 1967   2.699   1.729   2.730 -0.5565 -1.9662 -3.4381
  656SOL    HW2 1968   2.671   1.626   2.858 -1.2905 -0.3956 -1.3434
  657SOL     OW 1969   0.111   1.167   0.468 -0.0102 -0.1368  0.1129
  657SOL    HW1 1970   0.013   1.150   0.447  0.5114 -1.5416  2.0917
  657SOL    HW2 1971   0.121   1.197   0.566  3.0424 -0.4386  1.8357
  658SOL     OW 1972   1.388   1.671   1.429 -0.2189 -0.5581  0.3218
  658SOL    HW1 1973   1.343   1.642   1.338  0.1330  1.9717 -0.8818
  658SOL    HW2 1974   1.317   1.716   1.486 -1.1531  0.6314  0.8340
  659SOL     OW 1975   1.178   3.089   1.375  0.4294 -0.1571 -0.7486
  659SOL    HW1 1976   1.169   0.039   1.290  0.0788 -1.8323  1.3506
  659SOL    HW2 1977   1.143   0.046   1.453  0.4582  3.9224  0.0351
  660SOL     OW 1978   2.291   0.533   0.914 -0.5470  0.5380  0.1120
  660SOL    HW1 1979   2.313   0.539   0.814  1.6008  0.6263 -1.6376
  660SOL    HW2 1980   2.200   0.517   0.940  2.7750 -1.7807 -2.6383
  661SOL     OW 1981   0.453   1.789   0.099 -0.2244  0.8152 -0.1233
  661SOL    HW1 1982   0.522   1.728   0.141 -0.5644  0.5880  2.1739
  661SOL    HW2 1983   0.499   1.844   0.027  0.5112  2.3233 -0.8364
  662SOL     OW 1984   2.039   0.905   1.999 -0.3413 -0.3433 -0.2311
  662SOL    HW1 1985   2.137   0.887   2.000 -1.9722 -0.5526 -0.5090
  662SOL    HW2 1986   2.013   0.935   1.908 -0.6702 -1.5723 -1.8057
  663SOL     OW 1987   2.000   1.294   1.036 -0.0139 -0.6803  0.4829
  663SOL    HW1 1988   2.017   1.292   0.935  1.7740 -0.8561 -2.0732
  663SOL    HW2 1989   2.050   1.375   1.079  0.8342 -0.1032 -0.2554
  664SOL     OW 1990   0.359   0.061   1.231 -0.1980  0.0011 -0.5368
  664SOL    HW1 1991   0.407   0.005   1.160  3.5295  2.5481 -1.9310
  664SOL    HW2 1992   0.369   0.022   1.327  0.2150 -2.9864  0.4158
  665SOL     OW 1993   1.474   0.359   2.789  0.3561  0.4362  0.4896
  665SOL    HW1 1994   1.488   0.349   2.891 -0.4741  0.6352  2.6930
  665SOL    HW2 1995   1.478   0.459   2.756  1.9476  2.0523 -1.2434
  666SOL     OW 1996   0.708   0.484   2.287  0.5158  0.3701 -0.4573
  666SOL    HW1 1997   0.741   0.386   2.267  1.8485  0.1090  2.4429
  666SOL    HW2 1998   0.621   0.506   2.235 -0.4417  1.0653 -0.5133
  667SOL     OW 1999   1.607   1.569   1.588  0.1236 -0.2833 -0.2018
  667SOL    HW1 2000   1.653   1.596   1.678  0.6054 -0.5073 -0.1525
  667SOL    HW2 2001   1.533   1.640   1.564 -1.7948  1.5855  0.4774
  668SOL     OW 2002   0.456   1.240   2.397 -0.0152 -0.2786 -0.1705
  668SOL    HW1 2003   0.487   1.139   2.379 -0.6861 -0.6124 -0.6618
  668SOL    HW2 2004   0.448   1.285   2.308  0.1870  0.9470  0.6909
  669SOL     OW 2005   2.547   2.586   3.046 -0.5629 -0.5690  0.2100
  669SOL    HW1 2006   2.618   2.544   2.987  0.1620  0.1960 -2.9996
  669SOL    HW2 2007   2.568   2.574   0.045  0.2121 -0.6069  0.8698
  670SOL     OW 2008   2.642   1.260   1.915  0.3598 -0.3816  0.1245
  670SOL    HW1 2009   2.599   1.200   1.850 -1.2505  1.1015 -3.8800
  670SOL    HW2 2010   2.630   1.232   2.012  2.5780  1.1591 -0.7350
  671SOL     OW 2011   2.586   1.697   0.628 -0.1284 -0.1785  0.1657
  671SOL    HW1 2012   2.515   1.767   0.611  1.0881 -0.5890  1.6998
  671SOL    HW2 2013   2.662   1.683   0.564  1.4551 -2.1427 -0.3865
  672SOL     OW 2014   1.435   1.017   1.930  0.4972  0.2070  0.0442
  672SOL    HW1 2015   1.524   1.006   1.977 -3.6524  3.2163 -0.5202
  672SOL    HW2 2016   1.457   1.037   1.831  0.2110 -0.3995 -1.8167
  673SOL     OW 2017   2.670   1.978   1.619  0.2433 -0.2171  0.4486
  673SOL    HW1 2018   2.675   2.079   1.629  0.3159 -1.9610 -0.2094
  673SOL    HW2 2019   2.707   1.960   1.523  0.5749 -1.0413 -1.9794
  674SOL     OW 2020   1.190   1.830   1.532 -0.0395  0.3608  0.3170
  674SOL    HW1 2021   1.243   1.801   1.617  2.0319 -1.3060  0.9278
  674SOL    HW2 2022   1.092   1.801   1.531 -2.2737 -0.7361 -1.0929
  675SOL     OW 2023   3.046   0.924   1.197  0.0451 -0.1963 -0.1121
  675SOL    HW1 2024   0.018   0.993   1.195 -0.6703  0.6752 -1.8171
  675SOL    HW2 2025   3.075   0.823   1.187  0.4754 -1.6850 -1.8561
  676SOL     OW 2026   2.949   0.966   1.597 -0.0339 -0.0236 -0.2757
  676SOL    HW1 2027   2.968   0.902   1.675  0.2773  0.1692 -1.0375
  676SOL    HW2 2028   2.930   0.911   1.517 -1.4360 -0.1393  1.7754
  677SOL     OW 2029   2.001   1.181   2.620  0.2636  0.1276 -0.3596
  677SOL    HW1 2030   2.006   1.202   2.520 -3.0778  0.4982  0.9059
  677SOL    HW2 2031   2.051   1.254   2.677  2.0958  1.0515 -2.2573
  678SOL     OW 2032   2.735   1.619   1.173  0.1584  0.1855  0.7151
  678SOL    HW1 2033   2.767   1.541   1.115  1.3836  1.9353  2.4641
  678SOL    HW2 2034   2.809   1.664   1.220 -0.7084  0.3491 -0.5322
  679SOL     OW 2035   0.122   2.573   0.293 -0.2295  0.3383 -0.5230
  679SOL    HW1 2036   0.068   2.519   0.227 -1.0522  0.8980  2.7644
  679SOL    HW2 2037   0.209   2.527   0.311 -2.3230  0.8782  1.9788
  680SOL     OW 2038   0.100   1.776   1.143  0.1856  0.0229 -0.2942
  680SOL    HW1 2039   0.118   1.874   1.121 -1.3568 -0.5360 -0.9810
  680SOL    HW2 2040   0.186   1.734   1.182 -1.5218 -1.1286  1.1078
  681SOL     OW 2041   1.127   0.097   0.880  0.3237 -0.6755  0.3854
  681SOL    HW1 2042   1.140   0.170   0.815 -0.9566  0.2536  0.0729
  681SOL    HW2 2043   1.205   0.031   0.858 -2.1607 -1.6312  0.4289
  682SOL     OW 2044   1.813   2.464   1.648  0.3127  0.1692  0.1192
  682SOL    HW1 2045   1.910   2.490   1.658 -1.1069 -1.5826 -1.2278
  682SOL    HW2 2046   1.787   2.463   1.550 -1.1773 -1.2663  1.7788
  683SOL     OW 2047   2.531   1.592   1.665 -0.3846 -0.4791 -0.1886
  683SOL    HW1 2048   2.489   1.670   1.613  0.4137  2.1688 -1.3947
  683SOL    HW2 2049   2.618   1.558   1.615  3.8140 -2.7672 -0.0878
  684SOL     OW 2050   3.098   1.575   2.051 -0.2425  0.5503  0.6989
  684SOL    HW1 2051   3.013   1.521   2.051  1.4977  1.0267  0.4625
  684SOL    HW2 2052   3.085   1.674   2.036  0.0086  0.6933 -3.3812
  685SOL     OW 2053   1.576   1.433   0.277  0.0386  0.0792 -0.2696
  685SOL    HW1 2054   1.600   1.516   0.330 -0.3352  1.8737  2.9386
  685SOL    HW2 2055   1.638   1.417   0.196  3.0622  0.6570 -0.6617
  686SOL     OW 2056   2.827   0.602   1.698 -0.2143  0.1372  0.1732
  686SOL    HW1 2057   2.900   0.658   1.742  1.2258 -0.8102  3.9205
  686SOL    HW2 2058   2.852   0.568   1.602 -1.5689 -0.3602  1.8738
  687SOL     OW 2059   1.644   0.215   2.625  0.3360  0.4770 -0.2519
  687SOL    HW1 2060   1.671   0.121   2.661  0.2359 -0.3622  0.7061
  687SOL    HW2 2061   1.584   0.269   2.696 -0.6717  1.9465  2.9585
  688SOL     OW 2062   1.300   1.644   2.613 -0.8778 -0.3038  0.6190
  688SOL    HW1 2063   1.217   1.596   2.595  1.1902  0.9668  0.9319
  688SOL    HW2 2064   1.278   1.739   2.638  0.6592 -2.0365 -0.1013
  689SOL     OW 2065   2.288   1.433   1.629  0.2678  0.1019 -0.3295
  689SOL    HW1 2066   2.259   1.421   1.725 -0.6440 -1.8291 -0.1922
  689SOL    HW2 2067   2.381   1.474   1.623 -0.9578  0.1566 -0.5124
  690SOL     OW 2068   2.411   2.221   1.414 -0.4287 -0.5841 -0.0417
  690SOL    HW1 2069   2.402   2.205   1.515 -0.1399 -0.0821 -1.7242
  690SOL    HW2 2070   2.410   2.137   1.364  0.1737  1.4048  1.3921
  691SOL     OW 2071   0.227   1.659   0.555  0.1286 -0.2604  0.5050
  691SOL    HW1 2072   0.271   1.714   0.481  0.6831  2.3977 -0.6713
  691SOL    HW2 2073   0.206   1.720   0.638  0.1246 -2.3372  0.1399
  692SOL     OW 2074   2.704   2.897   2.611  0.2574  0.1168  0.0256
  692SOL    HW1 2075   2.775   2.969   2.608  1.9546  1.3363  0.2724
  692SOL    HW2 2076   2.653   2.905   2.523  0.6360 -0.2992  2.2432
  693SOL     OW 2077   0.437   1.355   2.154 -0.9270 -0.4540 -0.0769
  693SOL    HW1 2078   0.414   1.289   2.076  1.7848 -0.4536 -0.0940
  693SOL    HW2 2079   0.391   1.444   2.141  1.8771 -1.4061 -0.4638
  694SOL     OW 2080   2.490   0.440   2.074 -0.2948  0.6549 -0.3784
  694SOL    HW1 2081   2.579   0.492   2.081  1.0198 -0.1224  1.5251
  694SOL    HW2 2082   2.457   0.429   1.983 -0.6540  1.2348  2.3935
  695SOL     OW 2083   1.373   0.825   2.120 -0.0582 -0.6357 -0.5819
  695SOL    HW1 2084   1.428   0.837   2.207  1.2236 -1.7635 -0.8214
  695SOL    HW2 2085   1.422   0.864   2.038  0.4359  0.4042 -1.9063
  696SOL     OW 2086   2.322   2.915   1.648  0.6777  0.6054 -0.0998
  696SOL    HW1 2087   2.296   2.949   1.741  0.7299  3.8351  1.1043
  696SOL    HW2 2088   2.253   2.933   1.578  1.2599  0.2056  1.7080
  697SOL     OW 2089   1.001   0.353   2.069  0.2218  0.1313  0.3416
  697SOL    HW1 2090   0.956   0.309   2.147  0.1162  0.7403  1.5348
  697SOL    HW2 2091   1.038   0.448   2.092 -0.8856  1.6479  2.2136
  698SOL     OW 2092   2.395   1.628   2.760 -0.2932 -0.4285  0.5616
  698SOL    HW1 2093   2.400   1.529   2.727  1.1037 -0.2932 -0.0584
  698SOL    HW2 2094   2.494   1.671   2.751  3.9323  1.8698 -1.9604
  699SOL     OW 2095   2.167   0.659   0.370  0.0393 -0.4819 -0.1024
  699SOL    HW1 2096   2.109   0.703   0.297  1.2008 -2.4327 -0.8385
  699SOL    HW2 2097   2.202   0.721   0.438  0.1524 -1.3989 -1.0099
  700SOL     OW 2098   1.293   2.985   0.894  0.6636 -0.0502  0.1614
  700SOL    HW1 2099   1.394   2.986   0.897 -1.7458 -0.2316 -0.1732
  700SOL    HW2 2100   1.257   2.928   0.970  0.6681 -0.6826  1.4507
  701SOL     OW 2101   3.000   0.447   0.472  0.1469  0.0695 -0.1145
  701SOL    HW1 2102   2.972   0.504   0.393  1.3302  0.3266  2.0478
  701SOL    HW2 2103   3.049   0.500   0.546 -0.8337 -1.4975  0.1575
  702SOL     OW 2104   1.750   2.548   1.396 -0.1529  0.4096 -0.5363
  702SOL    HW1 2105   1.757   2.461   1.341 -1.3633 -0.1262  0.2998
  702SOL    HW2 2106   1.772   2.633   1.340  1.4482  2.6010 -1.8008
  703SOL     OW 2107   0.035   0.673   1.167  0.1330 -0.4668 -0.4625
  703SOL    HW1 2108   0.040   0.625   1.257  2.9716 -1.8254 -0.1354
  703SOL    HW2 2109   0.069   0.614   1.093 -1.1281  1.0838  2.6644
  704SOL     OW 2110   0.881   2.737   1.672 -0.1630 -0.5403 -0.4532
  704SOL    HW1 2111   0.954   2.773   1.616  0.5666  1.4119 -0.1085
  704SOL    HW2 2112   0.793   2.790   1.661 -1.8715  1.4139 -1.1763
  705SOL     OW 2113   0.020   1.939   3.038  0.6265  0.3062  0.0375
  705SOL    HW1 2114   0.094   1.893   3.092 -0.1088  2.0913 -0.1073
  705SOL    HW2 2115   3.055   1.975   0.004  0.2519  0.0042  2.5588
  706SOL     OW 2116   0.239   0.418   0.295 -0.6551 -0.2097  0.1167
  706SOL    HW1 2117   0.334   0.384   0.279 -0.0958 -1.4672  0.4442
  706SOL    HW2 2118   0.197   0.371   0.374 -1.7403  2.8983 -1.7242
  707SOL     OW 2119   1.670   2.822   2.014 -0.1144 -0.2599  0.2597
  707SOL    HW1 2120   1.653   2.739   2.067 -0.9318  0.1595  2.6132
  707SOL    HW2 2121   1.597   2.889   2.029  0.3258 -1.1165  1.6558
  708SOL     OW 2122   0.384   0.151   1.686 -0.3122  0.2912  0.3192
  708SOL    HW1 2123   0.372   0.088   1.607 -1.8621  2.8488  0.5812
  708SOL    HW2 2124   0.307   0.144   1.757  1.5782  0.6632  1.6719
  709SOL     OW 2125   3.031   0.801   1.782 -0.5368 -0.2602  0.7089
  709SOL    HW1 2126   0.009   0.803   1.714  2.7820  0.8820 -1.0631
  709SOL    HW2 2127   3.058   0.779   1.875  0.0684 -1.5580 -2.2113
  710SOL     OW 2128   0.334   0.762   0.873 -0.0957  0.4072  0.4589
  710SOL    HW1 2129   0.328   0.755   0.771 -0.2313  0.0304  0.8301
  710SOL    HW2 2130   0.315   0.861   0.898 -0.9530  1.6461 -0.2522
  711SOL     OW 2131   2.386   2.668   1.944 -0.0249  0.9104  0.6323
  711SOL    HW1 2132   2.373   2.608   2.024  2.3903 -0.5583  1.6366
  711SOL    HW2 2133   2.373   2.764   1.974 -1.5230 -2.6177 -0.1782
  712SOL     OW 2134   0.174   2.597   2.317 -0.4531 -0.4010  0.2448
  712SOL    HW1 2135   0.229   2.672   2.361  2.4309 -0.0424 -3.0168
  712SOL    HW2 2136   0.074   2.620   2.313  2.1182 -1.3559 -0.1682
  713SOL     OW 2137   2.606   0.249   0.662  0.0148 -0.0486 -0.2613
  713SOL    HW1 2138   2.564   0.319   0.603  1.4603 -1.4559  1.0680
  713SOL    HW2 2139   2.701   0.228   0.639  0.5585  1.1436 -0.1120
  714SOL     OW 2140   2.008   1.680   2.593 -0.1191  0.0585  0.0972
  714SOL    HW1 2141   1.911   1.675   2.572  0.6955 -0.4323  2.0776
  714SOL    HW2 2142   2.054   1.759   2.562 -0.0123 -1.7027  4.3180
  715SOL     OW 2143   0.106   0.447   0.892 -0.0396 -0.5974 -0.3033
  715SOL    HW1 2144   0.207   0.448   0.907 -2.4322 -2.7557 -4.6289
  715SOL    HW2 2145   0.083   0.504   0.811 -0.4523  0.2982 -0.5023
  716SOL     OW 2146   0.756   0.646   1.768  0.4703  0.1800 -0.3627
  716SOL    HW1 2147   0.690   0.642   1.687 -1.5766  3.4478  1.4166
  716SOL    HW2 2148   0.775   0.553   1.808 -0.4066  0.0032  1.6021
  717SOL     OW 2149   0.888   0.805   2.484 -0.1540  0.7982 -0.0441
  717SOL    HW1 2150   0.819   0.861   2.539 -1.3420 -0.1326  2.5176
  717SOL    HW2 2151   0.980   0.834   2.509  0.5011  0.2970 -0.0820
  718SOL     OW 2152   1.227   0.046   0.534 -0.2834  0.2156 -0.1984
  718SOL    HW1 2153   1.212   0.131   0.587  1.0163  0.3827 -0.7250
  718SOL    HW2 2154   1.172   0.041   0.449  0.3264 -0.2587 -1.2882
  719SOL     OW 2155   2.951   2.584   2.958 -0.0606  0.2222  0.5503
  719SOL    HW1 2156   2.859   2.547   2.941 -0.1901 -2.5119 -0.2124
  719SOL    HW2 2157   2.995   2.588   2.870  0.0591 -1.2520 -0.3356
  720SOL     OW 2158   1.296   0.569   1.782  0.2722 -0.0592  0.3394
  720SOL    HW1 2159   1.379   0.544   1.732 -3.1459  1.1369 -1.1355
  720SOL    HW2 2160   1.303   0.553   1.887 -3.4231  0.1869  1.5186
  721SOL     OW 2161   0.119   2.872   1.032 -0.3210 -0.2689  0.8281
  721SOL    HW1 2162   0.054   2.928   0.976  0.2670  1.0924  0.4766
  721SOL    HW2 2163   0.098   2.771   1.043 -0.7277  0.3728  1.5110
  722SOL     OW 2164   0.725   1.219   2.903  0.1792 -0.7120 -0.3518
  722SOL    HW1 2165   0.755   1.279   2.827  0.1572  1.0628 -0.5758
  722SOL    HW2 2166   0.620   1.222   2.916 -3.9649  0.8294  3.0189
  723SOL     OW 2167   2.150   1.107   1.300  0.0881 -0.7748  0.2571
  723SOL    HW1 2168   2.221   1.142   1.240 -4.7232  1.1532  2.0452
  723SOL    HW2 2169   2.175   1.133   1.398  1.8499 -1.4971 -0.8250
  724SOL     OW 2170   0.835   1.782   0.250  0.5749  0.0510  0.5675
  724SOL    HW1 2171   0.903   1.729   0.308 -1.1440 -1.5782  2.9647
  724SOL    HW2 2172   0.885   1.828   0.169 -0.7137 -0.7921 -1.2159
  725SOL     OW 2173   0.125   0.826   1.591 -0.1948  0.2260 -0.2637
  725SOL    HW1 2174   0.217   0.824   1.640  2.6157  1.3077  3.0066
  725SOL    HW2 2175   0.140   0.848   1.489 -0.1765  0.9554 -1.3147
  726SOL     OW 2176   2.502   0.877   3.043 -0.0982  0.5939 -0.2268
  726SOL    HW1 2177   2.495   0.919   2.951 -1.7714  1.4594  0.4756
  726SOL    HW2 2178   2.520   0.775   3.040 -0.7397 -3.2823  1.0481
  727SOL     OW 2179   2.208   0.978   2.655 -0.0877  0.1893 -0.2453
  727SOL    HW1 2180   2.154   1.059   2.634  2.9377 -4.3672 -2.3010
  727SOL    HW2 2181   2.279   0.959   2.584 -1.6455 -1.3202 -0.5736
  728SOL     OW 2182   1.887   2.119   1.252 -0.3224  0.2106 -0.0950
  728SOL    HW1 2183   1.797   2.116   1.300  1.0539  1.0247  0.8820
  728SOL    HW2 2184   1.905   2.047   1.182 -4.6410  1.4314  0.9674
  729SOL     OW 2185   1.687   1.001   2.029  0.4734  0.1934  0.1388
  729SOL    HW1 2186   1.714   1.097   2.047 -2.7358 -1.2345 -1.6436
  729SOL    HW2 2187   1.735   0.940   2.090 -2.7407 -0.9315  0.6458
  730SOL     OW 2188   1.239   0.527   0.931 -0.2342 -0.2540 -0.5072
  730SOL    HW1 2189   1.285   0.550   1.015  1.1443  2.2005 -3.2224
  730SOL    HW2 2190   1.280   0.440   0.897  2.6359 -1.1879 -3.7878
  731SOL     OW 2191   0.817   0.909   3.031 -0.3101 -0.0574 -0.5382
  731SOL    HW1 2192   0.854   0.989   2.980  2.6061  3.4309  1.9875
  731SOL    HW2 2193   0.714   0.910   3.027 -0.0728  0.3983 -0.7481
  732SOL     OW 2194   0.542   0.958   0.442 -0.2068 -0.6733  0.6656
  732SOL    HW1 2195   0.622   0.985   0.497 -0.0776 -1.3762  0.3899
  732SOL    HW2 2196   0.456   0.948   0.497  0.7923 -1.6827  0.1692
  733SOL     OW 2197   1.388   1.552   2.368  0.1567 -0.4727 -0.3335
  733SOL    HW1 2198   1.367   1.584   2.466 -1.5265  1.3023  2.7732
  733SOL    HW2 2199   1.323   1.602   2.306 -0.6524  4.2851  0.3650
  734SOL     OW 2200   0.282   2.283   3.009  0.3583 -0.0418 -0.0817
  734SOL    HW1 2201   0.220   2.223   2.958 -0.4043 -1.7807  0.6908
  734SOL    HW2 2202   0.373   2.292   2.964  0.3361 -0.2471 -3.7155
  735SOL     OW 2203   2.490   0.349   0.931 -0.1758 -0.1558  0.0195
  735SOL    HW1 2204   2.404   0.399   0.913 -0.6063  3.3103 -2.3349
  735SOL    HW2 2205   2.536   0.325   0.843  2.7139  0.7654  0.4462
  736SOL     OW 2206   2.087   1.496   2.408  0.4687 -0.0097  0.3370
  736SOL    HW1 2207   2.186   1.484   2.407 -1.6586  2.4829 -1.3625
  736SOL    HW2 2208   2.057   1.562   2.476 -1.6336  0.2407 -0.5157
  737SOL     OW 2209   0.185   0.694   0.355 -0.9470  0.4240 -0.0604
  737SOL    HW1 2210   0.135   0.754   0.294  3.8374 -0.7998  3.5977
  737SOL    HW2 2211   0.171   0.595   0.337  2.0136 -0.6010 -0.2680
  738SOL     OW 2212   0.984   1.914   1.271 -0.6145  0.8357 -0.6964
  738SOL    HW1 2213   0.979   1.832   1.331 -0.9007  1.7851  1.2859
  738SOL    HW2 2214   0.895   1.959   1.271  3.6628  0.8579 -1.2168
  739SOL     OW 2215   1.317   2.886   2.126  0.7279  0.2604 -0.2950
  739SOL    HW1 2216   1.386   2.958   2.141 -0.1218 -2.2240 -2.3713
  739SOL    HW2 2217   1.316   2.861   2.030 -1.6902 -4.3213 -0.3108
  740SOL     OW 2218   2.215   2.392   1.464 -0.8201  0.2239  0.3812
  740SOL    HW1 2219   2.289   2.334   1.422  0.3916  3.9622 -1.2215
  740SOL    HW2 2220   2.222   2.395   1.563 -2.4121 -1.0696 -3.9381
  741SOL     OW 2221   2.373   0.450   0.076  0.1770  0.2385  0.4060
  741SOL    HW1 2222   2.407   0.370   0.027 -1.1378  1.4804 -0.1786
  741SOL    HW2 2223   2.288   0.429   0.132 -3.1271 -0.8583  2.9247
  742SOL     OW 2224   1.182   2.248   3.006  1.0851  0.4049 -0.4689
  742SOL    HW1 2225   1.147   2.226   2.914 -0.0768 -0.6037  3.1160
  742SOL    HW2 2226   1.208   2.347   3.015  1.7759  0.3390 -1.5815
  743SOL     OW 2227   2.655   1.213   2.208  0.2548  0.1470  0.1207
  743SOL    HW1 2228   2.706   1.163   2.280  1.7165  0.8620 -5.3951
  743SOL    HW2 2229   2.556   1.182   2.216  1.9410  2.0173 -1.9829
  744SOL     OW 2230   2.863   0.044   0.307 -0.0274  0.0357  0.0711
  744SOL    HW1 2231   2.939   0.056   0.240  0.9914  0.4270  1.0400
  744SOL    HW2 2232   2.776   0.058   0.258  2.5364 -0.6108 -0.6436
  745SOL     OW 2233   2.263   1.545   1.366  0.1445 -0.5732 -0.5056
  745SOL    HW1 2234   2.275   1.484   1.449  2.3974  0.7292  1.5182
  745SOL    HW2 2235   2.348   1.589   1.337 -2.9616  1.2338 -1.4814
  746SOL     OW 2236   0.922   1.741   0.614 -0.2718  0.2316  0.4650
  746SOL    HW1 2237   1.019   1.760   0.633 -3.0990  0.5845 -0.8188
  746SOL    HW2 2238   0.915   1.665   0.543 -1.3751 -1.5095 -3.0047
  747SOL     OW 2239   1.040   1.515   1.751  0.7875 -0.0846  0.7504
  747SOL    HW1 2240   1.109   1.518   1.674  2.4987  0.0173 -0.5549
  747SOL    HW2 2241   0.964   1.451   1.725  0.3380 -1.4080  1.8901
  748SOL     OW 2242   0.279   2.932   0.086 -0.2363  0.3505 -0.0965
  748SOL    HW1 2243   0.219   2.913   0.168 -0.1715 -0.3378  0.5118
  748SOL    HW2 2244   0.296   3.031   0.074 -1.2865  0.0855 -2.2454
  749SOL     OW 2245   0.041   0.887   2.738 -0.3275  0.3188 -0.1021
  749SOL    HW1 2246   3.082   0.948   2.791  1.0274 -1.4572 -2.9421
  749SOL    HW2 2247   0.063   0.923   2.643  0.4387 -0.3530 -2.7978
  750SOL     OW 2248   1.596   1.299   1.711 -0.7875 -0.2426 -0.4252
  750SOL    HW1 2249   1.598   1.402   1.705 -2.6170  2.9683 -0.4098
  750SOL    HW2 2250   1.684   1.262   1.677  0.0818  0.8711 -0.0913
  751SOL     OW 2251   2.850   0.569   0.273  0.6833 -0.0475  0.4811
  751SOL    HW1 2252   2.898   0.626   0.200 -1.0916 -0.2834 -0.5349
  751SOL    HW2 2253   2.785   0.506   0.231 -0.3059 -1.2133  0.6850
  752SOL     OW 2254   2.721   2.619   0.977  0.0819 -0.3355  0.0923
  752SOL    HW1 2255   2.760   2.711   0.991 -1.3468  2.8821 -0.4576
  752SOL    HW2 2256   2.777   2.557   0.922 -2.4491  0.3244  1.1391
  753SOL     OW 2257   0.861   2.362   1.154 -0.0252 -0.3654  0.2080
  753SOL    HW1 2258   0.874   2.368   1.255  2.3226  1.3304  0.8231
  753SOL    HW2 2259   0.792   2.292   1.124  0.3978 -1.2098  0.8791
  754SOL     OW 2260   3.075   2.491   1.996  0.4847 -0.1507  0.0755
  754SOL    HW1 2261   3.095   2.592   2.021 -0.8350  0.3155  0.7218
  754SOL    HW2 2262   0.042   2.460   1.928  1.3786  1.8023  1.1941
  755SOL     OW 2263   2.581   0.617   3.019 -0.5618 -0.2665 -0.0538
  755SOL    HW1 2264   2.675   0.596   3.054 -1.5599  0.2214  1.2586
  755SOL    HW2 2265   2.510   0.554   3.051 -1.7967 -0.2543  0.1056
  756SOL     OW 2266   1.881   2.365   0.172 -0.0940  0.2672 -0.3874
  756SOL    HW1 2267   1.949   2.428   0.127 -0.0898  0.6836 -2.4873
  756SOL    HW2 2268   1.917   2.270   0.186 -0.7683 -1.2428  0.5308
  757SOL     OW 2269   2.496   0.474   0.542 -0.6077 -0.3427 -0.1723
  757SOL    HW1 2270   2.454   0.495   0.456 -0.0354 -1.1354  1.5431
  757SOL    HW2 2271   2.461   0.537   0.613  0.8276 -2.1897 -0.2113
  758SOL     OW 2272   2.062   0.975   1.697 -0.3470 -0.2213 -0.0527
  758SOL    HW1 2273   1.985   0.907   1.687  0.3626  0.6712  0.4222
  758SOL    HW2 2274   2.146   0.932   1.648 -1.1525  3.1088 -3.8529
  759SOL     OW 2275   2.723   0.557   1.279 -0.1850 -0.1770 -0.5751
  759SOL    HW1 2276   2.660   0.613   1.229  1.4407  0.9702  0.9219
  759SOL    HW2 2277   2.720   0.459   1.247 -1.1352 -2.0792  1.4795
  760SOL     OW 2278   0.571   1.293   1.357  0.6076  0.3270  0.2966
  760SOL    HW1 2279   0.658   1.247   1.337  1.0641 -4.1263  2.1079
  760SOL    HW2 2280   0.492   1.230   1.373 -0.0246 -0.9689  0.0640
  761SOL     OW 2281   1.069   0.673   0.092  0.1135  0.4179 -0.2169
  761SOL    HW1 2282   1.000   0.648   0.015 -1.3941 -2.3343 -0.5786
  761SOL    HW2 2283   1.102   0.768   0.085 -1.3796  0.5761 -0.7808
  762SOL     OW 2284   0.947   1.710   1.438 -0.2591  0.5446 -0.7770
  762SOL    HW1 2285   0.959   1.616   1.400 -0.0490 -3.1341 -0.3051
  762SOL    HW2 2286   0.859   1.724   1.486  0.5197 -0.2174  0.6364
  763SOL     OW 2287   1.114   0.790   1.459 -0.5093 -0.3693 -0.1476
  763SOL    HW1 2288   1.040   0.809   1.529 -2.2983  2.8532 -2.7201
  763SOL    HW2 2289   1.074   0.748   1.375 -0.4488 -1.4810  2.4956
  764SOL     OW 2290   0.144   2.734   3.046 -0.0046  0.1379 -0.3174
  764SOL    HW1 2291   0.191   2.810   3.099 -0.7421  0.3161  0.5839
  764SOL    HW2 2292   0.055   2.713   3.086 -2.0845  0.5029 -0.5164
  765SOL     OW 2293   0.705   2.950   1.793 -0.5022  0.3894 -0.5292
  765SOL    HW1 2294   0.636   2.884   1.831  0.9893  0.8460  0.4349
  765SOL    HW2 2295   0.661   3.025   1.738  0.6388 -1.9965  0.9735
  766SOL     OW 2296   2.723   1.697   2.231  0.0965 -0.0034 -0.4203
  766SOL    HW1 2297   2.641   1.642   2.250  0.6433 -0.2496  1.3885
  766SOL    HW2 2298   2.763   1.721   2.316 -2.8689 -1.5909 -1.2217
  767SOL     OW 2299   1.414   1.279   2.383 -0.3871 -0.9322 -0.2088
  767SOL    HW1 2300   1.413   1.380   2.383 -0.2308  0.3300  0.5406
  767SOL    HW2 2301   1.399   1.238   2.292  0.3431 -0.8442  1.2952
  768SOL     OW 2302   1.752   1.628   0.373  0.1239 -0.1191  0.1606
  768SOL    HW1 2303   1.758   1.628   0.474 -1.2144  0.7759  4.8871
  768SOL    HW2 2304   1.837   1.651   0.329 -0.9505 -0.5506  0.2731
  769SOL     OW 2305   0.315   1.515   0.784  0.2819 -0.3143  0.5993
  769SOL    HW1 2306   0.256   1.564   0.718 -0.4358  2.5049  0.0360
  769SOL    HW2 2307   0.409   1.553   0.779 -1.3041 -1.4646  0.1996
  770SOL     OW 2308   1.516   0.906   2.372  0.5097  0.3812 -0.1862
  770SOL    HW1 2309   1.618   0.890   2.380 -0.6683 -1.2615  0.0262
  770SOL    HW2 2310   1.480   0.967   2.445 -0.5156  0.0444 -0.0798
  771SOL     OW 2311   2.583   0.111   2.415 -0.4538  0.0158 -0.1056
  771SOL    HW1 2312   2.520   0.160   2.350  2.6994 -0.1156  3.4361
  771SOL    HW2 2313   2.564   0.008   2.414 -1.3321  0.0756  0.8287
  772SOL     OW 2314   2.413   2.000   2.313  0.0098  0.0673 -0.8894
  772SOL    HW1 2315   2.388   1.937   2.237 -0.0526  0.3728 -2.4525
  772SOL    HW2 2316   2.453   2.087   2.283 -1.1298  1.1527 -0.4308
  773SOL     OW 2317   0.856   1.348   1.665 -0.0053  0.4932 -0.1499
  773SOL    HW1 2318   0.874   1.248   1.647  0.8506  0.2933  1.4165
  773SOL    HW2 2319   0.771   1.384   1.622  0.6781 -1.1500  0.4467
  774SOL     OW 2320   1.200   0.665   2.839  0.2211  0.2468  0.2043
  774SOL    HW1 2321   1.169   0.761   2.848 -1.1149  1.3338 -1.4696
  774SOL    HW2 2322   1.284   0.662   2.786  0.5554 -1.0022  0.7164
  775SOL     OW 2323   1.567   2.200   3.014 -0.0289 -0.5482  0.1565
  775SOL    HW1 2324   1.553   2.271   3.087 -1.4824  0.1467  2.6705
  775SOL    HW2 2325   1.543   2.104   3.046  0.6952 -1.6262  1.0227
  776SOL     OW 2326   3.096   1.192   1.577 -0.0294 -0.2366 -0.0193
  776SOL    HW1 2327   3.033   1.114   1.576 -2.2284 -0.3396  0.9313
  776SOL    HW2 2328   3.087   1.257   1.655  0.0895 -1.7542 -0.8240
  777SOL     OW 2329   2.501   2.209   2.161  0.3238  0.9405 -0.5518
  777SOL    HW1 2330   2.565   2.289   2.172  2.9460 -3.6787 -0.6285
  777SOL    HW2 2331   2.520   2.155   2.076  0.4827  1.1921  0.1353
  778SOL     OW 2332   1.727   1.286   2.052  0.0264 -0.3242  0.2697
  778SOL    HW1 2333   1.634   1.318   2.025 -1.7680  1.3351 -0.8791
  778SOL    HW2 2334   1.794   1.322   1.981  1.0114  0.5905 -0.4785
  779SOL     OW 2335   2.822   0.985   0.198  0.1466  0.1538  1.0549
  779SOL    HW1 2336   2.836   0.931   0.115 -0.2293 -0.3107 -2.6712
  779SOL    HW2 2337   2.752   1.061   0.189  0.4470 -0.3551  0.7990
  780SOL     OW 2338   2.079   2.896   2.607  0.4519 -0.4697  0.0360
  780SOL    HW1 2339   2.001   2.931   2.551  1.0667  0.6182 -2.3324
  780SOL    HW2 2340   2.049   2.907   2.702 -1.1155 -0.9802 -2.5015
  781SOL     OW 2341   2.960   1.765   1.287  0.0005  0.0360  0.0565
  781SOL    HW1 2342   3.045   1.793   1.239 -0.6355 -0.7116 -0.1937
  781SOL    HW2 2343   2.976   1.716   1.376  0.5731  0.3808 -1.9250
  782SOL     OW 2344   2.808   2.226   3.027 -0.2798 -0.1229 -0.0945
  782SOL    HW1 2345   2.760   2.291   3.090 -0.2674 -1.0258 -0.3436
  782SOL    HW2 2346   2.745   2.188   2.957  0.9939  0.4773 -1.6344
  783SOL     OW 2347   0.578   1.598   0.755  0.5095 -0.1959  0.2527
  783SOL    HW1 2348   0.655   1.530   0.761 -1.8649 -0.3814 -1.5333
  783SOL    HW2 2349   0.597   1.678   0.697 -0.0511 -2.1042  1.8285
  784SOL     OW 2350   2.616   1.172   0.179  0.0911  0.1707 -0.3261
  784SOL    HW1 2351   2.542   1.183   0.109  0.1729 -1.6872 -2.7815
  784SOL    HW2 2352   2.597   1.244   0.252  0.7689  0.4874  0.2020
  785SOL     OW 2353   1.901   2.775   0.411  0.7025 -0.1895  0.0375
  785SOL    HW1 2354   1.830   2.848   0.436  2.0124  0.8176 -2.4786
  785SOL    HW2 2355   1.871   2.683   0.448 -2.7080 -2.0253 -0.1006
  786SOL     OW 2356   0.521   2.198   2.623 -0.0871  0.6049 -0.1231
  786SOL    HW1 2357   0.473   2.151   2.546  0.0184 -0.3517 -0.5063
  786SOL    HW2 2358   0.614   2.222   2.604  0.5206 -1.9596 -1.0848
  787SOL     OW 2359   1.621   0.469   1.140 -0.1729  0.5131  0.3833
  787SOL    HW1 2360   1.538   0.407   1.132 -3.2722  1.4038  1.1253
  787SOL    HW2 2361   1.641   0.506   1.049  0.6886 -4.2807  1.5007
  788SOL     OW 2362   0.695   1.153   0.093  0.0972  0.5187  0.2139
  788SOL    HW1 2363   0.694   1.177   3.091  3.3128  0.7704 -1.6539
  788SOL    HW2 2364   0.603   1.141   0.136 -1.3748  0.8831  3.7876
  789SOL     OW 2365   2.753   1.933   1.347  0.6913 -0.3602 -0.0767
  789SOL    HW1 2366   2.828   1.869   1.328  0.0058  2.1090 -0.6068
  789SOL    HW2 2367   2.689   1.939   1.265  0.5464  0.5582 -0.9340
  790SOL     OW 2368   1.328   0.127   2.040 -0.6522  0.5220  0.0890
  790SOL    HW1 2369   1.317   0.159   2.137  0.5490  2.1755 -1.8588
  790SOL    HW2 2370   1.240   0.135   1.994 -1.0193 -0.1874 -2.3879
  791SOL     OW 2371   1.058   0.455   0.264 -0.6347 -0.4666  0.3053
  791SOL    HW1 2372   1.027   0.386   0.202 -0.1607  1.3583 -0.8922
  791SOL    HW2 2373   1.078   0.545   0.221 -3.4314 -1.3490  2.5930
  792SOL     OW 2374   1.352   3.053   1.658 -0.2845  0.3193  0.6873
  792SOL    HW1 2375   1.342   2.975   1.592  1.3742 -1.0627  0.9357
  792SOL    HW2 2376   1.417   0.022   1.622 -1.8059  0.6838  0.9172
  793SOL     OW 2377   0.954   2.949   0.925 -0.4911  0.3577 -0.1670
  793SOL    HW1 2378   1.002   3.039   0.912 -0.2823  2.5786 -3.3563
  793SOL    HW2 2379   0.985   2.903   1.011  0.4493  2.1073 -0.4821
  794SOL     OW 2380   0.679   1.264   1.944 -0.0023  0.0775  0.1491
  794SOL    HW1 2381   0.683   1.215   2.035  0.4788 -0.0346  1.7149
  794SOL    HW2 2382   0.620   1.214   1.876 -1.1091 -0.4186 -1.4372
  795SOL     OW 2383   3.006   1.527   2.328  0.3122  0.7150  0.1997
  795SOL    HW1 2384   3.035   1.590   2.253 -1.0635 -1.0400 -0.3827
  795SOL    HW2 2385   2.978   1.440   2.291  2.4875  1.5257  0.1988
  796SOL     OW 2386   1.913   1.405   1.872 -0.5641 -0.5055 -0.4545
  796SOL    HW1 2387   1.910   1.320   1.812  0.0706 -0.5050 -1.4155
  796SOL    HW2 2388   1.992   1.408   1.932 -2.8963  0.8630 -0.3150
  797SOL     OW 2389   0.106   0.121   2.642  0.1225 -0.4972  0.4056
  797SOL    HW1 2390   0.022   0.133   2.581  0.6498 -0.0878  2.1629
  797SOL    HW2 2391   0.079   0.089   2.735 -2.9046  1.0381 -0.5576
  798SOL     OW 2392   0.099   2.050   1.929 -0.6068 -0.5736 -0.2446
  798SOL    HW1 2393   0.063   2.100   1.847 -0.2860  0.9783 -1.8213
  798SOL    HW2 2394   0.199   2.050   1.931  0.9795 -1.9688 -1.1400
  799SOL     OW 2395   2.627   2.318   0.142  0.6497 -0.5209  0.4465
  799SOL    HW1 2396   2.629   2.265   0.230  0.1183  2.4194  2.0874
  799SOL    HW2 2397   2.624   2.417   0.161 -0.4207 -1.5829 -1.4552
  800SOL     OW 2398   1.173   1.754   0.714 -0.1102  0.2795 -0.3760
  800SOL    HW1 2399   1.177   1.775   0.811  0.1768  0.0888 -1.3285
  800SOL    HW2 2400   1.265   1.738   0.675 -1.6845  0.0940 -1.0632
  801SOL     OW 2401   2.726   0.623   0.527 -0.4443 -0.3922 -0.0948
  801SOL    HW1 2402   2.798   0.591   0.465 -0.9252  0.4409 -0.5071
  801SOL    HW2 2403   2.646   0.558   0.521 -0.8674 -2.5569 -2.8687
  802SOL     OW 2404   2.538   1.407   0.372  0.4817 -0.3229  0.4159
  802SOL    HW1 2405   2.518   1.498   0.330  0.1622 -1.5488  3.0129
  802SOL    HW2 2406   2.600   1.415   0.454  0.1040  2.4499 -0.3711
  803SOL     OW 2407   1.470   1.911   3.007  0.0075 -0.1749  0.3768
  803SOL    HW1 2408   1.433   1.897   2.911  0.9884 -2.0368 -2.2498
  803SOL    HW2 2409   1.392   1.919   3.071  1.4911  1.0112 -1.6830
  804SOL     OW 2410   1.964   2.113   0.203  0.7441 -0.1465 -0.2268
  804SOL    HW1 2411   1.901   2.058   0.144  0.7950 -2.7313  0.6752
  804SOL    HW2 2412   2.056   2.064   0.213 -1.2577  2.4981  0.0667
  805SOL     OW 2413   2.794   1.481   2.572 -0.5095  0.2862 -0.1844
  805SOL    HW1 2414   2.740   1.536   2.638  1.6126  0.4668 -0.0415
  805SOL    HW2 2415   2.892   1.515   2.569 -0.7135 -0.5275 -2.1320
  806SOL     OW 2416   0.655   0.631   0.625  0.2616  0.7454  0.5327
  806SOL    HW1 2417   0.655   0.612   0.523  0.4794 -1.1299 -1.6343
  806SOL    HW2 2418   0.701   0.719   0.642  0.1748 -0.1121 -1.4057
  807SOL     OW 2419   2.350   1.351   2.656 -0.4471 -0.6025  0.3820
  807SOL    HW1 2420   2.268   1.320   2.703  0.9057  0.3802 -0.2969
  807SOL    HW2 2421   2.424   1.280   2.663 -0.1429  0.3017 -0.6668
  808SOL     OW 2422   0.124   1.432   0.372 -0.1213  0.1687 -0.2383
  808SOL    HW1 2423   0.120   1.333   0.401 -1.9980 -1.6213  0.0207
  808SOL    HW2 2424   0.165   1.487   0.444 -2.1089 -4.8885 -2.1975
  809SOL     OW 2425   2.566   0.709   2.730  0.1937 -0.0660  0.0398
  809SOL    HW1 2426   2.610   0.685   2.816  2.6186 -0.7643  1.4249
  809SOL    HW2 2427   2.519   0.799   2.735  0.7020 -0.9786  1.0216
  810SOL     OW 2428   1.142   1.012   0.392 -0.1318  0.4149  0.1221
  810SOL    HW1 2429   1.209   0.990   0.314 -0.0473  2.2313 -3.4465
  810SOL    HW2 2430   1.050   1.036   0.354  0.4797 -2.7758  0.2223
  811SOL     OW 2431   1.512   2.404   0.807  0.3673  0.8455 -0.1029
  811SOL    HW1 2432   1.435   2.472   0.822  0.1478 -0.7634 -1.0221
  811SOL    HW2 2433   1.522   2.370   0.709  1.3895 -1.8277 -1.8021
  812SOL     OW 2434   0.463   2.553   1.408 -0.2131  0.0106 -0.0327
  812SOL    HW1 2435   0.481   2.456   1.381 -1.2013  0.0267  1.3199
  812SOL    HW2 2436   0.519   2.573   1.494 -0.7650  1.3731 -1.4042
  813SOL     OW 2437   1.087   0.128   1.902 -0.2300 -0.7206  0.4990
  813SOL    HW1 2438   1.045   0.039   1.933 -1.3195 -4.5097  1.0549
  813SOL    HW2 2439   1.041   0.208   1.937  6.0494 -0.9943 -0.4986
  814SOL     OW 2440   1.329   3.096   2.474  0.4304  0.8466  0.4333
  814SOL    HW1 2441   1.388   3.015   2.505  0.1295  0.4534  1.7710
  814SOL    HW2 2442   1.251   3.073   2.411  0.7859  1.1471  0.8481
  815SOL     OW 2443   0.546   0.330   1.934  0.1224  0.2737  0.1678
  815SOL    HW1 2444   0.473   0.309   1.867  0.1685  0.2769  1.5520
  815SOL    HW2 2445   0.511   0.369   2.020  0.8531  0.9761  0.3859
  816SOL     OW 2446   2.540   0.257   3.069 -0.0356 -0.1927 -0.4210
  816SOL    HW1 2447   2.640   0.246   3.096  2.0279 -1.3199 -0.7018
  816SOL    HW2 2448   2.525   0.274   2.968 -0.6776 -0.6387  1.1120
  817SOL     OW 2449   1.830   0.424   2.699  0.9230 -0.1862  0.0882
  817SOL    HW1 2450   1.808   0.511   2.645 -1.3449  0.3944  1.1196
  817SOL    HW2 2451   1.760   0.347   2.680 -0.2868 -0.0432  0.8483
  818SOL     OW 2452   2.150   0.412   0.231 -0.3980 -0.0474  0.5311
  818SOL    HW1 2453   2.156   0.310   0.257  0.0915 -1.3890 -1.8344
  818SOL    HW2 2454   2.167   0.483   0.300 -1.2147  0.4134 -2.2895
  819SOL     OW 2455   2.349   1.475   0.052 -0.5556  0.0160  0.1917
  819SOL    HW1 2456   2.403   1.552   0.090  0.7459 -1.2572  1.8485
  819SOL    HW2 2457   2.407   1.391   0.031 -2.2746 -3.4167  2.0970
  820SOL     OW 2458   2.944   2.047   0.094  0.3112 -0.0093  0.4724
  820SOL    HW1 2459   2.901   2.124   0.038 -3.0219  2.0352 -3.2914
  820SOL    HW2 2460   2.886   2.013   0.175 -1.7660 -0.0079  1.8235
  821SOL     OW 2461   0.071   2.842   1.435 -0.3461  0.1472 -0.4657
  821SOL    HW1 2462   0.086   2.854   1.535 -0.1564 -1.0848  0.9677
  821SOL    HW2 2463   0.098   2.921   1.371  0.4812  0.6874 -0.5730
  822SOL     OW 2464   2.631   2.636   2.655  0.3144 -0.4110 -0.2936
  822SOL    HW1 2465   2.660   2.734   2.638 -0.0787  1.2805 -2.4036
  822SOL    HW2 2466   2.549   2.621   2.595  0.8764  0.9403 -4.1222
  823SOL     OW 2467   1.585   0.235   2.364 -0.1532  0.2028 -0.8454
  823SOL    HW1 2468   1.498   0.229   2.319  0.4903 -0.2565  1.2456
  823SOL    HW2 2469   1.581   0.211   2.463  2.4024  1.3760 -1.1304
  824SOL     OW 2470   2.508   1.659   1.298  0.3637 -0.1344  0.0954
  824SOL    HW1 2471   2.520   1.717   1.378  0.7981 -0.4845  1.4561
  824SOL    HW2 2472   2.592   1.648   1.240 -0.6084 -0.3424  2.9722
  825SOL     OW 2473   2.920   1.869   2.453  0.6012  0.5025 -0.2820
  825SOL    HW1 2474   2.853   1.947   2.457  0.2935  0.7078  3.0761
  825SOL    HW2 2475   2.982   1.881   2.536  1.0608  0.0453 -0.4343
  826SOL     OW 2476   2.801   1.104   2.399 -0.7392 -0.4432 -0.2957
  826SOL    HW1 2477   2.826   1.164   2.478  0.5864  1.3354  1.3943
  826SOL    HW2 2478   2.844   1.014   2.418 -1.8258  1.0949  3.0308
  827SOL     OW 2479   2.523   2.555   1.577 -0.0185 -0.1157 -0.1341
  827SOL    HW1 2480   2.549   2.474   1.525  0.4634 -0.5992 -0.0601
  827SOL    HW2 2481   2.429   2.563   1.602  0.5555  1.6418  1.8302
  828SOL     OW 2482   2.843   2.958   1.581 -0.2218  0.1117 -0.0263
  828SOL    HW1 2483   2.907   3.022   1.627 -2.6037 -1.0616  0.7077
  828SOL    HW2 2484   2.864   2.966   1.484 -1.7684  2.4169 -0.1435
  829SOL     OW 2485   1.637   2.240   2.313  0.2432 -0.3347 -0.4118
  829SOL    HW1 2486   1.581   2.327   2.300 -1.8628 -1.2293 -0.8546
  829SOL    HW2 2487   1.627   2.194   2.403  0.5399 -0.2801 -3.6745
  830SOL     OW 2488   1.552   0.511   0.685  0.2595  0.1553  0.5808
  830SOL    HW1 2489   1.624   0.534   0.755 -1.0240  1.9215 -0.9442
  830SOL    HW2 2490   1.600   0.471   0.601 -1.4778  0.3454 -2.6043
  831SOL     OW 2491   2.978   1.372   0.720 -0.8323  0.2450  0.0761
  831SOL    HW1 2492   3.036   1.289   0.735  0.4577  1.2249 -0.2096
  831SOL    HW2 2493   2.934   1.377   0.627  0.0786 -1.0935  0.7333
  832SOL     OW 2494   1.562   2.551   2.037 -0.0982 -0.0250 -0.1025
  832SOL    HW1 2495   1.479   2.563   1.979 -0.6761 -0.1075  1.3760
  832SOL    HW2 2496   1.629   2.485   1.995 -2.6273 -0.2977 -0.3415
  833SOL     OW 2497   2.943   2.958   2.262 -0.3195 -0.0273 -0.1843
  833SOL    HW1 2498   2.882   2.938   2.186  0.6694  1.8470  1.7807
  833SOL    HW2 2499   2.909   3.038   2.313  1.2711 -0.7339  0.1334
  834SOL     OW 2500   1.002   1.076   1.182 -0.3177  0.2002  0.0945
  834SOL    HW1 2501   1.072   1.107   1.114  0.5230  1.2796 -1.1103
  834SOL    HW2 2502   1.028   0.984   1.215 -0.6837  1.3198 -1.4383
  835SOL     OW 2503   0.081   0.536   2.761 -0.3449  0.1934 -0.5460
  835SOL    HW1 2504   3.093   0.493   2.786  1.8902 -0.9794 -1.4571
  835SOL    HW2 2505   0.119   0.572   2.850 -3.6739 -0.6907  0.5744
  836SOL     OW 2506   1.154   2.316   1.125 -0.0274  0.4190 -0.0823
  836SOL    HW1 2507   1.056   2.331   1.151 -1.5314  0.2470 -1.7477
  836SOL    HW2 2508   1.202   2.403   1.142  0.5420 -1.7618 -0.6916
  837SOL     OW 2509   2.060   0.950   1.076 -0.3485 -0.0435 -0.0058
  837SOL    HW1 2510   2.048   1.006   0.992 -0.1826  1.6161 -1.0812
  837SOL    HW2 2511   2.079   1.011   1.154 -1.0986 -0.8788 -3.8981
  838SOL     OW 2512   1.547   1.598   2.762  0.4090 -0.0274  0.0798
  838SOL    HW1 2513   1.549   1.522   2.825 -3.2571  2.7462  0.5679
  838SOL    HW2 2514   1.448   1.618   2.736  0.2451 -1.3449 -0.1682
  839SOL     OW 2515   0.514   2.313   2.862  0.4160  0.4781  0.2319
  839SOL    HW1 2516   0.544   2.261   2.779  2.6455  0.7268  2.8086
  839SOL    HW2 2517   0.588   2.300   2.929  2.4451 -3.6499 -0.2367
  840SOL     OW 2518   0.352   2.542   3.027 -0.0910  0.4178  0.0292
  840SOL    HW1 2519   0.276   2.607   3.046  2.1667  3.9791  1.5501
  840SOL    HW2 2520   0.323   2.445   3.022  0.6812 -1.6772  0.2542
  841SOL     OW 2521   1.816   2.000   0.006 -0.0487 -0.0143 -0.6475
  841SOL    HW1 2522   1.844   1.936   3.031 -0.4442  0.0979 -1.2405
  841SOL    HW2 2523   1.786   2.090   3.071  1.9269  1.6804  2.4486
  842SOL     OW 2524   1.470   1.032   2.617 -0.7140  0.6562 -0.5221
  842SOL    HW1 2525   1.424   1.103   2.673  0.1246 -1.9953  2.0162
  842SOL    HW2 2526   1.539   0.980   2.674  3.3005 -0.1722 -0.4746
  843SOL     OW 2527   1.457   2.735   0.666 -0.3264  0.1491  0.0798
  843SOL    HW1 2528   1.528   2.677   0.622 -0.8427 -0.0525  2.0301
  843SOL    HW2 2529   1.484   2.835   0.650  2.8977  1.0414  1.2620
  844SOL     OW 2530   2.330   2.823   2.542  0.1144 -0.0066 -0.2657
  844SOL    HW1 2531   2.231   2.844   2.560 -0.4820 -0.4528 -1.2929
  844SOL    HW2 2532   2.372   2.827   2.638 -1.9711 -1.6300  0.1796
  845SOL     OW 2533   2.947   2.701   1.268  0.8985  0.1294 -0.4568
  845SOL    HW1 2534   3.027   2.714   1.338  1.4415 -2.8699  1.8528
  845SOL    HW2 2535   2.864   2.744   1.306  1.1543  0.8002 -1.1242
  846SOL     OW 2536   0.242   2.222   2.268 -0.0143  0.6735  0.0168
  846SOL    HW1 2537   0.155   2.222   2.208  0.8285 -0.5211 -1.8032
  846SOL    HW2 2538   0.227   2.278   2.345 -0.6875 -4.0495 -1.1518
  847SOL     OW 2539   1.609   0.303   1.524  0.7731 -0.6203 -0.1165
  847SOL    HW1 2540   1.687   0.294   1.458  0.8379  0.0179 -1.1668
  847SOL    HW2 2541   1.621   0.231   1.593  0.4406  3.6247 -0.7542
  848SOL     OW 2542   0.045   0.432   0.123 -0.3185  0.2404 -0.3650
  848SOL    HW1 2543   0.130   0.414   0.184 -1.2423 -0.9773 -1.0876
  848SOL    HW2 2544   3.062   0.388   0.164  0.7702 -1.0616  1.6758
  849SOL     OW 2545   0.851   0.598   3.070  0.0190 -0.5285 -0.2512
  849SOL    HW1 2546   0.811   0.694   3.068  0.4185  0.5014  0.1837
  849SOL    HW2 2547   0.791   0.531   0.024 -0.0645 -2.5391  0.5414
  850SOL     OW 2548   0.466   2.761   1.171 -0.0137 -0.2746  0.3285
  850SOL    HW1 2549   0.396   2.719   1.237 -1.5324 -0.4953 -1.1389
  850SOL    HW2 2550   0.441   2.857   1.143 -1.2478  0.7943  1.0752
  851SOL     OW 2551   2.009   0.227   2.397 -0.3008  0.8693 -0.6840
  851SOL    HW1 2552   1.945   0.308   2.415 -1.6526 -1.3150 -1.1352
  851SOL    HW2 2553   2.057   0.196   2.484 -0.8572  0.4081  0.0481
  852SOL     OW 2554   1.672   1.635   2.346  0.0333  0.1719 -0.7166
  852SOL    HW1 2555   1.720   1.590   2.427 -0.4513  2.4558 -0.7240
  852SOL    HW2 2556   1.575   1.594   2.344 -1.5170 -1.0172 -0.7442
  853SOL     OW 2557   2.978   2.849   0.593 -0.1468  0.0762  0.1927
  853SOL    HW1 2558   3.020   2.762   0.572  0.6366  2.1288  0.7608
  853SOL    HW2 2559   2.981   2.873   0.692  0.7197  1.5526 -2.0378
  854SOL     OW 2560   2.444   0.068   0.775 -0.4452  0.3551  0.0665
  854SOL    HW1 2561   2.346   0.098   0.784 -0.2668  3.5311  1.4622
  854SOL    HW2 2562   2.501   0.130   0.713  1.5916  1.0978 -2.6416
  855SOL     OW 2563   1.347   2.110   0.657  0.1114  0.5304 -0.0370
  855SOL    HW1 2564   1.287   2.083   0.579  1.0107 -0.8705 -1.4149
  855SOL    HW2 2565   1.297   2.161   0.732 -1.6955  1.6592  1.7939
  856SOL     OW 2566   2.672   0.322   0.287  0.5923 -0.8543  0.2959
  856SOL    HW1 2567   2.617   0.246   0.248 -0.2071 -0.5716  0.7044
  856SOL    HW2 2568   2.615   0.406   0.295  1.6950 -0.4439  1.3895
  857SOL     OW 2569   1.665   2.739   1.734 -0.3151  0.1135 -0.1765
  857SOL    HW1 2570   1.674   2.772   1.832  1.6846  0.1225  3.7113
  857SOL    HW2 2571   1.632   2.640   1.734 -0.8246 -0.2706 -0.0367
  858SOL     OW 2572   2.642   2.350   1.409 -0.9911 -0.0061 -0.3672
  858SOL    HW1 2573   2.669   2.367   1.312  2.4556 -1.5974 -1.6877
  858SOL    HW2 2574   2.546   2.311   1.411 -0.5746  1.1266  0.4421
  859SOL     OW 2575   1.093   2.520   0.735 -0.0831  0.1096  0.9274
  859SOL    HW1 2576   1.012   2.570   0.778 -0.3854 -0.4580  1.9250
  859SOL    HW2 2577   1.182   2.549   0.778 -0.0234  0.2583 -1.1480
  860SOL     OW 2578   2.247   2.438   0.301 -0.8505  0.6362 -0.1605
  860SOL    HW1 2579   2.306   2.509   0.342  0.1610 -1.3876 -1.1158
  860SOL    HW2 2580   2.198   2.394   0.381 -3.5671  1.1588  1.0156
  861SOL     OW 2581   2.093   2.589   1.278 -0.2812 -0.3901 -0.0753
  861SOL    HW1 2582   2.170   2.632   1.236 -2.0538  0.1348  3.4514
  861SOL    HW2 2583   2.121   2.525   1.355  1.3069 -1.4970  0.3027
  862SOL     OW 2584   1.847   2.987   2.487  0.0356 -0.1920  0.3627
  862SOL    HW1 2585   1.837   3.063   2.422  0.3148 -0.5270 -2.7603
  862SOL    HW2 2586   1.783   3.002   2.564  0.7921  0.0936  0.0556
  863SOL     OW 2587   0.477   0.101   0.267 -0.0353 -0.3464 -0.0013
  863SOL    HW1 2588   0.390   0.065   0.305 -0.1602  2.6470 -1.1450
  863SOL    HW2 2589   0.559   0.040   0.280  0.2866 -0.6297 -1.0259
  864SOL     OW 2590   2.646   2.605   1.853 -0.4809  0.6253  0.0229
  864SOL    HW1 2591   2.682   2.667   1.776  1.9328  0.5463 -1.8853
  864SOL    HW2 2592   2.555   2.634   1.885 -1.6582  1.5543 -0.8432
  865SOL     OW 2593   2.981   2.285   2.824 -0.0293  0.0072  0.4566
  865SOL    HW1 2594   3.046   2.210   2.828 -0.5832 -2.7533  2.2854
  865SOL    HW2 2595   2.905   2.272   2.888 -0.5875 -0.2933  0.1854
  866SOL     OW 2596   2.464   0.315   2.811  0.1417 -0.4095  0.1242
  866SOL    HW1 2597   2.497   0.328   2.715 -1.1394 -6.2164  0.0177
  866SOL    HW2 2598   2.395   0.386   2.828 -0.1379  0.2274 -1.0676
  867SOL     OW 2599   2.855   0.074   2.387  0.1493 -0.0726 -0.2198
  867SOL    HW1 2600   2.760   0.100   2.366  1.0727 -0.2679  1.2866
  867SOL    HW2 2601   2.866   0.050   2.481 -0.8676  1.2660 -0.3478
  868SOL     OW 2602   0.885   2.668   0.847 -0.0399 -0.4666 -0.3904
  868SOL    HW1 2603   0.870   2.640   0.945  0.8401 -2.9076 -0.5759
  868SOL    HW2 2604   0.902   2.768   0.844 -0.4151 -1.0267  0.6507
  869SOL     OW 2605   1.333   1.366   1.199  0.6095 -0.4075  0.2811
  869SOL    HW1 2606   1.313   1.467   1.188 -0.3272  1.2167  2.3607
  869SOL    HW2 2607   1.376   1.355   1.292 -0.4764 -1.1698 -0.4411
  870SOL     OW 2608   1.793   1.858   1.454  0.6182  0.3259  0.0930
  870SOL    HW1 2609   1.887   1.812   1.457  3.8587 -0.3081 -0.9965
  870SOL    HW2 2610   1.785   1.917   1.536 -0.4385  1.2955  0.0285
  871SOL     OW 2611   0.849   1.475   1.075  0.6748 -0.0310 -0.5063
  871SOL    HW1 2612   0.754   1.463   1.103  1.6911  1.1626 -3.1394
  871SOL    HW2 2613   0.868   1.567   1.044 -0.8821 -1.6882  3.6606
  872SOL     OW 2614   1.197   0.814   1.064  0.3315  0.4550 -0.1001
  872SOL    HW1 2615   1.099   0.800   1.030 -1.6395 -0.3395 -0.1844
  872SOL    HW2 2616   1.253   0.884   1.010 -0.5921 -2.2576  0.1356
  873SOL     OW 2617   1.638   0.848   2.757 -0.3917  0.3701 -0.1496
  873SOL    HW1 2618   1.693   0.777   2.808  3.1049  0.0026  2.5685
  873SOL    HW2 2619   1.699   0.929   2.721  4.1944  1.0939 -1.7381
  874SOL     OW 2620   0.585   1.420   1.108 -0.4085 -0.0760 -0.1158
  874SOL    HW1 2621   0.600   1.388   1.205  0.9293 -1.8448  3.2634
  874SOL    HW2 2622   0.493   1.471   1.108  0.1365  3.5917  1.4291
  875SOL     OW 2623   2.785   2.928   2.945 -0.0438 -0.0261 -0.2975
  875SOL    HW1 2624   2.787   2.869   2.860 -2.1671 -2.6348  0.7058
  875SOL    HW2 2625   2.880   2.947   2.968 -2.4906 -0.3040 -0.9563
  876SOL     OW 2626   0.988   0.487   2.869 -0.2291 -0.3083  0.3331
  876SOL    HW1 2627   0.949   0.523   2.955  2.0762 -1.9580  2.0151
  876SOL    HW2 2628   1.064   0.545   2.839 -2.9241 -3.8207 -0.1092
  877SOL     OW 2629   3.065   0.024   1.646  0.0833 -0.3626 -0.4789
  877SOL    HW1 2630   3.071   0.090   1.723 -3.7575 -3.0403 -0.3278
  877SOL    HW2 2631   3.060   0.076   1.555 -1.3475 -0.0694 -1.0347
  878SOL     OW 2632   1.809   2.343   2.633 -0.3322 -0.0459  0.5411
  878SOL    HW1 2633   1.731   2.406   2.605  1.8999  0.6523 -0.2004
  878SOL    HW2 2634   1.893   2.370   2.576 -1.2740 -0.2670  0.6419
  879SOL     OW 2635   2.292   1.866   2.057  0.3827 -0.0201 -0.3451
  879SOL    HW1 2636   2.203   1.866   2.105  3.8761 -0.3362 -1.2261
  879SOL    HW2 2637   2.323   1.771   2.028  2.7647  0.6329 -0.0756
  880SOL     OW 2638   0.564   0.971   1.055  0.7468  0.6955  0.3816
  880SOL    HW1 2639   0.515   0.961   1.144  0.4182 -3.0007 -0.3923
  880SOL    HW2 2640   0.596   0.878   1.017  1.7242 -1.8158 -0.7791
  881SOL     OW 2641   1.295   1.608   0.120 -0.4972 -0.1988  0.6031
  881SOL    HW1 2642   1.317   1.672   0.198  2.2029  0.6999 -1.2627
  881SOL    HW2 2643   1.307   1.513   0.154  1.0267  0.6775 -0.5016
  882SOL     OW 2644   1.934   0.104   1.229 -0.2365 -0.1097  0.3311
  882SOL    HW1 2645   1.884   0.190   1.242 -0.4063 -1.1138  1.7200
  882SOL    HW2 2646   1.982   0.108   1.135 -3.6903 -1.0310  0.0430
  883SOL     OW 2647   1.796   0.757   2.126  0.4561 -0.2143  0.3821
  883SOL    HW1 2648   1.721   0.704   2.070  0.3859 -0.4018 -1.6477
  883SOL    HW2 2649   1.886   0.752   2.081  2.0062  0.5245 -3.1030
  884SOL     OW 2650   2.817   0.492   3.091 -0.2273 -0.8574  0.1756
  884SOL    HW1 2651   2.846   0.465   2.996  0.3101 -1.6591  0.0359
  884SOL    HW2 2652   2.864   0.424   0.051 -2.6302  1.1644  2.5033
  885SOL     OW 2653   1.183   2.230   0.829 -0.2581  0.4445 -1.0301
  885SOL    HW1 2654   1.152   2.325   0.809  3.7307 -0.2640  1.5807
  885SOL    HW2 2655   1.221   2.229   0.928 -0.8945  0.1535  2.8876
  886SOL     OW 2656   1.372   1.259   2.782  0.0042 -0.8564  0.6140
  886SOL    HW1 2657   1.452   1.304   2.821 -1.4730 -0.0617 -0.6392
  886SOL    HW2 2658   1.289   1.317   2.811  2.8491  0.3394  0.6091
  887SOL     OW 2659   1.638   0.062   1.651 -0.0603 -0.1629 -0.1982
  887SOL    HW1 2660   1.708   0.072   1.723 -2.5287 -1.2792 -0.8808
  887SOL    HW2 2661   1.648   3.076   1.596  1.2270 -0.6956 -0.5258
  888SOL     OW 2662   2.888   1.568   1.808  0.3414 -0.4370  0.5294
  888SOL    HW1 2663   2.863   1.672   1.815 -0.2184  1.5420 -0.2672
  888SOL    HW2 2664   2.867   1.527   1.716  0.7244  0.2949 -1.9953
  889SOL     OW 2665   2.854   2.476   0.778 -0.0200  0.0405  0.2219
  889SOL    HW1 2666   2.842   2.538   0.702  3.5449 -0.2134  0.6137
  889SOL    HW2 2667   2.949   2.470   0.808 -2.7024 -0.1980 -1.9169
  890SOL     OW 2668   0.416   2.035   2.367 -0.6941 -0.1087  0.3578
  890SOL    HW1 2669   0.496   2.026   2.306 -2.3815 -1.6255  0.5569
  890SOL    HW2 2670   0.339   2.091   2.321  1.7195  0.0866 -1.8020
  891SOL     OW 2671   0.541   1.794   0.582 -0.6748 -0.7838 -0.7494
  891SOL    HW1 2672   0.620   1.859   0.583 -1.7608 -2.3114  2.0548
  891SOL    HW2 2673   0.474   1.830   0.513 -0.7978  2.0190 -0.7644
  892SOL     OW 2674   3.008   2.420   1.337  0.6482 -0.1564 -0.6768
  892SOL    HW1 2675   3.002   2.444   1.435 -1.1111 -0.8074  0.5246
  892SOL    HW2 2676   2.974   2.322   1.315 -0.6256 -3.1224  1.9259
  893SOL     OW 2677   0.239   0.487   1.704  0.4192  0.0965 -0.4443
  893SOL    HW1 2678   0.190   0.479   1.618 -1.6255  0.4053  0.7594
  893SOL    HW2 2679   0.294   0.575   1.710  0.4536  1.7194 -0.4918
  894SOL     OW 2680   2.970   1.650   0.767  0.3309  0.1454  0.3171
  894SOL    HW1 2681   2.989   1.691   0.672 -0.5031 -1.4011  1.0247
  894SOL    HW2 2682   2.951   1.549   0.749 -0.2973 -3.3949 -1.6204
  895SOL     OW 2683   1.428   2.300   1.413 -0.1627  0.2116  0.0767
  895SOL    HW1 2684   1.372   2.222   1.451 -2.5634  0.9213 -1.0691
  895SOL    HW2 2685   1.523   2.268   1.387 -0.6684  0.5655 -0.3342
  896SOL     OW 2686   0.679   0.290   1.412 -0.5892 -0.2735 -0.6092
  896SOL    HW1 2687   0.597   0.350   1.416 -0.0756 -1.6067  0.3415
  896SOL    HW2 2688   0.750   0.323   1.480  0.0706 -2.3237  2.8683
  897SOL     OW 2689   1.271   1.146   1.051 -0.1923 -0.2391  0.0090
  897SOL    HW1 2690   1.307   1.232   1.093  2.8481 -0.0430  0.4718
  897SOL    HW2 2691   1.349   1.095   1.008  1.5436 -1.8507 -2.1756
  898SOL     OW 2692   0.850   0.362   1.612 -0.4241  0.1734 -0.0737
  898SOL    HW1 2693   0.850   0.372   1.713 -2.5570  1.4897  0.2147
  898SOL    HW2 2694   0.924   0.415   1.568  0.0775 -0.8812 -0.7918
  899SOL     OW 2695   1.504   0.202   0.309  0.2863 -0.3801  0.7739
  899SOL    HW1 2696   1.528   0.184   0.212 -0.2452 -1.0983  0.3069
  899SOL    HW2 2697   1.433   0.275   0.315 -3.0330  0.0317 -0.9446
  900SOL     OW 2698   0.941   0.537   2.425  0.2682  0.3767 -0.2190
  900SOL    HW1 2699   0.919   0.629   2.466  0.6173 -1.7999 -1.3332
  900SOL    HW2 2700   0.853   0.508   2.375 -1.0832 -0.2874 -1.1281
  901SOL     OW 2701   0.789   2.049   0.222 -0.7249 -0.1945  0.2531
  901SOL    HW1 2702   0.807   1.951   0.232 -1.9618  2.0417 -0.9564
  901SOL    HW2 2703   0.774   2.070   0.126  0.4745 -1.9787  0.8498
  902SOL     OW 2704   1.880   0.409   0.790  0.0881  0.4439 -0.1743
  902SOL    HW1 2705   1.926   0.461   0.718 -1.4006 -0.7012  0.7481
  902SOL    HW2 2706   1.868   0.310   0.765  1.2805 -1.4044  0.3375
  903SOL     OW 2707   3.078   1.243   2.498 -0.2586  0.3299  0.2957
  903SOL    HW1 2708   0.070   1.275   2.475  1.2966  1.2369 -1.0932
  903SOL    HW2 2709   3.006   1.265   2.431 -0.5961 -0.1150  3.7143
  904SOL     OW 2710   1.620   1.219   0.436  0.5127  0.0036  0.1953
  904SOL    HW1 2711   1.608   1.298   0.372  1.3935 -0.9953  1.9538
  904SOL    HW2 2712   1.564   1.238   0.521 -1.1190  0.5857  2.6636
  905SOL     OW 2713   1.869   2.749   1.240  0.4151  0.2440 -0.0497
  905SOL    HW1 2714   1.884   2.842   1.279  0.4195  2.7569  1.4207
  905SOL    HW2 2715   1.944   2.686   1.261  0.4913  2.6847  1.2339
  906SOL     OW 2716   2.181   2.767   0.901  0.2023 -0.3270 -0.1635
  906SOL    HW1 2717   2.098   2.823   0.929  0.2632  2.3781 -0.8235
  906SOL    HW2 2718   2.223   2.720   0.984 -0.4580  2.0315 -1.2706
  907SOL     OW 2719   1.978   1.033   0.330 -0.2131  0.5608 -0.1704
  907SOL    HW1 2720   2.038   0.987   0.263 -1.4429 -0.5294  0.6713
  907SOL    HW2 2721   1.918   0.956   0.367 -2.6151 -2.7470  1.5967
  908SOL     OW 2722   1.793   0.328   1.297  0.0353 -0.3649 -0.0525
  908SOL    HW1 2723   1.740   0.384   1.227  0.0454  1.8260 -2.6906
  908SOL    HW2 2724   1.847   0.394   1.350 -0.0177 -0.5624 -0.8526
  909SOL     OW 2725   2.374   2.912   0.749  0.4563  0.2716  0.3218
  909SOL    HW1 2726   2.400   3.008   0.761  0.8338  0.3177  1.0312
  909SOL    HW2 2727   2.288   2.890   0.803 -3.3107 -0.5734 -0.4941
  910SOL     OW 2728   2.307   0.790   2.051  0.2743  0.1563 -0.0042
  910SOL    HW1 2729   2.266   0.719   2.110  3.0900  0.1683  1.5935
  910SOL    HW2 2730   2.407   0.787   2.049  0.2844  0.9234 -0.1463
  911SOL     OW 2731   2.135   0.095   2.621  0.4767 -0.3784  0.0905
  911SOL    HW1 2732   2.133   0.187   2.668  1.1545  1.7687 -0.1434
  911SOL    HW2 2733   2.183   0.031   2.688 -0.7084  0.4226  1.7407
  912SOL     OW 2734   0.561   0.940   1.323 -0.1222  0.6285 -0.0677
  912SOL    HW1 2735   0.635   1.006   1.355  1.0860 -1.8624 -2.4024
  912SOL    HW2 2736   0.606   0.846   1.317  2.5805 -0.2396 -2.3248
  913SOL     OW 2737   2.805   2.413   1.151  0.9050 -0.2441 -0.6898
  913SOL    HW1 2738   2.787   2.486   1.082  1.2006  0.0071 -0.9064
  913SOL    HW2 2739   2.875   2.447   1.212  1.7034 -0.1799  1.9901
  914SOL     OW 2740   1.606   0.794   1.109  0.3177  0.1811  0.2509
  914SOL    HW1 2741   1.588   0.840   1.196 -4.3264 -1.0936  2.8559
  914SOL    HW2 2742   1.637   0.698   1.120  1.0019 -1.7505 -1.0813
  915SOL     OW 2743   0.151   1.662   1.507  0.8711 -0.1416  0.3158
  915SOL    HW1 2744   0.201   1.676   1.420 -1.4453  1.2684  2.6414
  915SOL    HW2 2745   0.221   1.672   1.576 -1.0026  0.3543 -1.2966
  916SOL     OW 2746   1.883   2.320   0.919 -0.3352  0.2103 -0.2453
  916SOL    HW1 2747   1.934   2.330   1.007 -0.5720  2.8737  1.3487
  916SOL    HW2 2748   1.805   2.254   0.923  2.8697 -2.0221  0.7422
  917SOL     OW 2749   1.788   2.617   2.190 -0.2041  0.6517 -0.1001
  917SOL    HW1 2750   1.869   2.619   2.127 -0.6494 -0.6418 -1.9826
  917SOL    HW2 2751   1.711   2.561   2.158  1.1478 -2.6411 -0.2036
  918SOL     OW 2752   2.089   1.907   2.475  0.5174 -0.0712  0.1657
  918SOL    HW1 2753   2.067   1.999   2.443 -0.0126 -3.3410  0.3168
  918SOL    HW2 2754   2.159   1.914   2.548 -1.0709  0.2414 -2.1452
  919SOL     OW 2755   0.934   0.361   1.217  0.4838  0.1569  0.6711
  919SOL    HW1 2756   0.868   0.299   1.256  1.7705  0.4132 -1.6275
  919SOL    HW2 2757   0.993   0.404   1.287 -3.3229 -0.1845  0.5318
  920SOL     OW 2758   3.008   0.645   2.087  0.1342  0.2068 -0.3159
  920SOL    HW1 2759   3.067   0.598   2.018  0.3280  2.4311  1.7981
  920SOL    HW2 2760   3.064   0.669   2.162 -1.4586 -1.3271 -4.4312
  921SOL     OW 2761   2.791   1.213   1.558 -0.2795 -0.0622  0.4884
  921SOL    HW1 2762   2.773   1.138   1.487 -0.1751  0.4757 -2.8098
  921SOL    HW2 2763   2.825   1.175   1.646  2.8410 -0.8252  1.5224
  922SOL     OW 2764   2.626   2.091   0.721 -0.2695  0.1315  0.0413
  922SOL    HW1 2765   2.547   2.134   0.772  2.4502 -0.5037  0.9751
  922SOL    HW2 2766   2.692   2.161   0.699 -2.4405  1.2390 -0.7873
  923SOL     OW 2767   0.171   2.288   0.697 -0.0712  0.2167 -0.3112
  923SOL    HW1 2768   0.261   2.287   0.650  1.4255  2.0460  2.1894
  923SOL    HW2 2769   0.158   2.381   0.732 -0.1280 -0.9523 -1.8519
  924SOL     OW 2770   0.967   1.315   2.974 -0.2830  0.5157 -0.4699
  924SOL    HW1 2771   0.959   1.395   3.032  1.6901 -3.2433 -0.0843
  924SOL    HW2 2772   0.880   1.270   2.988  0.9651  0.2188  0.3884
  925SOL     OW 2773   0.058   1.142   0.744  0.0047  0.0437  0.1087
  925SOL    HW1 2774   0.109   1.132   0.824  0.5104  1.4366 -4.0933
  925SOL    HW2 2775   3.096   1.063   0.737  2.0069  0.4759  2.4347
  926SOL     OW 2776   0.088   3.050   1.249 -0.1104  0.1841 -0.1556
  926SOL    HW1 2777   0.174   0.007   1.252  0.1690  1.0879 -0.0072
  926SOL    HW2 2778   0.090   2.987   1.165  1.2801 -3.7530  1.0078
  927SOL     OW 2779   0.475   1.825   2.513  0.6868  0.0097  0.3595
  927SOL    HW1 2780   0.443   1.743   2.454  0.0818 -1.4958  0.5773
  927SOL    HW2 2781   0.467   1.913   2.463 -1.3570 -0.2054  0.3808
  928SOL     OW 2782   0.364   0.491   2.428  0.1237 -0.3732 -0.1362
  928SOL    HW1 2783   0.354   0.449   2.523  1.2006  0.7580  2.8710
  928SOL    HW2 2784   0.327   0.584   2.423  1.4315 -1.5909  1.5738
  929SOL     OW 2785   2.624   1.962   1.115 -0.4148 -0.8876  0.4794
  929SOL    HW1 2786   2.662   2.055   1.084  2.9750  3.1684 -4.2126
  929SOL    HW2 2787   2.662   1.895   1.047 -0.9765  0.7091  0.0482
  930SOL     OW 2788   1.809   0.424   2.322 -0.1181  0.0260  0.4126
  930SOL    HW1 2789   1.730   0.370   2.362  0.0314 -0.5706 -0.8346
  930SOL    HW2 2790   1.812   0.418   2.222 -0.4897  0.5189 -0.1957
  931SOL     OW 2791   2.464   0.950   2.790  0.0077  0.4390 -0.0254
  931SOL    HW1 2792   2.364   0.942   2.762  0.7701  0.0819 -0.1367
  931SOL    HW2 2793   2.509   1.028   2.744  2.8067 -1.7855 -0.0835
  932SOL     OW 2794   1.783   0.854   0.422 -0.2037 -0.3111  0.5761
  932SOL    HW1 2795   1.768   0.769   0.368  0.2579  0.4722 -0.9490
  932SOL    HW2 2796   1.715   0.919   0.391 -0.2004 -3.6792  1.9207
  933SOL     OW 2797   2.212   0.862   0.540 -0.8380 -0.0340 -0.4788
  933SOL    HW1 2798   2.116   0.852   0.579 -0.9571 -0.5593  0.5567
  933SOL    HW2 2799   2.238   0.956   0.521  1.9648 -0.3915 -0.4291
  934SOL     OW 2800   2.554   1.143   2.612 -0.2889 -0.3157  0.1196
  934SOL    HW1 2801   2.658   1.154   2.617  1.7910 -1.2022  3.1852
  934SOL    HW2 2802   2.531   1.091   2.525  0.8082 -1.4583  0.4424
  935SOL     OW 2803   0.088   1.407   1.161 -0.1926  0.3603 -0.1272
  935SOL    HW1 2804   0.037   1.466   1.088  0.1034  1.1225 -0.8082
  935SOL    HW2 2805   0.024   1.389   1.239  1.2281 -0.4930 -0.9145
  936SOL     OW 2806   0.004   0.060   0.165  0.8685 -0.1332  0.1329
  936SOL    HW1 2807   0.076   0.054   0.237 -0.0497 -2.4488 -0.1394
  936SOL    HW2 2808   0.035   0.120   0.089 -1.2908  1.1388  1.6259
  937SOL     OW 2809   0.127   2.467   1.797  0.2359  0.2526 -0.4843
  937SOL    HW1 2810   0.094   2.538   1.731 -2.0140  0.6978 -0.8486
  937SOL    HW2 2811   0.127   2.379   1.747 -1.2470  2.5990 -0.6085
  938SOL     OW 2812   2.338   2.221   0.115 -0.1126 -0.2888  0.0853
  938SOL    HW1 2813   2.421   2.254   0.073 -2.4858 -0.5573  3.5316
  938SOL    HW2 2814   2.328   2.270   0.204  1.0189  0.0157  0.8003
  939SOL     OW 2815   1.339   0.613   1.449 -0.1519  0.4265 -0.0581
  939SOL    HW1 2816   1.410   0.627   1.519 -1.5979 -0.0806 -3.6628
  939SOL    HW2 2817   1.267   0.682   1.460  0.0119 -2.5859 -0.6718
  940SOL     OW 2818   2.286   2.840   2.853 -0.5438  0.0928  0.1441
  940SOL    HW1 2819   2.190   2.861   2.870  0.3650  2.7619 -1.7426
  940SOL    HW2 2820   2.310   2.747   2.889 -2.6519  1.4849 -0.5577
  941SOL     OW 2821   2.626   2.771   2.159 -0.0413  0.0987 -0.2147
  941SOL    HW1 2822   2.525   2.789   2.146  0.6563 -0.3577  1.3503
  941SOL    HW2 2823   2.651   2.671   2.156 -1.1275  0.1803  1.3985
  942SOL     OW 2824   1.362   0.220   1.422  0.3506  0.1875  0.3306
  942SOL    HW1 2825   1.432   0.272   1.477  2.5163  1.6521 -3.1735
  942SOL    HW2 2826   1.373   0.226   1.325 -2.9361  1.5388  0.2777
  943SOL     OW 2827   1.068   1.464   2.530 -0.6487  0.0096  0.1696
  943SOL    HW1 2828   1.115   1.372   2.515 -0.9751 -0.7497 -0.6638
  943SOL    HW2 2829   1.018   1.484   2.449  0.8600  0.4372  0.2753
  944SOL     OW 2830   2.847   0.856   1.353 -0.9837 -0.0875  0.0664
  944SOL    HW1 2831   2.929   0.879   1.290  1.3164  2.7259 -2.4540
  944SOL    HW2 2832   2.781   0.782   1.331  1.4250  3.2173 -1.0615
  945SOL     OW 2833   2.884   3.100   2.649  0.3942  0.4167 -0.2344
  945SOL    HW1 2834   2.826   0.068   2.692  2.2013  0.2248 -1.7284
  945SOL    HW2 2835   2.935   3.038   2.714  0.6395  3.1894 -0.7142
  946SOL     OW 2836   2.994   1.562   1.460 -0.0738 -0.1483  0.1611
  946SOL    HW1 2837   3.073   1.587   1.510  1.1524  2.0173 -1.9254
  946SOL    HW2 2838   3.015   1.501   1.387 -0.1298 -0.5919  2.6295
  947SOL     OW 2839   0.571   0.354   2.916  0.1127 -0.1930  0.1969
  947SOL    HW1 2840   0.649   0.405   2.872  3.7571 -0.1786 -0.9068
  947SOL    HW2 2841   0.560   0.265   2.873 -0.1243  1.3997  1.8424
  948SOL     OW 2842   2.122   1.500   1.132  0.2218 -0.3404  0.0847
  948SOL    HW1 2843   2.155   1.512   1.226 -0.6903 -0.3999  0.5445
  948SOL    HW2 2844   2.201   1.515   1.067  3.1711  0.0658 -1.5955
  949SOL     OW 2845   0.196   1.110   2.986 -0.2726  0.0184  0.4269
  949SOL    HW1 2846   0.192   1.085   3.083  0.0849  2.0673 -1.3982
  949SOL    HW2 2847   0.116   1.082   2.929  1.8281 -2.8758 -0.6652
  950SOL     OW 2848   0.394   3.043   1.475  0.1682 -0.0189  0.0933
  950SOL    HW1 2849   0.347   2.999   1.554 -3.4901  3.9101  2.2934
  950SOL    HW2 2850   0.476   2.985   1.456  0.5218  0.2420 -0.7076
  951SOL     OW 2851   0.824   2.141   2.614  0.1410 -0.4688 -0.4059
  951SOL    HW1 2852   0.806   2.039   2.615  2.9849 -0.3909  0.1691
  951SOL    HW2 2853   0.862   2.183   2.698 -1.2283 -3.5610  2.2931
  952SOL     OW 2854   0.706   1.290   0.518 -0.4020 -0.1184  0.1420
  952SOL    HW1 2855   0.713   1.191   0.536 -2.5493 -0.2521  1.3135
  952SOL    HW2 2856   0.764   1.323   0.443  0.2454  1.7327  1.5674
  953SOL     OW 2857   2.241   1.664   3.003 -0.5118  0.4023 -0.1061
  953SOL    HW1 2858   2.303   1.653   2.922  0.6403 -3.0162  0.5947
  953SOL    HW2 2859   2.260   1.590   3.073 -2.3452 -0.6165  1.2587
  954SOL     OW 2860   1.391   0.335   0.805 -0.4642  0.1529  0.1038
  954SOL    HW1 2861   1.445   0.411   0.759  0.2258 -1.1282 -1.3609
  954SOL    HW2 2862   1.446   0.249   0.823  2.3727  2.2015 -0.5777
  955SOL     OW 2863   1.016   1.496   0.077 -0.7887  0.9462  0.1019
  955SOL    HW1 2864   0.921   1.537   0.083 -1.4041 -0.6974 -1.8623
  955SOL    HW2 2865   1.081   1.567   0.112  1.5360 -0.1206  0.1824
  956SOL     OW 2866   2.749   0.532   2.069  0.0424  0.3286 -0.2691
  956SOL    HW1 2867   2.833   0.595   2.069  0.9428  1.0659  2.6181
  956SOL    HW2 2868   2.774   0.437   2.043 -2.6260  1.0365  0.9690
  957SOL     OW 2869   1.833   2.158   2.166 -0.0916  0.1520  0.2621
  957SOL    HW1 2870   1.812   2.067   2.124 -0.3210 -1.2280 -0.4337
  957SOL    HW2 2871   1.752   2.184   2.220  0.1936  0.8160 -0.5868
  958SOL     OW 2872   1.686   1.172   1.367 -0.1308 -0.2542 -0.4470
  958SOL    HW1 2873   1.773   1.212   1.408  1.3222 -0.9522 -1.6472
  958SOL    HW2 2874   1.701   1.153   1.268  0.2989 -0.0362  1.3614
  959SOL     OW 2875   1.561   2.166   1.968  0.2657  0.0149 -0.2012
  959SOL    HW1 2876   1.620   2.086   1.994  0.9870 -2.2301 -0.5501
  959SOL    HW2 2877   1.619   2.243   1.940  0.4810  0.3378 -0.2266
  960SOL     OW 2878   0.826   1.361   2.643  0.1522 -0.7117 -0.8056
  960SOL    HW1 2879   0.882   1.444   2.646 -1.0011 -0.6034  1.0883
  960SOL    HW2 2880   0.744   1.373   2.578 -0.7629 -1.2976  1.7211
  961SOL     OW 2881   3.027   1.134   2.855 -0.1868  0.3562  0.1263
  961SOL    HW1 2882   3.088   1.214   2.846 -0.4591 -1.0152  2.0491
  961SOL    HW2 2883   2.941   1.166   2.900  1.7377  0.9976 -2.7264
  962SOL     OW 2884   0.981   1.880   0.057 -0.6436  0.1201  0.3518
  962SOL    HW1 2885   1.055   1.944   0.085 -0.2831 -1.3772  0.3164
  962SOL    HW2 2886   0.944   1.892   3.065  0.4021  0.6344 -1.2050
  963SOL     OW 2887   2.719   1.547   3.032  0.2730  0.4642 -0.3063
  963SOL    HW1 2888   2.821   1.541   3.023  1.0533 -0.6958  1.6674
  963SOL    HW2 2889   2.688   1.632   3.076  2.1136  0.7569 -0.8864
  964SOL     OW 2890   0.683   2.026   2.225 -0.5112 -0.2384 -0.0351
  964SOL    HW1 2891   0.701   2.118   2.267 -1.4118  1.4314  1.1852
  964SOL    HW2 2892   0.765   1.970   2.208  0.4030  1.6605  2.5026
  965SOL     OW 2893   1.561   1.860   1.312  0.3997 -0.2502 -0.6458
  965SOL    HW1 2894   1.654   1.864   1.354  0.5893  1.1548 -2.3965
  965SOL    HW2 2895   1.515   1.783   1.356  1.2305 -1.4777 -0.3799
  966SOL     OW 2896   2.841   1.507   0.247  0.3848  0.3971  0.4578
  966SOL    HW1 2897   2.928   1.546   0.214 -4.6399 -1.7357 -1.9649
  966SOL    HW2 2898   2.782   1.475   0.172 -1.0609 -0.5005 -0.4308
  967SOL     OW 2899   1.689   2.787   2.402  0.5431  0.3005 -0.1232
  967SOL    HW1 2900   1.764   2.853   2.433 -0.2298  1.9851 -0.4020
  967SOL    HW2 2901   1.714   2.735   2.315 -1.0093 -1.0187 -2.2359
  968SOL     OW 2902   1.562   1.381   2.934  0.0936 -0.0541 -0.0051
  968SOL    HW1 2903   1.664   1.385   2.919 -2.5574  1.3560  0.0864
  968SOL    HW2 2904   1.521   1.441   3.008  0.9284  1.3926  0.3590
  969SOL     OW 2905   0.217   0.970   2.253 -0.0266 -0.4300 -0.4729
  969SOL    HW1 2906   0.206   1.062   2.209  0.6918  0.5461  1.2246
  969SOL    HW2 2907   0.315   0.958   2.280 -0.2973  0.5645  1.0745
  970SOL     OW 2908   2.603   0.046   0.197  0.2936 -0.2293  0.2467
  970SOL    HW1 2909   2.621   3.051   0.168  0.1428 -1.1859 -0.3483
  970SOL    HW2 2910   2.503   0.065   0.189  0.6229  0.0195  2.0576
  971SOL     OW 2911   2.136   1.933   0.870 -0.0193  0.2944 -0.0975
  971SOL    HW1 2912   2.174   2.007   0.927 -2.2213 -1.2585  1.5692
  971SOL    HW2 2913   2.173   1.842   0.891  0.9680  3.2215  0.8325
  972SOL     OW 2914   0.286   2.010   2.663 -0.7209  0.1580  0.4516
  972SOL    HW1 2915   0.296   1.973   2.569 -2.3573  0.4289  0.5227
  972SOL    HW2 2916   0.325   1.941   2.731  0.4821 -2.7162 -1.3017
  973SOL     OW 2917   0.780   0.324   0.435  0.2920  0.0149  0.3166
  973SOL    HW1 2918   0.776   0.242   0.370 -1.0027 -1.6430 -1.2881
  973SOL    HW2 2919   0.692   0.380   0.435 -2.7564  1.0565 -1.4918
  974SOL     OW 2920   2.277   0.851   1.602 -0.0670  0.0670 -0.2355
  974SOL    HW1 2921   2.365   0.878   1.561 -0.9366  1.3094 -0.3383
  974SOL    HW2 2922   2.301   0.774   1.663 -0.3381  1.2137  3.1579
  975SOL     OW 2923   0.347   0.095   0.717  0.2023 -0.1994 -0.5111
  975SOL    HW1 2924   0.348   3.098   0.739 -0.0859  2.5436  0.7814
  975SOL    HW2 2925   0.443   0.130   0.708  1.0202  0.5720  1.3538
  976SOL     OW 2926   0.644   1.486   1.523  0.1656 -0.4162  0.0451
  976SOL    HW1 2927   0.611   1.408   1.462  0.9729 -0.6683 -2.3803
  976SOL    HW2 2928   0.642   1.578   1.478  2.0123  0.2495 -0.0472
  977SOL     OW 2929   1.468   2.044   0.252  0.1457 -0.2435  0.3801
  977SOL    HW1 2930   1.571   2.017   0.266  2.2460  1.6775  2.1166
  977SOL    HW2 2931   1.441   2.133   0.292 -2.0924  0.3948 -1.0234
  978SOL     OW 2932   0.226   1.039   0.136  0.0595 -0.2475  0.1862
  978SOL    HW1 2933   0.155   1.004   0.203 -1.2339 -1.6371 -0.7055
  978SOL    HW2 2934   0.313   1.060   0.182 -0.4967  1.2979 -1.2787
  979SOL     OW 2935   1.946   1.279   0.184 -0.1516  0.0235 -0.1497
  979SOL    HW1 2936   2.004   1.355   0.218 -0.7102 -0.9770  1.9571
  979SOL    HW2 2937   1.951   1.197   0.245 -1.5662 -2.1302  1.3512
  980SOL     OW 2938   0.724   1.742   1.836 -0.2047 -0.4396 -0.3234
  980SOL    HW1 2939   0.681   1.651   1.846  3.3697  0.5807 -0.2686
  980SOL    HW2 2940   0.678   1.814   1.893  0.6494 -2.7389 -2.2825
  981SOL     OW 2941   2.354   1.386   2.396  0.6770 -0.1524  0.5483
  981SOL    HW1 2942   2.451   1.404   2.367  1.2734 -0.9056  2.3653
  981SOL    HW2 2943   2.345   1.372   2.496  0.8713  0.3074 -1.6460
  982SOL     OW 2944   0.392   2.084   1.648  0.3427  0.1286  0.5173
  982SOL    HW1 2945   0.359   2.157   1.582 -1.1003  2.0686  3.9159
  982SOL    HW2 2946   0.361   2.104   1.745 -1.4627  2.6695 -1.1759
  983SOL     OW 2947   1.530   3.051   1.948 -0.4103  0.0341 -0.9086
  983SOL    HW1 2948   1.474   3.001   1.882  0.2939  1.1257  0.6632
  983SOL    HW2 2949   1.493   0.044   1.955  0.8305 -0.0747 -2.5627
  984SOL     OW 2950   0.004   0.033   2.880 -0.1648  0.5622  0.2453
  984SOL    HW1 2951   0.015   0.123   2.929 -0.2073  2.7131  0.9552
  984SOL    HW2 2952   3.083   3.071   2.955 -1.3962  0.9249  0.8922
  985SOL     OW 2953   1.475   1.380   1.951 -0.6873 -0.0839 -0.4781
  985SOL    HW1 2954   1.482   1.348   1.854  0.3115  1.5062 -0.3611
  985SOL    HW2 2955   1.394   1.340   1.994  0.7678 -0.8222  0.3195
  986SOL     OW 2956   1.751   0.438   2.958  0.0084 -0.3368 -0.9345
  986SOL    HW1 2957   1.814   0.392   3.019 -0.9583  1.4939 -1.8089
  986SOL    HW2 2958   1.782   0.421   2.863 -0.8386 -1.1261  0.7110
  987SOL     OW 2959   0.267   2.304   2.557  0.7615  0.0352 -0.5352
  987SOL    HW1 2960   0.366   2.328   2.554  0.5235 -0.6320  0.5953
  987SOL    HW2 2961   0.246   2.233   2.628 -0.0130  0.4813  0.2464
  988SOL     OW 2962   2.848   0.231   1.500 -0.0369 -0.1695  0.5449
  988SOL    HW1 2963   2.934   0.181   1.479 -0.4122  2.6222  1.2132
  988SOL    HW2 2964   2.775   0.190   1.444 -0.1047 -0.7882  0.1408
  989SOL     OW 2965   2.095   0.058   0.980 -0.0831  0.1187  0.3208
  989SOL    HW1 2966   2.051   3.069   0.972 -2.1274 -1.2469  1.4314
  989SOL    HW2 2967   2.107   0.098   0.884  0.0428  1.6103 -1.4994
  990SOL     OW 2968   2.607   0.811   0.195 -0.1164  0.3042  0.2666
  990SOL    HW1 2969   2.572   0.845   0.104 -0.7461  4.2993 -0.6682
  990SOL    HW2 2970   2.699   0.851   0.215 -2.0518 -2.4093  2.0536
  991SOL     OW 2971   0.324   1.027   0.580 -0.4850  0.1145  0.8800
  991SOL    HW1 2972   0.235   1.058   0.540 -0.1168 -1.4692 -1.0962
  991SOL    HW2 2973   0.353   1.093   0.654  1.1394  1.5356  0.7584
  992SOL     OW 2974   1.719   1.644   1.829 -0.5186  0.1007  0.0047
  992SOL    HW1 2975   1.732   1.694   1.922  0.3420  0.7083  0.8862
  992SOL    HW2 2976   1.791   1.572   1.823 -1.1251 -0.0903 -0.2029
  993SOL     OW 2977   0.217   2.172   0.945 -0.2647  0.2112  0.8680
  993SOL    HW1 2978   0.135   2.131   0.987  0.3180  0.8258  0.7268
  993SOL    HW2 2979   0.190   2.213   0.856 -0.5010 -3.1112  0.2789
  994SOL     OW 2980   3.031   1.852   1.615  0.2993 -0.1053 -0.1604
  994SOL    HW1 2981   2.949   1.818   1.665  1.9356 -0.1117  0.2200
  994SOL    HW2 2982   0.008   1.784   1.632 -0.5163  0.7716 -0.8979
  995SOL     OW 2983   2.023   1.570   2.833 -0.1849 -0.2170 -0.7569
  995SOL    HW1 2984   2.009   1.615   2.744  0.6587 -0.9847  0.3549
  995SOL    HW2 2985   2.088   1.618   2.899  1.7897 -0.4742  0.5005
  996SOL     OW 2986   1.842   2.503   0.445 -0.2558 -0.0724  0.2518
  996SOL    HW1 2987   1.893   2.492   0.356  0.0734  3.0664  1.7797
  996SOL    HW2 2988   1.860   2.432   0.510 -1.1166  2.1351 -1.0661
  997SOL     OW 2989   1.434   1.650   1.955 -0.5264 -0.2773  0.4527
  997SOL    HW1 2990   1.337   1.664   1.960  4.4970 -1.7413 -0.8997
  997SOL    HW2 2991   1.457   1.554   1.932  2.1378 -0.3966  2.3144
  998SOL     OW 2992   3.057   2.213   0.535 -0.0045 -0.3916 -0.2290
  998SOL    HW1 2993   3.073   2.217   0.435  0.3718 -1.9921  1.7190
  998SOL    HW2 2994   0.038   2.226   0.592  1.1190  1.6002  1.5912
  999SOL     OW 2995   0.693   3.035   0.177  0.1639  0.2304 -0.0962
  999SOL    HW1 2996   0.621   2.963   0.159  1.1175  1.2040 -1.2177
  999SOL    HW2 2997   0.732   3.070   0.085  4.2449  0.5120 -2.1668
 1000SOL     OW 2998   1.233   0.074   0.074  0.1659 -0.2269 -0.5326
 1000SOL    HW1 2999   1.330   0.044   0.058  4.0915 -0.1859  1.3413
 1000SOL    HW2 3000   1.209   0.144   0.003  0.8582  1.3384  0.3170
   3.10068   3.10068   3.10068
