1000 SPC/Fw water molecules t= 490.00000 step= 490000
 3000
    1SOL     OW    1   2.699   2.926   1.285 -0.1561 -0.3236  0.1342
    1SOL    HW1    2   2.675   2.990   1.210  1.3633  1.0241 -0.7388
    1SOL    HW2    3   2.636   2.933   1.363  2.7858  0.5343 -0.8761
    2SOL     OW    4   2.943   2.518   2.765 -0.2149 -0.1266 -0.0064
    2SOL    HW1    5   2.875   2.591   2.797 -0.8338 -0.8987  0.4576
    2SOL    HW2    6   2.975   2.469   2.846 -0.0809  0.9075  1.6412
    3SOL     OW    7   1.022   1.925   0.225  0.0975 -0.1274 -0.4667
    3SOL    HW1    8   0.978   1.891   0.312 -1.3573 -0.3002  0.8062
    3SOL    HW2    9   1.096   1.989   0.244 -0.2922 -1.1057 -0.3963
    4SOL     OW   10   1.446   2.669   2.358 -0.1352  0.0342  0.0039
    4SOL    HW1   11   1.540   2.628   2.358 -2.4770  0.7696  2.6325
    4SOL    HW2   12   1.453   2.766   2.387 -4.2490 -1.7970  2.1133
    5SOL     OW   13   1.909   0.121   2.938  0.0684 -0.3802  0.6270
    5SOL    HW1   14   1.945   0.032   2.908 -0.6469 -0.7414 -0.7471
    5SOL    HW2   15   1.880   0.117   3.032 -1.3756  0.8696 -0.5967
    6SOL     OW   16   0.124   1.454   0.849  0.1145 -0.3804  0.5474
    6SOL    HW1   17   0.086   1.461   0.943 -0.5804  1.4614 -1.2864
    6SOL    HW2   18   0.222   1.483   0.843 -0.5492  0.7176 -1.8999
    7SOL     OW   19   1.084   1.885   0.586  0.2992 -0.4321 -0.2200
    7SOL    HW1   20   1.054   1.809   0.528 -0.3156  3.0683  3.0392
    7SOL    HW2   21   1.123   1.840   0.672  1.1951  0.1593  1.9854
    8SOL     OW   22   0.383   0.520   0.314 -0.1509  0.1622  0.1604
    8SOL    HW1   23   0.424   0.427   0.330  0.0099 -1.7067  0.1705
    8SOL    HW2   24   0.354   0.564   0.400  2.8946 -0.2054 -0.6519
    9SOL     OW   25   0.193   2.652   1.683  0.6323  0.1624  0.2631
    9SOL    HW1   26   0.291   2.655   1.697 -2.0850  0.7405 -0.1664
    9SOL    HW2   27   0.168   2.691   1.595  0.8922 -2.7248 -1.7337
   10SOL     OW   28   1.474   1.785   0.347 -0.6230  0.0301 -0.0622
   10SOL    HW1   29   1.454   1.807   0.249  0.9140  1.1406 -1.2588
   10SOL    HW2   30   1.443   1.859   0.412  0.8122  0.8784  2.5745
   11SOL     OW   31   1.927   0.347   1.474 -0.3164  0.1873  0.1141
   11SOL    HW1   32   1.851   0.304   1.523 -0.7672  0.2817 -2.3413
   11SOL    HW2   33   1.903   0.436   1.436 -0.6483 -1.8193  2.9825
   12SOL     OW   34   0.299   0.803   2.237  0.5029 -0.1992 -0.3729
   12SOL    HW1   35   0.396   0.833   2.246  2.7248  2.4031  1.2463
   12SOL    HW2   36   0.277   0.705   2.263  2.1542  1.6020  0.4702
   13SOL     OW   37   2.112   0.226   0.449  0.2501 -0.7016 -0.0613
   13SOL    HW1   38   2.116   0.142   0.503 -2.5674 -0.4203  0.1236
   13SOL    HW2   39   2.018   0.262   0.430 -0.6369 -2.2310 -1.0738
   14SOL     OW   40   2.370   2.270   2.995 -0.3052 -0.4377  0.3179
   14SOL    HW1   41   2.412   2.178   3.016 -0.3057 -4.9284 -0.8162
   14SOL    HW2   42   2.302   2.266   2.921 -0.8972  2.6744 -0.2287
   15SOL     OW   43   2.327   2.970   2.591  0.0545 -0.1534  0.2364
   15SOL    HW1   44   2.364   2.898   2.650  0.8398  0.2755 -2.8342
   15SOL    HW2   45   2.266   3.038   2.638 -0.5431 -0.5770 -1.3418
   16SOL     OW   46   0.048   0.505   1.174 -0.0364 -0.6000  0.3302
   16SOL    HW1   47   0.143   0.512   1.144 -3.0972 -2.0424  1.6134
   16SOL    HW2   48   0.002   0.593   1.148  2.4926  2.6787 -0.5897
   17SOL     OW   49   0.657   0.419   1.193 -0.1704  0.1108 -0.0313
   17SOL    HW1   50   0.699   0.506   1.152 -3.1232  0.3308 -2.5777
   17SOL    HW2   51   0.561   0.416   1.158  0.9749  3.1413 -1.3892
   18SOL     OW   52   3.049   0.282   0.692 -0.4901  0.2738  0.6202
   18SOL    HW1   53   0.007   0.206   0.648 -0.0688 -2.6720  1.5729
   18SOL    HW2   54   3.093   0.363   0.653 -1.1728 -0.1609  0.1389
   19SOL     OW   55   2.077   1.765   0.918 -0.6913  0.1746 -0.2601
   19SOL    HW1   56   2.171   1.795   0.949  1.9505  1.4496 -0.7758
   19SOL    HW2   57   2.082   1.737   0.821  0.8747 -0.4296  0.5560
   20SOL     OW   58   2.055   1.562   2.315  0.1766  0.1573 -0.0875
   20SOL    HW1   59   1.954   1.542   2.301 -1.5348 -2.5626 -2.2190
   20SOL    HW2   60   2.068   1.624   2.395 -1.3352 -0.2539 -2.9607
   21SOL     OW   61   1.247   0.134   0.354  0.7639 -0.2555 -0.1723
   21SOL    HW1   62   1.198   0.121   0.265  0.9373  0.9687  1.8701
   21SOL    HW2   63   1.343   0.111   0.338 -0.7924 -1.2037  1.6611
   22SOL     OW   64   2.332   0.969   3.040  0.2660  0.5943  0.0593
   22SOL    HW1   65   2.430   0.948   3.068  1.9114 -0.9473  3.0742
   22SOL    HW2   66   2.320   0.974   2.940 -0.7167  1.8754  0.2912
   23SOL     OW   67   0.264   0.142   2.407  0.1475  0.2233  0.7170
   23SOL    HW1   68   0.296   0.055   2.369 -0.3614 -0.3965  2.9143
   23SOL    HW2   69   0.323   0.175   2.481 -0.5359  0.6863  0.4245
   24SOL     OW   70   2.272   2.333   0.789 -0.0599 -0.0097  0.6365
   24SOL    HW1   71   2.311   2.370   0.875  0.7545  0.3456  0.4990
   24SOL    HW2   72   2.220   2.248   0.809 -1.8558 -2.4006  0.1378
   25SOL     OW   73   1.638   0.364   0.133 -0.4437 -0.3704  0.1370
   25SOL    HW1   74   1.650   0.263   0.124  1.4789  2.4410 -0.0729
   25SOL    HW2   75   1.733   0.407   0.148 -0.2263  0.2989 -1.3371
   26SOL     OW   76   1.105   2.800   2.737  1.2201  0.2700  0.5533
   26SOL    HW1   77   1.092   2.899   2.726  0.0128  1.0564 -0.9337
   26SOL    HW2   78   1.038   2.765   2.809  0.5994  0.6196 -0.5766
   27SOL     OW   79   1.002   0.633   1.327  0.2575 -0.2711  0.0394
   27SOL    HW1   80   0.909   0.602   1.359  0.3986  1.3631  3.2049
   27SOL    HW2   81   0.996   0.717   1.269 -0.3391  1.1227 -0.3252
   28SOL     OW   82   0.818   1.945   1.497 -0.1403 -0.0262  0.4306
   28SOL    HW1   83   0.868   1.880   1.438  0.9409 -0.2560 -2.8408
   28SOL    HW2   84   0.840   1.934   1.597 -1.3837 -0.0785  0.7077
   29SOL     OW   85   2.709   0.529   0.953 -0.3502  0.2782 -0.2318
   29SOL    HW1   86   2.804   0.504   0.948 -0.7966 -0.4275 -2.3579
   29SOL    HW2   87   2.692   0.629   0.937 -0.9703 -0.6200 -0.7915
   30SOL     OW   88   1.465   0.198   1.698 -0.6144 -0.5137 -0.0367
   30SOL    HW1   89   1.455   0.121   1.764  1.7519  2.6379 -0.5216
   30SOL    HW2   90   1.396   0.206   1.627  2.2447 -0.9752 -1.0281
   31SOL     OW   91   1.210   0.125   1.300  0.2444 -0.3516  0.5093
   31SOL    HW1   92   1.195   0.225   1.286  0.2801 -1.8712  1.7217
   31SOL    HW2   93   1.119   0.073   1.303 -3.0527  0.6023  2.8813
   32SOL     OW   94   2.272   1.058   2.152 -0.2414 -0.3066  0.1699
   32SOL    HW1   95   2.341   1.128   2.172  0.2198  1.7336  0.8695
   32SOL    HW2   96   2.263   1.056   2.048 -0.4522 -0.1020 -1.6435
   33SOL     OW   97   2.468   2.793   2.730  0.5914 -0.0086  0.0857
   33SOL    HW1   98   2.415   2.704   2.733 -1.3533 -1.9768 -1.6235
   33SOL    HW2   99   2.571   2.782   2.728  1.3739  0.0714  0.7121
   34SOL     OW  100   1.979   1.132   0.008 -0.2291 -0.2979 -0.0762
   34SOL    HW1  101   2.046   1.099   0.080 -0.7586 -0.0478  0.2207
   34SOL    HW2  102   2.014   1.115   3.013  0.2585 -0.2844  3.9838
   35SOL     OW  103   3.013   1.040   1.220 -0.4239 -0.6719 -0.0738
   35SOL    HW1  104   3.049   1.004   1.134  3.4936  1.3498  1.1862
   35SOL    HW2  105   2.910   1.057   1.213 -1.2817  1.3324  2.0048
   36SOL     OW  106   2.263   2.597   2.730 -0.2233  0.2881  0.3087
   36SOL    HW1  107   2.161   2.607   2.734 -0.1748  1.8532 -2.0413
   36SOL    HW2  108   2.289   2.552   2.643  2.0287  0.0451 -2.3913
   37SOL     OW  109   1.720   0.012   2.060 -0.4059  0.2118 -0.0284
   37SOL    HW1  110   1.741   0.043   1.967 -2.0649 -2.2425 -0.8765
   37SOL    HW2  111   1.803   3.069   2.100 -1.1881  0.0854 -2.2987
   38SOL     OW  112   1.369   1.544   2.306  0.8803 -0.3677 -0.1589
   38SOL    HW1  113   1.343   1.520   2.209  1.9159  1.4842  1.0994
   38SOL    HW2  114   1.464   1.542   2.323 -3.2817  1.6149  2.1868
   39SOL     OW  115   1.691   0.250   1.559  0.8139 -0.0667  0.3030
   39SOL    HW1  116   1.665   0.246   1.461 -0.7377 -2.1806  0.0886
   39SOL    HW2  117   1.607   0.237   1.618  0.5035 -1.0991 -1.4928
   40SOL     OW  118   0.724   2.292   0.449  0.4531 -0.0001  0.2534
   40SOL    HW1  119   0.730   2.190   0.430  0.3647 -0.8309  0.4039
   40SOL    HW2  120   0.705   2.292   0.554 -2.4996 -0.1222 -0.1885
   41SOL     OW  121   2.299   2.369   1.209  0.0359  0.1992 -0.5057
   41SOL    HW1  122   2.284   2.408   1.113 -0.7065  1.2729  0.3243
   41SOL    HW2  123   2.394   2.329   1.221  1.0711  0.5393 -0.7145
   42SOL     OW  124   2.697   3.020   0.241  0.0633  0.2476 -0.9136
   42SOL    HW1  125   2.614   3.061   0.197 -1.0669  1.0663  1.0144
   42SOL    HW2  126   2.693   3.013   0.342 -0.0117  0.7628 -1.6345
   43SOL     OW  127   0.995   1.959   2.049 -0.1409  0.3604 -0.4478
   43SOL    HW1  128   1.000   1.905   1.967  1.1706  0.7292 -2.0794
   43SOL    HW2  129   1.046   1.916   2.121 -1.8907 -0.2178 -1.6060
   44SOL     OW  130   1.723   2.981   1.034  0.2572 -0.9128 -0.2705
   44SOL    HW1  131   1.761   2.990   0.940 -1.0892  0.9169  0.3191
   44SOL    HW2  132   1.787   3.034   1.095  0.6363  1.9766  0.5453
   45SOL     OW  133   0.017   2.175   2.485 -0.0150 -0.1950  0.2844
   45SOL    HW1  134   0.120   2.149   2.491  0.1840 -0.7603  0.1684
   45SOL    HW2  135   3.061   2.154   2.573 -0.3584 -2.7782  3.6722
   46SOL     OW  136   0.805   2.553   1.880  0.4174 -0.0394  0.1884
   46SOL    HW1  137   0.728   2.562   1.945  0.8610 -0.5532 -0.6085
   46SOL    HW2  138   0.894   2.570   1.927 -0.1467 -0.6030 -2.7098
   47SOL     OW  139   0.428   1.997   0.620 -0.4661  0.2208 -0.5155
   47SOL    HW1  140   0.417   2.068   0.691 -1.2413 -0.4151 -1.6706
   47SOL    HW2  141   0.342   1.983   0.563 -1.5086 -4.4480  0.0586
   48SOL     OW  142   0.755   2.801   1.520  0.1707 -0.4214 -0.0983
   48SOL    HW1  143   0.701   2.772   1.438 -1.1267  0.0951 -0.1437
   48SOL    HW2  144   0.693   2.850   1.583  0.1317  1.5502 -0.7190
   49SOL     OW  145   0.504   2.775   3.073 -0.1940 -0.3650  0.2307
   49SOL    HW1  146   0.416   2.767   3.023  1.4201 -0.6514 -2.3908
   49SOL    HW2  147   0.508   2.840   0.062  2.0835  0.9494  2.1173
   50SOL     OW  148   1.689   1.039   0.720  0.5373  0.4984 -0.1712
   50SOL    HW1  149   1.591   1.037   0.758 -0.1345 -0.4598  2.1911
   50SOL    HW2  150   1.754   1.070   0.788 -2.8322 -0.2643 -1.0207
   51SOL     OW  151   1.827   2.942   0.793 -0.5515  0.2159  0.1522
   51SOL    HW1  152   1.873   2.856   0.806 -1.4079  0.7138  1.1131
   51SOL    HW2  153   1.788   2.942   0.696  1.6166 -0.7447 -3.2520
   52SOL     OW  154   0.738   1.561   1.075  0.9486 -0.2576  0.2238
   52SOL    HW1  155   0.703   1.621   1.001 -0.4211  1.6647  3.0614
   52SOL    HW2  156   0.681   1.571   1.162  0.2596 -2.2656  1.7265
   53SOL     OW  157   0.218   0.828   2.817  0.1961 -0.2129  0.0178
   53SOL    HW1  158   0.243   0.815   2.909 -1.6742  1.5563 -1.6656
   53SOL    HW2  159   0.124   0.783   2.797 -1.1999  0.5858 -3.0575
   54SOL     OW  160   2.119   2.018   2.849  0.3554  0.3622 -0.6350
   54SOL    HW1  161   2.023   1.994   2.829  3.0758  0.2033  0.4953
   54SOL    HW2  162   2.174   1.932   2.874 -1.2571 -0.8961 -1.0802
   55SOL     OW  163   2.560   2.335   1.275 -0.6806 -0.2573  0.6081
   55SOL    HW1  164   2.598   2.431   1.262 -0.5331  2.0403 -0.7682
   55SOL    HW2  165   2.578   2.308   1.367 -0.5930 -0.3440 -3.2289
   56SOL     OW  166   1.687   1.104   1.538  0.6172  0.2561 -0.0499
   56SOL    HW1  167   1.785   1.128   1.548  0.9315 -1.0930  0.5762
   56SOL    HW2  168   1.633   1.182   1.492 -2.4776  0.1446 -1.4404
   57SOL     OW  169   2.518   1.949   0.849 -0.1290 -0.3705  0.2638
   57SOL    HW1  170   2.426   1.911   0.869 -1.1959  1.5174  1.4815
   57SOL    HW2  171   2.520   2.046   0.827  0.2956 -2.9330  0.1677
   58SOL     OW  172   1.991   0.311   2.076  0.1470  0.2748 -0.1934
   58SOL    HW1  173   1.907   0.314   2.135  3.1895  3.6126  0.7991
   58SOL    HW2  174   1.959   0.346   1.984 -0.3905  0.7092 -0.6179
   59SOL     OW  175   1.522   0.242   2.421  0.2739 -0.1018 -0.2831
   59SOL    HW1  176   1.574   0.251   2.335 -1.5044 -2.3119  2.4904
   59SOL    HW2  177   1.453   0.167   2.409 -0.6955 -0.7008 -0.5173
   60SOL     OW  178   1.651   1.908   0.058  0.5743 -0.1924 -0.2993
   60SOL    HW1  179   1.559   1.862   0.063  2.5907  0.3546  1.6900
   60SOL    HW2  180   1.643   2.000   0.018 -3.0393 -0.8686  1.3978
   61SOL     OW  181   0.482   1.985   3.008  0.3391  0.2060 -0.3049
   61SOL    HW1  182   0.515   1.895   2.964  0.3906 -0.7355  0.8690
   61SOL    HW2  183   0.408   2.024   2.948 -0.5701 -3.1261 -1.4008
   62SOL     OW  184   1.353   2.410   1.291 -0.1900 -0.5659 -0.0582
   62SOL    HW1  185   1.321   2.506   1.294 -0.9551  0.1378  1.0641
   62SOL    HW2  186   1.332   2.371   1.386 -1.4526  0.6883  1.0871
   63SOL     OW  187   0.680   2.022   0.437 -0.3170 -0.0393 -0.7521
   63SOL    HW1  188   0.591   2.026   0.482  0.7763 -0.6326 -2.1123
   63SOL    HW2  189   0.689   1.931   0.400  0.5293  2.1094  1.6293
   64SOL     OW  190   1.864   1.811   2.470 -0.3083  0.1436  0.3459
   64SOL    HW1  191   1.926   1.798   2.549 -2.7184 -0.1106 -0.7376
   64SOL    HW2  192   1.877   1.899   2.421  2.1149  1.0738 -0.9449
   65SOL     OW  193   1.955   2.063   1.133  0.1882 -0.5264 -0.2067
   65SOL    HW1  194   1.856   2.055   1.118 -1.1199 -1.7849  1.1279
   65SOL    HW2  195   1.981   2.141   1.197  1.1301  2.1012  0.8428
   66SOL     OW  196   2.781   0.271   0.760 -0.0664 -0.3297 -0.3792
   66SOL    HW1  197   2.883   0.297   0.749  2.5863  0.0659 -0.6034
   66SOL    HW2  198   2.767   0.198   0.826 -1.2299 -1.7228 -1.7058
   67SOL     OW  199   2.053   2.676   1.110  0.3945  0.2519 -0.2158
   67SOL    HW1  200   1.954   2.683   1.135  2.4697  0.0832 -2.5504
   67SOL    HW2  201   2.074   2.735   1.032 -1.7988 -0.2730 -0.2860
   68SOL     OW  202   2.669   2.547   1.520 -0.0136  0.5398 -0.1758
   68SOL    HW1  203   2.573   2.535   1.541  0.4421 -2.2465  0.1357
   68SOL    HW2  204   2.689   2.646   1.534  1.4428  0.9796 -3.7906
   69SOL     OW  205   2.726   2.663   2.851 -0.0239 -0.1342 -0.8021
   69SOL    HW1  206   2.744   2.764   2.841 -1.3178  0.7909 -0.6002
   69SOL    HW2  207   2.679   2.636   2.939  0.0422 -2.0345 -0.0399
   70SOL     OW  208   1.273   1.902   2.187  0.2869 -0.1476  0.2535
   70SOL    HW1  209   1.238   1.985   2.233  0.7059 -0.9653 -0.8713
   70SOL    HW2  210   1.347   1.867   2.248 -1.0699 -0.1456  1.2323
   71SOL     OW  211   1.139   2.089   1.845 -0.4443 -0.1454 -0.1626
   71SOL    HW1  212   1.070   2.072   1.916 -2.4158  2.9812 -0.0344
   71SOL    HW2  213   1.190   2.166   1.876 -0.8858 -1.5085 -1.3875
   72SOL     OW  214   2.584   1.138   1.403 -0.0719  0.5172  0.6949
   72SOL    HW1  215   2.678   1.139   1.447 -3.3322 -3.3117 -0.9048
   72SOL    HW2  216   2.513   1.102   1.466  0.8814 -1.4883 -0.5271
   73SOL     OW  217   0.721   2.049   2.324 -0.1926 -0.3255 -0.0815
   73SOL    HW1  218   0.715   1.989   2.241  0.7934 -1.5797 -2.1913
   73SOL    HW2  219   0.691   2.142   2.308  0.2270  1.1780 -0.9158
   74SOL     OW  220   0.933   0.056   2.546 -0.5927  0.2551 -0.3356
   74SOL    HW1  221   0.902   3.050   2.538 -1.7743 -2.6778 -2.3409
   74SOL    HW2  222   0.995   0.076   2.469  1.4370  1.8122  1.6880
   75SOL     OW  223   0.844   3.092   0.907  0.0942  0.3556 -0.5754
   75SOL    HW1  224   0.803   3.002   0.923 -2.7786 -1.3218 -0.0726
   75SOL    HW2  225   0.945   3.089   0.912  0.6959 -0.3464  0.9474
   76SOL     OW  226   0.476   1.118   2.551  0.3741  0.0097 -0.1691
   76SOL    HW1  227   0.547   1.064   2.600 -1.1018 -0.7647 -4.5841
   76SOL    HW2  228   0.381   1.095   2.580  2.8504 -0.0246 -0.3338
   77SOL     OW  229   0.609   2.719   0.508 -0.2016  0.8103  0.4611
   77SOL    HW1  230   0.671   2.637   0.515  1.4745 -1.9372  1.5079
   77SOL    HW2  231   0.652   2.797   0.453 -3.3279 -0.4121  0.7416
   78SOL     OW  232   2.479   0.938   2.577 -0.9351 -0.2375  0.0591
   78SOL    HW1  233   2.499   1.017   2.525  2.6107 -2.0924  1.7551
   78SOL    HW2  234   2.505   0.850   2.536  1.5991 -0.8165 -1.1448
   79SOL     OW  235   1.180   1.361   2.412 -0.1205 -0.6040  0.1004
   79SOL    HW1  236   1.258   1.417   2.374  2.4695  0.4455 -2.1146
   79SOL    HW2  237   1.110   1.421   2.450  4.4511  0.0817  0.1249
   80SOL     OW  238   2.104   0.916   1.480 -0.1243 -0.1723  0.1426
   80SOL    HW1  239   2.051   1.000   1.473 -1.9071 -0.6701  0.6379
   80SOL    HW2  240   2.203   0.939   1.475  1.9829  0.1072 -0.0382
   81SOL     OW  241   2.299   1.009   2.783 -0.1126  0.2976 -0.1378
   81SOL    HW1  242   2.202   1.021   2.760  0.3520  1.5932 -0.6539
   81SOL    HW2  243   2.353   0.986   2.699 -1.0781 -1.1707  2.4461
   82SOL     OW  244   2.290   2.067   1.513  1.0141 -0.0526  0.7243
   82SOL    HW1  245   2.194   2.033   1.492  0.0128  0.7791  1.9907
   82SOL    HW2  246   2.331   1.994   1.567 -2.2140  3.3257  1.3627
   83SOL     OW  247   1.735   2.890   0.237 -0.2187 -0.0738 -0.4630
   83SOL    HW1  248   1.635   2.919   0.246  0.7832  2.0314 -1.7875
   83SOL    HW2  249   1.766   2.904   0.140  0.2977  1.9089  0.2348
   84SOL     OW  250   0.943   0.578   0.678  0.9608 -0.7914  0.4245
   84SOL    HW1  251   0.926   0.480   0.657  2.5549 -0.3796 -2.2427
   84SOL    HW2  252   0.978   0.592   0.770 -0.1778 -0.1806 -1.4532
   85SOL     OW  253   2.174   1.597   1.223  0.1636 -0.0188 -0.2007
   85SOL    HW1  254   2.198   1.534   1.147 -3.3317  1.4976 -0.4950
   85SOL    HW2  255   2.253   1.652   1.243  0.5230 -2.7719 -1.9826
   86SOL     OW  256   0.649   0.846   1.221  0.5998 -0.1702 -0.0458
   86SOL    HW1  257   0.620   0.939   1.196  0.2024 -0.7542  0.3980
   86SOL    HW2  258   0.606   0.814   1.313  0.7910  0.6593  1.9969
   87SOL     OW  259   3.066   1.860   2.529 -0.0626  0.3317  0.1424
   87SOL    HW1  260   3.010   1.836   2.445 -0.3697 -1.3725 -1.4254
   87SOL    HW2  261   0.061   1.899   2.505 -1.9578  0.3661 -2.1880
   88SOL     OW  262   0.383   3.066   2.996 -0.1291 -0.1018 -0.9839
   88SOL    HW1  263   0.452   0.007   2.930  1.7240  1.1049 -2.0785
   88SOL    HW2  264   0.373   2.967   2.989  1.6313  0.8845 -0.6556
   89SOL     OW  265   1.667   0.658   1.119 -0.2728 -0.0169  0.4007
   89SOL    HW1  266   1.732   0.720   1.166 -1.3041  0.2465 -2.4584
   89SOL    HW2  267   1.615   0.605   1.191 -1.0873 -1.3768  0.9329
   90SOL     OW  268   2.865   1.004   1.838 -0.1437 -0.4337 -0.0162
   90SOL    HW1  269   2.770   1.036   1.818 -2.2082 -0.7355  0.8767
   90SOL    HW2  270   2.899   0.973   1.749 -1.0958  0.9610  2.5592
   91SOL     OW  271   1.795   2.660   0.864  0.3431 -0.4334 -0.1279
   91SOL    HW1  272   1.837   2.571   0.836 -0.5346 -0.0310 -1.6388
   91SOL    HW2  273   1.792   2.663   0.967 -1.4316  1.2894 -2.5621
   92SOL     OW  274   1.893   2.084   0.634 -0.1656 -0.2838 -0.0573
   92SOL    HW1  275   1.959   2.062   0.564 -1.9382  1.1159  1.5158
   92SOL    HW2  276   1.820   2.128   0.579  1.3370  0.9727  1.0331
   93SOL     OW  277   0.281   1.458   0.324  0.2883 -0.2433 -0.1985
   93SOL    HW1  278   0.286   1.520   0.407 -0.5197  1.0316  3.0566
   93SOL    HW2  279   0.357   1.395   0.324 -0.4966 -0.0017 -0.5348
   94SOL     OW  280   0.767   2.222   0.979 -0.5266 -0.3725  0.1787
   94SOL    HW1  281   0.866   2.230   0.974  1.2395 -1.3426  0.9806
   94SOL    HW2  282   0.731   2.267   1.065  1.0613 -2.2983 -1.6248
   95SOL     OW  283   0.303   0.880   0.315 -0.2247  0.4135 -0.0316
   95SOL    HW1  284   0.284   0.964   0.372  2.3505  1.1777 -4.4179
   95SOL    HW2  285   0.400   0.846   0.330 -0.0870  0.5699  0.1011
   96SOL     OW  286   1.026   2.600   2.002  0.0112  0.4295  0.2822
   96SOL    HW1  287   1.074   2.662   1.938 -0.5997 -2.5810  3.6882
   96SOL    HW2  288   1.077   2.532   2.061  1.2663 -3.3592  0.9522
   97SOL     OW  289   2.502   1.102   0.591 -0.1668 -0.4363  0.2291
   97SOL    HW1  290   2.427   1.165   0.630  0.3506  1.1777  1.7194
   97SOL    HW2  291   2.564   1.147   0.520 -2.6088  1.6244 -1.7342
   98SOL     OW  292   0.259   1.870   1.839  0.0706  0.8156 -0.4835
   98SOL    HW1  293   0.310   1.881   1.750  0.6984 -0.3678 -1.5809
   98SOL    HW2  294   0.319   1.824   1.908  0.7086  0.4194 -0.3758
   99SOL     OW  295   0.155   0.416   1.820  0.2142  0.1142 -0.3682
   99SOL    HW1  296   0.235   0.467   1.786  0.2336  2.1931  0.4413
   99SOL    HW2  297   0.184   0.324   1.856  0.6415  1.5189  3.0400
  100SOL     OW  298   2.075   0.754   2.548  0.2694  0.1316 -0.1174
  100SOL    HW1  299   2.101   0.679   2.616 -1.9093 -3.8828  0.9403
  100SOL    HW2  300   1.991   0.801   2.585 -1.3987  2.2075  0.6488
  101SOL     OW  301   1.055   0.509   2.017  0.4907 -0.4679 -0.1361
  101SOL    HW1  302   1.113   0.546   2.092  0.2394  2.3097 -2.1495
  101SOL    HW2  303   1.107   0.456   1.946  2.1235 -0.0114  0.6494
  102SOL     OW  304   0.379   0.511   1.702  0.3828 -0.0042  0.5057
  102SOL    HW1  305   0.470   0.473   1.683 -0.5724  0.3980  0.9062
  102SOL    HW2  306   0.383   0.611   1.732 -0.8158 -1.7521  2.1566
  103SOL     OW  307   0.481   0.740   2.984  0.2338  0.5157  0.2818
  103SOL    HW1  308   0.500   0.650   3.027  0.6217  3.7011 -2.2149
  103SOL    HW2  309   0.525   0.820   3.027 -1.3718  1.0791 -2.6048
  104SOL     OW  310   0.463   2.775   1.970  0.3409  0.2957  0.1985
  104SOL    HW1  311   0.379   2.796   2.025  1.5643  0.8075 -0.5669
  104SOL    HW2  312   0.515   2.700   2.014  1.2578 -0.3404  1.8636
  105SOL     OW  313   2.305   2.716   2.042 -0.6869  0.2566  0.1955
  105SOL    HW1  314   2.374   2.789   2.042 -0.6093 -0.3870 -0.3845
  105SOL    HW2  315   2.221   2.747   1.985 -0.1506  0.0997 -2.3680
  106SOL     OW  316   0.548   2.893   0.754  0.4488  0.4981  0.0671
  106SOL    HW1  317   0.582   2.987   0.734 -4.6184  0.3007 -0.6250
  106SOL    HW2  318   0.581   2.826   0.684 -0.2001  0.4252 -0.0718
  107SOL     OW  319   0.075   1.476   1.111 -0.0615 -0.1623 -0.0850
  107SOL    HW1  320   0.100   1.381   1.124 -0.8808 -0.7671 -1.6049
  107SOL    HW2  321   0.048   1.514   1.199  0.0077  0.6492  0.8890
  108SOL     OW  322   0.395   2.325   1.101 -0.0187  0.4033  0.0892
  108SOL    HW1  323   0.359   2.386   1.025 -1.9044  0.1756 -3.2698
  108SOL    HW2  324   0.319   2.273   1.148  1.8038 -1.9899 -1.4152
  109SOL     OW  325   1.107   2.947   0.419 -0.5430  0.3724  0.2718
  109SOL    HW1  326   1.077   3.018   0.486 -1.1607  0.8904 -0.9296
  109SOL    HW2  327   1.207   2.931   0.421  0.9139 -1.2516 -0.4585
  110SOL     OW  328   1.425   2.017   0.502  0.3594 -0.2535  0.1632
  110SOL    HW1  329   1.510   2.076   0.499 -1.5133  2.3062 -1.2115
  110SOL    HW2  330   1.346   2.081   0.520  0.4584  1.2162 -0.6632
  111SOL     OW  331   1.696   2.682   2.049  0.4385 -0.3806  0.5359
  111SOL    HW1  332   1.780   2.634   2.078 -0.9898 -2.2782 -0.7933
  111SOL    HW2  333   1.667   2.763   2.105 -1.3041 -0.1744  0.1536
  112SOL     OW  334   2.066   2.716   2.943 -0.1008  0.2480  0.2720
  112SOL    HW1  335   2.038   2.668   2.855  0.0492 -2.7298 -3.3379
  112SOL    HW2  336   2.137   2.660   2.988  0.7018 -1.1432 -0.8813
  113SOL     OW  337   2.374   2.043   2.117 -0.2125 -0.1776  0.0776
  113SOL    HW1  338   2.428   2.047   2.206  2.3412  1.4190  0.5188
  113SOL    HW2  339   2.439   2.045   2.038 -0.4769 -0.5261 -0.0087
  114SOL     OW  340   0.056   1.239   1.644 -0.1726 -0.1660  0.4106
  114SOL    HW1  341   0.107   1.169   1.696  1.9712 -1.0917 -1.6321
  114SOL    HW2  342   3.070   1.270   1.691  3.8470  0.4204 -1.5665
  115SOL     OW  343   0.064   0.741   0.127  0.1778 -0.4140 -0.2482
  115SOL    HW1  344   0.009   0.786   0.201 -2.7114  1.5685  1.2745
  115SOL    HW2  345   0.152   0.793   0.109  2.4174 -0.4243 -1.5757
  116SOL     OW  346   2.757   0.553   0.102  0.0447 -0.2074  0.0188
  116SOL    HW1  347   2.761   0.610   0.018  1.2645  0.7046  1.8349
  116SOL    HW2  348   2.820   0.467   0.091  1.4299 -0.8814 -1.3330
  117SOL     OW  349   3.004   2.896   0.603  0.6850  0.6137  0.1610
  117SOL    HW1  350   3.007   2.830   0.524 -0.9829  0.6944 -0.9383
  117SOL    HW2  351   2.975   2.842   0.681  0.2664  0.8959 -0.8571
  118SOL     OW  352   1.152   2.391   2.154 -0.7354 -0.8791  0.4732
  118SOL    HW1  353   1.220   2.363   2.080  0.3779  1.0826 -4.0446
  118SOL    HW2  354   1.070   2.334   2.163  0.8440 -0.0173  0.3943
  119SOL     OW  355   0.820   2.513   3.033 -0.3269 -0.3094 -0.0466
  119SOL    HW1  356   0.727   2.479   3.052  2.3909  0.7183  0.4837
  119SOL    HW2  357   0.889   2.441   3.034 -0.4038  0.0135  1.0947
  120SOL     OW  358   1.408   0.910   0.213 -0.3009 -0.0676  0.6664
  120SOL    HW1  359   1.407   0.815   0.251 -1.8818 -0.5068 -0.6413
  120SOL    HW2  360   1.500   0.932   0.179 -2.5523  0.7768 -1.6868
  121SOL     OW  361   1.230   1.226   1.154  0.0508 -0.2338 -0.2476
  121SOL    HW1  362   1.254   1.146   1.213  2.5571 -1.5060 -2.4782
  121SOL    HW2  363   1.295   1.231   1.075  1.7622 -0.0905 -1.1883
  122SOL     OW  364   1.915   1.279   2.065 -0.2407 -0.5474  0.6871
  122SOL    HW1  365   1.858   1.234   1.997  1.1893  0.6971  0.7977
  122SOL    HW2  366   1.943   1.216   2.134 -1.2277 -1.2116 -1.6359
  123SOL     OW  367   0.040   0.786   0.596  0.2553  0.0724 -0.0146
  123SOL    HW1  368   0.089   0.839   0.668 -0.5126 -0.6540  0.0616
  123SOL    HW2  369   3.047   0.747   0.633  1.3364 -0.8558  1.6040
  124SOL     OW  370   0.769   0.269   3.022 -0.6328 -0.4048  0.2723
  124SOL    HW1  371   0.674   0.277   3.050  4.4430 -0.7799 -2.2033
  124SOL    HW2  372   0.819   0.360   3.019  1.0442  2.6088 -3.4146
  125SOL     OW  373   0.497   2.641   2.789  0.1212 -0.8260 -0.4335
  125SOL    HW1  374   0.538   2.560   2.745  2.7153  0.9663 -3.2866
  125SOL    HW2  375   0.551   2.682   2.868 -1.0076  3.7564  2.0787
  126SOL     OW  376   0.835   1.410   2.621  0.0891  0.2634  0.1122
  126SOL    HW1  377   0.894   1.466   2.555  0.9986  3.9926 -2.3176
  126SOL    HW2  378   0.882   1.388   2.710  0.6299  0.7522  1.3532
  127SOL     OW  379   1.041   2.907   1.079 -0.0814  0.5623 -0.1925
  127SOL    HW1  380   1.025   2.962   1.164  0.3982  0.8656  1.8153
  127SOL    HW2  381   1.139   2.925   1.057 -0.6330 -0.5221  0.8286
  128SOL     OW  382   1.712   2.248   0.198 -0.0934 -0.3855 -0.4434
  128SOL    HW1  383   1.628   2.215   0.155  1.6081 -2.0976  0.4793
  128SOL    HW2  384   1.709   2.348   0.221  1.8384  0.5084 -2.8159
  129SOL     OW  385   1.910   1.694   1.266  0.0431 -0.5399 -0.3287
  129SOL    HW1  386   2.009   1.662   1.257  1.6230 -2.5308  0.6133
  129SOL    HW2  387   1.872   1.730   1.179  1.0108  1.4718  0.6797
  130SOL     OW  388   2.003   1.917   1.394 -0.6670 -0.2173 -0.4728
  130SOL    HW1  389   1.961   1.840   1.356  0.2080  2.2567  1.4474
  130SOL    HW2  390   1.983   1.993   1.333  0.4234  0.3304  1.4616
  131SOL     OW  391   0.925   2.985   1.895  0.4275  0.4468  0.2367
  131SOL    HW1  392   1.003   2.986   1.961 -0.3004  1.1249 -0.2155
  131SOL    HW2  393   0.838   2.988   1.943  1.6273 -2.3549 -2.1143
  132SOL     OW  394   2.790   1.616   0.690  0.3798  0.0296  0.2435
  132SOL    HW1  395   2.725   1.693   0.672 -3.5498  1.3524  0.0697
  132SOL    HW2  396   2.850   1.636   0.770  0.7569 -0.7497 -0.8197
  133SOL     OW  397   0.586   1.661   1.689  0.2060 -0.1950  0.6024
  133SOL    HW1  398   0.536   1.611   1.764 -1.4820 -0.4557  1.9283
  133SOL    HW2  399   0.587   1.759   1.706  0.0871 -0.1972  0.4515
  134SOL     OW  400   0.137   0.986   0.770 -1.0747  0.2366  0.0707
  134SOL    HW1  401   0.119   1.079   0.733  2.5780 -0.3454 -0.0739
  134SOL    HW2  402   0.239   0.971   0.776  2.1616  0.8936 -0.9686
  135SOL     OW  403   1.816   1.719   3.056  0.1880 -0.1330  0.3237
  135SOL    HW1  404   1.899   1.724   0.017  1.5294  2.9146  0.1086
  135SOL    HW2  405   1.761   1.803   3.083  0.7256  1.0457 -2.4591
  136SOL     OW  406   2.830   1.677   1.380  0.1583 -0.1398  0.4926
  136SOL    HW1  407   2.902   1.607   1.375 -2.6881 -2.9032  1.2505
  136SOL    HW2  408   2.793   1.681   1.476 -0.5964 -0.2759 -1.8104
  137SOL     OW  409   2.527   1.199   2.887 -0.1545  0.3873  0.0509
  137SOL    HW1  410   2.452   1.130   2.871 -1.9411  2.0875  2.5605
  137SOL    HW2  411   2.521   1.227   2.987 -2.1496  0.9782 -0.2755
  138SOL     OW  412   2.975   0.325   1.046 -0.3400 -0.2540 -0.7442
  138SOL    HW1  413   2.981   0.387   0.965 -0.5885 -1.9148 -2.2658
  138SOL    HW2  414   3.038   0.356   1.126  0.3181  0.1367  0.1521
  139SOL     OW  415   1.908   2.158   3.080  0.3680  0.3124  0.1539
  139SOL    HW1  416   1.835   2.197   0.050 -1.1115  0.8736  3.4727
  139SOL    HW2  417   1.871   2.131   2.993  1.9027 -0.8783  0.4465
  140SOL     OW  418   0.941   1.579   0.768  0.3141 -0.3599 -0.1307
  140SOL    HW1  419   0.856   1.622   0.803 -0.1977  0.6064 -0.0717
  140SOL    HW2  420   1.028   1.636   0.776  0.3533  1.8029  1.4609
  141SOL     OW  421   1.322   1.607   1.061 -0.5687  0.4922  0.2358
  141SOL    HW1  422   1.298   1.570   0.969 -0.4925 -0.3983 -1.7252
  141SOL    HW2  423   1.408   1.660   1.058  1.9806  1.6139 -1.3729
  142SOL     OW  424   0.954   0.900   1.170  0.4993  0.1005 -0.2360
  142SOL    HW1  425   0.916   0.903   1.073  2.2449 -0.2208 -0.1689
  142SOL    HW2  426   1.057   0.885   1.164 -0.8609  0.6402  0.7095
  143SOL     OW  427   0.185   0.091   2.841 -0.0983 -0.0431  0.3815
  143SOL    HW1  428   0.211   3.092   2.867  0.5718 -2.9937 -1.0180
  143SOL    HW2  429   0.260   0.159   2.872 -0.1262 -1.0645 -0.6195
  144SOL     OW  430   2.403   0.188   0.489  0.5875  0.1634 -0.3097
  144SOL    HW1  431   2.458   0.250   0.433  0.3168 -1.2826 -0.8912
  144SOL    HW2  432   2.304   0.219   0.491 -0.8689  1.6258  2.4233
  145SOL     OW  433   1.995   2.967   2.852 -0.0182  0.3451  0.7319
  145SOL    HW1  434   1.987   2.958   2.752 -0.0240  1.6596  0.8908
  145SOL    HW2  435   2.027   2.880   2.894 -0.6213 -0.2081  2.7311
  146SOL     OW  436   2.964   2.942   0.270  0.3531  0.4749  0.5533
  146SOL    HW1  437   2.946   2.842   0.299 -0.3389 -4.0317 -0.1380
  146SOL    HW2  438   2.880   2.987   0.237  0.3981  2.1267  0.9124
  147SOL     OW  439   1.693   1.143   0.330 -0.5366  0.2163  0.1312
  147SOL    HW1  440   1.626   1.160   0.406 -1.6433 -0.0822  0.5076
  147SOL    HW2  441   1.651   1.163   0.238 -0.5865  0.7019  0.7774
  148SOL     OW  442   0.778   2.968   0.495 -0.0333 -0.6392  0.1553
  148SOL    HW1  443   0.811   2.935   0.406 -1.2942 -1.8383 -1.2987
  148SOL    HW2  444   0.770   3.068   0.493 -0.6890  0.9955 -0.9736
  149SOL     OW  445   1.411   0.669   2.274 -0.1112 -0.4559 -0.0304
  149SOL    HW1  446   1.318   0.666   2.313 -0.7624  2.7948 -0.7217
  149SOL    HW2  447   1.475   0.630   2.343 -0.3136  0.5633 -1.8194
  150SOL     OW  448   1.342   2.910   2.597  0.7564 -0.2387  0.3048
  150SOL    HW1  449   1.281   2.837   2.635 -3.2340 -2.9834  0.8534
  150SOL    HW2  450   1.410   2.940   2.670  1.9925 -1.2144  1.9635
  151SOL     OW  451   0.281   1.176   3.084 -0.1958 -0.3979 -0.2067
  151SOL    HW1  452   0.328   1.225   3.008  1.1621  1.7745  0.6640
  151SOL    HW2  453   0.301   1.076   3.079 -2.1998  1.3571  1.1394
  152SOL     OW  454   0.652   0.142   1.503 -0.0476 -0.0377  0.4145
  152SOL    HW1  455   0.555   0.112   1.475 -2.8978 -1.9107 -1.2485
  152SOL    HW2  456   0.656   0.160   1.600 -0.4555  0.2451 -3.3120
  153SOL     OW  457   2.476   3.001   1.550  0.2516 -0.1544  0.3837
  153SOL    HW1  458   2.393   3.026   1.497 -0.2036 -0.9277 -0.3042
  153SOL    HW2  459   2.464   2.924   1.614  3.1323 -1.5813  0.8082
  154SOL     OW  460   2.431   0.077   1.856  0.4599 -0.0157 -0.5656
  154SOL    HW1  461   2.333   0.051   1.837  3.9817 -1.6839 -1.3073
  154SOL    HW2  462   2.435   0.177   1.879 -1.4328  2.0046 -1.0520
  155SOL     OW  463   0.510   1.305   0.265 -0.4902 -0.0255  0.3228
  155SOL    HW1  464   0.503   1.219   0.314  0.5538 -0.5917 -1.9035
  155SOL    HW2  465   0.599   1.308   0.211  2.2530 -2.3787 -2.2422
  156SOL     OW  466   1.879   1.465   0.278 -0.6064  0.9359  0.3475
  156SOL    HW1  467   1.952   1.443   0.350 -0.3434  2.6500  1.5074
  156SOL    HW2  468   1.787   1.491   0.319  0.7660 -0.6230  0.3390
  157SOL     OW  469   0.855   1.994   0.010  0.2092  0.2391 -0.0549
  157SOL    HW1  470   0.809   1.917   3.066 -1.2731  2.1594  4.3789
  157SOL    HW2  471   0.880   1.979   0.108  0.2763  1.2717  1.0965
  158SOL     OW  472   1.770   0.872   1.793  0.2374  0.1727  0.0811
  158SOL    HW1  473   1.672   0.858   1.817  0.5251 -1.4445  0.0092
  158SOL    HW2  474   1.826   0.782   1.778 -0.2353 -0.2532 -0.4865
  159SOL     OW  475   0.349   0.315   0.612  0.0602  0.0346 -0.5445
  159SOL    HW1  476   0.324   0.228   0.659  1.3773  0.3745  0.8791
  159SOL    HW2  477   0.402   0.299   0.529 -3.7109  0.7150 -0.8075
  160SOL     OW  478   2.372   1.565   1.761 -0.1573 -0.2231 -1.0525
  160SOL    HW1  479   2.419   1.528   1.843 -0.2087 -0.0444 -0.1521
  160SOL    HW2  480   2.277   1.535   1.762  1.1382 -0.5513 -2.0806
  161SOL     OW  481   0.358   0.099   0.137  0.0524 -0.5038  0.4112
  161SOL    HW1  482   0.409   0.061   0.216 -0.0802  0.5358 -0.9301
  161SOL    HW2  483   0.374   0.040   0.056  2.4509 -1.3548  2.1821
  162SOL     OW  484   0.051   0.396   2.463  0.0366 -0.1966 -0.3666
  162SOL    HW1  485   3.066   0.430   2.514 -1.5231 -3.2612 -1.5600
  162SOL    HW2  486   0.022   0.331   2.387  0.6435  2.2189  3.7440
  163SOL     OW  487   0.027   2.783   2.661  0.0532  0.2385 -0.4473
  163SOL    HW1  488   0.019   2.681   2.662 -0.6187 -0.3646  0.3465
  163SOL    HW2  489   3.084   2.829   2.746 -1.6929 -0.5122  0.6216
  164SOL     OW  490   2.503   2.003   0.234 -0.0826  0.0030 -0.1592
  164SOL    HW1  491   2.458   2.097   0.225  1.4493 -0.4684 -0.1640
  164SOL    HW2  492   2.544   2.002   0.327 -2.6607 -0.2144 -0.2060
  165SOL     OW  493   1.108   0.786   1.545  0.2363 -0.3018  0.2092
  165SOL    HW1  494   1.176   0.846   1.500  2.4424  3.2666  0.9418
  165SOL    HW2  495   1.074   0.711   1.488  0.1286  2.0810  1.4186
  166SOL     OW  496   2.994   0.265   0.346 -0.0549 -0.1741 -0.1110
  166SOL    HW1  497   3.053   0.182   0.354 -2.3182  1.7275  0.1811
  166SOL    HW2  498   3.043   0.355   0.347 -1.1712  1.0510 -1.6879
  167SOL     OW  499   2.101   0.746   1.000 -0.2306  0.4888 -0.0672
  167SOL    HW1  500   2.173   0.743   0.931 -0.5220  0.7951  0.1882
  167SOL    HW2  501   2.127   0.685   1.075 -0.0859 -0.8285  1.5082
  168SOL     OW  502   1.208   0.385   2.306 -0.3759  0.1662 -0.4570
  168SOL    HW1  503   1.288   0.382   2.245 -2.6200 -0.6762 -1.2782
  168SOL    HW2  504   1.219   0.449   2.379  2.7935 -0.3439 -2.2227
  169SOL     OW  505   1.169   2.031   1.378  0.1004  0.0843 -0.7198
  169SOL    HW1  506   1.101   1.955   1.372  0.5332 -1.1157  0.5113
  169SOL    HW2  507   1.148   2.085   1.465 -2.1477 -0.8002  0.7054
  170SOL     OW  508   3.008   2.863   1.543  0.2381  1.2510  0.2999
  170SOL    HW1  509   3.084   2.793   1.533 -2.1129 -1.1252  0.3772
  170SOL    HW2  510   3.006   2.934   1.469  2.2798  0.6893  0.6387
  171SOL     OW  511   2.698   0.442   2.344 -0.3527  0.0373  0.6992
  171SOL    HW1  512   2.767   0.367   2.348  1.0899 -1.6652 -0.4024
  171SOL    HW2  513   2.622   0.406   2.291 -0.3201 -0.6206 -1.2543
  172SOL     OW  514   1.248   2.929   1.630 -0.3921  0.0175  0.1700
  172SOL    HW1  515   1.347   2.936   1.614  0.3787 -1.2664  0.4350
  172SOL    HW2  516   1.217   3.002   1.693 -0.9718  2.6954  0.7349
  173SOL     OW  517   2.589   2.300   2.829  0.0979 -0.5692 -0.0274
  173SOL    HW1  518   2.516   2.297   2.904  3.9729  0.2495  0.0978
  173SOL    HW2  519   2.567   2.368   2.750 -0.2281  1.8184 -0.6371
  174SOL     OW  520   1.954   1.097   0.408  0.0344 -0.2189 -0.0471
  174SOL    HW1  521   2.024   1.080   0.334  1.5600  1.8369  1.7830
  174SOL    HW2  522   1.865   1.128   0.369 -0.0304 -0.3804 -0.4026
  175SOL     OW  523   0.931   1.474   1.362 -0.5715  0.5857  0.0066
  175SOL    HW1  524   1.009   1.484   1.296 -1.7238 -0.4644  2.0072
  175SOL    HW2  525   0.936   1.547   1.431  2.6322 -1.4558  0.0955
  176SOL     OW  526   0.314   0.088   0.744  0.1634  0.2321  0.0897
  176SOL    HW1  527   0.395   0.024   0.735 -1.4047  0.9536 -0.9653
  176SOL    HW2  528   0.230   0.030   0.726  0.8830 -0.0754  1.5217
  177SOL     OW  529   2.816   1.000   3.089  0.5164 -0.2957  0.7497
  177SOL    HW1  530   2.852   1.061   0.067 -1.7359 -1.0547 -1.7784
  177SOL    HW2  531   2.885   0.926   3.060 -0.0019 -0.3760  0.2983
  178SOL     OW  532   2.764   2.664   2.157 -0.1948  0.2754 -0.0067
  178SOL    HW1  533   2.839   2.697   2.093  0.7017  1.4324  1.8204
  178SOL    HW2  534   2.791   2.581   2.205  0.3525 -2.0982 -0.0072
  179SOL     OW  535   2.348   2.955   0.337 -0.3242 -0.3691  0.8313
  179SOL    HW1  536   2.307   2.877   0.285 -0.6853 -0.0695  2.4821
  179SOL    HW2  537   2.334   3.047   0.287 -1.0540 -1.1651 -2.6857
  180SOL     OW  538   2.001   0.641   0.538 -0.8631 -0.3848 -0.5518
  180SOL    HW1  539   1.972   0.575   0.612  0.0811 -2.0590 -1.4745
  180SOL    HW2  540   1.945   0.729   0.543  0.9972  1.4766  1.6619
  181SOL     OW  541   2.648   0.248   3.053  0.4808  0.0582  0.3180
  181SOL    HW1  542   2.649   0.150   3.022 -0.5052 -1.2153 -1.7441
  181SOL    HW2  543   2.697   0.260   0.048  1.6417  0.5426 -1.5772
  182SOL     OW  544   2.632   1.885   2.352  0.5254 -0.2927 -0.2147
  182SOL    HW1  545   2.564   1.813   2.332  0.5609 -0.6377  2.6441
  182SOL    HW2  546   2.580   1.977   2.347 -2.1661  0.1766 -2.8854
  183SOL     OW  547   0.300   0.938   2.000  0.2749 -0.5663  0.3790
  183SOL    HW1  548   0.293   1.034   2.031  2.2586  0.1486  2.2241
  183SOL    HW2  549   0.288   0.882   2.082 -0.0310  0.7181  3.3195
  184SOL     OW  550   0.224   1.253   1.165  0.7468 -0.5625  0.3207
  184SOL    HW1  551   0.233   1.189   1.244  1.9242 -0.0080  0.4208
  184SOL    HW2  552   0.233   1.194   1.083  0.9592 -1.3876  0.7748
  185SOL     OW  553   0.000   2.591   1.250 -0.6205  0.3468 -0.3398
  185SOL    HW1  554   0.007   2.563   1.153  3.1180  0.5141  1.4499
  185SOL    HW2  555   2.998   2.618   1.263  3.3318 -1.5957 -2.9092
  186SOL     OW  556   1.698   2.700   2.919  0.2581  0.6973  0.5188
  186SOL    HW1  557   1.766   2.629   2.939  1.5862 -1.6160  1.7529
  186SOL    HW2  558   1.606   2.655   2.919 -2.2799  0.0561  0.4497
  187SOL     OW  559   0.293   1.293   0.632 -0.1375 -0.2789 -0.2117
  187SOL    HW1  560   0.192   1.303   0.611 -3.1023  2.4691  1.5159
  187SOL    HW2  561   0.330   1.347   0.706  1.6757  0.4044 -1.1024
  188SOL     OW  562   1.790   1.904   0.318  0.4121  0.3937  0.0127
  188SOL    HW1  563   1.724   1.870   0.247 -3.0565 -2.5564 -0.4108
  188SOL    HW2  564   1.814   2.002   0.307 -2.4287 -0.7010  1.4880
  189SOL     OW  565   0.021   1.595   2.921  0.2760  1.0979  0.5796
  189SOL    HW1  566   3.042   1.526   2.945 -2.2421 -0.9220  1.0006
  189SOL    HW2  567   0.107   1.576   2.971  1.2998 -2.7414 -1.7930
  190SOL     OW  568   2.427   0.468   2.284 -0.2826  0.1529  0.0268
  190SOL    HW1  569   2.413   0.456   2.186 -0.1498 -1.5348  2.1328
  190SOL    HW2  570   2.345   0.437   2.332  0.6544  1.9884 -1.1089
  191SOL     OW  571   0.595   1.168   2.191  0.4067 -0.0470 -0.2170
  191SOL    HW1  572   0.500   1.190   2.232 -0.9876 -1.7667 -1.3680
  191SOL    HW2  573   0.664   1.160   2.268  1.3740 -0.5378  0.0772
  192SOL     OW  574   2.008   1.239   1.738 -0.4000  1.1197  0.5313
  192SOL    HW1  575   1.921   1.220   1.790 -1.3255 -4.0416  2.6815
  192SOL    HW2  576   1.990   1.206   1.639 -2.2231  1.6491 -3.3364
  193SOL     OW  577   0.631   0.047   0.748  0.6065  0.0182 -0.1999
  193SOL    HW1  578   0.627   0.123   0.677  0.4157 -0.3367 -3.8145
  193SOL    HW2  579   0.724   0.031   0.783 -0.7932  2.2635  0.5726
  194SOL     OW  580   1.427   1.956   1.321 -0.3454  0.7663 -0.5551
  194SOL    HW1  581   1.432   1.965   1.222 -0.1998 -0.9937  0.3256
  194SOL    HW2  582   1.328   1.977   1.351 -1.6870 -2.3933  0.7755
  195SOL     OW  583   1.767   0.597   0.880 -0.4592  0.2076  0.2020
  195SOL    HW1  584   1.744   0.589   0.975  3.2865  0.8623  0.9769
  195SOL    HW2  585   1.724   0.677   0.834 -2.9061 -1.3570  2.3658
  196SOL     OW  586   1.190   1.747   1.971  0.3845 -0.0937  0.5307
  196SOL    HW1  587   1.208   1.800   1.888  0.0887 -1.3088  1.4372
  196SOL    HW2  588   1.236   1.785   2.054 -1.0509 -0.7504  3.3693
  197SOL     OW  589   2.739   2.919   2.803 -0.1320 -0.3463  0.3711
  197SOL    HW1  590   2.801   2.958   2.731  2.0947 -0.3047  0.2767
  197SOL    HW2  591   2.705   2.991   2.864  1.6228 -2.1380  0.8273
  198SOL     OW  592   3.019   0.557   0.879  0.6942  0.0054 -0.5407
  198SOL    HW1  593   0.025   0.553   0.867  0.1875 -2.4533  2.2414
  198SOL    HW2  594   2.972   0.614   0.810  1.6139  0.7946  1.2946
  199SOL     OW  595   0.588   1.970   1.067  0.2134  0.2643  0.1196
  199SOL    HW1  596   0.623   1.952   1.159  2.5972 -0.6614 -1.6730
  199SOL    HW2  597   0.645   2.040   1.032 -2.0318 -1.9778 -0.6881
  200SOL     OW  598   2.553   1.674   3.079 -0.3997  0.4623  0.2467
  200SOL    HW1  599   2.523   1.733   3.006 -3.7928  0.6552  1.3754
  200SOL    HW2  600   2.625   1.606   3.046  1.3803 -3.6600 -2.3945
  201SOL     OW  601   1.169   2.595   1.635 -0.5741  0.4092 -0.2675
  201SOL    HW1  602   1.178   2.655   1.557  0.3474  1.0264  0.6138
  201SOL    HW2  603   1.075   2.564   1.641 -0.0774 -0.9288 -0.5230
  202SOL     OW  604   0.877   2.748   2.878 -0.1189 -0.0806  0.4052
  202SOL    HW1  605   0.877   2.650   2.906  0.3852  1.1000 -0.1464
  202SOL    HW2  606   0.811   2.813   2.926  0.9445  2.5436  0.5873
  203SOL     OW  607   1.332   2.964   2.976  0.0125  0.6200 -0.3552
  203SOL    HW1  608   1.393   2.971   2.898 -0.2177  2.9868 -2.6104
  203SOL    HW2  609   1.259   3.032   2.969  2.2956  1.6368  0.7734
  204SOL     OW  610   0.455   1.683   1.427  0.2018 -0.3141 -0.2328
  204SOL    HW1  611   0.522   1.644   1.362 -1.3640  1.0726 -0.8257
  204SOL    HW2  612   0.467   1.631   1.515 -0.1635  0.7328  0.4485
  205SOL     OW  613   1.773   1.160   1.857  0.1445 -0.4961 -0.6988
  205SOL    HW1  614   1.776   1.065   1.829 -0.3826 -1.0085 -0.6782
  205SOL    HW2  615   1.686   1.199   1.889  2.0115  0.4796 -3.0629
  206SOL     OW  616   0.076   2.021   0.031 -0.4116  0.0432 -0.5078
  206SOL    HW1  617   0.126   1.972   3.050  4.2024 -0.8085  0.0895
  206SOL    HW2  618   3.092   1.966   0.067 -0.9048 -0.0189 -0.6811
  207SOL     OW  619   0.264   2.116   2.074 -0.1487 -0.1255  0.3489
  207SOL    HW1  620   0.346   2.121   2.015  1.6565  0.3779 -1.6222
  207SOL    HW2  621   0.184   2.111   2.018  1.6782  0.8779  5.3388
  208SOL     OW  622   0.323   2.551   0.964  0.7476 -1.1350  0.0627
  208SOL    HW1  623   0.329   2.548   0.865 -2.2072 -0.9606  2.3205
  208SOL    HW2  624   0.320   2.652   0.995 -0.4381  1.5484 -0.1523
  209SOL     OW  625   1.027   2.813   2.188 -0.1313 -0.0153 -0.2562
  209SOL    HW1  626   1.029   2.746   2.111 -0.9062 -0.2066  1.9271
  209SOL    HW2  627   0.940   2.793   2.243 -2.5486 -0.4534 -1.0017
  210SOL     OW  628   2.570   1.092   1.816  0.2044  0.2853  0.3605
  210SOL    HW1  629   2.507   1.163   1.772 -1.4803  1.8680 -2.4751
  210SOL    HW2  630   2.522   1.008   1.841  0.6455  0.8507  0.4566
  211SOL     OW  631   1.127   0.030   1.758  0.3391 -0.0434 -0.1913
  211SOL    HW1  632   1.096   0.105   1.696  1.9445  0.8961 -0.1019
  211SOL    HW2  633   1.051   3.060   1.782  1.5901  0.5400 -2.0984
  212SOL     OW  634   1.926   2.601   1.766 -0.1448 -0.0101 -0.2857
  212SOL    HW1  635   1.954   2.551   1.850 -1.7139  0.6263  0.3584
  212SOL    HW2  636   1.838   2.565   1.733 -2.0764  2.0667  2.3170
  213SOL     OW  637   0.012   0.164   1.735  0.3170  0.3191 -0.1511
  213SOL    HW1  638   0.013   0.248   1.788  0.1044 -0.0152 -1.9026
  213SOL    HW2  639   3.074   0.083   1.786  1.4983  0.3124  0.5356
  214SOL     OW  640   1.035   2.200   0.962 -0.0503 -0.1942 -0.4145
  214SOL    HW1  641   1.086   2.227   1.045 -0.4030 -0.3929 -0.3328
  214SOL    HW2  642   1.086   2.228   0.880 -2.9012  1.7107  0.5898
  215SOL     OW  643   2.595   2.076   0.481 -0.4903 -0.1867  0.2883
  215SOL    HW1  644   2.529   2.144   0.519 -0.6137  0.9246  0.4202
  215SOL    HW2  645   2.694   2.095   0.501  2.9497  0.5411  2.2503
  216SOL     OW  646   0.098   0.983   1.790  0.2945 -0.1174 -0.2574
  216SOL    HW1  647   0.188   0.955   1.834  1.9303 -0.8697  3.0970
  216SOL    HW2  648   0.030   0.906   1.790 -0.4088  1.3158 -1.4353
  217SOL     OW  649   2.423   0.220   1.522 -0.3548  0.4798  0.4248
  217SOL    HW1  650   2.323   0.231   1.547 -3.9858 -0.4320  0.4279
  217SOL    HW2  651   2.444   0.121   1.531  1.1298  0.2234 -1.0939
  218SOL     OW  652   1.704   2.485   1.629  0.1743  0.5978  0.4754
  218SOL    HW1  653   1.671   2.482   1.529 -4.9018 -1.7810 -1.0842
  218SOL    HW2  654   1.647   2.544   1.686  1.2264 -0.2582 -4.3999
  219SOL     OW  655   2.077   2.365   2.928  0.4987  0.2406 -0.3970
  219SOL    HW1  656   2.135   2.409   2.997 -2.0042  0.8298  1.9303
  219SOL    HW2  657   2.046   2.271   2.963 -1.0851 -2.1609  2.1882
  220SOL     OW  658   1.396   2.920   0.391 -0.1216 -0.1354  0.4570
  220SOL    HW1  659   1.452   3.002   0.375 -0.6524 -0.8221 -0.6788
  220SOL    HW2  660   1.362   2.893   0.297 -1.4968 -1.8416 -0.4569
  221SOL     OW  661   3.054   2.073   1.495 -0.9497  0.3408 -0.0321
  221SOL    HW1  662   0.033   2.144   1.494 -1.0594 -0.3979  0.6469
  221SOL    HW2  663   2.986   2.103   1.569 -0.1026 -1.4896  2.7857
  222SOL     OW  664   1.780   2.723   1.127 -0.8805  0.5528  0.1030
  222SOL    HW1  665   1.758   2.822   1.099  0.5679  1.0728  1.5330
  222SOL    HW2  666   1.727   2.693   1.209  0.5423 -1.0916 -0.4922
  223SOL     OW  667   1.464   0.581   1.324 -0.0989  0.1718 -0.6772
  223SOL    HW1  668   1.384   0.523   1.292  0.9890 -0.7458 -2.3320
  223SOL    HW2  669   1.453   0.631   1.412 -1.0254  0.4889 -0.5260
  224SOL     OW  670   0.012   2.374   1.422  0.1074 -0.0557 -0.3085
  224SOL    HW1  671   0.004   2.463   1.370 -1.5227  0.5873 -2.4223
  224SOL    HW2  672   3.028   2.375   1.488 -0.8881  2.3953 -1.6677
  225SOL     OW  673   2.660   2.176   1.065  0.0561  0.5927  0.2415
  225SOL    HW1  674   2.644   2.242   1.142 -0.8933  0.0465  0.8877
  225SOL    HW2  675   2.610   2.210   0.985  0.7900  2.1044  2.2951
  226SOL     OW  676   1.537   2.166   0.008 -0.5229 -0.4580 -0.6135
  226SOL    HW1  677   1.442   2.129   0.001 -0.4332  1.8126 -2.0430
  226SOL    HW2  678   1.548   2.236   3.030  1.0762 -0.7964  1.6719
  227SOL     OW  679   1.775   1.370   0.779  0.4682 -0.4418 -0.3822
  227SOL    HW1  680   1.844   1.437   0.808 -0.1619  0.3355  1.5806
  227SOL    HW2  681   1.784   1.286   0.834  2.2428  0.7559 -0.0887
  228SOL     OW  682   1.643   0.744   0.361  0.2041  0.1185 -0.0819
  228SOL    HW1  683   1.567   0.702   0.415  0.9248  1.7305  0.5757
  228SOL    HW2  684   1.714   0.779   0.429 -1.1457 -0.9888  0.5138
  229SOL     OW  685   2.768   0.880   2.065  0.3550 -0.0998  0.0604
  229SOL    HW1  686   2.796   0.795   2.114 -3.2444  0.9560  1.3886
  229SOL    HW2  687   2.826   0.898   1.980 -0.9869 -0.7666  0.0793
  230SOL     OW  688   0.402   1.054   1.027  0.3698  0.9731  0.2118
  230SOL    HW1  689   0.479   1.103   1.074  0.2610  1.3797 -0.0599
  230SOL    HW2  690   0.374   0.981   1.090  2.2149 -2.6581 -1.6805
  231SOL     OW  691   2.155   0.509   2.659 -0.5028 -0.7106  0.1292
  231SOL    HW1  692   2.111   0.453   2.731  1.7097 -0.5861  1.5964
  231SOL    HW2  693   2.228   0.569   2.702  0.3684  2.3467  2.9040
  232SOL     OW  694   0.223   1.696   1.031  0.4756 -0.1867 -0.6074
  232SOL    HW1  695   0.203   1.613   1.084 -0.2303  1.2656  1.0758
  232SOL    HW2  696   0.168   1.772   1.077 -1.9344 -3.2187  0.1984
  233SOL     OW  697   1.699   2.846   2.692 -0.1868 -0.0940  0.0469
  233SOL    HW1  698   1.793   2.883   2.673 -3.7109 -0.3694  0.1166
  233SOL    HW2  699   1.703   2.791   2.781 -0.1339 -2.1267  2.8355
  234SOL     OW  700   1.663   2.559   1.359 -0.0186  0.5163 -0.6970
  234SOL    HW1  701   1.590   2.629   1.356 -0.1576  0.1573  0.5791
  234SOL    HW2  702   1.640   2.486   1.291  1.0790  0.9801 -0.5057
  235SOL     OW  703   0.791   1.376   1.610 -0.0898  0.1209 -0.0220
  235SOL    HW1  704   0.840   1.431   1.545 -0.2237  0.1035  2.4853
  235SOL    HW2  705   0.808   1.276   1.586 -4.2592 -0.7918  0.0311
  236SOL     OW  706   0.623   2.412   2.710  0.0540 -0.2318  0.5427
  236SOL    HW1  707   0.709   2.462   2.677  0.5022  1.9516  0.0776
  236SOL    HW2  708   0.640   2.334   2.773  0.6290 -0.1081 -0.0834
  237SOL     OW  709   0.647   0.137   1.779  0.2329 -0.6426 -0.1381
  237SOL    HW1  710   0.658   0.058   1.841  0.2784 -1.1716 -1.2825
  237SOL    HW2  711   0.553   0.142   1.744  0.8815 -0.2702 -2.6141
  238SOL     OW  712   0.804   0.743   0.451  0.0019  0.0971  0.5202
  238SOL    HW1  713   0.833   0.656   0.407  0.0914  1.0951 -1.1626
  238SOL    HW2  714   0.854   0.746   0.536 -1.2475 -0.5818  0.2602
  239SOL     OW  715   2.554   0.796   2.868 -0.5822  0.5656  0.2816
  239SOL    HW1  716   2.558   0.858   2.787 -1.6315 -0.2669 -1.4922
  239SOL    HW2  717   2.560   0.850   2.955 -0.1591 -0.4353 -2.4624
  240SOL     OW  718   2.915   2.105   1.056  0.1670  0.8467 -0.2813
  240SOL    HW1  719   2.817   2.132   1.038  2.7831 -0.0381 -0.5084
  240SOL    HW2  720   2.927   2.067   1.151 -0.4907 -0.3025  0.4241
  241SOL     OW  721   1.140   1.782   0.827  0.2626 -0.2393 -0.0789
  241SOL    HW1  722   1.233   1.803   0.794  0.9726  0.2480 -0.7263
  241SOL    HW2  723   1.135   1.828   0.918  1.1695  3.2269 -0.3031
  242SOL     OW  724   0.726   0.360   0.721 -0.1516  0.3890 -0.0654
  242SOL    HW1  725   0.770   0.325   0.805 -0.9097  0.1847 -3.7215
  242SOL    HW2  726   0.641   0.412   0.750  0.7954 -1.0152 -2.3259
  243SOL     OW  727   0.312   0.469   1.130  0.1447 -0.3976  0.2405
  243SOL    HW1  728   0.360   0.533   1.061  0.5118 -1.4951 -1.4268
  243SOL    HW2  729   0.311   0.377   1.089  2.3368  0.5355  0.7423
  244SOL     OW  730   0.819   0.146   0.567  0.2943  0.3412 -0.4129
  244SOL    HW1  731   0.914   0.114   0.555  0.6180 -0.9141 -0.3272
  244SOL    HW2  732   0.819   0.241   0.608  1.0957 -2.6447  2.2712
  245SOL     OW  733   2.324   1.202   0.323  0.1516 -0.3782  0.1467
  245SOL    HW1  734   2.416   1.183   0.358  0.3594  0.6418  0.4217
  245SOL    HW2  735   2.310   1.304   0.318 -1.1077 -1.4342 -1.0511
  246SOL     OW  736   0.395   2.974   1.618 -0.1620 -0.3962  0.1427
  246SOL    HW1  737   0.403   2.874   1.645  0.7172  1.1677  2.0710
  246SOL    HW2  738   0.375   2.975   1.519  0.5871 -1.7693 -1.1456
  247SOL     OW  739   0.906   0.202   2.037 -0.0044 -0.1560 -0.2558
  247SOL    HW1  740   0.810   0.187   2.071  2.4967 -0.3966  1.7954
  247SOL    HW2  741   0.899   0.245   1.944 -1.0418 -4.5932 -1.7574
  248SOL     OW  742   0.461   1.782   2.031 -0.0467 -0.7773 -0.4756
  248SOL    HW1  743   0.512   1.799   2.117 -1.0459  1.3917  1.3392
  248SOL    HW2  744   0.507   1.710   1.977 -0.0455 -0.8940  0.1183
  249SOL     OW  745   0.914   2.306   0.228  0.1357 -0.3036 -0.2805
  249SOL    HW1  746   0.820   2.294   0.268  0.1320 -1.1705  1.1438
  249SOL    HW2  747   0.966   2.373   0.286  0.2774  3.6295 -0.0552
  250SOL     OW  748   0.583   2.985   2.232 -0.4910 -0.9808 -0.1144
  250SOL    HW1  749   0.487   2.985   2.261  3.2750  1.0492 -2.0255
  250SOL    HW2  750   0.624   3.062   2.284 -1.8641 -0.7909  3.6553
  251SOL     OW  751   2.839   2.147   1.669  0.3282 -0.7736 -0.2519
  251SOL    HW1  752   2.839   2.117   1.765 -0.5738 -1.7190  1.1451
  251SOL    HW2  753   2.746   2.143   1.628  3.5262  0.8250  1.0071
  252SOL     OW  754   1.216   0.409   1.808  0.2364  0.1582 -0.3000
  252SOL    HW1  755   1.241   0.326   1.863  0.7738  3.4476 -0.8501
  252SOL    HW2  756   1.229   0.398   1.709 -1.3232  1.5502 -0.7839
  253SOL     OW  757   2.370   1.721   2.390  0.4833 -0.0316  0.5875
  253SOL    HW1  758   2.382   1.671   2.302 -0.0543 -1.3218 -0.4509
  253SOL    HW2  759   2.314   1.803   2.379 -0.0401 -2.4917  0.6876
  254SOL     OW  760   0.624   1.314   0.871  0.4355  0.0146  0.6179
  254SOL    HW1  761   0.549   1.378   0.896 -1.4410 -0.6578 -1.3379
  254SOL    HW2  762   0.703   1.334   0.931  1.9605 -0.4946  1.2897
  255SOL     OW  763   0.009   2.470   1.772  0.3244 -0.2885 -0.0196
  255SOL    HW1  764   3.021   2.450   1.721 -1.9476 -0.1101 -0.0139
  255SOL    HW2  765   0.075   2.537   1.722  1.1101  2.7534 -1.1965
  256SOL     OW  766   0.487   3.078   0.370 -0.4646  0.1927 -0.0271
  256SOL    HW1  767   0.444   3.017   0.441 -1.1969  0.2096  0.6098
  256SOL    HW2  768   0.551   3.020   0.323 -1.8657  1.3845  0.6129
  257SOL     OW  769   1.212   2.541   2.384  0.1089 -0.2322  0.0768
  257SOL    HW1  770   1.298   2.596   2.384 -1.3271  3.5499  1.0096
  257SOL    HW2  771   1.203   2.504   2.291  0.4637 -1.6424  1.3278
  258SOL     OW  772   1.855   2.022   2.121 -0.2246 -0.4530 -0.0516
  258SOL    HW1  773   1.767   1.973   2.139 -0.0383 -0.3657  0.4176
  258SOL    HW2  774   1.886   1.990   2.029  1.3745  0.0709 -0.3985
  259SOL     OW  775   0.680   0.498   2.337  0.2775  0.0452 -0.4739
  259SOL    HW1  776   0.620   0.446   2.273  5.1791 -0.8459 -0.5184
  259SOL    HW2  777   0.722   0.573   2.284  0.7085 -2.1287  0.0235
  260SOL     OW  778   2.568   0.923   0.032 -0.0959 -0.1732  0.1310
  260SOL    HW1  779   2.569   0.928   0.133  1.4524 -0.6197 -0.6564
  260SOL    HW2  780   2.662   0.939   3.091 -1.0096 -0.5182  0.8860
  261SOL     OW  781   0.929   1.096   0.658 -0.6031 -0.3196 -0.4030
  261SOL    HW1  782   0.894   1.125   0.565  1.0301  1.6064 -0.0455
  261SOL    HW2  783   0.976   1.165   0.717 -1.5422 -0.8059  2.0104
  262SOL     OW  784   2.002   2.543   2.746 -0.0418 -0.4649  0.1867
  262SOL    HW1  785   1.961   2.520   2.656 -1.1382 -3.1029 -2.3818
  262SOL    HW2  786   2.015   2.453   2.791  0.9445 -1.5524  2.6360
  263SOL     OW  787   0.689   2.567   1.035  0.7327  0.1783 -0.0316
  263SOL    HW1  788   0.740   2.518   1.105  0.9621 -0.8235 -2.0498
  263SOL    HW2  789   0.589   2.568   1.059 -1.8371  0.5912  0.0805
  264SOL     OW  790   2.879   1.923   0.822  0.4185 -0.5189  0.2790
  264SOL    HW1  791   2.857   1.974   0.907  0.9676  0.3544  0.7803
  264SOL    HW2  792   2.918   1.834   0.839 -2.4294  1.0775  0.9479
  265SOL     OW  793   1.837   1.418   2.717 -0.3216 -0.1390 -0.0658
  265SOL    HW1  794   1.935   1.402   2.747  1.8114  0.8226  1.4772
  265SOL    HW2  795   1.780   1.438   2.795  1.1621 -3.2826 -1.4261
  266SOL     OW  796   1.606   1.892   2.131 -0.1881 -0.1368 -0.1018
  266SOL    HW1  797   1.656   1.815   2.078 -0.5453 -0.8105  0.9473
  266SOL    HW2  798   1.549   1.860   2.209  0.3999  0.7097 -0.7052
  267SOL     OW  799   2.183   0.403   2.400 -0.4761 -0.2334  0.0602
  267SOL    HW1  800   2.150   0.444   2.490 -0.7693  1.1377 -0.2430
  267SOL    HW2  801   2.164   0.306   2.397  0.6567  1.1115  2.3112
  268SOL     OW  802   1.031   1.110   2.859 -0.4145  0.7740  0.0404
  268SOL    HW1  803   1.030   1.208   2.830 -1.8523 -3.6936  3.3092
  268SOL    HW2  804   1.074   1.046   2.792  0.1220  0.9254 -0.6864
  269SOL     OW  805   2.916   1.925   2.106 -0.3489 -0.2842  0.4815
  269SOL    HW1  806   2.977   1.844   2.110  0.5445  1.8830 -1.2481
  269SOL    HW2  807   2.838   1.910   2.044 -0.7573  1.8057 -1.4248
  270SOL     OW  808   3.005   1.355   3.075 -0.6338  0.4787  0.8547
  270SOL    HW1  809   3.024   1.260   3.045 -3.0872  3.1306  0.4904
  270SOL    HW2  810   3.070   1.389   0.049 -0.4514  0.5596  1.1867
  271SOL     OW  811   0.773   0.287   0.342  0.4886  0.8899 -0.3818
  271SOL    HW1  812   0.784   0.232   0.432 -0.4837 -1.3089  1.6591
  271SOL    HW2  813   0.828   0.368   0.344  0.3304 -3.9638 -1.4032
  272SOL     OW  814   0.057   0.037   0.342  0.0392 -0.4397 -0.2106
  272SOL    HW1  815   0.125   0.019   0.273 -0.5085  1.6684  1.0049
  272SOL    HW2  816   3.076   3.065   0.334  3.4895 -0.6374 -0.8292
  273SOL     OW  817   0.258   2.785   2.136  0.7212 -0.5577  0.4689
  273SOL    HW1  818   0.218   2.722   2.202 -1.7902  0.6154 -1.6313
  273SOL    HW2  819   0.200   2.771   2.047 -3.1424 -0.1868 -0.0896
  274SOL     OW  820   0.413   0.095   1.397  0.2821  0.0664  0.3223
  274SOL    HW1  821   0.328   0.117   1.448  1.7431  2.4994  1.3481
  274SOL    HW2  822   0.407   0.090   1.295 -0.4220  1.8787 -0.0601
  275SOL     OW  823   0.995   1.785   1.366  0.2590  0.2098  0.1170
  275SOL    HW1  824   0.952   1.760   1.279  1.0582  1.2155  1.4505
  275SOL    HW2  825   0.955   1.740   1.448  2.0334  4.1531  0.8458
  276SOL     OW  826   3.086   1.416   2.030 -0.6588 -1.0361  0.0494
  276SOL    HW1  827   0.065   1.410   1.959 -0.9414  0.1225 -2.0100
  276SOL    HW2  828   3.057   1.508   2.048  1.4027 -0.7003 -0.5928
  277SOL     OW  829   1.307   2.287   1.932  0.1906 -0.7871 -0.6115
  277SOL    HW1  830   1.329   2.380   1.902 -3.1454 -0.1738 -1.5424
  277SOL    HW2  831   1.381   2.236   1.972 -1.7459  1.6663  0.6638
  278SOL     OW  832   1.929   2.814   2.309 -0.3021 -0.7759  0.8186
  278SOL    HW1  833   1.914   2.716   2.329  0.9360 -0.4293 -0.0314
  278SOL    HW2  834   2.016   2.826   2.252  1.2710  0.9092 -0.6529
  279SOL     OW  835   1.305   1.550   0.009  0.2899 -0.2643  0.0989
  279SOL    HW1  836   1.367   1.508   0.082 -0.9003 -0.7260 -0.8318
  279SOL    HW2  837   1.366   1.565   3.020  1.2723  1.8720 -2.8457
  280SOL     OW  838   1.223   0.705   0.958  0.0271 -0.5085 -0.2597
  280SOL    HW1  839   1.183   0.787   0.908  0.2454  1.8205  0.4559
  280SOL    HW2  840   1.163   0.623   0.955 -2.1646 -0.8897  0.0352
  281SOL     OW  841   3.090   0.415   2.115 -0.1769  1.0329  0.5029
  281SOL    HW1  842   0.068   0.429   2.046 -0.5078  0.6461 -0.6903
  281SOL    HW2  843   3.030   0.493   2.124  1.7376 -3.3362 -1.0330
  282SOL     OW  844   0.391   2.891   0.515  0.0216 -0.0143  0.6348
  282SOL    HW1  845   0.325   2.842   0.574  0.2066  0.2928 -2.4363
  282SOL    HW2  846   0.470   2.831   0.500  0.7768  1.1351  0.5910
  283SOL     OW  847   1.281   2.349   1.555  0.0380  0.3415  0.2306
  283SOL    HW1  848   1.197   2.293   1.569  2.6887  0.2299 -0.9356
  283SOL    HW2  849   1.277   2.446   1.592 -1.2002 -1.6327  0.6008
  284SOL     OW  850   2.246   2.598   1.362 -1.0345  0.0614 -0.2790
  284SOL    HW1  851   2.147   2.599   1.376  0.6380  0.8257 -2.7928
  284SOL    HW2  852   2.267   2.527   1.287 -2.1162 -0.4343  0.9937
  285SOL     OW  853   0.883   1.788   1.119 -0.2046  0.3979  0.0685
  285SOL    HW1  854   0.844   1.698   1.089 -0.6616 -0.8552  0.0482
  285SOL    HW2  855   0.912   1.837   1.034  2.0118 -0.6465  2.7814
  286SOL     OW  856   0.095   2.683   1.952 -0.2710 -0.5387 -0.0054
  286SOL    HW1  857   0.022   2.746   1.929  1.6413 -0.2884  0.4327
  286SOL    HW2  858   0.070   2.593   1.918  0.6995  1.1937  0.7513
  287SOL     OW  859   0.633   1.131   0.678 -0.3187  0.1665  0.0083
  287SOL    HW1  860   0.727   1.091   0.703  4.3788  1.2338  0.9458
  287SOL    HW2  861   0.611   1.214   0.737 -2.2807  2.2757  2.5011
  288SOL     OW  862   1.343   2.242   2.753  0.2921  0.3902  0.4146
  288SOL    HW1  863   1.297   2.274   2.665 -1.6568  0.3789 -1.2029
  288SOL    HW2  864   1.321   2.143   2.764 -1.5433 -0.3150 -0.8021
  289SOL     OW  865   2.039   1.125   2.490 -0.7051 -0.1105 -0.1393
  289SOL    HW1  866   2.061   1.226   2.487  0.9686  1.5486  2.0106
  289SOL    HW2  867   2.047   1.083   2.397 -0.1450 -1.4419 -1.4069
  290SOL     OW  868   1.836   1.797   0.576  0.2566  0.8028  0.2724
  290SOL    HW1  869   1.812   1.808   0.476  0.9398  3.6869 -1.8511
  290SOL    HW2  870   1.865   1.890   0.608 -1.6679  0.9070 -0.9812
  291SOL     OW  871   1.385   0.861   3.001 -0.0679  0.1103  0.4494
  291SOL    HW1  872   1.395   0.865   2.897 -0.6272  1.1827 -2.8902
  291SOL    HW2  873   1.426   0.776   3.036  0.1194  1.9943  1.1619
  292SOL     OW  874   2.058   1.677   0.610 -1.0431 -0.2600 -0.2073
  292SOL    HW1  875   2.062   1.593   0.553 -2.5526  0.5183 -1.6842
  292SOL    HW2  876   1.968   1.724   0.592 -0.3177  1.9453 -0.1208
  293SOL     OW  877   1.746   0.257   1.092 -0.4380  0.1939  0.0803
  293SOL    HW1  878   1.844   0.261   1.097 -3.3865 -2.2544 -0.3950
  293SOL    HW2  879   1.698   0.263   1.182 -0.2582 -0.6664 -0.4127
  294SOL     OW  880   2.611   1.183   0.349  0.9153 -0.3366  1.0250
  294SOL    HW1  881   2.626   1.082   0.351  0.2917  2.6166 -1.0510
  294SOL    HW2  882   2.693   1.237   0.321 -2.1429 -1.4105  0.2624
  295SOL     OW  883   2.106   1.718   2.561  0.5496 -0.4440 -0.0067
  295SOL    HW1  884   2.152   1.786   2.504 -1.3621 -1.0496 -0.2281
  295SOL    HW2  885   2.172   1.656   2.607 -0.8432  0.1727  3.2806
  296SOL     OW  886   1.204   1.857   1.111  0.2107 -0.1018  0.2486
  296SOL    HW1  887   1.221   1.759   1.084  0.3781 -1.0215  0.5563
  296SOL    HW2  888   1.138   1.861   1.188 -1.2780 -0.0946 -2.1520
  297SOL     OW  889   0.509   0.731   2.710  0.2210  0.1047  0.7374
  297SOL    HW1  890   0.421   0.738   2.657 -0.1328  0.2276  1.3644
  297SOL    HW2  891   0.485   0.718   2.812  0.0332  1.3785  2.3155
  298SOL     OW  892   1.619   2.899   1.680  0.0615  0.8593 -0.1861
  298SOL    HW1  893   1.719   2.901   1.672  0.3834 -5.4123 -2.0564
  298SOL    HW2  894   1.593   2.799   1.708 -1.2866 -3.9287 -0.6223
  299SOL     OW  895   1.161   0.503   2.588  0.0302 -0.2114  0.5681
  299SOL    HW1  896   1.096   0.501   2.667 -0.1706 -1.5947 -0.0276
  299SOL    HW2  897   1.235   0.441   2.605 -1.5178  2.9648  1.6893
  300SOL     OW  898   1.910   1.388   0.039  0.8544 -0.2764 -0.0196
  300SOL    HW1  899   1.889   1.424   0.131 -0.0501 -1.7411 -1.4122
  300SOL    HW2  900   1.946   1.293   0.050 -0.9018 -0.8590 -1.1286
  301SOL     OW  901   2.240   0.231   2.163 -0.1436  0.1226  0.2199
  301SOL    HW1  902   2.231   0.164   2.239 -1.4876 -0.9970 -0.5403
  301SOL    HW2  903   2.146   0.256   2.135  2.2461  0.9193  3.0969
  302SOL     OW  904   2.507   1.662   2.622 -0.2765 -0.0636 -0.1053
  302SOL    HW1  905   2.600   1.687   2.610 -0.6242  2.1444  1.5379
  302SOL    HW2  906   2.454   1.693   2.543  1.7720 -1.3288  1.9856
  303SOL     OW  907   0.121   2.480   2.270 -0.4084 -0.2467  0.3471
  303SOL    HW1  908   0.084   2.440   2.184  0.5298  0.4274 -0.3541
  303SOL    HW2  909   0.058   2.470   2.347  0.4624  2.8802 -1.3104
  304SOL     OW  910   3.031   1.005   0.960  0.1336  0.3178  0.0939
  304SOL    HW1  911   2.944   1.050   0.928 -2.4927  1.3764  2.5750
  304SOL    HW2  912   0.012   0.996   0.891  3.4595  0.2278  0.7959
  305SOL     OW  913   2.978   0.176   2.030 -0.3767  0.0902 -0.3725
  305SOL    HW1  914   3.015   0.260   2.072  0.0680 -0.0429 -0.2549
  305SOL    HW2  915   3.046   0.104   2.017 -2.0785  1.2759  0.3996
  306SOL     OW  916   1.395   1.867   0.751  0.3714  0.4498  0.4721
  306SOL    HW1  917   1.480   1.810   0.770  0.8293  1.5070 -0.4960
  306SOL    HW2  918   1.403   1.920   0.664  0.5204  0.7954 -0.9530
  307SOL     OW  919   2.875   2.739   1.205 -0.9133 -0.6433 -0.4747
  307SOL    HW1  920   2.922   2.788   1.130 -1.1390 -0.2005  0.3921
  307SOL    HW2  921   2.820   2.812   1.250  0.3241 -0.3298 -0.0915
  308SOL     OW  922   2.805   1.780   2.625  0.1649 -0.3309 -0.2133
  308SOL    HW1  923   2.784   1.688   2.663  0.8927 -1.2683 -0.9992
  308SOL    HW2  924   2.901   1.806   2.637  0.7588  2.7734  1.5456
  309SOL     OW  925   0.214   1.922   2.907  0.8455 -0.7312 -0.0543
  309SOL    HW1  926   0.218   1.843   2.848 -0.4472  1.4506  2.4138
  309SOL    HW2  927   0.246   2.006   2.863  0.4650 -2.3130  1.5813
  310SOL     OW  928   2.134   0.453   0.031  0.0918 -0.0594 -0.3035
  310SOL    HW1  929   2.156   0.550   0.027  0.1486 -1.3682 -1.2432
  310SOL    HW2  930   2.218   0.398   0.042 -0.8647 -2.4117 -2.2052
  311SOL     OW  931   1.770   0.959   3.075  0.0430  0.2584  0.4776
  311SOL    HW1  932   1.820   0.902   3.008  1.7384  0.5645  0.9134
  311SOL    HW2  933   1.832   1.032   0.009 -0.0362 -2.1496 -1.1196
  312SOL     OW  934   1.194   1.262   2.175  0.5573 -0.3739 -0.6480
  312SOL    HW1  935   1.160   1.305   2.267 -1.6741  0.2011  1.1008
  312SOL    HW2  936   1.125   1.191   2.148 -0.0310  1.0344 -3.9310
  313SOL     OW  937   0.819   0.072   0.164  0.1905 -0.4084  0.0032
  313SOL    HW1  938   0.833   0.115   0.072 -2.2225 -0.0461 -0.0635
  313SOL    HW2  939   0.797   0.137   0.239  5.5983  0.6885  0.8865
  314SOL     OW  940   0.582   1.933   1.367 -0.2292 -0.1076 -0.0326
  314SOL    HW1  941   0.544   1.837   1.356 -3.1801  2.5666  1.2057
  314SOL    HW2  942   0.668   1.935   1.420 -0.7824 -1.1714  1.5401
  315SOL     OW  943   1.494   2.133   1.578 -0.1581  0.6328  0.0385
  315SOL    HW1  944   1.485   2.082   1.490  2.2442 -0.2199 -1.0316
  315SOL    HW2  945   1.433   2.217   1.576  1.6427  0.2481  1.4189
  316SOL     OW  946   0.543   2.323   0.227  0.3646 -0.3211  0.3527
  316SOL    HW1  947   0.558   2.229   0.188 -1.1781 -0.3283 -0.2708
  316SOL    HW2  948   0.598   2.344   0.312  1.9524 -1.3733  1.1197
  317SOL     OW  949   2.700   0.318   1.183  1.0376  0.1399  0.2803
  317SOL    HW1  950   2.735   0.254   1.255 -1.1068 -1.3834 -0.4828
  317SOL    HW2  951   2.774   0.347   1.126 -2.5245  0.0588  1.6974
  318SOL     OW  952   1.012   2.522   0.372  0.1457  0.6615 -0.2253
  318SOL    HW1  953   1.047   2.577   0.451  0.5816  1.6876 -1.6580
  318SOL    HW2  954   0.942   2.580   0.323 -1.5891  2.9778  0.0488
  319SOL     OW  955   1.317   0.178   2.803 -0.2800  0.2628  0.1393
  319SOL    HW1  956   1.217   0.210   2.814 -3.1394 -0.1116  0.3113
  319SOL    HW2  957   1.371   0.218   2.880  0.2092  1.6815 -2.4568
  320SOL     OW  958   2.356   1.867   1.699  0.7998 -0.3418 -0.0953
  320SOL    HW1  959   2.259   1.875   1.730 -0.8543 -0.1779  1.8613
  320SOL    HW2  960   2.394   1.770   1.706 -1.3345  0.6124  1.8290
  321SOL     OW  961   3.062   2.854   2.922  0.4629  0.5099 -0.0149
  321SOL    HW1  962   2.990   2.818   2.982 -0.1638 -3.2171  2.1793
  321SOL    HW2  963   3.054   2.954   2.917 -2.6657  0.7003  0.0173
  322SOL     OW  964   2.387   0.911   1.148 -0.1273  0.0608  0.0586
  322SOL    HW1  965   2.341   0.977   1.211  2.7541 -1.7475  0.4860
  322SOL    HW2  966   2.405   0.949   1.056  2.5121  3.7900  0.3498
  323SOL     OW  967   2.002   1.738   0.215  0.0427  0.4347 -0.0721
  323SOL    HW1  968   1.936   1.811   0.236 -0.1867 -2.4244  0.7354
  323SOL    HW2  969   1.959   1.649   0.238 -1.6818  0.5230 -1.0946
  324SOL     OW  970   0.185   0.210   1.536  0.2790 -0.0667 -0.0241
  324SOL    HW1  971   0.163   0.291   1.481  0.3740 -1.8255 -1.5710
  324SOL    HW2  972   0.115   0.201   1.610 -0.1183 -1.5334 -0.1362
  325SOL     OW  973   2.790   2.863   0.834 -0.2889 -0.5891 -0.3277
  325SOL    HW1  974   2.759   2.769   0.861  1.5659 -0.5324  0.8006
  325SOL    HW2  975   2.710   2.921   0.819 -0.0589  2.6038  1.5970
  326SOL     OW  976   1.693   2.936   0.540  0.3106 -0.3357 -0.3014
  326SOL    HW1  977   1.602   2.951   0.583  1.1620 -0.0845  0.1818
  326SOL    HW2  978   1.696   2.844   0.490  0.8141  0.8310 -1.1987
  327SOL     OW  979   2.231   2.555   0.333  0.2190 -0.0410  0.9973
  327SOL    HW1  980   2.161   2.507   0.384  2.9557 -3.3297 -1.9487
  327SOL    HW2  981   2.188   2.635   0.291  1.1277  0.7055  0.7918
  328SOL     OW  982   2.751   2.360   1.964 -0.2966 -0.1878 -0.0239
  328SOL    HW1  983   2.823   2.291   1.935  1.0033 -1.6552  0.3952
  328SOL    HW2  984   2.794   2.420   2.033  0.0618 -2.7134  0.2421
  329SOL     OW  985   0.111   2.240   0.675  0.0689 -0.4835  0.0698
  329SOL    HW1  986   0.021   2.217   0.719 -1.0386  2.3081  1.1040
  329SOL    HW2  987   0.188   2.206   0.730 -0.1248  2.2222  2.0118
  330SOL     OW  988   2.173   1.028   1.894  0.1869 -0.0910 -0.1697
  330SOL    HW1  989   2.154   1.120   1.859 -0.2166  0.3077  1.4546
  330SOL    HW2  990   2.131   0.949   1.847  2.3635 -2.0095  0.0872
  331SOL     OW  991   2.401   1.793   0.630 -0.2954 -0.0565  0.4323
  331SOL    HW1  992   2.444   1.759   0.546 -0.9617  1.0162 -0.1555
  331SOL    HW2  993   2.466   1.834   0.696  0.8943 -0.2187  3.1655
  332SOL     OW  994   0.129   2.730   1.452  0.4827  0.4976  0.1846
  332SOL    HW1  995   0.091   2.667   1.386  2.6075  0.9741  0.2891
  332SOL    HW2  996   0.166   2.819   1.414 -3.4580  3.6563 -0.3729
  333SOL     OW  997   2.982   1.673   1.827  0.1877  0.2897 -0.2409
  333SOL    HW1  998   3.019   1.704   1.914 -0.0786  3.3108 -0.6148
  333SOL    HW2  999   3.061   1.664   1.757  1.4125 -2.0845 -2.6203
  334SOL     OW 1000   0.299   0.642   1.340  0.0171 -0.0223  0.0585
  334SOL    HW1 1001   0.237   0.641   1.423  1.1237 -0.7936 -0.4322
  334SOL    HW2 1002   0.290   0.566   1.274  2.7852 -0.9174 -2.4315
  335SOL     OW 1003   2.730   1.619   1.849 -0.3280 -0.2950 -0.3690
  335SOL    HW1 1004   2.708   1.520   1.848  1.1244  1.2305  0.2577
  335SOL    HW2 1005   2.831   1.635   1.841 -2.4227 -1.6869 -1.7098
  336SOL     OW 1006   1.792   2.929   3.046 -0.6281 -0.5562  0.5153
  336SOL    HW1 1007   1.756   2.835   3.032 -0.1999  0.2400 -2.8387
  336SOL    HW2 1008   1.865   2.945   2.980 -3.0213 -1.6506  2.2435
  337SOL     OW 1009   0.758   0.526   1.420 -0.3234  0.2511 -0.3523
  337SOL    HW1 1010   0.736   0.464   1.341 -0.2555  0.3492  1.2749
  337SOL    HW2 1011   0.687   0.600   1.437 -2.4089  1.1219 -0.5893
  338SOL     OW 1012   1.685   2.302   0.949 -0.2440  0.1714 -0.2654
  338SOL    HW1 1013   1.775   2.338   0.911  1.5526 -0.4576 -0.0738
  338SOL    HW2 1014   1.661   2.336   1.045 -0.8495 -1.9254  2.2992
  339SOL     OW 1015   0.500   1.710   1.125  0.0163  0.2337  0.6558
  339SOL    HW1 1016   0.406   1.704   1.089  0.7131  0.5643  1.4752
  339SOL    HW2 1017   0.536   1.795   1.088 -0.8544  0.8100  0.8376
  340SOL     OW 1018   0.322   2.989   2.313 -0.2634  0.7161 -0.5323
  340SOL    HW1 1019   0.300   2.918   2.240 -0.1713 -3.4482 -1.7387
  340SOL    HW2 1020   0.313   2.958   2.412  1.1157 -1.2838  0.0513
  341SOL     OW 1021   2.442   1.448   0.618 -0.2827 -0.0579 -0.4690
  341SOL    HW1 1022   2.425   1.514   0.547  1.5725 -0.1804  1.4153
  341SOL    HW2 1023   2.541   1.422   0.618 -0.1927  0.9539 -0.1864
  342SOL     OW 1024   1.706   2.187   0.453 -0.1492 -0.5072  0.0194
  342SOL    HW1 1025   1.715   2.210   0.354 -1.2484 -0.1344 -0.4661
  342SOL    HW2 1026   1.654   2.255   0.506  1.5970 -0.4035  1.9335
  343SOL     OW 1027   1.931   0.448   0.738  0.0311 -0.1122  0.0776
  343SOL    HW1 1028   1.867   0.493   0.799 -0.0475 -0.9783 -2.7982
  343SOL    HW2 1029   2.007   0.398   0.789  0.0936 -2.4971  4.1270
  344SOL     OW 1030   2.438   0.338   2.888 -0.0727  0.5407 -0.4701
  344SOL    HW1 1031   2.427   0.387   2.798 -1.2470 -0.7684 -1.9648
  344SOL    HW2 1032   2.531   0.354   2.932  0.8625  0.7903  0.3887
  345SOL     OW 1033   1.472   0.117   1.247 -0.0448 -0.2435  0.1232
  345SOL    HW1 1034   1.536   0.064   1.306 -0.3003 -0.4573  3.1168
  345SOL    HW2 1035   1.378   0.111   1.282 -0.3693 -1.3242 -0.8472
  346SOL     OW 1036   2.230   2.306   1.602  0.4592  0.3474 -0.1482
  346SOL    HW1 1037   2.277   2.388   1.574 -1.5122  1.4217  0.4578
  346SOL    HW2 1038   2.255   2.211   1.570  3.3896  2.0882 -2.0263
  347SOL     OW 1039   2.743   3.011   0.528  0.1062  0.0897 -0.0983
  347SOL    HW1 1040   2.829   2.993   0.579  1.7445 -1.6245 -2.7921
  347SOL    HW2 1041   2.725   0.015   0.507  1.4443 -0.2299  0.9012
  348SOL     OW 1042   0.597   1.143   1.181 -0.1992 -0.0132 -0.1650
  348SOL    HW1 1043   0.668   1.193   1.127 -0.0926  0.1088 -0.2720
  348SOL    HW2 1044   0.536   1.203   1.240 -2.7883  1.6258  1.8110
  349SOL     OW 1045   2.198   0.132   0.191  0.3543 -0.4268  0.0196
  349SOL    HW1 1046   2.249   0.196   0.129  4.2136 -1.3573 -1.2793
  349SOL    HW2 1047   2.186   0.173   0.284  0.5854 -0.5738  1.3092
  350SOL     OW 1048   2.525   2.064   3.031  0.3384  0.1544  0.5087
  350SOL    HW1 1049   2.533   2.011   0.023 -0.8042 -2.2125 -4.2050
  350SOL    HW2 1050   2.547   1.994   2.959 -1.5162  0.9770  0.3590
  351SOL     OW 1051   1.082   0.301   0.739  0.3485 -0.0004  0.3085
  351SOL    HW1 1052   1.120   0.357   0.813 -0.7880  1.8142 -2.0486
  351SOL    HW2 1053   1.077   0.205   0.775  0.2246  1.2934 -1.5677
  352SOL     OW 1054   2.252   2.214   2.756 -0.2435  0.5142 -0.3852
  352SOL    HW1 1055   2.204   2.132   2.798 -3.5366  0.3724  0.7528
  352SOL    HW2 1056   2.207   2.302   2.772 -0.6462  0.5337  3.5037
  353SOL     OW 1057   0.737   0.682   0.077  0.5798 -0.2009 -0.4846
  353SOL    HW1 1058   0.730   0.787   0.084 -0.3215  1.1349 -1.0415
  353SOL    HW2 1059   0.648   0.633   0.079  0.6208  1.2618  0.9590
  354SOL     OW 1060   0.882   1.830   2.797  0.4097 -0.6485  0.4129
  354SOL    HW1 1061   0.792   1.822   2.850 -0.9982  1.5160  0.8308
  354SOL    HW2 1062   0.958   1.777   2.840 -0.1378  0.2788 -0.6790
  355SOL     OW 1063   2.935   2.792   1.911  0.0228 -0.2910  0.1416
  355SOL    HW1 1064   2.865   2.726   1.881  1.3288  1.7506  0.8312
  355SOL    HW2 1065   2.938   2.872   1.850 -1.1395  1.9141  0.4193
  356SOL     OW 1066   2.895   0.724   0.700  0.0378 -0.3353 -0.2854
  356SOL    HW1 1067   2.836   0.808   0.705 -0.1388 -1.1540 -0.3409
  356SOL    HW2 1068   2.841   0.649   0.662  1.5142 -1.1149 -0.9658
  357SOL     OW 1069   2.436   0.251   1.180 -0.1028 -0.1024 -0.1561
  357SOL    HW1 1070   2.529   0.292   1.188  1.0458  0.2591  0.4705
  357SOL    HW2 1071   2.397   0.237   1.273 -1.5856  0.4260 -0.7707
  358SOL     OW 1072   1.255   2.679   1.369 -0.2933 -0.2609 -0.0228
  358SOL    HW1 1073   1.211   2.684   1.274  1.0862 -1.1855 -3.7045
  358SOL    HW2 1074   1.308   2.767   1.391 -0.6765 -0.2266  1.6846
  359SOL     OW 1075   2.991   2.104   2.723 -0.1558  0.3238 -0.2733
  359SOL    HW1 1076   3.047   2.026   2.763 -2.6731  1.2227  1.4875
  359SOL    HW2 1077   2.940   2.147   2.797  1.9018 -0.1345 -3.2013
  360SOL     OW 1078   0.433   1.157   1.600 -0.0634 -0.1344 -0.2379
  360SOL    HW1 1079   0.425   1.201   1.693 -0.8208 -0.7688  0.3661
  360SOL    HW2 1080   0.486   1.070   1.599 -2.3067  2.1348 -1.7412
  361SOL     OW 1081   2.468   2.837   0.558  0.8577 -0.2550  0.1253
  361SOL    HW1 1082   2.439   2.890   0.474 -0.4006  1.8216  0.6465
  361SOL    HW2 1083   2.553   2.882   0.594  1.5153  1.8253  0.6620
  362SOL     OW 1084   2.992   2.901   0.997  0.1322 -0.5063 -0.1462
  362SOL    HW1 1085   3.071   2.863   0.944 -0.0303 -0.4048 -0.5638
  362SOL    HW2 1086   2.914   2.912   0.936  1.1182 -0.5411 -1.5561
  363SOL     OW 1087   0.898   1.463   0.485  0.0943  0.0004  0.4362
  363SOL    HW1 1088   0.897   1.365   0.464 -0.0468 -0.5908  0.3679
  363SOL    HW2 1089   0.861   1.489   0.575 -0.0929  0.5768 -0.1531
  364SOL     OW 1090   0.653   1.500   1.328  0.5660  0.0587  0.3871
  364SOL    HW1 1091   0.593   1.457   1.398 -2.0835  1.8044  0.4531
  364SOL    HW2 1092   0.749   1.479   1.344 -1.2275 -2.0769 -1.1619
  365SOL     OW 1093   2.526   1.643   0.447  0.2787  0.4211  0.1097
  365SOL    HW1 1094   2.596   1.606   0.507 -1.5245  1.4261 -0.1719
  365SOL    HW2 1095   2.560   1.675   0.356 -1.2394  1.2190  1.7103
  366SOL     OW 1096   2.800   1.673   1.112 -0.3484  0.1939 -0.6425
  366SOL    HW1 1097   2.816   1.672   1.211  1.4699 -0.9088  1.5167
  366SOL    HW2 1098   2.769   1.772   1.095  1.6611  0.6904  0.4196
  367SOL     OW 1099   2.145   2.166   2.028  0.6597 -0.1250 -0.5301
  367SOL    HW1 1100   2.076   2.123   1.972  0.6109 -0.5340  0.1898
  367SOL    HW2 1101   2.216   2.094   2.048 -0.9421  0.7038 -2.2265
  368SOL     OW 1102   2.715   1.042   1.184 -0.3698 -0.0594 -0.3845
  368SOL    HW1 1103   2.658   1.074   1.260  1.9240 -2.0014 -1.4466
  368SOL    HW2 1104   2.704   0.944   1.176 -0.5268 -1.2129 -0.2902
  369SOL     OW 1105   2.146   2.786   0.215 -0.0030 -0.9523 -0.4181
  369SOL    HW1 1106   2.093   2.826   0.290 -0.0848 -0.4687  0.7076
  369SOL    HW2 1107   2.148   2.854   0.135 -1.5736  2.2294  1.1921
  370SOL     OW 1108   2.651   2.580   1.228 -0.2617  0.0850 -0.5124
  370SOL    HW1 1109   2.605   2.594   1.315  0.7472  0.9417 -0.8885
  370SOL    HW2 1110   2.740   2.629   1.214  2.7170 -0.3671  1.5052
  371SOL     OW 1111   0.992   1.585   2.465  0.2991 -0.5228 -0.0569
  371SOL    HW1 1112   1.077   1.639   2.480  1.1360  0.7606 -0.7777
  371SOL    HW2 1113   0.914   1.653   2.450 -1.9163  0.3338 -1.1293
  372SOL     OW 1114   0.893   1.201   0.409 -0.1845 -0.0483 -0.0666
  372SOL    HW1 1115   0.798   1.216   0.373 -0.0093  0.9147  2.3136
  372SOL    HW2 1116   0.964   1.179   0.341 -1.0594  2.3010 -0.2128
  373SOL     OW 1117   1.435   2.552   0.164  0.1332 -0.4517 -0.0697
  373SOL    HW1 1118   1.366   2.483   0.206 -2.2347  0.9995  0.5337
  373SOL    HW2 1119   1.422   2.552   0.060 -0.3766  1.0059  0.2724
  374SOL     OW 1120   0.322   1.714   3.095 -0.2721 -0.1307  0.0199
  374SOL    HW1 1121   0.292   1.775   3.023  0.9127 -0.4639 -0.5388
  374SOL    HW2 1122   0.372   1.634   3.059 -0.0682  2.1380  2.5984
  375SOL     OW 1123   0.920   1.694   1.901  1.0982  0.5477  0.0273
  375SOL    HW1 1124   1.020   1.684   1.915 -1.7249 -0.4595 -1.5345
  375SOL    HW2 1125   0.877   1.605   1.876 -1.2465  1.7565 -0.3983
  376SOL     OW 1126   0.470   2.392   1.727 -0.6109  0.0495 -0.0952
  376SOL    HW1 1127   0.385   2.380   1.784 -0.4991 -2.4762  0.6486
  376SOL    HW2 1128   0.550   2.351   1.777 -1.5461 -2.9303 -0.2485
  377SOL     OW 1129   2.383   1.439   1.998 -0.1518 -0.0145 -0.3044
  377SOL    HW1 1130   2.281   1.450   2.010 -2.4290 -1.3696  0.4723
  377SOL    HW2 1131   2.416   1.381   2.080  2.5388  0.1414  1.5599
  378SOL     OW 1132   1.101   3.078   2.738 -0.4695 -0.0096  0.0461
  378SOL    HW1 1133   1.040   0.024   2.667 -3.9355  1.6318 -1.1723
  378SOL    HW2 1134   1.197   0.022   2.732  0.5908  0.8085 -0.8891
  379SOL     OW 1135   1.533   0.682   0.726 -0.8341  0.0403 -0.0398
  379SOL    HW1 1136   1.487   0.729   0.799  1.4130 -2.3247  0.4375
  379SOL    HW2 1137   1.466   0.674   0.647 -1.3733  0.1548  0.1728
  380SOL     OW 1138   2.684   1.736   1.598  0.4898 -0.1839  0.2227
  380SOL    HW1 1139   2.689   1.738   1.698  1.7272  1.3154 -0.7090
  380SOL    HW2 1140   2.642   1.820   1.563 -1.0165 -0.3290 -0.1818
  381SOL     OW 1141   1.434   1.732   1.465  0.2679  0.0899  0.1223
  381SOL    HW1 1142   1.468   1.766   1.556 -1.5325 -0.2793  2.2662
  381SOL    HW2 1143   1.435   1.810   1.394 -0.8849  0.2194 -1.1597
  382SOL     OW 1144   3.078   0.450   2.984 -0.5939 -0.6376  0.8581
  382SOL    HW1 1145   3.012   0.373   2.986 -0.6551 -0.4995 -0.2537
  382SOL    HW2 1146   0.033   0.447   3.073  1.4323 -1.7929  1.1319
  383SOL     OW 1147   1.634   1.260   2.616 -0.0906  0.1845  0.3364
  383SOL    HW1 1148   1.555   1.271   2.687 -2.1963 -2.2146 -0.6620
  383SOL    HW2 1149   1.713   1.303   2.654 -0.5094 -1.3057 -0.2324
  384SOL     OW 1150   0.949   2.455   1.225  0.2532  0.1244 -0.0029
  384SOL    HW1 1151   1.010   2.536   1.213 -1.4203 -0.4160  0.2868
  384SOL    HW2 1152   0.999   2.370   1.200  1.2114  0.6851 -1.1499
  385SOL     OW 1153   1.929   2.397   0.842  0.0434 -0.7385 -0.2116
  385SOL    HW1 1154   1.991   2.460   0.789  1.1027 -0.9226 -2.1479
  385SOL    HW2 1155   1.976   2.311   0.862  1.5549 -2.8118 -0.8131
  386SOL     OW 1156   2.222   2.064   1.104 -0.3871  0.3806 -0.3605
  386SOL    HW1 1157   2.121   2.054   1.110 -0.5688 -1.4758 -0.3178
  386SOL    HW2 1158   2.242   2.162   1.114 -2.1263 -1.7992  0.6898
  387SOL     OW 1159   0.377   2.105   1.349  0.2134  0.3847  0.3893
  387SOL    HW1 1160   0.412   2.196   1.385 -0.0028 -3.1618 -0.8824
  387SOL    HW2 1161   0.454   2.040   1.321 -0.7849  0.4519 -2.5495
  388SOL     OW 1162   3.095   0.655   1.818 -0.0296  0.3651  0.4193
  388SOL    HW1 1163   3.006   0.634   1.862 -2.0088  2.2459 -2.3158
  388SOL    HW2 1164   0.057   0.571   1.811 -1.0285 -1.3239  0.5872
  389SOL     OW 1165   1.839   1.338   1.132 -0.4976 -0.5145  0.0743
  389SOL    HW1 1166   1.887   1.413   1.079 -2.9972 -0.2364 -0.4374
  389SOL    HW2 1167   1.740   1.361   1.148 -2.1971 -1.3294 -2.1250
  390SOL     OW 1168   0.954   2.193   2.154 -0.3983 -0.3682  0.0121
  390SOL    HW1 1169   0.857   2.180   2.181 -2.5314 -0.3249 -0.5083
  390SOL    HW2 1170   0.982   2.119   2.092 -2.1060 -0.4382  0.3017
  391SOL     OW 1171   1.109   1.932   2.530  0.1381  0.3674  0.9283
  391SOL    HW1 1172   1.022   1.890   2.501  1.0263  0.7108  2.3317
  391SOL    HW2 1173   1.144   1.994   2.455  1.6992 -2.1273  1.0064
  392SOL     OW 1174   2.972   2.891   2.200 -0.6818 -0.5763  0.3578
  392SOL    HW1 1175   2.915   2.824   2.244  3.3925  1.8858  0.3547
  392SOL    HW2 1176   3.030   2.935   2.270  1.3407 -2.2639  1.1980
  393SOL     OW 1177   1.962   2.884   0.429 -0.0792  0.4497  0.3012
  393SOL    HW1 1178   1.874   2.923   0.404  1.0797 -0.1216 -0.8663
  393SOL    HW2 1179   1.950   2.784   0.445  0.2451 -1.5174 -0.0637
  394SOL     OW 1180   0.712   0.605   2.574 -0.2983  0.2163  0.0663
  394SOL    HW1 1181   0.633   0.653   2.617 -1.5857  0.9491 -1.8506
  394SOL    HW2 1182   0.689   0.559   2.477  1.2564 -1.5191 -2.7452
  395SOL     OW 1183   0.462   1.413   1.542 -0.8689 -0.0721  0.1636
  395SOL    HW1 1184   0.459   1.315   1.565  0.1659  2.8171  3.7483
  395SOL    HW2 1185   0.492   1.470   1.621  0.4399 -0.6220  2.0298
  396SOL     OW 1186   1.702   1.655   2.017  0.0211  0.3410  0.1328
  396SOL    HW1 1187   1.672   1.607   1.932  0.3214 -2.2327 -0.5472
  396SOL    HW2 1188   1.703   1.585   2.090 -0.5233 -2.4728  2.4215
  397SOL     OW 1189   0.907   0.519   2.734 -0.0462 -0.1577  0.3023
  397SOL    HW1 1190   0.873   0.494   2.827 -1.3643 -1.3356 -2.2902
  397SOL    HW2 1191   0.835   0.546   2.665  2.0054  0.2015 -3.4367
  398SOL     OW 1192   0.291   1.831   2.542 -0.2594 -0.0058  0.1110
  398SOL    HW1 1193   0.353   1.898   2.584 -1.4206  2.1620  1.1832
  398SOL    HW2 1194   0.273   1.851   2.447  1.1415 -2.0034  2.0844
  399SOL     OW 1195   0.228   1.712   2.184  0.2038 -0.1242 -0.6540
  399SOL    HW1 1196   0.299   1.713   2.116 -3.1888 -1.6749  2.5596
  399SOL    HW2 1197   0.258   1.648   2.257  0.8079  2.0828 -1.1494
  400SOL     OW 1198   2.801   0.245   1.620 -0.1813 -0.1704 -0.2362
  400SOL    HW1 1199   2.751   0.164   1.656 -1.7792 -0.1306 -1.4870
  400SOL    HW2 1200   2.902   0.236   1.613 -2.0080 -0.7801  0.3950
  401SOL     OW 1201   0.686   1.776   0.349  0.1037  0.7743  0.1876
  401SOL    HW1 1202   0.778   1.732   0.364  1.3840  0.3271  4.5464
  401SOL    HW2 1203   0.626   1.743   0.428  0.6233  0.7215  1.6863
  402SOL     OW 1204   0.090   2.356   2.016 -0.1920 -0.0383 -0.1907
  402SOL    HW1 1205   0.085   2.356   1.914 -1.3958 -1.3139  2.9748
  402SOL    HW2 1206   0.021   2.290   2.058  0.8377 -1.2707  2.3920
  403SOL     OW 1207   0.213   1.210   2.069  0.0899  0.6590 -0.7889
  403SOL    HW1 1208   0.122   1.182   2.041  1.6025  0.8541 -1.9893
  403SOL    HW2 1209   0.227   1.228   2.166  1.3186 -0.5351 -0.4736
  404SOL     OW 1210   1.735   2.206   1.446  0.0708  0.7072 -0.1508
  404SOL    HW1 1211   1.832   2.216   1.478  1.0435  3.7518  1.8502
  404SOL    HW2 1212   1.670   2.154   1.507  1.7325  1.5527  1.1779
  405SOL     OW 1213   2.623   2.540   2.650 -0.4530  0.4092  0.0181
  405SOL    HW1 1214   2.657   2.597   2.725  1.8930 -4.0245  0.6645
  405SOL    HW2 1215   2.692   2.483   2.602 -0.9111 -0.3659 -1.5403
  406SOL     OW 1216   0.674   1.260   2.813 -0.1017 -0.1108  0.2895
  406SOL    HW1 1217   0.693   1.159   2.795  0.1626 -1.1663 -1.6760
  406SOL    HW2 1218   0.730   1.310   2.746 -0.6740 -0.2477 -2.9817
  407SOL     OW 1219   2.408   2.951   2.969  0.1534  0.5257 -0.0011
  407SOL    HW1 1220   2.423   2.900   2.885  0.5116  1.7172 -0.6385
  407SOL    HW2 1221   2.457   2.918   3.054  1.4440  1.6106  0.5129
  408SOL     OW 1222   2.642   2.593   0.049  0.2647  0.4068  0.0286
  408SOL    HW1 1223   2.737   2.573   0.078 -0.0751  1.6893 -1.2100
  408SOL    HW2 1224   2.585   2.515   0.077  1.2776  4.9918 -0.6228
  409SOL     OW 1225   2.294   1.238   0.671 -0.0479  0.0070 -0.2453
  409SOL    HW1 1226   2.344   1.322   0.639  1.3737 -2.3327  1.5734
  409SOL    HW2 1227   2.192   1.248   0.662  0.6549 -0.6609 -0.5197
  410SOL     OW 1228   2.968   1.650   0.881  0.0138 -0.0429 -0.4804
  410SOL    HW1 1229   2.926   1.651   0.974  0.4241  0.8711 -0.3346
  410SOL    HW2 1230   3.047   1.588   0.883  0.9088  2.0817 -0.2159
  411SOL     OW 1231   0.382   1.546   0.805  0.2496  0.6439 -0.3828
  411SOL    HW1 1232   0.357   1.646   0.806 -0.5217 -3.2024 -2.7659
  411SOL    HW2 1233   0.414   1.514   0.893  0.8204 -2.1242 -0.0027
  412SOL     OW 1234   2.428   2.279   0.547  0.2033 -0.3623 -0.2157
  412SOL    HW1 1235   2.460   2.376   0.563 -1.2765  2.0410  1.2893
  412SOL    HW2 1236   2.343   2.259   0.601 -0.6265 -0.6186  1.8200
  413SOL     OW 1237   1.522   1.268   1.940  0.0665  0.3630  0.3820
  413SOL    HW1 1238   1.451   1.216   1.889  2.3533  0.3450  1.7922
  413SOL    HW2 1239   1.513   1.250   2.040 -2.8583 -1.2654 -3.2097
  414SOL     OW 1240   2.868   2.806   0.007 -0.5707 -0.8437  0.3607
  414SOL    HW1 1241   2.865   2.715   0.050  3.6143 -0.6708 -1.2374
  414SOL    HW2 1242   2.801   2.871   0.044 -0.4398 -0.2938  1.8665
  415SOL     OW 1243   1.066   2.179   1.600 -0.6133 -0.3902 -0.4972
  415SOL    HW1 1244   0.968   2.200   1.590 -1.1757 -1.6292  0.9787
  415SOL    HW2 1245   1.087   2.114   1.681  0.0244 -4.5807  1.4914
  416SOL     OW 1246   2.796   2.358   2.536 -0.6528 -0.0476 -0.2493
  416SOL    HW1 1247   2.854   2.372   2.619  1.3719 -4.4860  1.9586
  416SOL    HW2 1248   2.772   2.259   2.525 -0.1817 -0.7613  1.5153
  417SOL     OW 1249   2.627   0.558   1.327  0.5964 -0.4155  0.1246
  417SOL    HW1 1250   2.676   0.496   1.263 -0.2178  1.4873 -0.5061
  417SOL    HW2 1251   2.596   0.504   1.409 -0.4760 -3.0472 -0.0946
  418SOL     OW 1252   2.794   0.189   0.167 -0.2103  0.4867  0.0218
  418SOL    HW1 1253   2.884   0.203   0.217  1.3604  2.6447 -0.5628
  418SOL    HW2 1254   2.728   0.133   0.223  0.5976 -1.1067 -1.7900
  419SOL     OW 1255   3.068   1.542   1.347 -0.2957  0.0598 -0.0008
  419SOL    HW1 1256   3.068   1.437   1.356  1.4403 -1.6377 -2.3003
  419SOL    HW2 1257   0.056   1.587   1.379 -3.9446  3.6602 -1.8769
  420SOL     OW 1258   0.491   1.461   0.011  0.6925 -0.3025  0.0501
  420SOL    HW1 1259   0.471   1.416   0.101  0.2351  0.2641  1.4485
  420SOL    HW2 1260   0.463   1.405   3.024  1.2640 -4.0908  0.7193
  421SOL     OW 1261   2.200   2.631   2.437  0.0203  0.6117 -0.1237
  421SOL    HW1 1262   2.235   2.711   2.378  1.7463  1.7073 -1.5164
  421SOL    HW2 1263   2.270   2.558   2.437 -0.2012 -1.6929  1.2299
  422SOL     OW 1264   0.289   0.690   2.562  0.2498  0.4399 -0.2452
  422SOL    HW1 1265   0.281   0.643   2.472  2.3499  0.3664 -5.6757
  422SOL    HW2 1266   0.218   0.762   2.579 -1.3463 -0.1503  2.3248
  423SOL     OW 1267   1.169   2.143   0.587 -0.4834  0.2639  0.6098
  423SOL    HW1 1268   1.138   2.225   0.632  0.3614 -1.2628  0.4650
  423SOL    HW2 1269   1.107   2.060   0.593  1.4663 -0.0772  2.3165
  424SOL     OW 1270   0.839   1.912   1.756  0.7971  0.5250  0.3759
  424SOL    HW1 1271   0.874   1.830   1.803  0.2721 -0.0264 -0.3164
  424SOL    HW2 1272   0.735   1.911   1.754  1.0260  0.6864 -0.8680
  425SOL     OW 1273   2.401   2.445   2.482  0.2624  0.1288 -0.7451
  425SOL    HW1 1274   2.457   2.417   2.401 -2.7454  0.8723  1.1137
  425SOL    HW2 1275   2.465   2.487   2.549 -2.5655  2.8002 -1.1343
  426SOL     OW 1276   1.475   0.788   0.951  0.1871 -0.4429  0.3743
  426SOL    HW1 1277   1.538   0.733   1.006  1.4191 -0.0145  0.7441
  426SOL    HW2 1278   1.374   0.764   0.963  3.8260  2.0064 -1.3612
  427SOL     OW 1279   0.009   1.473   2.631 -0.0990  0.2368  0.1259
  427SOL    HW1 1280   3.041   1.503   2.704  0.3905  1.2970  1.0340
  427SOL    HW2 1281   3.054   1.421   2.558  0.7980 -2.0525  0.4449
  428SOL     OW 1282   1.123   1.360   0.054 -0.1159  0.0071 -0.4126
  428SOL    HW1 1283   1.033   1.392   0.019 -0.3188  0.3136 -1.8495
  428SOL    HW2 1284   1.202   1.423   0.034  0.2040  1.2477 -1.0442
  429SOL     OW 1285   2.931   2.689   0.363  0.2120 -0.0847  0.1275
  429SOL    HW1 1286   2.848   2.654   0.411 -1.5651 -0.3970 -1.9898
  429SOL    HW2 1287   2.946   2.632   0.280  0.2811  0.8530  0.3335
  430SOL     OW 1288   0.352   2.311   2.252 -0.1957 -0.4282  0.6162
  430SOL    HW1 1289   0.272   2.372   2.263  0.3125 -3.7766 -1.3581
  430SOL    HW2 1290   0.333   2.251   2.172 -0.1006  0.3489  1.4822
  431SOL     OW 1291   2.992   1.075   0.190  0.2202  0.8614  0.1170
  431SOL    HW1 1292   3.090   1.105   0.195 -0.1792 -1.2452 -1.6132
  431SOL    HW2 1293   2.983   0.977   0.218 -2.9376  0.6918 -0.6754
  432SOL     OW 1294   1.689   2.451   2.648  0.1696  0.0267 -0.3184
  432SOL    HW1 1295   1.710   2.545   2.686  0.7135  0.3506 -1.6433
  432SOL    HW2 1296   1.661   2.466   2.551  1.2025  2.0064  1.3061
  433SOL     OW 1297   1.138   2.649   0.572 -0.0661 -0.4147 -0.0334
  433SOL    HW1 1298   1.211   2.714   0.582 -2.6078 -2.1090 -2.6199
  433SOL    HW2 1299   1.057   2.681   0.622  2.1671  0.5179 -0.1052
  434SOL     OW 1300   1.495   1.856   2.380 -0.3081  0.3450  0.3754
  434SOL    HW1 1301   1.552   1.931   2.423 -0.3337  1.2587 -0.4186
  434SOL    HW2 1302   1.532   1.767   2.420  1.3702 -1.8401 -0.2173
  435SOL     OW 1303   2.265   0.707   0.071 -0.5329 -0.1758  0.6123
  435SOL    HW1 1304   2.271   0.792   0.008  2.9340  1.0436  1.0547
  435SOL    HW2 1305   2.237   0.731   0.165  1.3477 -1.6784  0.1347
  436SOL     OW 1306   0.311   2.655   2.393 -0.1873  0.2462 -0.3698
  436SOL    HW1 1307   0.247   2.575   2.386 -1.3996  1.0281  1.6541
  436SOL    HW2 1308   0.399   2.611   2.422  0.8677  0.9664 -1.1580
  437SOL     OW 1309   1.983   2.852   1.362 -0.4567 -0.2037 -0.2298
  437SOL    HW1 1310   1.990   2.751   1.371 -1.9087  1.0290  2.2435
  437SOL    HW2 1311   2.053   2.883   1.294 -0.0283  0.3543 -2.3222
  438SOL     OW 1312   0.066   1.842   0.570 -0.1058  0.0704  0.2335
  438SOL    HW1 1313   0.105   1.864   0.662  0.9084  0.0995  1.5603
  438SOL    HW2 1314   0.031   1.924   0.525  0.1046  3.2686  1.4074
  439SOL     OW 1315   0.045   3.067   1.155 -0.3054  0.2802  0.2707
  439SOL    HW1 1316   0.097   0.027   1.088  1.8547  1.1868 -0.4543
  439SOL    HW2 1317   3.077   2.998   1.113  0.5925  3.8901  0.0384
  440SOL     OW 1318   2.628   2.869   2.282  0.2235 -0.3968 -0.3511
  440SOL    HW1 1319   2.671   2.777   2.278 -2.3165  1.2587 -0.3342
  440SOL    HW2 1320   2.664   2.925   2.204 -0.1531  2.1762  0.3177
  441SOL     OW 1321   0.279   0.696   0.516 -0.1477  0.2922  0.2957
  441SOL    HW1 1322   0.279   0.778   0.456 -0.4287  0.1505  0.2342
  441SOL    HW2 1323   0.199   0.706   0.581 -0.2519  1.6587  3.9931
  442SOL     OW 1324   1.503   2.264   2.356  0.3074 -0.5088 -0.2051
  442SOL    HW1 1325   1.554   2.199   2.410 -3.5440  1.1466 -0.7241
  442SOL    HW2 1326   1.417   2.295   2.401  0.2754 -0.3169  1.4103
  443SOL     OW 1327   0.750   2.929   3.028  0.1773  0.3931 -0.0165
  443SOL    HW1 1328   0.670   2.889   3.075  1.7990  1.4293  1.4160
  443SOL    HW2 1329   0.715   3.007   2.978  1.2406  0.3814  1.8757
  444SOL     OW 1330   1.483   1.706   2.657  0.1226  0.2680 -0.0023
  444SOL    HW1 1331   1.387   1.721   2.624  1.8215 -0.4782  1.2815
  444SOL    HW2 1332   1.531   1.657   2.584 -1.3663 -0.0720 -0.8051
  445SOL     OW 1333   0.345   0.183   1.112  0.1202 -0.0367 -0.5078
  445SOL    HW1 1334   0.269   0.144   1.059  0.5404  0.4130  1.6979
  445SOL    HW2 1335   0.435   0.144   1.084 -0.0411  0.6937  0.3191
  446SOL     OW 1336   1.875   1.151   0.921 -0.2759 -0.1249  0.5641
  446SOL    HW1 1337   1.853   1.215   0.998 -0.6305  0.1363 -1.0524
  446SOL    HW2 1338   1.958   1.103   0.949 -0.5242  0.4895  3.1915
  447SOL     OW 1339   2.992   0.821   0.336 -0.0615 -0.0321  0.0346
  447SOL    HW1 1340   2.898   0.787   0.356 -0.2779 -1.5883 -0.7906
  447SOL    HW2 1341   3.054   0.815   0.414  0.9435 -0.8298 -0.7780
  448SOL     OW 1342   2.336   1.827   1.011 -0.0538  0.3380  0.6937
  448SOL    HW1 1343   2.356   1.758   1.086  2.2386 -2.8529  2.8986
  448SOL    HW2 1344   2.295   1.907   1.051 -0.6425 -2.3042  0.0833
  449SOL     OW 1345   1.000   1.403   2.836  0.1053  0.4236 -0.1472
  449SOL    HW1 1346   1.089   1.451   2.811 -0.5474 -0.2619 -1.3752
  449SOL    HW2 1347   0.969   1.421   2.934 -1.7386 -1.9327  2.6333
  450SOL     OW 1348   2.363   2.845   2.364  0.0115  0.0740 -0.2358
  450SOL    HW1 1349   2.437   2.861   2.294 -0.8353  0.5785 -1.1218
  450SOL    HW2 1350   2.360   2.909   2.448 -1.1988 -0.7868  1.2557
  451SOL     OW 1351   2.578   0.702   2.417  0.4935  0.4911 -0.0141
  451SOL    HW1 1352   2.600   0.601   2.396  1.5539 -1.9524 -2.3196
  451SOL    HW2 1353   2.525   0.737   2.335  0.7163 -1.6224 -1.9087
  452SOL     OW 1354   1.575   1.302   1.406 -0.1149  0.4670 -0.4343
  452SOL    HW1 1355   1.560   1.357   1.321 -3.1334 -0.4518 -1.5538
  452SOL    HW2 1356   1.509   1.323   1.478 -0.2302 -0.0855 -1.6364
  453SOL     OW 1357   1.787   0.366   1.846 -0.3365 -0.0055  0.3269
  453SOL    HW1 1358   1.811   0.270   1.839 -0.8781  0.5636 -2.1183
  453SOL    HW2 1359   1.734   0.398   1.768  1.6415 -3.2368  0.6774
  454SOL     OW 1360   3.026   0.841   3.022  0.0014  0.5367  0.3307
  454SOL    HW1 1361   3.038   0.801   2.927  1.0299  1.1794 -2.1587
  454SOL    HW2 1362   3.063   0.776   3.089  0.0355 -1.1034 -0.8959
  455SOL     OW 1363   2.487   1.578   1.511 -0.3729  0.3509 -0.5004
  455SOL    HW1 1364   2.427   1.562   1.593 -2.2406 -2.5099  1.6833
  455SOL    HW2 1365   2.576   1.622   1.532  2.1345 -2.0530 -0.3874
  456SOL     OW 1366   1.895   2.900   1.634 -0.5486 -0.4594  0.1779
  456SOL    HW1 1367   1.910   2.811   1.678 -0.2758  1.1592 -0.2028
  456SOL    HW2 1368   1.907   2.884   1.539  1.6482  2.7436  3.3835
  457SOL     OW 1369   1.339   2.830   0.632 -0.1720 -0.2397  0.4195
  457SOL    HW1 1370   1.378   2.913   0.681 -1.0073 -2.1983  0.3297
  457SOL    HW2 1371   1.357   2.852   0.532 -0.6096 -0.9790 -0.7693
  458SOL     OW 1372   0.057   0.037   0.615 -0.5408 -0.2296 -0.4182
  458SOL    HW1 1373   0.000   3.052   0.628  1.5896 -1.1169  0.8226
  458SOL    HW2 1374   0.069   0.055   0.519 -0.9773  1.4177  2.5654
  459SOL     OW 1375   2.037   1.274   0.605  0.7906  0.1789 -0.6761
  459SOL    HW1 1376   2.008   1.215   0.531 -2.9420 -0.2892  2.6443
  459SOL    HW2 1377   1.967   1.293   0.676  0.2170 -2.2899  0.9701
  460SOL     OW 1378   0.838   2.508   2.273  0.1968  0.2151 -0.4201
  460SOL    HW1 1379   0.818   2.610   2.283 -1.7175  1.6900  0.4447
  460SOL    HW2 1380   0.926   2.487   2.228  0.7762 -5.1186 -0.7660
  461SOL     OW 1381   0.621   1.777   2.907 -0.0625  0.3063  0.2174
  461SOL    HW1 1382   0.599   1.705   2.840  0.8240  0.2635  0.3696
  461SOL    HW2 1383   0.631   1.735   3.001 -0.3192 -2.6994  0.1300
  462SOL     OW 1384   2.090   2.130   0.441 -0.3844  0.1453 -0.5389
  462SOL    HW1 1385   2.139   2.044   0.471  1.7234 -1.3419  0.5512
  462SOL    HW2 1386   2.083   2.130   0.342 -0.3257 -1.9541  2.5365
  463SOL     OW 1387   2.721   0.512   0.600 -0.6010  0.4542 -0.0908
  463SOL    HW1 1388   2.720   0.421   0.649  2.3323  0.5179  1.4563
  463SOL    HW2 1389   2.628   0.550   0.617 -1.1455  2.0245 -1.5979
  464SOL     OW 1390   0.346   1.803   0.256 -0.0808  0.3933  0.0928
  464SOL    HW1 1391   0.318   1.757   0.168 -1.4195 -1.3702 -2.9410
  464SOL    HW2 1392   0.411   1.765   0.322  1.8700  0.7073  1.0943
  465SOL     OW 1393   2.234   3.074   1.409  0.2027  0.0280  0.2362
  465SOL    HW1 1394   2.229   2.996   1.335 -1.0305 -2.4757 -1.6759
  465SOL    HW2 1395   2.184   0.064   1.378 -2.1193  0.3643  1.1146
  466SOL     OW 1396   2.386   0.103   0.742 -0.1245  0.4024  0.3878
  466SOL    HW1 1397   2.392   0.127   0.640  1.1308  2.2238 -0.3532
  466SOL    HW2 1398   2.425   0.178   0.795 -0.5692  0.6616  0.1722
  467SOL     OW 1399   0.233   0.562   2.329 -0.1360  0.2516 -0.2459
  467SOL    HW1 1400   0.149   0.533   2.374  3.4765 -0.1589 -1.2207
  467SOL    HW2 1401   0.255   0.490   2.261 -1.5743  0.5102  0.0726
  468SOL     OW 1402   2.739   3.024   2.029 -0.0376  0.0609 -0.0476
  468SOL    HW1 1403   2.720   0.031   2.002  0.6277  0.9462  0.1061
  468SOL    HW2 1404   2.837   2.998   2.034 -0.3691 -0.1661  1.6700
  469SOL     OW 1405   0.984   0.212   1.578  0.2400  0.0115 -0.4106
  469SOL    HW1 1406   0.926   0.233   1.657  2.2164 -1.9510 -1.6185
  469SOL    HW2 1407   0.962   0.120   1.538 -1.0636  1.4173 -0.9952
  470SOL     OW 1408   2.536   0.827   1.666 -0.0011  0.1138  0.8725
  470SOL    HW1 1409   2.623   0.769   1.652  1.8754 -0.2354 -0.8367
  470SOL    HW2 1410   2.521   0.844   1.767  2.8366 -2.8956  1.4998
  471SOL     OW 1411   2.778   1.532   2.741 -0.2560 -0.0777 -0.0371
  471SOL    HW1 1412   2.773   1.525   2.843  0.9024  2.2128 -1.2285
  471SOL    HW2 1413   2.716   1.467   2.695 -0.7290 -1.4940  1.2539
  472SOL     OW 1414   0.811   1.927   0.668 -0.0555  0.0981  0.4498
  472SOL    HW1 1415   0.904   1.925   0.631  1.2687  0.1373  0.3749
  472SOL    HW2 1416   0.746   1.971   0.604  0.3338 -1.5161  2.2410
  473SOL     OW 1417   1.519   2.166   2.078 -0.1782 -0.2661 -0.3694
  473SOL    HW1 1418   1.550   2.069   2.082 -1.7517 -0.5011  0.1807
  473SOL    HW2 1419   1.505   2.208   2.172  2.2763  0.5324 -0.8739
  474SOL     OW 1420   0.639   2.830   2.649 -0.1955  0.1156  0.7860
  474SOL    HW1 1421   0.590   2.743   2.683  0.2283 -0.2715  1.4198
  474SOL    HW2 1422   0.586   2.913   2.668  1.8789  2.3886  2.3107
  475SOL     OW 1423   0.862   1.833   2.435  0.1271  0.7268  1.0297
  475SOL    HW1 1424   0.828   1.920   2.391  0.6031 -1.7535  0.2445
  475SOL    HW2 1425   0.791   1.788   2.487  0.5077  0.7833 -2.6601
  476SOL     OW 1426   0.762   0.644   1.060  0.2293  0.0010 -0.8158
  476SOL    HW1 1427   0.745   0.718   1.128  2.0752  1.3558 -1.9144
  476SOL    HW2 1428   0.739   0.676   0.965  0.6948 -1.4556  1.8927
  477SOL     OW 1429   2.053   2.251   1.298 -0.1126  0.6721  0.3992
  477SOL    HW1 1430   2.135   2.303   1.274 -0.9511 -1.9729 -1.1097
  477SOL    HW2 1431   2.008   2.295   1.375 -1.3214  2.2390 -1.7761
  478SOL     OW 1432   0.302   0.328   2.896 -0.1931 -0.0262 -0.3969
  478SOL    HW1 1433   0.222   0.368   2.950 -0.2240 -0.6569  0.7391
  478SOL    HW2 1434   0.287   0.355   2.797  0.4103  1.2820 -0.6385
  479SOL     OW 1435   1.210   0.475   1.243 -0.2688  0.2082  0.8618
  479SOL    HW1 1436   1.128   0.536   1.251  0.0746 -1.6690 -0.6328
  479SOL    HW2 1437   1.213   0.441   1.143 -0.5969 -2.6812 -2.0157
  480SOL     OW 1438   2.720   2.331   0.275 -0.6356  0.8537 -0.5920
  480SOL    HW1 1439   2.645   2.289   0.224  1.4778 -1.5187  0.7562
  480SOL    HW2 1440   2.769   2.260   0.327 -0.0051  0.7632  1.1613
  481SOL     OW 1441   0.131   0.680   1.543  0.1665 -0.1498  0.2236
  481SOL    HW1 1442   0.091   0.757   1.491 -0.1360  1.2669  1.7857
  481SOL    HW2 1443   0.124   0.696   1.645 -2.2225 -0.0169 -0.9359
  482SOL     OW 1444   0.992   3.076   1.289  0.2085  0.6507 -0.1073
  482SOL    HW1 1445   0.909   0.040   1.285  2.0373 -0.6144 -0.7184
  482SOL    HW2 1446   0.996   3.036   1.381 -1.0188 -0.7193  2.0883
  483SOL     OW 1447   2.928   1.374   2.443 -0.8335 -0.0576  0.0284
  483SOL    HW1 1448   2.920   1.277   2.484 -1.7968 -2.2201  1.4409
  483SOL    HW2 1449   2.840   1.405   2.406  3.8082  1.1996  1.7644
  484SOL     OW 1450   1.878   1.705   1.791 -0.0517 -0.0579 -0.2104
  484SOL    HW1 1451   1.816   1.699   1.870  0.7071 -0.4466 -1.2207
  484SOL    HW2 1452   1.869   1.619   1.736  1.0691 -1.8424 -1.4524
  485SOL     OW 1453   0.274   2.868   2.560  0.0582  0.1404 -0.2096
  485SOL    HW1 1454   0.187   2.848   2.610  1.1650 -2.7664  1.2662
  485SOL    HW2 1455   0.297   2.789   2.495  1.4329 -3.8832 -2.0538
  486SOL     OW 1456   1.135   0.034   0.875 -0.0681 -0.5427  0.0680
  486SOL    HW1 1457   1.175   3.033   0.879 -0.2825 -0.1474 -3.8856
  486SOL    HW2 1458   1.175   0.099   0.938 -0.3817  1.5831 -1.2655
  487SOL     OW 1459   1.383   0.124   1.001  0.0626 -0.7500  0.6432
  487SOL    HW1 1460   1.456   0.158   0.937  0.0303  1.5831  1.9715
  487SOL    HW2 1461   1.420   0.113   1.092  0.1180 -1.3977 -0.1723
  488SOL     OW 1462   2.361   1.065   0.870 -0.7651  0.2933  0.1719
  488SOL    HW1 1463   2.313   1.117   0.797 -1.6232 -1.4618 -0.0694
  488SOL    HW2 1464   2.457   1.099   0.880  2.5756 -0.9484  0.2566
  489SOL     OW 1465   1.214   0.861   1.219 -0.4214 -0.0255 -0.1226
  489SOL    HW1 1466   1.282   0.929   1.259 -0.4706  2.2142  2.2091
  489SOL    HW2 1467   1.265   0.799   1.154  1.5433 -1.3558  1.1549
  490SOL     OW 1468   0.892   0.491   3.026  0.3086  0.0521 -0.1999
  490SOL    HW1 1469   0.988   0.504   3.016 -0.5500 -0.6108 -1.6295
  490SOL    HW2 1470   0.857   0.562   3.093 -1.5092  2.1831 -0.1398
  491SOL     OW 1471   0.903   2.745   0.685 -0.2770 -0.2270 -0.4480
  491SOL    HW1 1472   0.871   2.830   0.639 -2.3758 -1.9330  0.2285
  491SOL    HW2 1473   0.882   2.763   0.786 -0.1333  0.0582 -3.3621
  492SOL     OW 1474   1.103   1.582   1.658  0.3104  0.4227 -0.7596
  492SOL    HW1 1475   1.156   1.663   1.676  2.5806 -4.2200  1.0988
  492SOL    HW2 1476   1.149   1.523   1.590  2.6931  0.9111  1.8542
  493SOL     OW 1477   0.660   1.670   0.056  0.1854  0.3653  0.2416
  493SOL    HW1 1478   0.593   1.592   0.051  0.4641  0.7332 -0.8830
  493SOL    HW2 1479   0.670   1.713   0.146  0.2510 -2.7183 -1.6455
  494SOL     OW 1480   1.936   2.619   0.551 -0.3873  0.0237  0.1304
  494SOL    HW1 1481   1.941   2.547   0.479  0.7747 -0.5778 -2.6164
  494SOL    HW2 1482   2.002   2.600   0.623  0.3264  2.7964  1.3818
  495SOL     OW 1483   0.346   1.499   2.406 -0.6273  0.0381 -0.3118
  495SOL    HW1 1484   0.429   1.556   2.408  1.5383 -1.9933  2.2831
  495SOL    HW2 1485   0.337   1.452   2.492 -0.7954  2.1930  0.5196
  496SOL     OW 1486   0.289   2.223   2.526 -0.6446  0.3329 -0.2329
  496SOL    HW1 1487   0.265   2.300   2.589 -0.7302 -1.0159  2.3492
  496SOL    HW2 1488   0.335   2.250   2.443  0.0060 -2.3507  2.5448
  497SOL     OW 1489   1.593   1.441   0.608  0.0356  0.4460  0.2510
  497SOL    HW1 1490   1.553   1.357   0.565  1.7510 -0.2253  0.3292
  497SOL    HW2 1491   1.655   1.405   0.682 -0.3766  2.2710  3.1427
  498SOL     OW 1492   2.903   2.500   0.156  0.3874  0.0836 -0.7906
  498SOL    HW1 1493   2.941   2.447   0.081 -0.1718 -0.0882 -0.3822
  498SOL    HW2 1494   2.825   2.453   0.201 -1.2948 -0.8962  0.4718
  499SOL     OW 1495   2.134   2.555   0.725  0.2800 -0.2396 -0.0413
  499SOL    HW1 1496   2.188   2.473   0.752  4.0410  0.4405 -0.5514
  499SOL    HW2 1497   2.193   2.638   0.737  0.8929 -0.2766 -0.4316
  500SOL     OW 1498   0.458   0.220   2.587 -0.2231 -0.0411 -0.2763
  500SOL    HW1 1499   0.417   0.312   2.601  1.4941 -1.6735  0.0521
  500SOL    HW2 1500   0.556   0.229   2.602 -0.7179  3.0756 -1.4144
  501SOL     OW 1501   1.966   2.577   1.410 -0.2891 -1.1004 -0.2500
  501SOL    HW1 1502   1.974   2.518   1.490  3.9113  1.6662 -1.7806
  501SOL    HW2 1503   1.870   2.594   1.375 -0.7535  0.1170 -0.1149
  502SOL     OW 1504   0.002   2.937   2.444  0.0343  0.9143 -0.7062
  502SOL    HW1 1505   0.004   2.874   2.525 -2.1541  0.9344  0.1721
  502SOL    HW2 1506   0.082   3.002   2.453  0.6983  0.7396  0.7750
  503SOL     OW 1507   1.946   2.539   2.380 -0.4505  0.5331 -0.2336
  503SOL    HW1 1508   2.021   2.582   2.430 -0.6549  0.2626  2.3111
  503SOL    HW2 1509   1.985   2.471   2.314 -1.5539 -2.8093  0.0966
  504SOL     OW 1510   2.169   0.244   1.785 -0.2320  0.4085  0.7689
  504SOL    HW1 1511   2.145   0.160   1.732 -1.9004 -1.9667  2.4644
  504SOL    HW2 1512   2.163   0.332   1.730 -1.6732  1.9124 -2.4347
  505SOL     OW 1513   2.659   1.466   0.976  0.0313  0.0308  0.4526
  505SOL    HW1 1514   2.702   1.550   1.010 -2.2827 -0.9643 -1.3982
  505SOL    HW2 1515   2.560   1.485   0.956  0.4666  0.0065  0.8071
  506SOL     OW 1516   0.126   1.691   1.673  0.2605  0.3881 -0.2096
  506SOL    HW1 1517   0.128   1.679   1.571  0.4024  1.6489 -1.0210
  506SOL    HW2 1518   0.171   1.775   1.708 -1.4596  0.9139 -1.0965
  507SOL     OW 1519   0.447   2.337   1.466  0.0161 -0.6459  0.3238
  507SOL    HW1 1520   0.468   2.360   1.566  1.9312  0.7185  1.1457
  507SOL    HW2 1521   0.436   2.423   1.409 -0.2903  1.0976  1.0999
  508SOL     OW 1522   0.555   0.414   2.037 -0.4891  0.1864  0.0218
  508SOL    HW1 1523   0.590   0.320   2.045 -2.0299 -2.3445 -0.5976
  508SOL    HW2 1524   0.457   0.420   2.070 -0.8066  0.2009 -0.0569
  509SOL     OW 1525   1.577   2.661   1.806 -0.6361  0.9793  0.4380
  509SOL    HW1 1526   1.489   2.613   1.818 -1.3858 -0.4032 -1.9276
  509SOL    HW2 1527   1.625   2.666   1.898  0.6368 -1.5289  1.5446
  510SOL     OW 1528   2.434   1.232   2.473 -0.5054 -0.1683 -0.1190
  510SOL    HW1 1529   2.352   1.292   2.470  2.1708 -0.2528  0.9896
  510SOL    HW2 1530   2.499   1.260   2.551  0.0123 -0.1008  1.4713
  511SOL     OW 1531   0.816   1.293   1.087 -0.7059  0.0123 -0.6605
  511SOL    HW1 1532   0.856   1.232   1.156 -1.0013  0.4331  1.3511
  511SOL    HW2 1533   0.805   1.386   1.124  2.0170 -0.3035  0.6966
  512SOL     OW 1534   2.951   1.697   0.479 -0.3670  0.2257 -0.5838
  512SOL    HW1 1535   2.893   1.662   0.557 -2.0179 -0.1972  1.9521
  512SOL    HW2 1536   3.033   1.740   0.531 -0.7002  3.1998  0.7112
  513SOL     OW 1537   1.159   2.115   2.323 -0.1931 -0.4248  0.2159
  513SOL    HW1 1538   1.077   2.162   2.286 -0.0169  1.1014 -1.1331
  513SOL    HW2 1539   1.211   2.173   2.388  1.5498  4.0509  2.1976
  514SOL     OW 1540   0.152   2.205   1.233  0.3425  0.2985 -0.0447
  514SOL    HW1 1541   0.094   2.253   1.302 -0.0810  0.4157  1.3060
  514SOL    HW2 1542   0.232   2.164   1.279 -0.0487  1.4298 -2.6902
  515SOL     OW 1543   2.041   0.852   1.730  0.1533  0.3850 -0.3257
  515SOL    HW1 1544   1.955   0.905   1.747  0.8275 -0.0186  0.8597
  515SOL    HW2 1545   2.062   0.853   1.629  0.5270  1.0819  1.1146
  516SOL     OW 1546   2.360   0.282   0.054 -0.2472 -0.0848  0.2829
  516SOL    HW1 1547   2.382   0.270   3.044 -1.4180  4.3061 -1.9094
  516SOL    HW2 1548   2.404   0.369   0.087  2.1389 -1.2958  0.5708
  517SOL     OW 1549   1.150   1.767   2.927 -0.8372 -0.7357 -0.4852
  517SOL    HW1 1550   1.121   1.751   3.023 -4.2328  1.8059  0.4861
  517SOL    HW2 1551   1.175   1.680   2.877  1.4406  2.5449  1.3375
  518SOL     OW 1552   1.622   3.053   1.440 -0.0566 -0.1101  0.6664
  518SOL    HW1 1553   1.630   3.027   1.537 -0.4132  0.8953  2.7927
  518SOL    HW2 1554   1.712   3.072   1.387  2.4365  0.5889 -0.8130
  519SOL     OW 1555   2.130   2.890   0.966 -0.4169  0.0073 -0.4079
  519SOL    HW1 1556   2.172   2.853   0.881  2.7711 -1.8707 -5.1833
  519SOL    HW2 1557   2.114   2.990   0.958 -2.3953 -1.5221 -0.2622
  520SOL     OW 1558   2.657   1.810   2.015 -0.2754  0.2244  0.0308
  520SOL    HW1 1559   2.700   1.733   1.966 -0.4469 -1.5181  1.6453
  520SOL    HW2 1560   2.615   1.872   1.944 -0.0843 -1.4104 -0.4985
  521SOL     OW 1561   2.756   0.691   0.371  0.1062  0.1846 -0.0550
  521SOL    HW1 1562   2.763   0.648   0.277  1.9492  0.1321 -0.9732
  521SOL    HW2 1563   2.733   0.617   0.435  1.2352  1.7802 -2.0287
  522SOL     OW 1564   0.899   0.869   2.583 -0.5636  0.5700 -0.2848
  522SOL    HW1 1565   0.850   0.778   2.580  1.2494 -0.0280  0.1390
  522SOL    HW2 1566   0.893   0.918   2.499 -1.6806 -1.8001  0.9652
  523SOL     OW 1567   0.184   2.442   0.528 -0.3343 -0.0110 -0.1438
  523SOL    HW1 1568   0.162   2.372   0.599 -0.7154 -1.3777  2.9016
  523SOL    HW2 1569   0.206   2.400   0.436 -1.6907  0.6615 -2.2844
  524SOL     OW 1570   2.196   2.506   0.030  0.6357  0.2754  0.3137
  524SOL    HW1 1571   2.271   2.507   0.105  1.8949 -0.1127  1.0132
  524SOL    HW2 1572   2.107   2.541   0.071 -3.5004  0.7355  0.8125
  525SOL     OW 1573   2.549   0.451   1.543 -0.0521 -0.2855 -0.4954
  525SOL    HW1 1574   2.520   0.355   1.534  0.6182  4.8402  1.4188
  525SOL    HW2 1575   2.466   0.503   1.558  1.3957  1.2619 -0.5143
  526SOL     OW 1576   1.094   0.053   0.598 -0.2900 -0.4865  0.9535
  526SOL    HW1 1577   1.110   0.031   0.698  0.7537 -2.4201  1.1933
  526SOL    HW2 1578   1.169   0.086   0.544 -2.2647 -0.4280  1.8524
  527SOL     OW 1579   2.140   3.054   0.531 -0.1762  0.1289  0.4640
  527SOL    HW1 1580   2.066   2.990   0.514  0.7752  2.0568 -1.7994
  527SOL    HW2 1581   2.230   3.018   0.498  3.8552 -3.1513  0.1449
  528SOL     OW 1582   1.819   0.839   2.811 -0.6104 -0.8419 -0.4786
  528SOL    HW1 1583   1.835   0.739   2.812 -1.2711  1.5104 -3.2989
  528SOL    HW2 1584   1.750   0.869   2.742 -1.1736  1.8408 -0.8848
  529SOL     OW 1585   1.809   1.462   2.235  0.0908 -0.2026 -0.3650
  529SOL    HW1 1586   1.731   1.419   2.287 -1.0786  0.3026  0.1247
  529SOL    HW2 1587   1.840   1.406   2.156 -3.0963  2.1093 -1.7382
  530SOL     OW 1588   2.536   2.835   0.081  0.2788 -0.5649  0.4301
  530SOL    HW1 1589   2.567   2.877   0.167 -0.8195 -2.6728 -1.2154
  530SOL    HW2 1590   2.567   2.736   0.073  1.1741 -2.3255  0.7713
  531SOL     OW 1591   1.703   1.487   2.989  0.1214 -0.3441  0.9197
  531SOL    HW1 1592   1.759   1.420   3.044  1.3779  2.0541  0.8442
  531SOL    HW2 1593   1.739   1.579   3.015  1.6907 -2.1211 -0.9144
  532SOL     OW 1594   1.604   0.333   1.325  0.4251 -0.0006 -0.4543
  532SOL    HW1 1595   1.538   0.254   1.313  0.0322 -0.9357  2.6411
  532SOL    HW2 1596   1.551   0.422   1.342  0.0776  0.6908  1.7524
  533SOL     OW 1597   0.601   0.922   0.078  0.3893  0.5350 -0.4665
  533SOL    HW1 1598   0.583   0.936   0.179 -1.4731 -0.5769 -0.1171
  533SOL    HW2 1599   0.672   0.988   0.046  3.0948  0.7720  1.0909
  534SOL     OW 1600   1.491   0.604   3.041  0.5089 -0.4405 -0.2065
  534SOL    HW1 1601   1.529   0.587   2.950 -1.8292 -0.8464  1.3668
  534SOL    HW2 1602   1.566   0.626   0.010  1.6928  1.0047  0.0359
  535SOL     OW 1603   0.787   2.063   2.669 -0.6033  0.4921 -0.0086
  535SOL    HW1 1604   0.751   2.093   2.760 -0.3195 -0.3971  1.8737
  535SOL    HW2 1605   0.841   1.976   2.684  0.2667 -0.5879 -0.3976
  536SOL     OW 1606   0.644   2.908   0.208  0.2583 -0.4491  0.2120
  536SOL    HW1 1607   0.737   2.935   0.184 -0.8736 -1.5095 -0.1112
  536SOL    HW2 1608   0.638   2.809   0.230 -0.2792 -1.0253 -0.2083
  537SOL     OW 1609   1.901   0.157   0.184 -0.0034  0.3540 -0.2289
  537SOL    HW1 1610   1.987   0.102   0.201  1.0846 -1.6592  1.0053
  537SOL    HW2 1611   1.897   0.251   0.224  0.1330 -2.8774  1.5307
  538SOL     OW 1612   2.445   2.419   0.119  0.5039  0.1059  0.1247
  538SOL    HW1 1613   2.413   2.371   0.035  0.3261 -1.1995  1.8073
  538SOL    HW2 1614   2.418   2.362   0.196  2.2990  2.4762 -0.8412
  539SOL     OW 1615   2.553   1.312   0.043  0.3518 -0.2825  0.5318
  539SOL    HW1 1616   2.564   1.230   0.109 -0.8775 -4.9435 -0.0426
  539SOL    HW2 1617   2.458   1.346   0.046 -0.6138  0.5342 -0.7825
  540SOL     OW 1618   0.650   2.992   1.975 -0.0751  0.2833 -0.2191
  540SOL    HW1 1619   0.599   2.915   1.932  0.4083  0.0793 -1.6045
  540SOL    HW2 1620   0.637   2.984   2.076  2.1488 -0.1689  1.6645
  541SOL     OW 1621   2.208   0.099   2.398 -0.0699 -0.4327  0.4460
  541SOL    HW1 1622   2.145   0.129   2.475 -0.5122  0.4543 -1.0152
  541SOL    HW2 1623   2.311   0.100   2.422  0.5507 -1.0947  2.6029
  542SOL     OW 1624   0.522   0.534   0.081 -0.1178 -0.5523 -0.2149
  542SOL    HW1 1625   0.533   0.448   0.030 -0.4684  1.3552 -0.5866
  542SOL    HW2 1626   0.463   0.524   0.165 -0.4433 -0.9250  0.4600
  543SOL     OW 1627   0.416   0.952   0.777  0.0090  0.3842 -0.4515
  543SOL    HW1 1628   0.414   0.983   0.879  1.1029  0.6694  0.9239
  543SOL    HW2 1629   0.488   1.009   0.739 -0.8076 -1.8107 -0.5934
  544SOL     OW 1630   2.382   0.680   1.263 -0.0532 -0.1737  0.4841
  544SOL    HW1 1631   2.480   0.653   1.279  0.0463  1.6501 -0.9692
  544SOL    HW2 1632   2.381   0.777   1.223 -0.3211 -1.1791  0.3980
  545SOL     OW 1633   1.060   1.696   0.083 -0.1497 -0.4303  0.4804
  545SOL    HW1 1634   1.039   1.789   0.118  0.7698 -0.7443 -2.0244
  545SOL    HW2 1635   1.129   1.648   0.146  2.1563 -1.4276  0.5013
  546SOL     OW 1636   2.406   2.546   1.585  0.0840  0.7024  0.0819
  546SOL    HW1 1637   2.338   2.560   1.502 -2.9607  0.0800 -2.2944
  546SOL    HW2 1638   2.400   2.620   1.654 -0.9620  0.1627  0.2898
  547SOL     OW 1639   1.329   2.667   2.093  0.1626  0.1139 -1.0245
  547SOL    HW1 1640   1.406   2.657   2.157  1.4480  2.0804  0.5402
  547SOL    HW2 1641   1.305   2.763   2.077  0.3955 -0.0627  0.5762
  548SOL     OW 1642   1.475   0.623   2.552 -0.3548  0.1923 -0.3374
  548SOL    HW1 1643   1.450   0.698   2.617  0.7762  1.4970  1.4203
  548SOL    HW2 1644   1.439   0.533   2.577 -0.6633  3.0959 -1.7409
  549SOL     OW 1645   2.175   0.775   0.316 -0.2654  0.0359 -0.1338
  549SOL    HW1 1646   2.091   0.751   0.368  1.8482  0.0125  1.0771
  549SOL    HW2 1647   2.251   0.800   0.380 -1.0686 -0.8339 -1.1657
  550SOL     OW 1648   2.346   1.472   0.301  0.4229 -0.1578 -0.4502
  550SOL    HW1 1649   2.435   1.513   0.332 -1.6251  1.2399  1.6783
  550SOL    HW2 1650   2.331   1.499   0.201 -1.2061  0.0456  0.1204
  551SOL     OW 1651   2.075   0.186   1.324 -0.2168 -0.2773 -0.0313
  551SOL    HW1 1652   2.023   0.252   1.384  0.5431  3.9780  1.4891
  551SOL    HW2 1653   2.084   0.227   1.230  0.5892 -1.3450  0.5382
  552SOL     OW 1654   1.520   3.017   2.787  0.4110  0.1785  0.0563
  552SOL    HW1 1655   1.563   0.013   2.775 -0.4491  1.5366  0.3557
  552SOL    HW2 1656   1.586   2.946   2.762 -3.1744  3.0551  2.5607
  553SOL     OW 1657   0.595   2.510   2.058  0.0583  0.1039  0.7419
  553SOL    HW1 1658   0.612   2.438   2.125 -1.9624  0.1406 -1.5352
  553SOL    HW2 1659   0.505   2.500   2.011  0.1698  1.0993  0.2252
  554SOL     OW 1660   0.239   2.936   1.321  0.2146 -0.1679  0.2849
  554SOL    HW1 1661   0.177   2.996   1.270 -1.9356 -2.0583  0.1591
  554SOL    HW2 1662   0.329   2.933   1.274 -0.6150  3.8050  0.2517
  555SOL     OW 1663   2.527   1.615   2.178 -0.2665 -0.3225  0.1377
  555SOL    HW1 1664   2.589   1.690   2.151 -0.9161 -1.5191  1.1975
  555SOL    HW2 1665   2.463   1.591   2.101 -1.9604 -0.1265  2.1312
  556SOL     OW 1666   1.212   0.536   0.016  0.1456  0.1630 -0.6987
  556SOL    HW1 1667   1.301   0.577   0.013 -1.5617 -0.5423 -1.5841
  556SOL    HW2 1668   1.215   0.431   0.005 -0.7854 -1.2497  0.9464
  557SOL     OW 1669   0.247   1.957   2.314  0.1360 -0.0431  0.2294
  557SOL    HW1 1670   0.266   2.037   2.250 -0.6232  1.4029 -1.7554
  557SOL    HW2 1671   0.241   1.868   2.262  0.3008  0.4717 -0.1074
  558SOL     OW 1672   1.860   0.568   2.840 -0.1356 -0.1826  0.0310
  558SOL    HW1 1673   1.765   0.528   2.838 -1.6958  1.8541  1.5805
  558SOL    HW2 1674   1.923   0.492   2.846 -1.1295  2.7433  1.1666
  559SOL     OW 1675   2.047   1.878   1.658 -0.0427  0.1008  0.6431
  559SOL    HW1 1676   2.055   1.845   1.561  0.2962  1.0418 -0.6008
  559SOL    HW2 1677   1.988   1.812   1.714  2.7004  1.8950  1.2394
  560SOL     OW 1678   1.744   0.669   2.064 -0.2521 -0.7518  0.0667
  560SOL    HW1 1679   1.658   0.708   2.031  1.1878  0.1922  0.1927
  560SOL    HW2 1680   1.803   0.636   1.991 -0.9026  0.3372  1.2185
  561SOL     OW 1681   3.022   0.035   2.852 -0.2269 -0.1251  0.4005
  561SOL    HW1 1682   2.981   0.033   2.759 -0.6457  0.1145  1.1643
  561SOL    HW2 1683   0.025   0.064   2.855 -1.2557  0.8949  1.7782
  562SOL     OW 1684   0.864   1.664   1.568  0.1228  0.4826  1.0491
  562SOL    HW1 1685   0.937   1.637   1.627 -1.4381 -1.1611 -3.0156
  562SOL    HW2 1686   0.781   1.671   1.625  0.7434 -1.4154 -1.8474
  563SOL     OW 1687   1.179   0.032   0.108  0.7412  0.8503 -0.4158
  563SOL    HW1 1688   1.252   3.057   0.112 -1.4721 -0.1531 -1.6232
  563SOL    HW2 1689   1.118   0.007   0.032  0.8086 -2.6690  0.7128
  564SOL     OW 1690   0.182   2.710   0.603 -0.3424 -0.5769  0.1846
  564SOL    HW1 1691   0.176   2.612   0.575  1.5139 -2.2444  1.6962
  564SOL    HW2 1692   0.127   2.766   0.541 -0.1124 -1.0119  2.5147
  565SOL     OW 1693   0.643   2.318   1.210  0.2629 -0.4002  0.3780
  565SOL    HW1 1694   0.555   2.309   1.153 -0.4552 -0.0812  1.3631
  565SOL    HW2 1695   0.629   2.363   1.298  2.8244  0.3888  0.3923
  566SOL     OW 1696   1.168   3.041   2.246  0.0884  0.4349  0.0648
  566SOL    HW1 1697   1.108   0.022   2.272 -1.0113 -0.2291  0.3696
  566SOL    HW2 1698   1.121   2.950   2.235  0.1799 -1.6866 -1.2994
  567SOL     OW 1699   2.138   0.330   0.830 -0.7310 -0.0701 -0.4372
  567SOL    HW1 1700   2.232   0.348   0.864  1.6477 -0.5752  0.7764
  567SOL    HW2 1701   2.134   0.232   0.815  0.2732 -0.2483  0.2459
  568SOL     OW 1702   1.589   1.696   0.688  0.0075  0.0748  0.1391
  568SOL    HW1 1703   1.683   1.735   0.673  1.9029  1.3722  2.7927
  568SOL    HW2 1704   1.585   1.594   0.681  0.7068 -0.5996 -1.0730
  569SOL     OW 1705   2.092   0.635   2.293 -0.0931  0.8836 -0.4999
  569SOL    HW1 1706   2.115   0.540   2.314 -1.8351  3.1759  0.5053
  569SOL    HW2 1707   2.098   0.691   2.379 -0.1470  0.7111 -1.9777
  570SOL     OW 1708   0.045   3.044   2.032 -0.1032  0.7197  0.0651
  570SOL    HW1 1709   3.072   2.981   2.078 -1.6438 -1.0319 -2.4889
  570SOL    HW2 1710   0.074   3.000   1.946 -1.1559  0.3793  2.0592
  571SOL     OW 1711   0.448   2.729   1.718  0.2444  0.0820 -0.1282
  571SOL    HW1 1712   0.446   2.757   1.815  1.4615  0.6379 -1.1153
  571SOL    HW2 1713   0.513   2.656   1.704 -2.2380  1.1869 -0.5043
  572SOL     OW 1714   0.205   2.234   1.602  0.4999 -0.2577  0.0493
  572SOL    HW1 1715   0.140   2.315   1.600  1.1848  0.8198  0.9611
  572SOL    HW2 1716   0.296   2.254   1.552  4.4958  0.9876 -1.6958
  573SOL     OW 1717   1.400   0.851   2.722 -0.0903 -0.0434  0.0895
  573SOL    HW1 1718   1.460   0.907   2.659  1.9803  1.3494  1.8476
  573SOL    HW2 1719   1.304   0.886   2.706 -0.4117 -1.8078 -0.8983
  574SOL     OW 1720   2.574   2.384   2.281  0.4897  0.0851 -0.4851
  574SOL    HW1 1721   2.668   2.411   2.274 -2.7533 -3.7998  0.2571
  574SOL    HW2 1722   2.522   2.422   2.198 -1.6932 -0.4155 -2.1174
  575SOL     OW 1723   1.276   2.908   0.945  0.7020  0.1234  0.3047
  575SOL    HW1 1724   1.250   2.847   0.866 -0.8087  1.2655 -1.9319
  575SOL    HW2 1725   1.367   2.887   0.985 -0.1914 -1.4676 -1.2919
  576SOL     OW 1726   1.250   0.358   0.995  0.1199  0.1611 -0.4282
  576SOL    HW1 1727   1.290   0.420   0.924  1.1163  1.0127 -0.7112
  576SOL    HW2 1728   1.279   0.260   0.994  0.7347 -0.5157 -0.7972
  577SOL     OW 1729   2.219   1.889   0.168 -0.0342 -0.4656  0.9529
  577SOL    HW1 1730   2.298   1.861   0.228  4.0030 -2.0911  0.4316
  577SOL    HW2 1731   2.138   1.834   0.195  0.0795 -0.3358 -2.5378
  578SOL     OW 1732   2.159   0.552   1.215 -0.2247  0.4155  0.1573
  578SOL    HW1 1733   2.251   0.601   1.230 -1.5496  0.9449 -0.7440
  578SOL    HW2 1734   2.088   0.597   1.274 -1.1159 -1.9016 -1.2483
  579SOL     OW 1735   1.841   0.933   2.491  0.7129  0.1004 -0.7658
  579SOL    HW1 1736   1.858   0.869   2.409  1.4443 -0.7331 -1.8663
  579SOL    HW2 1737   1.902   1.017   2.495 -1.3687  0.3188  1.6324
  580SOL     OW 1738   1.323   1.123   1.847 -0.5621  0.0600 -0.2830
  580SOL    HW1 1739   1.254   1.153   1.776  2.0199 -1.6918 -2.3478
  580SOL    HW2 1740   1.279   1.055   1.909 -0.9573  0.0660  2.9281
  581SOL     OW 1741   0.363   0.882   1.233 -0.0568  0.1483 -0.3971
  581SOL    HW1 1742   0.330   0.942   1.305  0.7874 -0.5680  1.5871
  581SOL    HW2 1743   0.340   0.785   1.251 -1.8869 -3.0478 -1.0063
  582SOL     OW 1744   2.846   0.586   1.930  0.7302  0.9232  0.4388
  582SOL    HW1 1745   2.760   0.534   1.900 -1.4977 -2.1354 -2.1300
  582SOL    HW2 1746   2.848   0.607   2.028 -2.1927  2.3178 -0.1646
  583SOL     OW 1747   2.924   0.528   2.584 -0.2049 -0.2013  0.0734
  583SOL    HW1 1748   2.906   0.616   2.535  0.0821  0.4832  0.5444
  583SOL    HW2 1749   2.841   0.488   2.634 -0.4971  0.7933  4.0085
  584SOL     OW 1750   1.988   2.379   0.375  0.2825  0.4177  0.0168
  584SOL    HW1 1751   2.016   2.297   0.424 -1.6256  0.1377  1.7776
  584SOL    HW2 1752   1.967   2.360   0.275 -0.1062 -0.2958  2.7961
  585SOL     OW 1753   0.164   2.286   0.038  0.0779 -0.0767 -0.2147
  585SOL    HW1 1754   0.120   2.196   0.039  0.2057  2.3148  0.1018
  585SOL    HW2 1755   0.207   2.315   0.125 -1.8556  3.0180  5.2248
  586SOL     OW 1756   1.913   2.070   2.365  0.4373  0.2966  0.1349
  586SOL    HW1 1757   1.900   2.056   2.263  2.2916 -2.7709 -0.9137
  586SOL    HW2 1758   1.992   2.129   2.385  0.3658  0.5841  1.1239
  587SOL     OW 1759   2.263   1.534   2.657 -0.0696  0.0431  0.1259
  587SOL    HW1 1760   2.361   1.571   2.664  0.5795 -0.4882 -1.4853
  587SOL    HW2 1761   2.239   1.460   2.726  0.4887 -2.5398 -2.4983
  588SOL     OW 1762   3.006   0.011   1.389 -0.1557 -0.1226  0.0118
  588SOL    HW1 1763   3.060   3.090   1.307  1.3852 -1.5403  0.3442
  588SOL    HW2 1764   3.038   0.093   1.444  0.6637  1.3567  0.8246
  589SOL     OW 1765   0.484   0.454   0.794  0.3910  0.3527  0.1360
  589SOL    HW1 1766   0.432   0.400   0.720 -0.5756  0.0910 -3.5511
  589SOL    HW2 1767   0.483   0.554   0.779  0.2608 -2.2910  2.0251
  590SOL     OW 1768   2.568   2.205   0.781  0.0247 -0.3542 -0.1436
  590SOL    HW1 1769   2.490   2.252   0.740  1.1722 -0.9951  3.2548
  590SOL    HW2 1770   2.652   2.256   0.773 -0.6742 -0.6989 -1.5388
  591SOL     OW 1771   1.146   2.408   0.738 -0.3059  0.2073 -0.2321
  591SOL    HW1 1772   1.209   2.437   0.808 -0.4141 -0.5111  1.3933
  591SOL    HW2 1773   1.135   2.491   0.678  0.6483 -1.2969  0.6835
  592SOL     OW 1774   0.970   1.152   1.248  0.4756 -0.1908  0.4045
  592SOL    HW1 1775   1.059   1.188   1.213 -1.6735 -1.2055  1.4383
  592SOL    HW2 1776   0.949   1.058   1.219 -2.7058  1.1163  3.6178
  593SOL     OW 1777   0.759   2.464   1.423  0.4489 -0.8396  0.1640
  593SOL    HW1 1778   0.813   2.495   1.505 -0.9220  1.7152 -1.0287
  593SOL    HW2 1779   0.821   2.456   1.337  0.8321 -0.4389 -1.4180
  594SOL     OW 1780   0.909   1.503   3.076 -0.0768 -0.0812  0.1179
  594SOL    HW1 1781   0.971   1.573   0.013 -1.5640 -3.2731  1.4675
  594SOL    HW2 1782   0.815   1.537   3.088  0.9828 -0.5786 -1.1552
  595SOL     OW 1783   1.411   1.356   1.624  0.2474  0.0200 -0.3564
  595SOL    HW1 1784   1.472   1.392   1.699  2.2320  0.7880 -1.1748
  595SOL    HW2 1785   1.366   1.430   1.571  0.7860 -0.8300  2.1178
  596SOL     OW 1786   2.663   1.134   2.154  0.5934 -0.6295  0.6928
  596SOL    HW1 1787   2.689   1.052   2.092 -2.1744  1.9697  0.1912
  596SOL    HW2 1788   2.748   1.190   2.174  0.6579  0.0577  1.6879
  597SOL     OW 1789   1.352   2.542   1.866  0.3652 -0.4501  0.3752
  597SOL    HW1 1790   1.284   2.576   1.801  1.8286  1.4051 -1.1126
  597SOL    HW2 1791   1.358   2.601   1.950  1.2288 -0.7457 -2.7205
  598SOL     OW 1792   2.292   1.402   1.418  0.4342  0.4479 -0.3665
  598SOL    HW1 1793   2.387   1.432   1.441  0.2201 -1.7806  0.5940
  598SOL    HW2 1794   2.248   1.473   1.359  2.7742  0.7658  1.6166
  599SOL     OW 1795   0.826   2.586   2.655  0.3168 -0.1062  0.7441
  599SOL    HW1 1796   0.890   2.612   2.582  0.5718 -1.2579 -3.1168
  599SOL    HW2 1797   0.823   2.660   2.725 -1.8196 -1.3739 -0.9328
  600SOL     OW 1798   2.859   2.134   0.394  0.0792  0.2069  0.3087
  600SOL    HW1 1799   2.845   2.039   0.354 -2.5018 -2.7614  0.6531
  600SOL    HW2 1800   2.956   2.156   0.385 -0.7865 -2.1706 -2.1433
  601SOL     OW 1801   0.546   0.720   1.464 -0.3302  0.4118  0.4859
  601SOL    HW1 1802   0.564   0.782   1.542  1.5840 -1.0025  2.4273
  601SOL    HW2 1803   0.450   0.704   1.438 -0.7975 -0.2153  3.6827
  602SOL     OW 1804   0.753   0.164   1.247  0.2477  0.3785  0.5617
  602SOL    HW1 1805   0.718   0.156   1.348 -0.0110  1.7246  0.9852
  602SOL    HW2 1806   0.738   0.263   1.220 -2.8132 -2.1908  2.5799
  603SOL     OW 1807   0.250   2.775   2.939 -0.1107 -0.4924  0.5525
  603SOL    HW1 1808   0.281   2.727   2.856 -0.6290 -2.1555 -0.4792
  603SOL    HW2 1809   0.156   2.804   2.934  2.4415 -1.9999  0.5326
  604SOL     OW 1810   1.441   3.065   1.836  0.2459 -0.0056 -0.2137
  604SOL    HW1 1811   1.400   3.010   1.909 -0.3792  0.9877 -2.8438
  604SOL    HW2 1812   1.526   3.020   1.798 -0.0837 -1.9749  0.0236
  605SOL     OW 1813   1.611   1.496   1.818 -0.4235 -0.5281 -0.3063
  605SOL    HW1 1814   1.693   1.472   1.763  0.9892  0.1076  0.0108
  605SOL    HW2 1815   1.571   1.408   1.861 -1.2862 -2.8503 -0.1662
  606SOL     OW 1816   2.197   2.992   0.041  0.1822  0.3094  0.2917
  606SOL    HW1 1817   2.200   3.085   0.081  3.5311 -0.1667  0.4992
  606SOL    HW2 1818   2.259   2.974   3.059 -0.7445 -2.6588  0.5572
  607SOL     OW 1819   0.710   0.115   2.334 -0.3025  0.2926  0.1515
  607SOL    HW1 1820   0.708   0.198   2.390  3.1182 -1.0785 -2.3816
  607SOL    HW2 1821   0.735   0.042   2.397  0.6215  1.9777  0.4277
  608SOL     OW 1822   3.002   2.195   2.227 -0.0980 -0.6731 -0.3258
  608SOL    HW1 1823   3.057   2.206   2.315 -1.2357  0.3062  1.2400
  608SOL    HW2 1824   2.951   2.111   2.229  1.5148  2.4934  3.8324
  609SOL     OW 1825   0.803   1.064   3.058  0.1376  0.4559  0.0709
  609SOL    HW1 1826   0.765   1.114   2.981  0.4769  0.0124  0.8235
  609SOL    HW2 1827   0.886   1.011   3.030 -0.2299 -0.8600  0.2647
  610SOL     OW 1828   0.348   2.838   0.936  0.1396 -0.6750  0.4776
  610SOL    HW1 1829   0.416   2.862   0.860  1.4247  2.3048 -2.8435
  610SOL    HW2 1830   0.389   2.863   1.029  1.7545  1.1646 -0.9058
  611SOL     OW 1831   0.970   1.725   0.412 -0.0367 -0.5991 -0.0204
  611SOL    HW1 1832   1.054   1.710   0.355 -2.7628 -0.4274 -0.2692
  611SOL    HW2 1833   0.943   1.636   0.444  2.3713  1.2392 -0.4078
  612SOL     OW 1834   2.213   1.923   0.526  0.2440  1.2465 -0.5304
  612SOL    HW1 1835   2.149   1.841   0.535  1.2550 -0.7394  1.3015
  612SOL    HW2 1836   2.297   1.888   0.578  1.3045 -1.8897 -1.0686
  613SOL     OW 1837   1.622   1.554   0.346 -0.3474  0.3315 -0.4229
  613SOL    HW1 1838   1.596   1.654   0.360 -1.3144  2.8801  0.9364
  613SOL    HW2 1839   1.603   1.503   0.432 -0.8815  0.1596  0.0213
  614SOL     OW 1840   2.703   0.409   2.706 -0.1139  0.6239 -0.0637
  614SOL    HW1 1841   2.715   0.332   2.768 -3.0419  0.4244 -0.2772
  614SOL    HW2 1842   2.610   0.410   2.668 -0.9207  4.9034 -0.0121
  615SOL     OW 1843   0.559   1.664   0.551 -0.4317  0.1265 -0.3125
  615SOL    HW1 1844   0.465   1.675   0.582  1.0316 -0.3821  1.3613
  615SOL    HW2 1845   0.617   1.631   0.622  1.2163  0.4388  0.0726
  616SOL     OW 1846   1.583   0.988   2.557  0.3817  0.0731  0.0218
  616SOL    HW1 1847   1.597   1.087   2.585  0.2246  0.4854  0.8741
  616SOL    HW2 1848   1.666   0.956   2.515 -1.7742  1.7622  1.7836
  617SOL     OW 1849   1.402   0.643   0.493  0.0636 -0.2876  0.0128
  617SOL    HW1 1850   1.310   0.686   0.474 -2.1951  1.4026 -0.5653
  617SOL    HW2 1851   1.418   0.557   0.435 -1.6100 -1.1018 -0.3729
  618SOL     OW 1852   3.062   1.692   2.111  0.3114  0.2294  0.0255
  618SOL    HW1 1853   0.069   1.689   2.128 -0.3441 -0.9541 -0.2234
  618SOL    HW2 1854   3.014   1.699   2.204  1.1902  0.7053  0.9591
  619SOL     OW 1855   2.683   1.855   0.619  0.4941  0.2977 -0.4546
  619SOL    HW1 1856   2.730   1.913   0.684 -2.3340 -1.8071 -2.4117
  619SOL    HW2 1857   2.640   1.905   0.547  1.4587  0.8642  1.9301
  620SOL     OW 1858   2.611   0.016   1.089  0.4003 -0.2993 -0.3481
  620SOL    HW1 1859   2.709   0.052   1.079  0.7566 -0.0180 -0.7021
  620SOL    HW2 1860   2.547   0.091   1.113 -1.0215  2.9422 -0.0815
  621SOL     OW 1861   0.178   1.929   0.835  0.3924  0.2963 -0.2286
  621SOL    HW1 1862   0.187   1.849   0.893  1.1992  0.4252  0.2423
  621SOL    HW2 1863   0.127   2.003   0.883 -1.1980 -1.2208 -0.9671
  622SOL     OW 1864   0.578   1.927   1.738 -0.4804  0.0752 -0.7918
  622SOL    HW1 1865   0.520   1.945   1.653 -1.3807 -2.4091 -0.0244
  622SOL    HW2 1866   0.572   2.002   1.808 -1.1818  1.7367 -0.2192
  623SOL     OW 1867   2.148   3.010   2.208 -0.3410 -0.9580  0.0993
  623SOL    HW1 1868   2.224   2.943   2.217 -0.2859  1.5735 -1.5308
  623SOL    HW2 1869   2.149   3.063   2.293 -0.7098 -1.2619  0.9169
  624SOL     OW 1870   0.521   2.039   0.169  0.3617 -0.0863 -0.0642
  624SOL    HW1 1871   0.476   1.965   0.217 -0.9975  2.4403  0.4583
  624SOL    HW2 1872   0.521   2.022   0.069  1.2675  0.4403  0.2907
  625SOL     OW 1873   0.730   1.929   2.085  0.1591 -0.4251 -0.2722
  625SOL    HW1 1874   0.825   1.941   2.045  1.1164 -0.2401 -0.1155
  625SOL    HW2 1875   0.736   1.839   2.139  0.9660 -3.6275 -1.3748
  626SOL     OW 1876   0.281   2.290   0.304 -0.2302 -0.0005 -0.4076
  626SOL    HW1 1877   0.382   2.292   0.280 -0.8367 -0.5065  1.6546
  626SOL    HW2 1878   0.253   2.187   0.305 -1.7334 -0.8960 -0.3709
  627SOL     OW 1879   1.642   1.637   2.452 -0.0894  0.3389  0.0687
  627SOL    HW1 1880   1.735   1.671   2.460 -3.1737 -0.4405 -0.0733
  627SOL    HW2 1881   1.644   1.543   2.414  0.7533  0.2048  1.1836
  628SOL     OW 1882   1.157   2.186   0.215 -0.7528 -0.2599 -0.2393
  628SOL    HW1 1883   1.061   2.217   0.208 -0.7399  1.4453  0.5304
  628SOL    HW2 1884   1.216   2.258   0.260  0.4088  0.9790  0.0442
  629SOL     OW 1885   0.783   0.735   2.265 -0.1560  0.7578  0.2795
  629SOL    HW1 1886   0.825   0.821   2.304  1.0295 -0.7998  1.3567
  629SOL    HW2 1887   0.809   0.725   2.167  1.7502  0.1333  3.0463
  630SOL     OW 1888   2.732   2.807   1.606 -0.1282  0.2623 -0.4818
  630SOL    HW1 1889   2.721   2.785   1.707 -0.5246  1.5639  2.2445
  630SOL    HW2 1890   2.824   2.845   1.584  0.1192  1.5880 -1.1043
  631SOL     OW 1891   1.451   1.036   0.844 -0.1701 -0.0660  0.0165
  631SOL    HW1 1892   1.351   1.036   0.837  2.0433  1.5606 -1.0948
  631SOL    HW2 1893   1.470   0.949   0.889 -0.3480  0.9184  1.6878
  632SOL     OW 1894   2.411   0.343   1.946  0.4990  0.2504  0.2675
  632SOL    HW1 1895   2.361   0.286   2.014 -0.1666 -2.5680 -1.1819
  632SOL    HW2 1896   2.351   0.414   1.911  0.5165  0.4426 -0.3923
  633SOL     OW 1897   1.588   1.165   0.088  0.1931  0.5060 -0.0492
  633SOL    HW1 1898   1.500   1.159   0.039 -1.2611 -1.4054  1.1250
  633SOL    HW2 1899   1.654   1.105   0.036  0.3782  0.9452  0.5790
  634SOL     OW 1900   0.174   2.017   0.289 -0.1286  0.6226  0.2933
  634SOL    HW1 1901   0.237   1.937   0.305  0.3617 -0.7199  2.5499
  634SOL    HW2 1902   0.139   2.009   0.193 -0.0849 -0.8677 -1.3974
  635SOL     OW 1903   2.668   1.460   2.363 -0.3165  0.0953  0.4080
  635SOL    HW1 1904   2.607   1.405   2.417 -1.6559  0.6262 -1.5408
  635SOL    HW2 1905   2.611   1.506   2.293  1.0547 -0.9818 -1.4297
  636SOL     OW 1906   0.245   1.655   2.727  0.1460  0.0671  0.3529
  636SOL    HW1 1907   0.152   1.610   2.733  3.2849  0.0910  0.7648
  636SOL    HW2 1908   0.256   1.713   2.642  0.4518  0.4702 -0.3401
  637SOL     OW 1909   0.018   2.079   0.488 -0.0159  0.4377 -0.3117
  637SOL    HW1 1910   0.075   2.073   0.406  0.8750  1.5040 -0.1853
  637SOL    HW2 1911   0.065   2.148   0.544  0.7582 -1.0385  0.3286
  638SOL     OW 1912   2.441   2.562   0.546  0.1978 -0.1062 -0.4612
  638SOL    HW1 1913   2.440   2.663   0.567 -0.2880 -0.1995  2.7987
  638SOL    HW2 1914   2.393   2.545   0.456  1.2494  3.2644 -0.9912
  639SOL     OW 1915   1.071   0.692   0.194  0.0287 -0.4788 -0.8631
  639SOL    HW1 1916   0.996   0.740   0.147 -0.6672  0.0658 -0.1613
  639SOL    HW2 1917   1.127   0.640   0.122  0.7781 -1.0815 -0.7366
  640SOL     OW 1918   2.559   2.258   1.798  0.1039 -0.8863 -0.0281
  640SOL    HW1 1919   2.630   2.301   1.858 -2.2611 -0.9320 -3.1764
  640SOL    HW2 1920   2.464   2.280   1.834 -0.6575  0.1475  1.1680
  641SOL     OW 1921   2.474   2.816   1.178  0.1960 -0.0153 -0.6697
  641SOL    HW1 1922   2.395   2.859   1.223 -2.5250 -0.4972 -0.4394
  641SOL    HW2 1923   2.570   2.836   1.205  0.6715 -0.6365 -1.6815
  642SOL     OW 1924   0.854   0.927   1.668  0.0555 -0.1082  0.6113
  642SOL    HW1 1925   0.926   0.852   1.659  3.8841 -1.9513  0.9911
  642SOL    HW2 1926   0.888   1.011   1.615  0.1455  3.0465 -1.0725
  643SOL     OW 1927   0.691   1.462   2.136 -0.4101 -0.1823  0.0180
  643SOL    HW1 1928   0.658   1.370   2.159  0.7444  1.5675 -1.2931
  643SOL    HW2 1929   0.727   1.470   2.039 -1.6667 -0.1583  1.0803
  644SOL     OW 1930   1.027   0.163   2.303 -0.1735 -0.1476  0.6192
  644SOL    HW1 1931   1.092   0.243   2.316  0.1029  2.2337 -1.1981
  644SOL    HW2 1932   0.981   0.188   2.213 -1.4856  0.2692  0.9324
  645SOL     OW 1933   1.963   1.167   1.481  0.4457 -0.7871 -0.3371
  645SOL    HW1 1934   1.977   1.140   1.384  0.9545 -0.2585 -0.4005
  645SOL    HW2 1935   1.955   1.270   1.480  1.7561 -0.3871 -1.0555
  646SOL     OW 1936   1.702   2.517   0.240 -0.1278 -0.0631  0.1817
  646SOL    HW1 1937   1.779   2.552   0.183 -0.1130 -0.1524  1.9636
  646SOL    HW2 1938   1.609   2.549   0.214 -1.0366 -3.0577  0.2292
  647SOL     OW 1939   1.507   2.659   0.832  0.1630 -0.4388  1.3421
  647SOL    HW1 1940   1.609   2.645   0.836  1.4478 -1.0230 -0.2972
  647SOL    HW2 1941   1.475   2.696   0.743 -2.5503 -1.7204 -0.7394
  648SOL     OW 1942   0.369   2.557   1.264 -0.1753 -0.0509 -0.3541
  648SOL    HW1 1943   0.296   2.608   1.310  4.2392 -0.8050 -2.5380
  648SOL    HW2 1944   0.345   2.509   1.181 -0.1235  1.3416  2.3819
  649SOL     OW 1945   1.199   2.420   2.954 -0.6139  0.1505 -0.1097
  649SOL    HW1 1946   1.245   2.361   2.884 -2.6129 -0.9662  0.3209
  649SOL    HW2 1947   1.107   2.381   2.968 -3.1311  0.1716 -1.1972
  650SOL     OW 1948   2.739   1.447   3.013 -0.5229  0.5482 -0.3275
  650SOL    HW1 1949   2.663   1.388   3.048  3.1280  3.4289 -0.6084
  650SOL    HW2 1950   2.829   1.404   3.028 -1.6137  2.0162 -0.1097
  651SOL     OW 1951   2.487   2.117   2.350  0.1508  0.3874 -0.6368
  651SOL    HW1 1952   2.504   2.217   2.336 -2.3824 -0.6908 -1.8049
  651SOL    HW2 1953   2.446   2.099   2.448 -0.8057 -0.3383  1.7475
  652SOL     OW 1954   2.702   2.524   0.477 -0.3066 -0.5551  0.4408
  652SOL    HW1 1955   2.614   2.562   0.513 -1.7785  0.8179  1.3794
  652SOL    HW2 1956   2.693   2.461   0.402  0.4401  0.2657  1.6810
  653SOL     OW 1957   2.375   1.753   1.284  0.3494  0.2030  0.1619
  653SOL    HW1 1958   2.439   1.829   1.293  1.1413 -1.6031  0.0694
  653SOL    HW2 1959   2.397   1.698   1.363 -3.6158  2.9687 -1.8865
  654SOL     OW 1960   1.103   1.165   0.237  0.0215 -0.0572 -0.4241
  654SOL    HW1 1961   1.077   1.082   0.184  0.3878 -0.2057  1.8329
  654SOL    HW2 1962   1.109   1.247   0.172 -1.6655  2.3971  1.5822
  655SOL     OW 1963   1.249   1.450   0.829  0.1967 -0.2120 -0.5353
  655SOL    HW1 1964   1.153   1.416   0.850  0.7560 -1.1531 -0.6500
  655SOL    HW2 1965   1.260   1.503   0.744 -3.0357 -1.2158  0.6844
  656SOL     OW 1966   1.681   2.501   2.354 -0.2229  0.5503  0.9133
  656SOL    HW1 1967   1.787   2.505   2.343  0.4817  0.1017 -0.4373
  656SOL    HW2 1968   1.642   2.409   2.331  2.5075  0.7908  1.8585
  657SOL     OW 1969   2.104   1.476   0.425 -0.1828 -0.2009 -0.3495
  657SOL    HW1 1970   2.113   1.392   0.483 -3.6421 -1.0705 -0.2268
  657SOL    HW2 1971   2.189   1.484   0.370  0.4409 -2.1487  0.0868
  658SOL     OW 1972   2.117   3.070   1.661  0.1343  0.0360  0.0374
  658SOL    HW1 1973   2.040   2.996   1.656 -0.4273 -3.6055 -2.3264
  658SOL    HW2 1974   2.171   3.069   1.573 -2.1740  1.7011  0.2014
  659SOL     OW 1975   2.979   1.523   0.280  0.1628  0.8041 -0.4241
  659SOL    HW1 1976   3.010   1.541   0.187  1.6716 -0.1739 -1.4061
  659SOL    HW2 1977   2.972   1.603   0.340  0.9462  0.0116 -0.3442
  660SOL     OW 1978   1.329   0.513   0.789 -0.3483 -0.0636  0.0838
  660SOL    HW1 1979   1.269   0.534   0.710 -0.4497  0.6356  0.6306
  660SOL    HW2 1980   1.425   0.532   0.766  0.3887  3.0537 -1.7557
  661SOL     OW 1981   1.881   0.489   0.155 -0.2076  0.6285 -0.2010
  661SOL    HW1 1982   1.978   0.480   0.122 -2.9734  2.2627  1.1876
  661SOL    HW2 1983   1.842   0.576   0.115 -0.0222  2.6408  0.0507
  662SOL     OW 1984   0.495   0.261   0.373  0.2291 -0.5925 -0.6345
  662SOL    HW1 1985   0.474   0.166   0.368  1.5640  0.8041  0.4495
  662SOL    HW2 1986   0.595   0.280   0.367 -2.4435 -0.8274 -1.3176
  663SOL     OW 1987   1.448   2.562   2.983  0.0317 -0.0261 -0.2910
  663SOL    HW1 1988   1.347   2.562   2.964 -1.1182 -1.9327  1.4245
  663SOL    HW2 1989   1.491   2.476   2.940  0.0104 -0.2090 -3.1679
  664SOL     OW 1990   0.612   2.661   1.313  0.0832  0.5841 -0.1144
  664SOL    HW1 1991   0.519   2.629   1.290  1.9624 -1.6825 -0.0364
  664SOL    HW2 1992   0.660   2.576   1.351  1.1304 -0.4989 -1.9166
  665SOL     OW 1993   1.516   2.835   1.039 -0.0093  0.2603  0.3191
  665SOL    HW1 1994   1.506   2.779   0.957 -0.8661  0.7360  4.4696
  665SOL    HW2 1995   1.588   2.905   1.026 -0.2128  0.2638  0.5803
  666SOL     OW 1996   0.999   2.299   2.660  0.2163 -0.2702 -0.3212
  666SOL    HW1 1997   0.929   2.227   2.647 -0.0115 -0.5211 -1.5485
  666SOL    HW2 1998   0.988   2.357   2.743 -2.1593  1.6531 -0.9608
  667SOL     OW 1999   2.856   0.479   1.507 -0.2656 -0.8867 -0.1258
  667SOL    HW1 2000   2.811   0.407   1.563  0.3753  0.6714  0.7804
  667SOL    HW2 2001   2.952   0.455   1.477 -0.5629  1.3463 -0.7995
  668SOL     OW 2002   0.650   0.603   1.855 -0.3216 -0.0231 -0.2130
  668SOL    HW1 2003   0.721   0.567   1.793  0.8276 -2.7774 -1.6958
  668SOL    HW2 2004   0.606   0.526   1.909  0.1149 -1.5369 -1.0535
  669SOL     OW 2005   1.527   2.806   1.325 -0.4871  0.1031 -0.2027
  669SOL    HW1 2006   1.577   2.885   1.367 -0.3787 -2.3568  2.4159
  669SOL    HW2 2007   1.514   2.820   1.226  0.3588 -2.1879  1.0462
  670SOL     OW 2008   1.813   2.443   3.038 -0.3660 -0.1761  0.0022
  670SOL    HW1 2009   1.734   2.386   3.024  2.6981 -0.8004 -0.6384
  670SOL    HW2 2010   1.888   2.417   2.974  1.6384 -3.4734 -0.9637
  671SOL     OW 2011   0.430   1.313   2.902  0.6990 -0.6265  0.0306
  671SOL    HW1 2012   0.356   1.328   2.832 -2.0533  0.1850  1.9980
  671SOL    HW2 2013   0.521   1.299   2.870 -0.4534 -0.0614  0.5162
  672SOL     OW 2014   2.385   0.612   2.756 -0.3882  0.4851  0.0055
  672SOL    HW1 2015   2.435   0.679   2.811  0.6075 -0.5934 -0.8944
  672SOL    HW2 2016   2.440   0.574   2.680 -0.3268  0.6730 -0.9129
  673SOL     OW 2017   0.096   1.892   1.178 -0.2898  0.3352 -0.2934
  673SOL    HW1 2018   3.095   1.907   1.205 -0.3918  1.2010 -1.2657
  673SOL    HW2 2019   0.140   1.982   1.194 -1.7567 -0.8274 -0.6887
  674SOL     OW 2020   1.635   2.071   1.808  0.5088  0.2258 -0.5539
  674SOL    HW1 2021   1.583   2.113   1.882 -1.8499  1.6811  0.8963
  674SOL    HW2 2022   1.594   2.095   1.718  0.4073  0.5155  1.4309
  675SOL     OW 2023   1.169   1.473   1.226  0.0617 -0.5261 -0.1854
  675SOL    HW1 2024   1.215   1.527   1.151  0.7927 -3.1995 -0.8906
  675SOL    HW2 2025   1.184   1.372   1.212 -0.5003  3.0997  0.0834
  676SOL     OW 2026   2.390   0.796   0.860 -0.0091  0.1785 -0.1808
  676SOL    HW1 2027   2.368   0.891   0.835  0.7602  0.1977  0.1888
  676SOL    HW2 2028   2.485   0.792   0.903  0.8057  0.8682  2.5007
  677SOL     OW 2029   2.563   0.323   0.326  0.2218 -0.3011 -0.2580
  677SOL    HW1 2030   2.647   0.324   0.387  2.0847 -2.5469 -0.9304
  677SOL    HW2 2031   2.542   0.411   0.278 -0.3909 -1.3462  0.7517
  678SOL     OW 2032   2.583   1.200   0.992 -0.0726  0.8275 -0.9084
  678SOL    HW1 2033   2.621   1.296   1.003 -0.2253  3.2557  1.4466
  678SOL    HW2 2034   2.630   1.135   1.059  1.3299  0.3220  3.7821
  679SOL     OW 2035   2.465   0.526   0.139 -0.3283  0.3588  0.1387
  679SOL    HW1 2036   2.386   0.584   0.109  1.8960 -1.1902 -0.4371
  679SOL    HW2 2037   2.555   0.575   0.127  1.5952  0.4729  0.0739
  680SOL     OW 2038   0.653   1.714   2.231  0.8607 -0.8247  0.3598
  680SOL    HW1 2039   0.661   1.619   2.198  0.0960  1.4221  2.3552
  680SOL    HW2 2040   0.644   1.712   2.333 -0.6255 -0.5654  3.3161
  681SOL     OW 2041   2.527   2.192   1.509 -0.1495  0.3870  0.4723
  681SOL    HW1 2042   2.537   2.232   1.602  0.5951  0.1909 -0.3099
  681SOL    HW2 2043   2.450   2.125   1.502 -1.1380 -3.3070  0.7073
  682SOL     OW 2044   0.610   1.717   2.506  0.6466  0.4511 -0.2766
  682SOL    HW1 2045   0.595   1.661   2.591  0.1031  0.4537  1.4623
  682SOL    HW2 2046   0.562   1.801   2.507  3.7460 -2.7863 -0.7221
  683SOL     OW 2047   2.579   1.918   1.411 -0.1868  0.3498  0.1434
  683SOL    HW1 2048   2.658   1.873   1.365  0.4676 -2.2823 -0.9438
  683SOL    HW2 2049   2.579   2.015   1.376  0.8433  1.0150 -1.1163
  684SOL     OW 2050   2.665   1.343   1.852 -0.1956  0.2724  0.2502
  684SOL    HW1 2051   2.607   1.328   1.936  0.2881 -1.1529  0.6255
  684SOL    HW2 2052   2.671   1.252   1.806  0.2736 -0.6105  1.4373
  685SOL     OW 2053   0.897   0.935   0.893  0.2206  0.0488 -0.7347
  685SOL    HW1 2054   0.910   1.000   0.816  0.6671 -1.5000  0.0238
  685SOL    HW2 2055   0.831   0.862   0.861  0.1677 -1.0565  0.7032
  686SOL     OW 2056   0.476   3.052   2.661 -0.2557  0.0315 -0.1577
  686SOL    HW1 2057   0.462   0.050   2.630  1.1754 -1.4204  0.2269
  686SOL    HW2 2058   0.403   2.987   2.637  1.4722  0.9223  0.9503
  687SOL     OW 2059   0.543   2.098   1.943 -0.6264 -0.0908  0.4319
  687SOL    HW1 2060   0.596   2.184   1.949  1.4220 -3.6196  0.4323
  687SOL    HW2 2061   0.576   2.023   1.999  0.5111 -0.3951 -0.6461
  688SOL     OW 2062   2.192   0.402   1.542  0.4041 -0.4875 -0.1257
  688SOL    HW1 2063   2.096   0.430   1.551 -1.9178  2.2318 -1.3156
  688SOL    HW2 2064   2.240   0.457   1.475 -3.5349 -2.2984  0.1922
  689SOL     OW 2065   2.118   1.020   1.011 -0.4089  0.0982  0.3885
  689SOL    HW1 2066   2.096   0.920   1.013  0.2337 -0.5544  1.9727
  689SOL    HW2 2067   2.208   1.034   0.959 -0.0069  0.4238  3.4412
  690SOL     OW 2068   2.748   0.764   1.206  0.3484  0.4059  0.0474
  690SOL    HW1 2069   2.840   0.718   1.221 -1.2325 -1.8641 -0.7570
  690SOL    HW2 2070   2.675   0.713   1.263  2.8370 -3.0168 -0.2503
  691SOL     OW 2071   3.050   1.064   2.056  0.1866 -0.8885 -0.1180
  691SOL    HW1 2072   3.010   1.128   2.124 -0.8848  1.7236  3.0393
  691SOL    HW2 2073   2.982   1.043   1.986 -1.1652  0.8682  4.0004
  692SOL     OW 2074   0.716   1.191   1.957 -0.3569  0.2104 -0.6514
  692SOL    HW1 2075   0.667   1.192   2.049 -1.7119  0.0825  2.4861
  692SOL    HW2 2076   0.779   1.110   1.941  0.5732 -0.8411 -0.9950
  693SOL     OW 2077   0.453   1.244   1.869 -0.1668 -0.1418  0.0789
  693SOL    HW1 2078   0.539   1.222   1.919  0.7901  0.4449 -0.8765
  693SOL    HW2 2079   0.370   1.224   1.928 -1.0380 -0.8524 -0.2398
  694SOL     OW 2080   1.427   2.016   1.018 -0.6516 -0.1682  0.1858
  694SOL    HW1 2081   1.436   1.974   0.929  0.0782 -2.1837  0.2905
  694SOL    HW2 2082   1.343   1.983   1.066  0.4161  0.6522 -1.0149
  695SOL     OW 2083   3.030   0.734   1.083 -0.5349 -0.2080  0.7395
  695SOL    HW1 2084   3.030   0.833   1.054  1.0283  1.1972  1.4327
  695SOL    HW2 2085   3.028   0.673   1.002 -0.9798 -2.5301  0.3166
  696SOL     OW 2086   0.707   2.289   0.722  0.2787 -0.4989 -0.1275
  696SOL    HW1 2087   0.719   2.388   0.725 -1.1588 -1.9480  1.4535
  696SOL    HW2 2088   0.709   2.252   0.817 -0.0723 -3.1899 -1.6221
  697SOL     OW 2089   1.462   0.962   1.662 -0.0860  0.4282  1.3413
  697SOL    HW1 2090   1.529   1.028   1.622 -0.5668  0.1322  1.7648
  697SOL    HW2 2091   1.389   1.012   1.704 -0.0909  1.6680 -0.7925
  698SOL     OW 2092   1.716   1.649   1.460 -0.5771  0.1000 -1.1592
  698SOL    HW1 2093   1.619   1.669   1.443  0.2431 -1.4053 -0.6213
  698SOL    HW2 2094   1.772   1.681   1.386 -1.0676  0.1246 -1.2055
  699SOL     OW 2095   0.258   0.419   2.633  0.5488 -0.2856 -0.0366
  699SOL    HW1 2096   0.175   0.401   2.577  0.7804 -0.8564 -2.0562
  699SOL    HW2 2097   0.274   0.520   2.643 -0.5904 -2.7098  4.0835
  700SOL     OW 2098   1.587   2.319   0.665  0.3805 -0.3485 -0.0508
  700SOL    HW1 2099   1.596   2.310   0.770 -2.3107  0.3034  3.0909
  700SOL    HW2 2100   1.503   2.375   0.649  1.0459  0.0570  0.7931
  701SOL     OW 2101   2.902   1.281   2.174 -0.1821 -0.9270 -0.2858
  701SOL    HW1 2102   2.899   1.328   2.266 -1.1023  3.0178 -0.5736
  701SOL    HW2 2103   2.973   1.335   2.117 -1.1921  0.3821  0.6708
  702SOL     OW 2104   0.658   0.048   2.872  0.6556  0.3097 -0.5567
  702SOL    HW1 2105   0.696   0.139   2.879  2.1562  2.4992  0.2810
  702SOL    HW2 2106   0.607   0.040   2.784 -1.2791  2.7871  0.6698
  703SOL     OW 2107   1.620   0.443   2.812 -0.0541 -0.0150  0.2663
  703SOL    HW1 2108   1.630   0.363   2.876 -0.8571 -0.0123  2.3134
  703SOL    HW2 2109   1.553   0.426   2.740 -0.8046 -0.0709 -1.8389
  704SOL     OW 2110   2.906   1.343   1.004  0.2523  0.2239 -0.3876
  704SOL    HW1 2111   2.942   1.378   1.092 -1.7939  2.1658  0.0121
  704SOL    HW2 2112   2.817   1.388   0.976  3.1330 -1.4041  0.2534
  705SOL     OW 2113   2.548   1.990   1.837  0.3521  0.1975 -0.4123
  705SOL    HW1 2114   2.551   2.089   1.810 -0.2603 -0.8947 -1.2905
  705SOL    HW2 2115   2.468   1.951   1.786 -0.5434  0.6056 -0.4065
  706SOL     OW 2116   3.039   2.544   0.991 -0.0713 -0.0755 -0.5313
  706SOL    HW1 2117   0.011   2.598   0.939  0.1740 -1.3350  2.0468
  706SOL    HW2 2118   2.983   2.484   0.929  1.3364 -0.4317 -0.0528
  707SOL     OW 2119   0.918   2.936   0.227 -0.2706 -0.0143 -0.3135
  707SOL    HW1 2120   0.906   3.032   0.188 -1.2328  0.7355 -0.9570
  707SOL    HW2 2121   1.005   2.928   0.286  2.9527 -1.3606 -0.6278
  708SOL     OW 2122   0.766   2.215   1.566  0.0242  0.2067 -0.0815
  708SOL    HW1 2123   0.706   2.263   1.497 -1.5949 -1.9694 -0.5795
  708SOL    HW2 2124   0.780   2.120   1.533  1.8539  0.1403 -3.6968
  709SOL     OW 2125   2.040   0.096   2.633  0.2208 -0.0432 -0.3102
  709SOL    HW1 2126   1.982   0.173   2.664 -4.0462 -1.4072  0.6997
  709SOL    HW2 2127   2.119   0.083   2.691 -3.0645 -1.7389 -0.4669
  710SOL     OW 2128   1.026   2.702   2.510 -0.1404 -0.0638 -0.2289
  710SOL    HW1 2129   1.097   2.641   2.462 -0.3583 -1.6824  1.6373
  710SOL    HW2 2130   1.067   2.746   2.595  0.8839  0.6420  2.1577
  711SOL     OW 2131   1.230   2.296   2.515  0.2789  1.2596 -0.6598
  711SOL    HW1 2132   1.224   2.387   2.471 -1.0441 -1.2831  0.0007
  711SOL    HW2 2133   1.147   2.290   2.572  0.1891 -0.6771 -1.2547
  712SOL     OW 2134   1.234   1.979   2.788  0.2175  0.4668 -0.0555
  712SOL    HW1 2135   1.191   1.991   2.695 -0.5265  0.4558 -2.4711
  712SOL    HW2 2136   1.230   1.881   2.819  0.4593  1.2122  1.4617
  713SOL     OW 2137   0.883   0.973   1.924  0.5452 -0.2391  0.0807
  713SOL    HW1 2138   0.880   0.968   1.820  1.3059 -0.0573 -2.0477
  713SOL    HW2 2139   0.894   0.882   1.972 -0.2491 -0.5342 -0.6415
  714SOL     OW 2140   1.704   2.025   0.972 -0.0002 -0.4957  0.4404
  714SOL    HW1 2141   1.728   2.110   0.917  2.7521  2.8380 -0.7299
  714SOL    HW2 2142   1.605   2.033   1.005 -3.6328  0.6168  0.7518
  715SOL     OW 2143   0.130   0.450   0.563 -0.2850  0.2132 -0.2236
  715SOL    HW1 2144   0.223   0.412   0.554  1.8838  0.7073 -0.4168
  715SOL    HW2 2145   0.101   0.519   0.493  0.6581 -0.7428 -1.4752
  716SOL     OW 2146   0.851   2.661   0.217  0.1429  0.2460 -0.5927
  716SOL    HW1 2147   0.896   2.747   0.221  0.1362 -0.1150  1.7879
  716SOL    HW2 2148   0.822   2.630   0.125  2.5511 -0.6029  3.0281
  717SOL     OW 2149   0.194   0.362   0.089 -0.6120  0.1653  0.2958
  717SOL    HW1 2150   0.265   0.425   0.134  1.1712  2.2031 -1.9126
  717SOL    HW2 2151   0.220   0.267   0.116 -1.2310 -0.8579  1.7622
  718SOL     OW 2152   1.617   2.334   1.215 -0.0213  0.5469 -0.6936
  718SOL    HW1 2153   1.517   2.339   1.237  2.4275 -0.8524  0.0586
  718SOL    HW2 2154   1.669   2.278   1.285  2.4024  1.3009  1.5392
  719SOL     OW 2155   2.784   2.423   0.732  0.3524 -0.3467 -0.0758
  719SOL    HW1 2156   2.830   2.333   0.718  0.9812  2.0866 -0.1535
  719SOL    HW2 2157   2.765   2.464   0.640 -0.8429  0.0602  0.1655
  720SOL     OW 2158   1.010   1.329   0.844  0.5899  0.7831  0.3275
  720SOL    HW1 2159   0.964   1.407   0.799 -1.3163  2.2287 -1.6165
  720SOL    HW2 2160   0.967   1.313   0.939 -0.1670 -2.6793 -2.0128
  721SOL     OW 2161   0.998   0.533   0.981 -0.2429 -0.3989  0.3285
  721SOL    HW1 2162   0.921   0.585   1.031 -4.3893  0.4234  1.2417
  721SOL    HW2 2163   1.025   0.451   1.034  2.1535  3.2631 -1.6877
  722SOL     OW 2164   0.929   1.151   1.530 -0.7417 -0.2941  0.4795
  722SOL    HW1 2165   1.014   1.169   1.580 -2.5219  0.1592  0.3358
  722SOL    HW2 2166   0.943   1.189   1.436 -0.1704  1.0233 -2.6309
  723SOL     OW 2167   0.852   0.316   1.788 -0.0365 -0.2152  0.2487
  723SOL    HW1 2168   0.851   0.416   1.765 -0.1095  0.6282  3.1956
  723SOL    HW2 2169   0.761   0.269   1.774  0.0096 -0.9619 -1.6253
  724SOL     OW 2170   1.939   2.034   1.853  0.1192  0.4441 -0.1819
  724SOL    HW1 2171   1.987   1.986   1.781  0.5656  0.1803  2.3723
  724SOL    HW2 2172   1.866   2.100   1.819 -0.7565  0.3286 -2.5456
  725SOL     OW 2173   0.988   2.968   1.537  0.5472 -0.1856 -0.3212
  725SOL    HW1 2174   1.082   2.935   1.566  1.5607 -1.3480  1.1299
  725SOL    HW2 2175   0.916   2.900   1.549  1.7906 -1.3892  1.1641
  726SOL     OW 2176   1.473   0.434   0.329  0.1846  0.0060 -0.1156
  726SOL    HW1 2177   1.521   0.360   0.377  1.1448  0.4178  1.2053
  726SOL    HW2 2178   1.520   0.439   0.241  0.4819 -0.4831 -4.1337
  727SOL     OW 2179   1.398   2.283   0.951  0.6361  0.2563  0.3238
  727SOL    HW1 2180   1.502   2.291   0.950  1.7917  2.5199  2.6379
  727SOL    HW2 2181   1.367   2.186   0.965 -0.0194 -1.8307  2.3404
  728SOL     OW 2182   1.816   0.080   2.324 -0.1823  0.2841  0.3383
  728SOL    HW1 2183   1.718   0.087   2.293 -2.2521 -1.4491 -0.6601
  728SOL    HW2 2184   1.836   3.082   2.359  1.2234  2.4202  0.2127
  729SOL     OW 2185   2.429   1.538   0.864 -0.2645 -0.2738 -0.1907
  729SOL    HW1 2186   2.427   1.482   0.782  0.4630  0.6500 -0.0223
  729SOL    HW2 2187   2.426   1.635   0.837  2.1936 -1.8324 -1.9706
  730SOL     OW 2188   2.031   1.061   2.755 -0.2054 -0.1521  0.1559
  730SOL    HW1 2189   2.033   1.073   2.650  1.2606 -1.0536 -1.1096
  730SOL    HW2 2190   1.978   0.975   2.782  1.2744 -3.9426 -0.2023
  731SOL     OW 2191   0.375   0.127   1.731  0.4549  0.5168  0.4539
  731SOL    HW1 2192   0.301   0.175   1.682 -1.0110  0.9886 -2.0627
  731SOL    HW2 2193   0.386   0.038   1.679  0.6178  1.4353 -2.3432
  732SOL     OW 2194   1.732   0.670   1.466  0.4252 -0.0724  0.3085
  732SOL    HW1 2195   1.691   0.643   1.553  1.9623  0.0461 -0.5259
  732SOL    HW2 2196   1.683   0.749   1.430  2.8066 -1.7776  2.9933
  733SOL     OW 2197   0.816   1.434   1.885  0.0003 -0.6328 -0.0168
  733SOL    HW1 2198   0.820   1.411   1.785  1.1648 -1.8329  1.0389
  733SOL    HW2 2199   0.789   1.351   1.931  2.5521  2.8215  1.5985
  734SOL     OW 2200   2.613   1.770   0.232  0.3836  0.1327  0.2734
  734SOL    HW1 2201   2.609   1.713   0.145 -0.1447  0.3654 -1.7149
  734SOL    HW2 2202   2.574   1.864   0.218  0.9759  0.9078 -0.7083
  735SOL     OW 2203   0.556   0.797   0.360 -0.3029  0.1296 -0.1764
  735SOL    HW1 2204   0.532   0.717   0.299  0.5704  2.2292 -0.1523
  735SOL    HW2 2205   0.650   0.786   0.394 -1.7468  3.5264 -1.1109
  736SOL     OW 2206   1.944   2.618   0.096  0.3969  0.2014 -0.0616
  736SOL    HW1 2207   1.961   2.708   0.052 -1.0324  2.1411 -1.5978
  736SOL    HW2 2208   1.900   2.547   0.032  1.3045 -1.4355 -2.1874
  737SOL     OW 2209   1.158   2.247   1.203  0.6028 -0.3530 -0.1240
  737SOL    HW1 2210   1.150   2.162   1.258 -0.7293  1.5058  1.6377
  737SOL    HW2 2211   1.221   2.309   1.253  0.3026 -1.2860  0.9685
  738SOL     OW 2212   1.925   2.955   2.584 -0.0829 -0.7365 -0.1514
  738SOL    HW1 2213   1.960   3.050   2.585  3.3571 -2.7293  0.5399
  738SOL    HW2 2214   1.918   2.925   2.486  2.2295 -1.5232 -0.6334
  739SOL     OW 2215   1.947   2.330   2.579 -0.1080 -0.3346  0.2033
  739SOL    HW1 2216   1.995   2.304   2.493  0.3784 -0.2338 -2.0521
  739SOL    HW2 2217   1.847   2.337   2.557 -2.1062  3.4002 -0.1342
  740SOL     OW 2218   1.795   2.285   2.053  0.7439 -0.1185 -0.1102
  740SOL    HW1 2219   1.691   2.275   2.044  2.7699  2.0456  2.1075
  740SOL    HW2 2220   1.839   2.195   2.083  0.9209 -2.5959 -0.4574
  741SOL     OW 2221   2.380   2.060   2.580  0.3407 -0.8458 -0.0937
  741SOL    HW1 2222   2.307   2.113   2.635 -1.7730  1.8859  1.6296
  741SOL    HW2 2223   2.468   2.059   2.632 -1.1630 -1.8294 -2.6140
  742SOL     OW 2224   1.228   1.534   2.784 -0.2960  0.1265 -0.0262
  742SOL    HW1 2225   1.331   1.530   2.811  2.5543  0.5797  1.5740
  742SOL    HW2 2226   1.228   1.562   2.689 -1.0126 -1.7884 -1.8224
  743SOL     OW 2227   1.464   1.293   2.818 -0.3821  0.8102  0.4051
  743SOL    HW1 2228   1.425   1.215   2.878  0.8513 -0.3806  3.1036
  743SOL    HW2 2229   1.480   1.370   2.879  1.0868 -0.4174  0.5318
  744SOL     OW 2230   2.220   2.885   1.227  0.1712 -0.2552  0.2161
  744SOL    HW1 2231   2.218   2.783   1.240  0.0513 -3.5896 -0.0167
  744SOL    HW2 2232   2.202   2.908   1.129 -2.3478  0.2322 -0.1249
  745SOL     OW 2233   2.717   0.933   0.667  0.3394  0.2348 -0.2489
  745SOL    HW1 2234   2.646   0.995   0.637  2.8559 -3.0691  0.9817
  745SOL    HW2 2235   2.807   0.973   0.660 -0.9964 -1.9951 -1.0340
  746SOL     OW 2236   2.670   1.898   1.069 -0.4946  0.4054  0.4827
  746SOL    HW1 2237   2.608   1.896   0.990  1.8449 -1.6271  1.6135
  746SOL    HW2 2238   2.687   1.994   1.101  2.1209  1.2184 -0.9239
  747SOL     OW 2239   1.676   0.056   0.094 -0.6722 -0.0103  0.5423
  747SOL    HW1 2240   1.759   0.096   0.144  2.8369  1.4853  1.4308
  747SOL    HW2 2241   1.707   3.070   0.041  0.7347 -3.1916 -1.0741
  748SOL     OW 2242   0.768   1.275   0.153  0.0077 -0.6831 -0.2726
  748SOL    HW1 2243   0.848   1.334   0.165 -0.7218  0.9874  0.4870
  748SOL    HW2 2244   0.777   1.203   0.086  0.3249  3.4843  0.2585
  749SOL     OW 2245   2.877   0.621   2.198 -0.4445 -0.1070  0.3924
  749SOL    HW1 2246   2.810   0.566   2.251 -1.6337 -1.4241 -2.1328
  749SOL    HW2 2247   2.911   0.692   2.263 -0.0683 -0.4196  0.8674
  750SOL     OW 2248   0.861   0.705   2.013  0.2018  0.1118 -0.5072
  750SOL    HW1 2249   0.943   0.643   2.027  0.0716 -2.5777 -2.4493
  750SOL    HW2 2250   0.794   0.662   1.955 -0.0121  2.4146  1.7905
  751SOL     OW 2251   2.415   2.471   2.086  0.2892 -0.3900  0.1967
  751SOL    HW1 2252   2.389   2.430   1.997  0.5443  0.3681  1.4252
  751SOL    HW2 2253   2.382   2.570   2.081 -1.2645  3.4005  1.7407
  752SOL     OW 2254   2.017   1.464   0.947 -0.0554 -0.0249 -0.4339
  752SOL    HW1 2255   2.115   1.435   0.951 -1.6186 -0.2847  0.4526
  752SOL    HW2 2256   2.007   1.559   0.948  0.4955 -1.9846 -1.5254
  753SOL     OW 2257   1.039   1.064   2.122  0.4603  0.0305 -0.3235
  753SOL    HW1 2258   0.976   1.036   2.047  0.4404  0.9038 -0.4796
  753SOL    HW2 2259   1.121   1.001   2.114 -2.3712 -0.0041 -0.4043
  754SOL     OW 2260   0.679   2.570   0.759  0.0558 -0.1984 -0.4365
  754SOL    HW1 2261   0.762   2.620   0.729  1.8256  0.0951 -1.6909
  754SOL    HW2 2262   0.679   2.553   0.862  1.1366  0.7570 -1.1063
  755SOL     OW 2263   2.533   2.981   0.839  0.1445 -0.9352 -0.0721
  755SOL    HW1 2264   2.469   3.042   0.788 -0.8207  0.0549  2.3466
  755SOL    HW2 2265   2.572   3.039   0.920 -1.2246  2.9961  0.9570
  756SOL     OW 2266   2.205   1.941   2.409  0.2271 -0.3320 -0.4003
  756SOL    HW1 2267   2.251   1.971   2.492 -1.9906  1.4415 -3.7552
  756SOL    HW2 2268   2.175   2.019   2.351 -0.4200 -1.3950 -1.6515
  757SOL     OW 2269   2.930   3.016   1.754 -0.1517  0.0740 -0.1412
  757SOL    HW1 2270   2.960   2.962   1.673  1.6912 -1.4059  1.5681
  757SOL    HW2 2271   2.845   3.068   1.746  2.7240 -0.2309 -0.0537
  758SOL     OW 2272   0.398   2.492   0.687  0.0809  0.3972 -0.0574
  758SOL    HW1 2273   0.339   2.498   0.604  0.2795 -0.2429 -1.3022
  758SOL    HW2 2274   0.479   2.547   0.686 -0.5284 -0.5003 -0.7056
  759SOL     OW 2275   1.974   1.109   1.223  0.1307  0.0444 -0.0945
  759SOL    HW1 2276   1.928   1.191   1.197  4.7628 -1.6613  1.3789
  759SOL    HW2 2277   2.052   1.088   1.160  2.0501 -2.0250 -2.0589
  760SOL     OW 2278   1.426   0.698   1.577 -0.2232  0.5352  0.2792
  760SOL    HW1 2279   1.464   0.636   1.647 -1.2222  3.7590  2.4940
  760SOL    HW2 2280   1.435   0.794   1.610  0.2096 -0.1804  2.8569
  761SOL     OW 2281   2.040   0.325   1.083  0.7896 -0.5331  0.3188
  761SOL    HW1 2282   2.089   0.403   1.127  0.6031 -1.6494 -0.6809
  761SOL    HW2 2283   2.054   0.317   0.980  1.4712 -1.6117 -0.8785
  762SOL     OW 2284   1.616   0.227   0.466  0.6788 -0.0454 -0.1530
  762SOL    HW1 2285   1.699   0.168   0.473 -0.2569 -0.0646 -2.2104
  762SOL    HW2 2286   1.627   0.308   0.526  0.7458  0.0438  1.1256
  763SOL     OW 2287   0.857   0.561   1.670 -0.3524 -0.2164  0.1843
  763SOL    HW1 2288   0.807   0.533   1.585 -1.2757  3.4868  0.6386
  763SOL    HW2 2289   0.958   0.558   1.654  0.0164  1.6402  1.9447
  764SOL     OW 2290   2.130   2.394   2.157  0.5184  0.1007 -0.6654
  764SOL    HW1 2291   2.125   2.314   2.093 -0.8862 -2.2888  0.3498
  764SOL    HW2 2292   2.219   2.443   2.145 -0.7328 -0.5726  0.3811
  765SOL     OW 2293   2.838   1.132   2.563  0.5298  0.1062 -0.0645
  765SOL    HW1 2294   2.785   1.061   2.512  0.8400  1.6346 -0.7580
  765SOL    HW2 2295   2.842   1.121   2.664 -3.3300 -0.3699  0.9309
  766SOL     OW 2296   3.065   0.673   2.805  0.9261  0.3819  0.0250
  766SOL    HW1 2297   3.069   0.590   2.864  1.6844 -2.7683 -0.0203
  766SOL    HW2 2298   3.035   0.647   2.709 -1.0279  1.3247 -4.4890
  767SOL     OW 2299   0.320   2.487   1.957 -0.1754  0.4439  1.4328
  767SOL    HW1 2300   0.257   2.423   2.010  0.8659  1.0392  1.1257
  767SOL    HW2 2301   0.280   2.582   1.950  0.1985  0.5520 -0.7765
  768SOL     OW 2302   1.095   0.956   3.056 -0.1042  0.0658  0.4546
  768SOL    HW1 2303   1.178   0.904   3.022  3.9942  1.1191 -1.8150
  768SOL    HW2 2304   1.072   1.026   2.989 -2.2822 -0.9533 -2.0521
  769SOL     OW 2305   1.258   2.420   0.324  0.2003  0.4849  0.2553
  769SOL    HW1 2306   1.172   2.474   0.330 -1.5535 -0.7639 -1.5726
  769SOL    HW2 2307   1.328   2.442   0.397  2.4688 -0.4054 -1.9518
  770SOL     OW 2308   1.208   0.178   1.970 -0.7633  0.3748  0.4463
  770SOL    HW1 2309   1.196   0.108   1.901  0.9449 -0.3294  0.5304
  770SOL    HW2 2310   1.128   0.179   2.033 -2.2965 -1.0171 -0.5748
  771SOL     OW 2311   0.839   2.793   0.940 -0.1890  0.5446 -0.2972
  771SOL    HW1 2312   0.911   2.820   1.011 -0.7437 -1.5417  2.1541
  771SOL    HW2 2313   0.796   2.711   0.981 -0.2607  0.9511  0.7482
  772SOL     OW 2314   2.611   0.899   0.335  0.0662 -0.3034  0.0585
  772SOL    HW1 2315   2.664   0.816   0.352 -0.8117 -1.3645 -0.0790
  772SOL    HW2 2316   2.516   0.900   0.369 -2.1874 -0.2394 -1.4363
  773SOL     OW 2317   2.181   0.617   1.796  0.3003  0.7084 -0.5124
  773SOL    HW1 2318   2.207   0.585   1.706 -4.3334  0.7404  2.2474
  773SOL    HW2 2319   2.158   0.714   1.786  0.9559  2.1298 -0.9738
  774SOL     OW 2320   0.472   0.706   0.717 -0.6368 -0.2406  0.2762
  774SOL    HW1 2321   0.422   0.701   0.626 -2.7968  2.5531 -0.1890
  774SOL    HW2 2322   0.443   0.794   0.754  0.0455 -1.7213  1.5355
  775SOL     OW 2323   1.598   0.194   0.859  0.5867  0.5123 -0.7032
  775SOL    HW1 2324   1.630   0.236   0.945 -1.5636  1.0949  0.1476
  775SOL    HW2 2325   1.618   0.257   0.780  1.4693 -0.9884 -1.3189
  776SOL     OW 2326   1.997   3.094   1.997 -0.4658  0.5179  0.2472
  776SOL    HW1 2327   2.045   3.069   2.085 -2.1809 -0.4868  0.8830
  776SOL    HW2 2328   2.043   0.082   1.959 -0.7435  0.9372 -2.9530
  777SOL     OW 2329   1.209   1.636   0.322 -0.1082 -0.4778  0.3647
  777SOL    HW1 2330   1.285   1.697   0.361  3.6114 -0.1230  2.8529
  777SOL    HW2 2331   1.238   1.539   0.298 -1.8875  0.1982  1.5917
  778SOL     OW 2332   0.551   2.497   0.002 -0.2662 -0.0743 -0.2140
  778SOL    HW1 2333   0.544   2.442   0.090 -0.0488 -0.6581  1.3957
  778SOL    HW2 2334   0.557   2.594   0.008 -2.2986 -2.8438 -0.7758
  779SOL     OW 2335   0.133   1.542   0.116 -0.2376  0.5838 -0.0147
  779SOL    HW1 2336   0.145   1.638   0.115  0.4282 -3.3488  0.6913
  779SOL    HW2 2337   0.186   1.506   0.195 -0.7920  0.1528 -3.0208
  780SOL     OW 2338   1.632   0.220   2.183 -0.2360 -0.1074 -0.2350
  780SOL    HW1 2339   1.662   0.139   2.127  1.0544 -0.2344  0.0907
  780SOL    HW2 2340   1.697   0.300   2.185 -1.2487 -1.6070 -0.0937
  781SOL     OW 2341   1.825   1.767   1.026 -0.6768 -0.6033 -0.3980
  781SOL    HW1 2342   1.792   1.859   1.010  1.7513 -3.8004 -0.7989
  781SOL    HW2 2343   1.913   1.750   0.968  1.0106 -2.7406 -0.0068
  782SOL     OW 2344   1.906   2.524   2.083 -0.8133 -0.5815 -0.2386
  782SOL    HW1 2345   1.849   2.446   2.052  2.8417 -0.6917 -0.4703
  782SOL    HW2 2346   1.991   2.486   2.130 -1.2048 -2.2442  1.9370
  783SOL     OW 2347   1.504   0.495   1.753 -0.5692 -0.6864 -0.8014
  783SOL    HW1 2348   1.473   0.484   1.850  0.5395  1.1460 -0.4521
  783SOL    HW2 2349   1.500   0.402   1.712 -0.5718 -0.7464 -0.6618
  784SOL     OW 2350   1.505   0.829   1.896 -0.0478 -0.0785 -0.1518
  784SOL    HW1 2351   1.462   0.895   1.830 -0.6007  0.9905 -0.8569
  784SOL    HW2 2352   1.457   0.740   1.884 -0.3342  2.1990 -0.0237
  785SOL     OW 2353   1.833   0.871   0.523 -0.4520  0.7217 -0.2659
  785SOL    HW1 2354   1.870   0.939   0.454  0.9774 -0.6908 -1.3613
  785SOL    HW2 2355   1.767   0.921   0.584 -0.8571 -0.2770 -0.2464
  786SOL     OW 2356   0.027   1.230   0.742  0.2295  0.3524 -0.1158
  786SOL    HW1 2357   3.022   1.232   0.754 -0.5955 -0.8522 -1.7408
  786SOL    HW2 2358   0.066   1.313   0.784  1.1195  0.2676  1.7729
  787SOL     OW 2359   1.385   1.834   0.092  0.1364  0.4969 -0.4471
  787SOL    HW1 2360   1.340   1.758   0.048 -0.0031  1.1413 -0.4012
  787SOL    HW2 2361   1.354   1.926   0.054 -0.0139  0.4423 -2.8565
  788SOL     OW 2362   2.297   1.110   1.301 -0.3898 -0.4778  0.0181
  788SOL    HW1 2363   2.313   1.211   1.300 -0.3160  1.0703  0.4997
  788SOL    HW2 2364   2.314   1.074   1.393 -1.6957 -0.7616 -4.0879
  789SOL     OW 2365   2.889   1.712   2.321  0.0154  0.3542 -0.1620
  789SOL    HW1 2366   2.806   1.777   2.315 -1.3225 -0.7691  3.2908
  789SOL    HW2 2367   2.866   1.634   2.386  1.4622 -3.5219  1.4446
  790SOL     OW 2368   0.850   2.908   2.512  0.4021  0.1181 -0.1141
  790SOL    HW1 2369   0.777   2.893   2.584 -0.4093 -2.3752  1.2266
  790SOL    HW2 2370   0.919   2.833   2.501  2.9393 -0.3895 -0.1363
  791SOL     OW 2371   0.156   2.424   2.732  0.1427 -0.6123  0.2639
  791SOL    HW1 2372   0.232   2.429   2.796 -0.0825  0.4755  0.9205
  791SOL    HW2 2373   0.070   2.382   2.773  0.2803 -1.0918  2.0512
  792SOL     OW 2374   1.387   0.305   2.111  0.0118  0.5491  0.1258
  792SOL    HW1 2375   1.475   0.260   2.135 -0.8124  0.8495 -1.8259
  792SOL    HW2 2376   1.322   0.240   2.064 -0.9190 -1.0544  1.6125
  793SOL     OW 2377   2.493   0.138   2.462 -0.2534 -0.2901 -0.5689
  793SOL    HW1 2378   2.548   0.066   2.515 -1.6188 -1.0750  1.7911
  793SOL    HW2 2379   2.512   0.128   2.361 -0.1530  0.2356  0.1789
  794SOL     OW 2380   0.298   0.316   2.185  0.2237 -0.1739  0.7382
  794SOL    HW1 2381   0.287   0.270   2.276  1.1477  0.4658 -0.8778
  794SOL    HW2 2382   0.286   0.244   2.113 -0.5828 -0.1348 -0.8632
  795SOL     OW 2383   2.855   1.287   0.306 -0.2138 -0.7548  0.1485
  795SOL    HW1 2384   2.894   1.207   0.254  0.0122 -0.0778 -1.6140
  795SOL    HW2 2385   2.919   1.370   0.294  1.9164  1.9788  0.9180
  796SOL     OW 2386   2.603   2.065   2.722 -0.4120 -0.3593 -0.0498
  796SOL    HW1 2387   2.677   2.067   2.647  0.5638  0.4419  0.5153
  796SOL    HW2 2388   2.603   2.157   2.770 -2.9315 -0.4418  1.9283
  797SOL     OW 2389   2.968   1.873   0.109 -0.5835  0.3427  0.1885
  797SOL    HW1 2390   2.908   1.850   0.029  1.9601  1.0109  2.7068
  797SOL    HW2 2391   2.926   1.878   0.200 -0.7649  0.3229 -0.3678
  798SOL     OW 2392   0.430   0.762   1.795 -0.1417  0.0469 -0.2208
  798SOL    HW1 2393   0.512   0.713   1.824  0.0031  1.6312  1.7159
  798SOL    HW2 2394   0.376   0.798   1.872  0.2870  1.0622 -1.0660
  799SOL     OW 2395   2.698   0.955   2.374  0.6301  0.0269  0.3256
  799SOL    HW1 2396   2.656   0.864   2.372 -0.3787 -1.8583 -0.0175
  799SOL    HW2 2397   2.690   1.008   2.283 -2.0507  2.7654  0.2716
  800SOL     OW 2398   2.899   2.167   0.690  0.0498 -0.7338 -0.4656
  800SOL    HW1 2399   2.925   2.157   0.591  0.3781 -1.0863 -2.1273
  800SOL    HW2 2400   2.899   2.074   0.737  0.8670 -0.4451 -1.0997
  801SOL     OW 2401   1.185   0.994   0.825 -0.0118 -0.7749 -0.4734
  801SOL    HW1 2402   1.092   1.038   0.836 -0.3178  0.1881  0.2390
  801SOL    HW2 2403   1.191   0.960   0.728 -0.8815  1.2552  1.6901
  802SOL     OW 2404   2.067   2.162   0.840  0.7711  0.3284 -0.0141
  802SOL    HW1 2405   2.038   2.102   0.917  0.6407 -0.5471 -0.5006
  802SOL    HW2 2406   2.040   2.134   0.749  0.8827  3.2810  3.8354
  803SOL     OW 2407   0.270   1.650   0.543  0.6408 -0.4878 -0.3233
  803SOL    HW1 2408   0.264   1.595   0.624  0.5398  1.4350 -2.3934
  803SOL    HW2 2409   0.202   1.722   0.540  1.2153 -2.8117 -0.4114
  804SOL     OW 2410   1.431   2.515   0.560 -0.1255  0.2886 -0.0031
  804SOL    HW1 2411   1.353   2.578   0.542  1.6078 -1.4450  1.2768
  804SOL    HW2 2412   1.520   2.560   0.562 -1.4559 -2.4914 -0.4836
  805SOL     OW 2413   1.657   2.088   2.478 -0.1318  0.0813  0.0956
  805SOL    HW1 2414   1.673   2.030   2.562  0.8064  2.5079  1.1121
  805SOL    HW2 2415   1.745   2.096   2.424  3.1094 -0.7171 -1.8596
  806SOL     OW 2416   1.875   3.090   1.328  0.3709 -0.6927 -0.4752
  806SOL    HW1 2417   1.923   3.002   1.348 -2.7229  1.9685 -0.6456
  806SOL    HW2 2418   1.937   0.074   1.324  1.0010 -0.1979 -1.2131
  807SOL     OW 2419   1.826   0.067   0.514 -0.6176  0.0599  0.0123
  807SOL    HW1 2420   1.926   0.060   0.505 -0.3127  0.8211  0.4927
  807SOL    HW2 2421   1.777   3.072   0.523 -1.3169  0.5370  2.0254
  808SOL     OW 2422   0.514   1.575   2.729  0.1348  0.2470 -0.6382
  808SOL    HW1 2423   0.411   1.581   2.721 -2.7015 -1.1701  1.2293
  808SOL    HW2 2424   0.534   1.481   2.761 -2.2997 -1.9060 -1.6003
  809SOL     OW 2425   0.019   1.115   2.981 -0.1606 -0.2571  0.0003
  809SOL    HW1 2426   0.117   1.128   3.007  1.0506  1.5299 -1.0325
  809SOL    HW2 2427   3.079   1.024   3.009 -3.3971 -2.4417  2.0476
  810SOL     OW 2428   2.725   0.601   2.925  0.1503  0.3810  0.3396
  810SOL    HW1 2429   2.658   0.673   2.889 -3.3908  2.1374 -0.7197
  810SOL    HW2 2430   2.736   0.523   2.851  2.4921 -1.6977 -4.8397
  811SOL     OW 2431   2.290   2.315   1.869 -0.8239  0.4865  0.0576
  811SOL    HW1 2432   2.286   2.306   1.764  0.0715  0.8598 -2.5027
  811SOL    HW2 2433   2.244   2.252   1.933  3.5469  0.2050  1.8499
  812SOL     OW 2434   1.094   0.331   0.472  0.1168  0.5948 -0.0071
  812SOL    HW1 2435   1.096   0.325   0.574 -0.1882  1.9006  0.8824
  812SOL    HW2 2436   1.155   0.260   0.429 -0.1910 -3.5425  2.1098
  813SOL     OW 2437   1.893   0.596   1.835  0.6987  0.6874 -0.8558
  813SOL    HW1 2438   1.849   0.504   1.852  1.3737 -0.1500 -0.6361
  813SOL    HW2 2439   1.988   0.586   1.804 -0.4098 -0.2571  2.4652
  814SOL     OW 2440   1.874   0.846   1.184  0.1345 -0.3535  0.6166
  814SOL    HW1 2441   1.941   0.789   1.135 -1.6114  1.9967 -1.3102
  814SOL    HW2 2442   1.922   0.939   1.202 -2.5779 -0.4139  2.1185
  815SOL     OW 2443   0.582   1.078   0.411 -0.1724 -0.1915  0.0471
  815SOL    HW1 2444   0.617   1.093   0.504  0.2875 -2.0221 -2.2096
  815SOL    HW2 2445   0.539   0.987   0.408 -1.1566  0.7310  0.3958
  816SOL     OW 2446   2.365   2.232   0.276  0.0372  0.1234 -0.2594
  816SOL    HW1 2447   2.268   2.211   0.257 -0.4193  2.7890 -1.2327
  816SOL    HW2 2448   2.383   2.222   0.375  2.2898 -1.7229 -0.8199
  817SOL     OW 2449   2.713   2.616   0.914 -0.2609 -0.0238 -0.1505
  817SOL    HW1 2450   2.757   2.549   0.850 -0.4382 -0.0800  1.1320
  817SOL    HW2 2451   2.720   2.581   1.008 -0.1419  2.1074 -1.1685
  818SOL     OW 2452   1.706   0.710   0.103 -0.5183 -0.3065  0.4309
  818SOL    HW1 2453   1.705   0.806   0.071  0.3560  1.9220 -1.9082
  818SOL    HW2 2454   1.692   0.705   0.208 -1.3702 -3.2888  3.2479
  819SOL     OW 2455   0.741   0.701   0.795  0.0879  0.1597 -0.8316
  819SOL    HW1 2456   0.647   0.686   0.758  0.4234 -2.6635 -4.0091
  819SOL    HW2 2457   0.809   0.649   0.737  2.1407  0.0903 -0.9786
  820SOL     OW 2458   1.991   0.658   1.388 -0.0519 -0.7950  0.6208
  820SOL    HW1 2459   2.029   0.750   1.415 -1.8052 -0.6659 -2.2659
  820SOL    HW2 2460   1.892   0.658   1.411  1.5883  0.9025 -0.7338
  821SOL     OW 2461   2.854   0.079   0.998  0.1633 -0.1663 -0.2259
  821SOL    HW1 2462   2.931   0.012   1.001  1.7372  0.6017 -2.2396
  821SOL    HW2 2463   2.890   0.171   1.026 -1.1524 -0.2701 -0.5286
  822SOL     OW 2464   0.630   2.318   2.254 -0.1070 -0.3294 -0.1652
  822SOL    HW1 2465   0.673   2.392   2.307 -2.4434  2.4743  0.9077
  822SOL    HW2 2466   0.527   2.333   2.256 -1.4797  0.0194  0.6182
  823SOL     OW 2467   2.812   1.156   1.553  0.4306 -0.4819 -0.9973
  823SOL    HW1 2468   2.851   1.061   1.570 -0.8368 -2.5596 -1.1523
  823SOL    HW2 2469   2.868   1.228   1.602  0.1574  2.2808 -1.4686
  824SOL     OW 2470   0.536   2.552   2.501  0.9125 -0.0820 -0.4795
  824SOL    HW1 2471   0.566   2.490   2.576 -0.8524 -3.7539 -0.1667
  824SOL    HW2 2472   0.615   2.584   2.450 -0.3378 -2.7493  0.4459
  825SOL     OW 2473   1.477   1.584   2.879  0.3244 -0.4801 -0.6406
  825SOL    HW1 2474   1.488   1.635   2.793  1.4021 -1.5935 -0.8257
  825SOL    HW2 2475   1.562   1.537   2.910 -2.9382  1.5027 -1.1355
  826SOL     OW 2476   0.976   2.282   3.043  0.0162 -0.6212  0.4221
  826SOL    HW1 2477   0.990   2.312   0.046  1.8085  1.0924 -1.5699
  826SOL    HW2 2478   0.958   2.186   3.038  0.0191  0.2802 -0.3320
  827SOL     OW 2479   0.169   1.450   1.811 -0.2793  0.2636  0.2230
  827SOL    HW1 2480   0.160   1.539   1.762  3.4704 -1.7726 -0.8280
  827SOL    HW2 2481   0.156   1.375   1.743 -1.0603 -0.0483 -1.2041
  828SOL     OW 2482   0.181   1.698   1.403 -0.4661  0.0130  0.4142
  828SOL    HW1 2483   0.168   1.764   1.325  2.1692  0.7764  2.0627
  828SOL    HW2 2484   0.282   1.693   1.415 -2.0619  0.1053 -1.9139
  829SOL     OW 2485   3.011   2.365   3.010  0.5217  0.1735  0.1274
  829SOL    HW1 2486   0.007   2.339   3.049 -1.9179  0.7308  0.6009
  829SOL    HW2 2487   2.943   2.290   2.995 -1.5081 -0.0417  0.5140
  830SOL     OW 2488   1.146   0.676   0.453 -0.2952 -0.4160  0.7840
  830SOL    HW1 2489   1.063   0.638   0.503 -3.3761  1.2133 -0.1745
  830SOL    HW2 2490   1.129   0.676   0.352  0.1397 -0.6332  1.6661
  831SOL     OW 2491   2.817   2.169   2.932 -0.0269 -0.0866  0.6221
  831SOL    HW1 2492   2.805   2.077   2.972  0.6998 -0.9536  0.0721
  831SOL    HW2 2493   2.730   2.212   2.903  1.3867  0.1498 -0.7977
  832SOL     OW 2494   1.667   2.676   0.482 -0.2977 -0.0479  0.3035
  832SOL    HW1 2495   1.657   2.635   0.390  0.6986 -1.4651  1.5385
  832SOL    HW2 2496   1.751   2.639   0.528  0.4876 -1.5464  2.2149
  833SOL     OW 2497   0.361   1.226   2.307 -0.6340  0.4893  0.4124
  833SOL    HW1 2498   0.351   1.331   2.322  2.3302  0.1384  3.0227
  833SOL    HW2 2499   0.375   1.185   2.398 -1.1472 -1.4799 -0.4127
  834SOL     OW 2500   2.238   0.480   0.537 -0.4480 -0.0301  0.7289
  834SOL    HW1 2501   2.167   0.546   0.517  0.2030  1.1956 -0.8566
  834SOL    HW2 2502   2.205   0.385   0.522 -0.0163 -1.7289 -2.0093
  835SOL     OW 2503   2.247   0.626   2.073  0.4848  0.3107  0.1006
  835SOL    HW1 2504   2.203   0.612   1.981 -0.4920  1.5900  0.8699
  835SOL    HW2 2505   2.173   0.624   2.139 -0.4193  1.9195 -0.2249
  836SOL     OW 2506   0.920   1.953   0.920 -0.2150  0.0098 -0.3535
  836SOL    HW1 2507   0.869   1.960   0.832  0.8039  1.5612  0.4985
  836SOL    HW2 2508   0.947   2.047   0.956 -0.4291  0.7329 -3.7925
  837SOL     OW 2509   2.349   1.257   1.734 -0.0172 -0.5042  0.0049
  837SOL    HW1 2510   2.303   1.299   1.651  0.9494  1.2556  0.1353
  837SOL    HW2 2511   2.347   1.326   1.811  0.2617  0.4170 -1.1739
  838SOL     OW 2512   0.039   1.097   2.516 -0.0870  0.2674  0.4767
  838SOL    HW1 2513   0.040   1.046   2.426  0.8482 -2.9431 -1.8432
  838SOL    HW2 2514   3.035   1.119   2.532  1.7643  0.3505  0.4722
  839SOL     OW 2515   2.933   0.238   3.020  0.0222  0.1126 -0.2332
  839SOL    HW1 2516   2.964   0.147   2.981 -2.4498 -2.3748 -1.4706
  839SOL    HW2 2517   2.859   0.223   3.089 -1.2610 -0.4607 -1.7648
  840SOL     OW 2518   2.883   1.141   2.832 -0.2545 -0.3003  0.0950
  840SOL    HW1 2519   2.977   1.123   2.868  2.0078 -0.2801 -0.7062
  840SOL    HW2 2520   2.815   1.157   2.905  0.2597 -1.3480 -0.2205
  841SOL     OW 2521   0.549   1.989   2.546  0.2671  0.1985  0.0614
  841SOL    HW1 2522   0.564   2.040   2.463  2.2620  0.4961  0.8080
  841SOL    HW2 2523   0.614   2.030   2.612 -1.1092  2.8314  3.4155
  842SOL     OW 2524   0.572   0.061   1.074  0.5773 -0.1476 -0.4595
  842SOL    HW1 2525   0.653   0.073   1.124 -2.7507  1.5321 -3.3620
  842SOL    HW2 2526   0.586   0.042   0.974 -2.0191  0.4290 -1.8865
  843SOL     OW 2527   2.920   1.343   1.769 -0.7091 -0.0605 -0.0697
  843SOL    HW1 2528   2.948   1.431   1.806  1.7570  0.2690  0.3333
  843SOL    HW2 2529   2.820   1.335   1.785  3.0640 -3.3685 -3.1689
  844SOL     OW 2530   2.130   2.272   2.390  0.0049  0.4774 -0.0181
  844SOL    HW1 2531   2.200   2.293   2.458 -3.6249 -0.9901  0.5433
  844SOL    HW2 2532   2.147   2.324   2.303  2.2106 -1.3671 -0.5679
  845SOL     OW 2533   1.625   2.988   2.453  0.0420  0.2329 -0.7929
  845SOL    HW1 2534   1.542   3.048   2.463  0.6798 -1.6605  1.1607
  845SOL    HW2 2535   1.649   2.944   2.543 -1.2918 -0.5100  0.8027
  846SOL     OW 2536   2.334   1.533   0.038 -0.3768  0.0663 -0.0337
  846SOL    HW1 2537   2.265   1.532   3.062  2.5323 -0.6264  0.3674
  846SOL    HW2 2538   2.417   1.589   0.012 -0.3086  2.6848  0.7433
  847SOL     OW 2539   2.267   0.075   2.788 -0.0147 -0.3327  0.0411
  847SOL    HW1 2540   2.330   0.015   2.840  0.8061  1.4330  1.2972
  847SOL    HW2 2541   2.280   0.172   2.823  1.7167  1.6793  3.3795
  848SOL     OW 2542   1.892   0.375   0.435 -0.4270  0.2063  0.1329
  848SOL    HW1 2543   1.871   0.433   0.515 -1.2582  2.6638  0.3432
  848SOL    HW2 2544   1.874   0.423   0.347  1.9793  0.2397  0.0224
  849SOL     OW 2545   1.084   0.280   2.844 -0.1924 -0.1524 -0.4764
  849SOL    HW1 2546   1.026   0.286   2.763 -0.0271  1.6886  2.0502
  849SOL    HW2 2547   1.031   0.272   2.926  2.8037  0.0433 -2.8916
  850SOL     OW 2548   0.039   0.489   0.266 -0.4432 -0.0610  0.2509
  850SOL    HW1 2549   0.095   0.419   0.219  2.0349  1.4971  0.3423
  850SOL    HW2 2550   0.036   0.576   0.214 -0.6775 -0.7049 -0.8468
  851SOL     OW 2551   0.217   1.127   1.407  0.5928  0.1906 -0.4756
  851SOL    HW1 2552   0.161   1.211   1.427 -0.1985  3.4687 -0.4595
  851SOL    HW2 2553   0.293   1.126   1.471 -0.8610 -2.9300  0.5429
  852SOL     OW 2554   1.262   0.906   2.028  0.1426 -0.4544 -0.7713
  852SOL    HW1 2555   1.225   0.842   1.960  1.6558  0.8471  2.7033
  852SOL    HW2 2556   1.361   0.887   2.054  1.9239  0.7357  0.4935
  853SOL     OW 2557   2.164   1.328   2.804 -0.1841  0.6895  0.3097
  853SOL    HW1 2558   2.252   1.320   2.861  0.2793 -1.7631  1.2361
  853SOL    HW2 2559   2.152   1.235   2.764 -0.4107 -3.0409 -0.0527
  854SOL     OW 2560   1.146   1.272   1.656 -0.3848 -0.4023  0.0921
  854SOL    HW1 2561   1.246   1.283   1.650 -2.9495  1.6980 -1.7103
  854SOL    HW2 2562   1.096   1.355   1.680 -0.9683 -0.4188 -2.3930
  855SOL     OW 2563   0.101   2.080   1.831  0.1811 -0.2530 -0.2020
  855SOL    HW1 2564   0.129   2.124   1.745 -0.2102  0.9749  0.3501
  855SOL    HW2 2565   0.159   1.998   1.844 -0.1736 -1.3146 -0.7953
  856SOL     OW 2566   1.175   1.074   2.455  0.5740 -0.3655 -0.1235
  856SOL    HW1 2567   1.240   1.029   2.394 -2.1552 -1.6963 -0.4666
  856SOL    HW2 2568   1.181   1.172   2.439  2.8149  1.1649  0.4432
  857SOL     OW 2569   1.137   0.954   2.687 -0.1594 -0.1742 -0.3870
  857SOL    HW1 2570   1.147   1.015   2.608  2.8499  0.7774  1.2014
  857SOL    HW2 2571   1.067   0.886   2.669  2.3390  5.0652  1.3452
  858SOL     OW 2572   0.236   0.177   1.972  0.3349  0.6197 -0.3899
  858SOL    HW1 2573   0.311   0.141   1.912  0.9533 -0.2910 -2.5826
  858SOL    HW2 2574   0.173   0.101   2.003  1.8531  3.2769 -0.9969
  859SOL     OW 2575   2.440   0.336   0.888  0.3149 -0.3830  0.3296
  859SOL    HW1 2576   2.515   0.403   0.892  0.1519 -0.0473  1.5032
  859SOL    HW2 2577   2.426   0.289   0.980 -0.9886 -3.7693  0.6621
  860SOL     OW 2578   0.591   0.945   1.643 -0.0717  0.3864  0.0149
  860SOL    HW1 2579   0.539   0.912   1.727 -1.3078 -0.1881 -0.4303
  860SOL    HW2 2580   0.690   0.928   1.650 -1.1551  0.1192  1.1215
  861SOL     OW 2581   1.425   1.020   1.272  0.4166 -0.0297  0.6473
  861SOL    HW1 2582   1.484   0.950   1.314 -0.7887  0.9689  2.4105
  861SOL    HW2 2583   1.486   1.094   1.229  0.8059  1.4266 -1.5500
  862SOL     OW 2584   0.774   2.779   2.272  0.2159 -0.7854 -0.0465
  862SOL    HW1 2585   0.794   2.807   2.368  1.3238  1.8141  0.3384
  862SOL    HW2 2586   0.711   2.850   2.239 -0.5886 -2.4221 -1.0003
  863SOL     OW 2587   2.775   0.147   1.368  0.2845 -0.5993 -0.0778
  863SOL    HW1 2588   2.764   0.208   1.449  2.6653  0.7764 -1.8701
  863SOL    HW2 2589   2.853   0.083   1.372  1.7347  1.6658 -1.7136
  864SOL     OW 2590   2.621   2.972   2.534 -0.7316  0.0293 -0.4601
  864SOL    HW1 2591   2.568   2.919   2.599 -0.6887  1.1797 -1.0052
  864SOL    HW2 2592   2.595   2.938   2.441  1.7745  1.6067  3.4028
  865SOL     OW 2593   1.464   1.199   2.236 -0.3935  0.4895 -0.4561
  865SOL    HW1 2594   1.463   1.099   2.265 -2.2525 -0.2606  0.8292
  865SOL    HW2 2595   1.371   1.229   2.208 -1.6478  0.5704 -0.0360
  866SOL     OW 2596   2.280   2.792   0.756  0.1046 -0.0519  0.6509
  866SOL    HW1 2597   2.359   2.782   0.819  0.8030  1.1214 -3.2690
  866SOL    HW2 2598   2.323   2.825   0.669  0.4552  0.2166 -0.2364
  867SOL     OW 2599   2.457   2.685   0.931  0.0256  0.2654  0.1989
  867SOL    HW1 2600   2.458   2.724   1.028 -1.3912  1.5158  1.2069
  867SOL    HW2 2601   2.551   2.671   0.900 -3.9040  1.4709 -0.3032
  868SOL     OW 2602   3.077   1.271   1.369  0.4126  0.4340  0.1088
  868SOL    HW1 2603   3.064   1.249   1.466 -1.0484  2.0940 -1.3030
  868SOL    HW2 2604   3.052   1.192   1.307  1.3603 -0.7551 -0.8558
  869SOL     OW 2605   2.117   1.477   2.066 -0.1886  0.3028 -0.2818
  869SOL    HW1 2606   2.110   1.520   2.162  0.6705  1.5902 -0.3281
  869SOL    HW2 2607   2.050   1.406   2.052  0.2615  1.8935 -1.4172
  870SOL     OW 2608   1.418   1.277   0.967  0.7411 -0.1238 -0.5715
  870SOL    HW1 2609   1.437   1.187   0.921 -1.1821  1.0883 -1.6781
  870SOL    HW2 2610   1.364   1.333   0.899 -1.2676  0.6611 -0.5242
  871SOL     OW 2611   2.122   1.485   1.774 -0.1089 -0.2718 -0.0530
  871SOL    HW1 2612   2.075   1.395   1.768  0.7059  2.0582  0.7250
  871SOL    HW2 2613   2.105   1.536   1.863  0.3670  1.6374 -0.6814
  872SOL     OW 2614   1.604   1.375   2.366  0.3069  0.1428  0.1161
  872SOL    HW1 2615   1.635   1.329   2.450  0.9657 -0.8917 -0.7809
  872SOL    HW2 2616   1.547   1.313   2.311  1.3499  0.8103  3.1114
  873SOL     OW 2617   1.277   1.526   1.466  0.1046 -0.4149 -0.1430
  873SOL    HW1 2618   1.228   1.490   1.384  0.8795  0.8698 -0.0677
  873SOL    HW2 2619   1.329   1.611   1.450  0.9459  1.0352  1.9252
  874SOL     OW 2620   1.575   1.408   1.141 -0.2943  0.5079 -0.0307
  874SOL    HW1 2621   1.582   1.505   1.116 -0.2056 -0.3018  1.1684
  874SOL    HW2 2622   1.526   1.359   1.069  0.1730 -1.3266  2.2903
  875SOL     OW 2623   2.458   0.378   2.589 -0.2307 -0.1875 -0.0553
  875SOL    HW1 2624   2.456   0.429   2.496  0.9154  1.7345 -1.9262
  875SOL    HW2 2625   2.461   0.278   2.569 -0.2656 -0.9892  2.3726
  876SOL     OW 2626   1.193   0.905   0.571 -0.4834  0.1557 -0.0801
  876SOL    HW1 2627   1.151   0.829   0.525  1.1096  1.4617  1.6566
  876SOL    HW2 2628   1.208   0.987   0.512  0.8662  2.0551 -1.8991
  877SOL     OW 2629   2.049   0.044   0.776 -0.4159  0.0417  0.0596
  877SOL    HW1 2630   2.081   0.007   0.686  1.4309 -1.5311  0.0130
  877SOL    HW2 2631   1.954   0.026   0.795  2.4295 -0.1445 -0.0321
  878SOL     OW 2632   2.853   1.888   0.342  0.0972  0.0175  0.4904
  878SOL    HW1 2633   2.911   1.821   0.397  0.4326 -1.4546  0.2794
  878SOL    HW2 2634   2.768   1.835   0.309 -2.1470  0.8617 -2.3463
  879SOL     OW 2635   2.927   2.124   1.925 -0.2289  0.3751 -0.6082
  879SOL    HW1 2636   2.924   2.098   2.021  0.5553  2.3735 -1.1230
  879SOL    HW2 2637   3.013   2.093   1.880  2.1159 -2.2503  1.6361
  880SOL     OW 2638   0.463   1.831   0.837 -0.0881 -0.1259  0.6936
  880SOL    HW1 2639   0.433   1.897   0.759 -2.7751  0.3273 -1.2661
  880SOL    HW2 2640   0.446   1.887   0.920  1.7947 -2.3368 -0.2816
  881SOL     OW 2641   1.397   0.357   2.633  0.1090 -0.1130  0.1981
  881SOL    HW1 2642   1.354   0.288   2.697  0.9010 -1.6049  0.3856
  881SOL    HW2 2643   1.457   0.297   2.574  3.2690 -1.7177 -0.9788
  882SOL     OW 2644   2.378   0.871   0.479  0.2787  0.3557 -0.1956
  882SOL    HW1 2645   2.380   0.952   0.545 -0.2558  3.2540  0.5473
  882SOL    HW2 2646   2.417   0.786   0.525  0.9556  0.5122 -2.6006
  883SOL     OW 2647   1.728   0.521   2.471 -0.2138 -0.3307  0.3328
  883SOL    HW1 2648   1.641   0.567   2.496 -3.0223 -3.0277 -1.3769
  883SOL    HW2 2649   1.804   0.583   2.495 -0.7359 -1.5843 -1.1908
  884SOL     OW 2650   0.166   2.948   1.796 -0.2797 -0.0884 -0.1389
  884SOL    HW1 2651   0.160   2.849   1.776  3.0724 -0.9420 -1.4103
  884SOL    HW2 2652   0.215   2.995   1.720  0.1636  0.3438  0.7854
  885SOL     OW 2653   1.897   0.802   2.241 -0.2636  0.3090  0.0075
  885SOL    HW1 2654   1.827   0.764   2.176  0.5672  0.1551 -1.9338
  885SOL    HW2 2655   1.966   0.731   2.257 -0.1618  1.5702 -0.2804
  886SOL     OW 2656   1.675   0.152   2.761  0.3985 -0.6088 -0.3069
  886SOL    HW1 2657   1.727   0.195   2.687 -2.8448 -0.0634  1.7066
  886SOL    HW2 2658   1.743   0.117   2.828 -0.0972  0.3361 -0.9189
  887SOL     OW 2659   1.246   0.316   1.531  0.4859 -0.5420  0.2188
  887SOL    HW1 2660   1.239   0.401   1.472 -1.5513  1.0402 -3.2724
  887SOL    HW2 2661   1.152   0.282   1.537 -0.7215  0.5872 -1.2952
  888SOL     OW 2662   2.363   0.657   1.542  0.2912 -0.6356 -0.1739
  888SOL    HW1 2663   2.422   0.725   1.591  1.3567  4.2582  1.7169
  888SOL    HW2 2664   2.361   0.671   1.439  1.1196 -0.0453 -1.2244
  889SOL     OW 2665   1.481   3.054   0.746 -0.4269 -0.5015 -0.1255
  889SOL    HW1 2666   1.542   0.035   0.774  0.2308 -0.6432 -0.8690
  889SOL    HW2 2667   1.395   3.070   0.799  0.1999  1.2970  0.5809
  890SOL     OW 2668   1.121   2.662   1.137  0.0927  0.0714  0.0972
  890SOL    HW1 2669   1.162   2.633   1.047 -0.8904  0.2512 -1.5070
  890SOL    HW2 2670   1.080   2.757   1.134 -0.1736  0.6452  1.1909
  891SOL     OW 2671   0.150   1.203   0.219 -0.0633 -0.2856  0.3044
  891SOL    HW1 2672   0.185   1.204   0.120  0.2819  3.3050  1.1355
  891SOL    HW2 2673   0.177   1.289   0.271 -3.2154  0.3733 -0.3324
  892SOL     OW 2674   2.210   1.378   2.437 -0.4030  0.0275 -0.7347
  892SOL    HW1 2675   2.151   1.427   2.374  1.9720  0.3409 -0.7606
  892SOL    HW2 2676   2.251   1.444   2.503 -2.6816 -2.3641 -1.0056
  893SOL     OW 2677   2.252   2.509   1.009 -0.3306 -0.0789 -0.3883
  893SOL    HW1 2678   2.166   2.554   1.039  0.2758 -1.2839 -1.2247
  893SOL    HW2 2679   2.309   2.578   0.962 -0.8289 -0.6736  0.8152
  894SOL     OW 2680   0.434   0.691   1.038  0.2540 -0.0972 -0.6408
  894SOL    HW1 2681   0.530   0.682   1.008  0.1140 -0.9466 -2.2010
  894SOL    HW2 2682   0.418   0.759   1.114  0.0700  0.1401  2.3780
  895SOL     OW 2683   2.790   2.058   2.487  0.1699 -0.2137 -0.3276
  895SOL    HW1 2684   2.731   1.983   2.454  0.5672 -0.4684  0.4025
  895SOL    HW2 2685   2.865   2.028   2.542  1.0340  0.5770 -3.0869
  896SOL     OW 2686   1.377   0.016   2.426 -0.2265  0.3125 -0.0527
  896SOL    HW1 2687   1.339   3.037   2.487  0.1062  2.4740 -0.4391
  896SOL    HW2 2688   1.308   0.032   2.350  2.0887  1.7781  0.3297
  897SOL     OW 2689   0.333   1.954   1.596 -0.0674  0.2516  0.3614
  897SOL    HW1 2690   0.300   2.053   1.589 -1.1147 -1.9158 -1.9060
  897SOL    HW2 2691   0.380   1.930   1.508  0.5607 -1.2353  1.5442
  898SOL     OW 2692   0.702   2.297   1.829 -0.2190  0.2538 -0.2465
  898SOL    HW1 2693   0.740   2.263   1.742 -0.3216  0.2948  2.4856
  898SOL    HW2 2694   0.732   2.393   1.856  0.8174  1.0455  0.7376
  899SOL     OW 2695   1.822   0.102   1.793 -0.2440  0.5127 -0.8908
  899SOL    HW1 2696   1.903   0.050   1.823  1.4588  2.1149  0.7583
  899SOL    HW2 2697   1.799   0.087   1.697  2.6394  1.5439  0.4060
  900SOL     OW 2698   1.531   1.196   0.532  0.4987 -0.2202 -0.0075
  900SOL    HW1 2699   1.586   1.139   0.596  1.0472  2.9147  0.9249
  900SOL    HW2 2700   1.435   1.159   0.522 -0.2533 -3.2035  1.6604
  901SOL     OW 2701   1.408   0.953   2.351 -0.0056 -0.3353  0.8267
  901SOL    HW1 2702   1.482   0.966   2.424  2.5239  0.1899 -1.2713
  901SOL    HW2 2703   1.376   0.857   2.341 -0.9941  0.7475 -0.8076
  902SOL     OW 2704   0.078   2.144   0.987  0.2058  0.0024  0.0161
  902SOL    HW1 2705   3.067   2.136   0.999  0.2883  1.3236  0.1523
  902SOL    HW2 2706   0.120   2.180   1.076 -1.4427  0.6258  0.0062
  903SOL     OW 2707   2.454   1.265   2.206  0.2788  0.4282 -0.4276
  903SOL    HW1 2708   2.545   1.226   2.182 -0.9724 -0.4305  2.2769
  903SOL    HW2 2709   2.440   1.252   2.308  1.6485 -0.5200  0.8958
  904SOL     OW 2710   1.282   2.056   0.003 -0.0150 -0.0877  0.2870
  904SOL    HW1 2711   1.241   2.052   3.008  2.3354  0.8537 -0.7505
  904SOL    HW2 2712   1.235   2.121   0.067 -0.8568 -2.5598 -1.0141
  905SOL     OW 2713   2.072   2.820   1.897 -0.1851  0.2427 -0.1008
  905SOL    HW1 2714   2.029   2.743   1.845 -1.6535 -1.6767 -0.8518
  905SOL    HW2 2715   2.026   2.909   1.897  0.5879 -0.4844  1.5950
  906SOL     OW 2716   1.334   2.824   0.136 -0.5398  0.2888 -0.2423
  906SOL    HW1 2717   1.329   2.868   0.043  0.0587  2.3430 -1.5217
  906SOL    HW2 2718   1.364   2.727   0.124  3.3352 -1.8588  3.6185
  907SOL     OW 2719   0.101   2.746   0.865 -0.0800  0.0227 -0.0488
  907SOL    HW1 2720   0.189   2.776   0.909 -1.7842 -0.4361 -0.2174
  907SOL    HW2 2721   0.124   2.711   0.768 -1.2249  0.3885 -3.9702
  908SOL     OW 2722   0.892   2.580   1.630  0.2575 -0.2842  0.2374
  908SOL    HW1 2723   0.849   2.661   1.580 -1.1404 -0.6456  1.3828
  908SOL    HW2 2724   0.860   2.572   1.729 -0.7439  1.0282  1.0864
  909SOL     OW 2725   1.671   0.903   1.353  0.2297  0.0584  0.4781
  909SOL    HW1 2726   1.750   0.887   1.292  1.4989 -0.1577  1.9396
  909SOL    HW2 2727   1.699   0.973   1.421  0.5080 -0.5545 -1.7401
  910SOL     OW 2728   0.923   0.509   0.359 -0.3036  0.0096  0.5157
  910SOL    HW1 2729   0.972   0.560   0.285  0.0163 -2.1954  0.7915
  910SOL    HW2 2730   0.989   0.439   0.392  1.2087  1.0462  0.7360
  911SOL     OW 2731   0.510   0.280   3.058  0.6697 -0.2165  0.3410
  911SOL    HW1 2732   0.481   0.215   0.034  3.9214  0.1119 -1.4985
  911SOL    HW2 2733   0.439   0.300   2.987 -0.4140  2.2161 -0.0918
  912SOL     OW 2734   3.053   1.854   2.811  0.0959  0.2829  0.2504
  912SOL    HW1 2735   3.092   1.775   2.864 -0.5044  1.4424 -1.6712
  912SOL    HW2 2736   3.079   1.852   2.711  0.9327 -0.0497 -2.2883
  913SOL     OW 2737   2.494   0.096   0.199  0.2607  0.0560 -0.3726
  913SOL    HW1 2738   2.512   0.163   0.278 -0.2932  2.4132  0.7488
  913SOL    HW2 2739   2.431   0.142   0.140 -0.7522 -0.2969 -0.0779
  914SOL     OW 2740   1.273   1.493   2.074 -0.5226  0.4867 -0.3487
  914SOL    HW1 2741   1.235   1.552   2.007 -1.3948 -0.3506  2.4557
  914SOL    HW2 2742   1.216   1.410   2.087  1.8029 -1.7601 -0.9236
  915SOL     OW 2743   2.842   2.416   2.278  0.2272 -0.2980 -0.2172
  915SOL    HW1 2744   2.901   2.341   2.239  1.4419 -0.7127 -0.6014
  915SOL    HW2 2745   2.824   2.401   2.379 -3.5047 -0.0335  0.9561
  916SOL     OW 2746   2.951   0.777   2.420 -0.0474  0.3474 -0.1604
  916SOL    HW1 2747   3.016   0.828   2.361 -3.0280 -1.5868 -0.1326
  916SOL    HW2 2748   2.893   0.836   2.477 -2.0106 -2.1738  0.0130
  917SOL     OW 2749   1.522   0.033   0.308 -0.1316  0.1038 -0.0018
  917SOL    HW1 2750   1.545   0.096   0.381 -0.4789 -1.7760 -0.3289
  917SOL    HW2 2751   1.576   0.047   0.219  3.8180 -2.3272 -0.8898
  918SOL     OW 2752   1.630   2.900   2.186  0.2646  0.5642  0.1574
  918SOL    HW1 2753   1.633   2.914   2.288 -2.5995  1.9353 -1.8671
  918SOL    HW2 2754   1.659   2.975   2.132  1.4941 -2.7603  1.3645
  919SOL     OW 2755   1.836   2.307   1.794  0.0193 -0.1875  0.2774
  919SOL    HW1 2756   1.821   2.295   1.890 -0.2717  0.9097  0.9314
  919SOL    HW2 2757   1.764   2.356   1.747  2.7273 -1.4221  0.0966
  920SOL     OW 2758   0.282   0.900   0.049 -0.2488 -0.2908  0.4920
  920SOL    HW1 2759   0.300   0.909   0.147 -1.7751 -3.1182 -0.3183
  920SOL    HW2 2760   0.343   0.830   0.008 -0.0506 -2.4987  0.0984
  921SOL     OW 2761   2.380   0.794   2.245 -0.2234  0.5414  0.8601
  921SOL    HW1 2762   2.321   0.726   2.196  1.6221  1.8722  1.1727
  921SOL    HW2 2763   2.334   0.882   2.234  0.8369 -1.0820  0.7938
  922SOL     OW 2764   1.249   1.696   2.515  0.3634 -0.0659  0.1409
  922SOL    HW1 2765   1.216   1.792   2.504  0.2473  0.6324  1.6520
  922SOL    HW2 2766   1.301   1.662   2.435  1.9889  0.2546  2.1547
  923SOL     OW 2767   0.697   1.231   2.441 -0.0061 -0.2490  0.5686
  923SOL    HW1 2768   0.601   1.206   2.469 -3.2257 -1.6404 -0.7029
  923SOL    HW2 2769   0.742   1.293   2.506 -2.3243 -0.7045 -0.4962
  924SOL     OW 2770   0.334   2.140   2.785 -0.3746  0.3869  0.2081
  924SOL    HW1 2771   0.341   2.235   2.823 -0.3543 -2.8331 -0.5733
  924SOL    HW2 2772   0.344   2.139   2.687 -0.4972  1.6092  1.4747
  925SOL     OW 2773   1.582   1.659   0.980 -0.2262  0.5444  0.0401
  925SOL    HW1 2774   1.669   1.701   1.012 -2.4500 -0.5709  2.8039
  925SOL    HW2 2775   1.577   1.666   0.880  1.9400  1.0801  0.1189
  926SOL     OW 2776   1.830   0.274   2.574 -0.2212 -0.2226 -0.3581
  926SOL    HW1 2777   1.837   0.215   2.493  1.2302  2.1210 -0.2326
  926SOL    HW2 2778   1.788   0.362   2.552 -0.7508 -0.9678  0.1925
  927SOL     OW 2779   2.719   2.657   1.834  0.5769  0.8608 -0.0605
  927SOL    HW1 2780   2.751   2.577   1.786  0.7716 -1.0653  1.7966
  927SOL    HW2 2781   2.629   2.630   1.879 -3.8809  1.4050  1.0862
  928SOL     OW 2782   0.693   0.995   2.710  0.1503  0.1345 -0.2065
  928SOL    HW1 2783   0.669   0.901   2.740 -0.9643 -2.9883 -3.0902
  928SOL    HW2 2784   0.789   0.992   2.682  1.0262  1.4695 -0.1583
  929SOL     OW 2785   0.106   0.128   0.943 -0.1177 -0.1284 -0.4190
  929SOL    HW1 2786   0.174   0.135   0.872 -1.4455 -1.6652  0.1079
  929SOL    HW2 2787   0.014   0.163   0.913  0.7838 -2.0831  0.5042
  930SOL     OW 2788   2.722   0.214   1.991  0.5784  0.2055  0.2227
  930SOL    HW1 2789   2.714   0.286   1.917 -0.2927  1.1378  0.5912
  930SOL    HW2 2790   2.815   0.205   2.029 -0.6605 -0.3635 -0.4028
  931SOL     OW 2791   2.293   1.223   3.066 -0.3814 -0.0994 -0.1123
  931SOL    HW1 2792   2.232   1.266   0.035  0.5271  0.1200  0.5337
  931SOL    HW2 2793   2.296   1.120   3.077 -1.9236 -0.4679 -1.0988
  932SOL     OW 2794   2.844   1.158   0.805 -0.3862 -0.2466  0.0476
  932SOL    HW1 2795   2.887   1.215   0.877 -1.9308 -0.3150  0.7850
  932SOL    HW2 2796   2.786   1.212   0.747 -1.1117  1.6509 -1.3972
  933SOL     OW 2797   2.903   2.405   1.582  0.2911 -0.1106  0.1956
  933SOL    HW1 2798   2.870   2.315   1.609  3.6710  1.5603 -0.6694
  933SOL    HW2 2799   2.819   2.468   1.570 -5.5594  1.6404 -0.8431
  934SOL     OW 2800   0.465   2.914   1.162 -0.0289  0.4213  0.0798
  934SOL    HW1 2801   0.523   2.853   1.220 -1.2037 -0.8910  0.4027
  934SOL    HW2 2802   0.512   2.999   1.135  0.0454 -1.1738 -0.1733
  935SOL     OW 2803   2.487   0.130   2.192 -0.1317 -0.1455  0.0809
  935SOL    HW1 2804   2.395   0.169   2.161 -1.9228  1.2390 -0.3751
  935SOL    HW2 2805   2.553   0.130   2.113 -0.0941  2.3206 -2.4516
  936SOL     OW 2806   2.756   0.675   1.674 -0.0790  0.0907 -0.5878
  936SOL    HW1 2807   2.809   0.654   1.758 -0.3766  1.9030 -0.6058
  936SOL    HW2 2808   2.755   0.599   1.613 -0.3133 -0.3852  2.9429
  937SOL     OW 2809   1.820   1.480   1.620  0.1197  0.2894 -0.1814
  937SOL    HW1 2810   1.744   1.528   1.570 -0.0120  0.2397 -1.5537
  937SOL    HW2 2811   1.901   1.472   1.562  0.0884  1.4382  3.4766
  938SOL     OW 2812   0.665   2.146   2.913  0.2191 -0.0262  0.0860
  938SOL    HW1 2813   0.739   2.137   2.986 -0.0795  2.5162  0.0746
  938SOL    HW2 2814   0.581   2.096   2.933  1.2361  3.3359  1.5419
  939SOL     OW 2815   2.036   0.366   2.888 -0.2073  0.2753  0.1911
  939SOL    HW1 2816   2.093   0.402   2.963 -1.5399 -1.7635  0.2285
  939SOL    HW2 2817   1.985   0.278   2.914 -3.3328  0.7191 -0.5779
  940SOL     OW 2818   1.297   2.552   0.936 -0.2912  0.5141  0.2867
  940SOL    HW1 2819   1.314   2.464   0.985 -0.7715  1.9178  0.2452
  940SOL    HW2 2820   1.386   2.593   0.907 -0.4771  0.5617  0.6012
  941SOL     OW 2821   1.221   1.866   1.713  0.1913 -0.0957 -0.1969
  941SOL    HW1 2822   1.290   1.878   1.646 -1.5238  1.6352  1.7897
  941SOL    HW2 2823   1.191   1.953   1.760  2.0908 -2.1003  0.8954
  942SOL     OW 2824   2.819   1.853   2.944 -0.0807 -0.0575  0.1683
  942SOL    HW1 2825   2.898   1.850   2.880 -0.2880 -2.2057 -2.3002
  942SOL    HW2 2826   2.736   1.819   2.896 -0.6142 -1.0463 -0.7801
  943SOL     OW 2827   2.360   2.800   1.729 -0.3841 -0.3165  0.1078
  943SOL    HW1 2828   2.288   2.873   1.729  3.2298  1.1488 -2.3826
  943SOL    HW2 2829   2.434   2.816   1.801 -1.3243  2.9714 -0.6215
  944SOL     OW 2830   1.822   2.107   2.813  0.0430  0.1350  0.3104
  944SOL    HW1 2831   1.752   2.038   2.779 -2.7680 -0.2725  0.2906
  944SOL    HW2 2832   1.877   2.154   2.737 -0.2973  2.4229 -1.4685
  945SOL     OW 2833   2.940   1.934   1.285  0.0312  0.5040 -0.3219
  945SOL    HW1 2834   2.984   1.992   1.355 -0.2295  1.1725 -1.6023
  945SOL    HW2 2835   2.893   1.850   1.320  2.6780 -0.7644 -0.8429
  946SOL     OW 2836   1.361   1.126   3.029  0.3163  0.0253  0.0968
  946SOL    HW1 2837   1.357   1.021   3.018  1.8337 -0.1784  0.2582
  946SOL    HW2 2838   1.289   1.164   3.093 -0.6886  0.8349  1.0658
  947SOL     OW 2839   0.047   0.927   2.280 -0.6225  0.9510  0.1460
  947SOL    HW1 2840   0.034   0.986   2.195  2.2957  1.1464 -0.7462
  947SOL    HW2 2841   0.143   0.886   2.279  1.7323 -0.4126 -0.6570
  948SOL     OW 2842   0.237   1.107   0.447 -0.2490  0.0025 -0.3172
  948SOL    HW1 2843   0.190   1.151   0.368  1.3063  1.4956 -0.5629
  948SOL    HW2 2844   0.267   1.171   0.519  1.5694  0.7726  1.2058
  949SOL     OW 2845   0.738   0.244   2.598  0.2474  0.0508 -0.1963
  949SOL    HW1 2846   0.772   0.341   2.591 -4.6796  1.0894  1.4403
  949SOL    HW2 2847   0.813   0.173   2.590  1.6471 -0.7717  0.4841
  950SOL     OW 2848   0.042   0.441   1.442 -0.0837 -0.1687  0.1703
  950SOL    HW1 2849   0.100   0.504   1.493 -0.8448 -2.0980 -2.0152
  950SOL    HW2 2850   0.046   0.467   1.343 -1.6637  0.1901  1.3428
  951SOL     OW 2851   0.248   1.044   2.658 -0.1014  0.2976  0.6539
  951SOL    HW1 2852   0.170   1.051   2.595 -0.0837 -3.0583  0.7308
  951SOL    HW2 2853   0.240   0.964   2.717 -1.0308  1.2831 -0.4323
  952SOL     OW 2854   1.968   2.281   1.572  0.5377 -0.0479 -0.3719
  952SOL    HW1 2855   2.063   2.299   1.576 -3.5007  0.7422 -1.5173
  952SOL    HW2 2856   1.928   2.299   1.666 -0.2763  0.3350  0.1865
  953SOL     OW 2857   0.320   2.405   2.947  0.1725  0.3265 -0.0496
  953SOL    HW1 2858   0.409   2.440   2.983  0.6660 -0.8659 -3.5720
  953SOL    HW2 2859   0.259   2.369   3.021 -3.8471  2.1847  3.2939
  954SOL     OW 2860   2.651   0.811   0.965 -0.1533 -0.0266 -0.1714
  954SOL    HW1 2861   2.702   0.789   1.050 -2.0876  0.2474 -1.6265
  954SOL    HW2 2862   2.708   0.877   0.906  0.5707  1.1702 -2.2835
  955SOL     OW 2863   1.494   1.417   0.156  0.3149 -0.4136 -0.1429
  955SOL    HW1 2864   1.529   1.326   0.129  0.2989  1.4058  0.6503
  955SOL    HW2 2865   1.558   1.467   0.220 -0.3092 -0.1510 -0.3582
  956SOL     OW 2866   1.174   0.705   2.390 -0.1543  0.3079  0.8472
  956SOL    HW1 2867   1.095   0.767   2.380  1.6123 -0.9383  1.4213
  956SOL    HW2 2868   1.158   0.633   2.458  2.2381 -0.4226 -0.4493
  957SOL     OW 2869   0.645   0.162   2.082 -0.2219 -0.8417  0.2734
  957SOL    HW1 2870   0.645   0.083   2.025  0.4409  2.7329  0.2516
  957SOL    HW2 2871   0.666   0.146   2.179  0.8147  3.2394 -0.9248
  958SOL     OW 2872   0.367   2.227   0.790 -0.6016  0.6669 -0.0157
  958SOL    HW1 2873   0.417   2.226   0.879 -1.1618 -0.5554 -1.0359
  958SOL    HW2 2874   0.387   2.315   0.744 -0.0071  0.0514  1.5871
  959SOL     OW 2875   2.455   0.871   1.924  0.0908 -0.1148  0.9115
  959SOL    HW1 2876   2.402   0.782   1.932 -2.3960 -2.8679 -2.2398
  959SOL    HW2 2877   2.523   0.897   1.997  0.6764 -1.1738 -1.7565
  960SOL     OW 2878   0.261   1.336   2.653 -0.5397 -0.1983  0.3859
  960SOL    HW1 2879   0.264   1.236   2.668  1.1787 -1.1046  1.6625
  960SOL    HW2 2880   0.168   1.368   2.622 -0.6444  1.7051 -1.0788
  961SOL     OW 2881   0.693   1.706   0.818  0.1460 -1.4529  0.2321
  961SOL    HW1 2882   0.755   1.756   0.757 -0.5813  3.9540 -0.3679
  961SOL    HW2 2883   0.610   1.762   0.831  1.1485 -2.3894 -2.3562
  962SOL     OW 2884   0.423   1.425   1.043 -0.2442 -0.0998 -0.2918
  962SOL    HW1 2885   0.348   1.369   1.068  2.0512  1.9274 -0.6417
  962SOL    HW2 2886   0.468   1.478   1.119 -0.8634  3.9979  0.5321
  963SOL     OW 2887   1.568   2.358   2.861 -0.3938 -0.3069 -0.5439
  963SOL    HW1 2888   1.498   2.289   2.835  3.1244  0.5763 -1.0767
  963SOL    HW2 2889   1.614   2.377   2.773 -0.6954 -0.3823  0.9489
  964SOL     OW 2890   0.023   2.492   2.512 -0.0435  0.1915 -0.0858
  964SOL    HW1 2891   0.100   2.479   2.585  2.1247 -1.4652 -1.3673
  964SOL    HW2 2892   3.028   2.499   2.562 -0.6463 -0.2759  2.9254
  965SOL     OW 2893   2.536   1.829   2.837  0.2677 -0.0929 -0.2151
  965SOL    HW1 2894   2.496   1.755   2.783 -2.3241  0.7720 -0.0223
  965SOL    HW2 2895   2.543   1.911   2.780 -2.3513  0.8406 -0.1499
  966SOL     OW 2896   2.627   1.307   2.654  0.2373 -0.1582 -0.3274
  966SOL    HW1 2897   2.718   1.260   2.642 -2.4102 -1.2359  0.2324
  966SOL    HW2 2898   2.594   1.288   2.747 -1.1531 -1.7036  1.6043
  967SOL     OW 2899   1.647   0.406   0.683  0.7137  0.0302  0.1194
  967SOL    HW1 2900   1.741   0.372   0.708 -1.2385 -0.1332 -0.4687
  967SOL    HW2 2901   1.631   0.504   0.702  3.4379 -0.5087 -2.3466
  968SOL     OW 2902   2.784   0.198   0.492  0.0188  0.5999 -0.5220
  968SOL    HW1 2903   2.797   0.196   0.592  0.5137 -2.0419 -0.6305
  968SOL    HW2 2904   2.868   0.227   0.443 -0.4930 -0.0071 -1.9172
  969SOL     OW 2905   0.537   0.881   2.199 -0.3332 -0.2509  0.6744
  969SOL    HW1 2906   0.616   0.821   2.220  0.7705 -1.0441  1.8201
  969SOL    HW2 2907   0.563   0.975   2.172  0.2735  0.1363 -1.8394
  970SOL     OW 2908   1.932   1.800   2.768  0.4154 -0.1353 -0.3367
  970SOL    HW1 2909   1.919   1.750   2.855  1.5290 -0.8484  0.1186
  970SOL    HW2 2910   2.007   1.769   2.711 -0.8659  0.1416  1.3821
  971SOL     OW 2911   2.679   0.024   1.716 -0.0618 -0.6260  0.2166
  971SOL    HW1 2912   2.610   0.063   1.776 -0.8372  2.8124  0.6904
  971SOL    HW2 2913   2.634   3.058   1.644  0.0652  0.6168 -0.7589
  972SOL     OW 2914   0.183   0.551   0.826 -0.3237  0.3326  0.5043
  972SOL    HW1 2915   0.191   0.503   0.739  1.9991  2.1912 -0.2251
  972SOL    HW2 2916   0.275   0.595   0.839  1.1446 -2.4772 -2.3734
  973SOL     OW 2917   2.869   3.047   2.590  0.3300 -0.5175 -0.1785
  973SOL    HW1 2918   2.939   3.032   2.520  0.3808  0.2597 -0.0359
  973SOL    HW2 2919   2.780   3.007   2.560  0.8621  1.4811 -0.1661
  974SOL     OW 2920   2.935   0.887   1.604  0.3988  0.1665 -0.1831
  974SOL    HW1 2921   3.015   0.864   1.545 -1.2847  2.5465  1.8814
  974SOL    HW2 2922   2.877   0.805   1.624  0.6074  1.3960  2.8015
  975SOL     OW 2923   1.355   2.952   2.061 -0.3192  0.5017  0.7081
  975SOL    HW1 2924   1.444   2.917   2.095 -0.3865  0.5444 -0.5525
  975SOL    HW2 2925   1.301   3.007   2.126 -0.1348 -0.4224  0.9971
  976SOL     OW 2926   1.992   1.425   1.423  0.1550 -0.4265  0.3858
  976SOL    HW1 2927   2.091   1.420   1.409  1.4574 -2.1800  0.4613
  976SOL    HW2 2928   1.956   1.478   1.345  2.9472  0.0180  0.5528
  977SOL     OW 2929   2.660   3.076   2.993  0.7817 -0.2287  0.2902
  977SOL    HW1 2930   2.719   3.051   3.072 -2.3666 -0.9781 -2.9672
  977SOL    HW2 2931   2.562   3.039   2.999 -4.5517  0.7480  0.0890
  978SOL     OW 2932   1.997   1.052   2.230 -0.1850  0.7278  0.0264
  978SOL    HW1 2933   2.100   1.062   2.220  0.7816 -1.2981 -1.4872
  978SOL    HW2 2934   1.969   0.953   2.213  1.7331 -3.3661 -0.5332
  979SOL     OW 2935   0.873   1.008   2.346  0.1427  0.2525 -0.1934
  979SOL    HW1 2936   0.947   1.038   2.291 -1.4109 -0.5196  2.0376
  979SOL    HW2 2937   0.824   1.078   2.399  0.7801 -0.8404  0.0651
  980SOL     OW 2938   1.669   1.919   2.699  0.1362  0.7707 -0.1744
  980SOL    HW1 2939   1.590   1.850   2.709 -1.8003  0.2449 -0.3721
  980SOL    HW2 2940   1.756   1.872   2.721 -0.9164  2.4249 -0.5073
  981SOL     OW 2941   1.247   0.712   1.831  0.0032  0.0582  0.2899
  981SOL    HW1 2942   1.208   0.712   1.733  2.2938  0.8140 -1.2896
  981SOL    HW2 2943   1.262   0.618   1.865 -0.8390 -1.1394 -1.2941
  982SOL     OW 2944   1.007   3.058   3.018 -0.1468  0.1218 -0.0990
  982SOL    HW1 2945   1.034   3.052   2.918  1.8241 -0.9725 -4.3456
  982SOL    HW2 2946   0.919   3.007   3.036 -0.6279  0.3430 -0.6764
  983SOL     OW 2947   2.151   1.043   0.204  0.1714 -1.0551  0.0913
  983SOL    HW1 2948   2.223   1.100   0.249 -2.6301  0.6636 -1.7119
  983SOL    HW2 2949   2.161   0.945   0.222  0.6120  1.4499 -1.2030
  984SOL     OW 2950   1.332   0.274   3.092 -0.0291 -0.1214  0.2680
  984SOL    HW1 2951   1.406   0.328   0.041 -3.5363  2.0197 -2.0895
  984SOL    HW2 2952   1.300   0.191   0.047 -0.5072  1.4424  0.3629
  985SOL     OW 2953   1.143   2.800   1.883 -0.4564  0.0333  0.1458
  985SOL    HW1 2954   1.198   2.882   1.914 -2.1949 -0.1650 -1.0251
  985SOL    HW2 2955   1.151   2.796   1.782  0.1048 -0.1588  1.6941
  986SOL     OW 2956   2.511   2.895   1.932 -0.0316 -0.3697 -0.3003
  986SOL    HW1 2957   2.490   2.992   1.910 -0.4153 -1.2896  3.0143
  986SOL    HW2 2958   2.605   2.891   1.966 -1.2104  1.6298  2.3910
  987SOL     OW 2959   2.254   1.408   1.053  0.0809  0.1379 -0.8131
  987SOL    HW1 2960   2.315   1.441   0.980  1.0198 -0.8043 -0.7288
  987SOL    HW2 2961   2.270   1.310   1.057  2.1538  0.4231  1.0630
  988SOL     OW 2962   2.376   1.002   1.546  0.3398  0.1239 -0.5532
  988SOL    HW1 2963   2.438   0.937   1.589  0.3186  2.0268 -1.6755
  988SOL    HW2 2964   2.321   1.048   1.616  1.7726 -1.6076 -1.3213
  989SOL     OW 2965   2.110   2.120   0.161 -0.1233 -0.1871  0.3473
  989SOL    HW1 2966   2.034   2.137   0.090  1.1528  0.9051 -0.8180
  989SOL    HW2 2967   2.161   2.035   0.146 -1.7447 -0.3239 -2.5890
  990SOL     OW 2968   1.402   0.557   2.027  0.3406  0.4581 -0.0790
  990SOL    HW1 2969   1.415   0.611   2.108  1.3873  1.3776 -2.3634
  990SOL    HW2 2970   1.401   0.456   2.049  2.9926 -1.5361 -1.9203
  991SOL     OW 2971   1.313   1.091   0.405  0.4687 -0.3552 -0.1897
  991SOL    HW1 2972   1.233   1.123   0.355  1.0100  0.6457  0.9661
  991SOL    HW2 2973   1.367   1.039   0.344  0.0191  5.4546  1.6366
  992SOL     OW 2974   0.051   0.896   1.410  0.0245 -0.6483  0.3612
  992SOL    HW1 2975   0.118   0.973   1.423 -0.2200 -1.7177 -1.1948
  992SOL    HW2 2976   3.074   0.935   1.349  0.5636 -1.1691  0.3116
  993SOL     OW 2977   2.625   0.439   1.837 -0.4600  0.1450  0.1710
  993SOL    HW1 2978   2.542   0.422   1.891 -1.3092  1.2523 -2.1829
  993SOL    HW2 2979   2.612   0.479   1.743  0.3829  2.7930 -1.4318
  994SOL     OW 2980   1.594   1.813   1.698  0.6190 -0.4585  0.4693
  994SOL    HW1 2981   1.683   1.774   1.676 -0.6810  0.0632 -0.8306
  994SOL    HW2 2982   1.614   1.894   1.759 -2.4978  1.3522 -0.1868
  995SOL     OW 2983   2.223   1.790   2.975 -0.2419 -0.1496 -0.5690
  995SOL    HW1 2984   2.231   1.835   3.066 -0.4371 -0.4822 -2.2226
  995SOL    HW2 2985   2.160   1.713   2.981 -0.8020 -0.3064  0.8373
  996SOL     OW 2986   2.093   1.537   2.998 -0.3410  0.1239  0.3302
  996SOL    HW1 2987   2.018   1.511   3.056 -2.3561  1.7276 -2.5711
  996SOL    HW2 2988   2.094   1.475   2.917 -0.0373 -2.0163  0.3020
  997SOL     OW 2989   1.770   0.446   2.224  0.4489 -0.3883  0.2056
  997SOL    HW1 2990   1.749   0.532   2.173  2.8046 -0.8623  2.3079
  997SOL    HW2 2991   1.754   0.466   2.323 -0.9435  1.6986 -2.5171
  998SOL     OW 2992   2.466   0.614   0.630 -0.4530  0.1045  0.4391
  998SOL    HW1 2993   2.441   0.680   0.706  1.4497  0.1724 -0.9122
  998SOL    HW2 2994   2.385   0.559   0.601 -0.8589  0.7709 -2.2497
  999SOL     OW 2995   2.724   1.352   0.607  0.1443  0.7133  0.1305
  999SOL    HW1 2996   2.755   1.444   0.623 -1.9938 -1.9424  1.4688
  999SOL    HW2 2997   2.762   1.321   0.513 -0.4033 -2.2823 -0.0129
 1000SOL     OW 2998   0.435   1.520   1.857 -0.1181 -0.1651  0.0582
 1000SOL    HW1 2999   0.463   1.421   1.858 -1.3988 -2.0960 -1.9424
 1000SOL    HW2 3000   0.336   1.518   1.867  2.2613 -1.6568  0.1121
   3.09508   3.09508   3.09508
