1000 SPC/Fw water molecules t= 409.00000 step= 409000
 3000
    1SOL     OW    1   0.102   3.045   1.434  0.0071  0.1136  0.3411
    1SOL    HW1    2   0.040   3.081   1.508 -1.9404 -1.4781  1.6157
    1SOL    HW2    3   0.051   3.046   1.344 -0.1330  1.7455  2.2862
    2SOL     OW    4   2.706   3.013   0.272 -0.5040 -0.3356  0.6028
    2SOL    HW1    5   2.634   3.038   0.200 -1.0805  3.1686 -0.4975
    2SOL    HW2    6   2.756   2.926   0.242  0.3527 -3.4427  0.4718
    3SOL     OW    7   1.465   2.527   2.948  0.3490  0.7544 -0.0333
    3SOL    HW1    8   1.558   2.576   2.937  2.3159  1.5150 -2.5704
    3SOL    HW2    9   1.384   2.588   2.964  0.6017 -3.0120  0.9654
    4SOL     OW   10   1.053   2.996   2.259  0.0927 -0.2951  0.1017
    4SOL    HW1   11   1.029   3.047   2.172  1.0691  0.5196 -0.9670
    4SOL    HW2   12   1.108   2.911   2.239  0.0798  1.2763  0.6787
    5SOL     OW   13   2.104   0.061   1.938  0.0401  0.3771  0.7965
    5SOL    HW1   14   2.122   0.038   2.037  1.5953 -0.1126 -0.5606
    5SOL    HW2   15   2.125   3.086   1.868  0.0290 -1.9106 -2.0816
    6SOL     OW   16   2.309   1.881   0.993 -0.7408 -0.1075 -0.5891
    6SOL    HW1   17   2.270   1.920   0.909 -2.9798 -2.5448  0.6134
    6SOL    HW2   18   2.338   1.782   0.975 -1.7236  1.3526  0.4162
    7SOL     OW   19   2.074   1.076   0.581 -0.5456 -0.2533 -0.2091
    7SOL    HW1   20   2.165   1.107   0.611  0.0009  0.0425  0.3508
    7SOL    HW2   21   2.092   1.026   0.495 -0.1219  1.7986  0.9942
    8SOL     OW   22   0.625   1.340   0.899  0.1889  0.5819  0.2865
    8SOL    HW1   23   0.683   1.275   0.953 -0.7494 -1.0329  0.4976
    8SOL    HW2   24   0.664   1.435   0.900  0.3759  1.4130 -2.8757
    9SOL     OW   25   0.154   2.750   1.484 -0.2956 -0.1265  0.5410
    9SOL    HW1   26   0.140   2.850   1.463  1.7928  1.7930 -2.0466
    9SOL    HW2   27   0.084   2.694   1.432  0.6744  0.4993  1.0448
   10SOL     OW   28   1.277   2.311   0.444  0.5714  0.6292 -0.2534
   10SOL    HW1   29   1.219   2.313   0.524  0.3986 -2.7115 -2.6912
   10SOL    HW2   30   1.309   2.406   0.422 -0.8703 -0.2023  1.5209
   11SOL     OW   31   1.566   1.930   1.030 -0.1799 -0.3118  0.9378
   11SOL    HW1   32   1.637   1.949   0.959 -0.3426 -0.9724  0.7386
   11SOL    HW2   33   1.583   1.993   1.104 -0.8281 -1.1005 -0.9141
   12SOL     OW   34   2.729   0.600   2.296  0.7983 -0.3056  0.7345
   12SOL    HW1   35   2.815   0.554   2.329  1.5806  0.5950 -0.2996
   12SOL    HW2   36   2.641   0.558   2.338 -4.1190 -1.5297  1.2891
   13SOL     OW   37   2.665   2.753   0.169 -0.0864  0.2071  0.0620
   13SOL    HW1   38   2.626   2.754   0.077 -1.2581 -0.2770  0.0275
   13SOL    HW2   39   2.599   2.733   0.240  2.6282  0.6214 -1.9855
   14SOL     OW   40   1.636   1.518   2.935 -0.8031 -0.1448 -0.3903
   14SOL    HW1   41   1.662   1.428   2.906  2.0004  3.0885 -1.6937
   14SOL    HW2   42   1.682   1.541   3.025 -1.6517 -0.7649 -3.0067
   15SOL     OW   43   2.688   2.686   1.718  0.2014 -0.1410 -0.1002
   15SOL    HW1   44   2.696   2.590   1.751 -0.3905 -0.4901  0.6882
   15SOL    HW2   45   2.719   2.755   1.786 -1.7921  0.7480 -1.1286
   16SOL     OW   46   3.042   0.078   0.944 -0.0431  0.1036  0.3024
   16SOL    HW1   47   3.038   0.153   0.878  0.7906  0.5826  1.9793
   16SOL    HW2   48   2.968   0.010   0.927 -1.2725 -1.2193  0.4862
   17SOL     OW   49   1.491   0.181   0.656  0.1093 -0.0623  0.0640
   17SOL    HW1   50   1.542   0.110   0.600 -1.6405 -0.1975  0.8633
   17SOL    HW2   51   1.494   0.152   0.756  2.9772  1.1844 -0.1057
   18SOL     OW   52   1.461   0.128   0.936 -0.1755  0.0532  0.7281
   18SOL    HW1   53   1.502   0.140   1.028 -1.4167  0.5440 -2.3043
   18SOL    HW2   54   1.361   0.106   0.950 -3.2894 -0.8029 -3.6845
   19SOL     OW   55   2.334   1.096   0.407  0.3350 -0.0549  0.0260
   19SOL    HW1   56   2.336   1.199   0.413  1.1068 -2.9114  0.2351
   19SOL    HW2   57   2.343   1.061   0.310  0.7510 -1.5398  2.7455
   20SOL     OW   58   2.570   1.583   2.657 -0.5197 -0.2632  0.0198
   20SOL    HW1   59   2.566   1.626   2.567  0.1806 -1.5859  0.8951
   20SOL    HW2   60   2.493   1.610   2.715  0.1511 -0.4079  0.2417
   21SOL     OW   61   1.593   2.977   0.152 -0.1584  0.1024 -0.5155
   21SOL    HW1   62   1.614   3.053   0.220  0.9077  0.3874  0.7887
   21SOL    HW2   63   1.496   2.942   0.162 -0.6094  0.2934 -1.6999
   22SOL     OW   64   2.884   0.858   0.938 -0.2468 -0.5062 -0.4989
   22SOL    HW1   65   2.948   0.900   1.003 -1.3372 -0.2567  0.2082
   22SOL    HW2   66   2.786   0.883   0.962 -1.8339 -0.2585  0.5288
   23SOL     OW   67   0.644   3.090   1.883 -0.0115  0.2077 -0.0825
   23SOL    HW1   68   0.734   0.041   1.885  0.7939 -0.7359  0.0066
   23SOL    HW2   69   0.573   0.055   1.930  2.0213  0.2989 -0.5178
   24SOL     OW   70   2.539   2.285   0.719 -0.0698  0.0407  0.7187
   24SOL    HW1   71   2.506   2.371   0.675  0.6648  1.0393  1.0850
   24SOL    HW2   72   2.538   2.287   0.821 -1.7529  0.8985  1.7722
   25SOL     OW   73   1.883   3.063   2.652 -0.0927  0.8268  0.3274
   25SOL    HW1   74   1.956   0.039   2.677  0.4910  0.6452  0.2802
   25SOL    HW2   75   1.805   3.084   2.711  0.9295 -4.4606 -0.2483
   26SOL     OW   76   1.385   2.264   0.017 -0.4635 -0.1585  0.5664
   26SOL    HW1   77   1.454   2.222   0.079 -1.4410 -1.9845  1.2943
   26SOL    HW2   78   1.402   2.364   3.091 -0.1696  1.3092  0.6571
   27SOL     OW   79   1.758   0.513   1.388 -0.4437 -0.0067 -0.0262
   27SOL    HW1   80   1.693   0.480   1.315 -0.1990  0.7072 -1.2523
   27SOL    HW2   81   1.744   0.608   1.415 -0.4314 -2.4929  1.5308
   28SOL     OW   82   1.029   1.381   0.514 -0.1680  0.1592 -0.1102
   28SOL    HW1   83   1.000   1.285   0.524  0.8678  1.9000 -1.2073
   28SOL    HW2   84   1.129   1.390   0.535  2.4555  0.7184 -2.0888
   29SOL     OW   85   2.484   0.451   1.543  0.1010 -0.4265 -0.2201
   29SOL    HW1   86   2.438   0.427   1.629  0.2225 -1.7361 -1.4400
   29SOL    HW2   87   2.418   0.464   1.470  0.5789 -2.2150  3.6618
   30SOL     OW   88   1.233   2.446   1.462 -0.0741 -0.4183 -0.8547
   30SOL    HW1   89   1.233   2.502   1.550  0.4698  1.9923  2.8074
   30SOL    HW2   90   1.303   2.481   1.397  0.3527  1.5334  1.9806
   31SOL     OW   91   2.024   2.797   1.461 -0.1296 -0.2954  0.0759
   31SOL    HW1   92   2.048   2.882   1.504 -0.4048 -1.6722 -4.0403
   31SOL    HW2   93   1.981   2.730   1.523 -0.0445  3.8373  1.2601
   32SOL     OW   94   1.834   1.503   2.671 -0.1039 -0.7152 -0.0180
   32SOL    HW1   95   1.732   1.492   2.674  2.6826 -0.5607 -1.5650
   32SOL    HW2   96   1.863   1.540   2.580 -0.0101 -1.9704  0.4742
   33SOL     OW   97   2.373   0.785   2.587 -1.1477  0.1871 -0.0788
   33SOL    HW1   98   2.418   0.733   2.660 -0.4573  1.5603 -0.7330
   33SOL    HW2   99   2.311   0.855   2.620 -1.7397  0.7848 -2.3418
   34SOL     OW  100   1.852   0.319   0.241  0.4088  0.4806 -0.6038
   34SOL    HW1  101   1.791   0.356   0.320 -1.3017 -0.0623 -0.1485
   34SOL    HW2  102   1.913   0.246   0.277 -3.8293  1.3510 -2.2812
   35SOL     OW  103   0.032   2.120   1.853 -0.4940  0.2293 -0.6491
   35SOL    HW1  104   3.053   2.127   1.783  0.4794 -0.2779  0.3933
   35SOL    HW2  105   0.003   2.044   1.921  1.1143 -1.8672  1.6759
   36SOL     OW  106   2.329   1.830   3.076  0.4335 -0.0131  0.0579
   36SOL    HW1  107   2.364   1.791   2.995 -0.3069 -1.1826  2.5425
   36SOL    HW2  108   2.383   1.903   0.025 -1.4694 -1.6637 -2.3678
   37SOL     OW  109   1.802   0.133   1.836 -0.6048 -0.7483  0.6518
   37SOL    HW1  110   1.869   0.210   1.829 -1.9774  1.7129 -1.3388
   37SOL    HW2  111   1.845   0.046   1.861 -0.7191  1.4090 -1.6328
   38SOL     OW  112   0.289   0.525   2.494  0.4286 -0.0654 -0.1143
   38SOL    HW1  113   0.270   0.627   2.499  0.2301  2.0978  1.9787
   38SOL    HW2  114   0.384   0.495   2.520  5.5369 -2.6436  1.8150
   39SOL     OW  115   1.824   0.900   1.145  0.2509 -0.3400 -0.1506
   39SOL    HW1  116   1.767   0.874   1.231  0.7296  1.6154  5.4714
   39SOL    HW2  117   1.790   0.993   1.116  2.0741  1.5536  0.1418
   40SOL     OW  118   1.095   2.104   0.705  0.1151 -0.2781 -0.4795
   40SOL    HW1  119   1.031   2.120   0.786 -0.6165  0.2072 -0.9481
   40SOL    HW2  120   1.165   2.040   0.731 -5.1242  2.3500 -1.0658
   41SOL     OW  121   1.877   2.218   0.988  0.2770  0.1029 -0.4682
   41SOL    HW1  122   1.859   2.128   0.947  1.6054  1.5444  0.0511
   41SOL    HW2  123   1.825   2.226   1.075 -0.0756 -1.5580  0.5859
   42SOL     OW  124   2.520   0.691   1.278 -0.1107 -0.0533 -0.7103
   42SOL    HW1  125   2.605   0.703   1.328 -1.1130  0.3476  2.5932
   42SOL    HW2  126   2.445   0.666   1.344 -1.0219 -0.3020  1.6932
   43SOL     OW  127   0.874   1.353   2.358  0.5168 -0.5772  0.2594
   43SOL    HW1  128   0.951   1.325   2.304 -1.5948  0.2155  2.7412
   43SOL    HW2  129   0.890   1.436   2.408 -3.2643 -1.3995 -2.5474
   44SOL     OW  130   1.667   2.586   1.182  0.0432 -0.3697 -0.0904
   44SOL    HW1  131   1.679   2.650   1.257  0.9868  0.2033 -2.2492
   44SOL    HW2  132   1.684   2.623   1.089 -1.1647 -1.4738 -0.7604
   45SOL     OW  133   0.844   2.931   2.415 -0.0738  0.2401 -0.5182
   45SOL    HW1  134   0.920   2.956   2.354 -1.0195 -2.1543  1.7769
   45SOL    HW2  135   0.836   2.833   2.419  0.7848  1.5099  0.7236
   46SOL     OW  136   0.727   2.678   1.978 -0.2285 -0.2109  0.3356
   46SOL    HW1  137   0.740   2.589   1.940  0.7257  1.4171 -1.6220
   46SOL    HW2  138   0.634   2.713   1.972  2.7997  0.5501  1.0140
   47SOL     OW  139   0.956   2.205   0.928 -0.7733 -0.1834  0.1012
   47SOL    HW1  140   0.906   2.287   0.893 -0.5611 -3.0787 -0.1665
   47SOL    HW2  141   0.891   2.140   0.969  0.6422 -1.4947  0.3282
   48SOL     OW  142   0.731   2.372   1.350  0.5628  0.4806  0.3162
   48SOL    HW1  143   0.678   2.403   1.267  1.0067  2.3015 -0.1361
   48SOL    HW2  144   0.817   2.426   1.358  2.6622  0.5218 -0.0370
   49SOL     OW  145   2.473   3.083   2.943  0.0490 -0.3744 -0.0473
   49SOL    HW1  146   2.421   0.072   2.914  0.8349 -1.7515 -1.1582
   49SOL    HW2  147   2.567   3.088   2.908 -0.2555 -0.3813 -1.2580
   50SOL     OW  148   1.552   0.803   0.458  0.0590 -0.1474 -0.0896
   50SOL    HW1  149   1.650   0.786   0.465 -0.8401  1.2061  0.7659
   50SOL    HW2  150   1.524   0.900   0.436  1.6113  3.3199 -0.6698
   51SOL     OW  151   2.135   0.355   0.995  0.3275 -0.1256  0.0622
   51SOL    HW1  152   2.088   0.400   1.075  1.8829  3.6876 -0.9531
   51SOL    HW2  153   2.094   0.394   0.911  2.3811  0.6925 -0.0554
   52SOL     OW  154   0.819   1.522   0.166 -0.3456  0.3131 -0.1445
   52SOL    HW1  155   0.786   1.550   0.071  1.5363 -0.1926 -3.1188
   52SOL    HW2  156   0.772   1.433   0.189  0.4029 -0.0797  1.7363
   53SOL     OW  157   0.505   1.100   0.005 -0.3264 -0.1391  0.5072
   53SOL    HW1  158   0.437   1.026   0.013  2.6272  2.3880 -2.2130
   53SOL    HW2  159   0.602   1.068   0.019  0.4651 -2.7851  0.4893
   54SOL     OW  160   1.892   1.575   2.429 -0.1019  0.6401  0.0569
   54SOL    HW1  161   1.991   1.551   2.417 -1.4600  3.3238  2.3410
   54SOL    HW2  162   1.872   1.670   2.395 -2.1442 -0.5163 -2.0028
   55SOL     OW  163   2.532   2.275   0.986 -0.6929 -0.2056  0.1069
   55SOL    HW1  164   2.594   2.337   1.033 -0.4291 -1.1968 -0.0056
   55SOL    HW2  165   2.526   2.191   1.043  0.6389  2.0383 -1.8263
   56SOL     OW  166   1.923   2.999   1.245  0.2558 -0.3375 -0.2153
   56SOL    HW1  167   1.937   2.935   1.325 -0.7329  0.8018 -0.0505
   56SOL    HW2  168   1.867   2.950   1.176 -1.3046 -1.0210  0.6286
   57SOL     OW  169   1.676   1.353   0.550 -0.0508  0.2650  0.4925
   57SOL    HW1  170   1.647   1.303   0.637 -0.1027  0.3085  3.6830
   57SOL    HW2  171   1.754   1.301   0.514  1.1766  1.1279  0.0178
   58SOL     OW  172   2.405   0.043   1.457 -0.2793 -0.1319 -0.0355
   58SOL    HW1  173   2.465   0.110   1.509  0.8772  1.2635  2.4957
   58SOL    HW2  174   2.362   0.090   1.380 -0.6819 -1.5024  2.4755
   59SOL     OW  175   1.147   2.771   2.584  0.3427 -0.0757  0.1690
   59SOL    HW1  176   1.228   2.829   2.607  0.4660  0.9450 -2.0614
   59SOL    HW2  177   1.067   2.786   2.642  0.6840 -1.6622 -4.1589
   60SOL     OW  178   0.031   2.769   3.016 -0.2591  0.3558  0.3490
   60SOL    HW1  179   3.084   2.726   0.008  0.6892 -0.1614  1.8284
   60SOL    HW2  180   3.052   2.809   2.953 -3.9680  2.7111 -1.5954
   61SOL     OW  181   0.805   2.406   0.841 -0.3235 -0.3505  0.0580
   61SOL    HW1  182   0.807   2.501   0.809  1.0967  0.5240 -2.3297
   61SOL    HW2  183   0.713   2.369   0.855  0.3416  2.3648 -0.6120
   62SOL     OW  184   1.345   1.833   1.975 -0.2514  0.7244  0.0144
   62SOL    HW1  185   1.412   1.904   2.012 -2.0528  2.1474  0.9400
   62SOL    HW2  186   1.365   1.812   1.876 -1.7933 -1.1888 -0.8957
   63SOL     OW  187   1.724   1.566   0.384 -0.1816  0.5248  0.4961
   63SOL    HW1  188   1.706   1.493   0.457  0.9885  0.0626 -1.4812
   63SOL    HW2  189   1.765   1.642   0.438 -0.8408 -0.9840 -1.4821
   64SOL     OW  190   1.653   1.262   0.214  0.3428  0.0000 -0.1818
   64SOL    HW1  191   1.668   1.163   0.185 -1.1870 -1.7923  2.2845
   64SOL    HW2  192   1.704   1.287   0.296 -1.3699 -0.1552  0.0607
   65SOL     OW  193   1.494   2.421   2.348  0.0317  0.5571  0.2696
   65SOL    HW1  194   1.551   2.500   2.385 -0.8549 -0.0132 -0.3737
   65SOL    HW2  195   1.522   2.338   2.403 -0.1982  0.6433  0.2486
   66SOL     OW  196   0.203   1.122   1.488  0.2526  0.3388  1.4439
   66SOL    HW1  197   0.242   1.031   1.510 -1.0552  1.4897  1.4116
   66SOL    HW2  198   0.194   1.137   1.385  0.2973 -2.8039  2.3067
   67SOL     OW  199   2.221   2.730   0.503  0.4096  0.1918  0.0867
   67SOL    HW1  200   2.281   2.789   0.442 -2.0559 -0.5365 -0.6747
   67SOL    HW2  201   2.249   2.725   0.600  0.8020 -0.6118  0.6836
   68SOL     OW  202   1.990   2.516   1.312 -0.0022  0.4663 -0.2388
   68SOL    HW1  203   2.071   2.454   1.318 -0.2081 -1.7795 -4.3584
   68SOL    HW2  204   2.016   2.616   1.322 -0.7246  3.3615 -1.1841
   69SOL     OW  205   2.461   2.042   0.093 -0.0638 -0.1841  0.4685
   69SOL    HW1  206   2.455   2.116   0.024 -0.3084  0.1903  1.1396
   69SOL    HW2  207   2.556   2.027   0.126  0.3755  0.7737 -1.0908
   70SOL     OW  208   0.156   1.118   2.415  0.3613  0.1182  0.2278
   70SOL    HW1  209   0.166   1.211   2.371  0.8178  0.9629 -2.6734
   70SOL    HW2  210   0.121   1.118   2.512  0.7009 -0.8762  1.7745
   71SOL     OW  211   0.863   1.029   2.340 -0.1976 -0.5437 -0.0083
   71SOL    HW1  212   0.807   1.097   2.289 -0.6882  3.5062  0.9164
   71SOL    HW2  213   0.810   0.964   2.390  0.1533  1.8145 -1.8840
   72SOL     OW  214   2.522   1.635   2.021  0.5503  0.4894  0.3246
   72SOL    HW1  215   2.551   1.556   1.966 -0.3413 -0.0124  1.1885
   72SOL    HW2  216   2.560   1.719   1.981 -1.2648 -2.4472  0.2461
   73SOL     OW  217   1.102   1.958   2.649 -0.4030  0.1203 -0.0539
   73SOL    HW1  218   1.062   2.038   2.698  1.2523  3.2270 -2.4838
   73SOL    HW2  219   1.180   1.921   2.698  1.2084 -0.5925 -0.4691
   74SOL     OW  220   2.102   2.886   2.690  0.1932  0.1362  0.1978
   74SOL    HW1  221   2.015   2.926   2.652 -0.0392 -0.2864 -0.6417
   74SOL    HW2  222   2.120   2.939   2.776 -0.8079  2.4210  0.0684
   75SOL     OW  223   1.662   2.638   0.894 -0.0904  0.1233  0.1158
   75SOL    HW1  224   1.679   2.541   0.870  2.0426 -0.4439  1.7825
   75SOL    HW2  225   1.641   2.682   0.802 -2.7732 -1.7132 -1.8753
   76SOL     OW  226   2.844   1.844   2.966 -0.4554 -0.1122 -0.2076
   76SOL    HW1  227   2.817   1.753   2.938 -0.3813  1.6063  1.8176
   76SOL    HW2  228   2.921   1.844   3.030 -1.0299 -0.4867 -0.0863
   77SOL     OW  229   3.014   2.616   1.357 -0.0667 -0.3818 -0.1812
   77SOL    HW1  230   3.021   2.554   1.272  0.1690  0.0090 -3.9022
   77SOL    HW2  231   3.034   2.558   1.437 -0.2822 -0.2281 -2.0232
   78SOL     OW  232   2.568   0.819   2.930 -0.1077  0.0230 -0.6262
   78SOL    HW1  233   2.649   0.858   2.985  1.4285  0.8856  0.6471
   78SOL    HW2  234   2.487   0.874   2.949  1.0613 -2.7449 -2.3041
   79SOL     OW  235   0.298   1.713   2.605 -0.1383  0.6244  0.1323
   79SOL    HW1  236   0.353   1.631   2.571  0.7194 -2.6100  1.1157
   79SOL    HW2  237   0.201   1.690   2.636 -1.5233  0.4520 -0.3224
   80SOL     OW  238   1.830   1.456   1.714 -0.0230  0.1417  0.2571
   80SOL    HW1  239   1.918   1.486   1.749 -1.2336 -1.2572  1.0176
   80SOL    HW2  240   1.837   1.389   1.639 -0.0973  2.0462  0.2860
   81SOL     OW  241   2.055   1.345   2.175  0.1023  0.0494 -0.3635
   81SOL    HW1  242   1.959   1.320   2.152 -1.2090  0.1084  2.1808
   81SOL    HW2  243   2.063   1.414   2.250 -3.7132  1.8522  1.6772
   82SOL     OW  244   1.364   1.422   1.737  0.1933  0.2497 -0.7435
   82SOL    HW1  245   1.423   1.502   1.721 -2.1582 -1.1641 -0.1380
   82SOL    HW2  246   1.424   1.341   1.751  0.5650 -2.2204  2.3731
   83SOL     OW  247   0.097   0.344   0.004  0.3120  0.4586 -0.2474
   83SOL    HW1  248   0.088   0.390   0.094 -1.0205  2.1523 -0.0488
   83SOL    HW2  249   0.010   0.359   3.044  0.4634  1.2637 -2.5726
   84SOL     OW  250   3.020   1.072   0.110 -0.0102  0.8291  0.0616
   84SOL    HW1  251   0.011   1.015   0.109 -3.2260  1.7417  0.5224
   84SOL    HW2  252   3.037   1.159   0.158  2.7086 -0.3699  0.2293
   85SOL     OW  253   2.269   1.887   1.817 -0.4002  0.2910 -0.3072
   85SOL    HW1  254   2.355   1.905   1.870  2.4125 -2.3873 -1.6389
   85SOL    HW2  255   2.275   1.927   1.721 -0.7191 -2.3453 -0.8466
   86SOL     OW  256   0.526   0.578   1.150  0.3750 -0.3332 -0.0221
   86SOL    HW1  257   0.494   0.625   1.069  2.7154 -1.7387  1.8264
   86SOL    HW2  258   0.595   0.505   1.125 -2.6009  1.9871 -1.0810
   87SOL     OW  259   2.781   2.100   2.116 -0.2906  0.3186  0.7244
   87SOL    HW1  260   2.697   2.153   2.111 -0.2395 -2.1475 -1.2529
   87SOL    HW2  261   2.791   2.067   2.213 -0.7663 -3.2000 -2.0537
   88SOL     OW  262   0.537   2.082   3.051  0.1250  0.0286 -0.0247
   88SOL    HW1  263   0.516   2.060   0.055  0.3773 -0.9531  0.3479
   88SOL    HW2  264   0.519   1.998   2.999  0.4057 -2.7545 -1.6550
   89SOL     OW  265   1.526   0.570   0.122  0.0217  0.1092 -0.0331
   89SOL    HW1  266   1.450   0.631   0.153  3.0600 -0.8055 -0.3575
   89SOL    HW2  267   1.616   0.616   0.143 -0.2799 -0.0487  0.8147
   90SOL     OW  268   3.062   1.588   2.268 -0.2833 -0.3301 -0.1712
   90SOL    HW1  269   2.997   1.592   2.348  1.4605 -1.3374 -0.0884
   90SOL    HW2  270   0.001   1.682   2.247 -0.6640 -0.2060  0.4731
   91SOL     OW  271   2.241   2.993   1.177  0.1508 -0.2072 -0.1634
   91SOL    HW1  272   2.247   2.894   1.189 -1.5769  2.2814  0.4608
   91SOL    HW2  273   2.216   3.017   1.078  1.5671 -0.4500 -0.9193
   92SOL     OW  274   2.157   1.338   1.308  0.1672  0.1188  0.2649
   92SOL    HW1  275   2.088   1.412   1.311  1.2576 -0.9689  0.3217
   92SOL    HW2  276   2.211   1.342   1.222 -3.9097 -0.4270 -1.3956
   93SOL     OW  277   3.032   1.281   0.279 -0.1689 -0.1955 -0.0191
   93SOL    HW1  278   3.064   1.234   0.364  0.1468  0.1443 -1.8982
   93SOL    HW2  279   0.030   1.309   0.243  1.9107 -2.1824  0.6832
   94SOL     OW  280   1.046   2.344   1.968  0.3576 -0.3496  0.0056
   94SOL    HW1  281   1.078   2.252   1.939  0.9540  0.7469 -1.3278
   94SOL    HW2  282   1.105   2.382   2.039 -2.1739 -0.4762 -0.2920
   95SOL     OW  283   3.093   0.626   1.027 -0.3516 -0.0034 -0.0498
   95SOL    HW1  284   0.097   0.605   1.051 -0.8419 -0.3138 -1.5416
   95SOL    HW2  285   3.078   0.636   0.927  1.3353  1.3790  2.7527
   96SOL     OW  286   3.012   2.884   1.757  0.4104  0.3583 -0.5160
   96SOL    HW1  287   3.083   2.954   1.781 -1.2245 -0.3612  2.3213
   96SOL    HW2  288   3.034   2.784   1.774 -1.9705 -2.3920 -0.5845
   97SOL     OW  289   2.288   0.643   1.434 -0.1224 -0.1063  0.4227
   97SOL    HW1  290   2.320   0.732   1.476  0.6979 -2.2639 -1.2980
   97SOL    HW2  291   2.222   0.590   1.484 -1.1999 -0.0312  0.5775
   98SOL     OW  292   2.305   2.479   1.402 -0.2100 -0.0985 -0.2530
   98SOL    HW1  293   2.405   2.471   1.408  1.5326  1.9672  0.7141
   98SOL    HW2  294   2.269   2.414   1.331 -1.3341 -2.1621  0.3720
   99SOL     OW  295   0.328   0.185   1.806 -0.0653 -0.2542 -0.0952
   99SOL    HW1  296   0.256   0.256   1.794 -3.0880 -0.4704  1.2634
   99SOL    HW2  297   0.404   0.203   1.736  1.7310  0.3089 -0.7392
  100SOL     OW  298   2.048   0.249   2.454 -0.0499 -0.5144 -0.0439
  100SOL    HW1  299   2.013   0.160   2.419 -0.5363  1.1016  4.6814
  100SOL    HW2  300   1.978   0.320   2.438  0.6416 -0.7498  2.0052
  101SOL     OW  301   0.085   0.156   2.392  0.3747 -0.5535 -0.3449
  101SOL    HW1  302   0.177   0.142   2.347 -1.6993  0.4976 -0.2104
  101SOL    HW2  303   0.072   0.251   2.418 -0.9568 -2.6453 -3.6346
  102SOL     OW  304   0.663   0.373   1.798 -0.7054 -0.3164 -0.0773
  102SOL    HW1  305   0.602   0.327   1.729 -1.3719  2.8207  0.3147
  102SOL    HW2  306   0.701   0.454   1.753  2.5361  1.8503  0.7769
  103SOL     OW  307   0.924   0.701   2.635  0.0887  0.6932  0.4389
  103SOL    HW1  308   0.965   0.751   2.713 -1.8273 -0.7688 -0.0103
  103SOL    HW2  309   0.993   0.642   2.591 -1.6815  2.5610 -1.0558
  104SOL     OW  310   3.069   0.674   2.233 -0.0222  0.0242  0.3935
  104SOL    HW1  311   0.009   0.768   2.253  1.1975 -1.7959 -1.1263
  104SOL    HW2  312   2.969   0.674   2.218  1.3588  0.2059  0.6748
  105SOL     OW  313   2.313   2.068   1.403 -0.3433 -0.5123 -0.1343
  105SOL    HW1  314   2.269   2.129   1.473 -0.3447 -0.0860 -1.0390
  105SOL    HW2  315   2.341   1.980   1.448 -1.9548  1.8943 -2.2639
  106SOL     OW  316   1.645   0.048   0.404  0.2668  0.4489 -0.1769
  106SOL    HW1  317   1.725   0.019   0.461 -1.6842  0.0667  1.5014
  106SOL    HW2  318   1.663   0.134   0.358 -1.6297 -0.7819  0.0245
  107SOL     OW  319   2.130   2.151   1.063  0.7464  0.5698 -0.6011
  107SOL    HW1  320   2.031   2.170   1.054  0.0775  0.8730  1.6272
  107SOL    HW2  321   2.173   2.124   0.973  0.0396 -1.5633  2.4923
  108SOL     OW  322   3.068   2.416   1.153  0.3363 -0.2276  0.4287
  108SOL    HW1  323   3.036   2.435   1.059 -0.8688 -2.2698 -1.1895
  108SOL    HW2  324   3.084   2.317   1.169 -1.4208 -1.4303 -2.7603
  109SOL     OW  325   1.680   2.376   0.835 -0.1902 -0.0916  0.3845
  109SOL    HW1  326   1.625   2.335   0.762  0.5094  1.5012 -0.1911
  109SOL    HW2  327   1.763   2.322   0.850  1.3624 -1.2472 -1.2098
  110SOL     OW  328   1.849   1.495   1.259  0.7267  0.4611  0.2566
  110SOL    HW1  329   1.936   1.534   1.227 -1.4128  0.3710 -0.2479
  110SOL    HW2  330   1.866   1.409   1.315  0.2944 -1.8871  3.4338
  111SOL     OW  331   1.507   2.185   1.890 -0.1698 -0.3524 -0.1114
  111SOL    HW1  332   1.551   2.201   1.798 -3.4233  1.8045  2.5842
  111SOL    HW2  333   1.508   2.263   1.955  2.1865  0.0968  1.8526
  112SOL     OW  334   1.909   2.120   2.980 -0.0351 -0.0173 -0.0095
  112SOL    HW1  335   1.875   2.040   3.032 -1.6777 -0.4534 -1.9951
  112SOL    HW2  336   2.012   2.113   2.980  1.1388  1.3717 -0.2374
  113SOL     OW  337   1.993   1.888   1.812  0.6366 -0.0128  0.5359
  113SOL    HW1  338   1.977   1.987   1.807  3.5968 -0.0382 -1.1114
  113SOL    HW2  339   2.090   1.872   1.814 -4.0722  0.2429 -2.0504
  114SOL     OW  340   3.051   1.484   1.761  0.0900 -0.3620 -0.2700
  114SOL    HW1  341   2.952   1.508   1.771 -0.1082  0.0905 -0.9429
  114SOL    HW2  342   3.080   1.438   1.849 -0.2100 -0.6319 -1.2898
  115SOL     OW  343   0.123   0.877   0.186  0.3595  0.1526 -0.1845
  115SOL    HW1  344   0.079   0.808   0.243 -0.4565 -0.3699  0.5700
  115SOL    HW2  345   0.197   0.938   0.226 -0.5809  1.5677 -1.1972
  116SOL     OW  346   2.570   1.163   2.986  0.2621 -0.4165  0.1683
  116SOL    HW1  347   2.568   1.249   3.045 -1.2372  0.3844  1.3521
  116SOL    HW2  348   2.476   1.120   2.971 -1.3753 -1.3785 -0.7324
  117SOL     OW  349   2.970   2.290   0.152  0.3330  0.1291 -0.1511
  117SOL    HW1  350   2.981   2.199   0.101  1.0844 -0.1833 -0.5148
  117SOL    HW2  351   2.939   2.365   0.089 -2.0238  0.6663 -2.2537
  118SOL     OW  352   0.743   2.203   2.893 -0.1884 -0.3043 -0.1144
  118SOL    HW1  353   0.832   2.152   2.886  0.6377  0.5540 -1.5359
  118SOL    HW2  354   0.681   2.172   2.967 -1.3431  2.2961  0.2924
  119SOL     OW  355   0.608   2.610   0.648  0.3124  1.1011  0.6606
  119SOL    HW1  356   0.636   2.697   0.691 -1.8518 -2.4656  0.1736
  119SOL    HW2  357   0.539   2.568   0.713 -0.2988 -1.2805  1.6467
  120SOL     OW  358   1.227   0.505   0.319 -0.5150  0.1163  0.3489
  120SOL    HW1  359   1.137   0.464   0.294 -1.0922 -1.3817  0.7635
  120SOL    HW2  360   1.250   0.589   0.267  0.1208 -0.4905  2.2070
  121SOL     OW  361   1.360   2.675   0.950  0.3515 -0.2768  0.6537
  121SOL    HW1  362   1.357   2.726   1.039 -0.1893 -0.8075 -1.0127
  121SOL    HW2  363   1.453   2.638   0.927 -3.0867  0.9407 -0.2883
  122SOL     OW  364   2.548   1.735   2.421 -0.0127 -0.3172  0.5757
  122SOL    HW1  365   2.632   1.728   2.360 -0.4408 -0.0257 -1.0417
  122SOL    HW2  366   2.467   1.707   2.374  1.7849 -0.3101 -1.7487
  123SOL     OW  367   1.361   1.505   1.012  0.4090  0.5444  0.4184
  123SOL    HW1  368   1.438   1.526   1.077 -0.5861  2.4248 -1.4719
  123SOL    HW2  369   1.284   1.454   1.052 -5.3890  0.5641 -1.3776
  124SOL     OW  370   0.331   0.455   2.886 -0.6362  0.1481  0.0442
  124SOL    HW1  371   0.288   0.372   2.846  1.6656  1.8977  1.7689
  124SOL    HW2  372   0.431   0.437   2.888  0.0031  1.4865  1.4151
  125SOL     OW  373   0.511   0.424   0.172 -0.2032 -0.2890  0.2372
  125SOL    HW1  374   0.487   0.523   0.162 -0.4289  2.0210  0.5982
  125SOL    HW2  375   0.449   0.374   0.104  0.6534 -2.2919 -2.8004
  126SOL     OW  376   0.374   1.729   0.564  0.1532  0.1383 -0.1898
  126SOL    HW1  377   0.397   1.693   0.470 -1.6610  0.6367  0.7132
  126SOL    HW2  378   0.341   1.658   0.626 -0.4014  0.0426 -0.7592
  127SOL     OW  379   0.920   2.564   1.613  0.4819 -0.1969 -0.3295
  127SOL    HW1  380   0.878   2.657   1.631  1.7234 -1.7949 -2.7164
  127SOL    HW2  381   0.910   2.543   1.515 -0.7971  2.4450 -0.6532
  128SOL     OW  382   1.299   1.465   0.165 -0.1732 -0.0504  0.5326
  128SOL    HW1  383   1.213   1.512   0.200  1.5266  0.8411 -1.5187
  128SOL    HW2  384   1.313   1.486   0.064  1.0462  2.3057 -3.8220
  129SOL     OW  385   1.771   1.775   1.932 -0.3619  0.5337  0.4693
  129SOL    HW1  386   1.718   1.701   1.889  1.1615 -0.9512  0.9950
  129SOL    HW2  387   1.856   1.811   1.881  1.3557 -1.6443 -2.6186
  130SOL     OW  388   1.589   2.195   1.618 -0.4273 -0.5034  0.2256
  130SOL    HW1  389   1.564   2.109   1.572  0.0655 -2.4914 -0.8138
  130SOL    HW2  390   1.606   2.266   1.548  1.0581  0.2041  0.7821
  131SOL     OW  391   0.077   2.350   2.006 -0.1105  0.6053  0.0019
  131SOL    HW1  392   0.063   2.257   1.958 -1.1330  0.1381  0.0029
  131SOL    HW2  393   3.081   2.383   2.050  1.4657 -0.5471  2.4985
  132SOL     OW  394   2.852   2.000   0.846  0.1178 -0.2938 -0.1579
  132SOL    HW1  395   2.936   2.008   0.789 -1.0896 -1.2191 -1.6327
  132SOL    HW2  396   2.872   1.940   0.926 -1.6486 -3.3948 -1.8516
  133SOL     OW  397   0.440   0.804   1.767  0.2336 -0.0384  0.3696
  133SOL    HW1  398   0.396   0.724   1.719 -4.1831 -1.5815 -4.2189
  133SOL    HW2  399   0.473   0.780   1.858 -0.8379  0.8376 -0.0925
  134SOL     OW  400   2.738   1.749   0.189  0.0463 -0.0737  0.1173
  134SOL    HW1  401   2.669   1.698   0.249 -0.4443 -1.1104 -1.2582
  134SOL    HW2  402   2.712   1.848   0.183  0.0364  1.4757 -0.6111
  135SOL     OW  403   1.678   0.983   2.550  0.0439 -0.0724  0.1455
  135SOL    HW1  404   1.739   0.948   2.474 -4.3777 -0.9594  2.0688
  135SOL    HW2  405   1.578   0.976   2.535 -3.0273  1.8523 -0.8601
  136SOL     OW  406   2.449   1.788   1.221  0.4685  1.0176  0.0772
  136SOL    HW1  407   2.424   1.859   1.151  0.7986 -1.4340  0.7573
  136SOL    HW2  408   2.453   1.828   1.316 -0.8441 -1.0876  1.1307
  137SOL     OW  409   2.499   1.719   0.784 -0.0436 -0.8010 -0.1267
  137SOL    HW1  410   2.556   1.643   0.813 -1.1841 -0.2356 -1.1080
  137SOL    HW2  411   2.536   1.810   0.806  2.2136 -0.8405 -1.6296
  138SOL     OW  412   2.778   0.483   0.909  0.1429 -0.2857 -0.4793
  138SOL    HW1  413   2.797   0.503   1.008  2.1577  1.5499  0.0825
  138SOL    HW2  414   2.708   0.550   0.876  2.8448 -2.3668  0.6125
  139SOL     OW  415   2.927   2.700   0.123  0.1664  0.1278 -0.1351
  139SOL    HW1  416   2.826   2.693   0.143 -1.3977 -1.9717 -1.2164
  139SOL    HW2  417   2.966   2.790   0.157 -0.6459  0.9477 -1.0463
  140SOL     OW  418   0.772   1.401   1.307 -0.6724 -0.2192  0.0613
  140SOL    HW1  419   0.853   1.342   1.284 -0.9893 -1.3467 -1.2602
  140SOL    HW2  420   0.702   1.373   1.241 -1.4436  0.5494  1.3531
  141SOL     OW  421   1.176   1.674   0.901 -0.1111 -0.1475  0.1840
  141SOL    HW1  422   1.163   1.748   0.969 -0.0583 -2.2022  0.5164
  141SOL    HW2  423   1.242   1.599   0.936  1.0942 -4.5562 -0.7034
  142SOL     OW  424   0.892   0.575   1.064 -0.3231 -0.5112  0.3856
  142SOL    HW1  425   0.812   0.515   1.031 -2.5387 -1.5555 -1.1040
  142SOL    HW2  426   0.873   0.621   1.154 -1.6509 -2.5052 -2.7069
  143SOL     OW  427   0.656   1.209   2.272 -0.4844  0.5260 -0.0198
  143SOL    HW1  428   0.570   1.265   2.242  0.1444  2.5970  0.0719
  143SOL    HW2  429   0.720   1.263   2.331 -0.7143 -0.4102 -0.6784
  144SOL     OW  430   2.402   2.842   0.703  0.0035  0.0317 -0.3382
  144SOL    HW1  431   2.467   2.877   0.635 -2.1963  1.1840 -1.4866
  144SOL    HW2  432   2.442   2.842   0.795 -0.0067  0.9900 -0.6697
  145SOL     OW  433   2.051   0.173   2.726 -0.2680  0.3189  0.2152
  145SOL    HW1  434   2.120   0.138   2.792  1.9867  0.1377  0.4314
  145SOL    HW2  435   2.091   0.216   2.644 -0.7284 -3.7716  0.5115
  146SOL     OW  436   3.006   2.863   0.351  0.0649  0.0982  0.1430
  146SOL    HW1  437   3.080   2.923   0.314 -1.9089  0.2083  1.3676
  146SOL    HW2  438   2.956   2.904   0.427 -0.7208 -0.5434 -0.2687
  147SOL     OW  439   1.003   1.097   2.582  0.2815 -0.3827 -0.5276
  147SOL    HW1  440   0.984   1.065   2.488 -0.5978 -0.7502  2.5715
  147SOL    HW2  441   1.080   1.163   2.590 -0.2243 -0.6146  0.4889
  148SOL     OW  442   1.634   0.063   2.777 -0.0563  0.5495 -0.1171
  148SOL    HW1  443   1.674   3.077   2.840  1.9728 -4.9251  1.5968
  148SOL    HW2  444   1.616   0.145   2.836 -0.7791  0.8428  3.1559
  149SOL     OW  445   1.311   0.126   1.884 -0.1216  0.0419 -0.1397
  149SOL    HW1  446   1.234   0.175   1.930  1.2056 -3.4794 -1.3102
  149SOL    HW2  447   1.396   0.118   1.940 -0.3653  1.7205 -2.3322
  150SOL     OW  448   2.324   2.710   0.068 -0.0853  0.6917  0.3071
  150SOL    HW1  449   2.232   2.700   0.024 -0.7290 -2.0057  2.1049
  150SOL    HW2  450   2.346   2.621   0.109 -2.0252 -0.0446 -2.5518
  151SOL     OW  451   0.726   1.589   2.994 -0.1886 -0.5401  0.1437
  151SOL    HW1  452   0.635   1.544   3.007 -4.6661 -0.8112 -0.6661
  151SOL    HW2  453   0.788   1.534   2.942  0.6501  2.1121  3.7071
  152SOL     OW  454   0.338   0.066   1.522  0.6110  0.1914  0.1362
  152SOL    HW1  455   0.259   0.012   1.483  1.3743  1.6470  0.9290
  152SOL    HW2  456   0.402   3.091   1.562 -1.2083  0.1898  1.0026
  153SOL     OW  457   2.325   2.879   1.743  0.5851  0.3553 -0.2951
  153SOL    HW1  458   2.394   2.941   1.783 -0.8771 -2.8197  0.3367
  153SOL    HW2  459   2.255   2.849   1.817 -1.6301 -0.8275  2.4920
  154SOL     OW  460   2.536   3.047   2.554 -0.0422 -0.2368  0.3153
  154SOL    HW1  461   2.468   0.030   2.546 -2.2265  0.4555 -3.5181
  154SOL    HW2  462   2.630   3.085   2.569  0.0344 -1.1766 -0.6560
  155SOL     OW  463   0.023   1.205   0.547  0.2013 -0.0327 -0.0637
  155SOL    HW1  464   0.016   1.111   0.586  1.1492  0.1220  3.0892
  155SOL    HW2  465   3.057   1.267   0.602 -2.0458 -1.2469  1.2517
  156SOL     OW  466   2.881   1.709   0.800  0.1236  0.6474 -0.0673
  156SOL    HW1  467   2.980   1.692   0.831  3.0709  0.7629 -2.1927
  156SOL    HW2  468   2.881   1.768   0.715 -0.5671  1.3455  0.0955
  157SOL     OW  469   0.800   0.529   0.633 -0.0431  0.5726  0.6266
  157SOL    HW1  470   0.790   0.434   0.596  0.8438  0.5808 -2.2270
  157SOL    HW2  471   0.895   0.543   0.661  2.2279 -1.0475 -0.1306
  158SOL     OW  472   1.690   1.106   1.057 -0.3457  0.4810  0.2785
  158SOL    HW1  473   1.704   1.132   0.960 -1.0077 -0.4215  1.4227
  158SOL    HW2  474   1.647   1.178   1.107 -0.8265  0.4028 -1.9310
  159SOL     OW  475   0.094   0.477   0.245 -0.2603  0.0162  0.1642
  159SOL    HW1  476   0.024   0.548   0.250 -2.1522 -0.7488  0.3567
  159SOL    HW2  477   0.084   0.408   0.314  0.2083  0.2005  0.3812
  160SOL     OW  478   2.041   2.181   1.827 -0.4177 -0.3625  0.1298
  160SOL    HW1  479   2.057   2.208   1.926  0.7526  1.4559  0.2090
  160SOL    HW2  480   1.954   2.217   1.781 -1.5262  0.9169  0.1734
  161SOL     OW  481   0.310   0.901   3.083 -0.4303  0.5380 -0.1934
  161SOL    HW1  482   0.354   0.824   3.027  2.4229 -1.5789 -0.1638
  161SOL    HW2  483   0.240   0.860   0.046  2.4978 -0.6278 -0.8426
  162SOL     OW  484   0.855   0.197   1.869  0.5492  0.2294  0.0811
  162SOL    HW1  485   0.922   0.200   1.794 -3.5629  1.1860  1.0427
  162SOL    HW2  486   0.789   0.274   1.854  0.8302 -0.2132  0.9125
  163SOL     OW  487   2.930   2.902   2.551 -0.0915 -0.3376  0.1347
  163SOL    HW1  488   2.891   2.989   2.524 -2.9791 -0.4084  0.9583
  163SOL    HW2  489   2.937   2.834   2.472  0.5313 -1.1332 -0.0495
  164SOL     OW  490   2.094   1.921   0.349 -0.1172  0.1885  0.1925
  164SOL    HW1  491   2.186   1.880   0.343 -0.8846  3.3842 -2.0426
  164SOL    HW2  492   2.089   1.994   0.281 -0.9197 -1.1738 -3.0778
  165SOL     OW  493   0.402   0.189   1.283  0.1771 -0.8407 -0.3783
  165SOL    HW1  494   0.371   0.156   1.192  1.6395  1.5550  0.6707
  165SOL    HW2  495   0.391   0.107   1.346  2.0393  0.8094 -1.9794
  166SOL     OW  496   2.373   0.485   0.712  0.4083  0.2153 -0.3406
  166SOL    HW1  497   2.344   0.497   0.612  0.1577 -0.8057  1.1024
  166SOL    HW2  498   2.344   0.400   0.756 -3.5147  3.9584 -0.9498
  167SOL     OW  499   2.401   0.994   0.155  0.6424  0.0189  0.3456
  167SOL    HW1  500   2.433   0.897   0.137 -1.9021 -0.0961 -0.2221
  167SOL    HW2  501   2.321   1.022   0.097  0.3921  0.3499  0.8606
  168SOL     OW  502   1.500   3.092   2.549  0.3823  0.1449 -0.2726
  168SOL    HW1  503   1.458   3.015   2.599 -3.4310 -1.2278 -2.6968
  168SOL    HW2  504   1.555   0.052   2.611 -0.4786 -1.8066 -1.4946
  169SOL     OW  505   0.740   1.858   0.798  0.1817 -0.1433  0.0913
  169SOL    HW1  506   0.653   1.891   0.754 -2.2446 -1.3257 -2.2825
  169SOL    HW2  507   0.769   1.912   0.874  1.7115 -1.5949 -0.7328
  170SOL     OW  508   2.994   1.004   1.371 -0.5320 -0.8892 -0.3041
  170SOL    HW1  509   2.922   1.003   1.301 -0.1253  0.4417  2.5682
  170SOL    HW2  510   3.044   1.094   1.377  2.0109 -2.5520  0.8701
  171SOL     OW  511   2.883   1.571   2.481  0.2482  0.1218 -0.0389
  171SOL    HW1  512   2.856   1.520   2.560  0.5510  1.4464  0.3378
  171SOL    HW2  513   2.813   1.585   2.410  1.1180  0.1263  1.7005
  172SOL     OW  514   0.711   1.666   1.317 -0.4244 -0.3687  0.1865
  172SOL    HW1  515   0.632   1.701   1.262  1.5882  0.2923  1.5887
  172SOL    HW2  516   0.735   1.567   1.292  1.8634 -3.1340 -0.0385
  173SOL     OW  517   2.011   1.772   3.045 -0.4295 -0.3238  0.1315
  173SOL    HW1  518   1.944   1.829   0.008 -2.2387  0.1372 -0.0373
  173SOL    HW2  519   2.067   1.834   2.993  1.1295  0.4253 -1.9230
  174SOL     OW  520   1.794   0.661   2.727 -0.2327  0.0648  0.4112
  174SOL    HW1  521   1.741   0.572   2.727 -2.2157  1.7819 -0.7745
  174SOL    HW2  522   1.760   0.725   2.801  4.8368  1.1421  1.3516
  175SOL     OW  523   1.156   1.398   1.173  0.2701 -0.3681 -0.1808
  175SOL    HW1  524   1.069   1.447   1.150 -2.3701 -0.6124 -1.4916
  175SOL    HW2  525   1.162   1.386   1.276  0.9058  1.8833 -0.5072
  176SOL     OW  526   1.239   0.155   0.316  0.1110  0.1405 -0.0238
  176SOL    HW1  527   1.312   0.173   0.249 -1.6073  0.9469  4.4874
  176SOL    HW2  528   1.239   0.227   0.392 -2.0982  2.0371  3.0897
  177SOL     OW  529   0.173   1.334   0.145 -0.0718  0.0683  0.5243
  177SOL    HW1  530   0.258   1.332   0.204  0.3829 -0.5146  0.2030
  177SOL    HW2  531   0.188   1.284   0.059  0.0213 -2.4031  3.9557
  178SOL     OW  532   2.932   2.359   2.623  0.1117  1.0233 -0.4093
  178SOL    HW1  533   2.933   2.303   2.708  1.5854 -0.9916  1.0497
  178SOL    HW2  534   3.029   2.358   2.587  1.9513 -0.6928  0.1923
  179SOL     OW  535   2.719   2.539   2.616 -0.5227 -0.3858 -0.0288
  179SOL    HW1  536   2.700   2.605   2.537 -1.2164  1.8564  1.5398
  179SOL    HW2  537   2.801   2.484   2.597  0.2789 -0.9405 -1.6236
  180SOL     OW  538   2.393   0.797   1.071  0.2353 -0.0103 -0.2613
  180SOL    HW1  539   2.332   0.871   1.103 -1.3749  3.0525  0.1198
  180SOL    HW2  540   2.446   0.752   1.141 -1.7869  1.4260  0.2651
  181SOL     OW  541   2.199   0.486   2.411  0.5590  0.0987  0.1125
  181SOL    HW1  542   2.151   0.573   2.425  3.3118 -1.6806 -1.1888
  181SOL    HW2  543   2.153   0.408   2.450  1.2528  0.0074 -1.6826
  182SOL     OW  544   2.635   2.416   2.310 -0.3004  0.0212  0.3681
  182SOL    HW1  545   2.644   2.519   2.337  0.6275  3.1813  2.4591
  182SOL    HW2  546   2.724   2.370   2.340  2.2585 -0.4878 -0.4924
  183SOL     OW  547   2.185   0.735   2.017 -0.0696 -0.6101  0.2465
  183SOL    HW1  548   2.278   0.727   2.051 -5.2104  0.8299  0.5223
  183SOL    HW2  549   2.175   0.731   1.914 -1.0792  0.4067  1.2254
  184SOL     OW  550   0.478   1.642   0.874 -0.5382 -0.0429 -0.0220
  184SOL    HW1  551   0.576   1.640   0.841  1.8258 -0.4075 -0.4427
  184SOL    HW2  552   0.419   1.569   0.835 -1.1585  0.0403  0.1443
  185SOL     OW  553   2.833   0.126   0.706  0.1103  0.4933  0.5337
  185SOL    HW1  554   2.745   0.143   0.754 -0.2367 -1.5352  0.5266
  185SOL    HW2  555   2.876   0.205   0.664 -0.6700 -2.0758  0.3441
  186SOL     OW  556   2.294   2.468   2.496  0.2285 -0.1335 -0.4632
  186SOL    HW1  557   2.248   2.427   2.579  0.4568  0.2830  0.9860
  186SOL    HW2  558   2.269   2.564   2.486  1.8730  0.2578  0.1653
  187SOL     OW  559   0.742   1.601   0.862  0.3080  0.2053  0.9503
  187SOL    HW1  560   0.826   1.558   0.823  2.0682  0.1735  0.5055
  187SOL    HW2  561   0.737   1.698   0.837 -3.5194 -0.1197 -1.3250
  188SOL     OW  562   2.173   1.420   0.782  0.2071  0.2734 -0.1432
  188SOL    HW1  563   2.257   1.365   0.771  1.3073  0.1747 -2.1074
  188SOL    HW2  564   2.156   1.469   0.694 -4.0392  0.9851 -0.4786
  189SOL     OW  565   0.090   1.454   2.847  0.1208  0.3185  0.0428
  189SOL    HW1  566   0.100   1.494   2.941  1.4224  0.2845 -1.1346
  189SOL    HW2  567   0.184   1.439   2.807  1.3788  0.3372 -0.8583
  190SOL     OW  568   2.437   0.103   2.012  0.0720  0.4859 -0.5448
  190SOL    HW1  569   2.372   0.056   2.078 -2.6303 -0.2711  1.1501
  190SOL    HW2  570   2.517   0.138   2.063  0.3042  1.2318 -1.5502
  191SOL     OW  571   0.980   0.438   2.309 -0.1542 -0.5324  0.3995
  191SOL    HW1  572   1.047   0.390   2.246 -0.7415 -1.0046 -1.7063
  191SOL    HW2  573   0.883   0.411   2.294  2.7271 -0.5117 -0.0536
  192SOL     OW  574   1.052   1.562   1.708  0.4840 -0.0993  0.3096
  192SOL    HW1  575   1.140   1.599   1.671 -1.2142 -1.5766 -1.8128
  192SOL    HW2  576   0.974   1.617   1.664  0.1447 -1.0966 -2.8144
  193SOL     OW  577   1.191   2.736   0.720 -0.5677  0.2730  0.3219
  193SOL    HW1  578   1.240   2.703   0.806 -0.5339 -1.2209  1.9319
  193SOL    HW2  579   1.108   2.679   0.704  0.1517 -0.0031  1.0644
  194SOL     OW  580   0.485   1.854   1.967 -0.2692  1.0295  0.1816
  194SOL    HW1  581   0.463   1.950   1.973 -0.7265 -2.6673 -0.8861
  194SOL    HW2  582   0.572   1.851   1.910 -1.1524  1.9591 -0.3475
  195SOL     OW  583   2.051   0.495   0.769 -0.0056  0.0266 -0.3718
  195SOL    HW1  584   2.117   0.574   0.758  1.1490 -0.6853 -0.5775
  195SOL    HW2  585   1.956   0.522   0.805 -2.3941  2.7370  0.5048
  196SOL     OW  586   1.216   1.407   1.953 -0.1767 -0.0310  0.1934
  196SOL    HW1  587   1.262   1.420   1.861  0.4035 -0.4959  1.0889
  196SOL    HW2  588   1.121   1.371   1.937  0.7249  0.8141  1.7914
  197SOL     OW  589   0.094   0.350   1.831 -0.9187 -0.9902  0.0267
  197SOL    HW1  590   0.096   0.303   1.923  1.1663 -2.2238  1.1911
  197SOL    HW2  591   0.053   0.440   1.834  1.5959 -2.1625  1.9359
  198SOL     OW  592   0.530   0.805   1.312  0.2678  0.6051  0.0795
  198SOL    HW1  593   0.622   0.850   1.294  1.2622 -0.2988  1.9739
  198SOL    HW2  594   0.524   0.713   1.275  1.4295  0.1167  4.4947
  199SOL     OW  595   0.208   2.587   1.139 -0.4818 -0.0661  0.1818
  199SOL    HW1  596   0.229   2.648   1.060  2.4138  1.6070 -0.0109
  199SOL    HW2  597   0.110   2.563   1.129  1.2068 -0.4129 -0.5331
  200SOL     OW  598   1.543   1.720   2.674  0.6077  0.4649  0.2268
  200SOL    HW1  599   1.518   1.626   2.654 -1.1328  1.6753  2.8428
  200SOL    HW2  600   1.595   1.732   2.757 -0.4816 -0.8510 -0.3252
  201SOL     OW  601   0.398   2.472   1.669  0.5073 -0.0886 -0.0984
  201SOL    HW1  602   0.491   2.491   1.627  0.4323 -0.6493  0.6886
  201SOL    HW2  603   0.332   2.426   1.610 -0.7058 -1.0388  3.5028
  202SOL     OW  604   1.285   2.989   0.076  0.4319 -0.2844 -1.2877
  202SOL    HW1  605   1.228   2.946   0.004  0.7847 -0.5040 -2.3327
  202SOL    HW2  606   1.316   3.083   0.046  0.3904  1.0247 -2.2474
  203SOL     OW  607   1.565   0.639   2.250 -0.4124  0.3732  0.3386
  203SOL    HW1  608   1.580   0.551   2.200  2.5596 -3.0775  0.1200
  203SOL    HW2  609   1.650   0.675   2.301  3.0258 -0.3140  2.0606
  204SOL     OW  610   0.615   1.096   1.404  0.2130 -0.4288  0.2642
  204SOL    HW1  611   0.587   1.122   1.497 -0.5626  1.9904  1.8487
  204SOL    HW2  612   0.572   1.168   1.346 -0.6571  0.8306  0.9101
  205SOL     OW  613   2.165   0.940   2.686 -0.1246  0.1083  0.1017
  205SOL    HW1  614   2.117   0.851   2.665 -2.1798  1.7943 -0.4613
  205SOL    HW2  615   2.127   1.016   2.630 -0.4262 -0.7342 -0.6256
  206SOL     OW  616   0.540   1.793   2.995 -0.1167 -0.5740  0.0579
  206SOL    HW1  617   0.613   1.740   2.943  3.2954  0.6417  0.2853
  206SOL    HW2  618   0.464   1.817   2.935  0.1065 -0.6257  0.9263
  207SOL     OW  619   0.476   0.138   2.030 -0.4843 -0.2944  0.0820
  207SOL    HW1  620   0.506   0.236   2.049 -1.6770  0.2947  0.1051
  207SOL    HW2  621   0.405   0.140   1.954  2.0906 -0.8728 -1.9541
  208SOL     OW  622   0.610   2.567   1.507 -0.8886 -0.5958 -0.2076
  208SOL    HW1  623   0.533   2.610   1.450 -1.8617  2.1316 -2.5556
  208SOL    HW2  624   0.650   2.494   1.452 -1.5948 -0.4177  0.5005
  209SOL     OW  625   1.290   2.694   2.996 -0.3055 -0.0735  0.0293
  209SOL    HW1  626   1.228   2.632   3.046  1.1269 -0.1772 -0.1579
  209SOL    HW2  627   1.264   2.792   2.992  2.7220 -0.4591 -0.0648
  210SOL     OW  628   2.812   1.596   1.769  0.0483 -0.0147  0.0070
  210SOL    HW1  629   2.763   1.683   1.771  1.7325 -0.3290  0.7439
  210SOL    HW2  630   2.743   1.525   1.790 -0.1559  3.8575 -1.3244
  211SOL     OW  631   1.027   0.274   1.676  0.0440  0.1401 -0.8222
  211SOL    HW1  632   1.001   0.374   1.672 -2.5969  1.3561 -2.3584
  211SOL    HW2  633   1.119   0.268   1.636 -0.7891  3.7330 -0.8086
  212SOL     OW  634   0.904   2.140   1.626 -0.4857 -0.2999 -0.6040
  212SOL    HW1  635   0.831   2.206   1.644  1.9323 -1.9676  0.9595
  212SOL    HW2  636   0.993   2.178   1.664  0.0351 -1.8151 -1.4785
  213SOL     OW  637   2.416   0.340   1.795 -0.1422  0.3367  0.0184
  213SOL    HW1  638   2.512   0.363   1.811  2.2662  2.0954 -1.1355
  213SOL    HW2  639   2.405   0.236   1.804  0.2686  0.8067  0.2891
  214SOL     OW  640   0.710   1.886   1.829  0.6797  0.4617 -0.5616
  214SOL    HW1  641   0.787   1.827   1.791 -1.1765  0.3201  0.3390
  214SOL    HW2  642   0.701   1.981   1.792  0.5726  1.4516  1.4645
  215SOL     OW  643   2.705   1.776   1.303 -0.4536  0.2052 -0.2011
  215SOL    HW1  644   2.634   1.750   1.233  1.4649  0.9434 -2.7612
  215SOL    HW2  645   2.694   1.874   1.328  0.2524  2.9691  2.4098
  216SOL     OW  646   3.067   0.756   1.422 -0.3451  0.1882 -0.2823
  216SOL    HW1  647   0.065   0.744   1.388 -3.2465  0.4258 -0.1615
  216SOL    HW2  648   3.039   0.847   1.401 -0.1116 -3.0890 -0.2946
  217SOL     OW  649   2.613   0.215   1.503 -0.0088  0.0028  0.0532
  217SOL    HW1  650   2.668   0.195   1.419  0.8173 -0.6416 -2.6872
  217SOL    HW2  651   2.591   0.314   1.514 -1.1663 -2.1856  0.2501
  218SOL     OW  652   1.422   2.289   1.104 -0.1460  0.0787  0.1689
  218SOL    HW1  653   1.480   2.231   1.158  0.0563 -3.0465  2.0542
  218SOL    HW2  654   1.434   2.260   1.007  0.6923  0.8019  0.6539
  219SOL     OW  655   1.634   2.312   0.130 -0.2231  0.9206  0.2363
  219SOL    HW1  656   1.659   2.311   0.030  1.4463 -2.4641  2.4930
  219SOL    HW2  657   1.681   2.242   0.187 -2.2218 -1.3004 -0.3760
  220SOL     OW  658   1.938   2.532   0.027 -0.0562 -0.2561  0.2883
  220SOL    HW1  659   1.861   2.558   0.092 -2.4467  0.0440 -0.8197
  220SOL    HW2  660   1.998   2.458   0.063 -1.7631 -0.7041 -1.5668
  221SOL     OW  661   3.007   1.917   1.117  0.8846  0.4109  0.6062
  221SOL    HW1  662   0.012   1.919   1.107 -0.0230 -0.8691  0.4611
  221SOL    HW2  663   2.984   1.836   1.172 -1.3520 -3.3483 -1.3764
  222SOL     OW  664   1.396   2.220   0.864 -0.2112  0.3742 -0.2119
  222SOL    HW1  665   1.411   2.255   0.771  0.8869  1.8765  0.0463
  222SOL    HW2  666   1.373   2.122   0.859  1.9862 -0.4671 -0.5743
  223SOL     OW  667   0.824   2.673   2.351  0.7926  0.2951 -0.2442
  223SOL    HW1  668   0.831   2.593   2.411 -2.6461 -0.7929  0.4164
  223SOL    HW2  669   0.877   2.660   2.269  0.2778  1.2021  3.7958
  224SOL     OW  670   0.047   1.602   1.130 -0.3842  0.2840  0.5009
  224SOL    HW1  671   3.061   1.616   1.192  0.2048  1.8555 -0.1436
  224SOL    HW2  672   0.133   1.627   1.182 -2.5589 -0.7554  0.7837
  225SOL     OW  673   2.239   1.527   1.012  0.0629  0.9562 -0.4721
  225SOL    HW1  674   2.329   1.479   1.018 -0.2947 -1.3796  1.0415
  225SOL    HW2  675   2.197   1.501   0.923  4.0022  1.6251 -1.3377
  226SOL     OW  676   1.345   2.574   0.449 -0.5835 -0.3107 -0.3030
  226SOL    HW1  677   1.301   2.623   0.529 -1.7453  1.9716 -0.1127
  226SOL    HW2  678   1.374   2.642   0.374  0.4297  1.4970 -1.5135
  227SOL     OW  679   1.365   1.003   1.544 -0.1703 -0.3715  0.6045
  227SOL    HW1  680   1.297   1.037   1.473 -0.4315  1.0529 -0.9648
  227SOL    HW2  681   1.442   1.067   1.545 -0.1022 -1.6545 -0.5916
  228SOL     OW  682   1.230   0.622   2.005 -0.1489  0.5091 -0.1129
  228SOL    HW1  683   1.237   0.714   1.955  2.1638  1.3884 -0.6450
  228SOL    HW2  684   1.153   0.569   1.964 -1.3321 -3.7540 -3.0883
  229SOL     OW  685   2.764   0.702   2.760 -0.5388 -0.1804 -0.2314
  229SOL    HW1  686   2.794   0.657   2.847  1.2636  0.2352  0.5186
  229SOL    HW2  687   2.702   0.782   2.780 -0.1181  0.4591 -1.7267
  230SOL     OW  688   1.006   1.015   0.737  0.1432 -0.3877 -0.5832
  230SOL    HW1  689   1.088   0.949   0.745  1.8172 -0.1804 -0.1968
  230SOL    HW2  690   1.023   1.095   0.797 -0.1013 -1.7634 -3.7087
  231SOL     OW  691   2.355   2.834   2.152  0.0464 -0.2713  0.2000
  231SOL    HW1  692   2.415   2.802   2.078  0.6847  0.4810  1.7911
  231SOL    HW2  693   2.397   2.802   2.243 -0.0320  2.6711  2.4355
  232SOL     OW  694   0.687   2.026   0.376  0.3347  0.2101  0.4244
  232SOL    HW1  695   0.737   1.974   0.446 -3.9846  2.0064  1.3419
  232SOL    HW2  696   0.738   2.028   0.286 -0.4272  0.5186 -0.8242
  233SOL     OW  697   1.218   2.441   2.173 -0.4763  0.8870 -0.7580
  233SOL    HW1  698   1.281   2.379   2.229 -0.3307 -0.5727 -0.6602
  233SOL    HW2  699   1.191   2.515   2.236  0.2638 -4.0284 -1.0563
  234SOL     OW  700   0.956   1.322   1.626  0.2010 -0.0368  0.0480
  234SOL    HW1  701   1.006   1.403   1.663 -0.7795 -0.5231  0.6076
  234SOL    HW2  702   0.859   1.349   1.617  0.7355 -1.1548  0.7177
  235SOL     OW  703   0.565   1.662   1.608  0.3087  0.3779  0.1917
  235SOL    HW1  704   0.634   1.710   1.662  2.2034  1.4668 -1.7243
  235SOL    HW2  705   0.529   1.723   1.530  0.1482 -0.0580  0.1405
  236SOL     OW  706   1.745   2.934   2.449 -0.1116  0.0918 -0.9018
  236SOL    HW1  707   1.713   2.845   2.486 -0.4086 -1.2135 -1.2747
  236SOL    HW2  708   1.785   2.991   2.518 -0.5769 -0.2960  0.2208
  237SOL     OW  709   1.290   2.892   0.333  0.0273 -0.1643 -0.1671
  237SOL    HW1  710   1.227   2.924   0.408  1.9818  2.6489  3.8424
  237SOL    HW2  711   1.272   2.935   0.244 -3.7441  0.3907  3.8338
  238SOL     OW  712   1.430   0.630   2.749 -0.2530 -0.4699  0.5116
  238SOL    HW1  713   1.439   0.572   2.668  1.5817 -0.8968  1.3869
  238SOL    HW2  714   1.494   0.603   2.822 -1.3465  0.5530 -1.4952
  239SOL     OW  715   0.550   0.392   2.079  0.5949 -0.0939  0.0758
  239SOL    HW1  716   0.480   0.465   2.089 -1.2243  0.4819 -0.7859
  239SOL    HW2  717   0.597   0.395   1.987  0.6837  2.7907 -0.8070
  240SOL     OW  718   2.234   2.555   0.801  0.2381 -0.3260 -0.2239
  240SOL    HW1  719   2.130   2.541   0.818 -2.5724  1.8223  1.6911
  240SOL    HW2  720   2.282   2.494   0.871 -0.5175 -0.1435 -2.1375
  241SOL     OW  721   1.420   1.337   1.399  0.1445  0.2547  0.1648
  241SOL    HW1  722   1.338   1.331   1.453  2.1579 -1.1207 -2.3488
  241SOL    HW2  723   1.457   1.432   1.381  0.9096 -1.4342 -2.4134
  242SOL     OW  724   0.039   0.619   0.757 -0.0464 -0.3742  0.1894
  242SOL    HW1  725   3.061   0.658   0.695  2.7157  0.0080  0.4012
  242SOL    HW2  726   0.130   0.623   0.716 -0.3500 -3.6141 -0.3418
  243SOL     OW  727   0.385   0.598   1.585  0.4256  0.1018 -0.3730
  243SOL    HW1  728   0.283   0.616   1.594 -0.2443  0.1320 -1.4808
  243SOL    HW2  729   0.397   0.526   1.515  1.8250 -0.5002  1.6664
  244SOL     OW  730   1.214   0.379   3.041 -0.0048 -0.4590  0.3189
  244SOL    HW1  731   1.262   0.450   3.087 -0.3171 -4.5979  0.8925
  244SOL    HW2  732   1.116   0.375   3.061  1.6531  1.6448 -1.1644
  245SOL     OW  733   1.915   0.968   2.987  0.3195  0.4387 -0.0916
  245SOL    HW1  734   1.912   1.021   2.902 -5.6331 -0.8344  3.4667
  245SOL    HW2  735   1.942   1.030   3.061  1.4134 -0.7621 -3.4026
  246SOL     OW  736   3.078   0.981   1.966 -1.2507  0.4759 -0.2677
  246SOL    HW1  737   2.997   0.924   1.953  2.5409  0.6376  1.8260
  246SOL    HW2  738   0.038   0.981   1.880  1.5413 -1.3949  1.2242
  247SOL     OW  739   0.566   2.979   2.222 -0.4059  0.5349  0.3604
  247SOL    HW1  740   0.576   3.007   2.125  0.1495 -2.3349 -2.8122
  247SOL    HW2  741   0.605   3.051   2.286  1.7940  1.2913  3.0075
  248SOL     OW  742   0.448   1.395   2.220 -0.3457 -0.2271 -0.0681
  248SOL    HW1  743   0.485   1.487   2.202  0.3200 -0.8850  0.0815
  248SOL    HW2  744   0.383   1.362   2.148 -1.6331 -1.7173  1.7437
  249SOL     OW  745   0.256   0.202   2.792 -0.0917  0.1998  0.4847
  249SOL    HW1  746   0.346   0.174   2.835  0.6129 -0.9178  1.8046
  249SOL    HW2  747   0.194   0.122   2.797  0.1520  0.2136  1.3146
  250SOL     OW  748   3.026   3.076   2.849  0.7148 -0.2798  0.0489
  250SOL    HW1  749   3.011   2.988   2.805  2.2075  1.6360 -2.6038
  250SOL    HW2  750   3.020   0.058   2.779  0.7800 -3.6982  0.1817
  251SOL     OW  751   0.298   1.511   0.723 -0.3151 -0.3529 -0.1060
  251SOL    HW1  752   0.208   1.526   0.762  3.2918 -0.9095 -2.3797
  251SOL    HW2  753   0.311   1.416   0.698  1.6981  2.5722 -2.4853
  252SOL     OW  754   1.513   2.898   2.063  0.3500  0.1364 -0.0027
  252SOL    HW1  755   1.441   2.956   2.019 -0.4416  1.6323  1.9305
  252SOL    HW2  756   1.473   2.819   2.118 -0.7170 -0.2096 -4.6394
  253SOL     OW  757   1.897   1.905   2.742 -0.3226 -0.1447 -0.0498
  253SOL    HW1  758   1.886   1.918   2.644 -0.1629  0.8262  0.3835
  253SOL    HW2  759   1.810   1.876   2.783 -0.5201 -1.4919 -0.1032
  254SOL     OW  760   0.332   1.540   1.796  0.2674  0.6535  0.5079
  254SOL    HW1  761   0.318   1.465   1.729  1.1067 -0.5775  3.6284
  254SOL    HW2  762   0.401   1.604   1.767 -0.8537  1.1190  0.9841
  255SOL     OW  763   0.955   0.034   1.563  0.0371  0.3470  0.1483
  255SOL    HW1  764   1.017   3.063   1.622  1.5009 -3.7182  0.9843
  255SOL    HW2  765   0.960   0.130   1.592  0.8832 -0.4667 -1.1410
  256SOL     OW  766   2.998   2.171   1.184 -0.0163 -0.2209 -0.8587
  256SOL    HW1  767   2.907   2.197   1.210  1.5323 -0.4164 -1.3544
  256SOL    HW2  768   3.006   2.074   1.152  1.4814  1.7797  0.6714
  257SOL     OW  769   0.230   2.722   0.242  0.2556 -0.2483 -0.9129
  257SOL    HW1  770   0.239   2.754   0.340 -0.7362 -1.2202  1.2501
  257SOL    HW2  771   0.221   2.620   0.234 -1.1517 -0.1976 -0.2907
  258SOL     OW  772   0.800   1.865   2.104 -0.3120  0.4280 -0.5668
  258SOL    HW1  773   0.902   1.861   2.108  2.1374 -1.2640 -0.4765
  258SOL    HW2  774   0.764   1.846   2.013  2.6420 -2.0737  0.6666
  259SOL     OW  775   1.174   1.880   2.386 -0.1277 -0.1886  0.6123
  259SOL    HW1  776   1.145   1.947   2.315  3.6314 -1.4846 -0.6924
  259SOL    HW2  777   1.155   1.901   2.484  0.7836 -0.3813 -3.2283
  260SOL     OW  778   2.325   0.914   2.366 -0.3198  0.6370 -0.4815
  260SOL    HW1  779   2.336   0.840   2.437  1.5370 -1.7587 -0.3886
  260SOL    HW2  780   2.378   0.879   2.286  1.4239 -3.0760 -0.4155
  261SOL     OW  781   1.290   0.767   1.021 -0.4383 -0.3538 -0.3240
  261SOL    HW1  782   1.323   0.671   0.999 -0.9216  2.6092 -1.6103
  261SOL    HW2  783   1.227   0.772   1.098  0.8568 -0.3961 -2.1260
  262SOL     OW  784   2.155   2.348   2.690  0.1979 -0.1563  0.3024
  262SOL    HW1  785   2.196   2.362   2.781  0.1939  0.1201  1.0617
  262SOL    HW2  786   2.076   2.282   2.698 -1.1258 -0.7498  2.6010
  263SOL     OW  787   0.639   2.338   0.544 -0.1216  0.4703  0.8733
  263SOL    HW1  788   0.630   2.433   0.586  1.4241  0.5755 -1.9934
  263SOL    HW2  789   0.724   2.330   0.491  2.1836 -0.9686  2.7377
  264SOL     OW  790   0.203   2.148   0.548 -0.0270 -0.5209  0.2676
  264SOL    HW1  791   0.301   2.152   0.513  0.1994 -1.8566  4.0665
  264SOL    HW2  792   0.139   2.167   0.471 -1.6186  2.2723 -0.3023
  265SOL     OW  793   0.572   1.168   0.367  0.3743  0.6057 -0.1910
  265SOL    HW1  794   0.601   1.135   0.465 -1.4763 -1.7304  2.2598
  265SOL    HW2  795   0.656   1.184   0.315  2.5329  0.9199  0.7475
  266SOL     OW  796   0.658   1.870   2.345  0.4586  0.2520 -0.3618
  266SOL    HW1  797   0.728   1.904   2.414 -1.2256  0.2658  3.8076
  266SOL    HW2  798   0.697   1.858   2.253 -1.3536  1.2219 -0.9265
  267SOL     OW  799   1.778   0.690   2.460 -0.4271 -0.4235  0.5360
  267SOL    HW1  800   1.785   0.688   2.559 -2.1527 -3.1112  0.0306
  267SOL    HW2  801   1.809   0.781   2.422  0.0705  0.1607  0.7798
  268SOL     OW  802   0.716   0.936   0.105  0.2037 -0.2320  0.0052
  268SOL    HW1  803   0.641   0.868   0.126  0.5369  2.4109 -0.2235
  268SOL    HW2  804   0.804   0.919   0.153 -2.8467 -0.0509  1.4960
  269SOL     OW  805   2.444   2.150   2.391 -0.3771  0.5088  0.6435
  269SOL    HW1  806   2.526   2.123   2.450  2.2692  2.5363 -0.8722
  269SOL    HW2  807   2.433   2.251   2.366 -2.0837  1.7903 -4.0208
  270SOL     OW  808   1.668   1.781   2.897  0.3803 -0.0245  0.3254
  270SOL    HW1  809   1.653   1.851   2.965  1.2141 -0.8759 -0.7059
  270SOL    HW2  810   1.643   1.690   2.943 -0.1746 -1.4808  2.3772
  271SOL     OW  811   0.347   0.254   0.053 -0.9015  0.1964 -0.6751
  271SOL    HW1  812   0.368   0.173   3.091  0.4317  3.4062  2.6547
  271SOL    HW2  813   0.263   0.298   0.010 -0.0601  0.0562  0.2925
  272SOL     OW  814   2.692   0.568   0.361  0.4713  0.3893 -0.0853
  272SOL    HW1  815   2.746   0.554   0.445  0.2746  0.5167  1.0425
  272SOL    HW2  816   2.601   0.609   0.385  2.2238 -2.9319  1.9000
  273SOL     OW  817   0.487   2.989   1.673 -0.1263  0.2718  0.2086
  273SOL    HW1  818   0.535   3.031   1.757  1.0115 -1.9010  0.1908
  273SOL    HW2  819   0.438   2.902   1.694  0.8575  0.2046 -1.2068
  274SOL     OW  820   2.676   0.652   1.602  0.6558 -0.2001 -0.1894
  274SOL    HW1  821   2.592   0.691   1.647 -2.0447 -2.3385 -2.3522
  274SOL    HW2  822   2.646   0.559   1.566  1.1095 -1.0782  3.5310
  275SOL     OW  823   0.981   1.524   0.778  0.1771  0.4415  0.5026
  275SOL    HW1  824   0.985   1.527   0.676  1.6528 -3.5981 -0.9217
  275SOL    HW2  825   1.048   1.586   0.823 -0.9637 -3.3335  1.7168
  276SOL     OW  826   0.455   0.721   2.260 -0.2266 -0.1866 -0.0369
  276SOL    HW1  827   0.456   0.821   2.290 -1.1391  0.1366 -1.2873
  276SOL    HW2  828   0.546   0.674   2.278  0.1320 -0.5312  4.0269
  277SOL     OW  829   1.088   2.574   1.831  0.6313 -0.4364 -0.2923
  277SOL    HW1  830   1.030   2.570   1.754  3.6801  0.2083 -0.5742
  277SOL    HW2  831   1.066   2.487   1.882  0.2259  0.6722  0.4153
  278SOL     OW  832   1.652   2.710   1.908  0.1854 -0.3977  0.0140
  278SOL    HW1  833   1.602   2.791   1.947  1.3017 -0.6493  0.7153
  278SOL    HW2  834   1.739   2.744   1.864  1.8240  0.2746 -1.9434
  279SOL     OW  835   1.422   1.307   0.317  0.1490  0.1587  0.1211
  279SOL    HW1  836   1.358   1.368   0.254 -1.6235 -0.1444  0.1734
  279SOL    HW2  837   1.512   1.281   0.269 -1.6035 -2.1117  0.2361
  280SOL     OW  838   1.180   1.200   0.089  0.1322 -0.3797 -0.2681
  280SOL    HW1  839   1.088   1.239   0.063 -0.4063  2.0939 -1.8494
  280SOL    HW2  840   1.247   1.273   0.110 -1.3161 -0.1218  0.7147
  281SOL     OW  841   0.505   0.264   1.593 -0.3854  0.3135 -0.1662
  281SOL    HW1  842   0.523   0.324   1.513  0.8485  0.4663  0.9205
  281SOL    HW2  843   0.434   0.195   1.567 -1.3188  2.1298  0.0830
  282SOL     OW  844   0.103   2.618   0.597  0.6116  0.3547 -0.3814
  282SOL    HW1  845   0.074   2.593   0.499  0.0088 -0.3602 -0.3390
  282SOL    HW2  846   0.151   2.535   0.634 -0.8870  0.2756  0.7928
  283SOL     OW  847   1.205   2.104   1.899  0.1060 -0.0427 -0.4676
  283SOL    HW1  848   1.181   2.003   1.897  1.1725 -1.8859 -2.1271
  283SOL    HW2  849   1.307   2.110   1.898  2.2523 -1.1358  1.3176
  284SOL     OW  850   2.872   2.944   1.007 -0.4674  0.0580  0.2781
  284SOL    HW1  851   2.782   2.989   1.026  2.3535 -0.6287 -0.8715
  284SOL    HW2  852   2.909   2.889   1.087  2.1060 -2.7633 -1.2480
  285SOL     OW  853   0.344   2.139   2.762 -0.5004 -0.2661  1.0757
  285SOL    HW1  854   0.275   2.206   2.729 -0.9149  2.9668 -1.6327
  285SOL    HW2  855   0.423   2.199   2.801  2.2712  1.6092  2.3652
  286SOL     OW  856   0.086   3.035   0.562 -0.3154  0.1677 -0.0181
  286SOL    HW1  857   0.133   0.010   0.618 -0.8144  0.6309 -1.8191
  286SOL    HW2  858   3.082   3.032   0.578  2.5168  0.1437 -3.3954
  287SOL     OW  859   0.595   0.946   0.616  0.0482  0.5133  0.4120
  287SOL    HW1  860   0.692   0.919   0.643  3.9366 -0.7816  0.6827
  287SOL    HW2  861   0.579   1.034   0.659 -1.0289 -0.7710  0.8426
  288SOL     OW  862   2.185   1.890   2.737 -0.5080 -0.0556  0.5744
  288SOL    HW1  863   2.237   1.937   2.661  1.2356  2.4291 -0.8514
  288SOL    HW2  864   2.093   1.926   2.741 -0.6138 -0.0964 -1.7459
  289SOL     OW  865   0.102   1.945   2.930  0.0871 -0.1522 -0.2118
  289SOL    HW1  866   0.189   1.911   2.897 -1.5850  1.7211  0.4553
  289SOL    HW2  867   0.033   1.927   2.854 -0.5548 -0.1091 -1.5011
  290SOL     OW  868   1.498   1.595   1.380  0.1421  0.0607  0.0661
  290SOL    HW1  869   1.460   1.657   1.303 -1.2904  0.9729 -2.6719
  290SOL    HW2  870   1.589   1.629   1.418 -1.4327 -1.1080  1.2006
  291SOL     OW  871   1.436   1.254   2.967  0.6483 -0.0377  0.4355
  291SOL    HW1  872   1.390   1.326   3.022  0.2818 -4.5421  1.1970
  291SOL    HW2  873   1.411   1.166   3.008  0.6533  2.6232  0.9781
  292SOL     OW  874   1.073   1.528   0.290 -0.3118  0.1743 -0.0239
  292SOL    HW1  875   1.053   1.455   0.359  1.7352 -0.9776 -3.2400
  292SOL    HW2  876   0.991   1.540   0.232  3.0594  0.9133  1.0993
  293SOL     OW  877   1.557   2.975   0.854  0.6254  0.5948  0.2758
  293SOL    HW1  878   1.512   3.058   0.885  1.9839 -2.7123 -3.2919
  293SOL    HW2  879   1.504   2.936   0.776 -1.0514  0.5331 -1.4935
  294SOL     OW  880   1.783   1.244   2.442 -0.3655  0.0027 -0.0230
  294SOL    HW1  881   1.696   1.194   2.467 -1.0835 -0.0716  2.1455
  294SOL    HW2  882   1.766   1.320   2.378  0.1700  0.0690 -0.6223
  295SOL     OW  883   1.820   1.945   0.073 -0.3313  0.3419  0.0858
  295SOL    HW1  884   1.730   1.925   0.028 -0.4834  0.2530 -0.0524
  295SOL    HW2  885   1.814   2.016   0.148  0.0234 -0.7530  2.3689
  296SOL     OW  886   1.216   0.536   1.636  0.4192  0.3639  0.7158
  296SOL    HW1  887   1.245   0.481   1.717  1.4718  1.3215  1.8996
  296SOL    HW2  888   1.288   0.605   1.614  2.1083  1.6964 -0.5191
  297SOL     OW  889   2.773   0.638   2.026  0.0715  0.2201 -0.3137
  297SOL    HW1  890   2.753   0.736   2.007  0.0573 -0.8526 -0.5757
  297SOL    HW2  891   2.743   0.621   2.123 -1.5147  0.6683  3.5358
  298SOL     OW  892   0.846   1.718   1.584  0.2221 -0.2555 -0.1443
  298SOL    HW1  893   0.897   1.803   1.598 -0.7274 -2.0171  0.7510
  298SOL    HW2  894   0.788   1.715   1.501  0.3959  2.1198 -1.3147
  299SOL     OW  895   1.151   0.096   2.462 -0.3266 -0.4625  0.1194
  299SOL    HW1  896   1.228   0.135   2.408  0.0530 -1.1766  0.1826
  299SOL    HW2  897   1.115   0.017   2.414 -1.0850 -0.9318 -0.2598
  300SOL     OW  898   2.941   1.113   2.921  0.2707  0.2266  0.2885
  300SOL    HW1  899   2.867   1.071   2.873  0.4962 -2.1706  0.6880
  300SOL    HW2  900   2.953   1.076   3.018 -0.2286 -0.4654  1.2593
  301SOL     OW  901   1.854   0.909   2.338  0.0893 -0.4187 -0.3089
  301SOL    HW1  902   1.897   0.845   2.277 -0.3019  1.8297 -1.9751
  301SOL    HW2  903   1.927   0.978   2.369  0.8469 -1.6858 -1.2555
  302SOL     OW  904   2.407   1.738   2.820  0.2701 -0.1472  0.1031
  302SOL    HW1  905   2.319   1.782   2.788  1.3889  2.1184  0.5878
  302SOL    HW2  906   2.472   1.812   2.818 -1.7788 -3.0792  1.4647
  303SOL     OW  907   0.540   2.359   2.747 -0.6930  0.2713 -0.6857
  303SOL    HW1  908   0.602   2.325   2.673 -1.5474 -2.2890  0.4426
  303SOL    HW2  909   0.599   2.375   2.832  4.1517  0.9491 -0.5694
  304SOL     OW  910   0.258   1.663   1.298  0.3755  0.1301  0.2053
  304SOL    HW1  911   0.247   1.746   1.353  2.8487 -1.7717 -1.8665
  304SOL    HW2  912   0.307   1.598   1.356 -0.9323  1.5665  2.2592
  305SOL     OW  913   2.477   0.793   2.149  0.1757 -0.5852  0.1592
  305SOL    HW1  914   2.488   0.697   2.132 -2.8358  0.6393  1.2010
  305SOL    HW2  915   2.557   0.832   2.201  0.2721  0.9996  1.0655
  306SOL     OW  916   1.899   1.288   1.472 -0.0898 -0.3088  0.3838
  306SOL    HW1  917   1.851   1.199   1.477 -2.0184 -0.2109 -0.9830
  306SOL    HW2  918   1.996   1.280   1.491 -3.5469  3.6680 -1.1523
  307SOL     OW  919   3.035   0.372   0.859  0.3159  0.5621 -0.2805
  307SOL    HW1  920   3.081   0.453   0.817 -2.3224 -0.4401  0.7997
  307SOL    HW2  921   2.936   0.387   0.861  1.1378  0.5364 -0.7930
  308SOL     OW  922   3.035   1.704   1.574  0.3131 -0.2988 -0.3819
  308SOL    HW1  923   0.038   1.717   1.558 -0.9607 -3.3732  0.9031
  308SOL    HW2  924   3.028   1.640   1.651 -0.8516 -0.0571 -1.0707
  309SOL     OW  925   2.383   2.387   1.740  0.3310  0.3796  0.5672
  309SOL    HW1  926   2.337   2.449   1.674 -2.2324 -0.8325 -1.0240
  309SOL    HW2  927   2.368   2.412   1.837  0.8418 -2.0291 -1.1108
  310SOL     OW  928   2.252   1.315   2.615  0.0933 -0.3212  0.4589
  310SOL    HW1  929   2.271   1.365   2.698  1.7967  1.5364 -4.6909
  310SOL    HW2  930   2.153   1.285   2.608  1.1678 -2.6028 -1.8990
  311SOL     OW  931   1.703   1.248   2.913  0.6775 -0.5950 -0.0899
  311SOL    HW1  932   1.602   1.225   2.922 -0.8596 -2.3200  3.2371
  311SOL    HW2  933   1.743   1.179   2.852 -1.8168  0.8175  0.4830
  312SOL     OW  934   1.071   2.083   2.203 -0.1600 -0.1111 -0.4056
  312SOL    HW1  935   1.039   2.082   2.108  0.5249  1.5059 -0.0572
  312SOL    HW2  936   1.149   2.146   2.224 -1.0315  0.1108 -1.7786
  313SOL     OW  937   0.213   0.325   0.932  0.2863  0.1796 -0.0067
  313SOL    HW1  938   0.113   0.321   0.899 -0.7806 -1.5074 -0.3252
  313SOL    HW2  939   0.219   0.385   1.017 -0.0569  1.7925  0.2499
  314SOL     OW  940   0.539   2.020   1.136  0.1853  0.2411  0.6537
  314SOL    HW1  941   0.577   2.073   1.216 -0.8630 -0.0594 -1.8391
  314SOL    HW2  942   0.528   1.922   1.162 -0.4524 -1.8404 -0.2461
  315SOL     OW  943   0.456   2.154   1.961 -0.0511  0.6294 -0.9800
  315SOL    HW1  944   0.402   2.238   1.944  2.3312 -0.9023  1.9127
  315SOL    HW2  945   0.446   2.133   2.060  3.3157  3.2079  1.5938
  316SOL     OW  946   0.388   2.511   0.776  0.1978  0.3569 -0.3343
  316SOL    HW1  947   0.323   2.448   0.736  0.2457  1.5823 -0.4160
  316SOL    HW2  948   0.346   2.584   0.838 -0.3700  0.0985 -1.7832
  317SOL     OW  949   2.795   0.028   1.565  0.0625  0.8755 -0.1256
  317SOL    HW1  950   2.706   0.082   1.567 -0.3313 -1.4256  1.1834
  317SOL    HW2  951   2.775   3.023   1.549  1.8902 -1.6265  1.1223
  318SOL     OW  952   2.129   2.387   0.170  1.4017 -0.3798 -0.3684
  318SOL    HW1  953   2.228   2.411   0.167  3.1417  1.3344  3.2434
  318SOL    HW2  954   2.083   2.434   0.248 -2.0580  0.6328  0.0686
  319SOL     OW  955   1.446   1.224   2.704 -0.2650  0.0586  0.2010
  319SOL    HW1  956   1.432   1.229   2.808  0.8520  0.8679  1.6354
  319SOL    HW2  957   1.455   1.129   2.673 -0.2511 -1.5290  0.7034
  320SOL     OW  958   0.239   2.398   2.339  0.0322 -0.3563  0.0481
  320SOL    HW1  959   0.172   2.400   2.267  1.2225  0.2915  0.1257
  320SOL    HW2  960   0.330   2.416   2.291  2.1673  1.2704  1.1037
  321SOL     OW  961   0.905   2.251   0.082  0.2431 -0.5138  0.2822
  321SOL    HW1  962   1.006   2.242   0.108  2.6792  0.3212 -1.1280
  321SOL    HW2  963   0.894   2.287   3.081  4.3039 -2.9166 -1.2360
  322SOL     OW  964   2.501   0.529   2.450 -0.5007 -0.1029 -0.0259
  322SOL    HW1  965   2.487   0.568   2.540 -0.5594 -0.4478 -0.3615
  322SOL    HW2  966   2.413   0.504   2.400 -2.3552  1.0915 -0.9714
  323SOL     OW  967   2.687   1.258   0.963  0.4371  0.3039  0.4875
  323SOL    HW1  968   2.726   1.237   1.053  1.0223  1.4410  0.2943
  323SOL    HW2  969   2.603   1.202   0.944 -0.0113  0.6075 -1.6624
  324SOL     OW  970   0.131   0.664   1.678 -0.7419  0.3329 -0.0512
  324SOL    HW1  971   0.171   0.704   1.766  0.4328  2.3588  2.9982
  324SOL    HW2  972   0.029   0.666   1.677  1.3819  0.8587 -1.1893
  325SOL     OW  973   0.122   0.001   1.798  0.7872  0.6711 -0.1876
  325SOL    HW1  974   0.046   0.046   1.744 -1.2800 -1.6438  2.6609
  325SOL    HW2  975   0.211   0.048   1.784  1.7989 -1.0595 -2.5626
  326SOL     OW  976   2.046   2.944   0.379  0.1078 -0.3030 -0.4020
  326SOL    HW1  977   2.116   2.883   0.336 -2.5053 -0.6254  1.7616
  326SOL    HW2  978   1.957   2.911   0.340 -1.8444 -1.5261  1.6828
  327SOL     OW  979   2.056   1.567   0.540  0.0889  0.3933 -0.0053
  327SOL    HW1  980   2.019   1.655   0.496 -2.5108 -0.1550 -4.5102
  327SOL    HW2  981   2.080   1.493   0.469  0.2659 -3.4638 -2.1046
  328SOL     OW  982   0.018   2.024   2.545 -0.6722  0.1330 -0.0033
  328SOL    HW1  983   3.065   1.976   2.622  0.7245  0.2176  0.5899
  328SOL    HW2  984   0.047   2.114   2.573 -0.0915 -3.1746 -1.0066
  329SOL     OW  985   0.221   2.314   1.524 -0.5285  0.1482 -0.1550
  329SOL    HW1  986   0.268   2.339   1.430 -1.8497  1.4114 -2.2863
  329SOL    HW2  987   0.275   2.235   1.564  3.0823 -1.5723  0.0061
  330SOL     OW  988   2.461   1.249   2.454 -0.2754 -0.0088  0.4972
  330SOL    HW1  989   2.481   1.148   2.461  3.5130 -0.7416 -0.0684
  330SOL    HW2  990   2.376   1.271   2.509  0.9913  2.9421  1.2464
  331SOL     OW  991   2.710   2.434   1.129  0.4266 -0.3704 -0.0205
  331SOL    HW1  992   2.736   2.364   1.200 -0.6368  0.1038  2.0047
  331SOL    HW2  993   2.686   2.516   1.181  0.8800 -5.7940 -2.4188
  332SOL     OW  994   0.670   2.865   0.738 -0.3205  0.1994  0.3354
  332SOL    HW1  995   0.607   2.941   0.767  0.6778 -1.4230  1.2627
  332SOL    HW2  996   0.741   2.835   0.803 -1.6813  2.6589 -1.3136
  333SOL     OW  997   2.283   2.122   2.610 -0.0645 -0.2527  0.4061
  333SOL    HW1  998   2.232   2.204   2.643  0.4350 -2.2505 -0.1929
  333SOL    HW2  999   2.333   2.146   2.523  1.1989  2.8953 -2.3076
  334SOL     OW 1000   0.583   1.205   0.678 -0.0892 -0.2587  0.1983
  334SOL    HW1 1001   0.492   1.229   0.639 -1.0584  1.4932 -0.8021
  334SOL    HW2 1002   0.606   1.259   0.761  0.3233 -2.2289  1.6702
  335SOL     OW 1003   2.860   2.025   2.368 -0.5775 -0.1352  0.4045
  335SOL    HW1 1004   2.950   1.967   2.387 -0.0997 -2.4737 -1.9793
  335SOL    HW2 1005   2.791   2.010   2.443  1.3182 -3.9677 -1.8377
  336SOL     OW 1006   2.462   2.831   2.429  0.9238  0.0362 -0.6982
  336SOL    HW1 1007   2.486   2.925   2.462  2.8726  0.9562  0.7870
  336SOL    HW2 1008   2.364   2.811   2.440 -0.5610  0.9140  0.0630
  337SOL     OW 1009   0.736   0.750   0.903 -0.5032 -0.4236  0.0948
  337SOL    HW1 1010   0.788   0.698   0.972 -2.1996 -1.1285 -0.4695
  337SOL    HW2 1011   0.789   0.747   0.815 -2.8355 -3.7077  0.1656
  338SOL     OW 1012   1.155   1.821   1.134 -0.2418  0.0404 -0.2019
  338SOL    HW1 1013   1.061   1.803   1.174 -0.8857  2.3097 -0.1121
  338SOL    HW2 1014   1.165   1.927   1.129 -0.7148  1.4604  0.3879
  339SOL     OW 1015   0.209   1.850   1.484 -0.1392 -0.4455  0.2309
  339SOL    HW1 1016   0.141   1.924   1.456  0.5612 -0.3979 -0.0059
  339SOL    HW2 1017   0.216   1.859   1.584  0.8804  1.7434 -1.1638
  340SOL     OW 1018   1.306   2.646   1.685 -0.3823  0.0599 -0.2476
  340SOL    HW1 1019   1.390   2.590   1.703 -1.9611  2.1512  2.7327
  340SOL    HW2 1020   1.236   2.628   1.757  1.2898 -1.1837 -2.6155
  341SOL     OW 1021   1.635   1.567   1.101 -0.2569  0.4245 -0.0285
  341SOL    HW1 1022   1.616   1.664   1.065  3.4180  1.5228 -0.0199
  341SOL    HW2 1023   1.714   1.563   1.168 -1.8644 -2.0835 -1.7178
  342SOL     OW 1024   2.484   1.497   1.113  0.3446 -0.0678  0.0784
  342SOL    HW1 1025   2.435   1.564   1.169 -1.0359 -2.0716 -0.6990
  342SOL    HW2 1026   2.540   1.540   1.041  1.6996 -1.3558  0.2015
  343SOL     OW 1027   2.400   0.340   1.069  0.5533 -0.7508 -0.1655
  343SOL    HW1 1028   2.431   0.436   1.087 -0.7467  1.1731  0.9594
  343SOL    HW2 1029   2.305   0.344   1.026  2.6638 -1.0113  0.2671
  344SOL     OW 1030   2.147   0.114   0.625  0.5106  0.0435 -0.2110
  344SOL    HW1 1031   2.222   0.167   0.669 -0.7339 -1.5443  1.0434
  344SOL    HW2 1032   2.152   0.016   0.654 -0.7976 -0.5189 -0.2922
  345SOL     OW 1033   0.885   2.849   1.853 -0.3665 -0.3391  0.0896
  345SOL    HW1 1034   0.834   2.794   1.927 -2.5882  0.0571  1.2412
  345SOL    HW2 1035   0.837   2.842   1.765 -0.2346  0.2331  1.7361
  346SOL     OW 1036   2.599   1.996   0.747 -0.8805  0.0600  0.1539
  346SOL    HW1 1037   2.695   1.973   0.776  0.9215 -0.7893 -1.3058
  346SOL    HW2 1038   2.556   2.065   0.811  0.1439  1.3164  2.6051
  347SOL     OW 1039   2.541   2.938   1.349  0.0289 -0.0539 -0.1561
  347SOL    HW1 1040   2.471   2.862   1.349 -0.4440  1.0240 -1.8016
  347SOL    HW2 1041   2.499   3.016   1.404  1.4282  1.0555  1.0071
  348SOL     OW 1042   1.197   1.068   1.320  0.2601  0.0898  0.0481
  348SOL    HW1 1043   1.231   1.097   1.225  1.4320  0.0108 -0.8934
  348SOL    HW2 1044   1.190   0.967   1.317 -2.1714 -1.0519  0.4495
  349SOL     OW 1045   2.263   0.374   2.154 -0.7338 -0.2456  0.2635
  349SOL    HW1 1046   2.233   0.440   2.222 -0.2338  0.8906 -1.3005
  349SOL    HW2 1047   2.186   0.351   2.090  3.1333 -2.4583  0.4660
  350SOL     OW 1048   2.087   2.514   0.419 -0.4110 -0.1790  0.2227
  350SOL    HW1 1049   2.128   2.602   0.453  0.0584  0.1166  0.7468
  350SOL    HW2 1050   2.086   2.442   0.491 -1.4977 -1.4526 -2.4825
  351SOL     OW 1051   1.336   0.304   2.819  0.0107 -1.0212  0.0340
  351SOL    HW1 1052   1.430   0.298   2.855  0.7949  1.6321  0.0900
  351SOL    HW2 1053   1.281   0.339   2.896  1.9797  1.7565  0.4290
  352SOL     OW 1054   1.968   2.603   2.317  0.7267 -0.5402 -0.0396
  352SOL    HW1 1055   1.904   2.556   2.382 -0.6241 -0.3636  0.0012
  352SOL    HW2 1056   1.917   2.625   2.230 -0.5100 -0.3557 -0.0519
  353SOL     OW 1057   0.487   0.948   2.597  0.4215 -0.1127  0.7765
  353SOL    HW1 1058   0.422   0.953   2.517 -1.2099 -1.1929 -0.5576
  353SOL    HW2 1059   0.570   0.897   2.569 -0.8003  0.4225 -2.6817
  354SOL     OW 1060   0.482   2.866   2.682 -0.4772 -0.4952 -0.6852
  354SOL    HW1 1061   0.525   2.790   2.631 -1.7712  2.7397  0.5491
  354SOL    HW2 1062   0.542   2.896   2.760 -0.5471  0.9964  0.2198
  355SOL     OW 1063   2.304   2.752   1.349 -0.2419  0.1342  0.5468
  355SOL    HW1 1064   2.225   2.808   1.382 -0.3443  1.8700  1.3474
  355SOL    HW2 1065   2.277   2.651   1.362  0.2727 -1.4628  0.0843
  356SOL     OW 1066   2.459   0.665   0.426  0.1636 -0.0590  0.5648
  356SOL    HW1 1067   2.454   0.735   0.498  0.8346 -0.9291 -2.4370
  356SOL    HW2 1068   2.384   0.599   0.425 -0.0128 -3.3191 -2.7498
  357SOL     OW 1069   3.056   0.098   1.620 -0.1672 -0.2421  0.0038
  357SOL    HW1 1070   3.072   0.197   1.600  3.0489 -1.0480  1.1625
  357SOL    HW2 1071   2.957   0.077   1.604  1.3508  0.9538  0.4201
  358SOL     OW 1072   2.957   1.707   1.315 -0.0214 -0.6111  0.7847
  358SOL    HW1 1073   2.990   1.692   1.405 -2.3052 -1.2580 -0.8863
  358SOL    HW2 1074   2.855   1.720   1.315  0.6613 -0.1064 -0.9215
  359SOL     OW 1075   2.475   2.883   2.757  0.1307 -0.3077 -0.3886
  359SOL    HW1 1076   2.491   2.932   2.669 -2.0131  0.1906  1.3282
  359SOL    HW2 1077   2.461   2.955   2.825 -1.0271 -0.6217  0.9768
  360SOL     OW 1078   1.303   0.583   1.298  0.3449 -0.8246 -0.1666
  360SOL    HW1 1079   1.245   0.514   1.345  0.7698 -0.4165 -0.3783
  360SOL    HW2 1080   1.347   0.645   1.364 -0.5244 -0.6069 -0.6896
  361SOL     OW 1081   2.579   2.445   1.442  0.1331  0.0990 -0.3459
  361SOL    HW1 1082   2.614   2.428   1.538 -1.4489 -2.5972 -0.8569
  361SOL    HW2 1083   2.615   2.527   1.397 -0.8807  0.7171 -0.6854
  362SOL     OW 1084   1.506   0.443   0.726 -0.0795 -0.2206 -0.2881
  362SOL    HW1 1085   1.486   0.500   0.645  1.2421 -0.4640  1.4038
  362SOL    HW2 1086   1.496   0.348   0.696  0.9980 -0.2996  2.0069
  363SOL     OW 1087   1.762   1.405   0.876 -0.5466  0.3064 -0.2324
  363SOL    HW1 1088   1.815   1.470   0.822 -0.9975  1.2940  3.0907
  363SOL    HW2 1089   1.694   1.462   0.924 -0.4237 -1.3615 -0.4193
  364SOL     OW 1090   0.257   1.032   1.819 -0.1107 -0.0337 -0.6496
  364SOL    HW1 1091   0.329   0.956   1.822  2.0023  1.9864 -2.0866
  364SOL    HW2 1092   0.276   1.099   1.748  0.8755 -1.6948 -1.1938
  365SOL     OW 1093   2.864   0.524   1.163 -0.4095 -0.4883 -0.0507
  365SOL    HW1 1094   2.945   0.543   1.103  1.6576 -1.5469  0.4626
  365SOL    HW2 1095   2.841   0.608   1.211  2.7029 -1.9955 -0.7120
  366SOL     OW 1096   2.735   1.090   0.487  0.4946 -0.1320  0.1063
  366SOL    HW1 1097   2.679   1.100   0.400 -1.5487  0.8751 -4.9360
  366SOL    HW2 1098   2.725   1.178   0.539  0.3790  0.4605 -1.8821
  367SOL     OW 1099   2.283   2.052   2.171 -1.1900  0.2941  0.0057
  367SOL    HW1 1100   2.196   2.101   2.162  1.3974  0.9958  2.4129
  367SOL    HW2 1101   2.320   2.066   2.263  0.0302  2.7695 -1.0224
  368SOL     OW 1102   2.440   2.083   1.153 -0.5287  0.4346 -0.3094
  368SOL    HW1 1103   2.381   2.095   1.233 -0.3951 -0.9280  1.9020
  368SOL    HW2 1104   2.386   2.036   1.080 -1.8176  0.3000 -4.2276
  369SOL     OW 1105   2.187   3.054   2.911  0.4644  0.1340  0.5636
  369SOL    HW1 1106   2.146   3.048   3.004  2.4988 -1.4584 -1.9630
  369SOL    HW2 1107   2.278   3.092   2.909 -2.3114  1.4342 -1.1122
  370SOL     OW 1108   0.719   0.396   1.012  0.1226  0.4741 -1.2302
  370SOL    HW1 1109   0.679   0.358   0.925 -1.2314 -0.5776 -0.0934
  370SOL    HW2 1110   0.716   0.315   1.078 -0.0966 -4.2220  2.0007
  371SOL     OW 1111   0.439   1.620   0.318  0.6315  0.6324 -0.1981
  371SOL    HW1 1112   0.416   1.606   0.217 -4.2088  1.4937 -2.1007
  371SOL    HW2 1113   0.527   1.674   0.331 -0.8200  2.5758  0.4964
  372SOL     OW 1114   0.406   0.732   2.853 -0.1423  0.0784  0.3621
  372SOL    HW1 1115   0.378   0.647   2.807 -0.3503  2.3148  0.2569
  372SOL    HW2 1116   0.395   0.816   2.793  0.9752  3.4395  1.1752
  373SOL     OW 1117   1.172   2.931   2.922 -0.3138  0.8876  0.2893
  373SOL    HW1 1118   1.088   2.867   2.911  0.4185  1.7815  0.0112
  373SOL    HW2 1119   1.149   3.008   2.862 -0.6557 -0.1967 -0.5663
  374SOL     OW 1120   1.088   1.737   0.450 -0.0311 -0.6996 -0.7873
  374SOL    HW1 1121   1.151   1.724   0.533 -0.3274  0.1892  0.8179
  374SOL    HW2 1122   1.094   1.655   0.389 -1.7494 -0.3564  0.9270
  375SOL     OW 1123   0.545   0.747   2.014  0.1750  0.0387 -0.4906
  375SOL    HW1 1124   0.494   0.740   2.100  2.1569  0.4903  0.3536
  375SOL    HW2 1125   0.629   0.690   2.024  1.2565  0.9429  0.8327
  376SOL     OW 1126   3.082   2.458   1.578  0.2880  0.0351  0.1140
  376SOL    HW1 1127   0.071   2.406   1.554 -0.4644 -1.1755 -1.8487
  376SOL    HW2 1128   3.086   2.530   1.652  0.8130  0.4999  1.4698
  377SOL     OW 1129   2.772   1.602   2.819  0.6878  0.3920  0.2738
  377SOL    HW1 1130   2.709   1.585   2.740  1.0353  0.0015 -0.8619
  377SOL    HW2 1131   2.835   1.523   2.822  0.0643  0.3136  0.2839
  378SOL     OW 1132   2.020   2.934   0.013  0.1760 -0.0599 -0.0051
  378SOL    HW1 1133   1.991   2.906   0.105 -0.3222  1.2927  1.2150
  378SOL    HW2 1134   2.056   2.855   3.050 -0.6973  1.6907 -4.1496
  379SOL     OW 1135   1.876   0.323   0.639 -0.4582 -0.1974  0.0087
  379SOL    HW1 1136   1.920   0.234   0.654  1.7486 -2.1380 -3.0185
  379SOL    HW2 1137   1.938   0.396   0.664  1.1037 -1.1275 -1.0428
  380SOL     OW 1138   2.798   2.222   1.847 -0.0845 -0.0693  0.4952
  380SOL    HW1 1139   2.856   2.168   1.785 -1.3635  2.5079  3.7854
  380SOL    HW2 1140   2.797   2.184   1.942  3.2383 -3.2491  0.7403
  381SOL     OW 1141   2.150   1.504   2.407  0.2230  0.0482  0.3288
  381SOL    HW1 1142   2.229   1.547   2.354 -0.9662  0.4477 -0.4355
  381SOL    HW2 1143   2.181   1.456   2.493  0.3633  2.3672  2.0256
  382SOL     OW 1144   2.910   2.800   2.807  0.1631  0.3235 -0.3305
  382SOL    HW1 1145   2.893   2.699   2.816 -2.7010 -1.5754  0.5254
  382SOL    HW2 1146   2.921   2.826   2.709  0.4575  0.1453 -0.2379
  383SOL     OW 1147   0.907   1.244   3.087  0.6289  0.3286  0.5071
  383SOL    HW1 1148   0.911   1.149   3.054  0.4076  0.7854 -0.1228
  383SOL    HW2 1149   0.892   1.313   3.012  1.9305  0.9358  1.0911
  384SOL     OW 1150   1.250   1.963   1.504  0.1933 -0.0768  0.4984
  384SOL    HW1 1151   1.236   2.057   1.533  0.9909 -1.8540 -0.3453
  384SOL    HW2 1152   1.157   1.918   1.491 -1.4974  0.3464 -0.2126
  385SOL     OW 1153   1.969   2.465   0.861  0.4736 -0.9479  0.1583
  385SOL    HW1 1154   1.896   2.537   0.876  2.2161  0.6264 -1.3218
  385SOL    HW2 1155   1.947   2.385   0.921 -2.4618 -0.9154 -1.5143
  386SOL     OW 1156   1.876   1.611   0.750  0.6258 -0.3910  0.2829
  386SOL    HW1 1157   1.906   1.701   0.783 -0.4624 -1.6229 -1.1273
  386SOL    HW2 1158   1.926   1.574   0.673 -2.1660 -1.7431  2.0398
  387SOL     OW 1159   2.756   2.232   1.325 -0.0553  0.3064 -1.0114
  387SOL    HW1 1160   2.796   2.288   1.400  1.3764 -1.2942  0.8962
  387SOL    HW2 1161   2.677   2.177   1.363  1.0510 -0.6621 -0.1051
  388SOL     OW 1162   2.885   1.046   1.609 -0.1862  0.1531  0.4479
  388SOL    HW1 1163   2.945   1.118   1.647 -0.6094 -1.3837 -0.2297
  388SOL    HW2 1164   2.921   1.015   1.525 -0.1758 -1.2392  4.2105
  389SOL     OW 1165   2.209   0.732   0.259 -0.5514  0.0622 -0.3886
  389SOL    HW1 1166   2.195   0.631   0.274 -0.5901  0.4707 -1.9610
  389SOL    HW2 1167   2.309   0.749   0.253 -2.0901 -0.9318  0.3813
  390SOL     OW 1168   1.189   1.671   2.862  0.4233  0.3521 -0.3319
  390SOL    HW1 1169   1.246   1.746   2.823  1.1453 -3.4717 -0.0612
  390SOL    HW2 1170   1.140   1.626   2.789 -0.1223 -1.2367 -0.4756
  391SOL     OW 1171   1.332   2.051   2.937  0.6864  0.3042 -0.5126
  391SOL    HW1 1172   1.360   2.136   2.982 -2.0110 -4.1922  0.2897
  391SOL    HW2 1173   1.267   1.999   2.998  0.7244 -1.2042  1.3729
  392SOL     OW 1174   0.070   2.588   1.872 -0.1615  0.3634  0.0408
  392SOL    HW1 1175   0.111   2.660   1.934  0.3767 -0.6231 -0.1283
  392SOL    HW2 1176   0.071   2.500   1.923 -0.3365  2.1448 -2.7465
  393SOL     OW 1177   1.174   2.316   0.171 -0.5710 -0.3695  0.3767
  393SOL    HW1 1178   1.189   2.330   0.269  0.0189 -0.2987 -0.9908
  393SOL    HW2 1179   1.259   2.284   0.124 -4.3603  0.5512 -2.3691
  394SOL     OW 1180   0.533   0.437   2.570 -0.0022 -0.2379 -0.2210
  394SOL    HW1 1181   0.610   0.473   2.628  0.6913  2.0783  0.2907
  394SOL    HW2 1182   0.527   0.336   2.566 -0.0383  1.8633 -2.0326
  395SOL     OW 1183   0.351   1.212   1.025  0.0265 -0.1816 -0.1648
  395SOL    HW1 1184   0.412   1.262   0.957 -0.6504 -0.4483 -0.5576
  395SOL    HW2 1185   0.304   1.131   0.991 -0.3836 -0.4660  0.8728
  396SOL     OW 1186   1.830   1.148   2.147  0.1251  0.3026  0.5512
  396SOL    HW1 1187   1.747   1.207   2.144  2.1296  2.3393 -1.5082
  396SOL    HW2 1188   1.822   1.084   2.227  0.2543  0.2592  1.5488
  397SOL     OW 1189   0.764   0.331   0.195  0.6731 -0.1823 -0.0686
  397SOL    HW1 1190   0.677   0.377   0.192  2.1645 -2.6117  1.2105
  397SOL    HW2 1191   0.779   0.285   0.285 -0.4488  2.1641 -0.1565
  398SOL     OW 1192   1.096   2.370   2.877 -0.2528 -0.4126  0.0794
  398SOL    HW1 1193   1.108   2.409   2.785  0.5244 -0.1008  1.0975
  398SOL    HW2 1194   1.125   2.438   2.949  0.8287 -0.1883  0.9606
  399SOL     OW 1195   1.455   2.040   2.265 -0.0213  0.2642  0.4326
  399SOL    HW1 1196   1.444   1.959   2.325 -2.0259  4.2756 -0.9173
  399SOL    HW2 1197   1.516   2.010   2.187  1.5127 -1.6833  1.1378
  400SOL     OW 1198   2.192   1.641   1.455  0.2369  0.0591 -0.3852
  400SOL    HW1 1199   2.215   1.608   1.363  0.4391  1.3784 -0.2019
  400SOL    HW2 1200   2.183   1.559   1.515  0.7940 -1.8040  2.1706
  401SOL     OW 1201   1.286   1.206   0.839  0.4520 -0.1693 -0.4000
  401SOL    HW1 1202   1.346   1.282   0.820 -3.1062 -1.2718  0.9214
  401SOL    HW2 1203   1.313   1.128   0.778  0.7194 -0.6525 -1.7390
  402SOL     OW 1204   0.032   2.643   2.196 -0.6405  0.2210 -0.0891
  402SOL    HW1 1205   0.081   2.695   2.127 -0.2633 -0.9927  1.5265
  402SOL    HW2 1206   0.074   2.663   2.290  0.2651  1.1475  1.8681
  403SOL     OW 1207   2.809   1.863   1.598 -0.1743  0.4465  0.4870
  403SOL    HW1 1208   2.851   1.953   1.618 -1.5060 -2.5830 -2.3636
  403SOL    HW2 1209   2.881   1.795   1.583 -2.6596  1.9274  0.3192
  404SOL     OW 1210   2.039   1.887   1.110 -0.2589 -0.1206 -0.0770
  404SOL    HW1 1211   2.005   1.950   1.187 -1.2085  1.5253  0.2151
  404SOL    HW2 1212   2.138   1.899   1.100 -0.1714  0.8441 -0.3266
  405SOL     OW 1213   2.566   0.341   2.786  0.5219  0.1133  0.5398
  405SOL    HW1 1214   2.614   0.338   2.879 -0.6577 -0.5039  1.9965
  405SOL    HW2 1215   2.629   0.351   2.710  0.3136 -1.6895  0.6445
  406SOL     OW 1216   0.918   1.633   2.441  0.0899 -0.1053 -0.7851
  406SOL    HW1 1217   0.896   1.728   2.479  0.0772  0.2806  0.3766
  406SOL    HW2 1218   0.975   1.641   2.355  3.8356  0.3211 -0.2011
  407SOL     OW 1219   1.833   2.839   0.228  0.0310  0.7922 -0.7213
  407SOL    HW1 1220   1.830   2.744   0.263 -0.0570  0.8254 -0.9017
  407SOL    HW2 1221   1.748   2.864   0.183  1.4301 -0.4968  1.6761
  408SOL     OW 1222   0.457   3.039   0.778  0.4545  0.9760 -0.0467
  408SOL    HW1 1223   0.447   3.078   0.682 -1.6709 -1.6818  1.4484
  408SOL    HW2 1224   0.364   3.006   0.812  0.7510 -0.9006 -0.4859
  409SOL     OW 1225   2.197   2.047   0.811 -0.3865 -0.3730  0.4977
  409SOL    HW1 1226   2.126   1.983   0.782  0.5227  1.3928 -0.1579
  409SOL    HW2 1227   2.244   2.084   0.724  1.5790  0.4725  0.0292
  410SOL     OW 1228   2.170   2.091   2.957  0.1787 -0.3213 -0.5673
  410SOL    HW1 1229   2.205   2.036   2.878  2.0396 -0.4956  0.4077
  410SOL    HW2 1230   2.255   2.126   2.999 -1.6011 -0.0485  0.4963
  411SOL     OW 1231   0.096   0.240   0.440 -0.1063  0.3331  0.3680
  411SOL    HW1 1232   0.147   0.187   0.369 -0.1275 -0.4473  0.7095
  411SOL    HW2 1233   0.144   0.224   0.529  0.7040  1.0205 -1.3061
  412SOL     OW 1234   1.707   2.572   0.223  0.4188 -0.1195 -0.7932
  412SOL    HW1 1235   1.671   2.490   0.177  0.8892  1.1838  3.0033
  412SOL    HW2 1236   1.636   2.645   0.241  0.1636  3.2486  0.4772
  413SOL     OW 1237   1.904   0.448   2.091 -0.4148 -0.3808  0.1582
  413SOL    HW1 1238   1.946   0.394   2.014 -1.5589  0.1646  2.0108
  413SOL    HW2 1239   1.806   0.423   2.110  0.5942  0.5976 -0.1865
  414SOL     OW 1240   2.954   0.293   0.534 -0.0064 -0.6174  0.3863
  414SOL    HW1 1241   2.955   0.391   0.559 -0.2556  0.0623  2.1976
  414SOL    HW2 1242   3.035   0.271   0.480 -1.4791  1.8468 -0.0180
  415SOL     OW 1243   0.482   1.734   1.144  0.1711  0.2976  0.3621
  415SOL    HW1 1244   0.414   1.704   1.208  0.5360 -0.3416  0.2257
  415SOL    HW2 1245   0.469   1.679   1.058 -2.3617  0.6679 -0.7639
  416SOL     OW 1246   0.126   2.990   0.193  0.1164 -0.1595 -0.5558
  416SOL    HW1 1247   0.117   3.024   0.097 -2.3757  1.4956 -1.3393
  416SOL    HW2 1248   0.187   2.912   0.215  2.2999  0.8986  0.8304
  417SOL     OW 1249   2.635   3.032   1.120  0.0918  0.4891  1.0506
  417SOL    HW1 1250   2.587   2.991   1.195  3.7785  1.6274 -2.3257
  417SOL    HW2 1251   2.627   0.043   1.119 -3.9962 -0.1061  0.6496
  418SOL     OW 1252   0.549   0.162   2.610  0.6715  0.8266  0.3860
  418SOL    HW1 1253   0.548   0.135   2.711 -2.4283  0.1305 -1.4379
  418SOL    HW2 1254   0.473   0.113   2.564 -1.1511 -0.3774  2.9100
  419SOL     OW 1255   0.269   1.210   0.686  0.0305 -0.6202  0.0162
  419SOL    HW1 1256   0.207   1.219   0.606  1.2773  2.4850  0.8991
  419SOL    HW2 1257   0.242   1.141   0.756 -1.1544  0.2425  0.3148
  420SOL     OW 1258   1.788   1.983   0.874 -0.0356  0.1469  0.3078
  420SOL    HW1 1259   1.758   1.989   0.771  2.6859  2.9762 -4.5414
  420SOL    HW2 1260   1.874   1.930   0.885 -1.8114  2.5305 -0.4136
  421SOL     OW 1261   1.795   2.079   2.531 -0.4209  0.1365 -0.2401
  421SOL    HW1 1262   1.773   1.999   2.471 -0.2508  0.5379  0.9559
  421SOL    HW2 1263   1.725   2.152   2.520 -1.4717  1.1842 -0.4713
  422SOL     OW 1264   2.912   0.625   2.985  0.5669  0.4918  0.2141
  422SOL    HW1 1265   3.015   0.628   2.972  1.0727  0.7892 -0.9708
  422SOL    HW2 1266   2.888   0.650   3.077  0.9692 -3.5057  0.3931
  423SOL     OW 1267   1.359   1.929   0.846 -0.3680  0.0504 -0.2023
  423SOL    HW1 1268   1.430   1.921   0.922  1.4151  2.2395  3.0116
  423SOL    HW2 1269   1.380   1.859   0.777 -3.4460 -0.3669  0.9636
  424SOL     OW 1270   0.461   1.490   1.415  0.1558  0.1979  0.1014
  424SOL    HW1 1271   0.424   1.427   1.485  0.6875  1.4837  2.1725
  424SOL    HW2 1272   0.517   1.555   1.465 -1.1825 -0.7419  3.1072
  425SOL     OW 1273   2.509   2.739   1.955 -0.0597  0.0921 -0.1108
  425SOL    HW1 1274   2.590   2.680   1.975  1.2455 -0.2012 -2.2375
  425SOL    HW2 1275   2.537   2.797   1.879  0.3813 -2.6602 -0.9712
  426SOL     OW 1276   1.957   2.834   0.610  0.8798  0.2939  0.2857
  426SOL    HW1 1277   1.993   2.851   0.515 -0.4968  0.1322  0.7652
  426SOL    HW2 1278   2.012   2.874   0.687 -0.2220  2.7316  0.5000
  427SOL     OW 1279   0.602   0.647   3.012 -0.5226 -0.6492 -0.4066
  427SOL    HW1 1280   0.543   0.688   2.942  2.4610  0.2533  1.5431
  427SOL    HW2 1281   0.581   0.696   0.008  0.2268  1.2505 -2.4341
  428SOL     OW 1282   1.970   1.162   0.179 -0.4315 -0.1159  0.2334
  428SOL    HW1 1283   1.887   1.109   0.207  2.4104  0.6836 -0.5484
  428SOL    HW2 1284   1.948   1.222   0.097  1.5031 -2.3223  3.2555
  429SOL     OW 1285   2.779   0.163   0.332  0.0372  0.1344 -0.7627
  429SOL    HW1 1286   2.838   0.177   0.411  0.4292 -0.6194 -1.1621
  429SOL    HW2 1287   2.743   0.065   0.330  0.1170 -3.9569  2.6960
  430SOL     OW 1288   0.987   0.010   2.018 -0.2703 -0.1301 -0.2225
  430SOL    HW1 1289   0.928   0.078   1.969  1.1230 -0.2988 -1.5486
  430SOL    HW2 1290   0.962   3.011   1.983  1.5676 -1.5240 -0.5714
  431SOL     OW 1291   2.846   1.315   1.450  0.6158  0.0010  0.1708
  431SOL    HW1 1292   2.786   1.382   1.499  0.5990  3.2033  1.4010
  431SOL    HW2 1293   2.928   1.291   1.510  0.4625  1.6911 -0.1279
  432SOL     OW 1294   2.033   2.581   1.950 -0.2737 -0.1505 -0.1319
  432SOL    HW1 1295   2.108   2.510   1.947 -0.0096 -2.6758 -0.9853
  432SOL    HW2 1296   1.959   2.554   2.013  0.3863 -1.8407 -1.0307
  433SOL     OW 1297   0.992   1.728   3.052 -0.0693  0.2317  0.1898
  433SOL    HW1 1298   0.906   1.667   3.046 -3.2827 -1.1714 -0.2358
  433SOL    HW2 1299   1.078   1.698   3.008 -1.6214  0.2934  2.5606
  434SOL     OW 1300   0.094   2.294   2.562  0.1536  0.0087 -0.3947
  434SOL    HW1 1301   0.133   2.315   2.474 -0.0942 -0.6705  0.7641
  434SOL    HW2 1302   0.146   2.349   2.632  0.1187 -1.6102  3.4044
  435SOL     OW 1303   0.263   0.641   0.627  0.4658  1.3274 -0.0826
  435SOL    HW1 1304   0.346   0.581   0.654  2.3658 -1.0153  0.5569
  435SOL    HW2 1305   0.289   0.720   0.564  1.7551 -0.1988 -4.8852
  436SOL     OW 1306   0.312   2.761   1.719 -0.4804 -0.2360 -0.2859
  436SOL    HW1 1307   0.313   2.660   1.738 -0.6864 -0.3212 -2.5121
  436SOL    HW2 1308   0.254   2.792   1.645 -0.4579  0.6531  2.3396
  437SOL     OW 1309   0.969   2.055   1.371 -0.3756 -0.5284 -0.2871
  437SOL    HW1 1310   0.976   2.101   1.460  1.1664 -0.7427 -1.1710
  437SOL    HW2 1311   1.019   2.100   1.299 -1.9462  1.6182  0.4251
  438SOL     OW 1312   3.085   2.073   0.742  0.0199  0.0990 -0.1236
  438SOL    HW1 1313   0.064   2.072   0.816  1.2954  2.0067 -1.4962
  438SOL    HW2 1314   0.021   2.091   0.648 -0.9899  2.8018  1.9164
  439SOL     OW 1315   0.164   0.465   1.170  0.3768  0.1514  0.3830
  439SOL    HW1 1316   0.103   0.394   1.212 -0.4097  0.2158  0.1866
  439SOL    HW2 1317   0.197   0.541   1.232  2.8903 -1.9324  0.5494
  440SOL     OW 1318   2.929   2.799   2.285  0.5247  0.1434  0.2544
  440SOL    HW1 1319   2.908   2.889   2.239  1.8990  1.0008  0.6098
  440SOL    HW2 1320   3.010   2.754   2.243  0.6931 -0.4097  2.4154
  441SOL     OW 1321   2.988   0.561   1.878  0.0842  0.2788 -0.4288
  441SOL    HW1 1322   2.921   0.629   1.909  1.0111 -1.1964  1.4176
  441SOL    HW2 1323   2.988   0.577   1.778 -0.5760 -1.6422  0.3439
  442SOL     OW 1324   1.788   2.348   2.974 -0.3050 -0.4834  0.1607
  442SOL    HW1 1325   1.842   2.261   2.995 -2.3489  0.1835  0.7418
  442SOL    HW2 1326   1.828   2.428   3.028  0.9581  2.2080  0.2142
  443SOL     OW 1327   0.540   0.728   0.173  0.3947 -0.5067 -0.3967
  443SOL    HW1 1328   0.440   0.718   0.160  0.6284  0.4392 -0.4578
  443SOL    HW2 1329   0.558   0.735   0.273 -0.6999 -0.4678  0.5424
  444SOL     OW 1330   1.436   1.510   2.042 -0.2134  0.0383  0.5969
  444SOL    HW1 1331   1.433   1.607   2.014  0.6160  1.1530 -0.1069
  444SOL    HW2 1332   1.346   1.467   2.033 -1.5162  1.5571  0.7537
  445SOL     OW 1333   0.197   2.948   0.841 -0.0553 -0.0197  0.5877
  445SOL    HW1 1334   0.208   3.014   0.918 -1.7206 -1.4490  0.7948
  445SOL    HW2 1335   0.100   2.916   0.829 -1.5396  0.3728 -1.5869
  446SOL     OW 1336   2.161   1.073   1.396  0.1090 -0.6280 -0.3683
  446SOL    HW1 1337   2.195   1.028   1.313 -0.8436  1.1939  5.7032
  446SOL    HW2 1338   2.172   1.175   1.395 -0.7729 -1.2311  0.1933
  447SOL     OW 1339   0.300   0.596   0.082 -0.1451 -0.4588 -0.3043
  447SOL    HW1 1340   0.212   0.574   0.132 -0.5759 -0.1081 -2.1647
  447SOL    HW2 1341   0.296   0.563   3.080  3.5506 -0.8406  0.3952
  448SOL     OW 1342   1.165   2.234   1.639 -0.1001  0.2473 -0.0315
  448SOL    HW1 1343   1.231   2.204   1.713  0.7986 -1.8637  0.5924
  448SOL    HW2 1344   1.204   2.306   1.582 -1.1853 -5.1363  0.9603
  449SOL     OW 1345   1.306   1.433   0.553  0.0484  0.0289 -0.0228
  449SOL    HW1 1346   1.324   1.393   0.642 -1.2777 -0.0439  0.3405
  449SOL    HW2 1347   1.359   1.395   0.474 -0.4035 -1.3414  0.1620
  450SOL     OW 1348   2.632   1.857   1.934  0.3960 -0.3482  0.5038
  450SOL    HW1 1349   2.588   1.940   1.970  1.2589 -2.9995  0.2247
  450SOL    HW2 1350   2.719   1.840   1.988  1.8684  0.3684  1.0107
  451SOL     OW 1351   2.928   1.372   2.837 -0.2305 -0.8925 -0.0175
  451SOL    HW1 1352   3.021   1.402   2.862 -2.2973  1.5920  0.9007
  451SOL    HW2 1353   2.911   1.272   2.866 -1.2173 -2.1610 -1.3618
  452SOL     OW 1354   1.441   0.857   1.250  0.1334  0.3227 -0.0745
  452SOL    HW1 1355   1.407   0.806   1.169 -0.4141  1.3022 -2.4973
  452SOL    HW2 1356   1.433   0.956   1.227  1.1629  1.4182  0.6807
  453SOL     OW 1357   2.037   1.022   0.969 -0.4046  0.3581 -0.3593
  453SOL    HW1 1358   1.957   0.981   1.017  0.5022 -1.0586  2.8320
  453SOL    HW2 1359   2.040   1.121   0.977 -0.6385 -2.8917 -2.9522
  454SOL     OW 1360   2.900   0.907   0.409  0.2892 -0.0461 -0.6223
  454SOL    HW1 1361   2.912   0.932   0.311 -1.4903  1.3310  0.0043
  454SOL    HW2 1362   2.835   0.979   0.447 -2.6783  0.2795  1.5372
  455SOL     OW 1363   2.902   2.432   0.923  0.0958  0.4083 -0.3716
  455SOL    HW1 1364   2.885   2.372   0.844  0.0566  0.5157 -1.2515
  455SOL    HW2 1365   2.818   2.442   0.982  1.4082  0.7648  1.5386
  456SOL     OW 1366   0.844   2.906   1.203  0.0586 -0.2633  0.3498
  456SOL    HW1 1367   0.749   2.880   1.234 -1.4906  0.9736  1.2853
  456SOL    HW2 1368   0.899   2.957   1.272 -0.0312 -0.1780 -1.7027
  457SOL     OW 1369   1.836   2.835   0.982  0.2935 -0.6370 -0.0705
  457SOL    HW1 1370   1.846   2.904   0.904 -1.4115  0.7463 -2.2246
  457SOL    HW2 1371   1.772   2.757   0.968  1.1811  0.8104 -0.3480
  458SOL     OW 1372   2.628   0.216   0.858  0.4920  0.1642 -0.3062
  458SOL    HW1 1373   2.631   0.206   0.960 -0.3140 -1.6970  0.4906
  458SOL    HW2 1374   2.669   0.305   0.838 -0.4350 -0.1368  1.1128
  459SOL     OW 1375   1.993   0.720   0.081 -0.0943 -0.5243  0.0669
  459SOL    HW1 1376   2.002   0.778   0.001  1.2351  1.1383  1.6080
  459SOL    HW2 1377   2.066   0.746   0.152 -0.6009  1.7519  0.3958
  460SOL     OW 1378   2.957   2.261   2.893 -0.3663 -0.2685  0.4274
  460SOL    HW1 1379   2.947   2.327   2.966  3.5271 -1.4803 -2.3600
  460SOL    HW2 1380   3.063   2.253   2.878  1.1519 -0.9205 -0.9947
  461SOL     OW 1381   0.674   1.734   0.326  0.5875 -0.1311 -0.1645
  461SOL    HW1 1382   0.723   1.774   0.403 -2.7537 -0.0983 -0.4264
  461SOL    HW2 1383   0.736   1.679   0.270 -0.1964 -1.2225 -0.4133
  462SOL     OW 1384   2.476   2.522   0.629  0.3737 -0.4814  0.6359
  462SOL    HW1 1385   2.549   2.581   0.661 -0.4090 -0.9183 -0.8490
  462SOL    HW2 1386   2.387   2.556   0.658 -0.2475 -0.6407 -3.6102
  463SOL     OW 1387   2.827   0.566   0.632 -0.1219  0.0083 -0.4895
  463SOL    HW1 1388   2.801   0.536   0.726  2.3511 -2.9440 -1.2956
  463SOL    HW2 1389   2.852   0.667   0.622  0.7016  0.4164 -2.5735
  464SOL     OW 1390   0.997   2.727   0.216  0.1495  0.0734  0.4157
  464SOL    HW1 1391   0.934   2.681   0.283 -1.2508  2.5408 -1.8208
  464SOL    HW2 1392   0.963   2.821   0.193 -0.9210 -0.5013 -1.2190
  465SOL     OW 1393   2.375   0.903   0.618  0.2856  0.0697  0.6739
  465SOL    HW1 1394   2.296   0.895   0.681 -0.0122  0.7530  2.0744
  465SOL    HW2 1395   2.355   0.964   0.540 -0.1995 -0.5825  3.4014
  466SOL     OW 1396   2.416   2.963   0.072  0.0454  0.7045 -0.2435
  466SOL    HW1 1397   2.443   2.996   3.074 -0.7869 -0.7624  1.2941
  466SOL    HW2 1398   2.389   2.864   0.066  0.6474  1.2655 -1.5263
  467SOL     OW 1399   0.941   0.525   1.685  1.0012 -0.1699  0.2761
  467SOL    HW1 1400   0.854   0.563   1.643  1.1302 -1.0709  0.0512
  467SOL    HW2 1401   1.020   0.590   1.673 -1.8289  1.2053  0.4244
  468SOL     OW 1402   0.137   0.439   2.287 -0.3433 -0.2511  0.9970
  468SOL    HW1 1403   0.193   0.483   2.362 -0.3631 -0.2919  3.9449
  468SOL    HW2 1404   0.075   0.508   2.244 -1.7355  1.5147  2.5554
  469SOL     OW 1405   0.775   2.997   2.665  0.0080  0.4364 -0.3921
  469SOL    HW1 1406   0.782   3.092   2.709  1.2675  4.0989  1.7439
  469SOL    HW2 1407   0.784   2.998   2.563 -0.6357  1.4368  0.2857
  470SOL     OW 1408   1.717   1.461   2.272  0.1943  0.4618  0.1768
  470SOL    HW1 1409   1.619   1.475   2.288  3.2056  0.2691 -0.5864
  470SOL    HW2 1410   1.781   1.508   2.336 -0.4341 -3.2885 -0.3919
  471SOL     OW 1411   2.677   1.131   2.743  0.0272  0.5904 -0.0313
  471SOL    HW1 1412   2.702   1.209   2.687 -0.4217 -2.7045  1.9710
  471SOL    HW2 1413   2.631   1.149   2.835 -1.5706 -1.5784  0.8216
  472SOL     OW 1414   0.550   2.447   0.291  0.0097  0.3794 -0.3097
  472SOL    HW1 1415   0.533   2.544   0.317  1.1667  2.0802 -2.5938
  472SOL    HW2 1416   0.555   2.386   0.373  2.4598 -0.5351  2.8504
  473SOL     OW 1417   0.798   3.003   3.049  0.0821 -0.1477  0.3267
  473SOL    HW1 1418   0.727   2.937   3.019  1.6880 -2.1869 -1.9187
  473SOL    HW2 1419   0.770   3.049   0.042  0.2032  0.0682 -0.5263
  474SOL     OW 1420   1.656   0.377   2.164  0.6571 -1.0511 -0.7264
  474SOL    HW1 1421   1.564   0.387   2.116  0.2598 -1.2030 -0.1921
  474SOL    HW2 1422   1.646   0.315   2.242  2.4646 -0.9564 -3.6222
  475SOL     OW 1423   0.645   2.809   0.205 -0.0017 -0.7189  0.0994
  475SOL    HW1 1424   0.618   2.773   0.298 -0.1439  1.1480  3.1665
  475SOL    HW2 1425   0.738   2.854   0.216  1.2645  0.0036  0.1941
  476SOL     OW 1426   0.269   0.774   1.015 -0.0898 -0.2528  0.2178
  476SOL    HW1 1427   0.239   0.867   0.979 -0.4230  0.0238  0.4572
  476SOL    HW2 1428   0.319   0.717   0.949 -1.2021 -0.8042  0.3622
  477SOL     OW 1429   1.625   2.130   1.236 -0.4171  0.3785 -0.4678
  477SOL    HW1 1430   1.671   2.219   1.247  1.2601  1.4178 -0.1544
  477SOL    HW2 1431   1.608   2.091   1.331 -2.9798 -1.5630  3.2606
  478SOL     OW 1432   0.752   1.204   2.001 -0.5115  0.3658 -0.3938
  478SOL    HW1 1433   0.712   1.203   2.094  4.7844  2.7967  0.3532
  478SOL    HW2 1434   0.739   1.117   1.948  2.7272 -0.9213 -1.8393
  479SOL     OW 1435   0.612   0.015   0.997 -0.3405  0.2129  0.6413
  479SOL    HW1 1436   0.540   0.011   0.928  0.1243  0.0023  2.3334
  479SOL    HW2 1437   0.647   3.016   1.014  1.6484 -0.2313 -0.2099
  480SOL     OW 1438   2.394   2.446   0.150  0.2699 -0.5767 -0.2414
  480SOL    HW1 1439   2.442   2.428   0.237  1.2285 -1.0197 -0.4488
  480SOL    HW2 1440   2.435   2.408   0.069  2.2050 -0.7633 -1.1939
  481SOL     OW 1441   2.832   0.280   1.298  0.1512  0.5618 -0.2530
  481SOL    HW1 1442   2.847   0.368   1.251  0.1302 -0.1758 -1.6409
  481SOL    HW2 1443   2.930   0.244   1.325  4.9857 -0.8654  0.2597
  482SOL     OW 1444   1.502   2.403   2.083  0.3018  0.0572 -0.6922
  482SOL    HW1 1445   1.419   2.455   2.063  3.9740  0.6522  0.0235
  482SOL    HW2 1446   1.505   2.380   2.182 -1.4691 -0.0665  0.1637
  483SOL     OW 1447   0.383   1.413   2.774 -0.4410  0.4232 -0.1618
  483SOL    HW1 1448   0.408   1.479   2.702  0.1196  0.4349  1.4978
  483SOL    HW2 1449   0.370   1.320   2.729  0.2495 -1.7219 -0.2036
  484SOL     OW 1450   0.989   1.600   2.020  0.2323  0.3231  0.1241
  484SOL    HW1 1451   1.048   1.523   1.987 -0.9103 -0.2784 -2.2851
  484SOL    HW2 1452   0.894   1.581   1.987  0.8591 -1.0991 -1.0004
  485SOL     OW 1453   2.956   0.364   2.915 -0.1938  0.1370 -0.3820
  485SOL    HW1 1454   2.929   0.459   2.937 -1.6754 -0.0733 -0.0551
  485SOL    HW2 1455   2.920   0.306   2.988 -2.1422  1.7865  0.5590
  486SOL     OW 1456   1.543   2.913   0.520  0.0171  0.0151  0.1766
  486SOL    HW1 1457   1.582   2.993   0.478  4.8131 -0.2353 -3.1036
  486SOL    HW2 1458   1.455   2.890   0.480 -0.3624 -1.1822 -0.2313
  487SOL     OW 1459   1.215   2.421   0.915 -0.0423  0.4423 -0.1682
  487SOL    HW1 1460   1.287   2.346   0.922  1.4267  1.8726 -0.3783
  487SOL    HW2 1461   1.253   2.515   0.934 -1.2442  1.9157  1.0293
  488SOL     OW 1462   2.055   0.958   0.334 -0.0437  0.3573  0.0851
  488SOL    HW1 1463   2.040   1.039   0.278 -1.2314 -1.1991  1.6815
  488SOL    HW2 1464   2.126   0.897   0.302 -1.2389  1.4743  0.6310
  489SOL     OW 1465   1.238   2.769   1.230  0.4140 -0.6071 -0.3376
  489SOL    HW1 1466   1.308   2.696   1.233 -3.3613 -0.7713 -0.7473
  489SOL    HW2 1467   1.230   2.806   1.326 -1.3590 -0.2214 -0.3335
  490SOL     OW 1468   0.950   0.877   0.205 -0.5498  0.2058 -0.4296
  490SOL    HW1 1469   0.957   0.795   0.263 -1.5244 -0.0987  0.8616
  490SOL    HW2 1470   1.013   0.870   0.126  0.3213  0.1317  0.1034
  491SOL     OW 1471   1.468   2.725   0.223 -0.4522 -0.2509 -0.3619
  491SOL    HW1 1472   1.401   2.785   0.269  1.7053  0.6703 -1.8560
  491SOL    HW2 1473   1.432   2.709   0.128 -0.2606 -0.3012 -3.6172
  492SOL     OW 1474   1.224   1.204   2.129  0.2597  0.1610  0.4094
  492SOL    HW1 1475   1.222   1.251   2.045  1.1082 -0.4672 -0.4233
  492SOL    HW2 1476   1.189   1.109   2.118  1.2154 -1.5347 -1.5141
  493SOL     OW 1477   0.128   1.942   0.275  0.4900 -0.0526 -0.1454
  493SOL    HW1 1478   0.082   1.932   0.184  1.0344 -1.5816 -2.5469
  493SOL    HW2 1479   0.127   1.852   0.329 -0.8480 -0.4993 -0.8816
  494SOL     OW 1480   2.049   1.395   0.311  0.6687  0.2475 -0.6686
  494SOL    HW1 1481   2.023   1.469   0.251 -0.0033  0.1959 -0.5826
  494SOL    HW2 1482   2.045   1.308   0.258  1.2068  3.5789 -0.3446
  495SOL     OW 1483   0.077   1.080   2.736 -0.1645  0.3166 -0.0833
  495SOL    HW1 1484   0.078   0.981   2.707  0.5065 -2.0254  0.0564
  495SOL    HW2 1485   0.021   1.096   2.818 -0.9186 -0.3749 -0.9443
  496SOL     OW 1486   2.905   3.046   2.178 -0.3603 -0.7473 -0.4606
  496SOL    HW1 1487   2.991   0.000   2.153  0.0181 -0.7169 -0.2639
  496SOL    HW2 1488   2.836   0.009   2.225  4.4827 -2.9400 -1.2948
  497SOL     OW 1489   2.602   0.935   0.977 -0.0965  0.5006 -0.3235
  497SOL    HW1 1490   2.522   0.876   1.000 -1.4654  1.0510  1.1324
  497SOL    HW2 1491   2.590   0.977   0.884 -0.3632 -0.7295 -1.6308
  498SOL     OW 1492   0.555   2.366   0.021 -0.1556  0.0130 -0.5246
  498SOL    HW1 1493   0.541   2.268   0.002  1.6356 -0.0563  0.0352
  498SOL    HW2 1494   0.514   2.379   0.112  2.0038 -0.7190 -4.1058
  499SOL     OW 1495   1.096   2.357   0.676 -0.3158  0.3533  0.6708
  499SOL    HW1 1496   1.132   2.387   0.765 -0.8400  3.0225 -0.9305
  499SOL    HW2 1497   1.075   2.256   0.685  3.6478 -1.7700 -0.9662
  500SOL     OW 1498   0.994   0.299   2.549  0.1745 -0.6228 -0.7573
  500SOL    HW1 1499   1.055   0.221   2.521  0.7487  1.7564 -0.3015
  500SOL    HW2 1500   1.028   0.382   2.508  0.0523 -2.0756  2.8528
  501SOL     OW 1501   1.063   3.059   1.329  0.1176  0.1671  0.0795
  501SOL    HW1 1502   1.163   3.044   1.342  2.7823  1.4718  0.3332
  501SOL    HW2 1503   1.007   3.077   1.415 -0.7930 -0.1060  0.0156
  502SOL     OW 1504   0.077   0.254   2.094 -0.1948 -0.1085 -0.1006
  502SOL    HW1 1505   0.098   0.155   2.112  1.2390  0.9391 -1.3852
  502SOL    HW2 1506   0.120   0.321   2.157 -0.1787  0.1865 -1.0968
  503SOL     OW 1507   1.930   2.255   2.361 -0.3197  0.0162 -0.2541
  503SOL    HW1 1508   1.874   2.333   2.396  1.2695  0.4707 -2.0996
  503SOL    HW2 1509   1.907   2.167   2.409 -0.4032 -1.1500 -0.7394
  504SOL     OW 1510   1.896   0.423   1.816  0.2617  0.0260  0.1078
  504SOL    HW1 1511   1.864   0.517   1.851  0.5776  1.2868 -0.1188
  504SOL    HW2 1512   1.996   0.414   1.833  0.7004 -2.0105  1.4242
  505SOL     OW 1513   2.717   1.117   1.805 -0.5184 -0.1759  0.0517
  505SOL    HW1 1514   2.762   1.070   1.729 -0.8652  0.9244 -1.1486
  505SOL    HW2 1515   2.635   1.165   1.770 -0.4566 -0.5764 -1.3936
  506SOL     OW 1516   0.362   1.470   2.491 -0.5463  0.0160 -0.1623
  506SOL    HW1 1517   0.271   1.427   2.498 -0.8040 -0.6374  0.2961
  506SOL    HW2 1518   0.420   1.420   2.424  1.2441 -0.1465 -0.1350
  507SOL     OW 1519   0.269   2.871   2.216 -0.4436  0.1454  0.1680
  507SOL    HW1 1520   0.348   2.931   2.239 -0.6972 -1.0661  0.9012
  507SOL    HW2 1521   0.233   2.810   2.292  2.4373 -0.1269 -0.5380
  508SOL     OW 1522   1.384   0.750   1.575  0.3072 -0.3777  0.4302
  508SOL    HW1 1523   1.377   0.851   1.550 -1.0230 -1.6107  0.5028
  508SOL    HW2 1524   1.483   0.724   1.596 -0.6330  1.3067 -0.1903
  509SOL     OW 1525   0.902   1.843   1.246  0.1587  0.0129 -0.0200
  509SOL    HW1 1526   0.924   1.910   1.319  0.6358  1.3016  0.9077
  509SOL    HW2 1527   0.836   1.776   1.285  0.1097  0.9811  2.3372
  510SOL     OW 1528   2.584   1.001   2.517  0.4434  0.3331  0.2168
  510SOL    HW1 1529   2.613   1.037   2.604  2.1712 -1.3024 -0.4149
  510SOL    HW2 1530   2.511   0.930   2.530 -0.0092  0.1145 -4.2446
  511SOL     OW 1531   0.539   1.280   1.222  0.3305  0.2580 -0.2076
  511SOL    HW1 1532   0.507   1.360   1.274 -1.3333 -1.0047 -1.5219
  511SOL    HW2 1533   0.482   1.264   1.141 -1.3055  1.3496  1.5627
  512SOL     OW 1534   2.828   2.287   0.710 -0.4495 -0.0461  0.4801
  512SOL    HW1 1535   2.876   2.202   0.723 -0.6026  2.2298 -1.1868
  512SOL    HW2 1536   2.731   2.276   0.732  0.0573 -0.5166  0.6753
  513SOL     OW 1537   0.501   1.366   3.018 -0.2438 -0.2607 -0.1774
  513SOL    HW1 1538   0.498   1.277   3.070 -0.3445  1.2977  1.6979
  513SOL    HW2 1539   0.455   1.364   2.929  1.3060 -2.3537  0.0180
  514SOL     OW 1540   0.311   2.480   3.025  0.5815  0.3810 -0.1387
  514SOL    HW1 1541   0.296   2.569   2.974 -0.6858  0.2446 -3.0483
  514SOL    HW2 1542   0.414   2.473   3.046  2.5027  2.4899 -0.0905
  515SOL     OW 1543   1.501   1.112   2.279  0.0241 -0.1652  0.5366
  515SOL    HW1 1544   1.417   1.136   2.229 -2.8366  2.8768  1.7079
  515SOL    HW2 1545   1.487   1.044   2.356 -3.1399 -1.2815  1.6073
  516SOL     OW 1546   2.320   2.185   0.595  0.1592  0.4970 -0.0660
  516SOL    HW1 1547   2.407   2.198   0.647  1.8724  2.1823  2.7608
  516SOL    HW2 1548   2.339   2.141   0.505  1.9770 -2.5950  5.1867
  517SOL     OW 1549   1.470   1.055   0.422  0.3345  0.4543  0.2582
  517SOL    HW1 1550   1.447   1.062   0.521  2.2218 -2.1493 -1.0030
  517SOL    HW2 1551   1.484   1.148   0.380  1.7176 -0.0005 -1.8026
  518SOL     OW 1552   2.213   2.468   2.226  0.1176 -0.5133  0.8487
  518SOL    HW1 1553   2.127   2.525   2.249 -0.6417  0.9159  0.9287
  518SOL    HW2 1554   2.260   2.451   2.316  2.6715  2.8128 -0.1120
  519SOL     OW 1555   1.786   2.341   1.218  0.4036 -0.2176 -0.1689
  519SOL    HW1 1556   1.878   2.385   1.226 -1.8696  0.4084  0.8321
  519SOL    HW2 1557   1.718   2.422   1.203 -1.8116  1.4734 -2.6016
  520SOL     OW 1558   2.496   2.362   2.657 -0.0304 -0.3561 -0.6064
  520SOL    HW1 1559   2.580   2.412   2.645 -2.9423  1.4029  1.8533
  520SOL    HW2 1560   2.430   2.389   2.587 -0.5362  2.5094  0.3364
  521SOL     OW 1561   0.238   1.397   2.043  0.3661  0.0108 -0.0442
  521SOL    HW1 1562   0.283   1.431   1.963 -1.6923 -0.7996 -1.5636
  521SOL    HW2 1563   0.140   1.425   2.045  0.2626  1.0642  1.0084
  522SOL     OW 1564   0.995   0.463   1.974  0.7502  0.3607  0.6551
  522SOL    HW1 1565   0.952   0.486   1.884  1.0303 -1.2614 -2.0595
  522SOL    HW2 1566   1.014   0.362   1.983 -1.1773 -0.1716 -2.1323
  523SOL     OW 1567   0.558   2.357   0.895 -0.2112  0.2660  0.2550
  523SOL    HW1 1568   0.521   2.262   0.900 -0.4137 -0.2714  1.0539
  523SOL    HW2 1569   0.494   2.421   0.852 -1.9313 -2.9822 -0.0818
  524SOL     OW 1570   1.726   2.749   0.648 -0.5847  0.0955  0.1140
  524SOL    HW1 1571   1.827   2.781   0.631  2.7595  2.0099  0.3384
  524SOL    HW2 1572   1.656   2.813   0.605 -3.5572  0.5583 -1.2729
  525SOL     OW 1573   2.384   0.890   1.520 -0.3134 -0.1630 -0.4111
  525SOL    HW1 1574   2.445   0.933   1.452  1.6011 -2.5082 -1.2733
  525SOL    HW2 1575   2.341   0.958   1.587 -0.0037 -2.1185 -1.5378
  526SOL     OW 1576   0.972   2.596   0.683  0.4674  0.1777 -0.3763
  526SOL    HW1 1577   0.993   2.496   0.670  1.3510  0.4776 -1.5488
  526SOL    HW2 1578   0.939   2.635   0.595  0.3724 -0.4093  0.8233
  527SOL     OW 1579   2.791   2.337   0.355  0.0961  0.5664 -0.3966
  527SOL    HW1 1580   2.824   2.395   0.436 -1.7047  2.4816 -0.5974
  527SOL    HW2 1581   2.844   2.348   0.273 -1.8906  0.9225  0.8313
  528SOL     OW 1582   2.257   0.184   0.309  0.0010 -0.5721  0.2591
  528SOL    HW1 1583   2.156   0.172   0.327 -0.7530  0.2177  0.1292
  528SOL    HW2 1584   2.310   0.128   0.376 -1.0764  0.0230  1.4042
  529SOL     OW 1585   1.475   1.551   2.339 -0.2995 -0.1613  0.8638
  529SOL    HW1 1586   1.469   1.648   2.375  1.9661 -1.7148 -1.2592
  529SOL    HW2 1587   1.419   1.546   2.255 -1.9546  0.0715 -2.9670
  530SOL     OW 1588   2.473   0.592   2.763 -0.5337 -0.3878 -0.4170
  530SOL    HW1 1589   2.524   0.506   2.754  0.3391 -0.6142  1.2651
  530SOL    HW2 1590   2.504   0.646   2.841  1.0599 -0.0924  1.7912
  531SOL     OW 1591   1.441   0.974   3.037  0.1799 -0.1433 -0.3558
  531SOL    HW1 1592   1.390   0.967   0.032 -0.4169  0.2957 -0.5529
  531SOL    HW2 1593   1.401   0.907   2.970 -1.1987 -2.5473 -1.4108
  532SOL     OW 1594   1.788   0.508   0.856  0.0039  0.2794 -0.1032
  532SOL    HW1 1595   1.762   0.598   0.901  3.2241  0.2982  0.3957
  532SOL    HW2 1596   1.710   0.463   0.815  0.7109  0.9768 -0.8237
  533SOL     OW 1597   0.959   0.919   1.915 -0.2233 -0.4117 -0.2566
  533SOL    HW1 1598   0.986   0.967   1.998  0.9284 -0.4826 -0.6744
  533SOL    HW2 1599   1.047   0.898   1.867  2.2321  1.1246 -2.0036
  534SOL     OW 1600   1.513   0.386   2.612 -0.1737  0.4745  0.2261
  534SOL    HW1 1601   1.443   0.335   2.659  0.1021  0.5870 -2.4649
  534SOL    HW2 1602   1.612   0.364   2.640  4.1442 -1.0965 -0.4098
  535SOL     OW 1603   0.404   0.347   0.420  0.2462 -0.3191 -0.5274
  535SOL    HW1 1604   0.444   0.369   0.329 -0.8085  0.6468  0.1860
  535SOL    HW2 1605   0.334   0.275   0.407  1.1631  0.5085  0.4126
  536SOL     OW 1606   1.108   0.094   0.643 -0.0924 -0.9421  1.2847
  536SOL    HW1 1607   1.172   0.164   0.600  0.8835  2.6180  0.8158
  536SOL    HW2 1608   1.074   0.125   0.736  0.8220  0.4450  0.4981
  537SOL     OW 1609   1.716   1.158   0.767  0.2342 -0.0910  0.0680
  537SOL    HW1 1610   1.735   1.255   0.789 -0.9153  0.2736 -0.6633
  537SOL    HW2 1611   1.792   1.100   0.737 -2.1101  0.9330  0.4822
  538SOL     OW 1612   3.015   2.034   0.019  0.0768 -0.2279 -0.5141
  538SOL    HW1 1613   3.012   1.946   0.073 -1.9098 -2.1346  0.4747
  538SOL    HW2 1614   3.036   2.023   3.013  2.3312  0.6070  2.0903
  539SOL     OW 1615   2.299   1.751   0.251  0.1154 -0.2641 -0.6370
  539SOL    HW1 1616   2.303   1.795   0.159 -0.4764 -2.4985 -2.0391
  539SOL    HW2 1617   2.392   1.724   0.291  0.1458  0.8809  2.1658
  540SOL     OW 1618   0.377   2.666   1.358  0.1337  0.1441 -0.1622
  540SOL    HW1 1619   0.343   2.608   1.280 -1.9656 -1.0769 -2.6840
  540SOL    HW2 1620   0.290   2.689   1.414  0.1008  3.1038  0.2943
  541SOL     OW 1621   1.954   0.003   2.323  0.2768 -0.4089 -0.8205
  541SOL    HW1 1622   1.948   3.015   2.383 -1.5570 -4.2012 -0.4021
  541SOL    HW2 1623   1.875   3.087   2.261  1.4167 -2.1604 -0.2520
  542SOL     OW 1624   2.723   0.422   2.580 -0.4313  0.5457  0.3027
  542SOL    HW1 1625   2.788   0.383   2.512 -1.4905  1.1130 -2.4656
  542SOL    HW2 1626   2.642   0.461   2.527 -2.1196  2.4925  0.8726
  543SOL     OW 1627   0.127   0.924   0.666  0.7971 -0.0827 -0.2692
  543SOL    HW1 1628   0.187   0.901   0.590 -2.8420 -0.3052  2.6892
  543SOL    HW2 1629   0.054   0.852   0.667  3.3240 -0.6692  0.6915
  544SOL     OW 1630   3.044   3.087   1.228  0.4189 -0.0805 -0.2184
  544SOL    HW1 1631   3.036   0.017   1.129 -0.7000  0.5246  0.6375
  544SOL    HW2 1632   2.980   3.010   1.248 -0.3142  1.7963 -2.6544
  545SOL     OW 1633   1.511   2.305   0.609  0.4019  0.2346  0.2964
  545SOL    HW1 1634   1.552   2.398   0.588 -0.1115  1.9286  0.2323
  545SOL    HW2 1635   1.446   2.274   0.537 -2.0107  2.6979 -2.1907
  546SOL     OW 1636   1.862   2.949   1.913 -0.1287  0.0189 -0.5345
  546SOL    HW1 1637   1.946   2.901   1.880 -0.4230 -2.7760 -1.4837
  546SOL    HW2 1638   1.875   2.972   2.012  1.3362  2.6567  3.4102
  547SOL     OW 1639   0.335   0.120   2.279  0.1537 -0.3495  0.1574
  547SOL    HW1 1640   0.385   0.073   2.357  0.3587 -1.3309  1.5634
  547SOL    HW2 1641   0.388   0.129   2.191  1.6605  2.0739  0.1796
  548SOL     OW 1642   1.981   1.521   2.892  0.2548 -0.0688 -0.3332
  548SOL    HW1 1643   1.983   1.611   2.943 -1.8256  1.2813  2.1057
  548SOL    HW2 1644   1.919   1.529   2.812  0.0413  1.6594  2.2598
  549SOL     OW 1645   2.964   0.809   0.650  0.1160  0.3495  0.1499
  549SOL    HW1 1646   2.935   0.856   0.562  0.2765  1.8884 -1.4451
  549SOL    HW2 1647   2.924   0.861   0.730 -2.4488  2.3750  1.0031
  550SOL     OW 1648   1.720   1.981   0.589 -0.7137  0.0817  0.1377
  550SOL    HW1 1649   1.637   1.965   0.531  0.8729 -0.0632  1.6274
  550SOL    HW2 1650   1.765   2.067   0.560 -0.7901  0.7193  1.7799
  551SOL     OW 1651   1.376   0.509   0.958 -0.1785 -0.7519 -0.4497
  551SOL    HW1 1652   1.280   0.468   0.952 -2.0376 -1.1107 -1.5839
  551SOL    HW2 1653   1.444   0.496   0.874 -0.4702  0.7419 -3.2125
  552SOL     OW 1654   2.677   2.685   2.382  0.4432  0.3524 -0.7841
  552SOL    HW1 1655   2.743   2.733   2.327 -4.6791 -1.1511  0.3235
  552SOL    HW2 1656   2.595   2.746   2.389 -0.6015 -0.1399 -1.4391
  553SOL     OW 1657   0.090   3.003   2.507 -0.4174 -0.3861 -0.1626
  553SOL    HW1 1658   0.101   0.008   2.475  3.5329  1.4066  0.7253
  553SOL    HW2 1659   3.087   2.980   2.520  4.3344 -0.0192  2.4106
  554SOL     OW 1660   1.029   2.812   1.055  0.0627  0.1149  0.0496
  554SOL    HW1 1661   0.956   2.856   1.115  1.8604 -1.4954  0.5854
  554SOL    HW2 1662   1.109   2.791   1.111 -1.4901 -2.6964 -4.0315
  555SOL     OW 1663   2.342   2.497   1.991 -0.1079 -0.3619 -0.6024
  555SOL    HW1 1664   2.409   2.577   1.992 -0.1233  1.6789  1.0734
  555SOL    HW2 1665   2.292   2.488   2.079  2.2966 -0.5912 -0.8715
  556SOL     OW 1666   1.144   0.074   2.751  0.5798 -0.2697 -0.6908
  556SOL    HW1 1667   1.225   0.129   2.781 -1.0426 -1.1501  0.1209
  556SOL    HW2 1668   1.127   0.084   2.649 -0.9017  0.8321 -0.1332
  557SOL     OW 1669   0.235   1.899   2.410  0.5357 -0.0490 -0.5372
  557SOL    HW1 1670   0.176   1.962   2.458  2.2577  0.1895  0.1447
  557SOL    HW2 1671   0.262   1.822   2.468  0.9829  1.9819 -0.6394
  558SOL     OW 1672   2.090   1.059   2.366 -0.4654 -0.8210 -0.5572
  558SOL    HW1 1673   2.173   1.001   2.364  0.0991 -1.6252  1.6095
  558SOL    HW2 1674   2.097   1.136   2.303 -2.5412 -2.1795  0.6010
  559SOL     OW 1675   2.571   2.301   2.062 -0.5327  0.3455 -0.0199
  559SOL    HW1 1676   2.597   2.364   2.142  0.1395 -0.7546  0.4713
  559SOL    HW2 1677   2.541   2.355   1.984  0.8016  0.0216  0.6281
  560SOL     OW 1678   2.682   0.941   2.262 -0.4599  0.1688 -0.0000
  560SOL    HW1 1679   2.634   0.964   2.352 -2.1538 -2.6134  1.8097
  560SOL    HW2 1680   2.776   0.911   2.291  0.3281  1.0007  1.9059
  561SOL     OW 1681   0.493   0.507   0.611  0.4306  0.1446  0.5680
  561SOL    HW1 1682   0.575   0.552   0.566  0.9163  4.9907  0.1231
  561SOL    HW2 1683   0.457   0.432   0.552 -0.8853  0.1513  0.2890
  562SOL     OW 1684   1.138   1.328   1.445 -0.2134 -0.8643  0.0596
  562SOL    HW1 1685   1.054   1.336   1.499 -0.4712 -1.9215 -1.2216
  562SOL    HW2 1686   1.145   1.239   1.397 -0.3692 -1.2365  1.3600
  563SOL     OW 1687   1.717   2.982   2.963  0.5798  0.7472  0.1109
  563SOL    HW1 1688   1.798   3.037   2.985 -0.8465 -3.3403  0.1238
  563SOL    HW2 1689   1.642   2.998   3.030  0.4643 -2.1407 -2.2338
  564SOL     OW 1690   0.229   2.233   0.906 -0.2159 -0.4037  0.1907
  564SOL    HW1 1691   0.183   2.220   0.999  1.5709  0.5045  2.3697
  564SOL    HW2 1692   0.313   2.173   0.906 -1.8072 -1.2198 -0.8055
  565SOL     OW 1693   0.593   2.279   2.311  0.0667 -0.5720  0.4720
  565SOL    HW1 1694   0.548   2.195   2.282 -0.0063  1.5062  0.8738
  565SOL    HW2 1695   0.543   2.359   2.276 -0.1892 -0.8724  1.3727
  566SOL     OW 1696   1.158   2.690   2.337 -0.0459 -0.4570  0.3077
  566SOL    HW1 1697   1.137   2.725   2.432  0.9994  1.6948  1.9821
  566SOL    HW2 1698   1.080   2.706   2.275  1.9705  3.4024  0.4433
  567SOL     OW 1699   2.304   2.407   1.001  0.1778  0.2799 -0.4588
  567SOL    HW1 1700   2.396   2.366   1.017  0.3947  1.1988 -1.1301
  567SOL    HW2 1701   2.234   2.335   1.012 -1.6549  1.5598 -3.0819
  568SOL     OW 1702   2.013   0.542   0.437 -0.5291  0.2029  0.3737
  568SOL    HW1 1703   1.953   0.624   0.443  0.3180 -2.0774  0.7534
  568SOL    HW2 1704   1.971   0.459   0.474 -0.3256 -0.5659  1.3180
  569SOL     OW 1705   0.039   1.612   2.650 -0.3962 -0.0961 -0.3501
  569SOL    HW1 1706   3.080   1.570   2.576  2.6535  3.1089  1.5856
  569SOL    HW2 1707   0.051   1.552   2.730  0.4012 -0.0489  2.8328
  570SOL     OW 1708   0.203   0.055   1.054  0.0018  0.3140 -0.3962
  570SOL    HW1 1709   0.241   0.142   1.025 -1.0146 -0.0513  1.1537
  570SOL    HW2 1710   0.105   0.058   1.028  0.9807  0.6677 -1.0226
  571SOL     OW 1711   2.945   0.638   1.617 -0.4992 -0.0229 -0.2077
  571SOL    HW1 1712   2.983   0.679   1.532  0.3135 -0.5991  1.4298
  571SOL    HW2 1713   2.845   0.638   1.615 -2.0114 -1.1484 -0.0804
  572SOL     OW 1714   0.023   2.604   0.849  0.1023 -0.6051 -0.0294
  572SOL    HW1 1715   3.046   2.529   0.862 -1.2761  3.0562  1.1224
  572SOL    HW2 1716   0.051   2.617   0.754 -2.8902 -3.1128  2.5248
  573SOL     OW 1717   0.869   0.599   3.023  0.2887 -1.1056  0.1255
  573SOL    HW1 1718   0.895   0.504   3.023 -1.5551  4.5604  1.9220
  573SOL    HW2 1719   0.771   0.615   2.990 -0.9370 -1.4409  0.9797
  574SOL     OW 1720   2.900   2.472   3.066  0.1618  0.0257  0.2916
  574SOL    HW1 1721   2.844   2.511   2.986 -1.5259  0.3155 -3.7377
  574SOL    HW2 1722   2.925   2.544   0.037 -2.4831  0.3626 -1.3630
  575SOL     OW 1723   1.146   2.120   1.153  0.3573  0.7268 -0.0097
  575SOL    HW1 1724   1.077   2.162   1.091 -1.5950  1.8309 -2.6385
  575SOL    HW2 1725   1.231   2.173   1.159  0.6905 -1.0720  0.0887
  576SOL     OW 1726   0.562   2.706   1.035  0.1578 -0.2349 -0.4274
  576SOL    HW1 1727   0.576   2.766   1.121  1.4288 -2.1011  0.7041
  576SOL    HW2 1728   0.653   2.695   0.992  5.5434 -2.2764  0.8641
  577SOL     OW 1729   2.086   1.615   1.206  0.6961  0.2893 -0.4204
  577SOL    HW1 1730   2.059   1.710   1.193  0.6871 -1.8166  1.8633
  577SOL    HW2 1731   2.127   1.580   1.121  3.1376  2.1970 -0.0505
  578SOL     OW 1732   1.679   0.396   0.435  0.0405  0.1128 -0.0864
  578SOL    HW1 1733   1.621   0.478   0.457  0.2243  1.4662 -1.2361
  578SOL    HW2 1734   1.716   0.354   0.520  0.7006 -0.7387  2.4920
  579SOL     OW 1735   2.702   1.341   2.542  0.2367  0.5456  0.3083
  579SOL    HW1 1736   2.661   1.424   2.582 -0.5269  0.5349  0.5331
  579SOL    HW2 1737   2.626   1.290   2.491 -1.6890 -1.7022 -0.8257
  580SOL     OW 1738   1.624   0.703   1.651  0.5162 -0.5019 -0.2444
  580SOL    HW1 1739   1.658   0.743   1.739  1.1274 -2.2976  1.2757
  580SOL    HW2 1740   1.655   0.609   1.647 -0.2007  2.9431 -1.3051
  581SOL     OW 1741   0.878   1.130   1.281  0.1994 -0.3522  0.0594
  581SOL    HW1 1742   0.793   1.096   1.327  0.4830 -0.6933  1.0983
  581SOL    HW2 1743   0.955   1.074   1.320 -0.5160 -2.5037 -1.6217
  582SOL     OW 1744   2.736   0.181   2.224  0.0026  0.6362 -0.1794
  582SOL    HW1 1745   2.640   0.218   2.227 -1.3989  1.5870  0.3068
  582SOL    HW2 1746   2.800   0.251   2.184 -0.6988 -0.7472  0.2560
  583SOL     OW 1747   2.473   0.551   2.045 -0.3842  0.1655  0.3393
  583SOL    HW1 1748   2.386   0.501   2.049  1.2147 -1.3073  0.7014
  583SOL    HW2 1749   2.549   0.482   2.035 -0.9760  2.3761 -1.3716
  584SOL     OW 1750   1.334   1.853   2.744  0.6690 -0.7525 -0.0220
  584SOL    HW1 1751   1.373   1.922   2.803  0.0291 -2.7872  0.7812
  584SOL    HW2 1752   1.407   1.791   2.710 -0.8215  0.2154 -1.4929
  585SOL     OW 1753   0.294   0.089   0.299  0.2352  0.3790 -0.1127
  585SOL    HW1 1754   0.240   0.007   0.275  1.0806  0.4577 -0.3926
  585SOL    HW2 1755   0.348   0.120   0.221 -3.5910  0.3504  0.4621
  586SOL     OW 1756   1.545   2.198   2.478 -0.4569 -0.8160  0.4626
  586SOL    HW1 1757   1.473   2.168   2.547  0.3403  0.3038  0.5276
  586SOL    HW2 1758   1.545   2.140   2.396  2.0243  0.1348 -1.8352
  587SOL     OW 1759   2.528   2.418   0.391 -0.0187  0.1898  0.8285
  587SOL    HW1 1760   2.511   2.456   0.488 -0.2907  0.4962  1.7920
  587SOL    HW2 1761   2.628   2.398   0.380  2.2380 -1.2440  1.1831
  588SOL     OW 1762   2.638   0.202   1.134  0.1973  0.0883 -0.1385
  588SOL    HW1 1763   2.714   0.231   1.192 -0.2801  0.1240  3.1650
  588SOL    HW2 1764   2.575   0.278   1.120  1.4448  0.7006  2.2984
  589SOL     OW 1765   0.480   0.650   0.879 -0.2594  0.1524  0.6446
  589SOL    HW1 1766   0.560   0.715   0.878  1.9132 -0.7142  0.5957
  589SOL    HW2 1767   0.477   0.582   0.804 -3.2787 -1.2937 -1.3259
  590SOL     OW 1768   2.231   1.742   0.731 -0.8112 -0.2291  0.7390
  590SOL    HW1 1769   2.331   1.735   0.744  2.6434 -0.2521  0.0811
  590SOL    HW2 1770   2.204   1.677   0.656  3.4597 -1.8385 -1.1697
  591SOL     OW 1771   0.568   2.455   1.147 -0.8870 -0.0538  0.0955
  591SOL    HW1 1772   0.566   2.395   1.062  0.2509  0.4488 -1.4741
  591SOL    HW2 1773   0.574   2.550   1.119  1.6701 -0.5610 -1.0111
  592SOL     OW 1774   1.121   0.798   1.237 -0.1093  0.1995  0.1594
  592SOL    HW1 1775   1.156   0.726   1.300  0.7578  2.8658  1.0660
  592SOL    HW2 1776   1.017   0.789   1.229 -1.6050  0.2463  1.0504
  593SOL     OW 1777   0.796   1.183   1.004  0.2853  0.3199 -0.0030
  593SOL    HW1 1778   0.874   1.184   0.932  1.8886 -0.7655 -4.5854
  593SOL    HW2 1779   0.838   1.175   1.097 -2.6017  0.8668  1.4287
  594SOL     OW 1780   1.067   1.933   0.269  0.0241  0.6453 -0.1057
  594SOL    HW1 1781   0.969   1.932   0.227 -2.8005 -1.2370  1.2610
  594SOL    HW2 1782   1.070   1.857   0.334  2.3456 -1.4077  0.5696
  595SOL     OW 1783   1.597   0.201   1.152  0.1761  0.2025  0.1268
  595SOL    HW1 1784   1.691   0.195   1.112 -0.1778  0.9241  0.0539
  595SOL    HW2 1785   1.578   0.296   1.183  1.4046 -3.2035 -0.4873
  596SOL     OW 1786   0.069   1.653   0.871 -0.2236 -0.1270  0.1464
  596SOL    HW1 1787   0.070   1.623   0.969 -2.9082  0.7606 -1.4452
  596SOL    HW2 1788   0.110   1.747   0.857  1.6054 -1.4658 -0.1900
  597SOL     OW 1789   0.285   2.446   2.724  0.5930  0.3098  0.3872
  597SOL    HW1 1790   0.375   2.420   2.756 -2.7203  0.1754  2.3553
  597SOL    HW2 1791   0.263   2.533   2.771 -2.0236  3.0919 -1.6956
  598SOL     OW 1792   2.710   2.569   2.014 -0.2108 -0.3425 -0.2781
  598SOL    HW1 1793   2.775   2.556   2.094  0.8746 -1.8560  2.4150
  598SOL    HW2 1794   2.737   2.496   1.952  0.5591 -1.4996 -2.9173
  599SOL     OW 1795   0.953   0.343   3.080 -0.0167  1.1608  0.3254
  599SOL    HW1 1796   0.884   0.317   0.059 -1.7758  0.9475 -1.6294
  599SOL    HW2 1797   0.969   0.262   3.017 -0.6719  0.5552 -0.6834
  600SOL     OW 1798   0.681   2.595   0.034 -0.3173 -0.0052 -0.3042
  600SOL    HW1 1799   0.641   2.668   0.092 -0.6219 -0.1052  0.1293
  600SOL    HW2 1800   0.633   2.507   0.057  0.4356 -0.3746 -1.6470
  601SOL     OW 1801   0.368   0.907   1.513  0.4392  0.3747  0.3263
  601SOL    HW1 1802   0.433   0.860   1.447  1.2092 -0.3224 -0.4045
  601SOL    HW2 1803   0.380   0.863   1.603 -2.6863  4.7242 -0.2859
  602SOL     OW 1804   0.830   2.696   0.890 -0.6066  0.9566  0.1218
  602SOL    HW1 1805   0.877   2.676   0.804 -1.1559  0.7607 -0.4494
  602SOL    HW2 1806   0.899   2.711   0.961  0.6916 -0.4404 -1.3761
  603SOL     OW 1807   0.721   0.343   2.262  0.2101 -0.0371  0.0390
  603SOL    HW1 1808   0.730   0.247   2.289 -1.1128  0.7934 -0.8517
  603SOL    HW2 1809   0.655   0.346   2.184  1.1875  0.8472  1.4387
  604SOL     OW 1810   0.753   2.780   1.613  0.2803  0.2458  0.7303
  604SOL    HW1 1811   0.722   2.868   1.563  1.1090  0.1047 -0.8124
  604SOL    HW2 1812   0.697   2.703   1.569 -4.5081  0.6112 -0.2157
  605SOL     OW 1813   1.706   0.911   1.865 -0.0185  0.2212  0.1171
  605SOL    HW1 1814   1.727   1.007   1.838  0.6903 -0.7738 -1.2173
  605SOL    HW2 1815   1.666   0.905   1.955  1.0406 -0.7019 -1.5581
  606SOL     OW 1816   2.573   2.761   2.996  0.8809  0.0600  0.7600
  606SOL    HW1 1817   2.490   2.712   3.027 -1.6576  0.4278  1.9506
  606SOL    HW2 1818   2.553   2.808   2.906 -0.3538 -1.6539  0.7505
  607SOL     OW 1819   0.847   0.745   1.285 -0.3478  0.1771 -0.6582
  607SOL    HW1 1820   0.794   0.813   1.231  1.1969 -1.8075 -0.7811
  607SOL    HW2 1821   0.835   0.762   1.385 -0.3477 -0.4208 -0.7158
  608SOL     OW 1822   0.344   1.870   2.815  0.2548 -0.0887 -0.0331
  608SOL    HW1 1823   0.350   1.973   2.795  2.4131 -0.1297  1.2981
  608SOL    HW2 1824   0.341   1.810   2.731  2.1641  0.0041  0.2763
  609SOL     OW 1825   1.334   0.979   0.201 -0.3655 -0.6471  0.3745
  609SOL    HW1 1826   1.384   1.020   0.279 -1.5150 -1.0577 -1.3168
  609SOL    HW2 1827   1.269   1.048   0.167  3.1932  0.9825  0.3433
  610SOL     OW 1828   0.473   0.445   1.381  0.1121 -0.6075 -0.1807
  610SOL    HW1 1829   0.454   0.362   1.323  1.5790  1.2359 -0.6266
  610SOL    HW2 1830   0.479   0.526   1.320 -1.0025  0.0617  0.3977
  611SOL     OW 1831   1.495   0.890   0.897 -0.0773  0.0231 -0.4578
  611SOL    HW1 1832   1.409   0.853   0.941  0.0118  2.4862  2.1223
  611SOL    HW2 1833   1.529   0.973   0.938  1.0872 -2.2653 -1.9129
  612SOL     OW 1834   1.730   1.005   0.207 -0.8082 -0.2278 -0.7525
  612SOL    HW1 1835   1.719   0.924   0.146  0.8401 -0.6127  1.8484
  612SOL    HW2 1836   1.711   0.978   0.300  1.6230 -0.2444 -0.6570
  613SOL     OW 1837   2.282   0.457   0.450  0.1139 -0.5629 -0.0030
  613SOL    HW1 1838   2.307   0.365   0.418 -0.7544  1.1076 -4.2381
  613SOL    HW2 1839   2.180   0.474   0.456 -0.9755  3.8351  2.2852
  614SOL     OW 1840   2.793   0.053   2.534 -0.2241  0.0917  0.4926
  614SOL    HW1 1841   2.782   0.071   2.432  2.0959  2.0273  0.6578
  614SOL    HW2 1842   2.869   0.107   2.579  1.3318  2.1242 -0.5858
  615SOL     OW 1843   0.786   1.989   1.030  0.0140  0.7454 -0.4309
  615SOL    HW1 1844   0.835   1.938   1.099 -0.4537  2.7474  0.3059
  615SOL    HW2 1845   0.692   2.005   1.065  0.2183  0.1589  1.2978
  616SOL     OW 1846   1.544   1.458   2.591 -0.0725  0.5783 -0.2135
  616SOL    HW1 1847   1.505   1.447   2.497  0.0033  0.3915  1.6054
  616SOL    HW2 1848   1.509   1.382   2.651 -3.0006  1.7883  1.3351
  617SOL     OW 1849   1.599   0.307   2.935  0.3343  0.2945  0.1025
  617SOL    HW1 1850   1.622   0.410   2.936  0.4609 -0.5894  0.1338
  617SOL    HW2 1851   1.622   0.264   3.023  2.5282 -0.6786 -4.0316
  618SOL     OW 1852   1.254   2.179   2.378 -0.6664 -0.4988  0.5396
  618SOL    HW1 1853   1.321   2.122   2.323  0.8924  0.5334  0.3517
  618SOL    HW2 1854   1.269   2.177   2.477  1.1360  1.0066  0.5416
  619SOL     OW 1855   2.659   1.541   0.917 -0.1972  0.6074  0.0270
  619SOL    HW1 1856   2.752   1.581   0.900  1.7305  0.2333 -0.0689
  619SOL    HW2 1857   2.661   1.444   0.915  3.0245  2.1038  0.9200
  620SOL     OW 1858   2.188   2.721   2.459 -0.4360 -0.2558 -0.3183
  620SOL    HW1 1859   2.143   2.775   2.533 -1.4460  0.3595  1.8936
  620SOL    HW2 1860   2.128   2.684   2.388  2.3979 -0.1247  0.1608
  621SOL     OW 1861   2.736   1.298   0.694 -0.0860  1.1833  0.1128
  621SOL    HW1 1862   2.730   1.247   0.780 -0.3849 -0.6448 -0.3635
  621SOL    HW2 1863   2.821   1.356   0.694  3.3526 -0.1778  0.0870
  622SOL     OW 1864   1.459   1.816   2.420  0.2180 -0.1711  0.4146
  622SOL    HW1 1865   1.358   1.839   2.427 -0.8918 -0.0442  1.3150
  622SOL    HW2 1866   1.498   1.792   2.514 -0.0364 -1.5498  3.5443
  623SOL     OW 1867   0.414   2.650   2.472  0.0291  0.2676 -0.1448
  623SOL    HW1 1868   0.474   2.661   2.386  2.6094  0.2228 -0.4116
  623SOL    HW2 1869   0.396   2.553   2.495  1.6217  1.6971 -0.7039
  624SOL     OW 1870   0.794   2.647   2.905  0.3106 -0.4079 -0.5577
  624SOL    HW1 1871   0.808   2.563   2.844 -1.2427 -0.1221 -0.4233
  624SOL    HW2 1872   0.781   2.615   3.002  0.2682 -2.0364 -0.6410
  625SOL     OW 1873   0.332   2.394   1.954 -0.1798 -0.0843 -0.7418
  625SOL    HW1 1874   0.346   2.434   1.862 -2.9927  0.8418 -0.4551
  625SOL    HW2 1875   0.229   2.394   1.976 -3.2743  0.8013 -0.4415
  626SOL     OW 1876   0.086   0.062   3.067 -0.3506 -0.4574 -0.6588
  626SOL    HW1 1877   0.100   0.162   3.076 -1.4271 -0.2029  0.2481
  626SOL    HW2 1878   0.037   0.045   2.979 -1.3324 -0.9378  0.4936
  627SOL     OW 1879   2.109   1.606   0.123 -0.5794 -0.3313 -0.6581
  627SOL    HW1 1880   2.183   1.657   0.171  0.8644  0.4281 -1.6198
  627SOL    HW2 1881   2.065   1.674   0.059 -2.6567  0.5957  0.3680
  628SOL     OW 1882   1.503   1.946   0.222  0.4535 -0.5257 -0.8645
  628SOL    HW1 1883   1.520   1.846   0.245 -0.8781  0.2045  1.0390
  628SOL    HW2 1884   1.443   1.988   0.290  1.9264 -0.3279  0.2172
  629SOL     OW 1885   0.044   0.349   1.543 -0.2339  0.1588  0.3283
  629SOL    HW1 1886   0.076   0.353   1.643  0.5347 -1.7007  1.5322
  629SOL    HW2 1887   3.089   0.440   1.523  1.5214  1.2337  1.8144
  630SOL     OW 1888   2.056   0.954   1.618  0.4694 -0.5581 -0.6508
  630SOL    HW1 1889   2.100   0.987   1.531  0.9660 -2.2363 -1.9932
  630SOL    HW2 1890   2.108   0.880   1.666  1.7558  2.5219 -2.2651
  631SOL     OW 1891   1.804   0.001   0.870  0.2195 -0.2591  0.0221
  631SOL    HW1 1892   1.707   3.058   0.860 -1.3454  0.5490 -1.5416
  631SOL    HW2 1893   1.802   0.103   0.884 -0.6170 -1.8951 -1.1043
  632SOL     OW 1894   2.756   0.903   1.967  0.8096 -0.0290  0.2991
  632SOL    HW1 1895   2.720   0.977   1.906  1.4037 -1.0923  1.6126
  632SOL    HW2 1896   2.747   0.941   2.065 -0.6661  1.0906  2.5555
  633SOL     OW 1897   0.797   0.469   2.676  0.2044 -0.2778  0.3055
  633SOL    HW1 1898   0.846   0.557   2.669 -0.9179  0.7214 -0.5310
  633SOL    HW2 1899   0.842   0.393   2.631 -1.0405  3.5279  0.6586
  634SOL     OW 1900   0.607   2.866   2.935  0.6786  0.0556 -0.2417
  634SOL    HW1 1901   0.672   2.794   2.920  0.0107  3.3230 -0.5932
  634SOL    HW2 1902   0.531   2.851   3.001  0.5503  0.9941 -1.2425
  635SOL     OW 1903   0.019   1.340   1.139 -0.3145  0.6313  0.4956
  635SOL    HW1 1904   0.034   1.443   1.139  0.2172  2.2294 -0.0720
  635SOL    HW2 1905   3.012   1.325   1.126  1.6487 -0.1141 -0.0516
  636SOL     OW 1906   0.084   1.576   0.011  0.3464 -0.0260  0.6352
  636SOL    HW1 1907   0.086   1.484   0.060 -1.4920 -0.3149 -1.4036
  636SOL    HW2 1908   0.184   1.602   3.086  1.2382  1.6834 -0.0871
  637SOL     OW 1909   0.237   2.452   0.214 -0.8818  0.1909 -0.0590
  637SOL    HW1 1910   0.248   2.449   0.114  0.7406  1.6415  2.5451
  637SOL    HW2 1911   0.212   2.362   0.255  0.6401 -0.4847 -0.1052
  638SOL     OW 1912   2.879   2.503   0.559 -0.1936 -0.6288 -0.3459
  638SOL    HW1 1913   2.969   2.531   0.517  0.7490 -0.7547  3.4518
  638SOL    HW2 1914   2.885   2.426   0.628  3.3373 -2.1119  0.9377
  639SOL     OW 1915   1.290   0.721   0.175  0.3710 -0.9991  0.5101
  639SOL    HW1 1916   1.226   0.694   0.100  0.2654  1.8154  0.2405
  639SOL    HW2 1917   1.302   0.822   0.173 -3.4759  3.0271  1.3645
  640SOL     OW 1918   1.836   2.328   1.741  0.6051  0.7068  0.4990
  640SOL    HW1 1919   1.760   2.262   1.734 -0.9100  1.5234  0.9285
  640SOL    HW2 1920   1.851   2.382   1.655 -1.9581  0.4468  2.4755
  641SOL     OW 1921   2.908   2.985   0.608  0.1225  0.3308  0.4670
  641SOL    HW1 1922   2.969   2.940   0.674 -0.9290 -0.2443 -2.0761
  641SOL    HW2 1923   2.873   3.076   0.641  0.0702 -0.4520  0.4136
  642SOL     OW 1924   1.167   0.901   1.760  0.5674 -0.1133 -0.5746
  642SOL    HW1 1925   1.229   0.934   1.835 -2.2769 -1.4090  0.6620
  642SOL    HW2 1926   1.217   0.865   1.681  0.3540  0.1160  2.0222
  643SOL     OW 1927   0.857   1.900   2.545  0.3544  0.3916 -0.4075
  643SOL    HW1 1928   0.951   1.927   2.576 -2.4263  1.0446  0.3775
  643SOL    HW2 1929   0.786   1.933   2.618 -0.9725  0.8938  4.7636
  644SOL     OW 1930   1.124   2.496   2.650  0.1978 -0.1816 -0.4362
  644SOL    HW1 1931   1.101   2.439   2.569  1.2036 -0.2164 -0.1272
  644SOL    HW2 1932   1.115   2.590   2.620 -0.6702 -3.8722  0.7617
  645SOL     OW 1933   1.489   1.181   1.819  0.8833  0.1815 -0.4279
  645SOL    HW1 1934   1.564   1.203   1.884  0.5479 -1.5701  3.4958
  645SOL    HW2 1935   1.527   1.190   1.723  1.9898  1.2136  0.1868
  646SOL     OW 1936   0.949   2.828   2.770  0.1515  0.4056 -0.3809
  646SOL    HW1 1937   0.896   2.769   2.836 -0.1699  0.7603  1.3917
  646SOL    HW2 1938   0.886   2.897   2.726 -1.0369  2.3114 -0.8008
  647SOL     OW 1939   1.097   2.924   0.540  0.3093 -0.2712  0.1732
  647SOL    HW1 1940   1.146   2.856   0.604  2.8748  1.3832 -1.0205
  647SOL    HW2 1941   1.113   3.020   0.574  1.8207 -1.6726  0.4588
  648SOL     OW 1942   2.737   2.857   1.517 -0.0411 -0.3304  0.2305
  648SOL    HW1 1943   2.665   2.867   1.444  1.2394 -2.1121 -0.5901
  648SOL    HW2 1944   2.719   2.788   1.590  1.8982  3.4497  2.5261
  649SOL     OW 1945   0.855   2.420   2.767  0.1695  0.1664  0.5238
  649SOL    HW1 1946   0.938   2.410   2.824 -0.8858  0.8621 -1.4742
  649SOL    HW2 1947   0.783   2.352   2.797 -0.8618 -0.2554  0.0803
  650SOL     OW 1948   2.455   2.077   1.971 -0.3247 -0.2033 -0.1642
  650SOL    HW1 1949   2.386   2.055   2.045 -0.6302  0.6278  1.6799
  650SOL    HW2 1950   2.488   2.171   1.976  1.4210  0.2589 -0.2748
  651SOL     OW 1951   2.955   2.442   2.138 -0.2538  0.0861 -0.4871
  651SOL    HW1 1952   3.023   2.512   2.166 -1.6910 -0.9130 -1.4954
  651SOL    HW2 1953   2.929   2.377   2.216 -2.7332 -2.7911  0.6955
  652SOL     OW 1954   2.587   1.908   0.503  0.5516 -0.3228  0.1996
  652SOL    HW1 1955   2.587   1.943   0.599  0.8477 -0.9233 -0.2856
  652SOL    HW2 1956   2.550   1.978   0.438 -1.2394 -1.6021  2.1412
  653SOL     OW 1957   2.752   0.982   1.183  0.5537  0.4005  0.5835
  653SOL    HW1 1958   2.684   0.973   1.108  0.5499 -2.6546  0.2352
  653SOL    HW2 1959   2.754   0.899   1.239  2.0214 -0.7209  1.6403
  654SOL     OW 1960   0.978   0.088   2.984  0.0608 -0.5573  0.4382
  654SOL    HW1 1961   1.030   0.091   2.895  1.1190  0.3486  0.5104
  654SOL    HW2 1962   0.917   0.004   2.986 -1.5340 -0.8635  1.3364
  655SOL     OW 1963   1.026   0.188   1.171  0.3544  0.2601  0.3045
  655SOL    HW1 1964   1.017   0.113   1.239 -2.5562  1.0027  1.6318
  655SOL    HW2 1965   1.030   0.277   1.216 -0.7084 -2.7909 -2.3021
  656SOL     OW 1966   0.190   2.794   1.979  0.2154  0.1605  0.0864
  656SOL    HW1 1967   0.245   2.818   1.899  2.2464 -0.8609  1.3394
  656SOL    HW2 1968   0.225   2.824   2.069 -2.2202 -0.3898 -0.9245
  657SOL     OW 1969   2.469   0.729   0.087 -0.2371 -0.1661  0.6936
  657SOL    HW1 1970   2.456   0.633   0.118  1.8237  0.1111  1.2848
  657SOL    HW2 1971   2.525   0.731   0.002 -0.9548 -0.6111 -2.0496
  658SOL     OW 1972   2.012   1.826   0.860  0.0136  0.2455 -0.0960
  658SOL    HW1 1973   2.015   1.849   0.960 -3.6883 -0.5241  1.2335
  658SOL    HW2 1974   2.099   1.785   0.821 -1.6412  1.4170  0.0372
  659SOL     OW 1975   2.631   2.213   2.891  0.0727 -0.2457 -0.1991
  659SOL    HW1 1976   2.612   2.281   2.822  1.6847 -4.5914  1.1589
  659SOL    HW2 1977   2.729   2.203   2.900 -1.1444 -1.0519 -1.0085
  660SOL     OW 1978   1.383   0.149   0.032 -0.8989  0.4518 -0.3079
  660SOL    HW1 1979   1.331   0.224   3.083  0.3134  2.9291  1.2365
  660SOL    HW2 1980   1.484   0.179   0.031  1.5360  0.6809 -1.1215
  661SOL     OW 1981   2.305   0.143   0.057  0.3185 -0.2691  0.1648
  661SOL    HW1 1982   2.304   0.171   0.155  3.4310  1.0243  0.2657
  661SOL    HW2 1983   2.354   0.051   0.060  3.3460  2.9398 -0.5270
  662SOL     OW 1984   0.735   0.143   0.713  0.4919 -0.0670  0.6152
  662SOL    HW1 1985   0.712   0.062   0.652 -0.9013 -0.3546  1.8411
  662SOL    HW2 1986   0.653   0.172   0.763 -3.2416 -2.2558  2.0790
  663SOL     OW 1987   1.389   0.515   2.400 -0.0261  0.2288 -0.1736
  663SOL    HW1 1988   1.461   0.573   2.364 -1.4739 -1.5014 -2.4470
  663SOL    HW2 1989   1.429   0.456   2.475  1.5757 -1.7618 -0.3338
  664SOL     OW 1990   0.555   2.851   1.268 -0.4540  0.0913  0.2397
  664SOL    HW1 1991   0.563   2.934   1.330  2.0086  1.0643 -0.4227
  664SOL    HW2 1992   0.498   2.776   1.301 -0.2825  1.0983 -1.7577
  665SOL     OW 1993   0.778   2.353   1.709 -0.2561  0.3631  0.0149
  665SOL    HW1 1994   0.827   2.426   1.665 -3.4831 -3.0834  1.3541
  665SOL    HW2 1995   0.758   2.376   1.806  0.8356 -1.9676  0.1918
  666SOL     OW 1996   0.379   3.056   2.501  0.1349 -0.6498  0.0317
  666SOL    HW1 1997   0.431   2.993   2.566 -3.4749  2.1420  0.2799
  666SOL    HW2 1998   0.284   3.024   2.491  0.8735  1.9124  0.3545
  667SOL     OW 1999   1.744   1.676   1.457  0.5198 -0.1078 -0.3412
  667SOL    HW1 2000   1.798   1.604   1.411  2.6071 -2.4491 -2.3516
  667SOL    HW2 2001   1.806   1.749   1.486 -1.2898 -1.4442 -1.5939
  668SOL     OW 2002   1.439   0.384   1.766 -0.5022 -0.5174 -0.0783
  668SOL    HW1 2003   1.535   0.401   1.728  1.5505 -0.1941 -0.9012
  668SOL    HW2 2004   1.397   0.306   1.720 -0.6979  1.3394  1.7923
  669SOL     OW 2005   2.674   2.648   1.301 -0.1318 -0.5126 -0.3339
  669SOL    HW1 2006   2.588   2.679   1.256 -2.4412 -0.6494  3.3809
  669SOL    HW2 2007   2.758   2.712   1.279  1.6055  0.7353  0.5655
  670SOL     OW 2008   1.335   2.180   2.656  0.3877 -0.0829 -0.2395
  670SOL    HW1 2009   1.266   2.152   2.727 -0.3221  1.6155 -0.9777
  670SOL    HW2 2010   1.418   2.221   2.700 -1.0138 -0.9525  0.3675
  671SOL     OW 2011   0.845   1.171   0.561 -0.2567 -0.4740  0.2663
  671SOL    HW1 2012   0.769   1.208   0.617 -0.6156 -0.0549 -2.1201
  671SOL    HW2 2013   0.911   1.113   0.609  3.0103  1.1850  0.2375
  672SOL     OW 2014   2.944   1.201   2.467  0.1692  0.1719  0.3179
  672SOL    HW1 2015   2.863   1.242   2.515  2.4640 -1.2765 -0.1461
  672SOL    HW2 2016   2.935   1.099   2.472 -1.2399 -0.8710  0.9400
  673SOL     OW 2017   2.574   2.031   1.416 -0.1999  0.7236  0.7686
  673SOL    HW1 2018   2.582   1.986   1.508 -0.6502 -1.3943  1.3433
  673SOL    HW2 2019   2.488   2.082   1.404  0.5541 -1.8626 -1.9431
  674SOL     OW 2020   0.482   2.468   2.168  0.0858  0.1223  0.1979
  674SOL    HW1 2021   0.455   2.460   2.072  0.6724  0.5388 -0.2554
  674SOL    HW2 2022   0.502   2.566   2.193  0.2161 -1.1747 -1.3687
  675SOL     OW 2023   0.752   0.843   1.509 -0.7660 -0.0992 -0.2059
  675SOL    HW1 2024   0.834   0.887   1.553  1.0986  1.7363  1.9149
  675SOL    HW2 2025   0.681   0.915   1.502  0.6090 -0.4823 -0.0003
  676SOL     OW 2026   2.259   0.162   1.228  0.3157 -0.4696  0.3388
  676SOL    HW1 2027   2.256   0.058   1.210 -0.2428 -1.8372  0.4610
  676SOL    HW2 2028   2.311   0.220   1.161 -0.3609  2.4882 -0.8849
  677SOL     OW 2029   2.279   1.390   0.041 -0.1016  0.4396  0.1758
  677SOL    HW1 2030   2.224   1.459   0.089 -0.4568  0.6040 -1.6609
  677SOL    HW2 2031   2.264   1.414   3.033 -1.8804  0.5264 -0.7281
  678SOL     OW 2032   2.841   1.245   1.184  0.1205 -0.9621  0.5088
  678SOL    HW1 2033   2.869   1.280   1.275  2.1217 -1.5928  0.9541
  678SOL    HW2 2034   2.816   1.148   1.194 -2.9212  0.1617  0.6342
  679SOL     OW 2035   2.692   0.418   3.064  0.0470 -0.5072  0.0330
  679SOL    HW1 2036   2.632   0.371   0.037  0.8919  0.3679  2.8014
  679SOL    HW2 2037   2.713   0.510   0.010 -2.6261 -1.8024  1.9619
  680SOL     OW 2038   0.198   1.920   1.748  0.6122  0.3116 -0.3429
  680SOL    HW1 2039   0.147   2.004   1.776 -2.1578 -0.4110 -1.0872
  680SOL    HW2 2040   0.202   1.852   1.826 -0.2298 -1.8800  0.5221
  681SOL     OW 2041   1.951   2.042   1.351 -0.3352  0.1708  0.2484
  681SOL    HW1 2042   1.961   1.963   1.413  0.9912  0.0307 -1.8711
  681SOL    HW2 2043   1.967   2.135   1.394  1.4125  1.5487  1.4569
  682SOL     OW 2044   0.362   1.601   3.083 -0.3200 -0.3804 -0.1782
  682SOL    HW1 2045   0.425   1.678   3.067  2.0041  1.5805 -0.5126
  682SOL    HW2 2046   0.409   1.512   3.069 -0.3567 -0.7563 -0.5414
  683SOL     OW 2047   0.039   2.100   1.451  0.3018 -0.8220  0.0993
  683SOL    HW1 2048   0.099   2.174   1.478  0.4751 -0.7425 -1.1764
  683SOL    HW2 2049   3.084   2.116   1.365  0.6668 -3.1905  0.3156
  684SOL     OW 2050   2.801   1.328   1.984 -0.0556  0.2838 -0.2483
  684SOL    HW1 2051   2.798   1.259   1.907 -0.4077  2.5192 -0.3937
  684SOL    HW2 2052   2.807   1.276   2.074 -1.4820  0.1575  1.3369
  685SOL     OW 2053   1.401   1.024   0.673  0.6152 -0.0940 -0.5093
  685SOL    HW1 2054   1.492   0.999   0.708 -1.8655  0.1264 -0.9731
  685SOL    HW2 2055   1.343   0.947   0.676  0.5330  0.6418  1.0541
  686SOL     OW 2056   0.526   0.292   0.817  0.0523  0.1202 -0.5573
  686SOL    HW1 2057   0.468   0.259   0.891 -0.6183 -2.3591 -2.2086
  686SOL    HW2 2058   0.496   0.380   0.774 -0.3053  1.9618 -1.3784
  687SOL     OW 2059   1.000   2.116   2.898  0.0134  0.2285 -0.0754
  687SOL    HW1 2060   1.027   2.057   2.976 -0.4471  0.1693 -4.2172
  687SOL    HW2 2061   1.056   2.200   2.891 -1.1302 -0.5714 -2.7207
  688SOL     OW 2062   1.657   0.824   1.406  0.2622  0.2011  0.1181
  688SOL    HW1 2063   1.568   0.837   1.350 -0.9559  0.8605 -1.3403
  688SOL    HW2 2064   1.635   0.786   1.498  2.1349  1.7185  0.4864
  689SOL     OW 2065   1.811   0.261   0.977  0.0107 -0.2199  0.5582
  689SOL    HW1 2066   1.878   0.235   1.048  1.0472  2.5885 -2.2061
  689SOL    HW2 2067   1.825   0.352   0.940 -2.5091 -1.6993  0.6613
  690SOL     OW 2068   2.972   1.435   0.709 -0.6944  0.1304 -0.4329
  690SOL    HW1 2069   2.983   1.509   0.781  1.7296  0.6304 -1.0274
  690SOL    HW2 2070   2.972   1.481   0.615  0.0357  1.3986  0.0735
  691SOL     OW 2071   0.329   2.389   1.293 -0.3716 -0.2517 -0.0391
  691SOL    HW1 2072   0.424   2.370   1.259  1.7556 -0.8778 -2.3410
  691SOL    HW2 2073   0.285   2.463   1.241 -2.4464  1.8052 -0.6491
  692SOL     OW 2074   1.703   0.064   1.556  0.2745  0.2361 -0.6061
  692SOL    HW1 2075   1.732   0.106   1.644 -0.1906 -1.4286 -1.1323
  692SOL    HW2 2076   1.781   0.058   1.491  0.8497  0.2879 -0.6508
  693SOL     OW 2077   0.519   1.645   2.138  0.4916  0.5172  0.4171
  693SOL    HW1 2078   0.500   1.713   2.066 -0.9791 -0.9740  0.6520
  693SOL    HW2 2079   0.524   1.685   2.229 -0.5629  1.0823 -0.9770
  694SOL     OW 2080   2.003   1.277   0.982 -0.0550 -0.0473 -0.4340
  694SOL    HW1 2081   1.915   1.330   0.981 -2.7734 -0.5264  0.7950
  694SOL    HW2 2082   2.069   1.317   0.915  2.1055 -2.2110 -0.9861
  695SOL     OW 2083   1.199   0.815   0.746  0.0337  0.3540  0.0287
  695SOL    HW1 2084   1.166   0.742   0.680 -2.8975 -1.2796  1.2512
  695SOL    HW2 2085   1.239   0.774   0.827 -0.1912 -0.5294  0.2333
  696SOL     OW 2086   0.443   0.064   0.527 -0.7643  0.5146  0.0031
  696SOL    HW1 2087   0.379   0.052   0.447  5.9276  0.5155 -1.6444
  696SOL    HW2 2088   0.533   0.020   0.507  1.7450  0.1748 -2.2952
  697SOL     OW 2089   2.086   0.503   1.228  0.4392  0.3511  0.2259
  697SOL    HW1 2090   2.071   0.435   1.307 -0.5132 -1.8069 -0.4995
  697SOL    HW2 2091   2.142   0.579   1.261  1.4201 -2.2480  0.2002
  698SOL     OW 2092   1.667   1.388   2.026  0.0530 -0.8139  0.2033
  698SOL    HW1 2093   1.576   1.436   2.020 -1.8551  2.1846  2.2911
  698SOL    HW2 2094   1.712   1.427   2.109  0.8080  1.0418  2.0474
  699SOL     OW 2095   2.673   0.383   1.937 -0.0828  0.1848 -0.3118
  699SOL    HW1 2096   2.706   0.479   1.942 -2.2629 -0.9175  2.4377
  699SOL    HW2 2097   2.726   0.316   1.879  0.1587 -1.1986  1.3068
  700SOL     OW 2098   1.714   2.505   0.505  0.6262  0.8180  0.6002
  700SOL    HW1 2099   1.716   2.587   0.565 -1.9628  2.5951 -0.6141
  700SOL    HW2 2100   1.734   2.533   0.409  1.6578  0.5976  0.9639
  701SOL     OW 2101   2.655   1.997   2.541  0.2559  0.2518  0.3415
  701SOL    HW1 2102   2.604   1.915   2.513  0.2782 -0.4286 -0.2266
  701SOL    HW2 2103   2.648   2.007   2.643 -0.9513  3.4250  2.7505
  702SOL     OW 2104   0.690   3.035   0.510 -0.3381 -0.8461  0.0549
  702SOL    HW1 2105   0.679   2.959   0.573  3.3002  2.1605 -0.2235
  702SOL    HW2 2106   0.750   3.001   0.436 -1.2395  0.6142  1.1764
  703SOL     OW 2107   1.740   3.029   2.176 -0.3102 -0.4203 -0.0697
  703SOL    HW1 2108   1.682   2.978   2.109  1.0551 -0.9353  0.8874
  703SOL    HW2 2109   1.721   3.008   2.273  0.5439 -0.3958 -0.5060
  704SOL     OW 2110   2.705   2.025   0.192 -0.0163  0.1417  0.0880
  704SOL    HW1 2111   2.775   2.094   0.163  1.1956  0.2673 -1.5458
  704SOL    HW2 2112   2.701   2.023   0.294  1.1669 -0.3335 -1.9576
  705SOL     OW 2113   2.876   2.299   2.363 -0.1578  0.6816 -0.2916
  705SOL    HW1 2114   2.877   2.197   2.339  0.0929  0.8386 -3.0742
  705SOL    HW2 2115   2.904   2.317   2.460 -1.7732 -1.8138 -0.9598
  706SOL     OW 2116   2.495   0.084   0.480  0.1217  0.8945 -0.3241
  706SOL    HW1 2117   2.551   0.154   0.432 -0.0771 -0.1305  1.0203
  706SOL    HW2 2118   2.542   0.002   0.506 -1.0907  1.6880  0.4484
  707SOL     OW 2119   1.159   0.579   2.550  0.0010  0.1944  0.1746
  707SOL    HW1 2120   1.220   0.568   2.631 -0.4859  2.4021  0.7637
  707SOL    HW2 2121   1.210   0.595   2.463  0.0327  1.8642  1.6118
  708SOL     OW 2122   0.378   2.092   1.619  0.2152  0.2193  0.4141
  708SOL    HW1 2123   0.333   2.018   1.664  1.4592  2.2748  0.7455
  708SOL    HW2 2124   0.461   2.131   1.659 -1.5618  0.9149  0.3282
  709SOL     OW 2125   1.335   2.946   1.849  0.4941 -0.2352  0.6432
  709SOL    HW1 2126   1.320   3.047   1.860 -0.7645  0.7215 -0.5443
  709SOL    HW2 2127   1.370   2.920   1.754  1.2879 -0.7458 -1.0610
  710SOL     OW 2128   1.391   2.615   2.675 -0.0523 -0.1333 -0.3230
  710SOL    HW1 2129   1.328   2.557   2.617 -2.2085 -0.0288 -0.1289
  710SOL    HW2 2130   1.415   2.573   2.761  1.3577  0.1261 -0.5449
  711SOL     OW 2131   0.850   2.457   2.493  0.3445  0.4898  0.2956
  711SOL    HW1 2132   0.870   2.378   2.431 -0.5870  0.9840  1.7680
  711SOL    HW2 2133   0.870   2.426   2.590 -0.9116 -2.7949  3.2305
  712SOL     OW 2134   1.107   1.979   3.093  0.0144  0.3781 -0.0240
  712SOL    HW1 2135   1.057   1.892   3.084  1.1131  0.7147 -1.8014
  712SOL    HW2 2136   1.131   1.980   0.102 -0.3139  0.6896  0.0150
  713SOL     OW 2137   2.038   1.183   1.769  0.3114 -0.2998 -0.5647
  713SOL    HW1 2138   2.038   1.113   1.695  0.2670 -0.7963 -0.3231
  713SOL    HW2 2139   1.944   1.179   1.807 -1.5098 -1.0201 -1.0329
  714SOL     OW 2140   0.716   0.989   1.851 -0.1973  0.1254  0.1399
  714SOL    HW1 2141   0.663   0.916   1.805  0.0605  0.2488  0.3701
  714SOL    HW2 2142   0.808   0.956   1.884  0.4346  1.6121 -1.4248
  715SOL     OW 2143   2.581   0.330   0.228 -0.2754 -0.0869  0.4859
  715SOL    HW1 2144   2.656   0.282   0.268 -1.3191 -1.5330 -2.9912
  715SOL    HW2 2145   2.591   0.427   0.252  0.8459 -2.0746 -1.3387
  716SOL     OW 2146   0.326   2.713   0.923  0.3498 -0.5436 -0.3522
  716SOL    HW1 2147   0.413   2.720   0.980 -1.6291 -1.1389 -0.5184
  716SOL    HW2 2148   0.296   2.809   0.894 -2.1502  0.5059  1.3711
  717SOL     OW 2149   2.543   0.632   0.880 -0.5246  0.5361 -0.1897
  717SOL    HW1 2150   2.481   0.592   0.815  1.1152  1.6542  3.3334
  717SOL    HW2 2151   2.493   0.702   0.934  0.6534  0.2885 -0.5905
  718SOL     OW 2152   1.581   1.152   1.573 -0.3929 -0.2807  0.5785
  718SOL    HW1 2153   1.567   1.233   1.508 -1.6179 -0.4574 -0.4218
  718SOL    HW2 2154   1.662   1.095   1.539  1.5537 -2.3390 -1.7994
  719SOL     OW 2155   2.742   2.574   2.887 -0.1858  0.4111 -0.3823
  719SOL    HW1 2156   2.690   2.653   2.930 -0.8170  0.5370  0.9246
  719SOL    HW2 2157   2.733   2.572   2.787 -2.7084  2.0662  1.1019
  720SOL     OW 2158   1.105   0.464   0.930 -0.0653  0.1517 -0.2018
  720SOL    HW1 2159   1.033   0.507   0.988 -2.4753 -0.8541  3.0533
  720SOL    HW2 2160   1.080   0.370   0.904  1.3188  0.2021  0.8478
  721SOL     OW 2161   1.984   0.158   1.188 -0.2275  0.3247 -0.1238
  721SOL    HW1 2162   1.974   0.058   1.185  1.5648  2.9222 -1.0822
  721SOL    HW2 2163   2.084   0.173   1.189 -0.9295  1.2882 -2.9873
  722SOL     OW 2164   0.618   2.134   1.754  0.1602  0.2365  0.4184
  722SOL    HW1 2165   0.559   2.136   1.839  1.9134 -3.1276  0.7287
  722SOL    HW2 2166   0.677   2.218   1.750 -0.7252  1.1132  0.1744
  723SOL     OW 2167   1.324   3.013   1.374 -0.3931 -0.2520 -0.4826
  723SOL    HW1 2168   1.387   3.077   1.333 -0.1212  0.3297  2.1115
  723SOL    HW2 2169   1.371   2.974   1.458  1.8737  1.2845  3.1770
  724SOL     OW 2170   1.525   1.980   1.449  0.2924  0.3915  0.0837
  724SOL    HW1 2171   1.422   1.978   1.461 -0.4360  2.2141 -1.2156
  724SOL    HW2 2172   1.560   1.887   1.448  0.5940  5.9558 -0.1251
  725SOL     OW 2173   1.412   2.517   1.231 -0.3634 -0.1302  0.4590
  725SOL    HW1 2174   1.392   2.425   1.195 -3.3881  1.1778 -0.4650
  725SOL    HW2 2175   1.504   2.548   1.196  0.3897  2.6724 -2.1508
  726SOL     OW 2176   1.673   0.188   0.077 -0.2878  0.2344  0.2639
  726SOL    HW1 2177   1.712   0.244   0.153 -0.2212 -0.1206 -0.9570
  726SOL    HW2 2178   1.745   0.130   0.033  1.0503  1.1726 -0.3184
  727SOL     OW 2179   1.484   1.647   0.290  1.0351  0.1823  0.3315
  727SOL    HW1 2180   1.403   1.598   0.252  2.0944  1.8154 -0.5810
  727SOL    HW2 2181   1.573   1.598   0.279  1.4176  4.9263 -2.1245
  728SOL     OW 2182   1.798   2.551   2.122  0.1708 -0.6339 -0.0109
  728SOL    HW1 2183   1.759   2.461   2.152 -1.2778 -1.7449 -1.4656
  728SOL    HW2 2184   1.730   2.614   2.080  0.8407  0.1248 -0.7720
  729SOL     OW 2185   1.968   2.677   1.718 -0.4062 -0.4989  0.6271
  729SOL    HW1 2186   1.974   2.630   1.810 -1.5209 -1.9106 -0.8354
  729SOL    HW2 2187   2.060   2.661   1.670  2.3676 -0.8314 -0.6149
  730SOL     OW 2188   1.423   0.969   2.532 -0.3368  0.0822 -0.1130
  730SOL    HW1 2189   1.388   0.927   2.618 -0.1438 -1.9925  1.4044
  730SOL    HW2 2190   1.371   0.922   2.457  3.2001  0.9209  0.2607
  731SOL     OW 2191   0.739   0.177   1.158  0.6913 -0.1607  0.1395
  731SOL    HW1 2192   0.688   0.113   1.097 -0.7443  3.4138  1.7990
  731SOL    HW2 2193   0.835   0.139   1.171  2.4854 -2.2401  0.6508
  732SOL     OW 2194   1.357   2.969   1.093 -0.2976  0.3275 -0.6920
  732SOL    HW1 2195   1.308   2.914   1.165  2.4176 -0.3700 -1.1387
  732SOL    HW2 2196   1.294   3.042   1.060 -0.0451 -1.6336  2.7927
  733SOL     OW 2197   1.344   1.129   1.079  0.4079  0.2618 -0.3053
  733SOL    HW1 2198   1.306   1.165   0.988 -1.0330  2.6654 -0.3909
  733SOL    HW2 2199   1.424   1.190   1.105 -0.1958  0.6209 -1.0772
  734SOL     OW 2200   2.455   2.103   0.370 -0.1269  0.2045  0.2124
  734SOL    HW1 2201   2.451   2.068   0.270 -0.1801 -1.5188 -1.2831
  734SOL    HW2 2202   2.499   2.196   0.382 -0.1816 -0.9742 -1.1971
  735SOL     OW 2203   0.783   0.238   0.447 -0.1432 -0.0575 -0.1815
  735SOL    HW1 2204   0.885   0.220   0.439  0.7157 -1.4328  2.4023
  735SOL    HW2 2205   0.744   0.205   0.534  2.2009  0.8016  0.0410
  736SOL     OW 2206   1.949   2.189   2.717  0.8523 -0.5268  0.4396
  736SOL    HW1 2207   1.938   2.158   2.817  0.3102  0.9193  0.5046
  736SOL    HW2 2208   1.890   2.136   2.649 -0.6714 -2.9873 -0.7401
  737SOL     OW 2209   0.980   2.481   1.080 -0.0706 -0.0917 -0.2583
  737SOL    HW1 2210   1.071   2.448   1.047 -2.0023  1.6283  0.6879
  737SOL    HW2 2211   0.911   2.471   1.009 -1.3852 -2.0362  0.8212
  738SOL     OW 2212   1.604   0.132   2.330  0.2231 -0.1571 -0.1418
  738SOL    HW1 2213   1.563   0.083   2.412  1.6807 -1.5210 -1.0474
  738SOL    HW2 2214   1.630   0.064   2.258  0.8760 -0.3556 -1.7299
  739SOL     OW 2215   0.746   2.374   1.960 -0.2485 -0.5241 -0.6318
  739SOL    HW1 2216   0.840   2.337   1.988  1.1562  1.2711  1.7608
  739SOL    HW2 2217   0.677   2.370   2.035  2.5183 -1.3327  1.9089
  740SOL     OW 2218   1.584   2.399   1.440  0.4299  0.2432  0.3129
  740SOL    HW1 2219   1.673   2.448   1.446  2.4155  1.3623 -0.7601
  740SOL    HW2 2220   1.516   2.453   1.387  0.0889 -0.9260  0.6224
  741SOL     OW 2221   2.587   1.363   0.078  0.2987  0.3451  0.2293
  741SOL    HW1 2222   2.667   1.417   0.048  2.4809 -0.8199  0.1386
  741SOL    HW2 2223   2.503   1.420   0.067  2.4025  0.9930  0.9260
  742SOL     OW 2224   0.687   1.541   1.951  0.1320  0.3487  0.1244
  742SOL    HW1 2225   0.628   1.569   2.028  1.0618 -0.5680  1.5554
  742SOL    HW2 2226   0.727   1.451   1.977  0.4857 -1.9690 -0.0399
  743SOL     OW 2227   2.921   0.930   2.420  0.1229 -0.0483 -0.2963
  743SOL    HW1 2228   2.997   0.928   2.357 -2.9489 -0.4013  1.3383
  743SOL    HW2 2229   2.917   0.847   2.483 -0.1367  0.5454  2.6821
  744SOL     OW 2230   2.180   2.289   1.278 -0.5675  0.2915 -0.5947
  744SOL    HW1 2231   2.145   2.252   1.191 -0.3822 -0.3290 -0.1334
  744SOL    HW2 2232   2.190   2.211   1.340 -0.7098 -2.0727 -2.6916
  745SOL     OW 2233   2.372   1.830   1.539 -0.5634 -0.1777  0.0382
  745SOL    HW1 2234   2.314   1.752   1.519  2.4716 -0.4174  0.6110
  745SOL    HW2 2235   2.444   1.805   1.605  1.5751 -1.6290  0.9662
  746SOL     OW 2236   2.585   1.035   0.717  0.1016 -0.3267  0.8535
  746SOL    HW1 2237   2.517   0.963   0.702  1.4273  2.2840 -0.9270
  746SOL    HW2 2238   2.643   1.055   0.635  2.3695 -1.1528 -0.9281
  747SOL     OW 2239   1.831   2.237   0.532 -0.6368 -0.7177 -0.0655
  747SOL    HW1 2240   1.919   2.248   0.578 -1.3198 -2.5522 -2.4072
  747SOL    HW2 2241   1.793   2.331   0.519  1.4581  0.5219 -0.5726
  748SOL     OW 2242   0.967   2.113   0.456  0.8638 -0.1292  0.2563
  748SOL    HW1 2243   1.031   2.052   0.401  0.8196  0.5761 -1.3641
  748SOL    HW2 2244   0.989   2.102   0.552 -0.6512 -2.9027 -0.8679
  749SOL     OW 2245   2.924   0.431   2.396 -0.1802 -0.5357 -0.5223
  749SOL    HW1 2246   2.922   0.394   2.300  0.9224  0.9575 -1.0914
  749SOL    HW2 2247   3.020   0.433   2.429 -1.1500  0.7214 -4.2746
  750SOL     OW 2248   1.496   0.173   1.417 -0.0683  0.2194 -0.4422
  750SOL    HW1 2249   1.579   0.155   1.471 -2.2687  2.7433 -2.8308
  750SOL    HW2 2250   1.526   0.174   1.320  0.8046 -1.1572 -1.5108
  751SOL     OW 2251   1.537   2.289   2.782 -0.1012 -0.1277 -0.3659
  751SOL    HW1 2252   1.529   2.381   2.826 -0.9545 -0.2709 -4.4920
  751SOL    HW2 2253   1.628   2.250   2.800 -3.3282  2.6772 -0.4244
  752SOL     OW 2254   1.859   2.143   0.250 -0.5917 -0.2096  0.1843
  752SOL    HW1 2255   1.840   2.191   0.338 -0.8658 -0.2634  0.8366
  752SOL    HW2 2256   1.955   2.110   0.249  1.0856  1.6747  0.3963
  753SOL     OW 2257   1.578   0.866   2.114 -0.1846  0.0518  0.1109
  753SOL    HW1 2258   1.595   0.940   2.182  0.6684 -0.2451  0.6431
  753SOL    HW2 2259   1.574   0.773   2.152  0.4675  0.9302  1.6826
  754SOL     OW 2260   0.252   2.837   0.492 -0.1587  0.5392  0.2393
  754SOL    HW1 2261   0.210   2.754   0.537 -0.8711 -1.2207 -1.1900
  754SOL    HW2 2262   0.199   2.919   0.520 -0.8385  2.2657  0.5588
  755SOL     OW 2263   1.969   0.104   1.473  0.1436 -0.1284 -0.1977
  755SOL    HW1 2264   2.025   0.031   1.510 -1.8379 -0.5072 -0.1944
  755SOL    HW2 2265   1.971   0.110   1.372 -0.9616 -2.4121 -0.0599
  756SOL     OW 2266   1.196   1.284   2.573  0.1982 -0.2139 -0.4452
  756SOL    HW1 2267   1.294   1.266   2.600 -0.3574 -0.6003  1.6662
  756SOL    HW2 2268   1.191   1.306   2.473 -0.8301 -0.0722  1.5222
  757SOL     OW 2269   2.913   2.842   1.288 -1.4316 -1.0294  0.2335
  757SOL    HW1 2270   2.951   2.749   1.318 -0.3413 -0.3967  1.7038
  757SOL    HW2 2271   2.844   2.880   1.349  2.4248 -0.1659 -1.0660
  758SOL     OW 2272   0.672   3.041   1.494 -0.0669  0.4308 -0.4334
  758SOL    HW1 2273   0.594   3.030   1.560  2.7340  0.2770 -0.8213
  758SOL    HW2 2274   0.752   3.087   1.535 -0.4821 -0.9170 -2.0479
  759SOL     OW 2275   2.401   1.255   0.700  0.1161  0.3892 -0.0263
  759SOL    HW1 2276   2.391   1.301   0.608  0.7263  0.3475  0.7821
  759SOL    HW2 2277   2.455   1.173   0.693 -0.3589  3.1102  1.7084
  760SOL     OW 2278   2.139   0.474   1.641 -0.0181 -0.4553 -0.7913
  760SOL    HW1 2279   2.065   0.443   1.577 -3.1127 -0.3086 -2.0897
  760SOL    HW2 2280   2.159   0.403   1.711 -0.0623  2.4250 -0.7024
  761SOL     OW 2281   2.012   0.130   0.391  0.3145  0.4617 -0.2311
  761SOL    HW1 2282   2.040   0.113   0.488 -1.3771 -3.5289  0.9720
  761SOL    HW2 2283   2.012   0.042   0.340 -0.8634  1.0882  2.9224
  762SOL     OW 2284   2.124   2.114   0.168  0.1130 -0.2325 -0.0201
  762SOL    HW1 2285   2.134   2.214   0.194 -1.2139 -0.2864  3.2510
  762SOL    HW2 2286   2.181   2.085   0.089  0.1646  0.1672  2.3424
  763SOL     OW 2287   0.714   0.926   1.126  0.5773  0.3915 -0.2343
  763SOL    HW1 2288   0.694   0.889   1.034  1.2034 -0.9460 -1.8727
  763SOL    HW2 2289   0.725   1.026   1.127  1.4622 -0.3259  0.1594
  764SOL     OW 2290   2.395   2.226   3.010  0.4540  0.0653 -0.0211
  764SOL    HW1 2291   2.487   2.222   2.967 -1.1991 -0.9137  1.3823
  764SOL    HW2 2292   2.356   2.311   2.986  0.9294 -1.8603  0.4108
  765SOL     OW 2293   0.695   0.624   2.294  0.2722 -0.4114  0.0001
  765SOL    HW1 2294   0.700   0.530   2.330  0.6172  1.8769 -0.9992
  765SOL    HW2 2295   0.737   0.624   2.202 -1.9978  0.9620  4.0823
  766SOL     OW 2296   0.064   1.366   2.418 -0.1311  0.1374 -0.2245
  766SOL    HW1 2297   3.074   1.313   2.435 -0.9011  2.4813  1.6746
  766SOL    HW2 2298   0.045   1.434   2.348 -1.9796 -0.5560 -0.4705
  767SOL     OW 2299   0.121   1.819   2.179 -0.1538 -0.5376 -0.5401
  767SOL    HW1 2300   0.175   1.795   2.098  0.5031  1.5560 -1.0403
  767SOL    HW2 2301   0.177   1.834   2.258 -1.7736 -0.3111 -2.8314
  768SOL     OW 2302   1.042   0.888   2.806 -0.3058  0.4727  0.1810
  768SOL    HW1 2303   1.007   0.907   2.903 -1.8737  0.7649 -0.5147
  768SOL    HW2 2304   1.001   0.953   2.742  0.7526  0.2751 -1.2485
  769SOL     OW 2305   1.685   2.685   2.917  0.5708 -0.7966  0.1232
  769SOL    HW1 2306   1.690   2.785   2.917 -0.2979 -0.6595 -0.5842
  769SOL    HW2 2307   1.770   2.643   2.887 -2.4781  1.6062 -1.3783
  770SOL     OW 2308   2.934   0.697   2.559  0.3452  0.4795 -0.4941
  770SOL    HW1 2309   2.934   0.602   2.530  0.0592  1.4842  2.2272
  770SOL    HW2 2310   2.874   0.700   2.645  1.0063 -0.5075  2.2709
  771SOL     OW 2311   0.682   2.108   1.379 -0.4783  0.1371  0.5734
  771SOL    HW1 2312   0.774   2.072   1.399  0.6768 -0.6404  0.8181
  771SOL    HW2 2313   0.684   2.208   1.373 -3.7184  0.3196 -0.4365
  772SOL     OW 2314   0.597   0.400   2.918 -0.0757 -0.3818  0.0241
  772SOL    HW1 2315   0.670   0.398   2.847  0.4910 -0.9589  0.6907
  772SOL    HW2 2316   0.587   0.486   2.973 -1.5320  1.6848  1.2653
  773SOL     OW 2317   2.318   1.063   1.723 -0.6260 -0.1106 -0.0062
  773SOL    HW1 2318   2.362   1.029   1.805  1.4456  2.1640 -1.2558
  773SOL    HW2 2319   2.216   1.062   1.731 -3.5650  0.7852  1.3048
  774SOL     OW 2320   1.005   0.699   0.442  0.0178  0.1398 -0.3354
  774SOL    HW1 2321   0.957   0.630   0.380 -0.8602 -3.2259  1.5696
  774SOL    HW2 2322   1.077   0.662   0.504  2.9673 -0.8210  3.9068
  775SOL     OW 2323   2.116   2.709   3.008  0.0416 -0.1664  0.1966
  775SOL    HW1 2324   2.139   2.687   2.914  2.1118  1.2348 -0.3275
  775SOL    HW2 2325   2.049   2.649   3.052  1.5298 -0.2972 -1.7140
  776SOL     OW 2326   2.190   3.082   2.172 -0.0144  0.4428  0.0275
  776SOL    HW1 2327   2.104   0.001   2.226 -0.8855 -1.0656  0.3424
  776SOL    HW2 2328   2.246   3.004   2.203 -0.1812 -1.5019  1.0939
  777SOL     OW 2329   0.636   1.040   2.809  0.4653  0.4208  0.1522
  777SOL    HW1 2330   0.570   1.034   2.730 -2.2086 -0.3992 -0.2711
  777SOL    HW2 2331   0.582   1.047   2.895  2.0382  1.7002 -0.0836
  778SOL     OW 2332   0.674   0.068   0.175  0.3616  0.5279  0.3340
  778SOL    HW1 2333   0.691   0.164   0.152 -1.5590 -2.0291 -1.1652
  778SOL    HW2 2334   0.664   0.059   0.270 -0.0037  2.0665 -3.7831
  779SOL     OW 2335   0.193   1.156   3.009 -0.1064 -1.6850  0.0401
  779SOL    HW1 2336   0.235   1.067   3.020 -0.6533  1.7123  0.4552
  779SOL    HW2 2337   0.169   1.182   2.914 -1.2417  0.1276  0.6499
  780SOL     OW 2338   2.047   0.628   2.649  0.4618 -0.6462  0.0992
  780SOL    HW1 2339   2.097   0.606   2.736 -4.4828 -2.1811  2.9178
  780SOL    HW2 2340   1.950   0.653   2.674  0.5540  3.0380 -1.6184
  781SOL     OW 2341   2.200   1.341   1.943 -0.4203 -0.1205  0.4417
  781SOL    HW1 2342   2.156   1.347   2.034  0.8761 -0.9447 -0.6662
  781SOL    HW2 2343   2.137   1.318   1.865  2.5662  0.8870  0.0964
  782SOL     OW 2344   1.112   1.639   2.259  0.3351 -0.2596  0.1796
  782SOL    HW1 2345   1.092   1.633   2.157 -0.1782  0.5796 -0.6142
  782SOL    HW2 2346   1.139   1.731   2.292 -2.1472  2.1899  1.4796
  783SOL     OW 2347   1.207   0.063   0.970 -0.1190 -0.6075  0.0554
  783SOL    HW1 2348   1.144   0.136   1.005 -2.4636  1.7534 -0.9173
  783SOL    HW2 2349   1.155   0.003   0.910  0.8048  2.2390  1.0746
  784SOL     OW 2350   1.638   0.556   2.964 -0.3907 -0.1682 -0.3678
  784SOL    HW1 2351   1.679   0.648   2.943  0.4972  0.4202 -1.2401
  784SOL    HW2 2352   1.582   0.567   3.052  0.9728 -1.2319  1.2527
  785SOL     OW 2353   2.071   0.436   0.141  0.0754  0.6677  0.1019
  785SOL    HW1 2354   2.054   0.530   0.110  0.0497 -0.3417  0.8346
  785SOL    HW2 2355   2.006   0.399   0.208 -1.7127 -0.2678 -0.3062
  786SOL     OW 2356   2.971   1.589   0.483 -0.7887 -0.1135 -1.2413
  786SOL    HW1 2357   2.925   1.677   0.511 -0.7123 -0.0449  1.6334
  786SOL    HW2 2358   2.940   1.568   0.389 -3.7022 -1.1776 -1.9409
  787SOL     OW 2359   1.694   1.550   0.110 -0.0105 -0.5346  0.0138
  787SOL    HW1 2360   1.742   1.571   0.199 -1.1144 -0.3564  2.3856
  787SOL    HW2 2361   1.652   1.457   0.116 -0.2898  0.2022  0.9209
  788SOL     OW 2362   1.417   1.769   1.202 -0.2940  0.1407  0.2558
  788SOL    HW1 2363   1.459   1.833   1.138 -1.2620  1.2386  1.1604
  788SOL    HW2 2364   1.315   1.785   1.202 -1.2033  1.1246  2.2236
  789SOL     OW 2365   3.040   1.452   2.029 -0.2131 -0.3396 -0.3018
  789SOL    HW1 2366   3.043   1.508   2.113 -0.5468  0.1517 -0.7132
  789SOL    HW2 2367   2.954   1.398   2.018  1.5943 -1.1686 -1.1655
  790SOL     OW 2368   0.460   0.002   0.018 -0.2029 -0.3969  0.4847
  790SOL    HW1 2369   0.438   2.995   0.015  0.4553  0.4490  0.5912
  790SOL    HW2 2370   0.546   0.013   0.069 -1.7438 -1.8524  0.9049
  791SOL     OW 2371   0.684   0.085   2.383  0.6089 -0.1950 -0.2798
  791SOL    HW1 2372   0.670   0.139   2.472 -3.1505 -1.3930  1.3898
  791SOL    HW2 2373   0.743   0.005   2.400 -0.5691 -0.8511  0.3728
  792SOL     OW 2374   1.870   0.437   2.408  0.0768 -0.2655  0.1809
  792SOL    HW1 2375   1.821   0.522   2.439 -1.6206 -0.0884 -1.0378
  792SOL    HW2 2376   1.897   0.445   2.310 -0.1616  0.2189  0.6982
  793SOL     OW 2377   2.788   0.746   1.359  0.2903 -0.3138 -0.3766
  793SOL    HW1 2378   2.743   0.739   1.453 -3.1050 -1.9946  1.6141
  793SOL    HW2 2379   2.891   0.751   1.366  0.7333 -0.1159 -0.8037
  794SOL     OW 2380   0.177   0.730   1.954 -0.5362  0.2049 -0.4999
  794SOL    HW1 2381   0.134   0.676   2.028 -1.9908 -0.2944  0.8687
  794SOL    HW2 2382   0.234   0.811   1.986 -2.6018  0.5612 -1.4130
  795SOL     OW 2383   2.805   1.418   0.270  0.2018 -0.4532  0.5301
  795SOL    HW1 2384   2.822   1.475   0.184  1.3936  2.3085 -5.3811
  795SOL    HW2 2385   2.876   1.343   0.275 -0.8138  0.7248  2.2600
  796SOL     OW 2386   3.068   2.602   0.376  0.5957 -0.4991  0.1696
  796SOL    HW1 2387   3.053   2.705   0.379 -0.2401  0.4243 -0.0316
  796SOL    HW2 2388   0.010   2.573   0.286 -0.1914 -0.8860  1.9480
  797SOL     OW 2389   1.790   2.475   2.471 -0.3391 -0.4066  0.0158
  797SOL    HW1 2390   1.811   2.465   2.572 -1.1016 -0.9198 -2.1910
  797SOL    HW2 2391   1.713   2.543   2.473 -0.2810  0.9163 -1.9805
  798SOL     OW 2392   0.180   1.021   0.908  0.2226 -0.6573 -0.1595
  798SOL    HW1 2393   0.164   0.977   0.818  0.8016  2.1625  1.0032
  798SOL    HW2 2394   0.098   1.002   0.968  2.1060  1.2932 -1.8852
  799SOL     OW 2395   0.093   0.638   2.904 -0.2921  0.0718 -0.2451
  799SOL    HW1 2396   0.090   0.703   2.827 -0.2690  0.2552  3.6931
  799SOL    HW2 2397   0.144   0.551   2.880  2.2348 -4.6771 -0.5261
  800SOL     OW 2398   2.857   1.834   0.478  0.4178  0.0552  0.4251
  800SOL    HW1 2399   2.907   1.916   0.452  1.4303 -0.5972 -0.8328
  800SOL    HW2 2400   2.756   1.848   0.475  0.7844 -1.4203  2.5886
  801SOL     OW 2401   1.560   1.319   1.154  0.1773  0.0137  0.0958
  801SOL    HW1 2402   1.598   1.411   1.132  0.1456 -0.1303  0.4853
  801SOL    HW2 2403   1.525   1.325   1.253 -0.2816 -3.6278  3.6032
  802SOL     OW 2404   1.016   1.892   1.679 -0.5658 -0.2111  0.1087
  802SOL    HW1 2405   1.052   1.882   1.770  1.4943  1.4521  1.6785
  802SOL    HW2 2406   0.969   1.979   1.659 -0.6915  0.6684 -0.2130
  803SOL     OW 2407   0.270   1.841   0.848 -0.1576 -0.4017 -0.0055
  803SOL    HW1 2408   0.347   1.787   0.880 -1.7944  3.6092  0.0423
  803SOL    HW2 2409   0.288   1.861   0.749 -0.5196  2.4659  0.2552
  804SOL     OW 2410   0.976   2.483   1.357 -0.2634  0.3491 -0.7143
  804SOL    HW1 2411   0.966   2.476   1.257 -0.3187 -0.1489  0.4140
  804SOL    HW2 2412   1.074   2.458   1.378  1.8179  1.3922 -1.9869
  805SOL     OW 2413   1.906   1.337   3.065  0.1557 -0.3995 -0.0704
  805SOL    HW1 2414   1.815   1.307   3.027  0.9272  1.0614 -0.6452
  805SOL    HW2 2415   1.938   1.412   3.006  0.9989  1.8273  1.6274
  806SOL     OW 2416   1.621   2.934   1.168  0.3645  0.3228  0.2009
  806SOL    HW1 2417   1.528   2.950   1.139  1.5574  2.4914 -0.4872
  806SOL    HW2 2418   1.682   2.918   1.085  2.0183  0.8080  0.3055
  807SOL     OW 2419   2.348   0.207   2.801 -0.1299 -0.4046  0.3252
  807SOL    HW1 2420   2.282   0.267   2.850 -0.5001  1.6788 -0.6913
  807SOL    HW2 2421   2.438   0.256   2.789  2.7165 -0.3781 -0.2361
  808SOL     OW 2422   0.310   1.067   0.298  0.1456  0.5366 -0.5179
  808SOL    HW1 2423   0.408   1.045   0.274  2.3294 -0.7521  1.6419
  808SOL    HW2 2424   0.297   1.163   0.319 -0.1211 -1.6211 -0.6750
  809SOL     OW 2425   2.796   1.207   2.212 -0.4142  0.6001 -0.0258
  809SOL    HW1 2426   2.733   1.125   2.207 -0.3291 -1.5878  0.5138
  809SOL    HW2 2427   2.857   1.212   2.296  2.2052  0.7510  2.4012
  810SOL     OW 2428   1.699   0.436   1.643 -0.1980 -0.2122 -0.4346
  810SOL    HW1 2429   1.774   0.409   1.706 -1.9935 -0.6955 -1.7680
  810SOL    HW2 2430   1.738   0.441   1.550  0.7051  0.0911  2.5386
  811SOL     OW 2431   2.148   2.847   1.961  0.2820 -0.2036  0.1503
  811SOL    HW1 2432   2.101   2.756   1.952  0.6980  1.6523  0.7246
  811SOL    HW2 2433   2.202   2.841   2.045 -0.0677 -0.3409 -1.3069
  812SOL     OW 2434   1.910   0.112   3.003  0.3470 -0.5901  0.1608
  812SOL    HW1 2435   1.991   0.052   2.996 -2.6845  1.5518  2.6751
  812SOL    HW2 2436   1.936   0.211   3.001 -0.2327 -0.6847  1.1727
  813SOL     OW 2437   1.834   0.677   1.896  0.5773 -0.3714 -0.2663
  813SOL    HW1 2438   1.881   0.679   1.985 -0.5151  0.0276  1.0267
  813SOL    HW2 2439   1.787   0.767   1.875 -3.0997 -3.0293  1.0803
  814SOL     OW 2440   1.792   1.191   1.890  0.1527  0.4651  0.0644
  814SOL    HW1 2441   1.821   1.176   1.986  0.7211  1.2574  0.7011
  814SOL    HW2 2442   1.772   1.294   1.886  0.9156 -3.2758  0.7312
  815SOL     OW 2443   0.622   0.728   0.426 -0.6158  0.2884 -0.5674
  815SOL    HW1 2444   0.628   0.810   0.479 -0.5046 -2.3676 -0.9926
  815SOL    HW2 2445   0.705   0.674   0.418 -1.4974  0.3858  0.7650
  816SOL     OW 2446   2.238   1.478   2.854 -0.5336  0.4497 -0.1015
  816SOL    HW1 2447   2.137   1.491   2.858  2.5121 -1.1647 -1.7447
  816SOL    HW2 2448   2.279   1.570   2.856 -0.2838  0.2736 -0.2685
  817SOL     OW 2449   0.499   2.746   0.432 -0.0837  0.0319  0.2386
  817SOL    HW1 2450   0.537   2.693   0.512  4.1212 -0.1364 -2.8238
  817SOL    HW2 2451   0.420   2.803   0.454  3.2675 -4.6858 -0.7862
  818SOL     OW 2452   1.781   0.353   2.673  0.4632  0.0424 -0.4250
  818SOL    HW1 2453   1.820   0.364   2.582 -2.8388 -0.8376  1.2615
  818SOL    HW2 2454   1.816   0.274   2.719 -1.3667  1.5209 -5.1265
  819SOL     OW 2455   1.423   0.577   0.497 -0.2001 -0.1946  0.0007
  819SOL    HW1 2456   1.360   0.545   0.423 -0.3510 -1.0313  1.5192
  819SOL    HW2 2457   1.455   0.674   0.466  0.2115 -0.9282  0.0888
  820SOL     OW 2458   1.950   0.795   0.742 -0.1897  0.5596  0.3817
  820SOL    HW1 2459   2.026   0.865   0.765  3.3591 -0.2648 -0.8982
  820SOL    HW2 2460   1.893   0.780   0.826  2.2271 -0.2760 -1.6514
  821SOL     OW 2461   2.353   2.931   0.351  0.2951  0.0795 -0.1956
  821SOL    HW1 2462   2.370   3.012   0.414 -0.0228  1.5195  3.5418
  821SOL    HW2 2463   2.367   2.953   0.250  0.2345 -1.1879  0.0874
  822SOL     OW 2464   0.081   3.072   2.078  0.6006  0.1490 -0.4128
  822SOL    HW1 2465   0.144   3.011   2.132  0.4105  0.8548 -1.6492
  822SOL    HW2 2466   0.091   3.046   1.978  0.4519 -1.2749  0.2368
  823SOL     OW 2467   2.650   2.429   1.774  0.3402 -0.0362  0.1253
  823SOL    HW1 2468   2.550   2.409   1.762  1.6082  0.0497  0.9023
  823SOL    HW2 2469   2.694   2.345   1.813 -2.1386  0.2600  1.0930
  824SOL     OW 2470   0.962   2.686   2.129 -0.0641 -0.5187  0.8544
  824SOL    HW1 2471   0.873   2.674   2.085  0.6762  1.7941 -1.1225
  824SOL    HW2 2472   1.028   2.744   2.081  3.3704  1.8001  0.6993
  825SOL     OW 2473   1.590   1.665   0.711  0.0191  0.5122 -0.1043
  825SOL    HW1 2474   1.691   1.667   0.716 -0.9269 -0.4047 -0.2628
  825SOL    HW2 2475   1.561   1.743   0.652  0.7574  0.3490 -0.1777
  826SOL     OW 2476   1.740   0.725   0.189 -0.2855  0.6345  0.8128
  826SOL    HW1 2477   1.779   0.728   0.283 -1.8776  1.9636 -1.2885
  826SOL    HW2 2478   1.813   0.697   0.123  0.0394  1.7773  1.0455
  827SOL     OW 2479   0.181   1.146   1.231  0.0844  0.1467  0.1076
  827SOL    HW1 2480   0.113   1.211   1.189  1.5089  1.6838 -0.8934
  827SOL    HW2 2481   0.255   1.150   1.165  0.1202  4.5898  0.3552
  828SOL     OW 2482   2.132   1.440   1.638 -0.2152  0.3596 -0.5204
  828SOL    HW1 2483   2.092   1.363   1.699  0.7142 -3.4968  1.9157
  828SOL    HW2 2484   2.178   1.503   1.704 -3.0434 -0.2039  1.2286
  829SOL     OW 2485   0.458   1.969   0.196  0.8291  1.0582 -0.2473
  829SOL    HW1 2486   0.363   1.932   0.214 -0.7087 -0.1657 -1.2404
  829SOL    HW2 2487   0.528   1.917   0.250 -3.3325  0.4811 -4.2609
  830SOL     OW 2488   1.121   0.508   0.663 -0.0194  0.4272  0.0877
  830SOL    HW1 2489   1.184   0.444   0.617  1.1874  0.6143  1.2709
  830SOL    HW2 2490   1.134   0.505   0.764 -0.3138 -1.3616 -2.1854
  831SOL     OW 2491   2.803   1.539   0.016  0.1716 -0.7420  0.2160
  831SOL    HW1 2492   2.793   1.521   3.009  1.0113 -0.6741 -0.4183
  831SOL    HW2 2493   2.794   1.636   0.047 -2.7483 -0.4907  3.2561
  832SOL     OW 2494   0.863   2.945   0.347 -0.3519  0.0388 -0.1302
  832SOL    HW1 2495   0.915   3.005   0.284 -1.2778  1.3392 -0.6231
  832SOL    HW2 2496   0.922   2.915   0.423  1.6012  0.1390  2.6074
  833SOL     OW 2497   0.811   0.675   2.057 -0.2013  0.0303  0.0857
  833SOL    HW1 2498   0.875   0.594   2.048  0.2126 -0.6181 -2.3916
  833SOL    HW2 2499   0.856   0.755   2.029 -1.1220 -0.4257  0.9912
  834SOL     OW 2500   0.208   0.803   1.302  0.2328 -0.0245  0.5928
  834SOL    HW1 2501   0.249   0.798   1.208  0.1484 -0.7532 -2.5605
  834SOL    HW2 2502   0.273   0.851   1.363  0.5948 -0.5883 -0.3943
  835SOL     OW 2503   2.798   0.179   1.812 -0.1828 -0.0005 -0.4236
  835SOL    HW1 2504   2.772   0.116   1.745  3.2549  1.7150  4.0075
  835SOL    HW2 2505   2.890   0.163   1.851 -0.4405 -0.3318  1.6522
  836SOL     OW 2506   0.461   2.135   0.455  0.1136 -0.6550 -0.4880
  836SOL    HW1 2507   0.533   2.198   0.487  1.3730 -1.8300  0.2410
  836SOL    HW2 2508   0.496   2.101   0.368  1.2948 -0.6539 -0.6848
  837SOL     OW 2509   2.156   1.810   2.108 -0.3577  0.0859  0.2965
  837SOL    HW1 2510   2.184   1.809   2.013  0.2404 -0.6089  0.1143
  837SOL    HW2 2511   2.191   1.894   2.159  0.0609  3.3768  2.0592
  838SOL     OW 2512   3.074   1.278   1.580  0.2001 -0.3421  0.1495
  838SOL    HW1 2513   0.073   1.232   1.583  1.0848  0.7911  0.0319
  838SOL    HW2 2514   3.071   1.357   1.648 -0.1694  0.0633  1.5511
  839SOL     OW 2515   0.224   0.184   0.675 -0.4959 -0.2372  0.3434
  839SOL    HW1 2516   0.219   0.257   0.746 -3.3252  0.3367  0.4788
  839SOL    HW2 2517   0.319   0.152   0.644  1.4894  0.5407 -0.9839
  840SOL     OW 2518   2.960   0.193   2.687 -0.0561 -0.7610  0.5460
  840SOL    HW1 2519   2.997   0.259   2.618 -1.0779 -0.1520 -1.7905
  840SOL    HW2 2520   2.952   0.237   2.776 -0.1829  0.1211 -2.6304
  841SOL     OW 2521   0.420   2.810   0.058  0.7018 -0.2420  0.1974
  841SOL    HW1 2522   0.344   2.782   0.123  1.4740  3.5182 -0.3628
  841SOL    HW2 2523   0.506   2.821   0.114  2.2427 -0.6454  2.1730
  842SOL     OW 2524   0.985   0.191   0.864 -0.2081  0.6524 -0.4590
  842SOL    HW1 2525   0.904   0.198   0.802  2.3656  1.2913  0.3475
  842SOL    HW2 2526   0.955   0.164   0.961 -0.3702  0.1641  0.2588
  843SOL     OW 2527   0.328   1.174   2.662 -0.8205  0.4888  0.7124
  843SOL    HW1 2528   0.237   1.140   2.673  0.6807  2.1699  1.4314
  843SOL    HW2 2529   0.399   1.096   2.659  0.6185 -0.9729  0.6508
  844SOL     OW 2530   0.895   2.212   2.387  0.2326 -0.0213 -0.4426
  844SOL    HW1 2531   0.809   2.210   2.334  2.5114 -0.9752  2.0236
  844SOL    HW2 2532   0.964   2.153   2.344 -0.1630 -1.1387 -0.3694
  845SOL     OW 2533   2.288   2.687   2.762 -0.0306 -0.6310 -0.2900
  845SOL    HW1 2534   2.370   2.750   2.754  1.2947  0.4187  3.7038
  845SOL    HW2 2535   2.210   2.727   2.710  3.0128 -0.8922 -0.1078
  846SOL     OW 2536   1.732   1.860   2.396  0.0017  0.2584  0.0078
  846SOL    HW1 2537   1.778   1.867   2.306  1.3467  1.6103 -0.0240
  846SOL    HW2 2538   1.646   1.802   2.389 -0.4143 -1.2101 -0.1931
  847SOL     OW 2539   2.738   3.040   2.875 -0.1303 -0.2570  0.2016
  847SOL    HW1 2540   2.771   2.950   2.837  1.5999 -0.9791  0.2731
  847SOL    HW2 2541   2.820   0.002   2.891 -2.5709  0.0052 -0.6210
  848SOL     OW 2542   0.001   0.703   0.383  0.1986  0.2899  0.2013
  848SOL    HW1 2543   3.016   0.772   0.397  3.3927 -0.4908 -0.8209
  848SOL    HW2 2544   0.034   0.657   0.471  1.7180  1.2249  1.9973
  849SOL     OW 2545   1.126   0.245   2.077  0.3820  0.5094  0.4643
  849SOL    HW1 2546   1.078   0.157   2.081  0.6198  0.5268 -2.5153
  849SOL    HW2 2547   1.186   0.262   2.152 -2.0318 -2.0969 -2.0611
  850SOL     OW 2548   0.332   0.873   0.484 -0.1891 -0.0349 -0.8863
  850SOL    HW1 2549   0.320   0.949   0.415 -2.5717  1.5967 -0.6514
  850SOL    HW2 2550   0.426   0.872   0.529  1.9002 -1.8484  1.8536
  851SOL     OW 2551   0.374   1.346   0.307 -0.0376  0.6223  0.4947
  851SOL    HW1 2552   0.394   1.445   0.317  3.8215  1.8304 -1.6906
  851SOL    HW2 2553   0.460   1.293   0.321 -1.7980 -0.3155 -1.6504
  852SOL     OW 2554   1.391   0.958   1.947 -0.4975  0.0347  0.2850
  852SOL    HW1 2555   1.440   1.035   1.897 -1.0531  2.0053 -2.6998
  852SOL    HW2 2556   1.455   0.920   2.022  1.5686  0.5396  3.3496
  853SOL     OW 2557   2.612   1.459   0.463 -0.4814  0.7815 -0.3720
  853SOL    HW1 2558   2.633   1.409   0.551  2.1146 -2.9825  0.0425
  853SOL    HW2 2559   2.690   1.454   0.394  1.5419 -0.8015 -3.4846
  854SOL     OW 2560   1.072   0.966   2.180  0.2225 -0.0599 -0.5736
  854SOL    HW1 2561   0.998   0.998   2.238  1.7834 -2.1036 -1.8527
  854SOL    HW2 2562   1.105   0.872   2.201  1.2133 -0.7837 -0.8404
  855SOL     OW 2563   0.257   2.690   2.868 -0.2220 -0.9273  0.1602
  855SOL    HW1 2564   0.305   2.770   2.833 -0.6270 -0.6973  3.5960
  855SOL    HW2 2565   0.173   2.732   2.907  0.3660 -0.5125 -0.4602
  856SOL     OW 2566   1.127   0.695   2.247 -0.5322 -0.1455  0.4679
  856SOL    HW1 2567   1.174   0.658   2.165  0.9931  2.9737 -1.7456
  856SOL    HW2 2568   1.051   0.636   2.282 -0.3652  0.0855 -1.6063
  857SOL     OW 2569   1.351   0.815   2.327  0.3953 -0.1327 -0.3055
  857SOL    HW1 2570   1.418   0.776   2.262 -1.3344 -2.9746  0.3107
  857SOL    HW2 2571   1.258   0.780   2.306  0.0658 -1.7743  1.6444
  858SOL     OW 2572   0.051   0.936   2.248  0.2109  0.1927  0.1459
  858SOL    HW1 2573   0.035   0.957   2.147  3.2452 -0.3826 -0.4445
  858SOL    HW2 2574   0.086   1.011   2.305  0.3044 -1.8732  1.4441
  859SOL     OW 2575   2.376   0.181   0.730  0.3656 -0.6542  0.6203
  859SOL    HW1 2576   2.449   0.193   0.802  1.0855 -0.8339  1.2699
  859SOL    HW2 2577   2.422   0.147   0.646  0.9859  0.9282  2.1717
  860SOL     OW 2578   1.827   0.009   0.593  0.0065  1.0321  0.3237
  860SOL    HW1 2579   1.824   0.005   0.693  3.0639  1.7311 -1.5792
  860SOL    HW2 2580   1.895   3.027   0.566  1.1131  0.5706 -1.6861
  861SOL     OW 2581   1.516   0.453   1.211 -0.1927  0.1510 -0.8335
  861SOL    HW1 2582   1.445   0.515   1.257  2.3073  1.3515  0.7592
  861SOL    HW2 2583   1.482   0.435   1.119  0.4565 -0.7100  3.1192
  862SOL     OW 2584   1.331   0.245   2.281 -0.2122 -0.2514  0.4536
  862SOL    HW1 2585   1.407   0.188   2.311 -1.5855  0.7116  0.1298
  862SOL    HW2 2586   1.354   0.346   2.291 -0.7201  1.0670 -0.9757
  863SOL     OW 2587   3.044   2.857   0.817  0.1695 -0.1479 -0.3472
  863SOL    HW1 2588   2.967   2.871   0.884  0.6863 -1.0841  2.5340
  863SOL    HW2 2589   3.076   2.765   0.842  0.0432  0.0920 -2.7849
  864SOL     OW 2590   2.489   0.244   2.257  0.0448 -0.6837 -0.0184
  864SOL    HW1 2591   2.413   0.300   2.221  2.3088 -2.6545  0.8028
  864SOL    HW2 2592   2.486   0.235   2.356 -1.4793 -0.2529  0.6825
  865SOL     OW 2593   0.960   1.326   1.894 -0.3339  0.5959  0.4351
  865SOL    HW1 2594   0.948   1.309   1.794  4.2761  2.1184  1.6132
  865SOL    HW2 2595   0.879   1.305   1.957  0.3405  2.1141  3.1589
  866SOL     OW 2596   2.155   2.766   1.032  0.1159  0.1544  0.5262
  866SOL    HW1 2597   2.053   2.770   1.022 -0.9086  1.8666  0.7473
  866SOL    HW2 2598   2.203   2.723   0.950 -1.1611 -2.1887 -1.3118
  867SOL     OW 2599   2.173   2.944   0.751  0.4474  0.6136 -0.3884
  867SOL    HW1 2600   2.262   2.904   0.720 -0.5714  0.6677 -0.8728
  867SOL    HW2 2601   2.173   2.985   0.846 -1.1557 -2.2452  1.2876
  868SOL     OW 2602   2.937   2.134   1.629 -0.2786  0.4536 -0.5542
  868SOL    HW1 2603   3.011   2.106   1.561  1.2106 -2.6655  0.8329
  868SOL    HW2 2604   2.875   2.209   1.598  0.6188 -0.1552  1.8792
  869SOL     OW 2605   2.066   2.278   2.098 -0.2505  0.3722  0.1828
  869SOL    HW1 2606   1.995   2.245   2.167 -0.7729  1.3775  3.0350
  869SOL    HW2 2607   2.130   2.342   2.146 -0.3943  3.5073  0.5230
  870SOL     OW 2608   1.453   1.411   0.793 -0.4013  1.0031 -0.0527
  870SOL    HW1 2609   1.504   1.481   0.736  0.7725  1.2797 -2.1237
  870SOL    HW2 2610   1.430   1.453   0.884 -0.0761 -2.5991 -0.7371
  871SOL     OW 2611   3.027   1.974   2.041 -0.7565 -0.5823 -0.0265
  871SOL    HW1 2612   2.963   2.041   2.088  1.6634  0.6578  1.5925
  871SOL    HW2 2613   3.088   1.928   2.109  0.2318 -2.1942  1.8388
  872SOL     OW 2614   1.076   1.521   2.652 -0.1866  0.1367 -0.1764
  872SOL    HW1 2615   1.016   1.554   2.574 -0.5769  0.7048 -2.6896
  872SOL    HW2 2616   1.115   1.430   2.633 -4.1188 -0.3731  0.1130
  873SOL     OW 2617   0.577   1.203   1.673 -0.0814  0.4542 -0.5334
  873SOL    HW1 2618   0.620   1.291   1.662 -2.0921  0.7337  0.3347
  873SOL    HW2 2619   0.634   1.147   1.735  1.3953 -2.6617 -0.3899
  874SOL     OW 2620   1.816   1.025   1.504 -0.4129 -0.3331 -0.4121
  874SOL    HW1 2621   1.797   0.942   1.447  0.8103 -0.7754 -1.7984
  874SOL    HW2 2622   1.887   0.992   1.569 -1.2260  1.8470 -0.9682
  875SOL     OW 2623   2.905   0.220   0.074 -0.1729  0.6737  0.2687
  875SOL    HW1 2624   2.848   0.198   0.155 -0.6984 -2.3411  0.5079
  875SOL    HW2 2625   2.995   0.176   0.086 -1.2614 -0.7932 -0.3029
  876SOL     OW 2626   0.780   1.269   0.233 -0.2658 -0.2983  0.1353
  876SOL    HW1 2627   0.840   1.266   0.312 -2.8814  0.3298 -2.2751
  876SOL    HW2 2628   0.828   1.253   0.146 -1.1985  0.1863  1.4554
  877SOL     OW 2629   2.755   2.728   0.608 -0.1037 -0.1672 -0.1427
  877SOL    HW1 2630   2.823   2.801   0.595  1.5310  0.9919 -2.0250
  877SOL    HW2 2631   2.799   2.635   0.604  0.2256  0.2022 -0.1080
  878SOL     OW 2632   1.897   1.796   0.496 -0.4011 -0.5071 -0.2070
  878SOL    HW1 2633   1.965   1.847   0.442  0.2222 -1.2069 -1.5611
  878SOL    HW2 2634   1.835   1.857   0.550  0.2321  0.6867  2.1318
  879SOL     OW 2635   2.854   1.759   2.030 -0.5955 -0.1388 -0.2832
  879SOL    HW1 2636   2.891   1.679   1.977 -0.4336 -0.7449  1.3829
  879SOL    HW2 2637   2.923   1.833   2.041 -1.8004  1.0056 -1.4529
  880SOL     OW 2638   0.470   2.108   0.897  0.4484  0.5113  0.4300
  880SOL    HW1 2639   0.502   2.058   0.984  3.1157  1.6473  1.3525
  880SOL    HW2 2640   0.479   2.050   0.814  1.7007  0.3461 -0.2746
  881SOL     OW 2641   0.805   0.369   1.342  0.5154  0.0372 -0.0981
  881SOL    HW1 2642   0.750   0.440   1.382  0.1946 -1.3409  0.4033
  881SOL    HW2 2643   0.748   0.311   1.285  0.3161 -0.6840  1.0514
  882SOL     OW 2644   2.256   1.019   1.133  0.5219 -0.5352  0.5651
  882SOL    HW1 2645   2.169   1.011   1.074 -1.4543  3.4631  1.6602
  882SOL    HW2 2646   2.313   1.105   1.112  1.1205 -1.6184  0.2728
  883SOL     OW 2647   1.268   0.208   1.592  0.0346  0.1395 -0.2860
  883SOL    HW1 2648   1.266   0.121   1.643 -2.2936 -2.2491  0.3060
  883SOL    HW2 2649   1.328   0.199   1.510 -0.1637 -3.2521 -0.8938
  884SOL     OW 2650   2.923   0.348   2.117  0.3001  0.2444 -0.0467
  884SOL    HW1 2651   2.918   0.425   2.052 -2.6236  2.3852 -1.0451
  884SOL    HW2 2652   3.023   0.321   2.134  0.0433 -0.4180  2.1898
  885SOL     OW 2653   1.353   1.521   3.000 -0.0576 -0.2925  0.4297
  885SOL    HW1 2654   1.289   1.562   2.928 -0.6260 -1.0080  0.5427
  885SOL    HW2 2655   1.451   1.543   2.969  3.0023  1.8487  1.4061
  886SOL     OW 2656   2.187   0.318   3.018 -0.3691  0.1000  0.2671
  886SOL    HW1 2657   2.253   0.249   3.057 -1.4481 -1.7201  0.4925
  886SOL    HW2 2658   2.128   0.354   3.092  2.6152 -0.7931  1.3152
  887SOL     OW 2659   1.431   2.864   1.576 -0.7181 -0.3156 -0.2233
  887SOL    HW1 2660   1.534   2.874   1.590  2.5529  1.3182 -2.0793
  887SOL    HW2 2661   1.385   2.784   1.616  0.5715 -0.0339  2.7595
  888SOL     OW 2662   1.900   1.763   2.202  0.0038 -0.0760  0.3217
  888SOL    HW1 2663   1.834   1.743   2.126 -1.3216  1.1279  3.4195
  888SOL    HW2 2664   1.997   1.783   2.184 -1.4350 -0.4851 -0.0902
  889SOL     OW 2665   2.055   2.302   0.637 -0.4776 -0.0713  0.4360
  889SOL    HW1 2666   2.135   2.245   0.662  2.9610 -1.8285  1.7331
  889SOL    HW2 2667   2.036   2.377   0.701 -2.6164 -0.9787 -1.8984
  890SOL     OW 2668   1.504   1.841   0.512  0.2292 -0.2844  0.0473
  890SOL    HW1 2669   1.428   1.905   0.493  1.5091  1.4084 -0.3520
  890SOL    HW2 2670   1.492   1.747   0.473 -0.1767  1.8379 -0.7119
  891SOL     OW 2671   2.783   0.949   0.081  0.4127 -0.0315 -0.0621
  891SOL    HW1 2672   2.709   0.996   0.129 -1.3631  0.2868 -2.0195
  891SOL    HW2 2673   2.874   0.989   0.086 -2.2987  0.3271 -4.6952
  892SOL     OW 2674   2.184   1.124   0.034  0.0836 -0.5270 -0.5326
  892SOL    HW1 2675   2.101   1.114   0.096 -1.0870  2.1144  1.4629
  892SOL    HW2 2676   2.217   1.222   0.028  1.7448  1.4640  0.0648
  893SOL     OW 2677   1.821   2.497   1.519 -0.1522 -0.0562 -0.1068
  893SOL    HW1 2678   1.871   2.541   1.595  1.4373  0.5514  2.2100
  893SOL    HW2 2679   1.838   2.541   1.426 -0.4636  1.1379  0.1770
  894SOL     OW 2680   2.596   2.917   0.532 -0.0588 -0.2338 -0.3214
  894SOL    HW1 2681   2.629   2.925   0.436 -1.8879  0.2804 -0.5155
  894SOL    HW2 2682   2.653   2.845   0.577  0.3526  0.3624  3.5233
  895SOL     OW 2683   2.347   2.448   2.883 -0.3147 -0.4374  0.3154
  895SOL    HW1 2684   2.395   2.404   2.806  1.0344 -1.6046 -2.1520
  895SOL    HW2 2685   2.334   2.546   2.858  0.4055 -1.1380 -0.5858
  896SOL     OW 2686   2.382   0.166   2.508 -0.3305  0.1491  0.1990
  896SOL    HW1 2687   2.345   0.183   2.600 -1.8882 -0.9525 -1.9126
  896SOL    HW2 2688   2.306   0.159   2.446  2.0638  0.9144  1.3023
  897SOL     OW 2689   0.257   1.742   1.972  0.4675 -0.1876 -0.4839
  897SOL    HW1 2690   0.288   1.640   1.962  1.1774 -2.7795  1.9012
  897SOL    HW2 2691   0.338   1.800   1.978 -2.7779 -1.8233  0.4104
  898SOL     OW 2692   2.594   1.771   1.690  0.5758 -0.3334 -0.5848
  898SOL    HW1 2693   2.600   1.815   1.781  0.7299 -1.5188 -1.7539
  898SOL    HW2 2694   2.673   1.806   1.634 -2.5940  1.0086  2.0841
  899SOL     OW 2695   1.689   2.780   1.386  0.0498 -0.1712 -0.4698
  899SOL    HW1 2696   1.668   2.788   1.487  0.8561  0.1671  1.1051
  899SOL    HW2 2697   1.654   2.855   1.329  0.6359 -1.2156  0.3790
  900SOL     OW 2698   1.112   0.723   3.060  0.0435 -0.4080 -0.1885
  900SOL    HW1 2699   1.183   0.746   2.988  0.5540 -0.7671  0.5167
  900SOL    HW2 2700   1.032   0.675   3.022  0.1859 -0.9529 -0.2655
  901SOL     OW 2701   1.184   1.372   2.325 -0.1932 -0.2612 -0.2454
  901SOL    HW1 2702   1.179   1.324   2.235 -0.6329 -0.4598  0.4295
  901SOL    HW2 2703   1.183   1.470   2.310  2.2755 -1.0357  2.7909
  902SOL     OW 2704   0.118   2.201   0.292  0.0049 -0.1875  0.1451
  902SOL    HW1 2705   0.136   2.102   0.273 -1.4637  0.5441 -0.2370
  902SOL    HW2 2706   0.063   2.243   0.219  1.1199 -0.4143 -1.1481
  903SOL     OW 2707   2.437   0.975   1.938 -0.2882 -0.2515  0.2151
  903SOL    HW1 2708   2.448   0.920   2.021  1.9834  2.5191 -1.7762
  903SOL    HW2 2709   2.465   1.073   1.959 -0.5399  1.5009 -2.4881
  904SOL     OW 2710   1.711   0.808   2.947 -1.0540  0.1080  0.2918
  904SOL    HW1 2711   1.628   0.867   2.978  2.2033  1.3049 -1.7113
  904SOL    HW2 2712   1.795   0.859   2.974 -2.8799  3.7423  2.5863
  905SOL     OW 2713   2.427   2.613   1.139  0.0522 -0.4360 -0.9031
  905SOL    HW1 2714   2.360   2.668   1.197  0.5001 -1.4858  2.0601
  905SOL    HW2 2715   2.379   2.536   1.097  2.4158  2.4706 -0.6048
  906SOL     OW 2716   1.577   1.978   3.063 -0.7269  0.3989 -0.4052
  906SOL    HW1 2717   1.493   1.994   3.006  1.7751 -0.2680 -3.9573
  906SOL    HW2 2718   1.561   1.980   0.069 -0.9203  0.9303 -2.1032
  907SOL     OW 2719   0.826   2.611   0.439 -0.2703 -0.2852  0.0704
  907SOL    HW1 2720   0.746   2.607   0.502  0.1115 -0.2588  1.1236
  907SOL    HW2 2721   0.852   2.526   0.398 -0.4889  2.1196 -0.7134
  908SOL     OW 2722   1.202   2.777   2.008 -0.2361 -0.5221 -0.4103
  908SOL    HW1 2723   1.169   2.695   1.958 -3.6266  0.1710 -2.0484
  908SOL    HW2 2724   1.252   2.830   1.935  0.4422 -1.9028 -1.1034
  909SOL     OW 2725   1.976   0.381   1.439 -0.5529  0.0889 -0.1053
  909SOL    HW1 2726   1.971   0.280   1.449 -0.7276  1.8635  1.1388
  909SOL    HW2 2727   1.898   0.418   1.387 -0.4053 -3.1048 -0.7190
  910SOL     OW 2728   1.289   0.834   2.848  0.2994  0.1636  0.0821
  910SOL    HW1 2729   1.194   0.854   2.815  2.1730  0.5049  2.3396
  910SOL    HW2 2730   1.333   0.753   2.804  0.8212  0.6196  0.1246
  911SOL     OW 2731   2.760   0.650   0.125  0.4159  0.3344  0.4777
  911SOL    HW1 2732   2.756   0.749   0.109  0.8182 -0.2072  1.0335
  911SOL    HW2 2733   2.730   0.623   0.223 -0.6575 -0.6013  0.1107
  912SOL     OW 2734   0.124   2.274   2.972 -0.3361  0.8391 -0.0214
  912SOL    HW1 2735   0.134   2.188   3.019 -0.5753  2.9249 -2.2916
  912SOL    HW2 2736   0.188   2.349   3.000 -1.0210  1.0349 -1.8202
  913SOL     OW 2737   2.601   1.934   2.839 -0.2924  0.2253  0.2967
  913SOL    HW1 2738   2.572   1.999   2.908 -0.6955 -1.6379 -2.7525
  913SOL    HW2 2739   2.702   1.920   2.852  0.8134  1.3505  0.9002
  914SOL     OW 2740   1.419   1.799   1.716  0.5577 -0.1710 -0.3029
  914SOL    HW1 2741   1.483   1.730   1.688 -2.5223  1.9345  0.9620
  914SOL    HW2 2742   1.346   1.804   1.647  3.0680  0.6249  0.3366
  915SOL     OW 2743   0.571   2.716   2.262 -0.3186  0.0073  1.2132
  915SOL    HW1 2744   0.559   2.817   2.232  0.7556  1.8823 -3.2130
  915SOL    HW2 2745   0.655   2.702   2.311  0.4330  0.7072  1.2695
  916SOL     OW 2746   0.345   1.318   1.634 -0.0858  0.2302  0.0212
  916SOL    HW1 2747   0.434   1.274   1.671  1.8501 -0.7524  2.0252
  916SOL    HW2 2748   0.291   1.249   1.575 -0.5853 -1.3373  0.3853
  917SOL     OW 2749   2.364   0.483   0.149 -0.1814  0.5659 -0.4494
  917SOL    HW1 2750   2.263   0.477   0.163 -1.4948 -0.1295  2.0490
  917SOL    HW2 2751   2.410   0.393   0.173 -2.6809 -0.3077  1.2722
  918SOL     OW 2752   1.424   2.673   2.224 -0.2962  0.1409 -0.0003
  918SOL    HW1 2753   1.447   2.579   2.253 -1.4870  1.1475 -3.7147
  918SOL    HW2 2754   1.330   2.695   2.253  0.7290  0.4113 -1.0967
  919SOL     OW 2755   1.540   2.543   1.739  0.5203 -0.2335 -0.4501
  919SOL    HW1 2756   1.605   2.604   1.792  5.7554 -0.1075  1.2923
  919SOL    HW2 2757   1.573   2.446   1.745 -0.0416  0.5303 -1.7703
  920SOL     OW 2758   0.854   0.992   2.987 -0.7609 -0.0111 -0.1090
  920SOL    HW1 2759   0.791   0.979   2.910  1.5005 -0.8169  1.5493
  920SOL    HW2 2760   0.819   0.953   3.074 -1.4860 -1.6457 -0.9372
  921SOL     OW 2761   0.092   0.816   2.681  0.1548 -1.0280 -0.5564
  921SOL    HW1 2762   0.004   0.795   2.638  3.5096  3.1813  0.9660
  921SOL    HW2 2763   0.161   0.817   2.611 -1.4107  1.3633  1.7980
  922SOL     OW 2764   0.831   1.825   0.523 -0.0802  0.3463 -0.2261
  922SOL    HW1 2765   0.920   1.782   0.496  2.0965  4.4895  0.8290
  922SOL    HW2 2766   0.823   1.829   0.623 -2.0490 -0.6758 -1.4501
  923SOL     OW 2767   0.320   1.140   2.081  0.3252  0.3784 -0.1389
  923SOL    HW1 2768   0.295   1.071   2.011 -2.1049 -1.6747  0.9170
  923SOL    HW2 2769   0.284   1.237   2.056  0.0619  2.0454 -1.3704
  924SOL     OW 2770   1.386   2.895   2.706 -0.0300 -0.0163  0.1733
  924SOL    HW1 2771   1.408   2.796   2.704 -0.0220  1.1143  1.1496
  924SOL    HW2 2772   1.322   2.921   2.778 -0.0832  0.3205 -3.1443
  925SOL     OW 2773   2.690   1.545   1.496  0.5058 -0.5994 -0.5961
  925SOL    HW1 2774   2.659   1.594   1.580 -0.0650 -0.5076 -0.3765
  925SOL    HW2 2775   2.703   1.612   1.422  1.2230  1.0250  0.9759
  926SOL     OW 2776   2.171   0.723   1.715  0.0742  0.2063 -0.1747
  926SOL    HW1 2777   2.274   0.733   1.729 -1.3801 -1.8008  0.5839
  926SOL    HW2 2778   2.147   0.625   1.691 -0.5449 -1.2820  0.1776
  927SOL     OW 2779   2.227   2.634   1.632 -0.4475  0.2840  0.6118
  927SOL    HW1 2780   2.278   2.719   1.656  1.5525 -1.4101  2.9084
  927SOL    HW2 2781   2.257   2.594   1.541 -2.0909 -0.8393  2.3751
  928SOL     OW 2782   0.253   0.853   2.452 -0.5176  0.3748  0.4539
  928SOL    HW1 2783   0.218   0.945   2.428  2.1100 -1.0551  2.6032
  928SOL    HW2 2784   0.277   0.792   2.368 -0.4788 -1.8171 -0.3210
  929SOL     OW 2785   2.202   0.049   0.950 -0.4340  0.2159  0.3220
  929SOL    HW1 2786   2.278   0.092   0.897  0.4372  0.3543 -0.4757
  929SOL    HW2 2787   2.115   0.101   0.957  2.7039  1.6791  1.2089
  930SOL     OW 2788   2.790   2.904   1.909 -0.4744  0.1378 -0.3437
  930SOL    HW1 2789   2.828   2.918   2.004 -0.5046  1.5742  0.9283
  930SOL    HW2 2790   2.856   2.902   1.836 -4.5451  1.4065 -0.3459
  931SOL     OW 2791   1.850   0.768   0.456 -0.4361  0.4640  0.2713
  931SOL    HW1 2792   1.854   0.775   0.556  0.1067 -0.5089  2.4891
  931SOL    HW2 2793   1.921   0.825   0.414 -0.6877 -2.2104  1.6622
  932SOL     OW 2794   2.592   1.448   1.824 -0.9611  0.5072  0.0392
  932SOL    HW1 2795   2.621   1.373   1.888 -1.7739  1.8711 -2.5694
  932SOL    HW2 2796   2.536   1.404   1.747 -4.8781 -0.9486 -1.5312
  933SOL     OW 2797   2.835   2.377   1.559 -0.0076 -0.1133 -0.3089
  933SOL    HW1 2798   2.783   2.428   1.634  0.4562  0.8613 -2.3933
  933SOL    HW2 2799   2.934   2.405   1.552  0.9434  0.2151 -1.2612
  934SOL     OW 2800   0.523   1.903   1.473  0.2567 -0.4632 -0.6162
  934SOL    HW1 2801   0.581   1.983   1.449  2.2407 -2.9279  2.4343
  934SOL    HW2 2802   0.425   1.931   1.481  0.4514 -2.0116 -0.9566
  935SOL     OW 2803   2.736   1.616   2.254 -0.3166  0.4691  0.2501
  935SOL    HW1 2804   2.782   1.679   2.190 -0.0473 -0.1040  1.8776
  935SOL    HW2 2805   2.659   1.571   2.211  0.6861  4.0034 -1.6105
  936SOL     OW 2806   2.341   1.609   2.268  0.1159 -0.3770 -0.1107
  936SOL    HW1 2807   2.410   1.538   2.249 -0.4894  0.2610 -1.1301
  936SOL    HW2 2808   2.324   1.672   2.194  4.2975 -2.4734  3.2501
  937SOL     OW 2809   2.237   1.607   1.815 -0.3425 -0.3478  0.1620
  937SOL    HW1 2810   2.296   1.562   1.885 -1.7222 -1.7663 -0.2290
  937SOL    HW2 2811   2.247   1.707   1.817 -0.3221 -0.7637 -1.5373
  938SOL     OW 2812   0.686   2.188   2.566 -0.0647 -0.1727  0.5708
  938SOL    HW1 2813   0.783   2.172   2.531  2.1655 -1.3321  0.5639
  938SOL    HW2 2814   0.621   2.200   2.492  1.3997 -3.7527  1.2362
  939SOL     OW 2815   2.340   0.954   2.935 -0.8255  0.2355 -0.6818
  939SOL    HW1 2816   2.297   0.924   2.852  0.6842  1.1757  1.4501
  939SOL    HW2 2817   2.289   1.015   2.999  0.6811 -0.1793  0.6962
  940SOL     OW 2818   1.275   1.727   0.657 -0.2923  0.3059 -0.2574
  940SOL    HW1 2819   1.330   1.647   0.627  0.1332 -0.3220  2.2367
  940SOL    HW2 2820   1.244   1.722   0.755 -1.2750 -2.9473 -0.6419
  941SOL     OW 2821   1.575   2.647   2.474  0.1367 -0.7524  0.7464
  941SOL    HW1 2822   1.526   2.638   2.562 -0.5311 -3.4885 -0.5520
  941SOL    HW2 2823   1.518   2.695   2.404  1.2925  0.4999 -2.1504
  942SOL     OW 2824   0.848   2.348   0.372  0.6194  0.3484 -0.1276
  942SOL    HW1 2825   0.848   2.331   0.273  0.2072 -0.6262  1.0089
  942SOL    HW2 2826   0.894   2.266   0.411 -1.4999 -2.9531  0.6851
  943SOL     OW 2827   1.676   2.908   1.654  0.1315  0.2697  0.1682
  943SOL    HW1 2828   1.751   2.895   1.715 -1.4918  0.2327 -1.4322
  943SOL    HW2 2829   1.678   3.000   1.604 -3.2183  1.6869 -1.2810
  944SOL     OW 2830   0.910   1.437   2.845  0.5774 -0.0773  0.0807
  944SOL    HW1 2831   0.981   1.465   2.781  0.8577 -0.7593  0.3831
  944SOL    HW2 2832   0.855   1.362   2.800  1.5734  0.9709  0.1306
  945SOL     OW 2833   0.167   2.374   0.682 -0.4194 -0.2521  0.4660
  945SOL    HW1 2834   0.182   2.333   0.773  1.5106  0.5501 -1.1405
  945SOL    HW2 2835   0.165   2.298   0.615  2.1614  3.2399  1.5853
  946SOL     OW 2836   0.821   1.227   2.739 -0.1562  0.0553  0.0963
  946SOL    HW1 2837   0.750   1.168   2.770  2.3359 -0.3516 -1.8991
  946SOL    HW2 2838   0.894   1.177   2.689 -0.2844 -0.6120 -0.6583
  947SOL     OW 2839   2.518   3.017   1.842  0.3184 -0.5626  0.2736
  947SOL    HW1 2840   2.616   2.995   1.847  1.0758 -2.8241 -1.0991
  947SOL    HW2 2841   2.492   3.086   1.913  1.0079  0.1250 -1.1279
  948SOL     OW 2842   0.197   1.965   1.081 -0.0186  0.0893 -1.2035
  948SOL    HW1 2843   0.215   1.931   0.989 -1.5279  1.9472  0.8261
  948SOL    HW2 2844   0.261   1.922   1.147  0.8627 -1.7665  0.6145
  949SOL     OW 2845   0.983   1.001   1.578  0.3365  0.2304  0.0871
  949SOL    HW1 2846   1.055   0.961   1.630 -3.1194  0.0789  0.8788
  949SOL    HW2 2847   0.983   1.102   1.597 -0.1930  0.0457  0.5555
  950SOL     OW 2848   0.016   0.918   1.099  0.3741 -0.5225 -0.4793
  950SOL    HW1 2849   0.045   0.823   1.078 -0.0968 -1.1842 -1.7452
  950SOL    HW2 2850   0.073   0.960   1.176  1.9579 -0.1262  0.7989
  951SOL     OW 2851   0.475   2.031   2.245 -0.0161  0.0922  0.0213
  951SOL    HW1 2852   0.549   1.975   2.288  1.1512 -0.3473 -0.1555
  951SOL    HW2 2853   0.385   2.019   2.291 -1.6282  2.5981 -0.5234
  952SOL     OW 2854   1.324   2.038   0.400  0.1179 -0.5175 -0.1134
  952SOL    HW1 2855   1.314   2.140   0.414 -0.6818  1.9502  1.6497
  952SOL    HW2 2856   1.236   2.006   0.370  3.0098  2.6185  0.5216
  953SOL     OW 2857   0.888   0.586   0.229 -0.2828  0.3962  0.1251
  953SOL    HW1 2858   0.868   0.489   0.220 -2.1212  0.8712 -0.0295
  953SOL    HW2 2859   0.896   0.644   0.145 -0.9449 -0.1598  1.7946
  954SOL     OW 2860   2.213   0.850   0.847 -0.2793 -0.1996  0.2270
  954SOL    HW1 2861   2.255   0.773   0.903  0.2707  1.0564 -1.0638
  954SOL    HW2 2862   2.142   0.892   0.907 -0.9686  2.2454 -2.1855
  955SOL     OW 2863   2.334   1.363   0.432 -0.6129  0.2535  0.1019
  955SOL    HW1 2864   2.274   1.403   0.364  0.6787 -1.2997  2.7312
  955SOL    HW2 2865   2.426   1.407   0.420 -1.3858 -1.8866  0.5400
  956SOL     OW 2866   0.694   0.601   1.601 -0.1908  0.0441  0.1903
  956SOL    HW1 2867   0.595   0.577   1.596  0.7265 -1.6954  0.1373
  956SOL    HW2 2868   0.715   0.696   1.574 -2.7384 -0.8511  0.5621
  957SOL     OW 2869   1.726   0.751   0.921 -0.2898  0.2624  0.3945
  957SOL    HW1 2870   1.749   0.807   1.006  2.4500 -4.9536  2.3754
  957SOL    HW2 2871   1.650   0.789   0.864  1.1571  0.8827  0.9088
  958SOL     OW 2872   0.523   1.946   0.671  0.3360 -0.0006 -0.7285
  958SOL    HW1 2873   0.475   1.856   0.643 -2.7440 -0.8133  0.5029
  958SOL    HW2 2874   0.535   2.009   0.595  0.6658  0.3077 -0.8185
  959SOL     OW 2875   1.997   1.814   1.523 -0.0266 -0.2768  0.2122
  959SOL    HW1 2876   2.003   1.827   1.624  0.0059  1.4835 -0.9008
  959SOL    HW2 2877   2.067   1.756   1.487 -2.4919  2.5494  1.4130
  960SOL     OW 2878   3.003   1.873   2.740 -0.0221  0.0120 -0.4771
  960SOL    HW1 2879   2.922   1.867   2.799  1.3943 -1.7613  1.3192
  960SOL    HW2 2880   3.021   1.784   2.692 -1.4034  0.7129 -3.0433
  961SOL     OW 2881   1.033   1.241   0.869  0.1178 -0.2192 -0.0771
  961SOL    HW1 2882   0.992   1.333   0.848  1.0059  1.7858  0.6604
  961SOL    HW2 2883   1.133   1.240   0.854  0.5130 -0.5112  1.0885
  962SOL     OW 2884   0.841   0.822   0.663  0.0631 -0.1119  0.0524
  962SOL    HW1 2885   0.898   0.896   0.707  0.2318  1.3810 -2.9801
  962SOL    HW2 2886   0.866   0.803   0.571 -1.5346  1.4465  3.6992
  963SOL     OW 2887   1.073   1.842   1.980 -0.0020  0.2467  0.8226
  963SOL    HW1 2888   1.038   1.745   1.970  0.7823  1.6978  0.6468
  963SOL    HW2 2889   1.173   1.832   2.005 -0.0811 -0.8969 -2.6790
  964SOL     OW 2890   0.157   2.749   2.428 -0.0483 -0.8737 -0.2800
  964SOL    HW1 2891   0.238   2.691   2.462 -0.9165 -1.8321 -2.5703
  964SOL    HW2 2892   0.130   2.821   2.497  1.3628 -2.2151  1.9886
  965SOL     OW 2893   0.830   1.987   0.108 -0.0484 -0.0289 -0.3134
  965SOL    HW1 2894   0.844   2.083   0.082  1.0193 -2.8115 -0.5273
  965SOL    HW2 2895   0.792   1.941   0.027 -0.0283 -0.0107  1.1866
  966SOL     OW 2896   2.995   1.791   0.119 -0.1128 -0.3073  0.5028
  966SOL    HW1 2897   2.912   1.758   0.158  2.4300 -2.3223 -0.4116
  966SOL    HW2 2898   3.060   1.713   0.112  1.8932 -0.5673  0.5085
  967SOL     OW 2899   1.882   2.472   2.727 -0.1614  0.0187 -0.1259
  967SOL    HW1 2900   1.983   2.461   2.723  1.9669  2.2587  0.2052
  967SOL    HW2 2901   1.833   2.418   2.801 -1.3853 -2.6429  4.5303
  968SOL     OW 2902   2.520   2.829   0.955  0.1223 -0.0226 -0.1099
  968SOL    HW1 2903   2.562   2.909   1.011 -1.0621  2.0804 -0.8707
  968SOL    HW2 2904   2.498   2.750   1.012 -3.0416 -2.2409  1.4571
  969SOL     OW 2905   0.480   1.008   2.294 -0.1140  0.7923 -0.4391
  969SOL    HW1 2906   0.548   1.080   2.285 -0.4807  2.2327 -1.0207
  969SOL    HW2 2907   0.405   1.036   2.233 -2.2388 -0.6258  4.0090
  970SOL     OW 2908   1.884   1.209   0.447 -0.6670 -0.1097 -0.4052
  970SOL    HW1 2909   1.935   1.278   0.397 -1.3576 -0.5966  3.5479
  970SOL    HW2 2910   1.947   1.161   0.515 -2.5377  0.8280  1.8829
  971SOL     OW 2911   2.176   3.011   1.558  0.4026 -0.3317 -0.4550
  971SOL    HW1 2912   2.213   2.979   1.648 -2.0141 -0.4859  0.9014
  971SOL    HW2 2913   2.256   3.049   1.507  1.0139  0.0810 -2.3686
  972SOL     OW 2914   0.013   0.243   1.294 -0.0268 -0.0001 -0.6433
  972SOL    HW1 2915   0.011   0.143   1.270 -0.2965  2.9099  0.9820
  972SOL    HW2 2916   0.026   0.259   1.392 -0.9971 -0.2182 -0.9459
  973SOL     OW 2917   0.058   0.381   2.592  0.4380 -0.3227 -0.2019
  973SOL    HW1 2918   0.051   0.365   2.692  0.5572 -0.9072  3.2428
  973SOL    HW2 2919   0.144   0.427   2.567  1.5346  1.6242 -0.2725
  974SOL     OW 2920   2.447   1.251   2.034  0.0996  1.1243  0.0346
  974SOL    HW1 2921   2.361   1.279   1.986 -0.8406  1.2583  1.8586
  974SOL    HW2 2922   2.469   1.312   2.111  2.7442 -2.7568 -0.4477
  975SOL     OW 2923   1.070   0.483   1.398 -0.4678  0.2291  0.1075
  975SOL    HW1 2924   0.975   0.445   1.402  0.7292 -0.5996 -1.2353
  975SOL    HW2 2925   1.102   0.509   1.495  0.0196  0.1496  2.4360
  976SOL     OW 2926   0.704   1.420   1.589  0.4293 -0.6127 -0.5852
  976SOL    HW1 2927   0.664   1.499   1.643 -2.1400 -2.5473 -0.8911
  976SOL    HW2 2928   0.709   1.439   1.491 -0.1597  1.3164 -1.8991
  977SOL     OW 2929   1.017   3.085   0.186 -0.0946  0.6025 -0.0531
  977SOL    HW1 2930   1.011   0.042   0.096 -0.5797 -0.4256 -1.6273
  977SOL    HW2 2931   1.114   3.091   0.211  0.3177 -0.6166 -1.2386
  978SOL     OW 2932   2.546   1.397   2.250 -0.0821  0.4827 -0.3142
  978SOL    HW1 2933   2.496   1.341   2.316  0.5233 -0.3424 -2.2419
  978SOL    HW2 2934   2.647   1.366   2.252  3.5206 -1.5517 -1.3138
  979SOL     OW 2935   1.435   0.426   2.028  0.1053 -0.5166 -0.1962
  979SOL    HW1 2936   1.357   0.486   2.028 -1.2036 -2.2731  0.1439
  979SOL    HW2 2937   1.452   0.400   1.933 -0.9213  2.0297  3.6974
  980SOL     OW 2938   1.605   1.615   1.693 -0.2169 -0.4640 -0.9518
  980SOL    HW1 2939   1.642   1.634   1.600 -2.0095  2.7488  0.9078
  980SOL    HW2 2940   1.655   1.533   1.729  2.8211 -2.4286  1.3557
  981SOL     OW 2941   2.525   1.220   1.650 -0.2451  0.2127 -0.0218
  981SOL    HW1 2942   2.545   1.213   1.553  0.9150  0.6991  1.4759
  981SOL    HW2 2943   2.439   1.168   1.674 -0.9934 -1.0360 -0.8554
  982SOL     OW 2944   0.505   0.145   2.876 -0.0632 -0.3445  0.3575
  982SOL    HW1 2945   0.552   0.231   2.898  0.8704  1.3181 -0.5575
  982SOL    HW2 2946   0.533   0.068   2.935  2.9465  1.5060 -1.6904
  983SOL     OW 2947   2.220   0.535   2.847 -0.5537  0.8429  0.2587
  983SOL    HW1 2948   2.319   0.548   2.812  4.8135  0.7279 -1.7539
  983SOL    HW2 2949   2.209   0.467   2.919 -0.6010  1.5302  0.4578
  984SOL     OW 2950   1.079   2.924   1.684 -0.0481 -0.4045  0.0813
  984SOL    HW1 2951   1.130   2.851   1.632  0.7805  1.3142 -3.8436
  984SOL    HW2 2952   1.033   2.892   1.768 -0.4304  1.1860  2.9227
  985SOL     OW 2953   1.597   1.979   2.044 -0.3487 -0.3944  0.0462
  985SOL    HW1 2954   1.672   1.920   2.013 -0.3674 -2.0559  1.4131
  985SOL    HW2 2955   1.585   2.062   1.983  0.7731  0.5096  3.2885
  986SOL     OW 2956   2.151   0.325   1.874 -0.0611 -1.2963 -0.1989
  986SOL    HW1 2957   2.249   0.356   1.876  0.0038 -0.3216  1.2929
  986SOL    HW2 2958   2.140   0.234   1.906 -2.3129  0.8709 -3.6265
  987SOL     OW 2959   2.445   1.231   1.162  0.0039 -0.5313 -0.2016
  987SOL    HW1 2960   2.464   1.328   1.140 -0.6704 -1.8452  0.2536
  987SOL    HW2 2961   2.466   1.208   1.260 -2.0952  2.6625  0.9658
  988SOL     OW 2962   2.215   2.206   1.617 -0.4394  0.0264 -0.3412
  988SOL    HW1 2963   2.291   2.270   1.649  3.2471 -1.7752  1.5906
  988SOL    HW2 2964   2.142   2.202   1.688  0.3008 -1.6331  0.7473
  989SOL     OW 2965   1.098   2.542   0.036 -0.4439  0.5869 -0.4622
  989SOL    HW1 2966   1.059   2.616   0.097  0.7982  1.2733  1.7104
  989SOL    HW2 2967   1.122   2.456   0.090 -1.1030 -0.7419  1.5799
  990SOL     OW 2968   1.845   1.083   2.754 -0.1861  0.2468  0.8706
  990SOL    HW1 2969   1.895   1.154   2.702 -0.3504 -0.2398 -0.4143
  990SOL    HW2 2970   1.784   1.039   2.688  0.9524 -0.2067  3.1953
  991SOL     OW 2971   1.275   0.320   0.542  0.2534  0.1018 -0.3299
  991SOL    HW1 2972   1.353   0.259   0.573  1.7387 -0.2724  0.6722
  991SOL    HW2 2973   1.297   0.389   0.477 -1.1511 -1.0665  3.1590
  992SOL     OW 2974   2.598   1.162   1.402 -0.2429 -0.6199 -0.4215
  992SOL    HW1 2975   2.621   1.078   1.345 -3.3737  0.8592 -1.2015
  992SOL    HW2 2976   2.674   1.225   1.405  0.8621 -1.7460 -0.9358
  993SOL     OW 2977   2.446   0.737   1.794  0.2116  0.7554 -0.1295
  993SOL    HW1 2978   2.486   0.674   1.865  1.2765  1.6557 -1.2940
  993SOL    HW2 2979   2.426   0.828   1.835  1.1335 -1.7121  0.4622
  994SOL     OW 2980   0.644   1.959   2.715 -0.2962 -0.3465 -0.1567
  994SOL    HW1 2981   0.656   2.059   2.692  0.4729 -0.0870  0.1396
  994SOL    HW2 2982   0.545   1.929   2.713 -0.2925 -1.6287  0.1230
  995SOL     OW 2983   1.990   1.285   2.625  0.3471  0.1650  0.4992
  995SOL    HW1 2984   1.938   1.259   2.541  1.7191  0.1006  0.8681
  995SOL    HW2 2985   1.952   1.374   2.665 -0.7184  2.7381  2.1821
  996SOL     OW 2986   2.540   1.676   0.350  0.0695  0.3394  0.4038
  996SOL    HW1 2987   2.551   1.750   0.418  0.9088 -0.2550 -0.6552
  996SOL    HW2 2988   2.555   1.585   0.398 -2.1004 -1.4450  2.0474
  997SOL     OW 2989   1.969   0.718   2.188  0.1401  0.2045  0.2216
  997SOL    HW1 2990   2.044   0.753   2.125  1.5814 -2.2139 -0.9288
  997SOL    HW2 2991   1.965   0.618   2.174  0.3037  2.6549  0.1526
  998SOL     OW 2992   2.624   1.137   0.220 -0.2354  0.5758  0.3459
  998SOL    HW1 2993   2.535   1.083   0.212  0.0513  2.3928  1.1533
  998SOL    HW2 2994   2.623   1.228   0.172  1.4476  3.1477  1.8186
  999SOL     OW 2995   2.978   2.069   0.448  0.1963  0.1970 -0.7595
  999SOL    HW1 2996   3.061   2.077   0.391 -2.6558  3.0475 -0.4954
  999SOL    HW2 2997   2.917   2.149   0.431 -0.4731 -0.2803  0.2799
 1000SOL     OW 2998   0.723   0.801   2.492 -0.2503  0.7324  0.0812
 1000SOL    HW1 2999   0.815   0.785   2.537  0.3728 -0.3642 -1.6642
 1000SOL    HW2 3000   0.699   0.729   2.421 -1.3474  1.3527 -1.0601
   3.09303   3.09303   3.09303
