1000 SPC/Fw water molecules t= 235.00000 step= 235000
 3000
    1SOL     OW    1   2.980   2.783   1.069 -0.1618  0.1798 -0.0729
    1SOL    HW1    2   2.883   2.819   1.076  0.2814  1.2563  0.7754
    1SOL    HW2    3   3.010   2.744   1.159 -0.2876 -0.5815 -0.0063
    2SOL     OW    4   1.948   1.775   1.542  0.1487 -0.0872 -0.5044
    2SOL    HW1    5   1.987   1.681   1.560 -1.8847 -1.3473 -0.3945
    2SOL    HW2    6   1.874   1.783   1.474  0.5121 -0.9304 -0.0691
    3SOL     OW    7   1.737   2.488   2.686  0.2194  0.0173 -0.9225
    3SOL    HW1    8   1.689   2.570   2.733 -3.9323 -1.5598  0.6929
    3SOL    HW2    9   1.788   2.509   2.602  1.0803 -1.2045  0.6142
    4SOL     OW   10   2.150   1.905   2.085  0.3603 -0.6351 -0.2926
    4SOL    HW1   11   2.130   1.975   2.162  0.2225 -0.3312  0.7942
    4SOL    HW2   12   2.232   1.848   2.098  0.6569 -0.0797  0.4354
    5SOL     OW   13   1.311   1.151   1.529 -0.1757  0.0665 -0.5649
    5SOL    HW1   14   1.308   1.165   1.430 -2.0876  1.5953 -1.0138
    5SOL    HW2   15   1.267   1.067   1.559  1.7700 -4.5302 -0.2412
    6SOL     OW   16   2.514   2.997   0.030  0.0363  0.1949  0.0395
    6SOL    HW1   17   2.457   2.975   3.054 -2.1911 -1.3272  0.0350
    6SOL    HW2   18   2.525   2.924   0.092  0.4387  1.9141 -0.2279
    7SOL     OW   19   2.987   1.527   1.572 -0.2633 -0.8153  0.0700
    7SOL    HW1   20   2.946   1.468   1.647  0.2382 -0.8331 -0.2143
    7SOL    HW2   21   3.088   1.520   1.555  1.6571  3.2210 -2.4041
    8SOL     OW   22   1.056   0.511   0.804 -0.2183  0.2467 -0.2414
    8SOL    HW1   23   1.134   0.514   0.870  1.2153  2.5839 -2.5479
    8SOL    HW2   24   0.991   0.435   0.821  1.8963  1.7150 -3.2850
    9SOL     OW   25   1.419   0.507   2.476  0.3178 -0.0118  0.1837
    9SOL    HW1   26   1.501   0.550   2.517  3.2215 -2.5689 -2.1456
    9SOL    HW2   27   1.427   0.497   2.374 -1.2444  2.5125  0.0029
   10SOL     OW   28   0.604   2.239   0.240 -0.1736  0.3545  0.4499
   10SOL    HW1   29   0.537   2.160   0.249  0.4427 -2.2518 -2.4666
   10SOL    HW2   30   0.612   2.286   0.326 -1.5176 -1.6342 -1.0578
   11SOL     OW   31   0.909   0.885   0.113  0.8071 -0.1251  0.5530
   11SOL    HW1   32   0.809   0.854   0.094  0.2553 -1.4173  0.6597
   11SOL    HW2   33   0.913   0.981   0.145  1.4995  0.0069 -0.7604
   12SOL     OW   34   0.136   0.213   1.527  0.1515  0.4130 -0.0610
   12SOL    HW1   35   0.062   0.257   1.576  0.5389 -0.6983  0.8266
   12SOL    HW2   36   0.226   0.255   1.551  0.3795  0.4089 -2.9987
   13SOL     OW   37   1.245   0.029   0.103 -0.0226 -0.0405 -0.4206
   13SOL    HW1   38   1.176   0.057   0.033 -1.2507 -1.7274  1.9581
   13SOL    HW2   39   1.194   0.028   0.191  1.9920  0.9702 -2.0304
   14SOL     OW   40   1.226   2.500   1.150  0.4050 -0.1886  0.0152
   14SOL    HW1   41   1.252   2.520   1.241 -0.0876  0.0237 -3.4437
   14SOL    HW2   42   1.251   2.407   1.119 -0.4727  0.4390 -0.4699
   15SOL     OW   43   2.600   1.011   1.604 -0.1839 -0.0453 -0.4246
   15SOL    HW1   44   2.675   1.073   1.624 -1.3229 -1.1775  0.8324
   15SOL    HW2   45   2.594   0.931   1.669 -1.1327 -0.8418 -3.3870
   16SOL     OW   46   1.872   2.709   2.929  0.3782  0.2598 -0.0765
   16SOL    HW1   47   1.841   2.760   2.846 -0.6183 -1.6725  0.9478
   16SOL    HW2   48   1.794   2.710   2.993 -2.0867  2.3078 -1.4952
   17SOL     OW   49   0.756   3.046   1.316 -0.3949 -0.0474  0.4984
   17SOL    HW1   50   0.797   2.994   1.235 -1.2739  0.0797 -0.5954
   17SOL    HW2   51   0.667   3.012   1.347 -0.3762  0.2347  1.8529
   18SOL     OW   52   1.628   0.587   2.889  0.1679  0.1643  0.2348
   18SOL    HW1   53   1.546   0.527   2.891 -1.0155 -0.1515  1.2738
   18SOL    HW2   54   1.691   0.567   2.969 -0.8594  0.1651  0.2920
   19SOL     OW   55   1.964   1.907   2.985  0.1830  0.4304  0.1666
   19SOL    HW1   56   1.965   1.811   3.023 -0.6752 -0.5695  0.0329
   19SOL    HW2   57   2.027   1.969   3.030  0.1950  1.0372  0.9014
   20SOL     OW   58   2.032   1.507   1.486 -0.0800  0.1738 -0.2216
   20SOL    HW1   59   2.122   1.465   1.501 -2.5886 -0.0037  1.5136
   20SOL    HW2   60   1.957   1.437   1.496 -1.5553  1.3194  0.9280
   21SOL     OW   61   0.718   1.466   2.854 -0.5898 -0.2046 -0.4213
   21SOL    HW1   62   0.793   1.451   2.785 -0.7244 -2.2276  0.5584
   21SOL    HW2   63   0.698   1.374   2.897  0.7184 -1.7387  0.4209
   22SOL     OW   64   1.835   2.777   1.432 -0.4722 -0.3738 -0.0233
   22SOL    HW1   65   1.779   2.853   1.470  3.2227  0.1186 -2.5310
   22SOL    HW2   66   1.899   2.818   1.366 -0.5638 -0.5611  0.0848
   23SOL     OW   67   3.019   0.580   1.687 -0.0922 -0.4026  0.1228
   23SOL    HW1   68   3.100   0.573   1.627 -1.2598 -2.1645 -1.0431
   23SOL    HW2   69   2.960   0.658   1.651  0.7516  3.6352 -2.0692
   24SOL     OW   70   2.261   2.509   1.070 -0.5508 -0.6863  0.1819
   24SOL    HW1   71   2.277   2.506   1.175 -0.2025  1.5061  1.7726
   24SOL    HW2   72   2.175   2.457   1.046 -1.9844 -2.6774  1.7630
   25SOL     OW   73   1.518   2.849   2.543  0.3019 -0.0434  0.1407
   25SOL    HW1   74   1.585   2.788   2.485  2.6048  0.1887 -1.8712
   25SOL    HW2   75   1.421   2.835   2.513  0.4325 -1.0768 -2.5341
   26SOL     OW   76   1.841   2.867   2.708 -0.1848 -0.4933  0.1693
   26SOL    HW1   77   1.904   2.918   2.648  4.1928  0.5681 -1.1106
   26SOL    HW2   78   1.745   2.895   2.694  1.5535 -1.2425 -0.9993
   27SOL     OW   79   0.243   1.637   2.965 -0.1789  0.2583  0.3099
   27SOL    HW1   80   0.170   1.688   3.015  2.7901  1.3592  1.7480
   27SOL    HW2   81   0.211   1.578   2.885  1.6812 -3.3545 -1.7179
   28SOL     OW   82   2.780   1.205   1.595  0.4177 -0.4731  0.3547
   28SOL    HW1   83   2.781   1.264   1.511 -0.3605 -1.9347 -0.3916
   28SOL    HW2   84   2.813   1.247   1.678 -0.3111 -2.3855 -1.8625
   29SOL     OW   85   2.500   2.625   1.714 -0.2245 -0.4491 -0.4934
   29SOL    HW1   86   2.514   2.540   1.770 -1.3150 -3.8893 -0.5248
   29SOL    HW2   87   2.570   2.696   1.731 -3.5144 -2.2959 -1.2842
   30SOL     OW   88   1.450   0.254   3.038 -0.3353  0.3786  0.4957
   30SOL    HW1   89   1.371   0.297   2.984  0.5343 -0.1465  0.5610
   30SOL    HW2   90   1.454   0.294   0.023  2.9044  0.0991 -1.8477
   31SOL     OW   91   2.705   2.812   1.773 -0.2987 -0.4214  0.4779
   31SOL    HW1   92   2.756   2.819   1.860  0.6342  1.2024  1.0776
   31SOL    HW2   93   2.696   2.907   1.736  1.4593  0.5069 -0.1032
   32SOL     OW   94   1.053   1.513   1.472  0.8503  0.0338 -0.1988
   32SOL    HW1   95   0.988   1.561   1.542 -1.4012  1.8128 -0.2770
   32SOL    HW2   96   1.032   1.530   1.374 -0.0608 -0.4711  0.6154
   33SOL     OW   97   0.392   2.614   2.256  0.0766 -0.2512 -0.0199
   33SOL    HW1   98   0.341   2.572   2.177  1.1961  0.6686 -0.0424
   33SOL    HW2   99   0.345   2.589   2.343 -2.1337 -1.1350 -2.2162
   34SOL     OW  100   1.526   0.057   0.539  0.1433  0.0382  0.0020
   34SOL    HW1  101   1.442   0.082   0.594  0.4901 -0.4559  1.5879
   34SOL    HW2  102   1.616   0.070   0.590  0.6189 -1.3216 -3.3758
   35SOL     OW  103   2.073   3.049   0.864 -0.0718  1.0748  0.5403
   35SOL    HW1  104   2.072   3.063   0.765 -0.8554 -0.6908  3.6257
   35SOL    HW2  105   1.997   3.102   0.905  1.7747 -0.4335  0.1543
   36SOL     OW  106   1.804   2.648   2.156  0.1323  0.2596  0.3001
   36SOL    HW1  107   1.898   2.622   2.187  2.3403 -1.1174  0.3963
   36SOL    HW2  108   1.751   2.565   2.129 -0.6912 -2.2987 -0.7089
   37SOL     OW  109   0.878   2.843   2.608 -0.0964 -0.7621  0.2546
   37SOL    HW1  110   0.898   2.744   2.594  0.7421 -1.4300 -1.4876
   37SOL    HW2  111   0.949   2.886   2.664  0.8267 -1.3171  0.1072
   38SOL     OW  112   0.100   2.671   2.551  0.3247  0.0942 -0.2850
   38SOL    HW1  113   0.173   2.603   2.527  1.3210  1.0924  0.7262
   38SOL    HW2  114   0.134   2.766   2.538 -3.5280 -0.2009 -2.3887
   39SOL     OW  115   2.515   1.277   1.983 -0.0202 -0.4711 -0.0779
   39SOL    HW1  116   2.515   1.257   1.881  0.6518 -0.9020 -0.2125
   39SOL    HW2  117   2.415   1.279   2.018 -0.5008  2.2193 -1.8548
   40SOL     OW  118   0.220   2.875   2.945  0.7632 -0.2702  0.1818
   40SOL    HW1  119   0.131   2.895   2.893  0.8783 -0.7179 -1.6404
   40SOL    HW2  120   0.205   2.796   3.012  1.0146 -2.7043  2.5061
   41SOL     OW  121   1.872   0.700   0.977  0.2977 -0.2390  0.0024
   41SOL    HW1  122   1.970   0.711   0.951  0.5395 -2.3602  0.7842
   41SOL    HW2  123   1.820   0.779   0.947  0.5163 -4.5531  0.0257
   42SOL     OW  124   0.497   0.457   1.209 -0.5249  0.1267 -0.0794
   42SOL    HW1  125   0.588   0.473   1.171 -0.1339  0.2233 -0.5702
   42SOL    HW2  126   0.429   0.487   1.140  1.2498  1.6816  0.1272
   43SOL     OW  127   2.702   1.332   2.887 -0.7569  0.9056  0.3452
   43SOL    HW1  128   2.649   1.243   2.876  1.0578 -0.2097  0.3276
   43SOL    HW2  129   2.734   1.363   2.796 -0.4987 -3.1562 -1.2095
   44SOL     OW  130   3.045   2.832   0.807 -0.0968  0.0671 -0.4785
   44SOL    HW1  131   0.030   2.861   0.779 -1.6522 -1.5544  1.4794
   44SOL    HW2  132   3.041   2.835   0.911 -0.7618 -0.1081  2.4095
   45SOL     OW  133   0.119   2.861   1.493 -0.0909 -0.2910  0.1596
   45SOL    HW1  134   0.144   2.931   1.565  0.9100 -0.5904 -1.4098
   45SOL    HW2  135   0.091   2.904   1.407  0.3159  0.3674  1.2138
   46SOL     OW  136   2.298   2.503   2.284  0.0061  0.3105  0.3587
   46SOL    HW1  137   2.382   2.445   2.315 -1.5740 -3.6130 -0.7883
   46SOL    HW2  138   2.335   2.591   2.239  1.1992  1.1435 -2.8684
   47SOL     OW  139   2.153   2.121   1.119 -0.3237  0.5484 -0.0148
   47SOL    HW1  140   2.108   2.206   1.098  1.3118 -0.6148  0.2163
   47SOL    HW2  141   2.089   2.044   1.147 -0.7013 -0.3786  2.6060
   48SOL     OW  142   0.544   1.524   0.274 -0.5888 -0.5516 -0.2747
   48SOL    HW1  143   0.632   1.512   0.221 -1.5818  0.3391  0.4541
   48SOL    HW2  144   0.528   1.440   0.333 -0.5642 -1.3942 -0.8073
   49SOL     OW  145   2.814   0.234   2.589 -0.2798 -0.4808 -0.1585
   49SOL    HW1  146   2.726   0.190   2.557  2.4832  1.3116 -2.4020
   49SOL    HW2  147   2.858   0.288   2.517  1.7600  1.3259  3.9448
   50SOL     OW  148   2.347   0.801   0.244  0.1261 -0.2374 -0.0505
   50SOL    HW1  149   2.347   0.722   0.177 -1.6970 -1.2346 -1.1816
   50SOL    HW2  150   2.254   0.844   0.227 -0.4010 -0.5972 -0.3282
   51SOL     OW  151   2.146   0.743   0.964 -0.1619  0.5860 -0.3917
   51SOL    HW1  152   2.206   0.672   1.020  2.4982 -1.9956  0.9924
   51SOL    HW2  153   2.179   0.834   0.970 -2.1849  0.7361 -0.4101
   52SOL     OW  154   1.096   1.341   2.816 -0.6716 -0.2276 -0.2010
   52SOL    HW1  155   1.166   1.404   2.782 -1.5790  0.0732  1.9465
   52SOL    HW2  156   1.138   1.261   2.860 -0.2872  0.6939 -1.5067
   53SOL     OW  157   0.725   1.611   2.007 -0.0505 -0.1291  0.0360
   53SOL    HW1  158   0.643   1.564   2.046 -0.8617 -2.0721  2.4013
   53SOL    HW2  159   0.795   1.540   1.985  2.5636 -2.2522 -1.1539
   54SOL     OW  160   2.151   0.345   1.063  0.0428 -0.1298  0.1419
   54SOL    HW1  161   2.118   0.380   0.974  0.2316  5.0344  2.5969
   54SOL    HW2  162   2.221   0.409   1.102  1.4523 -1.2730 -0.2782
   55SOL     OW  163   2.622   2.182   1.064 -0.7552 -0.2678 -0.0920
   55SOL    HW1  164   2.560   2.132   1.130 -1.1621 -3.6014  1.4476
   55SOL    HW2  165   2.564   2.239   0.998 -0.6294 -1.2844  0.6625
   56SOL     OW  166   0.846   3.002   1.741 -0.3240  0.1168  0.0997
   56SOL    HW1  167   0.917   2.997   1.816  0.8778  2.0817  0.4290
   56SOL    HW2  168   0.899   3.045   1.667  0.6735  0.4539 -1.3599
   57SOL     OW  169   1.581   1.458   0.035 -0.5956  0.0557  0.3228
   57SOL    HW1  170   1.569   1.527   3.071  0.6024 -1.2427  0.9249
   57SOL    HW2  171   1.648   1.498   0.103  0.9088  0.8789 -1.1410
   58SOL     OW  172   3.026   0.775   2.459  0.0939 -0.0850 -0.1770
   58SOL    HW1  173   0.001   0.733   2.414  1.1227  0.7984 -1.4222
   58SOL    HW2  174   3.050   0.795   2.553  1.0557  1.2934  0.4857
   59SOL     OW  175   0.964   2.570   2.632 -0.6955 -0.0615  0.2551
   59SOL    HW1  176   1.054   2.611   2.665  2.5812  0.6207 -0.1514
   59SOL    HW2  177   0.931   2.498   2.699  1.1339 -1.6956  0.6360
   60SOL     OW  178   2.478   2.413   0.679  0.1243 -0.3022  0.4310
   60SOL    HW1  179   2.395   2.467   0.683  1.5252  0.0927 -1.4209
   60SOL    HW2  180   2.502   2.388   0.581  0.9931  1.2249  1.7061
   61SOL     OW  181   1.232   2.203   0.741  0.0236 -0.2688  0.2457
   61SOL    HW1  182   1.229   2.304   0.730  0.9651  3.0497 -0.9336
   61SOL    HW2  183   1.169   2.163   0.667  1.4528 -2.6223 -1.8185
   62SOL     OW  184   2.374   2.167   2.521 -0.3017  0.1835 -0.0245
   62SOL    HW1  185   2.390   2.170   2.620  0.7179  2.5078  0.9255
   62SOL    HW2  186   2.391   2.074   2.487  0.1838 -0.2163  0.8489
   63SOL     OW  187   2.056   2.899   3.026 -0.2210  0.2115  0.6211
   63SOL    HW1  188   1.976   2.841   2.996  1.0838 -1.4740  1.6929
   63SOL    HW2  189   2.107   2.943   2.947 -0.4378  1.1296 -1.1072
   64SOL     OW  190   1.280   0.854   2.877  0.0984  0.2111  0.2395
   64SOL    HW1  191   1.298   0.795   2.955  1.3820  1.2909 -0.3262
   64SOL    HW2  192   1.339   0.835   2.793  0.4904  0.8891  2.8810
   65SOL     OW  193   1.533   2.589   0.253  0.1224 -0.1431  0.0760
   65SOL    HW1  194   1.571   2.605   0.158 -1.7591  1.1025 -0.5705
   65SOL    HW2  195   1.608   2.572   0.320 -0.9578  0.8014  0.8602
   66SOL     OW  196   0.426   1.391   1.850 -0.3459  0.0401  0.6180
   66SOL    HW1  197   0.412   1.299   1.805 -0.8583 -2.7219 -1.5234
   66SOL    HW2  198   0.343   1.449   1.840 -1.4627 -0.4606 -0.7017
   67SOL     OW  199   2.647   2.761   2.894  0.5235  0.2168 -0.8423
   67SOL    HW1  200   2.543   2.780   2.899 -1.6910  0.7612  0.9996
   67SOL    HW2  201   2.684   2.806   2.813 -1.3157 -0.2309  0.0924
   68SOL     OW  202   0.749   2.363   1.315 -0.5406  0.0051  0.5550
   68SOL    HW1  203   0.812   2.285   1.349  1.4662 -1.5354 -0.6998
   68SOL    HW2  204   0.792   2.454   1.336 -2.1201 -0.6084  1.2547
   69SOL     OW  205   0.633   2.364   0.501 -0.3829  0.4101 -0.0752
   69SOL    HW1  206   0.699   2.330   0.572  2.1474  1.4467  1.6589
   69SOL    HW2  207   0.551   2.398   0.550  3.2216 -1.0500 -1.8999
   70SOL     OW  208   2.613   1.023   2.491 -0.4857 -0.3607 -0.0180
   70SOL    HW1  209   2.710   0.997   2.510  0.2751 -0.1787  0.5786
   70SOL    HW2  210   2.577   0.987   2.402  1.1318  1.1358 -1.8381
   71SOL     OW  211   0.606   1.064   2.589  0.6062 -0.2166  0.0351
   71SOL    HW1  212   0.612   1.007   2.510  1.4259  1.0075 -0.8283
   71SOL    HW2  213   0.656   1.151   2.571  0.0470 -5.7489  1.5079
   72SOL     OW  214   0.166   2.199   0.385  0.3513  0.6599  0.4238
   72SOL    HW1  215   0.263   2.162   0.388 -0.8448 -3.1514  0.9469
   72SOL    HW2  216   0.168   2.296   0.344  0.5801  0.5804  0.2309
   73SOL     OW  217   1.110   1.237   0.349  0.0307  0.8235 -0.3854
   73SOL    HW1  218   1.050   1.320   0.355  1.1270  0.6866 -2.4841
   73SOL    HW2  219   1.195   1.256   0.392 -0.1635  0.0814 -0.8359
   74SOL     OW  220   2.761   0.086   0.324  0.4628  0.0583 -0.4118
   74SOL    HW1  221   2.692   0.136   0.387  0.0814  0.6978 -0.2960
   74SOL    HW2  222   2.853   0.133   0.317  2.0691 -0.6001 -1.2137
   75SOL     OW  223   2.189   1.618   1.964  0.5094  0.3593  0.1817
   75SOL    HW1  224   2.174   1.541   1.901  0.9986  1.8821 -0.4476
   75SOL    HW2  225   2.102   1.673   1.983 -2.1331  1.8635 -1.3185
   76SOL     OW  226   1.993   2.644   1.636  0.0894 -0.1625 -0.0469
   76SOL    HW1  227   1.920   2.677   1.574 -0.4896 -0.7927  0.7580
   76SOL    HW2  228   2.083   2.660   1.593 -2.3470 -1.0854 -0.3400
   77SOL     OW  229   2.507   0.625   1.414 -0.5656  0.3001 -0.4797
   77SOL    HW1  230   2.560   0.540   1.425 -0.3872  0.0732 -1.3667
   77SOL    HW2  231   2.417   0.619   1.464 -0.7946 -3.1233 -1.3716
   78SOL     OW  232   1.959   0.997   2.928  0.1759  0.5454 -0.0196
   78SOL    HW1  233   1.901   0.946   2.995  1.2497 -1.9934  0.9060
   78SOL    HW2  234   1.950   0.958   2.834  0.7480  1.9262 -1.0406
   79SOL     OW  235   0.323   1.518   2.275 -0.2947  0.2540  0.1212
   79SOL    HW1  236   0.298   1.604   2.227 -1.8587  0.4469 -0.4484
   79SOL    HW2  237   0.403   1.465   2.239  1.3245 -0.7500 -0.8620
   80SOL     OW  238   1.512   0.914   1.379  0.0577 -0.3748  0.0804
   80SOL    HW1  239   1.521   0.994   1.321  3.6976  2.3108  1.1160
   80SOL    HW2  240   1.449   0.847   1.339  0.5713 -0.4564  2.3653
   81SOL     OW  241   1.038   0.328   1.286 -0.1807  0.4001  0.3017
   81SOL    HW1  242   0.947   0.284   1.299 -0.4595  0.7390  1.2615
   81SOL    HW2  243   1.033   0.428   1.269  2.0248  0.4828 -2.5637
   82SOL     OW  244   1.471   2.316   1.963 -0.3597  0.5065 -0.7891
   82SOL    HW1  245   1.420   2.227   1.970 -0.3551 -1.6939  1.2066
   82SOL    HW2  246   1.531   2.316   1.879  0.1729 -0.7603 -1.3451
   83SOL     OW  247   0.515   0.074   0.980  0.1387  0.4516  0.0401
   83SOL    HW1  248   0.607   0.114   1.005  3.1265  0.9093 -0.5298
   83SOL    HW2  249   0.488   0.103   0.889  0.6179  1.0815  0.8941
   84SOL     OW  250   0.100   0.907   3.065  0.2124 -0.4598  0.6855
   84SOL    HW1  251   0.191   0.919   3.016 -0.5892  1.3269 -2.4182
   84SOL    HW2  252   0.033   0.955   3.002 -1.1532 -0.9456 -1.6161
   85SOL     OW  253   2.891   2.562   1.723 -0.1298  0.2721 -0.7156
   85SOL    HW1  254   2.971   2.619   1.703  0.4100 -0.2586  0.6062
   85SOL    HW2  255   2.814   2.622   1.736  3.5145 -1.1278  0.0745
   86SOL     OW  256   3.077   2.780   1.715  0.0999  0.4877 -0.2526
   86SOL    HW1  257   3.038   2.868   1.745 -0.6903 -4.0474 -0.5783
   86SOL    HW2  258   0.037   2.799   1.639  1.4777 -1.1949 -1.1229
   87SOL     OW  259   3.002   2.928   0.034 -0.1522 -0.4206 -0.4629
   87SOL    HW1  260   3.026   2.935   3.047 -1.2736 -2.4994  0.2155
   87SOL    HW2  261   2.924   2.864   0.048  1.9842 -0.9991 -1.4064
   88SOL     OW  262   0.356   2.133   1.271 -0.5222  0.1779 -0.6412
   88SOL    HW1  263   0.408   2.218   1.263 -1.4892  1.6605 -2.5979
   88SOL    HW2  264   0.292   2.124   1.189 -1.1265 -0.5490 -3.6017
   89SOL     OW  265   1.222   0.640   1.702 -0.5549  0.4992 -1.0603
   89SOL    HW1  266   1.178   0.551   1.692  2.5616  0.8332 -0.0613
   89SOL    HW2  267   1.325   0.619   1.729  0.0803 -0.7485  0.5283
   90SOL     OW  268   2.763   1.609   1.937  0.1620  0.0787  0.5638
   90SOL    HW1  269   2.809   1.586   2.029  0.8818  2.5641  0.5117
   90SOL    HW2  270   2.819   1.676   1.884  1.2683 -3.1725 -0.2813
   91SOL     OW  271   1.522   1.757   0.694  0.1395 -0.1041  0.2463
   91SOL    HW1  272   1.600   1.757   0.756 -2.2854 -1.3181  1.0610
   91SOL    HW2  273   1.437   1.769   0.750 -3.0651 -1.2278 -3.5795
   92SOL     OW  274   2.313   0.579   1.124 -0.4051  0.4548 -0.1330
   92SOL    HW1  275   2.390   0.579   1.057  3.0295  1.5224 -0.7033
   92SOL    HW2  276   2.340   0.603   1.221 -0.5381  2.6187  2.0200
   93SOL     OW  277   2.599   1.530   3.056 -0.3437 -0.2228  0.1617
   93SOL    HW1  278   2.619   1.451   2.996  0.0862  1.8644  0.0429
   93SOL    HW2  279   2.549   1.502   0.026  3.2991  2.1510 -1.7282
   94SOL     OW  280   2.511   2.327   2.342  0.1646  0.0136 -0.0881
   94SOL    HW1  281   2.468   2.274   2.413  4.2131  0.5074 -1.5687
   94SOL    HW2  282   2.582   2.387   2.381  0.9769 -0.9335  1.7185
   95SOL     OW  283   1.904   0.460   1.125  0.2592  0.5288 -0.0930
   95SOL    HW1  284   1.906   0.552   1.078 -1.7884 -1.8656  1.1130
   95SOL    HW2  285   1.983   0.399   1.102 -2.3390 -0.3873 -0.0575
   96SOL     OW  286   2.795   0.123   1.773  0.2013  0.7292 -0.0662
   96SOL    HW1  287   2.774   0.066   1.862 -1.3810 -0.3094  1.0188
   96SOL    HW2  288   2.729   0.098   1.702  1.4272 -1.0720 -0.9816
   97SOL     OW  289   2.010   2.911   1.227 -0.6524 -0.4561  0.1558
   97SOL    HW1  290   2.019   2.862   1.138 -0.4898 -0.3927  1.1743
   97SOL    HW2  291   1.999   3.014   1.216  3.4703  2.5909  0.0178
   98SOL     OW  292   1.468   2.373   1.542  0.0597 -0.1127  0.6815
   98SOL    HW1  293   1.550   2.425   1.509  1.6676 -0.0789 -0.8597
   98SOL    HW2  294   1.449   2.290   1.482 -3.0938  0.2845 -2.3611
   99SOL     OW  295   2.809   2.809   2.021 -0.0521 -0.1357 -0.0280
   99SOL    HW1  296   2.780   2.715   1.997  0.8488 -1.0222  0.4951
   99SOL    HW2  297   2.885   2.802   2.092  2.3627  0.6829  1.0973
  100SOL     OW  298   0.252   0.805   2.799 -0.6429  0.1245  1.1600
  100SOL    HW1  299   0.301   0.878   2.849 -1.2273  1.1931 -1.0984
  100SOL    HW2  300   0.321   0.741   2.759 -0.5416  0.5107  1.1938
  101SOL     OW  301   1.784   0.863   0.088  0.0689  0.6005  0.4480
  101SOL    HW1  302   1.740   0.814   0.170 -0.7975  3.3061  0.3431
  101SOL    HW2  303   1.832   0.946   0.117 -1.8772  0.2953  1.4275
  102SOL     OW  304   0.154   0.634   1.595 -0.0858  0.0345 -0.3154
  102SOL    HW1  305   0.147   0.684   1.683  2.1792  0.6067  1.6253
  102SOL    HW2  306   0.236   0.579   1.597 -1.5519  2.0450 -1.6619
  103SOL     OW  307   0.021   0.999   2.101  0.3577  0.0645  0.4466
  103SOL    HW1  308   0.022   0.899   2.078 -0.7650 -0.3942  1.4999
  103SOL    HW2  309   3.040   1.024   2.140 -1.3943  0.0511 -2.2682
  104SOL     OW  310   0.177   0.307   2.760  0.3691  0.0990  0.5316
  104SOL    HW1  311   0.273   0.284   2.752 -1.3706  1.9352 -0.9664
  104SOL    HW2  312   0.132   0.314   2.671  0.4529  0.2427 -0.8490
  105SOL     OW  313   2.198   1.929   1.529  0.4094 -0.4439  0.2073
  105SOL    HW1  314   2.109   1.875   1.533 -0.0065  0.3072 -1.4541
  105SOL    HW2  315   2.225   1.967   1.619 -1.8713  2.3639  0.5509
  106SOL     OW  316   1.819   0.396   0.397 -0.0627  0.1869 -0.2062
  106SOL    HW1  317   1.895   0.459   0.372 -1.8470  1.2549  3.0122
  106SOL    HW2  318   1.823   0.379   0.500  0.1947 -0.4834 -1.8720
  107SOL     OW  319   0.170   2.008   1.650  0.4550  0.2746  0.9490
  107SOL    HW1  320   0.198   2.103   1.682 -0.1480  0.0820 -2.4407
  107SOL    HW2  321   0.167   2.011   1.549 -1.6825 -1.3491  1.8820
  108SOL     OW  322   2.987   2.842   2.214  0.0558  0.0573  0.1593
  108SOL    HW1  323   3.074   2.789   2.205 -0.4589  1.0968  1.0806
  108SOL    HW2  324   3.011   2.933   2.247  0.8896 -0.7239  0.1767
  109SOL     OW  325   1.656   0.174   0.324  0.0159 -0.1964  0.3682
  109SOL    HW1  326   1.677   0.268   0.363 -1.0424 -1.1764  0.4723
  109SOL    HW2  327   1.613   0.115   0.394  1.1218 -1.1530  0.9456
  110SOL     OW  328   0.339   2.023   2.425  0.4543  0.2354 -0.0139
  110SOL    HW1  329   0.421   2.078   2.436 -1.2964 -0.9438  1.4615
  110SOL    HW2  330   0.357   1.937   2.480 -0.2180 -0.4584 -1.1676
  111SOL     OW  331   1.660   2.423   2.120  1.0861 -0.1433  0.0893
  111SOL    HW1  332   1.735   2.352   2.125  2.6742 -1.0196 -0.0252
  111SOL    HW2  333   1.585   2.387   2.060 -0.6414 -1.6769  0.4551
  112SOL     OW  334   1.698   2.711   2.423  0.3896  0.1832  0.1510
  112SOL    HW1  335   1.788   2.687   2.462 -0.0065  1.0658 -0.5166
  112SOL    HW2  336   1.704   2.718   2.324 -1.5375 -1.0378  0.9616
  113SOL     OW  337   1.841   2.464   1.793 -0.0986 -0.2129 -0.2008
  113SOL    HW1  338   1.905   2.522   1.740  0.8525  0.3485  0.5728
  113SOL    HW2  339   1.904   2.392   1.830  0.3268  1.2771  0.7049
  114SOL     OW  340   3.015   0.761   0.844  0.3854 -0.0775 -0.2337
  114SOL    HW1  341   2.926   0.811   0.824  0.2535 -1.8437 -0.8937
  114SOL    HW2  342   3.000   0.656   0.845 -0.8343 -1.1055 -1.4561
  115SOL     OW  343   0.349   0.985   2.981 -0.0550 -0.3322  0.5767
  115SOL    HW1  344   0.342   1.058   3.051 -1.9498  0.1932 -4.1543
  115SOL    HW2  345   0.435   0.933   2.985 -1.8776 -0.5772 -0.5704
  116SOL     OW  346   0.185   1.283   2.296 -0.4040 -0.0333 -0.2531
  116SOL    HW1  347   0.168   1.255   2.200 -0.2335  3.1448 -1.2590
  116SOL    HW2  348   0.248   1.363   2.290 -5.1271 -0.8504 -1.2614
  117SOL     OW  349   2.468   0.013   0.756 -0.2636  0.1916 -0.2311
  117SOL    HW1  350   2.557   0.025   0.806 -1.7832 -1.1320 -0.1523
  117SOL    HW2  351   2.472   3.099   0.659 -1.7380  0.2342  0.9448
  118SOL     OW  352   1.222   1.753   1.585 -0.2863  0.1557 -0.3529
  118SOL    HW1  353   1.280   1.731   1.504 -2.0593  0.6657  1.3096
  118SOL    HW2  354   1.286   1.797   1.651 -0.6527  2.1628  2.6904
  119SOL     OW  355   0.900   2.329   2.781  0.4899  0.2643  0.0846
  119SOL    HW1  356   0.991   2.335   2.825  1.0071 -0.0219 -1.2012
  119SOL    HW2  357   0.836   2.263   2.826 -1.2401 -0.8363 -1.5843
  120SOL     OW  358   0.546   0.816   2.959  0.1877  0.0295 -0.1281
  120SOL    HW1  359   0.539   0.716   2.982 -3.1154  3.5629 -0.3377
  120SOL    HW2  360   0.608   0.839   2.881 -1.4649  1.3995 -1.0885
  121SOL     OW  361   1.830   2.465   1.169 -0.3488 -0.1506 -0.1380
  121SOL    HW1  362   1.835   2.563   1.143  1.0431  0.1646 -0.7170
  121SOL    HW2  363   1.741   2.438   1.200  2.2774  1.1907 -2.1018
  122SOL     OW  364   2.451   2.285   1.700  0.2033  0.1055 -0.5811
  122SOL    HW1  365   2.519   2.280   1.772  1.0604 -1.2297 -3.2066
  122SOL    HW2  366   2.501   2.276   1.612  2.0638 -0.5386  1.5239
  123SOL     OW  367   0.209   2.907   0.446 -0.1725  0.1009 -0.1809
  123SOL    HW1  368   0.271   2.855   0.384 -2.2054 -2.7969 -0.0901
  123SOL    HW2  369   0.117   2.916   0.410 -1.8393  0.6511  0.0599
  124SOL     OW  370   2.285   1.181   2.589 -0.3654  0.3373  0.2788
  124SOL    HW1  371   2.245   1.273   2.572  1.6692 -0.3581 -1.7483
  124SOL    HW2  372   2.372   1.194   2.640 -0.2738  0.4475  0.8023
  125SOL     OW  373   0.416   1.128   0.714 -0.5621 -0.4811  0.3189
  125SOL    HW1  374   0.503   1.147   0.666 -2.3264 -0.1080  1.3037
  125SOL    HW2  375   0.390   1.213   0.763 -0.8166 -1.8142  3.6678
  126SOL     OW  376   2.787   1.865   0.892  0.5046  0.6703 -0.1092
  126SOL    HW1  377   2.798   1.960   0.864 -0.4406  0.4535 -0.1715
  126SOL    HW2  378   2.769   1.856   0.991  1.2825 -1.9418 -1.0438
  127SOL     OW  379   0.046   2.347   1.770  0.2509  0.1994 -0.3753
  127SOL    HW1  380   0.133   2.296   1.772  0.9460 -1.9854  1.6578
  127SOL    HW2  381   3.073   2.290   1.748 -1.1654 -0.1931 -2.8507
  128SOL     OW  382   0.960   0.666   3.048  0.3759  0.1304 -0.3505
  128SOL    HW1  383   0.914   0.578   3.069  1.3278  1.2881  0.7448
  128SOL    HW2  384   0.927   0.744   0.001 -1.4164  0.7797  3.2503
  129SOL     OW  385   2.643   1.192   0.938  0.3093 -0.6800 -0.3620
  129SOL    HW1  386   2.709   1.176   0.859 -0.1088  0.2492  0.3530
  129SOL    HW2  387   2.666   1.148   1.029 -0.1521  1.3684 -2.2091
  130SOL     OW  388   2.362   1.117   1.440  0.6303 -0.6586  0.3012
  130SOL    HW1  389   2.421   1.071   1.507  0.3865  1.1980 -1.8635
  130SOL    HW2  390   2.420   1.181   1.387  1.2623 -0.4166 -0.4770
  131SOL     OW  391   2.649   0.109   0.066 -0.2731 -0.3834  0.6434
  131SOL    HW1  392   2.691   0.121   0.158  1.7730  2.0103  0.6439
  131SOL    HW2  393   2.630   0.010   0.048  2.5102  0.9002 -2.0006
  132SOL     OW  394   2.868   2.291   1.690 -0.2254 -0.9846 -0.3789
  132SOL    HW1  395   2.879   2.393   1.692 -1.2136  0.9469 -0.2198
  132SOL    HW2  396   2.862   2.255   1.788  0.7986  1.6352  2.7762
  133SOL     OW  397   0.905   0.773   1.336 -0.0370  0.0828 -0.7091
  133SOL    HW1  398   0.931   0.700   1.273 -1.1655  2.8620 -0.3696
  133SOL    HW2  399   0.867   0.859   1.293 -0.3456 -1.1215  0.9585
  134SOL     OW  400   0.247   1.396   0.379 -0.0176  0.2382 -0.2060
  134SOL    HW1  401   0.194   1.434   0.304 -0.6852 -0.0651  3.9028
  134SOL    HW2  402   0.245   1.296   0.381  2.2704 -1.0686  1.3949
  135SOL     OW  403   2.121   1.017   1.498  0.4788  0.0505 -0.4175
  135SOL    HW1  404   2.194   1.083   1.462  1.6073  1.2896 -1.3506
  135SOL    HW2  405   2.040   1.070   1.540 -2.1122  1.4034  0.6155
  136SOL     OW  406   2.740   0.851   0.461 -0.0188 -0.3489 -0.0263
  136SOL    HW1  407   2.676   0.906   0.406 -0.6827 -4.4167 -2.2835
  136SOL    HW2  408   2.750   0.890   0.554 -0.2940  3.2135  1.9600
  137SOL     OW  409   2.498   1.300   1.299  0.1877 -1.1063 -0.0182
  137SOL    HW1  410   2.598   1.320   1.308  0.6559  0.5405  1.9335
  137SOL    HW2  411   2.466   1.314   1.206  0.2401  0.0337 -1.5261
  138SOL     OW  412   1.786   0.671   1.605 -0.0536 -0.0462  0.2601
  138SOL    HW1  413   1.846   0.667   1.686 -2.4676 -0.9027  0.0999
  138SOL    HW2  414   1.843   0.666   1.516  2.0973 -0.8638 -0.7890
  139SOL     OW  415   2.019   0.037   0.075  0.9642 -0.6617  0.1298
  139SOL    HW1  416   2.028   3.074   0.005  0.9044  1.2489  1.3855
  139SOL    HW2  417   1.947   0.013   0.145  0.2020 -1.2200 -1.7341
  140SOL     OW  418   1.385   1.878   1.787  0.4365 -0.5318  0.0152
  140SOL    HW1  419   1.335   1.957   1.834 -1.1703 -0.1581  1.0202
  140SOL    HW2  420   1.433   1.823   1.856 -0.8956  1.5830 -2.0007
  141SOL     OW  421   1.916   1.937   0.872  0.0694  0.0973 -0.4371
  141SOL    HW1  422   1.878   1.958   0.965 -0.4501 -0.7892  0.3126
  141SOL    HW2  423   2.013   1.969   0.854 -0.4595 -1.4901  1.0433
  142SOL     OW  424   0.094   0.885   0.232 -0.1616  0.2493  0.3929
  142SOL    HW1  425   0.099   0.904   0.130  3.1838  4.8603 -0.0049
  142SOL    HW2  426   3.108   0.902   0.266 -0.3365  0.3497  2.7962
  143SOL     OW  427   0.451   2.080   2.831  0.1853  0.2599 -0.3039
  143SOL    HW1  428   0.359   2.119   2.799  0.1718 -0.7283  0.5839
  143SOL    HW2  429   0.434   1.992   2.882  0.9837 -1.2726  0.8590
  144SOL     OW  430   0.966   3.091   1.509 -0.0364  0.3146  0.3713
  144SOL    HW1  431   0.885   3.077   1.447  2.4655  1.4996  0.0336
  144SOL    HW2  432   0.997   0.077   1.505 -0.9351 -3.2717 -0.6405
  145SOL     OW  433   2.317   1.133   0.319  0.4666 -0.1105  0.4687
  145SOL    HW1  434   2.312   1.198   0.239  1.9933  0.2332  0.5312
  145SOL    HW2  435   2.350   1.190   0.400  2.4597 -1.0722 -0.1131
  146SOL     OW  436   2.387   2.400   0.249  0.3801  0.1781  0.2018
  146SOL    HW1  437   2.409   2.400   0.150  1.7852  0.3407 -1.6738
  146SOL    HW2  438   2.295   2.437   0.274  1.0348 -1.2595  0.6660
  147SOL     OW  439   2.277   2.375   1.348 -0.2217 -0.2140  0.0411
  147SOL    HW1  440   2.315   2.284   1.320  0.1527 -2.6194  2.7048
  147SOL    HW2  441   2.343   2.430   1.407  0.5622 -1.5596  0.8693
  148SOL     OW  442   1.477   3.020   2.267  0.0607  0.1870  0.0056
  148SOL    HW1  443   1.538   3.035   2.346 -0.0882 -1.3189 -1.2826
  148SOL    HW2  444   1.520   2.954   2.207  0.0061  1.4694 -1.7050
  149SOL     OW  445   1.160   0.602   2.496  0.2138 -0.3614  0.0747
  149SOL    HW1  446   1.255   0.571   2.511 -0.8134  0.4756  1.4898
  149SOL    HW2  447   1.134   0.690   2.531 -1.1540 -4.3487  1.5093
  150SOL     OW  448   0.643   2.603   0.087 -0.4880  0.0441 -0.6505
  150SOL    HW1  449   0.710   2.540   0.041 -0.4346 -1.1369  2.9345
  150SOL    HW2  450   0.636   2.584   0.189  0.4682  0.3318  1.7726
  151SOL     OW  451   0.143   1.752   0.325  0.8906 -0.1729 -0.0132
  151SOL    HW1  452   0.097   1.664   0.325 -0.5142 -0.6442 -1.4938
  151SOL    HW2  453   0.172   1.780   0.421 -0.7424  2.1638 -1.4516
  152SOL     OW  454   0.086   0.342   0.600  0.2861  0.1646 -0.2209
  152SOL    HW1  455   0.081   0.358   0.701 -2.1705 -2.0246  1.6484
  152SOL    HW2  456   0.030   0.262   0.575 -0.2653 -0.0580  1.6640
  153SOL     OW  457   2.317   3.085   0.976  0.7689  0.4152  0.1814
  153SOL    HW1  458   2.221   3.085   0.947 -0.4257 -2.7777  1.2031
  153SOL    HW2  459   2.385   3.076   0.897  0.8003 -2.2608 -0.8608
  154SOL     OW  460   0.982   0.478   1.819  0.0818 -0.5453 -0.9275
  154SOL    HW1  461   0.954   0.507   1.911  0.1203 -2.0188  2.0113
  154SOL    HW2  462   0.983   0.380   1.810  0.6247 -0.5797 -1.0378
  155SOL     OW  463   2.891   1.379   0.844  0.1476 -0.3728 -0.0028
  155SOL    HW1  464   2.801   1.417   0.875 -1.6617  1.5471 -0.7486
  155SOL    HW2  465   2.961   1.453   0.814  1.6690  0.8463  1.2143
  156SOL     OW  466   2.474   2.035   0.138  0.2886  0.2562 -0.3406
  156SOL    HW1  467   2.452   1.955   0.073 -0.3916 -0.9303  0.8463
  156SOL    HW2  468   2.552   2.003   0.199  1.0245  0.5268 -4.5735
  157SOL     OW  469   0.980   2.944   0.552  0.2885 -0.4613 -0.5783
  157SOL    HW1  470   0.923   2.864   0.590  0.2999  0.5217  0.4730
  157SOL    HW2  471   1.078   2.921   0.541 -2.1667  0.0173 -0.0595
  158SOL     OW  472   2.243   0.274   2.547 -0.7552 -0.0218  0.0279
  158SOL    HW1  473   2.299   0.334   2.605 -1.0708 -1.7892 -3.7419
  158SOL    HW2  474   2.261   0.293   2.445  0.0288 -0.7617 -3.6118
  159SOL     OW  475   0.273   0.159   0.194  0.2622 -0.1870 -0.1265
  159SOL    HW1  476   0.184   0.142   0.151  1.9119 -0.1504  1.6028
  159SOL    HW2  477   0.255   0.207   0.285  1.6611 -2.2318 -0.9188
  160SOL     OW  478   1.217   2.224   0.049 -0.1663  0.1439 -0.2161
  160SOL    HW1  479   1.211   2.121   0.042 -2.6726 -3.3461  0.8361
  160SOL    HW2  480   1.212   2.251   0.147  1.1025 -0.8916 -2.0300
  161SOL     OW  481   2.705   1.690   2.377 -0.0692 -0.4805  0.2144
  161SOL    HW1  482   2.678   1.795   2.376 -1.1706  5.2489 -0.0234
  161SOL    HW2  483   2.618   1.636   2.383  1.2532  0.4607 -1.9080
  162SOL     OW  484   2.998   2.958   1.279  0.4547  0.5502 -0.2106
  162SOL    HW1  485   3.018   2.987   1.187  0.6616 -0.2219  1.7753
  162SOL    HW2  486   3.028   3.026   1.350 -1.7803 -0.9229 -1.5629
  163SOL     OW  487   2.015   0.339   2.684  0.1371  0.1167  0.3476
  163SOL    HW1  488   1.953   0.258   2.707 -1.2291  1.2215  3.5902
  163SOL    HW2  489   2.094   0.322   2.620 -0.2279  1.2455 -3.6374
  164SOL     OW  490   3.009   1.624   0.808 -0.0323  0.1026  0.2712
  164SOL    HW1  491   2.961   1.711   0.820 -1.0122  2.5902  2.8415
  164SOL    HW2  492   3.102   1.623   0.849 -3.3256 -0.2208  2.0111
  165SOL     OW  493   2.896   0.115   2.099 -0.5979 -0.1004 -0.3185
  165SOL    HW1  494   2.848   0.037   2.055 -1.9791 -1.7121 -2.2639
  165SOL    HW2  495   2.857   0.203   2.070 -1.5236 -1.4298  0.4669
  166SOL     OW  496   2.050   0.594   0.740  0.2346  0.3939 -0.6715
  166SOL    HW1  497   2.112   0.666   0.774 -1.4180  2.1884  0.0693
  166SOL    HW2  498   2.093   0.501   0.757 -0.3412 -0.1333 -1.2633
  167SOL     OW  499   0.440   0.518   0.510  0.1064  0.4347 -0.1637
  167SOL    HW1  500   0.367   0.580   0.486  5.9384 -1.0087 -0.2022
  167SOL    HW2  501   0.456   0.510   0.608  0.6846 -0.6763 -2.9303
  168SOL     OW  502   2.071   2.899   2.180  0.2533  0.3813  0.3093
  168SOL    HW1  503   2.048   2.803   2.196  1.3120 -1.9260 -2.5610
  168SOL    HW2  504   1.979   2.951   2.162 -4.6533  1.5023 -0.5298
  169SOL     OW  505   0.932   1.118   0.779 -0.9540 -0.2153 -0.3495
  169SOL    HW1  506   0.926   1.106   0.681 -0.2000  1.8365  6.4001
  169SOL    HW2  507   0.867   1.049   0.824  0.8962 -0.8815 -1.1216
  170SOL     OW  508   2.867   0.759   1.555  0.3373 -0.0329  0.4654
  170SOL    HW1  509   2.836   0.720   1.470 -1.9579 -0.3767  1.2276
  170SOL    HW2  510   2.786   0.776   1.615  1.9681 -0.7514  0.7644
  171SOL     OW  511   0.907   2.765   1.623 -0.0116  0.1461  0.1099
  171SOL    HW1  512   1.009   2.766   1.642  0.5541 -2.8838  0.0454
  171SOL    HW2  513   0.856   2.848   1.654 -0.2946 -2.7707 -0.5139
  172SOL     OW  514   0.309   2.666   1.404  0.3485 -0.1274 -0.1580
  172SOL    HW1  515   0.271   2.576   1.369  1.2165 -0.4432  2.2788
  172SOL    HW2  516   0.237   2.741   1.408 -0.6226  0.9143 -1.5413
  173SOL     OW  517   1.244   0.373   2.900 -0.3085 -0.1639 -0.6526
  173SOL    HW1  518   1.156   0.357   2.852 -0.5604 -2.1681  0.2043
  173SOL    HW2  519   1.238   0.455   2.959 -2.6615  0.1814 -1.7908
  174SOL     OW  520   1.553   0.130   2.519 -0.0658 -0.5133  0.4380
  174SOL    HW1  521   1.469   0.184   2.550 -0.4792  1.9133 -0.2743
  174SOL    HW2  522   1.575   0.054   2.584  0.9498  0.9735  0.5432
  175SOL     OW  523   1.716   2.641   0.062  0.6691  0.3831 -0.3404
  175SOL    HW1  524   1.805   2.647   0.112 -0.3477 -0.6148  1.0947
  175SOL    HW2  525   1.714   2.562   3.106  1.7089 -1.9525 -0.3445
  176SOL     OW  526   1.663   0.270   2.860 -0.5118 -0.3176 -0.2465
  176SOL    HW1  527   1.620   0.247   2.949  1.3208 -2.3922  1.9947
  176SOL    HW2  528   1.604   0.266   2.777 -0.4763 -2.0357  3.1603
  177SOL     OW  529   0.946   1.480   0.358 -0.0272  0.1306 -0.2025
  177SOL    HW1  530   0.916   1.527   0.442 -0.6111 -4.4152 -1.9240
  177SOL    HW2  531   0.877   1.489   0.283  2.5753 -1.4057  0.1053
  178SOL     OW  532   2.972   2.139   2.443  0.3263  0.2558  0.0926
  178SOL    HW1  533   2.971   2.232   2.483  1.1138  2.8981  0.7168
  178SOL    HW2  534   3.043   2.072   2.483  1.5248  0.1890  2.3354
  179SOL     OW  535   0.551   2.498   2.567  0.0082  0.2374  0.4708
  179SOL    HW1  536   0.569   2.507   2.668 -0.4453  0.4878 -1.4836
  179SOL    HW2  537   0.616   2.554   2.511  0.7136 -0.5740 -0.6044
  180SOL     OW  538   2.006   1.901   1.201  0.1542 -0.0244  0.0486
  180SOL    HW1  539   2.094   1.846   1.216  1.9292  1.7400  0.2453
  180SOL    HW2  540   1.929   1.831   1.194  0.6167  1.1462  0.7573
  181SOL     OW  541   1.635   0.972   2.219 -0.0356  0.0596  0.4909
  181SOL    HW1  542   1.621   1.025   2.127 -1.2066 -0.8042 -0.7188
  181SOL    HW2  543   1.708   1.010   2.281 -1.9016 -0.8221  1.1160
  182SOL     OW  544   2.717   2.784   2.450 -0.3791 -0.2654 -0.1812
  182SOL    HW1  545   2.806   2.833   2.436  1.0863 -1.2144 -0.5948
  182SOL    HW2  546   2.652   2.801   2.372  2.1715  0.1883 -0.2234
  183SOL     OW  547   1.433   0.802   2.643  0.2473  0.1386  0.0220
  183SOL    HW1  548   1.379   0.825   2.556  0.9230  0.6461 -2.9224
  183SOL    HW2  549   1.525   0.767   2.626  2.2885 -0.6267 -1.5274
  184SOL     OW  550   0.959   0.859   1.587  0.6458  0.2962 -0.6200
  184SOL    HW1  551   1.056   0.878   1.602 -1.0807 -0.1132 -1.6962
  184SOL    HW2  552   0.945   0.795   1.513 -0.7012 -0.1050  3.2585
  185SOL     OW  553   2.243   0.997   0.914  0.0735  0.1659  0.0966
  185SOL    HW1  554   2.234   1.069   0.981  1.3273 -2.2711 -3.3745
  185SOL    HW2  555   2.194   1.017   0.826 -1.7228  0.4721 -1.2544
  186SOL     OW  556   0.448   1.827   2.973  0.3176 -0.5813  0.5512
  186SOL    HW1  557   0.544   1.813   2.958  0.2674  0.9125  0.8589
  186SOL    HW2  558   0.397   1.738   2.959 -0.1855  0.6605 -1.5244
  187SOL     OW  559   2.503   1.353   0.184  0.2406 -0.5330  0.3164
  187SOL    HW1  560   2.499   1.454   0.191  2.4646 -1.3086  1.6180
  187SOL    HW2  561   2.597   1.329   0.222  1.9135 -1.9559  1.4265
  188SOL     OW  562   0.219   1.786   0.603  0.3211 -0.1893  0.3778
  188SOL    HW1  563   0.123   1.818   0.594  2.7132  2.1227  1.1584
  188SOL    HW2  564   0.250   1.800   0.701 -1.4764  0.1645 -1.3204
  189SOL     OW  565   2.358   0.534   0.454 -0.0332 -0.7308  0.4396
  189SOL    HW1  566   2.356   0.633   0.457  0.3480 -2.1160  1.7992
  189SOL    HW2  567   2.439   0.494   0.404  1.6007 -0.5953  2.2257
  190SOL     OW  568   1.440   1.394   2.047  0.0904 -0.1770  0.3936
  190SOL    HW1  569   1.428   1.482   1.998 -4.0602 -0.3118 -0.2377
  190SOL    HW2  570   1.400   1.313   1.994 -1.3978 -2.5361  1.1450
  191SOL     OW  571   2.372   0.198   1.834 -0.3270  0.2892  0.1659
  191SOL    HW1  572   2.311   0.208   1.754  0.7483  1.2081 -1.1512
  191SOL    HW2  573   2.332   0.219   1.927 -0.3577 -1.3503 -3.3244
  192SOL     OW  574   1.899   1.087   1.629  0.1078  0.3193  0.3734
  192SOL    HW1  575   1.869   1.176   1.584 -1.7516  3.5990 -1.8139
  192SOL    HW2  576   1.831   1.012   1.612 -0.5896 -2.9019 -2.6696
  193SOL     OW  577   0.850   0.669   0.744 -0.4711 -0.3833  0.0913
  193SOL    HW1  578   0.823   0.644   0.650  1.5494 -2.2067  0.2206
  193SOL    HW2  579   0.937   0.620   0.770 -1.5430 -0.1226  1.1762
  194SOL     OW  580   1.154   2.963   1.019 -0.3891 -0.3387 -0.2327
  194SOL    HW1  581   1.163   2.895   0.944 -0.5137 -2.2523 -3.0810
  194SOL    HW2  582   1.236   2.978   1.078  0.6771  2.7978  0.4204
  195SOL     OW  583   2.305   0.448   0.716  0.0527  0.3687 -0.8633
  195SOL    HW1  584   2.304   0.346   0.707 -1.3654 -2.0682 -0.5340
  195SOL    HW2  585   2.312   0.488   0.619 -0.1273  0.0037 -1.5529
  196SOL     OW  586   1.045   1.832   1.368  0.1183  0.1985  0.0669
  196SOL    HW1  587   1.061   1.929   1.355  1.1418 -1.7628 -0.7000
  196SOL    HW2  588   1.099   1.796   1.443  0.1863  1.2535 -0.7962
  197SOL     OW  589   0.373   2.790   0.279 -0.1482 -0.3244 -0.1977
  197SOL    HW1  590   0.406   2.695   0.300  2.5418 -0.4729 -0.9872
  197SOL    HW2  591   0.437   2.843   0.220  0.7751  2.4969  3.4234
  198SOL     OW  592   0.771   0.933   0.847 -0.8672  0.1163 -0.4744
  198SOL    HW1  593   0.680   0.939   0.895 -1.1690  1.9313  0.4649
  198SOL    HW2  594   0.787   0.840   0.812 -2.9144  0.9517  3.4758
  199SOL     OW  595   0.190   0.071   1.844 -0.5171  0.4935 -0.0562
  199SOL    HW1  596   0.218   0.151   1.796  0.9115 -0.9222 -0.3014
  199SOL    HW2  597   0.224   3.103   1.789 -0.0350 -0.0574  1.0685
  200SOL     OW  598   2.254   1.676   2.646 -0.0869  0.0402  0.1865
  200SOL    HW1  599   2.155   1.657   2.631  0.6126  4.0858  2.2815
  200SOL    HW2  600   2.321   1.663   2.570  1.5210  1.3125 -0.5449
  201SOL     OW  601   2.819   2.533   1.273 -0.0686 -0.1574  0.2661
  201SOL    HW1  602   2.745   2.603   1.252 -1.1954  0.4966  1.9324
  201SOL    HW2  603   2.913   2.568   1.270 -1.0484 -1.5693  0.4445
  202SOL     OW  604   2.612   0.247   0.463 -0.0003 -0.0938  0.0049
  202SOL    HW1  605   2.584   0.339   0.424 -2.0940  2.7692 -2.1024
  202SOL    HW2  606   2.596   0.251   0.562 -2.2654  1.7006 -1.5572
  203SOL     OW  607   1.388   1.790   2.187  0.0685  0.1416 -0.0986
  203SOL    HW1  608   1.464   1.765   2.245  0.5814 -1.0284 -0.5751
  203SOL    HW2  609   1.328   1.861   2.231  0.9432 -1.2908 -1.3721
  204SOL     OW  610   0.909   1.495   1.871 -0.3119 -0.1264 -0.3878
  204SOL    HW1  611   0.871   1.555   1.798  0.1526 -1.2464 -1.2767
  204SOL    HW2  612   0.923   1.400   1.834  1.3998  0.8438  1.2718
  205SOL     OW  613   1.110   2.118   1.705  0.1681 -0.4400 -0.2182
  205SOL    HW1  614   1.063   2.037   1.670  2.4985 -0.9371 -1.6024
  205SOL    HW2  615   1.111   2.123   1.806 -0.8172  0.8439 -3.2352
  206SOL     OW  616   0.037   0.499   2.910  0.0489  0.0096 -0.9364
  206SOL    HW1  617   0.119   0.449   2.868  2.5778 -1.8480 -2.9679
  206SOL    HW2  618   3.058   0.457   2.878  2.1345  1.7288  0.9497
  207SOL     OW  619   1.651   2.866   2.110 -0.4201 -0.5736  0.5137
  207SOL    HW1  620   1.597   2.872   2.025 -1.9512  2.3021 -0.9130
  207SOL    HW2  621   1.706   2.779   2.103  1.4556 -1.4317 -2.5915
  208SOL     OW  622   0.781   2.321   1.822 -0.5023  0.6640  0.0343
  208SOL    HW1  623   0.875   2.316   1.863  0.3027  2.1213  0.9768
  208SOL    HW2  624   0.755   2.420   1.823  0.3273  0.7220  0.4123
  209SOL     OW  625   2.044   1.296   2.866  0.4337 -0.6201 -0.0461
  209SOL    HW1  626   2.040   1.199   2.883 -0.5011  2.1137  1.2309
  209SOL    HW2  627   1.970   1.350   2.918 -1.9581  4.3191  1.6559
  210SOL     OW  628   3.005   0.466   1.204  0.1230  0.0111  0.0317
  210SOL    HW1  629   2.979   0.430   1.113 -0.2311  1.0345 -1.6997
  210SOL    HW2  630   2.935   0.535   1.227 -0.8799 -2.1739  2.2081
  211SOL     OW  631   0.815   1.038   1.256  0.1779 -0.0223  0.0855
  211SOL    HW1  632   0.834   1.112   1.183  1.7333  0.2331 -0.8888
  211SOL    HW2  633   0.764   1.082   1.333  2.0595  1.2104  0.5907
  212SOL     OW  634   1.140   1.973   0.856  0.2885 -0.4088  0.6665
  212SOL    HW1  635   1.190   1.882   0.859  0.2422 -0.6838 -1.6010
  212SOL    HW2  636   1.187   2.037   0.790  2.3727 -0.7596 -1.0731
  213SOL     OW  637   1.510   0.197   1.747 -0.5773 -0.8819  1.0416
  213SOL    HW1  638   1.486   0.284   1.793 -0.0730 -0.7469 -1.6880
  213SOL    HW2  639   1.602   0.170   1.780 -0.5349 -0.8176 -1.8479
  214SOL     OW  640   1.616   1.844   2.353  0.0667 -0.2229 -0.1367
  214SOL    HW1  641   1.629   1.919   2.285 -0.4106 -0.5811 -0.4263
  214SOL    HW2  642   1.636   1.883   2.448  0.0725  1.0750  0.8386
  215SOL     OW  643   0.079   1.821   1.174  0.1006 -0.6609  0.6806
  215SOL    HW1  644   3.087   1.841   1.161 -1.2755 -0.3085 -1.8608
  215SOL    HW2  645   0.095   1.722   1.192  0.2572  0.2527 -0.6219
  216SOL     OW  646   0.743   0.052   2.184  0.3975 -0.1816 -0.2784
  216SOL    HW1  647   0.782   0.127   2.123 -0.3628 -0.5860  0.4092
  216SOL    HW2  648   0.794   0.043   2.270 -0.1302 -4.1433  0.0102
  217SOL     OW  649   2.409   0.269   0.001 -0.3298  0.6663 -0.1944
  217SOL    HW1  650   2.427   0.329   3.031  1.9545 -1.0040 -0.4772
  217SOL    HW2  651   2.489   0.207   0.019  3.1254  2.5958 -0.9661
  218SOL     OW  652   1.946   1.745   2.236  0.0956  0.1438  0.1664
  218SOL    HW1  653   1.848   1.714   2.231  1.5950 -2.4548 -2.9461
  218SOL    HW2  654   1.968   1.839   2.268  1.6182 -1.4728  0.4115
  219SOL     OW  655   1.556   1.149   0.311 -0.0710 -0.6934  0.2215
  219SOL    HW1  656   1.647   1.166   0.355  1.2044 -0.2870 -0.9929
  219SOL    HW2  657   1.565   1.145   0.212  1.4510 -0.3516  3.0044
  220SOL     OW  658   1.563   1.888   1.031 -0.0997 -0.2760 -0.0536
  220SOL    HW1  659   1.488   1.855   1.090 -2.1281  0.1988  2.2848
  220SOL    HW2  660   1.528   1.949   0.958  1.1204 -1.6219 -2.0359
  221SOL     OW  661   0.029   0.645   0.031 -0.1870 -0.4369 -0.3108
  221SOL    HW1  662   0.046   0.746   0.011  0.5888  1.0741  0.8858
  221SOL    HW2  663   0.023   0.596   3.049  0.9443  0.7814 -3.1794
  222SOL     OW  664   1.190   2.750   1.670  0.5664  0.0824 -0.8571
  222SOL    HW1  665   1.234   2.675   1.617  1.3867 -0.9833 -0.5855
  222SOL    HW2  666   1.217   2.840   1.624  0.0039 -0.5249 -1.9605
  223SOL     OW  667   1.314   0.012   2.728 -0.9796 -0.0723 -0.5722
  223SOL    HW1  668   1.331   0.099   2.679 -4.1646  0.6395  1.8783
  223SOL    HW2  669   1.349   0.023   2.822 -1.9494  0.2932  0.4664
  224SOL     OW  670   2.712   0.997   1.166  0.0630  0.5830 -0.0825
  224SOL    HW1  671   2.799   0.951   1.144  0.3607 -1.7465  3.2920
  224SOL    HW2  672   2.668   0.942   1.244  1.6510 -2.0436  1.3179
  225SOL     OW  673   0.959   1.259   1.495  0.5482 -0.3496 -0.1959
  225SOL    HW1  674   0.971   1.353   1.459  0.5409 -1.8273 -2.5149
  225SOL    HW2  675   1.018   1.194   1.446  1.6139 -0.8606 -0.5624
  226SOL     OW  676   1.576   2.686   2.791  0.1421 -0.1414 -0.6061
  226SOL    HW1  677   1.498   2.650   2.848 -2.2611 -2.2704  1.4588
  226SOL    HW2  678   1.555   2.773   2.749  1.8110 -0.4259  1.9126
  227SOL     OW  679   0.562   1.751   1.137  0.0554 -0.1184  0.3363
  227SOL    HW1  680   0.526   1.660   1.161  1.6730 -2.9648  1.2278
  227SOL    HW2  681   0.526   1.819   1.208 -2.0431  1.3730  0.1253
  228SOL     OW  682   0.274   2.729   1.046 -0.0907  0.6353  0.6551
  228SOL    HW1  683   0.367   2.760   1.003  3.4555 -2.1599 -0.1602
  228SOL    HW2  684   0.242   2.792   1.117 -0.8522  3.9733  1.3051
  229SOL     OW  685   2.217   1.314   0.123 -0.1441  0.4840  0.5323
  229SOL    HW1  686   2.313   1.336   0.103  1.0788 -4.1080  0.2647
  229SOL    HW2  687   2.195   1.221   0.077 -0.3405 -3.3877 -0.5840
  230SOL     OW  688   1.065   1.119   2.026  0.2240  0.2343  0.3260
  230SOL    HW1  689   1.021   1.066   1.945  0.3436 -0.6505  1.0156
  230SOL    HW2  690   1.085   1.050   2.098 -0.6456  1.5828  2.2628
  231SOL     OW  691   1.554   1.970   1.569  0.0476  0.3578 -0.6905
  231SOL    HW1  692   1.639   2.013   1.601 -0.7176 -0.0157  0.8841
  231SOL    HW2  693   1.503   1.923   1.644 -0.3936  0.7303 -1.0632
  232SOL     OW  694   1.935   2.393   0.751 -0.7319 -0.1564  0.2462
  232SOL    HW1  695   1.931   2.492   0.734 -0.2115  2.6092  4.2097
  232SOL    HW2  696   1.981   2.342   0.675  0.5063  0.1623  0.3417
  233SOL     OW  697   1.438   2.312   3.036  0.1694  0.4273  0.2872
  233SOL    HW1  698   1.435   2.263   2.948 -2.0279  0.0560  1.7962
  233SOL    HW2  699   1.350   2.296   3.088 -2.0865  1.0476  0.0202
  234SOL     OW  700   0.812   3.060   2.464 -0.0212  0.0959 -0.0521
  234SOL    HW1  701   0.827   2.981   2.529  0.0004 -0.8979  1.8096
  234SOL    HW2  702   0.727   3.107   2.494 -1.3541 -0.7892  0.6644
  235SOL     OW  703   2.903   2.444   0.208 -0.8059 -0.0375 -0.0345
  235SOL    HW1  704   2.884   2.452   0.306 -2.3507 -0.2688 -2.2158
  235SOL    HW2  705   2.908   2.342   0.185  0.0857 -0.5942  2.3484
  236SOL     OW  706   2.153   2.294   2.215 -0.0024 -0.9246  0.2574
  236SOL    HW1  707   2.210   2.360   2.260 -1.9393 -2.1224  0.2018
  236SOL    HW2  708   2.173   2.293   2.118 -0.8222  0.3599  0.2429
  237SOL     OW  709   1.812   1.205   1.247  0.2791 -0.7714  0.2080
  237SOL    HW1  710   1.864   1.118   1.220  1.6410 -1.1927 -0.6842
  237SOL    HW2  711   1.755   1.239   1.169 -1.7800 -1.0702 -2.0287
  238SOL     OW  712   2.021   0.239   2.220 -0.0351 -0.4633  0.2733
  238SOL    HW1  713   1.956   0.314   2.211  0.1767 -2.5689  0.3854
  238SOL    HW2  714   2.000   0.180   2.300  2.7357 -2.5247  1.5620
  239SOL     OW  715   0.619   1.443   1.655  0.4185  0.7508 -0.1144
  239SOL    HW1  716   0.573   1.422   1.743  1.5146 -0.0170  3.6315
  239SOL    HW2  717   0.657   1.357   1.614 -1.1715 -0.7391  2.0318
  240SOL     OW  718   3.095   2.141   0.583 -0.8947  0.0926  0.0603
  240SOL    HW1  719   3.033   2.215   0.607  0.5702 -2.5833 -0.8345
  240SOL    HW2  720   0.069   2.178   0.528  1.5369  2.1170  2.1822
  241SOL     OW  721   1.809   2.023   0.622 -0.0138 -0.2434 -0.7799
  241SOL    HW1  722   1.848   1.995   0.709  0.9824 -0.5200 -1.7253
  241SOL    HW2  723   1.800   1.947   0.556 -1.7067  1.7698  1.5667
  242SOL     OW  724   1.348   1.383   0.128  0.0796 -0.1490  0.3062
  242SOL    HW1  725   1.354   1.285   0.140  2.4522  1.1687  1.8996
  242SOL    HW2  726   1.441   1.418   0.098 -0.1363  1.3061 -0.4166
  243SOL     OW  727   0.726   2.882   2.107  0.0466 -0.1878 -0.1884
  243SOL    HW1  728   0.752   2.977   2.130 -2.5532  0.3996 -1.0260
  243SOL    HW2  729   0.634   2.884   2.067  0.2953 -0.6386  3.1708
  244SOL     OW  730   1.605   3.039   2.703 -0.2739  0.4049 -0.7877
  244SOL    HW1  731   1.560   3.041   2.795  0.6790  0.7607  1.1696
  244SOL    HW2  732   1.574   2.960   2.645  2.1997  0.4333  2.2187
  245SOL     OW  733   1.407   2.953   0.030  0.3520  0.3557 -0.1367
  245SOL    HW1  734   1.483   2.933   0.091 -1.3564  2.4159 -1.6571
  245SOL    HW2  735   1.351   3.032   0.069 -1.3014 -1.5786 -0.1992
  246SOL     OW  736   0.874   0.301   2.872 -0.0192  0.2263  0.4364
  246SOL    HW1  737   0.935   0.309   2.789 -0.6282  0.5606 -3.1448
  246SOL    HW2  738   0.866   0.205   2.898 -0.0697 -3.0035 -3.2620
  247SOL     OW  739   0.056   0.737   2.031  0.2301 -0.4353  0.3646
  247SOL    HW1  740   0.109   0.680   2.098 -0.2675 -0.9670 -2.6738
  247SOL    HW2  741   3.094   0.672   1.995 -0.9645  0.5377  2.1182
  248SOL     OW  742   0.934   0.823   2.129 -0.4603 -0.2455  0.3390
  248SOL    HW1  743   0.949   0.768   2.214  2.0667 -0.2782 -0.4490
  248SOL    HW2  744   1.011   0.813   2.066 -1.7232  0.6010 -2.2839
  249SOL     OW  745   2.140   0.442   0.347 -0.4354  0.4890 -0.4395
  249SOL    HW1  746   2.154   0.362   0.286 -0.1084 -0.8867 -2.1898
  249SOL    HW2  747   2.227   0.482   0.382 -3.6569 -2.0438 -0.3060
  250SOL     OW  748   0.712   0.366   0.703 -0.0826  0.2510 -0.0636
  250SOL    HW1  749   0.700   0.296   0.628  0.6774 -0.0806 -0.0897
  250SOL    HW2  750   0.624   0.413   0.731 -0.6084  0.7004 -1.9369
  251SOL     OW  751   1.045   0.328   2.652 -0.1985 -0.8828  0.1435
  251SOL    HW1  752   1.029   0.403   2.581 -0.3992  1.8443 -2.5979
  251SOL    HW2  753   1.036   0.234   2.609 -2.5111  0.4430  1.4819
  252SOL     OW  754   1.631   1.822   1.967 -0.2754 -0.2235  0.5399
  252SOL    HW1  755   1.717   1.811   1.913 -0.5638  2.9657 -0.2129
  252SOL    HW2  756   1.627   1.757   2.047 -1.0608 -1.0801  1.7709
  253SOL     OW  757   1.965   2.793   1.929 -0.4578 -0.2535  0.5869
  253SOL    HW1  758   1.894   2.738   1.966 -0.4660  1.8599 -2.2088
  253SOL    HW2  759   2.038   2.737   1.891  1.0090  0.3917  2.5474
  254SOL     OW  760   0.732   2.000   1.936 -0.4698  0.4045 -0.2171
  254SOL    HW1  761   0.765   2.046   1.850 -1.8758  2.8096  0.2369
  254SOL    HW2  762   0.771   2.047   2.015  0.3780 -1.4631  0.5025
  255SOL     OW  763   1.151   0.695   0.614 -0.0809 -0.5498  0.3916
  255SOL    HW1  764   1.109   0.627   0.678  1.9387 -1.0743 -0.9774
  255SOL    HW2  765   1.092   0.705   0.534  1.2004  0.4648  1.2295
  256SOL     OW  766   1.901   1.905   1.758  0.0635  0.5267 -0.8145
  256SOL    HW1  767   1.919   1.844   1.678  1.2552  1.0310  0.4876
  256SOL    HW2  768   1.847   1.987   1.729 -0.1926  0.4775 -0.6227
  257SOL     OW  769   0.514   2.199   2.534  0.1909 -0.1781 -0.0490
  257SOL    HW1  770   0.521   2.303   2.519  0.7300  0.3233 -0.3519
  257SOL    HW2  771   0.492   2.172   2.634  1.1019  0.9188  1.6957
  258SOL     OW  772   0.859   0.394   2.423 -0.3075 -0.6443 -0.1841
  258SOL    HW1  773   0.923   0.343   2.364  0.1669  0.6560  1.2857
  258SOL    HW2  774   0.763   0.362   2.420 -0.6443  0.4217 -0.6202
  259SOL     OW  775   0.876   0.668   2.396 -0.9114 -0.0124 -0.2860
  259SOL    HW1  776   0.941   0.724   2.458  1.3026 -2.1605  1.8341
  259SOL    HW2  777   0.884   0.565   2.407  1.5412  0.5294 -0.5935
  260SOL     OW  778   1.408   0.589   0.737 -0.2809 -0.2076 -0.2659
  260SOL    HW1  779   1.327   0.605   0.679  3.1694  1.3050  1.2317
  260SOL    HW2  780   1.404   0.650   0.819  1.1210 -1.4903  1.6346
  261SOL     OW  781   0.481   2.811   2.837  0.8332  0.0544 -0.6007
  261SOL    HW1  782   0.405   2.867   2.870  0.9156 -0.7316  2.0412
  261SOL    HW2  783   0.446   2.718   2.840  1.1845  1.9026  2.9788
  262SOL     OW  784   2.346   3.094   2.848  0.1564 -0.0205  0.3697
  262SOL    HW1  785   2.439   0.022   2.871  1.5259  0.3364  0.1026
  262SOL    HW2  786   2.278   0.051   2.883  0.6652 -0.9729 -0.3606
  263SOL     OW  787   0.128   2.196   0.046 -0.1381 -0.0630  0.2254
  263SOL    HW1  788   0.082   2.207   0.134  0.9834  1.8093  0.6624
  263SOL    HW2  789   0.162   2.102   0.043 -0.5921  0.8997  1.1158
  264SOL     OW  790   0.581   1.252   1.293  0.3462 -0.6566  0.5613
  264SOL    HW1  791   0.504   1.181   1.280 -2.3264 -1.9014 -0.1532
  264SOL    HW2  792   0.590   1.305   1.206 -2.3656 -1.7093  0.4279
  265SOL     OW  793   0.521   1.192   0.344 -0.3703 -0.2958 -0.0420
  265SOL    HW1  794   0.431   1.156   0.313 -1.6140 -0.0540  0.2041
  265SOL    HW2  795   0.582   1.201   0.261  0.9692 -1.6947 -0.5147
  266SOL     OW  796   1.836   1.464   0.667  0.4916 -0.2957  0.3648
  266SOL    HW1  797   1.802   1.559   0.686 -1.6338 -1.5108  2.1365
  266SOL    HW2  798   1.893   1.458   0.586 -0.2581  1.1411  1.5747
  267SOL     OW  799   2.752   0.568   0.079  0.0452  0.1258 -0.4117
  267SOL    HW1  800   2.724   0.494   0.013  0.0596  0.4362 -3.9577
  267SOL    HW2  801   2.751   0.659   0.031 -0.8671  1.4642 -0.0694
  268SOL     OW  802   3.097   2.950   2.849 -0.3752 -0.1833  0.7717
  268SOL    HW1  803   3.062   2.860   2.823  0.2758  0.5042 -1.4448
  268SOL    HW2  804   3.058   3.026   2.791 -0.9813 -2.3706 -0.4705
  269SOL     OW  805   1.865   0.143   2.437 -0.5256  0.1958  0.4247
  269SOL    HW1  806   1.866   0.137   2.537  2.3511  0.3366 -0.5271
  269SOL    HW2  807   1.780   0.199   2.414  0.2253 -0.9490 -0.0309
  270SOL     OW  808   0.916   1.125   2.559  0.5617 -0.2966  1.2042
  270SOL    HW1  809   0.857   1.199   2.520 -0.5864 -0.6014  3.8122
  270SOL    HW2  810   0.889   1.111   2.656  1.3204  1.2408  1.4015
  271SOL     OW  811   2.554   0.985   0.287  0.0694 -0.5907 -0.6299
  271SOL    HW1  812   2.472   1.028   0.324  1.2222 -3.0741  0.3177
  271SOL    HW2  813   2.520   0.903   0.234  1.7571 -0.8240 -1.1323
  272SOL     OW  814   2.868   1.671   2.577  0.0615 -0.0361  0.0085
  272SOL    HW1  815   2.808   1.684   2.494 -1.0656  0.1011 -0.3266
  272SOL    HW2  816   2.887   1.766   2.608  0.7313  1.5025  1.1902
  273SOL     OW  817   2.196   0.755   0.005 -0.0133  0.2695  0.2791
  273SOL    HW1  818   2.141   0.837   0.024 -0.2063  2.1235 -1.1248
  273SOL    HW2  819   2.213   0.748   3.013  1.3979  0.7402 -1.7193
  274SOL     OW  820   0.144   2.492   1.077  0.4950  0.6743  0.2015
  274SOL    HW1  821   0.082   2.477   1.003  0.0075  2.3960  3.3170
  274SOL    HW2  822   0.187   2.589   1.078  0.3957  1.1673  1.3947
  275SOL     OW  823   2.209   1.362   0.666 -0.2876  0.8430 -0.3479
  275SOL    HW1  824   2.292   1.352   0.609  0.1682  0.5520 -0.1651
  275SOL    HW2  825   2.202   1.453   0.716  2.4597  1.5779  3.1643
  276SOL     OW  826   0.194   1.205   2.824 -0.4852  0.3723  0.1547
  276SOL    HW1  827   0.285   1.169   2.847  0.2729  2.4025 -1.0450
  276SOL    HW2  828   0.176   1.200   2.725 -1.6501  0.6614  2.4156
  277SOL     OW  829   1.612   2.611   1.441 -0.1602  0.2713  0.1738
  277SOL    HW1  830   1.589   2.629   1.539  1.2366 -0.5491 -1.0303
  277SOL    HW2  831   1.692   2.665   1.416  1.9188 -0.3663 -1.4067
  278SOL     OW  832   1.549   0.409   1.903  0.1607  0.6315  0.3858
  278SOL    HW1  833   1.484   0.425   1.975  0.2918  0.9302 -1.2286
  278SOL    HW2  834   1.542   0.479   1.830 -2.3768  1.3596 -1.6068
  279SOL     OW  835   1.961   1.659   0.455  0.1525  0.2053 -0.0951
  279SOL    HW1  836   2.031   1.703   0.516  1.1373 -1.3185  0.2069
  279SOL    HW2  837   1.891   1.733   0.435 -0.1693  2.5207 -0.6528
  280SOL     OW  838   0.539   1.784   0.865  0.0697  0.1688 -0.1224
  280SOL    HW1  839   0.565   1.724   0.785  0.5478 -0.7093  1.9064
  280SOL    HW2  840   0.566   1.739   0.951  1.1129 -1.1739 -0.8820
  281SOL     OW  841   2.944   0.030   2.713  0.0159  0.3566  0.3960
  281SOL    HW1  842   2.885   0.110   2.676 -0.7360  3.5236 -0.0084
  281SOL    HW2  843   3.037   0.031   2.663  2.9371  0.7320  0.4830
  282SOL     OW  844   0.258   1.056   1.024  0.4588  0.7017  0.2702
  282SOL    HW1  845   0.203   0.983   0.967 -3.6375 -0.9180  0.8321
  282SOL    HW2  846   0.237   1.150   0.989  0.6291 -2.6744  0.2383
  283SOL     OW  847   1.914   2.028   0.177  0.2625 -0.2281  0.3775
  283SOL    HW1  848   2.002   2.039   0.124  0.8425 -1.6199  0.8061
  283SOL    HW2  849   1.845   2.102   0.155 -1.4099 -1.6239  0.7861
  284SOL     OW  850   1.568   1.558   0.455 -0.4325 -0.6787 -0.0014
  284SOL    HW1  851   1.556   1.573   0.557 -1.8003  0.9198  1.3346
  284SOL    HW2  852   1.656   1.528   0.412  0.2395 -1.4926  2.2663
  285SOL     OW  853   2.606   0.013   2.878  0.4306  0.6025  0.0874
  285SOL    HW1  854   2.666   0.064   2.939  1.6393 -2.2514 -1.4153
  285SOL    HW2  855   2.657   3.044   2.837  1.5078 -0.2089 -2.5672
  286SOL     OW  856   1.207   2.964   1.494 -0.4267  0.3027  0.5298
  286SOL    HW1  857   1.237   2.958   1.399 -2.6180 -1.9131  1.5053
  286SOL    HW2  858   1.118   3.005   1.507  1.0326  3.1762  1.2429
  287SOL     OW  859   0.788   1.225   1.020  0.3551 -0.2722  0.0612
  287SOL    HW1  860   0.835   1.200   0.932 -0.5516 -1.9388 -0.1277
  287SOL    HW2  861   0.699   1.280   1.011 -1.3453  1.2686  1.1851
  288SOL     OW  862   1.487   0.016   2.939  0.2333  0.2650 -0.1352
  288SOL    HW1  863   1.457   0.109   2.969 -1.3247  2.1763  0.6626
  288SOL    HW2  864   1.496   3.062   3.020 -0.6905  2.4156 -0.2393
  289SOL     OW  865   0.167   1.501   2.744 -0.8864 -0.1824  0.3099
  289SOL    HW1  866   0.231   1.544   2.671 -0.2429 -1.1904 -1.0282
  289SOL    HW2  867   0.194   1.408   2.761 -0.4781  0.0494  1.1889
  290SOL     OW  868   1.675   2.299   0.811  0.2101 -0.0229 -0.3276
  290SOL    HW1  869   1.607   2.340   0.749  1.6008 -0.5307  2.0379
  290SOL    HW2  870   1.773   2.334   0.799  1.3492  0.0031  2.3377
  291SOL     OW  871   2.228   1.989   2.762 -0.5219 -0.0173 -0.2252
  291SOL    HW1  872   2.166   1.960   2.839 -2.0191 -0.5259  0.8953
  291SOL    HW2  873   2.201   1.939   2.675 -0.1290  0.2980 -1.0906
  292SOL     OW  874   1.142   0.769   1.944 -0.0891  0.0854 -0.4570
  292SOL    HW1  875   1.236   0.787   1.985 -1.6563  1.4864  0.1728
  292SOL    HW2  876   1.140   0.695   1.875 -0.7568  2.3342 -2.8484
  293SOL     OW  877   2.092   2.804   0.965 -0.0065 -0.1023 -0.1604
  293SOL    HW1  878   2.080   2.899   0.921 -1.2660  2.2205  2.1905
  293SOL    HW2  879   2.157   2.748   0.913 -1.7423 -1.7430  0.8205
  294SOL     OW  880   0.290   0.472   2.485 -0.2365  0.1528  0.2003
  294SOL    HW1  881   0.303   0.505   2.581 -0.0363 -2.1928 -1.8186
  294SOL    HW2  882   0.377   0.448   2.440  0.5511  2.2708 -3.1964
  295SOL     OW  883   1.515   1.920   0.473 -0.3162 -0.1591  0.3824
  295SOL    HW1  884   1.531   1.871   0.561  1.4704  1.7386  0.8431
  295SOL    HW2  885   1.463   1.860   0.409  1.7953 -1.0119  0.3694
  296SOL     OW  886   2.409   1.915   3.007  0.1726  0.5253  0.3075
  296SOL    HW1  887   2.431   1.923   2.906  0.1275 -1.3967 -2.0577
  296SOL    HW2  888   2.391   1.821   3.039  0.0261 -2.0363  1.6282
  297SOL     OW  889   2.204   0.212   0.181  0.4020  0.1750 -0.2253
  297SOL    HW1  890   2.157   0.130   0.140  0.8068 -0.6397  0.5734
  297SOL    HW2  891   2.279   0.242   0.112 -0.0408  1.4792 -0.5769
  298SOL     OW  892   1.253   2.514   2.299  0.1409  0.2201 -0.9370
  298SOL    HW1  893   1.181   2.465   2.354  0.6375 -1.6813  0.6130
  298SOL    HW2  894   1.351   2.502   2.329  2.8840  1.1324 -0.3730
  299SOL     OW  895   1.228   3.017   2.355 -0.6767  0.2243  0.2029
  299SOL    HW1  896   1.324   3.044   2.329 -0.5569 -0.6308  1.4335
  299SOL    HW2  897   1.198   2.933   2.301 -0.9792 -0.8510 -2.6031
  300SOL     OW  898   2.148   0.171   2.921  0.0255  0.8033  0.0852
  300SOL    HW1  899   2.157   0.260   2.971  1.3996  3.1586  0.6157
  300SOL    HW2  900   2.071   0.179   2.851  2.2803  0.0828  0.0485
  301SOL     OW  901   1.463   1.429   1.290  0.4890  0.1490  0.1469
  301SOL    HW1  902   1.408   1.344   1.307 -2.4865  2.9380  0.5876
  301SOL    HW2  903   1.489   1.442   1.193 -0.2727  1.2839  1.6352
  302SOL     OW  904   2.563   2.302   0.424  0.1486 -0.5563  0.0105
  302SOL    HW1  905   2.646   2.362   0.409  2.4850  0.5614  0.6404
  302SOL    HW2  906   2.491   2.324   0.350 -0.4740 -1.2913 -2.5058
  303SOL     OW  907   2.755   2.476   2.306 -0.4357 -0.1321  0.1929
  303SOL    HW1  908   2.848   2.504   2.339 -3.3392 -1.8281  0.5370
  303SOL    HW2  909   2.769   2.437   2.214  1.1501 -0.5895 -1.7281
  304SOL     OW  910   2.980   0.544   1.956 -0.1626  0.2056 -0.0413
  304SOL    HW1  911   2.988   0.543   1.849  0.3211 -1.0149 -0.5471
  304SOL    HW2  912   2.883   0.562   1.985 -0.4900  3.6065 -1.5142
  305SOL     OW  913   0.552   1.799   1.861  0.0999  0.0017  0.3056
  305SOL    HW1  914   0.597   1.727   1.917  0.7490  1.5065  1.1404
  305SOL    HW2  915   0.614   1.881   1.870  2.2020 -0.6660 -0.7729
  306SOL     OW  916   2.790   0.831   1.943 -0.0801 -0.4554 -0.4990
  306SOL    HW1  917   2.879   0.867   1.916  0.0695  0.9549  0.2508
  306SOL    HW2  918   2.736   0.908   1.981 -0.1191  0.1283  0.5841
  307SOL     OW  919   1.628   1.324   1.840 -0.0311  0.0086 -0.1381
  307SOL    HW1  920   1.556   1.397   1.828  0.7445 -1.2088 -1.1565
  307SOL    HW2  921   1.628   1.263   1.759  0.8009  2.1773  0.5819
  308SOL     OW  922   2.658   1.489   0.944 -0.3754 -0.2971  0.4711
  308SOL    HW1  923   2.601   1.405   0.948  1.4340  0.6764  0.3478
  308SOL    HW2  924   2.629   1.552   0.870  1.6108 -0.1302 -0.9690
  309SOL     OW  925   2.435   1.629   1.317 -0.3046  0.0432  0.5008
  309SOL    HW1  926   2.484   1.700   1.366 -0.6192 -0.9538  0.4994
  309SOL    HW2  927   2.447   1.542   1.360  0.3069  1.6800 -0.8484
  310SOL     OW  928   2.833   1.405   2.648  0.2164  0.3861 -0.4004
  310SOL    HW1  929   2.760   1.369   2.583  2.4477  2.5320  1.0069
  310SOL    HW2  930   2.864   1.495   2.624  0.0273  1.3644  1.2223
  311SOL     OW  931   0.028   1.799   3.053  0.2066  0.2686  0.0010
  311SOL    HW1  932   3.052   1.817   3.104  0.8089 -0.5091  0.1348
  311SOL    HW2  933   0.005   1.781   2.956  0.7973 -1.1552 -0.4130
  312SOL     OW  934   2.345   1.613   1.026 -0.1284  0.0092  0.2710
  312SOL    HW1  935   2.368   1.515   1.033 -0.8158  2.0677  1.0478
  312SOL    HW2  936   2.295   1.643   1.107  3.4444 -0.3575 -0.1020
  313SOL     OW  937   2.598   2.712   1.254  0.0223  0.1988 -0.1061
  313SOL    HW1  938   2.533   2.774   1.200 -1.4047 -0.2038 -0.4044
  313SOL    HW2  939   2.555   2.656   1.328 -0.4932  0.0321 -1.0049
  314SOL     OW  940   1.124   1.786   0.359 -0.5395  0.2300  0.0744
  314SOL    HW1  941   1.204   1.753   0.307  0.1016  1.7272  0.8401
  314SOL    HW2  942   1.117   1.732   0.446 -1.2883 -2.0425  1.5329
  315SOL     OW  943   0.907   2.651   2.315  0.3548  0.2784 -0.0613
  315SOL    HW1  944   0.834   2.713   2.349  0.2974 -2.3138  0.1393
  315SOL    HW2  945   0.948   2.590   2.383 -1.3374  0.4815 -0.7898
  316SOL     OW  946   3.037   1.068   0.541 -0.3971 -0.2383 -0.2186
  316SOL    HW1  947   0.010   1.020   0.576 -1.1563  0.2102 -0.1794
  316SOL    HW2  948   3.010   1.039   0.451 -2.2176 -0.0961  4.1257
  317SOL     OW  949   0.877   0.251   0.457  0.2634 -0.0767  0.6302
  317SOL    HW1  950   0.783   0.285   0.461  1.6260  0.6755 -1.1561
  317SOL    HW2  951   0.868   0.162   0.503  0.2606  1.6709 -0.1380
  318SOL     OW  952   2.801   2.460   0.456 -0.4702  0.1303 -1.0199
  318SOL    HW1  953   2.880   2.432   0.510 -1.9289 -0.0379  3.0390
  318SOL    HW2  954   2.771   2.551   0.491  0.1433 -1.2506 -0.6936
  319SOL     OW  955   0.738   1.340   2.508  0.4452  0.3450 -0.2022
  319SOL    HW1  956   0.649   1.368   2.542 -1.0149 -0.6906  0.5563
  319SOL    HW2  957   0.811   1.402   2.542  0.2495 -0.4935  0.1194
  320SOL     OW  958   0.726   2.602   1.755  0.5425 -0.5105  0.1168
  320SOL    HW1  959   0.797   2.661   1.707  0.0915 -0.5689  0.3756
  320SOL    HW2  960   0.638   2.638   1.712 -3.0498  2.9400  0.8938
  321SOL     OW  961   1.315   2.391   0.291 -0.0156 -0.0636  0.6420
  321SOL    HW1  962   1.339   2.320   0.349 -1.7033  2.2488 -3.5141
  321SOL    HW2  963   1.378   2.466   0.275 -0.3240 -0.4861  0.4863
  322SOL     OW  964   2.655   1.023   2.058  0.4490  0.2204  0.1639
  322SOL    HW1  965   2.607   1.106   2.028  0.4405 -2.5981  1.0091
  322SOL    HW2  966   2.731   1.051   2.119 -0.5677 -3.7631  0.1440
  323SOL     OW  967   2.375   0.817   0.512  0.1707  0.1157 -0.4262
  323SOL    HW1  968   2.359   0.808   0.413  1.3204  0.5550  0.7255
  323SOL    HW2  969   2.298   0.871   0.550  0.6422  1.0047 -1.3624
  324SOL     OW  970   0.375   2.548   2.969  0.0338 -0.1284  0.0633
  324SOL    HW1  971   0.275   2.554   2.956  0.5799 -0.4803  0.3685
  324SOL    HW2  972   0.396   2.520   3.061  0.2277 -0.1047  0.9321
  325SOL     OW  973   1.480   0.472   2.216  0.3140  0.6816  0.4234
  325SOL    HW1  974   1.528   0.552   2.172 -1.6659 -1.4311 -1.0183
  325SOL    HW2  975   1.543   0.395   2.246  0.2091 -1.1258  0.2706
  326SOL     OW  976   2.243   2.682   1.537 -0.3521 -0.2741 -0.2263
  326SOL    HW1  977   2.334   2.644   1.544 -1.4267 -1.2545  0.1555
  326SOL    HW2  978   2.239   2.746   1.455  1.5475 -1.7113  1.0289
  327SOL     OW  979   2.019   0.580   2.800  0.0449 -0.2026 -0.1661
  327SOL    HW1  980   1.955   0.580   2.877  0.9167  0.1811 -1.0913
  327SOL    HW2  981   2.020   0.487   2.755 -1.2225 -1.1737 -1.4297
  328SOL     OW  982   2.884   1.106   2.224 -0.2039  0.2700  0.0532
  328SOL    HW1  983   2.846   1.199   2.223  0.7623 -2.7082  0.1774
  328SOL    HW2  984   2.869   1.065   2.317  1.3947 -1.0371  0.8428
  329SOL     OW  985   1.293   0.124   1.963  0.0045 -0.8485 -0.0290
  329SOL    HW1  986   1.242   0.037   1.964 -0.2010 -1.0295  0.4197
  329SOL    HW2  987   1.360   0.121   1.890 -0.3505  0.9856  0.3442
  330SOL     OW  988   3.055   1.785   1.568  0.5604 -0.1178  0.1726
  330SOL    HW1  989   0.032   1.804   1.514  0.9463 -1.8663  1.5279
  330SOL    HW2  990   3.037   1.685   1.581  1.6554  3.9432  0.4699
  331SOL     OW  991   0.541   1.427   2.121  0.3533 -0.1081 -0.2543
  331SOL    HW1  992   0.514   1.406   2.026  0.6740 -0.1820 -0.3055
  331SOL    HW2  993   0.604   1.359   2.164  0.9291  1.1673  0.6917
  332SOL     OW  994   0.299   0.046   1.369  0.2488 -0.6673  0.2210
  332SOL    HW1  995   0.364   0.098   1.307 -1.5299  0.6527 -1.0651
  332SOL    HW2  996   0.233   0.116   1.412  0.8781  1.2977  0.5612
  333SOL     OW  997   2.299   2.856   1.778 -0.1158  0.2583  0.3220
  333SOL    HW1  998   2.362   2.935   1.754  1.0733  1.1405  0.9643
  333SOL    HW2  999   2.318   2.766   1.722 -1.0143 -2.0511  0.7467
  334SOL     OW 1000   0.824   1.739   1.058  0.4111 -0.0644 -0.1145
  334SOL    HW1 1001   0.730   1.742   1.088  0.3458  1.7860  2.1395
  334SOL    HW2 1002   0.846   1.837   1.035  0.7311  0.7681 -0.3958
  335SOL     OW 1003   0.637   2.256   2.913 -0.0308 -0.2698  0.6731
  335SOL    HW1 1004   0.619   2.355   2.888 -3.2353 -0.8894  1.3632
  335SOL    HW2 1005   0.558   2.198   2.888  0.0420  1.6125 -1.2435
  336SOL     OW 1006   0.083   0.184   2.081 -0.3749 -0.1017  0.0576
  336SOL    HW1 1007   0.131   0.157   1.999 -2.3657  1.8366  1.5609
  336SOL    HW2 1008   0.004   0.124   2.098  2.4286 -0.7052 -0.9318
  337SOL     OW 1009   2.515   2.198   3.036 -0.0425  0.1916 -0.3618
  337SOL    HW1 1010   2.609   2.237   3.056 -0.8495 -0.5080  0.1355
  337SOL    HW2 1011   2.471   2.154   0.014 -0.0410 -2.0657  0.1193
  338SOL     OW 1012   1.163   2.104   1.339 -1.0728  0.0987 -0.2520
  338SOL    HW1 1013   1.257   2.087   1.377  2.2066 -2.4746  0.0207
  338SOL    HW2 1014   1.170   2.166   1.256 -0.8441  0.2537 -2.0853
  339SOL     OW 1015   3.089   0.410   2.171  0.7693 -0.6314  0.2949
  339SOL    HW1 1016   3.045   0.465   2.096 -3.5096  1.4539  1.9345
  339SOL    HW2 1017   0.006   0.317   2.136  0.3079 -1.8622 -2.3218
  340SOL     OW 1018   1.587   2.634   0.652 -0.1079 -0.1113 -0.0886
  340SOL    HW1 1019   1.534   2.677   0.578  1.2614 -0.5445 -1.0303
  340SOL    HW2 1020   1.547   2.544   0.664  3.6664  1.2813  0.2704
  341SOL     OW 1021   1.652   1.295   1.036 -0.5735  0.6164 -0.3602
  341SOL    HW1 1022   1.697   1.278   0.947  0.5572 -1.4214  1.6490
  341SOL    HW2 1023   1.598   1.381   1.040 -0.5218 -0.1400  1.2881
  342SOL     OW 1024   0.275   1.386   0.749 -0.1641 -0.4641 -0.2432
  342SOL    HW1 1025   0.326   1.440   0.676 -0.2024  0.8957 -2.1169
  342SOL    HW2 1026   0.178   1.366   0.716  1.2305 -0.6174  0.4040
  343SOL     OW 1027   1.529   0.222   1.203 -0.0579 -0.0311  0.2228
  343SOL    HW1 1028   1.581   0.238   1.115  0.7872  2.3166  1.1752
  343SOL    HW2 1029   1.430   0.237   1.195  2.1843  0.4326 -1.9668
  344SOL     OW 1030   2.001   2.385   1.366  0.0854 -0.4139 -0.0258
  344SOL    HW1 1031   2.099   2.408   1.344  2.7997  0.9416 -1.3427
  344SOL    HW2 1032   1.938   2.411   1.294  1.1042 -0.0993  2.9603
  345SOL     OW 1033   2.909   2.333   2.920  0.1097 -0.3964  0.9495
  345SOL    HW1 1034   2.878   2.405   2.856  0.7269  1.2270 -1.1650
  345SOL    HW2 1035   3.013   2.338   2.932  1.4805  0.3630  1.5673
  346SOL     OW 1036   0.156   1.592   0.892  0.3633 -0.1035 -0.2149
  346SOL    HW1 1037   0.204   1.682   0.879  1.5866 -3.2749  0.4428
  346SOL    HW2 1038   0.221   1.511   0.866 -0.2904 -0.0639  2.3220
  347SOL     OW 1039   1.831   2.666   0.768 -0.2746 -0.3005  0.0643
  347SOL    HW1 1040   1.739   2.660   0.722 -1.1304  0.4026  0.0344
  347SOL    HW2 1041   1.813   2.667   0.870 -0.1498  0.5336 -2.3904
  348SOL     OW 1042   1.272   1.482   2.662 -0.3314  0.5270 -0.0072
  348SOL    HW1 1043   1.340   1.422   2.614 -1.9850 -1.2598 -3.2247
  348SOL    HW2 1044   1.239   1.550   2.596  2.4102  0.0634 -3.0476
  349SOL     OW 1045   2.259   1.270   2.148 -0.2435 -0.0707 -0.2835
  349SOL    HW1 1046   2.179   1.278   2.083 -1.3915 -0.5811  1.2775
  349SOL    HW2 1047   2.250   1.189   2.212  4.5336 -0.4866  1.3788
  350SOL     OW 1048   0.105   2.468   1.342  0.4978  0.0789 -0.0968
  350SOL    HW1 1049   0.106   2.375   1.389 -0.0793  0.5300  1.5935
  350SOL    HW2 1050   0.101   2.452   1.242  0.6689 -0.2008 -1.5022
  351SOL     OW 1051   0.444   0.247   2.758  0.1826 -0.4566 -0.0502
  351SOL    HW1 1052   0.454   0.223   2.858  1.9040 -0.5239 -1.6168
  351SOL    HW2 1053   0.520   0.315   2.729  1.2517  3.4024 -2.5487
  352SOL     OW 1054   0.779   2.640   1.345 -0.0925  0.4898 -0.5143
  352SOL    HW1 1055   0.840   2.664   1.428 -0.0052  0.9161  0.8250
  352SOL    HW2 1056   0.698   2.698   1.361  1.9411  1.0733  0.8955
  353SOL     OW 1057   1.011   0.845   2.555  0.0741  0.2260  0.5330
  353SOL    HW1 1058   0.990   0.939   2.528  0.3361 -1.7990 -1.7631
  353SOL    HW2 1059   1.014   0.834   2.658 -0.4364 -0.8756 -1.0223
  354SOL     OW 1060   1.411   1.144   0.544 -0.2828  0.4489 -0.1895
  354SOL    HW1 1061   1.351   1.060   0.552  0.0673 -0.4957  1.0951
  354SOL    HW2 1062   1.467   1.143   0.464 -1.7753  1.7524  0.7184
  355SOL     OW 1063   2.572   0.340   0.727  0.5843  0.7121 -0.2470
  355SOL    HW1 1064   2.555   0.258   0.785 -1.5262  0.0284 -2.9892
  355SOL    HW2 1065   2.541   0.420   0.784 -0.2867 -1.1503 -0.1438
  356SOL     OW 1066   2.883   0.994   2.466  0.3589  0.2478  0.1704
  356SOL    HW1 1067   2.934   1.059   2.525 -1.4148 -2.8115  0.2292
  356SOL    HW2 1068   2.933   0.903   2.464 -2.7015  0.5110  0.6851
  357SOL     OW 1069   0.468   2.931   1.953  0.0003  0.1065  0.2710
  357SOL    HW1 1070   0.511   2.989   1.882  0.9646  0.6983  0.9558
  357SOL    HW2 1071   0.420   2.853   1.909  0.6720  1.1773  0.5295
  358SOL     OW 1072   2.975   1.166   2.643  0.0310  0.3717 -0.5227
  358SOL    HW1 1073   2.903   1.237   2.659  0.1145  3.9704 -1.9101
  358SOL    HW2 1074   3.066   1.197   2.609  0.3337 -0.7363 -1.0073
  359SOL     OW 1075   2.294   2.557   2.889 -0.1831  0.2557 -0.0998
  359SOL    HW1 1076   2.305   2.661   2.900  0.5581  0.2082 -0.2821
  359SOL    HW2 1077   2.358   2.510   2.827 -2.2527 -0.7162 -0.2831
  360SOL     OW 1078   1.864   0.982   0.888  0.3509 -0.0007 -0.1637
  360SOL    HW1 1079   1.916   1.057   0.843 -0.8123  0.2596  0.7070
  360SOL    HW2 1080   1.867   0.984   0.988  1.5611 -0.0443 -1.4366
  361SOL     OW 1081   1.825   2.712   1.026  0.4160  0.0162  0.1571
  361SOL    HW1 1082   1.768   2.797   1.010 -1.5862 -2.7553  1.6216
  361SOL    HW2 1083   1.923   2.730   1.006 -0.4317 -0.0804  1.1280
  362SOL     OW 1084   1.330   1.156   0.817  0.2546  0.5474 -0.0107
  362SOL    HW1 1085   1.369   1.162   0.725 -0.3222 -0.9715  1.8192
  362SOL    HW2 1086   1.276   1.241   0.834 -1.9648  1.0208 -2.8141
  363SOL     OW 1087   0.040   1.981   2.551  0.0253 -0.1640  0.1977
  363SOL    HW1 1088   0.108   2.019   2.613 -1.7981 -1.9042 -1.7929
  363SOL    HW2 1089   0.079   1.891   2.511  2.8150 -0.3782 -0.9825
  364SOL     OW 1090   1.330   0.538   1.384  0.0849  0.2238 -0.6031
  364SOL    HW1 1091   1.298   0.467   1.450  2.1729 -1.8998  0.2250
  364SOL    HW2 1092   1.429   0.517   1.362 -1.5238 -0.8484 -0.0881
  365SOL     OW 1093   3.061   3.102   1.502  0.4568  0.5102  0.2910
  365SOL    HW1 1094   0.003   0.081   1.518 -0.7849  0.5180  2.2985
  365SOL    HW2 1095   3.051   3.044   1.584 -2.3817  2.2929 -1.1293
  366SOL     OW 1096   2.876   1.415   0.211 -0.1403  0.1901  0.4081
  366SOL    HW1 1097   2.836   1.497   0.262  3.0750  1.8028  0.9044
  366SOL    HW2 1098   2.845   1.322   0.246  1.6659  0.9957 -1.3778
  367SOL     OW 1099   2.909   1.914   2.641 -0.1112 -0.5030 -0.3459
  367SOL    HW1 1100   2.843   1.991   2.645  0.9635 -0.6840  1.7709
  367SOL    HW2 1101   3.005   1.943   2.625 -0.6895 -0.0561  0.6398
  368SOL     OW 1102   2.943   1.941   1.157 -0.2217  0.2921  0.1267
  368SOL    HW1 1103   2.950   2.046   1.169  0.7839  0.3994  1.0514
  368SOL    HW2 1104   2.865   1.896   1.207  0.0862  1.5640  1.5254
  369SOL     OW 1105   0.641   0.368   0.440 -0.1069 -0.1645 -0.0323
  369SOL    HW1 1106   0.635   0.340   0.342 -0.0676  1.1342 -0.9689
  369SOL    HW2 1107   0.565   0.433   0.467  0.0218  0.2407 -0.0252
  370SOL     OW 1108   0.674   0.766   1.530  0.0424  0.3872 -0.1338
  370SOL    HW1 1109   0.763   0.774   1.477 -0.4917 -0.0331  0.8165
  370SOL    HW2 1110   0.688   0.695   1.603  1.5103  0.1033  4.7336
  371SOL     OW 1111   2.381   1.792   0.474 -0.1217  0.1005 -0.1599
  371SOL    HW1 1112   2.296   1.763   0.525 -0.2778  0.3417  1.4669
  371SOL    HW2 1113   2.382   1.894   0.457 -0.7331  0.0959  0.2236
  372SOL     OW 1114   0.236   0.975   2.556 -1.1191 -0.0772  0.4041
  372SOL    HW1 1115   0.298   0.920   2.620 -1.1713  1.7538  2.6905
  372SOL    HW2 1116   0.268   0.979   2.457  0.8546 -0.4908  1.6003
  373SOL     OW 1117   2.702   1.338   0.581 -0.3808  0.2084 -0.0860
  373SOL    HW1 1118   2.767   1.282   0.630  1.7765  0.7522  0.5139
  373SOL    HW2 1119   2.709   1.432   0.617 -0.0447 -0.8044 -0.6486
  374SOL     OW 1120   0.369   2.373   0.082 -0.2787  0.4335  0.0086
  374SOL    HW1 1121   0.310   2.302   0.039  0.1159  0.2737 -1.0058
  374SOL    HW2 1122   0.455   2.333   0.109 -1.3441 -0.4751  0.1900
  375SOL     OW 1123   0.652   0.289   0.191 -0.6840  0.2707  0.5540
  375SOL    HW1 1124   0.703   0.303   0.098  1.2052  0.2802 -1.6476
  375SOL    HW2 1125   0.599   0.201   0.182  0.7522 -0.8076 -2.5849
  376SOL     OW 1126   0.185   3.017   2.220  0.2618 -0.1710  0.0997
  376SOL    HW1 1127   0.106   3.082   2.232  1.0564  1.5734 -2.2206
  376SOL    HW2 1128   0.263   3.068   2.174  2.1014  0.6578 -1.4960
  377SOL     OW 1129   0.542   1.800   2.251  0.0977  0.1800 -0.1768
  377SOL    HW1 1130   0.512   1.778   2.346  0.1980 -1.8017 -0.5838
  377SOL    HW2 1131   0.639   1.805   2.243 -1.5898  2.0261  0.5546
  378SOL     OW 1132   1.284   0.895   0.480 -0.0236  0.8453 -0.3197
  378SOL    HW1 1133   1.241   0.924   0.392 -0.0287  0.2894  0.0471
  378SOL    HW2 1134   1.223   0.830   0.531 -0.0501 -0.2996 -4.3375
  379SOL     OW 1135   1.120   1.517   0.144  0.1704  0.0875  0.6584
  379SOL    HW1 1136   1.068   1.514   0.232  0.4223 -1.1580  1.6726
  379SOL    HW2 1137   1.206   1.466   0.144 -2.1650  1.0127  1.9028
  380SOL     OW 1138   2.886   2.247   1.952 -0.7732  0.6930  0.5354
  380SOL    HW1 1139   2.917   2.174   2.013 -0.8769 -0.1236  0.0040
  380SOL    HW2 1140   2.923   2.336   1.991 -0.2072  1.2980 -0.2499
  381SOL     OW 1141   0.447   0.854   1.839  0.2282 -0.2152 -0.0613
  381SOL    HW1 1142   0.504   0.898   1.764  0.6824 -2.4343 -0.7206
  381SOL    HW2 1143   0.350   0.842   1.808  2.3871  0.3686 -0.1754
  382SOL     OW 1144   2.793   2.108   2.985  0.6246 -0.4128 -0.0436
  382SOL    HW1 1145   2.849   2.188   2.950  0.8773  0.9573 -0.2908
  382SOL    HW2 1146   2.719   2.080   2.922 -0.5253  1.0300  1.1554
  383SOL     OW 1147   2.359   1.782   2.220 -0.2754 -0.0804 -0.3379
  383SOL    HW1 1148   2.410   1.730   2.151 -0.8654 -0.8710  0.6118
  383SOL    HW2 1149   2.275   1.733   2.255  0.2625 -0.7239  2.3997
  384SOL     OW 1150   0.721   2.244   2.356  0.3517  0.0017  0.4780
  384SOL    HW1 1151   0.691   2.333   2.314  1.8705  1.1340 -1.1470
  384SOL    HW2 1152   0.644   2.208   2.410  0.3341  0.9922  2.2910
  385SOL     OW 1153   2.798   2.115   0.858 -0.4275 -0.1831  1.3325
  385SOL    HW1 1154   2.886   2.155   0.887 -1.9202 -0.5424 -1.6306
  385SOL    HW2 1155   2.727   2.135   0.924  3.3260 -0.1052 -3.5886
  386SOL     OW 1156   1.658   0.850   2.904 -0.2485 -0.2809 -0.1619
  386SOL    HW1 1157   1.633   0.752   2.877  0.4672 -0.8469 -1.5678
  386SOL    HW2 1158   1.688   0.852   3.003  1.2940 -1.0303  0.4650
  387SOL     OW 1159   0.581   0.990   1.649 -0.0907  0.0811  0.5958
  387SOL    HW1 1160   0.624   0.915   1.597 -1.5151 -0.2128 -1.8673
  387SOL    HW2 1161   0.635   1.074   1.624 -1.3029  0.9105 -0.7495
  388SOL     OW 1162   2.963   1.021   1.511 -0.1719  0.8115 -0.0455
  388SOL    HW1 1163   2.946   0.920   1.515  1.3182 -0.9894 -0.4067
  388SOL    HW2 1164   2.881   1.080   1.502 -1.1428 -1.3118  0.7476
  389SOL     OW 1165   1.823   1.100   2.393 -0.3361 -0.1181  0.3397
  389SOL    HW1 1166   1.811   1.137   2.486  0.2808  0.5501 -1.2861
  389SOL    HW2 1167   1.878   1.169   2.344  0.6242  4.2091 -2.1310
  390SOL     OW 1168   2.173   2.083   0.609 -0.2631 -0.2217 -0.1037
  390SOL    HW1 1169   2.208   2.067   0.704  0.1077  1.0195 -0.0191
  390SOL    HW2 1170   2.249   2.081   0.540  1.5938  1.4076 -0.6961
  391SOL     OW 1171   1.529   2.829   0.851  0.3658  0.0198 -0.2545
  391SOL    HW1 1172   1.547   2.778   0.763 -0.5955  1.5451  0.1591
  391SOL    HW2 1173   1.522   2.764   0.929  2.4069 -1.0417 -2.5385
  392SOL     OW 1174   2.670   3.104   1.552 -0.2003  0.2406 -0.8027
  392SOL    HW1 1175   2.715   3.032   1.494 -0.4891 -0.6587 -1.5749
  392SOL    HW2 1176   2.609   0.056   1.499  0.9833  0.3379 -2.3982
  393SOL     OW 1177   1.878   2.043   2.770  0.3178 -0.6594  0.1400
  393SOL    HW1 1178   1.873   2.143   2.800 -1.0744  0.6978 -1.7736
  393SOL    HW2 1179   1.898   1.985   2.852  1.8238  0.8094  0.2349
  394SOL     OW 1180   0.609   2.533   2.833 -0.6313  0.0933  0.6380
  394SOL    HW1 1181   0.539   2.558   2.903  0.1869  1.1001  1.4010
  394SOL    HW2 1182   0.704   2.569   2.854  0.4901 -0.4590 -0.9472
  395SOL     OW 1183   0.559   1.355   1.001 -0.0130  0.0553 -0.2269
  395SOL    HW1 1184   0.575   1.387   0.905 -2.4839  1.3363 -0.9333
  395SOL    HW2 1185   0.500   1.419   1.053  1.7656 -0.1846 -0.5216
  396SOL     OW 1186   1.996   1.247   2.278  0.5710 -0.3727  0.3363
  396SOL    HW1 1187   1.999   1.255   2.177  1.7964 -1.0815  1.8691
  396SOL    HW2 1188   2.083   1.249   2.322 -2.2014  0.3373  0.9841
  397SOL     OW 1189   2.854   0.673   2.887  0.0608 -0.0559 -0.9186
  397SOL    HW1 1190   2.798   0.672   2.806  1.3124 -1.2998  0.0664
  397SOL    HW2 1191   2.948   0.706   2.866 -0.1869 -0.4112 -0.2639
  398SOL     OW 1192   1.169   0.397   0.326  0.1492 -0.2268 -0.1232
  398SOL    HW1 1193   1.256   0.364   0.286 -0.8748  0.0315  0.2675
  398SOL    HW2 1194   1.152   0.352   0.415 -0.5087  2.9064  1.7712
  399SOL     OW 1195   1.857   2.981   1.773  0.5949 -0.6861 -0.1453
  399SOL    HW1 1196   1.804   2.936   1.699  2.8104 -0.0378 -1.2722
  399SOL    HW2 1197   1.888   2.909   1.840  1.8607 -0.2925 -0.7329
  400SOL     OW 1198   0.063   2.348   2.228  0.7025 -0.0923  0.3918
  400SOL    HW1 1199   0.039   2.251   2.211 -2.2439  1.1832 -1.5088
  400SOL    HW2 1200   0.144   2.374   2.171  1.0374  0.6813  0.0538
  401SOL     OW 1201   0.505   0.032   0.163  0.5078 -0.6963  0.0453
  401SOL    HW1 1202   0.419   0.083   0.185 -0.9056 -0.7027 -0.0699
  401SOL    HW2 1203   0.476   3.052   0.125 -0.7150  0.4535 -0.3216
  402SOL     OW 1204   0.484   2.629   1.624 -0.0315  0.2409 -0.4541
  402SOL    HW1 1205   0.475   2.530   1.595 -1.0896 -1.1845  0.3652
  402SOL    HW2 1206   0.456   2.695   1.551 -1.5703  1.3525 -3.1832
  403SOL     OW 1207   0.366   1.177   1.663  0.8604  0.2359  0.1881
  403SOL    HW1 1208   0.280   1.124   1.684  0.5732 -0.2534  0.9024
  403SOL    HW2 1209   0.448   1.116   1.669 -1.3897  1.4888  1.5424
  404SOL     OW 1210   2.956   2.521   2.066  0.7431  0.0090  0.0869
  404SOL    HW1 1211   2.974   2.539   2.164 -2.0012  2.5413  2.7618
  404SOL    HW2 1212   3.024   2.561   2.004  1.1114 -1.9634 -1.2281
  405SOL     OW 1213   2.582   0.084   2.490 -0.2128  0.3366 -0.0894
  405SOL    HW1 1214   2.512   0.009   2.507  1.3597 -0.8708  2.6191
  405SOL    HW2 1215   2.569   0.111   2.394  1.8642  0.4833  1.3503
  406SOL     OW 1216   1.946   2.651   0.253 -0.4704  0.0262 -0.0672
  406SOL    HW1 1217   2.022   2.585   0.284 -0.2826 -1.7370 -2.1636
  406SOL    HW2 1218   1.855   2.645   0.303 -2.1922 -0.5087  0.3212
  407SOL     OW 1219   2.005   1.407   0.454 -0.0221 -0.0461 -0.2923
  407SOL    HW1 1220   2.083   1.388   0.513 -1.6202  0.2006 -0.7678
  407SOL    HW2 1221   1.986   1.506   0.443  1.4073 -1.6760  0.4816
  408SOL     OW 1222   0.551   0.420   2.256  0.8281 -0.0575 -0.5608
  408SOL    HW1 1223   0.487   0.366   2.199  0.0371  4.2639 -0.2440
  408SOL    HW2 1224   0.580   0.360   2.336  0.1796 -1.2708 -0.3777
  409SOL     OW 1225   2.794   1.624   0.362  0.3212  0.0898  0.3682
  409SOL    HW1 1226   2.689   1.625   0.356 -3.5174  2.9629 -1.0470
  409SOL    HW2 1227   2.830   1.708   0.318 -1.3954 -1.7630 -0.2430
  410SOL     OW 1228   2.193   1.721   1.287  0.1423 -0.2851 -0.0464
  410SOL    HW1 1229   2.290   1.690   1.301  0.5292 -1.2900 -0.4396
  410SOL    HW2 1230   2.127   1.675   1.352 -0.2017  0.6214 -1.8240
  411SOL     OW 1231   3.090   0.564   0.451 -0.0926 -0.1856 -0.0490
  411SOL    HW1 1232   3.071   0.550   0.350 -1.3716 -1.2297 -0.5844
  411SOL    HW2 1233   0.019   0.481   0.500  2.3003 -2.7580 -0.5974
  412SOL     OW 1234   1.832   0.571   3.045  0.2080  0.5189 -0.4686
  412SOL    HW1 1235   1.836   0.654   3.106  1.1879  0.4025 -0.5210
  412SOL    HW2 1236   1.869   0.485   3.090  0.0898 -1.0083 -0.9700
  413SOL     OW 1237   1.095   0.216   1.527 -0.2844 -0.4635  0.2114
  413SOL    HW1 1238   1.193   0.225   1.551  0.5993 -3.1876  2.4762
  413SOL    HW2 1239   1.081   0.268   1.440  1.1502 -1.4082  0.9118
  414SOL     OW 1240   0.256   1.101   0.313  0.3667 -0.1303 -0.0949
  414SOL    HW1 1241   0.283   1.126   0.220  0.0638  1.2356  2.7187
  414SOL    HW2 1242   0.193   1.023   0.305 -1.8607 -0.0132  0.9513
  415SOL     OW 1243   0.378   1.549   0.539 -0.2877  0.1241  0.1707
  415SOL    HW1 1244   0.335   1.638   0.562 -0.8402  1.1967 -0.6874
  415SOL    HW2 1245   0.333   1.496   0.466 -1.0606  1.0367  1.2829
  416SOL     OW 1246   1.738   0.700   0.320 -0.5784 -0.3683 -0.2535
  416SOL    HW1 1247   1.675   0.621   0.334 -0.2202 -1.1436 -0.2530
  416SOL    HW2 1248   1.833   0.674   0.338 -2.6687 -0.0807 -1.6039
  417SOL     OW 1249   3.078   0.116   0.492 -0.0337 -0.1821  0.0677
  417SOL    HW1 1250   3.030   0.029   0.513  0.2244  0.8672 -2.7713
  417SOL    HW2 1251   3.031   0.152   0.408 -0.6347 -0.6236  3.4599
  418SOL     OW 1252   2.219   1.048   3.039  0.2269 -0.2116  0.4114
  418SOL    HW1 1253   2.302   0.987   3.022 -0.6524  0.3686  1.6144
  418SOL    HW2 1254   2.131   1.021   2.997 -2.6263  2.7987  1.3831
  419SOL     OW 1255   0.500   0.669   0.268  0.3110 -0.1216  0.2345
  419SOL    HW1 1256   0.417   0.649   0.214 -0.2350  0.5957  2.9690
  419SOL    HW2 1257   0.501   0.615   0.352  2.5275  1.1477  1.7985
  420SOL     OW 1258   0.615   1.431   0.755  0.2260 -0.4335  0.4098
  420SOL    HW1 1259   0.637   1.351   0.697 -0.5077 -0.9831  0.5156
  420SOL    HW2 1260   0.629   1.527   0.713  2.8236  0.7065 -1.4173
  421SOL     OW 1261   0.421   2.051   0.254 -0.5681 -1.0912 -0.4176
  421SOL    HW1 1262   0.470   1.979   0.307  1.9396 -0.2598  0.1285
  421SOL    HW2 1263   0.375   2.008   0.172  0.2368 -1.7885  2.4000
  422SOL     OW 1264   2.594   0.384   1.746 -0.4883 -0.2604 -0.3914
  422SOL    HW1 1265   2.529   0.306   1.771 -0.0486 -1.4607  1.9609
  422SOL    HW2 1266   2.623   0.381   1.648 -3.5536 -0.1879  1.1094
  423SOL     OW 1267   2.133   1.790   0.623  0.4198 -0.2830 -0.1483
  423SOL    HW1 1268   2.153   1.723   0.700  1.6042 -1.5031 -0.5594
  423SOL    HW2 1269   2.128   1.887   0.653 -1.4343  0.5960  0.3279
  424SOL     OW 1270   1.830   1.413   3.005  0.2933 -0.2889 -0.2876
  424SOL    HW1 1271   1.893   1.490   3.018  1.1207 -2.4453 -0.2689
  424SOL    HW2 1272   1.738   1.444   2.978 -1.2076  1.1204  0.2688
  425SOL     OW 1273   0.190   2.937   2.480  0.3014 -0.3909 -0.2555
  425SOL    HW1 1274   0.287   2.932   2.500 -1.1341  1.8476  1.1165
  425SOL    HW2 1275   0.181   2.954   2.380  0.3503 -0.7940  1.4714
  426SOL     OW 1276   2.381   2.825   2.875 -0.1705  0.8654  0.7867
  426SOL    HW1 1277   2.380   2.928   2.867 -0.0787 -0.6003 -0.9331
  426SOL    HW2 1278   2.339   2.784   2.788 -0.9319  0.9714 -1.8578
  427SOL     OW 1279   0.739   1.005   2.109 -0.2923  0.0296  0.6238
  427SOL    HW1 1280   0.826   0.947   2.118  0.5493 -0.7450  0.6963
  427SOL    HW2 1281   0.744   1.090   2.169 -2.3362  4.7774  1.8514
  428SOL     OW 1282   2.430   1.469   2.212 -0.0716  0.0607  0.5535
  428SOL    HW1 1283   2.378   1.383   2.214 -0.4160 -0.7487  1.4866
  428SOL    HW2 1284   2.433   1.516   2.120  0.1155  2.8494  0.6254
  429SOL     OW 1285   2.265   0.179   0.674 -0.6444 -0.2448 -0.7332
  429SOL    HW1 1286   2.270   0.163   0.572 -0.0658 -1.9690 -2.9241
  429SOL    HW2 1287   2.335   0.123   0.725 -1.9428 -0.7443  2.0540
  430SOL     OW 1288   1.771   1.431   2.304  0.1869  0.6985  0.4698
  430SOL    HW1 1289   1.865   1.397   2.323 -0.5544 -0.4997  1.6790
  430SOL    HW2 1290   1.710   1.351   2.270  1.0601 -0.1837 -2.5025
  431SOL     OW 1291   2.856   1.981   1.566  0.5590 -0.0145  0.2656
  431SOL    HW1 1292   2.951   1.946   1.565 -1.1985  0.0361 -0.5671
  431SOL    HW2 1293   2.866   2.080   1.568  1.9797 -0.2598  0.5009
  432SOL     OW 1294   0.750   2.561   2.038  0.4457  0.3911  0.0066
  432SOL    HW1 1295   0.740   2.576   1.936  0.9403  1.6198 -1.0321
  432SOL    HW2 1296   0.790   2.641   2.085  0.8549 -2.3215  0.8313
  433SOL     OW 1297   1.734   2.983   1.015  0.4989  0.2804 -1.0028
  433SOL    HW1 1298   1.806   3.051   0.999 -1.0034 -2.0925  0.0524
  433SOL    HW2 1299   1.658   2.979   0.944 -2.1184  0.0312  0.4142
  434SOL     OW 1300   0.546   2.266   1.971 -0.0333 -0.2304 -0.3388
  434SOL    HW1 1301   0.626   2.323   1.967 -3.4934 -0.4042  3.1496
  434SOL    HW2 1302   0.576   2.170   1.972  0.6691  4.6997  1.9767
  435SOL     OW 1303   0.610   1.666   0.622 -0.1474  0.0170 -0.1396
  435SOL    HW1 1304   0.611   1.741   0.545  0.2362 -1.2556 -0.8425
  435SOL    HW2 1305   0.529   1.606   0.606  0.5018  2.4257 -0.0997
  436SOL     OW 1306   0.212   1.570   1.777 -0.4624 -0.1812  0.2800
  436SOL    HW1 1307   0.200   1.657   1.828 -2.6975  0.5429  1.1079
  436SOL    HW2 1308   0.269   1.588   1.698 -2.8823 -1.2295  0.9568
  437SOL     OW 1309   1.227   0.595   3.049  0.6622 -0.1974  0.1388
  437SOL    HW1 1310   1.271   0.637   0.022 -0.2739 -2.3831 -0.6324
  437SOL    HW2 1311   1.132   0.616   3.050  2.3114  1.1034 -0.1135
  438SOL     OW 1312   0.496   1.915   1.346 -0.0878  0.7226 -0.5436
  438SOL    HW1 1313   0.440   1.996   1.315  1.3959  0.8403  2.4962
  438SOL    HW2 1314   0.490   1.905   1.449 -0.8144 -1.0313  0.7282
  439SOL     OW 1315   1.579   1.746   2.702 -1.0249 -0.5473  0.0123
  439SOL    HW1 1316   1.629   1.829   2.665 -0.4024 -0.8197 -1.8190
  439SOL    HW2 1317   1.594   1.661   2.648 -2.2379  4.3569  0.4634
  440SOL     OW 1318   1.675   0.526   0.855 -0.1208  1.0692  1.0003
  440SOL    HW1 1319   1.605   0.593   0.816 -1.6358  1.3500  1.6439
  440SOL    HW2 1320   1.748   0.576   0.900  2.5953 -0.5320 -2.5242
  441SOL     OW 1321   0.531   2.795   1.381  0.3147  0.4474 -0.2191
  441SOL    HW1 1322   0.434   2.754   1.387 -1.1929  1.0021  0.1342
  441SOL    HW2 1323   0.528   2.883   1.428  0.1473 -2.7738 -2.3086
  442SOL     OW 1324   2.501   2.413   0.951 -0.4502  0.2192 -0.1519
  442SOL    HW1 1325   2.494   2.434   0.850 -0.1712  2.0069 -0.3741
  442SOL    HW2 1326   2.416   2.445   0.990 -0.8924  0.2650 -2.0384
  443SOL     OW 1327   2.787   0.639   2.389 -0.1178  0.3240 -0.1583
  443SOL    HW1 1328   2.706   0.689   2.420 -1.5015 -0.3948 -1.4912
  443SOL    HW2 1329   2.875   0.685   2.417  0.8276 -2.6281 -3.4989
  444SOL     OW 1330   1.396   0.849   2.331  0.5656  0.0225  0.3595
  444SOL    HW1 1331   1.468   0.893   2.278 -0.8891  2.0419 -2.1696
  444SOL    HW2 1332   1.348   0.771   2.279  0.3686 -0.0811  0.0596
  445SOL     OW 1333   2.878   2.205   1.148  0.2977  0.3571 -0.0105
  445SOL    HW1 1334   2.893   2.246   1.241  1.1963  0.8577  1.4867
  445SOL    HW2 1335   2.777   2.201   1.132 -4.3525  1.9978  1.1640
  446SOL     OW 1336   0.020   1.340   0.642  0.0354  0.2260  0.0672
  446SOL    HW1 1337   3.106   1.275   0.563 -2.9312  1.8662  0.9638
  446SOL    HW2 1338   3.103   1.432   0.607 -0.8735  2.1413  0.4052
  447SOL     OW 1339   0.774   2.222   0.920 -0.1478  0.4047 -0.5046
  447SOL    HW1 1340   0.753   2.313   0.964 -1.8296  0.7146 -0.5175
  447SOL    HW2 1341   0.690   2.166   0.904  1.0121  1.1359 -0.2192
  448SOL     OW 1342   1.632   1.500   1.492  0.0018 -0.5231 -0.4395
  448SOL    HW1 1343   1.583   1.507   1.581  0.4794  3.0819 -0.0448
  448SOL    HW2 1344   1.574   1.462   1.416 -1.0429 -0.9552 -2.7125
  449SOL     OW 1345   0.700   1.708   2.948 -0.0560 -0.0126 -0.1814
  449SOL    HW1 1346   0.718   1.612   2.922  0.6747  1.5605 -0.2719
  449SOL    HW2 1347   0.748   1.745   3.034 -0.3193  2.6344  0.2761
  450SOL     OW 1348   2.632   2.306   1.890  0.4854  0.1384 -0.0992
  450SOL    HW1 1349   2.580   2.267   1.970 -0.3540  1.1118  1.2509
  450SOL    HW2 1350   2.722   2.260   1.883  0.7372  1.0186  2.1996
  451SOL     OW 1351   2.130   0.505   1.784  0.5023 -0.1602 -0.6503
  451SOL    HW1 1352   2.189   0.532   1.710 -1.7592  1.9123  1.5743
  451SOL    HW2 1353   2.056   0.576   1.789  4.0996 -0.0932  2.0819
  452SOL     OW 1354   0.760   2.708   1.081  0.4439  0.7624  0.2380
  452SOL    HW1 1355   0.799   2.682   1.171 -0.1846  0.7657  1.4714
  452SOL    HW2 1356   0.729   2.625   1.031  1.6036 -0.2250  0.0117
  453SOL     OW 1357   0.936   1.523   0.861 -0.5200 -0.5717  0.1948
  453SOL    HW1 1358   0.929   1.565   0.769 -1.2025  2.4980 -1.3557
  453SOL    HW2 1359   0.867   1.569   0.922 -0.4876  0.1193  2.7551
  454SOL     OW 1360   2.841   1.138   0.728 -0.2133 -0.1984 -0.2010
  454SOL    HW1 1361   2.898   1.117   0.647 -1.2531  2.6974 -2.4607
  454SOL    HW2 1362   2.899   1.197   0.790  1.2008  1.8550  0.9723
  455SOL     OW 1363   0.276   0.287   0.433 -0.4013  0.0164  0.2610
  455SOL    HW1 1364   0.207   0.302   0.506 -2.7005 -0.3111 -0.5636
  455SOL    HW2 1365   0.355   0.347   0.439 -3.7385 -2.1144 -0.1646
  456SOL     OW 1366   2.157   2.491   0.372 -0.6391  0.1995 -0.7227
  456SOL    HW1 1367   2.198   2.559   0.439 -0.6364 -0.5432  0.2984
  456SOL    HW2 1368   2.113   2.413   0.425 -1.7543 -2.5509  0.8503
  457SOL     OW 1369   1.256   2.718   0.055  0.2559 -0.2123  0.8476
  457SOL    HW1 1370   1.322   2.792   0.066  2.7315  0.5778 -1.2583
  457SOL    HW2 1371   1.280   2.673   3.072 -1.0915 -1.2200  0.6959
  458SOL     OW 1372   2.694   2.907   0.302  0.2587 -0.1705  0.0133
  458SOL    HW1 1373   2.700   2.855   0.210  0.5921 -1.8826 -0.6168
  458SOL    HW2 1374   2.704   3.006   0.285  1.9144 -3.0656  1.2413
  459SOL     OW 1375   2.349   0.479   2.026 -0.8207 -0.8292 -0.7818
  459SOL    HW1 1376   2.381   0.430   2.111 -0.9224  0.1337  3.1920
  459SOL    HW2 1377   2.272   0.426   1.979  2.1245  1.1187  0.9147
  460SOL     OW 1378   2.979   0.493   0.205  0.5347  0.4890  0.1672
  460SOL    HW1 1379   3.038   0.527   0.129 -1.7016  1.2252  0.2031
  460SOL    HW2 1380   2.887   0.541   0.217 -1.0863 -0.8685  1.8918
  461SOL     OW 1381   0.136   2.000   1.376  0.3584 -0.0911 -0.9433
  461SOL    HW1 1382   0.118   1.920   1.322  1.0539  4.0993  0.4117
  461SOL    HW2 1383   0.216   2.052   1.335 -0.6663  0.6370 -1.1745
  462SOL     OW 1384   2.731   2.920   1.046 -0.6581  0.0481 -0.0516
  462SOL    HW1 1385   2.724   3.016   1.003 -2.8331 -2.1097  3.2657
  462SOL    HW2 1386   2.641   2.886   1.072  3.3755 -2.0784 -0.2573
  463SOL     OW 1387   2.873   1.059   3.087  0.2894  0.0155 -0.3769
  463SOL    HW1 1388   2.893   1.158   3.070 -1.4213  2.3971 -1.7342
  463SOL    HW2 1389   2.908   1.006   3.010 -1.9351  1.5735  0.8723
  464SOL     OW 1390   0.525   2.796   0.931  0.1029  0.1607  0.2742
  464SOL    HW1 1391   0.543   2.866   0.861 -0.1205 -1.6146  1.1148
  464SOL    HW2 1392   0.594   2.805   1.008  0.1965  0.4271 -0.6545
  465SOL     OW 1393   0.971   0.586   1.168  0.1128  0.0367 -0.0286
  465SOL    HW1 1394   1.049   0.646   1.131 -0.4778  0.8176  0.0656
  465SOL    HW2 1395   0.890   0.578   1.107  0.8774  2.3605  1.8606
  466SOL     OW 1396   1.520   2.510   2.356 -0.3601 -0.5708  0.1940
  466SOL    HW1 1397   1.583   2.474   2.285 -0.9388  1.2311 -1.0199
  466SOL    HW2 1398   1.571   2.593   2.398 -0.7922  2.3528  5.7801
  467SOL     OW 1399   0.827   0.241   2.010 -0.0399  0.9582 -0.6231
  467SOL    HW1 1400   0.869   0.319   2.065  0.6195  0.6940  0.3970
  467SOL    HW2 1401   0.876   0.215   1.926 -1.5997  1.9613  3.5971
  468SOL     OW 1402   0.338   1.054   2.303 -0.5988 -0.7402  0.2530
  468SOL    HW1 1403   0.382   1.047   2.213 -1.4638  0.5993  1.4289
  468SOL    HW2 1404   0.267   1.126   2.312  2.4273 -0.7871  2.1599
  469SOL     OW 1405   0.838   2.325   0.669 -0.2882  0.1104  0.0230
  469SOL    HW1 1406   0.845   2.421   0.685 -0.9323 -1.7492  1.6990
  469SOL    HW2 1407   0.831   2.278   0.761  0.4138  0.4586 -1.0474
  470SOL     OW 1408   2.489   1.671   2.003 -0.1558  0.3242  0.3884
  470SOL    HW1 1409   2.430   1.702   1.929  0.2421 -0.5936  0.2138
  470SOL    HW2 1410   2.586   1.637   1.977  2.7742  0.0601  0.2675
  471SOL     OW 1411   1.078   2.928   2.746 -0.3780 -1.1125  0.7363
  471SOL    HW1 1412   1.053   2.935   2.845 -0.1626  3.2867  0.6579
  471SOL    HW2 1413   1.148   3.003   2.736 -1.4866  0.7193  3.5095
  472SOL     OW 1414   0.325   2.724   1.807 -0.3940  0.3543 -0.3364
  472SOL    HW1 1415   0.280   2.663   1.870  3.3627  0.2133  0.7444
  472SOL    HW2 1416   0.373   2.676   1.729  0.7558 -3.4630  1.2382
  473SOL     OW 1417   0.759   0.074   2.986 -0.1617  0.3704 -0.5601
  473SOL    HW1 1418   0.739   3.082   2.970 -0.8482  1.0302  1.7252
  473SOL    HW2 1419   0.676   0.126   2.967  0.8170 -0.2509 -1.8170
  474SOL     OW 1420   1.897   0.107   0.956 -0.1595  0.3839  0.0006
  474SOL    HW1 1421   1.957   0.123   1.037 -2.2054 -0.2947  0.0802
  474SOL    HW2 1422   1.818   0.172   0.959  0.8346 -1.4683  0.9499
  475SOL     OW 1423   1.784   0.301   1.299  0.0466  0.4118  0.2082
  475SOL    HW1 1424   1.687   0.276   1.275  1.2381  0.7155 -0.2160
  475SOL    HW2 1425   1.817   0.359   1.224 -1.7339 -1.9973 -0.6087
  476SOL     OW 1426   0.536   1.036   1.011  0.0387  0.1350  0.7075
  476SOL    HW1 1427   0.434   1.031   1.010 -1.0780 -1.2314  0.0044
  476SOL    HW2 1428   0.564   1.131   0.998 -1.1798  0.0812 -0.5310
  477SOL     OW 1429   1.228   2.469   0.686 -0.0062 -0.2651 -0.3334
  477SOL    HW1 1430   1.169   2.497   0.607 -1.8224  1.0479 -0.0796
  477SOL    HW2 1431   1.179   2.499   0.770 -1.7762  2.8078  0.7189
  478SOL     OW 1432   3.002   2.536   2.357 -0.2247  0.2507 -0.6871
  478SOL    HW1 1433   3.038   2.607   2.422  0.7381 -2.0710  2.2639
  478SOL    HW2 1434   3.078   2.488   2.308 -2.5463 -0.1431 -0.1546
  479SOL     OW 1435   2.688   0.539   1.047 -0.3361 -0.8448 -0.2593
  479SOL    HW1 1436   2.612   0.561   0.980 -0.2425  1.9010  1.0679
  479SOL    HW2 1437   2.781   0.548   1.013  2.5495 -2.8052 -1.0204
  480SOL     OW 1438   3.096   2.625   0.145 -0.1680  0.3824  0.0008
  480SOL    HW1 1439   3.014   2.568   0.154  1.1231  0.0308 -1.3112
  480SOL    HW2 1440   0.000   2.687   0.221  1.5292 -3.8323  0.3010
  481SOL     OW 1441   2.338   2.045   1.732 -0.4441  0.4538  0.3582
  481SOL    HW1 1442   2.250   2.050   1.780  0.8465 -0.6638 -3.6786
  481SOL    HW2 1443   2.375   2.139   1.706 -1.2630 -1.7422 -0.0709
  482SOL     OW 1444   1.529   2.360   2.589 -0.2891  0.0429 -0.0619
  482SOL    HW1 1445   1.576   2.398   2.670  0.7430 -2.3827  0.9409
  482SOL    HW2 1446   1.506   2.432   2.523 -1.2434 -1.6651  2.2156
  483SOL     OW 1447   0.835   1.597   1.614 -0.4736  0.2530 -0.2749
  483SOL    HW1 1448   0.808   1.668   1.543  2.2747  2.6100 -0.7077
  483SOL    HW2 1449   0.751   1.542   1.640 -3.2851  0.1750  2.7725
  484SOL     OW 1450   0.413   0.551   1.469 -0.4323 -0.1540  0.6019
  484SOL    HW1 1451   0.408   0.650   1.445 -2.6909 -1.2260 -1.2647
  484SOL    HW2 1452   0.434   0.491   1.390  2.1820  2.3478  0.0135
  485SOL     OW 1453   2.354   1.313   2.886 -0.0029  0.3264 -0.4491
  485SOL    HW1 1454   2.255   1.287   2.879 -0.3367 -1.6975  2.2448
  485SOL    HW2 1455   2.409   1.230   2.911 -1.7117  1.1325  2.4513
  486SOL     OW 1456   1.450   3.065   1.648 -0.0799  0.2809 -0.4918
  486SOL    HW1 1457   1.468   0.049   1.681  1.9854 -1.4391  0.1278
  486SOL    HW2 1458   1.379   3.065   1.575 -0.6519  1.7262 -0.5291
  487SOL     OW 1459   0.492   2.348   1.611 -0.3321  0.1409  0.5899
  487SOL    HW1 1460   0.582   2.365   1.660  1.9618  0.7115 -0.5664
  487SOL    HW2 1461   0.493   2.346   1.504 -0.5484 -1.0034 -2.7562
  488SOL     OW 1462   2.407   2.182   2.778  0.3433 -0.0783  0.2054
  488SOL    HW1 1463   2.335   2.111   2.783 -2.0250  0.0840 -0.8254
  488SOL    HW2 1464   2.442   2.206   2.868  0.4108 -0.4441 -2.1029
  489SOL     OW 1465   2.022   3.087   0.598 -0.6194  0.1126 -0.1574
  489SOL    HW1 1466   2.032   2.985   0.604  0.6204  0.2425 -1.0281
  489SOL    HW2 1467   2.088   0.021   0.531 -3.0445 -2.6288  2.7416
  490SOL     OW 1468   1.151   2.300   2.889 -1.0236 -0.0048 -0.2129
  490SOL    HW1 1469   1.226   2.260   2.832  0.4795  1.2903 -1.1732
  490SOL    HW2 1470   1.164   2.270   2.984  0.8003  2.6897 -1.3907
  491SOL     OW 1471   0.456   1.554   1.486  0.1784  0.4365 -0.1325
  491SOL    HW1 1472   0.419   1.642   1.521  1.7976  0.5163  1.7616
  491SOL    HW2 1473   0.530   1.518   1.549 -1.2456  1.0567  1.4498
  492SOL     OW 1474   1.285   1.209   1.886 -0.1675 -0.1705  0.1833
  492SOL    HW1 1475   1.223   1.165   1.949  1.2916  2.2748 -0.3591
  492SOL    HW2 1476   1.228   1.274   1.827 -1.2388 -1.7874  1.6855
  493SOL     OW 1477   2.522   1.728   0.857  0.2864  0.1117 -0.1023
  493SOL    HW1 1478   2.456   1.694   0.925 -1.3895  1.8135 -0.1222
  493SOL    HW2 1479   2.594   1.786   0.896 -3.4378 -1.0372  1.1703
  494SOL     OW 1480   0.196   2.041   1.061 -0.0268  0.0847 -0.3664
  494SOL    HW1 1481   0.129   2.081   0.993 -0.4814  0.3816 -0.4826
  494SOL    HW2 1482   0.151   1.965   1.113 -1.6068  1.5570 -1.2985
  495SOL     OW 1483   2.293   2.674   0.846 -0.4975  0.0917 -0.3318
  495SOL    HW1 1484   2.392   2.699   0.828  0.7798  0.2357 -2.3008
  495SOL    HW2 1485   2.289   2.604   0.917 -1.1440  1.0549 -1.1561
  496SOL     OW 1486   2.441   0.159   1.417 -0.3359  0.1994  0.0832
  496SOL    HW1 1487   2.394   0.168   1.325 -2.1924 -0.0088  0.9975
  496SOL    HW2 1488   2.374   0.187   1.496  2.6144  2.2750  0.8264
  497SOL     OW 1489   2.197   0.955   2.670 -0.1760 -0.2545 -0.7264
  497SOL    HW1 1490   2.111   0.957   2.621 -1.7821 -0.9710 -0.5155
  497SOL    HW2 1491   2.252   1.032   2.636 -0.3015 -1.2600 -0.9654
  498SOL     OW 1492   0.025   2.237   1.443  0.3269 -0.1031  0.1549
  498SOL    HW1 1493   0.050   2.139   1.427 -0.9143  1.0545  0.0704
  498SOL    HW2 1494   3.035   2.252   1.450  1.2715  1.3931  0.1449
  499SOL     OW 1495   0.832   2.133   2.132 -0.3199 -0.2972 -0.3359
  499SOL    HW1 1496   0.781   2.157   2.220  0.2983 -1.4853  1.5987
  499SOL    HW2 1497   0.880   2.217   2.099 -0.8621  1.7489 -2.2760
  500SOL     OW 1498   1.133   2.087   0.524  0.5146  0.1224 -1.0016
  500SOL    HW1 1499   1.084   2.163   0.471 -2.4218  1.6754 -2.0414
  500SOL    HW2 1500   1.073   2.004   0.527  3.5310 -0.3648 -0.6790
  501SOL     OW 1501   1.660   2.967   1.495 -0.0655 -0.3285 -0.3964
  501SOL    HW1 1502   1.652   3.003   1.404 -1.7254 -2.0292  0.0174
  501SOL    HW2 1503   1.579   3.000   1.546  3.0827 -2.2666 -2.4512
  502SOL     OW 1504   2.433   0.595   1.794 -0.0855 -0.0419  0.3795
  502SOL    HW1 1505   2.385   0.572   1.880 -0.2398  0.5506 -0.3779
  502SOL    HW2 1506   2.507   0.524   1.780  1.0368  0.3095  0.9354
  503SOL     OW 1507   2.707   1.321   2.187 -0.1065 -0.6391  0.3871
  503SOL    HW1 1508   2.748   1.415   2.194  2.2973 -0.1903  2.8648
  503SOL    HW2 1509   2.627   1.324   2.116 -2.2185 -2.5809 -1.2607
  504SOL     OW 1510   1.680   0.922   1.585  0.3184 -0.5149 -0.5180
  504SOL    HW1 1511   1.710   0.828   1.603 -1.9347  1.6042 -1.9088
  504SOL    HW2 1512   1.618   0.927   1.502 -1.1405 -0.3874  0.8726
  505SOL     OW 1513   0.526   3.033   1.506  0.7782 -0.4959  0.5428
  505SOL    HW1 1514   0.555   3.062   1.599 -1.0214 -3.0478 -0.1453
  505SOL    HW2 1515   0.452   3.090   1.461 -2.8273  1.3504 -1.3659
  506SOL     OW 1516   3.010   0.211   0.269  0.1230  0.4223 -0.2924
  506SOL    HW1 1517   2.991   0.312   0.254  0.6801  0.4464 -0.4722
  506SOL    HW2 1518   3.063   0.167   0.194 -3.6264 -0.8245  2.9194
  507SOL     OW 1519   2.709   2.380   0.006 -0.0541 -0.0663  0.6097
  507SOL    HW1 1520   2.782   2.352   3.048  0.4307  0.7547 -1.2856
  507SOL    HW2 1521   2.753   2.422   0.091  0.5870 -0.0252  0.6665
  508SOL     OW 1522   1.246   0.344   1.808  0.4511 -0.4345  0.3570
  508SOL    HW1 1523   1.181   0.420   1.828 -0.9595  3.0822  1.1101
  508SOL    HW2 1524   1.233   0.258   1.865  1.9141  0.1507 -0.5546
  509SOL     OW 1525   1.779   1.753   1.157  0.3232 -0.2183 -0.4252
  509SOL    HW1 1526   1.739   1.722   1.250 -0.8615  2.4844  2.8553
  509SOL    HW2 1527   1.709   1.800   1.103 -3.0062 -1.4398  0.0604
  510SOL     OW 1528   2.577   0.882   1.363 -0.0489  0.5354 -0.0788
  510SOL    HW1 1529   2.548   0.787   1.384 -1.8662 -0.9406  1.0688
  510SOL    HW2 1530   2.609   0.931   1.446 -2.2880  0.0984  0.9570
  511SOL     OW 1531   1.342   1.835   1.178  0.0121 -0.0807  0.3376
  511SOL    HW1 1532   1.252   1.880   1.166 -0.3008 -1.1438  1.2999
  511SOL    HW2 1533   1.351   1.784   1.265 -0.1315  0.4709  0.6662
  512SOL     OW 1534   3.043   1.584   0.510  0.0045 -0.5341  0.1124
  512SOL    HW1 1535   2.958   1.573   0.456  1.8240  0.4995  0.6997
  512SOL    HW2 1536   3.058   1.684   0.534  0.6887  1.9926  1.0116
  513SOL     OW 1537   0.077   1.491   0.190 -0.2952 -0.1384  0.0340
  513SOL    HW1 1538   0.138   1.524   0.112 -0.3240  2.8569 -0.7390
  513SOL    HW2 1539   3.088   1.496   0.160 -0.5673  1.3743 -1.2994
  514SOL     OW 1540   2.535   2.175   2.094 -0.2433  0.0671 -0.5660
  514SOL    HW1 1541   2.586   2.088   2.093  0.8957  1.0065 -0.7219
  514SOL    HW2 1542   2.504   2.200   2.191 -2.0619  0.0487  2.0016
  515SOL     OW 1543   2.195   1.008   0.632 -0.1999  0.3882  0.0140
  515SOL    HW1 1544   2.122   0.981   0.565  1.0923  0.1543  0.4403
  515SOL    HW2 1545   2.220   1.108   0.628  0.8044  2.7167 -0.1822
  516SOL     OW 1546   2.449   2.691   0.173  0.4619 -0.0306  0.0131
  516SOL    HW1 1547   2.350   2.720   0.167 -0.0181  0.5825 -1.2148
  516SOL    HW2 1548   2.462   2.619   0.099 -0.3791  0.5795 -1.0096
  517SOL     OW 1549   0.907   1.472   2.679  0.7398  0.6818 -0.1531
  517SOL    HW1 1550   0.982   1.429   2.734  1.3852  1.1095  0.1974
  517SOL    HW2 1551   0.940   1.560   2.642  1.1944 -0.4023 -1.5315
  518SOL     OW 1552   0.350   0.256   2.156  0.0959 -0.3955  0.6534
  518SOL    HW1 1553   0.402   0.167   2.152  2.6134  0.0607 -1.8074
  518SOL    HW2 1554   0.252   0.243   2.135  2.0789 -1.4695  0.0750
  519SOL     OW 1555   0.939   1.164   0.139  0.5073  0.7736 -0.1852
  519SOL    HW1 1556   0.934   1.218   0.057 -1.4598 -1.7860  0.1908
  519SOL    HW2 1557   1.009   1.197   0.207  0.1885  0.4279 -2.1838
  520SOL     OW 1558   2.698   2.561   1.972 -0.5456  0.1911  0.1088
  520SOL    HW1 1559   2.655   2.473   1.944  1.6386 -0.9904 -1.3022
  520SOL    HW2 1560   2.794   2.545   1.999 -0.0404  1.0126 -0.5338
  521SOL     OW 1561   0.395   1.911   2.055 -0.6347 -0.2618 -0.2578
  521SOL    HW1 1562   0.461   1.874   2.129  1.6384  0.3136 -0.6045
  521SOL    HW2 1563   0.413   1.864   1.962 -0.2526  0.4499 -2.3866
  522SOL     OW 1564   1.505   2.847   1.879 -0.6002 -0.4821  0.3737
  522SOL    HW1 1565   1.424   2.818   1.930  3.9913  1.1983 -1.3709
  522SOL    HW2 1566   1.482   2.907   1.798 -0.0107  1.1948 -2.6673
  523SOL     OW 1567   2.014   2.189   1.542  0.1122  0.1384 -0.0736
  523SOL    HW1 1568   2.098   2.140   1.530 -1.0438 -0.5139 -0.3481
  523SOL    HW2 1569   2.017   2.277   1.489 -1.5563  0.3226 -0.7456
  524SOL     OW 1570   0.595   2.607   0.350  0.6233 -0.2029  0.2562
  524SOL    HW1 1571   0.618   2.681   0.416 -1.2165  0.1432 -3.6268
  524SOL    HW2 1572   0.598   2.513   0.392 -0.1686 -1.0911  1.6799
  525SOL     OW 1573   2.919   0.156   0.723 -0.2820  0.0642  0.0907
  525SOL    HW1 1574   2.872   0.236   0.749  1.0248 -1.4726  1.7769
  525SOL    HW2 1575   2.971   0.175   0.639  1.0810  0.5337  0.4691
  526SOL     OW 1576   0.779   0.029   0.557  0.4366  0.1143 -1.0898
  526SOL    HW1 1577   0.714   3.090   0.490 -1.1103 -1.9104 -2.1228
  526SOL    HW2 1578   0.861   3.072   0.566  1.0944 -0.8893  0.8348
  527SOL     OW 1579   1.930   1.579   0.996  0.5394  0.6769 -0.6837
  527SOL    HW1 1580   1.961   1.500   1.052  0.4897 -0.4507 -1.0651
  527SOL    HW2 1581   1.899   1.654   1.060 -0.8346  1.2724 -0.3951
  528SOL     OW 1582   2.692   2.552   2.566  0.0680  0.6849  0.0439
  528SOL    HW1 1583   2.720   2.490   2.493 -0.4052 -1.6776 -0.6534
  528SOL    HW2 1584   2.698   2.650   2.520  1.3254  0.8761 -0.6907
  529SOL     OW 1585   1.158   1.654   2.456  0.1088  0.8726  0.2689
  529SOL    HW1 1586   1.058   1.673   2.452  0.1855  2.4577  1.6749
  529SOL    HW2 1587   1.199   1.600   2.380 -1.2488  1.2015  0.3692
  530SOL     OW 1588   1.547   1.105   2.880  0.0818  0.2976  0.0965
  530SOL    HW1 1589   1.569   1.004   2.884  0.4670 -0.3513  0.0201
  530SOL    HW2 1590   1.593   1.141   2.795 -1.0717 -0.5105 -1.6325
  531SOL     OW 1591   0.219   0.964   0.574 -0.1625 -0.1613  0.9414
  531SOL    HW1 1592   0.301   0.986   0.634  1.9439 -2.0962  1.9974
  531SOL    HW2 1593   0.233   1.008   0.482  0.5784 -1.4307 -1.4147
  532SOL     OW 1594   1.736   1.246   0.778  0.0808 -0.7040 -0.0002
  532SOL    HW1 1595   1.718   1.175   0.705  1.2836 -1.6660 -1.1998
  532SOL    HW2 1596   1.757   1.339   0.731  2.2722 -1.5035 -2.3250
  533SOL     OW 1597   0.591   0.310   2.495  0.3325  0.6174 -0.5277
  533SOL    HW1 1598   0.576   0.209   2.520  1.1342 -3.4591  0.2098
  533SOL    HW2 1599   0.617   0.370   2.575  0.1678  3.5917 -2.9120
  534SOL     OW 1600   0.724   2.919   2.939 -0.3166 -0.5700 -0.1990
  534SOL    HW1 1601   0.787   2.839   2.934 -1.0522  1.3413  2.2680
  534SOL    HW2 1602   0.629   2.899   2.911  0.2886 -0.9859 -0.0485
  535SOL     OW 1603   0.360   0.402   0.089 -0.2973  0.1321 -0.0853
  535SOL    HW1 1604   0.317   0.477   0.147  0.9244 -1.6140 -1.6013
  535SOL    HW2 1605   0.328   0.319   0.140  2.1491  0.3171  1.0480
  536SOL     OW 1606   0.572   0.910   2.359  0.1927  0.0558  0.0206
  536SOL    HW1 1607   0.484   0.953   2.323 -2.3196 -1.3024 -1.3500
  536SOL    HW2 1608   0.624   0.866   2.280  0.5675  0.0927 -2.0743
  537SOL     OW 1609   1.272   0.237   1.136 -0.3344  0.1257 -0.6996
  537SOL    HW1 1610   1.239   0.207   1.043  0.5113 -1.0932  3.1710
  537SOL    HW2 1611   1.190   0.244   1.201 -2.0925 -0.0251  0.8715
  538SOL     OW 1612   0.879   1.857   0.275  0.1968 -0.1050 -0.4712
  538SOL    HW1 1613   0.895   1.952   0.241 -0.6031  1.7473 -1.4962
  538SOL    HW2 1614   0.963   1.811   0.311  0.9088  0.2991  1.2841
  539SOL     OW 1615   2.513   1.254   1.726 -0.1431 -0.1532  0.0712
  539SOL    HW1 1616   2.542   1.190   1.654 -0.4005  0.3026 -0.2822
  539SOL    HW2 1617   2.520   1.349   1.689  0.1324 -2.6997  1.7911
  540SOL     OW 1618   1.896   1.729   1.955  0.4223 -0.5948 -0.4146
  540SOL    HW1 1619   1.907   1.803   1.887  0.1577 -0.4674 -0.6032
  540SOL    HW2 1620   1.914   1.770   2.046  1.6530  0.9618  0.6888
  541SOL     OW 1621   0.704   1.202   1.530 -0.7386 -0.3260  0.0310
  541SOL    HW1 1622   0.809   1.223   1.524  0.3430  0.0266  1.0690
  541SOL    HW2 1623   0.650   1.220   1.441 -2.2306 -0.8017 -2.8072
  542SOL     OW 1624   1.629   0.711   2.166  0.0162  0.1336  0.5694
  542SOL    HW1 1625   1.631   0.813   2.177  0.7151 -0.5002 -2.3090
  542SOL    HW2 1626   1.680   0.669   2.244 -0.0585 -0.9101 -2.1901
  543SOL     OW 1627   1.030   0.633   0.337 -0.1515 -0.8296  0.0218
  543SOL    HW1 1628   1.008   0.700   0.262 -1.6872 -0.6420  1.9220
  543SOL    HW2 1629   1.102   0.561   0.315 -0.8971  0.3515  0.7403
  544SOL     OW 1630   2.662   1.952   2.072 -0.0661 -0.6811  0.3288
  544SOL    HW1 1631   2.641   1.857   2.037  1.1422  0.1062  0.8377
  544SOL    HW2 1632   2.714   1.949   2.160 -2.3519 -1.0600  0.3439
  545SOL     OW 1633   1.775   2.110   1.672  0.2337 -0.9463  0.2137
  545SOL    HW1 1634   1.862   2.149   1.630  2.7570 -3.3666 -0.7999
  545SOL    HW2 1635   1.720   2.188   1.705  1.0529 -1.1901  1.2704
  546SOL     OW 1636   0.082   0.106   2.930 -0.1130 -0.0209  0.0169
  546SOL    HW1 1637   0.134   0.172   2.872  1.0306 -1.2562 -0.7020
  546SOL    HW2 1638   0.096   0.012   2.897 -1.3178  0.6681 -0.4887
  547SOL     OW 1639   2.114   0.951   0.214  0.1314 -0.9636  0.1123
  547SOL    HW1 1640   2.055   1.012   0.157 -0.3151 -0.1698  0.4156
  547SOL    HW2 1641   2.202   0.998   0.241  3.9527 -0.9176  1.8497
  548SOL     OW 1642   2.452   1.917   2.442 -0.4274 -0.0088  0.1730
  548SOL    HW1 1643   2.396   1.862   2.374 -1.5660 -1.3101 -0.1237
  548SOL    HW2 1644   2.479   1.852   2.517 -0.7148 -1.0330 -1.5413
  549SOL     OW 1645   2.044   0.267   0.773  0.3617 -0.2631  0.2348
  549SOL    HW1 1646   1.992   0.197   0.823 -1.8216 -0.3058  0.1870
  549SOL    HW2 1647   2.113   0.224   0.711  1.1822  1.6757  1.7146
  550SOL     OW 1648   2.464   1.994   0.745  0.1190 -0.3241  0.9692
  550SOL    HW1 1649   2.484   2.034   0.651 -0.6025  1.9333 -1.6069
  550SOL    HW2 1650   2.469   1.890   0.737 -0.7000 -1.1596 -2.8558
  551SOL     OW 1651   0.950   0.225   1.766  0.7592 -0.0488 -0.3848
  551SOL    HW1 1652   0.865   0.240   1.715 -0.7141  1.6440  1.9580
  551SOL    HW2 1653   1.032   0.192   1.711  2.1570 -1.5003  0.4934
  552SOL     OW 1654   0.302   2.503   2.475 -0.0141  0.0111  0.1950
  552SOL    HW1 1655   0.266   2.407   2.492 -1.5556 -1.7451  1.2768
  552SOL    HW2 1656   0.395   2.520   2.521  2.6897  0.4159  0.3231
  553SOL     OW 1657   0.670   2.983   0.352 -0.3601  0.2095  0.2915
  553SOL    HW1 1658   0.616   3.019   0.266  1.6163  2.2094 -3.1889
  553SOL    HW2 1659   0.621   2.902   0.402 -1.9255 -0.3325 -0.0563
  554SOL     OW 1660   2.246   2.448   1.742 -0.4464 -0.1755  0.4630
  554SOL    HW1 1661   2.316   2.374   1.714  1.5599 -1.3927 -0.8072
  554SOL    HW2 1662   2.213   2.499   1.660 -1.0420  0.9301  0.2779
  555SOL     OW 1663   1.352   2.087   2.005 -0.1386 -0.2458  0.2507
  555SOL    HW1 1664   1.394   2.030   2.081 -0.1621  0.2510  0.7775
  555SOL    HW2 1665   1.259   2.044   1.985 -2.4766 -0.3884 -1.0709
  556SOL     OW 1666   1.511   1.515   1.027 -0.2110 -0.6751 -0.0550
  556SOL    HW1 1667   1.568   1.596   1.007  2.5190 -2.3846  2.2387
  556SOL    HW2 1668   1.415   1.536   0.997  0.8647 -0.5272 -1.8632
  557SOL     OW 1669   2.027   2.303   1.902 -0.0188  0.0539  0.5226
  557SOL    HW1 1670   2.063   2.207   1.889 -1.4151 -2.7987  0.8429
  557SOL    HW2 1671   2.087   2.367   1.847  1.0078 -0.6104 -0.4796
  558SOL     OW 1672   0.421   0.418   1.909  0.1625 -0.1819 -0.2467
  558SOL    HW1 1673   0.385   0.397   2.003 -1.3548  1.8215 -2.8697
  558SOL    HW2 1674   0.488   0.495   1.913  1.2517 -1.9805 -1.9967
  559SOL     OW 1675   2.246   2.851   1.333 -0.0171  0.0544 -0.5358
  559SOL    HW1 1676   2.314   2.919   1.304  0.7430 -3.2412  2.3364
  559SOL    HW2 1677   2.150   2.876   1.307 -0.0990 -0.9181  0.5409
  560SOL     OW 1678   1.002   2.298   0.409 -0.5235 -0.1826 -0.0539
  560SOL    HW1 1679   0.942   2.315   0.490 -1.8850  2.9348  2.3303
  560SOL    HW2 1680   1.034   2.386   0.370 -1.5820 -1.1315 -1.7602
  561SOL     OW 1681   0.974   0.290   0.182  0.4296 -0.2153  0.0354
  561SOL    HW1 1682   1.064   0.323   0.217 -0.8467  2.3410 -0.5859
  561SOL    HW2 1683   0.913   0.260   0.254  2.1872 -0.9285 -3.0607
  562SOL     OW 1684   0.651   0.405   2.729  0.1753 -0.5965 -0.2693
  562SOL    HW1 1685   0.723   0.363   2.787 -1.6395 -0.8695 -0.4083
  562SOL    HW2 1686   0.678   0.501   2.695  0.1176 -0.4014  1.2134
  563SOL     OW 1687   1.701   1.975   2.589 -0.2077 -0.7746 -0.9012
  563SOL    HW1 1688   1.784   2.009   2.640  0.4835 -3.1771  0.1880
  563SOL    HW2 1689   1.642   2.052   2.562 -0.0975  0.0779 -0.9431
  564SOL     OW 1690   2.772   0.877   0.782 -0.3581  0.0161 -0.1993
  564SOL    HW1 1691   2.673   0.876   0.808  1.0355 -0.8829 -0.4676
  564SOL    HW2 1692   2.805   0.968   0.748  0.5688  0.2403  1.1156
  565SOL     OW 1693   1.390   0.290   2.687  0.5076 -0.5023 -0.3697
  565SOL    HW1 1694   1.336   0.305   2.773 -2.3123  0.8950 -0.2786
  565SOL    HW2 1695   1.371   0.375   2.629 -1.9889  2.7183  1.8198
  566SOL     OW 1696   1.643   0.281   2.327  0.1218 -0.6893  0.3421
  566SOL    HW1 1697   1.594   0.225   2.396 -0.0901  1.7971  1.2472
  566SOL    HW2 1698   1.664   0.234   2.236 -1.6213  1.1361 -0.4326
  567SOL     OW 1699   2.637   1.587   0.665 -0.1566  0.7862 -0.5586
  567SOL    HW1 1700   2.566   1.650   0.699  2.7192  0.9876 -0.5639
  567SOL    HW2 1701   2.708   1.646   0.612  2.5184 -1.6632  1.0912
  568SOL     OW 1702   1.797   1.863   0.386 -0.1153 -0.0803 -0.4769
  568SOL    HW1 1703   1.825   1.934   0.319  1.9166  0.3382  1.8181
  568SOL    HW2 1704   1.696   1.871   0.392  1.1076 -4.0904  0.1793
  569SOL     OW 1705   2.338   1.566   2.890  0.0429 -0.2370  0.2681
  569SOL    HW1 1706   2.370   1.468   2.889  1.6397  2.3467  1.3276
  569SOL    HW2 1707   2.286   1.591   2.799 -1.6815  0.9026 -0.2398
  570SOL     OW 1708   3.046   3.026   1.777 -0.4206  0.5386 -0.2525
  570SOL    HW1 1709   2.968   3.090   1.782 -0.3817  1.4188 -1.1563
  570SOL    HW2 1710   0.014   3.051   1.842  0.3936 -2.6616 -1.0382
  571SOL     OW 1711   0.062   0.322   2.507  0.1436  0.4638 -0.2112
  571SOL    HW1 1712   3.071   0.345   2.492 -0.0940  0.2457  0.7820
  571SOL    HW2 1713   0.128   0.388   2.463  1.4258 -1.0061 -0.7329
  572SOL     OW 1714   0.888   1.679   0.617  0.2951  0.1855  0.1780
  572SOL    HW1 1715   0.786   1.659   0.626 -2.4524  1.7389  2.5923
  572SOL    HW2 1716   0.895   1.781   0.624 -2.5867 -0.0653 -1.5439
  573SOL     OW 1717   0.850   2.651   2.931 -0.0032  0.0742 -0.0047
  573SOL    HW1 1718   0.933   2.699   2.925 -1.3097  0.1359 -0.0041
  573SOL    HW2 1719   0.847   2.586   3.006  0.8839 -1.5744  0.7891
  574SOL     OW 1720   0.908   0.287   0.864  0.6298  0.1501 -0.2151
  574SOL    HW1 1721   0.874   0.235   0.948 -0.0125  0.2491  2.2773
  574SOL    HW2 1722   0.825   0.314   0.803  1.1608 -2.1063  0.9588
  575SOL     OW 1723   0.096   1.083   1.718 -0.6133  0.3018 -0.0673
  575SOL    HW1 1724   0.030   1.070   1.638  1.1668 -0.4583 -2.7729
  575SOL    HW2 1725   0.048   1.151   1.780 -1.3321 -1.7041  1.6434
  576SOL     OW 1726   2.009   0.341   1.495 -0.2000  0.8067 -0.1886
  576SOL    HW1 1727   1.954   0.290   1.423  1.2619  0.3496  0.5298
  576SOL    HW2 1728   2.004   0.440   1.487  0.7481 -1.6267 -0.4977
  577SOL     OW 1729   0.172   1.192   2.038  0.0971 -0.7631 -0.0695
  577SOL    HW1 1730   0.118   1.108   2.061  1.2141 -1.4566  0.2483
  577SOL    HW2 1731   0.266   1.168   2.001  0.4278 -0.4968  1.5773
  578SOL     OW 1732   1.841   3.038   2.194  0.4345 -0.2631 -0.3403
  578SOL    HW1 1733   1.813   3.035   2.290  2.2950 -2.6634 -0.8556
  578SOL    HW2 1734   1.780   2.983   2.132 -1.1102 -0.7011 -0.4154
  579SOL     OW 1735   2.106   2.040   1.873  0.6361  0.1576 -0.6823
  579SOL    HW1 1736   2.123   1.992   1.965 -2.8248  2.0353  0.7538
  579SOL    HW2 1737   2.025   1.999   1.824 -4.3999  0.4524  2.4017
  580SOL     OW 1738   2.147   1.585   2.241 -0.1998 -0.5646  0.0489
  580SOL    HW1 1739   2.059   1.635   2.238  2.3685  0.3831 -1.1548
  580SOL    HW2 1740   2.185   1.571   2.149 -0.5937  1.1023  1.9668
  581SOL     OW 1741   1.257   1.137   2.908  0.5147 -0.0170 -0.2442
  581SOL    HW1 1742   1.253   1.035   2.889  0.2939 -1.5616 -1.1958
  581SOL    HW2 1743   1.357   1.155   2.920  3.7653  0.6408  0.2930
  582SOL     OW 1744   0.930   2.181   1.427 -0.3176  0.2196 -0.9784
  582SOL    HW1 1745   0.903   2.143   1.520 -0.6330 -1.5787  2.8979
  582SOL    HW2 1746   1.025   2.150   1.403  1.5001 -1.2989 -1.3624
  583SOL     OW 1747   1.316   1.181   1.253 -0.2971 -0.0396 -0.0355
  583SOL    HW1 1748   1.219   1.149   1.245  1.3707 -1.0258  1.5927
  583SOL    HW2 1749   1.374   1.130   1.186  1.7575  1.8063  1.5588
  584SOL     OW 1750   1.477   2.383   0.639 -0.5862  0.2813 -0.0401
  584SOL    HW1 1751   1.470   2.298   0.582  0.8868  0.7999 -0.5656
  584SOL    HW2 1752   1.386   2.424   0.652  1.1037 -2.1030  0.5702
  585SOL     OW 1753   2.447   2.484   0.005 -0.5370  0.0978  0.3279
  585SOL    HW1 1754   2.539   2.438   0.001 -0.2547  1.9363 -0.3199
  585SOL    HW2 1755   2.395   2.489   3.028  0.0745 -1.8814  2.4115
  586SOL     OW 1756   2.782   1.850   0.635 -0.3355 -0.1391  0.2655
  586SOL    HW1 1757   2.762   1.833   0.732 -1.0584  0.6176 -2.1415
  586SOL    HW2 1758   2.744   1.939   0.615 -1.0814 -4.3168 -0.1143
  587SOL     OW 1759   1.283   1.713   0.034  0.0731 -0.2587 -0.2153
  587SOL    HW1 1760   1.337   1.676   3.067  1.6203 -0.4180  0.5051
  587SOL    HW2 1761   1.215   1.644   0.066  0.8617 -0.1377  1.3028
  588SOL     OW 1762   0.445   0.442   0.789  0.1987 -0.3830 -0.1062
  588SOL    HW1 1763   0.425   0.345   0.771 -0.0681  0.9360 -1.8079
  588SOL    HW2 1764   0.405   0.477   0.880  0.6464  0.3372  2.0803
  589SOL     OW 1765   1.116   0.283   0.559  0.1812  0.2435 -0.1886
  589SOL    HW1 1766   1.018   0.273   0.521 -1.0793 -0.6967 -0.8810
  589SOL    HW2 1767   1.110   0.334   0.646 -0.2482 -0.6556 -0.6589
  590SOL     OW 1768   2.089   2.339   0.083  0.0601 -0.4409  0.0537
  590SOL    HW1 1769   2.101   2.412   0.151 -0.3301 -0.6840  1.1440
  590SOL    HW2 1770   2.039   2.375   3.104 -1.0975 -1.9418  1.2869
  591SOL     OW 1771   0.104   2.703   2.159 -0.1190 -0.6075 -0.2525
  591SOL    HW1 1772   0.149   2.791   2.183  2.5945 -0.4933 -0.6669
  591SOL    HW2 1773   0.132   2.666   2.067  0.8825 -0.1491 -0.5151
  592SOL     OW 1774   3.099   1.531   2.246 -0.2591 -0.3905  0.1063
  592SOL    HW1 1775   0.043   1.451   2.274  0.4824  1.3154  0.3218
  592SOL    HW2 1776   0.035   1.580   2.170  0.7475  0.5632 -0.1929
  593SOL     OW 1777   1.997   1.401   1.212  0.5253  0.0614 -0.3777
  593SOL    HW1 1778   2.030   1.445   1.295 -0.0839 -0.1673 -1.7317
  593SOL    HW2 1779   1.913   1.342   1.224 -0.2257  1.8064  1.1837
  594SOL     OW 1780   0.291   1.175   0.063  0.0886  0.0868 -0.6135
  594SOL    HW1 1781   0.359   1.251   0.052  0.2133  0.9331  0.2871
  594SOL    HW2 1782   0.199   1.216   0.054  2.2562  2.4758  0.0881
  595SOL     OW 1783   1.123   1.343   0.829  0.1577 -0.4050 -0.0993
  595SOL    HW1 1784   1.075   1.255   0.812  0.0238  0.1290  1.8486
  595SOL    HW2 1785   1.055   1.419   0.835  0.2715 -0.5155 -2.6677
  596SOL     OW 1786   2.749   1.231   1.321  0.2631  0.4244  0.0374
  596SOL    HW1 1787   2.733   1.140   1.272 -0.7922 -0.7146 -1.5090
  596SOL    HW2 1788   2.841   1.270   1.297 -0.1970 -1.1531  0.6633
  597SOL     OW 1789   1.041   2.386   1.556 -0.3554 -0.5834  0.0076
  597SOL    HW1 1790   0.983   2.333   1.496 -0.9980 -0.6577 -0.2516
  597SOL    HW2 1791   1.064   2.329   1.638 -0.1225 -0.0445 -1.4861
  598SOL     OW 1792   2.229   2.656   1.926  0.0575 -0.1169  0.1563
  598SOL    HW1 1793   2.214   2.579   1.858  1.4587  0.3445 -3.0267
  598SOL    HW2 1794   2.258   2.740   1.874  0.9599  0.4348 -0.1140
  599SOL     OW 1795   0.669   1.119   0.122 -0.5805 -0.3649  0.7629
  599SOL    HW1 1796   0.766   1.132   0.152 -2.5491  0.1643 -1.0990
  599SOL    HW2 1797   0.644   1.023   0.132  0.2073  1.4029  1.7940
  600SOL     OW 1798   1.010   0.844   2.824 -0.3313  0.0273  0.3246
  600SOL    HW1 1799   0.970   0.767   2.880 -1.3946  0.0050  3.2701
  600SOL    HW2 1800   1.115   0.845   2.828  1.7009 -1.8874 -2.7612
  601SOL     OW 1801   0.751   0.589   1.717 -0.5203  0.2753  0.3395
  601SOL    HW1 1802   0.852   0.569   1.722 -1.0303 -0.0837  1.0208
  601SOL    HW2 1803   0.713   0.608   1.813 -0.5286  0.5439  1.1025
  602SOL     OW 1804   0.385   2.411   0.614  0.1065  0.2747 -0.6148
  602SOL    HW1 1805   0.384   2.345   0.693  0.6904  0.2645  0.9819
  602SOL    HW2 1806   0.292   2.458   0.602 -1.2320  0.1847  2.3954
  603SOL     OW 1807   0.990   2.363   1.994 -0.2014 -0.3967 -0.0638
  603SOL    HW1 1808   0.915   2.431   2.008  2.3764  0.6824 -2.1991
  603SOL    HW2 1809   1.077   2.388   2.040 -1.5525  0.7466 -0.4715
  604SOL     OW 1810   0.251   1.957   0.024 -0.0233 -0.1360  0.2497
  604SOL    HW1 1811   0.327   1.931   3.072 -0.9595 -1.3380  1.3489
  604SOL    HW2 1812   0.180   1.881   0.028 -0.8249  0.6161  1.9167
  605SOL     OW 1813   2.132   1.406   1.794  0.0523 -0.1654  0.4676
  605SOL    HW1 1814   2.032   1.407   1.801  1.8005  0.0315  1.6324
  605SOL    HW2 1815   2.177   1.406   1.701  0.3479 -0.3828  0.4233
  606SOL     OW 1816   0.848   1.155   2.819 -0.2006  0.2698  0.3969
  606SOL    HW1 1817   0.759   1.173   2.864 -0.1827 -1.9064 -1.3162
  606SOL    HW2 1818   0.932   1.189   2.874 -0.2612 -0.1958 -0.7279
  607SOL     OW 1819   1.112   1.018   1.316  0.0163 -0.4384 -0.0196
  607SOL    HW1 1820   1.182   0.941   1.315  3.7294 -0.4803  0.3170
  607SOL    HW2 1821   1.021   0.996   1.274 -1.3028 -1.8487 -2.4522
  608SOL     OW 1822   2.974   1.784   1.849 -0.7888  0.5133 -0.2174
  608SOL    HW1 1823   2.950   1.866   1.897  0.2009  1.6828 -3.2800
  608SOL    HW2 1824   2.961   1.795   1.749  0.1972  2.5746  2.0177
  609SOL     OW 1825   2.216   0.072   0.421 -0.4747  0.2822 -0.1318
  609SOL    HW1 1826   2.193   0.145   0.350  1.1559  1.5151 -2.6310
  609SOL    HW2 1827   2.225   3.093   0.377 -2.6425  0.2960  1.6651
  610SOL     OW 1828   3.046   2.676   1.339  0.1053  0.2728 -0.0691
  610SOL    HW1 1829   3.096   2.756   1.380 -1.4274 -1.0853  1.5334
  610SOL    HW2 1830   3.098   2.588   1.359  0.8870  1.1166  1.2175
  611SOL     OW 1831   1.770   2.239   0.422 -0.1942 -0.2796  0.0956
  611SOL    HW1 1832   1.747   2.214   0.324 -0.5229 -3.5394 -0.0474
  611SOL    HW2 1833   1.760   2.161   0.484 -0.0963 -3.4872 -1.5243
  612SOL     OW 1834   0.597   3.074   1.770  0.2182 -0.1547 -0.4345
  612SOL    HW1 1835   0.697   3.046   1.762  2.7678 -1.1758  0.3120
  612SOL    HW2 1836   0.589   0.068   1.795  1.9253  1.1504 -0.9513
  613SOL     OW 1837   3.059   1.851   0.566  0.1778  0.0131  0.0547
  613SOL    HW1 1838   3.073   1.951   0.558  0.1193 -1.3788  0.0759
  613SOL    HW2 1839   2.962   1.838   0.595 -1.1929 -0.7379 -2.9343
  614SOL     OW 1840   1.965   0.280   1.758 -0.5980 -0.2322 -0.1491
  614SOL    HW1 1841   2.034   0.329   1.817 -0.5265 -1.8039  0.6194
  614SOL    HW2 1842   1.966   0.307   1.661  0.1060 -1.8417  2.8076
  615SOL     OW 1843   1.238   1.559   0.993 -0.0049 -0.2186 -0.2818
  615SOL    HW1 1844   1.184   1.587   1.073 -0.0821 -0.5974  1.8850
  615SOL    HW2 1845   1.190   1.496   0.934  0.8246 -1.8441  1.1874
  616SOL     OW 1846   1.751   1.630   0.201 -0.2245  0.2224 -0.5442
  616SOL    HW1 1847   1.810   1.672   0.272 -0.9111  1.4652  1.4681
  616SOL    HW2 1848   1.709   1.700   0.143  1.6157 -0.6720  1.8507
  617SOL     OW 1849   1.930   0.329   0.090  0.2986 -0.0602 -0.2075
  617SOL    HW1 1850   1.949   0.236   0.054 -3.1491 -1.7280  1.6870
  617SOL    HW2 1851   1.875   0.331   0.174 -1.3797 -0.9762  1.5739
  618SOL     OW 1852   0.681   0.663   2.637  0.0117  0.1661  0.2580
  618SOL    HW1 1853   0.750   0.676   2.566  1.5391 -0.3099 -0.3442
  618SOL    HW2 1854   0.680   0.743   2.701 -1.1943 -1.4199  1.1919
  619SOL     OW 1855   2.728   1.562   1.190  0.4406  0.3131  0.1978
  619SOL    HW1 1856   2.798   1.486   1.206 -1.3467  1.3827  1.3786
  619SOL    HW2 1857   2.689   1.550   1.095  0.7659 -0.3462 -2.0456
  620SOL     OW 1858   1.974   3.018   2.525 -0.3252  0.2293  0.3703
  620SOL    HW1 1859   1.920   3.099   2.494  2.3730 -2.8081  1.8804
  620SOL    HW2 1860   2.065   3.039   2.554 -1.5143 -0.2054  1.8935
  621SOL     OW 1861   2.750   1.709   2.893  0.2709  0.2246  0.4302
  621SOL    HW1 1862   2.840   1.682   2.863 -0.0370  0.6081 -2.7028
  621SOL    HW2 1863   2.695   1.627   2.915 -0.5653  0.6401 -0.9777
  622SOL     OW 1864   1.725   0.149   2.108  0.1133  0.6636 -0.5314
  622SOL    HW1 1865   1.796   0.094   2.148  1.6785 -1.0880  1.0035
  622SOL    HW2 1866   1.734   0.145   2.007  1.6895  1.6927  2.7693
  623SOL     OW 1867   0.669   2.450   1.045 -0.2118 -0.1815 -0.1151
  623SOL    HW1 1868   0.691   2.428   1.142  0.0452  1.1942  2.5876
  623SOL    HW2 1869   0.570   2.452   1.022 -0.1188  0.6548 -3.8758
  624SOL     OW 1870   0.031   0.068   0.075  0.2203 -0.1020 -0.4492
  624SOL    HW1 1871   3.090   3.088   0.081 -0.8133  1.8136  1.2524
  624SOL    HW2 1872   0.036   0.104   3.091 -0.6114 -0.2497 -0.6862
  625SOL     OW 1873   0.904   1.948   0.645  0.0665 -0.0821 -0.1094
  625SOL    HW1 1874   0.953   1.984   0.728  1.4079  0.9698 -1.0337
  625SOL    HW2 1875   0.824   2.010   0.627  0.0159  0.7665  2.1214
  626SOL     OW 1876   2.706   0.360   3.020 -0.5418  0.6703  0.2225
  626SOL    HW1 1877   2.800   0.336   2.988  2.7985 -0.5906 -0.2105
  626SOL    HW2 1878   2.673   0.295   3.093  1.0743 -0.3998  0.8738
  627SOL     OW 1879   1.346   1.945   2.767  0.3228  0.3140  0.2073
  627SOL    HW1 1880   1.414   1.865   2.756 -0.3747 -0.1756 -1.8459
  627SOL    HW2 1881   1.284   1.953   2.685  1.6430 -0.5468  0.1246
  628SOL     OW 1882   0.102   2.581   2.999  0.6497  0.2270  0.3464
  628SOL    HW1 1883   0.038   2.615   2.924  0.8507  1.3011  0.0026
  628SOL    HW2 1884   0.063   2.602   3.089  2.3489  0.3656  0.3743
  629SOL     OW 1885   0.462   2.884   2.565 -0.3122  0.3166 -0.0641
  629SOL    HW1 1886   0.499   2.858   2.656 -0.2087  1.3172  1.3168
  629SOL    HW2 1887   0.520   2.850   2.493 -2.3802  1.0108  2.5969
  630SOL     OW 1888   1.389   0.977   1.868 -0.0019 -0.8198  0.7490
  630SOL    HW1 1889   1.336   0.912   1.816  2.5046 -0.0234  1.2836
  630SOL    HW2 1890   1.351   1.074   1.862 -1.3598  5.0359  0.4800
  631SOL     OW 1891   1.922   1.117   0.094 -0.2895 -0.0467  0.0415
  631SOL    HW1 1892   1.871   1.170   0.166  2.9300 -2.0484 -0.0660
  631SOL    HW2 1893   1.935   1.169   0.005  0.1533  0.9858 -2.5826
  632SOL     OW 1894   2.702   0.339   2.008 -0.4235 -0.8452  0.4626
  632SOL    HW1 1895   2.719   0.432   2.051 -1.7915  4.7929  3.4575
  632SOL    HW2 1896   2.688   0.348   1.907 -1.5751 -0.2041  1.6561
  633SOL     OW 1897   0.781   1.505   0.116 -0.2815  0.4721  0.3654
  633SOL    HW1 1898   0.822   1.596   0.126  0.1980 -0.1458  0.2569
  633SOL    HW2 1899   0.812   1.455   0.033  2.8280  1.0028  0.5972
  634SOL     OW 1900   2.232   2.771   2.634  0.4577 -0.4419  0.0160
  634SOL    HW1 1901   2.216   2.677   2.603  1.7766  2.6499  0.9079
  634SOL    HW2 1902   2.273   2.829   2.559  4.8409  1.4505  0.6638
  635SOL     OW 1903   1.982   0.636   0.472 -0.1407 -0.8515  0.1168
  635SOL    HW1 1904   1.977   0.636   0.574 -0.6915 -0.0872 -0.0733
  635SOL    HW2 1905   2.035   0.562   0.429 -2.6299  2.2777  0.5249
  636SOL     OW 1906   0.673   1.223   0.566  0.1517 -0.6790  0.0134
  636SOL    HW1 1907   0.767   1.184   0.544  1.5435 -0.0430  0.3531
  636SOL    HW2 1908   0.608   1.199   0.492 -0.1580 -1.2007 -1.5377
  637SOL     OW 1909   2.937   2.177   0.118  0.4564 -0.6527  0.3245
  637SOL    HW1 1910   2.896   2.157   0.028 -3.6791  1.8690  1.4948
  637SOL    HW2 1911   2.987   2.092   0.156 -1.5636  1.4242 -0.8315
  638SOL     OW 1912   1.254   2.759   2.469 -0.1670 -0.0089  0.1496
  638SOL    HW1 1913   1.192   2.838   2.458 -1.0657 -2.6201 -1.3468
  638SOL    HW2 1914   1.237   2.687   2.400 -1.3842 -3.1639  2.1874
  639SOL     OW 1915   1.294   2.004   0.257  0.0508  0.1112  0.2617
  639SOL    HW1 1916   1.336   2.091   0.297 -1.1341  1.3212  1.5841
  639SOL    HW2 1917   1.217   1.971   0.315  0.0909  2.4313 -0.5017
  640SOL     OW 1918   1.767   0.085   0.637  0.2719  0.1489  0.0205
  640SOL    HW1 1919   1.793   0.180   0.662 -0.5932 -0.0126  0.8239
  640SOL    HW2 1920   1.846   0.024   0.622 -0.8613 -0.3633 -0.1752
  641SOL     OW 1921   2.935   2.989   0.494  0.0262  0.4008  0.2858
  641SOL    HW1 1922   2.907   2.941   0.578  1.4111  1.5704  0.7818
  641SOL    HW2 1923   2.856   3.038   0.453 -0.7916 -0.8853  0.4567
  642SOL     OW 1924   0.715   0.311   1.597  0.0463 -0.2038 -0.2162
  642SOL    HW1 1925   0.724   0.411   1.593  2.8823  1.0222 -1.5377
  642SOL    HW2 1926   0.640   0.279   1.661 -0.9736 -0.7132 -0.8349
  643SOL     OW 1927   0.781   1.250   2.245  0.3406 -0.1288  0.2041
  643SOL    HW1 1928   0.763   1.294   2.337 -1.3744 -0.4549  0.2348
  643SOL    HW2 1929   0.862   1.288   2.197 -0.7264 -0.3666  0.3469
  644SOL     OW 1930   1.084   2.461   0.196 -0.2670 -0.2519  0.1066
  644SOL    HW1 1931   1.051   2.550   0.229 -0.9812 -1.4150 -0.9668
  644SOL    HW2 1932   1.179   2.444   0.232  3.1564 -2.9817 -1.3367
  645SOL     OW 1933   1.689   2.205   0.143  0.2279  0.1093 -0.1275
  645SOL    HW1 1934   1.699   2.300   0.110  2.7627 -2.0033  0.5078
  645SOL    HW2 1935   1.612   2.161   0.098  1.3710  2.2538 -1.3068
  646SOL     OW 1936   0.455   1.405   3.098 -0.1778 -0.0896 -0.2640
  646SOL    HW1 1937   0.387   1.461   3.047 -1.0441  1.6734 -1.8827
  646SOL    HW2 1938   0.492   1.440   0.076 -1.4994 -1.2585  1.3361
  647SOL     OW 1939   0.807   0.117   1.055 -0.6416 -0.3681  0.2255
  647SOL    HW1 1940   0.815   0.015   1.059  0.8763 -0.0988  1.3994
  647SOL    HW2 1941   0.803   0.158   1.150 -0.8470 -1.1825 -0.5647
  648SOL     OW 1942   1.647   0.450   1.493  0.0907 -0.3427  0.4317
  648SOL    HW1 1943   1.703   0.381   1.442 -1.0593 -1.5583 -1.0257
  648SOL    HW2 1944   1.703   0.522   1.536  2.1194  0.5577  0.2173
  649SOL     OW 1945   1.226   1.965   3.024  0.0238  0.4033 -0.4445
  649SOL    HW1 1946   1.242   1.950   2.927 -2.2912  2.1843 -3.2797
  649SOL    HW2 1947   1.244   1.873   3.072 -1.5135  1.5045  0.4909
  650SOL     OW 1948   2.842   1.557   2.195 -0.0070 -0.3032  0.1616
  650SOL    HW1 1949   2.800   1.606   2.273  0.1289  0.8487 -1.8924
  650SOL    HW2 1950   2.943   1.552   2.208 -0.5345  2.9668  0.9582
  651SOL     OW 1951   1.355   2.571   2.943  0.2325  0.0139 -0.2914
  651SOL    HW1 1952   1.368   2.486   2.993  0.8611  1.9278  1.2432
  651SOL    HW2 1953   1.307   2.561   2.852  1.7727  0.4149 -0.6479
  652SOL     OW 1954   2.858   1.850   3.100  0.9066 -0.0926 -0.0416
  652SOL    HW1 1955   2.801   1.777   3.056 -1.6946 -0.1652 -1.0032
  652SOL    HW2 1956   2.848   1.941   3.051  0.3974 -2.1091  1.8114
  653SOL     OW 1957   0.162   0.143   1.006  0.3828 -0.2179  0.4542
  653SOL    HW1 1958   0.181   0.041   0.994  1.4082 -0.9153  1.1241
  653SOL    HW2 1959   0.185   0.180   1.097  0.3898 -0.8234 -0.9295
  654SOL     OW 1960   2.327   0.319   2.261  0.0625  0.5243 -0.0319
  654SOL    HW1 1961   2.424   0.286   2.270 -0.6664  0.2428  1.2379
  654SOL    HW2 1962   2.276   0.256   2.205  1.7169  2.4972  1.2331
  655SOL     OW 1963   0.268   3.008   0.943  0.8851 -0.0966 -0.2701
  655SOL    HW1 1964   0.242   2.940   0.872 -3.1400  0.3248  3.0468
  655SOL    HW2 1965   0.365   3.043   0.932 -0.0915  0.1333  1.1663
  656SOL     OW 1966   3.036   3.093   2.304 -0.0767  0.2969 -0.1741
  656SOL    HW1 1967   2.980   0.059   2.263 -2.5995 -0.3754 -1.1745
  656SOL    HW2 1968   3.064   3.108   2.403  1.1557  1.8552 -2.0622
  657SOL     OW 1969   2.674   0.675   2.655  0.5530  0.0310  0.3144
  657SOL    HW1 1970   2.626   0.717   2.576 -2.9510 -1.8454 -0.9734
  657SOL    HW2 1971   2.642   0.577   2.676 -0.9978 -2.7935 -1.6784
  658SOL     OW 1972   2.191   1.994   0.878 -0.2856  0.0853  0.3019
  658SOL    HW1 1973   2.279   1.941   0.871 -0.7920 -0.7813  0.2153
  658SOL    HW2 1974   2.201   2.052   0.961 -0.5069 -2.0067 -2.6400
  659SOL     OW 1975   2.164   2.758   0.129 -0.3087  0.2132 -0.5105
  659SOL    HW1 1976   2.089   2.716   0.185  3.0152  0.0514 -0.3901
  659SOL    HW2 1977   2.132   2.789   0.037 -0.4904  1.1119 -1.1705
  660SOL     OW 1978   1.649   1.200   2.630 -0.2702  0.0693  0.0928
  660SOL    HW1 1979   1.560   1.162   2.596 -1.9770 -1.7168 -0.0008
  660SOL    HW2 1980   1.671   1.294   2.594  2.1051  1.6402  0.7423
  661SOL     OW 1981   2.493   2.506   1.460 -0.0142  0.4847  0.1023
  661SOL    HW1 1982   2.543   2.420   1.452 -1.0669  0.1490 -1.5562
  661SOL    HW2 1983   2.508   2.551   1.548  1.4509  0.7197  0.1648
  662SOL     OW 1984   0.783   0.859   0.410  0.2429  0.5702  0.1547
  662SOL    HW1 1985   0.693   0.871   0.366  0.1001  0.4345  0.5446
  662SOL    HW2 1986   0.786   0.767   0.454  1.6097  1.7936  1.9521
  663SOL     OW 1987   2.033   2.310   0.513  0.2424  0.4296 -0.0640
  663SOL    HW1 1988   2.089   2.224   0.538  2.4752 -2.0667  3.2331
  663SOL    HW2 1989   1.935   2.285   0.497  1.8766  1.1235  1.2724
  664SOL     OW 1990   0.766   1.816   1.426 -0.4825 -0.8498  0.1477
  664SOL    HW1 1991   0.693   1.852   1.367 -1.9961 -0.2766  2.9031
  664SOL    HW2 1992   0.856   1.810   1.387 -1.5073 -0.2895  0.8157
  665SOL     OW 1993   1.868   2.229   2.141  0.1824  0.2318 -0.1569
  665SOL    HW1 1994   1.932   2.223   2.221  4.3116  0.5239  1.5255
  665SOL    HW2 1995   1.927   2.248   2.059  1.2340  1.1231  1.1720
  666SOL     OW 1996   0.172   2.469   0.270 -0.0574  0.9963 -0.0499
  666SOL    HW1 1997   0.250   2.442   0.208 -1.6081  1.5602  2.1113
  666SOL    HW2 1998   0.102   2.525   0.221 -0.2028  1.0254  1.0565
  667SOL     OW 1999   2.500   1.509   1.619 -0.2980  0.6629  0.2363
  667SOL    HW1 2000   2.458   1.575   1.685 -1.4830 -1.7510 -0.6306
  667SOL    HW2 2001   2.588   1.542   1.581 -2.2697 -0.0372 -0.5931
  668SOL     OW 2002   0.404   0.606   2.712  0.1311 -0.2474  0.2864
  668SOL    HW1 2003   0.499   0.629   2.681 -1.8033 -0.9033  0.9903
  668SOL    HW2 2004   0.416   0.547   2.795 -0.5643  0.4470 -1.1848
  669SOL     OW 2005   1.846   2.317   2.842 -0.8143 -0.2863  0.8024
  669SOL    HW1 2006   1.801   2.382   2.772 -0.3534 -0.4853 -3.0215
  669SOL    HW2 2007   1.920   2.367   2.892 -3.2731  3.1696 -0.1181
  670SOL     OW 2008   2.532   1.795   2.697  0.0683 -0.1043 -0.3451
  670SOL    HW1 2009   2.434   1.772   2.706 -2.4423  0.4252 -0.1865
  670SOL    HW2 2010   2.582   1.759   2.776  0.4689  0.5372 -1.7590
  671SOL     OW 2011   0.125   1.539   1.164 -0.4935 -0.2965 -0.4393
  671SOL    HW1 2012   0.135   1.558   1.069 -1.3851  0.5303  6.6022
  671SOL    HW2 2013   0.111   1.438   1.174  1.2496 -3.2220 -1.0656
  672SOL     OW 2014   2.494   0.937   2.269 -0.2651  0.1096  0.4605
  672SOL    HW1 2015   2.555   0.952   2.187 -1.1821 -1.9407  0.0492
  672SOL    HW2 2016   2.417   1.005   2.257 -4.1485  1.2227  0.9075
  673SOL     OW 2017   2.467   2.656   2.093 -0.1378 -0.4263 -0.0396
  673SOL    HW1 2018   2.550   2.606   2.061 -1.0618  0.5376 -1.2751
  673SOL    HW2 2019   2.387   2.660   2.027 -0.3014 -0.9960 -1.4007
  674SOL     OW 2020   1.279   2.508   2.032  0.4846 -0.1404 -0.3042
  674SOL    HW1 2021   1.328   2.429   1.991 -0.1782 -2.0758 -1.3545
  674SOL    HW2 2022   1.281   2.504   2.133  1.4942 -0.8723 -0.1936
  675SOL     OW 2023   0.545   0.793   1.123 -0.0266  0.3118  0.1814
  675SOL    HW1 2024   0.516   0.784   1.220 -0.4509 -2.2682 -0.8567
  675SOL    HW2 2025   0.552   0.886   1.080  0.0059 -1.4429  1.7782
  676SOL     OW 2026   1.742   1.049   0.500  0.1823  0.3240 -0.1423
  676SOL    HW1 2027   1.673   0.975   0.517  0.6648 -0.1168  0.8825
  676SOL    HW2 2028   1.837   1.002   0.519  3.2014 -1.6217 -0.8285
  677SOL     OW 2029   0.046   1.675   2.481 -0.2043 -0.5061 -0.0215
  677SOL    HW1 2030   0.028   1.641   2.385 -0.4857 -0.9983 -1.0459
  677SOL    HW2 2031   3.067   1.669   2.535  0.9476 -1.7910  0.4240
  678SOL     OW 2032   2.690   1.827   1.174 -0.4903 -0.0021  0.1881
  678SOL    HW1 2033   2.697   1.726   1.177  0.0236  0.5766 -3.8266
  678SOL    HW2 2034   2.630   1.867   1.242  1.1845 -3.1014  2.1676
  679SOL     OW 2035   2.006   2.811   0.604 -0.2539  0.3516  0.1675
  679SOL    HW1 2036   2.099   2.771   0.595 -0.5076  3.3218 -2.3460
  679SOL    HW2 2037   1.952   2.759   0.676 -2.0768 -1.5629  0.4400
  680SOL     OW 2038   0.305   2.392   2.087 -0.2038  0.1268 -0.2667
  680SOL    HW1 2039   0.389   2.346   2.119  0.4281 -1.1473 -2.1548
  680SOL    HW2 2040   0.304   2.404   1.989  1.5541  0.3631  0.9867
  681SOL     OW 2041   2.900   1.373   1.793 -0.2222  0.0668 -0.2398
  681SOL    HW1 2042   2.992   1.361   1.840  2.0290  1.4238 -0.0362
  681SOL    HW2 2043   2.836   1.440   1.837 -2.2546 -0.2053 -2.5343
  682SOL     OW 2044   0.885   2.008   1.049 -0.1393 -0.5454 -0.4000
  682SOL    HW1 2045   0.842   2.081   0.998  0.6877 -0.8622  1.4644
  682SOL    HW2 2046   0.985   2.002   1.030 -1.6422  0.6301 -0.0964
  683SOL     OW 2047   2.141   1.233   1.057  0.2155  0.2809 -0.5898
  683SOL    HW1 2048   2.092   1.228   0.971  2.1077 -0.2020  0.1158
  683SOL    HW2 2049   2.102   1.299   1.121  0.4069 -3.1463 -0.9604
  684SOL     OW 2050   3.063   1.675   2.806 -0.1181 -0.1436 -0.1243
  684SOL    HW1 2051   0.030   1.608   2.785  3.1493 -1.2395 -0.6904
  684SOL    HW2 2052   2.994   1.675   2.734  1.7054  0.0305  0.1273
  685SOL     OW 2053   1.576   1.184   0.037  0.1066 -0.0072 -0.0840
  685SOL    HW1 2054   1.572   1.174   3.044 -1.0117  1.9648  0.0265
  685SOL    HW2 2055   1.596   1.278   0.065  0.3086 -0.9142  0.1467
  686SOL     OW 2056   0.160   0.799   1.373 -0.3115 -0.1173  1.0245
  686SOL    HW1 2057   0.263   0.802   1.377  0.9465  0.9702 -0.3838
  686SOL    HW2 2058   0.130   0.736   1.451 -0.0825 -0.9547 -0.8955
  687SOL     OW 2059   1.399   2.212   2.804 -0.0709 -0.1789  0.1520
  687SOL    HW1 2060   1.381   2.113   2.802 -3.5542  1.6448 -0.2870
  687SOL    HW2 2061   1.436   2.243   2.715  0.9942 -1.5178  0.2972
  688SOL     OW 2062   0.398   1.788   1.612 -0.2048 -0.5455 -0.4036
  688SOL    HW1 2063   0.333   1.860   1.648 -1.2020 -2.9658  0.5068
  688SOL    HW2 2064   0.471   1.770   1.678 -0.7192  0.6819  1.3483
  689SOL     OW 2065   1.561   1.161   1.630 -0.3246  0.9539 -0.0418
  689SOL    HW1 2066   1.467   1.156   1.595  1.2552  0.4767  1.1002
  689SOL    HW2 2067   1.590   1.067   1.650  0.4958  0.8527 -0.1739
  690SOL     OW 2068   2.369   0.890   1.185 -0.3730  0.6384  0.1485
  690SOL    HW1 2069   2.445   0.886   1.260  0.0741 -2.7343 -0.1416
  690SOL    HW2 2070   2.393   0.941   1.101  1.9879 -0.1954 -1.7816
  691SOL     OW 2071   0.759   2.095   1.666  0.0588  0.1336 -0.2619
  691SOL    HW1 2072   0.713   2.029   1.612  1.0387  0.4932 -2.4767
  691SOL    HW2 2073   0.713   2.187   1.658 -0.1372  6.0266 -1.5140
  692SOL     OW 2074   2.018   0.087   1.194  0.0135 -0.0285  0.2445
  692SOL    HW1 2075   2.121   0.098   1.193 -2.2554 -0.9700 -0.0959
  692SOL    HW2 2076   1.982   0.071   1.289  1.7844  0.5819 -0.9025
  693SOL     OW 2077   0.470   1.051   2.032  0.3084  0.4306  0.4794
  693SOL    HW1 2078   0.565   1.038   2.066  1.5193 -0.4602 -0.1120
  693SOL    HW2 2079   0.460   0.981   1.960  1.0286  0.7148 -0.5226
  694SOL     OW 2080   1.948   0.006   1.436  0.4008  0.4410  0.1978
  694SOL    HW1 2081   1.993   0.027   1.525  0.3736  2.0700 -3.3742
  694SOL    HW2 2082   1.850   3.098   1.452 -2.0842 -1.8854 -2.3132
  695SOL     OW 2083   1.243   1.383   1.649 -0.1728 -0.5017 -0.0908
  695SOL    HW1 2084   1.159   1.420   1.602  2.5503 -0.6772 -0.7914
  695SOL    HW2 2085   1.273   1.295   1.609 -0.4054  0.1838 -1.1085
  696SOL     OW 2086   1.633   2.879   0.172 -0.4890  0.3922 -0.3422
  696SOL    HW1 2087   1.717   2.925   0.207 -0.2820 -2.2819  0.6369
  696SOL    HW2 2088   1.648   2.783   0.136 -0.1289 -1.1248  1.9105
  697SOL     OW 2089   0.833   0.582   0.496 -0.3373  0.0231  0.2203
  697SOL    HW1 2090   0.770   0.502   0.482  1.3697 -0.4738 -0.6774
  697SOL    HW2 2091   0.900   0.599   0.422  1.0662  2.0390 -1.6981
  698SOL     OW 2092   1.424   1.426   2.427 -0.1153  0.4220  0.2671
  698SOL    HW1 2093   1.342   1.447   2.374  0.6210 -1.9275  0.0344
  698SOL    HW2 2094   1.481   1.362   2.372 -0.4498 -0.9382  1.7775
  699SOL     OW 2095   1.471   1.081   1.055 -0.1032 -0.0664  0.2581
  699SOL    HW1 2096   1.532   1.157   1.048 -0.8351 -0.2301  1.3055
  699SOL    HW2 2097   1.410   1.082   0.973 -0.0377  1.3171  0.8046
  700SOL     OW 2098   1.264   2.935   0.554  0.2071 -0.2775 -0.0435
  700SOL    HW1 2099   1.349   2.905   0.503  0.8070 -0.5358  1.2736
  700SOL    HW2 2100   1.284   3.015   0.616  0.8533 -0.5578 -0.1950
  701SOL     OW 2101   2.255   3.100   2.590  0.1864  0.4518  0.2557
  701SOL    HW1 2102   2.314   3.088   2.673  1.0353  2.9991  0.6233
  701SOL    HW2 2103   2.265   0.093   2.575  0.7375  1.8214  0.4234
  702SOL     OW 2104   0.953   0.061   0.053 -0.1748 -0.0916 -0.0077
  702SOL    HW1 2105   0.974   0.158   0.085  1.3486 -1.9049 -2.2344
  702SOL    HW2 2106   0.874   0.055   3.103  1.6777  1.1279 -0.2468
  703SOL     OW 2107   2.511   2.872   2.267  0.1821  0.2217 -0.2242
  703SOL    HW1 2108   2.513   2.787   2.207  1.2373 -1.1221  0.3377
  703SOL    HW2 2109   2.419   2.880   2.312  1.5230 -1.1284 -0.7702
  704SOL     OW 2110   0.404   2.377   1.054  0.3005 -0.6224 -0.4532
  704SOL    HW1 2111   0.405   2.319   0.973  2.5004  0.6690  0.0151
  704SOL    HW2 2112   0.315   2.410   1.095  0.9321  1.0738 -0.2795
  705SOL     OW 2113   2.588   0.194   2.214 -0.1870  0.1993 -0.1942
  705SOL    HW1 2114   2.638   0.259   2.157 -3.2334  0.2319  0.4179
  705SOL    HW2 2115   2.565   0.107   2.166  0.9152 -0.0786 -0.1917
  706SOL     OW 2116   1.826   3.075   0.252  0.2900  0.5912 -0.0880
  706SOL    HW1 2117   1.818   3.015   0.334 -2.4086  1.1243 -1.9599
  706SOL    HW2 2118   1.770   0.052   0.269  0.5508  1.5576  2.3327
  707SOL     OW 2119   1.123   1.939   1.967 -0.0694  0.0589 -0.4606
  707SOL    HW1 2120   1.073   1.954   2.059  0.4746  2.4049 -1.5163
  707SOL    HW2 2121   1.110   1.855   1.920 -0.9259  1.8698  0.4664
  708SOL     OW 2122   0.072   2.595   1.906 -0.0573  0.3827 -0.4181
  708SOL    HW1 2123   0.070   2.509   1.858  0.3682  1.5964  0.4093
  708SOL    HW2 2124   0.032   2.673   1.850 -1.0351 -0.1387  0.5967
  709SOL     OW 2125   1.758   0.113   1.827 -0.2496  0.0547 -0.4887
  709SOL    HW1 2126   1.823   0.189   1.803 -0.9495  0.0754 -1.2581
  709SOL    HW2 2127   1.792   0.019   1.800 -2.0805 -0.2829  0.2320
  710SOL     OW 2128   2.092   0.723   2.230  0.0975  0.4409 -0.2183
  710SOL    HW1 2129   2.061   0.779   2.149  1.7137 -1.0733 -1.9757
  710SOL    HW2 2130   2.057   0.764   2.317 -0.0114 -1.1090 -1.2612
  711SOL     OW 2131   0.956   2.106   0.212 -0.0711  0.3157 -0.0810
  711SOL    HW1 2132   0.983   2.174   0.278  2.2886 -0.5361 -1.1027
  711SOL    HW2 2133   0.923   2.148   0.130  0.6020 -0.0738  1.1081
  712SOL     OW 2134   0.610   2.450   2.236 -0.0193  0.2126  0.0412
  712SOL    HW1 2135   0.525   2.509   2.234  0.5631  2.6216 -0.5048
  712SOL    HW2 2136   0.670   2.477   2.153  1.6283 -2.1861  1.2394
  713SOL     OW 2137   1.819   1.225   0.332 -0.2538 -0.7820  0.1028
  713SOL    HW1 2138   1.891   1.288   0.357  0.0663 -0.7743 -2.0660
  713SOL    HW2 2139   1.796   1.158   0.405 -0.2621  2.2288  0.6044
  714SOL     OW 2140   0.424   1.528   1.200 -0.1565  0.5254  0.8148
  714SOL    HW1 2141   0.324   1.543   1.194  0.3875  0.2050  2.1890
  714SOL    HW2 2142   0.453   1.533   1.296 -0.7285 -0.1516  1.3688
  715SOL     OW 2143   1.857   0.133   2.726  0.2422  0.1350  0.4943
  715SOL    HW1 2144   1.813   0.181   2.803  1.5662 -2.0834 -0.2810
  715SOL    HW2 2145   1.834   0.034   2.733  0.9724  2.0080  2.0426
  716SOL     OW 2146   2.739   3.064   1.976 -0.6006 -0.1161 -0.9311
  716SOL    HW1 2147   2.645   3.053   2.015  0.1315 -1.7348  1.5468
  716SOL    HW2 2148   2.790   2.974   1.986 -0.1347 -2.0828 -1.3264
  717SOL     OW 2149   0.110   0.946   0.819  0.2012  0.7139 -0.2005
  717SOL    HW1 2150   0.160   0.951   0.731 -0.9594  0.2130  0.7573
  717SOL    HW2 2151   0.035   0.876   0.821 -1.6863 -0.0574 -0.2127
  718SOL     OW 2152   1.187   1.168   2.596  0.5183  0.2967 -0.2875
  718SOL    HW1 2153   1.089   1.166   2.569  2.0993 -0.6743  0.7834
  718SOL    HW2 2154   1.207   1.227   2.678  2.3567 -0.4703  1.0302
  719SOL     OW 2155   2.906   1.320   3.060  0.9069 -0.4955  0.0265
  719SOL    HW1 2156   2.898   1.337   0.050 -0.5121 -0.5896 -1.4970
  719SOL    HW2 2157   2.820   1.339   3.009  1.3167 -3.9251  2.2915
  720SOL     OW 2158   1.155   0.956   0.883 -0.2275  0.2377  0.1017
  720SOL    HW1 2159   1.220   1.017   0.839  0.6995 -1.2782  0.4513
  720SOL    HW2 2160   1.063   0.965   0.842  2.5963 -0.1472 -1.7393
  721SOL     OW 2161   2.603   0.482   0.324  0.4798 -0.1193 -0.6579
  721SOL    HW1 2162   2.629   0.502   0.230  0.0977 -0.6795  0.1639
  721SOL    HW2 2163   2.680   0.523   0.380 -0.1783  1.3135 -2.0292
  722SOL     OW 2164   1.897   0.844   2.702 -0.0569 -0.1247  0.2189
  722SOL    HW1 2165   1.940   0.752   2.707  0.0556 -1.6102 -2.3796
  722SOL    HW2 2166   1.805   0.849   2.740  4.6629 -1.2837 -0.0882
  723SOL     OW 2167   2.805   0.588   0.463 -0.1624 -0.3750  0.6979
  723SOL    HW1 2168   2.905   0.607   0.468 -0.5367  0.9814 -0.8984
  723SOL    HW2 2169   2.755   0.675   0.471  0.3251 -1.9695  0.8649
  724SOL     OW 2170   1.000   1.370   2.097 -0.4297 -0.0862  0.0390
  724SOL    HW1 2171   1.020   1.279   2.063  0.6046  0.3090  0.1160
  724SOL    HW2 2172   0.960   1.424   2.017 -1.8541  2.0659 -0.8074
  725SOL     OW 2173   1.987   0.857   2.012 -0.6159  0.0390 -0.3672
  725SOL    HW1 2174   2.081   0.867   1.964  3.2501  0.8203  0.3040
  725SOL    HW2 2175   1.920   0.931   1.986  0.3185 -1.3244  1.5648
  726SOL     OW 2176   1.776   2.910   0.469  0.1106 -0.1172 -0.3836
  726SOL    HW1 2177   1.869   2.878   0.501 -2.7649  1.3582 -1.1955
  726SOL    HW2 2178   1.708   2.937   0.541  0.7136  2.3513  2.2012
  727SOL     OW 2179   1.565   1.283   2.246  0.8191  0.5257  0.7181
  727SOL    HW1 2180   1.548   1.185   2.267 -0.2946 -0.0052  0.5849
  727SOL    HW2 2181   1.505   1.320   2.171 -0.7956  0.9679 -3.6076
  728SOL     OW 2182   1.382   2.680   1.295  0.3735 -0.3499  0.5799
  728SOL    HW1 2183   1.322   2.653   1.374 -2.4560  1.4998 -2.4369
  728SOL    HW2 2184   1.480   2.650   1.308 -0.4346 -1.9805  1.6243
  729SOL     OW 2185   1.957   0.994   1.143  0.0228  0.4704 -0.0856
  729SOL    HW1 2186   2.056   1.017   1.136 -0.2084  2.5401  0.3636
  729SOL    HW2 2187   1.948   0.895   1.158  1.4510  2.1795 -1.2914
  730SOL     OW 2188   0.300   1.587   2.537 -0.1487  0.3279  0.1823
  730SOL    HW1 2189   0.215   1.649   2.539 -2.6202  0.7518  2.7763
  730SOL    HW2 2190   0.322   1.548   2.440 -0.1280 -2.5396 -3.5943
  731SOL     OW 2191   0.364   0.168   0.766  0.0711  0.3929 -0.6331
  731SOL    HW1 2192   0.354   0.121   0.679  1.9248  1.1002  1.6591
  731SOL    HW2 2193   0.284   0.156   0.825  1.9728 -0.9048  0.0942
  732SOL     OW 2194   1.153   0.919   0.234  0.0319  0.1033  0.0397
  732SOL    HW1 2195   1.197   1.004   0.204  0.1195 -0.7250  0.3174
  732SOL    HW2 2196   1.068   0.888   0.187  0.4786  0.6523 -1.9416
  733SOL     OW 2197   0.564   2.058   0.818 -0.2569 -0.2596 -0.4719
  733SOL    HW1 2198   0.583   1.961   0.854  1.5623  0.8005 -2.3253
  733SOL    HW2 2199   0.578   2.060   0.717 -0.0709 -0.3353  1.1064
  734SOL     OW 2200   0.083   2.329   2.919  0.0180  0.1401 -0.2602
  734SOL    HW1 2201   0.099   2.430   2.940 -3.9288  0.8703 -2.4899
  734SOL    HW2 2202   0.105   2.278   3.009  1.2801  1.5814 -1.1405
  735SOL     OW 2203   1.284   0.788   1.290  0.4721  0.1348 -0.0039
  735SOL    HW1 2204   1.239   0.773   1.198 -1.4220  1.9960 -0.2604
  735SOL    HW2 2205   1.307   0.699   1.337  1.8396 -1.6918 -1.2980
  736SOL     OW 2206   2.032   2.471   2.953  0.0723  0.3657 -0.2815
  736SOL    HW1 2207   1.964   2.547   2.946  1.1169  2.6236  0.2614
  736SOL    HW2 2208   2.124   2.501   2.929 -1.1236 -0.8077  1.3268
  737SOL     OW 2209   2.708   0.042   0.885  0.0126  0.2272 -0.5506
  737SOL    HW1 2210   2.783   0.076   0.820  1.1440 -0.0679  2.5350
  737SOL    HW2 2211   2.689   0.117   0.956 -1.4540  0.6736  0.5571
  738SOL     OW 2212   2.281   0.141   1.202  0.3528 -0.1497  0.5192
  738SOL    HW1 2213   2.242   0.225   1.161 -1.7119 -0.4435  4.4301
  738SOL    HW2 2214   2.338   0.095   1.132 -0.1546 -1.4255 -1.8011
  739SOL     OW 2215   1.729   2.512   0.409  0.4056 -0.5570  0.4511
  739SOL    HW1 2216   1.739   2.408   0.420 -0.4891 -0.3424 -1.0372
  739SOL    HW2 2217   1.699   2.559   0.499 -0.5272 -2.4972  2.9634
  740SOL     OW 2218   1.660   0.270   0.976 -0.6015  0.2398 -0.2946
  740SOL    HW1 2219   1.605   0.236   0.901 -0.5688 -0.6985  1.8807
  740SOL    HW2 2220   1.682   0.367   0.962 -0.3443 -0.8118 -0.0326
  741SOL     OW 2221   2.457   0.846   0.782  0.5708 -0.1291 -0.3219
  741SOL    HW1 2222   2.385   0.915   0.797 -1.1059  1.5203 -1.1891
  741SOL    HW2 2223   2.451   0.818   0.685 -0.8805 -3.5401  0.2075
  742SOL     OW 2224   1.015   1.949   2.207 -0.0188  0.1616 -0.2024
  742SOL    HW1 2225   1.106   1.971   2.253  0.8972  0.4415  0.4128
  742SOL    HW2 2226   0.949   2.028   2.199  0.0902 -0.1683  1.6406
  743SOL     OW 2227   1.901   0.669   1.842 -0.0162 -0.3922  0.2041
  743SOL    HW1 2228   1.931   0.742   1.907 -1.1562 -2.1889  0.9224
  743SOL    HW2 2229   1.882   0.580   1.888 -0.1480 -1.2415  1.9195
  744SOL     OW 2230   2.118   0.795   1.346 -0.2005  0.7295 -0.4082
  744SOL    HW1 2231   2.207   0.801   1.297  0.2835 -1.2260  1.3016
  744SOL    HW2 2232   2.098   0.877   1.397 -1.2488 -2.1812  0.8727
  745SOL     OW 2233   1.848   1.298   1.489 -0.2684  0.3654 -0.3954
  745SOL    HW1 2234   1.760   1.338   1.526 -0.4622  0.3122  1.1405
  745SOL    HW2 2235   1.833   1.263   1.391 -1.9511  0.9942 -1.9148
  746SOL     OW 2236   2.160   1.594   0.810  0.2675 -0.0663 -0.2764
  746SOL    HW1 2237   2.062   1.573   0.835  0.7879 -0.5237  1.7340
  746SOL    HW2 2238   2.215   1.619   0.895  0.7104 -1.7570  1.2486
  747SOL     OW 2239   2.006   1.197   0.800 -0.0643  0.1273  0.4899
  747SOL    HW1 2240   2.067   1.261   0.750  1.8153 -1.2172  1.3990
  747SOL    HW2 2241   1.909   1.233   0.790 -2.4405  1.5749  1.7820
  748SOL     OW 2242   0.376   2.237   0.837 -0.7774  0.3869 -0.1273
  748SOL    HW1 2243   0.286   2.201   0.868 -1.6925 -0.9255 -1.2086
  748SOL    HW2 2244   0.446   2.163   0.831 -2.6373  0.3531  0.2990
  749SOL     OW 2245   2.477   3.056   2.087  0.0584  0.7624  0.2202
  749SOL    HW1 2246   2.484   2.971   2.148 -0.6128 -0.5922  2.7314
  749SOL    HW2 2247   2.390   3.059   2.042  1.6195  0.5181  3.0078
  750SOL     OW 2248   2.471   0.583   0.898  0.5315  0.1892 -0.0052
  750SOL    HW1 2249   2.384   0.548   0.852 -0.5194 -0.2412  2.1603
  750SOL    HW2 2250   2.497   0.672   0.854 -3.1688 -3.1979 -0.9896
  751SOL     OW 2251   2.482   3.058   0.495 -0.2663  0.0698 -0.2908
  751SOL    HW1 2252   2.465   2.960   0.494 -0.2899 -0.2448  3.5347
  751SOL    HW2 2253   2.417   0.003   0.432  0.6463 -0.1342 -0.6521
  752SOL     OW 2254   0.227   2.855   0.722 -0.0398  0.0068 -0.2967
  752SOL    HW1 2255   0.287   2.778   0.724 -1.4797  2.0256  0.1627
  752SOL    HW2 2256   0.221   2.903   0.632  1.8514 -0.0418 -2.5784
  753SOL     OW 2257   1.814   0.442   1.954  1.1799 -0.2742 -0.1075
  753SOL    HW1 2258   1.710   0.432   1.947 -0.6664 -1.2540  0.8623
  753SOL    HW2 2259   1.859   0.374   1.894 -2.1878  2.2435  2.2752
  754SOL     OW 2260   1.628   2.313   1.763  0.1937  0.3245 -0.3262
  754SOL    HW1 2261   1.703   2.382   1.781  1.7891 -0.2562  0.6794
  754SOL    HW2 2262   1.584   2.322   1.673 -0.4118 -1.3935 -0.0806
  755SOL     OW 2263   2.814   0.454   0.689  0.0440 -0.7360  0.1586
  755SOL    HW1 2264   2.805   0.491   0.593  0.0773  0.7752  0.1030
  755SOL    HW2 2265   2.732   0.395   0.708  1.8168 -2.9916  2.0129
  756SOL     OW 2266   1.393   1.636   2.909 -0.0566  0.3628 -0.1357
  756SOL    HW1 2267   1.368   1.604   2.812 -0.9655 -1.9315 -2.2844
  756SOL    HW2 2268   1.492   1.645   2.916  0.4573 -0.9982  0.7427
  757SOL     OW 2269   1.152   0.117   0.906  0.0838  0.7008 -0.1794
  757SOL    HW1 2270   1.148   0.019   0.937 -0.7462 -3.5015  1.6769
  757SOL    HW2 2271   1.065   0.166   0.921 -1.2825  1.0508 -0.7730
  758SOL     OW 2272   0.795   0.194   1.352  0.1109 -0.3278  0.0219
  758SOL    HW1 2273   0.745   0.243   1.430  3.0443  0.1808  1.2015
  758SOL    HW2 2274   0.773   0.096   1.337 -2.4502 -0.0272 -0.8950
  759SOL     OW 2275   0.280   0.582   0.964  0.3937  0.3578 -0.1885
  759SOL    HW1 2276   0.309   0.675   0.923  1.5629  2.7107 -0.4683
  759SOL    HW2 2277   0.216   0.604   1.042 -0.0270 -1.4593 -0.9534
  760SOL     OW 2278   2.388   1.330   1.041 -0.1851  0.0268 -0.4381
  760SOL    HW1 2279   2.435   1.257   0.990 -0.6677 -0.0318 -0.7542
  760SOL    HW2 2280   2.295   1.306   1.070  1.0501 -0.7097  1.5405
  761SOL     OW 2281   1.525   0.550   0.402 -0.1538  0.1292 -0.6031
  761SOL    HW1 2282   1.584   0.526   0.482  1.4462  1.4797  0.5595
  761SOL    HW2 2283   1.437   0.498   0.409 -1.2209 -0.1043  1.3735
  762SOL     OW 2284   2.030   2.349   1.027  0.4698  0.2740 -0.2815
  762SOL    HW1 2285   1.996   2.356   0.931 -0.0082 -0.6594 -1.6443
  762SOL    HW2 2286   1.964   2.401   1.090 -2.3248  0.7008 -1.3966
  763SOL     OW 2287   1.476   1.520   1.729  0.1264  0.3741  0.0349
  763SOL    HW1 2288   1.450   1.595   1.793  1.3076 -2.4776 -0.3997
  763SOL    HW2 2289   1.391   1.476   1.682  0.0534  0.0357 -2.7298
  764SOL     OW 2290   2.694   1.983   2.355 -0.0922  0.0894  0.3351
  764SOL    HW1 2291   2.745   2.042   2.417 -0.3621  0.4558 -0.8921
  764SOL    HW2 2292   2.595   1.989   2.370  3.3342 -1.2560 -2.6637
  765SOL     OW 2293   0.843   2.538   0.849  0.2708 -0.2652  0.0586
  765SOL    HW1 2294   0.773   2.506   0.914  1.5252 -2.3609 -0.2778
  765SOL    HW2 2295   0.941   2.546   0.886  2.6991  0.1221  0.2052
  766SOL     OW 2296   0.449   1.806   2.539  0.3781  0.4831  0.4173
  766SOL    HW1 2297   0.412   1.710   2.546  2.0003 -0.3094 -2.6421
  766SOL    HW2 2298   0.542   1.825   2.583 -0.4895  1.5019  0.8920
  767SOL     OW 2299   1.995   0.886   2.429 -0.7604  0.4145  0.1659
  767SOL    HW1 2300   1.953   0.960   2.376  1.3700 -2.8754  0.0744
  767SOL    HW2 2301   1.926   0.862   2.498 -0.6280 -0.0364  0.7260
  768SOL     OW 2302   1.193   2.674   2.723 -0.2099 -0.5134  0.2056
  768SOL    HW1 2303   1.243   2.692   2.635  0.2256 -1.5338  1.5837
  768SOL    HW2 2304   1.154   2.761   2.760 -2.3657  2.0734  0.4308
  769SOL     OW 2305   2.948   2.579   0.814 -0.6308  0.4244 -0.5693
  769SOL    HW1 2306   2.863   2.568   0.875 -2.3993 -0.6377 -0.2507
  769SOL    HW2 2307   2.975   2.677   0.809  2.1818  2.0644 -1.2934
  770SOL     OW 2308   0.571   2.871   0.066 -0.1664 -0.4467 -0.2882
  770SOL    HW1 2309   0.578   2.767   0.088 -0.1116 -3.0788  0.9630
  770SOL    HW2 2310   0.655   2.889   0.010  1.6500  0.4039 -0.4741
  771SOL     OW 2311   1.046   2.391   2.448 -0.4836  0.6347  0.2751
  771SOL    HW1 2312   1.019   2.298   2.479 -0.4072 -1.4830  2.6167
  771SOL    HW2 2313   1.013   2.456   2.514  3.0683 -0.4759 -0.2320
  772SOL     OW 2314   2.201   0.184   2.040 -0.1285 -0.0262  1.0432
  772SOL    HW1 2315   2.112   0.205   2.082  3.3397 -2.0338 -0.8028
  772SOL    HW2 2316   2.203   0.087   2.011 -0.7666 -0.1125  0.4271
  773SOL     OW 2317   1.099   3.020   1.893  0.3517  0.1939  0.1811
  773SOL    HW1 2318   1.152   2.942   1.912 -0.6553  3.8905 -1.0772
  773SOL    HW2 2319   1.059   3.056   1.983 -1.3955  0.8457  0.7977
  774SOL     OW 2320   1.388   0.774   2.048  0.1138  0.3646 -0.6789
  774SOL    HW1 2321   1.402   0.854   1.992 -0.4760  0.0635  0.4538
  774SOL    HW2 2322   1.478   0.736   2.073 -1.8239  0.3180 -2.9554
  775SOL     OW 2323   2.259   2.928   0.318  0.1049 -0.0732 -0.2879
  775SOL    HW1 2324   2.332   2.866   0.289 -2.2096 -0.9305  0.3562
  775SOL    HW2 2325   2.173   2.907   0.271 -0.3214  1.2839  1.7989
  776SOL     OW 2326   2.272   1.182   1.857  0.0022  0.3596  0.2472
  776SOL    HW1 2327   2.354   1.215   1.804  0.4112 -0.3459  1.0324
  776SOL    HW2 2328   2.196   1.242   1.847  1.3538 -0.5306 -0.8280
  777SOL     OW 2329   0.109   1.195   2.543 -0.3527  0.1199  0.2007
  777SOL    HW1 2330   0.155   1.102   2.545  0.9651 -2.3256  1.2346
  777SOL    HW2 2331   0.109   1.236   2.450  0.6843 -1.7377  1.4700
  778SOL     OW 2332   2.250   1.048   2.327  0.0646  0.1147  0.2058
  778SOL    HW1 2333   2.219   0.955   2.304  0.5795 -0.8726  1.9512
  778SOL    HW2 2334   2.258   1.053   2.428 -0.3441 -0.8908  0.5858
  779SOL     OW 2335   2.926   0.235   2.919  0.3570  0.2467  0.1224
  779SOL    HW1 2336   3.019   0.198   2.934 -0.0783 -0.6402  0.8222
  779SOL    HW2 2337   2.883   0.184   2.840 -3.5642 -0.0788  0.6015
  780SOL     OW 2338   2.266   2.911   2.369  0.0633  0.4223  0.2900
  780SOL    HW1 2339   2.253   2.995   2.429 -0.4499  2.3446  0.9636
  780SOL    HW2 2340   2.193   2.901   2.301 -0.0554 -0.9736  0.4135
  781SOL     OW 2341   0.162   0.802   1.795  0.0628  0.3654  0.0419
  781SOL    HW1 2342   0.141   0.893   1.758  2.5839  0.7624  0.7471
  781SOL    HW2 2343   0.119   0.787   1.884  2.2815 -0.0054  0.3953
  782SOL     OW 2344   2.164   2.045   0.034 -0.4453  0.5961 -0.0301
  782SOL    HW1 2345   2.247   2.009   3.094 -0.9540 -1.2013 -2.4952
  782SOL    HW2 2346   2.174   2.143   0.060 -0.1473 -1.2715 -0.9182
  783SOL     OW 2347   0.489   2.355   1.316  0.3422 -0.0120 -0.0769
  783SOL    HW1 2348   0.465   2.400   1.231  3.1304 -1.7050  2.0562
  783SOL    HW2 2349   0.587   2.344   1.322 -1.9342  1.1193 -0.4412
  784SOL     OW 2350   2.544   0.721   2.422 -0.1925  0.2198  0.8352
  784SOL    HW1 2351   2.461   0.661   2.404 -1.4399  1.4438 -2.1674
  784SOL    HW2 2352   2.528   0.805   2.372 -1.5964 -1.6204  0.1319
  785SOL     OW 2353   0.137   0.294   1.259  0.6019  0.2103 -0.0722
  785SOL    HW1 2354   0.055   0.353   1.238 -1.0031 -1.6882  2.6874
  785SOL    HW2 2355   0.127   0.267   1.356 -0.4912 -1.2736 -0.5830
  786SOL     OW 2356   1.507   2.796   0.441 -0.6333 -0.1142  0.1581
  786SOL    HW1 2357   1.452   2.731   0.387 -1.1446  0.0295  0.8389
  786SOL    HW2 2358   1.560   2.857   0.375 -3.8385 -3.5344 -0.9045
  787SOL     OW 2359   1.273   0.102   0.662 -0.2246 -0.2722  0.5248
  787SOL    HW1 2360   1.214   0.159   0.598 -2.8929 -0.7908  0.5503
  787SOL    HW2 2361   1.236   0.104   0.757  1.6468  0.7343 -1.5842
  788SOL     OW 2362   2.922   1.370   1.177  0.3114 -0.5937  0.3031
  788SOL    HW1 2363   2.901   1.364   1.078  1.9329  0.4059  1.3386
  788SOL    HW2 2364   3.023   1.365   1.190 -1.0340 -2.6762 -1.6293
  789SOL     OW 2365   2.751   0.582   2.102  0.0612  0.2869 -0.2468
  789SOL    HW1 2366   2.726   0.669   2.055 -0.5778  0.2956 -1.3236
  789SOL    HW2 2367   2.764   0.587   2.202  0.4011 -1.2166 -2.5580
  790SOL     OW 2368   0.813   0.420   3.097 -0.1333  0.1095 -0.6262
  790SOL    HW1 2369   0.851   0.369   3.013 -1.5547 -3.2101  0.5422
  790SOL    HW2 2370   0.875   0.394   0.066  0.8093 -2.4698 -1.5095
  791SOL     OW 2371   2.733   2.783   0.063  0.2063 -0.6356 -0.0825
  791SOL    HW1 2372   2.690   2.827   3.089 -1.2236 -2.5633  0.8321
  791SOL    HW2 2373   2.693   2.687   0.078 -2.3942 -1.1957 -2.5769
  792SOL     OW 2374   1.502   0.590   1.683 -0.1060  0.5509  0.7245
  792SOL    HW1 2375   1.511   0.529   1.602 -2.0339 -1.8014  1.0440
  792SOL    HW2 2376   1.580   0.655   1.678  0.5201  0.2833 -0.7719
  793SOL     OW 2377   2.842   0.719   1.272  0.5197  0.8271  0.5144
  793SOL    HW1 2378   2.757   0.693   1.219 -0.7195  0.5442 -3.4341
  793SOL    HW2 2379   2.889   0.790   1.223 -1.3727  1.5336  1.0309
  794SOL     OW 2380   2.927   0.398   2.397  0.0012 -0.0046 -0.0857
  794SOL    HW1 2381   2.868   0.481   2.390  0.8355  2.3698  0.1933
  794SOL    HW2 2382   2.994   0.390   2.315 -1.0603  2.4465 -0.1276
  795SOL     OW 2383   0.858   1.759   0.036  0.0701 -0.0391 -0.1104
  795SOL    HW1 2384   0.905   1.824   3.079  1.2603  2.3916  1.5971
  795SOL    HW2 2385   0.871   1.795   0.134 -1.6040  2.1779  2.2652
  796SOL     OW 2386   2.242   0.728   2.818  0.8094 -0.1127  0.3757
  796SOL    HW1 2387   2.237   0.810   2.761  3.2994  0.1907 -1.7144
  796SOL    HW2 2388   2.152   0.679   2.819 -2.8933  0.5191  1.1349
  797SOL     OW 2389   2.667   2.077   2.695 -0.1762  0.1523 -0.1610
  797SOL    HW1 2390   2.628   1.990   2.676  2.0848  2.8012 -0.6107
  797SOL    HW2 2391   2.592   2.145   2.703 -0.8504  0.3481 -2.2564
  798SOL     OW 2392   2.862   0.287   1.380  0.4829 -0.5048  0.1293
  798SOL    HW1 2393   2.891   0.281   1.479 -1.1444  0.0660  1.2572
  798SOL    HW2 2394   2.934   0.340   1.330 -1.4773 -1.9108 -1.7610
  799SOL     OW 2395   0.338   0.352   1.656 -0.1449  0.7251 -0.6711
  799SOL    HW1 2396   0.382   0.418   1.593 -1.2175 -4.7322  0.5475
  799SOL    HW2 2397   0.391   0.364   1.745 -0.1142  1.0468 -0.2969
  800SOL     OW 2398   0.412   1.756   0.263  0.1468 -0.0362 -0.5396
  800SOL    HW1 2399   0.310   1.767   0.281  0.0394 -0.2085  1.6535
  800SOL    HW2 2400   0.431   1.659   0.240 -0.7053 -0.5921 -0.8682
  801SOL     OW 2401   1.776   1.714   0.818 -0.4471  0.1114 -0.2105
  801SOL    HW1 2402   1.800   1.810   0.841 -0.3592  0.8339 -3.2848
  801SOL    HW2 2403   1.827   1.653   0.879 -0.7620  0.0439 -1.1312
  802SOL     OW 2404   1.297   1.107   0.089 -0.3414 -0.0466 -0.5735
  802SOL    HW1 2405   1.256   1.139   0.002 -0.1150  1.9731  0.7505
  802SOL    HW2 2406   1.398   1.095   0.085  1.3064  1.7922  0.8501
  803SOL     OW 2407   1.138   1.660   1.829 -0.2427  0.1799  0.3103
  803SOL    HW1 2408   1.162   1.694   1.734 -1.8404  1.9039  0.4679
  803SOL    HW2 2409   1.065   1.588   1.834 -2.1890 -0.1998 -1.6911
  804SOL     OW 2410   1.553   2.379   1.056  0.0850  0.3659 -0.2645
  804SOL    HW1 2411   1.544   2.305   1.127 -1.8763  0.6842  2.0933
  804SOL    HW2 2412   1.604   2.354   0.972 -1.0707  0.3239  0.5880
  805SOL     OW 2413   0.178   2.259   2.478  0.3058 -0.0919 -0.4366
  805SOL    HW1 2414   0.120   2.304   2.408  2.4060  1.2402 -0.8146
  805SOL    HW2 2415   0.228   2.175   2.448  2.6994 -1.6242  1.4412
  806SOL     OW 2416   0.913   2.935   0.218 -0.2521 -0.2677  0.1773
  806SOL    HW1 2417   0.925   3.021   0.163 -1.2825 -1.9040 -0.9225
  806SOL    HW2 2418   0.819   2.940   0.266  0.1755 -0.4083  0.5887
  807SOL     OW 2419   2.529   1.093   2.751  0.0963  0.2041  0.2222
  807SOL    HW1 2420   2.519   1.037   2.836  2.1869  0.5841 -2.1167
  807SOL    HW2 2421   2.565   1.035   2.676  0.0092  1.2773  1.9007
  808SOL     OW 2422   1.478   2.086   0.864  0.4350  0.1190 -0.3115
  808SOL    HW1 2423   1.567   2.130   0.845 -0.3475 -0.5782  1.5439
  808SOL    HW2 2424   1.401   2.120   0.801 -0.2099  1.5336 -1.6524
  809SOL     OW 2425   0.371   0.013   0.529 -0.1907 -0.3436 -1.0040
  809SOL    HW1 2426   0.309   3.054   0.491 -0.5230  1.0057 -1.4049
  809SOL    HW2 2427   0.350   0.099   0.477 -0.4931  1.1375 -0.0395
  810SOL     OW 2428   1.277   1.759   0.799 -0.1072 -0.1546 -0.1851
  810SOL    HW1 2429   1.244   1.689   0.866 -2.9459  0.7588 -1.4914
  810SOL    HW2 2430   1.262   1.728   0.704 -0.0246  1.2006  1.3968
  811SOL     OW 2431   1.342   2.939   1.262  0.2856 -0.0274 -0.2795
  811SOL    HW1 2432   1.360   2.840   1.272 -0.4781 -0.9026  0.3496
  811SOL    HW2 2433   1.429   2.996   1.284  3.2192  0.9663  2.1135
  812SOL     OW 2434   1.141   3.046   0.341 -0.6290  0.7835 -0.1070
  812SOL    HW1 2435   1.188   2.991   0.416 -1.9973  1.3540  0.0880
  812SOL    HW2 2436   1.044   3.024   0.344  4.0859  0.2335 -0.9475
  813SOL     OW 2437   1.071   0.011   2.141  0.6755 -0.2688  0.1220
  813SOL    HW1 2438   1.065   0.110   2.157  0.4158 -1.5326  1.2194
  813SOL    HW2 2439   1.092   3.066   2.225 -2.5070  2.6912  2.0073
  814SOL     OW 2440   0.879   2.947   1.089 -0.5788 -0.5446 -0.3449
  814SOL    HW1 2441   0.827   2.861   1.077  0.9496  5.3770  0.4686
  814SOL    HW2 2442   0.980   2.942   1.065 -0.3222  2.2412  1.1020
  815SOL     OW 2443   0.158   2.575   0.528  0.4790  0.0055 -0.3415
  815SOL    HW1 2444   0.158   2.543   0.429 -1.2573 -0.1452 -0.8059
  815SOL    HW2 2445   0.181   2.669   0.538  0.1248 -2.7103  0.4576
  816SOL     OW 2446   2.480   1.421   2.625 -0.2495  0.5414  0.3024
  816SOL    HW1 2447   2.441   1.398   2.716  0.2435 -1.2784 -0.4613
  816SOL    HW2 2448   2.544   1.350   2.587 -0.9835  0.6631 -0.0064
  817SOL     OW 2449   1.947   2.618   2.524  0.0481 -0.3780 -0.1848
  817SOL    HW1 2450   2.042   2.584   2.525  0.0482 -0.5300  0.1344
  817SOL    HW2 2451   1.921   2.692   2.594 -0.1793 -1.0903  0.5785
  818SOL     OW 2452   1.307   1.395   0.511  0.0635  0.6662  0.7600
  818SOL    HW1 2453   1.346   1.299   0.521  0.8821 -1.2389 -1.9636
  818SOL    HW2 2454   1.383   1.460   0.503 -3.2085 -0.5479  1.1757
  819SOL     OW 2455   1.489   2.007   0.060 -0.2285 -0.3142  0.1734
  819SOL    HW1 2456   1.443   1.979   0.145  1.8636  0.1156 -0.3547
  819SOL    HW2 2457   1.423   2.010   3.093 -0.6468 -2.9019  1.2431
  820SOL     OW 2458   0.631   0.852   0.113 -0.1217 -0.2113  0.4269
  820SOL    HW1 2459   0.607   0.814   0.022  0.6578  0.1703  1.0291
  820SOL    HW2 2460   0.591   0.785   0.185  0.3869  0.4286  0.7437
  821SOL     OW 2461   0.465   0.189   1.216 -0.1392 -0.3493  0.0598
  821SOL    HW1 2462   0.477   0.291   1.216 -0.1606  0.5033  0.4739
  821SOL    HW2 2463   0.464   0.149   1.118 -2.8259 -0.9858 -0.9610
  822SOL     OW 2464   2.051   2.062   2.289 -0.6428 -0.3947 -0.0207
  822SOL    HW1 2465   2.085   2.155   2.265  0.9178 -0.5171 -0.5874
  822SOL    HW2 2466   2.065   2.041   2.390  0.0182  0.4462 -0.1896
  823SOL     OW 2467   0.909   0.498   2.092  0.5732  0.5585 -0.1497
  823SOL    HW1 2468   0.994   0.532   2.131  0.0666 -0.4175  0.2156
  823SOL    HW2 2469   0.825   0.548   2.126 -2.9281  0.1111 -1.4289
  824SOL     OW 2470   2.239   0.215   1.596 -0.0571 -0.4014  0.0776
  824SOL    HW1 2471   2.173   0.289   1.576 -2.1761 -2.9322 -1.8961
  824SOL    HW2 2472   2.184   0.133   1.617  1.9448  2.9326 -0.0777
  825SOL     OW 2473   0.645   1.243   2.992 -0.4578 -0.2300 -0.0721
  825SOL    HW1 2474   0.650   1.170   3.065 -1.1438 -1.2298 -0.5733
  825SOL    HW2 2475   0.585   1.322   3.017  1.6540 -0.9338  0.7358
  826SOL     OW 2476   1.812   0.504   2.477  0.2029  0.3398 -0.4397
  826SOL    HW1 2477   1.805   0.490   2.378 -0.0700  0.3325  2.6047
  826SOL    HW2 2478   1.872   0.439   2.526  0.2880 -0.1173 -0.3005
  827SOL     OW 2479   0.935   2.171   2.572  0.4455 -0.5190  0.1010
  827SOL    HW1 2480   0.875   2.165   2.490 -0.1027  0.3820 -1.8879
  827SOL    HW2 2481   0.900   2.235   2.648  0.7794 -0.3790  0.8990
  828SOL     OW 2482   2.622   0.377   1.449  0.3468 -0.7112  0.3480
  828SOL    HW1 2483   2.720   0.346   1.436 -1.1682 -2.3249 -1.5158
  828SOL    HW2 2484   2.557   0.299   1.440 -0.9565  2.4887 -0.4325
  829SOL     OW 2485   1.315   1.639   1.377 -0.4562 -0.2255  0.2796
  829SOL    HW1 2486   1.377   1.575   1.332 -0.0902  1.1185  0.1126
  829SOL    HW2 2487   1.232   1.590   1.404  1.4429  3.1827 -0.4519
  830SOL     OW 2488   0.898   0.975   1.858  0.0674 -0.1670  0.6481
  830SOL    HW1 2489   0.892   0.925   1.769  0.7760 -2.8082 -1.1464
  830SOL    HW2 2490   0.820   0.945   1.916  1.8991 -1.2324 -1.3667
  831SOL     OW 2491   2.908   1.848   0.246 -0.3251  0.1222  0.2011
  831SOL    HW1 2492   2.880   1.845   0.147  1.0670  0.5811  1.6390
  831SOL    HW2 2493   3.001   1.891   0.251  0.9023 -0.3187  0.8844
  832SOL     OW 2494   1.087   2.736   0.271 -0.0242 -0.2437  0.2119
  832SOL    HW1 2495   1.019   2.812   0.270 -3.2504 -1.7653  2.2951
  832SOL    HW2 2496   1.153   2.743   0.191  1.7888 -0.7024 -2.1733
  833SOL     OW 2497   2.996   0.308   1.657 -0.0108 -0.1162  0.4421
  833SOL    HW1 2498   2.921   0.256   1.694 -1.0917  0.3248 -0.3464
  833SOL    HW2 2499   3.000   0.405   1.689  3.6572 -0.9297 -2.8718
  834SOL     OW 2500   0.071   1.207   0.896  0.4386  0.0767 -0.2537
  834SOL    HW1 2501   0.031   1.274   0.830  3.6515 -0.2079  2.6818
  834SOL    HW2 2502   0.091   1.121   0.846 -2.2630  1.6799 -1.6672
  835SOL     OW 2503   2.437   2.857   1.090  0.5740  0.2674  0.4893
  835SOL    HW1 2504   2.383   2.942   1.086  0.1688  2.9329 -2.0427
  835SOL    HW2 2505   2.415   2.799   1.010  0.1702  0.3761  0.7354
  836SOL     OW 2506   1.161   1.925   2.579  0.0421  0.2217  0.4061
  836SOL    HW1 2507   1.078   1.943   2.634 -1.8927  3.0233 -1.0432
  836SOL    HW2 2508   1.166   1.828   2.543 -2.1948  0.7449  1.0767
  837SOL     OW 2509   1.695   1.838   0.035  0.3217 -0.5563 -0.5609
  837SOL    HW1 2510   1.622   1.900   0.060  3.1464 -0.9595 -1.0987
  837SOL    HW2 2511   1.778   1.888   0.001  2.1205  1.4597 -2.6172
  838SOL     OW 2512   0.130   0.623   2.311 -0.4036  0.4466 -0.7636
  838SOL    HW1 2513   0.200   0.578   2.369 -1.8303 -1.7712  0.4307
  838SOL    HW2 2514   0.072   0.552   2.264 -2.5716  0.0299 -4.1121
  839SOL     OW 2515   0.728   0.887   2.783  0.0827  1.0625  0.4067
  839SOL    HW1 2516   0.681   0.954   2.721  0.2348  1.8450 -0.0486
  839SOL    HW2 2517   0.831   0.904   2.794 -0.7609 -0.8713  0.4192
  840SOL     OW 2518   1.328   0.698   0.181  0.0792  0.0754  0.0463
  840SOL    HW1 2519   1.419   0.679   0.219 -1.1570 -1.1727 -2.2548
  840SOL    HW2 2520   1.308   0.799   0.196  3.0405 -0.2135 -2.5973
  841SOL     OW 2521   0.593   2.798   0.541 -0.3954 -0.0081 -0.0044
  841SOL    HW1 2522   0.518   2.746   0.589 -1.0796 -1.3376 -1.7606
  841SOL    HW2 2523   0.593   2.887   0.588  0.4855 -3.3979 -0.0649
  842SOL     OW 2524   0.228   0.676   0.457  0.6425  0.6917 -0.7434
  842SOL    HW1 2525   0.134   0.633   0.460 -0.8916 -0.3927 -0.0697
  842SOL    HW2 2526   0.232   0.765   0.504  1.0402  1.2416 -2.3872
  843SOL     OW 2527   0.453   0.836   1.379  0.0337 -0.2533  0.4126
  843SOL    HW1 2528   0.535   0.802   1.430 -0.9750 -1.7720  0.0504
  843SOL    HW2 2529   0.451   0.936   1.359  0.0881 -3.5625  1.5311
  844SOL     OW 2530   2.215   2.515   2.536 -0.0872  0.1170 -1.0227
  844SOL    HW1 2531   2.276   2.474   2.612  1.4782 -1.5183  2.1302
  844SOL    HW2 2532   2.239   2.495   2.442  0.7942  0.7980  2.5298
  845SOL     OW 2533   2.099   3.081   1.673  0.0721  0.1645 -1.2739
  845SOL    HW1 2534   2.012   3.051   1.716  1.8747 -1.0175 -2.7855
  845SOL    HW2 2535   2.176   3.031   1.726  0.6811 -1.6893  0.9764
  846SOL     OW 2536   2.432   1.602   2.455  0.2003 -0.0346  0.6051
  846SOL    HW1 2537   2.421   1.563   2.359  2.1585  1.8269  1.2343
  846SOL    HW2 2538   2.474   1.534   2.522 -0.3035 -0.1821  2.5812
  847SOL     OW 2539   2.228   3.026   1.987  0.4338 -0.4639 -0.0506
  847SOL    HW1 2540   2.158   2.983   2.046  1.3406 -1.4517 -2.2188
  847SOL    HW2 2541   2.264   2.961   1.921 -1.8501  0.8140  0.6474
  848SOL     OW 2542   3.090   2.877   0.309  0.3024  0.1552 -0.2037
  848SOL    HW1 2543   3.069   2.894   0.212 -0.3344  1.4989 -0.9003
  848SOL    HW2 2544   3.011   2.905   0.372 -1.7808 -1.6777  1.2888
  849SOL     OW 2545   0.263   2.935   1.223  0.5373  0.8329 -0.6521
  849SOL    HW1 2546   0.265   3.020   1.276  0.5289  2.3913 -1.9901
  849SOL    HW2 2547   0.258   2.947   1.124  1.9933  0.7247 -2.0495
  850SOL     OW 2548   0.280   1.846   0.848 -0.1290 -0.1523  0.7498
  850SOL    HW1 2549   0.260   1.912   0.920  4.1408  2.7225 -0.3638
  850SOL    HW2 2550   0.386   1.852   0.836  2.1530  0.6148 -0.0087
  851SOL     OW 2551   2.441   0.908   2.954  0.2133 -0.0247  0.0000
  851SOL    HW1 2552   2.386   0.839   2.907 -1.8427  2.9736  1.6221
  851SOL    HW2 2553   2.508   0.870   3.019  1.6236  1.4786  0.0866
  852SOL     OW 2554   2.010   1.925   2.548  0.4181 -0.1406  0.0150
  852SOL    HW1 2555   1.968   1.832   2.547 -1.6316  0.5068  0.2775
  852SOL    HW2 2556   1.960   1.981   2.612  0.9205  0.2181  2.5674
  853SOL     OW 2557   0.635   1.839   0.391 -0.2796  0.1896  0.2917
  853SOL    HW1 2558   0.566   1.785   0.340  3.7309  2.0558 -1.5135
  853SOL    HW2 2559   0.725   1.850   0.342  1.0519 -3.2447  0.3900
  854SOL     OW 2560   1.600   1.098   1.984 -0.4596 -0.1223 -0.5095
  854SOL    HW1 2561   1.532   1.046   1.931  0.9304  2.0852  2.2909
  854SOL    HW2 2562   1.594   1.198   1.973  0.8008 -1.4785  2.5906
  855SOL     OW 2563   0.755   2.169   0.026 -0.0479  0.4918  0.0311
  855SOL    HW1 2564   0.691   2.201   0.099  0.0950  0.4478 -0.9212
  855SOL    HW2 2565   0.709   2.186   3.051  3.1601 -1.6245  2.9184
  856SOL     OW 2566   0.447   0.013   2.116  0.1531  0.1250 -0.2094
  856SOL    HW1 2567   0.451   3.037   2.055 -1.5571 -3.1271  1.1477
  856SOL    HW2 2568   0.545   0.028   2.143 -1.0087 -1.4123 -2.0972
  857SOL     OW 2569   0.597   0.224   1.855 -0.3822  0.3952  0.4049
  857SOL    HW1 2570   0.675   0.218   1.919  0.2212 -1.4923 -1.7508
  857SOL    HW2 2571   0.532   0.290   1.892  1.0711 -1.0883  0.0427
  858SOL     OW 2572   0.162   2.014   2.196  0.5296  0.4601 -0.7774
  858SOL    HW1 2573   0.216   2.025   2.282  1.5570  0.5581  0.3102
  858SOL    HW2 2574   0.219   1.972   2.120 -0.4870  2.1318 -0.3072
  859SOL     OW 2575   1.848   2.133   1.310  0.1192  0.5323 -0.1265
  859SOL    HW1 2576   1.897   2.160   1.395 -3.4364 -4.3642  2.1448
  859SOL    HW2 2577   1.873   2.041   1.278  0.9535  0.9616  1.0345
  860SOL     OW 2578   1.804   0.355   0.669 -0.2022 -0.1046  0.1084
  860SOL    HW1 2579   1.900   0.338   0.699  1.3800  2.5157  1.0515
  860SOL    HW2 2580   1.759   0.424   0.733  2.0329  2.5425 -3.7438
  861SOL     OW 2581   0.112   0.637   1.143 -0.1313 -0.2141  0.0263
  861SOL    HW1 2582   0.126   0.704   1.217 -1.0606  0.5904 -0.9667
  861SOL    HW2 2583   0.028   0.580   1.162 -0.6217  1.8133  1.4448
  862SOL     OW 2584   2.092   0.790   1.655  0.4196 -0.3083  0.4003
  862SOL    HW1 2585   2.142   0.830   1.733 -2.3067 -0.9360 -0.3813
  862SOL    HW2 2586   2.064   0.858   1.588 -1.8643 -1.0716 -0.2138
  863SOL     OW 2587   0.298   1.318   1.439  0.1719  0.0011  0.7928
  863SOL    HW1 2588   0.315   1.259   1.520  0.3836  1.2328  0.9459
  863SOL    HW2 2589   0.360   1.397   1.431 -0.3759  0.6241  0.5137
  864SOL     OW 2590   2.461   3.065   1.745  0.3048 -0.2508 -0.1628
  864SOL    HW1 2591   2.524   3.070   1.665  0.7975 -1.1817 -0.8172
  864SOL    HW2 2592   2.442   0.052   1.789  1.8201  0.1944  2.8990
  865SOL     OW 2593   1.259   0.312   2.161  0.0932  0.5834 -0.3806
  865SOL    HW1 2594   1.263   0.228   2.101 -0.7849 -1.4775 -0.9800
  865SOL    HW2 2595   1.343   0.366   2.173 -2.2580  1.6058 -0.0470
  866SOL     OW 2596   2.249   2.650   0.567  0.0956  0.0496 -0.3878
  866SOL    HW1 2597   2.249   2.631   0.669 -1.8528  1.1349 -1.4627
  866SOL    HW2 2598   2.341   2.671   0.531  3.1219  0.4052  0.6986
  867SOL     OW 2599   2.559   2.734   0.836  0.3290  0.4218 -0.1394
  867SOL    HW1 2600   2.601   2.816   0.801 -1.3746 -0.6894  0.4810
  867SOL    HW2 2601   2.628   2.683   0.889  0.2843  1.6293 -0.1682
  868SOL     OW 2602   1.657   1.642   2.951 -0.2343 -0.0380  0.1176
  868SOL    HW1 2603   1.649   1.669   2.851 -0.8768 -0.4599 -0.1794
  868SOL    HW2 2604   1.679   1.724   3.011  2.3894  1.9611 -0.5422
  869SOL     OW 2605   2.701   2.103   0.587 -0.3265  0.5370 -0.4349
  869SOL    HW1 2606   2.681   2.125   0.683  1.5089 -1.5346 -3.0668
  869SOL    HW2 2607   2.690   2.187   0.529  0.1547 -0.6161 -0.7217
  870SOL     OW 2608   2.688   1.945   0.337 -0.4050 -0.2525  0.2050
  870SOL    HW1 2609   2.780   1.911   0.296  0.9539 -0.1196 -3.2782
  870SOL    HW2 2610   2.692   1.956   0.439  0.9409  0.1876  2.1554
  871SOL     OW 2611   0.355   1.098   1.281 -0.0618 -0.2435 -0.1934
  871SOL    HW1 2612   0.306   1.182   1.316 -1.1846 -1.0955 -1.9767
  871SOL    HW2 2613   0.309   1.083   1.189 -1.9907  0.1222 -1.7330
  872SOL     OW 2614   0.903   1.710   2.471  0.0152 -0.1037  0.0571
  872SOL    HW1 2615   0.867   1.709   2.376 -2.0315 -1.7820  0.3472
  872SOL    HW2 2616   0.825   1.704   2.534  2.7721  0.9155  0.8475
  873SOL     OW 2617   0.281   2.972   1.670  0.2897 -0.3167  0.2328
  873SOL    HW1 2618   0.289   2.900   1.740  0.9630  1.4708  1.7120
  873SOL    HW2 2619   0.359   2.997   1.614 -0.4460  4.3181 -1.4857
  874SOL     OW 2620   1.142   0.545   2.243 -0.0284 -0.5053 -0.1520
  874SOL    HW1 2621   1.209   0.469   2.222  2.1404 -3.2015  0.0468
  874SOL    HW2 2622   1.140   0.562   2.344 -0.9946  1.2629 -0.4204
  875SOL     OW 2623   2.731   0.112   1.229  0.5695  0.4324 -0.2179
  875SOL    HW1 2624   2.796   0.170   1.282  0.1461  0.8454  0.4268
  875SOL    HW2 2625   2.738   0.015   1.258 -1.2728 -2.0532  0.2216
  876SOL     OW 2626   0.915   1.086   0.494  0.3136 -0.1988 -0.0306
  876SOL    HW1 2627   0.874   0.992   0.467  0.5120 -0.0830 -0.7507
  876SOL    HW2 2628   0.989   1.106   0.425  2.7909 -0.3787 -0.8168
  877SOL     OW 2629   1.231   0.884   1.605  0.1421  0.2002 -0.3773
  877SOL    HW1 2630   1.271   0.867   1.512  1.7578 -0.4420 -0.3149
  877SOL    HW2 2631   1.219   0.796   1.655  1.1278  0.8825  0.3669
  878SOL     OW 2632   2.397   2.075   0.443  0.0211  0.3233  0.2683
  878SOL    HW1 2633   2.378   2.061   0.345  1.4607  1.0183  3.8692
  878SOL    HW2 2634   2.468   2.145   0.455 -0.2115  0.6594  0.1705
  879SOL     OW 2635   2.662   1.794   1.587 -0.3012 -0.0401  0.0442
  879SOL    HW1 2636   2.698   1.703   1.566  1.8644 -0.4741 -0.9740
  879SOL    HW2 2637   2.733   1.866   1.576  2.4406  1.2609  0.6175
  880SOL     OW 2638   1.099   2.591   0.914 -0.1697  0.0594 -0.0562
  880SOL    HW1 2639   1.125   2.681   0.870 -1.5540  1.8694 -2.4946
  880SOL    HW2 2640   1.141   2.588   1.005 -1.6489 -0.0435  0.8794
  881SOL     OW 2641   0.646   2.047   0.551  0.2028 -0.1167 -0.0079
  881SOL    HW1 2642   0.635   1.973   0.486  2.0787  0.7640  2.7453
  881SOL    HW2 2643   0.692   2.130   0.508  0.0857  3.0530  0.5668
  882SOL     OW 2644   1.988   0.917   0.463  0.4023  0.1577  0.0260
  882SOL    HW1 2645   2.021   0.946   0.372  0.7135  3.0694 -1.0473
  882SOL    HW2 2646   1.985   0.817   0.470 -2.0131  0.9768 -0.7306
  883SOL     OW 2647   1.438   0.741   0.954  0.2380 -0.2067 -0.5983
  883SOL    HW1 2648   1.406   0.799   1.032  0.4439  0.6606 -1.3347
  883SOL    HW2 2649   1.508   0.786   0.898  1.5737 -1.6285  3.1573
  884SOL     OW 2650   2.755   2.749   0.503  0.5935  0.4542  0.4982
  884SOL    HW1 2651   2.747   2.808   0.421 -0.3056  2.5977  1.4014
  884SOL    HW2 2652   2.769   2.800   0.590  0.8196 -0.5906  0.4297
  885SOL     OW 2653   1.242   1.482   2.225  0.2280 -0.9114 -0.0856
  885SOL    HW1 2654   1.165   1.433   2.179 -0.1244  1.2299 -0.1469
  885SOL    HW2 2655   1.311   1.521   2.162 -1.8031  1.1802  2.9247
  886SOL     OW 2656   1.227   2.032   2.320 -0.2123 -0.6594  0.2194
  886SOL    HW1 2657   1.209   1.998   2.415 -0.2679  0.1463  0.2473
  886SOL    HW2 2658   1.319   2.085   2.323  0.4309  3.9231  0.3882
  887SOL     OW 2659   1.169   0.743   1.047 -0.1170 -0.1283  0.1359
  887SOL    HW1 2660   1.220   0.666   1.008 -0.3623 -2.3064 -0.4658
  887SOL    HW2 2661   1.149   0.819   0.979  0.1835  2.0146 -2.1931
  888SOL     OW 2662   2.376   0.772   2.080  0.0977 -0.4054  0.1439
  888SOL    HW1 2663   2.351   0.676   2.080 -2.0693  4.0794  1.3921
  888SOL    HW2 2664   2.421   0.798   2.170 -0.1375  0.2093  1.3088
  889SOL     OW 2665   0.095   2.172   0.846  0.5419 -0.0704 -0.1173
  889SOL    HW1 2666   0.078   2.137   0.747  2.3111  0.1569 -2.3403
  889SOL    HW2 2667   0.021   2.240   0.877 -3.5558  0.8331  1.5334
  890SOL     OW 2668   1.389   2.184   0.474 -0.4020 -0.0690 -0.4188
  890SOL    HW1 2669   1.464   2.117   0.497  0.8015 -1.7035  0.6943
  890SOL    HW2 2670   1.297   2.137   0.480 -3.3723  0.3563  2.0731
  891SOL     OW 2671   2.706   0.820   3.060  0.2857  0.0167  0.1021
  891SOL    HW1 2672   2.753   0.897   3.107 -2.8296 -1.1798 -0.1558
  891SOL    HW2 2673   2.755   0.790   2.977 -2.5866 -1.2154  3.1005
  892SOL     OW 2674   3.006   2.331   0.927  0.6589 -0.1903 -0.5211
  892SOL    HW1 2675   2.963   2.417   0.888  2.3631  0.2804 -0.9870
  892SOL    HW2 2676   2.960   2.310   1.017  1.0956 -0.2346  1.2061
  893SOL     OW 2677   1.274   0.460   0.962 -0.4565  0.0997 -0.5529
  893SOL    HW1 2678   1.288   0.425   1.057  2.7741 -0.8621 -0.7093
  893SOL    HW2 2679   1.362   0.499   0.928  1.2253  1.3177 -1.9879
  894SOL     OW 2680   2.960   0.489   0.907  0.0369  0.2760 -0.2987
  894SOL    HW1 2681   3.057   0.455   0.894  0.8744 -2.0663 -0.0978
  894SOL    HW2 2682   2.903   0.463   0.827 -1.0686  0.6088 -1.3605
  895SOL     OW 2683   1.968   1.387   2.587 -0.0036 -0.2861  0.8793
  895SOL    HW1 2684   2.051   1.385   2.526  0.4896  2.5269  0.2103
  895SOL    HW2 2685   1.996   1.348   2.675  2.5536  0.5781 -1.3448
  896SOL     OW 2686   1.932   0.592   1.395 -0.5002 -0.5126  0.3499
  896SOL    HW1 2687   2.008   0.653   1.369  0.1455 -0.2376 -2.9309
  896SOL    HW2 2688   1.901   0.543   1.313 -0.0858  3.5165 -0.1547
  897SOL     OW 2689   0.122   1.527   1.466 -0.2983 -0.1485  0.3571
  897SOL    HW1 2690   0.184   1.448   1.483  1.1347  0.4923  0.8675
  897SOL    HW2 2691   0.106   1.534   1.365  0.8432 -0.9896 -3.0473
  898SOL     OW 2692   2.088   2.631   2.158  0.2784  0.2711  0.2101
  898SOL    HW1 2693   2.143   2.639   2.075 -2.0627  0.2840  2.3564
  898SOL    HW2 2694   2.125   2.576   2.239 -3.2821  0.6911  0.0210
  899SOL     OW 2695   1.052   1.638   1.179  0.4163 -0.3550  0.4147
  899SOL    HW1 2696   1.064   1.714   1.246 -2.0154 -1.7449 -0.8339
  899SOL    HW2 2697   0.965   1.645   1.124 -1.0479  0.9451  0.8726
  900SOL     OW 2698   1.460   2.163   2.315  0.1542  0.0046  0.3168
  900SOL    HW1 2699   1.524   2.109   2.257  0.7245 -0.4590  0.4296
  900SOL    HW2 2700   1.459   2.265   2.291  0.1532  2.8627 -4.3354
  901SOL     OW 2701   0.805   1.785   2.223 -0.4678  0.2979 -0.6563
  901SOL    HW1 2702   0.796   1.711   2.155 -4.2455 -2.9343  2.0112
  901SOL    HW2 2703   0.881   1.852   2.198  2.4123 -0.7771 -2.3020
  902SOL     OW 2704   2.139   1.572   0.186 -0.5625 -0.0613  0.4513
  902SOL    HW1 2705   2.140   1.468   0.177  1.9970 -1.6158 -1.4166
  902SOL    HW2 2706   2.116   1.606   0.281 -0.6855  1.4845  0.4677
  903SOL     OW 2707   1.952   1.657   0.004 -0.2448 -0.2904 -0.1802
  903SOL    HW1 2708   2.032   1.626   0.063  1.6943 -2.4188 -0.0750
  903SOL    HW2 2709   1.877   1.677   0.073 -2.0793 -1.6683  0.4874
  904SOL     OW 2710   1.412   1.086   2.469  0.6357 -0.2342 -0.0217
  904SOL    HW1 2711   1.382   0.992   2.447  2.2566  0.7950  2.4772
  904SOL    HW2 2712   1.332   1.131   2.510  0.8652  0.1117  0.4022
  905SOL     OW 2713   2.644   0.252   1.024 -0.1394 -0.0148 -0.4078
  905SOL    HW1 2714   2.672   0.204   1.108  1.1924  0.3164 -1.6463
  905SOL    HW2 2715   2.653   0.354   1.039 -1.2727  1.3750  0.1241
  906SOL     OW 2716   0.024   1.985   0.266  0.2287 -0.6596 -0.7208
  906SOL    HW1 2717   0.064   2.057   0.329  0.9906  1.6527  1.3730
  906SOL    HW2 2718   0.088   1.909   0.282 -2.3634  0.0155 -0.8940
  907SOL     OW 2719   1.395   0.254   0.204  0.3402 -0.3270 -0.0797
  907SOL    HW1 2720   1.352   0.168   0.170 -0.8799 -1.5282 -0.4256
  907SOL    HW2 2721   1.474   0.236   0.266 -1.6718  0.4767 -0.1540
  908SOL     OW 2722   1.619   2.677   1.708 -0.0463 -0.1855  0.2545
  908SOL    HW1 2723   1.670   2.596   1.740 -0.5533  1.0892  1.1929
  908SOL    HW2 2724   1.576   2.740   1.780  0.4005  0.8906 -1.9983
  909SOL     OW 2725   2.625   0.795   1.735 -0.2921  0.0699  0.4459
  909SOL    HW1 2726   2.541   0.735   1.742  2.0088 -0.0508 -0.0816
  909SOL    HW2 2727   2.676   0.793   1.824 -0.4366 -0.9106  0.4984
  910SOL     OW 2728   1.045   0.098   2.488 -0.0931  0.4678 -0.4237
  910SOL    HW1 2729   1.108   0.023   2.452  0.0030 -0.9900 -0.8124
  910SOL    HW2 2730   0.946   0.063   2.478 -2.2104 -0.7545  0.3169
  911SOL     OW 2731   2.638   1.270   2.463  0.6757 -0.1541 -0.0162
  911SOL    HW1 2732   2.631   1.171   2.485  1.8070  0.9482  0.3625
  911SOL    HW2 2733   2.652   1.294   2.366 -0.1440 -1.5975 -1.4842
  912SOL     OW 2734   2.568   2.236   1.457 -0.3040 -0.8156 -0.2386
  912SOL    HW1 2735   2.665   2.253   1.436 -1.6937  0.6196 -1.2694
  912SOL    HW2 2736   2.525   2.176   1.384  0.2357 -1.7558  0.0901
  913SOL     OW 2737   2.838   2.298   1.408  0.6461 -0.2090  0.9881
  913SOL    HW1 2738   2.833   2.309   1.510 -1.5583  0.5312 -1.5207
  913SOL    HW2 2739   2.837   2.394   1.366 -0.2746 -1.9255 -1.2399
  914SOL     OW 2740   2.416   2.135   1.260 -0.3067  0.3747  0.0477
  914SOL    HW1 2741   2.420   2.048   1.315 -1.8426 -2.1014  0.5575
  914SOL    HW2 2742   2.334   2.128   1.198 -1.0181  2.1965 -2.7998
  915SOL     OW 2743   1.254   2.547   1.497 -0.4511  0.3517  0.3570
  915SOL    HW1 2744   1.172   2.501   1.533  0.2915  0.0003  2.0371
  915SOL    HW2 2745   1.328   2.475   1.495 -0.5355 -2.1411 -2.2992
  916SOL     OW 2746   2.738   2.535   0.964 -0.4269 -0.3521 -0.6361
  916SOL    HW1 2747   2.744   2.552   1.067 -1.3293  0.6094  3.2785
  916SOL    HW2 2748   2.658   2.479   0.947  2.3667 -0.2034  0.1445
  917SOL     OW 2749   3.057   0.985   2.853 -0.0579 -0.1485  0.2450
  917SOL    HW1 2750   3.073   0.892   2.812  1.9074 -2.9742  0.0031
  917SOL    HW2 2751   3.015   1.048   2.783  0.3251  0.0163 -2.8248
  918SOL     OW 2752   1.989   1.648   2.552  0.4271  0.0208  0.1532
  918SOL    HW1 2753   1.980   1.544   2.570 -2.7274 -1.6874 -1.3297
  918SOL    HW2 2754   1.956   1.665   2.456  0.1249  0.0452  1.5994
  919SOL     OW 2755   1.425   2.139   1.423  0.0620  0.4523  0.1719
  919SOL    HW1 2756   1.468   2.078   1.491 -1.2667  1.5611 -1.0034
  919SOL    HW2 2757   1.464   2.121   1.327  0.5499 -1.8746 -1.5196
  920SOL     OW 2758   0.509   0.210   3.019 -0.1099  0.8329  0.1030
  920SOL    HW1 2759   0.490   0.128   3.074  0.6256  1.2067 -1.4000
  920SOL    HW2 2760   0.468   0.290   3.070 -1.7226 -2.1665 -1.2488
  921SOL     OW 2761   2.746   2.913   2.698 -0.1971 -0.3104 -0.5659
  921SOL    HW1 2762   2.708   2.875   2.610 -0.1141 -1.0825  3.1548
  921SOL    HW2 2763   2.821   2.976   2.685 -0.5199 -0.2400 -1.3450
  922SOL     OW 2764   2.472   1.911   1.398 -0.3882  0.0590  0.6743
  922SOL    HW1 2765   2.523   1.883   1.481 -2.2583 -2.0387 -0.2021
  922SOL    HW2 2766   2.372   1.892   1.405 -0.4061  1.9068  0.1294
  923SOL     OW 2767   0.939   1.998   3.002  0.0897 -0.1495 -0.5365
  923SOL    HW1 2768   0.880   2.059   3.059 -2.2256  1.4572  0.5341
  923SOL    HW2 2769   1.041   2.019   3.017  3.7505  1.0917 -0.7921
  924SOL     OW 2770   1.624   0.612   2.604  0.4558 -0.2910  0.0478
  924SOL    HW1 2771   1.633   0.589   2.701 -0.2613 -0.9353  1.7435
  924SOL    HW2 2772   1.709   0.577   2.558  0.5446 -0.7893  0.6228
  925SOL     OW 2773   2.937   0.956   0.287  0.0446  0.0032  0.2311
  925SOL    HW1 2774   2.900   0.987   0.194 -1.6754  3.3455 -2.3242
  925SOL    HW2 2775   2.868   0.895   0.333  2.2186 -1.6351  0.6973
  926SOL     OW 2776   0.104   0.365   0.880 -0.7814  0.3491 -0.3656
  926SOL    HW1 2777   0.117   0.276   0.926  3.1760  2.4833 -0.1743
  926SOL    HW2 2778   0.180   0.427   0.903  0.1151 -0.9471  2.9155
  927SOL     OW 2779   1.176   1.619   0.586 -0.0606  0.1013  0.4879
  927SOL    HW1 2780   1.223   1.532   0.553 -1.6987  1.1767 -0.9270
  927SOL    HW2 2781   1.081   1.592   0.614 -1.4326  1.0923 -2.2094
  928SOL     OW 2782   0.050   0.056   2.544 -0.1589  0.1975 -0.5235
  928SOL    HW1 2783   0.123   3.094   2.524 -1.5001 -3.5941 -1.0062
  928SOL    HW2 2784   0.070   0.154   2.526  1.0294 -1.1361 -0.0802
  929SOL     OW 2785   2.294   0.604   1.577  0.4003  0.0957 -0.3404
  929SOL    HW1 2786   2.219   0.677   1.569 -0.0226  1.5045  0.6624
  929SOL    HW2 2787   2.339   0.602   1.669  1.8689 -0.3849  0.6628
  930SOL     OW 2788   1.594   2.151   1.202  0.3093 -0.4867 -0.0712
  930SOL    HW1 2789   1.686   2.166   1.248  1.2016 -1.6290 -1.1851
  930SOL    HW2 2790   1.594   2.093   1.120 -2.4146  1.1929  1.6950
  931SOL     OW 2791   1.656   0.850   0.800  0.6788  0.1368  0.0809
  931SOL    HW1 2792   1.624   0.848   0.703 -0.0747 -3.2125  0.1330
  931SOL    HW2 2793   1.737   0.905   0.816 -0.4307 -1.3597 -0.4744
  932SOL     OW 2794   0.027   1.027   1.300  0.1131  0.0981  0.5135
  932SOL    HW1 2795   3.070   1.032   1.378 -1.8445  0.2996  0.3864
  932SOL    HW2 2796   0.094   0.953   1.320  0.4992 -0.7582  2.1305
  933SOL     OW 2797   2.428   1.754   1.737  0.1387 -0.0195 -0.7693
  933SOL    HW1 2798   2.505   1.756   1.669 -2.8987 -1.4981 -0.3929
  933SOL    HW2 2799   2.395   1.848   1.761 -0.4302  0.6733  0.7077
  934SOL     OW 2800   1.612   3.065   1.244 -0.1841 -0.1497 -0.7984
  934SOL    HW1 2801   1.577   0.055   1.245  3.2216  0.2972  1.1599
  934SOL    HW2 2802   1.666   3.040   1.163  1.0706 -1.6551 -1.4870
  935SOL     OW 2803   0.085   1.280   1.160  0.1873  0.4411  0.3878
  935SOL    HW1 2804   0.075   1.196   1.215  0.1999 -1.0279 -1.5378
  935SOL    HW2 2805   0.084   1.253   1.063 -0.1203  2.8661  0.5841
  936SOL     OW 2806   2.991   0.903   1.119 -0.6453 -0.1773  0.3940
  936SOL    HW1 2807   3.061   0.964   1.172  1.5210  1.8703  2.1622
  936SOL    HW2 2808   3.027   0.892   1.023 -0.7009 -0.1853  2.0268
  937SOL     OW 2809   1.248   2.785   0.786  0.0336 -0.0550  0.0606
  937SOL    HW1 2810   1.277   2.851   0.712 -1.3409 -1.6588 -1.3582
  937SOL    HW2 2811   1.323   2.748   0.841 -1.7230  1.3405 -0.2220
  938SOL     OW 2812   3.041   2.425   0.606 -0.3034 -0.1206 -0.0866
  938SOL    HW1 2813   3.013   2.470   0.691  0.2815 -0.4114  0.4054
  938SOL    HW2 2814   0.023   2.464   0.573 -0.6156 -0.5223 -1.8727
  939SOL     OW 2815   0.713   1.791   2.683  0.3613 -0.3422  0.3313
  939SOL    HW1 2816   0.808   1.835   2.675 -0.0218  2.0333  1.2742
  939SOL    HW2 2817   0.699   1.776   2.782  1.2413  0.6736 -1.1335
  940SOL     OW 2818   2.826   2.567   2.787 -0.2926  0.6551  0.1290
  940SOL    HW1 2819   2.783   2.553   2.695 -1.8868 -3.3762 -3.1951
  940SOL    HW2 2820   2.763   2.625   2.850 -0.0844 -1.0539 -0.0570
  941SOL     OW 2821   1.054   2.839   3.017  0.1955 -0.5877  0.5928
  941SOL    HW1 2822   1.015   2.909   3.081 -1.2956 -0.6308 -2.7084
  941SOL    HW2 2823   1.128   2.783   3.058  0.0895  1.6250  1.1365
  942SOL     OW 2824   1.698   1.751   1.406  0.5675  0.0811  0.3367
  942SOL    HW1 2825   1.688   1.660   1.447  0.1738  0.9028  2.0590
  942SOL    HW2 2826   1.628   1.817   1.446 -0.5304  0.3353  1.4752
  943SOL     OW 2827   2.260   1.374   1.564  0.5606 -0.1120  0.0094
  943SOL    HW1 2828   2.274   1.269   1.558 -0.8988  0.4707 -0.4038
  943SOL    HW2 2829   2.345   1.430   1.581  0.9268  2.1301 -0.0301
  944SOL     OW 2830   1.863   1.066   1.912 -0.0696  0.2117 -0.3388
  944SOL    HW1 2831   1.876   1.066   1.813  1.0521 -0.0363  1.2343
  944SOL    HW2 2832   1.763   1.064   1.939 -0.4075 -1.7026  0.3055
  945SOL     OW 2833   2.721   2.914   1.361  0.1414 -0.0081 -0.1040
  945SOL    HW1 2834   2.667   2.836   1.325 -0.3218  0.1291 -0.0645
  945SOL    HW2 2835   2.823   2.902   1.356  1.4590  1.6806  1.4240
  946SOL     OW 2836   0.933   1.240   1.765  0.1669  0.0438  0.0032
  946SOL    HW1 2837   0.975   1.238   1.671  0.7269 -2.0124 -1.0224
  946SOL    HW2 2838   0.933   1.146   1.805 -1.4164  2.2094 -0.0389
  947SOL     OW 2839   0.419   2.663   0.724  0.0821 -0.1083 -0.0427
  947SOL    HW1 2840   0.465   2.676   0.815  0.5415  0.6732 -0.8115
  947SOL    HW2 2841   0.391   2.567   0.705 -0.9851 -0.7655  0.1182
  948SOL     OW 2842   0.062   1.353   1.832 -0.1064 -0.3130  0.5488
  948SOL    HW1 2843   0.086   1.307   1.923  2.3530 -0.4618 -0.2618
  948SOL    HW2 2844   0.110   1.440   1.816  0.3324 -0.9126  1.3727
  949SOL     OW 2845   0.690   0.640   2.187 -0.6567  0.4226  0.4380
  949SOL    HW1 2846   0.755   0.685   2.254  0.8567  2.0020 -0.3039
  949SOL    HW2 2847   0.622   0.576   2.229 -0.5056  0.8246  0.4783
  950SOL     OW 2848   0.744   0.616   1.001 -0.0107 -0.2991 -0.0226
  950SOL    HW1 2849   0.691   0.684   1.053 -2.8196 -1.3063 -1.1069
  950SOL    HW2 2850   0.764   0.633   0.903  0.6956  0.8160 -0.9637
  951SOL     OW 2851   1.371   1.651   1.955  0.2685  0.0317 -0.5002
  951SOL    HW1 2852   1.371   1.700   2.044 -1.9031 -0.9101 -0.6510
  951SOL    HW2 2853   1.276   1.644   1.922 -0.5684  0.7764 -0.1988
  952SOL     OW 2854   0.968   1.380   3.063 -0.7152  0.6298 -0.1350
  952SOL    HW1 2855   1.022   1.431   0.027 -0.4766 -0.1671 -2.8081
  952SOL    HW2 2856   1.006   1.382   2.970 -1.4388 -1.0328  2.3862
  953SOL     OW 2857   1.124   2.810   2.199 -0.2469 -0.4258 -0.1150
  953SOL    HW1 2858   1.041   2.751   2.217  0.7673  1.0929  1.0571
  953SOL    HW2 2859   1.164   2.785   2.109  0.8907 -0.1253 -0.3960
  954SOL     OW 2860   2.439   1.308   0.486 -0.1976 -0.2341  0.1061
  954SOL    HW1 2861   2.526   1.293   0.537 -2.2398  0.4798 -1.1481
  954SOL    HW2 2862   2.456   1.369   0.405 -2.8659 -0.5382  0.5726
  955SOL     OW 2863   0.186   2.135   2.723 -0.1972 -0.3290 -0.6014
  955SOL    HW1 2864   0.191   2.172   2.629 -0.3458 -0.5253  2.0622
  955SOL    HW2 2865   0.118   2.188   2.776 -2.2452 -0.5697  0.5892
  956SOL     OW 2866   0.947   1.374   1.206 -0.5395  0.6675  0.2093
  956SOL    HW1 2867   0.996   1.452   1.166 -1.1947  1.7880  1.2105
  956SOL    HW2 2868   0.900   1.325   1.129  1.6803  0.8544  1.1330
  957SOL     OW 2869   2.206   1.428   2.465  0.1720 -0.1835  0.1233
  957SOL    HW1 2870   2.174   1.501   2.401  1.3670  0.3010  0.1025
  957SOL    HW2 2871   2.301   1.447   2.474  0.1221  1.9608  0.0265
  958SOL     OW 2872   1.435   2.615   0.992  0.3330  0.4014 -0.1043
  958SOL    HW1 2873   1.509   2.541   1.000  0.4442 -4.8138 -0.5007
  958SOL    HW2 2874   1.355   2.599   1.055 -1.8506  2.2105 -0.8173
  959SOL     OW 2875   1.699   1.657   2.169  0.3717 -0.7696  0.5000
  959SOL    HW1 2876   1.705   1.557   2.201 -0.3645  1.6582 -1.0587
  959SOL    HW2 2877   1.649   1.721   2.234 -0.8198  3.0676  0.1615
  960SOL     OW 2878   0.005   0.728   2.777  0.0227  0.1982  0.4635
  960SOL    HW1 2879   0.105   0.754   2.769  1.7844  1.3454 -0.5663
  960SOL    HW2 2880   0.002   0.646   2.836  0.0832  0.1158 -0.3670
  961SOL     OW 2881   0.582   0.642   1.930 -0.4403 -0.2112  0.4577
  961SOL    HW1 2882   0.623   0.666   2.018 -0.6677 -0.7668 -2.3404
  961SOL    HW2 2883   0.528   0.724   1.906 -3.2626 -0.2297  2.2370
  962SOL     OW 2884   1.410   1.739   0.274  0.0732  0.0445  0.3834
  962SOL    HW1 2885   1.368   1.722   0.181 -2.0079 -0.9722 -2.0051
  962SOL    HW2 2886   1.457   1.654   0.310  0.3405 -2.6961 -1.7462
  963SOL     OW 2887   1.698   2.407   3.043 -0.8793  0.3385  0.4159
  963SOL    HW1 2888   1.757   2.366   2.970  1.0003  1.7170  1.4315
  963SOL    HW2 2889   1.608   2.366   3.041  1.5022  1.5130  1.8756
  964SOL     OW 2890   1.064   2.572   0.508  0.7485 -0.0484  0.7875
  964SOL    HW1 2891   1.109   2.629   0.436 -0.9643 -0.5798 -0.7117
  964SOL    HW2 2892   0.963   2.598   0.529 -1.5104  0.4083 -0.3978
  965SOL     OW 2893   0.844   2.705   0.625 -0.3375  0.1244  0.3162
  965SOL    HW1 2894   0.755   2.730   0.590  1.3432  0.5660  3.1623
  965SOL    HW2 2895   0.837   2.649   0.709  0.5916  1.9983  0.2648
  966SOL     OW 2896   0.071   1.319   3.057 -0.2267  0.2013  0.2198
  966SOL    HW1 2897   0.108   1.287   2.969  0.0227  0.0020 -1.7733
  966SOL    HW2 2898   3.078   1.321   3.051  3.3815 -0.8176 -1.4597
  967SOL     OW 2899   1.247   2.756   1.942 -0.0510  0.0383 -0.0802
  967SOL    HW1 2900   1.260   2.655   1.969  0.1093 -0.8147  1.4831
  967SOL    HW2 2901   1.227   2.761   1.842 -1.8159 -0.4627  0.3825
  968SOL     OW 2902   1.564   0.802   0.552 -0.1892  0.3681 -0.1533
  968SOL    HW1 2903   1.608   0.765   0.466 -0.5601  0.0013 -4.0931
  968SOL    HW2 2904   1.468   0.832   0.543  2.0101 -1.3162  3.0922
  969SOL     OW 2905   0.155   1.727   2.119 -0.2978 -0.3415  0.4509
  969SOL    HW1 2906   0.201   1.755   2.037  1.2443 -0.8955  1.1084
  969SOL    HW2 2907   0.135   1.808   2.183 -1.3366  1.5344  1.9071
  970SOL     OW 2908   2.739   1.558   1.471  0.5864 -0.2405 -0.6084
  970SOL    HW1 2909   2.712   1.560   1.373 -0.2951  0.4502 -0.5073
  970SOL    HW2 2910   2.836   1.565   1.492 -2.3532  1.3915 -2.5164
  971SOL     OW 2911   1.365   0.277   1.514  0.2907 -0.1208  0.5736
  971SOL    HW1 2912   1.432   0.258   1.439  3.0186 -0.1234 -0.1168
  971SOL    HW2 2913   1.408   0.265   1.608  3.5461  0.5160  2.5213
  972SOL     OW 2914   0.540   0.042   2.537 -0.2443  0.2504  0.0305
  972SOL    HW1 2915   0.510   3.062   2.500 -0.3517  0.0912 -1.0694
  972SOL    HW2 2916   0.504   0.056   2.629  0.2148 -1.0285  0.6804
  973SOL     OW 2917   2.716   1.227   0.341 -0.0684  0.4300  0.3967
  973SOL    HW1 2918   2.660   1.143   0.334  0.2437 -2.3156 -0.8597
  973SOL    HW2 2919   2.699   1.263   0.436 -2.7926 -1.2709  1.0175
  974SOL     OW 2920   2.013   1.254   2.010  0.0052  0.0778 -0.1804
  974SOL    HW1 2921   1.955   1.173   1.981 -0.7168 -1.9718 -0.6862
  974SOL    HW2 2922   2.003   1.337   1.951  2.6999  4.1956 -0.6080
  975SOL     OW 2923   2.798   2.911   0.712 -0.3646  0.1646  0.4917
  975SOL    HW1 2924   2.889   2.890   0.758  2.4210 -2.3639  2.4619
  975SOL    HW2 2925   2.767   2.999   0.747 -1.1159 -0.6262 -0.6520
  976SOL     OW 2926   0.169   1.824   1.837 -0.2884 -0.0320  0.4405
  976SOL    HW1 2927   0.172   1.893   1.761 -2.2603 -1.4546  0.9406
  976SOL    HW2 2928   0.077   1.782   1.851  3.0543  0.6452  0.0912
  977SOL     OW 2929   0.886   2.448   0.017  0.1304  0.0488 -0.0104
  977SOL    HW1 2930   0.856   2.350   0.018 -0.4116  0.5706  2.1426
  977SOL    HW2 2931   0.971   2.458   0.073 -0.6614 -1.6031  2.3538
  978SOL     OW 2932   0.936   1.959   2.733 -0.6287  0.4644  0.0402
  978SOL    HW1 2933   0.964   1.987   2.827  3.3316  2.1493  2.2737
  978SOL    HW2 2934   0.927   2.043   2.675 -1.9937  1.3169  2.6384
  979SOL     OW 2935   1.230   2.210   1.050  0.0495  0.6361 -0.2180
  979SOL    HW1 2936   1.321   2.166   1.046  0.0601 -1.2837  1.2531
  979SOL    HW2 2937   1.182   2.213   0.960  0.6706 -0.8207 -1.0086
  980SOL     OW 2938   0.513   1.464   2.649  0.0051 -0.0807 -0.3108
  980SOL    HW1 2939   0.448   1.544   2.642 -0.9851  0.2466  2.1430
  980SOL    HW2 2940   0.567   1.471   2.736 -0.4069  0.5851 -0.7972
  981SOL     OW 2941   2.626   0.423   2.749  0.1149  0.2208 -0.3304
  981SOL    HW1 2942   2.677   0.357   2.695 -2.9956 -0.4690  2.1555
  981SOL    HW2 2943   2.658   0.424   2.847 -1.7072  2.0213 -2.9350
  982SOL     OW 2944   3.065   2.684   2.787 -0.1246 -0.4319 -0.1456
  982SOL    HW1 2945   0.020   2.657   2.709  1.7006 -2.5111  0.0559
  982SOL    HW2 2946   2.968   2.647   2.783 -0.3119 -1.8015 -0.0872
  983SOL     OW 2947   2.223   0.904   1.888 -0.2202  0.2304  0.5178
  983SOL    HW1 2948   2.237   1.005   1.894 -1.1816 -0.8813  0.8924
  983SOL    HW2 2949   2.292   0.859   1.949  0.3114  1.7087  0.2689
  984SOL     OW 2950   1.027   0.251   2.264 -0.1152 -0.1555  0.6200
  984SOL    HW1 2951   1.112   0.289   2.231 -2.3411 -1.0839  0.8127
  984SOL    HW2 2952   1.040   0.196   2.346  0.6458  0.7361 -0.6699
  985SOL     OW 2953   1.653   2.023   2.148 -0.4866 -0.3033 -0.3276
  985SOL    HW1 2954   1.641   1.969   2.062  0.9775 -0.4086  0.1872
  985SOL    HW2 2955   1.729   2.092   2.137 -0.2683 -2.8046 -0.0939
  986SOL     OW 2956   1.893   0.480   2.210  0.6752 -0.0701  0.0864
  986SOL    HW1 2957   1.971   0.541   2.233 -1.3812  0.8942 -1.1066
  986SOL    HW2 2958   1.860   0.493   2.117 -0.9107 -3.2517 -0.3292
  987SOL     OW 2959   2.320   0.601   2.336  0.1702  0.2144 -0.7816
  987SOL    HW1 2960   2.230   0.635   2.316  0.4334 -1.1378  2.0349
  987SOL    HW2 2961   2.327   0.503   2.310  0.1987 -2.0793 -0.0671
  988SOL     OW 2962   2.371   0.449   2.708  0.2215 -0.2194 -0.5620
  988SOL    HW1 2963   2.471   0.432   2.717 -0.8115  1.1129  1.2587
  988SOL    HW2 2964   2.344   0.529   2.762  1.3843 -0.8261 -1.3355
  989SOL     OW 2965   2.441   2.439   2.716 -0.7645  0.1757 -0.1826
  989SOL    HW1 2966   2.444   2.342   2.730 -0.7582  2.6157  2.1801
  989SOL    HW2 2967   2.524   2.474   2.664  1.8693 -0.5785 -1.5816
  990SOL     OW 2968   0.241   0.595   0.212  0.2424  0.1357  0.0217
  990SOL    HW1 2969   0.231   0.648   0.299  0.9509 -2.3560  0.8382
  990SOL    HW2 2970   0.170   0.630   0.145 -2.2961  0.0663 -0.4263
  991SOL     OW 2971   0.520   0.565   3.034  0.3277 -0.1514 -0.2533
  991SOL    HW1 2972   0.445   0.522   3.094 -1.6431  0.9529  2.4409
  991SOL    HW2 2973   0.611   0.513   3.046  0.1820 -1.2054 -0.8923
  992SOL     OW 2974   3.014   2.094   2.169  0.2582  0.2120  0.6057
  992SOL    HW1 2975   2.981   2.111   2.260 -0.6543 -0.8311  0.7232
  992SOL    HW2 2976   0.002   2.053   2.174 -0.3789 -1.5122  1.2669
  993SOL     OW 2977   0.562   3.019   0.697  0.3489 -0.4274 -1.1266
  993SOL    HW1 2978   0.485   3.049   0.637  0.9149 -0.2371  0.4771
  993SOL    HW2 2979   0.632   3.086   0.692  0.7933 -0.9251  2.2702
  994SOL     OW 2980   0.289   2.241   1.784  0.4892 -0.2037 -0.3283
  994SOL    HW1 2981   0.351   2.231   1.865 -1.2476  0.4563  0.3035
  994SOL    HW2 2982   0.345   2.289   1.710 -0.2823  0.6286 -1.8290
  995SOL     OW 2983   2.354   1.678   0.026  0.0528 -0.0028  0.0294
  995SOL    HW1 2984   2.289   1.627   0.087  0.4593  1.3293  0.5488
  995SOL    HW2 2985   2.346   1.649   3.039 -0.4936 -0.5653  1.0480
  996SOL     OW 2986   1.633   1.505   2.568  0.1019  0.3671  0.0421
  996SOL    HW1 2987   1.549   1.466   2.522  0.5434  0.1868 -1.1450
  996SOL    HW2 2988   1.706   1.513   2.500 -1.1009 -0.4914  0.6643
  997SOL     OW 2989   1.877   1.474   1.872 -0.0228  0.2187 -0.0218
  997SOL    HW1 2990   1.874   1.570   1.904  1.2701 -2.3561 -1.1228
  997SOL    HW2 2991   1.791   1.421   1.882  0.8730  1.8744 -0.0742
  998SOL     OW 2992   2.503   1.632   0.265  0.3389 -0.8230  1.2676
  998SOL    HW1 2993   2.473   1.675   0.353 -0.2710 -1.4250  1.4011
  998SOL    HW2 2994   2.470   1.688   0.185  0.6973  2.5851  1.0536
  999SOL     OW 2995   2.474   2.738   0.452 -0.0754 -0.0530 -0.3820
  999SOL    HW1 2996   2.574   2.737   0.472 -2.0950 -1.7499  1.7629
  999SOL    HW2 2997   2.465   2.720   0.354 -1.8867  0.9449 -0.7059
 1000SOL     OW 2998   0.591   2.817   2.345  0.0974 -0.2570  0.4987
 1000SOL    HW1 2999   0.518   2.746   2.332 -0.1209  2.4314  2.2244
 1000SOL    HW2 3000   0.650   2.826   2.263 -0.1816  2.8401 -0.0134
   3.10808   3.10808   3.10808
