1000 SPC/Fw water molecules t= 402.00000 step= 402000
 3000
    1SOL     OW    1   0.124   3.000   1.609  0.3751 -0.6837 -0.2114
    1SOL    HW1    2   0.155   3.029   1.702 -1.3976 -1.0248  0.1185
    1SOL    HW2    3   0.173   3.052   1.537 -1.2999 -0.9386 -0.5975
    2SOL     OW    4   2.388   2.554   0.320 -0.3831 -0.2187  0.2741
    2SOL    HW1    5   2.411   2.498   0.238  1.7855  3.1413 -0.3167
    2SOL    HW2    6   2.402   2.656   0.294 -3.3107  2.2564 -2.3061
    3SOL     OW    7   1.445   2.781   0.106 -0.1050 -0.1599  0.2386
    3SOL    HW1    8   1.478   2.856   0.166 -1.0207 -0.2215 -2.5585
    3SOL    HW2    9   1.345   2.789   0.107 -2.5474 -0.0287  1.6298
    4SOL     OW   10   1.123   0.039   2.383 -0.2652  0.1941 -0.1734
    4SOL    HW1   11   1.184   3.028   2.387  0.4109 -1.0684  1.0207
    4SOL    HW2   12   1.114   0.059   2.283 -0.4017  1.0090  0.2174
    5SOL     OW   13   2.237   2.943   1.586 -0.6468 -0.0877  0.0311
    5SOL    HW1   14   2.221   2.902   1.676 -1.2384  0.0861 -0.3820
    5SOL    HW2   15   2.336   2.936   1.557 -0.1019  0.8589 -2.3752
    6SOL     OW   16   2.430   1.919   0.618 -0.7234  0.2818  0.1769
    6SOL    HW1   17   2.366   1.946   0.691 -3.1641 -0.8168 -0.3282
    6SOL    HW2   18   2.458   1.823   0.630 -0.8151 -2.5936  2.6984
    7SOL     OW   19   2.243   1.219   0.767  0.3924  0.7608  0.3550
    7SOL    HW1   20   2.330   1.174   0.732 -1.1913 -0.0914 -3.8854
    7SOL    HW2   21   2.221   1.303   0.719 -3.1336  0.6044  0.6993
    8SOL     OW   22   0.420   1.449   0.928 -0.5078 -0.3313 -0.1126
    8SOL    HW1   23   0.488   1.452   1.004 -0.3387  0.7862  0.8264
    8SOL    HW2   24   0.439   1.379   0.858 -1.0090  0.0646 -0.6344
    9SOL     OW   25   0.216   2.715   1.635 -0.2985  0.3258  0.1223
    9SOL    HW1   26   0.152   2.781   1.679 -0.9999  0.1616  1.3201
    9SOL    HW2   27   0.194   2.719   1.532  0.3751  1.2440 -3.2747
   10SOL     OW   28   1.125   2.428   0.350 -0.0664 -0.0069 -0.4801
   10SOL    HW1   29   1.135   2.336   0.391 -0.8662  2.5029  1.2034
   10SOL    HW2   30   1.144   2.491   0.425  1.2108  2.8693  1.2342
   11SOL     OW   31   1.524   1.936   0.943  0.2450  0.0564  0.7546
   11SOL    HW1   32   1.616   1.938   0.891  0.0397 -4.1149 -0.2642
   11SOL    HW2   33   1.541   1.957   1.044 -0.2753  0.3346  2.4372
   12SOL     OW   34   2.693   0.467   2.153 -0.2613 -0.3850 -0.8529
   12SOL    HW1   35   2.735   0.552   2.194 -1.9394  1.2455  1.0081
   12SOL    HW2   36   2.634   0.418   2.221  0.4386  1.6762  0.4482
   13SOL     OW   37   2.729   2.870   0.207 -0.3549 -0.1147 -0.0750
   13SOL    HW1   38   2.758   2.775   0.234 -0.8330 -1.2045  0.4441
   13SOL    HW2   39   2.636   2.873   0.165  1.2408 -1.7408  0.1844
   14SOL     OW   40   1.858   1.392   3.026 -0.0370  0.3398 -0.4904
   14SOL    HW1   41   1.793   1.324   2.977  0.8653 -2.8952 -1.6618
   14SOL    HW2   42   1.822   1.417   0.046  0.2772  0.2786  0.7407
   15SOL     OW   43   2.839   2.530   1.783 -0.0853 -0.0342 -0.2457
   15SOL    HW1   44   2.813   2.437   1.817 -1.8145  0.1719 -0.7775
   15SOL    HW2   45   2.938   2.535   1.747  3.4967 -1.8298 -0.5998
   16SOL     OW   46   2.688   2.993   0.700 -0.1913 -0.5092  0.1337
   16SOL    HW1   47   2.701   3.034   0.794  1.6146 -0.4218  2.9623
   16SOL    HW2   48   2.610   2.928   0.699  0.9017  1.0559 -0.9915
   17SOL     OW   49   1.088   0.176   0.884 -0.0084 -0.1200 -0.3165
   17SOL    HW1   50   1.001   0.150   0.834  0.1689 -1.5333  0.5787
   17SOL    HW2   51   1.060   0.200   0.979 -0.1353  0.8585 -0.8156
   18SOL     OW   52   1.555   3.057   1.004  0.1480  0.4727  0.1103
   18SOL    HW1   53   1.638   0.001   0.945 -0.2260 -1.7651  0.9955
   18SOL    HW2   54   1.515   0.065   1.045  1.1605 -0.7774 -0.0503
   19SOL     OW   55   2.373   1.341   0.410  1.0533  0.3137 -0.0704
   19SOL    HW1   56   2.367   1.355   0.308 -1.6211 -0.2948 -0.1507
   19SOL    HW2   57   2.464   1.353   0.443  0.5796  1.0159 -0.2828
   20SOL     OW   58   2.209   1.483   2.359  0.1812  0.1546 -0.0671
   20SOL    HW1   59   2.232   1.497   2.462  0.5112  1.5648  0.1853
   20SOL    HW2   60   2.186   1.572   2.311 -0.2660  1.0905  1.0853
   21SOL     OW   61   1.528   2.963   0.279  0.2586 -0.5817 -0.2532
   21SOL    HW1   62   1.625   2.987   0.302 -1.3621 -2.0139  1.2317
   21SOL    HW2   63   1.474   2.979   0.364 -1.1614  2.8098  2.9821
   22SOL     OW   64   2.870   0.854   0.992  0.2542  0.1911 -0.0251
   22SOL    HW1   65   2.864   0.882   1.089 -0.3518 -1.7143 -0.7179
   22SOL    HW2   66   2.777   0.840   0.950  0.0257  0.6113 -0.7469
   23SOL     OW   67   0.773   2.945   1.883 -0.0537  0.6338 -0.1409
   23SOL    HW1   68   0.767   3.013   1.807  1.7923  2.6159 -0.1936
   23SOL    HW2   69   0.698   2.878   1.872 -0.6107  0.2995  0.4217
   24SOL     OW   70   2.255   2.564   0.694  0.5358  0.0196  0.1306
   24SOL    HW1   71   2.322   2.531   0.623  2.6103  0.5773  1.0299
   24SOL    HW2   72   2.216   2.488   0.748  1.3930  0.0229  0.7287
   25SOL     OW   73   1.894   0.047   2.808 -0.1704  0.5338  0.1567
   25SOL    HW1   74   1.998   0.062   2.822  0.3895  0.3549  0.4170
   25SOL    HW2   75   1.835   0.119   2.853  1.3474 -1.0501  0.4596
   26SOL     OW   76   1.416   2.342   2.957  0.1957 -0.7067  0.0376
   26SOL    HW1   77   1.463   2.335   3.050 -0.5815 -0.1135  2.6681
   26SOL    HW2   78   1.311   2.332   2.962 -1.6001 -1.7813 -0.6993
   27SOL     OW   79   1.458   0.557   1.104  0.0620 -0.3382  0.0565
   27SOL    HW1   80   1.383   0.488   1.109  0.7418 -0.9826  0.4062
   27SOL    HW2   81   1.427   0.642   1.056 -1.1035  1.0942  3.5500
   28SOL     OW   82   0.796   1.392   0.491  0.3773  0.4372 -0.1185
   28SOL    HW1   83   0.701   1.365   0.501  1.1500 -1.2803 -1.1038
   28SOL    HW2   84   0.846   1.376   0.581 -1.5373 -0.8603  0.7447
   29SOL     OW   85   2.681   0.378   1.557 -0.5451 -0.1586 -0.1226
   29SOL    HW1   86   2.650   0.326   1.641 -2.3759 -0.8949  3.7150
   29SOL    HW2   87   2.647   0.479   1.558 -0.6747  4.8344 -0.6997
   30SOL     OW   88   1.156   2.605   1.280 -0.2195 -0.4952  0.1260
   30SOL    HW1   89   1.173   2.599   1.378 -1.7569  0.6731 -2.5425
   30SOL    HW2   90   1.214   2.541   1.229 -0.0281  0.9113  0.8347
   31SOL     OW   91   1.804   2.930   1.462  0.3364 -0.2059 -0.3030
   31SOL    HW1   92   1.806   3.010   1.529 -0.2633 -0.2668 -1.1864
   31SOL    HW2   93   1.892   2.888   1.438  0.3511 -0.2248 -0.4275
   32SOL     OW   94   1.695   1.649   2.520  0.9892  0.0241 -0.0211
   32SOL    HW1   95   1.612   1.697   2.482 -2.1396 -1.5574 -1.8193
   32SOL    HW2   96   1.669   1.578   2.590  2.2226 -1.8866  0.9883
   33SOL     OW   97   2.326   0.806   2.376 -0.1200  0.1549 -0.2849
   33SOL    HW1   98   2.242   0.748   2.397  0.3347  1.6511  2.0568
   33SOL    HW2   99   2.351   0.777   2.281 -0.6521 -0.8872 -1.0465
   34SOL     OW  100   1.746   0.404   0.607 -0.6081 -0.2768 -0.4355
   34SOL    HW1  101   1.752   0.369   0.706  0.1715  0.0239  2.5993
   34SOL    HW2  102   1.692   0.494   0.606 -0.9562  0.7782 -0.6648
   35SOL     OW  103   3.056   2.207   2.122  0.2437 -0.4854 -0.2897
   35SOL    HW1  104   2.960   2.172   2.115 -0.4036  2.0485 -0.2341
   35SOL    HW2  105   0.029   2.178   2.213  0.0083  1.9704  0.8927
   36SOL     OW  106   2.493   1.706   3.023 -0.0540  0.2409 -0.1836
   36SOL    HW1  107   2.492   1.627   2.956  0.6544 -1.1761  2.8589
   36SOL    HW2  108   2.537   1.785   2.986  0.0643 -2.0381 -0.9782
   37SOL     OW  109   1.879   0.238   1.564  0.1956 -0.4536 -0.3289
   37SOL    HW1  110   1.882   0.323   1.620 -1.4676 -0.9929  0.3896
   37SOL    HW2  111   1.971   0.204   1.537 -0.1383 -0.2029 -0.7573
   38SOL     OW  112   0.243   0.566   2.480 -0.2502  0.0477  0.5795
   38SOL    HW1  113   0.293   0.602   2.398  2.0229 -1.1186 -1.1677
   38SOL    HW2  114   0.291   0.596   2.563  1.1714 -2.7094 -0.7840
   39SOL     OW  115   1.948   1.327   1.357  0.0925 -0.6332 -0.3039
   39SOL    HW1  116   1.906   1.233   1.366 -0.9136  1.0202  1.1916
   39SOL    HW2  117   1.990   1.331   1.260  3.7599  2.1354  0.9545
   40SOL     OW  118   0.853   1.894   0.841 -0.5003  0.5271 -0.4798
   40SOL    HW1  119   0.792   1.905   0.918  0.8999 -1.3401 -2.0188
   40SOL    HW2  120   0.932   1.833   0.855 -1.7433 -0.7579 -0.9252
   41SOL     OW  121   1.907   2.234   0.940 -0.2189 -0.1247 -0.8709
   41SOL    HW1  122   1.829   2.168   0.930  0.0030 -0.7843  1.3458
   41SOL    HW2  123   1.973   2.195   1.010 -1.4627  0.2430  2.1755
   42SOL     OW  124   2.702   0.684   1.236  0.4010 -0.1975  0.5647
   42SOL    HW1  125   2.772   0.620   1.206  0.3460  1.0489  1.0683
   42SOL    HW2  126   2.738   0.779   1.228  1.0871  0.9845  1.6358
   43SOL     OW  127   0.746   1.457   2.560  0.3165  0.0526  0.0118
   43SOL    HW1  128   0.775   1.374   2.514  1.3445  2.6723  2.0966
   43SOL    HW2  129   0.645   1.461   2.564 -0.0060  0.1580 -0.8588
   44SOL     OW  130   1.516   2.496   1.400 -0.4044  0.3435 -0.1604
   44SOL    HW1  131   1.594   2.552   1.437 -2.9798  0.3238 -1.2762
   44SOL    HW2  132   1.453   2.546   1.337  0.4113 -0.4801  0.8131
   45SOL     OW  133   0.990   2.939   2.551 -0.0416 -0.2390  0.6932
   45SOL    HW1  134   1.031   3.000   2.483 -0.2836 -1.9601 -1.6561
   45SOL    HW2  135   0.981   2.844   2.514  0.3037  0.0295 -1.0504
   46SOL     OW  136   0.957   2.486   2.255 -0.0264  0.1620  0.7205
   46SOL    HW1  137   1.052   2.456   2.240  0.9317  1.8042  5.0605
   46SOL    HW2  138   0.912   2.507   2.164 -0.4146 -2.9616 -1.9839
   47SOL     OW  139   0.916   2.122   1.082 -0.0357 -0.0441  0.3106
   47SOL    HW1  140   0.849   2.200   1.060  1.0165 -0.2034  0.5636
   47SOL    HW2  141   0.870   2.033   1.109  0.8821  1.3755  2.0881
   48SOL     OW  142   0.766   2.259   1.339  0.0493 -0.1100  0.1775
   48SOL    HW1  143   0.740   2.260   1.244 -0.5349 -0.3969  1.1369
   48SOL    HW2  144   0.755   2.169   1.381 -0.9768  1.9971 -0.8505
   49SOL     OW  145   2.422   0.053   3.061  0.1571 -0.0889 -0.5264
   49SOL    HW1  146   2.412   0.143   0.037 -1.8285 -2.1370 -0.4376
   49SOL    HW2  147   2.439   0.067   2.961 -4.2018  0.4905  0.3599
   50SOL     OW  148   1.582   0.798   0.326  0.4093 -0.2022  0.3085
   50SOL    HW1  149   1.624   0.779   0.236  0.0567  0.1363  1.2808
   50SOL    HW2  150   1.631   0.882   0.363  1.6990  0.8369 -2.1278
   51SOL     OW  151   2.105   0.749   0.854 -0.3857 -0.5898 -0.2195
   51SOL    HW1  152   2.073   0.776   0.944 -2.6038  1.3647 -2.2685
   51SOL    HW2  153   2.139   0.653   0.852 -0.0578 -0.4783 -2.3391
   52SOL     OW  154   0.594   1.512   0.192  0.0305 -0.3505 -0.6112
   52SOL    HW1  155   0.633   1.478   0.107  2.0607  2.8198  1.5614
   52SOL    HW2  156   0.529   1.433   0.221  0.7234 -1.8766  0.3277
   53SOL     OW  157   0.316   1.123   2.866  0.3111 -0.0502 -0.4425
   53SOL    HW1  158   0.239   1.065   2.820 -0.4609 -4.0880 -1.0633
   53SOL    HW2  159   0.360   1.070   2.943 -0.4880  0.4543  3.4265
   54SOL     OW  160   1.974   1.397   2.206  0.4608  0.2304  0.1784
   54SOL    HW1  161   2.045   1.456   2.243 -2.1083  3.7947 -1.5430
   54SOL    HW2  162   1.929   1.451   2.131 -1.2599  1.0768 -3.9873
   55SOL     OW  163   2.578   2.282   0.895 -0.1446  0.0957  0.1428
   55SOL    HW1  164   2.555   2.381   0.893  1.9090  0.2375 -0.2773
   55SOL    HW2  165   2.495   2.226   0.920 -2.9180 -3.6373 -3.2149
   56SOL     OW  166   1.897   2.874   1.175  0.1148  0.2554 -0.1624
   56SOL    HW1  167   1.951   2.850   1.259  0.4030 -0.8725  0.5841
   56SOL    HW2  168   1.801   2.843   1.189  1.6549 -2.6137  0.8947
   57SOL     OW  169   1.604   1.438   0.431 -0.4275  0.6280  0.1748
   57SOL    HW1  170   1.639   1.402   0.522  2.2493 -2.9958  1.6383
   57SOL    HW2  171   1.601   1.540   0.433  0.1748  0.3582 -0.7797
   58SOL     OW  172   2.330   0.240   1.486  0.7803 -0.4120 -0.8737
   58SOL    HW1  173   2.243   0.183   1.493 -3.0308 -2.0704  1.0420
   58SOL    HW2  174   2.396   0.212   1.415  0.3137  2.4714 -0.1516
   59SOL     OW  175   1.205   2.601   2.685  0.1775  0.1954 -0.1240
   59SOL    HW1  176   1.297   2.620   2.643 -1.5750 -0.8542  0.2487
   59SOL    HW2  177   1.174   2.665   2.757  1.3280 -0.8768 -0.5565
   60SOL     OW  178   0.110   2.580   2.720  0.6611  0.1941  0.0758
   60SOL    HW1  179   0.106   2.580   2.820 -0.9797  0.7605 -1.7468
   60SOL    HW2  180   0.027   2.613   2.673  0.4798  3.1023 -2.2603
   61SOL     OW  181   0.714   2.281   1.040  0.5207  0.0714 -0.3006
   61SOL    HW1  182   0.739   2.380   1.032 -0.7093 -0.4341 -0.4897
   61SOL    HW2  183   0.617   2.268   1.016 -0.7883  1.6891  0.8318
   62SOL     OW  184   1.432   1.824   2.040 -0.4693  0.1282 -0.3975
   62SOL    HW1  185   1.496   1.899   2.069 -4.0740 -1.7274 -1.1625
   62SOL    HW2  186   1.473   1.766   1.962  1.1176  1.1531  1.4652
   63SOL     OW  187   1.969   1.626   0.353  0.2349  0.6006 -0.1984
   63SOL    HW1  188   2.069   1.638   0.372 -0.6742  1.9028  0.8359
   63SOL    HW2  189   1.921   1.707   0.312 -0.2145 -2.0813  1.3011
   64SOL     OW  190   1.725   1.143   0.207 -0.1875 -0.0280 -0.2057
   64SOL    HW1  191   1.720   1.098   0.297 -3.3718  0.1088 -2.4810
   64SOL    HW2  192   1.674   1.086   0.141  0.8179  1.3456  2.8369
   65SOL     OW  193   1.865   2.271   2.244 -0.9838 -0.1554  0.3947
   65SOL    HW1  194   1.786   2.256   2.307  1.7405  0.6008 -0.8054
   65SOL    HW2  195   1.836   2.290   2.145 -2.8297  0.6353 -1.0515
   66SOL     OW  196   0.254   1.084   1.504 -0.7706  0.0533  0.0696
   66SOL    HW1  197   0.289   1.007   1.444 -0.9179 -0.1760 -1.3190
   66SOL    HW2  198   0.328   1.150   1.523  2.0493  0.5057 -0.9276
   67SOL     OW  199   2.142   2.801   0.297 -0.4337  0.0683 -0.1449
   67SOL    HW1  200   2.234   2.808   0.344  2.3048 -1.4141  0.8858
   67SOL    HW2  201   2.135   2.858   0.212 -1.0756  1.8082 -1.0136
   68SOL     OW  202   1.857   2.447   1.170 -0.1184  0.2165 -0.1837
   68SOL    HW1  203   1.941   2.443   1.115 -1.4080  1.1520 -0.8322
   68SOL    HW2  204   1.799   2.520   1.132  1.0488 -1.2108  1.0037
   69SOL     OW  205   2.592   1.963   2.957 -0.4715  0.3806  0.3124
   69SOL    HW1  206   2.639   2.016   2.884 -1.8540 -1.2396 -1.1934
   69SOL    HW2  207   2.665   1.940   3.021 -2.5741  0.1506 -3.0207
   70SOL     OW  208   0.203   0.972   2.173  0.1671 -0.0697  0.0107
   70SOL    HW1  209   0.229   1.068   2.146  1.7414 -0.7783 -1.0141
   70SOL    HW2  210   0.110   0.971   2.214 -0.3260  1.1107 -0.2731
   71SOL     OW  211   0.889   0.978   2.398  0.1898  0.5135 -0.1944
   71SOL    HW1  212   0.806   0.983   2.332  1.5115  1.9013 -3.9672
   71SOL    HW2  213   0.904   0.879   2.422  2.3762 -0.1173  2.2248
   72SOL     OW  214   2.573   1.432   1.932 -0.2151  0.0813  0.5063
   72SOL    HW1  215   2.501   1.467   1.870 -0.1863 -1.4750 -0.1831
   72SOL    HW2  216   2.600   1.338   1.905 -1.0022 -1.3928 -1.0732
   73SOL     OW  217   1.123   2.001   2.866 -0.3552  0.5191 -0.2076
   73SOL    HW1  218   1.044   2.036   2.911  0.9404 -0.4413 -0.8228
   73SOL    HW2  219   1.200   2.006   2.929  0.4913  1.1445 -1.2442
   74SOL     OW  220   2.127   2.954   2.411 -0.5440 -0.2162  0.5119
   74SOL    HW1  221   2.036   2.968   2.461 -2.0117 -0.3279  0.8133
   74SOL    HW2  222   2.193   3.034   2.412  1.6264  0.7985 -1.7179
   75SOL     OW  223   1.604   2.409   0.689 -0.4191 -0.3664  0.0412
   75SOL    HW1  224   1.537   2.446   0.758 -3.2255  0.0665  1.3002
   75SOL    HW2  225   1.699   2.408   0.728  1.4327  1.4972  3.6025
   76SOL     OW  226   2.665   1.650   2.749  0.1466 -0.5411  0.4824
   76SOL    HW1  227   2.629   1.560   2.791 -0.6442  0.1380 -0.7901
   76SOL    HW2  228   2.764   1.644   2.725 -0.5633 -1.9982  0.3723
   77SOL     OW  229   0.005   2.500   1.454 -0.1233 -0.4357 -0.5780
   77SOL    HW1  230   2.978   2.508   1.440  0.9546  0.5312  1.6803
   77SOL    HW2  231   0.022   2.486   1.554  0.4625  1.7728 -0.2204
   78SOL     OW  232   2.495   0.997   0.257  0.2357 -0.5198 -0.8440
   78SOL    HW1  233   2.544   1.017   0.168 -0.7462 -0.8358 -0.2667
   78SOL    HW2  234   2.395   1.005   0.241  0.6640 -1.7648 -0.2588
   79SOL     OW  235   0.269   1.653   2.594  0.1087  0.2639 -0.1487
   79SOL    HW1  236   0.362   1.616   2.569 -0.6218  0.9347 -1.0440
   79SOL    HW2  237   0.194   1.587   2.619 -0.2622 -0.8618 -0.0576
   80SOL     OW  238   1.578   1.364   1.970 -0.5932 -0.2479  0.2095
   80SOL    HW1  239   1.501   1.396   1.916 -0.3338  0.7108  0.4994
   80SOL    HW2  240   1.538   1.299   2.037 -1.9637  1.0398  0.6883
   81SOL     OW  241   2.175   1.046   2.109 -0.3698 -0.1862  0.1193
   81SOL    HW1  242   2.080   1.086   2.096 -1.8209  0.0166 -1.8915
   81SOL    HW2  243   2.226   1.107   2.170 -0.0417  1.4220  0.4314
   82SOL     OW  244   1.455   1.497   1.712 -0.8692 -0.5622 -0.1487
   82SOL    HW1  245   1.384   1.545   1.659  1.9197 -2.5032 -0.6631
   82SOL    HW2  246   1.470   1.402   1.679  0.9407  2.6305 -0.5728
   83SOL     OW  247   3.052   0.298   3.013  0.2065 -0.1503 -0.1561
   83SOL    HW1  248   0.012   0.280   0.035  0.4776  0.2196  0.1945
   83SOL    HW2  249   2.961   0.350   3.005 -1.0878  2.8612  0.5684
   84SOL     OW  250   0.044   0.704   0.165 -0.4305 -0.6049 -0.4025
   84SOL    HW1  251   3.016   0.717   0.167  0.8181 -0.9717 -0.0096
   84SOL    HW2  252   0.093   0.789   0.185 -0.2076  0.1566 -0.4371
   85SOL     OW  253   2.063   2.060   1.899 -0.7764 -0.1728 -0.9603
   85SOL    HW1  254   2.140   2.031   1.961  0.3490  0.1814  0.5172
   85SOL    HW2  255   2.015   2.144   1.934 -0.0869  0.3548  1.7213
   86SOL     OW  256   0.317   0.381   1.137  0.1041 -0.5855  0.1236
   86SOL    HW1  257   0.353   0.349   1.050 -2.1023 -2.3761  3.0016
   86SOL    HW2  258   0.387   0.385   1.212  0.5121  0.8059 -1.2535
   87SOL     OW  259   2.919   2.014   1.920 -0.3340 -0.0483  0.0682
   87SOL    HW1  260   3.019   1.993   1.917  1.4264  0.3043 -1.5583
   87SOL    HW2  261   2.879   2.021   2.014 -0.9753  2.2700 -1.7910
   88SOL     OW  262   0.341   2.075   0.055 -0.0210  0.0023  0.1401
   88SOL    HW1  263   0.404   2.043   0.127 -0.8919 -1.2047  0.7104
   88SOL    HW2  264   0.338   2.010   3.052  0.5573 -1.9638  0.8483
   89SOL     OW  265   1.303   0.751   0.286  0.0938  0.2365  0.1914
   89SOL    HW1  266   1.231   0.814   0.245  2.2119 -2.4519 -1.6913
   89SOL    HW2  267   1.388   0.798   0.302 -1.9463  0.3384 -0.5304
   90SOL     OW  268   0.025   1.427   2.347  0.0240  0.1402 -0.4848
   90SOL    HW1  269   3.006   1.454   2.318  0.8834 -1.3324  2.4644
   90SOL    HW2  270   0.096   1.504   2.351 -1.6003  1.4256 -1.7624
   91SOL     OW  271   1.996   0.051   1.179  0.5156 -0.5321  0.1673
   91SOL    HW1  272   1.956   3.044   1.133  0.2425 -0.6506 -0.4730
   91SOL    HW2  273   1.977   0.139   1.131 -0.3413 -1.8060 -0.1728
   92SOL     OW  274   2.299   1.605   1.451  0.1917 -0.1175 -0.1448
   92SOL    HW1  275   2.313   1.515   1.409  0.5067 -1.8742  0.5895
   92SOL    HW2  276   2.323   1.595   1.548  0.1706  1.9222  0.3749
   93SOL     OW  277   0.022   1.124   0.176 -0.2379 -0.5007  0.1560
   93SOL    HW1  278   0.030   1.060   0.254  4.0875 -1.1316  0.2133
   93SOL    HW2  279   0.112   1.166   0.151 -1.7877  4.0597 -0.4604
   94SOL     OW  280   1.400   2.283   1.972 -0.2526 -0.2312 -0.0720
   94SOL    HW1  281   1.405   2.237   2.065  0.2898 -1.0963  0.0065
   94SOL    HW2  282   1.463   2.364   1.978  1.1770  0.6748  2.2435
   95SOL     OW  283   0.247   0.640   1.094  0.0698  0.5122 -0.0693
   95SOL    HW1  284   0.264   0.546   1.138  2.3151 -0.0866 -0.1506
   95SOL    HW2  285   0.235   0.633   0.994 -0.1666 -0.5108  0.9908
   96SOL     OW  286   2.934   2.994   1.575 -0.0498 -0.3537 -0.4783
   96SOL    HW1  287   3.037   2.990   1.582 -0.4609 -0.9026  0.6943
   96SOL    HW2  288   2.900   2.949   1.490 -0.2759 -3.3379 -0.8954
   97SOL     OW  289   2.555   0.607   1.595  0.2154 -0.0887  0.0949
   97SOL    HW1  290   2.612   0.689   1.591  1.7059  0.8230  0.3276
   97SOL    HW2  291   2.512   0.602   1.689  0.7296  1.5250 -1.4402
   98SOL     OW  292   2.323   2.469   1.254  0.0754 -0.3887  0.5206
   98SOL    HW1  293   2.248   2.443   1.189 -0.0320 -0.3726 -0.8839
   98SOL    HW2  294   2.358   2.563   1.242 -0.2023  2.6550  0.3986
   99SOL     OW  295   0.513   0.158   1.810 -0.3536  0.3743  0.2477
   99SOL    HW1  296   0.421   0.177   1.767 -0.3967  0.3350 -1.2947
   99SOL    HW2  297   0.583   0.209   1.759 -0.9327 -1.6138  1.5645
  100SOL     OW  298   2.174   0.126   2.171  0.0907 -0.0484 -0.3932
  100SOL    HW1  299   2.175   0.063   2.092 -0.6806 -1.0866  1.0336
  100SOL    HW2  300   2.080   0.163   2.187 -0.5014 -0.7029  0.4297
  101SOL     OW  301   0.088   3.003   2.321  0.3024 -0.5631  0.1136
  101SOL    HW1  302   0.136   2.924   2.274  0.1816  1.1993  1.9643
  101SOL    HW2  303   0.140   0.008   2.359 -3.4488 -0.1905  1.4287
  102SOL     OW  304   0.706   0.371   1.735  0.0456 -0.5963 -0.1401
  102SOL    HW1  305   0.798   0.408   1.719 -2.7534  0.6805 -2.0237
  102SOL    HW2  306   0.658   0.433   1.804 -0.3481 -0.5232  1.9834
  103SOL     OW  307   1.010   0.724   2.767 -0.0215 -0.0448  0.0897
  103SOL    HW1  308   1.020   0.660   2.847  0.3152  1.5785  2.3795
  103SOL    HW2  309   1.006   0.821   2.802  1.1298 -1.5103  0.5215
  104SOL     OW  310   0.068   0.572   2.135  0.6804 -0.1119  0.0328
  104SOL    HW1  311   0.150   0.627   2.130 -2.7667 -1.6534 -1.7560
  104SOL    HW2  312   3.059   0.633   2.134  2.6545 -2.7110 -0.0181
  105SOL     OW  313   2.355   2.106   1.214  0.0110 -0.0845 -0.5016
  105SOL    HW1  314   2.287   2.130   1.283 -0.1112  0.3983  0.1978
  105SOL    HW2  315   2.398   2.013   1.236  2.5275  0.6863  2.8877
  106SOL     OW  316   1.827   0.175   0.498  0.0898 -0.3876  0.8315
  106SOL    HW1  317   1.897   0.110   0.536  0.6952  0.1928  1.6291
  106SOL    HW2  318   1.822   0.264   0.543 -2.1561 -4.3249  1.1403
  107SOL     OW  319   2.013   2.109   0.669  0.2172  0.1565  0.3735
  107SOL    HW1  320   1.991   2.155   0.580  0.9097  0.9779 -0.2070
  107SOL    HW2  321   1.936   2.119   0.735  2.7892 -1.0588  3.4891
  108SOL     OW  322   0.167   2.425   1.158 -0.2418 -0.1626  0.4250
  108SOL    HW1  323   0.066   2.415   1.146 -0.8222 -0.9028 -0.7108
  108SOL    HW2  324   0.190   2.458   1.250 -0.0058  1.1419  0.1359
  109SOL     OW  325   1.871   2.405   0.747  0.2200  0.8144 -0.3320
  109SOL    HW1  326   1.904   2.369   0.658 -1.2413  1.5081  0.2891
  109SOL    HW2  327   1.894   2.340   0.823 -0.3431 -0.0050  0.5096
  110SOL     OW  328   1.740   1.465   1.442 -0.3351 -0.7974  0.3742
  110SOL    HW1  329   1.824   1.401   1.444 -0.0179  0.9644 -1.7925
  110SOL    HW2  330   1.656   1.411   1.436  1.7108  0.0909 -1.3027
  111SOL     OW  331   1.766   2.296   2.002  0.2907  0.9586  0.0554
  111SOL    HW1  332   1.803   2.308   1.907 -1.4723  0.7679  2.6995
  111SOL    HW2  333   1.678   2.351   2.012  0.6999  2.6195 -0.1830
  112SOL     OW  334   1.810   2.049   2.793  0.0598  0.1901 -0.5766
  112SOL    HW1  335   1.726   2.101   2.828 -3.0364 -0.2257  0.7264
  112SOL    HW2  336   1.892   2.100   2.822  0.6936  3.7470  1.4334
  113SOL     OW  337   1.861   1.953   1.772 -0.1547  0.0807  0.6999
  113SOL    HW1  338   1.934   1.999   1.827 -2.6144  2.1440 -1.9750
  113SOL    HW2  339   1.837   1.863   1.814 -1.3677 -1.6584  0.8246
  114SOL     OW  340   3.004   1.519   1.574  0.0159 -0.1236  0.4169
  114SOL    HW1  341   3.049   1.472   1.651 -0.9880  0.5188  0.7342
  114SOL    HW2  342   3.070   1.538   1.498 -0.1774  1.0553  2.7613
  115SOL     OW  343   0.097   0.940   0.375 -0.1817  0.0454 -0.3011
  115SOL    HW1  344   0.030   0.875   0.410 -1.5525  0.2785  0.3642
  115SOL    HW2  345   0.115   1.004   0.451  0.0804 -2.3190 -0.0620
  116SOL     OW  346   2.694   1.080   2.721 -0.0205  0.9254 -0.1083
  116SOL    HW1  347   2.632   1.137   2.658 -1.7917  1.3000 -0.7250
  116SOL    HW2  348   2.641   1.002   2.764 -1.0269  0.0447 -2.4917
  117SOL     OW  349   2.831   2.471   0.114  0.2286 -0.0751  0.3103
  117SOL    HW1  350   2.771   2.391   0.102 -0.9290 -0.2097 -1.3806
  117SOL    HW2  351   2.847   2.510   0.019 -0.6323 -2.5945  1.9411
  118SOL     OW  352   0.690   2.209   2.839 -0.0966 -0.2286 -1.0738
  118SOL    HW1  353   0.722   2.218   2.742  2.7655  0.4559 -1.0184
  118SOL    HW2  354   0.597   2.255   2.844 -1.5525  0.6428  0.0403
  119SOL     OW  355   0.566   2.365   0.746 -0.1745  0.2469  0.1470
  119SOL    HW1  356   0.656   2.327   0.715  0.4038  1.1156  0.0370
  119SOL    HW2  357   0.535   2.331   0.840 -2.6004 -0.3129  2.8595
  120SOL     OW  358   1.383   0.516   0.412 -0.2759  0.0331  0.0510
  120SOL    HW1  359   1.353   0.591   0.352 -0.4329 -0.1134 -0.5221
  120SOL    HW2  360   1.313   0.441   0.415  3.1769 -2.3628  1.0961
  121SOL     OW  361   1.413   2.515   0.881  0.1205 -0.3809  0.3955
  121SOL    HW1  362   1.374   2.606   0.905 -0.0219 -0.6827 -4.7226
  121SOL    HW2  363   1.335   2.451   0.874  1.1361 -2.5971 -1.4001
  122SOL     OW  364   2.412   1.768   2.264  0.7281 -0.2502  0.6488
  122SOL    HW1  365   2.488   1.717   2.210  1.1092 -0.5965  0.2183
  122SOL    HW2  366   2.321   1.739   2.225  1.6479 -3.1761  0.4535
  123SOL     OW  367   0.816   1.545   0.913 -0.8537 -0.2372 -0.3060
  123SOL    HW1  368   0.900   1.584   0.940 -2.7321 -2.0735  2.4574
  123SOL    HW2  369   0.742   1.613   0.926  0.2976  0.0703  2.9970
  124SOL     OW  370   0.118   0.459   2.839  0.1473 -0.4684  0.0898
  124SOL    HW1  371   0.101   0.383   2.905 -2.6587 -3.3207  0.8962
  124SOL    HW2  372   0.107   0.427   2.742 -0.1186  2.3189  1.3740
  125SOL     OW  373   0.432   0.422   0.073 -0.6974 -0.3613  0.0478
  125SOL    HW1  374   0.359   0.481   0.036  0.0328  1.1009  0.7728
  125SOL    HW2  375   0.417   0.328   0.036 -0.0553 -0.6956 -1.3091
  126SOL     OW  376   0.125   1.675   0.602 -0.0790 -0.3146  0.1319
  126SOL    HW1  377   0.166   1.628   0.519  2.1384 -0.9406 -2.0414
  126SOL    HW2  378   0.031   1.702   0.574  0.2415 -0.6382 -0.7313
  127SOL     OW  379   0.939   2.357   1.691  0.2695 -0.5061 -0.1613
  127SOL    HW1  380   0.855   2.412   1.705 -0.5427  0.9632 -0.6457
  127SOL    HW2  381   0.974   2.370   1.595 -1.2358  1.5824 -4.9476
  128SOL     OW  382   1.296   1.570   0.160  0.8908  0.3604  0.0142
  128SOL    HW1  383   1.205   1.571   0.118  0.0169 -0.0595  1.8766
  128SOL    HW2  384   1.368   1.551   0.090  0.9792 -1.8423 -1.9249
  129SOL     OW  385   1.822   2.095   1.544 -0.0065  0.1028 -0.2891
  129SOL    HW1  386   1.751   2.053   1.490 -0.2067 -2.5080  1.3438
  129SOL    HW2  387   1.848   2.028   1.619 -0.2670 -2.0542  1.6207
  130SOL     OW  388   1.836   2.330   1.703 -0.6131  0.2448 -1.0905
  130SOL    HW1  389   1.852   2.252   1.634  1.3204 -1.5299  1.4509
  130SOL    HW2  390   1.744   2.372   1.686  0.0439  0.4975 -0.0216
  131SOL     OW  391   2.846   2.272   2.430 -0.0184  0.5547  0.3352
  131SOL    HW1  392   2.891   2.183   2.438  0.3847 -2.1333  0.9482
  131SOL    HW2  393   2.913   2.346   2.407  0.0351  1.0896 -0.4746
  132SOL     OW  394   2.987   1.908   0.796 -0.3559  0.0746  0.0903
  132SOL    HW1  395   2.951   1.825   0.842  0.7739  3.5233  1.5108
  132SOL    HW2  396   2.997   1.989   0.858  0.1206  0.8350 -2.4635
  133SOL     OW  397   0.906   0.517   1.931 -0.0808  0.3050 -0.2259
  133SOL    HW1  398   0.929   0.496   1.836 -1.8823  2.4143 -2.1026
  133SOL    HW2  399   0.994   0.558   1.972  1.3871  1.3274  1.2691
  134SOL     OW  400   2.708   1.604   0.103  0.0123  0.5977  0.0450
  134SOL    HW1  401   2.736   1.678   0.167 -0.2957  0.5689  1.7622
  134SOL    HW2  402   2.631   1.633   0.043 -0.9784 -0.7165 -0.9430
  135SOL     OW  403   1.731   0.973   2.468  0.4392  0.2462 -0.1230
  135SOL    HW1  404   1.788   1.029   2.527  0.3261 -0.8933 -1.3437
  135SOL    HW2  405   1.639   0.963   2.511 -0.1906  0.9993  0.3476
  136SOL     OW  406   2.683   1.791   0.952  0.5548  0.1861 -0.1205
  136SOL    HW1  407   2.736   1.777   0.863  0.7337 -1.2451  1.4115
  136SOL    HW2  408   2.702   1.875   1.002 -0.2099 -1.2240 -1.5666
  137SOL     OW  409   2.841   1.651   0.745  0.2553 -0.0216 -0.0911
  137SOL    HW1  410   2.911   1.644   0.818 -0.8038 -0.0662  1.0234
  137SOL    HW2  411   2.887   1.684   0.660 -0.6897 -1.1698 -1.0553
  138SOL     OW  412   2.720   0.527   0.824  0.2491  0.4251 -0.1685
  138SOL    HW1  413   2.815   0.511   0.854 -0.2470  0.8731  0.7151
  138SOL    HW2  414   2.682   0.618   0.854 -0.8127 -1.5013 -3.5599
  139SOL     OW  415   3.049   2.793   2.925  0.3328  0.2652  0.1114
  139SOL    HW1  416   0.025   2.816   2.838 -1.3148 -0.6118 -1.9134
  139SOL    HW2  417   0.002   2.855   2.999 -2.8265 -1.3039 -0.7340
  140SOL     OW  418   0.736   1.448   1.580  0.2584  0.3967  0.0752
  140SOL    HW1  419   0.777   1.363   1.535  0.7679 -0.5991 -2.5400
  140SOL    HW2  420   0.730   1.446   1.684  0.5437 -1.5109 -3.1440
  141SOL     OW  421   1.079   1.709   0.894 -0.5222 -0.0850  0.3139
  141SOL    HW1  422   1.093   1.678   0.986  1.1227  1.8646 -0.2904
  141SOL    HW2  423   1.170   1.735   0.854  0.3172 -0.7602 -0.7166
  142SOL     OW  424   0.820   0.713   0.898 -0.1775 -0.0423 -0.4240
  142SOL    HW1  425   0.861   0.624   0.908  1.0067  0.9229 -0.1503
  142SOL    HW2  426   0.858   0.759   0.816 -1.7886 -1.5268 -2.1183
  143SOL     OW  427   0.617   1.267   2.336 -0.6052  0.2824 -0.6539
  143SOL    HW1  428   0.681   1.332   2.291  0.7975  0.0236  0.3332
  143SOL    HW2  429   0.521   1.291   2.306  0.8386 -0.7099 -1.0750
  144SOL     OW  430   2.335   3.049   0.818  0.2762 -0.1194 -0.3847
  144SOL    HW1  431   2.398   0.047   0.784  1.4955 -2.0506  1.0428
  144SOL    HW2  432   2.348   3.015   0.916 -1.4798  0.1715 -0.4479
  145SOL     OW  433   2.205   0.280   2.669 -0.5109 -0.1138  0.9311
  145SOL    HW1  434   2.163   0.199   2.705  0.9270  0.9450 -0.9077
  145SOL    HW2  435   2.282   0.316   2.728  1.7638  0.2972  0.6710
  146SOL     OW  436   3.030   2.805   0.450 -0.2199 -0.3480  0.0045
  146SOL    HW1  437   0.011   2.884   0.416  0.4788  2.2457 -1.0225
  146SOL    HW2  438   3.022   2.809   0.549  2.4117  1.6856  0.4819
  147SOL     OW  439   0.990   1.129   2.593  0.1375 -0.3229  0.1203
  147SOL    HW1  440   0.957   1.069   2.519  2.1391 -2.6418  2.1242
  147SOL    HW2  441   1.063   1.193   2.561 -2.7591  2.6494  2.6759
  148SOL     OW  442   1.603   0.212   2.736  0.0170 -0.1841  0.7339
  148SOL    HW1  443   1.610   0.152   2.815  1.2672  1.7589  3.4032
  148SOL    HW2  444   1.606   0.154   2.654  1.3115 -1.7940  0.4756
  149SOL     OW  445   1.581   0.150   1.829  0.4451 -0.2022 -0.4939
  149SOL    HW1  446   1.543   0.126   1.922 -2.4093  0.9512 -0.7686
  149SOL    HW2  447   1.589   0.251   1.831 -0.8680  3.8207 -0.5224
  150SOL     OW  448   2.331   2.688   3.067  0.3047  0.3038 -0.3578
  150SOL    HW1  449   2.376   2.620   3.005  0.5718 -0.5577  0.2253
  150SOL    HW2  450   2.243   2.649   0.030 -0.4818 -0.3374  0.2019
  151SOL     OW  451   0.650   1.475   3.023 -0.1128 -0.2660 -0.1946
  151SOL    HW1  452   0.560   1.444   2.985  1.4175  0.8991 -2.4606
  151SOL    HW2  453   0.729   1.427   2.984 -2.5603 -0.4638 -1.8179
  152SOL     OW  454   0.446   2.918   1.561  0.2171  0.4034 -0.5814
  152SOL    HW1  455   0.411   3.008   1.526 -0.4310  1.0231  2.7273
  152SOL    HW2  456   0.413   2.893   1.655  0.4445  0.0699 -1.6361
  153SOL     OW  457   2.484   2.843   1.804 -0.2104  0.3197  0.1676
  153SOL    HW1  458   2.573   2.819   1.850  0.2556  2.2205 -3.0151
  153SOL    HW2  459   2.431   2.913   1.849  1.7727  0.6010 -0.4607
  154SOL     OW  460   2.541   3.054   2.582 -0.1291  0.5561 -0.1676
  154SOL    HW1  461   2.468   0.011   2.515 -3.2045  0.7011  2.3969
  154SOL    HW2  462   2.620   2.998   2.543  3.7423  0.3746 -0.4711
  155SOL     OW  463   2.925   1.075   0.521 -0.3259  0.2267  0.0886
  155SOL    HW1  464   3.015   1.102   0.568  1.5062 -1.6429 -2.0860
  155SOL    HW2  465   2.851   1.140   0.553 -2.2639  0.5864  0.9736
  156SOL     OW  466   0.163   1.593   0.347  0.0749 -0.2900  0.5942
  156SOL    HW1  467   0.225   1.671   0.316 -1.6792  1.0001 -1.1802
  156SOL    HW2  468   0.088   1.577   0.279 -1.2263 -1.1889 -0.3759
  157SOL     OW  469   0.931   0.397   0.574  0.2631  0.0982 -0.0598
  157SOL    HW1  470   0.951   0.490   0.543 -1.9119  2.3327 -0.9648
  157SOL    HW2  471   1.002   0.326   0.539 -0.2095 -0.4849 -2.4139
  158SOL     OW  472   1.692   1.191   0.912 -0.5543 -0.0093  0.0699
  158SOL    HW1  473   1.723   1.103   0.952  0.0155  1.6562 -1.2134
  158SOL    HW2  474   1.720   1.270   0.968  0.4263 -1.2212  2.4899
  159SOL     OW  475   0.136   0.292   0.169 -0.8535 -0.1214  0.2960
  159SOL    HW1  476   0.173   0.360   0.239  1.7068  2.7444  1.0264
  159SOL    HW2  477   0.216   0.242   0.130  1.7349 -0.4113 -2.3773
  160SOL     OW  478   2.049   2.342   1.871 -0.4975 -0.4949  0.2462
  160SOL    HW1  479   2.039   2.418   1.937 -1.3273  0.4180  0.1771
  160SOL    HW2  480   1.969   2.326   1.813 -0.1361 -0.0926  0.2241
  161SOL     OW  481   0.274   0.825   2.934 -0.1518  1.0601 -0.2601
  161SOL    HW1  482   0.251   0.738   2.986 -0.2951  1.2672  0.0084
  161SOL    HW2  483   0.191   0.869   2.890 -2.4589 -0.2943 -1.1818
  162SOL     OW  484   0.796   0.081   1.699 -0.8551 -0.5075  0.0671
  162SOL    HW1  485   0.901   0.084   1.672  0.7228 -0.6538 -1.3654
  162SOL    HW2  486   0.779   0.178   1.731  1.5879  4.2065  0.1230
  163SOL     OW  487   2.704   2.875   2.399 -0.0489  0.5655  0.8423
  163SOL    HW1  488   2.700   2.856   2.299  0.3220 -0.7330 -1.9971
  163SOL    HW2  489   2.651   2.802   2.448 -3.2222  1.1844  0.2291
  164SOL     OW  490   2.196   1.870   0.461 -0.1976  0.1480 -0.0399
  164SOL    HW1  491   2.229   1.778   0.425  0.6313  0.8134 -2.0377
  164SOL    HW2  492   2.269   1.933   0.488  1.5016 -0.8527 -2.2510
  165SOL     OW  493   0.311   0.058   1.439 -0.2615 -0.0577 -0.3505
  165SOL    HW1  494   0.302   0.158   1.425  0.4214  1.9728 -0.1840
  165SOL    HW2  495   0.304   0.004   1.352 -1.4954 -0.5774  0.0664
  166SOL     OW  496   2.060   0.796   0.580  0.1592  0.1796  0.0499
  166SOL    HW1  497   2.021   0.885   0.554  0.6785 -0.0216 -0.2898
  166SOL    HW2  498   2.064   0.781   0.683 -2.5961  0.8262 -3.6764
  167SOL     OW  499   2.151   0.964   0.121  0.0185 -0.0256 -0.6763
  167SOL    HW1  500   2.113   0.993   0.208  2.6478 -1.9374 -1.4706
  167SOL    HW2  501   2.089   0.893   0.073 -2.9476  0.6961 -0.2283
  168SOL     OW  502   1.753   0.097   2.484  0.2407  0.1144  0.2542
  168SOL    HW1  503   1.797   0.009   2.516  2.4775 -0.8576 -0.1362
  168SOL    HW2  504   1.812   0.181   2.495  0.7162  0.8790  2.2987
  169SOL     OW  505   0.569   1.694   0.889  0.9603 -0.5883  0.1156
  169SOL    HW1  506   0.536   1.770   0.830  1.2602  1.3858  1.2114
  169SOL    HW2  507   0.501   1.619   0.898 -0.8317  2.1257  0.4518
  170SOL     OW  508   3.035   0.989   1.305 -0.3810  0.1929 -0.2593
  170SOL    HW1  509   0.029   1.023   1.236 -1.7589 -1.2961  2.5286
  170SOL    HW2  510   3.063   1.015   1.401  1.5622 -0.2436 -0.8469
  171SOL     OW  511   2.810   1.494   2.300  0.0658 -0.5305  0.9364
  171SOL    HW1  512   2.788   1.572   2.362 -1.1007 -0.0185 -0.3116
  171SOL    HW2  513   2.822   1.533   2.206  0.4310 -0.2457 -0.1676
  172SOL     OW  514   0.753   1.708   1.480 -0.1921 -0.0625 -0.0591
  172SOL    HW1  515   0.702   1.748   1.557  1.2510  0.8243  0.9756
  172SOL    HW2  516   0.763   1.610   1.500  2.4401 -1.4475  0.9406
  173SOL     OW  517   2.029   1.609   0.029 -0.1541 -0.2013 -0.0559
  173SOL    HW1  518   1.950   1.537   0.015 -1.6130 -1.6385 -0.1060
  173SOL    HW2  519   1.991   1.701   0.045  0.5110 -0.7791  0.3817
  174SOL     OW  520   1.625   0.602   2.780  0.4007 -0.0522  0.5713
  174SOL    HW1  521   1.710   0.557   2.747 -1.1130 -1.0724 -1.2242
  174SOL    HW2  522   1.617   0.590   2.881 -1.0516  0.5918  0.6978
  175SOL     OW  523   1.060   1.627   1.151  0.3768 -0.3466 -0.2755
  175SOL    HW1  524   1.053   1.720   1.191  1.3896  0.1051 -0.0736
  175SOL    HW2  525   1.061   1.557   1.223  0.9563 -1.2087 -0.9625
  176SOL     OW  526   1.319   0.151   0.261  0.0474 -0.0285  0.0975
  176SOL    HW1  527   1.281   0.066   0.305 -3.3191 -2.5098 -0.0089
  176SOL    HW2  528   1.413   0.135   0.231 -0.3443 -0.2677  2.8230
  177SOL     OW  529   0.349   1.023   0.525 -0.1429  0.0130 -0.3140
  177SOL    HW1  530   0.362   1.122   0.530  0.4308  0.4366  0.4197
  177SOL    HW2  531   0.367   0.987   0.431  2.5213  0.9651  0.5504
  178SOL     OW  532   0.012   2.208   2.614  0.6203 -0.3621  0.5248
  178SOL    HW1  533   3.020   2.251   2.682  3.4479 -0.8370 -0.7102
  178SOL    HW2  534   0.089   2.275   2.596  4.5274  0.4625 -1.3334
  179SOL     OW  535   2.584   2.653   2.517  0.4598 -0.2903 -0.0196
  179SOL    HW1  536   2.486   2.681   2.519  2.7820 -1.6872 -1.1569
  179SOL    HW2  537   2.597   2.552   2.501 -0.4323 -0.2062  0.7399
  180SOL     OW  538   2.092   0.830   1.098 -0.2242  0.3383 -0.0885
  180SOL    HW1  539   2.011   0.776   1.127  1.6304  1.3288  0.5153
  180SOL    HW2  540   2.146   0.858   1.179 -2.2512 -0.5074 -1.4266
  181SOL     OW  541   2.172   0.432   2.431 -0.1964  0.8320 -0.4199
  181SOL    HW1  542   2.214   0.376   2.508  0.8227 -0.0883 -1.1853
  181SOL    HW2  543   2.232   0.403   2.349  0.5759 -0.5954 -2.0043
  182SOL     OW  544   2.678   2.293   2.171 -0.3825  0.3389 -0.2201
  182SOL    HW1  545   2.723   2.382   2.152  0.3135 -0.3550 -0.1447
  182SOL    HW2  546   2.687   2.273   2.273  1.8639  1.1150  2.8126
  183SOL     OW  547   2.032   0.870   1.764 -0.4388  0.0674 -0.4361
  183SOL    HW1  548   2.130   0.876   1.778 -2.4806 -0.3274  1.3634
  183SOL    HW2  549   2.013   0.831   1.671 -1.0029  0.6344 -0.8364
  184SOL     OW  550   0.211   1.684   1.032  0.0987 -0.4568  0.1116
  184SOL    HW1  551   0.199   1.585   1.014 -1.7917 -0.2429 -0.7928
  184SOL    HW2  552   0.193   1.735   0.944  0.7124 -2.2278 -2.7395
  185SOL     OW  553   2.974   0.157   0.730 -0.5310 -0.3875  0.5862
  185SOL    HW1  554   2.878   0.193   0.735 -5.7580 -0.1524 -0.4174
  185SOL    HW2  555   3.028   0.211   0.668  1.4703  0.5587 -1.0118
  186SOL     OW  556   2.165   2.497   2.534 -0.0970 -0.6296 -0.1840
  186SOL    HW1  557   2.061   2.509   2.532 -2.4563 -0.3675 -3.6052
  186SOL    HW2  558   2.213   2.584   2.507  0.9050  2.6393  1.3881
  187SOL     OW  559   0.517   1.382   0.551  0.1153  0.0190  0.6786
  187SOL    HW1  560   0.504   1.313   0.626 -0.9055 -2.0912 -2.7964
  187SOL    HW2  561   0.555   1.469   0.587  1.2169 -0.2949 -0.5303
  188SOL     OW  562   2.269   1.248   1.026  0.5731  0.0519  0.1539
  188SOL    HW1  563   2.302   1.164   1.071 -0.1822 -1.1942 -0.1001
  188SOL    HW2  564   2.256   1.231   0.923 -2.8281  0.4778 -2.2708
  189SOL     OW  565   3.048   1.240   2.709  0.2280 -0.1389  0.1688
  189SOL    HW1  566   0.015   1.153   2.742 -0.7133  3.3084 -0.3596
  189SOL    HW2  567   2.995   1.226   2.624 -0.3545 -1.2274 -1.4213
  190SOL     OW  568   2.343   0.360   2.242 -0.5743  0.1152 -0.1326
  190SOL    HW1  569   2.300   0.291   2.179 -0.9431 -1.2137 -0.9086
  190SOL    HW2  570   2.435   0.327   2.275  0.7704  0.7016 -3.0183
  191SOL     OW  571   1.192   0.267   1.995  0.3948  0.3293 -0.0349
  191SOL    HW1  572   1.181   0.308   1.904  2.1867  0.1791 -1.8480
  191SOL    HW2  573   1.118   0.201   2.028 -1.5539 -1.5269  1.3113
  192SOL     OW  574   1.047   1.580   1.619  0.6821 -0.1698  0.7347
  192SOL    HW1  575   1.132   1.632   1.593  3.5493  2.2570 -0.2399
  192SOL    HW2  576   0.987   1.622   1.687  2.8411 -0.5520 -1.0630
  193SOL     OW  577   1.223   2.932   0.694 -0.2454 -0.0293  0.1723
  193SOL    HW1  578   1.190   2.937   0.792  1.7763  0.5930  1.2865
  193SOL    HW2  579   1.242   2.837   0.666  0.0733 -2.1336 -1.5909
  194SOL     OW  580   0.565   1.858   2.048  0.7240 -0.6230 -0.2399
  194SOL    HW1  581   0.512   1.935   2.006  1.9436 -0.5314  1.3215
  194SOL    HW2  582   0.656   1.877   2.016 -0.6708  0.3938 -1.7599
  195SOL     OW  583   1.646   0.624   0.842  0.3007  0.2610  0.0669
  195SOL    HW1  584   1.612   0.653   0.748 -0.3178 -0.5250 -2.3894
  195SOL    HW2  585   1.615   0.700   0.903 -0.7059 -0.6937 -0.5474
  196SOL     OW  586   1.166   1.538   1.993  0.4752  0.0349  0.1725
  196SOL    HW1  587   1.213   1.465   1.936  3.8277  0.8451 -0.9633
  196SOL    HW2  588   1.165   1.626   1.933 -1.2619  1.4000 -3.1464
  197SOL     OW  589   0.220   0.408   1.898  0.0138 -0.5054  0.1796
  197SOL    HW1  590   0.176   0.453   1.978  0.3089  0.6020  0.4015
  197SOL    HW2  591   0.280   0.478   1.850  3.9493  1.4145  0.0938
  198SOL     OW  592   0.476   0.807   0.982 -0.2763  0.2588  0.4524
  198SOL    HW1  593   0.382   0.772   0.979 -1.3290 -1.6184  1.2056
  198SOL    HW2  594   0.515   0.835   0.890  0.7064  0.6049 -0.2329
  199SOL     OW  595   0.169   2.693   1.350  0.1040  0.0601 -0.1602
  199SOL    HW1  596   0.262   2.655   1.319  0.1155 -2.3314  0.2868
  199SOL    HW2  597   0.106   2.617   1.380  0.4610 -2.2752  0.5411
  200SOL     OW  598   1.492   1.501   2.701  0.2470 -1.0198 -0.2195
  200SOL    HW1  599   1.438   1.559   2.633  1.0533 -0.3810  0.4313
  200SOL    HW2  600   1.447   1.410   2.708 -1.9545 -0.2188  1.6286
  201SOL     OW  601   0.512   2.323   1.739 -0.7249  0.1434  0.1098
  201SOL    HW1  602   0.582   2.379   1.689  0.4982 -0.9358  1.3101
  201SOL    HW2  603   0.466   2.264   1.671 -0.2001  0.4431  3.3111
  202SOL     OW  604   1.344   2.990   2.892  0.2301  0.4392 -0.1429
  202SOL    HW1  605   1.252   2.988   2.846  0.2112  3.6715  0.7044
  202SOL    HW2  606   1.360   0.012   2.908 -0.9369 -1.6050 -1.2690
  203SOL     OW  607   1.653   0.603   2.260  0.3046 -0.1930  0.1918
  203SOL    HW1  608   1.672   0.509   2.224  0.8490 -1.0305  0.5955
  203SOL    HW2  609   1.625   0.599   2.359  0.7998  0.6208 -1.1525
  204SOL     OW  610   0.776   0.968   1.639  0.0567 -0.0026  0.6179
  204SOL    HW1  611   0.767   1.030   1.718 -1.5970  0.0514 -3.5722
  204SOL    HW2  612   0.699   0.902   1.642  0.9743  2.0056  0.3714
  205SOL     OW  613   2.137   0.889   2.626  0.1848 -0.1966 -0.3066
  205SOL    HW1  614   2.091   0.822   2.565 -0.8277  0.4827  0.6551
  205SOL    HW2  615   2.193   0.955   2.568 -1.0306 -0.3446 -0.3352
  206SOL     OW  616   0.377   1.903   2.916 -0.0319 -0.0929 -0.5825
  206SOL    HW1  617   0.288   1.929   2.876 -0.2444  0.9408 -2.8513
  206SOL    HW2  618   0.461   1.948   2.878 -0.7032 -1.0187  0.8180
  207SOL     OW  619   0.597   2.980   2.100  0.0515  0.6025  0.1774
  207SOL    HW1  620   0.667   2.943   2.035  2.3077  1.1658  0.0176
  207SOL    HW2  621   0.543   3.061   2.058  0.0276  4.1302 -1.5498
  208SOL     OW  622   0.673   2.424   1.555 -0.0120 -0.2444  0.4199
  208SOL    HW1  623   0.639   2.510   1.515  0.9824  0.5170 -1.2507
  208SOL    HW2  624   0.693   2.361   1.478  1.6693  1.1452  0.3133
  209SOL     OW  625   1.163   2.758   0.085 -1.0338 -0.0990 -0.2444
  209SOL    HW1  626   1.134   2.753   0.183  1.9957 -1.9531  0.4852
  209SOL    HW2  627   1.120   2.841   0.041 -0.6548 -0.3302  0.2757
  210SOL     OW  628   2.784   1.647   1.693  0.0210  0.3949  0.2263
  210SOL    HW1  629   2.698   1.595   1.662 -1.6139  0.2192 -1.2291
  210SOL    HW2  630   2.869   1.617   1.643  1.5122  0.6708 -0.0886
  211SOL     OW  631   1.192   0.327   1.534 -0.0141  0.4731  0.1476
  211SOL    HW1  632   1.223   0.406   1.476 -1.9256 -1.1663  0.6337
  211SOL    HW2  633   1.262   0.270   1.584  0.9805  1.1215  0.4108
  212SOL     OW  634   1.117   2.024   1.750 -0.2478 -0.1231 -0.3721
  212SOL    HW1  635   1.067   2.094   1.805  1.1200 -2.2627  0.6475
  212SOL    HW2  636   1.216   2.046   1.757 -2.3935  0.2113  0.3412
  213SOL     OW  637   2.620   0.198   1.770  0.7416  0.6484  0.1857
  213SOL    HW1  638   2.519   0.194   1.765  0.0206  0.3975 -0.8174
  213SOL    HW2  639   2.656   0.147   1.854  1.2883  0.9915  1.3776
  214SOL     OW  640   0.760   1.961   1.808 -0.0604  0.8521  0.1557
  214SOL    HW1  641   0.781   1.988   1.903  2.6156 -1.5872 -3.7111
  214SOL    HW2  642   0.790   2.031   1.742 -2.5358  0.4343  1.4002
  215SOL     OW  643   2.717   2.038   1.087 -0.1246  0.2538 -0.1186
  215SOL    HW1  644   2.616   2.058   1.083 -1.2887 -2.2424 -2.1590
  215SOL    HW2  645   2.750   2.046   1.185  0.1061  1.1526  0.3450
  216SOL     OW  646   0.018   1.006   1.573  0.5953  0.2391 -0.3621
  216SOL    HW1  647   0.116   1.011   1.543  1.6305 -0.0816  0.2224
  216SOL    HW2  648   3.070   0.911   1.602  1.1328  0.1050 -0.1703
  217SOL     OW  649   2.659   0.253   1.304  0.4641 -0.3087 -0.7796
  217SOL    HW1  650   2.733   0.202   1.261 -2.3273 -0.6934  2.0075
  217SOL    HW2  651   2.680   0.276   1.401 -0.0250  0.4184 -0.8282
  218SOL     OW  652   1.329   2.184   1.072 -0.2238  0.0365 -0.3546
  218SOL    HW1  653   1.400   2.130   1.121 -0.1188 -1.1795  2.3621
  218SOL    HW2  654   1.318   2.145   0.978  1.6520  0.0221  2.5107
  219SOL     OW  655   1.506   2.296   0.126  0.3297  0.1061  0.3049
  219SOL    HW1  656   1.603   2.259   0.131  1.9717 -0.3187  3.6647
  219SOL    HW2  657   1.500   2.392   0.171  0.8135 -1.7908 -0.2355
  220SOL     OW  658   1.779   2.221   0.110  0.1031  0.2093 -0.3320
  220SOL    HW1  659   1.797   2.319   0.096  0.6771  1.5299 -2.7990
  220SOL    HW2  660   1.864   2.162   0.097  1.3664 -2.1771  1.0905
  221SOL     OW  661   2.982   2.086   1.012 -0.0403  0.2912  0.3843
  221SOL    HW1  662   3.043   2.020   1.064  2.0060 -0.2071 -0.7230
  221SOL    HW2  663   2.886   2.059   1.029  1.0394  1.0182 -0.8263
  222SOL     OW  664   1.032   2.107   0.764  0.0634 -0.3970  0.3310
  222SOL    HW1  665   1.113   2.065   0.815  0.7351  2.2696 -1.2133
  222SOL    HW2  666   0.940   2.094   0.812 -1.8404 -0.3484  2.3901
  223SOL     OW  667   0.742   2.959   2.385  0.1199 -0.1853  0.0302
  223SOL    HW1  668   0.687   3.028   2.343 -1.8359  1.6804 -0.6832
  223SOL    HW2  669   0.833   2.999   2.405 -0.4513  2.0997 -0.1545
  224SOL     OW  670   2.796   1.371   1.048 -0.0325 -0.1105  0.2103
  224SOL    HW1  671   2.720   1.440   1.043 -2.2086  1.4166 -0.9748
  224SOL    HW2  672   2.870   1.399   1.117 -0.9032 -0.7348  2.7332
  225SOL     OW  673   2.390   1.732   0.904 -0.1868 -0.6163 -0.4249
  225SOL    HW1  674   2.464   1.791   0.953  1.6531  1.2523  1.3570
  225SOL    HW2  675   2.424   1.686   0.817  0.7653 -0.2803 -2.6577
  226SOL     OW  676   1.219   2.608   0.561  0.3452  0.5991 -0.3815
  226SOL    HW1  677   1.323   2.607   0.547  0.1658 -1.6723  2.0631
  226SOL    HW2  678   1.203   2.540   0.634 -1.1266  1.0489  0.9015
  227SOL     OW  679   1.307   1.091   1.401  0.1064  0.5444  0.5783
  227SOL    HW1  680   1.239   1.105   1.323  1.6209  0.9273 -0.6874
  227SOL    HW2  681   1.398   1.134   1.385  2.4808  0.7771 -1.0501
  228SOL     OW  682   1.354   0.653   2.083 -0.2866  0.6624 -0.3837
  228SOL    HW1  683   1.383   0.724   2.012 -1.7603 -2.5260 -0.1186
  228SOL    HW2  684   1.411   0.571   2.077 -0.2220  0.5152  0.5742
  229SOL     OW  685   2.528   0.878   2.794  0.1939  0.3378 -0.1809
  229SOL    HW1  686   2.576   0.795   2.817 -0.5886  0.9009 -1.2526
  229SOL    HW2  687   2.433   0.859   2.825 -0.5069 -1.6316 -1.4315
  230SOL     OW  688   0.998   1.169   0.921 -0.2852 -0.1454  0.7936
  230SOL    HW1  689   1.034   1.080   0.953  1.9478  1.1342 -2.9564
  230SOL    HW2  690   1.045   1.244   0.966  0.7624  0.1113 -1.1578
  231SOL     OW  691   2.419   2.832   2.176  0.0456 -0.0702 -0.0916
  231SOL    HW1  692   2.507   2.781   2.184  1.3914  3.4286 -0.2396
  231SOL    HW2  693   2.348   2.791   2.119  2.1779  3.0154  0.2562
  232SOL     OW  694   0.556   1.935   0.150 -0.4540  0.2122  0.3307
  232SOL    HW1  695   0.608   1.851   0.136  0.2195  5.0316 -1.5266
  232SOL    HW2  696   0.614   2.010   0.186  0.1494  1.5274 -0.2562
  233SOL     OW  697   1.385   2.370   2.450 -0.1520  0.1832 -0.4833
  233SOL    HW1  698   1.435   2.338   2.532 -1.6538  2.4465 -2.4326
  233SOL    HW2  699   1.382   2.298   2.376  0.4433 -1.6155  0.9518
  234SOL     OW  700   1.065   1.318   1.744  0.5837 -0.2196 -0.5254
  234SOL    HW1  701   1.067   1.406   1.695 -2.3362  0.9786 -0.2008
  234SOL    HW2  702   0.965   1.289   1.745 -1.2399 -2.5568  2.5959
  235SOL     OW  703   0.592   1.817   1.644 -0.1746  0.2889 -0.3405
  235SOL    HW1  704   0.643   1.860   1.724 -0.5734  0.9945  1.7041
  235SOL    HW2  705   0.582   1.881   1.567  3.4065  3.1618  1.0418
  236SOL     OW  706   1.896   2.961   2.597 -0.2778  0.0412 -0.1981
  236SOL    HW1  707   1.808   2.909   2.594 -0.2594 -1.3617 -0.1605
  236SOL    HW2  708   1.903   3.034   2.671  2.8410  0.3870  1.6846
  237SOL     OW  709   1.421   0.044   0.765  0.2533  0.2914  0.0514
  237SOL    HW1  710   1.346   3.054   0.749 -1.9674  0.9331 -0.4909
  237SOL    HW2  711   1.465   0.032   0.854  0.0199  0.1503  0.1813
  238SOL     OW  712   1.384   0.717   2.809 -0.2336 -0.6247 -0.1547
  238SOL    HW1  713   1.321   0.703   2.729  0.3432 -0.3615  1.9199
  238SOL    HW2  714   1.482   0.687   2.790 -1.5009 -0.0132 -0.2773
  239SOL     OW  715   0.795   0.234   2.024 -0.1214 -0.5155  0.8469
  239SOL    HW1  716   0.704   0.190   2.037 -1.7333 -2.2133 -1.8782
  239SOL    HW2  717   0.812   0.305   1.952 -0.6426  1.5758 -2.8256
  240SOL     OW  718   2.046   2.772   0.703  0.1476 -0.2526 -0.1212
  240SOL    HW1  719   2.135   2.725   0.676 -0.7987  0.0078  1.7185
  240SOL    HW2  720   2.017   2.740   0.795 -0.1046 -2.6295 -0.0885
  241SOL     OW  721   1.342   1.429   1.322  0.0283 -0.8973 -0.6771
  241SOL    HW1  722   1.257   1.406   1.375 -0.7718  0.5533  0.9155
  241SOL    HW2  723   1.348   1.531   1.313 -3.3565  1.8860  1.6890
  242SOL     OW  724   0.218   0.617   0.834 -0.4213 -0.1584  0.2960
  242SOL    HW1  725   0.143   0.684   0.808 -0.6341  0.9389 -1.6781
  242SOL    HW2  726   0.290   0.609   0.764 -0.7725 -1.9166 -0.0700
  243SOL     OW  727   0.401   0.662   1.490  0.0965 -0.0687  0.0120
  243SOL    HW1  728   0.347   0.713   1.420  0.2761  1.7702  0.7552
  243SOL    HW2  729   0.458   0.589   1.444  1.6791 -1.1755  0.8952
  244SOL     OW  730   1.119   0.517   2.934 -0.0889 -0.1027  0.2988
  244SOL    HW1  731   1.068   0.448   2.994 -1.1722  1.0328  0.9042
  244SOL    HW2  732   1.194   0.561   2.986 -1.1014  2.2804  1.6884
  245SOL     OW  733   2.122   0.284   0.005  0.0002 -0.5564  0.2121
  245SOL    HW1  734   2.109   0.212   0.077  0.9681 -1.2509 -0.2078
  245SOL    HW2  735   2.119   0.378   0.042  1.1607  2.8070 -1.2998
  246SOL     OW  736   0.445   0.999   1.747 -0.3988  0.1266 -0.3135
  246SOL    HW1  737   0.351   0.968   1.743  0.1099  2.4986 -0.0415
  246SOL    HW2  738   0.510   0.925   1.710  2.7877 -2.5814 -1.4694
  247SOL     OW  739   0.489   0.088   2.407 -0.5331  0.0946  0.1823
  247SOL    HW1  740   0.507   0.097   2.307  1.2982 -1.4977  3.5086
  247SOL    HW2  741   0.575   0.079   2.457 -3.0243  2.8173 -1.7460
  248SOL     OW  742   0.250   1.601   2.333  0.0281  0.0699  0.2094
  248SOL    HW1  743   0.294   1.662   2.265 -1.6455 -1.5594  1.1192
  248SOL    HW2  744   0.241   1.639   2.427  2.1291 -2.1501  1.0687
  249SOL     OW  745   0.316   0.129   2.814 -0.1049  0.0848  0.2539
  249SOL    HW1  746   0.367   0.211   2.773  1.2549 -0.4739 -3.1073
  249SOL    HW2  747   0.299   0.049   2.755  0.2114  0.2011  2.4233
  250SOL     OW  748   0.027   2.903   2.696  0.5975  0.0831 -0.2136
  250SOL    HW1  749   0.012   3.002   2.711  0.9172  1.6256 -0.3472
  250SOL    HW2  750   3.024   2.868   2.633  0.1005 -0.2757 -0.4407
  251SOL     OW  751   0.145   1.451   0.955  0.1634  0.1661 -0.4033
  251SOL    HW1  752   0.094   1.446   0.870  3.5183  1.0961  0.8003
  251SOL    HW2  753   0.241   1.424   0.938  0.2433  0.0377  0.5202
  252SOL     OW  754   1.349   2.766   2.117 -0.2391  0.0929  0.5117
  252SOL    HW1  755   1.291   2.836   2.169  0.3488 -1.5273 -0.3816
  252SOL    HW2  756   1.431   2.735   2.173  0.8849  0.0854 -3.3118
  253SOL     OW  757   1.993   1.869   2.730 -0.3220  0.0041 -0.0450
  253SOL    HW1  758   1.907   1.913   2.759 -0.4135  1.4428  0.2811
  253SOL    HW2  759   1.994   1.773   2.759 -0.3359 -0.2137  2.2467
  254SOL     OW  760   0.357   1.448   1.927 -0.0811  0.4926 -0.3797
  254SOL    HW1  761   0.323   1.375   1.865  0.9744  0.2159  3.3029
  254SOL    HW2  762   0.428   1.420   1.987 -2.7578 -3.2836  2.0264
  255SOL     OW  763   1.044   0.135   1.636 -0.4091 -0.1180 -0.2184
  255SOL    HW1  764   1.123   0.095   1.690  0.2089  0.6632 -2.2137
  255SOL    HW2  765   1.063   0.227   1.597  0.0950  0.5382  2.2986
  256SOL     OW  766   2.800   2.513   1.374  0.8655  0.1326 -0.2459
  256SOL    HW1  767   2.792   2.582   1.446 -0.2767  0.9436  0.1543
  256SOL    HW2  768   2.709   2.487   1.330 -1.4373 -0.3307 -2.0292
  257SOL     OW  769   0.505   2.631   0.349  0.2020 -0.2119  0.5577
  257SOL    HW1  770   0.488   2.617   0.448  1.1205 -0.4429  0.9762
  257SOL    HW2  771   0.423   2.668   0.303  0.1193  0.8656  2.1201
  258SOL     OW  772   0.965   1.913   2.268 -0.1959 -0.6138  0.1268
  258SOL    HW1  773   1.034   1.863   2.219 -1.4679  1.4090  2.0473
  258SOL    HW2  774   0.902   1.951   2.196 -4.0362 -1.4293 -0.0315
  259SOL     OW  775   1.057   1.810   2.680 -0.0444  0.4681  0.2861
  259SOL    HW1  776   0.967   1.852   2.674  2.0343  0.7723 -2.0712
  259SOL    HW2  777   1.111   1.862   2.746  2.4850  1.6493 -0.3556
  260SOL     OW  778   2.354   0.621   2.122  0.3962 -0.2061 -0.5673
  260SOL    HW1  779   2.258   0.669   2.115 -2.4582  1.2100 -0.4304
  260SOL    HW2  780   2.344   0.520   2.140  0.8179  0.6776 -0.6967
  261SOL     OW  781   1.045   0.902   0.989  0.6626 -0.5054 -0.2409
  261SOL    HW1  782   1.045   0.817   0.934  0.3220  1.9925 -0.8057
  261SOL    HW2  783   1.040   0.880   1.090 -0.5749 -1.5525  2.1354
  262SOL     OW  784   1.879   2.465   2.526  0.0376  0.0849 -0.1694
  262SOL    HW1  785   1.859   2.371   2.477 -0.7672 -5.5844  0.5297
  262SOL    HW2  786   1.833   2.475   2.619  0.2980  0.5705  3.1272
  263SOL     OW  787   0.323   2.207   0.393  0.3523 -0.2438  0.1622
  263SOL    HW1  788   0.378   2.119   0.398 -1.7244 -2.5692 -2.5900
  263SOL    HW2  789   0.324   2.247   0.489  0.4060 -0.5375 -0.6988
  264SOL     OW  790   0.309   2.291   0.659 -0.0562 -0.1056  0.0662
  264SOL    HW1  791   0.257   2.257   0.740  2.3977  1.2280  0.4943
  264SOL    HW2  792   0.400   2.336   0.683 -0.4317  1.0646 -1.5858
  265SOL     OW  793   0.475   1.288   0.291 -0.6747  0.1809 -0.3940
  265SOL    HW1  794   0.476   1.321   0.389  2.0164  0.1060  1.9916
  265SOL    HW2  795   0.519   1.195   0.281  0.3479 -1.7646  2.8750
  266SOL     OW  796   0.837   1.713   2.446  0.8188 -0.0610 -0.1307
  266SOL    HW1  797   0.793   1.770   2.522 -0.6366 -0.8616  0.6289
  266SOL    HW2  798   0.905   1.772   2.394 -1.2233  0.8438 -0.6519
  267SOL     OW  799   1.562   0.536   2.492 -0.0907 -0.2166 -0.0025
  267SOL    HW1  800   1.544   0.441   2.460 -0.8404 -1.7507  0.0084
  267SOL    HW2  801   1.576   0.542   2.590 -0.6614 -2.0455 -2.1299
  268SOL     OW  802   0.440   0.987   0.012  0.6677  0.8290  0.7404
  268SOL    HW1  803   0.369   0.925   3.049  2.8840  1.9351 -0.3793
  268SOL    HW2  804   0.465   0.959   0.106  3.8115 -1.3993  0.6909
  269SOL     OW  805   2.456   2.207   2.362 -0.3984  0.4577 -0.0458
  269SOL    HW1  806   2.442   2.111   2.397 -0.8787  3.7278 -0.9052
  269SOL    HW2  807   2.423   2.216   2.265 -0.1495  1.5422 -0.7007
  270SOL     OW  808   1.660   1.613   2.963 -0.1260 -0.5381  0.5322
  270SOL    HW1  809   1.692   1.687   2.894 -1.4453 -0.0870 -3.2066
  270SOL    HW2  810   1.733   1.544   2.982 -0.9051 -0.6273  0.4830
  271SOL     OW  811   0.355   0.167   0.008  0.5322  0.2757 -0.1525
  271SOL    HW1  812   0.413   0.101   0.056 -2.1841  0.8613 -2.7407
  271SOL    HW2  813   0.335   0.143   2.984 -2.1230  0.9195  1.9784
  272SOL     OW  814   2.696   0.559   0.381 -0.0676 -0.1616  0.8605
  272SOL    HW1  815   2.740   0.540   0.470 -0.3090 -0.8253  4.4069
  272SOL    HW2  816   2.600   0.581   0.391  1.6478  0.8834  0.9882
  273SOL     OW  817   0.565   2.775   1.878  0.1248  0.4384 -0.0307
  273SOL    HW1  818   0.501   2.816   1.947 -1.7288  0.9836 -0.0133
  273SOL    HW2  819   0.505   2.709   1.829 -0.2492  0.7196  2.8290
  274SOL     OW  820   3.042   0.752   1.644  0.1717  0.3121 -0.0336
  274SOL    HW1  821   2.983   0.711   1.723 -1.0016 -2.3371  1.8361
  274SOL    HW2  822   0.016   0.684   1.588 -0.7880 -0.4011 -0.1891
  275SOL     OW  823   0.688   1.662   0.612 -0.2423  0.3618  0.2897
  275SOL    HW1  824   0.784   1.640   0.587 -1.0913 -0.8908  0.6929
  275SOL    HW2  825   0.691   1.696   0.705  0.3029  0.1873 -2.6622
  276SOL     OW  826   0.604   0.773   2.086 -0.2239  0.3160  0.5924
  276SOL    HW1  827   0.552   0.853   2.049 -0.3487  1.9003 -1.0086
  276SOL    HW2  828   0.627   0.783   2.186  2.1765  0.5538 -0.8172
  277SOL     OW  829   1.197   2.456   1.794 -0.4483  0.4972  0.5492
  277SOL    HW1  830   1.097   2.437   1.785  0.3193 -1.4864  0.7424
  277SOL    HW2  831   1.246   2.378   1.834  0.1713  1.6280 -2.0878
  278SOL     OW  832   1.576   2.848   1.920  0.7381  0.3670 -0.4453
  278SOL    HW1  833   1.483   2.835   1.960 -1.9166 -0.4539 -2.5225
  278SOL    HW2  834   1.639   2.894   1.986  1.6620 -1.2307 -0.0906
  279SOL     OW  835   1.354   1.375   0.370 -0.7892  0.5928  0.2840
  279SOL    HW1  836   1.328   1.440   0.299 -0.8868 -1.8074  2.0928
  279SOL    HW2  837   1.445   1.396   0.412  0.0517 -0.3529 -0.6578
  280SOL     OW  838   0.834   1.216   0.273  0.1596 -0.2512 -0.2937
  280SOL    HW1  839   0.878   1.270   0.196  0.2259  2.8057 -1.1789
  280SOL    HW2  840   0.820   1.283   0.351  0.5121  0.9744  0.7050
  281SOL     OW  841   0.257   0.352   1.457  0.2747  0.2447  0.1675
  281SOL    HW1  842   0.200   0.436   1.470 -0.3976 -0.0836  3.7688
  281SOL    HW2  843   0.348   0.372   1.423 -2.4538  1.4951  2.2136
  282SOL     OW  844   0.075   2.436   0.575  0.4659 -0.1239 -0.4121
  282SOL    HW1  845   0.007   2.404   0.509  0.5542 -1.4969  2.4317
  282SOL    HW2  846   0.151   2.369   0.578  3.4769  1.5923  0.1177
  283SOL     OW  847   1.371   2.143   2.242  0.0824 -0.4840 -0.2724
  283SOL    HW1  848   1.282   2.120   2.290 -4.9460  1.4271  0.6818
  283SOL    HW2  849   1.454   2.094   2.272 -3.5781  0.6277  1.0544
  284SOL     OW  850   2.465   2.926   1.048 -0.2960  0.1903 -0.3001
  284SOL    HW1  851   2.408   2.975   1.119  0.8788  0.6166  0.9427
  284SOL    HW2  852   2.423   2.839   1.017  0.3677 -0.2521  0.9266
  285SOL     OW  853   0.518   2.249   2.441 -0.0379  0.0099  0.5291
  285SOL    HW1  854   0.431   2.273   2.395  2.4443  1.6059  1.1965
  285SOL    HW2  855   0.586   2.325   2.451 -0.2343  0.7665 -4.3264
  286SOL     OW  856   2.952   2.864   0.712  0.1154  0.5662 -0.1916
  286SOL    HW1  857   2.858   2.900   0.688  1.4462  2.6141  1.2948
  286SOL    HW2  858   2.954   2.849   0.815  1.1446  1.3672  0.4580
  287SOL     OW  859   0.741   1.094   0.741 -0.1624  0.3760  0.0038
  287SOL    HW1  860   0.785   1.007   0.699  1.2437 -1.5078 -0.1959
  287SOL    HW2  861   0.803   1.173   0.720  1.6091  0.4143 -2.0519
  288SOL     OW  862   2.228   2.061   2.762  0.1232 -0.1829  0.4855
  288SOL    HW1  863   2.159   1.997   2.723 -0.9126 -1.4992  0.9836
  288SOL    HW2  864   2.259   2.124   2.687  0.6297  1.0679 -0.6035
  289SOL     OW  865   0.064   1.892   2.910 -0.1548 -0.1508  0.1100
  289SOL    HW1  866   0.012   1.812   2.916  1.1347  1.4313 -3.6218
  289SOL    HW2  867   0.110   1.908   2.816 -0.2151  0.7218 -1.2845
  290SOL     OW  868   1.388   1.699   1.286  0.7932  0.2015  0.6459
  290SOL    HW1  869   1.432   1.653   1.211  0.1620  1.2255  2.0951
  290SOL    HW2  870   1.339   1.779   1.248  1.5831 -1.2048  2.4085
  291SOL     OW  871   1.368   1.272   2.945  0.4387 -0.1505  0.0115
  291SOL    HW1  872   1.383   1.372   2.968  2.4639  0.0277  0.5097
  291SOL    HW2  873   1.308   1.224   3.012 -1.3059  1.5013 -1.4637
  292SOL     OW  874   0.849   1.551   0.289  0.1617 -0.0729  0.0965
  292SOL    HW1  875   0.839   1.483   0.369 -2.4585 -2.5739  1.6179
  292SOL    HW2  876   0.760   1.552   0.239 -0.0638  0.8861 -0.5337
  293SOL     OW  877   1.348   2.763   0.970  0.5918  0.0166  0.5622
  293SOL    HW1  878   1.276   2.796   1.029  0.3304 -2.2489 -1.5076
  293SOL    HW2  879   1.409   2.840   0.947 -2.3419  1.8916  1.0722
  294SOL     OW  880   2.040   1.238   2.871  0.2845  0.1631 -0.5074
  294SOL    HW1  881   1.998   1.223   2.780 -1.8345  1.1020 -0.3856
  294SOL    HW2  882   1.977   1.281   2.939 -1.7294  0.1822  2.9442
  295SOL     OW  883   1.878   1.837   3.069  0.3654 -0.5260  0.6510
  295SOL    HW1  884   1.836   1.855   2.976 -1.2300  3.0111  0.7511
  295SOL    HW2  885   1.931   1.917   0.035 -0.1463 -0.1766  0.4025
  296SOL     OW  886   1.621   0.684   1.814  0.0699 -0.1818  0.1156
  296SOL    HW1  887   1.629   0.641   1.720 -0.5615  0.0438  0.2520
  296SOL    HW2  888   1.707   0.721   1.847 -2.3712  0.8021 -0.5901
  297SOL     OW  889   2.928   0.747   2.086  0.0542 -0.5385  0.0659
  297SOL    HW1  890   2.918   0.714   1.991 -2.7622 -1.0235  1.2325
  297SOL    HW2  891   2.909   0.849   2.089 -1.3784  3.8876 -1.0964
  298SOL     OW  892   0.890   1.708   1.844  0.2643 -0.2134  0.7373
  298SOL    HW1  893   0.984   1.726   1.884  0.4020 -1.9127  0.2700
  298SOL    HW2  894   0.842   1.796   1.821  2.5580 -0.3765 -2.2564
  299SOL     OW  895   1.252   0.168   2.598  0.0621  0.3265 -0.2935
  299SOL    HW1  896   1.328   0.227   2.566 -1.6107 -0.4132 -4.2437
  299SOL    HW2  897   1.201   0.129   2.520 -1.6753 -1.6208  0.9291
  300SOL     OW  898   3.001   1.067   3.010 -0.1313 -0.3785 -0.0270
  300SOL    HW1  899   2.935   0.991   3.033 -1.1691  2.0293 -1.3388
  300SOL    HW2  900   3.037   1.107   0.026 -0.6302  1.6297  0.7672
  301SOL     OW  901   1.829   0.714   2.427 -0.2381 -0.0079 -0.4883
  301SOL    HW1  902   1.772   0.683   2.352  0.4892  1.0712  1.4285
  301SOL    HW2  903   1.822   0.814   2.436 -1.3410  1.6301  1.6667
  302SOL     OW  904   2.340   1.777   2.684 -0.5480  0.0238  0.1528
  302SOL    HW1  905   2.294   1.853   2.739 -2.1531  0.3496  0.6103
  302SOL    HW2  906   2.434   1.806   2.653 -0.4749 -3.4904  1.8838
  303SOL     OW  907   0.475   2.392   2.828 -0.5114 -0.0838  0.6103
  303SOL    HW1  908   0.484   2.493   2.838 -0.4798  1.1483 -1.4154
  303SOL    HW2  909   0.454   2.367   2.924 -1.4042  1.1266  0.0580
  304SOL     OW  910   0.153   1.548   1.429 -0.4973  0.4837  0.2902
  304SOL    HW1  911   0.173   1.489   1.344  0.4399 -1.3871 -3.0297
  304SOL    HW2  912   0.227   1.548   1.493 -0.9604  0.8571 -0.3336
  305SOL     OW  913   2.429   0.571   1.815 -0.2000  0.6570 -0.2767
  305SOL    HW1  914   2.385   0.481   1.842 -1.4997 -0.5861 -1.1136
  305SOL    HW2  915   2.446   0.626   1.896 -0.8363 -0.5854  0.0634
  306SOL     OW  916   2.036   1.514   1.535 -0.0369  0.0923 -0.9294
  306SOL    HW1  917   2.035   1.611   1.520  0.1723 -3.9150  3.0676
  306SOL    HW2  918   2.017   1.465   1.453 -2.0726 -0.4026  2.3613
  307SOL     OW  919   2.731   0.045   0.956  0.5074  0.1472 -0.1105
  307SOL    HW1  920   2.635   0.008   0.973 -0.8777  0.5496  0.0139
  307SOL    HW2  921   2.783   0.053   1.042  2.6788  0.7278 -1.2338
  308SOL     OW  922   0.097   1.735   1.620 -0.4039 -0.1699 -0.6077
  308SOL    HW1  923   0.091   1.737   1.722 -2.1737  0.7308  1.4634
  308SOL    HW2  924   0.062   1.644   1.590  0.9462 -0.6585 -0.4606
  309SOL     OW  925   2.318   2.335   1.860 -0.4333 -0.1433 -0.3272
  309SOL    HW1  926   2.339   2.436   1.845 -0.7131 -0.5328 -0.4929
  309SOL    HW2  927   2.221   2.323   1.877  0.1243  1.8943  2.7448
  310SOL     OW  928   2.327   1.285   2.733 -0.2469  0.2155  0.2037
  310SOL    HW1  929   2.297   1.378   2.697  0.3569  0.3411  3.0718
  310SOL    HW2  930   2.248   1.250   2.789  1.1258 -0.0834  2.5630
  311SOL     OW  931   1.671   1.245   2.908  0.1312 -0.2849  0.3613
  311SOL    HW1  932   1.587   1.289   2.934  0.0007 -3.5841 -1.8584
  311SOL    HW2  933   1.663   1.142   2.919 -2.7111 -3.0965  0.5482
  312SOL     OW  934   1.137   2.103   2.356 -0.5880  0.3216 -0.0654
  312SOL    HW1  935   1.085   2.019   2.331 -1.0034  0.0303  0.5151
  312SOL    HW2  936   1.137   2.127   2.457 -2.2183 -0.0161  2.0722
  313SOL     OW  937   0.013   0.008   0.937 -0.2285  0.6756  0.0298
  313SOL    HW1  938   3.046   0.065   0.865  0.8911  2.2915  1.9051
  313SOL    HW2  939   0.050   0.065   1.015  0.7576  1.2038  0.4995
  314SOL     OW  940   0.453   1.999   1.252 -0.0883  1.1128  0.2967
  314SOL    HW1  941   0.541   2.007   1.302 -2.5676  0.4425 -0.3371
  314SOL    HW2  942   0.407   1.911   1.283 -0.4734  1.8889  2.9963
  315SOL     OW  943   0.446   2.065   1.943 -0.1605  0.1595  0.3431
  315SOL    HW1  944   0.346   2.075   1.940 -0.0018 -1.8680  1.6532
  315SOL    HW2  945   0.491   2.154   1.950 -1.4777 -0.7910  0.1040
  316SOL     OW  946   0.325   2.568   0.972 -0.4563  0.1711 -0.6135
  316SOL    HW1  947   0.246   2.540   1.028 -0.0886  1.1653 -0.3211
  316SOL    HW2  948   0.290   2.617   0.888  4.1510 -1.0239 -0.7485
  317SOL     OW  949   2.673   0.026   1.538  0.0821  0.0321  0.0560
  317SOL    HW1  950   2.644   0.090   1.609 -1.8661  0.2460 -0.1152
  317SOL    HW2  951   2.773   0.012   1.537 -0.4170 -1.4592  1.0715
  318SOL     OW  952   2.240   2.306   0.081 -0.9150 -0.6632  0.3783
  318SOL    HW1  953   2.265   2.213   0.044  0.8987 -1.4779  0.6062
  318SOL    HW2  954   2.327   2.362   0.089  2.1133 -0.9686  3.9137
  319SOL     OW  955   1.386   1.197   2.695 -0.2839 -0.3342  0.2164
  319SOL    HW1  956   1.389   1.203   2.797  0.6838 -1.8905 -0.9897
  319SOL    HW2  957   1.427   1.109   2.662  0.3292  0.2005  2.2540
  320SOL     OW  958   0.301   2.316   2.285  0.2801  0.1190 -0.0920
  320SOL    HW1  959   0.222   2.256   2.264 -1.3913 -0.1439  0.4263
  320SOL    HW2  960   0.326   2.384   2.208 -0.6106  0.6076 -1.0516
  321SOL     OW  961   0.889   2.355   0.122 -0.4357  0.0973  0.1509
  321SOL    HW1  962   0.985   2.379   0.142 -1.1176  0.8829 -1.7074
  321SOL    HW2  963   0.857   2.418   0.050  0.0894  0.7913  0.9402
  322SOL     OW  964   2.598   0.251   2.310  0.2922 -0.4742  0.1763
  322SOL    HW1  965   2.570   0.168   2.259  0.2251  1.2922 -1.3299
  322SOL    HW2  966   2.694   0.239   2.345 -0.8379 -1.7924 -0.2436
  323SOL     OW  967   2.818   1.174   0.886  0.5305  0.5400  0.0932
  323SOL    HW1  968   2.796   1.246   0.954  2.1199 -4.2220  0.4358
  323SOL    HW2  969   2.788   1.083   0.924  0.5005  1.3980 -0.8179
  324SOL     OW  970   0.211   0.841   1.778 -0.2463 -0.1031 -0.9773
  324SOL    HW1  971   0.242   0.745   1.770 -0.3658 -2.6096  1.9306
  324SOL    HW2  972   0.110   0.843   1.783 -0.8356  1.0293 -1.8156
  325SOL     OW  973   0.536   0.181   2.066  0.3415  0.3229 -0.1100
  325SOL    HW1  974   0.507   0.165   1.970 -1.1864  1.1726  4.2642
  325SOL    HW2  975   0.458   0.219   2.123  0.3187 -1.3719  0.7152
  326SOL     OW  976   2.101   2.533   0.059  0.3461 -0.2239  0.0339
  326SOL    HW1  977   2.012   2.532   0.112  1.5865 -1.6862  1.5317
  326SOL    HW2  978   2.150   2.441   0.072 -0.1645 -4.7451  1.1032
  327SOL     OW  979   2.215   1.497   0.650 -0.2460  0.1497  0.1077
  327SOL    HW1  980   2.194   1.594   0.670  0.0304 -0.6342 -0.5466
  327SOL    HW2  981   2.312   1.481   0.674 -0.6847 -0.6990 -0.5087
  328SOL     OW  982   2.990   1.905   2.563 -0.0883  0.7281 -0.4251
  328SOL    HW1  983   2.961   1.840   2.638 -5.2360 -0.7402 -1.1011
  328SOL    HW2  984   3.057   1.976   2.594  2.3011 -1.9584  1.3423
  329SOL     OW  985   0.404   2.169   1.533 -0.1363 -0.3113 -0.5739
  329SOL    HW1  986   0.346   2.224   1.470  0.8962 -1.4018  2.2503
  329SOL    HW2  987   0.363   2.077   1.556 -2.2054 -0.5250 -1.0092
  330SOL     OW  988   2.515   1.201   2.557 -0.0561 -0.1494 -0.8999
  330SOL    HW1  989   2.436   1.247   2.601  0.4620  0.8277 -0.9240
  330SOL    HW2  990   2.491   1.105   2.543 -0.1278  1.1258  0.5959
  331SOL     OW  991   2.344   2.704   0.898 -0.1683 -0.0278  0.3553
  331SOL    HW1  992   2.270   2.700   0.965  1.1635  2.2243  2.7269
  331SOL    HW2  993   2.315   2.660   0.810 -2.2609 -3.1566 -1.9423
  332SOL     OW  994   0.448   2.921   0.824 -0.1907 -0.2651  0.4967
  332SOL    HW1  995   0.349   2.918   0.849 -3.5927 -0.6824  2.0440
  332SOL    HW2  996   0.503   2.862   0.891  0.6774 -2.5349  1.1171
  333SOL     OW  997   2.300   2.273   2.584  0.4011 -0.3661 -0.0851
  333SOL    HW1  998   2.231   2.347   2.573  0.0111  0.5562  2.6305
  333SOL    HW2  999   2.341   2.247   2.495  1.5411  1.8172 -0.5688
  334SOL     OW 1000   0.503   1.236   0.779  0.2467 -0.3402 -0.1089
  334SOL    HW1 1001   0.421   1.177   0.803 -1.3443 -1.5170 -0.8647
  334SOL    HW2 1002   0.586   1.176   0.779 -2.7760  0.9473 -0.4917
  335SOL     OW 1003   2.773   1.944   2.392  0.5987 -0.0052  0.2655
  335SOL    HW1 1004   2.851   1.908   2.449 -0.9163 -1.1135  1.3169
  335SOL    HW2 1005   2.684   1.903   2.421 -0.9367  0.1017 -0.6796
  336SOL     OW 1006   2.198   2.758   2.028  0.3812  0.1742 -0.2648
  336SOL    HW1 1007   2.213   2.665   2.068  0.5519  1.6069  1.0748
  336SOL    HW2 1008   2.175   2.743   1.929 -0.3277 -1.9110  1.5664
  337SOL     OW 1009   0.747   0.965   1.016  0.5795  0.3280  0.2791
  337SOL    HW1 1010   0.760   0.871   0.973  0.3446 -0.8074 -2.3694
  337SOL    HW2 1011   0.759   1.035   0.946 -1.2651 -0.1413  0.8017
  338SOL     OW 1012   1.232   1.879   1.155 -0.0743 -0.1285 -0.6206
  338SOL    HW1 1013   1.241   1.884   1.059 -0.3823 -1.5860  3.9127
  338SOL    HW2 1014   1.177   1.960   1.193 -1.4577  0.7366 -2.3701
  339SOL     OW 1015   3.067   1.893   1.426  0.0479 -0.2557 -0.7757
  339SOL    HW1 1016   0.003   1.994   1.450  0.9432 -0.4112 -0.9207
  339SOL    HW2 1017   0.036   1.834   1.497 -1.2388 -0.3910 -2.5957
  340SOL     OW 1018   1.235   2.606   1.544  0.2541  0.4064  0.1053
  340SOL    HW1 1019   1.293   2.689   1.566  1.0596 -0.5197 -0.9121
  340SOL    HW2 1020   1.215   2.564   1.633  0.2901  0.7523 -1.6584
  341SOL     OW 1021   1.510   1.610   1.054 -0.1277  0.0759 -0.1607
  341SOL    HW1 1022   1.442   1.623   0.978 -0.7208  0.4372 -2.0837
  341SOL    HW2 1023   1.597   1.659   1.041 -0.4684  0.5874 -0.3482
  342SOL     OW 1024   2.591   1.552   1.091  0.3834 -0.1340 -0.0933
  342SOL    HW1 1025   2.636   1.623   1.029  0.8472  1.5468 -2.8345
  342SOL    HW2 1026   2.492   1.533   1.073 -2.2651 -3.8360 -1.0688
  343SOL     OW 1027   2.430   0.577   1.164  0.6815  0.2158 -0.1210
  343SOL    HW1 1028   2.526   0.622   1.171  2.7327  0.3932 -0.8469
  343SOL    HW2 1029   2.393   0.565   1.257  1.5407 -0.3425  0.7378
  344SOL     OW 1030   2.157   0.248   0.742  0.2982  0.0413  0.4908
  344SOL    HW1 1031   2.258   0.236   0.753 -1.0525  0.7965 -0.9152
  344SOL    HW2 1032   2.120   0.191   0.664  0.4896 -0.9681 -2.7812
  345SOL     OW 1033   0.900   2.587   2.011 -0.2976 -0.1874 -0.0153
  345SOL    HW1 1034   0.990   2.627   1.985  0.7075 -1.6543  0.1652
  345SOL    HW2 1035   0.859   2.535   1.931  0.7659 -1.6517  0.7616
  346SOL     OW 1036   2.847   2.305   0.893  0.1588 -0.5676  0.1705
  346SOL    HW1 1037   2.888   2.232   0.946 -2.3954  2.2364  0.3678
  346SOL    HW2 1038   2.743   2.301   0.897 -1.4867  0.6414 -0.9789
  347SOL     OW 1039   2.096   0.098   1.453  0.6596 -0.0365  0.3332
  347SOL    HW1 1040   2.144   0.025   1.506 -1.7677 -0.9142  0.8124
  347SOL    HW2 1041   2.082   0.069   1.356 -2.3060 -1.6929 -2.8864
  348SOL     OW 1042   0.910   1.071   1.214 -0.6829  0.2321 -0.1539
  348SOL    HW1 1043   0.836   1.050   1.145 -0.2516  1.4911  0.3973
  348SOL    HW2 1044   0.955   0.986   1.251  1.7142 -0.8638  1.9918
  349SOL     OW 1045   2.272   0.383   1.923  0.1220 -0.6783  0.3206
  349SOL    HW1 1046   2.201   0.409   1.991  0.8574  0.8320  1.2391
  349SOL    HW2 1047   2.302   0.287   1.929 -0.6882 -1.3577 -1.0420
  350SOL     OW 1048   2.096   2.537   0.426  0.4511  0.3725 -0.7016
  350SOL    HW1 1049   2.186   2.494   0.425  1.1018 -0.4893 -1.1883
  350SOL    HW2 1050   2.095   2.626   0.377  0.3380 -3.6791 -0.4142
  351SOL     OW 1051   1.149   0.452   2.682  0.5004  0.5797 -0.0619
  351SOL    HW1 1052   1.181   0.356   2.673  0.4420 -2.7913 -0.7139
  351SOL    HW2 1053   1.127   0.467   2.782 -1.2832 -1.2412  0.5756
  352SOL     OW 1054   1.884   2.573   2.027  0.0322  0.2128  0.4516
  352SOL    HW1 1055   1.850   2.602   2.122  0.6607  2.0041  2.3237
  352SOL    HW2 1056   1.858   2.644   1.960 -0.4994  1.5249  2.4012
  353SOL     OW 1057   0.383   0.930   2.489 -0.2673 -0.4248  0.1985
  353SOL    HW1 1058   0.339   0.980   2.410  1.8058  4.3330 -1.1626
  353SOL    HW2 1059   0.470   0.884   2.471  0.6690 -0.7121  2.6377
  354SOL     OW 1060   0.505   2.838   2.649  0.4019 -0.1694 -0.1088
  354SOL    HW1 1061   0.546   2.791   2.566  1.1830  0.7798  1.2742
  354SOL    HW2 1062   0.492   2.778   2.731  2.2089  0.9279 -1.3334
  355SOL     OW 1063   2.149   2.713   1.106 -0.5273  0.6151  0.0927
  355SOL    HW1 1064   2.194   2.742   1.191 -0.1923 -1.2592 -1.3288
  355SOL    HW2 1065   2.069   2.774   1.086  1.0557 -1.6665  1.5472
  356SOL     OW 1066   2.447   0.630   0.432 -1.0011 -0.0946 -0.1823
  356SOL    HW1 1067   2.438   0.730   0.441  1.4378  0.4581  0.1141
  356SOL    HW2 1068   2.353   0.584   0.430 -1.4479  0.4690 -0.0311
  357SOL     OW 1069   0.351   2.987   1.867 -0.0331 -0.1915 -0.1706
  357SOL    HW1 1070   0.419   3.060   1.842 -0.6499  2.6305  0.4074
  357SOL    HW2 1071   0.257   3.028   1.879 -1.2853  1.2911  3.3848
  358SOL     OW 1072   2.944   1.478   1.256 -0.0387 -0.4210  0.0550
  358SOL    HW1 1073   3.038   1.445   1.244  0.5750  0.6024 -1.0648
  358SOL    HW2 1074   2.942   1.584   1.261 -0.1411 -0.0411 -1.7836
  359SOL     OW 1075   2.526   0.123   2.816  0.2419  0.0772 -0.4163
  359SOL    HW1 1076   2.542   0.078   2.729 -0.2171 -0.3436  0.4662
  359SOL    HW2 1077   2.611   0.116   2.872  2.3741  0.2704  3.3027
  360SOL     OW 1078   1.161   0.573   1.363  0.0275 -0.4245 -0.4107
  360SOL    HW1 1079   1.066   0.567   1.320 -3.1313  0.1672 -0.8378
  360SOL    HW2 1080   1.209   0.660   1.334  2.0224  3.7614  0.8572
  361SOL     OW 1081   2.712   2.688   1.565  0.2031 -0.1337  0.1494
  361SOL    HW1 1082   2.725   2.632   1.648 -0.5728 -1.4612 -0.6747
  361SOL    HW2 1083   2.620   2.730   1.555  2.2047  1.1430  0.3758
  362SOL     OW 1084   1.249   0.234   0.676  0.5846 -0.0037  0.3004
  362SOL    HW1 1085   1.328   0.175   0.699 -1.7219  1.2086 -1.8012
  362SOL    HW2 1086   1.180   0.228   0.756 -0.4546 -0.2135 -1.6845
  363SOL     OW 1087   1.930   1.521   0.898  0.2281  0.0265  0.3588
  363SOL    HW1 1088   1.915   1.521   0.800 -2.0640  2.1663  4.6830
  363SOL    HW2 1089   1.862   1.580   0.950 -0.2123  1.3065  0.5321
  364SOL     OW 1090   0.579   0.767   1.654  0.3245  0.2680 -0.4989
  364SOL    HW1 1091   0.594   0.707   1.738 -1.2937 -0.1941  0.5132
  364SOL    HW2 1092   0.502   0.738   1.596  0.5822 -1.6542 -0.5728
  365SOL     OW 1093   2.959   0.472   0.927 -0.6111  0.5422  0.6063
  365SOL    HW1 1094   3.053   0.437   0.904 -1.7384  2.0405  0.2355
  365SOL    HW2 1095   2.950   0.482   1.026  1.5953 -1.7246 -1.4778
  366SOL     OW 1096   2.767   0.933   0.370  0.4300  0.0901  0.5494
  366SOL    HW1 1097   2.686   0.977   0.329 -1.1632 -1.9317 -1.1526
  366SOL    HW2 1098   2.825   0.994   0.421 -2.5701  0.2006 -2.4356
  367SOL     OW 1099   2.152   2.063   2.349 -0.1036  0.3895  0.9198
  367SOL    HW1 1100   2.119   2.159   2.362  1.5521  2.3827 -2.9075
  367SOL    HW2 1101   2.239   2.041   2.399 -0.5742 -2.0987 -1.2759
  368SOL     OW 1102   2.365   2.150   0.953 -0.5214 -0.8532  0.2931
  368SOL    HW1 1103   2.367   2.130   1.057  0.3395  1.0061 -0.2008
  368SOL    HW2 1104   2.308   2.081   0.907 -0.0424  2.5958  3.5509
  369SOL     OW 1105   2.149   0.080   2.884  0.1349  0.1783 -0.1509
  369SOL    HW1 1106   2.169   0.139   2.964 -0.9183  0.0062  0.2311
  369SOL    HW2 1107   2.173   3.058   2.904  2.4591  2.2025  0.4586
  370SOL     OW 1108   0.760   0.416   1.069 -0.5519 -0.1500 -0.2882
  370SOL    HW1 1109   0.765   0.397   0.968  2.2948 -1.2274 -1.6619
  370SOL    HW2 1110   0.707   0.501   1.083 -0.5122 -1.9304  0.1236
  371SOL     OW 1111   0.319   1.767   0.174  0.3903 -0.5568 -0.4956
  371SOL    HW1 1112   0.337   1.706   0.095  1.1269  3.0406  1.5127
  371SOL    HW2 1113   0.405   1.816   0.197 -0.9299 -0.9612  0.7140
  372SOL     OW 1114   0.612   0.805   2.422  0.3604  0.5845 -0.4953
  372SOL    HW1 1115   0.609   0.708   2.392  0.8472 -0.9821 -0.7959
  372SOL    HW2 1116   0.680   0.831   2.496  3.1588  1.1630  3.1922
  373SOL     OW 1117   1.093   2.866   2.800  0.3264 -0.4346 -0.4835
  373SOL    HW1 1118   1.022   2.856   2.875 -1.4615 -1.5806  3.1249
  373SOL    HW2 1119   1.060   2.922   2.722 -3.5475  1.6316 -0.7492
  374SOL     OW 1120   0.896   1.802   0.442 -0.0663 -0.1477 -0.3767
  374SOL    HW1 1121   0.937   1.750   0.520  1.3370 -1.0771 -1.3286
  374SOL    HW2 1122   0.873   1.736   0.368 -3.3608 -0.5467  0.1601
  375SOL     OW 1123   0.622   0.601   1.899 -0.4788 -0.5430 -0.2079
  375SOL    HW1 1124   0.595   0.670   1.972  1.6446  2.8851 -2.4440
  375SOL    HW2 1125   0.715   0.563   1.912 -3.4177 -0.9496 -0.4504
  376SOL     OW 1126   0.033   2.513   1.751  0.2627 -0.4887 -0.2692
  376SOL    HW1 1127   0.075   2.596   1.728 -0.9908 -0.0352 -0.5379
  376SOL    HW2 1128   0.052   2.479   1.843 -2.2849 -1.8150  1.1870
  377SOL     OW 1129   2.531   1.456   2.864 -0.2045  0.5371  1.0685
  377SOL    HW1 1130   2.436   1.432   2.838  0.7124 -3.8749  3.1289
  377SOL    HW2 1131   2.587   1.373   2.885 -0.4177  1.0432  1.4055
  378SOL     OW 1132   2.200   2.896   2.916  0.1319  0.2520 -0.8911
  378SOL    HW1 1133   2.239   2.829   2.983  0.7281 -1.2461 -1.3964
  378SOL    HW2 1134   2.122   2.854   2.862  1.7023  0.1783  0.4943
  379SOL     OW 1135   1.859   0.524   0.980 -0.0617  0.1771  0.0192
  379SOL    HW1 1136   1.872   0.573   1.062  0.4818  0.6915 -4.4580
  379SOL    HW2 1137   1.777   0.562   0.927 -0.3860 -0.4789  1.3832
  380SOL     OW 1138   2.560   2.058   1.687 -0.0033 -0.6766  0.0773
  380SOL    HW1 1139   2.540   2.022   1.781  0.7632  1.5421 -0.7209
  380SOL    HW2 1140   2.638   2.003   1.641  0.7978  0.2424 -1.7509
  381SOL     OW 1141   2.286   1.253   2.231  0.1579 -0.3555 -0.0275
  381SOL    HW1 1142   2.365   1.255   2.166 -3.1175  1.1751 -1.0720
  381SOL    HW2 1143   2.257   1.340   2.272  1.2581 -2.2525  0.4382
  382SOL     OW 1144   2.968   2.615   2.568 -0.0084 -0.1310  0.3954
  382SOL    HW1 1145   2.889   2.614   2.632 -1.0578  1.6750 -1.8883
  382SOL    HW2 1146   2.964   2.695   2.500  0.6613  1.6032  0.8370
  383SOL     OW 1147   0.961   1.375   0.071 -0.5723  0.3361 -0.2935
  383SOL    HW1 1148   0.948   1.372   3.043  1.0168 -1.1969  1.0071
  383SOL    HW2 1149   0.956   1.468   0.113 -0.6147 -0.6164  1.4606
  384SOL     OW 1150   1.436   1.899   1.642  0.4455  0.2497 -0.2079
  384SOL    HW1 1151   1.409   1.986   1.682  0.1873 -1.2111 -2.9048
  384SOL    HW2 1152   1.485   1.832   1.707  2.0003  1.9572  0.9192
  385SOL     OW 1153   1.606   2.824   0.528  0.1788 -0.0054 -0.3002
  385SOL    HW1 1154   1.579   2.922   0.517  1.7392  0.2483 -1.2207
  385SOL    HW2 1155   1.709   2.813   0.513 -0.8638 -2.9610  0.6472
  386SOL     OW 1156   1.935   1.466   0.582 -0.5507  0.0284 -0.8471
  386SOL    HW1 1157   2.041   1.468   0.593 -1.3223  1.1054  1.7897
  386SOL    HW2 1158   1.910   1.505   0.492 -2.2175 -0.7118  1.5277
  387SOL     OW 1159   2.869   2.302   1.577 -0.4352  0.1162 -0.0777
  387SOL    HW1 1160   2.861   2.284   1.677 -0.4152  1.8321 -1.6436
  387SOL    HW2 1161   2.783   2.334   1.541 -0.9939 -1.8884 -1.5259
  388SOL     OW 1162   2.905   1.192   1.618  0.1333  0.0015 -0.5076
  388SOL    HW1 1163   2.947   1.250   1.693  1.7740 -2.2477  0.0776
  388SOL    HW2 1164   2.974   1.119   1.597 -2.4546 -1.7574 -0.5394
  389SOL     OW 1165   1.827   0.453   0.183  0.3611 -0.4948 -0.2264
  389SOL    HW1 1166   1.759   0.403   0.241  1.1023  1.8824  1.0274
  389SOL    HW2 1167   1.915   0.453   0.231 -0.1856  1.6171  0.1608
  390SOL     OW 1168   1.176   1.633   2.937 -0.2068 -0.0362 -0.6502
  390SOL    HW1 1169   1.120   1.654   3.019 -0.8451  1.4217 -0.7405
  390SOL    HW2 1170   1.121   1.600   2.862  0.4149 -0.5422  1.5521
  391SOL     OW 1171   1.265   2.084   0.050  0.4595 -0.3044 -0.1389
  391SOL    HW1 1172   1.244   2.179   0.019  1.4861  2.0087  0.5688
  391SOL    HW2 1173   1.352   2.058   3.073 -0.7839  0.8079  0.2967
  392SOL     OW 1174   0.109   2.423   1.988 -0.3321 -0.2008 -0.2330
  392SOL    HW1 1175   0.192   2.458   2.037  0.2645  2.5796 -0.3366
  392SOL    HW2 1176   0.051   2.356   2.042 -1.5046  0.5513  0.9918
  393SOL     OW 1177   1.349   2.033   0.312 -0.2637  0.2362  0.5910
  393SOL    HW1 1178   1.434   2.083   0.345  0.8358  0.7656 -0.4874
  393SOL    HW2 1179   1.322   2.076   0.222  0.4542 -0.1288 -0.7261
  394SOL     OW 1180   0.628   0.537   2.305  0.0993 -0.0903 -0.1336
  394SOL    HW1 1181   0.726   0.565   2.290  1.8923  1.2817  1.9604
  394SOL    HW2 1182   0.621   0.482   2.388 -0.6187 -1.2432  0.2220
  395SOL     OW 1183   0.599   1.259   1.309  0.0752  0.2643  0.5777
  395SOL    HW1 1184   0.676   1.241   1.374  1.7215 -0.4498  0.4308
  395SOL    HW2 1185   0.621   1.317   1.229 -1.0186 -1.6480 -1.6784
  396SOL     OW 1186   1.936   1.144   2.118 -0.3763 -0.0858 -0.0562
  396SOL    HW1 1187   1.843   1.107   2.136 -0.0700  0.4016 -1.6008
  396SOL    HW2 1188   1.948   1.239   2.162 -1.7284  0.2811  0.0189
  397SOL     OW 1189   0.639   0.602   0.007 -0.3044 -0.4639 -0.2469
  397SOL    HW1 1190   0.597   0.622   2.987  1.3841 -1.1985  1.6411
  397SOL    HW2 1191   0.581   0.539   0.058 -0.8757  0.2384  0.2364
  398SOL     OW 1192   1.128   2.290   2.984  0.2672  0.1822  0.4254
  398SOL    HW1 1193   1.038   2.240   2.981  0.4645  0.4892 -0.1463
  398SOL    HW2 1194   1.136   2.364   3.054  1.1076  1.0155 -1.4744
  399SOL     OW 1195   1.585   1.988   2.355  0.4493 -0.2018 -0.0642
  399SOL    HW1 1196   1.554   1.892   2.372 -1.6992  1.8669 -2.2912
  399SOL    HW2 1197   1.641   1.992   2.271  3.8259  0.3816  2.0681
  400SOL     OW 1198   2.221   1.762   1.256  0.0225 -0.3983 -0.4633
  400SOL    HW1 1199   2.184   1.719   1.170 -3.3417  0.4718  0.6484
  400SOL    HW2 1200   2.250   1.690   1.323 -0.2883 -2.0669  0.8110
  401SOL     OW 1201   1.117   1.400   1.003 -0.2416  0.3007  0.5970
  401SOL    HW1 1202   1.091   1.484   1.053  1.4926  0.5207 -0.5418
  401SOL    HW2 1203   1.194   1.416   0.939 -0.4246 -1.9245  0.1973
  402SOL     OW 1204   0.140   2.725   2.266 -0.1566 -0.4795  0.0115
  402SOL    HW1 1205   0.165   2.693   2.361  0.7414 -2.1320 -3.4465
  402SOL    HW2 1206   0.218   2.748   2.205 -1.8744 -1.5835  0.5481
  403SOL     OW 1207   2.753   1.921   1.548 -0.0118  0.0804  0.0759
  403SOL    HW1 1208   2.781   1.860   1.622  0.4447  0.4017  1.2325
  403SOL    HW2 1209   2.723   1.873   1.465 -0.5570  1.2500 -1.1993
  404SOL     OW 1210   2.058   2.142   1.141  0.7944  0.0117 -0.2224
  404SOL    HW1 1211   2.151   2.179   1.120 -0.2158 -1.6243  2.4821
  404SOL    HW2 1212   2.047   2.131   1.243 -0.2841  0.6690  0.5087
  405SOL     OW 1213   2.461   0.390   2.774  0.1022 -0.7780  0.3595
  405SOL    HW1 1214   2.491   0.298   2.808  2.3162 -1.2003  0.1291
  405SOL    HW2 1215   2.539   0.437   2.728  1.3382  0.9737  3.2351
  406SOL     OW 1216   0.981   1.439   2.401 -0.1341 -0.0383 -0.4285
  406SOL    HW1 1217   0.926   1.510   2.452 -0.0287  2.0668 -1.0015
  406SOL    HW2 1218   1.048   1.391   2.459  1.8945  1.5120 -0.3056
  407SOL     OW 1219   1.855   2.518   0.191 -0.4122  0.3934  0.2857
  407SOL    HW1 1220   1.859   2.498   0.286  1.7101  1.8441  0.1943
  407SOL    HW2 1221   1.767   2.569   0.176 -5.0274 -0.3346 -0.4146
  408SOL     OW 1222   0.214   2.854   0.945 -0.4218  0.1302 -0.5397
  408SOL    HW1 1223   0.136   2.921   0.928 -1.4823  0.8195 -1.0319
  408SOL    HW2 1224   0.178   2.758   0.954  1.1631 -0.9363  2.8852
  409SOL     OW 1225   2.226   1.989   0.784 -0.2732 -0.4717  0.1459
  409SOL    HW1 1226   2.189   1.894   0.805  0.1079 -1.3782  0.1358
  409SOL    HW2 1227   2.159   2.035   0.725 -0.6240  0.0397  0.2681
  410SOL     OW 1228   2.336   2.043   3.024  0.0896  0.5437  0.0159
  410SOL    HW1 1229   2.435   2.030   2.997 -0.7012  0.8917 -3.7488
  410SOL    HW2 1230   2.267   2.019   2.949 -1.1614 -2.3132  1.6509
  411SOL     OW 1231   0.143   3.005   0.312 -0.5909  0.0345  0.2576
  411SOL    HW1 1232   0.244   3.001   0.319 -0.0345 -0.1122 -1.7323
  411SOL    HW2 1233   0.096   0.004   0.363 -0.0203 -0.9914 -0.7354
  412SOL     OW 1234   1.558   2.555   0.248  0.2578 -0.1560 -0.1204
  412SOL    HW1 1235   1.527   2.635   0.193  3.1040 -1.7921  0.9074
  412SOL    HW2 1236   1.515   2.566   0.342  2.4942  0.5138 -0.8215
  413SOL     OW 1237   2.037   0.466   2.031 -0.0257  0.2231  0.0335
  413SOL    HW1 1238   2.021   0.564   1.998  0.1179  0.2420 -0.3516
  413SOL    HW2 1239   1.962   0.439   2.093 -0.4979  3.6293  0.3743
  414SOL     OW 1240   0.061   0.387   0.565  0.0334  0.3915 -0.1199
  414SOL    HW1 1241   0.140   0.351   0.625  1.1592  2.1846 -0.0721
  414SOL    HW2 1242   0.103   0.414   0.471 -0.7753  2.7986 -1.6940
  415SOL     OW 1243   0.319   1.742   1.304 -0.5779  0.1406  0.4763
  415SOL    HW1 1244   0.285   1.709   1.213 -0.9224 -0.9306  0.2443
  415SOL    HW2 1245   0.262   1.702   1.374  0.2276  1.8718  0.6883
  416SOL     OW 1246   0.123   2.967   0.043  0.1698 -0.7124  0.0294
  416SOL    HW1 1247   0.073   3.043   3.068 -1.0169 -1.4567 -1.8519
  416SOL    HW2 1248   0.150   2.990   0.138 -0.8526 -0.9798  1.2839
  417SOL     OW 1249   2.262   3.041   1.200  0.0264  0.0024 -0.2098
  417SOL    HW1 1250   2.169   3.073   1.198  2.5026 -0.4275  1.2830
  417SOL    HW2 1251   2.327   0.043   1.199  1.1943 -2.8660 -2.8311
  418SOL     OW 1252   0.645   0.397   2.539 -0.0420 -0.5787  0.0833
  418SOL    HW1 1253   0.708   0.457   2.600  2.4132  2.3834  1.2423
  418SOL    HW2 1254   0.567   0.349   2.589 -0.5610 -0.8587 -0.3850
  419SOL     OW 1255   0.290   1.089   0.833 -0.1466  0.1176 -0.3520
  419SOL    HW1 1256   0.318   1.007   0.775 -0.8832 -2.1145 -3.1716
  419SOL    HW2 1257   0.191   1.082   0.856 -0.1205  2.3175 -0.2925
  420SOL     OW 1258   1.808   1.987   0.849 -0.2358  0.0959  0.1831
  420SOL    HW1 1259   1.801   1.942   0.758  0.6800 -0.3426 -1.8165
  420SOL    HW2 1260   1.875   1.930   0.908  2.9542  0.0838  2.3602
  421SOL     OW 1261   1.694   1.804   2.777  0.4847 -0.1712 -0.7046
  421SOL    HW1 1262   1.711   1.902   2.778 -1.6865 -2.0519  0.7393
  421SOL    HW2 1263   1.695   1.764   2.685 -0.4247  0.0542  0.9703
  422SOL     OW 1264   2.807   0.427   3.013  0.0444  0.2772  0.3333
  422SOL    HW1 1265   2.801   0.516   2.958 -0.1331  1.3645 -0.1815
  422SOL    HW2 1266   2.773   0.442   0.031  2.3816  0.6128 -2.0286
  423SOL     OW 1267   1.356   1.741   0.840  0.5809  0.3972 -0.4778
  423SOL    HW1 1268   1.409   1.825   0.850 -2.2988 -2.3486 -2.5475
  423SOL    HW2 1269   1.406   1.679   0.778  1.2447 -1.0588 -0.8063
  424SOL     OW 1270   0.392   1.593   1.646 -0.3627  0.1516 -0.4550
  424SOL    HW1 1271   0.361   1.533   1.727 -0.2819 -1.1619  4.0127
  424SOL    HW2 1272   0.475   1.645   1.666 -2.7636 -3.3820 -2.3915
  425SOL     OW 1273   2.704   2.712   1.909  0.4867 -0.2612 -0.1207
  425SOL    HW1 1274   2.760   2.635   1.870 -0.1543  2.2117  2.1013
  425SOL    HW2 1275   2.650   2.684   1.989  1.7586  0.4375  0.7881
  426SOL     OW 1276   1.929   2.847   0.473 -0.5389  0.3855 -0.6105
  426SOL    HW1 1277   1.965   2.820   0.570 -0.3364  0.7470 -0.5665
  426SOL    HW2 1278   2.007   2.842   0.408 -0.9990 -1.4969  0.9123
  427SOL     OW 1279   0.379   0.754   2.686 -0.5453 -0.1504  0.2571
  427SOL    HW1 1280   0.362   0.820   2.609 -1.0340  1.1980 -0.6893
  427SOL    HW2 1281   0.346   0.793   2.773  0.2194 -0.1752  0.8065
  428SOL     OW 1282   1.968   1.245   0.257  0.0885 -0.2122 -0.4263
  428SOL    HW1 1283   1.867   1.230   0.230 -3.9459 -1.7571  0.9369
  428SOL    HW2 1284   2.007   1.329   0.213 -0.5677 -0.0065 -0.7283
  429SOL     OW 1285   2.921   0.241   0.271  0.1682 -0.0942 -0.1112
  429SOL    HW1 1286   2.937   0.229   0.370 -0.4495 -0.5421  0.8497
  429SOL    HW2 1287   3.009   0.249   0.219  0.6644 -1.0101 -1.0904
  430SOL     OW 1288   1.038   2.930   1.917 -0.3349 -1.0874 -0.1039
  430SOL    HW1 1289   0.937   2.926   1.894 -0.1293  1.3574 -1.2626
  430SOL    HW2 1290   1.087   2.843   1.929  1.0292 -0.7700  0.6514
  431SOL     OW 1291   2.930   1.744   1.252  0.0368 -0.0574  0.4808
  431SOL    HW1 1292   2.837   1.760   1.275 -1.1086 -1.1269 -0.4999
  431SOL    HW2 1293   2.987   1.801   1.315 -1.0106 -0.5893 -0.4406
  432SOL     OW 1294   2.161   2.700   1.769 -0.9883  0.2387  0.3254
  432SOL    HW1 1295   2.237   2.646   1.732 -1.2817  1.1097 -0.3210
  432SOL    HW2 1296   2.071   2.679   1.732  0.2758  2.6167 -0.8140
  433SOL     OW 1297   1.047   1.655   0.119 -0.6459 -0.0396  0.3899
  433SOL    HW1 1298   1.008   1.609   0.200 -0.4022 -0.9003 -0.0316
  433SOL    HW2 1299   1.035   1.756   0.115  2.2300  0.5594 -0.2692
  434SOL     OW 1300   0.107   2.128   2.352 -0.1651  0.6236 -0.5768
  434SOL    HW1 1301   0.160   2.040   2.331  1.9933 -2.3996 -0.8979
  434SOL    HW2 1302   0.071   2.121   2.449  1.3791 -1.8842  1.8727
  435SOL     OW 1303   0.318   0.567   0.596 -0.3519  0.2911  0.2835
  435SOL    HW1 1304   0.267   0.539   0.515  0.3695 -1.1384 -1.1061
  435SOL    HW2 1305   0.409   0.527   0.591  0.9066  0.1742  0.2141
  436SOL     OW 1306   0.439   2.597   1.737  0.6368  0.3749 -0.1528
  436SOL    HW1 1307   0.431   2.511   1.786 -0.3375  2.2859  1.3689
  436SOL    HW2 1308   0.344   2.619   1.699 -1.6171 -1.3543  3.7465
  437SOL     OW 1309   1.100   2.007   1.461 -0.2336  0.5322 -0.0329
  437SOL    HW1 1310   1.156   2.037   1.538  0.6116  0.8936  2.6882
  437SOL    HW2 1311   1.093   2.083   1.389 -0.3630  2.7942 -1.1054
  438SOL     OW 1312   0.000   2.135   0.653 -0.4372  0.3061 -0.0063
  438SOL    HW1 1313   3.032   2.049   0.689 -2.5930  0.0946  1.6961
  438SOL    HW2 1314   0.080   2.154   0.710 -1.5563  2.1677  1.3037
  439SOL     OW 1315   0.112   0.203   1.122  0.4215  0.4795  0.2384
  439SOL    HW1 1316   0.093   0.170   1.214 -0.5260  2.0427 -5.6307
  439SOL    HW2 1317   0.183   0.278   1.119  2.0648  2.8860 -1.0548
  440SOL     OW 1318   2.849   2.518   2.192  0.2260 -0.0436  0.1329
  440SOL    HW1 1319   2.910   2.592   2.156 -1.8867 -0.2102 -0.8456
  440SOL    HW2 1320   2.894   2.481   2.275  1.0036  1.3835 -1.1048
  441SOL     OW 1321   2.872   0.650   1.811 -0.3412 -0.2593 -0.3632
  441SOL    HW1 1322   2.842   0.558   1.841  1.3371  3.2111  1.7741
  441SOL    HW2 1323   2.787   0.703   1.786 -1.9915  0.5519 -1.4055
  442SOL     OW 1324   1.678   2.218   2.933 -0.3057  0.6473  0.1587
  442SOL    HW1 1325   1.725   2.199   3.018 -2.7781 -0.7421  0.0412
  442SOL    HW2 1326   1.578   2.217   2.948 -0.4336 -0.5478 -0.9860
  443SOL     OW 1327   0.351   0.887   0.287  0.2029  0.9309  1.2840
  443SOL    HW1 1328   0.262   0.894   0.327  3.1676  1.3712 -1.8003
  443SOL    HW2 1329   0.421   0.845   0.351 -1.3843  1.4667 -3.3093
  444SOL     OW 1330   1.511   1.592   2.190 -0.2704 -0.4896  0.5529
  444SOL    HW1 1331   1.573   1.537   2.133 -1.0416 -2.5042 -0.4878
  444SOL    HW2 1332   1.460   1.658   2.131 -0.8856  1.7127 -0.3063
  445SOL     OW 1333   0.048   2.646   0.945  0.9405  0.1271  0.5351
  445SOL    HW1 1334   3.046   2.701   0.992 -1.0208  1.9935 -1.4648
  445SOL    HW2 1335   0.010   2.579   0.877  0.7082 -0.9869  0.0494
  446SOL     OW 1336   2.175   1.187   1.466  0.0075  0.0332 -0.2936
  446SOL    HW1 1337   2.097   1.246   1.498 -1.7016  0.2759 -2.2897
  446SOL    HW2 1338   2.233   1.243   1.402  0.7299 -0.8023  2.8440
  447SOL     OW 1339   0.224   0.588   3.066  0.0294 -0.1355  0.0366
  447SOL    HW1 1340   0.162   0.604   0.070  0.3733  0.7443 -3.6505
  447SOL    HW2 1341   0.173   0.545   2.995 -2.4785 -0.8959  0.8819
  448SOL     OW 1342   1.346   2.134   1.735 -0.0395 -0.4892 -0.3042
  448SOL    HW1 1343   1.335   2.210   1.667  0.4687  2.1259  2.7768
  448SOL    HW2 1344   1.374   2.178   1.825  0.5665 -0.7558  1.6626
  449SOL     OW 1345   1.160   1.414   0.583 -0.4501  0.0325  0.5526
  449SOL    HW1 1346   1.214   1.429   0.670  2.6052  3.1552  0.6821
  449SOL    HW2 1347   1.221   1.410   0.502 -2.0920 -1.4257  2.8406
  450SOL     OW 1348   2.495   1.863   1.970  0.0303  1.0140  0.0461
  450SOL    HW1 1349   2.412   1.903   2.014  1.1114  1.6411  0.8430
  450SOL    HW2 1350   2.518   1.780   2.022  0.5104  4.7756 -0.1782
  451SOL     OW 1351   2.817   1.302   2.837 -0.5120 -0.4905 -0.5143
  451SOL    HW1 1352   2.915   1.309   2.807  1.7840  0.9168 -2.5209
  451SOL    HW2 1353   2.773   1.215   2.807 -1.8637  1.2747 -2.3630
  452SOL     OW 1354   1.318   1.010   1.111  0.3498  0.2606  0.6782
  452SOL    HW1 1355   1.228   1.058   1.136 -0.0969 -1.5862  1.4152
  452SOL    HW2 1356   1.398   1.058   1.155  0.2361 -0.3981 -1.6634
  453SOL     OW 1357   1.924   1.072   1.084  0.2475  0.0537  0.2868
  453SOL    HW1 1358   2.007   1.028   1.119 -0.6407  1.8915 -1.2969
  453SOL    HW2 1359   1.868   1.108   1.162 -0.4387  3.0068  1.0340
  454SOL     OW 1360   2.976   0.797   0.509  0.1873  0.3123 -0.4213
  454SOL    HW1 1361   2.938   0.699   0.512 -1.2460  0.2863  0.2878
  454SOL    HW2 1362   2.905   0.857   0.471 -1.7873 -1.6551  4.9519
  455SOL     OW 1363   2.574   2.556   0.962  0.0066  0.1559  0.1242
  455SOL    HW1 1364   2.637   2.591   0.887 -1.4457 -1.2880 -1.2536
  455SOL    HW2 1365   2.483   2.594   0.954  0.7196  0.9808  3.9292
  456SOL     OW 1366   0.564   2.859   1.178 -0.4774 -0.0816  0.1057
  456SOL    HW1 1367   0.597   2.799   1.099 -0.2247  2.7120  1.9416
  456SOL    HW2 1368   0.643   2.890   1.236  0.7762 -1.1296 -0.1562
  457SOL     OW 1369   1.763   0.065   0.857 -0.2219 -0.1632 -0.7537
  457SOL    HW1 1370   1.792   0.159   0.832  0.0558 -0.1257  1.6418
  457SOL    HW2 1371   1.840   0.004   0.880 -0.9666  1.3409  1.0357
  458SOL     OW 1372   2.695   0.258   0.744 -0.0264 -0.5573 -0.0989
  458SOL    HW1 1373   2.697   0.191   0.818 -0.8283  1.8441  1.3638
  458SOL    HW2 1374   2.723   0.351   0.778  0.0797 -1.0352  1.4423
  459SOL     OW 1375   2.043   0.748   3.046  0.2409  0.3294 -0.3137
  459SOL    HW1 1376   2.062   0.690   2.965 -1.6231 -0.9765  2.0922
  459SOL    HW2 1377   2.084   0.695   0.051  0.8080 -1.1032  0.3406
  460SOL     OW 1378   2.934   2.282   2.821 -0.1905 -0.1410  0.2449
  460SOL    HW1 1379   2.936   2.385   2.834 -1.9214  1.9140  0.8747
  460SOL    HW2 1380   2.971   2.234   2.902  1.0285  0.0430  0.0576
  461SOL     OW 1381   0.535   1.720   0.399 -1.0898  0.0894  0.4873
  461SOL    HW1 1382   0.597   1.697   0.480  0.8257 -0.8539  2.2819
  461SOL    HW2 1383   0.515   1.638   0.345 -0.4020  0.1970  1.7910
  462SOL     OW 1384   2.488   2.492   0.555 -0.3403 -0.1798 -0.4926
  462SOL    HW1 1385   2.590   2.480   0.539  0.3186  2.4023 -0.9583
  462SOL    HW2 1386   2.441   2.516   0.469  1.9417  2.8686  3.2950
  463SOL     OW 1387   2.899   0.544   0.583 -0.2755 -0.0319 -0.5366
  463SOL    HW1 1388   2.858   0.542   0.677 -0.5484 -0.4175  1.4368
  463SOL    HW2 1389   2.988   0.487   0.579  2.1053  0.1961 -2.6811
  464SOL     OW 1390   1.125   2.747   0.359 -0.5101  0.3917  0.2666
  464SOL    HW1 1391   1.024   2.760   0.363 -0.2223  0.6908 -0.5191
  464SOL    HW2 1392   1.162   2.699   0.442  1.2220 -1.4853  1.0731
  465SOL     OW 1393   2.315   0.890   0.523 -0.2240  0.4549 -0.1960
  465SOL    HW1 1394   2.226   0.836   0.525 -1.8684 -0.8928  2.2444
  465SOL    HW2 1395   2.293   0.984   0.502 -2.9310 -1.3996  0.0969
  466SOL     OW 1396   2.452   2.896   0.110  0.1229  0.4899  0.1831
  466SOL    HW1 1397   2.460   2.980   0.054  0.7007 -3.7847  1.2660
  466SOL    HW2 1398   2.416   2.820   0.052  0.8607  2.2873 -1.8942
  467SOL     OW 1399   1.203   0.606   1.629  0.3700 -0.0846  0.1478
  467SOL    HW1 1400   1.198   0.707   1.645 -1.4309  0.5940  1.9095
  467SOL    HW2 1401   1.192   0.595   1.531 -0.9671 -0.9278  0.3136
  468SOL     OW 1402   0.365   0.570   2.233  0.2892  0.7704  0.2722
  468SOL    HW1 1403   0.464   0.546   2.236  0.6226  3.0015  0.0846
  468SOL    HW2 1404   0.342   0.632   2.150 -1.8009  1.4650 -1.9129
  469SOL     OW 1405   0.755   3.006   2.696 -0.1895 -0.5172 -0.2103
  469SOL    HW1 1406   0.671   2.947   2.675  0.1711 -1.7459 -0.1317
  469SOL    HW2 1407   0.833   2.984   2.637  2.4105  0.4592  2.2390
  470SOL     OW 1408   1.976   1.305   2.554  0.2637  0.7272  0.1236
  470SOL    HW1 1409   2.045   1.332   2.483  0.0768  3.0280  2.2307
  470SOL    HW2 1410   1.961   1.206   2.561  0.1644 -0.9966 -1.2952
  471SOL     OW 1411   2.870   1.124   2.532  0.3048  0.3312 -0.6312
  471SOL    HW1 1412   2.819   1.179   2.464  2.9678  2.0679  0.9109
  471SOL    HW2 1413   2.801   1.106   2.608 -1.0678  0.4218 -1.0337
  472SOL     OW 1414   0.539   2.369   0.310  0.4063  0.5100 -0.7379
  472SOL    HW1 1415   0.504   2.464   0.333  0.0512  1.5513  1.2416
  472SOL    HW2 1416   0.478   2.302   0.356  1.8175 -1.3644 -0.5387
  473SOL     OW 1417   0.670   0.161   2.882  0.6303 -0.5947  0.2507
  473SOL    HW1 1418   0.683   0.080   2.818  1.9610 -0.8127 -0.8476
  473SOL    HW2 1419   0.636   0.135   2.976  1.6465  0.3776  1.3908
  474SOL     OW 1420   1.711   0.344   2.133  0.6165  0.0324 -0.0153
  474SOL    HW1 1421   1.647   0.281   2.183 -1.8908 -2.2683 -1.0997
  474SOL    HW2 1422   1.667   0.365   2.041 -0.0413 -1.0513  0.1174
  475SOL     OW 1423   0.883   2.852   0.297 -0.0458 -0.5540  0.0948
  475SOL    HW1 1424   0.837   2.919   0.365  1.1064 -1.7939  0.2007
  475SOL    HW2 1425   0.920   2.898   0.216  0.5566  0.2819  1.6929
  476SOL     OW 1426   0.349   1.210   1.145  0.3445  0.7796 -0.1708
  476SOL    HW1 1427   0.398   1.178   1.230 -0.7185 -0.8122  0.8263
  476SOL    HW2 1428   0.418   1.245   1.073  1.2332  0.1736 -1.7608
  477SOL     OW 1429   1.537   2.044   1.198  0.0383 -0.0183  0.3328
  477SOL    HW1 1430   1.583   2.134   1.214 -1.9797 -1.0685 -0.3191
  477SOL    HW2 1431   1.547   1.987   1.282  0.2254 -0.5339 -0.6512
  478SOL     OW 1432   0.810   1.389   2.186 -0.2039 -0.2060  0.3503
  478SOL    HW1 1433   0.871   1.326   2.130  1.2145 -3.4447 -0.1744
  478SOL    HW2 1434   0.866   1.413   2.267  2.2507  1.1827  0.3788
  479SOL     OW 1435   0.533   0.116   1.123 -0.2810 -0.3519 -0.0917
  479SOL    HW1 1436   0.455   0.063   1.165 -0.6421 -0.7044  2.6166
  479SOL    HW2 1437   0.527   0.127   1.020  1.7003 -0.0230 -3.5776
  480SOL     OW 1438   2.483   2.438   0.104 -0.1577  0.4108  0.4327
  480SOL    HW1 1439   2.549   2.361   0.113 -0.5836 -2.6122  0.4145
  480SOL    HW2 1440   2.520   2.492   0.026 -2.0593  1.3943  0.1131
  481SOL     OW 1441   2.874   0.121   1.164  0.2072 -0.2377 -0.3420
  481SOL    HW1 1442   2.918   0.198   1.116 -1.8383 -2.1055 -1.0047
  481SOL    HW2 1443   2.930   0.087   1.240 -2.3901 -0.6113 -2.1340
  482SOL     OW 1444   1.554   2.482   1.982  0.1214 -0.2160  0.0834
  482SOL    HW1 1445   1.560   2.564   2.040 -1.9795 -0.1233  0.1922
  482SOL    HW2 1446   1.566   2.499   1.882  0.3785 -2.4917  0.2468
  483SOL     OW 1447   0.475   1.398   2.568  0.2272 -0.0192 -0.1613
  483SOL    HW1 1448   0.493   1.307   2.608  1.3298  0.9373 -0.2626
  483SOL    HW2 1449   0.450   1.398   2.468 -1.1732 -0.2726  0.1923
  484SOL     OW 1450   1.108   1.605   2.245 -0.7050 -0.1054  0.2514
  484SOL    HW1 1451   1.114   1.554   2.155  0.9946  0.6201 -0.1570
  484SOL    HW2 1452   1.075   1.533   2.318 -1.8299 -1.2065  2.4149
  485SOL     OW 1453   2.820   0.141   2.924  0.0333 -0.6672  0.2877
  485SOL    HW1 1454   2.819   0.241   2.911  3.1031 -3.5094  2.1624
  485SOL    HW2 1455   2.822   0.114   3.026 -1.6795 -0.3803  0.7354
  486SOL     OW 1456   1.582   0.010   0.541 -0.4066  0.0028  0.3106
  486SOL    HW1 1457   1.662   0.070   0.527  0.1969  1.8249  1.9132
  486SOL    HW2 1458   1.538   0.031   0.629 -1.8973 -3.2805  2.2989
  487SOL     OW 1459   1.157   2.417   0.808 -0.7930  0.4720 -0.6446
  487SOL    HW1 1460   1.113   2.328   0.827 -2.3428  1.0754  0.2486
  487SOL    HW2 1461   1.093   2.492   0.824  2.9809 -1.9837  1.5797
  488SOL     OW 1462   2.178   1.157   0.395 -0.0281  0.3350  0.2962
  488SOL    HW1 1463   2.251   1.229   0.397 -1.7579  0.5127 -1.0849
  488SOL    HW2 1464   2.110   1.174   0.319 -2.5899  1.1509 -1.3154
  489SOL     OW 1465   1.164   2.854   1.159 -0.3744  0.4394  0.1995
  489SOL    HW1 1466   1.147   2.759   1.190  0.2590  0.7854  2.0128
  489SOL    HW2 1467   1.167   2.918   1.236 -0.3737  0.0520  0.2268
  490SOL     OW 1468   0.777   0.838   0.378 -0.1014 -0.2794 -0.4785
  490SOL    HW1 1469   0.829   0.916   0.422 -0.5350  0.1916  0.7831
  490SOL    HW2 1470   0.821   0.823   0.289 -0.6742  0.2043  1.4259
  491SOL     OW 1471   1.268   3.004   0.409 -0.2498 -0.4170  1.0196
  491SOL    HW1 1472   1.272   3.016   0.511  1.6488  2.5634  1.9306
  491SOL    HW2 1473   1.238   2.913   0.383  0.8856  3.5285  2.2929
  492SOL     OW 1474   1.208   1.262   2.188  0.0518 -0.0828 -0.6495
  492SOL    HW1 1475   1.212   1.279   2.089 -0.9921  1.4247  2.4056
  492SOL    HW2 1476   1.189   1.167   2.213 -0.7762  3.1162 -1.8229
  493SOL     OW 1477   0.146   2.208   0.182 -0.3260 -0.2626  0.0320
  493SOL    HW1 1478   0.179   2.181   0.274  1.4215 -0.8107 -2.5284
  493SOL    HW2 1479   0.210   2.156   0.116  2.3951 -3.4178 -0.4927
  494SOL     OW 1480   2.236   1.609   0.378 -0.1762  0.2364  0.0833
  494SOL    HW1 1481   2.242   1.520   0.421 -3.0929  1.1402 -1.8105
  494SOL    HW2 1482   2.282   1.612   0.291  0.6343  0.2109  2.7089
  495SOL     OW 1483   2.834   0.660   2.869  0.8573  0.0060  0.1916
  495SOL    HW1 1484   2.908   0.676   2.800  0.2465  2.0097  3.9574
  495SOL    HW2 1485   2.840   0.732   2.945  0.5873  1.2096  1.3448
  496SOL     OW 1486   2.990   2.737   2.104 -0.1878 -0.0019 -0.0814
  496SOL    HW1 1487   0.003   2.729   2.161  1.0766 -1.1077  0.0985
  496SOL    HW2 1488   3.000   2.778   2.009 -0.8229 -0.3782 -0.1119
  497SOL     OW 1489   2.632   0.796   0.884  0.4912 -1.0207 -0.7594
  497SOL    HW1 1490   2.540   0.765   0.922 -1.1167 -1.4308 -2.5095
  497SOL    HW2 1491   2.608   0.827   0.789  1.9306  0.6847 -2.0058
  498SOL     OW 1492   0.472   2.320   0.021 -0.0773  0.0057 -0.1058
  498SOL    HW1 1493   0.430   2.227   0.010  1.5859 -1.5884 -2.0984
  498SOL    HW2 1494   0.512   2.334   0.116  2.0538 -2.6836  1.4905
  499SOL     OW 1495   0.766   2.267   0.597 -0.2779  0.7950 -0.1045
  499SOL    HW1 1496   0.800   2.325   0.518  0.4540  0.2252  0.0199
  499SOL    HW2 1497   0.764   2.169   0.574  0.7285  1.6499 -3.1366
  500SOL     OW 1498   0.884   0.301   2.288  0.0804 -0.0538 -0.8078
  500SOL    HW1 1499   0.837   0.237   2.349 -0.2248 -0.5286 -2.9395
  500SOL    HW2 1500   0.872   0.263   2.193 -1.1812  2.2536  1.1079
  501SOL     OW 1501   0.978   0.070   1.342  0.1586 -0.3347  0.0887
  501SOL    HW1 1502   1.045   0.019   1.392  0.6390  0.0935 -1.3558
  501SOL    HW2 1503   0.916   0.123   1.407 -1.7646  0.2605 -0.5346
  502SOL     OW 1504   0.055   0.309   2.123 -0.1784 -0.2133 -0.8243
  502SOL    HW1 1505   0.140   0.279   2.169 -1.5644 -0.0444  0.8563
  502SOL    HW2 1506   0.039   0.407   2.142  0.2987 -0.9240  1.4361
  503SOL     OW 1507   1.994   1.746   2.481  0.2169  0.5179  0.4769
  503SOL    HW1 1508   1.915   1.684   2.507 -2.9339  0.7567 -0.1653
  503SOL    HW2 1509   2.011   1.811   2.554 -0.5743 -2.6659  0.5346
  504SOL     OW 1510   1.874   0.483   1.685  0.3041  0.4479 -0.1254
  504SOL    HW1 1511   1.849   0.518   1.776 -0.0869 -2.7721 -2.1156
  504SOL    HW2 1512   1.971   0.495   1.659 -0.0535 -3.2940 -0.7466
  505SOL     OW 1513   2.707   1.016   1.667  0.2035  0.5034  0.6938
  505SOL    HW1 1514   2.775   1.089   1.649  0.2657 -1.5153 -0.4209
  505SOL    HW2 1515   2.735   0.936   1.604 -2.2868  0.7368 -2.6016
  506SOL     OW 1516   0.355   1.345   2.305 -0.3610 -0.2730 -0.0787
  506SOL    HW1 1517   0.288   1.293   2.365  0.9715  1.7002 -1.9192
  506SOL    HW2 1518   0.313   1.440   2.292 -1.5021 -0.4476 -0.4190
  507SOL     OW 1519   0.398   2.889   2.357 -0.1528  0.4435 -0.1278
  507SOL    HW1 1520   0.421   2.984   2.386  0.5178  2.4276 -0.4068
  507SOL    HW2 1521   0.478   2.828   2.364  0.3490  0.2243 -1.5307
  508SOL     OW 1522   1.324   0.811   1.340 -0.4361  0.3360  0.1559
  508SOL    HW1 1523   1.334   0.909   1.375  1.5007  0.0554 -2.1549
  508SOL    HW2 1524   1.402   0.752   1.379  1.8032  0.6307  0.1518
  509SOL     OW 1525   0.976   1.794   1.350 -0.9052  0.1799  0.2165
  509SOL    HW1 1526   1.043   1.843   1.406  0.2958 -2.0772  0.6241
  509SOL    HW2 1527   0.896   1.762   1.398  3.6216  3.1040 -0.5022
  510SOL     OW 1528   2.525   0.930   2.534  0.3307 -0.5147  0.1101
  510SOL    HW1 1529   2.533   0.902   2.629  0.8110 -0.1604  0.7348
  510SOL    HW2 1530   2.448   0.878   2.479 -1.4576 -1.6300 -3.8641
  511SOL     OW 1531   0.588   1.671   1.267 -0.1463  0.6606 -0.0008
  511SOL    HW1 1532   0.486   1.678   1.276 -0.7291  0.9281 -0.7866
  511SOL    HW2 1533   0.644   1.710   1.343  1.2093  1.6875 -0.5418
  512SOL     OW 1534   2.617   2.438   1.202  0.4981  0.2790 -0.1698
  512SOL    HW1 1535   2.573   2.349   1.188  0.7144  0.0755 -0.0327
  512SOL    HW2 1536   2.621   2.482   1.111 -1.2452  0.5269 -0.5502
  513SOL     OW 1537   0.401   1.412   2.856  0.7389 -0.1880 -0.3991
  513SOL    HW1 1538   0.352   1.327   2.881  1.7460  2.8034  2.5840
  513SOL    HW2 1539   0.459   1.402   2.775 -0.1476 -2.0649 -2.7397
  514SOL     OW 1540   0.163   2.543   2.987 -0.2898  0.3605 -0.5026
  514SOL    HW1 1541   0.086   2.548   3.053 -1.7971 -1.9148  0.3295
  514SOL    HW2 1542   0.238   2.499   3.041  0.8057 -0.4824 -0.0709
  515SOL     OW 1543   1.702   1.037   2.206  0.3697 -0.6684  0.1099
  515SOL    HW1 1544   1.631   1.106   2.223  0.3272  0.9672 -0.1036
  515SOL    HW2 1545   1.727   0.996   2.296 -2.5186 -0.6584  0.7207
  516SOL     OW 1546   2.114   2.103   0.284 -0.5703  0.7915 -0.3606
  516SOL    HW1 1547   2.086   2.006   0.315 -1.6245 -2.2430 -0.8452
  516SOL    HW2 1548   2.217   2.118   0.281 -1.7206  2.6339  0.0970
  517SOL     OW 1549   1.368   1.097   0.356  0.2289 -0.1050  0.5092
  517SOL    HW1 1550   1.389   1.086   0.456  2.3746 -1.9677  1.7055
  517SOL    HW2 1551   1.349   1.195   0.345 -2.1569  2.1764 -0.2171
  518SOL     OW 1552   2.150   2.482   2.097 -0.0692 -0.4095  0.1295
  518SOL    HW1 1553   2.166   2.421   2.176 -2.1495 -1.4527 -0.2348
  518SOL    HW2 1554   2.060   2.526   2.090  1.3723  4.1066  4.4154
  519SOL     OW 1555   1.640   2.307   1.233 -0.5392  0.4488 -0.2821
  519SOL    HW1 1556   1.708   2.365   1.183 -2.2601  0.1335  0.4694
  519SOL    HW2 1557   1.575   2.364   1.284  2.1610  0.9632  2.1427
  520SOL     OW 1558   2.532   2.304   2.772  0.3519 -0.3626  0.1996
  520SOL    HW1 1559   2.534   2.363   2.688 -0.9230 -0.9424 -2.0213
  520SOL    HW2 1560   2.441   2.255   2.774 -0.9412  0.0183 -3.7800
  521SOL     OW 1561   0.271   1.221   2.085  0.1009 -0.1908  0.5610
  521SOL    HW1 1562   0.310   1.303   2.131  0.7448  2.8130  1.0488
  521SOL    HW2 1563   0.184   1.259   2.051  0.6669 -1.4689 -1.9040
  522SOL     OW 1564   1.328   0.423   1.775  0.0102  0.0296  0.1979
  522SOL    HW1 1565   1.269   0.490   1.733 -1.3749  0.0539 -1.7924
  522SOL    HW2 1566   1.351   0.343   1.714 -1.6192 -3.0235 -3.5030
  523SOL     OW 1567   0.448   2.271   0.975  1.0177  0.5149 -0.4877
  523SOL    HW1 1568   0.404   2.175   0.973 -0.9070  0.6013  0.8082
  523SOL    HW2 1569   0.370   2.339   0.981 -2.4509  1.4994  2.1491
  524SOL     OW 1570   1.497   2.580   0.515 -0.3230  0.0632 -0.0849
  524SOL    HW1 1571   1.526   2.681   0.518 -3.3432  1.2133 -0.4268
  524SOL    HW2 1572   1.560   2.521   0.565  0.2215 -0.2264  0.0589
  525SOL     OW 1573   2.209   0.924   1.373  0.4286  0.4413  0.5176
  525SOL    HW1 1574   2.197   1.022   1.392 -0.4935  1.1742  2.6570
  525SOL    HW2 1575   2.304   0.902   1.370 -1.7752  0.8634 -2.6013
  526SOL     OW 1576   0.957   2.631   0.847 -0.3477 -0.0828  0.2502
  526SOL    HW1 1577   0.908   2.649   0.760  2.9065  0.9052  0.8516
  526SOL    HW2 1578   0.997   2.723   0.870 -0.7585 -1.9697  2.2347
  527SOL     OW 1579   2.696   2.232   0.391  0.3760 -0.1055  0.2189
  527SOL    HW1 1580   2.730   2.320   0.435  2.8995  0.7774  1.4705
  527SOL    HW2 1581   2.660   2.172   0.467 -0.7976 -0.5499 -1.2727
  528SOL     OW 1582   1.970   0.502   0.504  0.5771  0.0744 -0.1262
  528SOL    HW1 1583   1.971   0.588   0.559  0.3954  2.1874 -0.3639
  528SOL    HW2 1584   1.894   0.447   0.547  1.9006  1.8590 -0.2068
  529SOL     OW 1585   1.673   1.217   2.614 -0.0530  0.1757 -0.3472
  529SOL    HW1 1586   1.601   1.279   2.653  0.9947 -0.3142 -0.9249
  529SOL    HW2 1587   1.657   1.114   2.619  1.5771 -0.0875 -2.1640
  530SOL     OW 1588   2.437   0.568   0.106 -0.0331 -0.7473 -0.7190
  530SOL    HW1 1589   2.474   0.592   0.013 -0.6157 -0.9484 -0.1459
  530SOL    HW2 1590   2.449   0.645   0.173  0.3914 -1.2640 -0.3345
  531SOL     OW 1591   1.167   1.162   0.010  0.2086 -0.1004  0.7965
  531SOL    HW1 1592   1.098   1.234   0.032  0.8794 -2.0778 -1.6475
  531SOL    HW2 1593   1.138   1.102   3.005  1.5620  2.2598  1.9386
  532SOL     OW 1594   1.592   0.369   0.912 -0.3846  0.3176  0.4464
  532SOL    HW1 1595   1.687   0.335   0.923  1.1301 -0.1093  1.2871
  532SOL    HW2 1596   1.584   0.468   0.876 -0.1563  2.9858 -1.0253
  533SOL     OW 1597   1.094   0.955   2.002  0.1305 -0.2739 -0.1169
  533SOL    HW1 1598   1.122   0.960   2.099 -1.9475  0.2661 -2.2750
  533SOL    HW2 1599   1.165   0.926   1.936  0.4319 -2.0179  1.3904
  534SOL     OW 1600   1.936   0.309   2.502 -0.4567 -0.3298  0.0158
  534SOL    HW1 1601   2.027   0.354   2.491 -2.0428 -2.0893 -0.7265
  534SOL    HW2 1602   1.899   0.328   2.597 -1.1124  1.6727 -0.2475
  535SOL     OW 1603   0.433   0.440   0.338 -0.2513  0.3375  0.0003
  535SOL    HW1 1604   0.437   0.460   0.239 -0.8596  0.5550 -0.9050
  535SOL    HW2 1605   0.441   0.339   0.342  1.0731  2.0110  2.1768
  536SOL     OW 1606   0.952   0.004   0.693 -0.3920  0.2675  0.0674
  536SOL    HW1 1607   1.048   3.047   0.686  2.5200 -0.4406 -0.2297
  536SOL    HW2 1608   0.906   3.053   0.780  0.7648  0.6583  0.7926
  537SOL     OW 1609   1.428   1.171   0.840 -0.1262 -0.2544 -0.3377
  537SOL    HW1 1610   1.371   1.111   0.905  1.0744 -2.2083 -0.6667
  537SOL    HW2 1611   1.525   1.180   0.867 -1.9839 -1.1767  1.7889
  538SOL     OW 1612   2.811   1.968   0.022 -0.0625  0.2615 -0.0239
  538SOL    HW1 1613   2.821   1.931   0.117 -0.1854  0.0035 -1.7950
  538SOL    HW2 1614   2.884   2.031   3.063 -0.4868 -0.1557 -0.8768
  539SOL     OW 1615   2.485   1.809   0.242 -0.0208 -0.2269  0.3995
  539SOL    HW1 1616   2.457   1.802   0.145 -2.1298 -0.7244  1.8207
  539SOL    HW2 1617   2.448   1.899   0.274 -2.3114 -0.6745  1.9423
  540SOL     OW 1618   0.554   2.655   1.463  0.3821 -0.3800  0.3253
  540SOL    HW1 1619   0.505   2.630   1.371 -0.2734  1.9067 -2.9298
  540SOL    HW2 1620   0.492   2.701   1.532  0.2127  1.9285 -3.2341
  541SOL     OW 1621   2.186   3.025   1.944  0.2418 -0.3185  0.3060
  541SOL    HW1 1622   2.203   2.941   1.998  0.2787  0.1848 -0.9082
  541SOL    HW2 1623   2.084   3.032   1.914 -0.4020 -2.0391 -0.8666
  542SOL     OW 1624   2.857   0.222   2.346  0.1598  0.3249  0.1765
  542SOL    HW1 1625   2.878   0.161   2.426 -0.3381  0.4615 -2.2227
  542SOL    HW2 1626   2.898   0.175   2.263  1.2531 -0.0037 -0.6931
  543SOL     OW 1627   0.396   0.390   0.867  0.2424 -0.3007  0.1762
  543SOL    HW1 1628   0.322   0.463   0.871 -0.8956  0.1982 -2.3445
  543SOL    HW2 1629   0.483   0.438   0.848 -1.7329 -1.5061 -1.5431
  544SOL     OW 1630   2.945   2.860   0.995 -0.0975  0.2340  0.6483
  544SOL    HW1 1631   2.999   2.946   0.993  0.7176  0.7111  0.8714
  544SOL    HW2 1632   2.867   2.867   1.061 -4.0183 -0.8504 -0.0108
  545SOL     OW 1633   1.291   2.034   0.854 -0.1590 -0.3633  0.2128
  545SOL    HW1 1634   1.286   2.039   0.752 -0.4200 -0.9906  1.2121
  545SOL    HW2 1635   1.376   1.993   0.889 -0.4561  1.7241  1.4566
  546SOL     OW 1636   1.916   3.001   1.856 -0.2853 -0.3568 -0.1292
  546SOL    HW1 1637   1.858   3.044   1.784 -0.6955  0.5109  0.1676
  546SOL    HW2 1638   1.891   2.905   1.860 -0.4353  1.5992  0.2353
  547SOL     OW 1639   0.286   0.315   2.263  0.0443  0.2891  0.3068
  547SOL    HW1 1640   0.310   0.286   2.356  0.9239  1.6552 -0.8280
  547SOL    HW2 1641   0.296   0.415   2.245  0.8983 -1.7357  1.7330
  548SOL     OW 1642   1.995   1.603   2.796  0.2689  0.5524  0.3263
  548SOL    HW1 1643   1.991   1.612   2.899 -1.2144 -1.2297  2.5720
  548SOL    HW2 1644   1.911   1.546   2.769 -0.8899  1.5422  1.2187
  549SOL     OW 1645   3.071   0.808   0.782  0.1435 -0.5497 -0.1651
  549SOL    HW1 1646   3.039   0.833   0.687 -0.3441  1.0461 -1.9133
  549SOL    HW2 1647   2.992   0.798   0.845 -1.4767 -0.0311  2.6327
  550SOL     OW 1648   1.788   1.806   0.618  0.5178 -0.3075 -0.2241
  550SOL    HW1 1649   1.727   1.765   0.544  2.7773 -0.4148 -0.0123
  550SOL    HW2 1650   1.854   1.866   0.571  0.2086  1.9450  1.0852
  551SOL     OW 1651   0.987   0.251   1.123  0.4750 -0.5702 -0.1527
  551SOL    HW1 1652   0.900   0.304   1.119 -0.6296  1.1049 -0.3707
  551SOL    HW2 1653   0.980   0.175   1.190  2.2786 -0.5809  1.3535
  552SOL     OW 1654   2.609   2.619   2.143 -0.0983 -0.3263 -0.0369
  552SOL    HW1 1655   2.707   2.596   2.159  0.9469  1.9132 -0.4290
  552SOL    HW2 1656   2.538   2.563   2.184 -2.7027  1.2086  0.1608
  553SOL     OW 1657   2.976   2.868   2.458  0.0633  0.5672 -0.1285
  553SOL    HW1 1658   3.039   2.928   2.403 -0.6296 -2.4513  1.4562
  553SOL    HW2 1659   2.882   2.868   2.420  0.5317  0.3435 -1.5079
  554SOL     OW 1660   0.871   2.596   1.255 -0.1126 -0.4727 -0.0118
  554SOL    HW1 1661   0.844   2.659   1.334 -1.2513  0.5637 -1.2332
  554SOL    HW2 1662   0.971   2.574   1.260  0.8043 -0.9268  1.1288
  555SOL     OW 1663   2.423   2.566   1.775  0.0094 -0.3720  0.7362
  555SOL    HW1 1664   2.458   2.527   1.688 -0.9529 -2.2797 -1.3889
  555SOL    HW2 1665   2.450   2.663   1.783  0.3048 -2.4578 -2.3801
  556SOL     OW 1666   1.065   0.131   2.820 -0.1367 -0.3263 -0.5247
  556SOL    HW1 1667   1.098   0.132   2.918  2.9611  0.6790 -0.0065
  556SOL    HW2 1668   1.148   0.139   2.753  0.6735 -0.8876 -0.3137
  557SOL     OW 1669   0.026   1.796   2.318  0.1947  0.4129 -0.2830
  557SOL    HW1 1670   3.068   1.831   2.408  0.3955  0.4952 -0.0210
  557SOL    HW2 1671   0.124   1.822   2.298  0.5162  2.2646  2.1926
  558SOL     OW 1672   2.262   1.069   2.432 -0.1703  0.0407  0.3294
  558SOL    HW1 1673   2.267   0.974   2.394 -0.7425 -2.0488 -1.3215
  558SOL    HW2 1674   2.291   1.142   2.365  0.4577  1.6578 -1.0891
  559SOL     OW 1675   2.429   2.212   2.071 -0.1062  0.3831  0.2627
  559SOL    HW1 1676   2.526   2.244   2.098  2.7472  2.6035  2.1561
  559SOL    HW2 1677   2.393   2.263   1.988  0.4727 -2.4258 -0.4055
  560SOL     OW 1678   2.805   0.670   2.307  0.2258  0.0399 -0.6246
  560SOL    HW1 1679   2.747   0.748   2.335 -1.4700  0.9199  0.4198
  560SOL    HW2 1680   2.844   0.695   2.218 -1.8461 -0.6920 -0.9016
  561SOL     OW 1681   0.645   0.465   0.545  0.0822 -0.7108  0.5947
  561SOL    HW1 1682   0.603   0.464   0.454  1.3452  0.6746  0.1603
  561SOL    HW2 1683   0.741   0.432   0.541 -1.0669  0.6248 -1.2458
  562SOL     OW 1684   1.053   1.422   1.407 -0.4284 -0.2356 -0.8337
  562SOL    HW1 1685   1.034   1.478   1.492  0.8795  1.4616 -0.5741
  562SOL    HW2 1686   0.990   1.343   1.403  0.8956 -2.7326  2.8885
  563SOL     OW 1687   1.523   2.798   2.923  0.5215  0.0934  0.1101
  563SOL    HW1 1688   1.497   2.768   3.019  2.5889  2.6864  4.1266
  563SOL    HW2 1689   1.468   2.879   2.895  0.0985 -1.9789 -0.6343
  564SOL     OW 1690   0.163   2.147   0.873 -0.1169 -0.1815 -0.3897
  564SOL    HW1 1691   0.085   2.191   0.925 -0.2079 -2.8002  1.7959
  564SOL    HW2 1692   0.222   2.095   0.938  0.4426 -0.1035  1.6151
  565SOL     OW 1693   0.675   2.168   2.225 -0.0254  0.2339  0.6849
  565SOL    HW1 1694   0.606   2.168   2.300  0.8320  0.9266 -0.9047
  565SOL    HW2 1695   0.641   2.222   2.143  0.0308  1.9770 -0.5210
  566SOL     OW 1696   1.047   2.678   2.450 -0.1441  0.0854 -0.1172
  566SOL    HW1 1697   1.090   2.624   2.529  0.8234 -4.0805  1.7834
  566SOL    HW2 1698   1.033   2.621   2.368  1.7224  0.4041  1.1204
  567SOL     OW 1699   2.186   2.330   0.849 -0.2617 -0.2606 -0.2150
  567SOL    HW1 1700   2.262   2.289   0.901 -0.8837 -0.7175 -0.3484
  567SOL    HW2 1701   2.126   2.257   0.810 -0.3006  0.7829  0.1616
  568SOL     OW 1702   1.957   0.900   0.320  0.0001  0.3417 -0.5089
  568SOL    HW1 1703   1.934   0.995   0.344 -0.3906 -0.4572  3.2844
  568SOL    HW2 1704   1.990   0.844   0.400  1.7916  0.3415  4.4748
  569SOL     OW 1705   0.067   1.475   2.630  0.2584 -1.1444 -0.5252
  569SOL    HW1 1706   0.071   1.461   2.531  2.9498  0.7820 -0.9311
  569SOL    HW2 1707   0.024   1.397   2.679  1.6262 -0.3907  0.0467
  570SOL     OW 1708   0.030   0.114   1.369 -0.3948  0.1267 -0.5431
  570SOL    HW1 1709   0.015   0.143   1.470  0.4168 -0.9551  2.2233
  570SOL    HW2 1710   0.038   0.014   1.350 -0.8781 -2.6194 -0.4005
  571SOL     OW 1711   0.087   0.579   1.481 -0.4654  0.1215  0.2442
  571SOL    HW1 1712   0.104   0.644   1.402  0.5278  2.1317  0.1126
  571SOL    HW2 1713   0.007   0.511   1.476 -0.9778 -2.0651 -0.3885
  572SOL     OW 1714   2.952   2.493   0.740  0.3460 -0.1441  0.1124
  572SOL    HW1 1715   2.916   2.413   0.794 -2.6588 -2.0901  1.1833
  572SOL    HW2 1716   3.026   2.470   0.675 -2.4239  0.9594  2.1511
  573SOL     OW 1717   0.798   0.819   0.077 -0.4534  0.1100  0.4741
  573SOL    HW1 1718   0.743   0.743   0.038  0.3826 -1.4169 -0.6357
  573SOL    HW2 1719   0.770   0.905   0.026  0.6528 -0.6484 -0.8579
  574SOL     OW 1720   2.870   2.586   2.946 -0.1185  0.3092 -0.0310
  574SOL    HW1 1721   2.802   2.637   2.891 -1.0583 -0.6395  2.8448
  574SOL    HW2 1722   2.952   2.646   2.960  1.6430 -0.2439  0.8868
  575SOL     OW 1723   1.127   2.190   1.258 -0.2656  0.3539  0.3993
  575SOL    HW1 1724   1.038   2.164   1.212 -1.0622 -0.6652 -1.0074
  575SOL    HW2 1725   1.203   2.200   1.189 -2.6816 -3.1196  1.8447
  576SOL     OW 1726   0.330   3.023   1.188 -0.0847  0.3734  0.5069
  576SOL    HW1 1727   0.402   2.953   1.172 -1.6141 -0.7273  1.2264
  576SOL    HW2 1728   0.242   2.994   1.148  2.4545  0.0540 -1.6447
  577SOL     OW 1729   2.159   1.676   1.009 -0.3594 -0.2092  0.0712
  577SOL    HW1 1730   2.083   1.628   0.955 -0.2900 -1.0543 -1.5105
  577SOL    HW2 1731   2.249   1.693   0.958  1.4366 -1.3827 -1.6832
  578SOL     OW 1732   1.641   0.368   0.354  0.7318  0.4565 -0.3052
  578SOL    HW1 1733   1.571   0.436   0.385  1.7189 -0.1342  1.5212
  578SOL    HW2 1734   1.678   0.326   0.436 -0.6263 -1.4441 -0.5243
  579SOL     OW 1735   2.695   1.246   2.348  0.1114  0.0577  0.3774
  579SOL    HW1 1736   2.742   1.333   2.340 -3.2962 -3.0578 -1.2872
  579SOL    HW2 1737   2.626   1.255   2.422  0.5834 -0.1385  0.4588
  580SOL     OW 1738   1.749   0.876   1.483  0.0795 -0.4171 -0.1468
  580SOL    HW1 1739   1.844   0.842   1.500 -3.2817 -0.3437 -3.5071
  580SOL    HW2 1740   1.683   0.800   1.464  1.0175 -0.3720 -1.6628
  581SOL     OW 1741   0.840   1.186   1.459  0.3911 -0.0806 -0.4025
  581SOL    HW1 1742   0.811   1.110   1.522 -0.6967 -0.8392  2.6907
  581SOL    HW2 1743   0.896   1.157   1.377 -0.9627  1.1729  0.1252
  582SOL     OW 1744   0.091   0.020   1.901  0.1413  0.1293  0.1732
  582SOL    HW1 1745   0.017   3.024   1.915 -1.0012 -0.6640 -2.4331
  582SOL    HW2 1746   0.053   0.115   1.900  1.2399 -2.9220 -0.7476
  583SOL     OW 1747   2.155   0.493   1.708  0.6976  0.1410  0.2687
  583SOL    HW1 1748   2.193   0.472   1.801  1.1642  1.2909  2.8442
  583SOL    HW2 1749   2.224   0.501   1.634 -1.5387 -0.4168  0.1161
  584SOL     OW 1750   1.417   2.025   2.673 -0.1274 -0.6411  0.0317
  584SOL    HW1 1751   1.470   1.952   2.632  1.5922  3.5616 -0.6080
  584SOL    HW2 1752   1.338   2.048   2.618  3.7281 -0.3038  1.7001
  585SOL     OW 1753   0.415   2.975   0.318 -0.5347  0.5452  0.0757
  585SOL    HW1 1754   0.477   2.960   0.399  2.2445  0.9481  0.8077
  585SOL    HW2 1755   0.454   2.919   0.239 -0.3025 -1.5750 -2.1455
  586SOL     OW 1756   1.656   2.241   2.442 -0.0406 -0.3589 -0.7118
  586SOL    HW1 1757   1.604   2.278   2.524  0.9486  0.3631  0.2758
  586SOL    HW2 1758   1.629   2.144   2.427 -0.0935 -0.5660 -1.9600
  587SOL     OW 1759   2.615   2.120   0.627 -0.3463  0.1818 -0.2657
  587SOL    HW1 1760   2.544   2.047   0.632  0.3831  2.1292  0.4644
  587SOL    HW2 1761   2.618   2.175   0.712 -0.7324  1.2328 -1.8454
  588SOL     OW 1762   2.392   0.203   1.206  0.2461  0.5214 -0.1600
  588SOL    HW1 1763   2.489   0.227   1.209  0.6819 -0.2063 -0.5450
  588SOL    HW2 1764   2.335   0.267   1.148 -1.6973 -1.8014 -0.3108
  589SOL     OW 1765   0.565   0.571   0.783  0.3578 -0.1375 -0.3728
  589SOL    HW1 1766   0.542   0.672   0.779  2.1242 -0.6481  0.3701
  589SOL    HW2 1767   0.599   0.544   0.694  1.3127  0.4745  0.9007
  590SOL     OW 1768   2.477   1.661   0.662  0.2663  0.4325  0.1642
  590SOL    HW1 1769   2.467   1.647   0.566  1.0197 -0.9488 -1.3357
  590SOL    HW2 1770   2.511   1.575   0.711 -0.9201  1.2786  2.6536
  591SOL     OW 1771   0.399   2.628   1.239 -0.4898 -0.1024 -0.4998
  591SOL    HW1 1772   0.446   2.717   1.209 -3.1596  0.4490 -1.1624
  591SOL    HW2 1773   0.384   2.571   1.156  0.0572  0.4041  0.8916
  592SOL     OW 1774   1.053   0.826   1.242 -0.4825 -0.2884 -0.0289
  592SOL    HW1 1775   1.030   0.826   1.343 -0.4627  1.0164  2.5024
  592SOL    HW2 1776   1.153   0.815   1.228 -2.1792 -1.3645 -0.8296
  593SOL     OW 1777   0.620   1.464   1.100 -0.2296 -0.3311  0.0323
  593SOL    HW1 1778   0.704   1.469   1.044 -1.7946 -1.1656  1.8236
  593SOL    HW2 1779   0.608   1.541   1.167  0.6802  0.6079  1.0368
  594SOL     OW 1780   0.942   2.041   0.329 -0.6899  0.4378 -0.4064
  594SOL    HW1 1781   0.866   2.068   0.267  0.3581  1.8376  3.6522
  594SOL    HW2 1782   0.920   1.956   0.378  2.2021 -0.0181 -0.5491
  595SOL     OW 1783   1.413   0.219   1.054  1.3098  0.0200 -0.4869
  595SOL    HW1 1784   1.342   0.278   1.099 -2.1327  2.2963 -0.7493
  595SOL    HW2 1785   1.477   0.271   0.997 -1.8492 -0.7911 -0.3310
  596SOL     OW 1786   2.971   1.672   0.978  0.4649 -0.0401  0.1947
  596SOL    HW1 1787   2.925   1.708   1.060  1.8033  1.7895  0.2447
  596SOL    HW2 1788   3.070   1.659   0.999  0.1567  1.4688 -0.2125
  597SOL     OW 1789   0.259   2.350   2.654  0.3426 -0.5894 -0.0829
  597SOL    HW1 1790   0.350   2.346   2.702  2.1085  2.1699  1.5184
  597SOL    HW2 1791   0.210   2.433   2.685 -0.6718 -1.1992  0.9967
  598SOL     OW 1792   2.787   2.049   2.137 -0.0692  0.1469 -0.1701
  598SOL    HW1 1793   2.767   2.010   2.231 -0.4384  1.7113 -2.9181
  598SOL    HW2 1794   2.725   2.126   2.114 -0.9175  1.5796  0.5638
  599SOL     OW 1795   0.854   0.426   0.050  0.3641 -0.0457 -0.3519
  599SOL    HW1 1796   0.771   0.486   0.043  1.3563 -1.2782  0.2622
  599SOL    HW2 1797   0.868   0.382   3.036  1.3847  1.0024  0.0811
  600SOL     OW 1798   0.721   2.667   0.191 -0.4030  0.6893 -0.1216
  600SOL    HW1 1799   0.789   2.723   0.244  2.5570  0.2172 -0.7536
  600SOL    HW2 1800   0.642   2.635   0.254 -0.7563  0.0400 -0.0555
  601SOL     OW 1801   0.321   0.880   1.333 -0.5923  0.1512  0.2770
  601SOL    HW1 1802   0.422   0.877   1.331 -2.0965 -0.2098  1.5283
  601SOL    HW2 1803   0.286   0.905   1.238 -0.8455 -0.4800 -0.6486
  602SOL     OW 1804   0.569   2.715   0.941  0.0578 -0.1083 -0.4743
  602SOL    HW1 1805   0.475   2.676   0.942 -1.1313 -1.3893  0.2296
  602SOL    HW2 1806   0.641   2.641   0.955  0.0229 -0.5541 -0.4053
  603SOL     OW 1807   1.001   0.045   2.095  0.8677 -0.1044  0.5762
  603SOL    HW1 1808   1.008   3.038   2.026 -0.8621  1.0240 -0.5079
  603SOL    HW2 1809   0.913   0.089   2.081  1.5928  2.5476  2.4130
  604SOL     OW 1810   0.763   2.569   1.781 -0.1313 -0.2536 -0.2759
  604SOL    HW1 1811   0.786   2.560   1.683 -0.8506  2.8427  0.2964
  604SOL    HW2 1812   0.681   2.627   1.804 -0.2117 -2.7125 -0.7376
  605SOL     OW 1813   1.895   0.687   1.930 -0.1271  0.3756  0.1522
  605SOL    HW1 1814   1.941   0.759   1.867 -0.7812  3.2808 -2.8867
  605SOL    HW2 1815   1.828   0.720   1.998 -0.5239  1.5898 -1.0461
  606SOL     OW 1816   2.409   2.876   2.746  0.7103  0.1871 -0.0145
  606SOL    HW1 1817   2.332   2.892   2.810 -0.2275  1.4265 -0.7305
  606SOL    HW2 1818   2.456   2.959   2.713  0.2225 -0.3102  0.3754
  607SOL     OW 1819   0.726   0.755   1.367  0.0475  0.2750 -0.2783
  607SOL    HW1 1820   0.677   0.843   1.342  0.0660  1.3240 -4.4709
  607SOL    HW2 1821   0.719   0.730   1.466  1.3624  0.6469  0.7059
  608SOL     OW 1822   0.202   1.922   2.683  0.5337 -0.0848  0.0468
  608SOL    HW1 1823   0.271   1.993   2.651  1.4303 -0.2021 -0.7347
  608SOL    HW2 1824   0.240   1.828   2.672  1.1138  1.6191  1.6421
  609SOL     OW 1825   1.415   1.050   0.088  0.4749  0.0184  0.3756
  609SOL    HW1 1826   1.409   1.057   0.185 -0.2126  1.1158 -4.2753
  609SOL    HW2 1827   1.321   1.072   0.053 -1.2331 -0.0569 -0.6606
  610SOL     OW 1828   0.491   0.428   1.336  0.8234  0.3912  0.3797
  610SOL    HW1 1829   0.566   0.362   1.354 -1.2247 -0.5671 -0.1150
  610SOL    HW2 1830   0.524   0.500   1.269 -1.7324  2.1839 -1.4295
  611SOL     OW 1831   1.380   0.774   0.977  0.4041 -0.6370  0.2798
  611SOL    HW1 1832   1.335   0.805   0.893 -1.1101 -1.7741  2.4857
  611SOL    HW2 1833   1.375   0.851   1.045  1.8033 -0.8760 -2.3208
  612SOL     OW 1834   1.641   0.976   3.056 -0.2354  0.1657  0.2096
  612SOL    HW1 1835   1.551   1.003   0.021  2.2051  0.5289  0.1460
  612SOL    HW2 1836   1.698   0.929   0.051  1.4141 -0.2704  0.1045
  613SOL     OW 1837   2.216   0.485   0.417  0.2800 -0.1842 -0.1056
  613SOL    HW1 1838   2.119   0.495   0.456 -2.2964 -0.0206 -0.3110
  613SOL    HW2 1839   2.238   0.390   0.457 -0.4701 -4.1643  1.1561
  614SOL     OW 1840   2.774   2.953   2.145  0.0995  0.5733 -0.8602
  614SOL    HW1 1841   2.810   2.883   2.079  2.0951  1.1020 -1.1332
  614SOL    HW2 1842   2.838   2.998   2.208  2.5527 -1.8669 -0.8117
  615SOL     OW 1843   0.788   1.875   1.137  0.4734 -0.0082 -0.4517
  615SOL    HW1 1844   0.863   1.861   1.210  1.4325  0.0976 -0.3289
  615SOL    HW2 1845   0.710   1.812   1.150 -2.0225  3.4615  2.8925
  616SOL     OW 1846   1.782   1.468   2.724  0.2101 -0.6572 -0.0171
  616SOL    HW1 1847   1.825   1.403   2.655  0.4317 -2.1869 -0.0226
  616SOL    HW2 1848   1.688   1.439   2.751  5.9536 -0.9222  0.3334
  617SOL     OW 1849   1.372   0.176   2.884  0.6726 -0.4248 -0.7276
  617SOL    HW1 1850   1.346   0.227   2.969  0.8534  0.7870 -0.4106
  617SOL    HW2 1851   1.463   0.209   2.854 -0.0362 -0.0592  1.6536
  618SOL     OW 1852   1.140   2.126   2.627  0.5129  0.2025  0.0711
  618SOL    HW1 1853   1.143   2.063   2.707 -0.1733  2.1655  0.1744
  618SOL    HW2 1854   1.122   2.224   2.653  1.1276  1.3123  1.2577
  619SOL     OW 1855   2.538   1.397   0.739  0.1072 -0.3152 -0.5032
  619SOL    HW1 1856   2.634   1.413   0.698  3.2675  1.9733 -1.2163
  619SOL    HW2 1857   2.505   1.306   0.714  0.1272 -0.3122 -0.4267
  620SOL     OW 1858   1.996   2.851   2.212  0.2983 -0.1619 -0.2214
  620SOL    HW1 1859   2.045   2.887   2.296  2.0866  2.3202  3.0116
  620SOL    HW2 1860   2.057   2.828   2.135 -0.9827  1.1216 -1.2941
  621SOL     OW 1861   2.807   1.363   0.665  0.5006  0.3288  0.1395
  621SOL    HW1 1862   2.834   1.287   0.728  0.8252 -2.4380 -1.1771
  621SOL    HW2 1863   2.854   1.444   0.702 -0.3780  0.8565  1.1117
  622SOL     OW 1864   1.469   1.738   2.415  0.5371  0.5244  0.3927
  622SOL    HW1 1865   1.374   1.737   2.447  1.6011 -3.3270  1.7471
  622SOL    HW2 1866   1.470   1.678   2.331 -0.5862  0.7217 -3.2740
  623SOL     OW 1867   0.588   2.689   2.427 -0.2779  0.4422 -0.1187
  623SOL    HW1 1868   0.643   2.748   2.366  3.1561 -0.8140  2.0207
  623SOL    HW2 1869   0.634   2.601   2.448  0.5487 -0.3312  0.3307
  624SOL     OW 1870   0.721   2.660   3.006  0.0809 -0.0183  0.1074
  624SOL    HW1 1871   0.774   2.581   2.967 -1.4358  2.2883  3.1325
  624SOL    HW2 1872   0.731   2.659   0.034  1.1384 -0.8393  0.3933
  625SOL     OW 1873   0.171   2.067   1.946  0.3313 -0.1446  0.1396
  625SOL    HW1 1874   0.165   2.101   1.848 -0.7315 -0.2092 -0.8462
  625SOL    HW2 1875   0.109   2.126   2.003  0.1532  1.0442  0.8482
  626SOL     OW 1876   0.051   0.106   2.813 -0.4291  0.0464 -0.0270
  626SOL    HW1 1877   0.005   0.170   2.880  1.0713 -0.4449 -0.4062
  626SOL    HW2 1878   0.154   0.122   2.811  1.7606 -0.3123 -1.6107
  627SOL     OW 1879   2.274   1.606   0.113 -0.3157  0.2681  0.1000
  627SOL    HW1 1880   2.344   1.637   0.046 -2.8806  1.6061 -0.5713
  627SOL    HW2 1881   2.178   1.613   0.079  3.0471 -2.0565 -0.6547
  628SOL     OW 1882   1.539   1.805   0.041  0.8438  0.8868  0.7129
  628SOL    HW1 1883   1.558   1.717   3.069  0.0442 -1.8629 -0.2685
  628SOL    HW2 1884   1.548   1.789   0.137  1.6252  0.9376 -0.7166
  629SOL     OW 1885   0.275   0.214   1.708  0.3042 -0.8823 -0.2752
  629SOL    HW1 1886   0.241   0.277   1.775 -0.9708 -2.3657 -1.3173
  629SOL    HW2 1887   0.250   0.244   1.613  1.3478  0.1023  1.3045
  630SOL     OW 1888   2.351   1.093   1.661 -0.4786 -0.0830 -0.0469
  630SOL    HW1 1889   2.276   1.114   1.599 -0.0239  0.4609 -0.4607
  630SOL    HW2 1890   2.347   1.005   1.708  0.1322 -0.5995 -0.3214
  631SOL     OW 1891   2.030   0.038   0.600  0.5724  0.2817  0.4668
  631SOL    HW1 1892   2.106   0.008   0.539  1.4474  1.8428 -1.4783
  631SOL    HW2 1893   2.039   0.006   0.693  0.3248 -1.4606 -2.0798
  632SOL     OW 1894   2.630   0.807   1.850 -0.1115  0.4667  0.3028
  632SOL    HW1 1895   2.658   0.891   1.803 -0.2979 -2.6803 -1.8135
  632SOL    HW2 1896   2.606   0.822   1.948  1.2029 -2.4121  0.2316
  633SOL     OW 1897   0.805   0.520   2.715  0.4010  0.0756 -0.0132
  633SOL    HW1 1898   0.826   0.440   2.772 -0.5758  1.4097 -0.3561
  633SOL    HW2 1899   0.881   0.579   2.693 -1.8620 -3.5064 -0.4613
  634SOL     OW 1900   0.501   2.656   2.855 -0.2052 -0.0160  0.2022
  634SOL    HW1 1901   0.592   2.659   2.900 -2.4960  0.1346 -0.5449
  634SOL    HW2 1902   0.430   2.707   2.902  0.1111  0.7799 -2.1033
  635SOL     OW 1903   0.144   1.384   1.211  0.2080 -0.2400 -0.2425
  635SOL    HW1 1904   0.121   1.412   1.115  2.6551  1.1437 -2.1336
  635SOL    HW2 1905   0.225   1.319   1.209  1.9259  0.9938 -2.0148
  636SOL     OW 1906   0.092   1.518   0.029  0.0907  0.2128 -0.0928
  636SOL    HW1 1907   0.094   1.414   0.035 -2.2441 -2.5483  0.4258
  636SOL    HW2 1908   0.184   1.554   3.072  0.3453 -1.2361 -0.7072
  637SOL     OW 1909   0.238   2.682   0.287  0.0007 -0.5589  0.5186
  637SOL    HW1 1910   0.169   2.607   0.277  0.0944 -1.8625 -1.7907
  637SOL    HW2 1911   0.196   2.775   0.297  2.9693 -0.2899  0.7083
  638SOL     OW 1912   2.767   2.464   0.501 -0.2136 -0.0129 -0.4126
  638SOL    HW1 1913   2.782   2.544   0.443 -0.4971 -1.8388 -0.5457
  638SOL    HW2 1914   2.803   2.484   0.593 -1.4380 -3.8814  0.8379
  639SOL     OW 1915   1.025   1.055   0.374  0.4845  0.3755  0.1324
  639SOL    HW1 1916   0.944   1.110   0.331 -1.4294 -1.1170 -0.5761
  639SOL    HW2 1917   1.070   0.993   0.305 -1.5893 -1.7144  0.0825
  640SOL     OW 1918   1.945   2.576   1.641  0.3216  0.0808 -0.3005
  640SOL    HW1 1919   1.912   2.486   1.684  0.0769 -0.5113 -1.2085
  640SOL    HW2 1920   2.013   2.568   1.567 -1.6645  0.7017  1.4883
  641SOL     OW 1921   3.046   0.053   0.468  0.5625  0.0743 -0.5178
  641SOL    HW1 1922   2.951   0.033   0.432  1.2365 -0.9687  1.2740
  641SOL    HW2 1923   3.056   0.027   0.566  1.1358  0.6978 -0.6731
  642SOL     OW 1924   1.228   0.876   1.676  0.5490 -0.3439 -0.2408
  642SOL    HW1 1925   1.295   0.841   1.740 -1.7466  2.0042  1.9732
  642SOL    HW2 1926   1.235   0.976   1.674 -2.4898 -0.8559  2.3743
  643SOL     OW 1927   0.781   1.938   2.633 -0.1168  0.3557 -0.0539
  643SOL    HW1 1928   0.795   2.011   2.567  0.7702  0.7001  0.4739
  643SOL    HW2 1929   0.732   1.971   2.714 -0.7523 -0.5598 -1.1937
  644SOL     OW 1930   1.080   2.362   2.736  0.2370  0.0974  0.3739
  644SOL    HW1 1931   1.111   2.337   2.829 -0.9538  1.6553 -1.5879
  644SOL    HW2 1932   1.114   2.451   2.714  0.1327 -1.2975  0.0726
  645SOL     OW 1933   1.501   1.252   1.604  0.2089 -0.0921 -0.3677
  645SOL    HW1 1934   1.587   1.193   1.614  2.3179  1.7080 -2.8071
  645SOL    HW2 1935   1.417   1.207   1.639  1.3026 -1.1492 -0.3395
  646SOL     OW 1936   0.839   2.889   2.933  0.2788  0.0790  0.0959
  646SOL    HW1 1937   0.790   2.806   2.962  0.1629  0.8307 -1.0129
  646SOL    HW2 1938   0.786   2.929   2.858 -0.4876 -2.1297  0.3088
  647SOL     OW 1939   0.790   2.994   0.513 -0.0323 -0.4296  0.3802
  647SOL    HW1 1940   0.707   2.972   0.567 -0.2220 -0.2260  2.3833
  647SOL    HW2 1941   0.863   3.040   0.572 -2.0232 -0.0120  1.1739
  648SOL     OW 1942   2.843   2.863   1.372  0.0106  0.1909  0.0860
  648SOL    HW1 1943   2.798   2.857   1.284  0.4133 -0.0051  0.9912
  648SOL    HW2 1944   2.791   2.800   1.433 -2.5656  1.3702  1.0598
  649SOL     OW 1945   0.830   2.434   2.913 -0.2510  0.2085  0.4804
  649SOL    HW1 1946   0.893   2.441   2.837 -3.2211  2.0038  0.8778
  649SOL    HW2 1947   0.760   2.359   2.900 -2.3419 -1.8554 -1.5243
  650SOL     OW 1948   2.277   1.997   2.075  0.7546 -0.0460 -0.0988
  650SOL    HW1 1949   2.235   1.990   2.167 -1.4411 -1.4437 -4.7936
  650SOL    HW2 1950   2.340   2.078   2.062  0.3800 -1.6523 -1.8198
  651SOL     OW 1951   3.034   2.444   2.362 -0.1809 -0.2806  0.6107
  651SOL    HW1 1952   0.048   2.450   2.311 -0.3846  1.4502 -2.8735
  651SOL    HW2 1953   3.029   2.497   2.451 -0.6562 -0.0216  1.7200
  652SOL     OW 1954   2.839   1.981   0.524 -0.2885 -0.3978  0.4991
  652SOL    HW1 1955   2.895   1.958   0.603  0.4634 -0.3880 -1.6482
  652SOL    HW2 1956   2.746   2.015   0.545  0.5758 -1.2880 -0.2763
  653SOL     OW 1957   2.369   1.026   1.140  0.2501  0.3480 -0.1922
  653SOL    HW1 1958   2.435   1.020   1.215 -0.5986 -1.9423 -0.4847
  653SOL    HW2 1959   2.363   0.941   1.088 -2.2722 -1.9793  0.3194
  654SOL     OW 1960   0.884   0.325   2.870 -0.1276 -0.6094  0.3955
  654SOL    HW1 1961   0.968   0.269   2.847 -1.2036 -2.4156  0.1322
  654SOL    HW2 1962   0.802   0.264   2.866  0.5529 -1.9118 -1.6153
  655SOL     OW 1963   0.886   0.325   1.445 -0.7433 -0.3273  0.2526
  655SOL    HW1 1964   0.900   0.391   1.369 -0.8370  1.8547  0.6829
  655SOL    HW2 1965   0.794   0.285   1.447 -0.5208 -0.0463 -3.7163
  656SOL     OW 1966   0.354   2.515   2.091 -0.2025 -0.2498  0.5567
  656SOL    HW1 1967   0.456   2.512   2.095 -1.7813  1.0236 -1.3279
  656SOL    HW2 1968   0.328   2.611   2.074 -0.9040  0.8037  1.7582
  657SOL     OW 1969   2.155   0.523   0.140  0.3453  0.6983  0.1769
  657SOL    HW1 1970   2.160   0.500   0.238  1.5768 -1.0568 -1.9035
  657SOL    HW2 1971   2.252   0.526   0.105  2.2261  1.9357  1.0819
  658SOL     OW 1972   1.995   1.903   1.006 -0.1527 -0.5909 -0.5460
  658SOL    HW1 1973   2.014   1.979   1.073  1.4313  0.0644  1.4561
  658SOL    HW2 1974   2.063   1.826   1.013  0.2850 -0.0135 -1.4635
  659SOL     OW 1975   2.722   2.114   2.766 -0.3447 -0.6204 -0.0075
  659SOL    HW1 1976   2.647   2.175   2.777  0.1270 -1.2717 -0.9732
  659SOL    HW2 1977   2.799   2.178   2.764 -0.0769 -0.4601 -0.2918
  660SOL     OW 1978   1.079   0.155   0.053 -0.2710 -0.0674 -0.4852
  660SOL    HW1 1979   1.170   0.199   0.047  0.5629 -0.0195 -0.1536
  660SOL    HW2 1980   1.026   0.193   0.127  2.1744  0.0976 -1.0147
  661SOL     OW 1981   2.213   0.052   0.225  0.5530  0.4677 -0.0780
  661SOL    HW1 1982   2.129   0.012   0.179 -0.4373  1.3094 -0.5688
  661SOL    HW2 1983   2.292   0.034   0.166  0.5198  1.5387  0.7005
  662SOL     OW 1984   0.515   0.109   0.859 -0.2573  0.3993 -0.3925
  662SOL    HW1 1985   0.516   0.173   0.778  1.3295  1.4700  2.0690
  662SOL    HW2 1986   0.489   0.014   0.834 -1.5808  2.4040 -2.2792
  663SOL     OW 1987   1.326   0.301   2.257 -0.2556 -0.0795 -0.2617
  663SOL    HW1 1988   1.282   0.323   2.167 -0.3579 -0.5856 -0.4235
  663SOL    HW2 1989   1.269   0.340   2.330 -0.7896  0.4744  0.3358
  664SOL     OW 1990   0.796   2.764   1.458 -0.0670 -0.4790 -0.0849
  664SOL    HW1 1991   0.706   2.733   1.477  0.8156 -0.2942  0.6487
  664SOL    HW2 1992   0.802   2.861   1.479  1.3596 -0.4731  0.9355
  665SOL     OW 1993   0.966   2.213   1.915 -0.0528 -0.0992 -0.5703
  665SOL    HW1 1994   0.943   2.272   1.839  0.8005  0.4437  2.2641
  665SOL    HW2 1995   1.025   2.261   1.983  0.5140 -0.4036  4.0856
  666SOL     OW 1996   0.300   2.999   2.630 -0.5002  0.4020  0.2151
  666SOL    HW1 1997   0.381   2.939   2.641  1.3714 -0.6941  1.4312
  666SOL    HW2 1998   0.214   2.952   2.614  1.1548  0.3886  2.3688
  667SOL     OW 1999   1.801   1.725   1.339  0.6403  1.0037  0.2356
  667SOL    HW1 2000   1.774   1.645   1.396 -1.9722 -2.2693  0.6021
  667SOL    HW2 2001   1.875   1.775   1.378 -3.5809 -0.2683 -2.1805
  668SOL     OW 2002   1.622   0.496   1.593  0.1186 -0.4839  0.2081
  668SOL    HW1 2003   1.720   0.472   1.614 -0.4934 -1.8867 -1.6231
  668SOL    HW2 2004   1.567   0.409   1.579  0.6350 -0.0029 -0.2394
  669SOL     OW 2005   2.500   2.458   1.520 -0.5879 -0.5764  0.2043
  669SOL    HW1 2006   2.460   2.375   1.564 -0.0319  2.5596  0.4123
  669SOL    HW2 2007   2.489   2.459   1.418  2.6293  1.5912 -0.9617
  670SOL     OW 2008   1.488   2.296   2.689 -0.3728  0.0478  0.3209
  670SOL    HW1 2009   1.476   2.194   2.700 -0.5752  0.8424  0.9098
  670SOL    HW2 2010   1.476   2.341   2.777  1.9649 -0.6442 -1.5541
  671SOL     OW 2011   1.125   1.025   0.654 -0.3523  0.4427  0.1187
  671SOL    HW1 2012   1.104   1.097   0.722  0.5970 -0.5355 -1.1935
  671SOL    HW2 2013   1.121   1.053   0.561 -0.6280 -0.5219  5.4177
  672SOL     OW 2014   0.015   0.985   2.409 -0.1899 -0.4644  0.3309
  672SOL    HW1 2015   3.023   1.025   2.480 -1.5309  0.5377  0.1512
  672SOL    HW2 2016   0.025   0.887   2.413 -1.7523  3.2117 -0.9041
  673SOL     OW 2017   2.823   2.099   1.354 -0.2987 -0.2497  0.1525
  673SOL    HW1 2018   2.866   2.193   1.363  3.1872  2.8049 -1.4627
  673SOL    HW2 2019   2.828   2.043   1.441 -1.9447 -1.1740  1.2970
  674SOL     OW 2020   0.602   2.304   1.996 -0.0730 -0.1085  0.3190
  674SOL    HW1 2021   0.557   2.308   1.906 -1.1450 -0.2152  0.6596
  674SOL    HW2 2022   0.636   2.396   2.032 -1.2346 -1.2246  1.9720
  675SOL     OW 2023   0.988   0.899   1.506 -0.3835  0.0247 -0.1138
  675SOL    HW1 2024   0.909   0.937   1.556 -2.7437 -0.7234  1.0813
  675SOL    HW2 2025   1.065   0.875   1.566 -0.0033 -1.0136 -0.5663
  676SOL     OW 2026   2.287   0.396   1.047 -0.8169 -0.1437 -0.3096
  676SOL    HW1 2027   2.241   0.417   0.957 -0.9325  1.0689 -0.4348
  676SOL    HW2 2028   2.356   0.469   1.071  1.5041 -0.4206  1.0753
  677SOL     OW 2029   2.483   1.147   2.934  0.4894  0.3133 -0.0965
  677SOL    HW1 2030   2.401   1.155   2.991  1.0096 -1.0013  2.6703
  677SOL    HW2 2031   2.470   1.184   2.842 -1.2305 -0.0411 -0.5869
  678SOL     OW 2032   2.782   0.945   1.233 -0.2199  0.1968 -0.6391
  678SOL    HW1 2033   2.876   0.973   1.270  0.1222 -1.2284  3.7260
  678SOL    HW2 2034   2.721   1.022   1.252  0.9288  2.0196 -2.2178
  679SOL     OW 2035   2.435   0.284   0.112 -0.1415  0.1501  0.2948
  679SOL    HW1 2036   2.526   0.264   0.147  0.2210  1.5472  1.7238
  679SOL    HW2 2037   2.437   0.384   0.087 -3.2880  0.9931  3.2158
  680SOL     OW 2038   0.106   1.772   1.891 -0.0041 -0.2766 -0.9565
  680SOL    HW1 2039   0.171   1.823   1.947 -0.9698  2.3467 -0.1573
  680SOL    HW2 2040   0.048   1.699   1.942 -0.1243 -2.7236  0.2690
  681SOL     OW 2041   1.936   2.292   1.375  0.9610 -0.3043 -0.2835
  681SOL    HW1 2042   1.866   2.227   1.417 -0.8167  1.8658  0.0080
  681SOL    HW2 2043   1.896   2.334   1.287 -0.0750  1.8906 -1.0654
  682SOL     OW 2044   0.340   1.644   3.003  0.4509 -0.1712  0.0220
  682SOL    HW1 2045   0.344   1.732   2.953 -2.0995 -0.4910  2.7069
  682SOL    HW2 2046   0.381   1.571   2.944 -0.5131 -1.3589  0.1580
  683SOL     OW 2047   0.019   2.166   1.469  0.8981  0.3106 -0.4547
  683SOL    HW1 2048   0.093   2.193   1.404 -0.7951  0.1986  0.7564
  683SOL    HW2 2049   3.030   2.239   1.498 -1.3266  0.8418  0.6289
  684SOL     OW 2050   2.764   1.242   2.099 -0.6715  0.6781 -0.3506
  684SOL    HW1 2051   2.701   1.240   2.016 -0.3977  0.2268 -0.5084
  684SOL    HW2 2052   2.713   1.243   2.188 -3.3734  2.1754  0.9139
  685SOL     OW 2053   1.516   0.984   0.621  0.3781 -0.4447 -0.1679
  685SOL    HW1 2054   1.505   1.070   0.680  1.1244  0.0352  2.0135
  685SOL    HW2 2055   1.435   0.916   0.635 -0.9248 -1.0239 -1.4080
  686SOL     OW 2056   0.473   0.211   0.600  0.5759  0.1983 -0.7374
  686SOL    HW1 2057   0.490   0.307   0.608 -2.7839 -4.3081  0.1841
  686SOL    HW2 2058   0.487   0.184   0.506 -1.9578 -0.1410  0.4096
  687SOL     OW 2059   0.917   2.104   2.977  0.2785  0.1950 -0.5435
  687SOL    HW1 2060   0.921   2.023   3.038  1.6535 -0.8634 -0.9018
  687SOL    HW2 2061   0.819   2.126   2.947  0.6667  0.6301 -1.2136
  688SOL     OW 2062   1.784   1.110   1.334 -0.2305  0.4919 -0.2257
  688SOL    HW1 2063   1.701   1.152   1.291 -2.1607  0.2844  0.0022
  688SOL    HW2 2064   1.756   1.033   1.388 -0.4693  1.7039 -1.0649
  689SOL     OW 2065   1.896   0.292   0.848  0.0885 -0.3648  0.0245
  689SOL    HW1 2066   1.986   0.284   0.801 -3.6288  3.5069 -1.8687
  689SOL    HW2 2067   1.900   0.381   0.907 -1.5906  0.7346 -0.0688
  690SOL     OW 2068   0.025   1.467   0.712  0.0524 -0.6837 -0.4605
  690SOL    HW1 2069   0.037   1.400   0.634  0.7755 -0.3086  1.8393
  690SOL    HW2 2070   0.069   1.555   0.682 -1.3145 -1.2480  1.5999
  691SOL     OW 2071   0.250   2.218   1.312  0.1561 -0.5087  0.3236
  691SOL    HW1 2072   0.310   2.148   1.276  1.8395  1.9025  0.6065
  691SOL    HW2 2073   0.243   2.294   1.245  0.7398  0.2658  0.3838
  692SOL     OW 2074   1.770   0.220   1.315  0.1748 -0.2387 -0.3494
  692SOL    HW1 2075   1.795   0.222   1.412  1.3285  0.5599  0.0844
  692SOL    HW2 2076   1.855   0.217   1.264 -1.3824 -0.1104  1.5108
  693SOL     OW 2077   0.584   1.700   2.276  0.5267 -0.1358  0.0980
  693SOL    HW1 2078   0.581   1.771   2.199  2.8812 -0.2561 -0.5043
  693SOL    HW2 2079   0.664   1.711   2.336  0.0257  0.0042 -0.5388
  694SOL     OW 2080   2.027   1.372   1.097  0.0763  0.1834  0.1511
  694SOL    HW1 2081   1.990   1.438   1.024  0.7348 -1.5371 -1.9489
  694SOL    HW2 2082   2.120   1.332   1.073 -0.7687 -0.1943 -1.6499
  695SOL     OW 2083   1.304   0.812   0.691  0.1920  0.1097  0.4310
  695SOL    HW1 2084   1.299   0.708   0.690  0.3553  0.1181  1.5945
  695SOL    HW2 2085   1.211   0.852   0.679 -0.1039 -1.5073  0.9496
  696SOL     OW 2086   0.468   0.171   0.339  0.0636  0.2211  0.4242
  696SOL    HW1 2087   0.420   0.078   0.346 -1.1045  0.7650  0.8615
  696SOL    HW2 2088   0.571   0.157   0.333  1.3844 -0.8044 -1.5132
  697SOL     OW 2089   1.867   0.735   1.256  0.0781 -0.0092  0.4294
  697SOL    HW1 2090   1.819   0.646   1.260  1.1895  2.5303  0.2323
  697SOL    HW2 2091   1.932   0.749   1.332  1.0336  0.7322 -0.7821
  698SOL     OW 2092   1.509   1.223   2.216  0.1772  0.2572 -0.0142
  698SOL    HW1 2093   1.425   1.272   2.247 -0.1230  2.1649 -0.0418
  698SOL    HW2 2094   1.594   1.271   2.236  1.3286  2.0508 -2.1402
  699SOL     OW 2095   2.780   0.406   1.906 -0.1701  0.5717  0.4454
  699SOL    HW1 2096   2.740   0.436   1.997  0.1262  2.1942  1.3989
  699SOL    HW2 2097   2.726   0.327   1.865 -0.8261 -0.9524 -0.5144
  700SOL     OW 2098   1.543   2.161   0.540  0.0429  0.8839  0.2602
  700SOL    HW1 2099   1.578   2.254   0.566  1.3516  1.4794  1.1684
  700SOL    HW2 2100   1.457   2.136   0.584  1.5575  0.3717 -1.6506
  701SOL     OW 2101   2.399   1.968   2.452 -0.1201  0.1761 -0.4118
  701SOL    HW1 2102   2.393   1.890   2.383  0.9271  0.3368 -1.5592
  701SOL    HW2 2103   2.475   1.945   2.517  0.4711  0.3073  1.0880
  702SOL     OW 2104   0.531   2.890   0.561  0.3287  0.6368  0.3173
  702SOL    HW1 2105   0.475   2.923   0.639 -0.3781 -2.6280 -2.6144
  702SOL    HW2 2106   0.565   2.794   0.581 -1.8573 -4.2569  1.0083
  703SOL     OW 2107   1.767   2.978   2.078 -0.3466 -0.2887 -0.0008
  703SOL    HW1 2108   1.805   3.032   1.999 -2.5674  0.3129 -0.2873
  703SOL    HW2 2109   1.839   2.947   2.143  0.7576 -0.5514  0.8983
  704SOL     OW 2110   2.697   2.245   0.117 -0.0762  0.2225  0.5792
  704SOL    HW1 2111   2.705   2.263   0.218 -2.5456  0.1454 -1.2905
  704SOL    HW2 2112   2.719   2.149   0.095 -0.9148  0.3787 -0.4236
  705SOL     OW 2113   2.615   2.392   2.486 -0.6960 -0.1882 -0.2040
  705SOL    HW1 2114   2.712   2.355   2.496  1.1639  0.2425 -0.2732
  705SOL    HW2 2115   2.556   2.321   2.442 -0.1407  0.7967 -0.2815
  706SOL     OW 2116   2.602   0.201   0.372  0.4429  0.1843 -0.1821
  706SOL    HW1 2117   2.657   0.286   0.354 -1.7476 -2.0469  1.0363
  706SOL    HW2 2118   2.654   0.126   0.412  0.1521 -0.2135 -3.4324
  707SOL     OW 2119   1.127   0.415   2.404 -0.2974 -0.3985  0.3689
  707SOL    HW1 2120   1.035   0.378   2.374  0.8818 -1.2534 -2.4597
  707SOL    HW2 2121   1.130   0.454   2.497  0.7015  0.1402 -0.5289
  708SOL     OW 2122   0.324   1.931   1.609 -0.2863  0.1411 -0.5177
  708SOL    HW1 2123   0.243   1.872   1.621 -2.1714  1.5627  1.5609
  708SOL    HW2 2124   0.411   1.887   1.644  0.9537  0.9374  1.9086
  709SOL     OW 2125   1.365   2.829   1.590 -0.0476 -0.3557  0.4525
  709SOL    HW1 2126   1.437   2.866   1.526 -0.2105 -1.3504 -0.1153
  709SOL    HW2 2127   1.345   2.893   1.672 -0.0321  1.6720  2.2484
  710SOL     OW 2128   1.412   2.634   2.510 -0.3896 -0.0132 -0.1829
  710SOL    HW1 2129   1.387   2.533   2.479 -2.3198 -3.0504  0.7870
  710SOL    HW2 2130   1.487   2.634   2.582  1.4273  0.9526  0.1773
  711SOL     OW 2131   0.825   2.287   2.614  0.3086 -0.7699  0.8588
  711SOL    HW1 2132   0.837   2.223   2.538  0.7194  1.2603  0.9465
  711SOL    HW2 2133   0.918   2.309   2.654  0.7148 -3.5300  2.7263
  712SOL     OW 2134   1.051   1.926   0.119  0.5791 -0.0473  0.5939
  712SOL    HW1 2135   1.021   1.966   0.212  0.0415  2.5456  1.4526
  712SOL    HW2 2136   1.121   1.983   0.075 -0.3095 -2.9808  1.3081
  713SOL     OW 2137   2.073   1.400   1.778  0.3376  0.0967 -0.1958
  713SOL    HW1 2138   2.047   1.454   1.695 -2.0449  1.3049  0.5024
  713SOL    HW2 2139   2.002   1.334   1.803  0.1664 -0.3938  0.3516
  714SOL     OW 2140   0.837   1.043   1.969 -0.2003 -0.4152 -0.0079
  714SOL    HW1 2141   0.794   1.017   2.059 -0.9792 -1.1475  0.1815
  714SOL    HW2 2142   0.938   1.022   1.974 -0.1952 -3.1850 -1.1376
  715SOL     OW 2143   2.727   0.392   0.188  0.1235  0.0064  0.1359
  715SOL    HW1 2144   2.800   0.331   0.223 -1.4997  2.4499  0.4266
  715SOL    HW2 2145   2.720   0.464   0.260 -0.8085  2.1720 -0.7061
  716SOL     OW 2146   0.021   2.931   1.312 -0.2467  0.1798  0.1108
  716SOL    HW1 2147   0.101   2.869   1.320 -0.0482 -2.9002 -0.3008
  716SOL    HW2 2148   3.006   2.892   1.329 -1.6180  0.8932  0.9318
  717SOL     OW 2149   2.371   0.784   0.987 -0.4767 -0.2105 -0.2061
  717SOL    HW1 2150   2.284   0.796   0.936  2.6280 -0.3995  4.6740
  717SOL    HW2 2151   2.378   0.695   1.040 -0.3977  0.8837  0.8511
  718SOL     OW 2152   1.536   1.240   1.254 -0.4529  0.5243 -0.2644
  718SOL    HW1 2153   1.465   1.316   1.265 -0.8785  2.0788  2.3258
  718SOL    HW2 2154   1.599   1.252   1.174 -0.8993 -1.4609 -0.8553
  719SOL     OW 2155   2.739   2.718   2.748 -0.0326  0.1194 -0.1031
  719SOL    HW1 2156   2.739   2.801   2.805 -3.2999 -2.2527  0.8044
  719SOL    HW2 2157   2.686   2.735   2.661  0.3792 -1.0772 -0.6407
  720SOL     OW 2158   1.024   0.505   0.873 -0.1065  0.3305 -0.3622
  720SOL    HW1 2159   0.969   0.421   0.847 -2.1580  3.2726 -1.5972
  720SOL    HW2 2160   1.080   0.497   0.963 -0.7196 -1.6168 -0.0096
  721SOL     OW 2161   2.215   0.521   0.800  0.0191 -0.4962 -0.0418
  721SOL    HW1 2162   2.306   0.551   0.764  0.4772  1.7290 -0.4112
  721SOL    HW2 2163   2.174   0.465   0.732  3.3291 -0.2538  3.1470
  722SOL     OW 2164   0.836   2.012   2.053  0.2684 -0.0731 -0.0607
  722SOL    HW1 2165   0.764   2.054   2.114 -0.8275 -1.1745  0.9043
  722SOL    HW2 2166   0.896   2.089   2.009  1.4905  0.7865 -0.2575
  723SOL     OW 2167   1.216   2.992   1.404  0.4201  0.1904  0.0518
  723SOL    HW1 2168   1.312   3.022   1.391 -0.8822 -2.5429  0.2698
  723SOL    HW2 2169   1.197   2.930   1.486  0.5230  0.9163 -0.5673
  724SOL     OW 2170   1.610   1.935   1.436 -0.2349 -0.1897  0.9652
  724SOL    HW1 2171   1.558   1.943   1.520  1.7655 -2.2183 -3.4594
  724SOL    HW2 2172   1.659   1.847   1.428 -3.2570  0.1180 -1.7158
  725SOL     OW 2173   1.342   2.459   1.149  0.1645  0.0318  0.2758
  725SOL    HW1 2174   1.339   2.362   1.114  0.4626 -0.4144 -0.3460
  725SOL    HW2 2175   1.370   2.520   1.073  1.4646 -2.0426 -0.7873
  726SOL     OW 2176   1.568   0.173   0.183  0.3121 -0.1113 -0.8310
  726SOL    HW1 2177   1.633   0.100   0.196 -0.4110  0.8747 -0.3387
  726SOL    HW2 2178   1.590   0.257   0.238  1.2864 -0.4775 -3.4719
  727SOL     OW 2179   1.613   1.715   0.436  0.0956 -0.2073 -0.0857
  727SOL    HW1 2180   1.520   1.723   0.398  2.9926  0.6862  0.0137
  727SOL    HW2 2181   1.679   1.726   0.357  2.0960 -1.6544  1.5323
  728SOL     OW 2182   1.800   2.746   1.833  0.5608 -0.3084 -0.1115
  728SOL    HW1 2183   1.790   2.717   1.738  0.5142  1.8348  1.3316
  728SOL    HW2 2184   1.706   2.783   1.862 -2.7805  1.0490 -2.1326
  729SOL     OW 2185   2.097   2.505   1.406  0.0869 -0.1661 -0.6903
  729SOL    HW1 2186   2.031   2.432   1.385 -0.7384  0.7283 -0.0408
  729SOL    HW2 2187   2.188   2.497   1.351 -0.7624 -0.3740 -2.9145
  730SOL     OW 2188   1.524   0.962   2.638  0.3296 -0.6615  0.5416
  730SOL    HW1 2189   1.550   0.899   2.713  1.9420  1.7069  0.9146
  730SOL    HW2 2190   1.469   0.913   2.569 -0.0628 -0.0920 -0.1958
  731SOL     OW 2191   0.645   0.210   1.361 -0.0941  0.1096 -0.3791
  731SOL    HW1 2192   0.611   0.200   1.263 -1.7848  1.2689  1.0032
  731SOL    HW2 2193   0.641   0.125   1.414  1.5763 -0.4956  1.8133
  732SOL     OW 2194   1.106   2.973   0.919  0.1646  0.2369 -0.2998
  732SOL    HW1 2195   1.098   2.937   1.013 -1.3307 -1.3697  0.3274
  732SOL    HW2 2196   1.135   3.072   0.910  0.7634  2.4729 -0.2586
  733SOL     OW 2197   1.150   1.199   1.197 -0.6252 -0.3842  0.1427
  733SOL    HW1 2198   1.143   1.299   1.168  0.4322  0.5301 -1.6831
  733SOL    HW2 2199   1.049   1.166   1.202 -4.0780 -1.2608 -2.4307
  734SOL     OW 2200   2.385   2.085   0.221 -0.0749 -0.1282 -0.0438
  734SOL    HW1 2201   2.360   2.060   0.124 -0.7073  0.2535  1.6177
  734SOL    HW2 2202   2.467   2.141   0.237 -0.2455 -2.3989  0.6375
  735SOL     OW 2203   0.836   0.313   0.804 -0.2705  0.0754  0.2948
  735SOL    HW1 2204   0.786   0.228   0.782  2.1916 -0.6890  0.9132
  735SOL    HW2 2205   0.872   0.355   0.718 -2.7621 -1.1465 -0.1775
  736SOL     OW 2206   1.777   2.441   2.785  0.0594 -0.5098  0.2449
  736SOL    HW1 2207   1.865   2.460   2.834  0.6255  0.5456  0.4785
  736SOL    HW2 2208   1.733   2.355   2.801  3.5042  1.5183 -1.0596
  737SOL     OW 2209   0.763   2.540   1.017 -0.3132  0.2980  0.3591
  737SOL    HW1 2210   0.832   2.575   0.954 -2.8619  0.5007  0.6546
  737SOL    HW2 2211   0.795   2.556   1.111 -0.9980  1.0514 -1.6835
  738SOL     OW 2212   1.643   0.079   2.237 -0.7950  0.2635  0.1674
  738SOL    HW1 2213   1.698   0.071   2.320 -0.6999  1.5447 -2.0131
  738SOL    HW2 2214   1.673   0.019   2.160  1.6322  0.9551 -0.4080
  739SOL     OW 2215   1.141   2.300   2.126 -0.0908 -0.1805  0.3407
  739SOL    HW1 2216   1.240   2.310   2.133 -1.8893 -1.4987 -0.3810
  739SOL    HW2 2217   1.109   2.243   2.203 -0.9906  2.3157  0.5689
  740SOL     OW 2218   1.335   2.326   1.550 -0.6630  0.0992  0.3952
  740SOL    HW1 2219   1.250   2.371   1.523 -0.3935  2.8368 -0.8674
  740SOL    HW2 2220   1.412   2.358   1.488 -0.2259  1.3202  0.7250
  741SOL     OW 2221   2.674   1.096   0.039  0.0833  0.1445 -0.4027
  741SOL    HW1 2222   2.732   1.182   0.049 -1.6763  2.9714  0.5644
  741SOL    HW2 2223   2.604   1.113   3.044  0.7901 -2.7039  3.0119
  742SOL     OW 2224   0.571   1.502   2.099 -0.0022  0.2275 -0.4464
  742SOL    HW1 2225   0.540   1.582   2.158  0.9723  1.3296  3.7091
  742SOL    HW2 2226   0.660   1.463   2.138  0.4197  1.7473 -1.1442
  743SOL     OW 2227   0.017   0.716   2.433 -0.0134  0.5000 -0.7765
  743SOL    HW1 2228   0.093   0.654   2.426 -1.7693  0.9536 -1.0075
  743SOL    HW2 2229   3.014   0.676   2.386  2.4584  1.4992  2.3916
  744SOL     OW 2230   2.183   2.178   1.418 -0.2811  0.3078 -0.4869
  744SOL    HW1 2231   2.100   2.231   1.420  0.3924 -2.9655 -2.8839
  744SOL    HW2 2232   2.251   2.220   1.480  1.4406 -1.0444 -1.6318
  745SOL     OW 2233   2.461   1.869   1.256  0.1427  0.3497 -0.4111
  745SOL    HW1 2234   2.380   1.818   1.239  1.9404  0.6818  0.8517
  745SOL    HW2 2235   2.532   1.818   1.306 -0.6046 -1.0280 -0.0666
  746SOL     OW 2236   2.589   0.866   0.608 -0.5484 -0.3203  0.3327
  746SOL    HW1 2237   2.489   0.884   0.579 -1.9475  0.6792 -0.2740
  746SOL    HW2 2238   2.648   0.851   0.523 -0.2868  1.0866  0.9560
  747SOL     OW 2239   1.790   2.076   0.398  0.0477  0.5888 -0.2629
  747SOL    HW1 2240   1.845   2.165   0.397  1.5564  2.2740  1.7603
  747SOL    HW2 2241   1.693   2.086   0.428  0.9936 -0.3832 -1.9435
  748SOL     OW 2242   1.094   2.206   0.508  0.4159  0.1938 -0.3540
  748SOL    HW1 2243   1.042   2.161   0.434 -0.3068  0.1340  0.1667
  748SOL    HW2 2244   1.049   2.206   0.600  1.5360  1.4043 -0.6902
  749SOL     OW 2245   3.004   0.075   2.163  0.0215 -0.0888 -0.3038
  749SOL    HW1 2246   3.058   0.148   2.118  0.3752  0.7974  2.2996
  749SOL    HW2 2247   3.066   0.009   2.212 -0.9765  1.5492  0.9401
  750SOL     OW 2248   1.510   0.160   1.317 -0.7236 -0.2163 -0.3836
  750SOL    HW1 2249   1.603   0.192   1.329 -1.0945  0.0051  0.2629
  750SOL    HW2 2250   1.475   0.193   1.226  1.5176  0.1784  2.0314
  751SOL     OW 2251   1.598   2.639   2.718  0.2901  0.0089 -0.2445
  751SOL    HW1 2252   1.586   2.693   2.805  2.1146 -0.7670  0.5752
  751SOL    HW2 2253   1.642   2.547   2.736  1.0934 -0.0486  2.1899
  752SOL     OW 2254   1.815   1.837   0.287 -0.2315  0.1897 -0.3068
  752SOL    HW1 2255   1.803   1.930   0.332 -1.2868  2.7340  1.8201
  752SOL    HW2 2256   1.791   1.846   0.189  0.7425  0.6629 -0.2011
  753SOL     OW 2257   1.701   0.783   2.084 -0.1972 -0.3035 -0.1759
  753SOL    HW1 2258   1.707   0.876   2.125  0.1348  2.8003 -0.8487
  753SOL    HW2 2259   1.664   0.723   2.158  1.4746  1.5644  2.1330
  754SOL     OW 2260   0.239   2.662   0.681 -0.0920  0.4262  0.6415
  754SOL    HW1 2261   0.172   2.591   0.644  2.2052  2.2108  1.7980
  754SOL    HW2 2262   0.197   2.753   0.661 -1.2632  2.3223  1.2537
  755SOL     OW 2263   2.068   0.332   1.229  0.1957  0.0408  0.4545
  755SOL    HW1 2264   2.148   0.366   1.181 -0.3685 -2.3127  3.6316
  755SOL    HW2 2265   2.092   0.256   1.293  2.5285  1.8731  0.1385
  756SOL     OW 2266   1.199   1.332   2.556  0.4657 -0.0038  0.3161
  756SOL    HW1 2267   1.249   1.267   2.613  0.7208  1.3351 -0.0874
  756SOL    HW2 2268   1.265   1.372   2.489  0.2128  0.1260 -1.1130
  757SOL     OW 2269   2.698   2.836   1.153  0.5359 -0.4190  0.4481
  757SOL    HW1 2270   2.685   2.735   1.132  0.0746  1.6480  0.5236
  757SOL    HW2 2271   2.621   2.888   1.108 -0.2990 -0.9440  0.5614
  758SOL     OW 2272   0.693   3.027   1.498  0.8933 -0.3511 -0.7085
  758SOL    HW1 2273   0.616   2.966   1.506  0.4627 -1.1668  2.1156
  758SOL    HW2 2274   0.706   3.068   1.593 -0.6999  1.4283  2.3956
  759SOL     OW 2275   2.470   1.124   0.669  0.1760 -0.2306  0.4135
  759SOL    HW1 2276   2.510   1.124   0.576 -0.4899 -0.3014 -0.3677
  759SOL    HW2 2277   2.530   1.064   0.727 -1.3627  0.1792  1.5798
  760SOL     OW 2278   2.074   0.536   1.403 -0.1249 -0.3417  0.1189
  760SOL    HW1 2279   2.051   0.451   1.347  0.1656 -0.5233 -0.1411
  760SOL    HW2 2280   2.172   0.531   1.428  0.2406  1.2595  2.4923
  761SOL     OW 2281   1.989   3.028   0.104  0.1013 -0.5862  0.9063
  761SOL    HW1 2282   1.920   0.003   0.162  0.6087  0.0182 -0.4073
  761SOL    HW2 2283   1.945   2.968   0.031  0.8383 -2.3830 -1.2819
  762SOL     OW 2284   1.995   2.075   0.041  0.1774 -0.7045 -0.5086
  762SOL    HW1 2285   2.053   2.094   0.118 -0.7716  0.9437 -0.3963
  762SOL    HW2 2286   2.030   2.125   3.030 -1.1968  4.4689  1.7870
  763SOL     OW 2287   0.578   0.956   1.244  0.0983 -0.3199  0.1486
  763SOL    HW1 2288   0.549   0.925   1.151  0.6835  0.4632 -0.4294
  763SOL    HW2 2289   0.602   1.057   1.245  1.6569  3.7329  1.1076
  764SOL     OW 2290   2.521   2.552   2.885 -0.2246 -0.3129  0.1411
  764SOL    HW1 2291   2.576   2.614   2.828  1.1764 -0.2305  0.4361
  764SOL    HW2 2292   2.530   2.456   2.856 -0.3131 -1.4602 -0.2556
  765SOL     OW 2293   0.888   0.569   2.257  0.2821  0.2864 -0.4064
  765SOL    HW1 2294   0.890   0.468   2.264 -2.8299 -3.3475 -0.5164
  765SOL    HW2 2295   0.892   0.604   2.160  0.0238  1.3465 -2.4116
  766SOL     OW 2296   0.153   1.215   2.454 -0.3501  0.2305 -0.4736
  766SOL    HW1 2297   0.133   1.118   2.455  0.5415  2.6186 -1.7933
  766SOL    HW2 2298   0.088   1.271   2.400  0.0860 -1.6577  1.2602
  767SOL     OW 2299   3.008   1.659   2.096 -0.6194  0.5556  0.0794
  767SOL    HW1 2300   3.046   1.726   2.159 -2.2317 -0.8225 -0.5382
  767SOL    HW2 2301   2.921   1.691   2.049  0.1817 -0.3834  0.5210
  768SOL     OW 2302   1.039   1.005   2.864  0.2778 -0.4712  0.1637
  768SOL    HW1 2303   0.951   1.056   2.878  1.0218 -0.9930  2.4389
  768SOL    HW2 2304   1.080   1.037   2.776  0.7195  2.1953  0.9212
  769SOL     OW 2305   1.852   2.896   2.986 -0.2904  0.0724 -0.2740
  769SOL    HW1 2306   1.775   2.828   2.973 -1.4108  0.2217  2.0530
  769SOL    HW2 2307   1.850   2.969   2.916  1.8642 -1.7368 -0.8292
  770SOL     OW 2308   2.890   0.453   2.466  0.3798  0.5516 -0.5863
  770SOL    HW1 2309   2.878   0.532   2.406  0.4164  4.0396  3.4616
  770SOL    HW2 2310   2.874   0.369   2.416  0.4638 -0.8560 -1.6977
  771SOL     OW 2311   0.867   2.117   1.596 -0.2328  0.2762  0.7194
  771SOL    HW1 2312   0.954   2.072   1.559  1.7132 -2.1326 -0.7740
  771SOL    HW2 2313   0.880   2.212   1.628  0.6352 -2.3770 -1.7794
  772SOL     OW 2314   0.559   0.585   2.811  0.7290 -0.1672  0.1010
  772SOL    HW1 2315   0.656   0.587   2.778  3.6643 -1.3885  1.7959
  772SOL    HW2 2316   0.499   0.638   2.748 -2.3672 -1.1137 -2.7488
  773SOL     OW 2317   2.369   1.370   1.687 -0.1553  0.0340 -0.5793
  773SOL    HW1 2318   2.277   1.392   1.715  1.1882 -0.6317  1.9393
  773SOL    HW2 2319   2.381   1.269   1.672  1.9013 -0.2975  0.6174
  774SOL     OW 2320   1.045   0.668   0.506  0.2506 -0.3319  0.1494
  774SOL    HW1 2321   1.042   0.646   0.406 -1.9175 -1.1855 -0.6164
  774SOL    HW2 2322   1.138   0.654   0.552  0.3315 -1.4182 -2.6260
  775SOL     OW 2323   2.030   2.509   2.879 -0.3292 -0.9343  0.4376
  775SOL    HW1 2324   2.061   2.581   2.816  0.5148  0.6177 -0.2714
  775SOL    HW2 2325   2.042   2.537   2.975  0.0870  1.7063  1.5688
  776SOL     OW 2326   2.385   0.122   1.934 -0.0151 -0.1591  0.5548
  776SOL    HW1 2327   2.302   0.062   1.938  2.1872 -0.7334 -2.9976
  776SOL    HW2 2328   2.448   0.103   2.007 -0.8494 -1.5786 -1.6031
  777SOL     OW 2329   0.499   1.137   2.668  0.6044  0.2091  0.4171
  777SOL    HW1 2330   0.467   1.074   2.589  0.7235 -0.4857 -2.6180
  777SOL    HW2 2331   0.428   1.138   2.741  0.8646 -0.6074  1.6725
  778SOL     OW 2332   0.725   0.084   0.303  0.2710 -0.6133  0.2088
  778SOL    HW1 2333   0.796   0.158   0.293 -0.6149  0.2109  0.0315
  778SOL    HW2 2334   0.752   0.021   0.378 -1.0633  0.2202 -0.6319
  779SOL     OW 2335   0.085   0.956   2.826  0.4078  0.0626  0.1262
  779SOL    HW1 2336   0.012   0.979   2.893 -1.8597 -0.1772  0.2349
  779SOL    HW2 2337   0.055   0.883   2.763 -1.0644 -0.8915 -1.2902
  780SOL     OW 2338   2.095   0.672   2.444 -0.7018  0.0385  0.2191
  780SOL    HW1 2339   2.125   0.571   2.431 -1.8320 -3.0506  0.5639
  780SOL    HW2 2340   1.994   0.676   2.444 -1.2390 -0.8127 -0.1120
  781SOL     OW 2341   2.150   1.606   1.949 -0.3467 -0.3732 -0.2653
  781SOL    HW1 2342   2.137   1.519   1.909 -0.6129  3.4071  1.0536
  781SOL    HW2 2343   2.203   1.666   1.883 -0.4369 -1.3429  2.2542
  782SOL     OW 2344   1.201   1.771   2.459  0.1341 -0.2412 -0.1230
  782SOL    HW1 2345   1.143   1.726   2.389 -2.1752 -1.6934 -1.8970
  782SOL    HW2 2346   1.158   1.770   2.552 -0.5009  1.0337  0.2542
  783SOL     OW 2347   0.800   0.009   1.141 -0.0173 -0.2239 -0.9843
  783SOL    HW1 2348   0.859   0.029   1.222  1.4883  0.3850  1.3380
  783SOL    HW2 2349   0.699   0.030   1.161 -0.8770  3.4747 -0.5527
  784SOL     OW 2350   1.333   0.549   0.068  0.8777  0.5303  0.3450
  784SOL    HW1 2351   1.429   0.556   0.042 -2.5934 -1.3703 -0.7008
  784SOL    HW2 2352   1.308   0.609   0.145  0.9126 -1.2707 -0.7820
  785SOL     OW 2353   1.310   0.289   0.041  0.1310 -0.2176  0.2003
  785SOL    HW1 2354   1.310   0.393   0.051  0.3876  4.3070  2.1670
  785SOL    HW2 2355   1.325   0.250   0.134 -1.6136  2.8928 -2.8838
  786SOL     OW 2356   0.241   1.370   0.466  0.3965 -0.5409 -0.1332
  786SOL    HW1 2357   0.337   1.379   0.487 -1.9265 -0.7476 -1.1210
  786SOL    HW2 2358   0.213   1.446   0.403 -2.3351  1.0226 -1.4585
  787SOL     OW 2359   1.757   1.459   0.195  0.2017  0.3144  0.4729
  787SOL    HW1 2360   1.810   1.503   0.269  1.1670 -0.1432 -1.6160
  787SOL    HW2 2361   1.685   1.396   0.229  0.5870  0.1104 -1.9127
  788SOL     OW 2362   1.774   1.683   1.055 -0.3891  0.5153  0.1682
  788SOL    HW1 2363   1.757   1.680   1.154  0.1277 -0.7039 -1.4095
  788SOL    HW2 2364   1.843   1.755   1.034 -0.2524  0.7985 -0.2755
  789SOL     OW 2365   0.015   1.359   2.054 -0.3562  0.2482 -0.4414
  789SOL    HW1 2366   3.042   1.446   2.053 -1.1391 -3.3999 -0.7541
  789SOL    HW2 2367   3.026   1.289   2.084  0.0270  2.5527  2.3883
  790SOL     OW 2368   0.610   0.055   0.041  0.0398 -0.0908  0.0856
  790SOL    HW1 2369   0.606   3.025   0.044 -0.4124 -2.3107  1.0217
  790SOL    HW2 2370   0.675   0.084   0.117  1.2762  0.9875  2.0411
  791SOL     OW 2371   0.780   0.154   2.481  0.1224 -0.3164  0.4796
  791SOL    HW1 2372   0.744   0.247   2.506 -2.6491  3.1029  1.8919
  791SOL    HW2 2373   0.835   0.110   2.553  0.2455 -1.8023 -1.9428
  792SOL     OW 2374   1.955   0.264   2.246  0.0331  0.4043  0.2641
  792SOL    HW1 2375   1.946   0.306   2.338 -0.3265  1.5456 -1.8255
  792SOL    HW2 2376   1.877   0.297   2.191  0.2483 -0.2364  1.7656
  793SOL     OW 2377   2.951   0.537   1.210  0.2506 -1.0706  0.1049
  793SOL    HW1 2378   2.926   0.478   1.291  1.7064  0.2539 -1.4418
  793SOL    HW2 2379   3.035   0.598   1.228  1.3604  0.4038  2.4098
  794SOL     OW 2380   0.358   0.598   1.759  0.2614  0.0444 -0.7437
  794SOL    HW1 2381   0.453   0.588   1.791  1.1704 -1.3725  1.8605
  794SOL    HW2 2382   0.352   0.612   1.658 -0.4652  1.6367  0.1382
  795SOL     OW 2383   2.833   1.260   0.276 -0.4400  0.0170  0.0631
  795SOL    HW1 2384   2.801   1.300   0.186 -0.4600 -0.2765 -2.2785
  795SOL    HW2 2385   2.924   1.216   0.263  1.4070  0.4825  2.4531
  796SOL     OW 2386   2.837   2.647   0.315 -0.6819  0.0373 -0.2968
  796SOL    HW1 2387   2.926   2.690   0.335 -0.4184 -1.6934 -2.6927
  796SOL    HW2 2388   2.847   2.578   0.234 -0.5728 -2.2524 -1.3440
  797SOL     OW 2389   1.827   2.645   2.338 -0.2607  0.0310 -0.1395
  797SOL    HW1 2390   1.845   2.596   2.424  0.4516  0.6414 -1.8532
  797SOL    HW2 2391   1.890   2.727   2.330 -2.1259  1.3942 -0.2312
  798SOL     OW 2392   0.011   1.048   0.895  0.7335  0.4354  0.1965
  798SOL    HW1 2393   3.068   0.954   0.861  0.9307  1.9079 -0.8016
  798SOL    HW2 2394   3.010   1.110   0.857 -1.1571  2.1074  0.0141
  799SOL     OW 2395   2.673   0.528   2.672  0.4092  0.2068 -0.1271
  799SOL    HW1 2396   2.749   0.497   2.610  1.6042 -0.3186 -0.6697
  799SOL    HW2 2397   2.710   0.581   2.748  1.4609 -0.2067 -0.5338
  800SOL     OW 2398   2.898   1.875   0.262 -0.4261 -0.2301 -0.2078
  800SOL    HW1 2399   2.990   1.862   0.223 -1.7635  0.7496  0.0915
  800SOL    HW2 2400   2.895   1.947   0.332 -1.1438  1.3817  0.4212
  801SOL     OW 2401   1.738   1.378   1.109  0.5493  0.5163  0.2900
  801SOL    HW1 2402   1.836   1.376   1.124 -1.4601  0.9714 -0.3098
  801SOL    HW2 2403   1.689   1.466   1.130 -0.7062  2.1962 -2.0259
  802SOL     OW 2404   1.163   1.778   1.870 -0.1461  0.5744  0.1900
  802SOL    HW1 2405   1.181   1.805   1.968 -1.2123 -0.0815  0.2179
  802SOL    HW2 2406   1.181   1.860   1.809  1.2676 -0.5291 -2.6555
  803SOL     OW 2407   0.187   1.850   0.777  0.1476 -0.3414  0.1513
  803SOL    HW1 2408   0.160   1.782   0.703  0.3922 -0.2637  1.7017
  803SOL    HW2 2409   0.104   1.902   0.812 -0.1739 -0.7583  0.4433
  804SOL     OW 2410   1.005   2.354   1.441 -0.3260 -0.1488  0.0445
  804SOL    HW1 2411   1.059   2.305   1.375  1.6813  2.9782  0.6155
  804SOL    HW2 2412   0.908   2.352   1.409  0.7501 -1.0257  0.3681
  805SOL     OW 2413   2.394   1.360   0.150  0.2443  0.0399 -0.2317
  805SOL    HW1 2414   2.355   1.451   0.132 -0.6410 -1.1619  3.7099
  805SOL    HW2 2415   2.354   1.291   0.093  0.6178  0.7422  4.3801
  806SOL     OW 2416   1.602   2.845   1.170  0.5005  0.6033 -0.6349
  806SOL    HW1 2417   1.569   2.925   1.110 -0.6511 -0.5705 -0.8214
  806SOL    HW2 2418   1.597   2.873   1.269 -0.9718 -0.2860  1.2895
  807SOL     OW 2419   2.449   0.621   2.917 -0.4149 -0.2419  0.1288
  807SOL    HW1 2420   2.364   0.677   2.895 -1.5697  0.3346 -1.2391
  807SOL    HW2 2421   2.453   0.534   2.869  0.7175  1.9760 -0.8378
  808SOL     OW 2422   0.113   1.196   0.616 -0.2224 -0.3478 -0.0483
  808SOL    HW1 2423   0.183   1.170   0.687 -2.0105  2.2884  1.3727
  808SOL    HW2 2424   0.155   1.268   0.556  1.1084  1.0524  0.5046
  809SOL     OW 2425   2.663   0.919   2.314 -0.2041  0.0668  0.0866
  809SOL    HW1 2426   2.711   1.004   2.293 -0.9193 -2.7664  2.4798
  809SOL    HW2 2427   2.622   0.925   2.409 -1.2583 -0.1733  0.8136
  810SOL     OW 2428   1.538   0.705   1.444  0.0681  0.2423 -0.3514
  810SOL    HW1 2429   1.511   0.625   1.502  2.0882 -0.2133  0.3102
  810SOL    HW2 2430   1.597   0.676   1.363 -1.1048  1.5527  1.8142
  811SOL     OW 2431   2.039   2.811   1.391  0.0336 -0.1440 -0.6224
  811SOL    HW1 2432   2.052   2.714   1.354  0.7866  0.4509 -0.3294
  811SOL    HW2 2433   2.121   2.831   1.449 -0.3544 -1.4801  1.0958
  812SOL     OW 2434   1.629   0.058   2.971  0.3736  0.3874  0.0697
  812SOL    HW1 2435   1.584   0.090   3.054  0.7866  0.6423  0.2143
  812SOL    HW2 2436   1.597   3.041   2.934  0.4489 -0.5984 -1.5504
  813SOL     OW 2437   1.912   1.110   1.828  0.4631  0.8141  0.0636
  813SOL    HW1 2438   1.921   1.120   1.927  0.3665  0.8692  0.6985
  813SOL    HW2 2439   1.973   1.029   1.794  1.5203 -2.5008 -0.8785
  814SOL     OW 2440   1.541   1.076   1.900 -0.1671  0.2667 -0.0249
  814SOL    HW1 2441   1.592   1.088   1.814 -0.5363 -0.4172 -3.2080
  814SOL    HW2 2442   1.594   1.126   1.974  0.8643  1.1323 -1.1782
  815SOL     OW 2443   0.533   0.721   0.479  0.3564  0.1839 -0.0616
  815SOL    HW1 2444   0.621   0.773   0.465 -1.8076  1.1683  0.0994
  815SOL    HW2 2445   0.555   0.620   0.495 -0.9293 -3.6470 -1.3693
  816SOL     OW 2446   2.253   1.522   2.647  0.2831  0.1753  0.5420
  816SOL    HW1 2447   2.152   1.534   2.668  1.7526  2.9699  2.1820
  816SOL    HW2 2448   2.292   1.616   2.673  0.3253  1.2969  1.0235
  817SOL     OW 2449   0.500   2.607   0.632 -0.1688 -0.0208  0.8964
  817SOL    HW1 2450   0.520   2.519   0.677 -1.2356  1.1804  0.5117
  817SOL    HW2 2451   0.401   2.633   0.643  2.6169 -0.9267 -1.5200
  818SOL     OW 2452   1.807   0.423   2.732 -0.2336 -0.5550  0.2236
  818SOL    HW1 2453   1.848   0.424   2.828  0.2154  3.0869  0.5961
  818SOL    HW2 2454   1.726   0.364   2.732 -0.0049  0.2524  1.5995
  819SOL     OW 2455   1.574   0.639   0.572 -0.9303  0.0410  0.3143
  819SOL    HW1 2456   1.486   0.587   0.560  0.8485 -0.2903  1.3127
  819SOL    HW2 2457   1.593   0.709   0.497 -1.0720 -1.2862 -1.0225
  820SOL     OW 2458   1.712   1.021   0.446  0.6066 -0.0618 -0.1293
  820SOL    HW1 2459   1.638   1.024   0.518 -0.1767  0.2421  2.7684
  820SOL    HW2 2460   1.806   1.008   0.484 -1.5792  0.3904  0.8810
  821SOL     OW 2461   2.452   2.829   0.364 -0.0185 -0.1750  0.2334
  821SOL    HW1 2462   2.418   2.864   0.454  0.1165 -0.1441  1.8753
  821SOL    HW2 2463   2.458   2.893   0.285 -2.4544  2.7270  2.3086
  822SOL     OW 2464   0.342   2.777   2.097 -0.4452 -0.5886 -0.5148
  822SOL    HW1 2465   0.374   2.826   2.180 -0.4952  0.6872  1.5472
  822SOL    HW2 2466   0.312   2.848   2.028  1.0292 -1.0781  0.4176
  823SOL     OW 2467   2.366   2.225   1.623 -0.3387  0.5090  0.1792
  823SOL    HW1 2468   2.345   2.259   1.716 -0.2478  2.4677 -1.8246
  823SOL    HW2 2469   2.447   2.159   1.630 -0.5485  0.2828  1.8105
  824SOL     OW 2470   1.244   2.861   2.371 -0.0961 -0.5071  0.1228
  824SOL    HW1 2471   1.174   2.785   2.387 -1.9037 -3.1924  1.2670
  824SOL    HW2 2472   1.332   2.828   2.408 -1.5515  1.5636 -0.5746
  825SOL     OW 2473   1.534   1.562   0.693 -0.5837 -0.1834  0.0294
  825SOL    HW1 2474   1.613   1.498   0.717 -1.1180 -2.3175  0.4114
  825SOL    HW2 2475   1.546   1.613   0.604  2.3126 -1.6813 -3.8947
  826SOL     OW 2476   1.819   0.810   0.110  0.1500 -0.2498  0.1873
  826SOL    HW1 2477   1.854   0.849   0.196  0.5445  0.4352 -1.5352
  826SOL    HW2 2478   1.898   0.777   0.054  0.8810  0.9761  0.3576
  827SOL     OW 2479   0.423   1.334   1.517  0.3361  0.1889 -0.4745
  827SOL    HW1 2480   0.437   1.433   1.538  1.1641 -0.4038  0.8367
  827SOL    HW2 2481   0.468   1.314   1.424 -1.0534  2.5242 -1.4053
  828SOL     OW 2482   1.823   1.495   1.977 -0.1409  0.0693  0.2790
  828SOL    HW1 2483   1.754   1.419   1.971  1.3724 -0.3502 -3.3607
  828SOL    HW2 2484   1.839   1.543   1.888 -0.7720  0.0600  1.5233
  829SOL     OW 2485   0.056   1.851   0.137  0.2233  0.4628  0.1433
  829SOL    HW1 2486   0.049   1.882   0.037 -0.0297  1.4145 -2.8282
  829SOL    HW2 2487   0.158   1.846   0.159  1.5993  1.6417 -1.1701
  830SOL     OW 2488   1.233   0.562   0.692  0.1238 -0.3019  0.0551
  830SOL    HW1 2489   1.273   0.467   0.679 -2.1354 -1.6294  0.3940
  830SOL    HW2 2490   1.153   0.553   0.750  0.2560  0.1475 -1.6186
  831SOL     OW 2491   2.781   1.360   0.027  0.0539  0.6576 -0.2908
  831SOL    HW1 2492   2.794   1.350   2.999 -0.7718  0.3536 -0.0482
  831SOL    HW2 2493   2.769   1.455   0.048 -0.7982 -2.8321  0.8481
  832SOL     OW 2494   0.986   2.958   0.073  0.1223 -0.1432 -0.7399
  832SOL    HW1 2495   0.925   2.929   3.070 -0.6857 -1.6642  1.7792
  832SOL    HW2 2496   1.030   3.052   0.054  1.4951  4.1730  0.1897
  833SOL     OW 2497   1.105   0.687   1.998  0.2136 -0.1883  0.0612
  833SOL    HW1 2498   1.201   0.667   2.026 -0.1751 -1.7781  0.6761
  833SOL    HW2 2499   1.080   0.785   2.012  0.4609  2.4998 -0.4217
  834SOL     OW 2500   0.059   0.720   1.250  0.6405 -0.2405 -0.2827
  834SOL    HW1 2501   0.039   0.814   1.258  1.0305 -2.2599  0.1069
  834SOL    HW2 2502   0.131   0.699   1.179  1.3128 -0.5371  2.1302
  835SOL     OW 2503   2.923   0.401   1.453 -0.1406 -0.4865  0.0273
  835SOL    HW1 2504   2.825   0.403   1.487 -2.0189 -1.4829  0.4582
  835SOL    HW2 2505   2.978   0.330   1.508  0.7780 -2.3314  3.5268
  836SOL     OW 2506   0.491   2.017   0.455  0.0552  0.8445 -0.3679
  836SOL    HW1 2507   0.467   1.924   0.422  0.2775  0.7880 -0.0569
  836SOL    HW2 2508   0.584   2.019   0.502  1.9517 -2.1906 -0.4664
  837SOL     OW 2509   1.956   1.895   2.236  0.3219  0.0514  0.0184
  837SOL    HW1 2510   2.001   1.984   2.252 -0.0534 -1.8409  0.9509
  837SOL    HW2 2511   1.953   1.845   2.326 -0.4074  3.5044  0.9570
  838SOL     OW 2512   0.042   1.356   1.765 -0.3242  0.0367  0.2557
  838SOL    HW1 2513   0.129   1.310   1.734 -1.1471  2.0786 -1.4995
  838SOL    HW2 2514   0.019   1.334   1.859  0.6971 -1.6847 -2.1839
  839SOL     OW 2515   0.190   0.232   0.740 -0.4744  0.1553  0.2790
  839SOL    HW1 2516   0.165   0.141   0.774  0.4531  1.0501  0.9302
  839SOL    HW2 2517   0.280   0.262   0.781 -0.3139  0.6395  3.8965
  840SOL     OW 2518   2.981   0.108   2.561  0.3678 -0.1224 -0.2585
  840SOL    HW1 2519   3.056   0.073   2.506  1.0533  0.9013 -1.8084
  840SOL    HW2 2520   3.017   0.148   2.646  2.7413  0.5104  1.1463
  841SOL     OW 2521   0.544   2.852   0.074 -0.3391 -0.0859  0.4204
  841SOL    HW1 2522   0.467   2.804   0.032  0.7398 -2.6975  1.2207
  841SOL    HW2 2523   0.625   2.791   0.062  0.5790 -0.0935 -0.5401
  842SOL     OW 2524   0.783   0.017   0.894  0.2008  0.3358  0.7922
  842SOL    HW1 2525   0.686   0.025   0.870 -1.7834 -1.5957 -0.0684
  842SOL    HW2 2526   0.794   0.010   0.995  0.2728 -0.3038  1.8063
  843SOL     OW 2527   3.063   0.686   2.706  0.3695 -0.6989 -0.7893
  843SOL    HW1 2528   3.070   0.699   2.608  0.1024 -0.9455  1.7185
  843SOL    HW2 2529   0.031   0.600   2.739 -2.5204 -1.8057  1.1220
  844SOL     OW 2530   0.842   2.111   2.432 -0.2990 -0.4895  0.4671
  844SOL    HW1 2531   0.766   2.123   2.365  2.7403 -0.3117  0.4917
  844SOL    HW2 2532   0.895   2.035   2.393 -0.0731  1.9441  2.2325
  845SOL     OW 2533   2.272   2.765   2.546  0.3407 -0.6263  0.5987
  845SOL    HW1 2534   2.334   2.811   2.613  0.3274 -0.2645  0.6467
  845SOL    HW2 2535   2.231   2.833   2.481 -0.7939  0.2882  0.9174
  846SOL     OW 2536   1.704   1.370   2.304 -0.2550  0.1269 -0.5247
  846SOL    HW1 2537   1.803   1.370   2.276  0.3770 -2.4291 -1.5809
  846SOL    HW2 2538   1.694   1.370   2.400 -0.1265 -1.7768 -3.9943
  847SOL     OW 2539   2.809   2.935   2.887 -0.5257 -0.3403 -0.0150
  847SOL    HW1 2540   2.901   2.893   2.870  0.3720  1.6411  1.1165
  847SOL    HW2 2541   2.814   3.031   2.912  0.6147 -1.9206 -1.6890
  848SOL     OW 2542   0.178   0.505   0.346  0.1210  0.3155 -0.7823
  848SOL    HW1 2543   0.145   0.588   0.294  0.1398 -0.9078 -1.7799
  848SOL    HW2 2544   0.276   0.488   0.330 -1.5517  0.7278  0.5848
  849SOL     OW 2545   1.421   0.111   2.055 -0.1154  0.0765 -0.2682
  849SOL    HW1 2546   1.462   0.093   2.149 -1.3874 -2.8338 -2.5739
  849SOL    HW2 2547   1.348   0.183   2.057 -1.3704 -0.3310 -1.3201
  850SOL     OW 2548   0.568   0.850   0.743 -0.6010  0.0417 -0.4046
  850SOL    HW1 2549   0.527   0.806   0.658 -0.0449 -1.3194 -2.0191
  850SOL    HW2 2550   0.643   0.913   0.713 -2.9180  0.4647  2.0375
  851SOL     OW 2551   0.263   1.215   0.123  0.0851 -0.0854  0.2607
  851SOL    HW1 2552   0.344   1.259   0.166 -0.9983  1.6761 -2.1804
  851SOL    HW2 2553   0.291   1.131   0.073 -1.5362 -0.3504 -1.9271
  852SOL     OW 2554   1.418   0.825   1.894  0.0684 -0.1772  0.8222
  852SOL    HW1 2555   1.453   0.922   1.920  3.1592  3.4815  1.6035
  852SOL    HW2 2556   1.491   0.769   1.848 -0.1535  1.4833 -0.0040
  853SOL     OW 2557   2.810   1.488   0.429  0.3699 -0.7923  0.3019
  853SOL    HW1 2558   2.784   1.446   0.519 -1.8195 -3.0599 -2.3087
  853SOL    HW2 2559   2.853   1.418   0.368 -3.3965  0.9278 -4.7071
  854SOL     OW 2560   1.128   0.992   2.272  0.0332  0.1794  0.6441
  854SOL    HW1 2561   1.041   0.980   2.326 -0.3462  0.4462 -2.7413
  854SOL    HW2 2562   1.188   0.906   2.276  2.1433 -0.0221 -0.7855
  855SOL     OW 2563   0.315   2.793   3.004  0.3314  0.4898 -0.0712
  855SOL    HW1 2564   0.279   2.881   3.034  1.4212  0.0468 -2.5536
  855SOL    HW2 2565   0.243   2.720   2.985 -1.0774  0.3181  2.2758
  856SOL     OW 2566   1.210   0.739   2.308 -0.3185 -0.3578  0.6228
  856SOL    HW1 2567   1.266   0.708   2.229  3.5836  1.8500 -0.1507
  856SOL    HW2 2568   1.135   0.674   2.336 -0.0234  1.4757 -1.5637
  857SOL     OW 2569   1.408   0.792   2.480 -0.3399 -0.0305  0.4332
  857SOL    HW1 2570   1.451   0.701   2.484 -1.7726  3.0762 -2.3397
  857SOL    HW2 2571   1.323   0.794   2.429  1.0498 -0.6405  0.0532
  858SOL     OW 2572   2.940   1.032   2.153  0.6316  0.0505 -0.0732
  858SOL    HW1 2573   2.868   1.103   2.144 -0.6862  1.7033  2.2932
  858SOL    HW2 2574   2.992   1.035   2.241 -1.1195  2.7720  0.3536
  859SOL     OW 2575   2.432   0.178   0.690  0.3386  0.3334 -0.3949
  859SOL    HW1 2576   2.526   0.221   0.687  0.9633 -1.3685  0.5602
  859SOL    HW2 2577   2.391   0.167   0.595 -1.1347  0.4652 -1.1563
  860SOL     OW 2578   1.793   0.006   0.286  0.0780  0.1082 -0.0173
  860SOL    HW1 2579   1.787   0.079   0.357  0.3185 -0.9598  0.1754
  860SOL    HW2 2580   1.819   2.986   0.323  2.3426 -3.5608  2.0361
  861SOL     OW 2581   1.212   0.415   1.146 -0.1975  0.3891  0.5294
  861SOL    HW1 2582   1.193   0.476   1.226  1.4441  0.3642 -1.2031
  861SOL    HW2 2583   1.147   0.336   1.150 -1.2485  0.0992  1.2042
  862SOL     OW 2584   1.501   0.267   2.448  0.2719 -0.4246 -0.5107
  862SOL    HW1 2585   1.579   0.197   2.450  0.1548 -0.2921  0.7998
  862SOL    HW2 2586   1.448   0.262   2.361  1.3769  2.9769 -1.1177
  863SOL     OW 2587   2.725   2.675   0.757 -0.1907 -0.0792 -0.2349
  863SOL    HW1 2588   2.686   2.697   0.666  0.4971 -0.7946  0.2124
  863SOL    HW2 2589   2.827   2.678   0.746  2.7948 -1.0204 -1.3247
  864SOL     OW 2590   2.522   0.032   2.169 -0.1144  0.3061 -0.2486
  864SOL    HW1 2591   2.450   3.038   2.190  1.7487  2.6477  0.4828
  864SOL    HW2 2592   2.612   3.059   2.146 -0.1703 -1.1613  0.7804
  865SOL     OW 2593   1.270   1.289   1.916 -0.1252  1.0190 -0.0505
  865SOL    HW1 2594   1.190   1.290   1.852  3.5069  1.1980  0.0029
  865SOL    HW2 2595   1.333   1.215   1.894  0.6249 -0.5423 -1.4756
  866SOL     OW 2596   1.913   2.636   0.925  0.0630 -1.1707 -0.0910
  866SOL    HW1 2597   1.885   2.565   0.858  0.8031  2.2971 -0.1810
  866SOL    HW2 2598   1.833   2.661   0.983 -0.4910  3.1813  0.1964
  867SOL     OW 2599   2.343   2.994   0.555  0.0035  0.1631  0.2562
  867SOL    HW1 2600   2.336   3.012   0.654 -0.6405 -0.8248  2.1071
  867SOL    HW2 2601   2.341   0.006   0.497  0.0184 -1.7790  2.3685
  868SOL     OW 2602   0.106   2.184   1.718  0.0397  0.2053 -0.0309
  868SOL    HW1 2603   0.074   2.279   1.734 -2.9464  1.6511 -2.0496
  868SOL    HW2 2604   0.059   2.149   1.631  0.7834 -1.8069 -0.8772
  869SOL     OW 2605   2.120   2.332   2.314 -1.1198  0.4456  0.2346
  869SOL    HW1 2606   2.022   2.300   2.288 -2.0439 -0.0849  0.6116
  869SOL    HW2 2607   2.122   2.402   2.386  0.9852  0.1690  1.0354
  870SOL     OW 2608   1.327   1.427   0.818  0.1175  0.5900 -0.3590
  870SOL    HW1 2609   1.407   1.482   0.791 -2.3309 -1.8076 -0.1239
  870SOL    HW2 2610   1.362   1.334   0.850 -0.1107 -0.5877 -0.8549
  871SOL     OW 2611   2.805   1.744   1.938  0.0273  0.1373 -0.4644
  871SOL    HW1 2612   2.847   1.830   1.913  0.5837 -1.9701 -0.0322
  871SOL    HW2 2613   2.802   1.682   1.854  1.1511 -1.2512 -1.8162
  872SOL     OW 2614   0.949   1.566   2.718  0.4602 -0.1670 -0.0094
  872SOL    HW1 2615   0.994   1.654   2.688 -1.3135 -2.9303  0.9243
  872SOL    HW2 2616   0.853   1.561   2.687 -0.5268  0.0094  1.3390
  873SOL     OW 2617   0.794   1.228   1.793 -0.1220 -0.0055 -0.1027
  873SOL    HW1 2618   0.766   1.319   1.836 -1.2834  1.3707  4.8064
  873SOL    HW2 2619   0.820   1.159   1.862 -1.7285 -0.2907 -4.1886
  874SOL     OW 2620   1.702   1.067   1.660 -0.6539 -0.6149  0.4457
  874SOL    HW1 2621   1.712   1.005   1.580 -0.3899 -0.7274 -1.2164
  874SOL    HW2 2622   1.782   1.076   1.723  3.7630  1.5333  2.4817
  875SOL     OW 2623   2.826   0.030   0.109  0.4413  0.0462  0.2079
  875SOL    HW1 2624   2.813   3.011   0.145  0.5649  1.5456  0.5788
  875SOL    HW2 2625   2.851   0.095   0.184  0.3323 -1.0550  1.3257
  876SOL     OW 2626   0.624   1.049   0.298 -0.4645 -0.3254  0.4031
  876SOL    HW1 2627   0.658   0.967   0.349 -1.0823 -2.5819 -0.0971
  876SOL    HW2 2628   0.701   1.107   0.259  2.4009  0.4764 -2.1223
  877SOL     OW 2629   2.694   2.767   0.504 -0.4463 -0.2502 -0.6038
  877SOL    HW1 2630   2.613   2.788   0.448  0.2154  0.2795  0.4882
  877SOL    HW2 2631   2.768   2.722   0.446 -0.9677 -1.3053 -0.4194
  878SOL     OW 2632   2.080   1.758   0.684  0.0209  0.3883 -0.5414
  878SOL    HW1 2633   2.110   1.804   0.597 -2.3328 -1.9561  0.4774
  878SOL    HW2 2634   1.981   1.765   0.698  1.1281  1.9741 -1.4892
  879SOL     OW 2635   2.641   1.687   1.341 -0.1490 -0.3958  0.0889
  879SOL    HW1 2636   2.616   1.628   1.422  0.5154  1.5366 -0.0998
  879SOL    HW2 2637   2.648   1.622   1.263  1.0254 -1.8010 -0.0927
  880SOL     OW 2638   0.363   2.022   0.996  0.2372 -0.6339  0.5795
  880SOL    HW1 2639   0.408   1.993   1.085 -2.2356 -0.7792  0.7923
  880SOL    HW2 2640   0.392   1.971   0.908  0.5815 -0.5633 -0.2838
  881SOL     OW 2641   0.611   0.627   1.159 -0.3692 -0.3360  0.0364
  881SOL    HW1 2642   0.658   0.696   1.221  0.6631  0.2490 -0.1211
  881SOL    HW2 2643   0.544   0.677   1.099 -3.1825 -0.0773 -1.0038
  882SOL     OW 2644   2.341   1.354   1.317 -0.0600 -0.5513  0.3683
  882SOL    HW1 2645   2.319   1.368   1.221 -1.5086 -1.4085 -2.4659
  882SOL    HW2 2646   2.441   1.362   1.330 -1.8602 -0.6922  3.1199
  883SOL     OW 2647   1.445   0.220   1.585  0.2859 -0.2258  0.2017
  883SOL    HW1 2648   1.499   0.178   1.658 -0.6238  2.4308 -0.9513
  883SOL    HW2 2649   1.469   0.190   1.493  2.3388 -0.2733 -0.4046
  884SOL     OW 2650   3.022   0.239   1.895  0.9356  0.1386  0.3578
  884SOL    HW1 2651   0.010   0.277   1.968  2.0998 -1.1253  0.6767
  884SOL    HW2 2652   2.939   0.296   1.895  2.5500  1.1734 -3.0737
  885SOL     OW 2653   1.414   1.528   3.002 -0.3246  0.3070 -0.3204
  885SOL    HW1 2654   1.338   1.584   2.973 -0.0852  1.3607  0.2350
  885SOL    HW2 2655   1.502   1.551   2.953 -0.0768  0.2320  1.1084
  886SOL     OW 2656   1.886   0.332   2.967 -0.0017 -1.0419 -0.0391
  886SOL    HW1 2657   1.823   0.345   3.047  1.2406 -1.1550 -0.9733
  886SOL    HW2 2658   1.983   0.309   2.992  2.2708 -1.5718 -0.6920
  887SOL     OW 2659   1.552   2.981   1.402  0.2839  0.4294 -0.0226
  887SOL    HW1 2660   1.516   0.001   1.374 -2.6807 -0.0466 -1.5389
  887SOL    HW2 2661   1.647   2.992   1.441 -0.4565  0.7218  1.1275
  888SOL     OW 2662   1.816   1.776   2.006 -0.2338 -0.2169 -0.0586
  888SOL    HW1 2663   1.802   1.678   2.030  2.7116 -1.7701  1.4209
  888SOL    HW2 2664   1.872   1.823   2.076  1.5994 -0.1443 -0.5868
  889SOL     OW 2665   1.984   2.291   0.444 -0.3314 -0.3613  0.1149
  889SOL    HW1 2666   2.028   2.227   0.375  2.5696 -3.6415  0.2128
  889SOL    HW2 2667   2.023   2.387   0.437  0.0194  2.6996  0.0245
  890SOL     OW 2668   1.291   2.019   0.586 -0.0478 -0.2235  0.3131
  890SOL    HW1 2669   1.200   2.071   0.570 -4.3190 -0.5025 -0.1807
  890SOL    HW2 2670   1.322   1.975   0.502  0.3853  1.3032 -1.5656
  891SOL     OW 2671   2.799   0.851   3.050  0.3232 -0.2481 -0.1892
  891SOL    HW1 2672   2.795   0.806   0.069  1.8455  0.3310  2.0531
  891SOL    HW2 2673   2.739   0.934   3.042 -1.1894  2.0770  0.4876
  892SOL     OW 2674   2.019   0.605   2.801 -0.3742  0.3694  0.1493
  892SOL    HW1 2675   2.111   0.617   2.756  1.8877  3.1519 -1.5658
  892SOL    HW2 2676   1.970   0.516   2.777  0.8094 -3.2350  3.2387
  893SOL     OW 2677   1.703   2.663   1.503  0.2572  0.5958 -0.0024
  893SOL    HW1 2678   1.741   2.743   1.451  0.6385 -0.0294  1.3372
  893SOL    HW2 2679   1.777   2.612   1.543 -2.4924 -0.4252 -1.4077
  894SOL     OW 2680   2.776   3.057   0.428  0.0262 -0.0403  0.1572
  894SOL    HW1 2681   2.744   2.993   0.354 -2.1037 -1.4349 -1.2501
  894SOL    HW2 2682   2.763   3.015   0.520  0.3185 -0.9643 -2.8915
  895SOL     OW 2683   2.037   2.205   2.876  0.0922  0.4680  0.0159
  895SOL    HW1 2684   2.122   2.162   2.840 -2.8821  1.8884  2.6650
  895SOL    HW2 2685   2.052   2.305   2.873 -1.0080  0.1500  0.5434
  896SOL     OW 2686   2.288   0.092   2.425  0.1179  0.1405  0.1054
  896SOL    HW1 2687   2.268   0.146   2.510 -0.3715 -1.0949  1.6231
  896SOL    HW2 2688   2.270   0.146   2.338 -0.2659  1.4814  0.4715
  897SOL     OW 2689   0.335   1.696   2.039  0.3699  0.0264 -0.2110
  897SOL    HW1 2690   0.338   1.605   1.991  0.1509  1.9196 -0.3688
  897SOL    HW2 2691   0.423   1.753   2.022 -0.1843  2.0421 -0.9817
  898SOL     OW 2692   2.285   1.739   1.778 -0.0729 -0.3906  1.0435
  898SOL    HW1 2693   2.237   1.806   1.716  0.0612 -2.6441  0.0553
  898SOL    HW2 2694   2.378   1.771   1.810  0.2501 -1.4735 -1.6481
  899SOL     OW 2695   1.671   2.628   1.044 -0.3060  0.2580  0.6303
  899SOL    HW1 2696   1.601   2.588   0.976 -0.8452 -0.0333 -3.3514
  899SOL    HW2 2697   1.623   2.698   1.103 -0.7254 -0.8864  1.6136
  900SOL     OW 2698   1.070   0.860   0.164  0.0137  0.3711 -0.0649
  900SOL    HW1 2699   1.130   0.869   0.082 -2.4287 -0.6395  0.6826
  900SOL    HW2 2700   0.972   0.853   0.130  0.0987  0.8287 -0.4568
  901SOL     OW 2701   1.340   1.437   2.354 -0.5053 -0.6632  0.1566
  901SOL    HW1 2702   1.273   1.392   2.296  2.9322  0.1654  0.6792
  901SOL    HW2 2703   1.410   1.488   2.297  0.2183  0.4694  0.4610
  902SOL     OW 2704   0.027   2.470   0.147  0.0772  0.0201  0.0731
  902SOL    HW1 2705   0.058   2.395   0.208  0.2722  0.4258 -0.1934
  902SOL    HW2 2706   2.999   2.476   0.136 -0.3512 -1.6286 -0.5670
  903SOL     OW 2707   2.307   0.809   1.763  0.4816 -0.1454  0.1464
  903SOL    HW1 2708   2.330   0.712   1.772 -0.9815 -0.5962 -0.6785
  903SOL    HW2 2709   2.359   0.866   1.827  0.7812 -2.3196 -0.2821
  904SOL     OW 2710   1.632   0.633   3.069  0.1579 -0.0317 -0.0618
  904SOL    HW1 2711   1.637   0.730   0.020  0.3450  2.7751  1.8198
  904SOL    HW2 2712   1.700   0.577   0.050 -1.0367 -0.1053 -1.2955
  905SOL     OW 2713   2.106   2.454   1.074  0.5358  0.2997 -0.6234
  905SOL    HW1 2714   2.109   2.559   1.069  0.5493  4.3068  0.5111
  905SOL    HW2 2715   2.094   2.412   0.982 -3.3412 -0.2169 -2.5358
  906SOL     OW 2716   1.468   2.016   2.973  0.3009  0.3775  0.1280
  906SOL    HW1 2717   1.495   1.939   3.033  1.4860 -1.1520 -1.1281
  906SOL    HW2 2718   1.445   1.982   2.880  1.7746 -0.0896  1.3513
  907SOL     OW 2719   0.784   2.633   0.646 -0.5072  0.3023 -0.3321
  907SOL    HW1 2720   0.680   2.632   0.652 -2.4766  1.8956 -1.0576
  907SOL    HW2 2721   0.822   2.566   0.575  1.0434 -0.8405 -1.7130
  908SOL     OW 2722   1.170   2.693   1.929 -0.6251 -0.0018 -0.2290
  908SOL    HW1 2723   1.197   2.610   1.877 -1.5833  1.2671 -1.9189
  908SOL    HW2 2724   1.242   2.725   1.989  0.4557 -2.6141  0.6119
  909SOL     OW 2725   1.682   0.526   1.256 -0.4128 -0.0788 -0.5139
  909SOL    HW1 2726   1.702   0.425   1.274 -0.9609 -3.6136  0.4967
  909SOL    HW2 2727   1.598   0.531   1.192 -0.7901 -0.8282 -3.4414
  910SOL     OW 2728   1.216   0.858   3.007  0.2125 -0.1732 -0.2400
  910SOL    HW1 2729   1.153   0.914   2.946 -0.9304  0.0779 -2.2583
  910SOL    HW2 2730   1.291   0.820   2.961  1.4913  1.6016  3.1898
  911SOL     OW 2731   2.841   0.726   0.213  0.2190 -0.8172  0.0069
  911SOL    HW1 2732   2.796   0.644   0.249 -2.1147  1.7493 -1.1324
  911SOL    HW2 2733   2.834   0.810   0.275 -0.4337  1.1853  1.7123
  912SOL     OW 2734   3.027   2.142   3.039 -0.1528 -0.3758  0.1644
  912SOL    HW1 2735   3.071   2.060   3.001 -0.1537  0.1020 -0.2034
  912SOL    HW2 2736   0.013   2.184   0.039  0.8738  3.5781  1.4257
  913SOL     OW 2737   2.591   1.892   2.644  0.7266 -0.3236  0.4154
  913SOL    HW1 2738   2.639   1.972   2.684  3.3079 -0.4977 -0.8235
  913SOL    HW2 2739   2.623   1.806   2.690  0.5118 -1.8500 -0.1299
  914SOL     OW 2740   1.274   1.679   1.544  0.4606  0.1303  0.2499
  914SOL    HW1 2741   1.297   1.684   1.447  1.6702 -0.1182  1.5490
  914SOL    HW2 2742   1.309   1.763   1.589 -1.4221 -2.5125  1.0009
  915SOL     OW 2743   0.628   2.552   2.140  0.1384 -0.1801 -0.0005
  915SOL    HW1 2744   0.681   2.629   2.100 -0.7738 -1.2970  0.5364
  915SOL    HW2 2745   0.671   2.511   2.226  1.7278  0.1716  1.3147
  916SOL     OW 2746   0.292   1.266   1.740 -0.0341 -0.2307  0.4609
  916SOL    HW1 2747   0.329   1.172   1.761 -0.6175 -2.3096 -0.1334
  916SOL    HW2 2748   0.339   1.298   1.652  1.1490 -1.6398 -1.1116
  917SOL     OW 2749   2.332   0.173   0.437 -0.3252 -0.2580  0.2204
  917SOL    HW1 2750   2.285   0.136   0.354 -2.0698  0.7337  2.6136
  917SOL    HW2 2751   2.431   0.190   0.409  0.6299  3.1768 -0.2340
  918SOL     OW 2752   1.559   2.648   2.282 -0.1553  0.3949  0.2213
  918SOL    HW1 2753   1.661   2.644   2.293  1.2940  0.1852 -1.5911
  918SOL    HW2 2754   1.500   2.651   2.360  0.8910 -0.1511 -1.0267
  919SOL     OW 2755   1.539   2.457   1.696  0.7947  0.3854  0.2445
  919SOL    HW1 2756   1.509   2.540   1.647  1.3048 -1.8255  0.1100
  919SOL    HW2 2757   1.471   2.381   1.699 -0.5178  1.1181  0.5677
  920SOL     OW 2758   0.699   1.028   3.000  0.1820  0.0945  0.1559
  920SOL    HW1 2759   0.702   1.062   2.902 -0.6456 -0.3366 -1.8805
  920SOL    HW2 2760   0.608   1.027   3.041 -0.3452 -0.4593  0.8276
  921SOL     OW 2761   0.066   0.378   2.582  0.2534  0.1463 -0.9036
  921SOL    HW1 2762   3.042   0.393   2.559  1.5162 -1.9203  1.5075
  921SOL    HW2 2763   0.133   0.433   2.527  0.4164 -0.8419 -0.4853
  922SOL     OW 2764   0.739   1.976   0.599  0.2592 -0.4670  0.3467
  922SOL    HW1 2765   0.763   1.895   0.538  1.0927 -2.4559 -1.6403
  922SOL    HW2 2766   0.768   1.956   0.695 -0.7799  1.3920  0.7629
  923SOL     OW 2767   0.485   1.018   2.031 -0.3019 -0.1361  0.5377
  923SOL    HW1 2768   0.500   1.050   1.936 -0.9805 -0.4931  0.3055
  923SOL    HW2 2769   0.410   1.076   2.064  0.8058 -0.0692 -0.9311
  924SOL     OW 2770   1.455   3.039   2.641  0.2299 -0.3938  0.2060
  924SOL    HW1 2771   1.372   0.029   2.641  2.8909  0.4512 -0.6378
  924SOL    HW2 2772   1.441   2.977   2.718 -2.2910 -0.1813 -2.9041
  925SOL     OW 2773   2.588   1.512   1.538  0.7508 -0.5816  0.5940
  925SOL    HW1 2774   2.498   1.474   1.574 -1.4227 -1.4922 -0.3277
  925SOL    HW2 2775   2.651   1.438   1.511 -1.1074  2.0381 -2.4203
  926SOL     OW 2776   2.007   0.792   1.525 -0.1146  0.2017 -0.2461
  926SOL    HW1 2777   2.075   0.852   1.479 -0.6700 -2.5513  0.2400
  926SOL    HW2 2778   2.035   0.695   1.524 -0.0631  1.9891  1.9523
  927SOL     OW 2779   2.317   2.803   1.304  0.1734  0.7802 -0.2894
  927SOL    HW1 2780   2.388   2.805   1.378 -1.8940  0.8283  2.4163
  927SOL    HW2 2781   2.283   2.898   1.276  1.7748 -1.8582  1.3348
  928SOL     OW 2782   0.269   0.746   2.057 -0.7279  0.7324  0.0648
  928SOL    HW1 2783   0.255   0.835   2.099  1.5537 -1.2398 -0.1682
  928SOL    HW2 2784   0.276   0.749   1.953 -2.4004  0.2618 -0.8747
  929SOL     OW 2785   2.451   0.568   0.687  0.6025 -0.2381 -0.1279
  929SOL    HW1 2786   2.467   0.585   0.585 -0.4976 -0.6324  0.3536
  929SOL    HW2 2787   2.539   0.544   0.739  3.5164  0.5583  0.9407
  930SOL     OW 2788   2.938   2.864   1.855  0.1645  0.6709 -0.1903
  930SOL    HW1 2789   2.853   2.813   1.868  2.3953  0.2986  0.9531
  930SOL    HW2 2790   2.932   2.910   1.768  3.3403 -1.4129 -1.8999
  931SOL     OW 2791   1.970   1.051   0.554  0.3876 -0.4317  0.4224
  931SOL    HW1 2792   1.970   1.056   0.658 -2.2668  0.1802  1.6508
  931SOL    HW2 2793   2.043   1.113   0.518  1.8192 -4.9859 -2.8828
  932SOL     OW 2794   2.592   1.167   1.876 -0.6022 -0.2149 -0.2996
  932SOL    HW1 2795   2.493   1.150   1.879 -0.4272  4.0958  1.4312
  932SOL    HW2 2796   2.626   1.130   1.786 -0.0431 -0.4872  0.3583
  933SOL     OW 2797   2.800   2.264   1.871 -0.2210  0.2727 -0.1194
  933SOL    HW1 2798   2.701   2.242   1.867  2.1069  0.7779 -2.0699
  933SOL    HW2 2799   2.846   2.171   1.886 -0.1133  2.8872  0.1670
  934SOL     OW 2800   0.648   2.040   1.461 -1.0466  0.0856 -0.1036
  934SOL    HW1 2801   0.737   2.056   1.516  0.7679  0.6155  1.0353
  934SOL    HW2 2802   0.572   2.097   1.504 -0.4383  2.2795  1.0724
  935SOL     OW 2803   2.616   1.647   2.090 -0.0899  0.0135  0.5938
  935SOL    HW1 2804   2.692   1.697   2.044  0.2795  1.0093 -1.4016
  935SOL    HW2 2805   2.605   1.554   2.050 -1.3376 -0.0180 -1.3290
  936SOL     OW 2806   2.155   1.686   2.204 -0.1787  0.3146  0.5846
  936SOL    HW1 2807   2.156   1.651   2.105  0.1474  1.7014 -1.3606
  936SOL    HW2 2808   2.087   1.762   2.207  0.1072  0.7077 -0.3904
  937SOL     OW 2809   1.804   1.582   1.704 -0.0959  1.3180 -0.6028
  937SOL    HW1 2810   1.717   1.543   1.670 -0.3294 -1.6160 -0.8465
  937SOL    HW2 2811   1.884   1.586   1.641 -1.0643  1.1154  2.8448
  938SOL     OW 2812   0.737   2.459   2.434  0.6125 -0.0435 -0.1672
  938SOL    HW1 2813   0.822   2.458   2.383 -3.7770  1.6767  1.1677
  938SOL    HW2 2814   0.751   2.400   2.523 -1.2443 -1.4211  0.6824
  939SOL     OW 2815   2.252   1.168   3.064  0.5596 -0.3622 -0.5257
  939SOL    HW1 2816   2.173   1.191   3.000 -2.2312 -0.0919  0.1962
  939SOL    HW2 2817   2.226   1.084   0.046 -0.9632 -0.8727 -1.1091
  940SOL     OW 2818   0.994   1.617   0.624 -0.8790 -0.0313  0.1168
  940SOL    HW1 2819   1.058   1.540   0.612 -2.0204  0.0845  1.3731
  940SOL    HW2 2820   0.990   1.639   0.722  1.0973 -0.2755 -1.4808
  941SOL     OW 2821   1.658   2.890   2.567  1.6974  0.1780  0.7678
  941SOL    HW1 2822   1.574   2.946   2.567 -0.6647 -1.3531 -0.1827
  941SOL    HW2 2823   1.643   2.798   2.610  0.9916 -0.1554  1.0599
  942SOL     OW 2824   0.850   2.472   0.413 -0.0331 -0.3731  0.1676
  942SOL    HW1 2825   0.783   2.449   0.337  0.2562  0.5844 -2.4645
  942SOL    HW2 2826   0.946   2.464   0.392 -1.8348 -0.9751 -2.4417
  943SOL     OW 2827   1.747   0.042   1.663  0.7362 -0.0272  0.1402
  943SOL    HW1 2828   1.669   0.049   1.735 -1.4764 -2.3809  0.3616
  943SOL    HW2 2829   1.785   0.132   1.629 -0.0334  0.5398 -1.0971
  944SOL     OW 2830   0.872   1.361   2.882  0.0730  0.3852  0.4974
  944SOL    HW1 2831   0.914   1.437   2.824 -2.1472  0.8214  0.3079
  944SOL    HW2 2832   0.825   1.285   2.823  0.1211 -1.7255 -0.8295
  945SOL     OW 2833   2.989   2.398   1.194  0.1824  0.2770  0.1042
  945SOL    HW1 2834   2.955   2.439   1.281  0.5513  1.1549 -0.9277
  945SOL    HW2 2835   2.927   2.414   1.118 -0.7865 -0.8673  0.5398
  946SOL     OW 2836   0.775   1.141   2.750  0.0857  0.1385 -0.1306
  946SOL    HW1 2837   0.853   1.134   2.682 -0.0893  0.7878 -1.5156
  946SOL    HW2 2838   0.684   1.131   2.702 -0.4031 -1.1761  0.2489
  947SOL     OW 2839   2.788   0.075   1.939  0.2463  0.0402  0.2271
  947SOL    HW1 2840   2.886   0.106   1.908  1.4886  1.1709 -2.3307
  947SOL    HW2 2841   2.790   0.045   2.032 -4.3779  4.3328 -2.4887
  948SOL     OW 2842   0.080   1.928   1.137  0.2245  0.3823 -0.5857
  948SOL    HW1 2843   0.149   1.853   1.120  1.5423 -1.9244  1.0346
  948SOL    HW2 2844   0.073   1.940   1.239 -1.8083 -1.7561  2.2756
  949SOL     OW 2845   1.249   1.139   1.654  0.3515 -0.0342  0.1235
  949SOL    HW1 2846   1.251   1.117   1.556  0.9424  1.0523  1.2975
  949SOL    HW2 2847   1.184   1.220   1.667  0.3958  1.1295  0.3936
  950SOL     OW 2848   0.154   1.017   1.118 -0.4695 -0.2882 -0.1327
  950SOL    HW1 2849   0.092   1.005   1.039  0.4254 -0.0215  0.2010
  950SOL    HW2 2850   0.223   1.086   1.093  0.8049  0.7844 -0.8134
  951SOL     OW 2851   0.250   1.906   2.203  0.1229  0.1654  0.5142
  951SOL    HW1 2852   0.283   1.991   2.161  2.5055 -2.7958  1.1668
  951SOL    HW2 2853   0.276   1.829   2.146  1.1303  2.3003 -0.9370
  952SOL     OW 2854   1.381   1.755   0.333 -0.2006  0.6536  0.0787
  952SOL    HW1 2855   1.343   1.846   0.318  1.4319 -1.2296 -2.9337
  952SOL    HW2 2856   1.336   1.685   0.270  1.0573 -2.2452 -0.3897
  953SOL     OW 2857   1.018   0.581   0.250  0.1417 -0.3237  0.1939
  953SOL    HW1 2858   0.980   0.554   0.160  1.9632  0.4027  2.6406
  953SOL    HW2 2859   1.069   0.671   0.239  1.4458  1.5054  1.1606
  954SOL     OW 2860   2.015   1.099   0.829 -0.1795  0.3468 -0.5307
  954SOL    HW1 2861   2.111   1.127   0.804  1.2969  0.8629 -2.3336
  954SOL    HW2 2862   1.995   1.098   0.928  1.5835  2.3927  1.6267
  955SOL     OW 2863   2.545   1.596   0.402 -0.0148 -0.7413  0.0265
  955SOL    HW1 2864   2.519   1.669   0.334  0.5947  1.0171 -2.0427
  955SOL    HW2 2865   2.646   1.573   0.388  1.0608  0.1139  0.5759
  956SOL     OW 2866   0.959   0.454   1.678 -0.2374  0.1157 -0.7009
  956SOL    HW1 2867   1.041   0.516   1.667 -0.6263 -1.7692 -0.4658
  956SOL    HW2 2868   0.957   0.393   1.593 -3.2341 -1.8933 -1.0498
  957SOL     OW 2869   1.664   0.822   1.083  0.2396  0.3138 -0.2981
  957SOL    HW1 2870   1.752   0.806   1.133  2.2661  1.9514  1.7305
  957SOL    HW2 2871   1.586   0.788   1.138 -2.2173  0.0272  0.9269
  958SOL     OW 2872   0.475   1.909   0.759  0.1088  0.4163 -0.3830
  958SOL    HW1 2873   0.375   1.879   0.751  1.2028 -0.8928  3.1435
  958SOL    HW2 2874   0.513   1.944   0.675 -1.9265 -0.9199  1.7056
  959SOL     OW 2875   2.048   1.815   1.465  0.1313  0.1266  0.0191
  959SOL    HW1 2876   2.081   1.876   1.543 -1.5715  4.1378  2.4172
  959SOL    HW2 2877   2.115   1.810   1.384  2.1335  2.5635 -2.2662
  960SOL     OW 2878   2.940   1.669   2.716 -0.5379 -0.4725 -0.6775
  960SOL    HW1 2879   2.950   1.683   2.818 -1.8155 -2.0198 -0.1403
  960SOL    HW2 2880   2.992   1.591   2.674  1.3546  2.1977  0.7359
  961SOL     OW 2881   0.871   1.346   0.750 -0.3185  0.0520  0.0984
  961SOL    HW1 2882   0.835   1.425   0.808 -3.1529  1.5567  2.4297
  961SOL    HW2 2883   0.932   1.285   0.812  0.2419  0.5231  0.1309
  962SOL     OW 2884   0.885   0.878   0.637  0.1260 -0.0361  0.5852
  962SOL    HW1 2885   0.911   0.801   0.575 -1.4110  2.7272 -1.8065
  962SOL    HW2 2886   0.968   0.933   0.653 -0.9218 -0.5750 -0.3087
  963SOL     OW 2887   1.193   1.833   2.136 -0.0687  0.2153  0.1719
  963SOL    HW1 2888   1.178   1.745   2.184  1.1006  0.2361 -0.9076
  963SOL    HW2 2889   1.288   1.845   2.106  2.4816 -0.7042 -1.1430
  964SOL     OW 2890   0.254   2.640   2.485 -0.2051  0.1827 -0.2402
  964SOL    HW1 2891   0.354   2.630   2.485  1.1589 -3.3715 -0.1514
  964SOL    HW2 2892   0.217   2.610   2.572  0.1165  1.1040  1.7118
  965SOL     OW 2893   0.714   2.167   0.212 -0.1177 -0.2883  0.0124
  965SOL    HW1 2894   0.786   2.232   0.181 -1.4305 -0.5812 -0.2974
  965SOL    HW2 2895   0.637   2.219   0.256  0.4685  1.8873 -0.8217
  966SOL     OW 2896   2.974   1.685   2.990 -0.0330 -0.1191  0.0221
  966SOL    HW1 2897   2.904   1.666   3.057  1.5731 -0.7585 -1.7566
  966SOL    HW2 2898   3.055   1.627   3.012  0.5753 -0.5666 -2.0680
  967SOL     OW 2899   2.069   2.743   2.713  0.4148  0.2862 -0.3090
  967SOL    HW1 2900   2.148   2.765   2.650  0.7972  1.4916  1.9276
  967SOL    HW2 2901   1.986   2.783   2.673  0.7711 -1.6950 -0.5429
  968SOL     OW 2902   2.043   2.999   0.856 -0.6473  0.5759  0.1544
  968SOL    HW1 2903   2.144   3.004   0.868  0.1502  1.4580  1.3830
  968SOL    HW2 2904   2.019   2.935   0.782  0.4932 -0.9569 -0.8525
  969SOL     OW 2905   0.690   1.034   2.211 -0.2599  0.2561 -0.7151
  969SOL    HW1 2906   0.665   1.112   2.272 -0.4638  0.5034  1.1765
  969SOL    HW2 2907   0.610   1.020   2.151 -0.6029  1.1805 -1.3408
  970SOL     OW 2908   1.692   1.323   0.675 -0.0082 -0.1189 -0.1109
  970SOL    HW1 2909   1.785   1.351   0.644 -1.4797  2.3410  2.6958
  970SOL    HW2 2910   1.705   1.277   0.769 -1.8262 -0.7788  0.7070
  971SOL     OW 2911   2.503   2.879   1.543 -0.4728 -0.3509  0.4923
  971SOL    HW1 2912   2.488   2.879   1.646 -0.1831  2.3417  0.4393
  971SOL    HW2 2913   2.570   2.953   1.515  1.1310  3.3358  3.6326
  972SOL     OW 2914   3.020   0.211   1.622 -1.1718 -0.0268  0.2552
  972SOL    HW1 2915   2.979   0.117   1.619 -2.7054 -0.8342  3.0163
  972SOL    HW2 2916   3.045   0.231   1.718 -1.5515  2.4980  2.4342
  973SOL     OW 2917   0.189   0.143   2.478  0.0480 -0.9449  0.5157
  973SOL    HW1 2918   0.276   0.110   2.522 -0.2566 -1.4723  2.3667
  973SOL    HW2 2919   0.145   0.217   2.535 -2.4724 -0.3404  0.7008
  974SOL     OW 2920   2.398   0.999   1.950  0.1247  0.0389  0.0739
  974SOL    HW1 2921   2.305   1.020   1.992 -2.5535  3.2909  3.8117
  974SOL    HW2 2922   2.450   0.926   2.004  1.1765 -2.3007 -0.5067
  975SOL     OW 2923   0.894   0.548   1.278 -0.2577 -0.0215  0.1508
  975SOL    HW1 2924   0.863   0.485   1.202  1.2306  1.2899 -0.5795
  975SOL    HW2 2925   0.832   0.632   1.281 -0.5981 -2.5893 -4.0154
  976SOL     OW 2926   0.740   1.482   1.863  0.2442 -0.7026 -0.0799
  976SOL    HW1 2927   0.674   1.496   1.943 -1.9707 -0.6653  3.6376
  976SOL    HW2 2928   0.807   1.561   1.852  2.0316  0.2847 -1.4359
  977SOL     OW 2929   0.956   0.268   0.264 -0.5212 -0.2438 -0.0951
  977SOL    HW1 2930   0.928   0.333   0.194  1.7893 -0.5788  1.5033
  977SOL    HW2 2931   1.030   0.306   0.323 -0.4765  0.2246 -1.4057
  978SOL     OW 2932   2.535   0.815   2.101  0.3127  0.3394  0.3908
  978SOL    HW1 2933   2.473   0.735   2.120  1.4147 -1.9051 -2.2203
  978SOL    HW2 2934   2.574   0.855   2.188 -0.2545  0.4215  0.5956
  979SOL     OW 2935   1.586   0.424   1.898  0.1523 -0.3419 -0.4373
  979SOL    HW1 2936   1.485   0.421   1.865  0.6249  0.5821 -3.0312
  979SOL    HW2 2937   1.627   0.516   1.891  1.1047 -0.2667 -2.1359
  980SOL     OW 2938   1.558   1.718   1.830 -0.3751  0.3632 -0.1223
  980SOL    HW1 2939   1.517   1.632   1.788  1.2695 -2.7228 -0.6507
  980SOL    HW2 2940   1.663   1.710   1.825  2.0743 -1.0586 -1.4042
  981SOL     OW 2941   2.497   0.988   1.412 -0.2573  0.0351  0.4994
  981SOL    HW1 2942   2.579   1.049   1.401 -0.4902  1.4986  0.4346
  981SOL    HW2 2943   2.456   1.003   1.503  0.5532  1.4864  1.6326
  982SOL     OW 2944   0.489   0.332   2.756 -0.7600 -0.4781  0.0905
  982SOL    HW1 2945   0.481   0.430   2.782 -2.7720  2.3566  2.5301
  982SOL    HW2 2946   0.546   0.284   2.820  0.4361  2.5319 -3.6464
  983SOL     OW 2947   2.252   0.790   2.862  0.6167 -0.8521  0.5444
  983SOL    HW1 2948   2.213   0.831   2.777  0.6592 -0.5067  0.6057
  983SOL    HW2 2949   2.200   0.823   2.945 -1.1296  1.8481  1.4978
  984SOL     OW 2950   1.255   3.046   1.808 -0.3653 -0.3428  0.0196
  984SOL    HW1 2951   1.305   0.007   1.892  3.6524  2.1011  2.1831
  984SOL    HW2 2952   1.165   3.012   1.833  1.9061  0.8403 -1.0853
  985SOL     OW 2953   1.667   2.016   2.081 -0.1660  0.0649 -0.4075
  985SOL    HW1 2954   1.730   1.946   2.047  1.2804 -0.2790 -0.5078
  985SOL    HW2 2955   1.701   2.109   2.063  2.1544 -1.4488  0.4508
  986SOL     OW 2956   2.337   0.511   1.447 -0.3021 -0.3120  0.7660
  986SOL    HW1 2957   2.414   0.556   1.495  0.6453 -0.3883 -2.0352
  986SOL    HW2 2958   2.335   0.410   1.462 -1.3102 -2.6754  2.8260
  987SOL     OW 2959   2.662   1.179   1.259  0.1309 -0.4373  0.6232
  987SOL    HW1 2960   2.633   1.221   1.173 -0.1878  1.0336  0.2538
  987SOL    HW2 2961   2.712   1.244   1.320  0.8469 -0.3376  1.4904
  988SOL     OW 2962   2.163   1.977   1.658  0.0374 -0.0136  0.1147
  988SOL    HW1 2963   2.151   1.996   1.757  2.0611  0.6801 -0.2164
  988SOL    HW2 2964   2.183   2.060   1.604 -1.9202 -2.4464  0.9469
  989SOL     OW 2965   1.134   2.481   0.083 -0.1434 -0.0266  0.1287
  989SOL    HW1 2966   1.145   2.581   0.066 -1.7118 -1.0025 -3.0898
  989SOL    HW2 2967   1.144   2.458   0.183  2.7087 -3.4122  0.0957
  990SOL     OW 2968   1.817   0.919   2.862  0.5548 -0.0828 -0.9475
  990SOL    HW1 2969   1.748   0.946   2.931  2.4754  0.1193 -1.0373
  990SOL    HW2 2970   1.861   0.826   2.879  0.7902 -1.8197 -2.1628
  991SOL     OW 2971   1.190   0.318   0.423  0.5877 -0.0538  0.0841
  991SOL    HW1 2972   1.243   0.248   0.370  1.9328 -0.3796 -0.4306
  991SOL    HW2 2973   1.195   0.284   0.521 -0.4330 -1.6075 -0.7026
  992SOL     OW 2974   2.772   1.341   1.446  0.3348  0.6495  0.3446
  992SOL    HW1 2975   2.833   1.403   1.397  1.9060 -2.0791 -2.0774
  992SOL    HW2 2976   2.831   1.290   1.511 -1.4183  0.6681 -0.5864
  993SOL     OW 2977   2.788   0.810   1.516  0.0460 -0.0138 -0.1309
  993SOL    HW1 2978   2.889   0.782   1.516  0.7389 -1.0326  0.1671
  993SOL    HW2 2979   2.749   0.792   1.423  0.1752  0.3223  2.1047
  994SOL     OW 2980   0.391   2.116   2.658 -0.5609 -0.5935  0.1651
  994SOL    HW1 2981   0.446   2.140   2.573  0.2693  1.7647  0.2307
  994SOL    HW2 2982   0.327   2.193   2.685 -4.1612 -2.6019 -1.2154
  995SOL     OW 2983   1.935   1.058   2.644 -0.2985 -0.2136 -0.6431
  995SOL    HW1 2984   2.020   0.999   2.657  2.0874 -0.4740 -1.3286
  995SOL    HW2 2985   1.875   1.043   2.728 -1.5384  0.2252  1.1627
  996SOL     OW 2986   2.945   1.714   0.505 -0.0767 -0.1178  0.3787
  996SOL    HW1 2987   2.926   1.780   0.429 -2.4815  0.5764  1.9024
  996SOL    HW2 2988   2.896   1.625   0.488 -0.1519 -2.2186  1.1975
  997SOL     OW 2989   2.131   0.763   2.115 -0.0982 -0.3951  0.5384
  997SOL    HW1 2990   2.128   0.864   2.100  0.5091  0.5687  0.3599
  997SOL    HW2 2991   2.073   0.750   2.196  0.0153 -1.5342  0.0928
  998SOL     OW 2992   2.600   1.175   0.419 -0.1564  0.2672 -1.0494
  998SOL    HW1 2993   2.538   1.126   0.352 -0.1836 -0.4936 -2.5466
  998SOL    HW2 2994   2.681   1.224   0.374 -0.9578  2.1600  1.1253
  999SOL     OW 2995   2.993   2.284   0.429 -0.6386 -0.5132 -0.2589
  999SOL    HW1 2996   3.013   2.212   0.502 -1.3238  0.1079  0.5044
  999SOL    HW2 2997   2.905   2.256   0.383 -4.7907 -0.7914  0.9878
 1000SOL     OW 2998   0.888   0.732   2.522  0.4370  0.0413 -0.5148
 1000SOL    HW1 2999   0.957   0.722   2.596  3.8092  0.8933 -0.6996
 1000SOL    HW2 3000   0.864   0.644   2.470  1.6771 -2.3749 -0.6666
   3.07370   3.07370   3.07370
